Protein in water
98266
    1DT5    H5T    1   5.042   4.092   1.771  1.3976  0.5233 -0.7536
    1DT5    O5'    2   5.026   4.177   1.730 -0.3490  0.4742 -0.2550
    1DT5    C5'    3   5.135   4.191   1.650  0.2859 -0.3261 -0.7810
    1DT5   H5'1    4   5.105   4.226   1.551  3.9549  2.5130 -1.1151
    1DT5   H5'2    5   5.179   4.092   1.646 -1.6903 -1.2532 -0.4910
    1DT5    C4'    6   5.238   4.294   1.704 -0.2446  0.5542 -0.4702
    1DT5    H4'    7   5.326   4.280   1.642  0.6761  1.3154  0.6227
    1DT5    O4'    8   5.199   4.436   1.705 -0.6253  0.4344  0.6025
    1DT5    C1'    9   5.183   4.483   1.840  0.0422  0.2812 -0.0722
    1DT5    H1'   10   5.277   4.529   1.872  1.3420 -0.9021 -1.9606
    1DT5     N1   11   5.068   4.576   1.845  0.5048 -0.3591 -0.1827
    1DT5     C6   12   4.930   4.536   1.851  0.0260 -0.2708  0.4194
    1DT5     H6   13   4.907   4.431   1.847 -2.4240  0.1581  1.1789
    1DT5     C5   14   4.831   4.631   1.857 -0.3813 -0.3435 -0.4222
    1DT5     C7   15   4.686   4.581   1.857 -0.3232 -0.1309  0.4399
    1DT5    H71   16   4.680   4.473   1.867 -3.4154 -0.1139 -0.1964
    1DT5    H72   17   4.637   4.615   1.948 -2.2216  1.0994 -0.9618
    1DT5    H73   18   4.637   4.616   1.766  0.3511  1.6309  0.7092
    1DT5     C4   19   4.863   4.774   1.863 -0.2600 -0.5453 -0.7416
    1DT5     O4   20   4.792   4.871   1.862  0.2196  0.3156 -0.8987
    1DT5     N3   21   4.995   4.800   1.864  0.0547 -0.2538 -0.3731
    1DT5     H3   22   5.019   4.898   1.864  0.1707 -0.2812 -0.6149
    1DT5     C2   23   5.096   4.715   1.855 -0.8091 -0.2812  0.7002
    1DT5     O2   24   5.214   4.759   1.847  0.1454 -0.1622  0.5125
    1DT5    C3'   25   5.271   4.265   1.852 -0.1642  0.5710 -0.3725
    1DT5    H3'   26   5.259   4.158   1.868  0.6100  0.4284 -0.7054
    1DT5    C2'   27   5.166   4.351   1.928 -0.3664 -0.5523  0.5489
    1DT5   H2'1   28   5.062   4.320   1.928 -0.1533 -1.2911  0.3373
    1DT5   H2'2   29   5.203   4.380   2.027 -0.4531  1.3029  0.0832
    1DT5    O3'   30   5.404   4.300   1.873  0.4806 -0.3320 -0.3567
    2DT       P   31   5.480   4.250   2.008 -0.4159  0.1827  0.0477
    2DT     O1P   32   5.597   4.169   1.973 -0.3309 -0.1537 -0.1988
    2DT     O2P   33   5.378   4.201   2.104  0.1263 -0.1467  0.0220
    2DT     O5'   34   5.540   4.379   2.076  0.3014 -0.1025 -0.1142
    2DT     C5'   35   5.637   4.464   2.007  0.2340  0.0861  0.5147
    2DT    H5'1   36   5.615   4.469   1.900  2.1494 -2.2795 -0.1025
    2DT    H5'2   37   5.735   4.418   2.019 -0.5651 -1.3264  1.9341
    2DT     C4'   38   5.630   4.608   2.068 -0.1778 -0.8403  0.5290
    2DT     H4'   39   5.695   4.677   2.014 -1.3271 -0.0098  0.1684
    2DT     O4'   40   5.502   4.669   2.058 -0.2784 -0.9672  0.1260
    2DT     C1'   41   5.484   4.749   2.170 -0.0830  0.1313 -0.0544
    2DT     H1'   42   5.534   4.844   2.151  0.1411  0.1412  0.5905
    2DT      N1   43   5.340   4.775   2.183  0.7805  0.4320 -0.4146
    2DT      C6   44   5.250   4.673   2.218 -0.1800  0.2469  0.2969
    2DT      H6   45   5.277   4.571   2.242  0.2954  0.8626  2.5732
    2DT      C5   46   5.117   4.704   2.224  0.0371 -0.3374  0.1453
    2DT      C7   47   5.015   4.586   2.243  0.1501 -0.0376 -0.0896
    2DT     H71   48   5.062   4.489   2.260 -1.2830 -0.4203  2.1049
    2DT     H72   49   4.958   4.596   2.336 -0.1191 -0.1967 -0.2378
    2DT     H73   50   4.953   4.592   2.155  0.5118 -0.0655 -0.3485
    2DT      C4   51   5.068   4.836   2.194  0.3501 -0.2612 -0.0323
    2DT      O4   52   4.954   4.873   2.189 -0.1500 -0.2484 -0.1637
    2DT      N3   53   5.168   4.922   2.157 -0.4788 -0.3943 -0.4637
    2DT      H3   54   5.135   5.017   2.143 -2.0545 -0.7726  0.4921
    2DT      C2   55   5.300   4.908   2.162  0.1615 -0.0352  0.5760
    2DT      O2   56   5.378   5.001   2.130 -0.5355  0.3418 -0.2502
    2DT     C3'   57   5.667   4.608   2.216  0.1137  0.3017  0.2496
    2DT     H3'   58   5.680   4.509   2.260 -0.1319 -0.3800 -1.1655
    2DT     C2'   59   5.550   4.676   2.277 -0.0615  0.0344  0.5969
    2DT    H2'1   60   5.478   4.606   2.321 -1.4248  1.1744  0.2514
    2DT    H2'2   61   5.580   4.750   2.350  0.3201 -1.4752  2.0467
    2DT     O3'   62   5.790   4.680   2.221 -0.3002 -0.5616 -0.1195
    3DT       P   63   5.867   4.694   2.365 -0.5034 -0.3256 -0.4167
    3DT     O1P   64   6.010   4.701   2.332  0.4719  0.3036 -0.2547
    3DT     O2P   65   5.820   4.588   2.456  0.2721 -0.7837 -0.0629
    3DT     O5'   66   5.813   4.837   2.419  0.1558  0.2035  0.3454
    3DT     C5'   67   5.828   4.956   2.346 -0.0359 -0.5272 -0.0155
    3DT    H5'1   68   5.813   4.928   2.242  0.9517 -3.2370  0.4779
    3DT    H5'2   69   5.932   4.987   2.360 -0.3693  0.3681  0.6129
    3DT     C4'   70   5.736   5.073   2.379 -0.5356  0.0768 -0.1943
    3DT     H4'   71   5.758   5.148   2.303  1.5243 -0.4030 -0.1360
    3DT     O4'   72   5.600   5.035   2.384  0.6336  0.7915  0.8213
    3DT     C1'   73   5.539   5.090   2.492 -0.3063  0.1337  0.2667
    3DT     H1'   74   5.510   5.195   2.479  3.8507  1.5219  0.6295
    3DT      N1   75   5.420   5.002   2.515 -0.0039 -0.0583 -0.1757
    3DT      C6   76   5.430   4.870   2.541  0.2180  0.2461 -0.4809
    3DT      H6   77   5.527   4.825   2.554 -0.0538 -0.7944 -1.8131
    3DT      C5   78   5.318   4.792   2.554 -0.6468 -0.2165  0.1407
    3DT      C7   79   5.335   4.646   2.563  0.4625  0.4398 -0.5887
    3DT     H71   80   5.284   4.620   2.656  0.3894  1.5117 -0.3176
    3DT     H72   81   5.287   4.601   2.476  2.6921  0.7862 -2.0791
    3DT     H73   82   5.439   4.614   2.554  0.2208  0.0905 -2.5804
    3DT      C4   83   5.185   4.841   2.545 -0.3655 -0.6720  0.6473
    3DT      O4   84   5.079   4.779   2.551  0.0967 -0.7445  0.2553
    3DT      N3   85   5.183   4.980   2.532  0.8176  0.0936 -0.0748
    3DT      H3   86   5.091   5.023   2.532  1.8302  2.4328  1.4502
    3DT      C2   87   5.290   5.063   2.523  0.6672  0.1447  0.3967
    3DT      O2   88   5.277   5.185   2.517 -0.2042 -0.3598 -0.3301
    3DT     C3'   89   5.770   5.125   2.521  0.1109 -0.4555 -0.1967
    3DT     H3'   90   5.852   5.073   2.569  0.6739  1.4495  1.0319
    3DT     C2'   91   5.646   5.089   2.603  0.5282 -0.6369 -0.2372
    3DT    H2'1   92   5.657   4.992   2.653  2.3804  0.6518  2.1214
    3DT    H2'2   93   5.628   5.162   2.682  1.3989 -1.7350  1.0279
    3DT     O3'   94   5.787   5.262   2.511 -0.2183 -0.4082  0.3259
    4DT       P   95   5.848   5.347   2.634  0.4428  0.3774 -0.0687
    4DT     O1P   96   5.906   5.462   2.568 -0.3157 -0.2359 -0.1734
    4DT     O2P   97   5.938   5.262   2.719  0.3380  0.1552  0.1097
    4DT     O5'   98   5.728   5.395   2.725  0.0086  0.9493  0.6610
    4DT     C5'   99   5.620   5.465   2.672  0.4220 -0.2457  0.1428
    4DT    H5'1  100   5.582   5.426   2.577  0.5886 -0.2590  0.0816
    4DT    H5'2  101   5.639   5.571   2.654 -1.4580  0.1777  0.5123
    4DT     C4'  102   5.506   5.446   2.770  0.5702 -0.1025 -0.0451
    4DT     H4'  103   5.431   5.521   2.743 -0.6242 -2.0287 -2.5045
    4DT     O4'  104   5.436   5.321   2.749  0.7493  0.3583 -0.0935
    4DT     C1'  105   5.357   5.310   2.861 -0.0644 -0.0750  0.3634
    4DT     H1'  106   5.271   5.374   2.836  0.7246  0.1789 -1.9976
    4DT      N1  107   5.305   5.173   2.878 -0.5718 -0.3135  0.1731
    4DT      C6  108   5.392   5.072   2.883 -0.4968 -0.1522  0.0113
    4DT      H6  109   5.497   5.095   2.894 -1.3587  3.9211  1.4084
    4DT      C5  110   5.344   4.945   2.894  0.0776 -0.2570  0.2290
    4DT      C7  111   5.448   4.833   2.904  0.4159  0.1310  0.2644
    4DT     H71  112   5.417   4.743   2.851 -0.9597 -1.3104  3.3233
    4DT     H72  113   5.545   4.869   2.868  0.3213 -0.6362 -0.7910
    4DT     H73  114   5.453   4.805   3.009  0.2722  0.8184  0.4616
    4DT      C4  115   5.198   4.909   2.902 -0.1799 -0.0295 -0.0536
    4DT      O4  116   5.150   4.798   2.911  0.0125 -0.0857 -0.0668
    4DT      N3  117   5.124   5.020   2.888 -0.1500  0.5126 -0.1585
    4DT      H3  118   5.026   5.000   2.876  0.1532 -2.4665  1.3374
    4DT      C2  119   5.167   5.152   2.870 -0.0140  0.1062 -0.6356
    4DT      O2  120   5.082   5.234   2.853  0.3697 -0.3635  0.2042
    4DT     C3'  121   5.546   5.453   2.918  0.2020 -0.0571  0.9132
    4DT     H3'  122   5.639   5.406   2.950 -1.0892 -1.2359  3.1338
    4DT     C2'  123   5.429   5.370   2.977  0.1596  0.0273  0.1240
    4DT    H2'1  124   5.480   5.293   3.035  2.1846 -1.9453 -3.8549
    4DT    H2'2  125   5.364   5.444   3.025  1.5229  0.4622  1.3796
    4DT     O3'  126   5.568   5.587   2.945  0.8298  0.0564  0.0591
    5DT       P  127   5.534   5.646   3.089  0.3835 -0.0224  0.2775
    5DT     O1P  128   5.608   5.776   3.098  0.6345  0.3849  0.4788
    5DT     O2P  129   5.563   5.538   3.188  0.1998  0.1052 -0.9313
    5DT     O5'  130   5.373   5.668   3.096 -0.4979  0.2759  0.3275
    5DT     C5'  131   5.298   5.731   2.993  0.6071  0.5073  0.6853
    5DT    H5'1  132   5.317   5.689   2.895 -0.5119  2.2518 -0.3196
    5DT    H5'2  133   5.328   5.835   3.003  2.6144 -0.0854  1.5067
    5DT     C4'  134   5.152   5.707   3.015 -0.9103  0.5099  0.3773
    5DT     H4'  135   5.096   5.748   2.931  0.3878  1.3511 -0.1078
    5DT     O4'  136   5.131   5.567   3.014 -0.1625  0.4223  0.7455
    5DT     C1'  137   5.058   5.537   3.130 -0.2606 -0.0241 -0.0433
    5DT     H1'  138   4.952   5.546   3.109  0.1732  1.4689 -1.9534
    5DT      N1  139   5.083   5.400   3.184  0.1370 -0.4290 -0.4533
    5DT      C6  140   5.207   5.359   3.229  0.3753 -0.1336  0.2416
    5DT      H6  141   5.290   5.428   3.232 -0.0636  0.4472 -0.5110
    5DT      C5  142   5.234   5.226   3.231 -0.0345 -0.2923 -0.2572
    5DT      C7  143   5.378   5.185   3.262 -0.3644  0.1659 -0.3606
    5DT     H71  144   5.374   5.138   3.361 -1.0609  2.3074  0.6963
    5DT     H72  145   5.415   5.109   3.193 -1.1525  1.1755 -1.9520
    5DT     H73  146   5.431   5.277   3.285 -2.9277  1.2987  1.5640
    5DT      C4  147   5.130   5.128   3.207 -0.3036  0.4859  0.1627
    5DT      O4  148   5.146   5.008   3.187 -0.5808  0.3496 -0.2694
    5DT      N3  149   5.003   5.182   3.196 -0.2520  0.2938  0.5547
    5DT      H3  150   4.929   5.114   3.184 -0.4370  0.5752  0.0760
    5DT      C2  151   4.977   5.315   3.188  0.4330 -0.0632  0.9224
    5DT      O2  152   4.863   5.352   3.168 -0.3332 -0.5765  0.7265
    5DT     C3'  153   5.099   5.764   3.149 -0.4406  0.0398 -0.7618
    5DT     H3'  154   5.176   5.834   3.181 -0.8410 -0.1064  0.5613
    5DT     C2'  155   5.087   5.642   3.236 -0.3163 -0.2837 -0.3099
    5DT    H2'1  156   5.180   5.634   3.291 -1.4856  0.2145  1.8420
    5DT    H2'2  157   5.010   5.657   3.312 -0.3444 -0.5700 -0.2841
    5DT     O3'  158   4.979   5.843   3.127  0.3545 -0.0411 -0.3130
    6DT       P  159   4.925   5.945   3.239 -0.1254 -0.3609  0.3819
    6DT     O1P  160   4.821   6.033   3.180  0.1276  0.2303  0.0179
    6DT     O2P  161   5.047   6.007   3.286  0.3301  0.1426  0.1010
    6DT     O5'  162   4.864   5.855   3.354  0.0162  0.4571 -0.0544
    6DT     C5'  163   4.733   5.793   3.336  0.2059 -0.0011  0.6250
    6DT    H5'1  164   4.733   5.750   3.236  1.5154  0.1882  0.5202
    6DT    H5'2  165   4.653   5.866   3.325  1.0093  0.8712  0.3351
    6DT     C4'  166   4.695   5.688   3.434 -0.2017 -0.2614  0.0858
    6DT     H4'  167   4.591   5.660   3.417  0.3650 -2.4384 -0.0602
    6DT     O4'  168   4.776   5.572   3.411 -0.3285 -0.3834 -0.2072
    6DT     C1'  169   4.787   5.510   3.535 -0.1283  0.7310 -0.8319
    6DT     H1'  170   4.693   5.458   3.553  0.2201  0.0672 -0.8902
    6DT      N1  171   4.899   5.407   3.531  0.7451 -0.1760 -0.5406
    6DT      C6  172   5.032   5.443   3.532  0.2366 -0.1807  1.2509
    6DT      H6  173   5.054   5.549   3.533 -0.6107  0.0049  2.1730
    6DT      C5  174   5.131   5.345   3.553  0.1258 -0.1415  0.4703
    6DT      C7  175   5.266   5.397   3.575  0.1874  0.0265 -0.9244
    6DT     H71  176   5.291   5.464   3.493  0.7488  0.1969 -0.6233
    6DT     H72  177   5.262   5.458   3.666 -0.3407  0.3464 -1.1584
    6DT     H73  178   5.340   5.318   3.584  0.9902  0.6965 -1.5059
    6DT      C4  179   5.092   5.204   3.554 -0.2653  0.0746  0.5758
    6DT      O4  180   5.173   5.111   3.571 -0.5830  0.4146 -0.3948
    6DT      N3  181   4.959   5.178   3.542  0.2201 -0.1562 -0.3054
    6DT      H3  182   4.931   5.081   3.538  0.4761 -0.2023 -1.3370
    6DT      C2  183   4.860   5.275   3.531 -0.8794 -0.3434  0.3176
    6DT      O2  184   4.746   5.236   3.523 -0.2926  0.2008  0.2984
    6DT     C3'  185   4.719   5.738   3.576  0.0190  0.5512 -0.1868
    6DT     H3'  186   4.766   5.833   3.601  0.9738 -0.5052  2.4569
    6DT     C2'  187   4.805   5.623   3.630  0.0390  0.0281 -0.2140
    6DT    H2'1  188   4.909   5.657   3.631 -0.4427  1.6307 -0.4554
    6DT    H2'2  189   4.770   5.585   3.726  2.0111 -0.1177  0.4937
    6DT     O3'  190   4.591   5.750   3.622  0.1043  0.4818  0.2208
    7DT       P  191   4.531   5.715   3.773  0.3140  0.1787  0.1020
    7DT     O1P  192   4.394   5.777   3.782 -0.6438 -0.3092  0.1860
    7DT     O2P  193   4.629   5.736   3.876  0.2257 -0.4675  0.5713
    7DT     O5'  194   4.506   5.560   3.756  0.0489  0.6296 -0.4309
    7DT     C5'  195   4.418   5.506   3.663  0.6438  0.3625  0.6956
    7DT    H5'1  196   4.461   5.498   3.563  0.1879 -1.5691  0.6134
    7DT    H5'2  197   4.329   5.569   3.658  0.8208  0.5194 -1.0365
    7DT     C4'  198   4.371   5.364   3.701  0.3257 -0.1548  0.3862
    7DT     H4'  199   4.284   5.337   3.642 -1.2470  3.7809  0.5807
    7DT     O4'  200   4.477   5.268   3.696 -0.0733  0.0026 -0.1616
    7DT     C1'  201   4.514   5.231   3.822 -0.2011  0.2826 -0.5970
    7DT     H1'  202   4.488   5.126   3.840  0.1532  0.5906  2.0306
    7DT      N1  203   4.662   5.243   3.852  0.1133 -0.6929 -0.1898
    7DT      C6  204   4.718   5.365   3.898 -0.1622 -0.6409  0.0718
    7DT      H6  205   4.656   5.447   3.930  1.2365 -0.1375  1.6210
    7DT      C5  206   4.855   5.382   3.922 -0.0036 -0.5396 -0.2414
    7DT      C7  207   4.915   5.521   3.964  0.3442  0.0584 -0.0654
    7DT     H71  208   5.016   5.531   3.925  0.0352 -0.1154 -0.9359
    7DT     H72  209   4.862   5.611   3.931 -0.4066 -0.2800  0.1970
    7DT     H73  210   4.930   5.516   4.072  0.4492 -0.2395 -0.0936
    7DT      C4  211   4.937   5.267   3.895  0.4081 -0.0716  0.1522
    7DT      O4  212   5.058   5.258   3.917  0.0863 -0.9939  0.0714
    7DT      N3  213   4.877   5.152   3.852 -0.0474  0.4564  0.0747
    7DT      H3  214   4.944   5.077   3.839 -2.6567 -2.5341  2.2358
    7DT      C2  215   4.743   5.129   3.840 -0.1700 -0.0600  0.0272
    7DT      O2  216   4.707   5.011   3.812 -0.2261  0.0809 -0.0494
    7DT     C3'  217   4.310   5.363   3.839  0.8342  0.2428  0.5007
    7DT     H3'  218   4.304   5.466   3.874  1.6990  1.2876 -2.1814
    7DT     C2'  219   4.421   5.301   3.926  0.2238  0.2173  0.4168
    7DT    H2'1  220   4.472   5.377   3.985  0.9978 -1.5655  2.1747
    7DT    H2'2  221   4.388   5.220   3.990  1.0347  0.0315  0.6094
    7DT     O3'  222   4.186   5.292   3.843  0.1351 -0.9994 -0.2191
    8DT       P  223   4.100   5.269   3.978  0.0388 -0.2506 -0.0407
    8DT     O1P  224   3.959   5.237   3.943 -0.0431 -0.5261  0.6936
    8DT     O2P  225   4.119   5.383   4.074 -0.0632  0.1109  1.0509
    8DT     O5'  226   4.177   5.136   4.026  0.2105 -0.6856 -0.2210
    8DT     C5'  227   4.172   5.016   3.957  0.8634  0.2605 -0.5355
    8DT    H5'1  228   4.216   5.029   3.858  0.1758  1.5511 -0.6857
    8DT    H5'2  229   4.069   4.983   3.951  1.4409 -1.4612 -2.1437
    8DT     C4'  230   4.256   4.908   4.028 -0.5484  0.0173 -0.7451
    8DT     H4'  231   4.243   4.816   3.970 -0.6296  1.4018 -3.0401
    8DT     O4'  232   4.394   4.934   4.029 -1.0049 -0.0632 -0.1648
    8DT     C1'  233   4.438   4.897   4.153  0.2752  0.3377 -1.1078
    8DT     H1'  234   4.470   4.794   4.139  1.1148  0.2532  1.0378
    8DT      N1  235   4.566   4.959   4.183 -0.2411 -0.1028 -0.4219
    8DT      C6  236   4.574   5.094   4.213 -0.2133 -1.2229 -0.7225
    8DT      H6  237   4.486   5.151   4.237  1.2477  0.4835  0.8850
    8DT      C5  238   4.694   5.160   4.229 -0.0629 -0.9125  0.3411
    8DT      C7  239   4.683   5.308   4.263 -0.5524  0.4110 -0.5644
    8DT     H71  240   4.732   5.317   4.360 -0.9753  0.3399 -0.3430
    8DT     H72  241   4.735   5.367   4.188  1.0618 -0.4673 -0.1841
    8DT     H73  242   4.584   5.353   4.262 -0.3483  0.8570 -0.6771
    8DT      C4  243   4.825   5.093   4.214  0.4859  0.6350 -0.9288
    8DT      O4  244   4.937   5.141   4.211 -0.0223 -0.3982 -0.0359
    8DT      N3  245   4.808   4.966   4.178 -0.2747 -0.5425  0.4921
    8DT      H3  246   4.889   4.913   4.149  0.2264 -1.2469  2.9333
    8DT      C2  247   4.687   4.893   4.162 -0.6460  0.1109 -0.8761
    8DT      O2  248   4.688   4.773   4.136 -0.4227 -0.7570  0.5956
    8DT     C3'  249   4.201   4.888   4.172 -0.4097 -0.3690 -0.4019
    8DT     H3'  250   4.119   4.955   4.197 -1.3460 -1.8267  0.6295
    8DT     C2'  251   4.324   4.922   4.259 -0.2889  0.5723  0.1925
    8DT    H2'1  252   4.315   5.026   4.291 -1.5335  0.6731 -0.4464
    8DT    H2'2  253   4.328   4.847   4.338  1.5399  0.3455 -0.0583
    8DT     O3'  254   4.156   4.755   4.177 -0.8628 -0.0164  0.0182
    9DT       P  255   4.095   4.683   4.305  0.4500 -0.4988 -0.2311
    9DT     O1P  256   4.018   4.562   4.256  0.0860  0.0939 -0.4101
    9DT     O2P  257   4.035   4.786   4.390  0.2794 -0.1960 -0.2457
    9DT     O5'  258   4.231   4.641   4.374  0.5908 -0.4113 -0.2237
    9DT     C5'  259   4.335   4.566   4.302  0.0709  0.6280 -0.0906
    9DT    H5'1  260   4.366   4.613   4.209 -1.2367 -0.3927 -1.0831
    9DT    H5'2  261   4.281   4.475   4.274 -0.3875  0.8814 -0.0508
    9DT     C4'  262   4.458   4.519   4.382 -0.3644  0.1574 -0.3524
    9DT     H4'  263   4.511   4.437   4.333 -1.9317 -0.7863 -0.5396
    9DT     O4'  264   4.540   4.632   4.392  0.2302  0.7342  0.0030
    9DT     C1'  265   4.614   4.628   4.511 -0.4210  0.2992  0.3646
    9DT     H1'  266   4.702   4.564   4.506 -0.3049  0.5727 -2.9011
    9DT      N1  267   4.660   4.765   4.533  0.5814 -0.1315  0.4197
    9DT      C6  268   4.568   4.866   4.543  0.0676 -0.6237 -0.1474
    9DT      H6  269   4.464   4.838   4.551 -0.1213 -0.3441 -1.4447
    9DT      C5  270   4.608   4.994   4.550 -0.7182  0.4569 -0.2138
    9DT      C7  271   4.506   5.101   4.547  1.1187  0.0557 -0.1439
    9DT     H71  272   4.486   5.142   4.647 -2.5494 -3.1351  0.6757
    9DT     H72  273   4.542   5.183   4.484 -1.2317  2.3096  1.2226
    9DT     H73  274   4.413   5.062   4.506  1.4909 -0.2238 -0.7323
    9DT      C4  275   4.753   5.028   4.543 -0.4799  0.2371 -0.0650
    9DT      O4  276   4.806   5.137   4.546 -0.1811 -0.1038 -0.4614
    9DT      N3  277   4.835   4.917   4.534 -0.4441 -0.6073  0.0011
    9DT      H3  278   4.933   4.943   4.538 -0.7365  0.5687  0.1113
    9DT      C2  279   4.795   4.789   4.517  0.4704 -0.5122 -0.6601
    9DT      O2  280   4.884   4.705   4.496 -0.5484 -0.3242  0.0750
    9DT     C3'  281   4.433   4.462   4.522 -0.3256 -0.5522  0.2845
    9DT     H3'  282   4.326   4.473   4.540 -1.3332 -0.5250 -4.4995
    9DT     C2'  283   4.515   4.561   4.606  0.0109 -0.3802  0.1173
    9DT    H2'1  284   4.444   4.637   4.639 -1.9885 -0.5971 -3.2014
    9DT    H2'2  285   4.561   4.519   4.695  0.2010  1.0160  0.7063
    9DT     O3'  286   4.481   4.327   4.528 -0.1412 -0.0185 -0.0576
   10DT       P  287   4.471   4.235   4.660  0.3854  0.2570 -0.2997
   10DT     O1P  288   4.478   4.096   4.621 -1.0716 -0.1686  0.5469
   10DT     O2P  289   4.361   4.276   4.746  0.0927  0.4112 -0.6536
   10DT     O5'  290   4.607   4.269   4.726  0.0249  0.2414 -0.1247
   10DT     C5'  291   4.725   4.238   4.651 -0.2082 -0.5248 -0.1585
   10DT    H5'1  292   4.722   4.280   4.551  2.7382  1.6718  0.5535
   10DT    H5'2  293   4.745   4.133   4.627  0.1423 -0.5405  0.1962
   10DT     C4'  294   4.844   4.295   4.722  0.9149 -0.1020  0.1957
   10DT     H4'  295   4.930   4.263   4.662  1.2965  1.0197  0.1282
   10DT     O4'  296   4.835   4.431   4.714 -0.2363 -0.7381  0.2842
   10DT     C1'  297   4.904   4.477   4.830 -0.4176  0.0523 -0.1023
   10DT     H1'  298   5.010   4.462   4.813 -0.6335 -1.5688 -0.1978
   10DT      N1  299   4.872   4.622   4.841 -0.3767 -0.3176  0.2907
   10DT      C6  300   4.750   4.665   4.877 -0.2297 -0.0463  0.2498
   10DT      H6  301   4.674   4.596   4.912 -1.3905 -0.6689 -3.1263
   10DT      C5  302   4.718   4.800   4.880  0.0471  0.7018  0.8691
   10DT      C7  303   4.581   4.832   4.930 -0.6339 -0.1719  0.9283
   10DT     H71  304   4.587   4.852   5.037 -3.0112  2.7549  0.6607
   10DT     H72  305   4.541   4.919   4.878  1.4392  0.9406  1.0729
   10DT     H73  306   4.521   4.743   4.909  0.6773 -0.9703  0.4910
   10DT      C4  307   4.821   4.899   4.871 -0.4628  0.2295 -0.7627
   10DT      O4  308   4.804   5.026   4.863  0.2441  0.2942 -0.1981
   10DT      N3  309   4.947   4.850   4.851  0.0435 -1.0699 -0.5612
   10DT      H3  310   5.012   4.916   4.809  1.2408 -1.4452  0.6500
   10DT      C2  311   4.981   4.719   4.826  0.1583  0.2375  0.0031
   10DT      O2  312   5.098   4.687   4.802 -0.4611 -0.0400 -0.2334
   10DT     C3'  313   4.855   4.251   4.867  0.1736  0.3058  0.8985
   10DT     H3'  314   4.755   4.216   4.895 -0.6331 -0.2548 -2.3211
   10DT     C2'  315   4.874   4.382   4.942 -0.0658  0.3459 -0.2476
   10DT    H2'1  316   4.782   4.403   4.996 -0.2136  0.6467 -0.6188
   10DT    H2'2  317   4.951   4.372   5.019 -0.8301 -1.6268  0.3447
   10DT     O3'  318   4.951   4.156   4.871 -0.2498  0.1007 -0.2041
   11DT       P  319   4.991   4.086   5.004 -0.0314  0.0019  0.0040
   11DT     O1P  320   5.057   3.957   4.965 -0.0293  0.2273 -0.0938
   11DT     O2P  321   4.874   4.089   5.095 -0.1277  0.7044  0.3522
   11DT     O5'  322   5.101   4.172   5.075 -0.1347  0.0283  0.1238
   11DT     C5'  323   5.214   4.215   4.997 -0.5801  0.3533  0.5821
   11DT    H5'1  324   5.192   4.273   4.908  1.2416  0.2470  0.0224
   11DT    H5'2  325   5.275   4.128   4.972  0.1116  1.5590 -2.2249
   11DT     C4'  326   5.294   4.310   5.082  0.2104  0.0177 -0.1310
   11DT     H4'  327   5.397   4.303   5.047  0.0751  1.3031 -0.8349
   11DT     O4'  328   5.239   4.444   5.078 -0.0032  0.5065  0.0745
   11DT     C1'  329   5.234   4.497   5.205  0.3817 -0.7581 -0.2916
   11DT     H1'  330   5.325   4.552   5.229  0.0652 -0.2845 -0.1559
   11DT      N1  331   5.118   4.593   5.197 -0.7596  0.2117 -0.0546
   11DT      C6  332   4.992   4.550   5.227  0.1308 -0.1559  0.1815
   11DT      H6  333   4.975   4.446   5.249  0.7403 -0.3407 -0.2018
   11DT      C5  334   4.891   4.640   5.218  0.0329 -0.1943 -0.2547
   11DT      C7  335   4.752   4.597   5.248 -0.5791  0.1387 -0.1476
   11DT     H71  336   4.705   4.659   5.324  2.3332  2.4762 -0.0875
   11DT     H72  337   4.696   4.605   5.155 -1.7718  0.2458  0.5556
   11DT     H73  338   4.755   4.491   5.275  2.9208  0.1045 -0.2748
   11DT      C4  339   4.910   4.777   5.195 -0.4158 -0.1408  0.0524
   11DT      O4  340   4.831   4.873   5.188 -0.2578  0.6159 -0.1879
   11DT      N3  341   5.043   4.813   5.174 -1.1629  0.4128 -0.1869
   11DT      H3  342   5.065   4.912   5.173 -0.1898  0.2263  1.0100
   11DT      C2  343   5.149   4.727   5.171 -0.4575 -0.6229  0.0027
   11DT      O2  344   5.264   4.774   5.144  0.5731 -0.6992 -0.1843
   11DT     C3'  345   5.295   4.260   5.235 -0.3244 -0.3586 -0.1855
   11DT     H3'  346   5.234   4.171   5.251  1.7897 -1.7591  0.5617
   11DT     C2'  347   5.232   4.377   5.309 -0.4725  0.0881  0.3319
   11DT    H2'1  348   5.130   4.352   5.337  0.2016 -1.1617  1.7507
   11DT    H2'2  349   5.280   4.405   5.402 -0.1845  0.0997  0.1830
   11DT     O3'  350   5.432   4.231   5.264 -0.3255  0.0738  0.5683
   12DT       P  351   5.502   4.252   5.407  0.2158 -0.6008 -0.2732
   12DT     O1P  352   5.625   4.178   5.377 -0.3789 -0.3552  0.3863
   12DT     O2P  353   5.411   4.216   5.518 -0.2041 -0.2719 -0.4750
   12DT     O5'  354   5.543   4.410   5.418  0.3189  0.9732  0.5292
   12DT     C5'  355   5.596   4.479   5.310  0.7878 -1.3158 -0.3204
   12DT    H5'1  356   5.529   4.457   5.227  0.0329 -1.7610  0.3933
   12DT    H5'2  357   5.692   4.437   5.280  0.6140 -3.0779  1.3817
   12DT     C4'  358   5.616   4.637   5.345  0.3594  0.3613 -0.0306
   12DT     H4'  359   5.676   4.684   5.267  1.8355  1.5843  1.7372
   12DT     O4'  360   5.495   4.703   5.352 -0.4607 -0.4728  0.8487
   12DT     C1'  361   5.479   4.767   5.475 -0.0831 -0.4792 -0.0845
   12DT     H1'  362   5.523   4.866   5.480  0.1358 -0.5440 -0.7190
   12DT      N1  363   5.327   4.776   5.495 -0.5399  0.1734  0.7149
   12DT      C6  364   5.271   4.662   5.537  0.2282  0.4647 -0.4885
   12DT      H6  365   5.327   4.570   5.540 -1.3336 -0.5577 -1.2692
   12DT      C5  366   5.138   4.661   5.557  0.1909  0.3795 -0.3223
   12DT      C7  367   5.077   4.523   5.595 -0.2174 -0.1566 -0.1052
   12DT     H71  368   5.011   4.488   5.516  0.8590 -2.1596 -0.1657
   12DT     H72  369   5.146   4.443   5.619  0.5327  0.3891 -0.3936
   12DT     H73  370   5.016   4.545   5.683 -0.4424  1.0374 -0.5375
   12DT      C4  371   5.053   4.780   5.547  0.5910  0.6206  0.4789
   12DT      O4  372   4.927   4.788   5.564  0.2649  0.7194 -0.2899
   12DT      N3  373   5.125   4.897   5.516  0.3394 -0.2965 -0.1668
   12DT      H3  374   5.072   4.980   5.493 -0.1286 -0.0526  1.6406
   12DT      C2  375   5.257   4.900   5.477  0.1021  0.0451  0.0824
   12DT      O2  376   5.314   5.001   5.435  0.3154 -0.5663 -0.2018
   12DT     C3'  377   5.689   4.631   5.483  1.0001 -0.7280 -0.5422
   12DT     H3'  378   5.721   4.529   5.505  3.0170 -0.1052 -0.3831
   12DT     C2'  379   5.569   4.688   5.574 -0.3484  0.1826  0.1495
   12DT    H2'1  380   5.509   4.611   5.623 -1.8435  1.8410  1.0792
   12DT    H2'2  381   5.596   4.758   5.653 -1.0325 -1.0889  1.5701
   12DT     O3'  382   5.802   4.723   5.473 -0.3721  0.3322  0.2853
   13DT       P  383   5.895   4.742   5.603 -0.3087  0.3899  0.3812
   13DT     O1P  384   6.029   4.791   5.567 -0.2291 -0.0363  0.6370
   13DT     O2P  385   5.875   4.619   5.686 -0.2529 -0.0877  0.2816
   13DT     O5'  386   5.827   4.864   5.678  0.2247  0.3556 -0.2411
   13DT     C5'  387   5.809   4.995   5.617  0.1565 -0.0173 -0.0701
   13DT    H5'1  388   5.757   4.990   5.521 -1.1753  1.7291  0.5225
   13DT    H5'2  389   5.907   5.043   5.604 -0.0694  0.1997 -1.1377
   13DT     C4'  390   5.700   5.070   5.701 -0.0620 -0.0096  0.1981
   13DT     H4'  391   5.685   5.172   5.665  1.4128 -0.0467 -0.6167
   13DT     O4'  392   5.573   5.012   5.695  0.2275 -0.1082 -0.2693
   13DT     C1'  393   5.491   5.066   5.800 -0.2313  0.2720 -0.1878
   13DT     H1'  394   5.459   5.165   5.768 -0.0748  0.6918  0.9201
   13DT      N1  395   5.379   4.984   5.828 -0.2127 -0.2169  0.2181
   13DT      C6  396   5.391   4.848   5.861 -0.3092 -0.0272  0.6441
   13DT      H6  397   5.490   4.807   5.871  0.7825  2.5043  1.0475
   13DT      C5  398   5.283   4.765   5.870 -0.7825  0.0118  0.3962
   13DT      C7  399   5.295   4.613   5.898 -0.3785 -0.8055 -0.5757
   13DT     H71  400   5.401   4.590   5.889  0.6792  2.7801  0.9394
   13DT     H72  401   5.256   4.596   5.998 -1.2647 -0.8892 -0.9240
   13DT     H73  402   5.241   4.561   5.819  1.4778 -0.9816 -1.7776
   13DT      C4  403   5.152   4.826   5.858 -0.3771  0.8432 -0.2826
   13DT      O4  404   5.044   4.770   5.871  0.1147  0.1744  0.5305
   13DT      N3  405   5.148   4.966   5.835  0.2958 -0.1996  0.0322
   13DT      H3  406   5.061   5.017   5.836  0.2563 -0.2762  1.0958
   13DT      C2  407   5.252   5.049   5.826 -0.3020  0.9805  0.1743
   13DT      O2  408   5.240   5.166   5.801  0.3981 -0.0731  0.4133
   13DT     C3'  409   5.727   5.081   5.849  0.6890  0.5241  0.1974
   13DT     H3'  410   5.793   4.998   5.874  1.5596  1.0458 -0.3110
   13DT     C2'  411   5.592   5.075   5.917  0.7903  0.4249 -0.0823
   13DT    H2'1  412   5.595   4.978   5.967 -1.5290 -0.2954 -1.2057
   13DT    H2'2  413   5.576   5.157   5.987 -0.4164 -0.2943  0.4992
   13DT     O3'  414   5.803   5.201   5.863 -0.0959  0.1303  0.0333
   14DT       P  415   5.868   5.248   6.006  0.3296  0.0122 -0.1480
   14DT     O1P  416   5.977   5.346   5.980  0.1948 -0.2391 -0.1091
   14DT     O2P  417   5.900   5.128   6.083  0.1114 -0.1564 -0.1604
   14DT     O5'  418   5.735   5.327   6.056 -0.1670  0.3283  0.2972
   14DT     C5'  419   5.660   5.419   5.980 -0.3639 -0.4049  0.1603
   14DT    H5'1  420   5.625   5.385   5.883 -2.1908 -0.5844  0.8421
   14DT    H5'2  421   5.721   5.503   5.947 -2.4145  0.4297 -1.8110
   14DT     C4'  422   5.542   5.475   6.053 -0.4389  0.0797 -0.0313
   14DT     H4'  423   5.516   5.565   5.997  1.6626 -1.2018 -3.4338
   14DT     O4'  424   5.438   5.381   6.058  0.1755  1.3138  0.3783
   14DT     C1'  425   5.377   5.385   6.185 -0.2920  0.7396  0.0157
   14DT     H1'  426   5.305   5.466   6.186 -0.1244  0.8910 -0.1243
   14DT      N1  427   5.319   5.247   6.201  0.1508  0.2862 -0.6800
   14DT      C6  428   5.402   5.136   6.218 -0.1599 -0.1019  0.5998
   14DT      H6  429   5.507   5.160   6.218 -0.8383  3.7349 -1.5860
   14DT      C5  430   5.340   5.020   6.234  0.2398 -0.2122 -0.7332
   14DT      C7  431   5.436   4.895   6.233  1.2933  0.7365  0.4023
   14DT     H71  432   5.404   4.832   6.316 -2.3679  1.5666 -0.2252
   14DT     H72  433   5.432   4.840   6.139  0.2142  1.4007  0.0449
   14DT     H73  434   5.539   4.924   6.255  2.4548 -1.6339 -1.4280
   14DT      C4  435   5.200   4.999   6.225  0.0700  0.0037  0.4072
   14DT      O4  436   5.137   4.893   6.219 -0.3597  0.9555  0.3212
   14DT      N3  437   5.133   5.114   6.200 -0.2441 -0.0918 -0.2930
   14DT      H3  438   5.039   5.102   6.164  0.2869 -2.9254 -0.9384
   14DT      C2  439   5.182   5.235   6.178 -0.5571 -0.3994  0.4440
   14DT      O2  440   5.103   5.326   6.152  0.0060  0.6958 -0.4065
   14DT     C3'  441   5.585   5.518   6.195 -0.2029 -0.2731 -0.3337
   14DT     H3'  442   5.689   5.488   6.212 -0.2847  0.5164  1.8571
   14DT     C2'  443   5.486   5.425   6.280 -0.5603  0.8534  0.2913
   14DT    H2'1  444   5.541   5.339   6.318 -0.1295  0.7298 -0.5693
   14DT    H2'2  445   5.452   5.476   6.370 -0.6663 -0.0051  0.7462
   14DT     O3'  446   5.567   5.663   6.211  0.0050 -0.5118 -0.1279
   15DT       P  447   5.543   5.734   6.353  0.5203  0.1151  0.3673
   15DT     O1P  448   5.558   5.881   6.340  0.4842  0.1969 -0.0382
   15DT     O2P  449   5.623   5.665   6.459 -0.0086 -0.1807  0.0465
   15DT     O5'  450   5.387   5.708   6.376 -0.8215  0.3261  0.5260
   15DT     C5'  451   5.284   5.733   6.282 -0.4197 -0.4143 -0.5619
   15DT    H5'1  452   5.302   5.684   6.186 -0.6583  0.3539 -1.0174
   15DT    H5'2  453   5.289   5.841   6.262 -2.2774 -0.1421  0.3099
   15DT     C4'  454   5.146   5.700   6.340  0.2173  0.1068  0.0459
   15DT     H4'  455   5.071   5.743   6.274 -1.5097 -1.8874  0.6037
   15DT     O4'  456   5.128   5.551   6.348  0.0100  0.4314  0.4226
   15DT     C1'  457   5.069   5.528   6.476  0.5068  0.5967 -0.4473
   15DT     H1'  458   4.963   5.549   6.467  0.2701 -0.7285 -0.8612
   15DT      N1  459   5.088   5.385   6.516  0.1845 -0.2917  0.2799
   15DT      C6  460   5.218   5.338   6.550  0.2399 -0.4910  0.6932
   15DT      H6  461   5.298   5.410   6.543 -0.4771  0.2072 -0.5844
   15DT      C5  462   5.247   5.206   6.557  0.0912 -0.4115  0.0692
   15DT      C7  463   5.386   5.163   6.582  0.3720 -1.0865  0.1560
   15DT     H71  464   5.404   5.069   6.530 -1.1117 -1.3205  0.0041
   15DT     H72  465   5.455   5.239   6.546  1.2788 -2.4003 -1.0121
   15DT     H73  466   5.413   5.144   6.685 -1.3078 -0.7335  0.6891
   15DT      C4  467   5.134   5.108   6.547 -0.0878 -0.4006 -0.2075
   15DT      O4  468   5.140   4.988   6.563 -0.0721 -0.4454  0.5379
   15DT      N3  469   5.011   5.168   6.522  0.1563  0.2351  0.0080
   15DT      H3  470   4.931   5.106   6.522 -0.6005  1.1355  2.0256
   15DT      C2  471   4.977   5.299   6.505 -0.3042 -0.0458 -0.1062
   15DT      O2  472   4.859   5.333   6.492  0.2674 -0.4980  0.1060
   15DT     C3'  473   5.142   5.764   6.480 -0.8525  0.3460 -0.3764
   15DT     H3'  474   5.232   5.817   6.510  0.7811 -2.5508  0.2080
   15DT     C2'  475   5.127   5.636   6.568 -0.0333  0.1770 -0.7041
   15DT    H2'1  476   5.223   5.606   6.611 -0.3849 -2.0982 -1.3764
   15DT    H2'2  477   5.070   5.653   6.659  0.8873  0.1106 -0.1056
   15DT     O3'  478   5.028   5.843   6.493 -0.2850 -0.3350 -0.1785
   16DT       P  479   4.982   5.919   6.620 -0.2297 -0.1224 -0.1511
   16DT     O1P  480   4.887   6.021   6.577  0.1808  0.6784 -0.1450
   16DT     O2P  481   5.099   5.957   6.703 -0.0131 -0.1002 -0.4332
   16DT     O5'  482   4.904   5.811   6.694 -0.0512  0.1952 -0.0298
   16DT     C5'  483   4.784   5.768   6.631 -0.4401 -0.5084 -0.1797
   16DT    H5'1  484   4.801   5.740   6.527  0.4307  1.3559 -0.5921
   16DT    H5'2  485   4.706   5.845   6.637  0.2113  0.0714  2.3304
   16DT     C4'  486   4.736   5.650   6.710 -0.4707 -0.1814 -0.1467
   16DT     H4'  487   4.638   5.625   6.669 -1.7650  1.9409  1.4820
   16DT     O4'  488   4.819   5.534   6.704 -0.0402 -0.4107 -0.2823
   16DT     C1'  489   4.789   5.465   6.823 -0.6434  0.1156 -0.0058
   16DT     H1'  490   4.696   5.410   6.809  0.6353 -2.1189 -0.0867
   16DT      N1  491   4.901   5.376   6.868  0.2725  0.0898  0.6138
   16DT      C6  492   5.028   5.428   6.882 -0.1416 -0.1114  0.1015
   16DT      H6  493   5.042   5.535   6.877  3.1188 -0.4288  0.2479
   16DT      C5  494   5.135   5.349   6.893 -0.2335  0.6026 -0.2869
   16DT      C7  495   5.273   5.414   6.901  0.5950 -0.8447  0.1350
   16DT     H71  496   5.273   5.522   6.919  2.5172 -0.9581  1.0781
   16DT     H72  497   5.331   5.366   6.979  0.2224 -1.9403 -0.2464
   16DT     H73  498   5.330   5.400   6.809  1.2679  0.0988  0.3885
   16DT      C4  499   5.124   5.198   6.888  0.4630  0.2447 -0.3922
   16DT      O4  500   5.226   5.124   6.884  0.2190 -0.1146 -0.3518
   16DT      N3  501   4.992   5.149   6.884 -0.0947 -0.0555  0.9017
   16DT      H3  502   4.964   5.054   6.868 -1.1197  0.3879 -0.1110
   16DT      C2  503   4.883   5.235   6.862 -0.2692  0.3203 -0.1083
   16DT      O2  504   4.778   5.181   6.838 -0.1564 -0.6318 -0.4339
   16DT     C3'  505   4.708   5.695   6.857  0.1405 -0.7565 -0.1963
   16DT     H3'  506   4.765   5.783   6.886 -0.3648 -0.0332 -1.3850
   16DT     C2'  507   4.756   5.575   6.934  0.1279  0.5058  0.3756
   16DT    H2'1  508   4.851   5.596   6.983  0.6198 -1.9638  0.6537
   16DT    H2'2  509   4.690   5.529   7.008  1.5664 -2.1110  0.1492
   16DT     O3'  510   4.570   5.724   6.866 -0.2213  0.4470  0.2535
   17DT       P  511   4.499   5.748   7.008  0.1057  0.3808 -0.4585
   17DT     O1P  512   4.370   5.806   6.978  0.0227 -0.6332  0.2200
   17DT     O2P  513   4.589   5.822   7.102 -0.6084 -0.2005 -0.0568
   17DT     O5'  514   4.458   5.603   7.062  0.3957 -0.3329 -0.0151
   17DT     C5'  515   4.384   5.513   6.981  0.2917 -0.1669  0.1527
   17DT    H5'1  516   4.415   5.509   6.877  0.4233  0.5348  0.1625
   17DT    H5'2  517   4.277   5.534   6.981 -0.1437 -2.0174  2.1659
   17DT     C4'  518   4.391   5.364   7.031 -0.8903  0.5255 -0.8994
   17DT     H4'  519   4.336   5.297   6.965 -0.7960 -0.0060 -0.4431
   17DT     O4'  520   4.526   5.320   7.034 -0.0993 -0.2458  0.3741
   17DT     C1'  521   4.534   5.217   7.127 -1.0546 -0.3006 -0.1213
   17DT     H1'  522   4.473   5.134   7.089 -0.7100 -1.4802  1.7722
   17DT      N1  523   4.679   5.188   7.157  0.2237 -0.6097 -0.0946
   17DT      C6  524   4.766   5.292   7.194 -0.3857  0.0460 -0.4317
   17DT      H6  525   4.725   5.391   7.212 -1.2719 -0.3853 -0.0008
   17DT      C5  526   4.899   5.261   7.213 -0.1581 -0.5062 -0.7713
   17DT      C7  527   4.998   5.382   7.237 -0.1001 -0.0448 -0.2394
   17DT     H71  528   5.047   5.367   7.333 -0.9529 -1.4234  0.0079
   17DT     H72  529   5.082   5.395   7.169  1.8440  0.3487  2.1072
   17DT     H73  530   4.937   5.473   7.231  0.9981  0.6463 -1.6912
   17DT      C4  531   4.945   5.123   7.193  0.1816 -0.0347 -0.0824
   17DT      O4  532   5.061   5.085   7.194  0.4496  0.3884 -0.1094
   17DT      N3  533   4.848   5.037   7.151 -0.4162 -0.1714 -0.6097
   17DT      H3  534   4.881   4.942   7.164  1.1896  0.4405  0.0429
   17DT      C2  535   4.717   5.058   7.142  0.2021  0.2774 -0.1497
   17DT      O2  536   4.640   4.961   7.149 -0.3266  0.2991  0.3505
   17DT     C3'  537   4.334   5.352   7.173 -0.6564 -0.3901  0.5697
   17DT     H3'  538   4.306   5.446   7.221  1.9410  1.3034 -0.9992
   17DT     C2'  539   4.456   5.282   7.241 -0.9663  0.1533  0.5956
   17DT    H2'1  540   4.523   5.356   7.286  2.6491 -2.1311 -0.6253
   17DT    H2'2  541   4.431   5.211   7.320  0.8267 -0.5014  0.6300
   17DT     O3'  542   4.216   5.278   7.159 -0.2408  0.2160  0.5679
   18DT       P  543   4.125   5.242   7.289 -0.0839 -0.5826  0.2545
   18DT     O1P  544   3.995   5.188   7.242  0.5392  0.8243  0.5127
   18DT     O2P  545   4.129   5.349   7.388  1.1657  0.5418 -0.6135
   18DT     O5'  546   4.206   5.124   7.349  0.3650 -0.0346  0.1421
   18DT     C5'  547   4.222   5.003   7.272 -0.8246  0.7573 -0.4431
   18DT    H5'1  548   4.282   5.020   7.182  1.4902 -1.1022  0.6540
   18DT    H5'2  549   4.125   4.959   7.252  0.1054 -2.2329  1.0876
   18DT     C4'  550   4.298   4.905   7.361  0.2240 -0.3664  0.6595
   18DT     H4'  551   4.291   4.812   7.305  0.2054  0.2827 -0.4532
   18DT     O4'  552   4.439   4.938   7.356  0.1039  0.2872  0.3537
   18DT     C1'  553   4.487   4.882   7.478 -0.4161 -0.8546 -0.2795
   18DT     H1'  554   4.497   4.776   7.456 -0.7389 -0.7302 -1.0884
   18DT      N1  555   4.621   4.949   7.509  0.0993  0.0153  0.5008
   18DT      C6  556   4.633   5.083   7.539 -0.6610 -0.2854  0.1789
   18DT      H6  557   4.544   5.140   7.559 -0.6425  0.5161 -1.7680
   18DT      C5  558   4.756   5.138   7.543 -0.2758  0.3719  0.0561
   18DT      C7  559   4.777   5.283   7.579  0.7588 -0.5303 -0.5804
   18DT     H71  560   4.860   5.310   7.514  1.1114 -1.0423 -0.3577
   18DT     H72  561   4.685   5.339   7.562  0.8551 -0.4776 -0.9249
   18DT     H73  562   4.816   5.282   7.681  1.0399 -0.0078 -0.6810
   18DT      C4  563   4.881   5.059   7.519  0.2927 -0.1001  0.4612
   18DT      O4  564   4.995   5.099   7.511  0.3150 -0.1294 -0.5525
   18DT      N3  565   4.857   4.929   7.507 -0.3024  0.0936  0.9220
   18DT      H3  566   4.935   4.871   7.480  0.8827  1.9553  0.1615
   18DT      C2  567   4.737   4.869   7.504  0.3969 -0.0172  0.4537
   18DT      O2  568   4.726   4.741   7.487 -0.1886 -0.3169 -0.0747
   18DT     C3'  569   4.256   4.882   7.504  0.8285 -0.3420  0.2237
   18DT     H3'  570   4.192   4.968   7.525 -1.2799 -1.7240 -0.3463
   18DT     C2'  571   4.377   4.900   7.580 -0.1908 -0.3280  0.3052
   18DT    H2'1  572   4.391   5.001   7.620  0.7625 -0.1527 -0.4371
   18DT    H2'2  573   4.385   4.827   7.660 -0.7826  0.1867  0.8509
   18DT     O3'  574   4.191   4.761   7.520  0.1499 -0.1981 -0.0600
   19DT       P  575   4.139   4.712   7.662  0.5261  0.0835  0.2154
   19DT     O1P  576   4.044   4.604   7.636  0.3724 -0.1933 -0.6733
   19DT     O2P  577   4.107   4.826   7.748 -0.5269 -0.1390 -0.9058
   19DT     O5'  578   4.257   4.629   7.726  0.1637  0.3180  0.1983
   19DT     C5'  579   4.322   4.523   7.651 -0.3121 -0.2146  0.7773
   19DT    H5'1  580   4.335   4.556   7.547 -0.7893 -1.2635  0.3758
   19DT    H5'2  581   4.254   4.438   7.646 -1.0495  0.3403  1.1655
   19DT     C4'  582   4.460   4.480   7.712 -0.2493  0.2084  0.3687
   19DT     H4'  583   4.495   4.400   7.647  0.2629  1.6660 -1.2233
   19DT     O4'  584   4.555   4.587   7.709 -0.2456 -0.1805 -0.4509
   19DT     C1'  585   4.628   4.600   7.833 -0.9111 -0.1741 -0.1304
   19DT     H1'  586   4.708   4.527   7.839  0.2596  1.1257  0.6111
   19DT      N1  587   4.689   4.739   7.848  0.3897 -0.3566 -0.2510
   19DT      C6  588   4.609   4.844   7.870 -0.3899 -0.5378  0.5849
   19DT      H6  589   4.504   4.824   7.882 -0.4037 -0.8566 -0.0291
   19DT      C5  590   4.662   4.970   7.887 -0.7390  0.3554 -0.3216
   19DT      C7  591   4.566   5.082   7.905  0.8110  0.1227  0.2206
   19DT     H71  592   4.594   5.140   7.992  1.5461  0.7044 -0.3837
   19DT     H72  593   4.574   5.154   7.823 -2.6101  1.1307  0.5936
   19DT     H73  594   4.467   5.035   7.906  0.3593  0.9795  2.8211
   19DT      C4  595   4.805   4.998   7.867  0.0438 -0.1458  0.0993
   19DT      O4  596   4.862   5.102   7.869  0.0426 -0.3282 -0.1919
   19DT      N3  597   4.870   4.884   7.835  0.0650 -0.5418 -0.1995
   19DT      H3  598   4.970   4.885   7.818 -0.2857  0.9202 -2.5858
   19DT      C2  599   4.822   4.759   7.825 -0.7401 -0.0696 -0.5100
   19DT      O2  600   4.900   4.670   7.798 -0.2574  0.0874 -0.5220
   19DT     C3'  601   4.461   4.438   7.858 -0.4212  0.8127 -0.6453
   19DT     H3'  602   4.359   4.410   7.885  0.0457 -1.5224 -1.0755
   19DT     C2'  603   4.523   4.553   7.930  0.4839  0.1026 -0.3871
   19DT    H2'1  604   4.441   4.622   7.949  2.7332  2.0836  3.2493
   19DT    H2'2  605   4.571   4.513   8.019 -0.1186 -1.1009 -0.5909
   19DT     O3'  606   4.548   4.330   7.882  0.7864 -0.7798  0.3609
   20DT3      P  607   4.525   4.230   8.005 -0.3584  0.2320 -0.0066
   20DT3    O1P  608   4.515   4.095   7.958 -0.1485 -0.2741  0.7479
   20DT3    O2P  609   4.423   4.281   8.097  0.4627 -0.5751 -0.0291
   20DT3    O5'  610   4.662   4.232   8.085 -1.1083 -0.5275  0.2966
   20DT3    C5'  611   4.792   4.232   8.010  0.3466  0.4593 -0.0993
   20DT3   H5'1  612   4.777   4.288   7.918 -1.5294  2.8555  1.5423
   20DT3   H5'2  613   4.812   4.128   7.986 -0.9583  0.3434 -0.7177
   20DT3    C4'  614   4.915   4.288   8.082 -0.3297 -0.4381  0.0331
   20DT3    H4'  615   5.003   4.267   8.023  0.1686 -1.1011  0.9850
   20DT3    O4'  616   4.920   4.429   8.074 -1.5826  0.0979  0.1117
   20DT3    C1'  617   4.940   4.485   8.204  0.4661 -0.1971 -0.7225
   20DT3    H1'  618   5.045   4.498   8.230  0.7378 -0.1397 -1.7864
   20DT3     N1  619   4.874   4.622   8.219  0.5994 -0.2529  0.0510
   20DT3     C6  620   4.737   4.639   8.239 -0.9876  0.7017 -0.5087
   20DT3     H6  621   4.687   4.546   8.264  1.7554 -0.5253  0.8818
   20DT3     C5  622   4.684   4.758   8.222  0.1116 -0.8296  0.3039
   20DT3     C7  623   4.536   4.775   8.230 -0.1549  0.9175  0.0625
   20DT3    H71  624   4.494   4.818   8.139 -1.1096  0.2849  0.1879
   20DT3    H72  625   4.492   4.677   8.247 -1.1462  1.8743  4.1936
   20DT3    H73  626   4.507   4.826   8.322 -1.1739  0.6948 -0.1281
   20DT3     C4  627   4.761   4.876   8.205 -0.8964 -0.0731 -0.2373
   20DT3     O4  628   4.718   4.993   8.203  0.0299  0.1035 -0.1926
   20DT3     N3  629   4.895   4.851   8.178  0.2290 -0.4452 -0.6003
   20DT3     H3  630   4.950   4.929   8.148 -1.9781  0.4456 -2.6603
   20DT3     C2  631   4.955   4.734   8.181 -0.2507 -0.2840  0.0487
   20DT3     O2  632   5.078   4.729   8.159 -0.0476  0.5147  0.0521
   20DT3    C3'  633   4.935   4.235   8.226  0.1549 -0.0674  0.2793
   20DT3    H3'  634   4.861   4.160   8.255  0.8270 -0.5832  0.7096
   20DT3    C2'  635   4.890   4.367   8.294 -1.0677 -0.1040 -0.0009
   20DT3   H2'1  636   4.784   4.360   8.315 -1.2835  2.1779 -0.0457
   20DT3   H2'2  637   4.946   4.387   8.386  0.5429  0.1605 -0.9993
   20DT3    O3'  638   5.067   4.213   8.268  0.0434 -0.4302 -0.0993
   20DT3    H3T  639   5.072   4.156   8.345  0.0044 -1.7641 -1.0613
   21SOL     OW  640   3.685   1.877   4.147 -0.5700 -0.6083  0.4972
   21SOL    HW1  641   3.659   1.920   4.228 -0.5135 -0.1305  0.2659
   21SOL    HW2  642   3.699   1.949   4.085 -1.1213 -0.9919 -0.0814
   22SOL     OW  643   7.010   4.614   3.995  0.2428  0.3077 -0.0600
   22SOL    HW1  644   7.071   4.540   4.004  1.0507  0.8310 -1.0122
   22SOL    HW2  645   7.046   4.682   4.052  0.0490  0.3079  0.0626
   23SOL     OW  646   8.422   4.030   2.758 -0.1822  0.3639  0.4466
   23SOL    HW1  647   8.496   3.982   2.795 -0.8881 -0.4811  0.8150
   23SOL    HW2  648   8.458   4.116   2.735  0.9036 -0.0285  0.6044
   24SOL     OW  649   6.780   4.544   8.192 -0.7132 -0.8762 -0.0588
   24SOL    HW1  650   6.714   4.548   8.123 -0.6398 -0.5413 -0.1122
   24SOL    HW2  651   6.780   4.453   8.220 -1.6072 -0.7597  0.3445
   25SOL     OW  652   6.556   5.687   3.609  0.0271  0.1011  0.1971
   25SOL    HW1  653   6.509   5.744   3.547  0.8985 -0.4544 -1.0267
   25SOL    HW2  654   6.632   5.739   3.635 -0.0009  0.0905  0.2992
   26SOL     OW  655   3.767   7.162   7.160 -0.0176 -0.0371  0.1415
   26SOL    HW1  656   3.801   7.226   7.098 -1.2243  0.1163 -0.4014
   26SOL    HW2  657   3.697   7.208   7.206 -0.5783 -0.8124  0.0858
   27SOL     OW  658   9.714   3.856   0.937 -0.2098 -0.8340  0.3873
   27SOL    HW1  659   9.694   3.818   1.023 -0.9131 -1.5346 -0.0720
   27SOL    HW2  660   9.809   3.862   0.935 -0.2310  0.9445  1.9412
   28SOL     OW  661   2.918   0.192   2.807  0.0205  0.2354 -0.3591
   28SOL    HW1  662   3.010   0.215   2.817 -0.0289  1.1953 -1.8552
   28SOL    HW2  663   2.883   0.259   2.748 -2.0306  0.8594  1.4354
   29SOL     OW  664   3.387   2.112   6.348  0.4335 -0.1294 -0.1723
   29SOL    HW1  665   3.428   2.197   6.362 -0.9040  0.5734 -0.2957
   29SOL    HW2  666   3.458   2.048   6.355  1.1922  0.8589  1.5147
   30SOL     OW  667   9.759   8.630   8.274  0.3655  0.1548  0.0335
   30SOL    HW1  668   9.792   8.708   8.319 -0.2948  1.2811 -1.3613
   30SOL    HW2  669   9.808   8.627   8.191 -1.0386  0.2633 -0.8261
   31SOL     OW  670   6.507   9.497   1.710  0.1411 -0.1430  0.0045
   31SOL    HW1  671   6.501   9.417   1.763  2.2302  1.3835  2.8324
   31SOL    HW2  672   6.416   9.527   1.702 -0.5762 -2.2115 -0.2572
   32SOL     OW  673   0.334   3.507   9.786  0.0486 -0.0982 -0.5556
   32SOL    HW1  674   0.329   3.578   9.723 -0.2056 -0.4548 -0.9432
   32SOL    HW2  675   0.422   3.472   9.776 -0.2437 -0.6663 -1.2927
   33SOL     OW  676   4.278   5.459   9.259 -0.3974  0.6595 -0.5298
   33SOL    HW1  677   4.345   5.396   9.232 -0.2235  1.6359 -2.5505
   33SOL    HW2  678   4.217   5.408   9.313 -0.4376 -1.3074 -2.3194
   34SOL     OW  679   9.206   8.720   1.871  0.7906 -0.3845  0.1376
   34SOL    HW1  680   9.240   8.654   1.811  1.0749  0.6311 -0.8473
   34SOL    HW2  681   9.269   8.722   1.943  1.5459 -0.1818 -0.5245
   35SOL     OW  682   8.246   1.103   3.711 -0.4124  0.1480 -0.7814
   35SOL    HW1  683   8.183   1.163   3.751  0.5240  0.0875  0.8713
   35SOL    HW2  684   8.322   1.158   3.691  0.0864 -0.3062 -0.1439
   36SOL     OW  685   7.379   1.175   1.454  0.2269  0.2196  0.7100
   36SOL    HW1  686   7.384   1.095   1.403 -0.5306 -0.5561  1.8032
   36SOL    HW2  687   7.457   1.174   1.509  0.2885  0.2932  0.6227
   37SOL     OW  688   3.298   4.312   1.494 -0.3698  0.4310  0.6418
   37SOL    HW1  689   3.291   4.326   1.589 -0.8204  0.6482  0.5760
   37SOL    HW2  690   3.343   4.390   1.462  0.1103  0.1925  0.7222
   38SOL     OW  691   7.504   4.850   0.897 -0.0503 -0.5028  0.3254
   38SOL    HW1  692   7.535   4.829   0.808  0.8044 -0.5145  0.6137
   38SOL    HW2  693   7.564   4.918   0.927 -2.6067  2.2910 -0.4845
   39SOL     OW  694   1.653   9.407   3.708  0.0666 -0.2307 -0.5704
   39SOL    HW1  695   1.689   9.321   3.690 -1.8690 -0.9357 -1.3187
   39SOL    HW2  696   1.583   9.391   3.772 -0.8968  0.6511 -1.3750
   40SOL     OW  697   1.443   3.490   1.906  0.2489  0.3309  0.9535
   40SOL    HW1  698   1.424   3.400   1.878 -0.2328  0.1454  1.8587
   40SOL    HW2  699   1.494   3.527   1.833 -0.1948 -0.4263  0.2410
   41SOL     OW  700   0.579  -0.012   9.664  0.2586  0.2844 -0.1010
   41SOL    HW1  701   0.577   0.081   9.686 -3.7524 -0.1676  2.3675
   41SOL    HW2  702   0.565  -0.057   9.747 -3.0650 -2.2503 -1.7839
   42SOL     OW  703   9.178   6.880   1.070 -0.1755 -0.3519 -0.0605
   42SOL    HW1  704   9.245   6.945   1.090 -0.5392 -0.2058  0.7195
   42SOL    HW2  705   9.224   6.796   1.076 -0.7460 -0.5506  4.0693
   43SOL     OW  706   1.553   1.567   4.878  0.1651 -0.1587  0.0701
   43SOL    HW1  707   1.583   1.637   4.936  1.8993 -0.3751 -0.5236
   43SOL    HW2  708   1.573   1.598   4.790  0.5551 -1.2060 -0.2240
   44SOL     OW  709   5.007   6.123   4.895  0.0757  0.0783  0.1331
   44SOL    HW1  710   5.035   6.215   4.889 -0.4066  0.2384  0.2693
   44SOL    HW2  711   5.007   6.104   4.989  0.0088 -0.0108  0.1152
   45SOL     OW  712   7.058   0.918   7.602 -0.6190  0.4402 -0.3021
   45SOL    HW1  713   7.032   0.844   7.548 -0.5793  1.4221 -1.6958
   45SOL    HW2  714   6.975   0.957   7.631 -0.6467 -0.6589  1.2014
   46SOL     OW  715   3.894   4.425   2.013  0.0920 -0.1502 -0.3068
   46SOL    HW1  716   3.860   4.514   2.023  1.7807  0.8377 -2.4224
   46SOL    HW2  717   3.819   4.368   2.030 -1.0748  1.6642  0.9499
   47SOL     OW  718   6.949   0.956   0.806  0.3114 -0.7379 -0.7711
   47SOL    HW1  719   6.865   0.921   0.776 -1.0429  2.3933 -0.9588
   47SOL    HW2  720   6.928   1.009   0.883  2.6585 -2.4371  1.2254
   48SOL     OW  721   9.960   2.635   7.427 -0.2135  0.0570 -0.0814
   48SOL    HW1  722  10.001   2.714   7.393  0.9231  0.1965  1.5063
   48SOL    HW2  723   9.956   2.576   7.351  0.8775  0.8529 -0.7886
   49SOL     OW  724   2.575   1.577   7.067  0.1500  0.0055 -0.0503
   49SOL    HW1  725   2.483   1.551   7.079 -0.8584  3.1729 -0.0350
   49SOL    HW2  726   2.591   1.568   6.973 -0.2078 -0.4706 -0.0665
   50SOL     OW  727   6.143   3.982   1.818  0.1399 -0.0750 -0.3977
   50SOL    HW1  728   6.120   4.074   1.832  0.6895 -0.1571  1.2909
   50SOL    HW2  729   6.223   3.970   1.869 -0.1007 -1.5721 -0.3454
   51SOL     OW  730   2.459   1.268   9.766  0.4997 -0.0603 -0.1436
   51SOL    HW1  731   2.371   1.229   9.769  0.0924  0.7333 -1.3307
   51SOL    HW2  732   2.518   1.193   9.776 -0.2654 -1.1105 -2.6495
   52SOL     OW  733   3.058   0.947   2.574 -0.0165  0.3219  0.2036
   52SOL    HW1  734   3.045   0.914   2.486 -2.3845 -2.0734  1.3357
   52SOL    HW2  735   3.138   0.903   2.605 -0.7082 -0.9994  0.1694
   53SOL     OW  736   0.397   2.966   4.067 -0.3900  0.2366 -0.7387
   53SOL    HW1  737   0.488   2.937   4.061 -0.3974  0.4056 -2.1258
   53SOL    HW2  738   0.392   3.040   4.005 -1.4171  0.3570 -0.5247
   54SOL     OW  739   5.032   6.665   0.248 -0.4953  0.1615  0.0876
   54SOL    HW1  740   5.057   6.647   0.338 -0.2597 -0.6107 -0.1158
   54SOL    HW2  741   5.001   6.755   0.248  0.2667  0.4308  0.7766
   55SOL     OW  742   3.957   9.696   7.351 -0.9210  0.2568 -0.1719
   55SOL    HW1  743   3.995   9.632   7.411 -1.9294 -0.7000 -0.5180
   55SOL    HW2  744   4.003   9.681   7.268 -0.7446  0.3911 -0.0993
   56SOL     OW  745   9.888   6.555   8.711  0.3032  0.5135 -0.5345
   56SOL    HW1  746   9.934   6.561   8.795  0.7923 -0.8961 -0.6703
   56SOL    HW2  747   9.849   6.642   8.698  0.7493  0.9397  0.8383
   57SOL     OW  748   7.762   7.424   1.381 -0.1951  0.4044  0.2385
   57SOL    HW1  749   7.733   7.429   1.472 -1.5376 -2.2651  0.0519
   57SOL    HW2  750   7.842   7.371   1.384 -0.7306 -0.4448 -0.1946
   58SOL     OW  751   6.550   9.866   6.619  0.5907  0.5866  0.0072
   58SOL    HW1  752   6.637   9.905   6.629  1.0516  0.2156 -2.1115
   58SOL    HW2  753   6.521   9.894   6.532 -0.0607 -1.7997 -0.6118
   59SOL     OW  754   2.676   5.062   0.967 -0.4059  0.3922 -0.3081
   59SOL    HW1  755   2.684   5.136   0.907 -0.8151 -0.6575 -1.7299
   59SOL    HW2  756   2.766   5.031   0.979 -0.2174  1.1950  0.4162
   60SOL     OW  757   4.116   9.818   1.614  0.8032  0.1398 -0.5562
   60SOL    HW1  758   4.180   9.885   1.637 -0.2469  0.6049  1.2063
   60SOL    HW2  759   4.097   9.774   1.697 -0.5920 -0.4809 -1.1789
   61SOL     OW  760   2.779   3.205   2.618  0.0989  0.4060 -0.1742
   61SOL    HW1  761   2.830   3.254   2.553 -0.6888  1.6529  0.1049
   61SOL    HW2  762   2.695   3.188   2.574  0.0504  0.0638  0.0442
   62SOL     OW  763   9.209   2.009   8.946 -0.1320  0.5563 -0.0794
   62SOL    HW1  764   9.150   2.005   9.021 -0.7323  1.0957 -0.5102
   62SOL    HW2  765   9.194   1.928   8.898 -1.8745  1.4392 -1.1564
   63SOL     OW  766   7.698   5.059   7.683 -0.1844 -0.2295 -0.8930
   63SOL    HW1  767   7.658   5.014   7.609 -2.7563 -0.6664  0.6383
   63SOL    HW2  768   7.771   5.002   7.708 -1.7202 -2.2212 -0.6751
   64SOL     OW  769   5.536   6.650   9.241 -0.0066 -0.4442 -0.6231
   64SOL    HW1  770   5.617   6.694   9.267 -0.6632  0.1877  0.4295
   64SOL    HW2  771   5.565   6.581   9.181  1.1683  0.6855 -1.4344
   65SOL     OW  772   0.434   1.540   6.768  0.1090 -0.2141  0.4531
   65SOL    HW1  773   0.347   1.565   6.737  0.0866 -1.2399 -0.3350
   65SOL    HW2  774   0.434   1.565   6.861  0.1078  2.7302 -0.2400
   66SOL     OW  775   6.041   7.399   8.035  0.1425  0.2701 -0.0621
   66SOL    HW1  776   5.966   7.353   7.996 -0.3438  1.4881 -0.6190
   66SOL    HW2  777   6.105   7.330   8.052 -1.1214 -0.8174  0.4813
   67SOL     OW  778   8.052   1.464   5.027 -0.1675 -0.0823  0.4086
   67SOL    HW1  779   7.969   1.434   4.988 -0.5748 -0.0675  1.2572
   67SOL    HW2  780   8.119   1.430   4.968 -0.6970 -1.4074  0.5308
   68SOL     OW  781   7.595   2.548   4.680 -0.4981  0.5259  0.0737
   68SOL    HW1  782   7.639   2.465   4.698 -0.2603  0.8034  0.7858
   68SOL    HW2  783   7.656   2.616   4.708 -0.6141  0.9613 -0.6687
   69SOL     OW  784   0.177   1.361   7.418  0.0229 -0.0798  0.5011
   69SOL    HW1  785   0.137   1.299   7.480 -1.3063  0.0999 -0.1383
   69SOL    HW2  786   0.269   1.336   7.416 -0.3147 -1.4915  0.9286
   70SOL     OW  787   9.760   1.772   2.654 -0.1864  0.6001 -0.2870
   70SOL    HW1  788   9.723   1.769   2.566 -1.1891  1.9175  0.0627
   70SOL    HW2  789   9.854   1.760   2.640 -0.3361  0.6945 -1.5278
   71SOL     OW  790   5.095   4.777   0.230 -0.2087 -0.4700  0.1896
   71SOL    HW1  791   5.100   4.848   0.166 -0.3543 -0.4349  0.2153
   71SOL    HW2  792   5.182   4.774   0.270 -0.1813 -0.3521  0.1389
   72SOL     OW  793   3.573   4.987   6.936  0.2701 -0.0350  0.2421
   72SOL    HW1  794   3.660   4.971   6.973  0.3643 -0.5501 -0.1866
   72SOL    HW2  795   3.589   5.000   6.842 -0.2236 -1.2542 -0.0313
   73SOL     OW  796   3.852   4.979   4.416 -0.3088 -0.8484  0.6243
   73SOL    HW1  797   3.833   5.038   4.344 -3.0710 -2.6150 -0.2372
   73SOL    HW2  798   3.917   4.918   4.382  0.0300 -0.3452  0.3766
   74SOL     OW  799   5.769   1.468   4.583  0.0452 -0.2074  0.2499
   74SOL    HW1  800   5.783   1.381   4.546  0.0099  0.4378 -1.3906
   74SOL    HW2  801   5.853   1.490   4.623  0.4387 -0.5426 -0.3635
   75SOL     OW  802   0.570   3.288   0.951  0.0401 -0.1455 -0.0043
   75SOL    HW1  803   0.590   3.372   0.910 -1.1647  0.6364  0.9123
   75SOL    HW2  804   0.653   3.241   0.955  1.0471  1.6298  0.8356
   76SOL     OW  805   7.277   3.134   3.946  0.1271  0.2848  0.7537
   76SOL    HW1  806   7.241   3.049   3.970 -0.0647  0.5774  1.5525
   76SOL    HW2  807   7.205   3.196   3.963  0.7734  0.7927  1.7329
   77SOL     OW  808   3.631   4.776   0.013  0.2282 -0.0683 -0.4682
   77SOL    HW1  809   3.600   4.861   0.046 -0.8285 -0.3648 -0.6669
   77SOL    HW2  810   3.665   4.732   0.091 -0.5155 -0.0108 -0.0984
   78SOL     OW  811   6.541   0.194   8.049 -0.3108  0.0848 -0.0145
   78SOL    HW1  812   6.603   0.261   8.023  0.5321 -1.3495 -1.9566
   78SOL    HW2  813   6.565   0.173   8.139  0.5536  1.1242  0.0172
   79SOL     OW  814   8.680   5.077   7.730 -0.0224  0.2849  0.0994
   79SOL    HW1  815   8.647   5.041   7.647  0.6357  0.1139 -0.0977
   79SOL    HW2  816   8.772   5.051   7.732 -0.2445 -0.4660  1.3071
   80SOL     OW  817   9.851   2.493   6.515  0.1381 -0.8900  0.4548
   80SOL    HW1  818   9.946   2.493   6.507  0.0868  1.0880 -0.9445
   80SOL    HW2  819   9.824   2.406   6.485  1.4168 -0.9515 -0.6172
   81SOL     OW  820   4.114   6.030   4.534 -0.5224 -0.1151  0.3629
   81SOL    HW1  821   4.112   6.022   4.439 -0.2234 -0.5994  0.3927
   81SOL    HW2  822   4.127   6.124   4.550  1.6721 -0.2878 -0.1174
   82SOL     OW  823   1.276   7.481   2.858  0.2618  0.7620 -0.3270
   82SOL    HW1  824   1.203   7.421   2.843  1.0440  0.2534 -2.4526
   82SOL    HW2  825   1.259   7.518   2.945 -1.1952 -1.1682  0.2775
   83SOL     OW  826   1.658   7.177   5.194 -0.0958  0.2618  0.4953
   83SOL    HW1  827   1.614   7.123   5.128  1.1555  1.3030 -1.2856
   83SOL    HW2  828   1.736   7.210   5.150  0.2320  1.9137  2.1597
   84SOL     OW  829   2.889   0.541   7.818 -0.0211 -0.0603 -0.5696
   84SOL    HW1  830   2.944   0.557   7.895 -1.1440  1.8060 -0.0883
   84SOL    HW2  831   2.897   0.447   7.802 -0.1246 -0.6324  2.1611
   85SOL     OW  832   0.818   7.388   0.421  0.2148 -0.0030  0.2320
   85SOL    HW1  833   0.795   7.410   0.331  0.3548 -0.0329  0.1890
   85SOL    HW2  834   0.734   7.385   0.467  0.1225 -0.2073  0.0529
   86SOL     OW  835   6.883   2.046   1.273  0.0944  0.0797 -1.0774
   86SOL    HW1  836   6.875   2.126   1.221 -0.6703  1.4604  0.9909
   86SOL    HW2  837   6.977   2.035   1.287  0.1637  1.7006  0.0697
   87SOL     OW  838   8.683   8.942   3.844 -0.0849 -0.1351 -0.2967
   87SOL    HW1  839   8.720   9.021   3.885 -1.2015 -0.1550  0.8171
   87SOL    HW2  840   8.606   8.974   3.797  0.6087 -0.2793 -1.5798
   88SOL     OW  841   6.623   8.567   2.879 -0.1831 -0.0605 -0.2368
   88SOL    HW1  842   6.625   8.608   2.966  0.4857  0.3305 -0.4356
   88SOL    HW2  843   6.608   8.474   2.898  0.4336 -0.0556  0.3303
   89SOL     OW  844   0.042   9.574   4.864  0.4673  0.1728 -0.0504
   89SOL    HW1  845  -0.005   9.607   4.940  0.2567 -2.3077  0.9806
   89SOL    HW2  846  -0.026   9.548   4.802  0.5654 -0.1547 -0.0234
   90SOL     OW  847   7.413   9.758   6.098  0.0269  0.0699  0.4509
   90SOL    HW1  848   7.401   9.664   6.089  0.8013 -0.0160  0.1919
   90SOL    HW2  849   7.407   9.792   6.008  1.0490  0.0821  0.3641
   91SOL     OW  850   3.931   6.559   7.151  0.2955 -0.5470 -0.4929
   91SOL    HW1  851   3.891   6.474   7.170 -0.4281 -0.1340 -0.1421
   91SOL    HW2  852   4.020   6.553   7.187 -0.5966 -0.2576  1.8726
   92SOL     OW  853   6.125   9.822   4.043  0.3263 -0.1111  0.4741
   92SOL    HW1  854   6.118   9.797   4.135 -2.2445 -2.4125 -0.2140
   92SOL    HW2  855   6.061   9.893   4.033  0.4946  0.0347  0.4256
   93SOL     OW  856   9.187   5.193   8.742 -0.6394 -0.0494  0.2230
   93SOL    HW1  857   9.104   5.239   8.751 -1.7272 -1.9852  0.4265
   93SOL    HW2  858   9.164   5.107   8.708  1.3142 -0.5579  0.0593
   94SOL     OW  859   0.886   2.441   7.163 -0.3590  0.4874 -0.0719
   94SOL    HW1  860   0.968   2.458   7.116  0.5032  0.6788  1.4144
   94SOL    HW2  861   0.830   2.515   7.140  0.7080  1.5451  0.5663
   95SOL     OW  862   1.077   8.683   0.873  0.2089  0.3069 -0.4728
   95SOL    HW1  863   1.118   8.767   0.897  0.3763  0.5908 -1.6938
   95SOL    HW2  864   1.138   8.617   0.906 -0.4090  0.5927  1.4092
   96SOL     OW  865   5.407   7.705   6.094 -0.4861  0.2822 -0.7160
   96SOL    HW1  866   5.442   7.650   6.025  1.0514  1.2039 -0.7262
   96SOL    HW2  867   5.342   7.760   6.050  0.9957  1.3746 -1.6492
   97SOL     OW  868   7.252   3.800   9.823 -0.1895 -0.3535 -0.4057
   97SOL    HW1  869   7.220   3.731   9.765 -1.8773  0.4211 -0.4408
   97SOL    HW2  870   7.248   3.879   9.771  1.0780 -0.0795 -0.1374
   98SOL     OW  871   7.630   3.214   4.353 -0.1698  0.0980  0.6327
   98SOL    HW1  872   7.635   3.278   4.424  0.6310 -0.4789  1.1072
   98SOL    HW2  873   7.696   3.149   4.375  2.7546  1.6880 -2.4191
   99SOL     OW  874   8.578   6.516   8.425  0.0690 -0.1663  0.6082
   99SOL    HW1  875   8.513   6.578   8.394 -0.5572 -0.8118  0.5995
   99SOL    HW2  876   8.539   6.430   8.408  0.3249 -0.5562  1.8719
  100SOL     OW  877   4.658   7.986   8.298 -0.1044 -0.2761 -0.1418
  100SOL    HW1  878   4.614   7.912   8.256  1.3216 -0.6001 -1.1461
  100SOL    HW2  879   4.589   8.032   8.345 -0.9484 -2.5206  0.9312
  101SOL     OW  880   1.349   2.908   8.727  0.0069 -0.0930 -0.2610
  101SOL    HW1  881   1.394   2.834   8.687  0.4169  0.4676 -0.8537
  101SOL    HW2  882   1.256   2.887   8.717  0.0883  0.1948 -1.8495
  102SOL     OW  883   9.441   5.058   0.157 -0.2132 -0.3171 -0.5213
  102SOL    HW1  884   9.384   4.981   0.153  0.6653 -1.0312  0.3912
  102SOL    HW2  885   9.488   5.049   0.239  1.6075 -0.0024 -1.4902
  103SOL     OW  886   3.146   1.944   7.361  0.3315 -0.2418 -0.1309
  103SOL    HW1  887   3.235   1.930   7.327  0.3906  1.2913 -0.7155
  103SOL    HW2  888   3.144   2.037   7.385 -0.4294 -0.7615  2.0268
  104SOL     OW  889   8.225   7.748   9.535  0.4042  1.1319  0.3041
  104SOL    HW1  890   8.246   7.656   9.517 -0.8994  0.2796  2.7103
  104SOL    HW2  891   8.294   7.797   9.491  1.9542 -1.0634  0.1298
  105SOL     OW  892   4.326   5.138   1.950  0.2196  0.2749 -0.3244
  105SOL    HW1  893   4.368   5.057   1.980  0.3002  0.7162  0.8115
  105SOL    HW2  894   4.261   5.109   1.885  0.2512 -0.6977  0.0568
  106SOL     OW  895   9.270   6.917   5.181  0.0257  0.3171  0.2065
  106SOL    HW1  896   9.329   6.981   5.220 -0.4780  0.3032  1.0097
  106SOL    HW2  897   9.274   6.841   5.240 -0.4061  0.1219 -0.0061
  107SOL     OW  898   2.870   4.665   9.179 -0.6058 -0.1624  0.6903
  107SOL    HW1  899   2.945   4.616   9.214 -0.6343  0.3744  1.5369
  107SOL    HW2  900   2.909   4.727   9.117 -0.5749 -1.2666 -0.4318
  108SOL     OW  901   8.833   4.707   7.288 -0.2811  0.3302  0.4992
  108SOL    HW1  902   8.851   4.731   7.379  4.6299 -0.1274 -0.1206
  108SOL    HW2  903   8.864   4.782   7.237 -0.2026 -0.6420 -0.9157
  109SOL     OW  904   5.958   1.343   1.686  0.0613 -0.4538  0.2060
  109SOL    HW1  905   6.041   1.352   1.733 -0.2760  0.2003  0.6929
  109SOL    HW2  906   5.933   1.433   1.664 -1.1159 -0.5277  1.1340
  110SOL     OW  907   1.845   9.387   8.072 -0.0018 -0.1332 -0.0460
  110SOL    HW1  908   1.825   9.317   8.009 -0.1100 -0.0066 -0.1514
  110SOL    HW2  909   1.825   9.468   8.025  1.4109  0.0324 -0.3909
  111SOL     OW  910   2.355   2.584   3.277 -0.0459  0.6931  0.2568
  111SOL    HW1  911   2.292   2.555   3.343  0.1486 -0.9868 -0.2700
  111SOL    HW2  912   2.304   2.640   3.219 -1.0472 -0.5263 -0.0787
  112SOL     OW  913   5.953   0.502   6.794  0.0566  0.0950 -0.2906
  112SOL    HW1  914   5.868   0.464   6.772  1.1671 -2.1002 -1.0438
  112SOL    HW2  915   5.980   0.548   6.714 -0.5981  1.2682  0.1238
  113SOL     OW  916   7.202   4.801   0.907 -0.1828 -0.1234 -0.1770
  113SOL    HW1  917   7.181   4.718   0.865 -0.4832 -0.0539 -0.1713
  113SOL    HW2  918   7.297   4.808   0.903 -0.2875  1.8667 -4.6797
  114SOL     OW  919   0.679   3.620   9.676 -0.6953  0.0954  0.1156
  114SOL    HW1  920   0.629   3.644   9.754  0.5033  0.7348  0.7212
  114SOL    HW2  921   0.737   3.550   9.707 -0.6076 -0.0369 -0.3519
  115SOL     OW  922   7.906   0.745   3.058 -0.2072 -0.5206  0.0234
  115SOL    HW1  923   7.829   0.723   3.111 -0.3653  0.0380  0.0298
  115SOL    HW2  924   7.888   0.833   3.025  0.7035 -0.1314  0.5331
  116SOL     OW  925   2.214   0.316   1.322 -0.5158  0.5756 -0.4522
  116SOL    HW1  926   2.299   0.278   1.347  0.3234  0.6690 -2.9320
  116SOL    HW2  927   2.150   0.249   1.344  0.5032 -0.5895 -0.9698
  117SOL     OW  928   3.521   9.266   9.891  0.1070 -0.3770  0.1489
  117SOL    HW1  929   3.515   9.333   9.823 -1.5983 -0.5213  0.1091
  117SOL    HW2  930   3.447   9.285   9.950 -0.6087 -2.3749 -0.0293
  118SOL     OW  931   4.522   7.816   7.748  0.5590  0.4783 -0.0311
  118SOL    HW1  932   4.585   7.780   7.811 -2.2819 -1.5530  1.9498
  118SOL    HW2  933   4.469   7.876   7.800  0.5240  1.7850 -1.5259
  119SOL     OW  934   3.355   2.404   9.849 -0.0520 -0.1972 -0.1785
  119SOL    HW1  935   3.381   2.312   9.852 -0.5999 -0.3490  0.1550
  119SOL    HW2  936   3.421   2.449   9.902 -0.1809 -0.5035  0.2510
  120SOL     OW  937   0.654   2.467   7.516 -0.1706 -0.1657  0.1504
  120SOL    HW1  938   0.747   2.466   7.537 -0.2239 -0.8454  0.3546
  120SOL    HW2  939   0.644   2.404   7.446 -0.2823  0.8270 -0.7506
  121SOL     OW  940   6.387   6.297   2.725 -0.3466 -0.2844  0.3182
  121SOL    HW1  941   6.477   6.319   2.750 -0.3155  0.3760 -0.3419
  121SOL    HW2  942   6.362   6.228   2.786  0.6899 -0.6467  0.3601
  122SOL     OW  943   7.491   6.618   7.838 -0.7102  0.2123  0.0075
  122SOL    HW1  944   7.529   6.692   7.886  1.2232 -0.5669 -0.2013
  122SOL    HW2  945   7.542   6.614   7.757  0.4865 -2.3729  0.7660
  123SOL     OW  946   1.174   3.201   7.783 -0.0836  0.1401 -0.1665
  123SOL    HW1  947   1.106   3.227   7.845 -0.4450  0.8594 -0.8467
  123SOL    HW2  948   1.256   3.221   7.828 -0.3171 -0.2239  0.4411
  124SOL     OW  949   4.588   0.263   3.057  0.4142 -0.3168 -0.1751
  124SOL    HW1  950   4.513   0.277   3.115 -1.7569 -1.7061 -2.4457
  124SOL    HW2  951   4.589   0.339   3.000  0.2514 -0.6731 -0.6537
  125SOL     OW  952   7.851   9.969   8.787 -0.5951  0.0908 -0.2023
  125SOL    HW1  953   7.787  10.008   8.727  0.2019 -0.2956 -1.3356
  125SOL    HW2  954   7.833   9.875   8.783 -0.3235  0.0348 -0.0815
  126SOL     OW  955   7.317   4.447   1.479  0.4222  0.2685  0.0687
  126SOL    HW1  956   7.326   4.378   1.414  0.2480 -0.3435  0.6795
  126SOL    HW2  957   7.243   4.500   1.449  0.3106 -0.0366 -0.1982
  127SOL     OW  958   7.673   5.377   7.954  0.0179 -0.0778 -0.7794
  127SOL    HW1  959   7.631   5.301   7.993  0.0902  0.0149 -0.5206
  127SOL    HW2  960   7.609   5.448   7.963  0.4983  0.2423  0.2643
  128SOL     OW  961   2.356   8.651   5.650  0.0187 -0.0540 -0.2606
  128SOL    HW1  962   2.423   8.707   5.612  0.1970  1.3572  1.9741
  128SOL    HW2  963   2.298   8.629   5.577  1.2473  1.1439 -1.6407
  129SOL     OW  964   1.368   9.778   2.101  0.8143  0.1416 -0.4472
  129SOL    HW1  965   1.439   9.797   2.162 -0.9365  1.8968  1.1831
  129SOL    HW2  966   1.382   9.838   2.028  0.3684  1.3567  0.4414
  130SOL     OW  967   7.568   0.396   2.575 -0.2545  0.0820  0.3751
  130SOL    HW1  968   7.594   0.487   2.564  1.4069 -0.4786 -0.8081
  130SOL    HW2  969   7.490   0.386   2.520 -0.3253  0.7518  0.3534
  131SOL     OW  970   1.294   6.388   9.439  0.2550  0.1059 -0.2752
  131SOL    HW1  971   1.383   6.424   9.444  0.1670  0.1611  1.1470
  131SOL    HW2  972   1.245   6.434   9.506 -0.8547  0.0425 -1.0182
  132SOL     OW  973   8.289   6.970   0.663 -0.0075 -0.1140  0.1540
  132SOL    HW1  974   8.292   6.887   0.711 -2.0897  0.0656  0.6872
  132SOL    HW2  975   8.248   7.031   0.724 -0.7561  0.6624 -1.0899
  133SOL     OW  976   4.353   7.759   4.850 -0.1381  0.0796  0.4569
  133SOL    HW1  977   4.355   7.760   4.946 -0.8746  0.6124  0.4753
  133SOL    HW2  978   4.262   7.780   4.828  0.1871  0.6609 -0.3697
  134SOL     OW  979   0.691   1.137   6.915 -0.5811  0.0157 -0.4623
  134SOL    HW1  980   0.628   1.176   6.854  0.4626  0.0197 -1.5677
  134SOL    HW2  981   0.693   1.197   6.989  0.2259  1.5494 -1.6797
  135SOL     OW  982   9.672   2.150   4.578  0.0247 -0.5332  0.0850
  135SOL    HW1  983   9.697   2.168   4.488 -0.0047 -0.2860  0.1271
  135SOL    HW2  984   9.640   2.233   4.612 -0.7350 -0.8109  0.0738
  136SOL     OW  985   3.544   6.044   1.249 -0.1628 -0.0017 -0.5397
  136SOL    HW1  986   3.577   5.970   1.199  1.6477 -0.1007  0.7073
  136SOL    HW2  987   3.485   6.005   1.314  0.1671 -0.2623 -0.3953
  137SOL     OW  988   2.448   5.965   6.959 -0.4352  0.5027  0.1399
  137SOL    HW1  989   2.399   5.883   6.953 -0.7203  0.4940  2.0010
  137SOL    HW2  990   2.386   6.032   6.928 -0.9489  0.2565  0.6226
  138SOL     OW  991   0.761   9.182   9.550  0.4950 -0.3404 -0.0470
  138SOL    HW1  992   0.722   9.103   9.513 -1.3338  0.2459  0.5020
  138SOL    HW2  993   0.803   9.153   9.631  0.3710 -0.8440 -0.1623
  139SOL     OW  994   6.815   8.875   9.325 -0.2674  0.7143 -0.2339
  139SOL    HW1  995   6.746   8.907   9.266 -0.3600 -0.2276 -0.6415
  139SOL    HW2  996   6.859   8.955   9.355 -0.8546  1.2613 -0.7958
  140SOL     OW  997   4.773   1.086   1.573 -0.1980 -0.1268 -0.2070
  140SOL    HW1  998   4.756   1.044   1.489 -0.9338 -1.2044  0.4426
  140SOL    HW2  999   4.868   1.085   1.582 -0.0266  1.2099 -1.5907
  141SOL     OW 1000   8.921   2.746   7.240  0.2205 -0.6800 -0.2507
  141SOL    HW1 1001   8.968   2.736   7.323 -1.2091 -1.8110  0.4521
  141SOL    HW2 1002   8.834   2.779   7.264  0.1251  0.0116 -1.4106
  142SOL     OW 1003   3.800   3.132   9.227 -0.3903 -0.3699 -0.0191
  142SOL    HW1 1004   3.879   3.081   9.212  0.3216 -0.0179  2.1209
  142SOL    HW2 1005   3.734   3.067   9.251  0.1648 -0.4520  1.4051
  143SOL     OW 1006   7.146   5.325   6.201  0.0821  0.2762  0.0455
  143SOL    HW1 1007   7.128   5.398   6.260 -2.7339 -1.2092  1.2018
  143SOL    HW2 1008   7.201   5.266   6.253 -0.2683  0.1489  0.2780
  144SOL     OW 1009   5.963   9.220   1.837  0.5163  0.0490 -0.2572
  144SOL    HW1 1010   6.034   9.278   1.813  0.4686 -0.9059 -3.0331
  144SOL    HW2 1011   5.890   9.279   1.859  0.7467  1.0924 -2.0788
  145SOL     OW 1012   6.386   2.690   3.894 -0.1807  0.9666 -0.1415
  145SOL    HW1 1013   6.447   2.688   3.821  1.9793  1.0721  1.5477
  145SOL    HW2 1014   6.336   2.609   3.886 -0.2418  1.1501 -1.9021
  146SOL     OW 1015   9.070   0.895   0.971  0.4138  0.4733 -0.6131
  146SOL    HW1 1016   9.098   0.985   0.987  2.5097  0.3392 -2.8899
  146SOL    HW2 1017   8.979   0.902   0.942  0.6437  1.8829 -1.0345
  147SOL     OW 1018   9.746   1.004   1.310  1.0570 -0.0434 -0.1558
  147SOL    HW1 1019   9.819   1.059   1.337  0.9928 -0.1484  0.2383
  147SOL    HW2 1020   9.702   1.054   1.241  0.0246  1.1576  1.3131
  148SOL     OW 1021   9.876   8.718   1.205  0.3504  0.0508  0.3802
  148SOL    HW1 1022   9.910   8.772   1.277 -0.1809  0.7689  0.1085
  148SOL    HW2 1023   9.807   8.772   1.166  0.2315 -0.5801 -0.2927
  149SOL     OW 1024   7.816   2.363   6.574 -0.4092  0.9330 -0.2300
  149SOL    HW1 1025   7.789   2.344   6.664 -0.3692  2.1840  0.0725
  149SOL    HW2 1026   7.912   2.360   6.577 -0.4208  0.3189 -0.3921
  150SOL     OW 1027   6.252   4.910   3.712 -0.3874 -0.5115 -0.0720
  150SOL    HW1 1028   6.339   4.939   3.682 -0.4493  0.0703  0.3088
  150SOL    HW2 1029   6.210   4.989   3.744 -0.9955 -0.8277 -0.0813
  151SOL     OW 1030   0.727   1.187   4.917  0.1835  0.1185  0.1234
  151SOL    HW1 1031   0.717   1.096   4.888  0.7745  0.2331 -0.4732
  151SOL    HW2 1032   0.800   1.184   4.979  0.0065  0.1430  0.3357
  152SOL     OW 1033   8.746   2.060   7.083 -0.4233 -0.5755 -0.1020
  152SOL    HW1 1034   8.822   2.014   7.118  0.3774  1.2444  0.6473
  152SOL    HW2 1035   8.746   2.145   7.127 -0.4430  1.1465 -3.1405
  153SOL     OW 1036   2.481   6.010   1.560  0.3587  0.4440 -0.8976
  153SOL    HW1 1037   2.483   6.035   1.652  0.3506  2.0623 -1.2952
  153SOL    HW2 1038   2.389   6.015   1.536  0.6288  3.5154 -1.7897
  154SOL     OW 1039   4.970   4.523   3.029 -0.3180  0.5867  0.1919
  154SOL    HW1 1040   5.060   4.549   3.049 -0.1492 -0.2203  0.4938
  154SOL    HW2 1041   4.965   4.524   2.934  0.6168 -1.3313  0.0839
  155SOL     OW 1042   2.589   2.451   7.783  0.4937  0.2491  0.3729
  155SOL    HW1 1043   2.534   2.403   7.721 -0.1921  0.3571  0.8875
  155SOL    HW2 1044   2.630   2.520   7.731 -1.8142  1.7783  0.4339
  156SOL     OW 1045   7.399   3.247   9.397 -0.7668 -0.5917  0.0136
  156SOL    HW1 1046   7.317   3.288   9.370 -1.0317 -1.3336 -0.3324
  156SOL    HW2 1047   7.379   3.153   9.401  0.9674 -1.2862 -3.6574
  157SOL     OW 1048   6.974   8.070   2.455 -0.2223 -0.1392  0.7143
  157SOL    HW1 1049   6.990   8.122   2.376 -0.1179 -0.3369  0.6081
  157SOL    HW2 1050   6.896   8.019   2.434  1.2032 -2.0430 -0.1735
  158SOL     OW 1051   6.388   5.552   4.997 -0.1876  0.5481 -0.1554
  158SOL    HW1 1052   6.327   5.531   4.926  0.1251 -0.5462 -0.1333
  158SOL    HW2 1053   6.362   5.494   5.069  2.4757 -2.0019 -1.0393
  159SOL     OW 1054   0.403   2.773   2.903 -1.0599  0.5192  0.6302
  159SOL    HW1 1055   0.398   2.849   2.844 -0.6178 -0.3261 -0.5201
  159SOL    HW2 1056   0.439   2.809   2.984 -0.0239  1.3973 -0.1876
  160SOL     OW 1057   7.699   3.007   1.130  0.1750 -0.3263 -0.0664
  160SOL    HW1 1058   7.727   2.923   1.168  1.1356 -0.4047 -0.9128
  160SOL    HW2 1059   7.700   3.068   1.203  1.2213 -0.6544  0.2099
  161SOL     OW 1060   3.477   5.807   4.974 -0.4967 -0.6129  0.5744
  161SOL    HW1 1061   3.568   5.809   5.002 -0.2941 -1.2430  0.0033
  161SOL    HW2 1062   3.456   5.713   4.970 -1.0456 -0.4820  0.3286
  162SOL     OW 1063   4.896   0.765   6.888  0.6129 -0.4091  0.1749
  162SOL    HW1 1064   4.834   0.837   6.877 -0.1580 -0.6004  2.7214
  162SOL    HW2 1065   4.848   0.699   6.938  2.2385 -1.4263  0.4649
  163SOL     OW 1066   3.477   0.619   7.466  0.1817  0.4218 -0.1568
  163SOL    HW1 1067   3.524   0.700   7.484  2.3612 -1.2399  2.5246
  163SOL    HW2 1068   3.544   0.559   7.434 -0.4256 -1.4247  1.7906
  164SOL     OW 1069   4.421   8.766   6.910 -0.3837  0.7437  0.1753
  164SOL    HW1 1070   4.464   8.703   6.969 -1.0261 -0.2728 -0.4043
  164SOL    HW2 1071   4.347   8.717   6.873 -2.6376  2.6779  1.8009
  165SOL     OW 1072   8.936   5.610   9.569  0.1872 -0.1193  0.0972
  165SOL    HW1 1073   8.972   5.574   9.488  0.9539  2.1549 -0.6688
  165SOL    HW2 1074   8.880   5.541   9.604 -0.6534 -0.9825 -2.6950
  166SOL     OW 1075   3.224   3.228   9.700 -0.0921  0.3856  0.1957
  166SOL    HW1 1076   3.173   3.283   9.640 -0.0604  2.2466  1.7906
  166SOL    HW2 1077   3.276   3.289   9.751  2.9769 -1.3560 -0.5488
  167SOL     OW 1078   6.027   2.790   2.953  0.3360 -0.0425  0.2852
  167SOL    HW1 1079   6.027   2.762   2.861 -0.4616  1.0302 -0.0675
  167SOL    HW2 1080   5.955   2.741   2.993  0.3034 -0.0783  0.1848
  168SOL     OW 1081   7.710   2.129   3.096  0.1592 -0.1523  0.1575
  168SOL    HW1 1082   7.693   2.184   3.172  0.8090  0.4562 -0.1191
  168SOL    HW2 1083   7.628   2.130   3.047  0.3179  1.0679 -0.1371
  169SOL     OW 1084   0.742   2.333   4.499 -0.5692  0.6097  0.1569
  169SOL    HW1 1085   0.743   2.343   4.403  0.1433 -0.9124 -0.0149
  169SOL    HW2 1086   0.789   2.251   4.515 -2.0847  0.0106  1.7252
  170SOL     OW 1087   7.901   3.250   8.370 -0.1339  0.0434  0.1447
  170SOL    HW1 1088   7.905   3.265   8.465  0.3365  1.1489 -0.0291
  170SOL    HW2 1089   7.981   3.202   8.350 -0.8413 -1.3307  0.4682
  171SOL     OW 1090   1.181   6.127   3.413  0.3672 -0.0093 -0.1121
  171SOL    HW1 1091   1.125   6.165   3.481  2.1226  0.4086  1.1590
  171SOL    HW2 1092   1.257   6.093   3.460  1.3052 -0.3695 -1.8005
  172SOL     OW 1093   6.391   4.141   2.270  0.1177  0.4111  0.0179
  172SOL    HW1 1094   6.480   4.107   2.279  0.4139  1.2350  0.3288
  172SOL    HW2 1095   6.403   4.232   2.240 -0.6220  0.4771 -0.1053
  173SOL     OW 1096   8.505   8.600   2.836 -0.0187  0.2767 -0.5575
  173SOL    HW1 1097   8.554   8.614   2.917  1.1247 -0.2977 -1.1319
  173SOL    HW2 1098   8.502   8.686   2.794  1.6013  0.1026 -1.1054
  174SOL     OW 1099   0.662   2.571   8.096  0.2609  0.2721  0.2414
  174SOL    HW1 1100   0.655   2.626   8.018  0.3765 -1.2602 -0.9113
  174SOL    HW2 1101   0.735   2.608   8.145  1.2242  0.3448 -1.1902
  175SOL     OW 1102   9.994   3.304   7.327  0.5663  0.2725 -0.3801
  175SOL    HW1 1103  10.015   3.297   7.420 -1.8705 -0.6218  0.1794
  175SOL    HW2 1104   9.911   3.352   7.324 -0.0896 -0.8546 -1.9684
  176SOL     OW 1105   4.536   7.186   5.759 -0.0524  0.0562  0.1122
  176SOL    HW1 1106   4.552   7.280   5.772  2.6839 -0.2216 -0.6828
  176SOL    HW2 1107   4.612   7.155   5.710 -0.6072 -2.7112  0.8325
  177SOL     OW 1108   8.707   0.216   6.504 -0.1689  0.5090  1.0634
  177SOL    HW1 1109   8.657   0.142   6.469  0.7488 -0.1505  1.1090
  177SOL    HW2 1110   8.696   0.285   6.438  0.9881 -0.4953 -0.2567
  178SOL     OW 1111   4.749   5.989   0.756 -0.1574 -0.3883  0.3937
  178SOL    HW1 1112   4.817   6.039   0.803  0.5543 -0.2797 -0.7286
  178SOL    HW2 1113   4.774   5.994   0.664 -0.9443 -1.5163  0.0949
  179SOL     OW 1114   0.263   9.855   0.168  0.0152 -0.2582 -0.5879
  179SOL    HW1 1115   0.170   9.876   0.181 -0.1380 -0.6892 -0.9836
  179SOL    HW2 1116   0.277   9.778   0.222  0.2767  0.1081 -0.1202
  180SOL     OW 1117   4.535   6.946   0.293  0.2438 -0.6488  0.5253
  180SOL    HW1 1118   4.621   6.933   0.333  0.9822  0.9391 -0.4573
  180SOL    HW2 1119   4.554   6.984   0.207 -1.4065 -1.3871 -0.2140
  181SOL     OW 1120   8.307   8.151   5.984 -0.4218 -0.5841 -0.4729
  181SOL    HW1 1121   8.379   8.205   5.951 -0.6790  0.2999  0.3569
  181SOL    HW2 1122   8.265   8.117   5.905  1.5496 -2.0371 -0.9672
  182SOL     OW 1123   2.765   3.109   3.126 -0.0466 -0.1278  0.2507
  182SOL    HW1 1124   2.779   3.144   3.214 -0.3445  0.0026  0.2486
  182SOL    HW2 1125   2.848   3.123   3.080  0.8203 -2.0649  1.1281
  183SOL     OW 1126   0.965   9.424   4.200  0.2202 -0.7246  0.0129
  183SOL    HW1 1127   0.957   9.368   4.123  0.6417 -2.3468  1.0813
  183SOL    HW2 1128   1.059   9.441   4.207  0.4787 -2.4024  1.3293
  184SOL     OW 1129   4.298   6.236   5.996  0.3138 -0.3859  0.0231
  184SOL    HW1 1130   4.243   6.272   5.927  0.2008  0.1952  0.4093
  184SOL    HW2 1131   4.307   6.144   5.974  0.0475 -0.2654 -0.6119
  185SOL     OW 1132   1.510   1.702   8.189 -0.2965  0.1146 -0.5071
  185SOL    HW1 1133   1.425   1.657   8.190 -0.8321  1.0883  1.1583
  185SOL    HW2 1134   1.565   1.651   8.249  0.4037 -0.6400 -1.7467
  186SOL     OW 1135   7.493   1.419   5.209  0.2446  0.1214 -0.0548
  186SOL    HW1 1136   7.479   1.420   5.115  0.7114 -1.0158 -0.1534
  186SOL    HW2 1137   7.586   1.440   5.220 -0.1074  1.6526  0.2510
  187SOL     OW 1138   9.703   5.186   7.523 -0.4676  0.3068 -0.3929
  187SOL    HW1 1139   9.769   5.118   7.536 -0.5103 -0.2308 -2.5281
  187SOL    HW2 1140   9.702   5.235   7.605  0.8838 -1.1286  0.5372
  188SOL     OW 1141   5.345   9.953   2.583  0.7094 -0.3657 -0.2369
  188SOL    HW1 1142   5.317   9.869   2.620  0.6332  0.0830  0.7406
  188SOL    HW2 1143   5.335  10.016   2.655 -0.8862  0.8267 -1.4231
  189SOL     OW 1144   8.199   2.880   2.825  0.0402  0.0864  0.2380
  189SOL    HW1 1145   8.109   2.873   2.793 -0.0277  0.8977  0.2240
  189SOL    HW2 1146   8.191   2.909   2.915  0.2676 -1.0778  0.6581
  190SOL     OW 1147   4.627   8.415   3.650  0.0196 -0.1664 -0.0856
  190SOL    HW1 1148   4.537   8.443   3.666  0.4017  0.5412  0.9516
  190SOL    HW2 1149   4.672   8.492   3.616  0.0098 -0.7925 -1.5841
  191SOL     OW 1150   6.039   0.436   2.412 -0.1094 -0.7789 -0.1329
  191SOL    HW1 1151   6.104   0.374   2.444 -0.4808 -0.9595  0.2840
  191SOL    HW2 1152   5.957   0.386   2.410 -0.3694 -0.3661 -0.0039
  192SOL     OW 1153   8.977   9.411   2.057  0.8977 -0.1772 -0.1287
  192SOL    HW1 1154   8.943   9.446   2.140 -2.1764 -0.4570 -1.1301
  192SOL    HW2 1155   9.047   9.352   2.083 -0.0373 -0.3363  2.3150
  193SOL     OW 1156   1.941   6.835   3.223 -0.6908  0.0678  0.9472
  193SOL    HW1 1157   1.988   6.770   3.170 -0.6035  0.7723  0.1328
  193SOL    HW2 1158   1.950   6.804   3.313 -0.5132 -0.9601  0.5887
  194SOL     OW 1159   8.244   7.395   3.639 -0.0077  0.0354  0.0823
  194SOL    HW1 1160   8.182   7.447   3.690  0.9565  1.2605  0.0619
  194SOL    HW2 1161   8.253   7.314   3.688  0.1152  0.7704  1.3270
  195SOL     OW 1162   9.455   4.712   4.286 -0.0597 -0.5428 -0.4303
  195SOL    HW1 1163   9.367   4.674   4.277 -1.3647  2.1632 -0.2463
  195SOL    HW2 1164   9.474   4.749   4.200  0.7342 -0.7668 -0.3580
  196SOL     OW 1165   0.712   9.933   2.223  0.2915 -0.1738 -0.4253
  196SOL    HW1 1166   0.785   9.973   2.176  1.4184 -1.7763 -0.1341
  196SOL    HW2 1167   0.644  10.000   2.223  1.8488  1.4939 -0.4748
  197SOL     OW 1168   3.746   3.125   1.781  0.0330  0.5616 -0.5289
  197SOL    HW1 1169   3.696   3.188   1.730 -0.1995  1.4904  0.7783
  197SOL    HW2 1170   3.822   3.175   1.814  0.1429  0.0253  0.0569
  198SOL     OW 1171   0.170   1.077   6.924  0.2204  0.0770  0.5482
  198SOL    HW1 1172   0.186   1.005   6.985 -0.0013 -0.1413  0.3515
  198SOL    HW2 1173   0.131   1.146   6.978 -0.1818 -0.1985  0.6072
  199SOL     OW 1174   9.530   6.837   1.327  0.7058  0.3025  0.3939
  199SOL    HW1 1175   9.469   6.898   1.285  0.6139 -0.1998 -0.2226
  199SOL    HW2 1176   9.493   6.820   1.413 -1.1124 -1.5375 -0.6787
  200SOL     OW 1177   4.450   0.361   0.339 -0.6876  0.3160  0.0902
  200SOL    HW1 1178   4.508   0.294   0.375  0.3539  0.8819 -0.4727
  200SOL    HW2 1179   4.493   0.444   0.359  0.3297  0.6545 -2.9423
  201SOL     OW 1180   8.393   8.399   1.285 -0.1329 -0.0890 -0.2133
  201SOL    HW1 1181   8.326   8.467   1.292  0.8341  0.8179  0.4306
  201SOL    HW2 1182   8.432   8.394   1.372 -0.6780 -2.0198 -0.0240
  202SOL     OW 1183   7.011   3.829   1.278  0.1330  0.5282  0.1067
  202SOL    HW1 1184   7.098   3.845   1.242 -0.6583  1.0579 -1.7014
  202SOL    HW2 1185   6.951   3.868   1.214 -1.5162 -1.3857  0.3725
  203SOL     OW 1186   0.524   6.387   7.144  0.1579  0.0884 -0.0471
  203SOL    HW1 1187   0.456   6.362   7.081 -0.0271  0.3193  0.0581
  203SOL    HW2 1188   0.606   6.369   7.100  0.0483  1.2712 -0.7754
  204SOL     OW 1189   8.808   3.683   5.977  0.0969 -0.3900  0.4850
  204SOL    HW1 1190   8.769   3.667   5.891 -0.5218  0.3771  0.6049
  204SOL    HW2 1191   8.875   3.616   5.987 -0.4528 -1.0519 -0.2132
  205SOL     OW 1192   1.582   0.072   3.315 -0.7973 -0.3813  0.4380
  205SOL    HW1 1193   1.620   0.072   3.403 -2.1370 -1.3918  1.0418
  205SOL    HW2 1194   1.593  -0.018   3.284  2.7539  0.6091 -1.8999
  206SOL     OW 1195   5.908   9.814   5.728  0.1532 -0.4902 -0.3700
  206SOL    HW1 1196   5.929   9.907   5.718  0.2530 -0.5638 -0.9329
  206SOL    HW2 1197   5.826   9.812   5.776 -0.9321 -0.0175 -2.0896
  207SOL     OW 1198   5.528   7.476   2.136  0.1198  0.2121 -0.3660
  207SOL    HW1 1199   5.514   7.567   2.109  1.0360  0.5989  0.4091
  207SOL    HW2 1200   5.515   7.425   2.056 -2.2523  0.8140 -0.4487
  208SOL     OW 1201   5.573   4.635   7.927 -0.7351 -0.7589  0.2442
  208SOL    HW1 1202   5.629   4.629   7.850 -1.3744  0.3697 -0.3348
  208SOL    HW2 1203   5.568   4.546   7.961  0.1254 -1.1397 -0.6109
  209SOL     OW 1204   6.833   2.410   0.007 -0.5017 -0.5049 -0.7438
  209SOL    HW1 1205   6.821   2.434   0.099 -2.3129 -1.4544 -0.6955
  209SOL    HW2 1206   6.763   2.348  -0.011  0.7542 -1.5392 -2.3549
  210SOL     OW 1207   4.765   7.852   9.979  0.2124 -0.3806  1.1735
  210SOL    HW1 1208   4.673   7.881   9.974  0.6295  0.8008 -0.2233
  210SOL    HW2 1209   4.789   7.831   9.889  0.7918 -2.5442  1.7599
  211SOL     OW 1210   7.015   6.504   6.629 -0.7427 -0.1670  0.2637
  211SOL    HW1 1211   6.995   6.411   6.635 -1.8854  0.0736  0.5583
  211SOL    HW2 1212   6.951   6.539   6.567 -0.8212  0.5448  0.7227
  212SOL     OW 1213   7.223   0.201   8.944 -0.0399 -0.0717 -0.0165
  212SOL    HW1 1214   7.196   0.186   9.034  0.6137  1.4281  0.4643
  212SOL    HW2 1215   7.183   0.129   8.894 -0.4306 -0.9044  1.4454
  213SOL     OW 1216   9.616   5.324   9.938  0.1763  0.1458  0.3053
  213SOL    HW1 1217   9.573   5.400   9.898  0.5969 -0.6771 -1.8656
  213SOL    HW2 1218   9.591   5.327  10.030 -0.8506  2.1886 -0.0008
  214SOL     OW 1219   4.213   9.273   2.337 -0.4195  0.6946 -0.2518
  214SOL    HW1 1220   4.304   9.299   2.326 -0.2343  0.6229  0.9705
  214SOL    HW2 1221   4.165   9.356   2.338 -0.2936  0.7691 -0.3054
  215SOL     OW 1222   4.996   7.448   3.549  0.3060  0.0954  1.2250
  215SOL    HW1 1223   4.935   7.423   3.480  0.4674  0.3165  1.0005
  215SOL    HW2 1224   5.025   7.536   3.524  0.9777 -0.1458  1.1495
  216SOL     OW 1225   4.603   9.790   8.260 -0.0472 -0.0402  0.3780
  216SOL    HW1 1226   4.669   9.772   8.194 -0.2736  1.2810 -0.2370
  216SOL    HW2 1227   4.530   9.828   8.212 -0.1256  1.1651  1.3958
  217SOL     OW 1228   5.095   9.093   6.893 -0.0924 -0.2970  0.1596
  217SOL    HW1 1229   5.105   9.188   6.899 -0.3376 -0.2877  0.4604
  217SOL    HW2 1230   5.047   9.070   6.973 -1.5769 -0.4598 -0.7459
  218SOL     OW 1231   0.139   7.508   7.858 -0.3757 -0.3070 -0.3276
  218SOL    HW1 1232   0.183   7.465   7.931 -0.0768  0.0952 -0.2655
  218SOL    HW2 1233   0.046   7.496   7.876 -0.2930 -1.0642 -0.4010
  219SOL     OW 1234   8.526   9.295   4.553  0.2836 -0.0141 -0.3536
  219SOL    HW1 1235   8.577   9.376   4.556 -0.8596  0.7572 -1.1048
  219SOL    HW2 1236   8.467   9.300   4.627  1.0954 -0.8047  0.3804
  220SOL     OW 1237   5.619   6.390   9.021 -0.2576  0.6349 -0.0490
  220SOL    HW1 1238   5.550   6.324   9.012 -1.0231  1.3077  0.7099
  220SOL    HW2 1239   5.699   6.339   9.027 -0.6481 -0.1582 -1.1479
  221SOL     OW 1240   9.970   1.884   9.029 -0.0629  0.2234  0.0307
  221SOL    HW1 1241   9.914   1.954   9.061 -0.0924  0.1736  0.0880
  221SOL    HW2 1242   9.983   1.827   9.106  0.2104  0.3308  0.0672
  222SOL     OW 1243   5.374   4.101   8.533 -0.6341 -0.1908  0.2068
  222SOL    HW1 1244   5.279   4.101   8.538 -0.5711  0.1405  1.8795
  222SOL    HW2 1245   5.402   4.172   8.591  0.5946  1.1235 -1.8598
  223SOL     OW 1246   4.827   3.161   0.301 -0.4110  0.3592 -0.0086
  223SOL    HW1 1247   4.817   3.233   0.363  1.0007  0.2838  0.3466
  223SOL    HW2 1248   4.849   3.086   0.356  0.7790  0.2747 -0.5778
  224SOL     OW 1249   3.156   9.532   8.461 -0.5883  0.0771  0.0887
  224SOL    HW1 1250   3.195   9.582   8.389  4.2243  0.9984  2.9714
  224SOL    HW2 1251   3.106   9.596   8.511  0.5753  0.7108  0.4684
  225SOL     OW 1252   7.316   1.961   9.674 -0.1224 -0.3968  0.3515
  225SOL    HW1 1253   7.332   1.918   9.758 -1.1473 -2.0233 -0.2456
  225SOL    HW2 1254   7.398   1.951   9.626  0.1319 -0.3568  0.7706
  226SOL     OW 1255   4.384   7.575   8.195 -0.2840  0.2311 -0.1820
  226SOL    HW1 1256   4.442   7.528   8.134  0.1228  1.5612 -0.8633
  226SOL    HW2 1257   4.418   7.554   8.282 -0.1100 -0.7175 -0.4683
  227SOL     OW 1258   9.504   5.552   9.833  0.1301 -0.0269  0.0305
  227SOL    HW1 1259   9.451   5.571   9.755  0.2090 -0.9068 -0.2572
  227SOL    HW2 1260   9.561   5.628   9.843  1.4041 -0.6647 -1.8629
  228SOL     OW 1261   0.080   9.110   0.191 -0.3542  0.2088  0.1097
  228SOL    HW1 1262  -0.004   9.070   0.214 -1.1539  0.5728 -1.9519
  228SOL    HW2 1263   0.074   9.199   0.226  0.0250 -0.3728  1.7183
  229SOL     OW 1264   9.667   7.707   4.099 -0.2297 -0.3591  0.3227
  229SOL    HW1 1265   9.763   7.700   4.099 -0.1812  0.1949 -0.4978
  229SOL    HW2 1266   9.637   7.616   4.100  0.3251 -0.5815 -0.9892
  230SOL     OW 1267   5.670   5.195   1.098  0.4805 -0.4348  0.0665
  230SOL    HW1 1268   5.732   5.221   1.166  0.4452  2.8017 -0.9852
  230SOL    HW2 1269   5.588   5.180   1.145  0.7216  0.7123  0.9030
  231SOL     OW 1270   6.743   8.803   2.494 -0.4801  0.5746 -0.0457
  231SOL    HW1 1271   6.704   8.718   2.477  0.9044  0.0923 -1.0184
  231SOL    HW2 1272   6.761   8.804   2.588  0.3362 -0.6106 -0.1690
  232SOL     OW 1273   9.003   2.691   5.176  0.1931 -0.1111  0.4450
  232SOL    HW1 1274   8.997   2.781   5.143  0.9416  0.0407  0.7084
  232SOL    HW2 1275   8.913   2.667   5.197  0.0769  0.8758  1.1597
  233SOL     OW 1276   5.908   4.755   9.052  0.2342 -0.1316 -0.1038
  233SOL    HW1 1277   5.917   4.823   9.118 -0.5026 -0.7112  0.6139
  233SOL    HW2 1278   5.974   4.777   8.985  0.8776  0.5518  0.7392
  234SOL     OW 1279   7.434   7.921   4.911  0.4081 -0.0242  0.0749
  234SOL    HW1 1280   7.468   8.009   4.899  0.2284 -0.0222 -0.4806
  234SOL    HW2 1281   7.503   7.874   4.958 -0.1640  0.8380  1.8253
  235SOL     OW 1282   7.531   9.648   2.583  0.2813 -0.1428 -0.2307
  235SOL    HW1 1283   7.614   9.602   2.575  0.0448 -0.6627  0.1712
  235SOL    HW2 1284   7.475   9.587   2.631 -0.4984 -0.0256 -0.9576
  236SOL     OW 1285   8.510   6.252   3.122 -0.2064  0.4913 -0.0500
  236SOL    HW1 1286   8.513   6.321   3.056  1.3809 -0.0463 -0.5829
  236SOL    HW2 1287   8.437   6.196   3.096  0.4294  0.2539 -1.4091
  237SOL     OW 1288   4.861   2.048   0.805 -0.3623 -0.5731  0.1566
  237SOL    HW1 1289   4.846   2.075   0.895  0.1331 -1.2978  0.4593
  237SOL    HW2 1290   4.775   2.057   0.763 -0.5643 -0.1035  0.6595
  238SOL     OW 1291   2.280   4.151   6.026  0.2936  0.4008 -0.0927
  238SOL    HW1 1292   2.280   4.093   5.950 -0.1857  1.4025 -0.8785
  238SOL    HW2 1293   2.372   4.176   6.037  0.3695  0.2166 -0.3023
  239SOL     OW 1294   5.415   8.633   8.004 -0.1668 -0.8575  0.6255
  239SOL    HW1 1295   5.327   8.624   8.040 -0.3003 -2.5858 -0.0646
  239SOL    HW2 1296   5.472   8.638   8.081 -0.9331  1.9159  1.1171
  240SOL     OW 1297   5.167   4.539   1.368  0.1091 -0.2406  0.4769
  240SOL    HW1 1298   5.180   4.586   1.450 -1.4484 -0.0746  0.6468
  240SOL    HW2 1299   5.194   4.449   1.386  1.5997  0.2024  0.5998
  241SOL     OW 1300   8.772   4.006   0.114  0.3469  0.7466  0.1338
  241SOL    HW1 1301   8.722   3.942   0.165 -0.6750  0.6211 -0.9822
  241SOL    HW2 1302   8.707   4.070   0.085  1.4066  2.6476  1.6452
  242SOL     OW 1303   4.370   0.062   1.322  0.1237 -0.5464  0.2064
  242SOL    HW1 1304   4.278   0.086   1.312  0.4808  0.0948 -2.1538
  242SOL    HW2 1305   4.402   0.119   1.392 -0.6690  1.2506 -0.8069
  243SOL     OW 1306   7.352   3.983   5.242  0.1141  0.1676 -0.7092
  243SOL    HW1 1307   7.268   3.981   5.196 -0.8963 -1.2791  1.0601
  243SOL    HW2 1308   7.399   3.905   5.211 -0.4520 -0.6526  0.4122
  244SOL     OW 1309   3.141   2.964   4.073  0.3649  0.9124  0.1295
  244SOL    HW1 1310   3.221   2.935   4.117 -1.5500 -1.0339  2.5939
  244SOL    HW2 1311   3.135   2.908   3.995  0.2287 -0.6511  1.2145
  245SOL     OW 1312   6.650   7.773   1.206  0.3640  0.0072  0.4833
  245SOL    HW1 1313   6.589   7.825   1.258  0.2348  2.1736 -1.6294
  245SOL    HW2 1314   6.612   7.773   1.118  1.8440 -1.2846 -0.1958
  246SOL     OW 1315   2.664   9.762   3.549 -0.4058  0.2705 -0.2593
  246SOL    HW1 1316   2.611   9.822   3.602 -0.0235 -0.4173  0.9623
  246SOL    HW2 1317   2.745   9.810   3.532  0.6492 -0.4327  2.2198
  247SOL     OW 1318   4.784   6.377   0.649  0.1176 -0.3964  0.1959
  247SOL    HW1 1319   4.694   6.393   0.621 -0.0240 -0.2000  0.7603
  247SOL    HW2 1320   4.778   6.362   0.743  0.6617 -0.5103  0.2174
  248SOL     OW 1321   8.817   9.760   2.613 -0.2033 -0.0316  0.1638
  248SOL    HW1 1322   8.743   9.818   2.630  0.2361  0.6098 -0.0815
  248SOL    HW2 1323   8.890   9.819   2.597  0.0180 -0.6388 -1.1976
  249SOL     OW 1324   8.985   9.627   4.282 -0.1982 -0.2030 -0.4322
  249SOL    HW1 1325   9.029   9.672   4.354 -0.9349  0.7029 -0.5341
  249SOL    HW2 1326   8.905   9.677   4.268 -0.0353 -0.3314 -1.9363
  250SOL     OW 1327   0.390   9.445   1.474 -0.4357 -0.8106  0.0339
  250SOL    HW1 1328   0.385   9.354   1.505  0.8383 -1.1640 -0.6981
  250SOL    HW2 1329   0.346   9.444   1.389  0.2814 -0.9400 -0.3441
  251SOL     OW 1330   7.235   1.088   6.151 -0.1742 -0.2813 -0.2903
  251SOL    HW1 1331   7.256   1.093   6.058  0.0685  2.1813 -0.1840
  251SOL    HW2 1332   7.281   1.011   6.183  1.4856  0.0278 -1.8080
  252SOL     OW 1333   5.718   9.708   7.873  0.9905 -0.0400  0.3470
  252SOL    HW1 1334   5.765   9.649   7.931  1.0954  0.5015  0.8218
  252SOL    HW2 1335   5.785   9.740   7.812  1.3061  0.9001  1.1584
  253SOL     OW 1336   0.921   1.782   6.034  0.0058  0.6323 -0.2265
  253SOL    HW1 1337   0.848   1.828   5.993 -0.2575  0.0604 -0.4053
  253SOL    HW2 1338   0.888   1.756   6.120  1.7353  5.1895  2.1379
  254SOL     OW 1339   9.341   5.952   0.068 -0.5221  0.3032 -0.0173
  254SOL    HW1 1340   9.343   5.880   0.005 -2.0295  1.6986 -1.7924
  254SOL    HW2 1341   9.373   5.914   0.150 -0.1102 -2.0322 -1.1841
  255SOL     OW 1342   1.229   9.879   6.824 -0.0271  0.1593 -0.2682
  255SOL    HW1 1343   1.269   9.954   6.868  0.5925  0.7509 -1.7516
  255SOL    HW2 1344   1.145   9.867   6.868 -0.4571  2.1705 -0.4055
  256SOL     OW 1345   3.741   1.235   3.621 -0.5109  0.0768  0.3637
  256SOL    HW1 1346   3.775   1.156   3.663  0.4960 -0.7610 -1.8787
  256SOL    HW2 1347   3.672   1.204   3.563  0.4263  0.6875 -1.1460
  257SOL     OW 1348   9.423   4.150   3.166 -0.8284 -0.2882 -0.2626
  257SOL    HW1 1349   9.474   4.109   3.236 -1.0367  1.1953  0.8034
  257SOL    HW2 1350   9.481   4.146   3.089  0.4290  0.2629  0.6221
  258SOL     OW 1351   3.655   3.597   5.277 -0.3460 -0.0436 -0.4513
  258SOL    HW1 1352   3.583   3.593   5.214  0.2589  1.3717 -1.2601
  258SOL    HW2 1353   3.698   3.680   5.260  2.2387 -1.3647 -0.7850
  259SOL     OW 1354   5.915   0.007   7.758 -0.4488 -0.2589 -0.0893
  259SOL    HW1 1355   5.928   0.074   7.824  2.9082 -1.9894  1.2647
  259SOL    HW2 1356   5.968  -0.067   7.788 -1.1000 -2.2174 -3.2690
  260SOL     OW 1357   9.846   1.690   0.452  0.4271 -0.3517  0.3869
  260SOL    HW1 1358   9.920   1.708   0.510  0.2316 -0.8341  0.7914
  260SOL    HW2 1359   9.775   1.745   0.485 -0.0650 -1.5573  1.4057
  261SOL     OW 1360   3.445   2.235   3.407  0.2157  0.2183  0.4302
  261SOL    HW1 1361   3.391   2.303   3.365 -3.7366 -1.5340  2.1662
  261SOL    HW2 1362   3.435   2.252   3.501  0.4746 -1.7978  0.8531
  262SOL     OW 1363   0.860   5.948   6.439 -0.1586  0.6273  0.1150
  262SOL    HW1 1364   0.797   5.887   6.478  0.3563  1.2791  2.1065
  262SOL    HW2 1365   0.919   5.892   6.388 -0.9461 -0.2652  0.1546
  263SOL     OW 1366   4.960   1.981   7.102 -0.3047 -1.2219 -0.7979
  263SOL    HW1 1367   4.886   1.930   7.134 -1.8036  0.9220 -0.6570
  263SOL    HW2 1368   4.949   2.068   7.141  2.4204 -0.8606 -0.6027
  264SOL     OW 1369   2.992   7.048   1.508 -0.0963  0.1448  0.4925
  264SOL    HW1 1370   3.067   7.095   1.470 -1.2907 -0.2221 -2.5862
  264SOL    HW2 1371   3.023   7.020   1.594  3.1077  0.5027 -0.4144
  265SOL     OW 1372   3.792   4.812   4.071  0.3706  0.8603 -0.1299
  265SOL    HW1 1373   3.859   4.776   4.013 -2.1823 -0.9671 -2.1561
  265SOL    HW2 1374   3.800   4.760   4.151 -0.6974 -1.7104 -1.5861
  266SOL     OW 1375   8.370   5.783   5.980 -0.0817  0.3576 -0.4341
  266SOL    HW1 1376   8.290   5.732   5.991 -0.0254  0.2962 -0.2991
  266SOL    HW2 1377   8.440   5.718   5.980 -0.1121  0.3095 -1.7312
  267SOL     OW 1378   2.885   9.056   6.490  0.1407 -0.2951  0.5606
  267SOL    HW1 1379   2.883   9.132   6.432 -0.6185 -0.4094  0.4268
  267SOL    HW2 1380   2.870   9.092   6.577 -1.5760 -0.4066  0.3474
  268SOL     OW 1381   0.349   2.931   9.885 -0.4760  0.6785 -0.3431
  268SOL    HW1 1382   0.316   2.846   9.912 -2.0760  1.0678 -0.9643
  268SOL    HW2 1383   0.292   2.994   9.928  1.8792  1.5599  1.6993
  269SOL     OW 1384   6.272   5.818   1.455 -0.6914 -0.5018 -0.3089
  269SOL    HW1 1385   6.347   5.777   1.412 -0.8683  0.7598 -1.9151
  269SOL    HW2 1386   6.279   5.791   1.547  1.3690 -0.9081 -0.5473
  270SOL     OW 1387   4.207   6.922   4.017 -0.3643  0.5956  0.8753
  270SOL    HW1 1388   4.145   6.851   4.000 -1.7952  1.2545  2.9640
  270SOL    HW2 1389   4.285   6.879   4.052 -0.7223 -0.0503  0.8906
  271SOL     OW 1390   9.809   2.054   7.765 -0.4409  0.0556 -0.0944
  271SOL    HW1 1391   9.716   2.071   7.755 -0.7782 -1.9942 -1.1505
  271SOL    HW2 1392   9.839   2.031   7.676  0.9094  0.0242  0.3396
  272SOL     OW 1393   8.793   4.347   5.562  0.0498 -0.3937 -0.7336
  272SOL    HW1 1394   8.770   4.430   5.603  2.1305 -1.1806  2.4409
  272SOL    HW2 1395   8.728   4.285   5.595  1.1292 -0.8197  0.7515
  273SOL     OW 1396   4.458   6.400   6.451 -0.1290 -0.3308 -0.1771
  273SOL    HW1 1397   4.493   6.323   6.405 -0.8789 -1.1133  0.5319
  273SOL    HW2 1398   4.386   6.366   6.504  0.8418  0.4787  1.7708
  274SOL     OW 1399   8.684   3.480   0.507 -0.5311 -0.2905  0.2225
  274SOL    HW1 1400   8.720   3.567   0.522  2.2246 -1.2902  0.0437
  274SOL    HW2 1401   8.647   3.454   0.592 -1.3573  0.9938  0.2824
  275SOL     OW 1402   3.420   2.427   6.674 -0.2857 -0.0003 -0.1368
  275SOL    HW1 1403   3.423   2.414   6.769 -0.6316 -0.7369 -0.2227
  275SOL    HW2 1404   3.428   2.522   6.663  0.5387  0.0312  0.5895
  276SOL     OW 1405   2.041   1.151   3.804 -0.0398 -0.0168 -0.1016
  276SOL    HW1 1406   2.050   1.104   3.721 -0.1766  1.9488 -1.2917
  276SOL    HW2 1407   1.955   1.193   3.799  0.3591  0.9182  0.5993
  277SOL     OW 1408   5.625   1.486   6.796 -0.2708 -0.7844  0.0666
  277SOL    HW1 1409   5.601   1.393   6.791  0.0848 -0.8729 -0.0150
  277SOL    HW2 1410   5.669   1.504   6.713 -2.0547 -0.0474 -0.7693
  278SOL     OW 1411   1.630   7.813   3.985  0.2287 -0.4015 -0.3248
  278SOL    HW1 1412   1.600   7.808   3.894  1.3681 -1.3814 -0.6694
  278SOL    HW2 1413   1.663   7.902   3.995  0.5847 -0.4476 -1.0322
  279SOL     OW 1414   0.165   0.931   6.445  0.1098  0.1162  0.1637
  279SOL    HW1 1415   0.114   0.976   6.512 -1.0273  1.0582 -1.2544
  279SOL    HW2 1416   0.149   0.981   6.365  1.9092 -0.5929 -0.7043
  280SOL     OW 1417   3.135   4.780   1.319 -0.9201 -0.2438 -0.1457
  280SOL    HW1 1418   3.166   4.825   1.240  0.8415  0.0033  0.6257
  280SOL    HW2 1419   3.054   4.737   1.292 -1.3151  1.2890 -1.5970
  281SOL     OW 1420   4.760   9.215   3.140  0.2645  0.5728 -0.1813
  281SOL    HW1 1421   4.681   9.205   3.192 -0.3086  1.5450 -0.8440
  281SOL    HW2 1422   4.813   9.139   3.162 -0.8428 -0.0791  0.2837
  282SOL     OW 1423   4.994   4.348   3.691  0.0745  0.5156  0.4889
  282SOL    HW1 1424   5.077   4.300   3.684 -1.2336 -1.7321 -0.7582
  282SOL    HW2 1425   5.007   4.426   3.636  1.1601 -0.1004 -0.1715
  283SOL     OW 1426   0.906   8.414   7.714  0.3603  0.5387 -0.2277
  283SOL    HW1 1427   0.875   8.372   7.634  0.9160 -0.9082  0.2732
  283SOL    HW2 1428   0.826   8.436   7.762 -0.0646  2.9906 -1.8656
  284SOL     OW 1429   2.104   3.909   6.487  0.0871  0.2167 -0.2191
  284SOL    HW1 1430   2.128   3.944   6.401 -0.5691  1.7425  0.1745
  284SOL    HW2 1431   2.009   3.896   6.482 -0.0171  0.6889  0.3848
  285SOL     OW 1432   9.550   8.540   3.580  0.7145 -0.8438 -0.2154
  285SOL    HW1 1433   9.497   8.537   3.659 -0.3554  0.5192 -0.8359
  285SOL    HW2 1434   9.640   8.538   3.611  0.3236  0.6585  1.1070
  286SOL     OW 1435   7.596   3.272   8.043 -0.0406  0.1646 -0.5476
  286SOL    HW1 1436   7.574   3.365   8.047 -0.5162  0.0589 -0.6821
  286SOL    HW2 1437   7.685   3.267   8.079  0.5339  0.8525 -1.8020
  287SOL     OW 1438   3.962   6.169   8.370 -0.3280  0.2277  0.1390
  287SOL    HW1 1439   3.942   6.178   8.463 -1.1207 -0.9494  0.1040
  287SOL    HW2 1440   3.998   6.254   8.345 -1.6499  1.1282  1.1293
  288SOL     OW 1441   5.578   9.152   5.353 -0.0978 -0.7901  0.2972
  288SOL    HW1 1442   5.526   9.177   5.276  0.4379 -1.4338 -0.2872
  288SOL    HW2 1443   5.640   9.224   5.363 -0.1619 -0.7088  0.1216
  289SOL     OW 1444   2.057   3.159   5.935 -0.1221  0.2097 -0.0412
  289SOL    HW1 1445   2.052   3.207   5.853 -1.2038 -0.2731 -0.2805
  289SOL    HW2 1446   2.052   3.067   5.910  1.1319 -0.0240  0.4692
  290SOL     OW 1447   8.953   8.521   4.316  0.0278  0.0518  0.4484
  290SOL    HW1 1448   8.914   8.509   4.403  0.1690 -0.2989  0.4635
  290SOL    HW2 1449   9.030   8.575   4.332  0.4397 -0.5762  0.6427
  291SOL     OW 1450   0.958   7.479   5.117  0.2552 -0.1189  0.4247
  291SOL    HW1 1451   1.001   7.398   5.091 -1.5824 -0.9477 -0.1826
  291SOL    HW2 1452   0.894   7.452   5.183 -1.0392  0.6476 -0.4618
  292SOL     OW 1453   7.526   9.911   2.664  0.4442  0.3968  0.6142
  292SOL    HW1 1454   7.579   9.964   2.604  2.5043  0.0294  1.9935
  292SOL    HW2 1455   7.539   9.821   2.634  1.8379  0.1685  1.7841
  293SOL     OW 1456   7.325   4.656   5.965 -0.5117 -0.2523 -0.4754
  293SOL    HW1 1457   7.338   4.576   5.915 -1.7752 -0.0909 -1.0899
  293SOL    HW2 1458   7.232   4.677   5.955  0.0883  2.2062 -1.7523
  294SOL     OW 1459   2.238   2.704   0.718  0.5095  1.1951  0.4202
  294SOL    HW1 1460   2.316   2.676   0.767  0.5483  0.3629 -0.0917
  294SOL    HW2 1461   2.254   2.671   0.629 -0.1018  1.6524  0.1395
  295SOL     OW 1462   1.036   9.217   6.926  0.0718  0.2945  0.3017
  295SOL    HW1 1463   1.101   9.272   6.969  0.4298 -0.1897  0.3868
  295SOL    HW2 1464   1.081   9.134   6.909 -0.9486 -0.6108  1.7480
  296SOL     OW 1465   5.759   2.228   9.665 -1.2288 -0.2764 -0.7126
  296SOL    HW1 1466   5.850   2.215   9.640 -1.1545  0.5437 -0.9059
  296SOL    HW2 1467   5.716   2.258   9.584 -2.3189 -3.3547 -1.3954
  297SOL     OW 1468   6.757   0.064   6.618 -0.9277  0.2984  0.0269
  297SOL    HW1 1469   6.762   0.108   6.702 -0.2322 -0.3750  0.3501
  297SOL    HW2 1470   6.800   0.124   6.557  0.1137  0.0338  0.4827
  298SOL     OW 1471   0.840   9.175   7.671 -0.3730 -0.3474 -0.3358
  298SOL    HW1 1472   0.754   9.185   7.712 -0.2133  0.3566 -0.1535
  298SOL    HW2 1473   0.897   9.144   7.742  0.0010  1.2852  0.1265
  299SOL     OW 1474   7.307   3.428   9.040  0.3125  0.2046 -0.3435
  299SOL    HW1 1475   7.282   3.337   9.056 -0.1373  0.1038 -1.5484
  299SOL    HW2 1476   7.396   3.423   9.007  0.0271  0.1323 -1.1182
  300SOL     OW 1477   6.394   2.348   2.164  0.4862  0.1895  0.3221
  300SOL    HW1 1478   6.319   2.400   2.196  0.6495  1.7956 -1.7287
  300SOL    HW2 1479   6.467   2.377   2.218 -0.3034 -1.6077  2.5560
  301SOL     OW 1480   0.354   7.186   0.175  0.3196 -0.5338  0.0430
  301SOL    HW1 1481   0.347   7.101   0.133  1.3498 -1.4757  1.6382
  301SOL    HW2 1482   0.280   7.236   0.141 -0.5934 -2.2150 -0.5907
  302SOL     OW 1483   4.675   0.648   3.985 -0.5753  0.0864 -0.4091
  302SOL    HW1 1484   4.697   0.567   3.939  0.9498 -0.0030  0.4212
  302SOL    HW2 1485   4.692   0.717   3.920  2.6240  0.0475  0.2203
  303SOL     OW 1486   4.743   0.174   4.106 -0.2969 -0.4679 -0.4005
  303SOL    HW1 1487   4.806   0.121   4.154 -2.3300 -0.5017  2.4720
  303SOL    HW2 1488   4.723   0.247   4.164 -1.1652  0.8335 -2.2269
  304SOL     OW 1489   0.735   3.752   6.786  0.9551  0.0911 -0.2939
  304SOL    HW1 1490   0.646   3.744   6.750  0.5169  1.9196  0.2869
  304SOL    HW2 1491   0.778   3.670   6.761 -1.9266 -2.5284  2.3170
  305SOL     OW 1492   3.695   5.152   9.369  0.0628 -0.0902 -0.2640
  305SOL    HW1 1493   3.646   5.234   9.360  0.4157  0.3190  1.2711
  305SOL    HW2 1494   3.662   5.113   9.449  2.4248  0.3601  1.0025
  306SOL     OW 1495   5.204   5.078   5.120  0.2951  0.1718 -0.7604
  306SOL    HW1 1496   5.251   5.028   5.053  0.8239 -0.2580 -0.0818
  306SOL    HW2 1497   5.271   5.135   5.159  0.1769 -0.1465 -0.0699
  307SOL     OW 1498   0.826   3.539   4.308  0.4614  0.6485 -0.0341
  307SOL    HW1 1499   0.836   3.542   4.213  1.4415  1.4341  0.0822
  307SOL    HW2 1500   0.915   3.546   4.342  0.0129  1.9715  0.9637
  308SOL     OW 1501   3.304   6.644   3.391 -0.2313  0.8204 -0.7355
  308SOL    HW1 1502   3.358   6.721   3.413  1.8751  0.1837 -3.2035
  308SOL    HW2 1503   3.272   6.661   3.303 -0.1495 -0.9041 -1.1307
  309SOL     OW 1504   6.784   2.733   7.829  0.2304  0.1958 -0.5969
  309SOL    HW1 1505   6.794   2.826   7.808 -0.8040  0.0178 -2.0918
  309SOL    HW2 1506   6.827   2.688   7.756 -1.7950 -0.4698 -1.4659
  310SOL     OW 1507   2.133   6.381   8.285 -0.4269  0.2996 -0.1544
  310SOL    HW1 1508   2.200   6.408   8.347 -2.0376  0.7824  1.4671
  310SOL    HW2 1509   2.123   6.456   8.226  0.5668  0.1422 -0.5405
  311SOL     OW 1510   9.795   3.966   6.145 -0.0203 -0.3533  0.2484
  311SOL    HW1 1511   9.851   4.031   6.188 -1.3777  2.1485 -1.4892
  311SOL    HW2 1512   9.855   3.896   6.120  1.7333  0.6732  1.3176
  312SOL     OW 1513   1.811   6.895   3.552  0.1458 -0.1602 -0.1860
  312SOL    HW1 1514   1.859   6.835   3.494  1.7012  0.6396  0.2256
  312SOL    HW2 1515   1.829   6.863   3.640  1.8335  1.4464  0.1024
  313SOL     OW 1516   9.799   6.926   9.463  0.2794  0.3842 -0.1123
  313SOL    HW1 1517   9.856   6.854   9.436  1.7809  1.1884  0.7793
  313SOL    HW2 1518   9.762   6.958   9.381 -1.1144 -1.8976 -0.4653
  314SOL     OW 1519   4.371   1.308   0.341  0.0236  0.3042  0.1011
  314SOL    HW1 1520   4.461   1.334   0.323 -0.4972  2.0065 -0.1878
  314SOL    HW2 1521   4.327   1.309   0.256  0.0686 -2.1311 -0.0244
  315SOL     OW 1522   0.690   0.254   9.498  0.0270  0.4962  0.0782
  315SOL    HW1 1523   0.626   0.324   9.495  1.0267  1.4385  0.0727
  315SOL    HW2 1524   0.727   0.251   9.410  0.8790  0.8381  0.4065
  316SOL     OW 1525   1.761   9.936   7.166 -0.5805 -0.3336 -0.0046
  316SOL    HW1 1526   1.680   9.929   7.116  0.7091 -1.4331 -2.0764
  316SOL    HW2 1527   1.831   9.927   7.101  1.2807  2.2665  1.4175
  317SOL     OW 1528   5.173   9.874   7.355 -0.3783  0.3330 -0.0619
  317SOL    HW1 1529   5.140   9.952   7.311 -0.6205 -0.7332 -1.8690
  317SOL    HW2 1530   5.099   9.843   7.408 -0.5678  0.8529 -0.0220
  318SOL     OW 1531   4.729   5.672   1.541  0.2199 -0.0004  0.5478
  318SOL    HW1 1532   4.776   5.676   1.625  1.3202  4.4570 -0.0067
  318SOL    HW2 1533   4.799   5.667   1.475 -0.5764 -1.9841 -0.2292
  319SOL     OW 1534   6.684   7.468   1.996  0.0818 -0.7774 -0.0835
  319SOL    HW1 1535   6.668   7.536   1.931  0.1504 -0.3701  0.3240
  319SOL    HW2 1536   6.774   7.483   2.025  0.5391 -1.7887 -0.8610
  320SOL     OW 1537   6.929   3.768   6.666 -0.7435  0.4398 -0.6150
  320SOL    HW1 1538   6.893   3.782   6.753  0.1169 -0.7464 -0.0333
  320SOL    HW2 1539   6.854   3.740   6.613 -0.9778 -0.5230  0.1930
  321SOL     OW 1540   8.233   2.344   2.563 -0.5481  0.2539 -0.2249
  321SOL    HW1 1541   8.260   2.254   2.544  0.3049  0.7961 -1.8527
  321SOL    HW2 1542   8.253   2.356   2.656 -0.8145 -1.2709  0.0533
  322SOL     OW 1543   1.711   0.575   1.252  0.8151 -0.3613  0.7069
  322SOL    HW1 1544   1.690   0.535   1.337  1.8666 -0.0775  1.1194
  322SOL    HW2 1545   1.805   0.562   1.242  0.5346 -1.4479 -0.9864
  323SOL     OW 1546   1.885   5.356   1.927  0.3737 -0.0700  0.0121
  323SOL    HW1 1547   1.818   5.359   1.859  1.7261  1.5904 -1.3315
  323SOL    HW2 1548   1.944   5.286   1.900 -0.6324 -1.4081  1.1002
  324SOL     OW 1549   3.892   7.576   2.611 -0.0333  0.1422 -0.2069
  324SOL    HW1 1550   3.841   7.588   2.531  1.1876 -1.6052 -1.3131
  324SOL    HW2 1551   3.897   7.481   2.622  1.5285  0.3173  0.8175
  325SOL     OW 1552   9.352   6.477   6.292  0.3246 -0.5530  0.1210
  325SOL    HW1 1553   9.301   6.532   6.351  1.3549 -0.3756  0.8769
  325SOL    HW2 1554   9.375   6.534   6.219 -0.3961 -0.5892 -0.1451
  326SOL     OW 1555   3.669   0.468   9.715  0.2635  0.0581  0.1095
  326SOL    HW1 1556   3.703   0.394   9.765  1.6556 -0.2397 -1.1814
  326SOL    HW2 1557   3.723   0.469   9.635 -0.3609  1.8810 -0.3324
  327SOL     OW 1558   8.251   8.477   6.605  0.8466  0.0042  0.4981
  327SOL    HW1 1559   8.263   8.558   6.656  0.0740  0.5237 -0.1123
  327SOL    HW2 1560   8.156   8.467   6.600  0.7515  1.3107 -2.8256
  328SOL     OW 1561   9.883   7.461   9.240  0.0965  0.1379  0.0806
  328SOL    HW1 1562   9.908   7.379   9.282  0.8018  1.2857  2.0481
  328SOL    HW2 1563   9.837   7.434   9.161  0.8642 -2.1326  0.3256
  329SOL     OW 1564   7.214   1.566   0.368  0.3379  0.7130  0.1936
  329SOL    HW1 1565   7.187   1.532   0.283  0.4875  1.3327 -0.1009
  329SOL    HW2 1566   7.188   1.497   0.430 -1.2083  0.9245 -0.1673
  330SOL     OW 1567   3.639   8.834   2.493 -0.4121 -0.2813 -0.0292
  330SOL    HW1 1568   3.570   8.848   2.428 -0.9217 -2.8061 -0.1344
  330SOL    HW2 1569   3.639   8.914   2.545 -2.1702  0.5310 -1.1628
  331SOL     OW 1570   4.944   9.653   9.734  0.4838  0.2289 -0.3777
  331SOL    HW1 1571   4.874   9.706   9.774 -2.1027 -1.7038 -1.9935
  331SOL    HW2 1572   4.939   9.673   9.641  0.7854 -1.3524 -0.7616
  332SOL     OW 1573   2.880   3.717   2.154  0.4007  0.0864  0.3314
  332SOL    HW1 1574   2.933   3.796   2.167 -1.3679  1.1201  1.7123
  332SOL    HW2 1575   2.930   3.648   2.197  3.2308 -0.2333 -3.0264
  333SOL     OW 1576   3.381   2.756   3.275  1.0168 -0.3111  0.4002
  333SOL    HW1 1577   3.306   2.759   3.334  0.8364  2.5569  0.1725
  333SOL    HW2 1578   3.343   2.731   3.190  0.0641  1.9127  0.0879
  334SOL     OW 1579   2.056   3.636   0.488 -0.0368 -0.3763  0.6357
  334SOL    HW1 1580   2.046   3.561   0.430  0.4775 -0.6326  0.8661
  334SOL    HW2 1581   2.084   3.597   0.572 -0.9901 -0.0342  1.1166
  335SOL     OW 1582   8.401   4.753   3.351 -0.8301  0.3546  0.2234
  335SOL    HW1 1583   8.369   4.823   3.407 -0.9048  0.1397  0.4509
  335SOL    HW2 1584   8.404   4.791   3.263 -1.0900  0.5683  0.3085
  336SOL     OW 1585   1.929   0.379   7.562  0.0942  0.0318 -0.6523
  336SOL    HW1 1586   1.924   0.305   7.501 -0.0556 -0.5005 -0.0150
  336SOL    HW2 1587   1.907   0.341   7.647 -0.7225  0.9687 -0.4222
  337SOL     OW 1588   2.883   1.136   4.900 -0.0293  0.3080 -0.2402
  337SOL    HW1 1589   2.790   1.136   4.922  0.2192 -0.7580  0.9424
  337SOL    HW2 1590   2.924   1.185   4.970  0.4963 -0.8998  0.3320
  338SOL     OW 1591   6.272   1.812   7.775 -0.6597 -0.2371 -0.7444
  338SOL    HW1 1592   6.352   1.786   7.728 -1.2128  0.3895 -2.1045
  338SOL    HW2 1593   6.303   1.873   7.842  0.0729 -0.3774 -0.9401
  339SOL     OW 1594   7.967   4.923   8.141  0.7498 -0.0135 -0.2430
  339SOL    HW1 1595   8.033   4.978   8.099  0.5904  0.1374 -0.2954
  339SOL    HW2 1596   7.906   4.985   8.181  1.5118 -0.1405  1.1877
  340SOL     OW 1597   9.467   0.403   5.504 -0.0981  0.5903 -0.2365
  340SOL    HW1 1598   9.434   0.481   5.549 -0.5283  0.5422 -0.4578
  340SOL    HW2 1599   9.389   0.350   5.489  0.4274 -0.8241  1.6695
  341SOL     OW 1600   9.788   2.249   7.036 -0.1822 -0.1321 -0.1880
  341SOL    HW1 1601   9.812   2.183   6.971  1.0972  0.7559 -0.6639
  341SOL    HW2 1602   9.726   2.306   6.989  0.8927  0.6243 -0.7357
  342SOL     OW 1603   1.878   0.444   0.653  0.6414  0.0035 -0.0990
  342SOL    HW1 1604   1.926   0.379   0.601  1.5790  0.7045 -0.1355
  342SOL    HW2 1605   1.842   0.394   0.727  1.3616 -0.5530 -0.1161
  343SOL     OW 1606   1.546   2.586   8.226 -0.2044  0.7911 -0.4211
  343SOL    HW1 1607   1.595   2.529   8.285 -1.3443  2.7859  2.6958
  343SOL    HW2 1608   1.476   2.530   8.193 -0.0238 -0.2105  0.7995
  344SOL     OW 1609   6.767   7.855   6.879 -0.4440  0.5236 -0.6324
  344SOL    HW1 1610   6.676   7.840   6.853 -0.1175 -0.8440 -1.0748
  344SOL    HW2 1611   6.794   7.773   6.921  1.7527 -0.6684 -3.9612
  345SOL     OW 1612   1.857   1.388   3.188  0.2247 -0.7371  0.2573
  345SOL    HW1 1613   1.944   1.408   3.154 -0.0624 -1.9224 -1.2939
  345SOL    HW2 1614   1.817   1.474   3.202  0.9146 -0.1741 -1.0321
  346SOL     OW 1615   2.111   5.535   4.842  0.0429  0.2528  0.2814
  346SOL    HW1 1616   2.033   5.511   4.792  0.6294 -0.6965 -0.1981
  346SOL    HW2 1617   2.181   5.481   4.805  0.7140  0.3227  1.4092
  347SOL     OW 1618   2.862   9.434   6.339  0.1524  0.1393 -0.2344
  347SOL    HW1 1619   2.782   9.381   6.346  0.4853 -0.4636 -0.8957
  347SOL    HW2 1620   2.923   9.379   6.291  0.3630  1.2891 -1.3310
  348SOL     OW 1621   0.837   1.837   5.014  0.4820 -0.2439  0.1108
  348SOL    HW1 1622   0.833   1.930   4.994  0.4672  0.0755  1.4894
  348SOL    HW2 1623   0.929   1.814   5.002  0.3786 -0.1991 -0.8084
  349SOL     OW 1624   2.809   2.016   1.513 -0.7185  0.1353 -0.1679
  349SOL    HW1 1625   2.730   1.997   1.462 -1.3231  0.5854  0.5771
  349SOL    HW2 1626   2.776   2.043   1.599  0.1553  2.5218 -0.5189
  350SOL     OW 1627   3.837   1.260   9.281  0.1801  0.0147  0.7372
  350SOL    HW1 1628   3.773   1.307   9.335 -0.0212  1.1453 -0.4280
  350SOL    HW2 1629   3.813   1.284   9.191  1.8882 -0.0005  0.2608
  351SOL     OW 1630   0.190   0.973   7.782 -0.0526 -0.3104  0.1809
  351SOL    HW1 1631   0.207   1.058   7.823 -0.3406  0.3688 -1.0583
  351SOL    HW2 1632   0.258   0.916   7.819  0.4262  0.5600  0.7032
  352SOL     OW 1633   2.706   1.729   5.761 -0.3631 -0.2240  0.2934
  352SOL    HW1 1634   2.774   1.784   5.722 -1.9197  1.4876 -0.1114
  352SOL    HW2 1635   2.724   1.642   5.726  0.1395  0.6642 -1.8163
  353SOL     OW 1636   2.326   5.154   7.869 -0.1380 -0.4220  0.1289
  353SOL    HW1 1637   2.421   5.160   7.877 -0.1859  1.3507 -0.2121
  353SOL    HW2 1638   2.301   5.087   7.933  1.3976 -1.5629 -0.4002
  354SOL     OW 1639   6.211   6.209   5.473  0.2367  0.5504  0.9222
  354SOL    HW1 1640   6.118   6.190   5.485  0.7756 -0.7812  4.1855
  354SOL    HW2 1641   6.248   6.128   5.437  0.1441  1.1879 -0.6855
  355SOL     OW 1642   5.524   2.396   4.591 -0.1271 -0.0939 -0.2623
  355SOL    HW1 1643   5.538   2.486   4.560  2.1502 -0.6265 -0.9831
  355SOL    HW2 1644   5.490   2.349   4.515  0.6417 -0.2786 -0.4998
  356SOL     OW 1645   7.329   3.146   2.258 -0.1227 -0.2865 -0.3303
  356SOL    HW1 1646   7.330   3.068   2.313  0.2643  0.0535  0.1608
  356SOL    HW2 1647   7.310   3.114   2.170 -1.1735 -0.7998  0.0666
  357SOL     OW 1648   9.096   5.490   2.474 -0.2381 -0.2578  0.2462
  357SOL    HW1 1649   9.177   5.529   2.506 -0.3911  1.3970 -1.2403
  357SOL    HW2 1650   9.122   5.437   2.399 -0.4206 -0.4912  0.3468
  358SOL     OW 1651   0.875   4.363   3.574  0.2530  0.2020  0.0556
  358SOL    HW1 1652   0.953   4.311   3.556  0.7102  0.7472  0.4554
  358SOL    HW2 1653   0.905   4.434   3.631 -0.4448  0.6743 -0.1492
  359SOL     OW 1654   4.290   7.781   3.293 -0.5221 -0.3307  0.6884
  359SOL    HW1 1655   4.249   7.698   3.270  1.1466 -1.4531  1.6025
  359SOL    HW2 1656   4.363   7.790   3.232 -0.7554  0.5560  0.5159
  360SOL     OW 1657   2.693   2.476   8.703  0.0208 -0.6587  0.0046
  360SOL    HW1 1658   2.727   2.416   8.769 -0.9143 -0.1588  0.9769
  360SOL    HW2 1659   2.756   2.471   8.631  1.5859 -0.5229  1.2971
  361SOL     OW 1660   5.130   1.890   1.445 -0.0339  0.0898  0.0434
  361SOL    HW1 1661   5.141   1.799   1.473 -0.2791 -0.1815 -0.7032
  361SOL    HW2 1662   5.148   1.942   1.523 -1.1269 -0.6460  0.8164
  362SOL     OW 1663   9.458   4.451   2.941  0.1148 -0.0562  0.0801
  362SOL    HW1 1664   9.448   4.477   2.849  0.2800  2.9754  0.7934
  362SOL    HW2 1665   9.388   4.389   2.957  0.5805 -1.2929 -2.2698
  363SOL     OW 1666   1.869   6.501   6.997 -0.5069 -0.3175 -0.1340
  363SOL    HW1 1667   1.874   6.522   7.090 -0.4845  0.4736 -0.3020
  363SOL    HW2 1668   1.914   6.575   6.954 -0.2617 -0.8164 -0.7502
  364SOL     OW 1669   3.634   0.415   7.381  0.2479 -0.0994  0.0291
  364SOL    HW1 1670   3.657   0.350   7.314 -1.3788 -0.6518 -0.0331
  364SOL    HW2 1671   3.692   0.394   7.455 -1.7427 -3.1734  0.9032
  365SOL     OW 1672   9.438   8.952   6.792 -0.1759 -0.7750 -0.2957
  365SOL    HW1 1673   9.377   8.905   6.849 -1.0407  0.9657  0.2730
  365SOL    HW2 1674   9.387   8.970   6.712 -0.4081  0.5649  0.1273
  366SOL     OW 1675   4.875   9.863   7.090 -0.4072  0.2988 -0.7174
  366SOL    HW1 1676   4.898   9.775   7.120 -0.1345  0.2457 -1.0663
  366SOL    HW2 1677   4.955   9.914   7.101 -0.4095  0.3681 -1.0041
  367SOL     OW 1678   9.298   7.707   0.938 -0.5852 -0.4814  0.3010
  367SOL    HW1 1679   9.225   7.767   0.925 -0.4730 -0.0268  1.6610
  367SOL    HW2 1680   9.376   7.756   0.910 -0.6468 -0.4722  0.1469
  368SOL     OW 1681   2.015   4.640   7.876  0.1514 -0.0474  0.7272
  368SOL    HW1 1682   1.927   4.608   7.854  0.2606  0.4070 -0.4355
  368SOL    HW2 1683   2.013   4.653   7.970 -0.6548 -1.1790  0.8922
  369SOL     OW 1684   9.637   0.638   3.983 -0.3000 -0.5741  0.2318
  369SOL    HW1 1685   9.575   0.654   3.911 -0.6266 -0.6900  0.4862
  369SOL    HW2 1686   9.646   0.722   4.026 -0.7545 -0.6988  0.5701
  370SOL     OW 1687   1.607   2.951   2.198  0.4125  0.1654  0.2996
  370SOL    HW1 1688   1.520   2.947   2.157  0.6829  1.0503 -0.3918
  370SOL    HW2 1689   1.591   2.927   2.289 -0.5951  0.4365  0.2120
  371SOL     OW 1690   5.751   2.269   3.797  0.8797  0.8704 -0.8215
  371SOL    HW1 1691   5.765   2.358   3.830  3.2201  0.2894 -0.0514
  371SOL    HW2 1692   5.758   2.213   3.874  0.3286 -0.0519 -1.4207
  372SOL     OW 1693   3.863   6.252   4.390  0.2737 -0.0542  0.0906
  372SOL    HW1 1694   3.787   6.296   4.428 -0.3086 -0.7617 -0.2151
  372SOL    HW2 1695   3.883   6.182   4.451 -0.0968 -0.6294 -0.4347
  373SOL     OW 1696   1.794   8.294   5.625  0.0703 -0.3889  0.6353
  373SOL    HW1 1697   1.855   8.221   5.634 -0.3913 -0.6643  1.6216
  373SOL    HW2 1698   1.836   8.366   5.672  0.1106 -0.2750  0.4261
  374SOL     OW 1699   2.334   6.957   9.411 -0.3257 -0.0066  0.1738
  374SOL    HW1 1700   2.403   6.915   9.361 -1.7062 -0.7886 -1.1658
  374SOL    HW2 1701   2.345   6.924   9.500 -0.7971 -2.5815 -0.6349
  375SOL     OW 1702   2.772   9.948   2.734  0.0489 -0.2872  0.7276
  375SOL    HW1 1703   2.813  10.034   2.746 -0.3854  0.2569 -1.3613
  375SOL    HW2 1704   2.816   9.909   2.659 -3.5911  0.7066 -2.2334
  376SOL     OW 1705   2.891   8.385   8.177  0.4638  0.3511  0.7685
  376SOL    HW1 1706   2.897   8.431   8.261 -0.5527 -0.5003  1.3344
  376SOL    HW2 1707   2.950   8.433   8.119  0.0723  1.8415  1.5632
  377SOL     OW 1708   8.052   6.156   1.832  0.2267  1.3836 -0.2679
  377SOL    HW1 1709   8.032   6.203   1.751 -0.6572  1.0815 -0.2401
  377SOL    HW2 1710   8.089   6.073   1.802 -1.3714  0.6979 -0.4181
  378SOL     OW 1711   8.186   3.113   5.694  0.0168 -0.2906 -0.0642
  378SOL    HW1 1712   8.141   3.179   5.747 -1.4794 -1.7217  0.5486
  378SOL    HW2 1713   8.274   3.109   5.732 -0.1492  0.7013  0.4725
  379SOL     OW 1714   8.597   8.520   6.243  0.1397 -0.0033  0.4216
  379SOL    HW1 1715   8.527   8.538   6.180 -0.6898  0.5743  1.4765
  379SOL    HW2 1716   8.610   8.426   6.238  0.7884  0.1205 -1.2982
  380SOL     OW 1717   7.418   0.892   4.209  0.2621  0.0083  0.3041
  380SOL    HW1 1718   7.411   0.909   4.115  0.5946  2.8418  0.7149
  380SOL    HW2 1719   7.399   0.798   4.217 -0.5612 -0.1734 -2.4802
  381SOL     OW 1720   3.503   3.774   7.868 -0.6198 -0.6145 -0.2480
  381SOL    HW1 1721   3.550   3.695   7.896  0.2326  0.4653  1.5426
  381SOL    HW2 1722   3.568   3.825   7.821 -0.6752 -0.2147  0.1041
  382SOL     OW 1723   1.340   7.840   8.780 -0.0756 -0.1092 -0.2454
  382SOL    HW1 1724   1.354   7.749   8.807 -1.3776 -0.3436 -0.2821
  382SOL    HW2 1725   1.297   7.881   8.855 -1.0557  0.0027 -0.8391
  383SOL     OW 1726   6.955   4.601   6.130 -0.6205 -0.2584  0.1987
  383SOL    HW1 1727   6.975   4.569   6.042  2.6910  1.2979  0.2311
  383SOL    HW2 1728   6.938   4.522   6.181  2.7118 -1.7557 -0.7051
  384SOL     OW 1729   0.080   0.987   5.135  0.3147 -0.3459  0.2407
  384SOL    HW1 1730   0.028   0.979   5.215 -1.3272 -0.7040 -0.8057
  384SOL    HW2 1731   0.153   0.927   5.147  0.6994  0.3974  1.8854
  385SOL     OW 1732   5.373   0.395   7.954 -0.1191 -0.2572  0.2782
  385SOL    HW1 1733   5.340   0.379   8.043 -0.3786 -0.0725  0.2177
  385SOL    HW2 1734   5.303   0.363   7.897  0.2582 -0.8298  0.1323
  386SOL     OW 1735   9.743   2.888   6.500  0.2086  0.4764 -0.7118
  386SOL    HW1 1736   9.720   2.964   6.552 -0.9810  0.4852 -1.2115
  386SOL    HW2 1737   9.665   2.833   6.501  1.0205 -0.7227 -0.4126
  387SOL     OW 1738   6.970   0.445   7.384  0.5198  0.2811  0.2225
  387SOL    HW1 1739   6.946   0.428   7.293 -0.4665  1.4881  0.2308
  387SOL    HW2 1740   6.903   0.400   7.436  0.7891  0.0270  0.3605
  388SOL     OW 1741  -0.023   9.815   7.776 -0.1133  0.0133 -0.2959
  388SOL    HW1 1742   0.068   9.807   7.747 -0.0008 -0.6823  0.2121
  388SOL    HW2 1743  -0.031   9.905   7.807 -0.5333  1.1829 -3.3915
  389SOL     OW 1744   3.571   2.585   1.325  0.0427 -0.6550 -0.4398
  389SOL    HW1 1745   3.522   2.653   1.278  0.1337 -0.1222  0.2328
  389SOL    HW2 1746   3.573   2.511   1.264 -1.0027 -0.4413 -0.7516
  390SOL     OW 1747   6.839   6.485   3.058  0.1120  0.1789 -0.5858
  390SOL    HW1 1748   6.758   6.480   3.109 -0.1713 -1.0801 -1.1192
  390SOL    HW2 1749   6.884   6.563   3.091 -1.2223  0.7846 -0.1452
  391SOL     OW 1750   3.008   7.758   0.296 -0.0351  0.4130 -0.2952
  391SOL    HW1 1751   3.088   7.719   0.260 -0.1270 -2.5839  2.3333
  391SOL    HW2 1752   2.937   7.715   0.250 -0.1524  1.0394 -0.7072
  392SOL     OW 1753   6.145   0.655   2.966 -0.2632  0.4439  0.0018
  392SOL    HW1 1754   6.117   0.746   2.977  0.4251  0.6447  0.0882
  392SOL    HW2 1755   6.068   0.611   2.928 -0.8182  0.9124  0.5772
  393SOL     OW 1756   1.206   1.933   0.263 -0.0423 -0.0740  0.0515
  393SOL    HW1 1757   1.287   1.967   0.301  0.6530  0.8327 -2.0614
  393SOL    HW2 1758   1.191   1.989   0.186 -3.6783  0.9610  1.3356
  394SOL     OW 1759   6.619   6.503   2.404 -0.4766  0.5479 -0.4056
  394SOL    HW1 1760   6.593   6.412   2.420 -1.3463  0.9155  0.3504
  394SOL    HW2 1761   6.540   6.545   2.372 -1.2987  1.9697  3.0599
  395SOL     OW 1762   6.829   4.002   4.627 -0.1447 -0.7590 -0.1671
  395SOL    HW1 1763   6.823   4.098   4.625  0.8016 -0.6885 -0.0073
  395SOL    HW2 1764   6.738   3.972   4.619 -0.3431  0.1332 -1.6254
  396SOL     OW 1765   2.894   4.752   3.675  0.2087 -0.2816  1.0335
  396SOL    HW1 1766   2.959   4.804   3.629 -0.1994 -0.7414 -0.0864
  396SOL    HW2 1767   2.931   4.741   3.763  1.3597 -0.0293  0.6009
  397SOL     OW 1768   9.260   4.178   6.949 -0.2931 -0.0907  0.0475
  397SOL    HW1 1769   9.300   4.198   7.034 -2.7983  3.3665  0.6799
  397SOL    HW2 1770   9.188   4.119   6.970 -0.2381 -0.1154  0.1664
  398SOL     OW 1771   9.636   6.495   6.061 -0.1145 -0.1834  0.5846
  398SOL    HW1 1772   9.614   6.403   6.046 -0.1644  0.0349 -0.7667
  398SOL    HW2 1773   9.556   6.533   6.096 -1.0501 -0.0480 -1.5570
  399SOL     OW 1774   1.826   1.086   7.712 -0.2645  0.1348 -0.4087
  399SOL    HW1 1775   1.912   1.057   7.743  0.1339  0.9953 -0.6597
  399SOL    HW2 1776   1.767   1.014   7.732 -0.3923  1.1165  3.8423
  400SOL     OW 1777   8.147   8.754   9.517  0.3177 -0.2617 -0.0148
  400SOL    HW1 1778   8.107   8.673   9.486  0.3520  0.2514 -1.4632
  400SOL    HW2 1779   8.240   8.745   9.494  0.2627  0.3134 -0.5013
  401SOL     OW 1780   8.182   6.610   9.398  0.1161  0.0639 -0.0194
  401SOL    HW1 1781   8.186   6.645   9.486 -1.0926  0.5958 -0.1640
  401SOL    HW2 1782   8.267   6.630   9.360  0.6780 -0.2557  1.0448
  402SOL     OW 1783   8.759   9.677   1.451  0.4024  0.1801  0.3995
  402SOL    HW1 1784   8.723   9.623   1.381 -0.1929  0.1342  0.7399
  402SOL    HW2 1785   8.685   9.729   1.482  0.7884  0.6048  0.6194
  403SOL     OW 1786   9.651   2.669   7.180 -0.0609  0.9824  0.1640
  403SOL    HW1 1787   9.683   2.712   7.260  0.0497 -1.6871  1.6820
  403SOL    HW2 1788   9.728   2.666   7.123  1.4876 -1.7344  2.1500
  404SOL     OW 1789   1.627   9.083   2.583 -0.6956  0.8638  0.1264
  404SOL    HW1 1790   1.665   9.010   2.631 -2.9076 -0.8018 -0.4846
  404SOL    HW2 1791   1.674   9.083   2.499 -1.0515 -0.2214 -0.0816
  405SOL     OW 1792   1.187   0.818   0.638 -0.1017 -0.5003 -0.3015
  405SOL    HW1 1793   1.244   0.745   0.662 -0.2174 -0.3557  0.4479
  405SOL    HW2 1794   1.118   0.778   0.585  1.1666 -0.5378 -2.0113
  406SOL     OW 1795   1.834   0.562   7.391  0.8986 -1.0024 -0.5222
  406SOL    HW1 1796   1.865   0.496   7.454  1.5278 -0.4643 -0.2632
  406SOL    HW2 1797   1.905   0.626   7.386 -0.1194  0.2024 -0.0033
  407SOL     OW 1798   5.546   1.755   4.927  0.0786  0.0564 -0.0044
  407SOL    HW1 1799   5.543   1.850   4.940  1.7364  0.5418 -2.5089
  407SOL    HW2 1800   5.627   1.740   4.879  0.3228 -2.7835  1.1276
  408SOL     OW 1801   2.356   8.083   3.143  0.1444  0.4279  0.0283
  408SOL    HW1 1802   2.426   8.022   3.117  0.9553  1.9636 -1.5785
  408SOL    HW2 1803   2.401   8.165   3.162 -0.9464  0.6310  2.0415
  409SOL     OW 1804   5.485   7.025   9.113  0.2022  0.5135  0.3217
  409SOL    HW1 1805   5.458   6.937   9.136 -2.5118  1.2824  0.4087
  409SOL    HW2 1806   5.579   7.027   9.131  0.4090 -2.4142  0.0025
  410SOL     OW 1807   3.166   8.489   6.845 -0.2817  0.1115 -0.2001
  410SOL    HW1 1808   3.192   8.546   6.773  1.3447  2.2262  1.9186
  410SOL    HW2 1809   3.219   8.518   6.919  1.0297 -4.5095  0.9787
  411SOL     OW 1810   5.129   5.521   8.107  0.6727  0.0382 -0.5711
  411SOL    HW1 1811   5.131   5.489   8.198 -1.1379 -0.8444 -0.7943
  411SOL    HW2 1812   5.078   5.602   8.111 -0.4139 -0.5940 -0.9116
  412SOL     OW 1813   0.100   4.736   1.409 -0.0504 -0.3899  0.7619
  412SOL    HW1 1814   0.016   4.692   1.413  0.1837 -1.0428 -0.8795
  412SOL    HW2 1815   0.137   4.724   1.497 -0.9955 -1.4503  1.0425
  413SOL     OW 1816   7.039   5.412   4.826  0.3279 -0.0172 -0.5664
  413SOL    HW1 1817   7.094   5.361   4.766  0.0334  1.1498 -1.8869
  413SOL    HW2 1818   6.964   5.438   4.773 -0.7915 -0.3500  0.8088
  414SOL     OW 1819   6.222   0.853   7.500 -0.3720  0.3279 -0.5068
  414SOL    HW1 1820   6.176   0.858   7.583 -2.0297 -1.5008 -1.2340
  414SOL    HW2 1821   6.312   0.879   7.520 -0.7713  0.0985  1.7918
  415SOL     OW 1822   9.222   7.471   6.463  0.3957  0.1570  0.4194
  415SOL    HW1 1823   9.309   7.478   6.502 -0.3386  0.8904  2.0077
  415SOL    HW2 1824   9.167   7.526   6.517 -1.0226 -0.0724 -0.7296
  416SOL     OW 1825   0.312   9.184   1.566 -0.2067  0.3290  0.3340
  416SOL    HW1 1826   0.335   9.125   1.638  1.5609  1.2209  0.5526
  416SOL    HW2 1827   0.302   9.127   1.490 -0.6896 -0.4716  0.9905
  417SOL     OW 1828   1.196   2.967   7.535  0.0113  0.5470  0.1815
  417SOL    HW1 1829   1.126   2.979   7.599 -1.3411 -0.7573 -1.0027
  417SOL    HW2 1830   1.226   3.056   7.515 -2.4367  1.2935 -0.5018
  418SOL     OW 1831   5.977   3.411   9.162  0.1171 -0.2439  0.4830
  418SOL    HW1 1832   5.907   3.464   9.202  1.1619  1.5788  0.0187
  418SOL    HW2 1833   5.957   3.322   9.189 -2.2153  0.2490  0.6148
  419SOL     OW 1834   8.213   9.238   0.455  0.1339 -0.2253  0.2147
  419SOL    HW1 1835   8.162   9.157   0.449  2.0397 -1.4694 -0.1129
  419SOL    HW2 1836   8.150   9.308   0.439 -1.7698 -1.5674  1.5554
  420SOL     OW 1837   0.926   9.616   5.403  0.6808 -0.1415  0.0935
  420SOL    HW1 1838   0.892   9.531   5.434  0.7175 -0.2879 -0.2655
  420SOL    HW2 1839   0.847   9.669   5.389  0.6644 -0.0691  0.4510
  421SOL     OW 1840   0.130   0.239   1.195 -0.5827 -0.5103  0.4163
  421SOL    HW1 1841   0.049   0.250   1.145 -0.3416 -0.0173  0.1204
  421SOL    HW2 1842   0.178   0.171   1.148  0.0974  0.6664 -0.6401
  422SOL     OW 1843   1.805   2.680   6.313 -0.0693  0.5675  0.4633
  422SOL    HW1 1844   1.776   2.599   6.271 -1.5201  0.8858  0.7780
  422SOL    HW2 1845   1.728   2.737   6.310  0.5496  1.4851  1.3459
  423SOL     OW 1846   4.929   8.020   2.302  0.1167 -0.3047 -0.1462
  423SOL    HW1 1847   4.986   7.955   2.261  0.5624  0.0999 -0.1838
  423SOL    HW2 1848   4.883   8.062   2.230 -1.0823 -1.3909 -0.0462
  424SOL     OW 1849   0.756   3.974   7.045 -0.3383 -0.5557 -0.0526
  424SOL    HW1 1850   0.840   3.935   7.069  0.0583  0.2621 -0.0818
  424SOL    HW2 1851   0.698   3.899   7.031 -0.2114 -1.1192  2.0275
  425SOL     OW 1852   4.882   1.470   7.847  0.7017 -0.3976 -0.8568
  425SOL    HW1 1853   4.963   1.517   7.865  0.9237 -0.5257 -1.5241
  425SOL    HW2 1854   4.898   1.422   7.766  0.0877 -0.7216 -0.7981
  426SOL     OW 1855   8.452   4.301   2.951  0.2120 -0.2397  0.0370
  426SOL    HW1 1856   8.405   4.384   2.939  2.8978  1.3755 -0.0717
  426SOL    HW2 1857   8.490   4.283   2.865 -0.6258 -1.8435 -0.0371
  427SOL     OW 1858   9.772   6.752   6.948 -0.1258  0.3501  0.3341
  427SOL    HW1 1859   9.764   6.657   6.940 -1.6114  0.2579  2.0215
  427SOL    HW2 1860   9.835   6.777   6.881  0.0940 -1.7850 -0.3412
  428SOL     OW 1861   3.811   0.732   6.185 -0.5826 -0.5337  0.5217
  428SOL    HW1 1862   3.811   0.787   6.263  3.2704  1.3540 -0.5829
  428SOL    HW2 1863   3.801   0.643   6.219 -0.1269  0.2955  3.0636
  429SOL     OW 1864   0.552   9.150   9.109 -0.2600  0.1655  0.2405
  429SOL    HW1 1865   0.625   9.101   9.073 -0.9505  0.0114 -1.0353
  429SOL    HW2 1866   0.590   9.202   9.180  0.6081 -1.6945  1.2167
  430SOL     OW 1867   1.067   4.480   6.912  0.5197  0.1614 -0.0602
  430SOL    HW1 1868   1.014   4.417   6.863 -0.0932  0.8368 -0.2935
  430SOL    HW2 1869   1.004   4.523   6.971  1.0330  0.1706  0.4921
  431SOL     OW 1870   1.485   9.397   4.945  0.5062  0.7100 -0.3371
  431SOL    HW1 1871   1.396   9.397   4.911  0.0371  1.2385  0.8379
  431SOL    HW2 1872   1.526   9.475   4.908  0.9169 -0.1833 -1.8818
  432SOL     OW 1873   7.710   0.213   9.309 -0.5658 -0.0464  0.6530
  432SOL    HW1 1874   7.723   0.148   9.240 -0.6918 -0.4069  0.9718
  432SOL    HW2 1875   7.721   0.165   9.391  2.0915  0.8394  0.9204
  433SOL     OW 1876   8.810   1.451   3.894  0.0433  0.3865 -0.2805
  433SOL    HW1 1877   8.782   1.536   3.861  0.5225 -0.0415 -1.8475
  433SOL    HW2 1878   8.736   1.420   3.946  0.3276  2.2671  1.3734
  434SOL     OW 1879   4.160   7.209   0.964 -0.2526 -0.0633 -0.0023
  434SOL    HW1 1880   4.219   7.135   0.980 -1.0365 -0.4440  1.3225
  434SOL    HW2 1881   4.094   7.175   0.905  0.0637 -0.0608 -0.3572
  435SOL     OW 1882   9.699   7.745   1.804  0.3613  0.1606 -0.1914
  435SOL    HW1 1883   9.627   7.693   1.839  0.7648 -0.4191 -0.2128
  435SOL    HW2 1884   9.689   7.739   1.709  1.4414 -1.3920 -0.2481
  436SOL     OW 1885   3.291   6.449   6.730  0.0370 -0.0386 -0.3379
  436SOL    HW1 1886   3.235   6.372   6.718  0.2156 -0.4094  1.0273
  436SOL    HW2 1887   3.379   6.418   6.710  0.1577 -0.2993  0.5667
  437SOL     OW 1888   0.148   9.597   3.817 -0.5277 -0.0083 -0.1286
  437SOL    HW1 1889   0.204   9.626   3.746 -0.9293 -1.5930 -1.1567
  437SOL    HW2 1890   0.060   9.625   3.791 -0.6437 -0.3944 -0.1635
  438SOL     OW 1891   8.749   3.662   5.705 -0.3195 -0.2519 -0.0256
  438SOL    HW1 1892   8.659   3.641   5.679 -0.5803 -1.6110  1.8261
  438SOL    HW2 1893   8.773   3.735   5.648 -3.6576  2.2113  1.3793
  439SOL     OW 1894   7.493   8.288   1.753 -0.1360 -0.7581  0.1658
  439SOL    HW1 1895   7.449   8.372   1.759  1.3915  0.1501 -0.6746
  439SOL    HW2 1896   7.534   8.288   1.667  1.9841 -1.2488  1.0963
  440SOL     OW 1897   1.258   9.252   2.941 -0.7145 -0.3302  0.0789
  440SOL    HW1 1898   1.212   9.169   2.956 -3.3097  0.3901 -2.7355
  440SOL    HW2 1899   1.332   9.229   2.886 -2.1712 -0.7254 -1.8084
  441SOL     OW 1900   7.142   9.430   2.404 -0.5700 -0.9986 -0.3113
  441SOL    HW1 1901   7.055   9.395   2.421 -1.0534  0.4730  0.3552
  441SOL    HW2 1902   7.132   9.525   2.410  0.7784 -0.7239 -1.6702
  442SOL     OW 1903   5.543   2.039   3.280  0.5880 -0.2488 -0.4721
  442SOL    HW1 1904   5.511   2.008   3.195  0.9944 -1.1136 -0.3187
  442SOL    HW2 1905   5.467   2.033   3.337  0.4981 -0.3623 -0.6011
  443SOL     OW 1906   7.331   2.859   0.749 -0.4085  0.5128 -0.4833
  443SOL    HW1 1907   7.320   2.912   0.670 -0.8776  0.9346 -0.1495
  443SOL    HW2 1908   7.424   2.867   0.770 -0.3163  0.5476 -0.8905
  444SOL     OW 1909   5.757   7.417   8.834 -0.5943  0.1474  0.3769
  444SOL    HW1 1910   5.697   7.350   8.866 -0.9093 -1.4497 -3.0783
  444SOL    HW2 1911   5.843   7.376   8.835 -0.6448 -0.0304 -0.8713
  445SOL     OW 1912   7.819   9.311   1.039 -0.1438  0.1858 -0.3618
  445SOL    HW1 1913   7.879   9.238   1.027  0.1993  0.5452 -0.8521
  445SOL    HW2 1914   7.855   9.360   1.113  0.7964  1.0252 -1.3606
  446SOL     OW 1915   1.949   2.750   3.143 -0.2354  0.2491  0.7109
  446SOL    HW1 1916   1.959   2.657   3.163 -1.1101  0.0984  0.4749
  446SOL    HW2 1917   2.037   2.778   3.118  0.0333 -0.5158  0.7642
  447SOL     OW 1918   0.872   5.867   1.022 -0.2178  0.2282 -0.3389
  447SOL    HW1 1919   0.790   5.917   1.030  0.3387  1.2491 -0.8104
  447SOL    HW2 1920   0.937   5.920   1.069  0.1145 -0.7263  0.2971
  448SOL     OW 1921   8.672   3.395   2.675  0.0925  0.2648 -0.3305
  448SOL    HW1 1922   8.651   3.467   2.735  1.7217  0.4664  0.0260
  448SOL    HW2 1923   8.604   3.401   2.607 -1.4429  0.3780  1.1518
  449SOL     OW 1924   9.700   1.039   0.277  0.5348  0.7515 -0.3927
  449SOL    HW1 1925   9.772   1.005   0.329 -0.0738 -0.6979 -0.4585
  449SOL    HW2 1926   9.623   0.990   0.306  0.2660 -0.5721 -2.9977
  450SOL     OW 1927   9.626   8.140   5.007  0.1592  1.0067  0.8033
  450SOL    HW1 1928   9.620   8.226   5.048 -1.7573 -0.0901  3.0247
  450SOL    HW2 1929   9.624   8.078   5.080  0.5434 -0.9752 -0.7729
  451SOL     OW 1930   2.755   1.509   9.351 -0.5084  0.2675  0.0492
  451SOL    HW1 1931   2.708   1.576   9.301 -0.6742  0.0119 -0.1411
  451SOL    HW2 1932   2.693   1.484   9.420  0.0025  1.1623  0.8619
  452SOL     OW 1933   8.182   8.996   0.263  0.2875 -0.2098 -0.6873
  452SOL    HW1 1934   8.263   8.960   0.300  0.4219 -0.4287 -1.1828
  452SOL    HW2 1935   8.208   9.079   0.224  0.7621 -1.2706 -2.7922
  453SOL     OW 1936   8.763   8.173   3.372  0.3537 -0.7160 -0.3276
  453SOL    HW1 1937   8.772   8.107   3.440  0.5448 -0.7548 -0.3895
  453SOL    HW2 1938   8.685   8.146   3.323  0.0563 -0.5349  0.0396
  454SOL     OW 1939   3.784   3.400   8.303 -0.1032 -0.2014 -1.0194
  454SOL    HW1 1940   3.801   3.412   8.397 -0.3834 -1.3355 -0.7979
  454SOL    HW2 1941   3.856   3.444   8.259 -0.0192  0.4255 -0.2725
  455SOL     OW 1942   6.691   2.536   8.034 -0.2631  0.2879 -0.3646
  455SOL    HW1 1943   6.723   2.619   7.998 -0.8160  1.1829  1.1075
  455SOL    HW2 1944   6.703   2.544   8.128  0.4418 -1.6668 -0.2376
  456SOL     OW 1945   3.110   0.380   8.953 -0.1632  0.0079 -0.4236
  456SOL    HW1 1946   3.134   0.320   9.023 -1.1302 -0.9771 -0.9138
  456SOL    HW2 1947   3.114   0.328   8.873 -4.7545 -0.6546 -0.4963
  457SOL     OW 1948   8.090   3.757   2.965  0.4943 -0.4899  0.1985
  457SOL    HW1 1949   8.121   3.762   2.875 -0.7077  0.4009 -0.1916
  457SOL    HW2 1950   8.116   3.841   3.004 -0.2483 -0.2776  0.2489
  458SOL     OW 1951   0.137   7.736   4.291  0.0544 -0.3049 -0.2205
  458SOL    HW1 1952   0.054   7.746   4.338  0.5092  1.5465  0.2965
  458SOL    HW2 1953   0.142   7.814   4.236  2.0606  0.3801  0.8129
  459SOL     OW 1954   6.480   5.895   8.715  0.0233 -0.5875  0.3839
  459SOL    HW1 1955   6.416   5.881   8.645 -1.4303  1.0796  1.2910
  459SOL    HW2 1956   6.564   5.870   8.677 -0.3769  2.0288 -2.6890
  460SOL     OW 1957   2.882   7.962   8.985 -0.1897 -0.4843 -0.3202
  460SOL    HW1 1958   2.889   7.913   8.903 -0.3871 -1.3284  0.1617
  460SOL    HW2 1959   2.968   7.955   9.025  0.1629  0.6291 -0.8244
  461SOL     OW 1960   0.564   4.620   3.221 -0.2466 -0.1038  0.4724
  461SOL    HW1 1961   0.563   4.579   3.135 -4.6336 -2.6206  1.3880
  461SOL    HW2 1962   0.623   4.566   3.273 -0.1216 -0.5963 -0.1707
  462SOL     OW 1963   8.785   5.511   4.765 -0.0296 -0.9377 -0.1603
  462SOL    HW1 1964   8.865   5.563   4.758 -0.9416  0.9844  2.1717
  462SOL    HW2 1965   8.750   5.508   4.677  1.5412 -0.0418 -0.8583
  463SOL     OW 1966   7.640   4.322   0.229  0.0212 -0.0024  0.1111
  463SOL    HW1 1967   7.716   4.291   0.278  0.8437 -2.9214 -2.7175
  463SOL    HW2 1968   7.585   4.244   0.219  0.3644  0.0806 -4.2278
  464SOL     OW 1969   5.666   6.783   8.702  0.3521 -0.1145 -0.1280
  464SOL    HW1 1970   5.672   6.878   8.703 -0.7689 -0.0384  0.1313
  464SOL    HW2 1971   5.638   6.761   8.613 -1.2565 -0.0537  0.3279
  465SOL     OW 1972   9.854   9.239   7.279  0.2889 -0.3551 -0.1221
  465SOL    HW1 1973   9.857   9.285   7.195  0.7058 -2.1516 -1.1349
  465SOL    HW2 1974   9.847   9.309   7.344 -1.9047  1.0571 -1.7151
  466SOL     OW 1975   2.595   6.368   3.938 -0.5399 -0.4237 -0.0515
  466SOL    HW1 1976   2.645   6.303   3.987 -0.5584 -1.2898 -1.1607
  466SOL    HW2 1977   2.575   6.326   3.855 -2.0630  0.3596 -0.1169
  467SOL     OW 1978   1.681   8.946   3.524 -0.3745 -0.3786 -0.2692
  467SOL    HW1 1979   1.736   8.883   3.570  0.2237 -1.0168 -1.7842
  467SOL    HW2 1980   1.744   9.009   3.487 -0.9675  1.3915  1.5252
  468SOL     OW 1981   5.351   9.858   6.740 -0.2742  0.1119 -0.2420
  468SOL    HW1 1982   5.287   9.925   6.714 -1.3298 -0.4727  0.7403
  468SOL    HW2 1983   5.363   9.872   6.834  1.5424  0.5942 -0.5028
  469SOL     OW 1984   3.832   1.226   7.962 -0.1157  0.4782 -0.3915
  469SOL    HW1 1985   3.913   1.175   7.970 -0.3942  0.1080  0.1564
  469SOL    HW2 1986   3.837   1.265   7.875 -0.4534 -1.4920 -1.3633
  470SOL     OW 1987   0.946   6.717   9.921  0.5962 -0.0269 -0.3664
  470SOL    HW1 1988   0.978   6.789   9.867  1.3636 -0.3129 -0.3068
  470SOL    HW2 1989   0.899   6.759   9.993  1.6438  0.4542  0.0570
  471SOL     OW 1990   1.979   6.037   5.499 -0.8519  0.3894  0.1616
  471SOL    HW1 1991   1.935   6.062   5.580 -0.2760  0.0238  0.5997
  471SOL    HW2 1992   2.038   5.967   5.526 -1.3138 -0.3632 -0.7446
  472SOL     OW 1993   6.626   5.643   4.909 -0.5829 -0.2251 -0.0576
  472SOL    HW1 1994   6.533   5.621   4.924 -0.2324 -0.4969  2.0494
  472SOL    HW2 1995   6.662   5.566   4.864 -1.1318 -0.5857  0.1099
  473SOL     OW 1996   7.552   3.658   6.998  0.2349 -0.0645  0.1958
  473SOL    HW1 1997   7.538   3.599   6.923  0.4806  1.8565 -1.4391
  473SOL    HW2 1998   7.477   3.642   7.055  0.5452 -2.2886  0.0694
  474SOL     OW 1999   3.842   4.281   4.486 -0.0901 -0.1152  0.1766
  474SOL    HW1 2000   3.860   4.354   4.427  0.2140 -0.4814 -0.1875
  474SOL    HW2 2001   3.925   4.266   4.532 -0.1231 -0.2929  0.1805
  475SOL     OW 2002   3.176   1.380   4.079  0.2925 -0.3953 -0.2672
  475SOL    HW1 2003   3.241   1.438   4.041  0.4870 -1.0629 -0.9608
  475SOL    HW2 2004   3.114   1.363   4.008  0.9139 -2.0225 -0.4640
  476SOL     OW 2005   0.779   1.371   9.771 -0.3199  0.0568 -0.2607
  476SOL    HW1 2006   0.823   1.294   9.807  0.7401  1.1945  0.9750
  476SOL    HW2 2007   0.813   1.380   9.682 -1.5179 -1.6795 -0.9436
  477SOL     OW 2008   7.950   1.965   9.140  0.4460 -0.3118 -0.0808
  477SOL    HW1 2009   8.034   1.964   9.094  0.3907 -0.8326 -0.1797
  477SOL    HW2 2010   7.966   2.015   9.220  0.7337 -0.0274 -0.3165
  478SOL     OW 2011   5.134   8.377   4.278 -0.5037  0.2868 -0.6072
  478SOL    HW1 2012   5.172   8.357   4.364  0.1263  0.0490 -0.9372
  478SOL    HW2 2013   5.072   8.306   4.262  0.0811 -0.2007 -0.7684
  479SOL     OW 2014   1.642   8.033   5.808  0.5278  0.2176 -0.2646
  479SOL    HW1 2015   1.650   8.013   5.714 -1.8210  0.0575 -0.4974
  479SOL    HW2 2016   1.588   8.112   5.810 -1.5222 -1.1489  0.9781
  480SOL     OW 2017   6.716   5.060   9.884 -1.0602  0.2186  0.1412
  480SOL    HW1 2018   6.764   4.993   9.835 -0.4481  0.4485  0.4124
  480SOL    HW2 2019   6.768   5.140   9.873 -0.0577 -0.0503  2.4001
  481SOL     OW 2020   7.474   0.894   5.566  0.2387 -0.2468  0.3360
  481SOL    HW1 2021   7.419   0.971   5.550 -1.1256 -1.6186 -2.1186
  481SOL    HW2 2022   7.414   0.829   5.602  1.4032 -0.1984  2.4939
  482SOL     OW 2023   8.397   7.828   3.089 -0.3399 -0.0246 -0.2747
  482SOL    HW1 2024   8.480   7.799   3.052 -0.8490 -1.2893 -0.4848
  482SOL    HW2 2025   8.335   7.759   3.066 -1.1287  0.1775  1.1379
  483SOL     OW 2026   0.738   0.038   0.325 -0.1552  0.4177 -0.0127
  483SOL    HW1 2027   0.705  -0.005   0.403 -2.2836  0.2431 -0.9229
  483SOL    HW2 2028   0.661   0.047   0.268  0.6698  3.2052 -0.8765
  484SOL     OW 2029   5.794   0.550   1.189  0.1632  0.0142 -0.2597
  484SOL    HW1 2030   5.770   0.483   1.252 -3.4060  1.5229  0.2398
  484SOL    HW2 2031   5.762   0.517   1.105  0.2241  0.2243 -0.3669
  485SOL     OW 2032   3.442   3.263   9.293  0.2796  0.6015  0.0304
  485SOL    HW1 2033   3.446   3.264   9.197  0.5693  0.2529  0.0358
  485SOL    HW2 2034   3.531   3.286   9.321  0.3919 -0.0302  0.2084
  486SOL     OW 2035   9.200   6.834   9.676  0.0432  0.5823 -0.0943
  486SOL    HW1 2036   9.213   6.789   9.593  0.4617  0.7015 -0.0939
  486SOL    HW2 2037   9.236   6.775   9.742 -0.7863  0.2412  0.0616
  487SOL     OW 2038   8.807   0.275   5.097 -0.6380 -0.0031  0.3091
  487SOL    HW1 2039   8.748   0.208   5.063 -1.3663  0.5656  0.4429
  487SOL    HW2 2040   8.804   0.264   5.192  2.0655 -2.1737  0.2744
  488SOL     OW 2041   1.120   1.354   4.517  0.4418 -0.4018 -0.0558
  488SOL    HW1 2042   1.086   1.289   4.578  0.8145 -1.0648 -0.5508
  488SOL    HW2 2043   1.214   1.359   4.536  0.7154 -1.2003 -1.0944
  489SOL     OW 2044   8.108   2.482   8.256  0.4845  0.6246 -0.3289
  489SOL    HW1 2045   8.079   2.422   8.324 -1.8939  0.9441 -0.9918
  489SOL    HW2 2046   8.185   2.526   8.294  0.2019 -0.3682  1.4785
  490SOL     OW 2047   9.083   8.548   5.997  0.1056 -0.0762  0.0030
  490SOL    HW1 2048   9.070   8.637   6.031 -0.0536  0.6436 -1.8006
  490SOL    HW2 2049   9.095   8.561   5.903  0.1251 -1.9830 -0.2834
  491SOL     OW 2050   7.461   0.411   0.630 -0.8748  0.2096  0.2677
  491SOL    HW1 2051   7.381   0.360   0.620 -1.5232  1.6253 -3.2825
  491SOL    HW2 2052   7.531   0.346   0.629 -1.7835 -0.8391 -1.8811
  492SOL     OW 2053   3.006   1.852   4.990  0.1547  0.3529  0.2424
  492SOL    HW1 2054   3.007   1.947   5.006 -0.6056  0.3674  0.2283
  492SOL    HW2 2055   3.015   1.844   4.896 -0.2528  0.4325  0.1937
  493SOL     OW 2056   0.257   3.963   2.207 -0.4772 -0.1389  0.0660
  493SOL    HW1 2057   0.301   4.048   2.213  0.4975 -0.6792  0.7983
  493SOL    HW2 2058   0.328   3.899   2.208 -1.2645 -1.0357  1.2304
  494SOL     OW 2059   3.797   4.024   2.104  0.0212 -0.0208 -0.0856
  494SOL    HW1 2060   3.855   4.064   2.168  0.7823  0.3971 -1.0156
  494SOL    HW2 2061   3.838   3.940   2.082 -0.3814 -0.2895  0.1677
  495SOL     OW 2062   1.382   5.510   9.248  0.3779 -0.4406  0.7353
  495SOL    HW1 2063   1.324   5.542   9.318 -0.1149  0.5078 -0.0689
  495SOL    HW2 2064   1.429   5.437   9.286 -0.6010 -0.5572  1.7520
  496SOL     OW 2065   7.018   6.805   0.548  0.2217 -0.1215 -0.7029
  496SOL    HW1 2066   6.954   6.860   0.503  0.0456  1.2152  1.0763
  496SOL    HW2 2067   6.992   6.715   0.528 -2.4828  0.3610  0.2817
  497SOL     OW 2068   7.489   4.934   2.568  0.2678 -0.1092  0.1588
  497SOL    HW1 2069   7.449   4.847   2.558 -1.4392  0.5776  0.6690
  497SOL    HW2 2070   7.488   4.972   2.480  1.9170 -0.9412 -0.2565
  498SOL     OW 2071   2.487   1.703   0.920  0.0307  0.0814 -0.9056
  498SOL    HW1 2072   2.435   1.703   1.000 -2.6850 -0.4492 -2.5455
  498SOL    HW2 2073   2.534   1.620   0.921 -0.8405 -0.4212 -0.3632
  499SOL     OW 2074   0.915   7.102   1.292  0.6085  0.3474 -0.3297
  499SOL    HW1 2075   0.934   7.108   1.385  1.8215  1.7438 -0.6382
  499SOL    HW2 2076   0.822   7.079   1.288  1.1526 -2.7480  1.2193
  500SOL     OW 2077   0.069   6.726   2.202 -0.4797  0.4168 -0.7799
  500SOL    HW1 2078   0.065   6.700   2.294 -2.1323 -0.0523 -0.9561
  500SOL    HW2 2079   0.006   6.798   2.195 -0.0682  0.7211 -1.4742
  501SOL     OW 2080   2.209   8.038   3.647 -0.5845 -0.1910 -0.1745
  501SOL    HW1 2081   2.147   8.069   3.582  0.3535  0.5028 -0.7676
  501SOL    HW2 2082   2.273   7.987   3.597  0.0079  0.1403  0.2234
  502SOL     OW 2083   5.838   5.259   7.240  0.5245  0.0295  0.5074
  502SOL    HW1 2084   5.840   5.344   7.283  0.0377  0.0581  0.4723
  502SOL    HW2 2085   5.745   5.238   7.231  0.6320 -0.2057 -0.0769
  503SOL     OW 2086   8.199   9.742   7.825 -0.6597  0.3490 -0.5798
  503SOL    HW1 2087   8.230   9.810   7.765 -0.9638 -0.0011 -1.1414
  503SOL    HW2 2088   8.277   9.690   7.845 -0.5946  0.3438 -0.8430
  504SOL     OW 2089   3.575   6.012   7.096 -0.0863  0.1360 -0.2639
  504SOL    HW1 2090   3.528   6.088   7.129  0.3244  0.8351 -1.2427
  504SOL    HW2 2091   3.516   5.975   7.030  0.0597  0.0637 -0.3520
  505SOL     OW 2092   7.030   8.593   1.367 -0.0985 -0.0678 -0.1296
  505SOL    HW1 2093   7.054   8.583   1.275 -1.6450 -0.6909 -0.4832
  505SOL    HW2 2094   6.936   8.609   1.367  0.0617  1.1590  1.2870
  506SOL     OW 2095   8.586   9.964   2.044 -0.1325  0.0997  0.3715
  506SOL    HW1 2096   8.638  10.043   2.037  0.2951 -0.2242 -0.1970
  506SOL    HW2 2097   8.650   9.894   2.056 -0.3920 -0.3523 -0.7288
  507SOL     OW 2098   6.564   2.424   5.582  0.8244 -0.5066  0.1912
  507SOL    HW1 2099   6.486   2.472   5.608  0.7784 -1.1443  1.2827
  507SOL    HW2 2100   6.557   2.417   5.487 -1.0517 -1.5549  0.3679
  508SOL     OW 2101   3.497   6.322   1.370 -0.4515  0.4502 -0.6048
  508SOL    HW1 2102   3.423   6.382   1.358  0.3331  1.4387 -0.6440
  508SOL    HW2 2103   3.479   6.250   1.309 -2.3656 -0.3497  0.7677
  509SOL     OW 2104   0.318   4.810   3.188 -0.1930  0.5611 -0.0448
  509SOL    HW1 2105   0.355   4.877   3.245  1.7510 -0.0431 -0.5201
  509SOL    HW2 2106   0.372   4.733   3.204 -2.0558 -0.7796  0.1140
  510SOL     OW 2107   8.071   2.372   0.709  0.6004  0.2208 -0.2146
  510SOL    HW1 2108   8.027   2.317   0.774  0.9369  0.2886  0.0688
  510SOL    HW2 2109   8.005   2.385   0.641  0.8280 -1.3586 -0.7880
  511SOL     OW 2110   4.364   9.385   5.721  0.4760  0.4465 -0.0733
  511SOL    HW1 2111   4.406   9.471   5.714 -0.4951  0.9572  0.2483
  511SOL    HW2 2112   4.309   9.379   5.642 -0.6014  0.7688  0.6262
  512SOL     OW 2113   7.223   8.578   6.189 -0.0425  0.1589 -0.3544
  512SOL    HW1 2114   7.234   8.666   6.154  0.2067  0.9928  1.6870
  512SOL    HW2 2115   7.298   8.566   6.247 -1.4092 -0.3726  1.3671
  513SOL     OW 2116   3.574   6.589   7.671 -0.3727  0.0732 -0.1082
  513SOL    HW1 2117   3.543   6.499   7.662 -0.8980  0.2245  0.2094
  513SOL    HW2 2118   3.553   6.630   7.587  1.1458 -0.4769 -0.7980
  514SOL     OW 2119   2.672   7.773   3.616  0.0059  0.4250 -0.3893
  514SOL    HW1 2120   2.752   7.798   3.663 -0.6332  1.2360  0.2970
  514SOL    HW2 2121   2.685   7.681   3.593  0.5453  0.1487  0.9618
  515SOL     OW 2122   6.411   9.144   5.839  0.5652 -0.1251  0.4205
  515SOL    HW1 2123   6.336   9.088   5.861 -0.7044  0.6154 -1.6832
  515SOL    HW2 2124   6.425   9.198   5.916 -0.6532 -0.7347  1.0974
  516SOL     OW 2125   1.177   9.206   2.083  0.6663 -0.6499  0.2683
  516SOL    HW1 2126   1.259   9.238   2.120 -0.2099  1.4146  0.5572
  516SOL    HW2 2127   1.192   9.203   1.989  0.7573  0.7795  0.2224
  517SOL     OW 2128   9.771   7.442   6.909  0.3703 -0.0105 -0.1119
  517SOL    HW1 2129   9.753   7.515   6.849  0.9527 -1.4351 -2.1350
  517SOL    HW2 2130   9.686   7.400   6.922 -0.3928  2.1138  2.7481
  518SOL     OW 2131   9.239   5.563   1.857  0.4692 -0.1724  0.3217
  518SOL    HW1 2132   9.179   5.573   1.931 -0.8388 -1.0093 -0.5794
  518SOL    HW2 2133   9.230   5.644   1.807  2.2451  0.9084  1.6511
  519SOL     OW 2134   2.705   8.724   3.019  0.3314 -0.1001 -0.9764
  519SOL    HW1 2135   2.614   8.756   3.017 -0.2083 -1.5436 -0.8207
  519SOL    HW2 2136   2.724   8.715   3.113  0.3804 -0.4697 -1.0209
  520SOL     OW 2137   6.019   0.302   1.301  0.6230  0.6616 -1.0013
  520SOL    HW1 2138   6.062   0.246   1.366 -0.3086  0.5421 -0.4766
  520SOL    HW2 2139   6.080   0.376   1.289  0.0979  1.5394  1.2445
  521SOL     OW 2140   4.089   3.952   6.993  0.2739  0.5730  0.3022
  521SOL    HW1 2141   4.173   3.907   7.000 -0.0759 -0.4749 -1.7161
  521SOL    HW2 2142   4.037   3.898   6.935 -1.4615  1.7432  0.6865
  522SOL     OW 2143   0.212   7.507   6.901  0.3047  0.1558  0.2974
  522SOL    HW1 2144   0.179   7.457   6.976 -0.4271  0.5997  0.2861
  522SOL    HW2 2145   0.161   7.475   6.827 -1.3593  1.9753  0.5365
  523SOL     OW 2146   2.929   7.912   1.189  0.0126 -0.0401 -0.0130
  523SOL    HW1 2147   2.883   7.988   1.153  0.4907 -0.5174 -1.7471
  523SOL    HW2 2148   2.958   7.863   1.111  0.9793 -1.2243  1.0541
  524SOL     OW 2149   6.086   9.906   1.567  0.1139 -0.0510 -1.1502
  524SOL    HW1 2150   5.992   9.909   1.585  0.5927  1.0804  1.5762
  524SOL    HW2 2151   6.105   9.812   1.559 -0.9077 -0.4333  0.4865
  525SOL     OW 2152   8.040   7.970   3.093 -0.1148 -0.0558 -0.4328
  525SOL    HW1 2153   8.062   7.907   3.161  1.7837 -0.8901 -1.7074
  525SOL    HW2 2154   8.014   7.916   3.018 -1.1614  0.7961 -0.7088
  526SOL     OW 2155   9.510   1.835   2.329  0.8384 -0.0288  0.2543
  526SOL    HW1 2156   9.544   1.747   2.346  2.0661  0.3821  0.0248
  526SOL    HW2 2157   9.577   1.893   2.363  0.0482  0.8295  0.3730
  527SOL     OW 2158   4.099   7.907   1.583 -0.2215 -0.3821 -0.3536
  527SOL    HW1 2159   4.007   7.886   1.567  0.0889 -2.4171  0.2551
  527SOL    HW2 2160   4.145   7.875   1.506  0.1835 -1.2872  0.2476
  528SOL     OW 2161   0.945   1.558   1.693 -0.0539 -0.0821 -0.1629
  528SOL    HW1 2162   0.981   1.555   1.605 -1.4094 -0.6469 -0.7291
  528SOL    HW2 2163   0.877   1.625   1.689 -0.5952 -0.5925  0.2507
  529SOL     OW 2164   0.932   6.078   6.017  0.3705 -0.2866  0.2356
  529SOL    HW1 2165   1.001   6.106   6.077 -0.2318 -0.4190  1.0110
  529SOL    HW2 2166   0.880   6.157   6.001  0.9725 -0.0724 -0.7382
  530SOL     OW 2167   7.833   5.839   2.411 -0.1379 -0.3538  0.4546
  530SOL    HW1 2168   7.803   5.761   2.458 -0.4854 -0.3236  0.2869
  530SOL    HW2 2169   7.873   5.894   2.479  1.1056 -1.1544  0.3977
  531SOL     OW 2170   5.297   5.480   1.463  0.0335  0.3334 -0.0529
  531SOL    HW1 2171   5.354   5.532   1.520 -0.2782 -0.2910  0.8586
  531SOL    HW2 2172   5.254   5.417   1.522  0.9835 -1.5049 -1.2039
  532SOL     OW 2173   4.606   9.457   3.079 -0.3084  0.3924  0.9029
  532SOL    HW1 2174   4.684   9.414   3.043 -0.6203 -0.9057  1.6944
  532SOL    HW2 2175   4.545   9.461   3.005  0.5976  1.7428  0.1826
  533SOL     OW 2176   8.274   4.483   0.310  0.1514  0.5741 -0.0731
  533SOL    HW1 2177   8.255   4.552   0.247 -0.2447  0.7789  0.2674
  533SOL    HW2 2178   8.368   4.467   0.301  0.0039  0.2109 -1.1110
  534SOL     OW 2179   7.625   5.664   0.342  0.3652 -0.1198 -0.1106
  534SOL    HW1 2180   7.641   5.697   0.430  0.7485 -0.3047 -0.1065
  534SOL    HW2 2181   7.709   5.674   0.297 -0.2462  1.5059 -0.9694
  535SOL     OW 2182   4.029   5.314   5.774  0.7676  0.2903 -0.0820
  535SOL    HW1 2183   3.959   5.324   5.839  0.0504  0.1043 -0.8067
  535SOL    HW2 2184   3.998   5.362   5.697  0.2516 -1.8764 -1.3165
  536SOL     OW 2185   5.727   2.818   9.964 -0.2442 -0.4239  0.2380
  536SOL    HW1 2186   5.734   2.723   9.972 -0.6150 -0.4628  0.1347
  536SOL    HW2 2187   5.781   2.841   9.889 -0.8518 -0.6563 -0.2745
  537SOL     OW 2188   2.091   0.667   1.624 -0.2926  0.0997 -0.3328
  537SOL    HW1 2189   2.072   0.757   1.648 -0.6228 -0.6946  2.8593
  537SOL    HW2 2190   2.007   0.621   1.634  0.7600 -1.4069  3.1562
  538SOL     OW 2191   6.564   6.144   7.168 -0.1239 -0.5092 -0.3783
  538SOL    HW1 2192   6.507   6.130   7.093  0.6321  0.1952 -1.1077
  538SOL    HW2 2193   6.610   6.060   7.179 -1.0978 -0.9981  0.0652
  539SOL     OW 2194   0.407   5.556   7.604 -0.3853 -0.1909  0.4082
  539SOL    HW1 2195   0.387   5.627   7.666  0.5981 -0.2130  0.7594
  539SOL    HW2 2196   0.495   5.528   7.627 -0.1029 -0.3706 -0.8522
  540SOL     OW 2197   9.383   7.895   5.243 -0.6210  0.4190  0.0567
  540SOL    HW1 2198   9.393   7.930   5.332 -1.0070 -1.6613  0.9760
  540SOL    HW2 2199   9.294   7.862   5.241  0.1649 -1.8107 -0.2283
  541SOL     OW 2200   6.615   3.442   1.644  0.7769  0.2922 -0.3083
  541SOL    HW1 2201   6.589   3.410   1.730  4.1485  1.7250  1.4541
  541SOL    HW2 2202   6.599   3.536   1.648  0.7316  0.3394 -1.3538
  542SOL     OW 2203   7.761   7.306   0.554  0.4403 -0.2276  0.3180
  542SOL    HW1 2204   7.800   7.338   0.473 -0.4394 -3.3225 -1.5300
  542SOL    HW2 2205   7.667   7.325   0.545  0.1137 -1.9054 -0.1766
  543SOL     OW 2206   8.289   6.924   3.102  0.5879  0.1038 -0.5353
  543SOL    HW1 2207   8.375   6.934   3.142  0.0853  0.0318  0.6091
  543SOL    HW2 2208   8.231   6.980   3.154 -0.5556 -1.8554  0.4151
  544SOL     OW 2209   4.660   9.361   0.710  0.0513  0.1469 -0.0757
  544SOL    HW1 2210   4.630   9.298   0.645 -0.1283  0.1642 -0.0112
  544SOL    HW2 2211   4.700   9.431   0.659 -0.5157  0.3904 -0.1972
  545SOL     OW 2212   7.273   2.374   0.677  0.4333  0.2994 -0.3119
  545SOL    HW1 2213   7.263   2.447   0.616  0.8546 -0.4188 -1.2620
  545SOL    HW2 2214   7.366   2.370   0.696  0.4437 -0.1407 -0.4483
  546SOL     OW 2215   9.807   4.858   1.167  0.6869  0.1411  0.6859
  546SOL    HW1 2216   9.719   4.851   1.205 -1.4004 -1.3028 -3.6581
  546SOL    HW2 2217   9.845   4.936   1.207 -3.4897  2.1512  1.2461
  547SOL     OW 2218   1.887   1.125   4.426 -0.3098  0.0927  0.6558
  547SOL    HW1 2219   1.864   1.136   4.334 -0.9457 -0.3293  0.7552
  547SOL    HW2 2220   1.937   1.044   4.429  2.6830  1.7710  0.2089
  548SOL     OW 2221   0.776   3.971   1.362  0.2697 -0.1583  0.8068
  548SOL    HW1 2222   0.681   3.981   1.357  0.4189  0.6134 -2.1551
  548SOL    HW2 2223   0.808   4.056   1.392  0.0962  0.0026  0.5347
  549SOL     OW 2224   8.096   3.316   4.124  0.1534  0.4467  0.2605
  549SOL    HW1 2225   8.137   3.275   4.048 -0.3183 -0.6733  0.5884
  549SOL    HW2 2226   8.051   3.393   4.088  1.7735  1.2064 -0.2285
  550SOL     OW 2227   4.059   1.770   2.248 -0.7047  0.0256  0.1231
  550SOL    HW1 2228   4.070   1.864   2.261 -0.1306  0.0544 -0.5234
  550SOL    HW2 2229   3.975   1.750   2.290 -2.2968  1.3227 -2.1967
  551SOL     OW 2230   9.017   4.026   2.111 -0.8784 -0.1739 -0.0075
  551SOL    HW1 2231   9.089   4.001   2.169  0.0712  1.1184 -0.5981
  551SOL    HW2 2232   8.980   4.104   2.152 -0.4952  0.4783 -0.8991
  552SOL     OW 2233   6.931   6.600   1.789  0.2774 -0.3660  0.0227
  552SOL    HW1 2234   6.845   6.619   1.751  1.4953  1.1827 -2.2051
  552SOL    HW2 2235   6.961   6.684   1.824  0.3646 -1.1868  2.0301
  553SOL     OW 2236   0.575   1.984   4.018 -0.5144  0.0055  0.0297
  553SOL    HW1 2237   0.530   2.045   3.959  0.1004  1.0334  0.6062
  553SOL    HW2 2238   0.505   1.951   4.075 -0.9167 -0.1473 -0.5362
  554SOL     OW 2239   7.446   9.127   9.455  0.2029  0.4316 -0.5061
  554SOL    HW1 2240   7.505   9.070   9.504  0.0726  0.1205 -0.7088
  554SOL    HW2 2241   7.370   9.072   9.436 -0.0577  0.7614 -0.4362
  555SOL     OW 2242   9.944   4.142   9.340  0.0861  0.3183  0.4993
  555SOL    HW1 2243   9.853   4.173   9.349  0.2625  0.7727  0.8014
  555SOL    HW2 2244   9.980   4.194   9.268 -0.9433 -2.4235 -2.1714
  556SOL     OW 2245   5.160   1.278   7.306 -0.0150 -0.6241  0.1536
  556SOL    HW1 2246   5.064   1.282   7.299  0.0552 -0.3620 -0.8668
  556SOL    HW2 2247   5.185   1.365   7.339 -0.0326 -0.1231 -1.0954
  557SOL     OW 2248   3.029   4.970   0.702 -0.1573  0.2274 -0.3354
  557SOL    HW1 2249   2.977   5.041   0.665  1.6810  0.3184 -3.1119
  557SOL    HW2 2250   3.040   4.908   0.629  1.0219 -1.2793  1.0448
  558SOL     OW 2251   6.959   0.996   8.658 -0.0884 -0.1162 -0.3669
  558SOL    HW1 2252   6.976   1.088   8.641 -2.4868  0.7869  1.4797
  558SOL    HW2 2253   6.927   0.961   8.575 -0.4277  1.0715 -0.7573
  559SOL     OW 2254   5.221   1.795   9.650 -0.7516  0.2279  0.3366
  559SOL    HW1 2255   5.222   1.723   9.587  0.2065 -0.2976  0.9240
  559SOL    HW2 2256   5.240   1.754   9.735 -1.5909  0.9781  0.9123
  560SOL     OW 2257   9.787   7.310   0.210 -0.4856  0.6216  0.0114
  560SOL    HW1 2258   9.707   7.259   0.195 -1.4987  2.2762 -0.6355
  560SOL    HW2 2259   9.854   7.246   0.231 -2.1845 -0.7693  1.4492
  561SOL     OW 2260   3.436   4.598   6.622  0.5732  0.1853  0.6321
  561SOL    HW1 2261   3.401   4.599   6.533  1.8736 -1.7303  0.0152
  561SOL    HW2 2262   3.476   4.684   6.634 -0.3222  0.7483 -0.3237
  562SOL     OW 2263   6.016   7.024   1.657 -0.6715 -0.0999  0.1228
  562SOL    HW1 2264   6.026   7.038   1.563 -2.6088  1.0606  0.0482
  562SOL    HW2 2265   5.952   6.953   1.665 -3.2104  2.0879  0.4775
  563SOL     OW 2266   4.220   8.728   4.302 -0.1496 -0.0987 -0.4733
  563SOL    HW1 2267   4.268   8.682   4.234 -0.9718 -0.0269 -1.1206
  563SOL    HW2 2268   4.138   8.754   4.260 -1.0740 -0.8529  0.8077
  564SOL     OW 2269   4.125   7.456   6.391 -0.2797 -0.3293 -0.6517
  564SOL    HW1 2270   4.209   7.431   6.352  0.8962 -0.1541  1.6328
  564SOL    HW2 2271   4.081   7.372   6.407 -0.4712 -0.4329 -1.6359
  565SOL     OW 2272   7.169   3.608   7.347  0.7815 -0.1369 -0.0229
  565SOL    HW1 2273   7.258   3.628   7.378  1.3047  1.4634 -2.3514
  565SOL    HW2 2274   7.112   3.661   7.403  1.0164 -2.3514  2.5658
  566SOL     OW 2275   3.861   6.607   9.510  0.0238  0.0050 -0.2440
  566SOL    HW1 2276   3.874   6.535   9.571  0.7147 -0.4445 -0.9013
  566SOL    HW2 2277   3.766   6.611   9.497  0.0160 -1.1059 -0.5749
  567SOL     OW 2278   5.199   8.513   3.311 -0.3285 -0.2620  0.2051
  567SOL    HW1 2279   5.128   8.449   3.316 -1.2213  0.7515  0.8489
  567SOL    HW2 2280   5.157   8.594   3.284  0.5032  0.4705  1.0324
  568SOL     OW 2281   2.474   1.004   7.988 -0.5584 -0.3022  0.0326
  568SOL    HW1 2282   2.534   0.979   7.918 -1.2814  0.0211 -0.7192
  568SOL    HW2 2283   2.523   1.068   8.039  0.9217 -2.3552  1.3514
  569SOL     OW 2284   7.527   2.754   1.993  0.2559  0.4507 -0.3226
  569SOL    HW1 2285   7.565   2.840   1.978  0.5581  0.3760 -0.0027
  569SOL    HW2 2286   7.436   2.772   2.016 -0.5260  0.5239 -3.1300
  570SOL     OW 2287   5.431   4.835   9.681 -0.2220 -0.2702 -0.2496
  570SOL    HW1 2288   5.437   4.868   9.771  0.1249  0.0179 -0.3760
  570SOL    HW2 2289   5.341   4.854   9.655 -0.4012 -0.5917  0.1251
  571SOL     OW 2290   5.750   7.613   9.516  0.3953 -0.4414 -0.2261
  571SOL    HW1 2291   5.834   7.639   9.555 -0.2817  0.9491  0.3721
  571SOL    HW2 2292   5.773   7.546   9.453  1.8657 -0.7241  0.5602
  572SOL     OW 2293   4.109   8.804   8.051  0.1267 -0.0223 -0.0485
  572SOL    HW1 2294   4.126   8.768   8.138 -0.5833  0.0634  0.1347
  572SOL    HW2 2295   4.154   8.745   7.991 -0.0407 -0.5364  0.3253
  573SOL     OW 2296   9.700   3.608   3.371 -0.2524  0.4860 -0.0486
  573SOL    HW1 2297   9.733   3.697   3.362  0.3483  0.2510 -0.2421
  573SOL    HW2 2298   9.642   3.596   3.296 -1.2823  1.1126  0.6335
  574SOL     OW 2299   0.749   1.311   4.055  0.1156  0.1653  0.3361
  574SOL    HW1 2300   0.833   1.286   4.017 -0.0369  0.4702 -0.2083
  574SOL    HW2 2301   0.687   1.301   3.984  0.3030  3.8592 -0.5282
  575SOL     OW 2302   5.387   2.179   2.035  0.2305  0.3216 -0.2918
  575SOL    HW1 2303   5.306   2.223   2.009  0.2125  0.8994  0.7085
  575SOL    HW2 2304   5.381   2.092   1.995 -0.7765  0.4332 -0.3996
  576SOL     OW 2305   3.347   1.443   1.774 -0.0414 -0.0833 -0.2788
  576SOL    HW1 2306   3.279   1.507   1.754  1.0880  1.3542  0.2293
  576SOL    HW2 2307   3.400   1.485   1.842  1.3793 -1.1162 -0.6927
  577SOL     OW 2308   5.272   4.583   1.117 -0.2332  0.0177 -0.1055
  577SOL    HW1 2309   5.229   4.588   1.202 -0.1504 -0.7914 -0.0012
  577SOL    HW2 2310   5.248   4.664   1.072 -0.7615  0.1796  0.4648
  578SOL     OW 2311   1.927   5.428   5.305 -0.0192 -0.2611  0.2005
  578SOL    HW1 2312   1.965   5.360   5.249  0.0426  0.2604 -0.3958
  578SOL    HW2 2313   1.981   5.425   5.385 -0.1497 -1.0483  0.2625
  579SOL     OW 2314   8.790   0.830   9.226 -0.3105  0.2035 -0.1606
  579SOL    HW1 2315   8.852   0.881   9.174  1.0224 -0.2612  0.9122
  579SOL    HW2 2316   8.834   0.746   9.241 -1.4375 -0.3564  0.1671
  580SOL     OW 2317   9.636   9.650   4.688 -0.0659 -0.2065  0.1677
  580SOL    HW1 2318   9.608   9.625   4.776 -2.2294 -0.5007 -0.5491
  580SOL    HW2 2319   9.570   9.713   4.659 -0.1706 -1.1439 -1.7579
  581SOL     OW 2320   4.717   8.291   0.575 -0.0329 -0.7963  0.2207
  581SOL    HW1 2321   4.743   8.249   0.493 -0.0195 -0.4004  0.0195
  581SOL    HW2 2322   4.668   8.224   0.622 -0.4843 -0.8675 -0.3355
  582SOL     OW 2323   7.962   2.611   2.916 -0.8930 -0.5118 -0.2506
  582SOL    HW1 2324   8.041   2.578   2.873 -0.3792  0.3899 -0.0277
  582SOL    HW2 2325   7.938   2.542   2.978 -0.3454 -0.8435 -0.4020
  583SOL     OW 2326   7.144   6.845   0.842 -0.5356 -0.2604 -0.0474
  583SOL    HW1 2327   7.135   6.936   0.812 -0.1287 -0.2961 -0.2927
  583SOL    HW2 2328   7.094   6.794   0.778 -0.6583 -0.2251  0.0185
  584SOL     OW 2329   5.123   8.723   8.629 -0.3012  0.2125 -0.2976
  584SOL    HW1 2330   5.080   8.638   8.632  0.3167 -0.0733  0.8532
  584SOL    HW2 2331   5.074   8.772   8.562 -1.6808 -0.4917  0.1602
  585SOL     OW 2332   3.929   1.781   7.377  0.0365 -0.2686 -0.8589
  585SOL    HW1 2333   3.933   1.686   7.390  0.5004 -0.6193 -3.1398
  585SOL    HW2 2334   3.984   1.797   7.300  0.4624  1.9497 -0.1731
  586SOL     OW 2335   4.011   6.758   0.765  0.0870 -0.4026 -0.1018
  586SOL    HW1 2336   4.066   6.769   0.842  1.0953 -0.8990 -0.7271
  586SOL    HW2 2337   4.015   6.665   0.745  0.4164 -0.1720 -1.1687
  587SOL     OW 2338   6.791   5.074   8.148  0.0790 -0.1663  0.0682
  587SOL    HW1 2339   6.882   5.103   8.153 -0.2555  0.9197  0.0102
  587SOL    HW2 2340   6.746   5.124   8.216 -0.6123 -0.1737 -0.3780
  588SOL     OW 2341   5.728   6.355   1.376  0.1846  0.2229  0.5549
  588SOL    HW1 2342   5.738   6.314   1.290  2.2832  1.5657  0.1129
  588SOL    HW2 2343   5.680   6.436   1.359 -0.4668 -0.0881  0.8577
  589SOL     OW 2344   3.900   6.017   5.097  0.1402 -0.0900 -0.1326
  589SOL    HW1 2345   3.994   6.031   5.096  0.0485  0.9980  1.7655
  589SOL    HW2 2346   3.886   5.940   5.042  2.4604 -2.1433  1.9274
  590SOL     OW 2347   8.423   1.109   2.416 -0.8099  0.1419  0.6819
  590SOL    HW1 2348   8.402   1.130   2.325  0.1411 -1.3744  0.0734
  590SOL    HW2 2349   8.423   1.013   2.419 -1.9095  0.1485  2.5511
  591SOL     OW 2350   1.292   0.944   7.412 -0.3426  0.4141  0.5455
  591SOL    HW1 2351   1.298   1.034   7.444 -0.4858 -0.2083  2.4966
  591SOL    HW2 2352   1.328   0.891   7.484 -1.3988 -1.1777 -0.0400
  592SOL     OW 2353   4.197   6.363   6.955 -0.7410  0.7627  0.2765
  592SOL    HW1 2354   4.239   6.438   6.911 -0.1293  0.6844  0.7059
  592SOL    HW2 2355   4.107   6.363   6.922 -0.1469  0.3479 -1.4114
  593SOL     OW 2356   8.896   4.224   1.187  0.4034  0.5191  0.3611
  593SOL    HW1 2357   8.909   4.214   1.093 -2.1731 -2.7885  0.1565
  593SOL    HW2 2358   8.966   4.171   1.226 -0.2229 -0.5087  0.1297
  594SOL     OW 2359   8.288   1.870   0.572 -0.3883 -0.3898 -0.0029
  594SOL    HW1 2360   8.248   1.946   0.614 -0.2696  0.1188 -0.7854
  594SOL    HW2 2361   8.270   1.882   0.479 -0.6851 -1.5079 -0.1087
  595SOL     OW 2362   3.498   2.224   7.322 -0.2074 -0.0229  0.2492
  595SOL    HW1 2363   3.579   2.174   7.309  0.3345  1.2243 -1.5764
  595SOL    HW2 2364   3.524   2.315   7.305 -1.8470  0.4894  0.3679
  596SOL     OW 2365   7.558   6.844   8.638 -0.4275 -0.1967 -0.1642
  596SOL    HW1 2366   7.514   6.818   8.719  0.5745 -1.9085 -0.1200
  596SOL    HW2 2367   7.603   6.764   8.608  0.0966  0.6753 -1.8390
  597SOL     OW 2368   6.738   7.903   2.134 -0.2229  0.3746 -0.6252
  597SOL    HW1 2369   6.688   7.838   2.084 -1.1294  0.3876  0.2466
  597SOL    HW2 2370   6.739   7.980   2.077  0.4117 -0.2172 -1.4434
  598SOL     OW 2371   4.984   9.364   8.024  0.5955 -0.0590  0.1361
  598SOL    HW1 2372   4.949   9.289   7.976  0.8189 -0.3193  0.3810
  598SOL    HW2 2373   5.028   9.417   7.956 -0.8976  0.6602 -0.3088
  599SOL     OW 2374   0.235   4.396   4.531 -0.2541 -0.1390 -0.3103
  599SOL    HW1 2375   0.140   4.387   4.531 -0.1705 -2.0956 -3.1881
  599SOL    HW2 2376   0.268   4.306   4.530  1.5931  0.4924 -0.9290
  600SOL     OW 2377   6.477   0.516   8.581  0.3032 -0.2225  0.2487
  600SOL    HW1 2378   6.401   0.462   8.557 -2.2661  4.0674 -2.4943
  600SOL    HW2 2379   6.474   0.520   8.676 -1.9265 -1.4948  0.3095
  601SOL     OW 2380   7.255   9.428   1.368 -0.0674  0.1505  0.2832
  601SOL    HW1 2381   7.337   9.380   1.380  0.7379  1.8610  1.9321
  601SOL    HW2 2382   7.187   9.362   1.381  1.0103 -0.7118  1.8326
  602SOL     OW 2383   3.210   1.334   9.938  0.1322 -0.1762 -0.0409
  602SOL    HW1 2384   3.295   1.295   9.957 -0.3518 -0.6854  1.2211
  602SOL    HW2 2385   3.230   1.417   9.894  1.3143  0.1849  1.1151
  603SOL     OW 2386   1.352   7.387   4.921 -0.2653  0.0200 -0.6528
  603SOL    HW1 2387   1.319   7.425   5.003 -1.0551  1.1325 -1.4617
  603SOL    HW2 2388   1.427   7.441   4.898 -0.9449  0.6402 -1.4300
  604SOL     OW 2389   5.176   7.860   6.447  0.0792  0.5542 -0.3353
  604SOL    HW1 2390   5.262   7.847   6.407  0.5531 -0.1755  0.8736
  604SOL    HW2 2391   5.113   7.837   6.378  0.8658 -0.4919 -0.7263
  605SOL     OW 2392   4.068   7.820   7.057 -0.3691 -0.4480 -0.2119
  605SOL    HW1 2393   3.984   7.839   7.013 -1.0533 -0.6291  0.9636
  605SOL    HW2 2394   4.133   7.822   6.987 -1.2130  0.7124 -1.0097
  606SOL     OW 2395   4.808   2.939   2.689 -0.4147  0.7031  0.0221
  606SOL    HW1 2396   4.869   2.994   2.642 -1.7355  2.0228 -0.2326
  606SOL    HW2 2397   4.742   2.999   2.723 -1.5139 -0.6360  0.3856
  607SOL     OW 2398   7.387   8.526   2.522  0.6133 -0.2793 -0.5583
  607SOL    HW1 2399   7.411   8.559   2.435 -0.7775  0.0130 -0.8621
  607SOL    HW2 2400   7.304   8.570   2.542  2.0885  1.6105  2.0272
  608SOL     OW 2401   8.127   8.814   9.219 -0.5772 -0.1995  0.0638
  608SOL    HW1 2402   8.081   8.790   9.299 -0.2759 -0.3645  0.1892
  608SOL    HW2 2403   8.203   8.755   9.216 -1.1159 -0.8702 -0.8479
  609SOL     OW 2404   6.203   1.331   5.737 -0.4960 -0.0012  0.0897
  609SOL    HW1 2405   6.130   1.387   5.712 -1.1822 -1.0549 -0.3199
  609SOL    HW2 2406   6.249   1.313   5.654 -0.4584 -0.2902  0.1712
  610SOL     OW 2407   9.111   8.092   6.661 -0.2431 -0.1886  0.3765
  610SOL    HW1 2408   9.046   8.153   6.627 -1.2196 -0.7389  1.2125
  610SOL    HW2 2409   9.145   8.136   6.740 -0.7538 -0.5896  0.8275
  611SOL     OW 2410   1.096   1.295   8.816 -0.1052  0.1234 -0.4303
  611SOL    HW1 2411   1.024   1.246   8.856 -1.0670  1.8367  0.0337
  611SOL    HW2 2412   1.145   1.229   8.766 -0.1380 -1.6881  1.7664
  612SOL     OW 2413   4.196   7.257   7.500 -0.3614 -0.1488  0.0978
  612SOL    HW1 2414   4.120   7.310   7.480  0.4666  1.9827  2.1010
  612SOL    HW2 2415   4.267   7.294   7.448 -0.2682 -0.8508 -0.2877
  613SOL     OW 2416   0.783   2.775   0.248 -0.2329 -0.5525 -0.7276
  613SOL    HW1 2417   0.796   2.870   0.245  0.7416 -0.6462  0.0824
  613SOL    HW2 2418   0.711   2.759   0.187 -0.8717  0.7804 -0.3587
  614SOL     OW 2419   1.273   2.751   2.642  0.1600 -0.1089  0.1688
  614SOL    HW1 2420   1.198   2.763   2.584 -0.4855 -2.4045  0.3902
  614SOL    HW2 2421   1.348   2.740   2.583  0.1119  0.9158 -0.0950
  615SOL     OW 2422   9.053   4.132   6.616 -0.4676  0.7795  0.4659
  615SOL    HW1 2423   9.079   4.097   6.531  0.7840 -0.4505  1.3184
  615SOL    HW2 2424   8.980   4.191   6.596  0.4359  1.3097 -1.5634
  616SOL     OW 2425   0.779   2.812   6.976 -0.0647 -0.2301  0.7636
  616SOL    HW1 2426   0.870   2.841   6.983 -1.0697  3.1956  2.0284
  616SOL    HW2 2427   0.764   2.760   7.055  0.8381 -0.9856  0.4457
  617SOL     OW 2428   6.652   4.508   0.472 -0.2895 -0.7308  0.0643
  617SOL    HW1 2429   6.619   4.597   0.470  1.0685 -0.1802 -2.3071
  617SOL    HW2 2430   6.681   4.491   0.382 -1.2739 -3.8795  0.2256
  618SOL     OW 2431   9.970   2.633   0.255 -0.1373  0.2039 -1.0514
  618SOL    HW1 2432   9.885   2.670   0.230 -0.5495  0.5430  0.7539
  618SOL    HW2 2433   9.958   2.605   0.345  2.1284  1.7488 -0.1923
  619SOL     OW 2434   2.859   0.904   8.573 -0.0123 -0.3734  0.5619
  619SOL    HW1 2435   2.777   0.865   8.544  0.7279 -1.2519 -0.4422
  619SOL    HW2 2436   2.915   0.903   8.495  0.9622  0.1729  1.2270
  620SOL     OW 2437   2.362   0.524   1.960  0.2258 -0.1723  0.5496
  620SOL    HW1 2438   2.271   0.535   1.988  0.0348  0.3302 -0.2184
  620SOL    HW2 2439   2.356   0.513   1.865  0.7330 -3.2543  0.7851
  621SOL     OW 2440   3.469   6.174   4.821  0.3324  0.1301 -0.3024
  621SOL    HW1 2441   3.426   6.212   4.898  1.8460  4.3067 -1.2308
  621SOL    HW2 2442   3.401   6.173   4.754  0.1849  1.0483 -0.1777
  622SOL     OW 2443   5.349   2.025   6.214 -1.1766 -0.3560 -0.6651
  622SOL    HW1 2444   5.303   1.979   6.284  0.6798 -0.1593  0.7617
  622SOL    HW2 2445   5.315   1.986   6.133 -3.0610 -0.9009  0.3391
  623SOL     OW 2446   2.870   6.888   4.719 -0.2971  0.2717  0.1424
  623SOL    HW1 2447   2.924   6.940   4.660  2.6328 -1.7371  0.8514
  623SOL    HW2 2448   2.888   6.797   4.695  0.4028 -0.6167  3.4525
  624SOL     OW 2449   7.518   8.269   3.680  0.0795 -0.4931  0.2668
  624SOL    HW1 2450   7.499   8.278   3.587  0.9181 -0.8944  0.0520
  624SOL    HW2 2451   7.538   8.358   3.710 -1.1638 -0.2041  0.2959
  625SOL     OW 2452   8.485   8.689   5.207 -0.1669  0.5856  0.6931
  625SOL    HW1 2453   8.548   8.673   5.136  1.0625  1.5140  1.5287
  625SOL    HW2 2454   8.399   8.684   5.164  0.4445 -0.7557 -0.4714
  626SOL     OW 2455   5.291   6.905   0.583  0.1794  0.5842  0.6855
  626SOL    HW1 2456   5.327   6.816   0.593  0.1225  0.5324  0.4168
  626SOL    HW2 2457   5.293   6.922   0.489 -0.1113  0.7458  0.7091
  627SOL     OW 2458   1.153   7.819   8.550  0.4507 -0.0021 -0.3697
  627SOL    HW1 2459   1.071   7.849   8.589 -0.4088 -0.1335 -1.9622
  627SOL    HW2 2460   1.220   7.838   8.615 -0.9946 -1.0695  1.5457
  628SOL     OW 2461   4.585   5.085   5.153 -0.2746 -0.3593 -0.2189
  628SOL    HW1 2462   4.671   5.068   5.191 -0.2879  1.7852  0.9198
  628SOL    HW2 2463   4.600   5.083   5.059  0.6934 -1.4429 -0.0702
  629SOL     OW 2464   3.683   4.179   3.672 -0.2657  0.3467  0.3129
  629SOL    HW1 2465   3.753   4.154   3.732  0.2148  0.9256  0.0052
  629SOL    HW2 2466   3.657   4.097   3.631  1.3518  0.3207 -0.7579
  630SOL     OW 2467   0.535   7.963   0.537  0.6286 -0.4221  0.5568
  630SOL    HW1 2468   0.562   7.897   0.474 -0.1576  0.5909 -0.8878
  630SOL    HW2 2469   0.439   7.965   0.531  0.3488 -1.5860  3.1547
  631SOL     OW 2470   7.782   5.281   2.682 -0.7078 -0.1757 -0.3264
  631SOL    HW1 2471   7.690   5.303   2.671 -0.7898 -0.3758 -0.0596
  631SOL    HW2 2472   7.818   5.283   2.593 -1.3456 -1.7095 -0.6623
  632SOL     OW 2473   2.763   7.168   1.434 -0.0606 -0.1750  0.4166
  632SOL    HW1 2474   2.767   7.196   1.343  2.1879 -0.3233  0.4129
  632SOL    HW2 2475   2.848   7.127   1.450  1.0882  2.9706  3.5761
  633SOL     OW 2476   0.634   5.733   4.825  0.5280  0.0253  0.4145
  633SOL    HW1 2477   0.543   5.763   4.814  0.7985  0.1047 -2.7583
  633SOL    HW2 2478   0.684   5.784   4.761  2.0851 -2.6825 -0.7197
  634SOL     OW 2479   4.922   2.356   7.966  0.3369 -0.7404  0.0401
  634SOL    HW1 2480   4.952   2.418   7.899 -2.3626  0.6203 -0.0153
  634SOL    HW2 2481   4.993   2.355   8.030  0.9434  1.6697 -0.4710
  635SOL     OW 2482   3.981   7.397   7.404 -0.1851  0.0676  0.0318
  635SOL    HW1 2483   3.957   7.486   7.430  2.1169  2.1448 -3.8741
  635SOL    HW2 2484   3.899   7.356   7.378 -1.2709  1.1290  1.6151
  636SOL     OW 2485   9.301   8.716   6.628  0.3687 -0.6542  0.1302
  636SOL    HW1 2486   9.338   8.629   6.619  1.4625 -0.1410 -0.6506
  636SOL    HW2 2487   9.213   8.702   6.663  0.8541 -1.9972  0.8736
  637SOL     OW 2488   8.633   1.775   7.869 -0.2048 -0.0512 -0.2527
  637SOL    HW1 2489   8.605   1.741   7.953  1.6636 -0.6976  0.1567
  637SOL    HW2 2490   8.624   1.701   7.809 -0.7497  0.1744 -0.4598
  638SOL     OW 2491   0.295   0.507   6.731  0.0148 -0.2356  0.2547
  638SOL    HW1 2492   0.209   0.468   6.717  0.3943 -1.2819  0.7597
  638SOL    HW2 2493   0.285   0.598   6.703 -1.4086 -0.1895  0.8276
  639SOL     OW 2494   5.112   0.360   7.344  0.0605  0.0597  0.1310
  639SOL    HW1 2495   5.058   0.373   7.421  1.2617 -1.9890  1.4140
  639SOL    HW2 2496   5.200   0.345   7.378  0.4633 -1.8436 -1.5296
  640SOL     OW 2497   6.108   3.434   4.032 -0.0981  0.1028  0.1951
  640SOL    HW1 2498   6.165   3.484   4.091  1.1139 -0.5681 -0.3787
  640SOL    HW2 2499   6.116   3.477   3.947 -0.6829  0.1795  0.1739
  641SOL     OW 2500   4.806   6.247   3.591  0.1937 -0.6907 -0.2293
  641SOL    HW1 2501   4.730   6.213   3.639  0.7438 -0.6166  0.7314
  641SOL    HW2 2502   4.825   6.180   3.525 -0.4590 -0.8965 -0.2141
  642SOL     OW 2503   1.431   1.021   3.393 -0.2604  0.2892 -0.2020
  642SOL    HW1 2504   1.518   0.983   3.403 -0.9863 -1.1927  0.8407
  642SOL    HW2 2505   1.431   1.058   3.304 -0.0856 -3.9350 -2.2417
  643SOL     OW 2506   8.913   6.311   1.958  0.0121 -0.5589 -0.1914
  643SOL    HW1 2507   8.925   6.284   1.867 -0.9843 -1.0297 -0.1930
  643SOL    HW2 2508   8.964   6.247   2.009  0.6847 -0.2087 -0.4280
  644SOL     OW 2509   9.508   3.434   7.369  0.0849 -0.1275  0.2358
  644SOL    HW1 2510   9.452   3.409   7.296 -2.3348  0.6157  1.7019
  644SOL    HW2 2511   9.525   3.352   7.415 -1.3215 -0.1605  0.7396
  645SOL     OW 2512   5.951   4.461   1.304 -0.8197 -0.3042 -0.1774
  645SOL    HW1 2513   5.910   4.398   1.363 -0.9948 -0.7662 -0.7832
  645SOL    HW2 2514   5.879   4.518   1.275 -0.7960 -0.2896 -0.2085
  646SOL     OW 2515   9.884   2.702   5.424 -0.1769 -0.4430 -0.1530
  646SOL    HW1 2516   9.926   2.628   5.380 -0.3524 -0.2292 -0.6994
  646SOL    HW2 2517   9.883   2.678   5.517  0.4553 -0.7841 -0.2293
  647SOL     OW 2518   9.331   2.802   5.737 -0.1923 -0.1646  0.4633
  647SOL    HW1 2519   9.423   2.828   5.731  0.7014 -2.9925  0.3320
  647SOL    HW2 2520   9.325   2.724   5.682 -2.9058  0.4013 -0.1729
  648SOL     OW 2521   9.253   9.147   1.241 -0.0165  0.5088  0.2881
  648SOL    HW1 2522   9.196   9.070   1.231 -1.9586  1.5190  2.3600
  648SOL    HW2 2523   9.313   9.143   1.167 -2.7060 -0.7570 -2.0368
  649SOL     OW 2524   7.176   5.823   8.887 -0.0549  0.3164 -0.4728
  649SOL    HW1 2525   7.150   5.777   8.967  2.5038  2.3919  1.7467
  649SOL    HW2 2526   7.104   5.884   8.871 -1.2847 -1.1348 -0.6983
  650SOL     OW 2527   0.888   3.721   5.614 -0.0977  0.0871  0.5048
  650SOL    HW1 2528   0.908   3.630   5.635  0.2027  0.0686  0.1572
  650SOL    HW2 2529   0.962   3.771   5.649  1.3952 -0.1261 -2.0758
  651SOL     OW 2530   0.855   8.480   8.892 -0.0056 -0.0494 -0.3169
  651SOL    HW1 2531   0.824   8.390   8.881 -1.3786  0.5224 -1.4143
  651SOL    HW2 2532   0.944   8.479   8.855  0.7420 -1.3573  1.4272
  652SOL     OW 2533   7.793   1.164   3.704  0.1253  0.3896 -0.6608
  652SOL    HW1 2534   7.823   1.186   3.616  1.2357 -0.2883 -0.4702
  652SOL    HW2 2535   7.723   1.227   3.722  1.5543  2.1743 -1.0653
  653SOL     OW 2536   9.746   5.188   3.877 -0.2314 -0.0834  0.3599
  653SOL    HW1 2537   9.795   5.176   3.959  0.4247 -0.2189 -0.0416
  653SOL    HW2 2538   9.814   5.197   3.810 -0.7633 -1.1545 -0.3445
  654SOL     OW 2539   4.881   8.386   0.165  0.4569 -0.6270  0.2382
  654SOL    HW1 2540   4.941   8.336   0.220  0.5589 -0.5147  0.2274
  654SOL    HW2 2541   4.899   8.478   0.187 -1.0280 -0.6168  1.6582
  655SOL     OW 2542   7.780   1.028   9.564  0.1682 -0.8396 -0.4355
  655SOL    HW1 2543   7.859   1.027   9.511  0.9375  1.4263  0.5734
  655SOL    HW2 2544   7.811   1.024   9.654 -0.8998 -0.4138 -0.0350
  656SOL     OW 2545   8.707   0.781   8.597  0.3018 -0.1101  0.7398
  656SOL    HW1 2546   8.741   0.869   8.606  1.7248 -0.8346  3.6880
  656SOL    HW2 2547   8.613   0.793   8.580  0.5962  1.9332  0.3559
  657SOL     OW 2548   6.797   3.029   9.968 -0.2731  0.3038  0.0139
  657SOL    HW1 2549   6.728   3.013   9.903 -2.0378 -0.1063  1.8878
  657SOL    HW2 2550   6.816   2.943  10.004  0.7038  0.5311  0.0740
  658SOL     OW 2551   1.526   5.234   9.799 -0.6205 -0.5836 -0.4371
  658SOL    HW1 2552   1.568   5.154   9.770 -0.8163 -1.0971  0.6718
  658SOL    HW2 2553   1.444   5.238   9.748 -0.2780 -0.7084 -1.0023
  659SOL     OW 2554   4.453   7.305   4.840 -0.0360  0.0901  0.4434
  659SOL    HW1 2555   4.478   7.381   4.788 -0.4386  0.1934  0.3955
  659SOL    HW2 2556   4.405   7.341   4.914 -0.5290 -0.1385  0.2393
  660SOL     OW 2557   1.194   9.617   8.836 -0.1156 -0.2415  0.1985
  660SOL    HW1 2558   1.283   9.639   8.866  0.0036  1.1779 -1.0757
  660SOL    HW2 2559   1.204   9.603   8.742 -1.0642 -1.3090  0.2309
  661SOL     OW 2560   9.984   1.993   5.605  0.4557  0.0829 -0.1594
  661SOL    HW1 2561   9.986   1.939   5.526  2.5317 -1.3583  0.7777
  661SOL    HW2 2562   9.920   1.951   5.662  2.0080 -1.4703  0.5362
  662SOL     OW 2563   3.726   9.608   4.785  0.3797 -0.7234  0.3854
  662SOL    HW1 2564   3.655   9.641   4.841 -0.8052 -1.6631 -0.5028
  662SOL    HW2 2565   3.805   9.647   4.821 -0.8003  2.2927  0.0153
  663SOL     OW 2566   5.215   2.858   8.876  0.9373  0.1607  0.1030
  663SOL    HW1 2567   5.233   2.869   8.783  2.5004  0.0335  0.3596
  663SOL    HW2 2568   5.251   2.936   8.917 -2.3605  1.6909  0.3777
  664SOL     OW 2569   7.234   2.341   2.700  0.3674  0.4765  0.5294
  664SOL    HW1 2570   7.265   2.420   2.744 -1.0343  0.8039  0.9527
  664SOL    HW2 2571   7.302   2.276   2.718  0.4645  0.9706  2.0743
  665SOL     OW 2572   5.086   6.386   4.836  0.3157 -0.1813 -0.1997
  665SOL    HW1 2573   5.130   6.454   4.887 -0.2381  0.8182 -1.0196
  665SOL    HW2 2574   5.031   6.434   4.773 -0.0717 -1.3808 -0.8171
  666SOL     OW 2575   7.607   8.755   7.198  0.3489  0.5425 -0.1973
  666SOL    HW1 2576   7.633   8.806   7.275 -1.3358  0.0033  0.7839
  666SOL    HW2 2577   7.514   8.775   7.187  0.3700 -0.0577 -1.5880
  667SOL     OW 2578   4.256   7.733   5.386 -0.1365  0.4219 -0.0221
  667SOL    HW1 2579   4.176   7.775   5.355  0.1023 -0.1154 -1.4299
  667SOL    HW2 2580   4.229   7.684   5.464 -1.0140  0.8437 -0.0547
  668SOL     OW 2581   1.891   5.960   6.491 -0.7729 -0.0693 -0.3111
  668SOL    HW1 2582   1.835   6.027   6.529 -1.2569 -0.4782 -0.2986
  668SOL    HW2 2583   1.934   6.004   6.417  0.5589  0.8708  0.9659
  669SOL     OW 2584   8.911   8.985   7.653  0.3537 -0.1341  0.3393
  669SOL    HW1 2585   8.899   9.079   7.650  1.8686  0.1401  1.6329
  669SOL    HW2 2586   8.999   8.971   7.618 -0.9512 -1.4084 -2.7971
  670SOL     OW 2587   2.028   9.833   2.638  0.0789  0.4452  0.3299
  670SOL    HW1 2588   2.081   9.839   2.559 -0.2856 -0.2969  0.0178
  670SOL    HW2 2589   2.046   9.914   2.685  1.2894  0.3283  0.1097
  671SOL     OW 2590   7.118   6.729   4.676  0.5651 -0.4701  0.2864
  671SOL    HW1 2591   7.063   6.766   4.746 -1.4349 -0.8308 -1.0080
  671SOL    HW2 2592   7.144   6.805   4.624  1.2891 -0.3072  0.8599
  672SOL     OW 2593   1.072   8.708   9.746  0.3377 -0.3193  0.5199
  672SOL    HW1 2594   1.148   8.733   9.798  1.2179 -0.3241 -0.7017
  672SOL    HW2 2595   1.033   8.634   9.792 -0.0829  0.8830  2.1838
  673SOL     OW 2596   0.968   2.226   2.777 -0.0987  0.3276 -0.1728
  673SOL    HW1 2597   0.931   2.237   2.865 -0.1105 -1.8022  0.1467
  673SOL    HW2 2598   0.909   2.274   2.720 -1.0559  0.3497  0.7993
  674SOL     OW 2599   8.912   4.491   1.244  0.3940  0.4919 -0.2705
  674SOL    HW1 2600   8.995   4.519   1.208 -0.6118  0.4029 -2.8273
  674SOL    HW2 2601   8.906   4.398   1.224  0.0399  0.2971  0.6640
  675SOL     OW 2602   8.973   8.266   6.268 -0.8429  0.0724  0.3776
  675SOL    HW1 2603   8.958   8.219   6.350 -1.1857  0.1927  0.3840
  675SOL    HW2 2604   8.986   8.357   6.293 -0.4208  0.0232  0.3435
  676SOL     OW 2605   1.284   7.155   9.515 -0.6250 -0.2030  0.1534
  676SOL    HW1 2606   1.245   7.099   9.449 -3.1230  0.8337  0.6323
  676SOL    HW2 2607   1.347   7.209   9.467  0.9492 -2.4834 -0.5034
  677SOL     OW 2608   6.443   3.410   0.105 -0.1021  0.3833 -0.4014
  677SOL    HW1 2609   6.396   3.356   0.041 -1.8623  0.0795  1.0587
  677SOL    HW2 2610   6.374   3.450   0.158  1.1781  3.2854 -0.7555
  678SOL     OW 2611   2.409   0.837   1.862  0.3298 -0.0157 -0.2075
  678SOL    HW1 2612   2.413   0.788   1.944 -1.6652  2.4392  1.5335
  678SOL    HW2 2613   2.322   0.877   1.863  0.4663  0.5658 -3.2974
  679SOL     OW 2614   2.020   4.895   0.167  0.1484  0.3833 -0.5293
  679SOL    HW1 2615   2.025   4.949   0.089 -0.1454  1.6219  0.2740
  679SOL    HW2 2616   1.927   4.870   0.172 -0.2421  1.9015  0.4258
  680SOL     OW 2617   5.544   6.719   0.051  0.0551 -0.7539 -0.3106
  680SOL    HW1 2618   5.457   6.681   0.047  0.4122 -1.4831 -1.4239
  680SOL    HW2 2619   5.564   6.744  -0.039  1.2945 -1.2946 -0.1984
  681SOL     OW 2620   8.460   9.926   5.890 -0.2006  0.0123 -0.0338
  681SOL    HW1 2621   8.461  10.011   5.846 -0.0906  1.0524  1.8638
  681SOL    HW2 2622   8.506   9.941   5.973 -1.1430 -1.6212  0.8437
  682SOL     OW 2623   2.058   4.645   5.070  0.4491 -0.3328 -0.0615
  682SOL    HW1 2624   1.990   4.710   5.057  0.4059 -0.2136  0.7430
  682SOL    HW2 2625   2.094   4.630   4.982 -1.5581 -1.4579 -0.7561
  683SOL     OW 2626   4.399   8.606   1.309 -0.2873  0.4369  0.3492
  683SOL    HW1 2627   4.372   8.674   1.247 -1.6266 -0.8535 -0.5437
  683SOL    HW2 2628   4.481   8.639   1.346  0.5594  1.2811 -2.0805
  684SOL     OW 2629   8.986   1.044   4.245  0.2210 -0.7881 -0.3972
  684SOL    HW1 2630   8.900   1.082   4.261  0.9766  0.5036  0.7677
  684SOL    HW2 2631   8.968   0.970   4.186 -1.9538 -1.8228  1.3814
  685SOL     OW 2632   2.621   8.072   2.388 -0.3453 -0.3349 -0.0767
  685SOL    HW1 2633   2.607   8.004   2.322 -0.5158 -0.8600  0.5007
  685SOL    HW2 2634   2.623   8.025   2.471 -1.0242  0.4293  0.3788
  686SOL     OW 2635   2.751   9.393   8.707  0.0484 -0.8242  0.1167
  686SOL    HW1 2636   2.763   9.298   8.715  0.9247 -1.0556 -2.6812
  686SOL    HW2 2637   2.661   9.403   8.675 -0.8409 -0.4692  2.5103
  687SOL     OW 2638   9.297   3.883   5.740  0.4418  0.0186 -0.2442
  687SOL    HW1 2639   9.294   3.888   5.836  0.9476 -0.2786 -0.2127
  687SOL    HW2 2640   9.262   3.968   5.711  0.3339  0.1304  0.2010
  688SOL     OW 2641   2.104   7.974   1.967 -0.2236 -0.1355  0.3038
  688SOL    HW1 2642   2.139   7.952   2.054 -0.6629 -1.4742  0.1654
  688SOL    HW2 2643   2.098   8.070   1.967  0.6311 -0.0584  1.4123
  689SOL     OW 2644   2.165   1.161   9.544  0.2965  0.4710  0.4319
  689SOL    HW1 2645   2.108   1.212   9.601 -0.0334  0.3757  0.1867
  689SOL    HW2 2646   2.119   1.157   9.460  2.3538  3.6810 -1.0551
  690SOL     OW 2647   6.008   8.399   2.119 -0.4019  0.3550  0.1788
  690SOL    HW1 2648   6.031   8.307   2.115  0.3609  0.4833  1.1338
  690SOL    HW2 2649   5.914   8.402   2.104 -0.4481 -0.5830  0.2644
  691SOL     OW 2650   7.756   6.993   9.140 -0.1578  0.1801  0.1857
  691SOL    HW1 2651   7.759   7.015   9.234  1.0230  1.7921 -0.1744
  691SOL    HW2 2652   7.765   7.077   9.096 -1.4501 -0.4743 -1.4122
  692SOL     OW 2653   7.890   5.579   5.322  0.5854 -0.0239  0.1326
  692SOL    HW1 2654   7.864   5.615   5.237 -0.2009 -0.6531  0.0919
  692SOL    HW2 2655   7.933   5.496   5.300  0.7579  0.0147  0.3278
  693SOL     OW 2656   9.061   0.375   1.092  0.3343 -0.1566 -0.0009
  693SOL    HW1 2657   9.048   0.469   1.093  1.0627  0.0019 -1.7845
  693SOL    HW2 2658   9.151   0.362   1.122  0.2873 -0.2845  0.0911
  694SOL     OW 2659   2.620   1.019   3.761 -0.4168  0.4880 -0.3331
  694SOL    HW1 2660   2.681   0.967   3.708 -0.1685 -0.4219  0.8104
  694SOL    HW2 2661   2.584   1.083   3.699 -0.1375 -0.5221 -1.5944
  695SOL     OW 2662   7.397   5.686   2.478 -0.2149  0.9443  0.1613
  695SOL    HW1 2663   7.443   5.605   2.457 -1.1811  0.1407  1.0175
  695SOL    HW2 2664   7.386   5.684   2.573 -0.3239  2.0503  0.1936
  696SOL     OW 2665   0.145   4.598   3.655 -0.3938  0.4295 -0.1722
  696SOL    HW1 2666   0.118   4.516   3.614 -1.0322  0.6627 -0.2267
  696SOL    HW2 2667   0.227   4.576   3.701 -0.8808 -0.3927  0.3343
  697SOL     OW 2668   7.330   7.889   5.561 -0.0656 -0.1841 -0.8325
  697SOL    HW1 2669   7.291   7.812   5.602 -0.9781 -1.1517 -3.3067
  697SOL    HW2 2670   7.342   7.951   5.633  0.0261 -2.3318  1.1306
  698SOL     OW 2671   0.450   2.144   0.883 -0.5367 -0.1514  0.2175
  698SOL    HW1 2672   0.487   2.124   0.797  0.4991 -2.5712  1.1297
  698SOL    HW2 2673   0.523   2.178   0.934 -0.7200 -0.3469  0.6188
  699SOL     OW 2674   1.260   2.448   5.962  0.4973 -0.2694 -0.6547
  699SOL    HW1 2675   1.205   2.391   5.909 -1.3135  0.9487 -0.1741
  699SOL    HW2 2676   1.349   2.415   5.949 -0.3617 -2.5151 -1.2010
  700SOL     OW 2677   7.050   8.253   6.678 -0.2919  0.0651  0.4628
  700SOL    HW1 2678   7.115   8.259   6.608 -0.2797  0.9180  0.5332
  700SOL    HW2 2679   7.035   8.159   6.689 -2.2455 -0.1152 -2.4668
  701SOL     OW 2680   0.818   4.695   9.289 -0.7494  0.0676 -0.2739
  701SOL    HW1 2681   0.742   4.739   9.251 -1.1709 -1.0705 -0.7703
  701SOL    HW2 2682   0.893   4.733   9.243 -0.9196  1.8328  0.8272
  702SOL     OW 2683   2.657   6.550   9.906  0.4289  0.1383  0.1092
  702SOL    HW1 2684   2.627   6.551   9.816  0.5726  2.1044  0.0228
  702SOL    HW2 2685   2.676   6.458   9.925 -2.5554 -0.7740 -0.8213
  703SOL     OW 2686   2.489   8.872   0.442 -0.7769 -0.2799 -0.2233
  703SOL    HW1 2687   2.502   8.902   0.532 -1.4601 -0.3417 -0.0963
  703SOL    HW2 2688   2.465   8.780   0.450  1.5583 -0.9875 -0.6261
  704SOL     OW 2689   2.670   8.008   8.584 -0.3354  0.2555 -0.2933
  704SOL    HW1 2690   2.724   7.985   8.509  0.7373  1.2675  0.1508
  704SOL    HW2 2691   2.602   8.066   8.549  0.5253  1.2238 -0.3969
  705SOL     OW 2692   1.522   0.900   9.694  0.4422 -0.1220 -0.1962
  705SOL    HW1 2693   1.539   0.975   9.750 -1.7071 -0.5736  1.2068
  705SOL    HW2 2694   1.531   0.933   9.605  0.0263  1.6832  0.3892
  706SOL     OW 2695   8.388   7.238   8.517  0.0955 -0.4074 -0.4042
  706SOL    HW1 2696   8.337   7.240   8.597 -0.5412 -0.0488 -0.8103
  706SOL    HW2 2697   8.324   7.227   8.447  0.3679  1.8413 -1.0784
  707SOL     OW 2698   9.716   8.558   9.472  0.2976  0.1966  0.1376
  707SOL    HW1 2699   9.637   8.509   9.452  0.7003 -0.2295 -0.4289
  707SOL    HW2 2700   9.781   8.527   9.409  0.4319  1.8093 -0.5798
  708SOL     OW 2701   5.821   2.328   1.930 -0.0117  0.1677 -0.1018
  708SOL    HW1 2702   5.843   2.240   1.899  0.9867  0.3867 -0.0484
  708SOL    HW2 2703   5.768   2.313   2.008 -0.4220 -0.3866 -0.4745
  709SOL     OW 2704   0.087   5.865   3.784 -0.3259  0.2601 -0.3550
  709SOL    HW1 2705   0.104   5.813   3.862  0.1838  0.7755 -0.1166
  709SOL    HW2 2706   0.152   5.935   3.787 -0.6826  0.6245 -0.9289
  710SOL     OW 2707   0.560   9.872   6.010  0.0179 -0.2036  0.2787
  710SOL    HW1 2708   0.518   9.940   5.957 -0.7454 -1.1458 -0.3694
  710SOL    HW2 2709   0.505   9.866   6.088  0.9164  0.9070  1.0345
  711SOL     OW 2710   1.168   6.635   9.278  0.2705  0.0002  0.0095
  711SOL    HW1 2711   1.185   6.625   9.184 -1.3099  1.5165 -0.4852
  711SOL    HW2 2712   1.120   6.556   9.302  1.6631 -0.9332 -0.1702
  712SOL     OW 2713   3.791   7.169   8.913 -0.2313 -0.2062  0.1045
  712SOL    HW1 2714   3.703   7.138   8.934 -0.0200 -1.2143 -0.4257
  712SOL    HW2 2715   3.781   7.263   8.899 -0.8322  0.0572  2.0781
  713SOL     OW 2716   0.992   5.618   5.265  0.1053  0.5849  0.2645
  713SOL    HW1 2717   1.013   5.645   5.175  0.3096 -0.1487  0.0817
  713SOL    HW2 2718   0.928   5.548   5.254 -0.0071  0.6182  0.7015
  714SOL     OW 2719   0.920   7.058   6.521 -0.5658 -0.1014  0.1512
  714SOL    HW1 2720   0.949   6.969   6.505 -0.2376  0.3302 -2.0219
  714SOL    HW2 2721   0.871   7.054   6.603  0.5288 -1.9992  0.7592
  715SOL     OW 2722   1.148   6.908   7.499  0.3200 -0.6872  0.1898
  715SOL    HW1 2723   1.209   6.908   7.573  1.1942  0.7967 -0.4854
  715SOL    HW2 2724   1.201   6.878   7.425  0.1717  0.3231 -0.3423
  716SOL     OW 2725   6.304   8.367   4.303 -0.1525 -0.0970  0.6087
  716SOL    HW1 2726   6.225   8.321   4.330 -0.5141 -0.2686 -0.6897
  716SOL    HW2 2727   6.372   8.299   4.303 -0.4565 -0.4151 -0.2638
  717SOL     OW 2728   3.262   6.907   1.264  0.5343 -0.2068 -0.4224
  717SOL    HW1 2729   3.356   6.900   1.251  0.4538 -2.3201 -0.1991
  717SOL    HW2 2730   3.252   6.930   1.356  0.8244 -0.6824 -0.2693
  718SOL     OW 2731   3.762   0.506   2.508 -0.3501  0.1648  0.5934
  718SOL    HW1 2732   3.711   0.435   2.468  0.0958  0.1309  0.0766
  718SOL    HW2 2733   3.838   0.516   2.451 -1.3127  2.3326 -0.4174
  719SOL     OW 2734   5.811   0.786   1.420 -0.4066 -0.5981 -0.0938
  719SOL    HW1 2735   5.802   0.879   1.438  0.6730 -0.2404 -1.2624
  719SOL    HW2 2736   5.903   0.775   1.396 -0.2387 -2.1668  1.0765
  720SOL     OW 2737   8.823   7.835   3.147 -0.2523 -0.1285 -0.3733
  720SOL    HW1 2738   8.773   7.830   3.066  0.4640 -1.7454 -0.7490
  720SOL    HW2 2739   8.842   7.928   3.158 -0.3157  0.1019 -2.0824
  721SOL     OW 2740   9.456   0.804   9.946 -0.2389 -0.1504  0.1834
  721SOL    HW1 2741   9.538   0.764   9.916 -0.4875 -0.2263 -0.4197
  721SOL    HW2 2742   9.438   0.872   9.881 -0.1380  0.5327  0.8681
  722SOL     OW 2743   2.659   6.397   1.557 -0.1533  0.0591 -0.0667
  722SOL    HW1 2744   2.732   6.428   1.611 -1.1930  2.8798 -0.0934
  722SOL    HW2 2745   2.580   6.422   1.607 -1.1692 -2.8876 -0.0402
  723SOL     OW 2746   0.939   6.763   0.734 -1.0556  0.0156  0.0967
  723SOL    HW1 2747   1.014   6.790   0.787 -2.5295 -0.0295  2.3099
  723SOL    HW2 2748   0.968   6.776   0.643  1.9504 -0.9726  0.8281
  724SOL     OW 2749   9.901   7.385   1.253 -0.4723 -0.2753  1.1888
  724SOL    HW1 2750   9.931   7.360   1.340 -0.2331  0.0129  1.1893
  724SOL    HW2 2751   9.862   7.305   1.217  0.5782 -0.7512  1.0574
  725SOL     OW 2752   9.917   8.071   5.853 -0.1871 -0.4259 -0.3294
  725SOL    HW1 2753  10.008   8.078   5.826  0.8064 -1.8297  2.2477
  725SOL    HW2 2754   9.878   8.008   5.792  0.9517 -0.8413 -0.6407
  726SOL     OW 2755   9.456   3.077   6.292  0.1524  0.0387  0.1515
  726SOL    HW1 2756   9.433   2.992   6.254 -1.8063  0.8604 -0.6678
  726SOL    HW2 2757   9.393   3.138   6.253  0.2184  1.5306  2.2022
  727SOL     OW 2758   5.825   3.725   6.657 -0.1963  0.5507 -0.6557
  727SOL    HW1 2759   5.909   3.769   6.669 -0.5657  1.0903  0.0408
  727SOL    HW2 2760   5.839   3.636   6.687  0.6067  0.1143 -2.2248
  728SOL     OW 2761   0.405   6.388   8.757  0.0816 -0.6351 -0.6094
  728SOL    HW1 2762   0.361   6.375   8.673  0.8954 -1.9423 -0.8736
  728SOL    HW2 2763   0.495   6.414   8.734 -0.2949  1.2687 -0.0893
  729SOL     OW 2764   7.787   9.472   7.588 -0.0038  0.3271 -0.3247
  729SOL    HW1 2765   7.817   9.391   7.546  0.1489  0.2840 -0.1351
  729SOL    HW2 2766   7.867   9.522   7.603  0.2321 -0.6067  1.9080
  730SOL     OW 2767   7.723   1.570   6.913  0.1509  0.6922 -0.3425
  730SOL    HW1 2768   7.657   1.572   6.843  0.8141  0.2579 -0.9963
  730SOL    HW2 2769   7.694   1.499   6.970 -0.8410  1.5776  0.2894
  731SOL     OW 2770   7.049   6.799   6.741  0.1528  0.5409 -0.1482
  731SOL    HW1 2771   6.989   6.725   6.734 -0.0082  0.4437  1.8444
  731SOL    HW2 2772   7.079   6.814   6.651 -3.0809  0.8438 -1.2798
  732SOL     OW 2773   5.323   7.294   3.832  0.0926  0.2194 -0.0407
  732SOL    HW1 2774   5.374   7.283   3.913  1.5457 -1.2293 -1.0918
  732SOL    HW2 2775   5.323   7.389   3.817 -0.2567  0.5213  1.6718
  733SOL     OW 2776   2.541   7.976   2.147  0.3218 -0.1726  0.2416
  733SOL    HW1 2777   2.507   8.000   2.060 -0.6205  1.3135  0.9651
  733SOL    HW2 2778   2.523   7.883   2.155  0.7038 -0.4018 -1.2741
  734SOL     OW 2779   9.361   0.625   1.202 -0.2900  0.5278  0.2531
  734SOL    HW1 2780   9.454   0.603   1.203 -0.9873 -3.0372 -1.1334
  734SOL    HW2 2781   9.360   0.721   1.194  3.2180  0.6464 -0.5338
  735SOL     OW 2782   3.279   8.006   6.880  0.4342  0.1515 -0.2781
  735SOL    HW1 2783   3.184   8.017   6.881  0.2432 -1.2927 -0.2515
  735SOL    HW2 2784   3.314   8.093   6.900 -0.8590  0.8722 -1.0278
  736SOL     OW 2785   3.805   4.745   6.212  0.5275 -0.4429  0.0098
  736SOL    HW1 2786   3.744   4.812   6.243  0.4583 -0.4379 -0.1337
  736SOL    HW2 2787   3.889   4.789   6.207  1.0964 -1.0704  2.5814
  737SOL     OW 2788   7.415   5.296   3.981 -0.0296 -0.2688 -0.4653
  737SOL    HW1 2789   7.340   5.355   3.971  0.0492 -0.1033 -0.1179
  737SOL    HW2 2790   7.404   5.258   4.068  0.0877 -0.5329 -0.5642
  738SOL     OW 2791   1.073   1.551   6.006  0.8779  0.1490 -0.1500
  738SOL    HW1 2792   1.116   1.566   6.091 -0.2783 -0.9615  0.6591
  738SOL    HW2 2793   1.008   1.621   6.000 -0.6231 -1.0718  0.9963
  739SOL     OW 2794   7.326   9.716   3.778  0.8164  0.7874  0.1949
  739SOL    HW1 2795   7.387   9.675   3.717 -0.3797 -0.1360 -0.4149
  739SOL    HW2 2796   7.270   9.771   3.722  0.1764  0.5032  0.5481
  740SOL     OW 2797   3.795   6.638   6.707 -0.5543  0.6232 -0.1836
  740SOL    HW1 2798   3.732   6.572   6.677 -1.8866  1.9951 -0.5571
  740SOL    HW2 2799   3.784   6.639   6.802  0.0206 -0.1895 -0.0949
  741SOL     OW 2800   8.888   0.950   9.470 -0.1532  0.0059 -0.0021
  741SOL    HW1 2801   8.849   0.881   9.523  1.4488 -1.9439 -1.1527
  741SOL    HW2 2802   8.853   0.935   9.382 -0.4322  1.2418 -0.1237
  742SOL     OW 2803   6.193   7.112   9.314  0.1858 -0.9715  0.1917
  742SOL    HW1 2804   6.102   7.103   9.343  0.0939  2.2095  1.2254
  742SOL    HW2 2805   6.245   7.104   9.394  0.5653 -0.0634  0.0515
  743SOL     OW 2806   4.644   6.853   1.794  0.5388  0.4054 -0.3557
  743SOL    HW1 2807   4.650   6.790   1.722  1.0213  2.0595 -1.8202
  743SOL    HW2 2808   4.666   6.937   1.755  0.0717  1.4922  1.5784
  744SOL     OW 2809   3.500   8.783   0.184 -0.0095 -0.4977  0.3957
  744SOL    HW1 2810   3.479   8.792   0.277 -1.8060 -2.2055  0.2283
  744SOL    HW2 2811   3.543   8.698   0.177 -1.0239 -0.9660 -0.4635
  745SOL     OW 2812   0.884   1.197   2.103 -0.0132 -0.5860 -0.4977
  745SOL    HW1 2813   0.967   1.243   2.094 -0.5653  0.1203 -2.3796
  745SOL    HW2 2814   0.887   1.129   2.036  0.0973 -2.2978  1.1559
  746SOL     OW 2815   0.916   2.685   7.803 -0.7384 -0.1054 -0.3505
  746SOL    HW1 2816   0.928   2.655   7.713 -0.1002 -0.5307 -0.1300
  746SOL    HW2 2817   0.993   2.738   7.821  0.6354 -2.3890  0.8921
  747SOL     OW 2818   4.369   8.538   0.124  0.2801 -0.3372  0.1354
  747SOL    HW1 2819   4.294   8.497   0.082  0.0965 -1.3633  1.4155
  747SOL    HW2 2820   4.445   8.490   0.091  0.2322 -0.4179  0.1448
  748SOL     OW 2821   7.533   5.159   3.637 -0.0316  0.3217 -0.3477
  748SOL    HW1 2822   7.461   5.096   3.627 -0.3885  0.8155 -0.9315
  748SOL    HW2 2823   7.491   5.245   3.634  0.2303  0.6111  2.1588
  749SOL     OW 2824   7.697   2.669   0.488  0.3732  0.1644 -0.0234
  749SOL    HW1 2825   7.743   2.649   0.407  3.8139 -1.8356  2.1738
  749SOL    HW2 2826   7.722   2.760   0.508  2.5864 -0.5002  0.5098
  750SOL     OW 2827   7.834   1.933   2.689 -0.0434  0.0427  0.3553
  750SOL    HW1 2828   7.750   1.950   2.646 -0.8205 -0.1407  1.7214
  750SOL    HW2 2829   7.888   1.890   2.622 -1.5162 -1.0900 -0.1615
  751SOL     OW 2830   2.764   1.102   3.005 -0.8832  0.0300 -0.0356
  751SOL    HW1 2831   2.684   1.123   2.957 -0.9431 -2.7349 -1.3757
  751SOL    HW2 2832   2.812   1.043   2.946 -0.3195 -2.5037  2.7262
  752SOL     OW 2833   5.334   0.695   5.273  0.6045 -0.0416  0.0153
  752SOL    HW1 2834   5.424   0.681   5.302 -0.0841  0.5948  2.7379
  752SOL    HW2 2835   5.296   0.607   5.273  0.4809 -0.0356  1.7986
  753SOL     OW 2836   7.983   3.668   9.813  0.1417  0.0190 -0.5037
  753SOL    HW1 2837   7.918   3.737   9.807  0.7681  0.6794  0.0552
  753SOL    HW2 2838   7.948   3.596   9.760 -1.6979 -0.1901  0.9049
  754SOL     OW 2839   6.808   2.176   1.976 -0.2487  0.2217 -0.4545
  754SOL    HW1 2840   6.828   2.204   1.886 -0.4418  0.6758 -0.3580
  754SOL    HW2 2841   6.715   2.193   1.986 -0.3589 -0.4052 -0.3689
  755SOL     OW 2842   9.534   6.792   3.977 -0.1604  0.2780  0.0606
  755SOL    HW1 2843   9.487   6.709   3.972  0.1395  0.1145 -0.0951
  755SOL    HW2 2844   9.621   6.768   4.010  0.5009  0.2813 -1.5815
  756SOL     OW 2845   9.813   9.168   2.692 -0.1103  0.2191 -0.1354
  756SOL    HW1 2846   9.768   9.253   2.686  0.1477  0.3209 -0.5987
  756SOL    HW2 2847   9.839   9.162   2.784  0.1548  0.7916 -0.1683
  757SOL     OW 2848   9.568   0.006   2.500  0.7885  0.6328  0.4953
  757SOL    HW1 2849   9.562   0.031   2.593  0.9851 -2.3417  1.4320
  757SOL    HW2 2850   9.659  -0.020   2.488  0.3009 -0.9609  0.0727
  758SOL     OW 2851   3.636   1.590   7.626  0.4933  0.1624  0.2570
  758SOL    HW1 2852   3.582   1.664   7.597  0.6925  0.2523  0.1070
  758SOL    HW2 2853   3.582   1.544   7.690  0.0331 -0.0516 -0.2769
  759SOL     OW 2854   6.852   3.737   9.097  0.2033  0.2479 -0.3331
  759SOL    HW1 2855   6.821   3.738   9.007 -2.8214 -0.4820  0.5910
  759SOL    HW2 2856   6.907   3.658   9.102 -0.2142 -0.1223 -1.3383
  760SOL     OW 2857   9.278   7.078   0.033 -0.3528  0.3436  0.2438
  760SOL    HW1 2858   9.316   7.089  -0.054  0.9639 -1.2474  0.5733
  760SOL    HW2 2859   9.223   7.155   0.045 -2.1582 -0.3194 -2.7854
  761SOL     OW 2860   5.645   6.219   6.904  0.5590 -0.4719 -0.4122
  761SOL    HW1 2861   5.680   6.172   6.980 -2.3668 -2.7059 -0.2688
  761SOL    HW2 2862   5.610   6.300   6.939 -1.2465 -1.7188  0.8611
  762SOL     OW 2863   2.929   1.022   2.795  0.3492 -0.4946 -0.1912
  762SOL    HW1 2864   2.982   0.988   2.723 -0.2545 -1.0896 -0.3739
  762SOL    HW2 2865   2.924   1.116   2.778 -0.0890 -0.6712 -1.1551
  763SOL     OW 2866   6.343   8.421   4.621  0.5442 -1.1282 -0.3125
  763SOL    HW1 2867   6.273   8.486   4.622  0.8215 -0.8300 -0.3502
  763SOL    HW2 2868   6.407   8.455   4.558  1.2091 -0.8902  0.4827
  764SOL     OW 2869   3.862   4.796   5.487 -0.0313 -0.9655 -0.3264
  764SOL    HW1 2870   3.851   4.802   5.582  1.7286  2.7799 -0.1485
  764SOL    HW2 2871   3.938   4.739   5.475  1.0011  0.1282  0.7242
  765SOL     OW 2872   2.530   0.782   6.577  0.2859 -0.9024 -0.0709
  765SOL    HW1 2873   2.527   0.714   6.510 -1.0711 -1.3233  0.3834
  765SOL    HW2 2874   2.519   0.736   6.660 -0.8362 -0.1550  0.2307
  766SOL     OW 2875   4.817   2.900   5.189  0.7273 -0.7159 -0.3800
  766SOL    HW1 2876   4.831   2.806   5.195  1.9110 -0.6558 -1.4966
  766SOL    HW2 2877   4.874   2.937   5.257  1.7387 -0.7537 -1.1662
  767SOL     OW 2878   8.037   4.693   9.417  0.0284 -0.1632  0.2394
  767SOL    HW1 2879   7.968   4.649   9.368  0.0801  0.6508 -0.5801
  767SOL    HW2 2880   8.004   4.782   9.429  1.2947  0.4987 -0.9406
  768SOL     OW 2881   2.169   3.003   7.276  0.2394  0.4596  0.5265
  768SOL    HW1 2882   2.075   3.005   7.288  0.4301  1.0354  2.0592
  768SOL    HW2 2883   2.195   3.095   7.269  0.5596  0.2861 -1.3097
  769SOL     OW 2884   2.139   1.015   1.226  0.5449  0.3717  0.1642
  769SOL    HW1 2885   2.216   1.003   1.170  0.7935  0.1890  0.5430
  769SOL    HW2 2886   2.134   1.109   1.241  1.3961  0.2824  1.1114
  770SOL     OW 2887   7.860   9.488   2.814  0.0030 -0.7766 -0.0557
  770SOL    HW1 2888   7.779   9.539   2.817 -1.0746 -2.4213  1.2093
  770SOL    HW2 2889   7.860   9.446   2.728 -0.7615 -1.1455  0.1171
  771SOL     OW 2890   9.368   6.195   7.733 -0.1069  0.3845  0.2886
  771SOL    HW1 2891   9.432   6.253   7.774 -1.0243  0.6086  1.4591
  771SOL    HW2 2892   9.376   6.112   7.781  0.1295  0.0289 -0.3545
  772SOL     OW 2893   0.334   7.928   7.182  0.1542 -0.4397  0.4330
  772SOL    HW1 2894   0.330   7.859   7.116  0.6262 -0.2732  0.2264
  772SOL    HW2 2895   0.318   8.009   7.133 -1.9955 -0.5146  0.9116
  773SOL     OW 2896   3.715   8.540   0.539 -0.5320  0.1731 -0.2213
  773SOL    HW1 2897   3.743   8.628   0.516  0.8321 -0.1845 -0.0186
  773SOL    HW2 2898   3.644   8.553   0.602 -1.5780  1.1215 -1.5446
  774SOL     OW 2899   6.942   9.776   0.281  0.0888 -0.2893 -0.2173
  774SOL    HW1 2900   6.924   9.687   0.252 -2.9022 -0.0969  0.6863
  774SOL    HW2 2901   6.947   9.828   0.201 -0.5768 -0.8942 -0.6569
  775SOL     OW 2902   6.695   6.696   7.867  0.4102  0.0530 -0.2978
  775SOL    HW1 2903   6.761   6.627   7.860 -0.3598 -0.7113 -0.2654
  775SOL    HW2 2904   6.735   6.773   7.826  0.6401 -0.8829 -1.9084
  776SOL     OW 2905   4.704   1.165   7.095 -0.0670 -0.0959 -0.0414
  776SOL    HW1 2906   4.678   1.076   7.070  0.6514 -0.2379 -0.3241
  776SOL    HW2 2907   4.790   1.176   7.054  0.1229  0.5009  0.5148
  777SOL     OW 2908   1.841   9.543   0.162  0.1553 -0.2830 -0.5793
  777SOL    HW1 2909   1.865   9.450   0.158  0.5835 -0.1624 -0.8956
  777SOL    HW2 2910   1.920   9.589   0.135  0.0538  0.1913 -0.0791
  778SOL     OW 2911   8.875   0.499   1.370 -0.1226  0.1786  0.1901
  778SOL    HW1 2912   8.850   0.500   1.278  1.2728 -0.6643 -0.2189
  778SOL    HW2 2913   8.793   0.486   1.417 -0.6456 -1.0056 -1.0097
  779SOL     OW 2914   9.752   0.208   5.977  0.1082  0.0385  0.4431
  779SOL    HW1 2915   9.690   0.280   5.968  0.2001  0.0814  0.1493
  779SOL    HW2 2916   9.733   0.150   5.903 -0.8644 -0.9299  1.4046
  780SOL     OW 2917   8.465   4.492   1.796  0.9587 -0.0725 -0.2809
  780SOL    HW1 2918   8.505   4.576   1.819  2.0581 -0.8733  0.8763
  780SOL    HW2 2919   8.517   4.461   1.722  0.1734  0.5174 -1.0992
  781SOL     OW 2920   8.741   0.008   8.855  0.2002  0.6227  0.5888
  781SOL    HW1 2921   8.815   0.057   8.820 -0.5641  0.7579 -0.9353
  781SOL    HW2 2922   8.665   0.040   8.805 -0.3162 -2.1877 -0.6111
  782SOL     OW 2923   3.177   1.687   0.626 -0.2334  1.0069 -0.6492
  782SOL    HW1 2924   3.113   1.634   0.579  0.3237 -0.1571 -0.1214
  782SOL    HW2 2925   3.261   1.661   0.590  0.3107 -0.6322  1.5736
  783SOL     OW 2926   9.305   1.425   3.970  0.0452 -0.4199  0.0335
  783SOL    HW1 2927   9.301   1.441   4.065  3.1427 -1.1165  0.3720
  783SOL    HW2 2928   9.250   1.347   3.957 -1.0889  0.1595  1.0808
  784SOL     OW 2929   8.340   3.896   8.063  0.4971 -0.5195  0.6964
  784SOL    HW1 2930   8.303   3.982   8.045  0.9575 -0.4365  0.1402
  784SOL    HW2 2931   8.426   3.914   8.101  0.2354 -0.7232  1.3944
  785SOL     OW 2932   8.894   7.142   0.474 -0.5351  0.0883  0.3829
  785SOL    HW1 2933   8.953   7.123   0.401 -1.9369  0.2096 -0.8257
  785SOL    HW2 2934   8.942   7.205   0.528  1.1160 -1.1140  0.3758
  786SOL     OW 2935   4.380   6.997   5.836 -0.0273 -0.2629  0.3510
  786SOL    HW1 2936   4.323   7.041   5.899  1.7977  0.4410  1.6087
  786SOL    HW2 2937   4.421   7.068   5.787  0.4380 -0.7003  0.0981
  787SOL     OW 2938   9.048   2.754   5.839 -0.4858 -0.1828  0.5925
  787SOL    HW1 2939   9.113   2.711   5.784 -0.4371  0.1713  0.3648
  787SOL    HW2 2940   9.045   2.844   5.806 -1.1640 -0.2202  0.5328
  788SOL     OW 2941   7.644   0.350   4.501 -0.7949 -1.1134 -0.3956
  788SOL    HW1 2942   7.621   0.319   4.588 -2.1757 -0.3683 -0.4751
  788SOL    HW2 2943   7.625   0.443   4.503 -0.3521 -0.9906 -1.3467
  789SOL     OW 2944   1.155   5.225   6.688  0.1420 -0.6362 -0.4486
  789SOL    HW1 2945   1.171   5.313   6.655 -0.6899  0.5438  2.0376
  789SOL    HW2 2946   1.066   5.204   6.661  0.2864 -0.6794 -0.9054
  790SOL     OW 2947   0.273   2.272   9.645  0.2477 -0.5569  0.6784
  790SOL    HW1 2948   0.278   2.269   9.741 -2.1131 -2.7976  0.8403
  790SOL    HW2 2949   0.298   2.185   9.617 -0.2632 -0.2914 -0.6550
  791SOL     OW 2950   2.289   5.668   1.465  0.1310 -0.3090 -0.0223
  791SOL    HW1 2951   2.328   5.582   1.477  3.0749  0.9720  0.3254
  791SOL    HW2 2952   2.356   5.729   1.493 -2.4398  2.1280  1.3298
  792SOL     OW 2953   0.437   3.292   5.097  0.4046  0.2572 -0.4397
  792SOL    HW1 2954   0.525   3.314   5.067  0.3820  0.8476 -0.1002
  792SOL    HW2 2955   0.450   3.247   5.180  0.4352 -0.7641 -0.9828
  793SOL     OW 2956   8.980   8.388   5.706 -0.7398  0.0105  0.1053
  793SOL    HW1 2957   9.034   8.323   5.751 -1.4956 -0.4412  0.3692
  793SOL    HW2 2958   8.980   8.359   5.615  1.4611  1.3694 -0.4242
  794SOL     OW 2959   8.721   6.159   4.991 -0.5975 -0.3668 -0.5268
  794SOL    HW1 2960   8.732   6.235   5.048  1.4862  0.3777 -1.8239
  794SOL    HW2 2961   8.747   6.084   5.044 -1.4996 -0.0584  0.3767
  795SOL     OW 2962   5.373   1.594   3.548  0.0355  0.2657  0.1367
  795SOL    HW1 2963   5.336   1.654   3.612 -0.6835  0.2903 -0.2921
  795SOL    HW2 2964   5.466   1.616   3.546 -0.4131  2.3332 -1.0107
  796SOL     OW 2965   7.057   3.769   8.883  0.1537  0.6211 -0.3938
  796SOL    HW1 2966   7.115   3.744   8.954 -0.9093  0.0161  0.2989
  796SOL    HW2 2967   6.970   3.741   8.912 -0.2880  0.1791 -2.0033
  797SOL     OW 2968   5.714   7.931   0.545 -0.3095  0.0215 -0.1362
  797SOL    HW1 2969   5.777   7.861   0.566  1.7259  2.2412  1.6097
  797SOL    HW2 2970   5.644   7.921   0.610  0.0760 -0.2634  0.2422
  798SOL     OW 2971   4.118   4.513   8.086 -0.2513  0.6312 -0.9123
  798SOL    HW1 2972   4.127   4.487   7.995  0.6634  0.7112 -0.8514
  798SOL    HW2 2973   4.048   4.457   8.120  1.1823 -1.2718 -0.9587
  799SOL     OW 2974   5.651   2.979   5.074  0.2334  0.2373 -0.0366
  799SOL    HW1 2975   5.642   2.908   5.138 -0.2441  1.5858  1.4651
  799SOL    HW2 2976   5.696   3.049   5.121  1.3347  0.7008 -1.6954
  800SOL     OW 2977   3.488   3.457   7.426 -0.0249 -0.5664 -0.2752
  800SOL    HW1 2978   3.423   3.398   7.387 -1.2408 -0.1144  0.9556
  800SOL    HW2 2979   3.452   3.545   7.412  0.4504 -0.2934  0.1812
  801SOL     OW 2980   3.647   8.138   6.801  0.1577  0.5363  0.1006
  801SOL    HW1 2981   3.614   8.049   6.798 -1.0148  0.9479  0.2051
  801SOL    HW2 2982   3.679   8.150   6.890 -0.6108  0.5315  0.3834
  802SOL     OW 2983   3.806   6.081   1.367 -0.3835 -0.1886  0.6994
  802SOL    HW1 2984   3.824   5.989   1.387 -0.4241 -0.3556 -0.0175
  802SOL    HW2 2985   3.720   6.097   1.406 -0.7054 -0.6649  0.2018
  803SOL     OW 2986   8.582   5.136   7.101  0.6828  0.0043 -0.0049
  803SOL    HW1 2987   8.589   5.164   7.193  0.9480  2.7166 -0.7554
  803SOL    HW2 2988   8.672   5.117   7.075  0.4673 -1.9593  0.5940
  804SOL     OW 2989   2.745   9.861   5.361  0.3064 -0.5847  0.1423
  804SOL    HW1 2990   2.697   9.796   5.412  1.2930 -0.9703  0.6164
  804SOL    HW2 2991   2.822   9.814   5.328  0.7206  0.1815 -0.0226
  805SOL     OW 2992   7.111   0.918   6.946  0.0364 -0.4213  0.0945
  805SOL    HW1 2993   7.053   0.975   6.997  0.4629  0.1913 -0.1035
  805SOL    HW2 2994   7.106   0.833   6.991 -3.1579 -1.2117 -1.4634
  806SOL     OW 2995   7.638   3.922   7.955 -0.3344  0.2100  0.7714
  806SOL    HW1 2996   7.691   3.928   8.034 -0.1676  3.4204  0.5241
  806SOL    HW2 2997   7.664   3.997   7.902 -0.9902 -1.3789 -2.0431
  807SOL     OW 2998   3.677   2.998   3.492 -0.0917  0.0323  0.6079
  807SOL    HW1 2999   3.686   2.916   3.539  0.6674  1.0314  2.2966
  807SOL    HW2 3000   3.619   3.051   3.547  1.2897  1.4414  0.7748
  808SOL     OW 3001   7.602   5.205   9.592 -0.6963 -0.4483  0.2353
  808SOL    HW1 3002   7.632   5.251   9.513 -0.3756 -0.6031  0.2654
  808SOL    HW2 3003   7.512   5.235   9.604 -0.6978 -0.3083 -0.1033
  809SOL     OW 3004   4.524   2.798   8.085 -0.1554 -0.0492 -0.3735
  809SOL    HW1 3005   4.475   2.865   8.133  0.2748 -1.8224  2.7928
  809SOL    HW2 3006   4.605   2.843   8.058 -0.8234  1.2643 -0.2968
  810SOL     OW 3007   3.128   1.182   8.801  0.4758 -0.2747 -0.7020
  810SOL    HW1 3008   3.184   1.105   8.791 -0.0925 -0.6101 -1.4469
  810SOL    HW2 3009   3.170   1.235   8.869  1.6519 -0.5394 -1.2159
  811SOL     OW 3010   2.302   0.783   0.652  0.3499  0.7315  0.2808
  811SOL    HW1 3011   2.286   0.810   0.562 -0.5292  0.8947  0.4744
  811SOL    HW2 3012   2.305   0.687   0.648  3.1826  0.7590 -0.3548
  812SOL     OW 3013   6.571   1.189   0.860  0.0372  0.4631  0.0412
  812SOL    HW1 3014   6.517   1.226   0.930  0.0897 -1.0113  0.8900
  812SOL    HW2 3015   6.576   1.096   0.880  4.7149  0.7270  1.2806
  813SOL     OW 3016   7.343   2.037   8.091 -0.3220  0.0029 -0.5828
  813SOL    HW1 3017   7.296   2.087   8.158 -0.7493  1.0428 -1.6219
  813SOL    HW2 3018   7.391   2.104   8.041  3.0745 -1.0375  0.9711
  814SOL     OW 3019   0.730   0.970   9.467  0.1493  0.0643 -0.3733
  814SOL    HW1 3020   0.793   1.013   9.409  0.6431 -0.6234 -0.3537
  814SOL    HW2 3021   0.662   1.037   9.482  2.0411  1.7084  1.5132
  815SOL     OW 3022   5.345   0.823   5.636 -0.2766  0.3931  0.4058
  815SOL    HW1 3023   5.330   0.874   5.557  0.4177 -0.9148 -0.6084
  815SOL    HW2 3024   5.280   0.754   5.633 -0.9862  0.9805  1.5934
  816SOL     OW 3025   0.932   4.541   4.685 -0.7314  0.0535  0.1069
  816SOL    HW1 3026   0.963   4.619   4.638  2.9308 -1.4585 -0.3125
  816SOL    HW2 3027   0.924   4.570   4.776 -0.7017  1.2300 -0.2397
  817SOL     OW 3028   3.277   8.008   7.247  0.5064 -0.3597 -0.1190
  817SOL    HW1 3029   3.246   7.949   7.316 -0.4956 -1.3208 -1.3514
  817SOL    HW2 3030   3.317   7.951   7.182 -1.2789  0.1774 -1.7740
  818SOL     OW 3031   6.191   6.965   9.000  0.8361  0.1342 -0.1558
  818SOL    HW1 3032   6.224   7.055   8.994 -2.0595  1.3863  0.8107
  818SOL    HW2 3033   6.218   6.935   9.087  0.1287  0.8654  0.3318
  819SOL     OW 3034   2.031   3.303   9.360 -0.2542 -0.8092 -0.0242
  819SOL    HW1 3035   1.962   3.279   9.421  0.0648 -0.3930  0.5152
  819SOL    HW2 3036   2.108   3.318   9.415  0.3933 -1.7250 -0.6560
  820SOL     OW 3037   3.665   2.531   3.686  0.2209 -0.3175  0.2614
  820SOL    HW1 3038   3.684   2.520   3.593 -0.8188 -1.6687  0.1796
  820SOL    HW2 3039   3.705   2.454   3.727  1.5657  0.7872  1.0910
  821SOL     OW 3040   2.828   4.728   2.701 -0.3319 -0.6248  0.1323
  821SOL    HW1 3041   2.739   4.701   2.678  0.0370 -2.0002  0.2501
  821SOL    HW2 3042   2.883   4.655   2.672  0.8230  0.4350 -0.4317
  822SOL     OW 3043   8.394   6.081   3.753 -0.2440 -0.2730 -0.4806
  822SOL    HW1 3044   8.490   6.080   3.758 -0.2813 -1.7511  0.5920
  822SOL    HW2 3045   8.370   5.990   3.736 -1.5560 -0.6390  2.6297
  823SOL     OW 3046   7.937   8.383   4.293 -0.4420 -0.5760 -0.4683
  823SOL    HW1 3047   8.032   8.382   4.279 -0.4788 -1.5510 -0.7474
  823SOL    HW2 3048   7.925   8.430   4.375  0.3638 -1.2446  0.0509
  824SOL     OW 3049   5.681   3.430   2.403 -0.2833  0.5380  0.1804
  824SOL    HW1 3050   5.754   3.390   2.356 -1.4251 -0.8767 -0.4879
  824SOL    HW2 3051   5.722   3.484   2.470  1.3786 -0.4320  0.0061
  825SOL     OW 3052   9.571   7.462   4.084 -0.1670  0.0658 -0.2976
  825SOL    HW1 3053   9.526   7.378   4.098 -0.4184  0.3730  0.8034
  825SOL    HW2 3054   9.656   7.438   4.047 -0.7358 -0.5927 -1.2349
  826SOL     OW 3055   7.233   9.113   5.748 -0.0117  0.1738 -0.2827
  826SOL    HW1 3056   7.261   9.056   5.820 -1.5019 -1.5988 -1.0078
  826SOL    HW2 3057   7.139   9.124   5.762 -0.2154  0.2476 -1.6262
  827SOL     OW 3058   3.330   3.652   3.458 -0.5092 -0.1685  0.5030
  827SOL    HW1 3059   3.277   3.673   3.381  0.0343  1.6909  0.5994
  827SOL    HW2 3060   3.293   3.706   3.528  1.9075  1.8163  0.3901
  828SOL     OW 3061   1.057   5.370   3.749  0.1206  0.2265 -0.1508
  828SOL    HW1 3062   1.105   5.450   3.729 -1.3627  0.6248 -2.5094
  828SOL    HW2 3063   1.125   5.303   3.755  1.1890  1.2186 -0.6822
  829SOL     OW 3064   7.020   3.815   4.495 -0.5676  0.2207  0.0312
  829SOL    HW1 3065   7.109   3.849   4.507 -0.1570  1.1138 -4.1805
  829SOL    HW2 3066   6.966   3.870   4.553  1.2513  1.8409  0.2947
  830SOL     OW 3067   2.108   4.870   4.615  0.2036 -0.3682 -0.7530
  830SOL    HW1 3068   2.143   4.953   4.647  1.3610 -0.2465 -2.2277
  830SOL    HW2 3069   2.098   4.883   4.521 -0.9874 -1.4425 -0.7999
  831SOL     OW 3070   5.117   6.657   0.948 -0.4298  0.1727  0.4859
  831SOL    HW1 3071   5.150   6.719   1.013  1.9307 -1.1145  0.6339
  831SOL    HW2 3072   5.075   6.712   0.881  0.9895  1.8838  0.9276
  832SOL     OW 3073   1.021   0.565   2.733  0.1759  0.3385 -0.2706
  832SOL    HW1 3074   0.961   0.600   2.668  0.8002  1.5454 -0.2469
  832SOL    HW2 3075   1.015   0.470   2.724 -1.3083  0.4381 -0.6305
  833SOL     OW 3076   8.599   1.200   2.621 -0.4446 -0.4146 -0.2227
  833SOL    HW1 3077   8.545   1.200   2.542 -1.3809 -1.3236  0.3866
  833SOL    HW2 3078   8.595   1.110   2.653 -0.7379  0.1031  1.2820
  834SOL     OW 3079   6.660   7.454   2.567 -0.4591  0.2980 -0.5848
  834SOL    HW1 3080   6.576   7.408   2.573 -0.5950  0.7119  1.3268
  834SOL    HW2 3081   6.715   7.410   2.632 -0.7665  3.0742  1.7618
  835SOL     OW 3082   1.128   4.781   0.930  0.2511 -0.5983  0.1369
  835SOL    HW1 3083   1.200   4.757   0.988  1.1396  1.3543 -0.0766
  835SOL    HW2 3084   1.054   4.797   0.990 -0.0065 -2.4660  0.3647
  836SOL     OW 3085   7.206  -0.004   5.924  0.5793  0.2722 -0.6165
  836SOL    HW1 3086   7.297  -0.020   5.899  0.1460  0.1394 -2.2468
  836SOL    HW2 3087   7.210   0.068   5.986  1.7897  0.3969 -0.8190
  837SOL     OW 3088   5.411   7.340   0.930 -0.0671 -0.0867 -0.0541
  837SOL    HW1 3089   5.321   7.345   0.898 -0.0061  1.3666 -0.0454
  837SOL    HW2 3090   5.456   7.414   0.890  0.2495  1.2556  2.5643
  838SOL     OW 3091   7.380   6.771   7.167  0.2261  0.1229  0.3770
  838SOL    HW1 3092   7.349   6.770   7.076 -0.8102  2.4737  0.6251
  838SOL    HW2 3093   7.396   6.679   7.188  1.6021 -0.3999 -2.5157
  839SOL     OW 3094   1.498   9.759   5.139 -0.3768  0.0707  0.2063
  839SOL    HW1 3095   1.454   9.730   5.219  0.2785  0.2610  0.6449
  839SOL    HW2 3096   1.579   9.800   5.170 -0.5079  0.9053 -0.4959
  840SOL     OW 3097   1.508   9.324   9.615 -0.4681 -0.2429  0.4910
  840SOL    HW1 3098   1.532   9.278   9.535  2.3579  2.1664 -0.2304
  840SOL    HW2 3099   1.492   9.414   9.588  2.2962  1.0770  2.7171
  841SOL     OW 3100   0.173   7.209   9.883 -0.4719 -0.5193 -0.3411
  841SOL    HW1 3101   0.256   7.258   9.887 -0.3027 -0.6324 -1.7814
  841SOL    HW2 3102   0.106   7.275   9.899 -0.1434 -0.2687  0.0313
  842SOL     OW 3103   2.818   5.075   7.209  0.1690 -0.0312  0.5410
  842SOL    HW1 3104   2.854   5.088   7.296  0.4566 -1.3700  0.6439
  842SOL    HW2 3105   2.726   5.054   7.224 -0.4162  2.1398  0.3498
  843SOL     OW 3106   9.466   3.358   1.951 -0.2087 -0.6685 -0.1516
  843SOL    HW1 3107   9.380   3.395   1.974  0.1429 -0.9971  1.9367
  843SOL    HW2 3108   9.491   3.308   2.029  1.0294 -2.1873 -1.4562
  844SOL     OW 3109   6.096   0.963   0.341 -0.4604  0.0575 -0.2048
  844SOL    HW1 3110   6.102   0.966   0.437 -0.1353  1.2528 -0.2451
  844SOL    HW2 3111   6.088   1.055   0.315 -1.7545 -0.3193 -1.2610
  845SOL     OW 3112   9.579   1.089   4.342 -0.1656 -0.1300  0.2026
  845SOL    HW1 3113   9.664   1.090   4.386  0.2766 -0.2932 -0.6210
  845SOL    HW2 3114   9.567   0.997   4.317  1.3733  0.4430 -3.2913
  846SOL     OW 3115   1.497   3.224   4.313 -0.5233 -0.3102  0.1862
  846SOL    HW1 3116   1.437   3.162   4.354 -2.1378  0.6426 -0.6141
  846SOL    HW2 3117   1.466   3.310   4.343  2.1042  0.1736  1.8670
  847SOL     OW 3118   7.964   9.864   1.050 -0.0691 -0.3590  0.3764
  847SOL    HW1 3119   7.954   9.773   1.022 -1.8553  0.2665 -1.2598
  847SOL    HW2 3120   7.992   9.910   0.971  1.6117  0.4406  1.3736
  848SOL     OW 3121   6.256   6.863   0.676 -0.2794  0.2360 -0.4904
  848SOL    HW1 3122   6.160   6.864   0.676 -0.3162  2.6542  0.3706
  848SOL    HW2 3123   6.279   6.866   0.583 -1.0812  0.8994 -0.6868
  849SOL     OW 3124   7.239   7.798   2.565 -0.2943 -0.3448  0.5232
  849SOL    HW1 3125   7.171   7.787   2.498  0.8596 -2.2955 -0.4027
  849SOL    HW2 3126   7.316   7.826   2.517  0.6646 -2.1463  0.9357
  850SOL     OW 3127   3.074   2.801   2.532  0.2727 -0.2437 -0.5696
  850SOL    HW1 3128   3.049   2.879   2.581  0.6141 -2.0566  2.7792
  850SOL    HW2 3129   3.169   2.808   2.521  0.5324 -0.7631  1.0263
  851SOL     OW 3130   2.124   4.112   1.067  0.3244 -0.0736  0.2435
  851SOL    HW1 3131   2.075   4.188   1.100  0.5096  0.9266 -1.6172
  851SOL    HW2 3132   2.214   4.127   1.096  1.2068  2.5342 -3.1149
  852SOL     OW 3133   2.206   9.451   9.289 -0.2950  0.0223  0.5030
  852SOL    HW1 3134   2.166   9.531   9.254 -0.6661 -0.4013 -0.0622
  852SOL    HW2 3135   2.135   9.407   9.336 -0.8029 -1.1849 -1.2641
  853SOL     OW 3136   1.645   8.894   1.382 -0.0974  0.6555  0.4219
  853SOL    HW1 3137   1.581   8.860   1.319  0.9823  1.5996 -1.2860
  853SOL    HW2 3138   1.730   8.870   1.344  0.5864  1.4391  1.4204
  854SOL     OW 3139   4.555   9.815   9.011  0.2898 -0.2828  0.0172
  854SOL    HW1 3140   4.571   9.807   8.917  0.3912 -2.1492  0.1552
  854SOL    HW2 3141   4.604   9.894   9.037  1.1434 -0.3463 -1.2972
  855SOL     OW 3142   6.422   7.251   8.699  0.3212 -0.4365 -0.3095
  855SOL    HW1 3143   6.367   7.259   8.621 -0.4807 -1.2314  0.1503
  855SOL    HW2 3144   6.506   7.220   8.667  0.7180  1.3157 -1.0930
  856SOL     OW 3145   2.658   4.475   3.092  0.4173  0.4040 -0.0660
  856SOL    HW1 3146   2.693   4.425   3.018 -0.9268 -1.7034  0.6580
  856SOL    HW2 3147   2.671   4.567   3.066  3.4848 -0.2334 -1.1967
  857SOL     OW 3148   6.055   0.197   8.789  0.2172  0.1612  0.0044
  857SOL    HW1 3149   6.043   0.204   8.884  1.0151  1.2860  0.0472
  857SOL    HW2 3150   6.145   0.166   8.779 -0.4115 -1.6637 -0.3835
  858SOL     OW 3151   0.863   2.380   1.116  0.3479 -0.2259 -0.0880
  858SOL    HW1 3152   0.849   2.378   1.211  1.1235  2.0176  0.1393
  858SOL    HW2 3153   0.958   2.388   1.106  0.2875 -0.5871 -1.0578
  859SOL     OW 3154   5.140   2.340   8.156  0.3147  1.3748  0.1407
  859SOL    HW1 3155   5.184   2.374   8.234 -0.0441 -0.6784  1.2904
  859SOL    HW2 3156   5.211   2.318   8.096  0.7640  0.4109  1.0024
  860SOL     OW 3157   2.326   2.963   7.530 -0.1692 -0.0483 -0.0241
  860SOL    HW1 3158   2.418   2.981   7.551 -0.1551  0.2201 -0.3138
  860SOL    HW2 3159   2.312   3.004   7.445 -0.7457  0.5110  0.3295
  861SOL     OW 3160   0.503   4.772   7.904  0.1115 -0.2548 -0.3318
  861SOL    HW1 3161   0.443   4.715   7.954  1.1270 -2.2564 -1.2755
  861SOL    HW2 3162   0.589   4.734   7.919  0.5749 -0.2118 -2.6535
  862SOL     OW 3163   9.966   4.808   4.784 -0.3757  0.2696 -0.2374
  862SOL    HW1 3164   9.887   4.836   4.829 -0.3475 -1.0623  0.6836
  862SOL    HW2 3165   9.952   4.715   4.765  0.2419  0.4306 -1.6535
  863SOL     OW 3166   2.272   5.423   7.256  0.0577 -0.4840  0.3427
  863SOL    HW1 3167   2.363   5.394   7.248  0.7326  1.6151 -0.4458
  863SOL    HW2 3168   2.224   5.346   7.287  2.6568 -0.8037  4.3027
  864SOL     OW 3169   7.802   6.419   2.956 -0.4909  0.2721  0.9154
  864SOL    HW1 3170   7.787   6.513   2.945  1.4156  0.4873 -0.3399
  864SOL    HW2 3171   7.845   6.392   2.874  0.5193 -1.3398  1.9280
  865SOL     OW 3172   3.436   4.198   1.258 -0.3749  0.3102 -0.0376
  865SOL    HW1 3173   3.398   4.111   1.248  1.1136 -0.1640 -2.5100
  865SOL    HW2 3174   3.402   4.230   1.341 -1.0307 -2.5875  0.9248
  866SOL     OW 3175   8.065   3.440   7.939 -0.4634  0.2333 -0.3335
  866SOL    HW1 3176   8.102   3.470   7.856  2.5348 -0.2871  0.7263
  866SOL    HW2 3177   8.100   3.501   8.004 -0.5333 -0.9999  0.8884
  867SOL     OW 3178   6.058   3.678   9.430  0.1542 -0.0616 -0.4406
  867SOL    HW1 3179   6.083   3.664   9.339  1.1469  0.0298 -0.1996
  867SOL    HW2 3180   6.088   3.768   9.449  1.9154 -0.7988  0.5700
  868SOL     OW 3181   8.515   1.492   2.958  0.0006 -0.1047 -0.1421
  868SOL    HW1 3182   8.445   1.467   2.898 -0.4605 -2.0265  1.0948
  868SOL    HW2 3183   8.570   1.552   2.908 -1.7533  0.3793 -1.5997
  869SOL     OW 3184   0.848   4.936   3.422  0.5582  0.2569 -0.4464
  869SOL    HW1 3185   0.842   5.023   3.383  0.9765  0.6580  0.3578
  869SOL    HW2 3186   0.936   4.905   3.398  1.7761  1.4654  2.0219
  870SOL     OW 3187   2.081   9.149   4.527  0.2603  0.2241  0.5192
  870SOL    HW1 3188   2.151   9.136   4.590  0.1059  0.7797  0.8162
  870SOL    HW2 3189   2.032   9.224   4.561  0.5287  0.9171 -0.5730
  871SOL     OW 3190   2.248   5.363   6.556  0.6986 -0.0466  0.2827
  871SOL    HW1 3191   2.333   5.354   6.513  1.2736 -0.4647  1.4656
  871SOL    HW2 3192   2.256   5.444   6.606  0.1842  0.2216 -0.0677
  872SOL     OW 3193   9.323   9.831   0.638 -0.0396  0.0537  0.2213
  872SOL    HW1 3194   9.313   9.739   0.612  0.9071 -0.6128  2.0770
  872SOL    HW2 3195   9.338   9.828   0.732  1.3956  2.0171  0.1170
  873SOL     OW 3196   6.581   3.280   8.514  0.4045  0.0912  0.4662
  873SOL    HW1 3197   6.536   3.236   8.442  0.1508  1.4519 -0.2474
  873SOL    HW2 3198   6.609   3.209   8.572 -0.6815 -0.9304 -0.2143
  874SOL     OW 3199   9.169   7.653   9.191 -0.5167 -0.3278 -0.4491
  874SOL    HW1 3200   9.174   7.698   9.106  0.5926  2.4101  0.9302
  874SOL    HW2 3201   9.118   7.712   9.246  1.6137 -0.3403  1.6858
  875SOL     OW 3202   5.243   2.066   3.954 -0.4098  0.0401  0.5514
  875SOL    HW1 3203   5.294   2.081   3.874 -0.3749 -1.4484  0.2643
  875SOL    HW2 3204   5.209   2.152   3.978  0.4492  0.6816 -0.4795
  876SOL     OW 3205   4.269   7.530   4.307 -0.0721  0.0835  0.3251
  876SOL    HW1 3206   4.246   7.623   4.315  0.0627  0.0054  1.8690
  876SOL    HW2 3207   4.233   7.503   4.223  1.9256  2.1308 -1.3238
  877SOL     OW 3208   4.332   8.808   1.679  0.4175  0.1010  0.2452
  877SOL    HW1 3209   4.324   8.838   1.770  2.0378 -1.0382  0.8170
  877SOL    HW2 3210   4.425   8.786   1.670  0.0829 -0.7470 -1.3966
  878SOL     OW 3211   2.983   3.483   7.724 -0.1739 -0.6081  0.5222
  878SOL    HW1 3212   3.043   3.542   7.770 -0.1509  0.6193 -0.9867
  878SOL    HW2 3213   3.027   3.465   7.641 -0.8206 -1.6505  0.4011
  879SOL     OW 3214   2.106   9.427   0.921 -0.1265 -0.4752 -0.2205
  879SOL    HW1 3215   2.122   9.335   0.941 -0.6175 -0.6648 -0.6666
  879SOL    HW2 3216   2.103   9.470   1.006  0.4939 -0.8061 -0.0302
  880SOL     OW 3217   3.461   9.440   4.084  0.1522 -0.3524 -0.1986
  880SOL    HW1 3218   3.418   9.360   4.114 -1.2556  0.6910  0.7076
  880SOL    HW2 3219   3.515   9.468   4.157 -1.2891  0.8177  0.4664
  881SOL     OW 3220   8.544   9.859   2.652 -0.4361 -0.4956  0.0031
  881SOL    HW1 3221   8.551   9.932   2.591  1.0227 -1.2771 -0.8157
  881SOL    HW2 3222   8.453   9.862   2.683 -0.5533  1.2952 -0.4414
  882SOL     OW 3223   5.250   1.671   8.496  0.1718 -0.7800 -0.0798
  882SOL    HW1 3224   5.332   1.689   8.542 -1.1793 -0.1330  2.2458
  882SOL    HW2 3225   5.201   1.614   8.556 -1.0227 -1.2834 -1.4797
  883SOL     OW 3226   4.854   9.216   9.458 -0.2785  0.1892  0.5572
  883SOL    HW1 3227   4.854   9.121   9.443  0.0371  0.3541 -0.5467
  883SOL    HW2 3228   4.820   9.254   9.377  0.8942  1.0876  0.4611
  884SOL     OW 3229   7.314   0.635   1.700 -0.8576 -0.3522 -0.3168
  884SOL    HW1 3230   7.396   0.642   1.651 -0.7247 -2.3912 -0.4834
  884SOL    HW2 3231   7.285   0.545   1.685 -2.4412 -0.0732  0.8292
  885SOL     OW 3232   3.864   9.797   5.490  0.0982  0.0202 -0.4377
  885SOL    HW1 3233   3.853   9.873   5.433  0.9849  0.0471 -0.5872
  885SOL    HW2 3234   3.831   9.723   5.439 -2.0625  0.4675  0.2220
  886SOL     OW 3235   9.426   5.615   5.724  0.1454  0.2965  0.4386
  886SOL    HW1 3236   9.334   5.588   5.732 -0.0843  1.0253  0.3783
  886SOL    HW2 3237   9.468   5.580   5.803 -0.3653  0.6544  0.8807
  887SOL     OW 3238   1.824   1.277   9.591 -0.0327  0.4292  0.1189
  887SOL    HW1 3239   1.854   1.343   9.529  1.0026  1.2204  1.4011
  887SOL    HW2 3240   1.887   1.282   9.663 -2.8021  1.7165  2.6715
  888SOL     OW 3241   7.649   1.258   3.043 -0.1099  0.4761  0.0142
  888SOL    HW1 3242   7.663   1.206   2.965  0.1555 -1.8750  1.5239
  888SOL    HW2 3243   7.735   1.296   3.063  0.0430  0.2768 -0.2673
  889SOL     OW 3244   9.797   8.834   2.178  0.4817  0.4455  0.5005
  889SOL    HW1 3245   9.803   8.870   2.266  1.8470 -0.6863  0.9120
  889SOL    HW2 3246   9.744   8.755   2.188  4.0484 -2.1090  1.2568
  890SOL     OW 3247   5.760   3.172   5.225 -0.0028 -0.6641  0.0517
  890SOL    HW1 3248   5.851   3.168   5.195 -0.2370 -1.3047 -0.6025
  890SOL    HW2 3249   5.735   3.263   5.214  0.6505 -0.4196  0.5088
  891SOL     OW 3250   3.897   6.838   5.590 -0.5648 -0.7046  0.5804
  891SOL    HW1 3251   3.857   6.812   5.508 -0.0695  1.0474 -0.2551
  891SOL    HW2 3252   3.824   6.868   5.644 -1.3501 -4.5666  2.0329
  892SOL     OW 3253   4.121   1.309   8.188  0.1021  0.4156  0.9489
  892SOL    HW1 3254   4.180   1.370   8.232 -0.1471  0.3358  1.4101
  892SOL    HW2 3255   4.042   1.308   8.244  0.2397 -0.5784  1.1467
  893SOL     OW 3256   5.040   0.669   0.180  0.9696 -0.1897  0.2223
  893SOL    HW1 3257   5.015   0.736   0.117  0.4361  0.3415  0.9745
  893SOL    HW2 3258   5.037   0.587   0.131 -1.1789 -0.0101 -0.0327
  894SOL     OW 3259   8.686   3.009   7.787  0.4912 -0.5739  0.1849
  894SOL    HW1 3260   8.640   3.015   7.870  1.3995 -0.8002  0.7198
  894SOL    HW2 3261   8.727   3.095   7.776 -0.9456  0.0205 -0.8479
  895SOL     OW 3262   3.101   5.362   0.116  0.8225  0.5526  0.1372
  895SOL    HW1 3263   3.089   5.451   0.151  0.6371 -0.5830  3.2368
  895SOL    HW2 3264   3.012   5.333   0.095  0.8856  1.0712 -0.9082
  896SOL     OW 3265   5.808   9.366   9.021  0.1352  0.5456  0.3250
  896SOL    HW1 3266   5.864   9.331   9.090  2.5859  1.5878 -1.0005
  896SOL    HW2 3267   5.853   9.445   8.991 -2.0764  1.4609 -0.8616
  897SOL     OW 3268   7.367   6.621   1.822 -0.0419 -0.3582  0.1803
  897SOL    HW1 3269   7.451   6.610   1.868  0.7919 -0.3085 -1.2597
  897SOL    HW2 3270   7.301   6.616   1.891  1.0859 -1.2954  1.2487
  898SOL     OW 3271   4.506   0.396   1.638  0.1069 -0.0612 -0.0619
  898SOL    HW1 3272   4.459   0.357   1.712  0.4314  2.6335  1.7422
  898SOL    HW2 3273   4.598   0.391   1.662  0.5820 -2.3243 -2.0324
  899SOL     OW 3274   2.785   4.972   0.347  0.0564  0.0131 -0.2363
  899SOL    HW1 3275   2.785   4.981   0.252 -1.4375 -1.1047 -0.3842
  899SOL    HW2 3276   2.832   5.050   0.378  2.1027 -0.4555 -1.9131
  900SOL     OW 3277   1.031   7.159   7.418  0.3430  0.0389 -0.8931
  900SOL    HW1 3278   1.123   7.185   7.407  0.6680 -0.1488  1.0034
  900SOL    HW2 3279   1.030   7.066   7.395  0.7765 -0.1121 -0.3337
  901SOL     OW 3280   4.043   1.858   0.259  0.1723 -0.1405 -0.3350
  901SOL    HW1 3281   4.065   1.784   0.202 -0.7463 -0.1971 -0.6209
  901SOL    HW2 3282   3.963   1.895   0.221 -1.1665 -0.9094  1.5898
  902SOL     OW 3283   0.749   4.530   6.963 -0.0455  0.0105  0.2801
  902SOL    HW1 3284   0.667   4.555   7.005 -1.7282 -3.0021 -0.8908
  902SOL    HW2 3285   0.755   4.435   6.977  1.7154 -0.3346 -2.1421
  903SOL     OW 3286   7.419   5.707   0.652  0.2922  0.1619  0.4470
  903SOL    HW1 3287   7.505   5.727   0.616  0.8282  0.8154  1.9754
  903SOL    HW2 3288   7.359   5.762   0.604  0.9017  0.6099  0.1920
  904SOL     OW 3289   8.219   9.225   2.652  0.4244 -0.3461 -0.3335
  904SOL    HW1 3290   8.272   9.155   2.613  2.1052  0.4135  0.4896
  904SOL    HW2 3291   8.186   9.186   2.733  0.4354 -0.5642 -0.4332
  905SOL     OW 3292   7.254   9.944   7.926  0.0712 -0.7644 -0.3246
  905SOL    HW1 3293   7.162   9.949   7.899  0.1731  0.5602 -0.4961
  905SOL    HW2 3294   7.272  10.030   7.964  0.2092 -2.2038  3.2030
  906SOL     OW 3295   2.013   7.975   3.847  0.0340 -0.2510 -0.1183
  906SOL    HW1 3296   2.070   7.984   3.924  0.1989  1.8258 -0.4237
  906SOL    HW2 3297   2.069   7.998   3.773 -0.5216 -0.7790 -0.7198
  907SOL     OW 3298   0.627   0.407   4.458 -0.1469  0.2050  0.8882
  907SOL    HW1 3299   0.622   0.313   4.441  1.2090  0.1904  0.4613
  907SOL    HW2 3300   0.643   0.447   4.373  0.0310  0.7573  1.1740
  908SOL     OW 3301   9.177   4.126   8.510  0.0457 -0.1957 -0.0749
  908SOL    HW1 3302   9.239   4.176   8.562  0.7017 -0.2997 -0.7368
  908SOL    HW2 3303   9.116   4.089   8.574  0.9282 -0.4674  0.6371
  909SOL     OW 3304   1.832   0.590   5.221 -0.2137 -1.1252 -0.2983
  909SOL    HW1 3305   1.780   0.670   5.224 -2.2299 -2.3727  1.1004
  909SOL    HW2 3306   1.768   0.520   5.235  1.7774 -2.8033  1.0401
  910SOL     OW 3307   9.020   5.768   6.412 -0.1717 -0.2024 -0.1336
  910SOL    HW1 3308   9.100   5.734   6.453 -0.2551  0.5327  0.6714
  910SOL    HW2 3309   9.028   5.743   6.320  0.7929 -0.4937  0.0146
  911SOL     OW 3310   7.806   8.080   8.745  0.3393  0.4346 -0.1941
  911SOL    HW1 3311   7.834   7.990   8.728 -0.0720  0.1789  0.4369
  911SOL    HW2 3312   7.716   8.084   8.712 -0.5630 -0.1417  1.9737
  912SOL     OW 3313   9.361   4.706   9.792  0.1000 -0.3471  0.2245
  912SOL    HW1 3314   9.359   4.801   9.779 -0.6330 -0.2759  0.8249
  912SOL    HW2 3315   9.425   4.675   9.727  2.7021  0.8787  2.0168
  913SOL     OW 3316   0.636   3.802   5.901 -0.1893  0.1199 -0.2180
  913SOL    HW1 3317   0.613   3.722   5.949 -3.4214  0.9826 -0.0986
  913SOL    HW2 3318   0.689   3.852   5.962  1.9900 -1.8824 -0.3244
  914SOL     OW 3319   0.560   5.248   5.075  0.0774 -0.3501 -0.0911
  914SOL    HW1 3320   0.592   5.307   5.008  1.0515 -0.4648  0.2649
  914SOL    HW2 3321   0.483   5.292   5.111  0.7366  0.6611  0.1079
  915SOL     OW 3322   4.095   2.358   3.869 -0.1696 -0.4850  0.0189
  915SOL    HW1 3323   4.157   2.430   3.884 -0.4386 -0.5371  1.5145
  915SOL    HW2 3324   4.130   2.285   3.921 -1.7150 -0.3635  1.2863
  916SOL     OW 3325   5.504   8.969   2.176 -0.6280 -0.1618  0.7609
  916SOL    HW1 3326   5.447   9.034   2.135 -0.5549  0.3920  1.5114
  916SOL    HW2 3327   5.562   9.021   2.233  0.2521 -0.7681  0.4360
  917SOL     OW 3328   7.665   9.506   9.101 -0.4449  0.5867 -0.2677
  917SOL    HW1 3329   7.591   9.561   9.073 -1.0496  0.7728  1.5393
  917SOL    HW2 3330   7.679   9.446   9.028 -1.1672  1.7679 -1.4169
  918SOL     OW 3331   6.525   4.014   9.792  0.3717 -0.5248 -0.2057
  918SOL    HW1 3332   6.580   3.942   9.760 -1.4737 -1.8700 -0.5399
  918SOL    HW2 3333   6.512   4.070   9.716  0.1748 -0.9599 -0.5009
  919SOL     OW 3334   9.467   3.212   3.359 -0.7241 -0.2361 -0.0939
  919SOL    HW1 3335   9.494   3.273   3.428 -1.1920 -2.6774  2.4259
  919SOL    HW2 3336   9.374   3.231   3.345 -0.7897 -0.1301  0.4440
  920SOL     OW 3337   0.748   8.518   9.327 -0.5029  0.3817  0.0803
  920SOL    HW1 3338   0.839   8.489   9.324 -0.4388  0.5806  0.0933
  920SOL    HW2 3339   0.740   8.559   9.413 -0.1775  1.7690 -0.5313
  921SOL     OW 3340   4.430   4.757   3.656  0.8242  0.0624 -0.0492
  921SOL    HW1 3341   4.489   4.729   3.586  1.3010  0.8161  0.0373
  921SOL    HW2 3342   4.482   4.748   3.736  1.1376  1.5552 -0.0591
  922SOL     OW 3343   1.960   3.442   6.842  0.0492 -0.0055 -0.3337
  922SOL    HW1 3344   1.980   3.356   6.805 -0.4046  0.1877 -1.0490
  922SOL    HW2 3345   1.942   3.497   6.766  2.6655  1.3675 -0.0432
  923SOL     OW 3346   7.945   8.478   1.591  0.1134 -0.0502 -0.0781
  923SOL    HW1 3347   7.936   8.389   1.626 -1.5697  0.5948  1.2820
  923SOL    HW2 3348   8.034   8.504   1.614  1.6356 -2.2656 -2.8458
  924SOL     OW 3349   1.845   1.794   9.205  0.2098 -0.3578  0.1198
  924SOL    HW1 3350   1.929   1.827   9.237  0.5162 -1.1824  0.2011
  924SOL    HW2 3351   1.792   1.782   9.284  1.2573 -3.2093  0.5287
  925SOL     OW 3352   0.453   4.154   6.290  0.1225 -0.4563  0.0224
  925SOL    HW1 3353   0.392   4.151   6.216 -2.4812  0.4587  2.0057
  925SOL    HW2 3354   0.464   4.063   6.316 -0.0740 -0.6572 -0.5695
  926SOL     OW 3355   8.950   5.954   4.583 -0.0195  0.3084  0.4713
  926SOL    HW1 3356   9.026   5.923   4.631  0.8576  0.5815 -0.6848
  926SOL    HW2 3357   8.904   5.874   4.556 -0.0492  0.1374  1.0313
  927SOL     OW 3358   6.444   9.349   9.649 -0.6700 -0.1960 -0.3681
  927SOL    HW1 3359   6.522   9.403   9.638 -2.9869  3.4548 -0.5508
  927SOL    HW2 3360   6.407   9.342   9.561 -0.0748 -2.8799 -0.4823
  928SOL     OW 3361   7.959   9.686   9.170 -0.3862  0.1460  1.0598
  928SOL    HW1 3362   8.048   9.669   9.202 -0.6354 -2.6401  0.4685
  928SOL    HW2 3363   7.902   9.643   9.234 -1.1110 -1.0992 -0.3798
  929SOL     OW 3364   9.088   7.157   5.574  0.3987  0.0635 -0.4313
  929SOL    HW1 3365   9.035   7.230   5.605 -1.4030 -1.4364  0.2165
  929SOL    HW2 3366   9.103   7.177   5.481 -1.3376  0.5498 -0.6430
  930SOL     OW 3367   5.978   8.027   0.777 -0.1197 -0.3035 -0.7469
  930SOL    HW1 3368   6.049   8.077   0.736  0.6570 -0.5628  0.2468
  930SOL    HW2 3369   5.996   7.937   0.753 -0.4493 -0.3064 -0.9812
  931SOL     OW 3370   2.304   4.892   6.831  0.2590  0.1772 -0.0983
  931SOL    HW1 3371   2.289   4.812   6.881  0.9370  0.6445  0.8864
  931SOL    HW2 3372   2.397   4.910   6.842  0.2935  0.6326 -1.0352
  932SOL     OW 3373   5.454   8.970   5.835 -0.3490  0.0399  0.4680
  932SOL    HW1 3374   5.532   9.019   5.810 -1.0631  1.2761  0.5943
  932SOL    HW2 3375   5.381   9.022   5.802 -1.1328 -1.1970  0.1660
  933SOL     OW 3376   4.443   5.038   6.825 -0.0130  0.5872 -0.7624
  933SOL    HW1 3377   4.504   4.965   6.823  0.5548  1.0696 -1.4309
  933SOL    HW2 3378   4.416   5.049   6.734 -1.5175  0.0506 -0.4257
  934SOL     OW 3379   2.359   8.366   9.605 -0.1037  0.1089 -0.5249
  934SOL    HW1 3380   2.345   8.454   9.640  0.4279  0.4557 -1.1587
  934SOL    HW2 3381   2.299   8.311   9.655  1.1501  0.4357  1.4993
  935SOL     OW 3382   5.436   7.206   9.327 -0.5141  0.3848  0.1939
  935SOL    HW1 3383   5.431   7.290   9.281 -0.6968  0.0022 -0.4942
  935SOL    HW2 3384   5.429   7.140   9.258 -0.0272 -0.1993  0.6893
  936SOL     OW 3385   4.274   7.089   4.767 -0.2440  0.1516 -0.2850
  936SOL    HW1 3386   4.334   7.163   4.756  1.8475 -1.7089 -2.5232
  936SOL    HW2 3387   4.189   7.124   4.741  0.5191  1.9517 -0.5350
  937SOL     OW 3388   0.137   7.069   9.231  0.9119  0.2645 -0.4509
  937SOL    HW1 3389   0.055   7.047   9.187 -0.4043 -0.0665  2.0082
  937SOL    HW2 3390   0.182   6.985   9.240  0.6037  0.1372 -0.0746
  938SOL     OW 3391   2.593   7.569   2.361  0.2911  0.0956  0.0050
  938SOL    HW1 3392   2.528   7.620   2.311  1.0549  0.4784 -0.6263
  938SOL    HW2 3393   2.677   7.609   2.337  0.9979 -1.9033 -1.0620
  939SOL     OW 3394   9.204   2.417   4.882 -0.0056  0.2176 -0.0609
  939SOL    HW1 3395   9.221   2.323   4.888 -0.2531  0.0911 -1.2205
  939SOL    HW2 3396   9.232   2.441   4.794  1.3093  1.5085  0.6591
  940SOL     OW 3397   1.705   4.682   6.794  0.5586 -0.3033  0.0213
  940SOL    HW1 3398   1.726   4.605   6.740  2.3264  0.0978  0.0658
  940SOL    HW2 3399   1.776   4.685   6.859  0.6763  1.5011 -0.1463
  941SOL     OW 3400   1.683   8.636   5.008  0.1534 -0.2158  0.4072
  941SOL    HW1 3401   1.769   8.637   4.966 -0.0449 -1.8663 -0.1087
  941SOL    HW2 3402   1.684   8.712   5.067  0.4543  2.1922 -2.4590
  942SOL     OW 3403   6.386   3.306   7.046 -0.0789  0.0572  0.5294
  942SOL    HW1 3404   6.410   3.214   7.045  0.9898  0.3192 -0.3205
  942SOL    HW2 3405   6.293   3.307   7.022  0.3797 -0.7153 -1.5442
  943SOL     OW 3406   3.415   6.703   9.708 -0.3215  0.1004  0.3383
  943SOL    HW1 3407   3.437   6.657   9.788 -0.8697  1.3252  1.2167
  943SOL    HW2 3408   3.352   6.770   9.734  0.0824  1.0469 -0.9654
  944SOL     OW 3409   7.077   6.209   7.627 -0.0487  0.1236  0.1328
  944SOL    HW1 3410   7.149   6.212   7.689 -1.7444  0.9112  2.1744
  944SOL    HW2 3411   7.016   6.145   7.664  0.2644 -1.8777 -2.4455
  945SOL     OW 3412   6.005   9.720   7.805 -0.2310  0.1955  0.3769
  945SOL    HW1 3413   6.048   9.674   7.733 -1.5391 -0.1589 -0.2203
  945SOL    HW2 3414   6.047   9.686   7.884  1.5416  0.9150 -0.2038
  946SOL     OW 3415   5.480   6.974   2.023  0.5633 -0.0076  0.1066
  946SOL    HW1 3416   5.394   6.972   2.065 -0.5860  1.6436 -1.9340
  946SOL    HW2 3417   5.528   7.043   2.068  0.7840 -0.8232  1.1467
  947SOL     OW 3418   9.484   5.605   7.920 -0.3939 -0.1457  0.2761
  947SOL    HW1 3419   9.484   5.678   7.983 -0.3708 -0.8006  1.0434
  947SOL    HW2 3420   9.420   5.544   7.954 -1.4110  0.1041 -1.0862
  948SOL     OW 3421   1.354   1.786   9.625 -0.5282  0.3940 -0.3924
  948SOL    HW1 3422   1.320   1.746   9.705  0.7296  2.6938  1.4314
  948SOL    HW2 3423   1.308   1.742   9.554 -3.9857  0.3235  1.6885
  949SOL     OW 3424   0.612   4.211   6.001 -0.2418 -0.1420  0.1938
  949SOL    HW1 3425   0.542   4.268   5.970 -0.2621 -1.5792 -2.7008
  949SOL    HW2 3426   0.567   4.135   6.038 -0.2843 -0.8754 -1.2890
  950SOL     OW 3427   8.871   7.505   9.029 -0.0222 -0.0449 -0.0751
  950SOL    HW1 3428   8.838   7.556   9.103  2.3300  0.5178  0.6798
  950SOL    HW2 3429   8.800   7.445   9.007 -1.8182  1.6303  0.8404
  951SOL     OW 3430   3.210   1.768   0.889 -0.3449 -0.1527 -0.4949
  951SOL    HW1 3431   3.195   1.766   0.794 -0.7699 -2.0508 -0.4167
  951SOL    HW2 3432   3.302   1.791   0.898  0.0358 -1.2421 -1.4220
  952SOL     OW 3433   8.659   2.074   4.657 -0.1507 -0.6745 -0.3216
  952SOL    HW1 3434   8.583   2.131   4.668 -1.1892 -2.0829  0.2367
  952SOL    HW2 3435   8.729   2.131   4.627 -0.7125  1.1554  1.6535
  953SOL     OW 3436   6.059   3.058   3.087 -0.4710  0.2913  0.9700
  953SOL    HW1 3437   6.039   2.979   3.037 -0.4316  0.6042  0.4525
  953SOL    HW2 3438   6.107   3.027   3.163  0.2857 -0.1047  0.3419
  954SOL     OW 3439   6.034   1.618   9.228 -0.0625  0.2885  0.2496
  954SOL    HW1 3440   5.991   1.563   9.293 -0.6886  0.0735 -0.3393
  954SOL    HW2 3441   6.041   1.563   9.151  1.8423  0.0999  0.5027
  955SOL     OW 3442   2.716   4.106   4.806 -0.1145 -0.0401  0.1694
  955SOL    HW1 3443   2.690   4.183   4.858 -0.5657 -0.9566  1.3588
  955SOL    HW2 3444   2.633   4.069   4.776  0.0593 -0.5124  0.2719
  956SOL     OW 3445   0.914   9.478   0.161 -0.1838 -0.1157 -0.8396
  956SOL    HW1 3446   0.874   9.465   0.247 -1.8226  0.0660 -1.5466
  956SOL    HW2 3447   0.960   9.396   0.143  1.8054  0.4816  0.9839
  957SOL     OW 3448   6.737   0.782   9.744  0.6189  0.2421  0.3394
  957SOL    HW1 3449   6.735   0.878   9.749 -0.6758  0.3397 -1.2144
  957SOL    HW2 3450   6.827   0.761   9.718  0.5159  1.1657 -0.8500
  958SOL     OW 3451   6.057   6.322   3.103  0.0043  0.5295 -0.4406
  958SOL    HW1 3452   5.995   6.322   3.175  0.7394  1.0895  0.2116
  958SOL    HW2 3453   6.007   6.288   3.028 -0.8867  0.3527  0.2177
  959SOL     OW 3454   6.788   3.686   4.392 -0.4534 -0.6419  0.0339
  959SOL    HW1 3455   6.865   3.731   4.426 -0.7831  0.0315 -0.0991
  959SOL    HW2 3456   6.714   3.733   4.430 -0.8247 -0.2795 -1.0957
  960SOL     OW 3457   1.611   1.796   1.592  0.0610  0.3818 -0.1510
  960SOL    HW1 3458   1.557   1.794   1.513  0.1820  0.5472 -0.2387
  960SOL    HW2 3459   1.553   1.768   1.662  0.3405 -1.2817 -0.5318
  961SOL     OW 3460   7.693   8.565   3.335 -0.2683 -0.0402 -0.0418
  961SOL    HW1 3461   7.787   8.569   3.320 -0.4078 -0.9287 -1.3614
  961SOL    HW2 3462   7.667   8.478   3.303 -1.4504 -0.0288  0.8076
  962SOL     OW 3463   0.877   5.883   2.419  0.5902 -0.0204 -0.1218
  962SOL    HW1 3464   0.907   5.930   2.497  0.6047 -1.8692  1.0470
  962SOL    HW2 3465   0.823   5.946   2.371 -0.8462  0.6837  2.2762
  963SOL     OW 3466   1.793   7.670   3.248 -0.7177 -0.4971 -0.4881
  963SOL    HW1 3467   1.704   7.671   3.282 -0.3282 -0.6380  0.5709
  963SOL    HW2 3468   1.846   7.709   3.317  0.0581 -0.4573 -1.0852
  964SOL     OW 3469   8.141   7.078   0.259  0.4291  0.2842  0.5985
  964SOL    HW1 3470   8.235   7.065   0.246  0.2575 -1.7804  1.1220
  964SOL    HW2 3471   8.135   7.151   0.320  1.6429  1.0137 -0.1109
  965SOL     OW 3472   2.611   4.771   0.331  0.8423 -0.2504  0.3893
  965SOL    HW1 3473   2.636   4.853   0.287 -1.6179  0.5320  0.2725
  965SOL    HW2 3474   2.689   4.745   0.379  1.8744  1.9084  0.0242
  966SOL     OW 3475   7.159   8.667   8.010 -0.5426  0.2183  0.0389
  966SOL    HW1 3476   7.126   8.589   7.965  3.1344 -0.6981 -1.4385
  966SOL    HW2 3477   7.159   8.644   8.103 -1.9276 -0.4840 -0.1151
  967SOL     OW 3478   1.705   5.197   3.786 -0.8326  0.5302 -0.1680
  967SOL    HW1 3479   1.672   5.111   3.758 -0.1144  0.1262  0.1864
  967SOL    HW2 3480   1.707   5.191   3.882  0.0069  0.6371 -0.1748
  968SOL     OW 3481   3.635   3.099   9.500 -0.1859 -0.0394 -0.4571
  968SOL    HW1 3482   3.624   3.036   9.428 -1.8544  0.9853 -1.1328
  968SOL    HW2 3483   3.665   3.179   9.457 -0.4451  0.3588  0.0998
  969SOL     OW 3484   3.640   3.246   9.044  0.4077 -0.1895 -0.5561
  969SOL    HW1 3485   3.709   3.202   9.094 -0.9558  0.7350  2.3484
  969SOL    HW2 3486   3.566   3.186   9.048 -0.2773  0.6785  0.1303
  970SOL     OW 3487   8.550   5.072   3.343 -0.0739  0.1178 -0.4182
  970SOL    HW1 3488   8.481   5.051   3.280 -0.3955 -0.8630  0.2400
  970SOL    HW2 3489   8.527   5.159   3.376 -1.0431 -0.2299 -0.1528
  971SOL     OW 3490   3.439   8.252   5.410 -0.2071  0.1660  0.3129
  971SOL    HW1 3491   3.481   8.256   5.323 -1.3304 -0.8974 -0.3043
  971SOL    HW2 3492   3.512   8.240   5.471  0.6579  1.5595 -0.4069
  972SOL     OW 3493   6.787   7.181   2.017 -0.2074  0.2110  0.4190
  972SOL    HW1 3494   6.793   7.109   2.080  1.5760  0.5868  0.7213
  972SOL    HW2 3495   6.775   7.259   2.072 -0.6847  0.3248  0.1640
  973SOL     OW 3496   0.038   7.506   6.598  0.3641 -0.0217 -0.0961
  973SOL    HW1 3497   0.126   7.536   6.623  0.0916  0.8899 -0.2107
  973SOL    HW2 3498   0.022   7.431   6.656  1.5318 -0.7067 -0.6189
  974SOL     OW 3499   4.706   3.256   8.771 -0.2470  0.1347 -0.0847
  974SOL    HW1 3500   4.693   3.339   8.818 -0.7759  0.4806 -0.8378
  974SOL    HW2 3501   4.619   3.218   8.763 -0.0547 -0.3200 -0.0884
  975SOL     OW 3502   8.561   9.865   9.443  0.5613 -0.2357 -0.4913
  975SOL    HW1 3503   8.519   9.949   9.460  1.3999  0.1681 -0.3615
  975SOL    HW2 3504   8.648   9.874   9.481  0.2890 -1.5618  0.5020
  976SOL     OW 3505   0.042   7.984   4.581  0.3961 -0.3106 -0.4531
  976SOL    HW1 3506  -0.015   7.957   4.653  0.5667 -2.1274 -0.9582
  976SOL    HW2 3507  -0.012   7.973   4.503  1.0360 -0.8904 -0.8238
  977SOL     OW 3508   6.121   1.214   9.071  0.3983 -0.2732  0.5234
  977SOL    HW1 3509   6.147   1.306   9.079 -2.3693  0.7957 -1.0703
  977SOL    HW2 3510   6.026   1.216   9.085  0.2567 -2.9038  0.3327
  978SOL     OW 3511   2.070   9.244   1.187 -0.0224 -0.1224  0.8055
  978SOL    HW1 3512   2.089   9.182   1.258  1.1435 -0.2945  0.3696
  978SOL    HW2 3513   1.982   9.221   1.158  0.1948 -1.2545  0.9867
  979SOL     OW 3514   8.453   0.090   3.849 -0.2624 -0.4962 -0.1982
  979SOL    HW1 3515   8.368   0.130   3.868 -1.0105 -2.9286  2.1779
  979SOL    HW2 3516   8.514   0.164   3.843 -1.8756  1.1332  1.9966
  980SOL     OW 3517   6.215   4.979   7.118 -0.0497  0.3817  0.3334
  980SOL    HW1 3518   6.129   4.949   7.089  1.0086 -0.9057 -1.7104
  980SOL    HW2 3519   6.206   5.074   7.125 -1.5443  0.3084 -0.1701
  981SOL     OW 3520   7.767   8.910   1.552  0.1678 -0.1474  0.2000
  981SOL    HW1 3521   7.756   8.981   1.488 -1.2132  0.0341  0.6018
  981SOL    HW2 3522   7.700   8.927   1.618 -0.7918 -2.2990 -0.1361
  982SOL     OW 3523   1.515   3.522   5.923  0.4811  0.0258 -0.0070
  982SOL    HW1 3524   1.576   3.509   5.995 -0.4646 -4.5882  0.2536
  982SOL    HW2 3525   1.548   3.465   5.853 -1.8609 -0.2784 -0.9519
  983SOL     OW 3526   7.023   0.989   6.676 -0.0750  0.1238 -0.0463
  983SOL    HW1 3527   7.075   1.019   6.750  0.2627  1.7330 -0.8952
  983SOL    HW2 3528   7.086   0.950   6.616 -0.2235 -0.3532  0.1042
  984SOL     OW 3529   8.636   8.953   9.342  0.7827  0.0975 -0.1215
  984SOL    HW1 3530   8.651   9.047   9.345  1.5193  0.0627 -1.6658
  984SOL    HW2 3531   8.700   8.920   9.279  0.1069 -1.3479 -0.1029
  985SOL     OW 3532   2.159   1.401   5.071  0.0351 -0.0538 -0.3926
  985SOL    HW1 3533   2.087   1.351   5.031  0.4788  0.1617 -1.5133
  985SOL    HW2 3534   2.238   1.362   5.033  0.4408  0.6500 -0.2776
  986SOL     OW 3535   0.860   2.287   5.627 -0.2488 -0.2143  0.5358
  986SOL    HW1 3536   0.765   2.293   5.637 -0.3079  0.2100 -0.2355
  986SOL    HW2 3537   0.885   2.368   5.583  0.3856 -0.5995  0.1671
  987SOL     OW 3538   3.612   4.237   6.940 -0.4672  0.0898  0.1367
  987SOL    HW1 3539   3.623   4.306   6.876  1.4672 -0.7062 -0.4655
  987SOL    HW2 3540   3.595   4.283   7.022  1.8413  1.4009 -0.0179
  988SOL     OW 3541   7.579   3.528   5.311 -0.8080  0.0010 -0.0950
  988SOL    HW1 3542   7.510   3.591   5.332  0.9135  1.8663  0.2222
  988SOL    HW2 3543   7.533   3.456   5.267 -3.0741  0.6685  1.0503
  989SOL     OW 3544   7.610   3.407   7.181  0.7116  0.0678 -0.9456
  989SOL    HW1 3545   7.628   3.469   7.252  1.4654 -1.3939  0.2044
  989SOL    HW2 3546   7.669   3.434   7.111 -2.2553  3.5031 -2.3865
  990SOL     OW 3547   7.993   3.670   4.459 -0.0224  0.6934  0.0843
  990SOL    HW1 3548   8.028   3.752   4.424 -2.3490  2.2126  1.0645
  990SOL    HW2 3549   7.982   3.686   4.552 -0.4489 -0.7707  0.3099
  991SOL     OW 3550   3.222   4.111   2.786  0.2767  0.2696 -0.0490
  991SOL    HW1 3551   3.156   4.180   2.787  0.6268  0.7581 -2.7705
  991SOL    HW2 3552   3.188   4.047   2.724  1.5229 -0.3513 -0.1080
  992SOL     OW 3553   5.987   2.503   4.978 -0.1133  0.1569  0.1418
  992SOL    HW1 3554   5.911   2.553   4.949  0.5469 -0.1049 -2.3311
  992SOL    HW2 3555   6.062   2.551   4.941  0.7872 -0.6044  0.9383
  993SOL     OW 3556   2.758   1.651   3.911 -0.1204 -0.2956  0.1259
  993SOL    HW1 3557   2.771   1.593   3.836 -0.3964 -0.1797 -0.0097
  993SOL    HW2 3558   2.664   1.651   3.926 -0.0711 -0.2907  0.4524
  994SOL     OW 3559   1.820   7.975   6.911  0.7064 -0.3804  0.1757
  994SOL    HW1 3560   1.739   8.023   6.930  0.7095 -0.4616  0.4050
  994SOL    HW2 3561   1.853   7.950   6.998  0.6231 -0.9314  0.0533
  995SOL     OW 3562   1.300   1.876   8.304  0.4730  0.4019  0.4264
  995SOL    HW1 3563   1.301   1.888   8.399  1.0841 -0.1044  0.4859
  995SOL    HW2 3564   1.384   1.836   8.284  0.6461  1.1677 -0.4154
  996SOL     OW 3565   7.737   8.470   2.328 -0.4324 -0.2714  1.1187
  996SOL    HW1 3566   7.819   8.463   2.376  0.2003  0.1116  0.1296
  996SOL    HW2 3567   7.737   8.395   2.269 -0.4728  0.1029  0.6421
  997SOL     OW 3568   7.089   7.459   9.458  0.4535  0.2417 -0.2761
  997SOL    HW1 3569   7.182   7.458   9.436  0.0012 -2.3686 -2.5610
  997SOL    HW2 3570   7.050   7.514   9.390  0.2107  0.5185  0.0888
  998SOL     OW 3571   6.535   1.226   2.785 -0.2095 -0.3238 -0.3026
  998SOL    HW1 3572   6.446   1.238   2.750 -1.0613  0.5045  1.9555
  998SOL    HW2 3573   6.536   1.135   2.816 -0.1490 -0.4175 -0.5694
  999SOL     OW 3574   6.034   6.013   5.665 -0.6846  0.0205  0.1602
  999SOL    HW1 3575   5.985   6.067   5.602 -0.8668 -1.1303 -0.7062
  999SOL    HW2 3576   6.067   6.076   5.729 -0.3499  1.2458 -1.1673
 1000SOL     OW 3577   7.716   4.226   5.743  0.2849  0.6938 -0.5957
 1000SOL    HW1 3578   7.806   4.202   5.762 -0.0317 -0.5439 -0.5688
 1000SOL    HW2 3579   7.719   4.269   5.658  0.6918 -0.9215 -1.4399
 1001SOL     OW 3580   5.760   9.264   2.092 -0.1688  0.3449 -0.1214
 1001SOL    HW1 3581   5.708   9.213   2.154 -0.7557 -1.1330 -1.7385
 1001SOL    HW2 3582   5.840   9.286   2.140 -1.4289  0.9956  1.7846
 1002SOL     OW 3583   2.416   5.724   2.768  0.0825  0.4204 -0.1832
 1002SOL    HW1 3584   2.350   5.724   2.698 -0.0120  1.9236 -0.1381
 1002SOL    HW2 3585   2.500   5.722   2.721  0.0112  0.6887 -0.3281
 1003SOL     OW 3586   2.332   9.399   2.488  0.3348  0.1453  0.6942
 1003SOL    HW1 3587   2.251   9.393   2.537 -0.5503 -0.4422 -0.7652
 1003SOL    HW2 3588   2.372   9.312   2.498  0.3564  0.1574  0.7132
 1004SOL     OW 3589   3.207   0.235   1.131 -0.2561  0.2735  0.9061
 1004SOL    HW1 3590   3.251   0.192   1.204  0.7764  0.9889  0.7468
 1004SOL    HW2 3591   3.133   0.179   1.110  1.2533 -1.6528  0.4173
 1005SOL     OW 3592   0.317   0.282   0.322  0.1194 -0.3307  0.1411
 1005SOL    HW1 3593   0.295   0.349   0.387  0.9097 -0.7184  0.8192
 1005SOL    HW2 3594   0.410   0.292   0.307 -0.3078  0.7550 -2.1118
 1006SOL     OW 3595   2.329   2.466   4.630 -0.2041 -0.1398  0.3633
 1006SOL    HW1 3596   2.235   2.479   4.639 -0.3302 -1.4295  1.0576
 1006SOL    HW2 3597   2.351   2.507   4.546 -1.7038 -1.3647 -0.6710
 1007SOL     OW 3598   7.296   3.053   8.776 -0.2613 -0.2431 -0.1503
 1007SOL    HW1 3599   7.383   3.037   8.812  0.3219  0.5763 -1.1355
 1007SOL    HW2 3600   7.309   3.057   8.681 -1.0578  1.5286 -0.2305
 1008SOL     OW 3601   0.711   4.224   6.358 -0.4984  0.4352 -0.7947
 1008SOL    HW1 3602   0.628   4.190   6.324 -0.4471 -0.2701 -0.2457
 1008SOL    HW2 3603   0.712   4.197   6.450 -0.0344  1.1629 -0.5735
 1009SOL     OW 3604   1.596   5.115   6.755  0.2500 -0.2523  0.2726
 1009SOL    HW1 3605   1.657   5.127   6.682  0.9304  0.5060  0.9387
 1009SOL    HW2 3606   1.515   5.085   6.714  0.5611  0.3299 -0.8145
 1010SOL     OW 3607   5.542   1.640   6.001  0.4138 -0.0903  0.2348
 1010SOL    HW1 3608   5.514   1.694   5.928  1.6028 -1.0660 -1.0013
 1010SOL    HW2 3609   5.468   1.640   6.061 -0.4095  1.1237 -0.7374
 1011SOL     OW 3610   2.296   7.799   5.803  0.4782  0.2149  0.2980
 1011SOL    HW1 3611   2.230   7.803   5.733 -0.6996  0.0142  1.3685
 1011SOL    HW2 3612   2.380   7.797   5.756 -0.2618  0.4434 -1.1003
 1012SOL     OW 3613   0.695   9.528   5.526  0.0598  0.1578 -0.2262
 1012SOL    HW1 3614   0.699   9.622   5.539 -0.4654  0.5236 -2.4166
 1012SOL    HW2 3615   0.602   9.507   5.523  0.1449 -0.1264 -1.5138
 1013SOL     OW 3616   8.839   2.116   0.509 -0.0467  0.2739  0.0919
 1013SOL    HW1 3617   8.840   2.077   0.421  1.1503 -0.2594  0.3232
 1013SOL    HW2 3618   8.777   2.062   0.558  1.9812 -1.8036  0.5554
 1014SOL     OW 3619   6.313   4.535   3.024 -0.6201 -0.4274  0.3508
 1014SOL    HW1 3620   6.241   4.526   2.961 -0.1414  0.5200 -0.3531
 1014SOL    HW2 3621   6.271   4.566   3.104 -1.1008 -0.5983  0.1670
 1015SOL     OW 3622   1.920   8.886   7.972 -0.1239  0.2401 -0.0200
 1015SOL    HW1 3623   1.898   8.979   7.979 -1.2611  0.0661 -1.0058
 1015SOL    HW2 3624   1.858   8.843   8.031 -0.2116  0.0298 -0.2663
 1016SOL     OW 3625   9.480   4.004   4.941  0.5136 -0.2204 -0.1562
 1016SOL    HW1 3626   9.528   3.921   4.935  2.0394  0.6618 -0.9165
 1016SOL    HW2 3627   9.416   4.000   4.870  1.3046 -0.3229 -0.8821
 1017SOL     OW 3628   3.672   8.619   7.429  0.0914  0.7933 -0.1640
 1017SOL    HW1 3629   3.600   8.599   7.370  0.6901 -0.2343 -0.5869
 1017SOL    HW2 3630   3.632   8.665   7.502 -0.9505  0.4696 -0.5183
 1018SOL     OW 3631   1.502   2.777   9.617  0.1517 -0.3018  0.5249
 1018SOL    HW1 3632   1.505   2.704   9.679 -1.1368 -1.8041 -1.0829
 1018SOL    HW2 3633   1.589   2.777   9.578 -0.4330 -2.4247 -0.9519
 1019SOL     OW 3634   7.860   9.540   8.381 -0.4036 -0.6367 -0.3164
 1019SOL    HW1 3635   7.835   9.515   8.293 -0.0937  1.4828 -1.0708
 1019SOL    HW2 3636   7.854   9.636   8.382  0.7529 -0.5147  1.5900
 1020SOL     OW 3637   3.209   8.473   4.299 -0.0518  0.4393 -0.1478
 1020SOL    HW1 3638   3.159   8.398   4.331  2.0100 -0.6690  0.6688
 1020SOL    HW2 3639   3.232   8.449   4.209  0.1376  0.3433 -0.0738
 1021SOL     OW 3640   4.839   9.714   8.859 -0.4178  0.3851 -0.1578
 1021SOL    HW1 3641   4.878   9.690   8.942  0.5908  0.7520 -0.5174
 1021SOL    HW2 3642   4.786   9.638   8.834  0.1258 -0.1421  0.2966
 1022SOL     OW 3643   3.050   2.292   9.575  0.0806 -0.0459 -0.3757
 1022SOL    HW1 3644   3.046   2.380   9.536  1.7181 -0.1540 -0.8585
 1022SOL    HW2 3645   3.083   2.307   9.663  2.1667 -0.2752 -1.0558
 1023SOL     OW 3646   0.918   6.800   9.012 -0.2082 -0.1730 -0.0326
 1023SOL    HW1 3647   0.863   6.869   8.975 -0.5173  0.4324  1.4963
 1023SOL    HW2 3648   0.997   6.846   9.041 -0.7623 -0.2988  1.7470
 1024SOL     OW 3649   6.626   5.404   5.163  0.3239  0.2339 -0.4640
 1024SOL    HW1 3650   6.539   5.380   5.193  1.2881 -1.2869  1.3007
 1024SOL    HW2 3651   6.611   5.467   5.093 -2.2143 -1.1148 -1.2349
 1025SOL     OW 3652   1.161   5.109   2.756 -0.1533 -0.1313  0.1800
 1025SOL    HW1 3653   1.233   5.171   2.760 -1.2991  1.2354  0.2711
 1025SOL    HW2 3654   1.172   5.054   2.834 -1.2819  2.4844  2.3577
 1026SOL     OW 3655   2.762   9.104   6.943 -0.1041  0.8507 -0.3557
 1026SOL    HW1 3656   2.671   9.103   6.914  0.3910  0.5255 -2.0139
 1026SOL    HW2 3657   2.759   9.077   7.035 -1.5263 -0.8635 -0.8682
 1027SOL     OW 3658   0.575   3.732   7.093  0.1499  0.3050 -0.7544
 1027SOL    HW1 3659   0.592   3.721   7.187 -1.1383  1.1497 -0.4060
 1027SOL    HW2 3660   0.578   3.643   7.058 -1.5946 -0.2941  0.4967
 1028SOL     OW 3661   8.272   9.546   1.047 -0.1454 -0.5059 -0.2131
 1028SOL    HW1 3662   8.326   9.467   1.052  0.2561 -0.2248 -0.0657
 1028SOL    HW2 3663   8.294   9.596   1.125  2.1715  1.3628 -1.8977
 1029SOL     OW 3664   8.982   3.710   0.103 -0.3955 -0.3990 -0.7275
 1029SOL    HW1 3665   8.923   3.656   0.050 -0.8928  0.5561 -1.1808
 1029SOL    HW2 3666   9.012   3.778   0.043 -1.4455  1.0804  0.3345
 1030SOL     OW 3667   5.160   0.621   5.587 -0.7257 -0.3425  0.2158
 1030SOL    HW1 3668   5.193   0.540   5.548  2.3362 -0.1584  2.0594
 1030SOL    HW2 3669   5.105   0.593   5.660  1.0799 -0.8779  1.4404
 1031SOL     OW 3670   3.054   9.490   8.001  0.0290 -0.4270 -0.6745
 1031SOL    HW1 3671   3.145   9.466   8.016 -0.4201 -1.8625 -0.0423
 1031SOL    HW2 3672   3.010   9.408   7.980 -1.2317  0.1340 -0.3750
 1032SOL     OW 3673   2.464   1.391   7.396 -0.2109 -1.1984 -0.0819
 1032SOL    HW1 3674   2.440   1.467   7.344  0.1155 -1.7323 -1.0546
 1032SOL    HW2 3675   2.393   1.380   7.459  0.8560  1.3106  1.7023
 1033SOL     OW 3676   6.430   3.726   4.039 -0.0614 -0.3200 -0.0292
 1033SOL    HW1 3677   6.356   3.683   4.082  0.1454  0.1228  0.7822
 1033SOL    HW2 3678   6.419   3.819   4.059 -0.2503 -0.0321 -1.3856
 1034SOL     OW 3679   8.408   5.683   3.249 -0.3751  0.1108 -0.2136
 1034SOL    HW1 3680   8.434   5.747   3.183  3.7304 -0.8605  0.2245
 1034SOL    HW2 3681   8.370   5.611   3.199 -0.5802  0.8560 -1.1539
 1035SOL     OW 3682   5.498   7.870   5.634  0.3576 -0.1039  0.8787
 1035SOL    HW1 3683   5.492   7.918   5.551 -0.7111 -1.8301 -0.1136
 1035SOL    HW2 3684   5.412   7.882   5.674  1.2270  1.6717  2.3697
 1036SOL     OW 3685   8.725   5.665   8.986 -0.3483  0.2154  0.1069
 1036SOL    HW1 3686   8.666   5.594   9.009 -0.8534  0.6917  0.3089
 1036SOL    HW2 3687   8.669   5.743   8.982  0.1130  0.5201 -0.5779
 1037SOL     OW 3688   6.677   6.455   5.895  0.0678 -0.2258 -0.5255
 1037SOL    HW1 3689   6.733   6.377   5.893 -0.1512 -0.4550  0.8725
 1037SOL    HW2 3690   6.710   6.511   5.825 -0.5167 -2.0663 -2.3363
 1038SOL     OW 3691   9.011   8.220   7.499  0.0916  0.2119  0.0576
 1038SOL    HW1 3692   9.048   8.152   7.443  0.7648  0.1887  0.5168
 1038SOL    HW2 3693   8.922   8.231   7.467  0.0859 -0.6347 -0.2530
 1039SOL     OW 3694   4.629   5.706   2.244  0.2551  0.0693  0.7040
 1039SOL    HW1 3695   4.538   5.706   2.272  0.2795 -0.2817  0.7953
 1039SOL    HW2 3696   4.635   5.632   2.184  0.4464  0.1783  0.5896
 1040SOL     OW 3697   8.663   0.896   0.236 -0.3548 -0.1556  0.0639
 1040SOL    HW1 3698   8.618   0.956   0.176 -0.1351 -1.1131 -1.0855
 1040SOL    HW2 3699   8.651   0.810   0.197  0.6028 -0.6877  0.9130
 1041SOL     OW 3700   5.716   0.007   1.022  0.1539  0.5565  0.2845
 1041SOL    HW1 3701   5.725   0.101   1.006 -0.0507  0.5129 -0.0798
 1041SOL    HW2 3702   5.628  -0.014   0.994  0.8964 -0.1588 -1.6822
 1042SOL     OW 3703   1.823   9.168   7.923  0.6449 -0.4199  0.4329
 1042SOL    HW1 3704   1.878   9.198   7.851  0.6777 -1.3405  0.0655
 1042SOL    HW2 3705   1.736   9.161   7.885  0.8514 -1.9044  0.1910
 1043SOL     OW 3706   5.417   9.220   1.390  0.3542 -0.8871  0.0647
 1043SOL    HW1 3707   5.476   9.173   1.449 -0.4126 -0.6989  1.0122
 1043SOL    HW2 3708   5.466   9.229   1.309  1.6802 -0.6399  0.8566
 1044SOL     OW 3709   5.916   0.284   5.146  0.0558 -0.1606 -0.2221
 1044SOL    HW1 3710   5.873   0.297   5.061 -2.5159 -1.6676  0.7424
 1044SOL    HW2 3711   6.008   0.300   5.128 -0.7112  2.2502 -2.6839
 1045SOL     OW 3712   4.163   3.922   2.100  0.1953  0.0597  0.1834
 1045SOL    HW1 3713   4.152   3.919   2.195  2.2625  0.9933  0.5204
 1045SOL    HW2 3714   4.241   3.869   2.084  0.2034  0.3903 -0.9262
 1046SOL     OW 3715   9.560   3.849   9.089 -0.1704  0.3419 -0.3938
 1046SOL    HW1 3716   9.484   3.795   9.066 -1.2295  1.4916  0.2900
 1046SOL    HW2 3717   9.541   3.934   9.051  1.4325  0.2881 -1.3656
 1047SOL     OW 3718   9.719   2.603   9.144  0.4631 -0.6640  0.3432
 1047SOL    HW1 3719   9.730   2.606   9.239 -1.6982 -0.7054  0.6489
 1047SOL    HW2 3720   9.775   2.531   9.116 -0.6991 -2.2709  1.9233
 1048SOL     OW 3721   7.216   5.469   3.064  0.5979  0.2538 -0.0673
 1048SOL    HW1 3722   7.217   5.489   3.158  2.4820  0.0024 -0.0005
 1048SOL    HW2 3723   7.200   5.554   3.022 -1.4757  0.1818  0.4744
 1049SOL     OW 3724   2.313   2.557   4.086 -0.1590  0.3010 -0.5051
 1049SOL    HW1 3725   2.247   2.546   4.155 -0.5954  0.1315 -0.9407
 1049SOL    HW2 3726   2.327   2.651   4.082 -1.3613  0.4772 -1.2916
 1050SOL     OW 3727   5.392   1.729   1.574 -0.6182  0.3304  0.1568
 1050SOL    HW1 3728   5.342   1.789   1.629  0.5819  2.1025 -0.6139
 1050SOL    HW2 3729   5.328   1.699   1.509 -0.8047  2.4210 -0.7047
 1051SOL     OW 3730   6.192   2.025   8.435 -0.2797  0.5722 -0.1396
 1051SOL    HW1 3731   6.214   2.078   8.359 -1.3028 -0.6478 -1.3245
 1051SOL    HW2 3732   6.165   2.088   8.501  1.4071  1.7139 -0.4712
 1052SOL     OW 3733   6.812   1.122   3.006 -0.1085  0.1997  0.2976
 1052SOL    HW1 3734   6.839   1.065   2.934 -0.0384  0.9415 -0.2776
 1052SOL    HW2 3735   6.892   1.169   3.031 -0.8213  2.6899 -1.6697
 1053SOL     OW 3736   1.167   2.303   4.076 -0.4447  0.0386 -0.2310
 1053SOL    HW1 3737   1.186   2.318   4.169 -1.1931 -1.4312  0.1841
 1053SOL    HW2 3738   1.131   2.214   4.072  3.5284 -1.7941 -2.4451
 1054SOL     OW 3739   9.195   2.227   6.972 -0.1586  0.7716  0.6905
 1054SOL    HW1 3740   9.285   2.198   6.992  0.2752 -0.2613 -2.2654
 1054SOL    HW2 3741   9.182   2.304   7.027  1.7385 -0.2655  2.7685
 1055SOL     OW 3742   9.675   7.193   7.531 -0.7348  0.2577 -0.5036
 1055SOL    HW1 3743   9.600   7.252   7.522 -0.3722  0.5982 -1.4173
 1055SOL    HW2 3744   9.682   7.151   7.445 -0.1525 -0.0994 -0.2810
 1056SOL     OW 3745   2.951   4.683   3.962  0.0788  0.1454  0.3383
 1056SOL    HW1 3746   3.019   4.643   4.015  1.2950 -0.9482 -1.9187
 1056SOL    HW2 3747   2.885   4.614   3.952 -0.4671  0.5675  0.9243
 1057SOL     OW 3748   6.955   8.622   4.801 -0.1207 -0.0781 -0.1374
 1057SOL    HW1 3749   7.042   8.591   4.823  0.2064  2.0912  2.1645
 1057SOL    HW2 3750   6.969   8.709   4.762 -1.2156  0.3821  0.4409
 1058SOL     OW 3751   3.074   7.425   9.052  0.4120  0.4096  0.8612
 1058SOL    HW1 3752   3.129   7.501   9.033  0.9617  0.2703  1.8084
 1058SOL    HW2 3753   2.986   7.452   9.025  0.3975  1.7955  2.1195
 1059SOL     OW 3754   9.647   3.378   6.013 -0.1201 -0.0603 -0.2001
 1059SOL    HW1 3755   9.647   3.471   5.991  1.7951  0.0804  0.1723
 1059SOL    HW2 3756   9.565   3.344   5.976 -0.9789  1.8078 -0.1073
 1060SOL     OW 3757   7.840   7.527   5.616  0.4060  0.3210 -0.6776
 1060SOL    HW1 3758   7.909   7.593   5.614  1.1697 -0.4691 -3.2968
 1060SOL    HW2 3759   7.886   7.443   5.606 -0.7473 -0.4427  0.1001
 1061SOL     OW 3760   8.745   9.769   3.272 -0.1225 -0.2167 -0.1834
 1061SOL    HW1 3761   8.695   9.846   3.246  0.6339  0.0607 -0.8521
 1061SOL    HW2 3762   8.739   9.709   3.197  0.3845 -0.2592 -0.1953
 1062SOL     OW 3763   4.600   4.076   7.718 -0.0533  0.0758  0.1236
 1062SOL    HW1 3764   4.684   4.034   7.734  0.1068 -0.0135 -0.8651
 1062SOL    HW2 3765   4.563   4.091   7.805  1.1223  0.4128  0.5910
 1063SOL     OW 3766   1.113   0.261   7.126  0.4163 -0.0239 -0.0764
 1063SOL    HW1 3767   1.021   0.237   7.116  0.1968 -0.3224  2.1024
 1063SOL    HW2 3768   1.121   0.287   7.218  2.2120  1.3871 -0.5745
 1064SOL     OW 3769   8.771   2.921   2.754  0.0642  0.0978 -0.2946
 1064SOL    HW1 3770   8.693   2.893   2.803  1.0865 -0.2984  1.2097
 1064SOL    HW2 3771   8.844   2.902   2.814  1.2264  1.4509 -1.2224
 1065SOL     OW 3772   8.702   5.175   1.701 -0.5948  0.3891 -0.6529
 1065SOL    HW1 3773   8.624   5.118   1.698 -2.2865  2.5831 -2.5789
 1065SOL    HW2 3774   8.689   5.229   1.778 -1.2205  1.0057 -1.1768
 1066SOL     OW 3775   8.328   9.226   6.389 -0.3474  0.7741  0.0531
 1066SOL    HW1 3776   8.373   9.213   6.473  0.3426  0.4340 -0.3614
 1066SOL    HW2 3777   8.384   9.286   6.340 -0.2310  0.1852 -0.5523
 1067SOL     OW 3778   9.751   6.984   9.716 -1.0102 -1.0453  0.0182
 1067SOL    HW1 3779   9.844   6.962   9.724 -0.6690 -0.4119 -1.8010
 1067SOL    HW2 3780   9.730   6.969   9.624 -3.2542 -3.0787  0.7418
 1068SOL     OW 3781   9.338   6.284   5.030 -0.6767 -0.1821 -0.3410
 1068SOL    HW1 3782   9.424   6.272   4.990 -1.1758 -1.1352 -1.1861
 1068SOL    HW2 3783   9.286   6.211   4.995 -1.6823  0.1013  0.5402
 1069SOL     OW 3784   3.033   2.674   0.679  0.1331  0.2994  0.3306
 1069SOL    HW1 3785   2.966   2.742   0.668 -0.2693  0.0666  1.2788
 1069SOL    HW2 3786   3.048   2.671   0.773 -0.5160 -1.5652  0.3985
 1070SOL     OW 3787   1.030   7.680   3.298  0.2714 -0.0159  0.2848
 1070SOL    HW1 3788   1.042   7.610   3.362 -1.8895 -1.3763 -0.6690
 1070SOL    HW2 3789   1.082   7.652   3.222 -2.2374 -1.8640 -0.9179
 1071SOL     OW 3790   6.899   7.187   6.537 -0.7585  0.5998  0.1701
 1071SOL    HW1 3791   6.909   7.266   6.591  0.2444  0.2317  0.5541
 1071SOL    HW2 3792   6.858   7.123   6.596 -1.9462  0.9415 -0.2625
 1072SOL     OW 3793   8.392   0.889   1.474  0.0878  0.2386 -0.0597
 1072SOL    HW1 3794   8.391   0.874   1.568  0.3429 -0.5796 -0.1859
 1072SOL    HW2 3795   8.443   0.817   1.438  0.4539  0.8400 -0.7792
 1073SOL     OW 3796   0.712   5.020   6.776 -0.1913 -0.2188 -0.0520
 1073SOL    HW1 3797   0.776   4.948   6.773  0.3124  0.2542 -1.1620
 1073SOL    HW2 3798   0.629   4.978   6.751  0.4360 -0.1040 -2.5226
 1074SOL     OW 3799   1.750   3.514   3.781  0.7714 -0.0799 -0.3358
 1074SOL    HW1 3800   1.798   3.462   3.716 -1.2248 -1.8884 -0.4525
 1074SOL    HW2 3801   1.808   3.517   3.857  0.4621 -3.7972  0.2126
 1075SOL     OW 3802   7.351   0.994   7.267  0.0090  0.1177  0.7735
 1075SOL    HW1 3803   7.303   0.911   7.268 -1.5796  0.9333 -1.0631
 1075SOL    HW2 3804   7.402   0.993   7.348 -1.9716 -1.4822  2.1001
 1076SOL     OW 3805   7.236   6.963   0.521  0.0482 -0.6012  0.0839
 1076SOL    HW1 3806   7.175   6.891   0.534  0.1843 -0.8545 -0.6602
 1076SOL    HW2 3807   7.268   6.953   0.431 -1.6655  1.6840 -0.8997
 1077SOL     OW 3808   6.615   1.914   2.474  0.4675 -0.1151 -0.2540
 1077SOL    HW1 3809   6.620   2.009   2.462 -0.5751  0.1743  1.2794
 1077SOL    HW2 3810   6.705   1.884   2.466  0.6358  0.7973 -2.2059
 1078SOL     OW 3811   9.548   3.040   5.516 -0.1668 -0.1778  0.0090
 1078SOL    HW1 3812   9.637   3.070   5.535  0.3369 -1.7108  0.2563
 1078SOL    HW2 3813   9.539   3.049   5.422  0.4212 -0.4220 -0.0754
 1079SOL     OW 3814   6.046   7.549   0.902 -0.1481  0.6334 -0.0055
 1079SOL    HW1 3815   5.954   7.522   0.905  0.0557 -0.0463  1.7129
 1079SOL    HW2 3816   6.094   7.467   0.891  0.4227  0.2180  4.0483
 1080SOL     OW 3817   6.897   7.892   3.438 -0.3728 -0.2238 -0.2203
 1080SOL    HW1 3818   6.826   7.854   3.386 -3.7928  4.6821  0.1304
 1080SOL    HW2 3819   6.869   7.879   3.529  0.2716 -0.0633  0.0031
 1081SOL     OW 3820   2.624   6.131   9.531 -0.4103 -0.3185 -0.5010
 1081SOL    HW1 3821   2.630   6.100   9.621 -1.4370 -1.1040 -0.6827
 1081SOL    HW2 3822   2.582   6.059   9.483  0.9638 -0.2888 -1.8113
 1082SOL     OW 3823   2.295   6.694   9.999 -0.1359  0.1782 -0.4766
 1082SOL    HW1 3824   2.276   6.786  10.018 -0.5900  0.5806 -2.6218
 1082SOL    HW2 3825   2.348   6.696   9.919  1.0737 -1.3855  0.2307
 1083SOL     OW 3826   4.767   3.904   1.121 -0.2866 -0.0085  0.5370
 1083SOL    HW1 3827   4.795   3.958   1.046 -0.1058  0.9839  1.2907
 1083SOL    HW2 3828   4.843   3.904   1.179 -0.6588 -0.2078  1.0263
 1084SOL     OW 3829   4.896   0.248   8.974  0.0079  0.0840 -0.3858
 1084SOL    HW1 3830   4.821   0.193   8.993 -0.2503 -0.1861 -1.9974
 1084SOL    HW2 3831   4.873   0.334   9.008 -0.4436 -0.3172  0.3367
 1085SOL     OW 3832   0.891   4.206   3.900 -0.5656 -0.7254 -0.0195
 1085SOL    HW1 3833   0.972   4.194   3.950 -1.3662  1.6960  2.1098
 1085SOL    HW2 3834   0.884   4.301   3.888 -3.7357 -0.6861  1.1155
 1086SOL     OW 3835   6.182   1.668   7.549 -0.2679  0.1112  0.6389
 1086SOL    HW1 3836   6.208   1.736   7.611 -1.2452  0.9747  0.1364
 1086SOL    HW2 3837   6.086   1.672   7.548 -0.3439 -1.2546  0.5656
 1087SOL     OW 3838   1.655   6.217   3.350  0.1968 -0.0895  0.8503
 1087SOL    HW1 3839   1.569   6.217   3.307  0.1669  1.7809  0.8365
 1087SOL    HW2 3840   1.664   6.129   3.385 -1.0275 -0.8035 -0.5266
 1088SOL     OW 3841   7.025   9.462   8.910 -0.4203  0.2566  0.4135
 1088SOL    HW1 3842   7.062   9.376   8.894 -0.7096  0.4586 -1.5532
 1088SOL    HW2 3843   7.089   9.523   8.872 -1.3423  0.7628 -0.3504
 1089SOL     OW 3844   9.067   8.561   6.420  0.1506  0.4397 -0.1811
 1089SOL    HW1 3845   9.045   8.550   6.512  0.4377 -2.2143 -0.3615
 1089SOL    HW2 3846   8.989   8.599   6.380 -1.3591 -1.7454  0.5451
 1090SOL     OW 3847   1.649   3.159   5.262  0.3168 -0.8321 -0.3276
 1090SOL    HW1 3848   1.694   3.079   5.234  1.5908  0.2454 -1.5292
 1090SOL    HW2 3849   1.700   3.191   5.336  1.1631  0.0133 -1.2442
 1091SOL     OW 3850   1.950   7.914   0.191 -0.0764 -0.5953  0.4137
 1091SOL    HW1 3851   1.993   8.000   0.193 -1.8677  0.3436  0.7121
 1091SOL    HW2 3852   1.959   7.886   0.100  1.2828 -0.5181  0.5047
 1092SOL     OW 3853   5.428   6.113   7.259  0.5491  0.7044 -0.3621
 1092SOL    HW1 3854   5.440   6.069   7.175 -3.0062 -0.8252 -0.2695
 1092SOL    HW2 3855   5.351   6.169   7.246 -1.1851 -0.8357  2.1761
 1093SOL     OW 3856   8.186   0.150   7.477 -0.1067 -0.7254 -0.5355
 1093SOL    HW1 3857   8.237   0.161   7.557  0.6145 -2.6941 -0.6608
 1093SOL    HW2 3858   8.138   0.232   7.468  0.7571  0.0400  1.2129
 1094SOL     OW 3859   4.103   3.320   7.815 -0.3026 -0.2003 -0.1485
 1094SOL    HW1 3860   4.071   3.371   7.741 -0.1071 -0.6212 -0.5301
 1094SOL    HW2 3861   4.034   3.326   7.881  0.8057  2.7641  0.8846
 1095SOL     OW 3862   7.063   3.980   7.103 -0.8610  0.3522 -0.1849
 1095SOL    HW1 3863   7.073   3.912   7.037  0.4098  0.0726  0.2712
 1095SOL    HW2 3864   6.997   4.040   7.066  0.3000  0.5830 -2.0096
 1096SOL     OW 3865   4.959   8.690   9.607  0.2047 -0.6037  0.7685
 1096SOL    HW1 3866   5.029   8.755   9.596 -0.9809  0.6185  0.1267
 1096SOL    HW2 3867   4.996   8.609   9.572  0.9602  0.2433 -0.4611
 1097SOL     OW 3868   7.767   4.137   6.758 -0.0790  0.6376  0.0991
 1097SOL    HW1 3869   7.802   4.218   6.722  1.5306 -0.0329  0.0714
 1097SOL    HW2 3870   7.770   4.149   6.853  0.4956  0.4762  0.1013
 1098SOL     OW 3871   8.141   8.351   3.507 -0.3258  0.5132  0.2688
 1098SOL    HW1 3872   8.145   8.403   3.587  1.3969  1.5394 -0.4192
 1098SOL    HW2 3873   8.218   8.294   3.512 -1.4410 -1.0794  0.3655
 1099SOL     OW 3874   9.762   3.755   8.537  0.5256  0.6375  0.1444
 1099SOL    HW1 3875   9.700   3.712   8.477 -0.5516 -0.3145  1.8541
 1099SOL    HW2 3876   9.739   3.847   8.531  1.9211  0.9048 -2.5181
 1100SOL     OW 3877   9.164   0.850   7.661 -0.0529  0.4128  0.0597
 1100SOL    HW1 3878   9.240   0.890   7.620 -0.4671 -0.5694 -1.8128
 1100SOL    HW2 3879   9.200   0.780   7.716  0.4031 -0.0752 -0.8448
 1101SOL     OW 3880   9.122   8.993   3.618  0.3915 -0.1480  0.1173
 1101SOL    HW1 3881   9.163   9.058   3.676 -0.3106 -0.1714  0.6524
 1101SOL    HW2 3882   9.156   9.013   3.531  0.0299  1.0784  0.2422
 1102SOL     OW 3883   8.424   3.280   7.716 -0.3595  0.6834  0.4529
 1102SOL    HW1 3884   8.426   3.371   7.689 -1.0446  0.0238 -2.1030
 1102SOL    HW2 3885   8.515   3.257   7.733 -0.2881  2.1050  2.3753
 1103SOL     OW 3886   4.621   6.548   2.651 -0.1261  0.3842 -0.0878
 1103SOL    HW1 3887   4.621   6.454   2.631 -0.5361  0.4704 -0.5077
 1103SOL    HW2 3888   4.577   6.554   2.736 -2.5168  0.4141 -1.2298
 1104SOL     OW 3889   9.412   7.779   4.682  0.3070  0.0842 -0.4245
 1104SOL    HW1 3890   9.395   7.708   4.744  2.1893 -1.0789 -1.1626
 1104SOL    HW2 3891   9.456   7.847   4.734 -0.8793  0.4470  0.1334
 1105SOL     OW 3892   1.456   8.294   1.560 -0.2761  0.2349  0.0098
 1105SOL    HW1 3893   1.535   8.314   1.611 -0.6217  0.4550  0.4666
 1105SOL    HW2 3894   1.384   8.327   1.614 -0.7069 -0.3189 -0.2184
 1106SOL     OW 3895   3.459   0.127   0.560 -0.0779 -0.6559  0.2693
 1106SOL    HW1 3896   3.529   0.179   0.600 -1.1050 -0.4047  1.8610
 1106SOL    HW2 3897   3.499   0.087   0.483  1.0174  1.7278 -0.5058
 1107SOL     OW 3898   2.685   9.248   4.966  0.0920  0.0060 -0.2305
 1107SOL    HW1 3899   2.601   9.271   4.927 -0.3921 -0.9036  0.2489
 1107SOL    HW2 3900   2.747   9.256   4.894 -0.2972  1.2424 -0.4497
 1108SOL     OW 3901   0.554   7.979   4.442 -0.1088  0.7726 -0.1094
 1108SOL    HW1 3902   0.600   7.954   4.522 -0.8568 -1.1623 -0.2322
 1108SOL    HW2 3903   0.466   8.003   4.472 -0.6187 -0.6648 -0.3870
 1109SOL     OW 3904   2.193   9.468   8.648 -0.0067 -0.5636 -0.0847
 1109SOL    HW1 3905   2.176   9.375   8.634 -0.5046 -0.4745 -0.0899
 1109SOL    HW2 3906   2.118   9.513   8.608 -0.3958 -0.2100  0.9846
 1110SOL     OW 3907   5.442   6.698   2.338 -0.2007 -0.5335 -0.2020
 1110SOL    HW1 3908   5.430   6.620   2.393 -1.8759  0.3560  0.7710
 1110SOL    HW2 3909   5.354   6.718   2.305  0.1079  1.1867 -0.0694
 1111SOL     OW 3910   3.613   7.290   5.197  0.1079 -0.0828 -0.4194
 1111SOL    HW1 3911   3.659   7.251   5.271 -0.3709  0.2028  0.0392
 1111SOL    HW2 3912   3.680   7.338   5.149  0.5362 -0.7579 -0.5085
 1112SOL     OW 3913   1.168   2.444   2.085  0.4884  0.0095 -0.1001
 1112SOL    HW1 3914   1.153   2.361   2.131  2.5625 -0.2064  0.2875
 1112SOL    HW2 3915   1.176   2.419   1.993  0.9758 -0.2065 -0.0002
 1113SOL     OW 3916   3.565   4.945   8.466 -0.4756 -0.0482 -0.1393
 1113SOL    HW1 3917   3.649   4.990   8.465 -0.9078  0.7573 -0.8898
 1113SOL    HW2 3918   3.546   4.932   8.559 -0.6462  1.9245  0.1423
 1114SOL     OW 3919   7.121   4.395   3.252  0.4361 -0.5559 -0.2244
 1114SOL    HW1 3920   7.142   4.414   3.160  0.1930  0.2797 -0.1109
 1114SOL    HW2 3921   7.044   4.448   3.270  1.0945  0.0885  0.7741
 1115SOL     OW 3922   5.664   3.954   7.293 -0.2613 -0.0558  0.7878
 1115SOL    HW1 3923   5.584   3.969   7.243  1.1542 -0.8239 -1.9016
 1115SOL    HW2 3924   5.734   3.993   7.241  1.4186 -1.5031  1.8115
 1116SOL     OW 3925   8.397   3.177   2.753  0.2742  0.2842  0.3583
 1116SOL    HW1 3926   8.449   3.257   2.763 -0.7489  0.9882  0.2399
 1116SOL    HW2 3927   8.339   3.177   2.830 -0.1852  0.0117  0.0153
 1117SOL     OW 3928   4.344   9.441   7.493 -0.2544  0.3869 -0.0328
 1117SOL    HW1 3929   4.404   9.378   7.534  0.6466  0.0617 -1.7773
 1117SOL    HW2 3930   4.378   9.453   7.405 -2.5638  0.4535 -0.9764
 1118SOL     OW 3931   3.550   6.987   5.859 -0.1144  0.2212 -0.6884
 1118SOL    HW1 3932   3.457   6.999   5.840  0.0481  0.9240 -1.0915
 1118SOL    HW2 3933   3.589   7.072   5.839  0.4429  0.2730  0.5704
 1119SOL     OW 3934   6.382   6.747   6.511 -0.4375  0.0223 -0.2282
 1119SOL    HW1 3935   6.441   6.822   6.518 -1.2709  0.6080  0.7878
 1119SOL    HW2 3936   6.305   6.772   6.562  0.7088 -2.9358  3.3975
 1120SOL     OW 3937   1.156   7.699   0.064  0.4215  0.0336  0.3516
 1120SOL    HW1 3938   1.096   7.769   0.089  0.5880  0.4498 -0.3988
 1120SOL    HW2 3939   1.241   7.743   0.053  0.2491 -0.0117 -1.4917
 1121SOL     OW 3940   8.540   3.936   4.017 -0.0031 -0.2225 -0.8220
 1121SOL    HW1 3941   8.469   3.974   4.067 -1.2933 -0.0779 -2.6633
 1121SOL    HW2 3942   8.614   3.995   4.030 -1.5056  2.1369 -2.3403
 1122SOL     OW 3943   8.618   3.521   9.607 -0.2552  0.0606  0.3701
 1122SOL    HW1 3944   8.555   3.451   9.622 -2.4789  1.1733 -2.7933
 1122SOL    HW2 3945   8.627   3.565   9.692 -1.1410 -2.1578  1.6724
 1123SOL     OW 3946   8.718   5.797   9.869 -0.3181  0.1179 -0.1469
 1123SOL    HW1 3947   8.645   5.736   9.857 -0.8315  0.5941  0.5160
 1123SOL    HW2 3948   8.742   5.823   9.781  0.4855 -1.6945 -0.5246
 1124SOL     OW 3949   8.424   1.730   6.987 -0.2248 -0.2054 -0.2916
 1124SOL    HW1 3950   8.421   1.803   7.048  1.5142 -0.5491  0.2487
 1124SOL    HW2 3951   8.426   1.771   6.901  1.6375  0.4663  0.0218
 1125SOL     OW 3952   5.930   5.587   6.121  0.3481 -0.3349  0.2274
 1125SOL    HW1 3953   5.921   5.503   6.076  0.1196  0.0784 -0.5248
 1125SOL    HW2 3954   5.918   5.566   6.213 -0.0491 -1.0780  0.0198
 1126SOL     OW 3955   4.858   1.740   9.534  0.3073  0.7267 -0.4176
 1126SOL    HW1 3956   4.768   1.749   9.504  0.2890  0.2241 -0.5276
 1126SOL    HW2 3957   4.897   1.826   9.521  0.5551  0.3267 -2.7598
 1127SOL     OW 3958   2.585   8.182   5.766 -0.1347 -0.7431 -0.4235
 1127SOL    HW1 3959   2.623   8.209   5.683  1.1189 -1.2632 -0.0472
 1127SOL    HW2 3960   2.628   8.098   5.786  0.6565  0.0403  1.4251
 1128SOL     OW 3961   3.569   9.684   2.275  0.0843  0.3617  0.2863
 1128SOL    HW1 3962   3.636   9.752   2.283  0.0802  0.2673  1.2870
 1128SOL    HW2 3963   3.487   9.732   2.267 -0.0733  0.5274  2.3347
 1129SOL     OW 3964   0.388   1.040   2.588  0.2455 -0.1339  0.3065
 1129SOL    HW1 3965   0.386   1.016   2.680 -0.6722 -1.4933 -0.0358
 1129SOL    HW2 3966   0.450   0.979   2.548  0.9050  0.6744  0.0746
 1130SOL     OW 3967   1.444   1.117   5.129 -0.1294 -0.5551  0.0484
 1130SOL    HW1 3968   1.387   1.175   5.179  0.6904  0.1062  0.2319
 1130SOL    HW2 3969   1.393   1.096   5.051 -0.0271  1.3646 -0.5949
 1131SOL     OW 3970   8.177   9.756   8.616 -0.4334 -0.9526  0.3026
 1131SOL    HW1 3971   8.139   9.686   8.563  0.7320 -0.6488 -0.9762
 1131SOL    HW2 3972   8.259   9.719   8.649  0.0136 -0.3183 -0.0862
 1132SOL     OW 3973   2.484   9.007   6.837 -0.3751  0.2134 -0.4674
 1132SOL    HW1 3974   2.392   8.982   6.837 -0.4045  0.3215 -0.3772
 1132SOL    HW2 3975   2.507   9.013   6.745 -0.1231 -1.0549 -0.5097
 1133SOL     OW 3976   2.194   7.872   3.401 -0.4359 -0.1955  0.5652
 1133SOL    HW1 3977   2.164   7.908   3.318  1.3053 -0.1131 -0.0666
 1133SOL    HW2 3978   2.114   7.841   3.444 -1.4667  0.5601 -0.7368
 1134SOL     OW 3979   4.066   5.585   3.220  0.4358 -0.0428 -0.1404
 1134SOL    HW1 3980   4.128   5.656   3.236 -0.0250  0.2997  0.1273
 1134SOL    HW2 3981   4.113   5.526   3.161  0.6827  0.6862 -0.7007
 1135SOL     OW 3982   4.474   0.667   1.693 -0.4690  0.1168 -0.2000
 1135SOL    HW1 3983   4.538   0.718   1.643 -0.6035 -0.3960 -0.9034
 1135SOL    HW2 3984   4.476   0.580   1.653 -0.3851 -0.3802  0.8647
 1136SOL     OW 3985   3.384   5.688   1.281  0.2106  0.2184 -0.3070
 1136SOL    HW1 3986   3.443   5.639   1.340  1.0922  1.2799 -0.2783
 1136SOL    HW2 3987   3.381   5.776   1.318 -1.3327  0.2219 -0.3798
 1137SOL     OW 3988   4.660   8.161   5.074 -0.2539 -0.3977 -0.5553
 1137SOL    HW1 3989   4.665   8.086   5.014 -1.1536 -1.0414  0.1463
 1137SOL    HW2 3990   4.682   8.124   5.160  0.5446  0.4175 -0.3926
 1138SOL     OW 3991   6.083   1.490   2.360  0.4932 -0.3419 -0.1059
 1138SOL    HW1 3992   6.002   1.441   2.370  0.7286 -0.7703 -0.2436
 1138SOL    HW2 3993   6.109   1.474   2.269 -0.2387  1.3186 -0.6330
 1139SOL     OW 3994   0.767   9.146   8.118 -0.3382 -0.0993  0.5674
 1139SOL    HW1 3995   0.710   9.223   8.116  0.3129  0.4169  1.3696
 1139SOL    HW2 3996   0.707   9.072   8.107 -0.7439  0.5515 -2.8205
 1140SOL     OW 3997   7.816   1.939   4.289  0.1299  0.0330  0.2520
 1140SOL    HW1 3998   7.899   1.977   4.259  0.3934 -1.6612 -1.3500
 1140SOL    HW2 3999   7.756   1.953   4.216 -1.1970  1.6553  1.5795
 1141SOL     OW 4000   5.010   1.415   5.785 -0.5733 -0.2877  0.3339
 1141SOL    HW1 4001   5.088   1.398   5.733  0.4898 -0.3339  1.9049
 1141SOL    HW2 4002   4.969   1.329   5.796 -0.2173 -0.4419  0.4710
 1142SOL     OW 4003   5.577   7.056   8.718  0.0052 -0.4255 -0.1368
 1142SOL    HW1 4004   5.516   7.052   8.792 -0.3983 -0.5583 -0.4705
 1142SOL    HW2 4005   5.655   7.097   8.753 -1.1188  1.9693 -0.2577
 1143SOL     OW 4006   9.736   0.169   2.267 -0.3468  0.0887 -0.1785
 1143SOL    HW1 4007   9.820   0.214   2.254 -0.4790 -0.0001 -1.4689
 1143SOL    HW2 4008   9.753   0.109   2.340  0.6378  0.2657 -0.2404
 1144SOL     OW 4009   0.481   4.129   1.739 -0.0113  0.0727  0.5539
 1144SOL    HW1 4010   0.556   4.156   1.686 -1.1848  2.6686  0.0663
 1144SOL    HW2 4011   0.501   4.039   1.765  3.7831  0.9769  1.3862
 1145SOL     OW 4012   6.713   6.008   8.459 -0.0037 -0.7953  0.1347
 1145SOL    HW1 4013   6.634   5.961   8.433 -2.0493  2.0159  0.7937
 1145SOL    HW2 4014   6.693   6.100   8.441  3.7625 -0.0529 -1.1348
 1146SOL     OW 4015   6.608   3.462   4.150 -0.9414  0.0089  0.6075
 1146SOL    HW1 4016   6.557   3.491   4.226 -1.2800  2.4675 -0.4601
 1146SOL    HW2 4017   6.561   3.498   4.075  0.9114  0.0730 -0.5777
 1147SOL     OW 4018   4.853   6.766   2.518  0.3638 -0.3941 -0.9409
 1147SOL    HW1 4019   4.826   6.696   2.577 -0.9008  0.6296 -0.2554
 1147SOL    HW2 4020   4.949   6.760   2.517  0.6964  0.9867  3.1779
 1148SOL     OW 4021   4.307   7.880   6.935  0.6443 -0.5938 -0.0932
 1148SOL    HW1 4022   4.372   7.829   6.886  0.5081 -0.6361 -0.2334
 1148SOL    HW2 4023   4.354   7.912   7.012  1.4245  1.0780 -1.1919
 1149SOL     OW 4024   0.678   1.586   7.407  0.9212  0.3040 -0.4026
 1149SOL    HW1 4025   0.668   1.497   7.441 -0.3480 -0.1196 -1.7872
 1149SOL    HW2 4026   0.735   1.629   7.470 -0.7012 -0.6495  1.8359
 1150SOL     OW 4027   3.934   1.566   1.542  0.0923 -0.3301  0.1786
 1150SOL    HW1 4028   4.004   1.501   1.547 -0.8702 -1.4322  0.0567
 1150SOL    HW2 4029   3.978   1.649   1.524  1.3702 -0.9440  0.3822
 1151SOL     OW 4030   0.975   6.286   2.236  0.5119  0.1562 -0.0262
 1151SOL    HW1 4031   0.948   6.279   2.145 -0.0519 -0.3813  0.1786
 1151SOL    HW2 4032   1.064   6.250   2.238 -0.4568 -2.4093  0.0993
 1152SOL     OW 4033   1.413   7.821   4.884  0.2320  0.6611 -0.2383
 1152SOL    HW1 4034   1.470   7.888   4.847 -0.3889  0.5608 -1.4391
 1152SOL    HW2 4035   1.344   7.869   4.929 -0.1891  0.8560 -1.0628
 1153SOL     OW 4036   2.025   5.316   3.219 -0.1797  0.0294  0.0808
 1153SOL    HW1 4037   2.117   5.295   3.200 -0.8834 -1.6667 -1.7815
 1153SOL    HW2 4038   1.997   5.246   3.278 -1.0249 -1.1838 -1.6904
 1154SOL     OW 4039   8.339   2.472   9.202 -0.1925  0.5178  0.3082
 1154SOL    HW1 4040   8.297   2.557   9.194 -1.7962 -0.2363  0.3265
 1154SOL    HW2 4041   8.371   2.469   9.292 -0.5199  0.9393  0.4376
 1155SOL     OW 4042   3.020   4.690   4.789  0.0275 -0.2780 -0.3354
 1155SOL    HW1 4043   3.001   4.740   4.868  0.5538 -1.0368  0.2817
 1155SOL    HW2 4044   3.056   4.755   4.728  0.8016  0.0803  0.4858
 1156SOL     OW 4045   2.896   4.069   6.273 -0.8386  0.5126 -1.0463
 1156SOL    HW1 4046   2.911   4.054   6.366  0.1851  1.7535 -0.9840
 1156SOL    HW2 4047   2.923   3.987   6.231 -0.2499  0.3354 -0.3439
 1157SOL     OW 4048   9.563   0.829   8.857  0.8624 -0.0315  0.4216
 1157SOL    HW1 4049   9.595   0.741   8.838 -1.2364 -0.7699  0.0492
 1157SOL    HW2 4050   9.528   0.824   8.946 -1.2266 -0.2422 -0.3519
 1158SOL     OW 4051   4.444   3.790   8.528 -0.4130 -0.1241  0.5762
 1158SOL    HW1 4052   4.503   3.725   8.491 -0.3330 -1.0070  2.1796
 1158SOL    HW2 4053   4.500   3.844   8.584 -1.0871 -1.0366  2.1938
 1159SOL     OW 4054   7.361   1.303   4.232 -0.7539  0.1165 -0.5268
 1159SOL    HW1 4055   7.359   1.377   4.293  0.9390 -1.3561  1.4189
 1159SOL    HW2 4056   7.282   1.252   4.254  0.0062 -0.5725  0.7244
 1160SOL     OW 4057   0.520   1.263   0.877  0.5616 -0.3463  0.2300
 1160SOL    HW1 4058   0.553   1.232   0.962 -2.0168 -3.2532  0.3461
 1160SOL    HW2 4059   0.583   1.330   0.851  2.3830 -0.4543  3.6500
 1161SOL     OW 4060   8.221   4.065   8.374  0.3924  0.1818  0.2741
 1161SOL    HW1 4061   8.230   4.160   8.379 -2.0066  0.4268  3.8962
 1161SOL    HW2 4062   8.310   4.031   8.385  1.2033  1.9712 -0.4419
 1162SOL     OW 4063   1.005   0.249   9.906 -0.2994  0.0213 -0.1259
 1162SOL    HW1 4064   0.926   0.242   9.852  0.2359 -2.7436 -0.6971
 1162SOL    HW2 4065   0.998   0.178   9.969  0.6840  1.1532  1.3315
 1163SOL     OW 4066   2.089   6.670   8.698  0.3171 -0.3511  0.3115
 1163SOL    HW1 4067   2.066   6.762   8.689  0.8840 -0.1298  1.0449
 1163SOL    HW2 4068   2.117   6.660   8.789  2.7263 -0.6494 -0.3906
 1164SOL     OW 4069   8.644   9.451   3.803  0.1472 -0.8801 -0.0159
 1164SOL    HW1 4070   8.549   9.457   3.800  0.2460  1.2500 -0.4962
 1164SOL    HW2 4071   8.675   9.538   3.777  2.1971 -0.9825  1.7179
 1165SOL     OW 4072   7.304   3.661   7.111  0.3922 -0.1830 -0.0646
 1165SOL    HW1 4073   7.302   3.588   7.050  0.8180  0.3178 -0.6895
 1165SOL    HW2 4074   7.229   3.647   7.168  0.7693 -1.3928  0.1592
 1166SOL     OW 4075   4.023   2.103   9.343 -0.4473 -0.1380  0.0174
 1166SOL    HW1 4076   4.005   2.038   9.276  0.7659 -1.6291  1.0625
 1166SOL    HW2 4077   4.112   2.133   9.325 -1.2739  1.9767 -0.9731
 1167SOL     OW 4078   1.087   9.755   4.203  0.0130  0.5186  0.1684
 1167SOL    HW1 4079   1.075   9.669   4.164 -0.2930 -0.2774  1.9457
 1167SOL    HW2 4080   1.147   9.740   4.277  0.4834  1.9422  0.1090
 1168SOL     OW 4081   7.216   9.888   8.269  0.2214  0.1356  0.1168
 1168SOL    HW1 4082   7.301   9.930   8.254  1.2652 -1.8039  0.3120
 1168SOL    HW2 4083   7.223   9.803   8.225 -2.1164  0.4373 -1.0080
 1169SOL     OW 4084   5.032   1.998   5.614 -0.5837  0.1020  0.5190
 1169SOL    HW1 4085   5.078   1.915   5.599 -0.5076  0.1797  0.3149
 1169SOL    HW2 4086   5.064   2.028   5.699 -0.1924  0.1984  0.3375
 1170SOL     OW 4087   1.665   5.510   3.840 -0.2963 -0.4693  0.4227
 1170SOL    HW1 4088   1.687   5.419   3.818 -0.8168 -0.5277  0.1052
 1170SOL    HW2 4089   1.573   5.506   3.868  0.2496 -0.3420  2.3759
 1171SOL     OW 4090   1.342   1.266   8.201 -0.4847 -0.1913 -0.1724
 1171SOL    HW1 4091   1.353   1.295   8.292  0.7118  0.6783 -0.5756
 1171SOL    HW2 4092   1.404   1.194   8.192 -0.9659 -0.6141 -0.1730
 1172SOL     OW 4093   8.662   0.914   5.376  0.0836  1.0556 -0.3829
 1172SOL    HW1 4094   8.603   0.843   5.348  1.4665 -0.1297 -0.3817
 1172SOL    HW2 4095   8.735   0.910   5.315  0.5935  1.9224  0.1541
 1173SOL     OW 4096   1.853   6.969   4.304  0.2812  0.6048  0.3324
 1173SOL    HW1 4097   1.855   6.908   4.231  2.9732  0.1756  0.6767
 1173SOL    HW2 4098   1.761   6.997   4.309 -0.8641 -2.5980 -0.4645
 1174SOL     OW 4099   2.676   1.117   1.289 -0.3897  0.3806 -0.2268
 1174SOL    HW1 4100   2.626   1.036   1.282 -0.5720  0.5198 -0.5584
 1174SOL    HW2 4101   2.692   1.144   1.198  2.6578 -1.1032 -0.2610
 1175SOL     OW 4102   5.677   5.445   8.230  0.0780 -0.2321 -0.6926
 1175SOL    HW1 4103   5.764   5.414   8.253  1.0433  2.4867 -0.2997
 1175SOL    HW2 4104   5.682   5.466   8.137 -0.8986 -2.1620 -1.2287
 1176SOL     OW 4105   1.320   8.584   2.536 -0.0855  0.1709  0.0388
 1176SOL    HW1 4106   1.271   8.569   2.455 -0.2026  0.4330  0.0614
 1176SOL    HW2 4107   1.412   8.575   2.510 -0.0621  1.4147 -0.3772
 1177SOL     OW 4108   4.050   0.093   8.164 -0.0134  0.3186 -0.4341
 1177SOL    HW1 4109   4.091   0.093   8.250  0.9858  2.2006 -0.8530
 1177SOL    HW2 4110   4.082   0.014   8.121  1.1352  0.4331  0.1859
 1178SOL     OW 4111   1.022   6.958   1.582  0.5253  0.9759 -0.2516
 1178SOL    HW1 4112   1.013   7.038   1.635 -1.2216  0.2869  0.5913
 1178SOL    HW2 4113   0.964   6.894   1.626 -1.3968  0.4826 -3.2270
 1179SOL     OW 4114   6.826   5.611   0.917 -0.1397 -0.1874 -0.1054
 1179SOL    HW1 4115   6.914   5.642   0.894  0.4995 -2.4657 -0.9473
 1179SOL    HW2 4116   6.841   5.534   0.971 -1.6681  0.2043  0.9520
 1180SOL     OW 4117   9.090   9.709   8.581 -0.4975  0.3792 -0.1212
 1180SOL    HW1 4118   9.075   9.706   8.676 -0.6987 -1.5127 -0.1716
 1180SOL    HW2 4119   9.027   9.647   8.545  0.9143 -0.4446 -1.2943
 1181SOL     OW 4120   8.838   3.227   3.139  0.0318  0.3466  0.0646
 1181SOL    HW1 4121   8.790   3.271   3.209  1.0322  2.4952 -0.5295
 1181SOL    HW2 4122   8.843   3.292   3.069 -0.6376 -1.6053 -1.9176
 1182SOL     OW 4123   0.861   4.321   0.625 -0.1717  0.5390 -0.0282
 1182SOL    HW1 4124   0.804   4.397   0.627 -0.8130  0.1202 -1.2448
 1182SOL    HW2 4125   0.864   4.290   0.715 -1.9747  0.5066  0.0567
 1183SOL     OW 4126   8.289   6.121   3.030 -0.5507 -0.5878  0.0743
 1183SOL    HW1 4127   8.216   6.180   3.049  0.6688  0.5495  1.5088
 1183SOL    HW2 4128   8.284   6.107   2.936 -1.1984  1.4110 -0.2422
 1184SOL     OW 4129   4.809   7.729   9.285 -0.3801  0.2602 -0.2053
 1184SOL    HW1 4130   4.806   7.753   9.193  1.1292  0.5749 -0.1972
 1184SOL    HW2 4131   4.757   7.796   9.329  1.6961  2.1307 -0.4677
 1185SOL     OW 4132   6.854   4.578   1.974  0.2571  0.4568 -0.8193
 1185SOL    HW1 4133   6.929   4.565   2.033 -0.6325 -0.9590  0.0395
 1185SOL    HW2 4134   6.861   4.507   1.911 -0.4827  0.1932 -0.6084
 1186SOL     OW 4135   7.832   4.565   2.341 -0.0635  0.4710  0.2935
 1186SOL    HW1 4136   7.842   4.660   2.347 -0.6567  0.5336  0.3391
 1186SOL    HW2 4137   7.891   4.540   2.270  0.4095  0.8171  0.5537
 1187SOL     OW 4138   1.648   2.228   3.905 -0.1761  0.2984  0.3735
 1187SOL    HW1 4139   1.675   2.236   3.814  0.0466  0.2674  0.4352
 1187SOL    HW2 4140   1.560   2.266   3.908  0.5179  1.9856  0.5056
 1188SOL     OW 4141   5.869   8.635   9.674 -0.3675  0.2038 -0.2021
 1188SOL    HW1 4142   5.924   8.560   9.696  0.6282  0.6424 -1.1465
 1188SOL    HW2 4143   5.930   8.703   9.648 -1.2881  1.2056  0.2024
 1189SOL     OW 4144   5.223   3.745   8.802 -0.4901  0.2057 -0.0841
 1189SOL    HW1 4145   5.231   3.753   8.707 -1.1808  0.7282 -0.1066
 1189SOL    HW2 4146   5.155   3.679   8.815 -0.2935  0.0288  0.0491
 1190SOL     OW 4147   0.699   1.952   0.557  0.2308  0.0214  0.5193
 1190SOL    HW1 4148   0.781   1.914   0.526  0.3571 -0.1038  0.9972
 1190SOL    HW2 4149   0.692   1.924   0.648 -1.7799 -2.4128 -0.2429
 1191SOL     OW 4150   7.728   8.170   2.410 -0.5571  0.5242 -0.4523
 1191SOL    HW1 4151   7.643   8.160   2.452 -1.9074  2.9025 -2.3519
 1191SOL    HW2 4152   7.774   8.234   2.464 -0.4674  0.2134 -0.1537
 1192SOL     OW 4153   5.001   6.776   6.060  0.1718  0.5220 -0.6533
 1192SOL    HW1 4154   5.009   6.777   6.155 -0.9050 -1.1960 -0.5018
 1192SOL    HW2 4155   5.091   6.772   6.028  0.5132  0.1115  0.3263
 1193SOL     OW 4156   1.434   4.470   1.518 -0.0192 -0.0902 -0.1854
 1193SOL    HW1 4157   1.519   4.442   1.552  0.1925 -0.3479 -0.9207
 1193SOL    HW2 4158   1.426   4.426   1.434 -0.4536  0.6933 -0.5653
 1194SOL     OW 4159   9.035   2.989   1.069  0.0678 -0.0541 -0.0201
 1194SOL    HW1 4160   9.072   3.042   1.140  0.0283 -2.9527  2.3596
 1194SOL    HW2 4161   8.943   3.016   1.066  0.0569  0.1080  1.0689
 1195SOL     OW 4162   8.431   3.932   8.565 -1.2176  0.0011  0.2600
 1195SOL    HW1 4163   8.390   3.975   8.640  0.1484  0.8732  0.5353
 1195SOL    HW2 4164   8.438   3.840   8.590 -2.5133 -0.0744  0.4014
 1196SOL     OW 4165   5.095   3.328   6.654 -0.3216  0.5667  0.1711
 1196SOL    HW1 4166   5.156   3.337   6.727  0.1683  1.3419 -0.3215
 1196SOL    HW2 4167   5.056   3.241   6.666 -0.5047  0.8277  1.5370
 1197SOL     OW 4168   0.747   8.861   2.045 -0.2008 -0.6174  0.5667
 1197SOL    HW1 4169   0.788   8.904   2.120 -0.7282 -0.2225  0.6316
 1197SOL    HW2 4170   0.821   8.838   1.988  0.1943 -0.8155  1.1447
 1198SOL     OW 4171   0.749   0.111   8.691  0.3898 -0.5300  0.5478
 1198SOL    HW1 4172   0.711   0.055   8.624  0.0293 -0.5596  0.7770
 1198SOL    HW2 4173   0.844   0.099   8.681  0.3155 -1.3492  0.7335
 1199SOL     OW 4174   9.276   4.724   7.474  0.3807 -0.2896 -0.5626
 1199SOL    HW1 4175   9.207   4.659   7.460  0.1738 -0.1290 -0.2951
 1199SOL    HW2 4176   9.291   4.722   7.569  0.4066  0.0233 -0.5610
 1200SOL     OW 4177   3.801   4.383   5.196  0.2004 -0.4123  0.1525
 1200SOL    HW1 4178   3.819   4.421   5.110  0.7294 -0.8795  0.0524
 1200SOL    HW2 4179   3.814   4.289   5.184 -1.5464 -0.7206  0.2718
 1201SOL     OW 4180   7.368   4.164   8.445  0.2293 -0.3746  0.0981
 1201SOL    HW1 4181   7.426   4.104   8.398  1.3978 -0.4069  1.5235
 1201SOL    HW2 4182   7.402   4.251   8.425  3.3428 -0.4446  3.8566
 1202SOL     OW 4183   7.057   5.277   1.809 -0.6144  0.0269  0.2732
 1202SOL    HW1 4184   7.048   5.182   1.815  1.3247 -0.7022 -4.2628
 1202SOL    HW2 4185   7.144   5.295   1.842 -1.8230  0.7467  3.3938
 1203SOL     OW 4186   5.932   6.170   2.308 -0.2435 -0.3253 -0.4965
 1203SOL    HW1 4187   5.950   6.226   2.232 -2.2135 -2.1775 -2.4983
 1203SOL    HW2 4188   5.836   6.170   2.315 -0.1408 -0.9061  1.4700
 1204SOL     OW 4189   3.128   2.366   0.926 -0.0526  0.3174  0.1207
 1204SOL    HW1 4190   3.218   2.401   0.926 -0.1801  0.8292 -2.3149
 1204SOL    HW2 4191   3.134   2.286   0.977  1.2988  1.4338  1.8507
 1205SOL     OW 4192   9.317   8.907   2.574  0.4256 -0.1422  0.7287
 1205SOL    HW1 4193   9.388   8.954   2.616  0.8252 -0.1159  0.0437
 1205SOL    HW2 4194   9.360   8.839   2.522  0.2439  1.8096 -2.2217
 1206SOL     OW 4195   3.412   9.173   0.714  0.0761  0.1106 -0.2040
 1206SOL    HW1 4196   3.328   9.129   0.725 -0.0694  0.5860  0.7032
 1206SOL    HW2 4197   3.473   9.121   0.765  0.1086  0.3724  0.0263
 1207SOL     OW 4198   9.531   8.845   6.183 -0.1050 -0.0633 -0.5182
 1207SOL    HW1 4199   9.572   8.787   6.118  1.7663  0.5048  0.1076
 1207SOL    HW2 4200   9.443   8.810   6.193  0.2827 -1.5073 -1.7265
 1208SOL     OW 4201   1.540   7.510   3.735 -0.0621  0.2830  0.2255
 1208SOL    HW1 4202   1.636   7.507   3.734 -0.0255  0.5461  1.1349
 1208SOL    HW2 4203   1.513   7.420   3.753 -0.1032 -0.3463 -2.6250
 1209SOL     OW 4204   7.215   3.303   4.740  0.1626  0.0184  0.1803
 1209SOL    HW1 4205   7.228   3.276   4.649  2.4512  0.4177  0.3253
 1209SOL    HW2 4206   7.290   3.266   4.787  0.1520  1.5547  1.4994
 1210SOL     OW 4207   6.719   3.088   3.995  0.3294  0.1215 -0.0280
 1210SOL    HW1 4208   6.659   3.044   4.056  0.3194 -1.4051 -1.0870
 1210SOL    HW2 4209   6.806   3.073   4.031  0.1857  1.5855  1.0366
 1211SOL     OW 4210   6.933   7.366   6.779 -0.3301 -0.6808 -0.0521
 1211SOL    HW1 4211   6.952   7.431   6.847 -0.6643 -0.7487  0.1073
 1211SOL    HW2 4212   7.016   7.319   6.768 -0.3372 -0.8208  0.4696
 1212SOL     OW 4213   4.774   5.525   2.944  0.4282 -0.1368  0.2228
 1212SOL    HW1 4214   4.750   5.455   3.005  0.3194  0.0995  0.4541
 1212SOL    HW2 4215   4.693   5.546   2.898  0.6693 -0.8206 -0.5341
 1213SOL     OW 4216   3.250   0.386   8.583  0.2720 -0.0612 -0.4508
 1213SOL    HW1 4217   3.211   0.303   8.555 -0.6575 -0.2142  1.1819
 1213SOL    HW2 4218   3.300   0.363   8.662  1.1003  0.7019 -0.7384
 1214SOL     OW 4219   3.514   5.591   8.565 -0.1883  0.3890  0.5568
 1214SOL    HW1 4220   3.429   5.592   8.610 -0.3975  0.4576  0.1705
 1214SOL    HW2 4221   3.512   5.511   8.513  0.7574 -0.5892  1.9646
 1215SOL     OW 4222   3.547   1.134   0.653  0.1044  0.5126  0.2738
 1215SOL    HW1 4223   3.625   1.085   0.680 -0.3232 -0.9726 -1.0399
 1215SOL    HW2 4224   3.474   1.076   0.676 -0.4352  0.6266 -1.0624
 1216SOL     OW 4225   9.860   4.315   5.076  0.1294 -0.0012 -0.1558
 1216SOL    HW1 4226   9.812   4.382   5.125  0.3795  0.4991 -0.5784
 1216SOL    HW2 4227   9.802   4.294   5.002  0.1573 -0.0636 -0.1593
 1217SOL     OW 4228   5.220   0.679   2.804  0.1438  0.4316 -0.7411
 1217SOL    HW1 4229   5.145   0.634   2.841  1.0669 -0.7811 -0.2779
 1217SOL    HW2 4230   5.295   0.622   2.824  1.2029  1.6540 -1.0816
 1218SOL     OW 4231   8.850   4.971   9.511 -0.0131 -0.2164 -0.3591
 1218SOL    HW1 4232   8.856   4.886   9.554 -0.7410 -0.6333 -1.0540
 1218SOL    HW2 4233   8.833   4.951   9.420  0.0507  0.6777 -0.5789
 1219SOL     OW 4234   7.791   1.654   2.861  0.3980 -0.2413 -0.1313
 1219SOL    HW1 4235   7.797   1.708   2.782  0.8171 -0.2478 -0.1096
 1219SOL    HW2 4236   7.746   1.708   2.925  0.3381 -0.1171 -0.2800
 1220SOL     OW 4237   8.051   6.238   6.097  0.3845 -0.7531 -0.2827
 1220SOL    HW1 4238   8.110   6.166   6.121 -0.8878 -1.8764 -0.3821
 1220SOL    HW2 4239   7.965   6.196   6.089  0.0230  0.3147 -2.7708
 1221SOL     OW 4240   8.867   9.131   9.563 -0.0653  0.3052  0.0104
 1221SOL    HW1 4241   8.899   9.174   9.642  0.5832  0.2654 -0.2276
 1221SOL    HW2 4242   8.786   9.178   9.541 -0.9007 -0.4360  1.3640
 1222SOL     OW 4243   1.754   3.365   1.591  0.5722 -0.5072 -0.2548
 1222SOL    HW1 4244   1.754   3.352   1.686 -1.5568  0.7291 -0.0272
 1222SOL    HW2 4245   1.767   3.277   1.555 -0.0275 -1.2153  1.1792
 1223SOL     OW 4246   7.484   1.815   4.405  0.9566  0.1352 -0.0949
 1223SOL    HW1 4247   7.487   1.850   4.494  0.5792 -1.3662  0.5570
 1223SOL    HW2 4248   7.415   1.865   4.362  0.3459  0.1274  0.8300
 1224SOL     OW 4249   3.565   3.587   1.660  0.2295 -0.4997  0.5622
 1224SOL    HW1 4250   3.529   3.587   1.572  0.7167  0.2662  0.3540
 1224SOL    HW2 4251   3.571   3.680   1.684  0.3292 -0.6869  1.3024
 1225SOL     OW 4252   4.947   7.441   5.388 -0.6382  0.5328  0.0453
 1225SOL    HW1 4253   4.947   7.537   5.382 -0.5630  0.4727 -1.0312
 1225SOL    HW2 4254   5.038   7.416   5.372 -0.1274  0.3784  2.6765
 1226SOL     OW 4255   8.087   9.944   2.133 -0.0910  0.3570 -0.2758
 1226SOL    HW1 4256   8.008   9.889   2.131 -0.1777  0.3381  1.9561
 1226SOL    HW2 4257   8.058  10.028   2.097 -0.6948 -0.1522 -1.0139
 1227SOL     OW 4258   8.678   1.702   8.585  0.0068  0.2947  0.6874
 1227SOL    HW1 4259   8.655   1.620   8.542  1.4240  0.0822  0.2855
 1227SOL    HW2 4260   8.770   1.717   8.562  0.6426  0.5323  3.0664
 1228SOL     OW 4261   2.089   1.402   3.459 -0.2271  0.2428 -0.4396
 1228SOL    HW1 4262   2.090   1.413   3.364 -1.1561 -0.9225 -0.6017
 1228SOL    HW2 4263   2.178   1.376   3.481 -0.0974  0.1760 -1.0304
 1229SOL     OW 4264   2.179   4.571   2.052  0.8147  0.2361 -0.2747
 1229SOL    HW1 4265   2.198   4.478   2.045 -1.8524 -0.5630  1.5305
 1229SOL    HW2 4266   2.084   4.577   2.042  0.6493  2.4781  1.7886
 1230SOL     OW 4267   6.241   2.443   0.534  0.3100 -0.6424  0.4240
 1230SOL    HW1 4268   6.195   2.477   0.458  1.3903  0.0388  0.0502
 1230SOL    HW2 4269   6.221   2.504   0.604  1.0793 -0.0097  0.1145
 1231SOL     OW 4270   3.291   9.681   6.316 -0.7645  0.6624  0.1258
 1231SOL    HW1 4271   3.236   9.664   6.392 -0.4269  0.0180  0.2216
 1231SOL    HW2 4272   3.335   9.763   6.337 -2.6210  1.8966 -0.4743
 1232SOL     OW 4273   8.956   4.021   0.810  0.0439  0.3288 -0.3173
 1232SOL    HW1 4274   8.973   4.024   0.716 -1.7013  1.1081 -0.6518
 1232SOL    HW2 4275   8.967   4.111   0.840  2.3620 -0.1850  0.6387
 1233SOL     OW 4276   2.194   0.538   0.700  0.1571  0.0631  0.0745
 1233SOL    HW1 4277   2.140   0.466   0.733 -0.1796  0.3618  0.1757
 1233SOL    HW2 4278   2.205   0.596   0.776  0.4634  0.0993  0.0041
 1234SOL     OW 4279   2.582   7.863   9.499 -0.0596 -0.1198  0.0629
 1234SOL    HW1 4280   2.578   7.818   9.583 -0.6702  2.8107  1.7425
 1234SOL    HW2 4281   2.492   7.866   9.468  0.0205 -0.2888 -0.1963
 1235SOL     OW 4282   6.199   8.912   3.330 -0.0630  0.4361 -0.2311
 1235SOL    HW1 4283   6.269   8.962   3.286  1.3107 -1.7202 -0.6384
 1235SOL    HW2 4284   6.177   8.965   3.407  0.8257  1.9947 -0.9852
 1236SOL     OW 4285   7.722   4.549   6.408  0.4051  0.2839 -0.7735
 1236SOL    HW1 4286   7.681   4.636   6.409  0.1412  0.1612 -0.9028
 1236SOL    HW2 4287   7.816   4.567   6.401  0.8834  0.7334  3.7627
 1237SOL     OW 4288   5.952   1.228   2.072  0.1174 -0.1071 -0.0571
 1237SOL    HW1 4289   5.954   1.174   2.151  1.6787  1.3492  0.9755
 1237SOL    HW2 4290   5.938   1.317   2.105  0.6348  0.5043 -1.4336
 1238SOL     OW 4291   9.172   9.186   5.228  0.0673 -0.4361 -0.3061
 1238SOL    HW1 4292   9.181   9.267   5.278  1.2455 -0.6901 -0.0737
 1238SOL    HW2 4293   9.091   9.147   5.261 -0.4036  0.5332 -0.2692
 1239SOL     OW 4294   7.817   9.565   5.491  0.2027 -0.9401 -0.1715
 1239SOL    HW1 4295   7.727   9.543   5.465 -0.2338 -1.0616  1.3627
 1239SOL    HW2 4296   7.864   9.574   5.408 -2.0795  3.1139 -1.2783
 1240SOL     OW 4297   7.646   2.915   2.227  0.4056 -0.1464  0.6106
 1240SOL    HW1 4298   7.629   2.949   2.140  1.7844 -1.1283 -0.0877
 1240SOL    HW2 4299   7.583   2.843   2.237  1.1393 -0.9195 -0.1555
 1241SOL     OW 4300   5.019   2.345   4.991  0.5988 -0.7203  0.1928
 1241SOL    HW1 4301   5.050   2.411   5.054  0.2764  0.2699 -0.6655
 1241SOL    HW2 4302   4.949   2.299   5.038 -1.9458  2.1661 -0.4614
 1242SOL     OW 4303   9.774   9.056   5.912  0.0976  0.1531 -0.1658
 1242SOL    HW1 4304   9.790   9.024   6.001 -0.3069 -0.8451 -0.4394
 1242SOL    HW2 4305   9.801   8.984   5.856 -2.3573 -0.3874 -0.7581
 1243SOL     OW 4306   2.208   6.244   1.231  0.1544 -0.3816  0.1713
 1243SOL    HW1 4307   2.248   6.159   1.247  0.5089 -0.5680 -1.5631
 1243SOL    HW2 4308   2.148   6.229   1.158  1.3715  1.1373 -1.2223
 1244SOL     OW 4309   2.640   4.646   3.613  0.5169  0.2814 -0.5230
 1244SOL    HW1 4310   2.655   4.619   3.522  3.4146  1.7602 -0.5827
 1244SOL    HW2 4311   2.710   4.707   3.632 -1.1600  1.5625  2.1364
 1245SOL     OW 4312   1.171   9.921   7.204 -0.3328  0.1292  0.3077
 1245SOL    HW1 4313   1.225   9.975   7.146  0.3856  1.3009  1.9961
 1245SOL    HW2 4314   1.123   9.862   7.144  1.2481  0.4585 -1.3676
 1246SOL     OW 4315   9.758   6.946   3.379 -0.1361  0.4326 -0.0078
 1246SOL    HW1 4316   9.785   6.918   3.466  0.1334  2.5541  0.6635
 1246SOL    HW2 4317   9.724   6.867   3.337  2.0172 -1.1864  1.1040
 1247SOL     OW 4318   9.236   6.493   7.196 -0.0960 -0.0806 -0.2302
 1247SOL    HW1 4319   9.214   6.449   7.279  0.7257  4.6162  2.8985
 1247SOL    HW2 4320   9.327   6.520   7.206 -0.3446  1.7068 -2.0791
 1248SOL     OW 4321   8.066   1.852   6.854 -0.9557 -1.1232 -0.2667
 1248SOL    HW1 4322   8.109   1.887   6.932  0.6314 -2.3972 -0.5151
 1248SOL    HW2 4323   8.022   1.927   6.815  1.1576  0.3034 -0.0344
 1249SOL     OW 4324   8.996   6.448   3.307 -0.5899  0.0963 -0.0261
 1249SOL    HW1 4325   8.941   6.509   3.258 -1.8256  0.1138  1.3307
 1249SOL    HW2 4326   9.069   6.428   3.248 -1.4986  0.9007 -1.4548
 1250SOL     OW 4327   9.325   9.827   3.910  0.3846 -0.2925  0.8091
 1250SOL    HW1 4328   9.278   9.788   3.984 -0.6026  1.1762  1.0083
 1250SOL    HW2 4329   9.416   9.829   3.937  0.4605 -2.2749  0.8375
 1251SOL     OW 4330   7.436   4.361   6.054  0.0363  0.8914  0.7579
 1251SOL    HW1 4331   7.479   4.343   6.138  1.2599  1.2065  0.2238
 1251SOL    HW2 4332   7.348   4.325   6.064  0.7355 -0.7145  1.5452
 1252SOL     OW 4333   9.477   7.411   6.937 -0.2339 -0.0879  0.3685
 1252SOL    HW1 4334   9.481   7.319   6.962 -0.4174 -0.2509 -0.1948
 1252SOL    HW2 4335   9.495   7.458   7.018  1.4040 -0.6346  0.3482
 1253SOL     OW 4336   8.803   1.690   5.359  0.2128 -0.4979  0.2314
 1253SOL    HW1 4337   8.816   1.783   5.340  1.1525 -0.5524  0.5632
 1253SOL    HW2 4338   8.827   1.681   5.451 -1.6890 -0.7358  0.7472
 1254SOL     OW 4339   7.441   9.100   0.654 -0.3149  0.0103 -0.4960
 1254SOL    HW1 4340   7.444   9.011   0.620  1.9751 -0.3372  0.4676
 1254SOL    HW2 4341   7.517   9.107   0.711 -0.7982  2.3946 -0.0312
 1255SOL     OW 4342   5.600   5.676   9.610 -0.3815  0.3797 -0.4644
 1255SOL    HW1 4343   5.625   5.763   9.578 -0.7550  0.0704 -1.6444
 1255SOL    HW2 4344   5.582   5.626   9.531 -1.6635 -0.3321  0.2519
 1256SOL     OW 4345   0.430   6.089   7.880 -0.9372 -0.3464 -0.2555
 1256SOL    HW1 4346   0.468   6.154   7.938 -1.2070 -1.1058  0.8061
 1256SOL    HW2 4347   0.339   6.083   7.907 -1.0439 -0.7835 -0.6959
 1257SOL     OW 4348   0.598   5.649   1.834 -0.0662 -0.3241  0.8087
 1257SOL    HW1 4349   0.626   5.711   1.901  0.4998  0.1456  0.1561
 1257SOL    HW2 4350   0.636   5.682   1.753 -2.2708  0.1661 -0.0948
 1258SOL     OW 4351   0.814   8.294   5.500 -0.1812  0.0115  0.1075
 1258SOL    HW1 4352   0.773   8.314   5.584 -1.3358  1.8418 -0.8334
 1258SOL    HW2 4353   0.861   8.212   5.515 -1.9949 -0.7519  1.9763
 1259SOL     OW 4354   2.402   9.191   9.080  0.3613  0.0472 -0.1507
 1259SOL    HW1 4355   2.416   9.146   9.164  1.4757  0.8481  0.1192
 1259SOL    HW2 4356   2.317   9.234   9.090  1.4193  1.9828  1.4953
 1260SOL     OW 4357   3.265   9.336   2.053  0.5742 -0.2417  0.0745
 1260SOL    HW1 4358   3.194   9.327   1.990  1.2846 -0.1000 -0.7692
 1260SOL    HW2 4359   3.310   9.417   2.029  1.3730 -0.6265  0.2241
 1261SOL     OW 4360   1.135   6.178   5.453 -0.3167 -0.4983  0.2133
 1261SOL    HW1 4361   1.121   6.088   5.421 -0.5114 -1.7167  3.3802
 1261SOL    HW2 4362   1.060   6.227   5.421 -0.2292 -1.4319 -1.5595
 1262SOL     OW 4363   1.934   2.962   3.343 -0.0309  0.1221 -0.3914
 1262SOL    HW1 4364   1.906   2.884   3.295  0.4195  1.0189 -2.1942
 1262SOL    HW2 4365   1.868   3.029   3.321  0.2395  0.5833  0.1694
 1263SOL     OW 4366   9.661   2.468   7.454 -0.1285 -0.2491 -0.1920
 1263SOL    HW1 4367   9.579   2.477   7.405 -0.2529  0.5465  0.1387
 1263SOL    HW2 4368   9.728   2.502   7.396 -0.4779  2.2242  0.7153
 1264SOL     OW 4369   4.995   1.601   7.476  0.3881  0.3568 -0.1848
 1264SOL    HW1 4370   4.927   1.640   7.530  1.5969  2.4052 -0.0476
 1264SOL    HW2 4371   5.054   1.558   7.539 -0.0812 -0.3412 -0.2065
 1265SOL     OW 4372   5.864   6.255   8.987 -0.0811  0.0067  0.3652
 1265SOL    HW1 4373   5.823   6.178   9.026  1.4335 -1.1440 -0.2241
 1265SOL    HW2 4374   5.954   6.253   9.019  0.2666  0.9507 -0.5053
 1266SOL     OW 4375   9.760   6.147   4.712  0.3817 -0.1119  0.0034
 1266SOL    HW1 4376   9.698   6.136   4.639  2.3256 -0.6873 -1.6705
 1266SOL    HW2 4377   9.754   6.066   4.761 -1.5082  0.5819  1.0088
 1267SOL     OW 4378   6.818   3.725   9.889 -0.2257 -0.5383  0.3633
 1267SOL    HW1 4379   6.871   3.735   9.967 -1.5163  0.1945  1.1788
 1267SOL    HW2 4380   6.783   3.636   9.895 -0.0549 -0.6022  0.4290
 1268SOL     OW 4381   5.382   0.011   3.297  0.6170  0.2856 -0.4704
 1268SOL    HW1 4382   5.322   0.075   3.335  1.8194  1.3884 -0.3419
 1268SOL    HW2 4383   5.377  -0.064   3.356 -0.4169  0.4493 -0.3206
 1269SOL     OW 4384   4.301   7.569   1.377  0.2042  0.7757 -0.2478
 1269SOL    HW1 4385   4.396   7.561   1.368  0.0514  0.3486 -1.8550
 1269SOL    HW2 4386   4.266   7.493   1.332 -0.9093  0.4033  1.1730
 1270SOL     OW 4387   5.949   8.024   7.438 -0.6542 -0.4578  0.0120
 1270SOL    HW1 4388   5.972   8.106   7.393 -0.5020 -1.1756 -1.2360
 1270SOL    HW2 4389   5.855   8.014   7.424 -0.7036 -0.4130  0.3085
 1271SOL     OW 4390   1.166   8.979   6.946 -0.1921 -0.2470  0.0227
 1271SOL    HW1 4391   1.253   8.954   6.915  1.5017  2.3526  2.2015
 1271SOL    HW2 4392   1.180   9.004   7.038 -3.1579  0.6192  0.3302
 1272SOL     OW 4393   0.596   3.618   4.777 -0.4175 -0.3483  0.0507
 1272SOL    HW1 4394   0.503   3.632   4.796 -0.2641  0.9462 -0.0873
 1272SOL    HW2 4395   0.641   3.641   4.858 -0.1936 -0.8606  0.0796
 1273SOL     OW 4396   6.799   4.957   2.233 -0.4764  0.1621 -0.2089
 1273SOL    HW1 4397   6.787   5.019   2.305 -0.7240 -0.2939  0.1436
 1273SOL    HW2 4398   6.843   4.882   2.272  1.0721  0.6666 -0.9242
 1274SOL     OW 4399   1.358   2.751   0.830  0.3585 -0.0453  0.3276
 1274SOL    HW1 4400   1.430   2.689   0.814 -0.6523 -0.8172 -1.5619
 1274SOL    HW2 4401   1.287   2.697   0.863 -0.0521  0.3464  0.0909
 1275SOL     OW 4402   4.857   8.582   8.292  0.5284  0.1771  0.2902
 1275SOL    HW1 4403   4.859   8.487   8.298  0.8798  0.0889 -0.9867
 1275SOL    HW2 4404   4.800   8.610   8.364  1.1847 -0.9325  1.2602
 1276SOL     OW 4405   7.991   8.606   5.592 -0.0366 -0.3271 -0.2238
 1276SOL    HW1 4406   8.075   8.571   5.563  0.4621 -0.3416  1.1752
 1276SOL    HW2 4407   8.014   8.675   5.654 -1.0514  0.2460 -0.4597
 1277SOL     OW 4408   3.607   6.103   7.455 -0.3604  0.2449 -0.4422
 1277SOL    HW1 4409   3.512   6.095   7.455 -0.2852 -0.6668 -0.7469
 1277SOL    HW2 4410   3.632   6.104   7.363  0.0131 -0.6612 -0.3594
 1278SOL     OW 4411   6.760   6.714   6.647 -0.4566 -0.1997 -0.2200
 1278SOL    HW1 4412   6.720   6.647   6.703 -1.8378  1.0949  0.3911
 1278SOL    HW2 4413   6.721   6.701   6.561  0.1610 -0.9031 -0.4072
 1279SOL     OW 4414   9.482   9.350   8.044  0.1715 -0.2823 -0.7258
 1279SOL    HW1 4415   9.537   9.426   8.025 -1.3709  0.4721 -2.4919
 1279SOL    HW2 4416   9.417   9.382   8.106  1.4017 -1.0779  1.0652
 1280SOL     OW 4417   5.540   0.807   6.560 -0.5033  0.0524  0.0290
 1280SOL    HW1 4418   5.496   0.732   6.519 -1.0994 -0.1276  0.9723
 1280SOL    HW2 4419   5.476   0.878   6.554 -1.3735 -0.4770  2.3166
 1281SOL     OW 4420   1.908   9.389   2.053 -0.8170 -0.0440  0.5549
 1281SOL    HW1 4421   1.828   9.340   2.036 -0.4994 -0.6060  0.6436
 1281SOL    HW2 4422   1.931   9.429   1.969 -1.0913 -0.0246  0.4883
 1282SOL     OW 4423   5.548   9.982   8.876  0.4129 -0.2784  0.2742
 1282SOL    HW1 4424   5.474   9.942   8.830  0.7237 -0.6203  0.0763
 1282SOL    HW2 4425   5.609  10.007   8.807 -0.2892  1.6202  0.2838
 1283SOL     OW 4426   9.449   2.953   3.446 -0.2427 -0.0618  0.2060
 1283SOL    HW1 4427   9.517   2.912   3.392 -0.3619  0.8980 -0.7155
 1283SOL    HW2 4428   9.437   3.040   3.407 -1.0168  0.3000  1.2100
 1284SOL     OW 4429   3.617   4.159   0.619 -0.3374 -0.4134  0.4814
 1284SOL    HW1 4430   3.574   4.074   0.615  0.8528 -1.0033 -0.3268
 1284SOL    HW2 4431   3.710   4.139   0.618 -0.0029  0.9357 -1.5015
 1285SOL     OW 4432   8.656   8.930   9.613  0.3001 -0.4765 -0.0072
 1285SOL    HW1 4433   8.637   9.010   9.663  0.2419  0.2001 -1.0762
 1285SOL    HW2 4434   8.664   8.960   9.523  1.0661 -1.5733 -0.3211
 1286SOL     OW 4435   0.207   8.460   2.716  0.4831 -0.2872 -0.0308
 1286SOL    HW1 4436   0.243   8.412   2.791 -0.2251 -0.1080  0.4332
 1286SOL    HW2 4437   0.282   8.508   2.681  0.7951 -0.2633  0.6436
 1287SOL     OW 4438   1.768   2.760   7.774  0.7815  0.0528  0.1009
 1287SOL    HW1 4439   1.723   2.693   7.827 -0.2401  0.2753 -0.4636
 1287SOL    HW2 4440   1.800   2.823   7.838  0.0019  0.0541  0.5032
 1288SOL     OW 4441   5.884   6.501   9.319 -0.3324  0.5663 -0.4298
 1288SOL    HW1 4442   5.919   6.583   9.283  0.1031  0.7985  0.4954
 1288SOL    HW2 4443   5.847   6.525   9.404 -1.1331 -0.0181 -0.5925
 1289SOL     OW 4444   9.791   7.915   0.039 -0.2926  0.0893 -0.5538
 1289SOL    HW1 4445   9.740   7.888   0.115  0.1828 -2.8274 -1.1324
 1289SOL    HW2 4446   9.747   7.992   0.006 -0.5611  1.4172  2.5868
 1290SOL     OW 4447   9.379   4.841   0.756 -0.5508  0.6402  0.8301
 1290SOL    HW1 4448   9.464   4.826   0.796 -0.3276 -0.2396  0.0577
 1290SOL    HW2 4449   9.391   4.917   0.699 -0.4728  0.9382  1.2379
 1291SOL     OW 4450   2.845   7.339   9.848 -0.4997  0.1809 -0.0682
 1291SOL    HW1 4451   2.776   7.273   9.837  0.8346 -1.3942  0.5143
 1291SOL    HW2 4452   2.855   7.347   9.943  0.0465  0.4578 -0.1502
 1292SOL     OW 4453   3.552   0.970   8.956  0.0805  0.0259 -0.1900
 1292SOL    HW1 4454   3.489   1.031   8.994 -1.3361 -0.6417 -1.4115
 1292SOL    HW2 4455   3.536   0.887   9.001 -1.0655 -0.5646 -1.6402
 1293SOL     OW 4456   2.192   1.295   6.458  0.2326  0.0590  1.1004
 1293SOL    HW1 4457   2.151   1.208   6.460 -0.9858  0.6061  0.7944
 1293SOL    HW2 4458   2.136   1.350   6.512 -0.3128  1.1827 -0.5188
 1294SOL     OW 4459   2.862   4.598   0.174  0.2546  0.2320 -0.4541
 1294SOL    HW1 4460   2.957   4.607   0.182  0.5860 -2.9444  0.3603
 1294SOL    HW2 4461   2.829   4.621   0.261  0.8566 -3.2717  0.8651
 1295SOL     OW 4462   5.517   5.884   0.544 -0.4016  0.0177  0.0120
 1295SOL    HW1 4463   5.611   5.865   0.543 -0.8455 -3.1355  2.4542
 1295SOL    HW2 4464   5.509   5.966   0.593  1.0746  1.1159 -1.4695
 1296SOL     OW 4465   9.976   2.843   7.915  0.8263  0.2111  0.0243
 1296SOL    HW1 4466   9.942   2.854   8.004  1.2992  1.5243  0.0661
 1296SOL    HW2 4467   9.952   2.925   7.870  1.4175 -0.0401 -0.7753
 1297SOL     OW 4468   8.858   7.240   8.778  0.1132  0.2957  0.5703
 1297SOL    HW1 4469   8.832   7.182   8.706  2.2931  0.3442 -0.3407
 1297SOL    HW2 4470   8.948   7.265   8.756 -0.2113  2.7307  1.7907
 1298SOL     OW 4471   9.784   0.164   0.229 -0.8877  0.2737  0.4892
 1298SOL    HW1 4472   9.815   0.240   0.278 -2.7746  1.1685  0.4021
 1298SOL    HW2 4473   9.690   0.178   0.221 -1.0317 -1.2300 -1.0235
 1299SOL     OW 4474   6.685   4.776   3.375 -0.3687  0.7689  0.4363
 1299SOL    HW1 4475   6.718   4.810   3.457 -0.7242  0.5785  0.6640
 1299SOL    HW2 4476   6.693   4.849   3.313  2.1254  0.2084 -0.0012
 1300SOL     OW 4477   2.608   4.849   9.849  0.0760  0.3154  0.6171
 1300SOL    HW1 4478   2.657   4.916   9.801 -0.1034 -0.6711 -0.9997
 1300SOL    HW2 4479   2.577   4.789   9.782 -3.4592  0.9172  1.5012
 1301SOL     OW 4480   6.034   0.990   5.688 -0.0681  0.2857  0.3093
 1301SOL    HW1 4481   5.957   1.042   5.711 -1.1479 -1.0926 -0.0577
 1301SOL    HW2 4482   6.017   0.904   5.725  0.0452 -0.8047 -1.9810
 1302SOL     OW 4483   6.690   3.398   5.363  0.4337  0.0692 -0.2644
 1302SOL    HW1 4484   6.777   3.377   5.329  0.7886  0.6597  0.2434
 1302SOL    HW2 4485   6.648   3.313   5.377  1.3259 -0.2724  0.4712
 1303SOL     OW 4486   9.583   5.765   6.483 -0.1496 -0.0367 -0.4156
 1303SOL    HW1 4487   9.663   5.782   6.533 -0.5936 -0.1364  0.3361
 1303SOL    HW2 4488   9.561   5.850   6.445 -0.3390  0.2751  0.3595
 1304SOL     OW 4489   3.582   0.734   3.520  0.3964  0.1481 -0.2147
 1304SOL    HW1 4490   3.652   0.669   3.514  0.0537 -0.5633  2.2920
 1304SOL    HW2 4491   3.505   0.689   3.485  0.1626 -0.8619  1.4932
 1305SOL     OW 4492   6.535   0.185   5.330 -0.2598 -0.1457 -0.2091
 1305SOL    HW1 4493   6.526   0.242   5.406  1.8356 -0.9040  0.7162
 1305SOL    HW2 4494   6.603   0.226   5.277  0.0125 -0.8545 -0.4262
 1306SOL     OW 4495   7.567   9.836   8.504 -0.1703 -0.1302 -0.0920
 1306SOL    HW1 4496   7.534   9.857   8.592 -1.1435  0.8788 -0.6784
 1306SOL    HW2 4497   7.577   9.741   8.505 -0.4441 -0.1667  1.0193
 1307SOL     OW 4498   5.218   2.699   8.066 -0.5044  0.2501 -0.0046
 1307SOL    HW1 4499   5.126   2.702   8.090 -0.1431  2.4551  1.4529
 1307SOL    HW2 4500   5.224   2.633   7.997 -3.1802  0.2324 -0.2904
 1308SOL     OW 4501   0.289   2.636   8.970  0.2920  0.1262  0.6058
 1308SOL    HW1 4502   0.227   2.661   8.902  1.2602 -0.6685 -0.6168
 1308SOL    HW2 4503   0.237   2.632   9.050 -1.4651 -1.4619 -0.5483
 1309SOL     OW 4504   7.782   2.419   3.552  0.0031 -0.8028  0.0519
 1309SOL    HW1 4505   7.872   2.395   3.576 -0.0021 -0.0017  0.9238
 1309SOL    HW2 4506   7.727   2.356   3.598 -0.0406  1.0476  2.8147
 1310SOL     OW 4507   0.046   8.739   5.037 -0.3929 -0.1655  0.0384
 1310SOL    HW1 4508   0.077   8.825   5.065 -0.1989 -0.4127  0.5962
 1310SOL    HW2 4509   0.052   8.741   4.942 -0.1894  0.3647  0.0615
 1311SOL     OW 4510   5.358   6.419   6.277  0.5417  0.0674  0.4403
 1311SOL    HW1 4511   5.402   6.416   6.362  1.0193 -0.5715  0.1831
 1311SOL    HW2 4512   5.271   6.453   6.296  0.8127  0.4055  1.1102
 1312SOL     OW 4513   3.327   3.141   1.306  0.6169 -0.7941 -0.4334
 1312SOL    HW1 4514   3.282   3.105   1.383 -1.3710  2.1754 -0.0360
 1312SOL    HW2 4515   3.419   3.122   1.321 -0.1115 -5.5529 -0.3504
 1313SOL     OW 4516   6.974   0.538   0.203  0.3534  0.2608 -0.5117
 1313SOL    HW1 4517   6.901   0.585   0.162 -0.6482 -0.1485  0.7256
 1313SOL    HW2 4518   7.034   0.606   0.232  0.0635  0.6477 -0.8163
 1314SOL     OW 4519   8.156   1.091   8.000 -0.0705  0.1169  0.0139
 1314SOL    HW1 4520   8.157   1.060   8.091  1.4588 -0.2174 -0.0845
 1314SOL    HW2 4521   8.111   1.022   7.951 -0.2649 -0.0406  0.4139
 1315SOL     OW 4522   1.064   7.758   2.139  0.5876  0.2531 -0.2190
 1315SOL    HW1 4523   1.006   7.683   2.149  1.2616 -0.3175 -0.5321
 1315SOL    HW2 4524   1.110   7.764   2.223  0.2875  0.5327 -0.0715
 1316SOL     OW 4525   2.482   4.825   6.165  0.2358  0.4998  0.8058
 1316SOL    HW1 4526   2.405   4.882   6.174  0.4176  0.9035 -0.0723
 1316SOL    HW2 4527   2.478   4.767   6.241 -2.3889 -1.2384 -0.5259
 1317SOL     OW 4528   2.316   0.188   6.303 -1.2902 -0.5977  0.2337
 1317SOL    HW1 4529   2.361   0.266   6.271  1.1882 -2.2736 -0.7007
 1317SOL    HW2 4530   2.320   0.195   6.399 -1.7511  0.7059  0.1779
 1318SOL     OW 4531   0.849   7.346   2.522  0.0417  0.0386 -0.5562
 1318SOL    HW1 4532   0.774   7.371   2.576 -1.5722 -0.9457 -2.2247
 1318SOL    HW2 4533   0.886   7.429   2.492 -0.2186  0.5429  0.4729
 1319SOL     OW 4534   9.893   4.877   9.493  0.8405 -0.4979 -0.4016
 1319SOL    HW1 4535   9.883   4.828   9.412  0.8960  0.8077 -1.2366
 1319SOL    HW2 4536   9.813   4.859   9.542  0.9562 -1.5668 -0.5819
 1320SOL     OW 4537   0.904   3.545   7.001  0.0137 -0.1044  0.4552
 1320SOL    HW1 4538   0.880   3.626   6.957 -1.0615 -0.1963  0.8442
 1320SOL    HW2 4539   0.976   3.510   6.949 -1.2400 -0.2499 -1.2569
 1321SOL     OW 4540   0.291   4.275   4.891  0.9031 -0.3496 -0.0836
 1321SOL    HW1 4541   0.377   4.234   4.896  0.0021 -2.1951  2.0349
 1321SOL    HW2 4542   0.229   4.202   4.899 -0.9071  0.8925 -1.6920
 1322SOL     OW 4543   6.778   9.217   4.231 -0.0417  0.4745 -0.4919
 1322SOL    HW1 4544   6.786   9.293   4.174  1.5882  1.1508  0.5476
 1322SOL    HW2 4545   6.788   9.142   4.172  1.3387  1.1484 -1.1656
 1323SOL     OW 4546   0.619   9.150   7.870  0.2644  0.2419 -0.0427
 1323SOL    HW1 4547   0.685   9.086   7.898 -0.8815 -1.2260 -0.5447
 1323SOL    HW2 4548   0.587   9.115   7.787 -0.1505  1.6941 -0.5168
 1324SOL     OW 4549   6.147   0.624   8.550 -0.0383  0.3608  0.2207
 1324SOL    HW1 4550   6.165   0.532   8.530 -2.7968 -0.0778 -0.6700
 1324SOL    HW2 4551   6.165   0.631   8.644  0.1166 -1.1519  0.3376
 1325SOL     OW 4552   5.665   4.879   3.856  0.1536  0.0116  0.2482
 1325SOL    HW1 4553   5.576   4.907   3.877 -0.1073 -0.0659 -0.7282
 1325SOL    HW2 4554   5.677   4.798   3.905  0.1824  0.7149  1.4526
 1326SOL     OW 4555   9.439   3.741   1.012  0.0582 -0.0140 -0.1152
 1326SOL    HW1 4556   9.513   3.763   0.955 -0.7417 -0.7391 -1.4777
 1326SOL    HW2 4557   9.455   3.651   1.039  1.2724  0.7948  2.2356
 1327SOL     OW 4558   1.769   6.705   4.716  0.2170 -0.1941  0.5725
 1327SOL    HW1 4559   1.810   6.754   4.645 -0.2762 -0.3952  0.1478
 1327SOL    HW2 4560   1.772   6.765   4.791  1.2181 -0.1780  0.5332
 1328SOL     OW 4561   1.150   6.910   7.041 -0.0294 -0.3976  0.1004
 1328SOL    HW1 4562   1.231   6.877   7.081  0.3012  0.6444  0.3198
 1328SOL    HW2 4563   1.083   6.847   7.067  0.7956 -1.5892 -0.5349
 1329SOL     OW 4564   2.007   5.201   3.736  0.4400 -0.1424 -0.1960
 1329SOL    HW1 4565   1.996   5.275   3.676 -0.5687  0.4432  0.6871
 1329SOL    HW2 4566   1.931   5.204   3.794  0.8514 -1.3237  0.4553
 1330SOL     OW 4567   1.681   7.316   2.610 -0.1128 -0.0047  0.3596
 1330SOL    HW1 4568   1.753   7.254   2.605 -0.0132 -0.0347  1.7921
 1330SOL    HW2 4569   1.605   7.264   2.634 -0.5915  0.0659 -0.8933
 1331SOL     OW 4570   5.417   2.094   1.478 -0.0964 -0.1957 -0.3636
 1331SOL    HW1 4571   5.423   2.148   1.556 -0.8948  0.4255 -0.7191
 1331SOL    HW2 4572   5.490   2.033   1.485 -0.8136 -0.9034  1.4203
 1332SOL     OW 4573   8.333   7.684   2.765 -0.9101  0.2616 -0.3503
 1332SOL    HW1 4574   8.419   7.724   2.752 -1.0695  1.1229  1.0891
 1332SOL    HW2 4575   8.280   7.719   2.694 -1.0689  2.7863  0.8870
 1333SOL     OW 4576   2.069   5.591   0.831  0.2435 -0.6688 -0.2322
 1333SOL    HW1 4577   2.086   5.525   0.897  1.3698  0.6692  0.8697
 1333SOL    HW2 4578   1.997   5.643   0.866  0.9810  0.1733  0.0609
 1334SOL     OW 4579   1.789   6.092   7.618 -0.3781 -0.3421 -0.1681
 1334SOL    HW1 4580   1.742   6.010   7.635  0.6409 -0.5872  1.8058
 1334SOL    HW2 4581   1.856   6.068   7.554 -0.2647 -1.0158  0.1898
 1335SOL     OW 4582   8.800   3.569   7.567  0.2562 -0.4373 -0.2887
 1335SOL    HW1 4583   8.782   3.581   7.661  0.6185  0.8135 -0.3670
 1335SOL    HW2 4584   8.739   3.627   7.523 -1.0585 -2.2227 -0.9509
 1336SOL     OW 4585   9.284   3.653   5.973 -0.0341  0.2005  0.3083
 1336SOL    HW1 4586   9.193   3.623   5.972  0.0724 -0.1115 -0.0276
 1336SOL    HW2 4587   9.320   3.616   6.054  0.1746 -0.8241 -0.2408
 1337SOL     OW 4588   8.268   0.348   0.329 -0.0235 -0.1979 -0.0673
 1337SOL    HW1 4589   8.283   0.440   0.306 -2.4464  0.5454  0.9378
 1337SOL    HW2 4590   8.241   0.351   0.421 -0.2624 -1.9159 -0.0591
 1338SOL     OW 4591   0.791   0.692   3.702 -0.4221  0.3636  0.1809
 1338SOL    HW1 4592   0.815   0.732   3.618  0.6468 -1.5643 -0.5026
 1338SOL    HW2 4593   0.701   0.664   3.690 -0.3355  0.2614 -0.2566
 1339SOL     OW 4594   0.097   1.188   2.913  0.0294 -0.0332 -0.5937
 1339SOL    HW1 4595   0.041   1.265   2.928  0.1636 -0.0859  0.2137
 1339SOL    HW2 4596   0.182   1.226   2.888 -0.0739  0.0730 -0.7824
 1340SOL     OW 4597   1.138   9.026   0.297 -0.1033  0.2180  0.1374
 1340SOL    HW1 4598   1.200   9.054   0.230  0.2225 -0.7861 -0.0065
 1340SOL    HW2 4599   1.056   9.009   0.251 -0.5078  1.5817  0.3332
 1341SOL     OW 4600   9.159   7.752   3.008  0.4443  0.6969  0.2016
 1341SOL    HW1 4601   9.223   7.684   2.991  2.0007  2.1860 -0.2431
 1341SOL    HW2 4602   9.074   7.709   2.999  1.3535 -1.4807  1.4389
 1342SOL     OW 4603   2.157   2.511   3.442 -0.1990  0.3888  0.6919
 1342SOL    HW1 4604   2.191   2.588   3.487  2.9823 -1.5634  1.9639
 1342SOL    HW2 4605   2.142   2.447   3.512 -3.1513 -0.1555 -0.2629
 1343SOL     OW 4606   2.753   8.809   7.172 -0.2631  0.2369 -0.1952
 1343SOL    HW1 4607   2.794   8.754   7.239 -0.7871 -1.2994 -1.0953
 1343SOL    HW2 4608   2.819   8.875   7.152  0.7744 -0.6469  0.2148
 1344SOL     OW 4609   7.531   0.772   2.603  0.2361 -0.0056 -0.1621
 1344SOL    HW1 4610   7.496   0.826   2.673  0.1288 -1.0601  0.6231
 1344SOL    HW2 4611   7.620   0.803   2.590  0.1171  0.4700  0.1626
 1345SOL     OW 4612   0.479   4.367   6.988  0.0997  0.2017 -0.4586
 1345SOL    HW1 4613   0.479   4.463   6.993  2.9447  0.2639  0.3746
 1345SOL    HW2 4614   0.459   4.348   6.897  0.2084  1.6321 -0.8065
 1346SOL     OW 4615   2.355   4.016   8.124 -0.0809  0.5276  0.0743
 1346SOL    HW1 4616   2.416   4.085   8.101  0.9335 -0.1391  0.6972
 1346SOL    HW2 4617   2.327   3.980   8.040  1.4446 -0.0472 -0.2230
 1347SOL     OW 4618   5.607   1.662   5.208  0.0411  0.4432  0.4189
 1347SOL    HW1 4619   5.700   1.659   5.185  0.1203  1.7481  0.5271
 1347SOL    HW2 4620   5.561   1.638   5.127  0.4666 -1.3061  0.6433
 1348SOL     OW 4621   8.974   1.481   8.883  0.3817 -0.3467  0.3042
 1348SOL    HW1 4622   9.001   1.555   8.829 -0.5775 -0.2228 -0.0168
 1348SOL    HW2 4623   8.987   1.511   8.973  1.1079 -0.2203  0.1641
 1349SOL     OW 4624   4.853   1.458   0.950 -0.0125 -0.3271 -0.1196
 1349SOL    HW1 4625   4.827   1.423   0.865 -0.9635 -0.4126  0.1954
 1349SOL    HW2 4626   4.774   1.500   0.984  0.7779  1.1122  0.0288
 1350SOL     OW 4627   4.462   2.888   9.385  0.5974 -0.0078  0.4138
 1350SOL    HW1 4628   4.511   2.880   9.467  1.2986 -2.3834 -0.1680
 1350SOL    HW2 4629   4.529   2.905   9.319  0.5820 -2.1822 -0.2290
 1351SOL     OW 4630   8.156   6.129   3.656 -0.0773  0.4963 -0.0708
 1351SOL    HW1 4631   8.143   6.216   3.693  0.1405  0.9380 -1.0117
 1351SOL    HW2 4632   8.243   6.102   3.687 -0.0308  0.7269  0.0003
 1352SOL     OW 4633   3.502   9.874   2.976  0.2885 -1.1403  0.5497
 1352SOL    HW1 4634   3.571   9.837   3.030  0.7583  0.3491  1.0130
 1352SOL    HW2 4635   3.521   9.968   2.974 -2.2877 -0.5281  1.5230
 1353SOL     OW 4636   9.003   9.809   8.161 -0.0465  0.1723 -0.3509
 1353SOL    HW1 4637   8.923   9.834   8.114  1.8369  0.9073 -3.4304
 1353SOL    HW2 4638   9.001   9.861   8.241 -3.4888 -1.1998  0.6433
 1354SOL     OW 4639   6.322   5.513   8.632 -0.0189  0.8341 -0.3615
 1354SOL    HW1 4640   6.331   5.422   8.605  0.0987  1.1853 -1.5334
 1354SOL    HW2 4641   6.301   5.508   8.726  1.7910 -0.3369  0.0323
 1355SOL     OW 4642   3.378   5.402   5.196 -0.6194  0.0892  0.7531
 1355SOL    HW1 4643   3.428   5.444   5.265 -0.2034 -2.5548  2.1744
 1355SOL    HW2 4644   3.288   5.401   5.229 -0.1111 -2.9797  2.3240
 1356SOL     OW 4645   5.021   9.559   0.683 -0.4457  0.1496  0.2544
 1356SOL    HW1 4646   5.004   9.507   0.761 -0.5371  0.1155  0.2119
 1356SOL    HW2 4647   4.963   9.522   0.616  0.1193 -0.2623 -0.0203
 1357SOL     OW 4648   5.944   5.307   5.365 -0.1102  0.3605 -0.4968
 1357SOL    HW1 4649   5.981   5.234   5.415 -1.9702  1.0007  2.0308
 1357SOL    HW2 4650   5.980   5.385   5.407  0.9549  0.9848 -2.4318
 1358SOL     OW 4651   6.614   8.185   1.452 -0.0860 -0.6979  0.1666
 1358SOL    HW1 4652   6.643   8.225   1.534 -0.2959 -1.1068  0.4438
 1358SOL    HW2 4653   6.624   8.091   1.466  1.0409 -0.7305 -0.7230
 1359SOL     OW 4654   5.470   5.651   5.393  0.0941  0.4481  0.3925
 1359SOL    HW1 4655   5.554   5.693   5.409  0.7807 -0.5418 -0.4894
 1359SOL    HW2 4656   5.461   5.588   5.465  1.0906 -0.8736 -0.5926
 1360SOL     OW 4657   6.752   8.432   3.152  0.4392 -0.1764 -0.3140
 1360SOL    HW1 4658   6.765   8.489   3.227 -1.8630  0.8879 -0.6488
 1360SOL    HW2 4659   6.688   8.367   3.182 -0.0864 -0.0690 -1.1737
 1361SOL     OW 4660   0.268   2.234   1.905 -1.0432 -0.6025 -0.2906
 1361SOL    HW1 4661   0.323   2.296   1.856 -1.6945  0.1976 -0.0343
 1361SOL    HW2 4662   0.250   2.164   1.844 -1.3946  0.1204 -1.0368
 1362SOL     OW 4663   6.327   4.875   1.247  0.6786  0.3792 -0.1221
 1362SOL    HW1 4664   6.315   4.784   1.217  1.5106 -0.5821  2.2446
 1362SOL    HW2 4665   6.304   4.928   1.170  0.3680 -1.8117 -1.6581
 1363SOL     OW 4666   1.062   2.478   6.685 -0.0888  0.3465  0.0759
 1363SOL    HW1 4667   1.035   2.486   6.594  0.5029 -1.8963 -0.3528
 1363SOL    HW2 4668   1.157   2.492   6.683 -0.1811  1.1370  0.5118
 1364SOL     OW 4669   6.175   1.943   0.098  0.4304  0.5027 -0.2925
 1364SOL    HW1 4670   6.192   1.997   0.021  2.9897 -1.9925 -1.6699
 1364SOL    HW2 4671   6.208   1.994   0.171 -1.2360  2.5467 -0.8715
 1365SOL     OW 4672   1.813   9.511   0.942  0.4251  0.2467  0.5284
 1365SOL    HW1 4673   1.795   9.604   0.946 -2.6218 -0.2273  0.0284
 1365SOL    HW2 4674   1.883   9.497   1.006  0.8553  2.8024  0.7006
 1366SOL     OW 4675   2.475   7.239   7.881  0.5005 -0.5273  0.5799
 1366SOL    HW1 4676   2.549   7.295   7.859 -0.6130  0.9945  0.5398
 1366SOL    HW2 4677   2.399   7.285   7.847 -0.5587 -1.6379  1.3525
 1367SOL     OW 4678   6.572   2.889   9.820  0.1984  0.6245  0.4233
 1367SOL    HW1 4679   6.619   2.832   9.881  0.1894 -1.2334 -1.1906
 1367SOL    HW2 4680   6.483   2.895   9.856  0.0824 -0.7851  0.4522
 1368SOL     OW 4681   3.241   0.107   4.614  0.3702 -0.0813 -0.2660
 1368SOL    HW1 4682   3.145   0.111   4.610  0.3423  0.2610  0.5471
 1368SOL    HW2 4683   3.262   0.137   4.702  1.3572  1.9488 -1.1452
 1369SOL     OW 4684   8.996   2.380   4.193  0.3007  0.0581  0.0482
 1369SOL    HW1 4685   9.084   2.373   4.157  1.0102  0.7740  1.5351
 1369SOL    HW2 4686   8.996   2.463   4.241 -0.9196 -0.3176  0.7547
 1370SOL     OW 4687   8.815   6.615   3.165 -0.2553 -0.2519  0.1122
 1370SOL    HW1 4688   8.806   6.703   3.201  2.0621 -0.5199  1.5660
 1370SOL    HW2 4689   8.781   6.622   3.076 -2.4496  1.4502  0.9798
 1371SOL     OW 4690   7.980   4.394   8.205  0.0519  0.0241  0.2373
 1371SOL    HW1 4691   8.066   4.393   8.164 -0.0962 -0.9971 -0.0915
 1371SOL    HW2 4692   7.951   4.484   8.199  0.4817  0.0968 -0.9778
 1372SOL     OW 4693   3.404   8.058   3.801  0.4974  0.1505 -0.1885
 1372SOL    HW1 4694   3.318   8.050   3.842 -0.5988  0.0905 -2.3470
 1372SOL    HW2 4695   3.425   7.969   3.773  0.6920  0.3641 -0.7275
 1373SOL     OW 4696   2.164   1.999   9.134 -0.6789 -0.0932  0.3267
 1373SOL    HW1 4697   2.127   1.960   9.213 -1.9720 -0.3930 -0.3938
 1373SOL    HW2 4698   2.176   1.926   9.074  2.7960 -0.3079  1.0752
 1374SOL     OW 4699   7.547   9.695   8.184 -0.0327 -0.0409  0.5100
 1374SOL    HW1 4700   7.525   9.785   8.208 -0.8778  0.0276 -0.4929
 1374SOL    HW2 4701   7.622   9.704   8.125  0.2866 -0.0463  0.9057
 1375SOL     OW 4702   3.738   8.221   4.115  0.1641 -0.6805 -0.0896
 1375SOL    HW1 4703   3.694   8.242   4.033  0.4143 -0.5006 -0.1803
 1375SOL    HW2 4704   3.706   8.134   4.138  0.5969 -1.0192 -0.7286
 1376SOL     OW 4705   9.525   8.002   8.411 -0.0368 -0.3142 -0.2966
 1376SOL    HW1 4706   9.579   8.074   8.378  2.6234 -1.6404  0.8117
 1376SOL    HW2 4707   9.475   8.040   8.483 -0.0073  0.8037 -0.8407
 1377SOL     OW 4708   2.100   6.747   5.442 -0.3805 -0.2759  0.0866
 1377SOL    HW1 4709   2.105   6.681   5.372  1.7710  0.4562 -0.4979
 1377SOL    HW2 4710   2.091   6.830   5.396 -0.7047  0.0655  0.7549
 1378SOL     OW 4711   2.765   9.521   3.140  0.2156 -0.3299 -0.5126
 1378SOL    HW1 4712   2.747   9.436   3.181  0.3628 -0.4752 -0.7494
 1378SOL    HW2 4713   2.723   9.585   3.198  1.2214 -0.4528  0.3888
 1379SOL     OW 4714   9.812   4.860   7.053 -0.0633  0.3298 -0.1479
 1379SOL    HW1 4715   9.826   4.945   7.097  0.8725  0.5206 -0.7848
 1379SOL    HW2 4716   9.769   4.883   6.971 -0.8760  0.0651  0.1940
 1380SOL     OW 4717   2.524   7.506   2.622  0.2443  0.1361 -0.2670
 1380SOL    HW1 4718   2.475   7.574   2.669  0.7558  0.0424  0.4157
 1380SOL    HW2 4719   2.536   7.542   2.534 -0.8062  0.2768 -0.3660
 1381SOL     OW 4720   0.950   2.099   6.336  0.0035 -0.1486 -0.0807
 1381SOL    HW1 4721   0.921   2.034   6.400 -0.3558  1.2733  1.2481
 1381SOL    HW2 4722   1.045   2.098   6.340  0.1289 -2.1511 -1.7274
 1382SOL     OW 4723   5.153   3.110   4.876 -0.2471  0.4202 -0.3511
 1382SOL    HW1 4724   5.061   3.081   4.877  0.5612 -2.4792 -0.4853
 1382SOL    HW2 4725   5.198   3.047   4.933  1.9705  0.5385 -1.8551
 1383SOL     OW 4726   2.439   1.999   3.257 -0.0628 -0.2810 -0.7276
 1383SOL    HW1 4727   2.350   2.018   3.287 -0.0656  2.6606 -2.2620
 1383SOL    HW2 4728   2.487   1.974   3.337 -1.4223  1.5760  0.7537
 1384SOL     OW 4729   5.268   7.999   8.751  0.6564 -0.1310 -0.1692
 1384SOL    HW1 4730   5.339   7.947   8.788 -0.2020 -1.3713 -0.1872
 1384SOL    HW2 4731   5.308   8.046   8.678  1.8189  0.5051  0.8368
 1385SOL     OW 4732   5.642   6.140   7.980 -0.0423 -0.2233 -0.9146
 1385SOL    HW1 4733   5.623   6.213   8.039 -1.4592  0.4472 -2.1313
 1385SOL    HW2 4734   5.593   6.066   8.017  0.8956 -0.4254 -0.0268
 1386SOL     OW 4735   5.352   3.358   2.060 -0.0293  0.3880  0.1465
 1386SOL    HW1 4736   5.301   3.420   2.008  0.5861 -0.9486 -2.2475
 1386SOL    HW2 4737   5.385   3.409   2.134 -0.6464  2.5381 -0.9797
 1387SOL     OW 4738   8.193   2.453   1.278 -0.0441 -0.3265 -0.0798
 1387SOL    HW1 4739   8.208   2.504   1.357 -0.4798 -2.2013  1.2664
 1387SOL    HW2 4740   8.281   2.431   1.246  0.3199  3.4546 -2.3235
 1388SOL     OW 4741   8.020   9.798   5.841 -0.0806 -0.2829 -0.0627
 1388SOL    HW1 4742   7.956   9.864   5.867  1.1306  0.9716 -0.1723
 1388SOL    HW2 4743   7.997   9.775   5.751 -1.9472 -1.8124  0.7351
 1389SOL     OW 4744   1.678   1.755   2.694  0.8874 -0.1307  0.1268
 1389SOL    HW1 4745   1.737   1.681   2.679 -0.1964 -1.1942  0.8907
 1389SOL    HW2 4746   1.732   1.832   2.680  2.1894 -1.0630 -0.1814
 1390SOL     OW 4747   6.434   3.952   7.899  0.2885 -0.0917 -0.4655
 1390SOL    HW1 4748   6.347   3.981   7.928 -0.7059 -1.4753 -1.9132
 1390SOL    HW2 4749   6.457   3.882   7.959  0.7800  0.7757  0.3903
 1391SOL     OW 4750   4.311   1.457   6.685  0.0099  0.2615 -0.3560
 1391SOL    HW1 4751   4.234   1.466   6.629  0.7790  0.3216 -1.4353
 1391SOL    HW2 4752   4.382   1.495   6.634  0.5074  1.5297  1.2090
 1392SOL     OW 4753   9.844   1.338   6.744 -0.2951  0.2619 -0.0971
 1392SOL    HW1 4754   9.757   1.356   6.708 -0.0094  0.0680 -0.9097
 1392SOL    HW2 4755   9.893   1.302   6.670  0.2472 -0.3578  0.5501
 1393SOL     OW 4756   2.017   9.086   1.878 -0.3310 -0.1693 -0.5514
 1393SOL    HW1 4757   1.985   9.009   1.924  0.8432  0.6011  1.7085
 1393SOL    HW2 4758   1.941   9.144   1.871 -0.4886 -0.2141  0.6803
 1394SOL     OW 4759   5.309   9.501   9.364 -0.2948 -0.7653 -0.1169
 1394SOL    HW1 4760   5.291   9.492   9.458 -0.0956 -1.0344 -0.1034
 1394SOL    HW2 4761   5.391   9.550   9.361 -0.1236 -1.0498 -0.1412
 1395SOL     OW 4762   6.984   5.673   1.236  0.1663 -0.0855  0.1890
 1395SOL    HW1 4763   6.984   5.602   1.173 -0.5709 -0.9470  1.1296
 1395SOL    HW2 4764   7.025   5.636   1.314  1.1755  0.9970  0.1905
 1396SOL     OW 4765   7.304   0.452   7.196  0.3581 -0.8201 -0.0293
 1396SOL    HW1 4766   7.384   0.503   7.211 -1.6638  2.0400  2.1506
 1396SOL    HW2 4767   7.305   0.385   7.263  0.1494  0.3241  1.1556
 1397SOL     OW 4768   6.366   7.776   5.436 -0.2380 -0.4898 -0.3126
 1397SOL    HW1 4769   6.364   7.777   5.532 -1.6455 -1.4302 -0.3061
 1397SOL    HW2 4770   6.305   7.845   5.411  0.2083 -0.1757 -0.5425
 1398SOL     OW 4771   6.505   9.243   0.206 -0.1546  0.7611 -0.1339
 1398SOL    HW1 4772   6.442   9.314   0.197 -0.0461  0.7335 -1.2107
 1398SOL    HW2 4773   6.530   9.221   0.116 -0.6979 -1.0835  0.1142
 1399SOL     OW 4774   0.594   7.545   6.904 -0.9132  0.2397  0.1967
 1399SOL    HW1 4775   0.520   7.595   6.937 -0.0676  0.6973  1.5029
 1399SOL    HW2 4776   0.626   7.497   6.980  1.0974  1.3149  0.1162
 1400SOL     OW 4777   7.547   7.364   1.796 -0.0582 -0.3198  0.2362
 1400SOL    HW1 4778   7.504   7.426   1.855 -0.5280 -0.2300 -0.1982
 1400SOL    HW2 4779   7.602   7.419   1.740 -0.1988 -0.3314  0.0871
 1401SOL     OW 4780   0.598   8.577   8.321 -0.0775 -0.1658  0.1409
 1401SOL    HW1 4781   0.519   8.610   8.364 -0.7035 -1.9219  0.4579
 1401SOL    HW2 4782   0.574   8.489   8.293  1.2274 -0.0798 -1.3492
 1402SOL     OW 4783   3.437   1.891   0.741 -0.0109 -0.4881  0.3672
 1402SOL    HW1 4784   3.493   1.813   0.731 -2.1027 -2.0553  0.2814
 1402SOL    HW2 4785   3.427   1.925   0.653  0.8392 -0.1213  0.3935
 1403SOL     OW 4786   0.651   9.903   9.029  0.1512  0.2954  0.2653
 1403SOL    HW1 4787   0.742   9.920   9.005  0.3820 -1.2544 -0.0575
 1403SOL    HW2 4788   0.646   9.808   9.040 -1.7830  0.1529 -1.2169
 1404SOL     OW 4789   7.404   8.010   8.390 -0.0223  0.1172 -0.7434
 1404SOL    HW1 4790   7.400   8.104   8.373  0.2545 -0.3130 -3.5808
 1404SOL    HW2 4791   7.490   7.983   8.358  0.5517 -0.9023  1.4957
 1405SOL     OW 4792   4.708   2.383   9.326  0.3617  0.1554 -0.1326
 1405SOL    HW1 4793   4.675   2.389   9.237  0.5606  0.6342 -0.1823
 1405SOL    HW2 4794   4.797   2.350   9.317  0.3651  0.1565 -0.1066
 1406SOL     OW 4795   5.601   9.075   0.574 -0.1252 -0.1229 -0.3848
 1406SOL    HW1 4796   5.572   9.164   0.556  0.9112  0.4878  0.7644
 1406SOL    HW2 4797   5.610   9.072   0.669 -0.6468 -1.6250 -0.3663
 1407SOL     OW 4798   7.688   5.563   4.430  0.5537  0.1854 -0.2330
 1407SOL    HW1 4799   7.601   5.600   4.444 -0.2666 -1.6903 -0.0230
 1407SOL    HW2 4800   7.722   5.549   4.519  0.6962  0.1187 -0.2978
 1408SOL     OW 4801   4.036   3.360   0.107 -0.5408 -0.1923 -0.6053
 1408SOL    HW1 4802   4.109   3.388   0.051  1.1243 -1.2632  0.9426
 1408SOL    HW2 4803   3.978   3.312   0.048  0.3112  0.1323 -1.7445
 1409SOL     OW 4804   7.467   6.514   3.565 -0.4896 -0.0564 -0.0332
 1409SOL    HW1 4805   7.521   6.476   3.495 -0.6943 -0.3776 -0.0181
 1409SOL    HW2 4806   7.386   6.540   3.521 -1.5755 -2.3577  0.4705
 1410SOL     OW 4807   2.885   3.956   1.458 -0.0844 -0.1352 -0.0965
 1410SOL    HW1 4808   2.919   4.045   1.468 -0.0484 -0.3972  3.1862
 1410SOL    HW2 4809   2.952   3.900   1.498 -0.8436 -1.4937 -0.6601
 1411SOL     OW 4810   8.543   4.698   9.930  0.3617  0.4836  0.0955
 1411SOL    HW1 4811   8.590   4.664  10.006 -0.6310  1.2333  1.0748
 1411SOL    HW2 4812   8.453   4.671   9.943  0.4566 -0.8753 -1.7243
 1412SOL     OW 4813   6.676   7.297   7.722 -0.4105 -0.0324  0.1363
 1412SOL    HW1 4814   6.584   7.321   7.730 -0.9804 -2.1319  0.5884
 1412SOL    HW2 4815   6.723   7.379   7.732 -2.2315  1.1490 -0.4160
 1413SOL     OW 4816   1.297   1.675   9.865  0.1186 -0.8033 -0.0374
 1413SOL    HW1 4817   1.373   1.699   9.917 -0.8377 -0.5490  1.3092
 1413SOL    HW2 4818   1.243   1.624   9.925 -0.9918 -0.5750 -0.8162
 1414SOL     OW 4819   9.686   9.383   2.177  0.4474 -0.3409  0.4085
 1414SOL    HW1 4820   9.767   9.399   2.129  1.8722 -1.9076  2.1187
 1414SOL    HW2 4821   9.661   9.293   2.154 -0.8852  0.1487 -0.1706
 1415SOL     OW 4822   9.048   8.692   7.398 -0.5367  0.3033 -0.2287
 1415SOL    HW1 4823   8.963   8.710   7.438 -0.6707 -0.1720 -0.3000
 1415SOL    HW2 4824   9.106   8.672   7.472 -1.0559 -1.7205 -0.3104
 1416SOL     OW 4825   8.644   4.058   2.174 -0.4107 -0.6131 -0.8183
 1416SOL    HW1 4826   8.580   4.114   2.129  0.0828 -0.5203 -1.4228
 1416SOL    HW2 4827   8.675   3.999   2.105 -0.3102 -1.0731 -0.3791
 1417SOL     OW 4828   4.912   1.980   9.133 -0.1325 -0.0052 -0.2651
 1417SOL    HW1 4829   4.981   1.973   9.067  1.4623 -1.4888  1.4331
 1417SOL    HW2 4830   4.908   2.073   9.155  0.6926  0.2234 -1.0223
 1418SOL     OW 4831   7.548   3.863   4.710 -0.2160  0.4431 -0.0912
 1418SOL    HW1 4832   7.580   3.917   4.782 -0.0984  2.4723 -1.5725
 1418SOL    HW2 4833   7.588   3.777   4.725  1.2566  1.3002  1.2749
 1419SOL     OW 4834   5.066   0.521   2.294  0.3564  0.5737  0.1526
 1419SOL    HW1 4835   5.072   0.611   2.263  1.0181  0.7438  0.7481
 1419SOL    HW2 4836   5.116   0.520   2.376 -0.3972 -0.1188  0.6269
 1420SOL     OW 4837   1.804   6.441   9.812 -0.3221  0.2802 -0.1961
 1420SOL    HW1 4838   1.840   6.416   9.897  2.2742 -0.1531 -1.3493
 1420SOL    HW2 4839   1.771   6.360   9.775  0.7138  0.0107 -0.5589
 1421SOL     OW 4840   2.895   2.431   7.751  0.0734  0.9001 -1.1040
 1421SOL    HW1 4841   2.859   2.506   7.799  0.9101  0.1435  0.8309
 1421SOL    HW2 4842   2.888   2.358   7.813  1.5727 -0.0510 -1.9994
 1422SOL     OW 4843   6.488   1.203   4.476  0.1481 -0.3719  0.4681
 1422SOL    HW1 4844   6.481   1.114   4.512  0.3917  0.3192  2.3379
 1422SOL    HW2 4845   6.483   1.260   4.552 -1.0214  1.2987 -0.7941
 1423SOL     OW 4846   6.287   0.558   0.410  0.2397  0.3971  0.5507
 1423SOL    HW1 4847   6.285   0.650   0.385 -3.8617  0.6388  1.1206
 1423SOL    HW2 4848   6.196   0.529   0.405  1.4122 -3.9092 -0.3511
 1424SOL     OW 4849   5.222   2.641   3.667 -0.4195  0.2236  0.2343
 1424SOL    HW1 4850   5.168   2.701   3.616 -0.2395  0.6978  0.5938
 1424SOL    HW2 4851   5.312   2.664   3.643 -0.3537 -0.9496 -0.8119
 1425SOL     OW 4852   8.817   2.240   7.301 -0.3199 -0.2171  0.2348
 1425SOL    HW1 4853   8.853   2.307   7.243 -0.4728 -0.5184 -0.2087
 1425SOL    HW2 4854   8.722   2.253   7.296 -0.2802  0.8429  1.7160
 1426SOL     OW 4855   0.738   9.750   5.847 -0.8542 -0.1037  0.5671
 1426SOL    HW1 4856   0.708   9.659   5.847 -1.4230  0.0292 -1.3763
 1426SOL    HW2 4857   0.672   9.797   5.897 -1.1802 -0.5998  0.6093
 1427SOL     OW 4858   4.614   9.147   4.029 -0.1224 -0.3337  0.1326
 1427SOL    HW1 4859   4.696   9.183   3.997 -0.5401 -0.9153 -1.7115
 1427SOL    HW2 4860   4.620   9.053   4.013 -1.5718 -0.2463 -1.1196
 1428SOL     OW 4861   9.284   2.783   6.637  0.1689 -0.5075  0.4384
 1428SOL    HW1 4862   9.231   2.837   6.580 -0.1791 -0.4490  0.8076
 1428SOL    HW2 4863   9.371   2.783   6.598  0.6275  1.7201  1.3431
 1429SOL     OW 4864   6.539   5.229   9.239 -0.5294  0.0724 -0.2686
 1429SOL    HW1 4865   6.514   5.322   9.238 -0.3439  0.1346  0.4740
 1429SOL    HW2 4866   6.470   5.186   9.188 -2.3083  0.2283  1.8216
 1430SOL     OW 4867   7.978   9.732   3.412 -0.4735 -0.3864 -0.0477
 1430SOL    HW1 4868   7.952   9.778   3.333 -1.1563  0.1994  0.5020
 1430SOL    HW2 4869   7.895   9.709   3.455 -0.1458 -1.8736 -0.1623
 1431SOL     OW 4870   1.561   0.633   6.212  0.1315 -0.0285 -0.5995
 1431SOL    HW1 4871   1.614   0.617   6.134 -0.2035  2.3115 -1.3910
 1431SOL    HW2 4872   1.580   0.723   6.236 -2.2563  0.3857  0.0400
 1432SOL     OW 4873   3.896   4.177   4.884  0.5696 -0.8031  0.4484
 1432SOL    HW1 4874   3.958   4.105   4.890 -0.2457 -1.6610 -0.8133
 1432SOL    HW2 4875   3.950   4.256   4.891  1.7550 -1.5182 -0.2066
 1433SOL     OW 4876   4.242   1.296   5.422  0.4080 -0.1804  0.2620
 1433SOL    HW1 4877   4.155   1.280   5.460  0.6603  1.3598  1.5636
 1433SOL    HW2 4878   4.224   1.344   5.341  0.0654  1.9396  1.5204
 1434SOL     OW 4879   0.822   3.214   7.118  0.2431 -0.0434  0.4295
 1434SOL    HW1 4880   0.736   3.191   7.082  0.2097 -1.2152  1.1934
 1434SOL    HW2 4881   0.865   3.263   7.048 -1.2005  0.9425  0.1823
 1435SOL     OW 4882   3.936   9.024   3.576  0.1103 -0.0374  0.8241
 1435SOL    HW1 4883   3.948   8.932   3.553 -2.1786  0.1216 -1.4195
 1435SOL    HW2 4884   3.891   9.022   3.660  1.2696 -0.8858  1.4555
 1436SOL     OW 4885   1.530   7.391   6.084 -0.5170 -0.5380  0.2498
 1436SOL    HW1 4886   1.596   7.363   6.020  0.9342  1.2383  0.8936
 1436SOL    HW2 4887   1.457   7.423   6.031 -0.3501 -1.3129 -0.4808
 1437SOL     OW 4888   0.900   8.579   1.419  0.0232 -0.4426 -0.1533
 1437SOL    HW1 4889   0.876   8.489   1.397  1.2161 -0.8703  0.1964
 1437SOL    HW2 4890   0.931   8.616   1.336 -1.0818 -0.1321 -0.4381
 1438SOL     OW 4891   6.226   9.881   7.691 -0.3890 -0.1898 -0.1271
 1438SOL    HW1 4892   6.238   9.864   7.785 -1.0960 -0.3502 -0.0596
 1438SOL    HW2 4893   6.196   9.797   7.656  0.4060 -0.2833 -0.6023
 1439SOL     OW 4894   6.367   7.415   6.912 -0.5143 -0.2320  0.5981
 1439SOL    HW1 4895   6.437   7.350   6.921  0.0010  0.3264  0.6190
 1439SOL    HW2 4896   6.386   7.460   6.830  0.9390  2.0254  2.0665
 1440SOL     OW 4897   7.851   3.616   6.362  0.0612  0.1535 -0.5674
 1440SOL    HW1 4898   7.778   3.628   6.302 -0.4547 -1.7008 -0.3703
 1440SOL    HW2 4899   7.901   3.698   6.357 -1.8814  1.3651 -0.8852
 1441SOL     OW 4900   9.382   4.232   1.542  0.5514  0.5703 -0.1944
 1441SOL    HW1 4901   9.326   4.286   1.485  1.0345  0.4882 -0.7588
 1441SOL    HW2 4902   9.437   4.183   1.481  1.3688  0.7879  0.3583
 1442SOL     OW 4903   1.601   9.676   8.967 -0.5145  0.2729  0.6100
 1442SOL    HW1 4904   1.678   9.731   8.979 -0.2872  0.3509 -1.0405
 1442SOL    HW2 4905   1.570   9.697   8.879 -1.6905 -0.6748  0.7760
 1443SOL     OW 4906   3.619   5.076   1.657  0.0003  0.0121  0.2468
 1443SOL    HW1 4907   3.654   5.055   1.570  0.7039 -0.4060  0.6259
 1443SOL    HW2 4908   3.531   5.109   1.639  0.8055  1.7349 -0.7884
 1444SOL     OW 4909   2.576   2.736   6.520  0.7441  0.2448 -0.1815
 1444SOL    HW1 4910   2.670   2.746   6.537  0.7553  0.0507 -0.1247
 1444SOL    HW2 4911   2.556   2.648   6.551  0.4367  0.4755  0.2811
 1445SOL     OW 4912   0.435   7.787   3.380  0.3093 -0.0090  1.1271
 1445SOL    HW1 4913   0.531   7.786   3.370  0.5646 -0.7928  3.2841
 1445SOL    HW2 4914   0.415   7.879   3.396  0.7642  0.0805  1.2128
 1446SOL     OW 4915   6.537   8.233   9.065 -0.3052 -0.2892  0.2052
 1446SOL    HW1 4916   6.583   8.278   9.136  0.3930  0.8197 -0.9115
 1446SOL    HW2 4917   6.603   8.177   9.026 -0.3127  0.1436 -0.4337
 1447SOL     OW 4918   7.087   5.713   4.013  0.0783 -0.2388  0.4728
 1447SOL    HW1 4919   7.088   5.767   4.092 -0.6116  1.6951 -0.7494
 1447SOL    HW2 4920   7.103   5.775   3.942  1.9754 -2.1004 -0.8492
 1448SOL     OW 4921   4.666   3.541   3.650 -0.2979  0.5762  0.4882
 1448SOL    HW1 4922   4.730   3.493   3.703 -1.0248 -1.4918 -0.3809
 1448SOL    HW2 4923   4.668   3.630   3.684  0.1634 -0.3573  3.1380
 1449SOL     OW 4924   1.862   2.674   2.291 -0.4695  0.0943 -0.0669
 1449SOL    HW1 4925   1.915   2.615   2.238 -0.3018  1.7489 -1.8717
 1449SOL    HW2 4926   1.919   2.696   2.366  1.0301  1.0048 -1.4138
 1450SOL     OW 4927   8.312   3.681   1.627  0.2010 -0.1246  0.5584
 1450SOL    HW1 4928   8.338   3.657   1.716 -1.0663 -0.2008  0.9344
 1450SOL    HW2 4929   8.265   3.605   1.594 -0.7634  0.4986  0.4481
 1451SOL     OW 4930   5.123   5.246   9.383 -0.1049 -0.3669 -0.2250
 1451SOL    HW1 4931   5.143   5.313   9.449  0.8375  0.2011 -1.0520
 1451SOL    HW2 4932   5.035   5.215   9.406 -0.7925  1.5193 -0.1174
 1452SOL     OW 4933   8.487   2.916   0.525 -0.1240 -0.4889 -0.1001
 1452SOL    HW1 4934   8.459   2.900   0.435  0.3059 -1.8651 -0.0114
 1452SOL    HW2 4935   8.583   2.910   0.521  0.0414  1.2292  0.1455
 1453SOL     OW 4936   9.815   4.097   7.430  0.1892  0.1255 -0.3205
 1453SOL    HW1 4937   9.842   4.187   7.412 -1.5292  0.3650 -2.1750
 1453SOL    HW2 4938   9.722   4.104   7.452  0.2308 -1.1240  0.3435
 1454SOL     OW 4939   3.523   5.865   4.703 -0.4614  0.7690 -0.5224
 1454SOL    HW1 4940   3.511   5.869   4.798 -0.6157  2.6893 -0.5699
 1454SOL    HW2 4941   3.597   5.806   4.691 -0.9917 -0.1944  0.7262
 1455SOL     OW 4942   4.301   9.122   8.281 -0.2987  0.6000  0.3756
 1455SOL    HW1 4943   4.250   9.136   8.201 -0.8280 -0.9905  0.3931
 1455SOL    HW2 4944   4.239   9.080   8.341  1.0941 -1.8419  0.2363
 1456SOL     OW 4945   7.646   6.369   8.938  0.6445  0.5544  0.2071
 1456SOL    HW1 4946   7.730   6.370   8.984  0.0456  0.8089  1.3506
 1456SOL    HW2 4947   7.583   6.397   9.005 -0.6512 -1.6232 -0.0043
 1457SOL     OW 4948   6.402   0.130   2.667  0.4627  0.7344  0.2174
 1457SOL    HW1 4949   6.314   0.101   2.691  0.7654  0.0548  0.5412
 1457SOL    HW2 4950   6.421   0.084   2.586  0.3123  1.3056 -0.1488
 1458SOL     OW 4951   2.429   1.333   3.947 -0.7567 -0.1543 -0.3927
 1458SOL    HW1 4952   2.524   1.332   3.956 -0.7583  3.2756  1.5469
 1458SOL    HW2 4953   2.397   1.268   4.009  0.2697 -0.4087 -0.1261
 1459SOL     OW 4954   8.151   9.654   7.248 -0.1941  0.5963 -0.0521
 1459SOL    HW1 4955   8.214   9.681   7.181  0.1919 -0.7186 -0.2599
 1459SOL    HW2 4956   8.066   9.666   7.207  0.0446 -0.3833 -0.8851
 1460SOL     OW 4957   7.037   5.530   8.862 -0.2027 -0.8101  0.1582
 1460SOL    HW1 4958   6.972   5.476   8.907  0.1004 -0.1070  1.4903
 1460SOL    HW2 4959   7.028   5.617   8.901 -1.5308  0.5060 -2.8030
 1461SOL     OW 4960   9.352   6.341   9.579  0.0435 -0.1117  0.4185
 1461SOL    HW1 4961   9.370   6.248   9.568 -2.4481 -0.8592  1.8122
 1461SOL    HW2 4962   9.284   6.360   9.514 -1.3404  0.0259  1.8439
 1462SOL     OW 4963   1.051   2.905   8.998  0.0669 -0.4321  0.0365
 1462SOL    HW1 4964   1.126   2.859   9.037 -0.1449 -0.3028  0.6016
 1462SOL    HW2 4965   0.974   2.860   9.033 -0.1430 -1.3989 -1.5373
 1463SOL     OW 4966   3.080   2.178   7.889  0.4765 -0.4229  0.4013
 1463SOL    HW1 4967   3.158   2.205   7.938  1.3381 -1.7352 -0.1863
 1463SOL    HW2 4968   3.114   2.147   7.805 -0.8486  0.5231 -0.5267
 1464SOL     OW 4969   7.985   8.041   1.793 -0.1505  0.0946 -0.0448
 1464SOL    HW1 4970   7.992   8.060   1.700  1.3356 -0.7687 -0.1415
 1464SOL    HW2 4971   7.901   8.079   1.819 -0.4149  0.6819 -1.6392
 1465SOL     OW 4972   1.226   5.855   9.565 -0.1832 -0.3153  0.4457
 1465SOL    HW1 4973   1.291   5.811   9.620 -0.0438 -1.4520 -0.5663
 1465SOL    HW2 4974   1.278   5.897   9.496 -0.2837  1.8394  1.6035
 1466SOL     OW 4975   1.644   5.775   3.831 -0.2590  0.4012 -0.1734
 1466SOL    HW1 4976   1.648   5.679   3.832 -1.3540  0.2831 -2.0350
 1466SOL    HW2 4977   1.574   5.796   3.892 -0.7841 -0.0724 -0.5983
 1467SOL     OW 4978   8.306   0.217   9.732 -0.4625 -0.0795  0.3056
 1467SOL    HW1 4979   8.241   0.246   9.667 -0.4663  0.7388  0.6667
 1467SOL    HW2 4980   8.290   0.123   9.741  0.3187 -0.4544 -1.7593
 1468SOL     OW 4981   7.367   5.506   8.875  0.1878  0.1357 -0.5318
 1468SOL    HW1 4982   7.275   5.482   8.890 -0.1554  1.1304 -0.9414
 1468SOL    HW2 4983   7.405   5.430   8.831 -0.8203  0.2628 -1.6757
 1469SOL     OW 4984   3.294   5.161   8.675 -0.1252  0.0651  0.3240
 1469SOL    HW1 4985   3.337   5.233   8.722  1.4483 -2.3682  2.9585
 1469SOL    HW2 4986   3.332   5.164   8.588  3.2084 -0.0102  1.6132
 1470SOL     OW 4987   4.115   7.419   1.742  0.4666  0.2503  0.5262
 1470SOL    HW1 4988   4.195   7.471   1.739  0.6935 -0.0942  0.5699
 1470SOL    HW2 4989   4.057   7.468   1.801  0.7220  0.3879  0.6662
 1471SOL     OW 4990   1.706   4.736   9.298 -0.4395 -0.5336 -0.3041
 1471SOL    HW1 4991   1.666   4.816   9.265 -1.1977 -1.3457 -1.4337
 1471SOL    HW2 4992   1.799   4.756   9.305 -0.7208  0.6746  0.1753
 1472SOL     OW 4993   1.526   4.068   5.478  0.0335  0.2014 -0.0282
 1472SOL    HW1 4994   1.548   4.027   5.561  0.4183 -2.0531 -1.1662
 1472SOL    HW2 4995   1.599   4.047   5.420 -0.3170  1.5442 -1.0046
 1473SOL     OW 4996   4.420   0.435   6.621  0.1013 -0.0712  0.1135
 1473SOL    HW1 4997   4.331   0.466   6.634  0.1419  0.3155 -0.5136
 1473SOL    HW2 4998   4.415   0.378   6.544  0.0529 -1.5442  1.1587
 1474SOL     OW 4999   8.977   9.562   5.597  0.5693  0.1949  0.1654
 1474SOL    HW1 5000   9.007   9.472   5.596 -1.1251 -0.4292  0.8532
 1474SOL    HW2 5001   8.947   9.577   5.687  0.0455  1.1474 -0.1451
 1475SOL     OW 5002   7.823   0.494   2.862  0.2327 -0.1822 -0.1309
 1475SOL    HW1 5003   7.763   0.568   2.858  0.3178  0.0359  1.7453
 1475SOL    HW2 5004   7.767   0.418   2.873  0.2052 -0.2382 -0.6562
 1476SOL     OW 5005   8.237   4.148   8.014 -0.2275  0.2738 -0.2240
 1476SOL    HW1 5006   8.272   4.231   8.047  0.0670  0.4317 -0.9265
 1476SOL    HW2 5007   8.142   4.154   8.029 -0.0914  0.3000  0.6778
 1477SOL     OW 5008   9.493   8.101   6.221 -0.7900 -0.1420  0.3231
 1477SOL    HW1 5009   9.472   8.173   6.281 -1.1045  1.7118 -1.8634
 1477SOL    HW2 5010   9.417   8.094   6.163 -0.5351 -1.9116  0.1333
 1478SOL     OW 5011   2.908   2.252   3.075 -0.1034 -0.0330 -0.2560
 1478SOL    HW1 5012   2.833   2.197   3.099 -0.9640  0.4682 -1.6701
 1478SOL    HW2 5013   2.878   2.302   2.999  1.2122  1.2039 -0.0066
 1479SOL     OW 5014   1.404   1.609   7.774  0.3897 -0.1959 -0.3465
 1479SOL    HW1 5015   1.437   1.694   7.745  1.1406 -1.3267 -3.0889
 1479SOL    HW2 5016   1.317   1.627   7.808 -0.2173  1.4639 -2.5983
 1480SOL     OW 5017   6.822   4.891   8.726 -0.0243  0.0896 -0.2012
 1480SOL    HW1 5018   6.807   4.892   8.820  1.5407 -2.9583  0.2341
 1480SOL    HW2 5019   6.758   4.829   8.692  0.8511 -0.5651 -0.7307
 1481SOL     OW 5020   9.041   0.477   6.299 -0.2463  0.1427  0.2715
 1481SOL    HW1 5021   9.119   0.477   6.243 -0.6551  0.5184 -0.3181
 1481SOL    HW2 5022   9.062   0.537   6.370  0.2517 -0.2723  0.4707
 1482SOL     OW 5023   5.294   0.481   3.463 -0.1231  0.2980 -0.5133
 1482SOL    HW1 5024   5.379   0.493   3.505  0.2394 -0.4688 -0.9995
 1482SOL    HW2 5025   5.302   0.526   3.378 -0.4937  0.9356 -0.2206
 1483SOL     OW 5026   0.014   3.745   6.131 -0.2251  0.2168  0.2967
 1483SOL    HW1 5027   0.037   3.654   6.116  0.5004  0.3798  0.3913
 1483SOL    HW2 5028   0.089   3.782   6.178 -1.3165  0.3800  1.9828
 1484SOL     OW 5029   0.925   1.153   9.390  0.2154 -0.0842  0.5394
 1484SOL    HW1 5030   0.973   1.183   9.313 -0.7217 -2.8532 -1.2736
 1484SOL    HW2 5031   0.994   1.129   9.452  1.1318 -0.9520 -0.7498
 1485SOL     OW 5032   9.304   2.742   0.961  0.0306  0.2543 -0.0445
 1485SOL    HW1 5033   9.247   2.774   0.892  2.9854  3.5199 -1.2310
 1485SOL    HW2 5034   9.299   2.809   1.029  1.3540 -0.1154  0.4440
 1486SOL     OW 5035   9.410   5.731   6.211  0.3511  0.6916  0.3001
 1486SOL    HW1 5036   9.383   5.763   6.125  1.5312  0.6287 -0.1252
 1486SOL    HW2 5037   9.380   5.798   6.272 -0.8991  0.5175 -0.0943
 1487SOL     OW 5038   3.261   0.145   3.462  0.2617 -0.1855 -0.6855
 1487SOL    HW1 5039   3.188   0.177   3.409 -0.3711  1.2057  0.9418
 1487SOL    HW2 5040   3.232   0.156   3.553  1.5161 -2.0017  0.0015
 1488SOL     OW 5041   5.483   3.503   4.690  0.1188  0.6434 -0.1858
 1488SOL    HW1 5042   5.512   3.587   4.725 -0.5415  1.0744 -0.6673
 1488SOL    HW2 5043   5.420   3.470   4.754  1.0967  0.0446  0.4964
 1489SOL     OW 5044   9.572   9.801   1.248  0.0920  0.1357  0.4628
 1489SOL    HW1 5045   9.604   9.728   1.195  0.8243 -0.4874  1.7086
 1489SOL    HW2 5046   9.651   9.852   1.268 -0.1447  0.2681  1.0731
 1490SOL     OW 5047   1.445   6.441   0.482 -0.5001  0.6570  0.3262
 1490SOL    HW1 5048   1.472   6.531   0.465 -0.5139  0.4942 -0.6075
 1490SOL    HW2 5049   1.362   6.448   0.529 -0.1678  1.1271  0.8599
 1491SOL     OW 5050   8.395   3.095   0.161 -0.6329  0.9096  0.1164
 1491SOL    HW1 5051   8.305   3.080   0.188 -1.4145  1.8696 -1.7599
 1491SOL    HW2 5052   8.442   3.017   0.189 -2.0786  0.3030  0.9538
 1492SOL     OW 5053   9.341   3.199   2.721  0.2494 -0.7007  0.6538
 1492SOL    HW1 5054   9.275   3.245   2.773 -0.3649  0.5053 -1.1025
 1492SOL    HW2 5055   9.311   3.209   2.631  1.4132 -2.4950  0.0095
 1493SOL     OW 5056   1.050   3.938   6.906  0.1493  0.4067 -0.6681
 1493SOL    HW1 5057   1.077   3.936   6.998  0.7367 -0.4407 -0.8434
 1493SOL    HW2 5058   1.072   4.026   6.877  0.9717  0.3496 -0.2748
 1494SOL     OW 5059   9.931   5.005   2.742 -0.1692 -0.0865 -0.2233
 1494SOL    HW1 5060   9.916   5.093   2.708 -1.3970 -0.0287  0.3973
 1494SOL    HW2 5061  10.010   4.975   2.699  0.7011  1.6162  0.1112
 1495SOL     OW 5062   3.753   2.513   0.829 -0.2539  0.6483 -0.0693
 1495SOL    HW1 5063   3.822   2.574   0.802  0.6688 -0.2359  0.2439
 1495SOL    HW2 5064   3.797   2.451   0.887 -1.2879 -0.0166  0.0275
 1496SOL     OW 5065   2.728   2.995   6.911  0.1451 -0.1523 -0.4781
 1496SOL    HW1 5066   2.789   3.016   6.840  0.0372 -0.7633 -0.7597
 1496SOL    HW2 5067   2.745   2.903   6.931  0.9606  0.2993  1.0735
 1497SOL     OW 5068   8.665   2.597   6.391 -0.0554  0.4531  0.2140
 1497SOL    HW1 5069   8.704   2.571   6.308 -1.2450  0.6897 -0.4426
 1497SOL    HW2 5070   8.610   2.522   6.416 -1.6805  1.3616 -0.5151
 1498SOL     OW 5071   9.045   1.531   6.277 -0.2049 -0.1267  0.7287
 1498SOL    HW1 5072   9.120   1.545   6.334  1.6709  2.6217 -2.0711
 1498SOL    HW2 5073   9.079   1.479   6.204 -1.9653 -1.6818  0.9223
 1499SOL     OW 5074   2.288   4.167   9.277 -0.8684  0.0172  0.1049
 1499SOL    HW1 5075   2.357   4.100   9.276 -0.6948  0.1492  1.3150
 1499SOL    HW2 5076   2.216   4.127   9.229 -0.6109 -0.8831  0.4343
 1500SOL     OW 5077   5.108   8.033   5.456 -0.7834 -0.0372 -0.4047
 1500SOL    HW1 5078   5.128   7.941   5.443 -0.0683  0.0259  0.1518
 1500SOL    HW2 5079   5.130   8.074   5.372  0.2712 -0.1706 -0.2134
 1501SOL     OW 5080   5.657   6.796   2.924 -0.1169 -0.0286 -0.0002
 1501SOL    HW1 5081   5.606   6.780   3.003 -0.4124  0.8838  0.0103
 1501SOL    HW2 5082   5.613   6.744   2.857  0.9836 -1.9581  0.6918
 1502SOL     OW 5083   4.713   9.679   5.715  0.0081 -0.5667  0.0498
 1502SOL    HW1 5084   4.792   9.636   5.746  0.6372  0.7742  0.4039
 1502SOL    HW2 5085   4.739   9.723   5.634  0.1812  1.4098  1.1002
 1503SOL     OW 5086   8.668   4.077   5.968 -0.0240 -0.7691 -0.3878
 1503SOL    HW1 5087   8.614   4.019   6.022  0.4715 -0.2978  0.6381
 1503SOL    HW2 5088   8.633   4.066   5.880 -0.5364 -1.9315 -0.0679
 1504SOL     OW 5089   7.953   9.217   4.594 -0.0292  0.0145  0.0174
 1504SOL    HW1 5090   7.944   9.281   4.524  0.9240 -0.3889 -0.4900
 1504SOL    HW2 5091   7.992   9.140   4.552  1.3813  0.0787  1.1372
 1505SOL     OW 5092   2.448   7.879   1.353  0.3039 -0.5185 -0.2336
 1505SOL    HW1 5093   2.406   7.941   1.293 -0.6678 -0.6617  0.2914
 1505SOL    HW2 5094   2.398   7.798   1.343 -0.0564 -0.4584  0.9829
 1506SOL     OW 5095   8.307   8.065   3.020 -0.2459 -0.6928  0.3753
 1506SOL    HW1 5096   8.354   7.986   3.046  1.3665  0.4919  1.2330
 1506SOL    HW2 5097   8.218   8.052   3.053  0.4870 -1.3549  2.2043
 1507SOL     OW 5098   2.553   4.491   9.358  0.0300  0.5224  0.2650
 1507SOL    HW1 5099   2.625   4.507   9.298  0.7611  1.7404  1.4121
 1507SOL    HW2 5100   2.589   4.510   9.445 -1.6980  1.3172  0.8629
 1508SOL     OW 5101   8.575   4.651   3.685 -0.1285  0.1299 -0.1708
 1508SOL    HW1 5102   8.488   4.610   3.686 -0.2645  0.4057  1.1661
 1508SOL    HW2 5103   8.608   4.635   3.596 -0.9912 -1.1311 -0.2941
 1509SOL     OW 5104   0.349   4.579   6.380  0.2784 -0.4906 -0.1076
 1509SOL    HW1 5105   0.392   4.645   6.434  0.2406  0.4886 -1.2290
 1509SOL    HW2 5106   0.304   4.523   6.443 -0.0732  0.8244  0.8742
 1510SOL     OW 5107   1.268   9.547   7.737 -0.3246  0.7042  0.0987
 1510SOL    HW1 5108   1.319   9.468   7.756  0.5897  1.5834  1.5382
 1510SOL    HW2 5109   1.177   9.521   7.752 -0.0077 -0.0208  0.8585
 1511SOL     OW 5110   6.870   4.791   1.403  0.4797 -0.0805  0.6029
 1511SOL    HW1 5111   6.843   4.702   1.426  1.3372 -0.5159 -0.0118
 1511SOL    HW2 5112   6.905   4.783   1.314  1.0638  0.7707  0.7449
 1512SOL     OW 5113   4.523   3.149   2.182  0.5320  0.5009 -0.2774
 1512SOL    HW1 5114   4.500   3.081   2.118  2.3751  0.4497 -0.9437
 1512SOL    HW2 5115   4.488   3.117   2.265 -2.4340  0.8354 -1.2753
 1513SOL     OW 5116   8.273   2.824   5.098  0.2601 -0.0088  0.4908
 1513SOL    HW1 5117   8.329   2.750   5.118 -0.2120 -0.7939 -0.9612
 1513SOL    HW2 5118   8.203   2.821   5.164  0.1063 -1.0182  0.2909
 1514SOL     OW 5119   2.881   2.519   9.285  0.6152 -0.5884  0.3035
 1514SOL    HW1 5120   2.904   2.590   9.345  2.2334  0.6841 -1.7070
 1514SOL    HW2 5121   2.944   2.526   9.214 -0.6369 -2.6264 -1.1146
 1515SOL     OW 5122   1.242   2.624   7.803 -0.2059 -0.0523 -0.5703
 1515SOL    HW1 5123   1.224   2.669   7.721  1.8282  1.6071 -0.1958
 1515SOL    HW2 5124   1.338   2.621   7.808 -0.2826 -0.5380  1.5141
 1516SOL     OW 5125   4.886   5.256   0.775 -0.6812  0.2994  0.0113
 1516SOL    HW1 5126   4.850   5.342   0.797 -1.7717 -0.5524  1.6720
 1516SOL    HW2 5127   4.821   5.216   0.718  0.5874  1.1507 -2.1936
 1517SOL     OW 5128   0.309   4.780   9.485 -0.3701 -0.1049 -0.4251
 1517SOL    HW1 5129   0.386   4.778   9.542 -1.2753  0.5936  0.8501
 1517SOL    HW2 5130   0.282   4.688   9.477 -0.6867 -0.1427  0.9146
 1518SOL     OW 5131   8.162   2.012   1.708 -0.2243  0.7768  0.0767
 1518SOL    HW1 5132   8.139   2.044   1.620 -0.9038 -0.7633 -0.3492
 1518SOL    HW2 5133   8.241   2.060   1.731  0.8085  0.2136 -1.9998
 1519SOL     OW 5134   5.771   6.092   2.583 -0.4116  0.0657  0.1448
 1519SOL    HW1 5135   5.746   6.101   2.491 -1.1094 -0.1143  0.3130
 1519SOL    HW2 5136   5.688   6.096   2.631 -0.0739 -0.0803  0.7474
 1520SOL     OW 5137   6.161   1.693   5.150  0.6040  0.2029 -0.1092
 1520SOL    HW1 5138   6.257   1.692   5.156  0.5248 -0.5583  1.9231
 1520SOL    HW2 5139   6.141   1.635   5.076  1.7201  1.9316 -1.8474
 1521SOL     OW 5140   9.248   8.988   7.879  0.1070  0.1524 -0.8560
 1521SOL    HW1 5141   9.262   9.067   7.827 -0.6189  1.1681  0.4349
 1521SOL    HW2 5142   9.335   8.965   7.912 -0.0219  2.0815  1.0375
 1522SOL     OW 5143   2.339   8.967   8.109  0.0663  0.2879 -0.7225
 1522SOL    HW1 5144   2.274   9.019   8.063  0.3490 -0.1599 -1.6662
 1522SOL    HW2 5145   2.299   8.880   8.117 -0.9175  0.8948  1.9457
 1523SOL     OW 5146   2.483   3.902   4.124  0.3472 -0.2683  0.5965
 1523SOL    HW1 5147   2.510   3.970   4.063  2.6568  0.1794  1.9730
 1523SOL    HW2 5148   2.504   3.820   4.079  0.3090  0.0016  0.0830
 1524SOL     OW 5149   3.353   3.350   5.246 -0.0143 -0.2174  0.0993
 1524SOL    HW1 5150   3.311   3.297   5.178  0.0941  0.6029 -0.6214
 1524SOL    HW2 5151   3.421   3.293   5.282 -0.9020 -1.1182  0.4219
 1525SOL     OW 5152   7.946   4.180   1.769 -0.0790 -0.4782 -0.3886
 1525SOL    HW1 5153   7.907   4.098   1.800  0.3903 -0.8158 -0.6865
 1525SOL    HW2 5154   8.040   4.163   1.767  0.1732  0.5408  0.9658
 1526SOL     OW 5155   6.473   6.203   6.901 -0.3848 -0.5657  0.3060
 1526SOL    HW1 5156   6.528   6.125   6.904  0.6955  0.1837  1.7234
 1526SOL    HW2 5157   6.467   6.226   6.808 -1.5928 -2.8745 -0.2436
 1527SOL     OW 5158   0.081   8.745   8.518 -0.3905 -0.2197 -0.6272
 1527SOL    HW1 5159   0.128   8.728   8.436  0.1691  1.1864 -0.6286
 1527SOL    HW2 5160   0.132   8.813   8.561 -1.8411  0.5848 -0.1071
 1528SOL     OW 5161   7.536   4.108   7.026 -0.2552  0.6722 -0.2434
 1528SOL    HW1 5162   7.515   4.063   6.945 -0.4327  0.1752  0.0742
 1528SOL    HW2 5163   7.495   4.194   7.017 -3.0762 -0.4592  0.5997
 1529SOL     OW 5164   0.306   3.207   3.917 -0.3385  0.1703 -0.0764
 1529SOL    HW1 5165   0.318   3.167   3.831 -1.1728  0.4512 -0.3306
 1529SOL    HW2 5166   0.322   3.300   3.903  0.5869  0.0784  0.3040
 1530SOL     OW 5167   7.613   2.729   2.952 -0.5131 -0.5587 -0.7506
 1530SOL    HW1 5168   7.597   2.657   2.891  0.9653 -0.8998 -0.7619
 1530SOL    HW2 5169   7.557   2.710   3.027 -1.8801 -0.4687 -1.7148
 1531SOL     OW 5170   1.080   2.920   7.205 -0.3610  0.0033 -0.4042
 1531SOL    HW1 5171   1.147   2.918   7.273 -2.0309  0.8104  1.3617
 1531SOL    HW2 5172   1.078   3.010   7.175 -0.1610 -0.1818 -0.9862
 1532SOL     OW 5173   1.269   2.045   0.655 -0.0659  0.1030 -0.1385
 1532SOL    HW1 5174   1.348   1.992   0.664 -1.1329 -1.3936  0.7618
 1532SOL    HW2 5175   1.267   2.100   0.733  0.4932  0.7609 -0.5699
 1533SOL     OW 5176   0.614   3.489   5.843  0.2507 -0.2716  0.1299
 1533SOL    HW1 5177   0.661   3.529   5.771 -1.2321  2.6573  0.6458
 1533SOL    HW2 5178   0.552   3.429   5.801  0.2367  0.4909 -0.9651
 1534SOL     OW 5179   5.865   7.891   4.598  0.1362 -0.8218  0.3457
 1534SOL    HW1 5180   5.909   7.855   4.521 -0.1689 -0.4425 -0.0083
 1534SOL    HW2 5181   5.931   7.889   4.667  0.0482 -2.3820  0.4401
 1535SOL     OW 5182   4.455   0.916   8.937  0.5475  0.7480  0.5017
 1535SOL    HW1 5183   4.418   0.852   8.998  1.1222 -0.1304 -0.0304
 1535SOL    HW2 5184   4.450   0.872   8.852  0.1973  1.7615 -0.0085
 1536SOL     OW 5185   4.038   1.550   6.629 -0.3580  0.2763  0.3055
 1536SOL    HW1 5186   3.963   1.606   6.648 -0.3866  0.4728 -0.3941
 1536SOL    HW2 5187   4.041   1.544   6.534  0.1694 -0.2024  0.3477
 1537SOL     OW 5188   5.999   5.374   1.443 -0.6099 -0.0646  0.1518
 1537SOL    HW1 5189   5.935   5.360   1.513 -0.8091  0.9040  0.1831
 1537SOL    HW2 5190   6.030   5.287   1.420 -1.6120 -0.5065  0.4517
 1538SOL     OW 5191   9.513   2.769   6.471  0.3219  0.0813 -0.2858
 1538SOL    HW1 5192   9.511   2.673   6.481  1.6138  0.0715  0.1443
 1538SOL    HW2 5193   9.491   2.784   6.380 -0.1335 -0.6178 -0.2998
 1539SOL     OW 5194   9.632   8.292   2.651  0.1682 -0.7327  0.0424
 1539SOL    HW1 5195   9.558   8.305   2.591  0.4882 -1.6784 -0.5876
 1539SOL    HW2 5196   9.613   8.349   2.725 -0.3228  0.3576 -0.8884
 1540SOL     OW 5197   8.294   1.624   5.270  0.3376  0.4065 -0.0528
 1540SOL    HW1 5198   8.220   1.660   5.220 -0.6597  0.4384  1.3902
 1540SOL    HW2 5199   8.371   1.647   5.218 -0.7270 -1.1629 -2.5217
 1541SOL     OW 5200   0.653   2.731   9.979 -0.0494 -0.0605  0.2486
 1541SOL    HW1 5201   0.627   2.823   9.980  0.6787  0.1954 -1.3806
 1541SOL    HW2 5202   0.647   2.705   9.887  2.7135 -0.7748  0.1958
 1542SOL     OW 5203   5.268   9.841   2.347 -0.4179  0.6668 -0.5045
 1542SOL    HW1 5204   5.293   9.899   2.419 -1.9307  0.3109  0.3384
 1542SOL    HW2 5205   5.206   9.892   2.295 -3.7584 -0.9094  1.6397
 1543SOL     OW 5206   9.542   3.653   9.613 -0.1789 -0.2910  0.0622
 1543SOL    HW1 5207   9.579   3.732   9.574  0.8848 -1.0901 -0.5986
 1543SOL    HW2 5208   9.537   3.672   9.707  2.4794 -0.3435  0.2698
 1544SOL     OW 5209   0.428   6.255   1.156  0.4163 -0.4493  0.1553
 1544SOL    HW1 5210   0.351   6.284   1.206  1.9735 -0.7103  2.9555
 1544SOL    HW2 5211   0.402   6.170   1.120 -0.7097 -0.4095  0.8125
 1545SOL     OW 5212   3.837   0.344   9.946 -0.0295 -0.0250 -0.4617
 1545SOL    HW1 5213   3.825   0.412  10.013  0.4407  0.8680 -1.2571
 1545SOL    HW2 5214   3.920   0.365   9.905  0.1243 -1.1013 -0.7282
 1546SOL     OW 5215   6.202   9.717   4.436  0.1632  0.3367 -0.4531
 1546SOL    HW1 5216   6.156   9.687   4.357  3.4435  0.6300 -2.6663
 1546SOL    HW2 5217   6.245   9.639   4.470  0.6412  0.6635 -0.3109
 1547SOL     OW 5218   8.958   9.997   3.054  0.5179 -0.1166  0.2575
 1547SOL    HW1 5219   8.988   9.929   3.114  1.9373  0.1209 -0.1350
 1547SOL    HW2 5220   8.994   9.971   2.969 -1.2653 -0.3228 -0.4582
 1548SOL     OW 5221   0.905   4.525   1.633  0.0206  0.1892 -0.2174
 1548SOL    HW1 5222   0.850   4.488   1.564 -0.5179  0.2146  0.1958
 1548SOL    HW2 5223   0.986   4.474   1.629  0.7976  1.4767 -2.1800
 1549SOL     OW 5224   4.902   6.589   7.714  0.2209  0.4157 -0.6827
 1549SOL    HW1 5225   4.894   6.622   7.804  2.7043  1.7069 -0.8364
 1549SOL    HW2 5226   4.951   6.507   7.724  1.8775  1.3394 -0.9148
 1550SOL     OW 5227   2.636   5.817   8.860 -0.0794 -0.2823  0.4549
 1550SOL    HW1 5228   2.679   5.732   8.856  1.3872  0.3034  2.2651
 1550SOL    HW2 5229   2.640   5.850   8.770  0.7998 -1.4382  0.0420
 1551SOL     OW 5230   2.924   4.070   6.920  0.6144 -0.1395 -0.2927
 1551SOL    HW1 5231   2.834   4.044   6.937  0.4694  0.8540  0.6155
 1551SOL    HW2 5232   2.947   4.126   6.995  1.8856 -0.1468 -0.6514
 1552SOL     OW 5233   6.256   5.056   6.828 -0.3798  0.3146 -0.2379
 1552SOL    HW1 5234   6.342   5.062   6.786 -0.2871  2.2887  0.1498
 1552SOL    HW2 5235   6.225   4.968   6.807  2.6205 -1.2833  1.3385
 1553SOL     OW 5236   1.045   4.760   2.108  0.2095 -0.4059  0.0365
 1553SOL    HW1 5237   0.989   4.711   2.048  1.5259 -0.8730 -0.8502
 1553SOL    HW2 5238   1.119   4.702   2.125  0.7031  0.4058  0.7444
 1554SOL     OW 5239   9.533   8.014   1.654  0.0020 -0.1890  0.0566
 1554SOL    HW1 5240   9.487   7.931   1.641  0.4312 -0.3634 -0.3991
 1554SOL    HW2 5241   9.475   8.065   1.711 -0.9050 -0.2850 -0.7439
 1555SOL     OW 5242   1.932   5.922   2.250  0.8626  0.0941  0.1247
 1555SOL    HW1 5243   2.025   5.899   2.245  0.9275  0.0308  1.4849
 1555SOL    HW2 5244   1.897   5.867   2.320 -0.0678  0.5728  0.0456
 1556SOL     OW 5245   4.473   6.870   2.015 -0.2466  0.0059  0.3680
 1556SOL    HW1 5246   4.386   6.864   1.975 -0.4364  1.6336  0.4667
 1556SOL    HW2 5247   4.534   6.855   1.943 -0.6113  0.4223 -0.0369
 1557SOL     OW 5248   6.570   7.377   5.820 -0.4042 -0.0334  0.2448
 1557SOL    HW1 5249   6.627   7.303   5.801 -1.6088 -0.6994 -0.9812
 1557SOL    HW2 5250   6.483   7.338   5.833 -0.6405  0.9459  2.0255
 1558SOL     OW 5251   0.139   9.426   9.276  0.0079 -0.2396 -0.0652
 1558SOL    HW1 5252   0.126   9.477   9.356  0.0267 -1.1930  0.5700
 1558SOL    HW2 5253   0.233   9.432   9.260  0.3038 -1.4331  0.9880
 1559SOL     OW 5254   2.909   8.547   4.545 -0.1220 -0.0822 -0.1227
 1559SOL    HW1 5255   2.855   8.538   4.467 -0.7747  0.8230  0.2065
 1559SOL    HW2 5256   2.974   8.613   4.521 -0.4265  0.3185  0.1509
 1560SOL     OW 5257   7.552   8.973   9.867  0.3364  0.2700 -0.1575
 1560SOL    HW1 5258   7.525   8.883   9.884 -0.6290  0.5009 -0.3942
 1560SOL    HW2 5259   7.592   9.002   9.949  0.4757 -0.3018 -0.0167
 1561SOL     OW 5260   3.274   5.062   7.704 -0.5766 -0.1703 -0.4480
 1561SOL    HW1 5261   3.242   5.010   7.778  1.4184  0.8852  1.2927
 1561SOL    HW2 5262   3.370   5.054   7.710 -0.3401  0.8148 -2.3051
 1562SOL     OW 5263   9.585   7.751   9.605  0.6225 -0.5430 -1.0334
 1562SOL    HW1 5264   9.607   7.681   9.667 -1.7594 -1.5415 -1.2257
 1562SOL    HW2 5265   9.619   7.721   9.521  2.6892  0.2103 -0.5384
 1563SOL     OW 5266   6.201   5.430   6.137  0.2997  0.5371 -0.4195
 1563SOL    HW1 5267   6.219   5.523   6.129 -0.0522  0.5289 -1.4638
 1563SOL    HW2 5268   6.125   5.414   6.080 -0.9918 -0.0182  1.3552
 1564SOL     OW 5269   6.190   0.353   5.231  0.0212  0.1242 -0.4345
 1564SOL    HW1 5270   6.242   0.430   5.208  1.1731  0.3540  2.5284
 1564SOL    HW2 5271   6.238   0.279   5.193  0.8598  0.5992 -0.3190
 1565SOL     OW 5272   5.802   0.246   3.868 -0.0973  0.4032  0.0012
 1565SOL    HW1 5273   5.722   0.239   3.816 -0.7493  0.3982  0.9751
 1565SOL    HW2 5274   5.774   0.227   3.957  0.9094  0.8645  0.4315
 1566SOL     OW 5275   1.664   2.372   4.381 -0.5460  0.1792 -0.1621
 1566SOL    HW1 5276   1.616   2.393   4.301 -1.5473  0.5248  0.5035
 1566SOL    HW2 5277   1.738   2.433   4.382 -0.0648 -0.3628 -1.2070
 1567SOL     OW 5278   3.667   9.698   7.371  0.1292  0.0335 -0.8246
 1567SOL    HW1 5279   3.622   9.772   7.330 -0.8641 -0.6941 -1.0645
 1567SOL    HW2 5280   3.760   9.722   7.366 -0.1015  0.7779 -1.8746
 1568SOL     OW 5281   2.966   4.421   0.590 -0.0595 -0.1481 -0.2442
 1568SOL    HW1 5282   3.044   4.476   0.579  1.5880 -2.1800  0.5863
 1568SOL    HW2 5283   2.983   4.371   0.669 -1.1058 -2.3822 -1.3408
 1569SOL     OW 5284   9.964   4.465   8.189  0.0870 -0.1419 -0.1274
 1569SOL    HW1 5285   9.965   4.473   8.094  1.9741  0.4705 -0.0995
 1569SOL    HW2 5286   9.875   4.491   8.215 -0.1394  0.6894 -1.6440
 1570SOL     OW 5287   4.201   9.611   0.070  0.1653 -0.6272  0.8750
 1570SOL    HW1 5288   4.144   9.650   0.136  0.0855  0.0460  0.4162
 1570SOL    HW2 5289   4.268   9.678   0.054 -0.2737 -0.4533 -0.3067
 1571SOL     OW 5290   8.364   0.318   3.371 -0.0322  0.2205  0.0753
 1571SOL    HW1 5291   8.424   0.243   3.380  1.6300  1.4010 -0.7310
 1571SOL    HW2 5292   8.377   0.368   3.451 -2.1969 -0.9965  1.2885
 1572SOL     OW 5293   3.069   9.825   3.226  0.0543 -0.3599 -0.2728
 1572SOL    HW1 5294   3.132   9.896   3.211 -0.2287 -0.0989 -0.2430
 1572SOL    HW2 5295   3.020   9.819   3.144  0.1140 -0.5589 -0.2937
 1573SOL     OW 5296   2.729   2.371   7.365 -0.0685  0.0615  0.6092
 1573SOL    HW1 5297   2.653   2.380   7.422 -1.1234 -2.0718 -0.3576
 1573SOL    HW2 5298   2.803   2.396   7.419 -1.2419  0.1514  2.2347
 1574SOL     OW 5299   0.554   4.491   2.035  0.0533 -0.2109  0.0440
 1574SOL    HW1 5300   0.607   4.429   2.085 -0.0770 -1.0795 -0.8427
 1574SOL    HW2 5301   0.464   4.471   2.059  0.0652  0.7428  0.9645
 1575SOL     OW 5302   3.108   5.993   6.863  0.0418 -0.3557 -0.2389
 1575SOL    HW1 5303   3.045   5.980   6.935  0.6270 -1.5681  0.0844
 1575SOL    HW2 5304   3.066   6.058   6.806 -1.4040 -0.9655  0.0835
 1576SOL     OW 5305   6.717   3.451   2.889 -0.1610 -0.7554 -0.1986
 1576SOL    HW1 5306   6.672   3.399   2.823  0.2437 -0.8775 -0.3833
 1576SOL    HW2 5307   6.809   3.426   2.881  0.0536  0.0554 -0.3621
 1577SOL     OW 5308   5.476   4.066   1.487 -0.4831  0.6980  0.6866
 1577SOL    HW1 5309   5.554   4.092   1.537  0.3726  1.1410 -0.8178
 1577SOL    HW2 5310   5.455   4.142   1.434 -0.5539 -0.2045 -0.6250
 1578SOL     OW 5311   6.740   5.730   6.331  0.1425  0.0183  0.0400
 1578SOL    HW1 5312   6.649   5.735   6.303  0.4991 -0.2020 -1.2091
 1578SOL    HW2 5313   6.736   5.734   6.427 -1.2703 -1.2855  0.0833
 1579SOL     OW 5314   9.488   4.100   4.275  0.5828  0.1956  0.5099
 1579SOL    HW1 5315   9.462   4.085   4.184 -0.0099 -1.8553  0.9656
 1579SOL    HW2 5316   9.535   4.020   4.300  2.2655  1.4440  1.4963
 1580SOL     OW 5317   8.536   3.198   1.189 -0.4430 -0.5680  0.2375
 1580SOL    HW1 5318   8.476   3.214   1.115 -0.0621 -1.0593 -0.1826
 1580SOL    HW2 5319   8.615   3.248   1.166  0.2290 -1.8869 -0.4080
 1581SOL     OW 5320   0.299   7.666   8.952  0.1276  0.3512 -0.3306
 1581SOL    HW1 5321   0.291   7.761   8.942  3.1691  0.6112 -1.4914
 1581SOL    HW2 5322   0.388   7.653   8.985  0.0460 -2.1256 -0.8981
 1582SOL     OW 5323   0.937   7.990   2.003 -0.5699  0.1322 -0.0974
 1582SOL    HW1 5324   0.858   7.968   1.953 -0.3901 -1.2718  0.1853
 1582SOL    HW2 5325   0.948   7.917   2.064  0.2582  0.9168  0.7198
 1583SOL     OW 5326   4.289   9.605   8.728 -0.2224  0.3058 -0.3424
 1583SOL    HW1 5327   4.219   9.584   8.666  0.8382  0.5936 -1.6796
 1583SOL    HW2 5328   4.262   9.562   8.809 -2.1886  0.8282 -0.6551
 1584SOL     OW 5329   6.108   8.234   4.446  0.2492  0.0535  0.1354
 1584SOL    HW1 5330   6.027   8.184   4.436  0.1793  0.1208  0.3789
 1584SOL    HW2 5331   6.079   8.325   4.457  0.3968  0.2775 -1.1205
 1585SOL     OW 5332   0.612   2.942   1.846 -0.6688 -0.0615 -0.7312
 1585SOL    HW1 5333   0.518   2.962   1.844 -0.9271 -0.1343  3.1047
 1585SOL    HW2 5334   0.617   2.852   1.879  0.7018  0.8861  1.8738
 1586SOL     OW 5335   9.778   1.809   1.552  0.0858 -0.7414 -0.2387
 1586SOL    HW1 5336   9.688   1.781   1.566 -0.4917  1.4258  0.9439
 1586SOL    HW2 5337   9.771   1.877   1.484  0.9578 -1.1758 -0.7770
 1587SOL     OW 5338   3.395   2.800   4.191 -0.2859 -0.2556 -0.0784
 1587SOL    HW1 5339   3.402   2.706   4.175  1.0971  0.0632 -1.6831
 1587SOL    HW2 5340   3.482   2.834   4.170 -0.9724  1.4845 -0.2613
 1588SOL     OW 5341   8.680   7.452   8.384  0.2066  0.0809 -0.0056
 1588SOL    HW1 5342   8.699   7.385   8.450  2.0437 -0.0145 -0.5731
 1588SOL    HW2 5343   8.636   7.404   8.313 -0.0124 -0.1837  0.3066
 1589SOL     OW 5344   3.474   7.227   2.048  0.5407 -0.8230 -0.7312
 1589SOL    HW1 5345   3.479   7.139   2.085  1.7250  0.0352  1.3127
 1589SOL    HW2 5346   3.565   7.257   2.047 -0.0149  1.0473  0.4275
 1590SOL     OW 5347   5.598   9.741   3.016 -0.1014  0.2430 -0.3066
 1590SOL    HW1 5348   5.687   9.746   3.050 -0.3099 -1.7252  0.6609
 1590SOL    HW2 5349   5.549   9.694   3.084 -1.3315 -0.7083 -1.7835
 1591SOL     OW 5350   1.369   5.882   5.594 -0.4321  0.6519 -0.0242
 1591SOL    HW1 5351   1.281   5.919   5.592 -0.5105  0.4449 -1.3165
 1591SOL    HW2 5352   1.356   5.789   5.573 -0.0955  0.1416  1.8072
 1592SOL     OW 5353   4.186   8.956   6.771  0.0694 -0.9536 -0.1227
 1592SOL    HW1 5354   4.094   8.961   6.746  0.2737  0.9429 -0.6956
 1592SOL    HW2 5355   4.198   8.868   6.806 -2.0070 -1.1512  0.1662
 1593SOL     OW 5356   6.006   0.082   5.653  0.5437  0.3442  0.0372
 1593SOL    HW1 5357   6.073   0.060   5.588 -0.2201  0.0526 -0.6613
 1593SOL    HW2 5358   5.986   0.174   5.637  2.7855  1.3040  2.1008
 1594SOL     OW 5359   0.244   8.693   8.916  0.1226  0.5301  0.3199
 1594SOL    HW1 5360   0.256   8.753   8.842  0.0483 -0.6341 -0.6718
 1594SOL    HW2 5361   0.252   8.748   8.994  1.4739  1.5796 -0.5166
 1595SOL     OW 5362   9.598   6.334   4.064  0.4263 -0.1252 -0.0419
 1595SOL    HW1 5363   9.561   6.284   3.991  1.1220  1.2425 -1.4162
 1595SOL    HW2 5364   9.630   6.268   4.125 -0.9605 -1.3196 -0.5455
 1596SOL     OW 5365   8.036   7.595   7.526 -0.1483  0.3461 -0.7475
 1596SOL    HW1 5366   8.045   7.518   7.469 -4.2749 -1.4683  0.6764
 1596SOL    HW2 5367   7.965   7.646   7.488  1.6653  2.9422 -0.9389
 1597SOL     OW 5368   1.754   1.254   4.005 -0.0605  1.0551 -0.3394
 1597SOL    HW1 5369   1.826   1.298   4.050 -0.7179  0.7660  1.0218
 1597SOL    HW2 5370   1.704   1.211   4.074 -0.5839 -0.1789 -1.4287
 1598SOL     OW 5371   0.038   7.136   5.097  0.4844 -0.1856  0.0523
 1598SOL    HW1 5372   0.101   7.196   5.057 -1.4287  2.0968  0.2529
 1598SOL    HW2 5373   0.075   7.049   5.081  2.9034  0.9495 -1.1242
 1599SOL     OW 5374   6.440   8.657   6.566 -0.1686  0.4082 -0.0530
 1599SOL    HW1 5375   6.443   8.710   6.645 -0.1926 -0.8811  0.8550
 1599SOL    HW2 5376   6.531   8.652   6.537  0.5952 -2.4363  2.2891
 1600SOL     OW 5377   2.034   2.467   4.952  0.3543  0.0263  0.2314
 1600SOL    HW1 5378   2.024   2.523   5.029  0.8358  1.5374 -0.7609
 1600SOL    HW2 5379   2.068   2.385   4.986  0.8745  0.7806  1.5932
 1601SOL     OW 5380   3.602   5.317   9.087  0.4054  1.2148 -0.1788
 1601SOL    HW1 5381   3.584   5.386   9.023 -1.1366  1.8192  0.8604
 1601SOL    HW2 5382   3.669   5.354   9.144 -0.8259  2.1147  0.7224
 1602SOL     OW 5383   6.610   6.331   1.660 -0.1502  0.5982  0.6254
 1602SOL    HW1 5384   6.660   6.251   1.674 -0.4069  0.3667  0.2408
 1602SOL    HW2 5385   6.612   6.376   1.745 -2.1633 -1.0295  1.6285
 1603SOL     OW 5386   3.092   6.747   0.420  0.3341 -0.1310  0.0516
 1603SOL    HW1 5387   3.131   6.660   0.415  0.2396 -0.1467 -0.5130
 1603SOL    HW2 5388   3.162   6.806   0.394 -0.0051 -0.1595 -0.9655
 1604SOL     OW 5389   9.228   6.928   2.158 -0.8229 -0.0826 -0.1914
 1604SOL    HW1 5390   9.186   6.974   2.086  0.2135  0.9913 -0.1362
 1604SOL    HW2 5391   9.199   6.974   2.236 -0.2703  0.0974 -0.0881
 1605SOL     OW 5392   5.164   8.300   8.401 -0.0214 -0.4215  1.3221
 1605SOL    HW1 5393   5.198   8.382   8.367 -1.6701  0.1068  0.8304
 1605SOL    HW2 5394   5.080   8.288   8.356  1.3896 -3.8105 -0.7491
 1606SOL     OW 5395   2.811   8.131   9.592 -0.1345 -0.0707 -0.4441
 1606SOL    HW1 5396   2.737   8.077   9.566 -0.1079  0.8200 -2.6078
 1606SOL    HW2 5397   2.879   8.110   9.529  0.0799  1.9603 -0.9536
 1607SOL     OW 5398   5.841   6.105   7.795 -0.3996 -0.0043 -0.2018
 1607SOL    HW1 5399   5.762   6.140   7.837 -0.1332 -0.6156  0.8346
 1607SOL    HW2 5400   5.847   6.152   7.712 -1.0940  1.0371  0.3243
 1608SOL     OW 5401   3.462   6.892   4.889  0.5017  0.6957 -0.3898
 1608SOL    HW1 5402   3.512   6.973   4.899  0.2879  0.9847 -1.5250
 1608SOL    HW2 5403   3.517   6.836   4.836  0.9687 -0.2139  1.0094
 1609SOL     OW 5404   3.951   3.712   6.344  0.1925  0.0259 -0.4482
 1609SOL    HW1 5405   3.989   3.771   6.408  1.4383  0.1954 -1.3151
 1609SOL    HW2 5406   3.856   3.723   6.354  0.3925  1.4597  0.0509
 1610SOL     OW 5407   1.806   9.055   4.290 -0.1716  0.2252  0.2827
 1610SOL    HW1 5408   1.786   8.997   4.217  1.7987  0.9547 -0.9186
 1610SOL    HW2 5409   1.722   9.068   4.334 -1.9217  1.3615 -3.0531
 1611SOL     OW 5410   5.191   9.883   9.880 -0.2193  0.1361  0.6854
 1611SOL    HW1 5411   5.244   9.867   9.801  0.1790 -0.4493  1.0657
 1611SOL    HW2 5412   5.105   9.909   9.846 -0.6313 -1.9360  0.0237
 1612SOL     OW 5413   9.079   1.284   0.018  0.1146  0.2067  0.0839
 1612SOL    HW1 5414   8.985   1.299   0.011  0.1015 -0.1894 -0.7787
 1612SOL    HW2 5415   9.104   1.323   0.102 -0.7157  0.8079  0.0619
 1613SOL     OW 5416   5.432   5.676   5.785  0.4251  0.5632  0.2599
 1613SOL    HW1 5417   5.370   5.618   5.741  0.6426  0.4554  0.0958
 1613SOL    HW2 5418   5.453   5.743   5.720  2.4179 -0.7991 -0.5957
 1614SOL     OW 5419   4.438   9.579   5.335 -0.1754 -0.2610 -0.6640
 1614SOL    HW1 5420   4.394   9.495   5.319 -0.1438 -0.3012 -0.5355
 1614SOL    HW2 5421   4.395   9.640   5.275  0.1685 -0.4860 -1.1423
 1615SOL     OW 5422   4.038   0.128   2.680 -0.3816 -0.5263 -0.3801
 1615SOL    HW1 5423   4.098   0.055   2.698 -0.1630  0.0950  1.6643
 1615SOL    HW2 5424   4.054   0.149   2.588  1.2213 -1.5623 -0.3946
 1616SOL     OW 5425   8.420   2.975   9.874 -0.0470 -0.0074  0.0138
 1616SOL    HW1 5426   8.412   3.002   9.965 -1.4086 -0.1471 -0.0386
 1616SOL    HW2 5427   8.483   2.904   9.875 -0.4003 -0.3231  0.9241
 1617SOL     OW 5428   5.141   1.976   0.379  0.1424  0.3695  0.2121
 1617SOL    HW1 5429   5.227   2.016   0.365 -0.0281  0.0486 -2.1751
 1617SOL    HW2 5430   5.085   2.049   0.406  0.9881  0.7002  1.1343
 1618SOL     OW 5431   9.386   0.211   6.861 -0.0212  0.2358 -0.0917
 1618SOL    HW1 5432   9.421   0.279   6.803  2.2682 -1.4154 -0.7902
 1618SOL    HW2 5433   9.400   0.246   6.949  2.8335  0.0618 -0.3562
 1619SOL     OW 5434   5.743   1.335   3.430 -0.3793 -0.5813  0.4242
 1619SOL    HW1 5435   5.717   1.281   3.356  2.7082 -1.9957  0.1827
 1619SOL    HW2 5436   5.839   1.325   3.434 -0.0247  2.3180  2.4095
 1620SOL     OW 5437   0.704   2.135   9.386 -0.2499  0.5130 -0.0859
 1620SOL    HW1 5438   0.732   2.129   9.477  0.5478 -0.5395 -0.3763
 1620SOL    HW2 5439   0.613   2.104   9.388  0.1473 -0.7194  0.2007
 1621SOL     OW 5440   5.426   9.257   2.847  0.3254  0.1691 -0.1979
 1621SOL    HW1 5441   5.357   9.256   2.913  0.9495 -0.8817  0.4687
 1621SOL    HW2 5442   5.483   9.329   2.873 -0.3328  0.8494 -0.5836
 1622SOL     OW 5443   9.353   0.779   1.600 -0.3858  0.3484 -0.1971
 1622SOL    HW1 5444   9.313   0.736   1.676  2.7095 -1.1410  0.7221
 1622SOL    HW2 5445   9.414   0.842   1.637 -1.2852  2.1002 -1.5489
 1623SOL     OW 5446   8.827   8.809   6.429 -0.1484 -0.6947  0.0710
 1623SOL    HW1 5447   8.782   8.733   6.466  1.3984 -0.7607  2.0164
 1623SOL    HW2 5448   8.761   8.853   6.376 -1.9351 -1.7693  1.2934
 1624SOL     OW 5449   0.323   8.478   8.116 -0.3261 -0.5207  0.5597
 1624SOL    HW1 5450   0.271   8.454   8.039 -0.0790 -0.0548  0.2421
 1624SOL    HW2 5451   0.372   8.556   8.089  0.9359 -1.2456  0.6763
 1625SOL     OW 5452   6.909   2.455   4.880  0.1678 -0.0293 -0.0791
 1625SOL    HW1 5453   6.919   2.401   4.802 -1.3181 -1.9571  0.9628
 1625SOL    HW2 5454   6.961   2.533   4.863  0.6280 -0.8119 -2.5818
 1626SOL     OW 5455   2.202   2.982   5.078 -0.5121 -0.3403 -0.4173
 1626SOL    HW1 5456   2.270   3.051   5.078 -0.4953 -0.3508 -0.0401
 1626SOL    HW2 5457   2.120   3.030   5.067 -0.6851 -0.0339  1.7359
 1627SOL     OW 5458   7.894   6.965   2.770 -0.5506 -0.1324  0.8762
 1627SOL    HW1 5459   7.972   6.990   2.818 -0.1726  0.0494  0.1668
 1627SOL    HW2 5460   7.887   6.870   2.783  0.1671 -0.2562  0.3898
 1628SOL     OW 5461   0.603   9.572   8.237 -0.0541 -0.3248  0.1503
 1628SOL    HW1 5462   0.540   9.643   8.253  0.9115  0.8034 -0.8128
 1628SOL    HW2 5463   0.564   9.520   8.168 -0.4675 -0.3438  0.3939
 1629SOL     OW 5464   0.403   4.993   9.165 -0.1502 -0.2960 -0.2693
 1629SOL    HW1 5465   0.328   4.948   9.126  0.3587 -0.3503 -1.2117
 1629SOL    HW2 5466   0.459   4.922   9.196 -0.8976 -0.2512  1.2938
 1630SOL     OW 5467   6.650   0.769   8.206  0.0668 -0.2283 -0.5462
 1630SOL    HW1 5468   6.667   0.714   8.283  1.2980  0.1543 -0.5244
 1630SOL    HW2 5469   6.573   0.730   8.165  0.3308 -1.3708  0.0137
 1631SOL     OW 5470   4.051   8.928   7.403 -0.1848 -0.4509  0.2514
 1631SOL    HW1 5471   4.075   8.906   7.493 -1.2769 -1.7828  0.2442
 1631SOL    HW2 5472   4.020   8.846   7.365 -1.1007  0.3870 -0.8908
 1632SOL     OW 5473   9.309   2.621   0.369  0.6142  0.3767  0.1305
 1632SOL    HW1 5474   9.361   2.689   0.412 -0.5945  2.1381 -1.1047
 1632SOL    HW2 5475   9.286   2.657   0.284 -1.1116 -1.0783 -0.0919
 1633SOL     OW 5476   9.421   5.192   6.523  0.6396  0.2143 -0.7252
 1633SOL    HW1 5477   9.447   5.270   6.474  1.4506  0.3506 -0.1043
 1633SOL    HW2 5478   9.375   5.138   6.459 -2.9229  2.5651 -0.4363
 1634SOL     OW 5479   9.703   4.171   2.649 -0.2472  0.2030  0.0443
 1634SOL    HW1 5480   9.672   4.189   2.560  0.8349  0.4220 -0.3032
 1634SOL    HW2 5481   9.685   4.078   2.663 -1.1175  0.3347 -0.0985
 1635SOL     OW 5482   6.061   7.754   7.087  0.2730  0.1032 -0.1762
 1635SOL    HW1 5483   6.116   7.676   7.094 -2.5968 -2.0672  0.4602
 1635SOL    HW2 5484   6.085   7.793   7.004  2.0320 -1.2945 -0.3927
 1636SOL     OW 5485   5.482   9.085   2.483 -0.0235 -0.4699 -0.3021
 1636SOL    HW1 5486   5.496   9.060   2.574 -1.0185  0.0384  0.0083
 1636SOL    HW2 5487   5.389   9.106   2.478  0.5433  2.4676 -0.6596
 1637SOL     OW 5488   2.248   2.199   6.474 -0.3988  0.2437  0.0374
 1637SOL    HW1 5489   2.186   2.145   6.425 -0.8102  1.0366 -0.3276
 1637SOL    HW2 5490   2.311   2.136   6.510 -1.7677 -0.6419  0.9788
 1638SOL     OW 5491   1.591   7.047   8.756  0.1017  0.2341  0.6956
 1638SOL    HW1 5492   1.675   7.001   8.765 -0.6167 -1.0830  1.0029
 1638SOL    HW2 5493   1.607   7.133   8.793  1.7281  0.5518 -0.6164
 1639SOL     OW 5494   0.149   9.882   4.282 -0.4799  0.3092 -0.0508
 1639SOL    HW1 5495   0.125   9.975   4.283 -1.1240  0.1529  1.2657
 1639SOL    HW2 5496   0.238   9.880   4.317 -0.4156  0.4383 -0.2056
 1640SOL     OW 5497   3.770   8.153   9.006 -0.6523  0.3125 -0.5017
 1640SOL    HW1 5498   3.775   8.223   8.941  0.5981  0.1687 -0.5912
 1640SOL    HW2 5499   3.771   8.073   8.955 -1.6720  0.2108 -0.3802
 1641SOL     OW 5500   4.004   5.989   3.907 -0.2412  0.3107 -0.4515
 1641SOL    HW1 5501   3.979   6.050   3.977 -1.1110 -0.2965 -0.2003
 1641SOL    HW2 5502   3.941   5.917   3.916 -1.0284  0.6838 -2.5122
 1642SOL     OW 5503   0.691   8.481   7.874 -0.5640 -0.0836 -0.5088
 1642SOL    HW1 5504   0.695   8.568   7.835  2.2990 -0.1939 -0.6248
 1642SOL    HW2 5505   0.740   8.489   7.956  0.1839 -1.7107 -0.7790
 1643SOL     OW 5506   2.118   9.803   7.050  0.1263 -0.2851  0.5836
 1643SOL    HW1 5507   2.085   9.852   6.974  0.0404  0.1215  0.8803
 1643SOL    HW2 5508   2.181   9.741   7.012 -0.4267 -0.5584  0.1038
 1644SOL     OW 5509   6.113   8.976   9.383  0.1261 -0.1040 -0.2926
 1644SOL    HW1 5510   6.107   9.066   9.415 -0.4858 -1.0569  2.5211
 1644SOL    HW2 5511   6.188   8.977   9.324  2.3338  1.5479  2.3270
 1645SOL     OW 5512   8.147   1.386   3.530  0.6126 -0.3831  0.5701
 1645SOL    HW1 5513   8.173   1.299   3.560  1.8585 -0.8003 -1.4992
 1645SOL    HW2 5514   8.203   1.402   3.454  0.0266  2.0070  0.5746
 1646SOL     OW 5515   7.142   2.866   5.067  0.5065 -0.0815  0.3040
 1646SOL    HW1 5516   7.169   2.915   4.989 -0.5192  1.3405  0.7974
 1646SOL    HW2 5517   7.222   2.827   5.100  1.0840 -0.1004 -1.0527
 1647SOL     OW 5518   8.209   1.036   5.215 -0.3974 -0.5300  0.2557
 1647SOL    HW1 5519   8.191   0.993   5.299 -2.1674 -1.0021 -0.3205
 1647SOL    HW2 5520   8.172   1.123   5.224  0.8143 -0.0233  0.4891
 1648SOL     OW 5521   4.627   6.909   5.359 -0.3332 -0.1368  0.0246
 1648SOL    HW1 5522   4.678   6.830   5.379 -1.9651 -1.4339 -0.6998
 1648SOL    HW2 5523   4.546   6.899   5.409 -0.4734  1.2163  0.1077
 1649SOL     OW 5524   3.079   3.042   4.414 -0.1086 -0.3839 -0.6580
 1649SOL    HW1 5525   3.029   3.026   4.335 -0.2107  0.3252 -0.7444
 1649SOL    HW2 5526   3.151   2.979   4.411 -2.0129 -2.7827  0.4225
 1650SOL     OW 5527   3.995   0.163   8.781 -0.2191 -0.0936  0.2729
 1650SOL    HW1 5528   4.024   0.143   8.871 -0.2910  0.5986  0.4582
 1650SOL    HW2 5529   4.076   0.180   8.733 -0.2555  2.0262  0.8349
 1651SOL     OW 5530   8.083   2.371   5.827 -0.1551  0.4338 -0.1362
 1651SOL    HW1 5531   8.088   2.467   5.825  0.4158  0.4327 -2.9992
 1651SOL    HW2 5532   7.995   2.351   5.794  0.2258 -0.0037 -0.9225
 1652SOL     OW 5533   9.733   2.087   5.433 -0.1109  0.2298 -0.4327
 1652SOL    HW1 5534   9.808   2.065   5.488 -0.1435 -0.9002 -0.8099
 1652SOL    HW2 5535   9.771   2.100   5.346 -0.2301  0.6362 -0.4241
 1653SOL     OW 5536   5.645   4.266   7.394  0.4172  0.3464 -0.1611
 1653SOL    HW1 5537   5.651   4.214   7.474  0.3206  1.0996  0.3339
 1653SOL    HW2 5538   5.588   4.214   7.337  0.1305  0.0155  0.4160
 1654SOL     OW 5539   5.502   2.710   8.035 -0.2787 -0.3327 -0.3043
 1654SOL    HW1 5540   5.533   2.625   8.003 -1.2307 -0.3855 -1.1286
 1654SOL    HW2 5541   5.414   2.693   8.067 -0.1411  0.1765  0.3692
 1655SOL     OW 5542   2.014   4.971   4.144 -0.4408 -0.3635 -0.5722
 1655SOL    HW1 5543   1.972   5.052   4.172 -0.8225 -0.5541 -0.5914
 1655SOL    HW2 5544   1.989   4.961   4.052 -0.1460 -0.3473 -0.6555
 1656SOL     OW 5545   7.355   1.960   4.231  0.2557  0.1235  0.0348
 1656SOL    HW1 5546   7.305   1.991   4.155 -0.4428  1.0631  0.8581
 1656SOL    HW2 5547   7.437   2.009   4.228 -0.3451  1.1833  0.6527
 1657SOL     OW 5548   5.613   0.062   1.289 -0.0438 -0.7589  0.8437
 1657SOL    HW1 5549   5.598   0.035   1.199  0.3916 -1.0048  0.8427
 1657SOL    HW2 5550   5.525   0.067   1.328 -0.1262 -2.5950  0.9669
 1658SOL     OW 5551   8.760   8.280   0.487 -0.1142 -0.1765 -0.2149
 1658SOL    HW1 5552   8.679   8.262   0.534 -0.2710  1.1258  0.0384
 1658SOL    HW2 5553   8.770   8.205   0.427 -0.4784 -1.3179  1.0881
 1659SOL     OW 5554   3.670   8.489   1.279  0.2735 -0.1194  0.1627
 1659SOL    HW1 5555   3.590   8.450   1.245  1.2927 -1.6733 -0.6036
 1659SOL    HW2 5556   3.658   8.489   1.374 -0.2590 -1.2349  0.1090
 1660SOL     OW 5557   7.441   1.806   7.999 -0.6584  0.3146 -0.3773
 1660SOL    HW1 5558   7.514   1.766   8.046  0.7457  0.1403 -2.5903
 1660SOL    HW2 5559   7.420   1.884   8.050 -2.2216 -2.0624  3.0033
 1661SOL     OW 5560   9.768   4.923   3.660  0.1991  0.3829  0.2669
 1661SOL    HW1 5561   9.749   4.926   3.754  3.5998  1.7000  1.0429
 1661SOL    HW2 5562   9.713   4.852   3.627 -2.1090  0.7409  2.9475
 1662SOL     OW 5563   1.205   7.183   6.427  0.2680  0.6160  0.0443
 1662SOL    HW1 5564   1.233   7.093   6.444 -0.5827  0.0050 -1.5074
 1662SOL    HW2 5565   1.136   7.200   6.491 -1.2110 -0.7430 -1.0966
 1663SOL     OW 5566   1.437   1.296   8.517 -0.2917  0.2305  0.0388
 1663SOL    HW1 5567   1.482   1.212   8.516 -0.8729 -0.0860 -1.0376
 1663SOL    HW2 5568   1.496   1.355   8.564  1.4241 -0.0749 -1.6522
 1664SOL     OW 5569   6.364   0.547   9.191  0.0098  0.2884 -0.0855
 1664SOL    HW1 5570   6.336   0.488   9.121 -0.7546  0.2315  0.2590
 1664SOL    HW2 5571   6.312   0.520   9.267 -1.2180  2.1586 -0.2206
 1665SOL     OW 5572   4.554   9.481   9.133  0.1008  0.2948  0.3343
 1665SOL    HW1 5573   4.491   9.553   9.127 -0.2786 -0.1366 -1.8321
 1665SOL    HW2 5574   4.501   9.402   9.122  0.9739 -0.0754 -1.6445
 1666SOL     OW 5575   0.077   2.324   4.107 -0.2249  0.2700 -0.4128
 1666SOL    HW1 5576   0.166   2.343   4.137 -0.3169 -2.3249  1.7803
 1666SOL    HW2 5577   0.038   2.411   4.094  1.7811  1.4925  1.1080
 1667SOL     OW 5578   9.837   5.527   6.253 -0.3461  0.1323  0.6269
 1667SOL    HW1 5579   9.835   5.490   6.341 -0.5946 -2.6214 -0.4280
 1667SOL    HW2 5580   9.776   5.473   6.203  0.6979  0.7949 -1.5069
 1668SOL     OW 5581   7.028   4.688   8.827  0.4408 -0.4833 -0.4385
 1668SOL    HW1 5582   6.979   4.607   8.810 -1.9868  0.7967  0.0387
 1668SOL    HW2 5583   7.032   4.732   8.742 -0.3467 -0.0343 -0.2533
 1669SOL     OW 5584   9.860   6.891   0.190  0.0156 -0.7732 -0.9125
 1669SOL    HW1 5585   9.794   6.899   0.121  0.2385  0.5606 -1.0012
 1669SOL    HW2 5586   9.822   6.830   0.253 -1.2050 -0.1960 -1.0664
 1670SOL     OW 5587   3.340   5.222   4.910  0.0718  0.1811  0.2035
 1670SOL    HW1 5588   3.290   5.272   4.976  0.1675  0.7659 -0.1552
 1670SOL    HW2 5589   3.408   5.283   4.881  1.5223 -0.8788  1.2734
 1671SOL     OW 5590   5.710   8.355   8.033  0.3779 -0.4656 -0.3071
 1671SOL    HW1 5591   5.640   8.360   7.968  2.0314  3.8969 -2.1160
 1671SOL    HW2 5592   5.666   8.375   8.116 -0.6373  3.0746 -1.4989
 1672SOL     OW 5593   2.377   6.063   7.453  0.0532 -0.2441 -0.3901
 1672SOL    HW1 5594   2.368   5.989   7.392 -1.5881 -1.2600  1.0003
 1672SOL    HW2 5595   2.348   6.139   7.402  0.7799 -0.7050 -1.5320
 1673SOL     OW 5596   5.453   2.652   3.206  0.4648  0.1545 -0.0927
 1673SOL    HW1 5597   5.495   2.631   3.289  0.6978 -1.7259 -0.6502
 1673SOL    HW2 5598   5.361   2.628   3.218  0.3305  0.6250 -0.1368
 1674SOL     OW 5599   1.971   3.797   1.814 -0.0241  0.1106  0.2600
 1674SOL    HW1 5600   2.061   3.764   1.819  0.3529  0.6979 -1.7828
 1674SOL    HW2 5601   1.977   3.887   1.847  0.4693  0.6596 -1.2537
 1675SOL     OW 5602   0.140   0.228   9.647 -0.2328 -0.3126  0.2138
 1675SOL    HW1 5603   0.181   0.173   9.714 -0.4271  1.2161  1.6431
 1675SOL    HW2 5604   0.046   0.211   9.657 -0.2829  0.1664  0.5577
 1676SOL     OW 5605   7.451   1.149   5.190  0.2934  0.1426 -0.2583
 1676SOL    HW1 5606   7.524   1.107   5.236 -0.1106 -0.1994  0.0864
 1676SOL    HW2 5607   7.452   1.240   5.220  0.9594  0.3016 -0.7393
 1677SOL     OW 5608   0.036   8.527   5.521 -0.0217  0.4593  0.3458
 1677SOL    HW1 5609   0.069   8.438   5.534  0.8583  0.4914 -1.3283
 1677SOL    HW2 5610   0.041   8.540   5.426 -0.9367  1.9982  0.4807
 1678SOL     OW 5611   0.978   9.229   4.021  0.0157 -0.3445  0.2668
 1678SOL    HW1 5612   1.025   9.159   4.068 -0.8047 -1.5806 -0.7038
 1678SOL    HW2 5613   0.999   9.214   3.929 -0.2109  0.6808  0.0431
 1679SOL     OW 5614   7.691   0.902   2.240  0.6516  0.0227  0.0423
 1679SOL    HW1 5615   7.728   0.916   2.153 -0.3342  0.2138 -0.3531
 1679SOL    HW2 5616   7.765   0.918   2.299  1.3804 -0.2835 -0.7532
 1680SOL     OW 5617   3.054   9.663   9.096  0.1814 -0.2251  0.2360
 1680SOL    HW1 5618   3.116   9.717   9.145 -1.4269  1.6572  0.2758
 1680SOL    HW2 5619   3.017   9.604   9.162 -2.1280  2.4368  1.4840
 1681SOL     OW 5620   8.662   3.729   2.405  0.5134  0.1127 -0.1623
 1681SOL    HW1 5621   8.607   3.655   2.431  1.2388 -0.5025 -0.3481
 1681SOL    HW2 5622   8.718   3.745   2.481  0.4548  0.3850 -0.1752
 1682SOL     OW 5623   9.882   8.267   7.792  0.1223  0.4149  0.5505
 1682SOL    HW1 5624   9.881   8.343   7.735 -1.5882 -1.0686 -1.5563
 1682SOL    HW2 5625   9.802   8.275   7.844 -0.4091 -0.2154 -0.1404
 1683SOL     OW 5626   9.660   0.071   7.895 -0.2320 -0.2125 -0.1956
 1683SOL    HW1 5627   9.723   0.138   7.866  0.3053 -0.2403  0.8707
 1683SOL    HW2 5628   9.697   0.037   7.976 -1.1950 -0.8583 -0.0145
 1684SOL     OW 5629   9.144   0.587   5.982 -0.7302 -0.3318 -0.1852
 1684SOL    HW1 5630   9.137   0.614   5.890 -2.0904  0.2208  0.0521
 1684SOL    HW2 5631   9.094   0.654   6.030  1.4041  0.3819  1.1686
 1685SOL     OW 5632   4.735   9.531   7.134 -0.4192  0.0270 -0.0811
 1685SOL    HW1 5633   4.813   9.581   7.158 -1.4345  1.3379  0.6000
 1685SOL    HW2 5634   4.701   9.498   7.218 -0.3044 -1.0215 -0.4299
 1686SOL     OW 5635   9.234   8.360   0.493  0.6570 -0.0267 -0.3880
 1686SOL    HW1 5636   9.246   8.450   0.463  0.9266  0.2984  0.6380
 1686SOL    HW2 5637   9.140   8.351   0.508  0.8515  0.8172  1.6149
 1687SOL     OW 5638   9.080   3.573   9.101  0.1013  0.6488  0.2194
 1687SOL    HW1 5639   8.997   3.552   9.058  0.2538  1.1978 -0.3558
 1687SOL    HW2 5640   9.058   3.642   9.164  0.1912  1.1021 -0.2383
 1688SOL     OW 5641   6.894   3.104   6.965  0.2211 -0.5317 -0.0673
 1688SOL    HW1 5642   6.962   3.117   6.899  1.1238 -0.0213  0.9416
 1688SOL    HW2 5643   6.942   3.090   7.047 -0.8770 -1.1518  0.4943
 1689SOL     OW 5644   2.247   4.716   2.272 -0.3787  0.0754  0.5006
 1689SOL    HW1 5645   2.338   4.688   2.282 -0.6835 -0.7782  0.9132
 1689SOL    HW2 5646   2.216   4.670   2.194 -1.2802 -1.8412  1.9301
 1690SOL     OW 5647   4.760   0.040   0.796  0.6802 -0.8991 -0.5282
 1690SOL    HW1 5648   4.735   0.017   0.706 -0.3430 -1.7360 -0.0494
 1690SOL    HW2 5649   4.757  -0.043   0.844 -0.6124 -0.2147  0.6755
 1691SOL     OW 5650   8.111   0.239   8.395 -0.4611  0.2407  0.4125
 1691SOL    HW1 5651   8.178   0.239   8.327 -2.2301 -1.3967 -1.5101
 1691SOL    HW2 5652   8.130   0.161   8.448  0.0839  0.7028  0.9028
 1692SOL     OW 5653   3.343   9.451   1.381  0.5519  0.1386  0.0322
 1692SOL    HW1 5654   3.347   9.406   1.297 -0.1485 -0.5210  0.3317
 1692SOL    HW2 5655   3.255   9.432   1.414  1.1088 -0.3478  1.2951
 1693SOL     OW 5656   6.067   7.600   4.554  0.4680 -0.0439  0.2498
 1693SOL    HW1 5657   6.108   7.547   4.485  1.2907  0.0687  0.6437
 1693SOL    HW2 5658   6.062   7.540   4.629  1.9959  0.5964  0.9023
 1694SOL     OW 5659   5.100   8.161   2.541  0.3582 -0.7852  0.4512
 1694SOL    HW1 5660   5.059   8.130   2.460 -0.3000  0.2242  0.3804
 1694SOL    HW2 5661   5.030   8.207   2.587  1.3518  0.8572  0.3854
 1695SOL     OW 5662   8.941   5.481   1.959  0.2386  0.3177 -0.2107
 1695SOL    HW1 5663   8.982   5.540   2.021 -0.4076  3.3033 -2.3924
 1695SOL    HW2 5664   8.848   5.487   1.977  0.2094 -0.8221  0.1203
 1696SOL     OW 5665   1.532   6.035   8.543  0.4618 -0.1523 -0.2745
 1696SOL    HW1 5666   1.442   6.062   8.524 -0.5449 -2.5738  0.7442
 1696SOL    HW2 5667   1.578   6.048   8.460 -0.5607  1.8935 -0.6025
 1697SOL     OW 5668   6.103   0.378   4.110  0.8629  0.0656 -0.8012
 1697SOL    HW1 5669   6.181   0.325   4.095  0.8029 -0.0899 -0.5756
 1697SOL    HW2 5670   6.100   0.439   4.037  0.5265 -0.7241 -1.4606
 1698SOL     OW 5671   4.590   0.775   7.864  0.6434 -0.4958 -0.1853
 1698SOL    HW1 5672   4.604   0.811   7.777 -1.4823  0.2737 -0.2437
 1698SOL    HW2 5673   4.529   0.702   7.851  0.2065 -0.2985  0.6541
 1699SOL     OW 5674   6.525   3.045   1.045  1.0329 -0.0957 -0.2752
 1699SOL    HW1 5675   6.512   3.104   1.119  2.4083 -0.0916 -0.0011
 1699SOL    HW2 5676   6.476   3.084   0.973 -0.0127  0.1033  0.5240
 1700SOL     OW 5677   6.364   6.744   6.230  0.1940  0.1384  0.0659
 1700SOL    HW1 5678   6.382   6.759   6.323  1.4249 -0.5463 -0.0283
 1700SOL    HW2 5679   6.367   6.831   6.191 -1.3040  0.5428  0.8023
 1701SOL     OW 5680   5.212   1.883   1.712 -0.2320  0.1429 -0.1435
 1701SOL    HW1 5681   5.276   1.927   1.768 -0.8810  0.4529  0.3678
 1701SOL    HW2 5682   5.131   1.884   1.762 -0.2080 -1.9626  0.0378
 1702SOL     OW 5683   2.294   6.207   6.901 -0.4118 -0.3918 -0.0314
 1702SOL    HW1 5684   2.300   6.252   6.817 -1.3974  0.2050  0.2012
 1702SOL    HW2 5685   2.208   6.164   6.899 -0.6633  0.0471  0.8695
 1703SOL     OW 5686   7.146   3.327   5.154 -0.2608 -0.0093  0.2327
 1703SOL    HW1 5687   7.106   3.410   5.129 -0.9184 -0.5802 -0.6776
 1703SOL    HW2 5688   7.079   3.283   5.207  0.0066 -0.0607  0.5370
 1704SOL     OW 5689   3.440   3.420   9.745 -0.1997  0.0044  0.0120
 1704SOL    HW1 5690   3.496   3.486   9.705 -0.8774 -0.2882 -1.5049
 1704SOL    HW2 5691   3.368   3.470   9.783 -1.1478  0.1529 -1.8567
 1705SOL     OW 5692   6.321   1.297   3.079 -0.7635  0.3564  0.1390
 1705SOL    HW1 5693   6.258   1.367   3.099 -0.5134  0.5991  0.0816
 1705SOL    HW2 5694   6.397   1.343   3.043 -0.2903  0.1294  0.8231
 1706SOL     OW 5695   6.934   0.093   7.395 -0.5915 -0.1477 -0.0933
 1706SOL    HW1 5696   6.990   0.100   7.319  2.0195 -1.0902  1.6024
 1706SOL    HW2 5697   6.891   0.008   7.386  1.3672 -1.2534  0.4359
 1707SOL     OW 5698   1.194   7.295   2.007 -0.1389 -0.6058  0.1369
 1707SOL    HW1 5699   1.252   7.367   1.982  1.2180 -1.4639  0.7513
 1707SOL    HW2 5700   1.110   7.317   1.965  0.2810  1.2400  0.1891
 1708SOL     OW 5701   5.224   5.744   5.330  0.1095 -0.5935 -0.4968
 1708SOL    HW1 5702   5.212   5.839   5.337  0.8967 -0.4775 -0.6142
 1708SOL    HW2 5703   5.317   5.731   5.344 -0.3494 -1.6160  2.1177
 1709SOL     OW 5704   0.024   3.074   6.215 -0.5911 -0.7240 -0.1443
 1709SOL    HW1 5705   0.107   3.063   6.168 -0.5574 -0.2827 -0.1916
 1709SOL    HW2 5706  -0.007   2.985   6.229 -0.5116 -0.8698 -0.8441
 1710SOL     OW 5707   1.948   9.555   6.826 -0.4135  0.1967  0.0297
 1710SOL    HW1 5708   1.993   9.618   6.769 -2.0603  0.3911 -1.1388
 1710SOL    HW2 5709   1.855   9.572   6.812 -0.9065 -0.1220  2.4238
 1711SOL     OW 5710   9.741   5.040   5.935 -0.0092  0.1328 -0.3743
 1711SOL    HW1 5711   9.684   4.972   5.899  0.7610 -1.8331  1.8702
 1711SOL    HW2 5712   9.788   5.075   5.859 -2.2928  0.0491 -1.9295
 1712SOL     OW 5713   6.957   3.718   1.919  0.1522  0.0040  0.0399
 1712SOL    HW1 5714   6.880   3.774   1.922  0.9150  1.1909 -1.2352
 1712SOL    HW2 5715   6.927   3.637   1.876 -0.3923  0.4585 -0.4448
 1713SOL     OW 5716   6.450   7.914   5.917  0.3704  0.2872 -0.6335
 1713SOL    HW1 5717   6.511   7.876   5.980 -1.0691 -1.0718 -0.0079
 1713SOL    HW2 5718   6.423   7.997   5.956  0.9571  0.3750 -0.4032
 1714SOL     OW 5719   8.036   2.042   4.819 -0.2586 -0.4477 -0.4575
 1714SOL    HW1 5720   7.986   2.015   4.742  0.4733 -1.4406 -0.5883
 1714SOL    HW2 5721   8.128   2.029   4.795 -0.0241 -0.8982  0.6324
 1715SOL     OW 5722   9.811   6.062   0.584  0.1782  0.3201  0.4229
 1715SOL    HW1 5723   9.748   6.069   0.512  1.0473  1.4370 -0.2539
 1715SOL    HW2 5724   9.769   6.107   0.657  0.7373  2.3013 -0.4323
 1716SOL     OW 5725   1.304   2.081   6.097 -0.1778 -0.3954  0.4806
 1716SOL    HW1 5726   1.302   2.126   6.182  0.2484 -1.5949  1.1432
 1716SOL    HW2 5727   1.213   2.084   6.066 -0.1324  1.0700  0.4040
 1717SOL     OW 5728   7.339   8.003   0.289  0.7897 -0.1550  0.5535
 1717SOL    HW1 5729   7.261   7.947   0.288  2.3380 -2.4515  1.2331
 1717SOL    HW2 5730   7.334   8.054   0.208 -1.3648 -0.2566  0.5683
 1718SOL     OW 5731   3.321   5.762   3.968 -0.4575  0.6543  0.5283
 1718SOL    HW1 5732   3.334   5.856   3.959  3.4473  0.0344 -4.0520
 1718SOL    HW2 5733   3.265   5.738   3.894  0.1061 -0.7782  0.5332
 1719SOL     OW 5734   5.138   3.751   2.717 -0.6545 -0.1201  0.0559
 1719SOL    HW1 5735   5.052   3.786   2.740  0.0349  1.1130  0.8902
 1719SOL    HW2 5736   5.154   3.785   2.629  0.6093  3.1229  1.3561
 1720SOL     OW 5737   7.626   1.481   2.739  0.0600 -0.1933  0.0584
 1720SOL    HW1 5738   7.680   1.540   2.791 -0.7926 -0.4741  1.3024
 1720SOL    HW2 5739   7.679   1.401   2.732  1.2468  0.6876 -1.6978
 1721SOL     OW 5740   3.332   0.328   6.630  0.3294  0.2209 -0.4091
 1721SOL    HW1 5741   3.383   0.302   6.553  2.1821 -1.4356  1.2652
 1721SOL    HW2 5742   3.386   0.396   6.672  0.9635 -1.1737  1.1012
 1722SOL     OW 5743   4.673   7.636   1.099  0.3021  0.1902  0.4051
 1722SOL    HW1 5744   4.606   7.596   1.044  1.0362  0.0425 -0.4065
 1722SOL    HW2 5745   4.632   7.715   1.133 -0.1420  0.3307 -0.4285
 1723SOL     OW 5746   1.870   1.516   2.729 -0.1651  0.2962 -0.2775
 1723SOL    HW1 5747   1.893   1.547   2.641 -0.4685  1.5963  0.0837
 1723SOL    HW2 5748   1.780   1.485   2.720  0.1693 -0.5989 -0.6611
 1724SOL     OW 5749   9.414   6.207   6.660 -0.0973 -0.0276  0.0284
 1724SOL    HW1 5750   9.330   6.243   6.632 -0.6651 -0.7761  0.6847
 1724SOL    HW2 5751   9.457   6.279   6.706 -0.4711  0.3109 -0.1476
 1725SOL     OW 5752   2.407   9.614   6.312 -0.0179  0.0317 -0.0384
 1725SOL    HW1 5753   2.425   9.536   6.364 -1.1610 -0.2965 -0.1011
 1725SOL    HW2 5754   2.459   9.602   6.232  0.0914 -0.4970  0.1075
 1726SOL     OW 5755   6.996   2.268   7.900  0.2931 -0.1678  0.8533
 1726SOL    HW1 5756   7.067   2.330   7.879 -0.4645  0.7574  0.9545
 1726SOL    HW2 5757   7.034   2.182   7.883  1.4011  0.3135  0.7722
 1727SOL     OW 5758   2.469   9.570   6.942  0.3325 -0.3457  0.3184
 1727SOL    HW1 5759   2.445   9.662   6.956 -2.3326 -0.5605 -1.9308
 1727SOL    HW2 5760   2.386   9.527   6.922  1.7511 -2.9123 -0.4183
 1728SOL     OW 5761   4.090   6.364   0.225 -0.2384 -0.2529 -0.0053
 1728SOL    HW1 5762   4.129   6.333   0.143  1.2934 -2.2608  1.3819
 1728SOL    HW2 5763   4.159   6.416   0.266 -0.7818  0.2481  0.2843
 1729SOL     OW 5764   1.586   3.592   1.703  0.1607  0.5541 -0.0854
 1729SOL    HW1 5765   1.641   3.651   1.755  2.5117  0.0673 -1.8468
 1729SOL    HW2 5766   1.648   3.537   1.656 -1.9195 -2.4585  0.4021
 1730SOL     OW 5767   4.564   8.059   2.309 -0.3147  0.2333  0.0216
 1730SOL    HW1 5768   4.552   8.100   2.224 -0.4550 -0.3858 -0.2696
 1730SOL    HW2 5769   4.574   7.966   2.289  0.0719  0.1315  0.6513
 1731SOL     OW 5770   5.075   9.468   2.228  0.1942  0.5509 -0.0531
 1731SOL    HW1 5771   5.028   9.511   2.157 -0.5652 -0.3419 -0.1223
 1731SOL    HW2 5772   5.040   9.510   2.307  0.5869  1.1162 -0.1732
 1732SOL     OW 5773   7.554   6.407   3.316 -0.5640 -0.3124 -0.2799
 1732SOL    HW1 5774   7.639   6.415   3.272  0.6597 -0.3903  1.9165
 1732SOL    HW2 5775   7.507   6.487   3.293  2.1878  2.3680  2.4986
 1733SOL     OW 5776   3.462   5.497   6.417 -0.4547  0.4231  0.2048
 1733SOL    HW1 5777   3.550   5.484   6.452 -0.1435 -0.1597 -0.7317
 1733SOL    HW2 5778   3.447   5.419   6.363 -2.2304 -0.3333  1.6901
 1734SOL     OW 5779   6.721   5.768   1.259 -0.0965 -0.4236  1.0049
 1734SOL    HW1 5780   6.791   5.727   1.209 -0.5659  1.7235 -1.6429
 1734SOL    HW2 5781   6.736   5.740   1.349  3.0614 -1.4726  0.2690
 1735SOL     OW 5782   4.345   7.421   0.001 -0.2294 -0.4526 -0.3328
 1735SOL    HW1 5783   4.323   7.501  -0.046 -0.2173  1.4711  2.6422
 1735SOL    HW2 5784   4.298   7.429   0.085  2.1165 -2.1083  1.2576
 1736SOL     OW 5785   6.971   3.005   9.488  0.2051 -0.5327 -0.3669
 1736SOL    HW1 5786   7.017   2.939   9.541  0.7306 -0.5589 -0.8454
 1736SOL    HW2 5787   6.897   3.031   9.542  1.9563  1.1010  1.4263
 1737SOL     OW 5788   0.666   9.839   9.917 -0.2901  0.2944  0.2143
 1737SOL    HW1 5789   0.671   9.743   9.913 -1.6948  0.1016  1.8064
 1737SOL    HW2 5790   0.748   9.866   9.959 -0.2859 -0.3123  0.6173
 1738SOL     OW 5791   8.372   1.026   6.004  0.3006 -0.0395 -0.3496
 1738SOL    HW1 5792   8.307   0.975   6.053  0.6403 -2.3527 -2.1189
 1738SOL    HW2 5793   8.449   1.027   6.061 -0.3659  0.3034  0.5784
 1739SOL     OW 5794   2.796   6.611   7.318  0.3733 -0.7126 -0.1546
 1739SOL    HW1 5795   2.803   6.534   7.260  3.1133 -0.1084 -0.7870
 1739SOL    HW2 5796   2.810   6.575   7.406  1.8799 -0.9926 -0.4649
 1740SOL     OW 5797   0.300   6.553   9.245 -0.3145  0.5261 -0.3395
 1740SOL    HW1 5798   0.389   6.551   9.282 -0.3034  0.7663 -0.3473
 1740SOL    HW2 5799   0.311   6.523   9.155 -0.5632 -1.4922  0.2650
 1741SOL     OW 5800   1.025   0.988   3.976 -0.8203  0.5710  0.3561
 1741SOL    HW1 5801   1.054   0.916   3.920 -0.7022  2.0410 -1.5764
 1741SOL    HW2 5802   0.945   0.957   4.016 -1.7156 -0.0655 -1.7866
 1742SOL     OW 5803   0.335   4.250   2.713 -0.2412 -0.1998 -0.1896
 1742SOL    HW1 5804   0.302   4.225   2.626 -2.1172  2.3982 -0.3437
 1742SOL    HW2 5805   0.267   4.308   2.748  1.7204  0.9774  1.9018
 1743SOL     OW 5806   7.572   3.105   6.565  0.1174  0.2168 -0.1838
 1743SOL    HW1 5807   7.537   3.163   6.498  0.0750  0.0186 -0.3340
 1743SOL    HW2 5808   7.653   3.070   6.527  1.0459  1.4498  0.5511
 1744SOL     OW 5809   6.973   9.068   1.552 -0.6166  0.1507 -0.0440
 1744SOL    HW1 5810   7.028   9.054   1.629  2.6699  1.2709 -1.9937
 1744SOL    HW2 5811   6.943   9.158   1.559 -1.2429 -0.0955  0.4557
 1745SOL     OW 5812   5.431   6.269   1.423  0.1922  0.0721 -0.0470
 1745SOL    HW1 5813   5.501   6.211   1.456  1.4655  1.4564 -0.2201
 1745SOL    HW2 5814   5.381   6.292   1.501  0.4386 -0.2727  0.2169
 1746SOL     OW 5815   4.028   6.002   1.705 -0.5856 -0.1370 -0.0181
 1746SOL    HW1 5816   3.935   5.993   1.724 -0.6488 -0.8127 -0.6122
 1746SOL    HW2 5817   4.045   5.937   1.637  0.7614 -1.5024  1.5203
 1747SOL     OW 5818   1.157   2.310   8.701 -0.1008 -0.6598  0.0247
 1747SOL    HW1 5819   1.206   2.255   8.640  0.8837  0.1024  0.1037
 1747SOL    HW2 5820   1.080   2.338   8.652 -0.7425 -2.2922  0.0693
 1748SOL     OW 5821   6.964   4.290   0.032  0.2327 -0.2132 -0.1051
 1748SOL    HW1 5822   6.882   4.320  -0.007  1.1440  0.5016 -1.5438
 1748SOL    HW2 5823   6.939   4.259   0.119 -1.7761 -1.3605 -1.0329
 1749SOL     OW 5824   2.930   1.293   2.773 -0.3576 -0.6574 -0.0203
 1749SOL    HW1 5825   2.977   1.317   2.853  0.3669  1.1716 -0.9286
 1749SOL    HW2 5826   2.849   1.344   2.777 -0.5468 -0.9430 -0.2195
 1750SOL     OW 5827   2.974   9.813   2.585  0.1516  0.1479  0.5029
 1750SOL    HW1 5828   2.945   9.738   2.637 -0.7252 -0.4818 -0.8595
 1750SOL    HW2 5829   3.024   9.775   2.513 -0.0937  0.8893 -0.0658
 1751SOL     OW 5830   0.213   3.117   7.271 -0.3067 -0.4120 -0.1267
 1751SOL    HW1 5831   0.146   3.180   7.298  0.4519 -0.1375  1.1663
 1751SOL    HW2 5832   0.294   3.168   7.269  0.3956 -1.4187  1.3685
 1752SOL     OW 5833   8.141   5.720   6.777 -0.6471  0.1966 -0.0555
 1752SOL    HW1 5834   8.075   5.671   6.825  0.4974 -2.2866 -0.8498
 1752SOL    HW2 5835   8.221   5.710   6.830 -0.6900  2.6280  0.5780
 1753SOL     OW 5836   9.906   7.373   3.028 -0.6934  0.0643 -0.0731
 1753SOL    HW1 5837  10.001   7.384   3.040 -0.4711 -0.8227 -0.9733
 1753SOL    HW2 5838   9.876   7.459   2.999 -0.2528  0.4899  0.6838
 1754SOL     OW 5839   5.913   7.591   2.784 -0.5162  0.3534 -0.2581
 1754SOL    HW1 5840   5.918   7.498   2.763 -0.8873 -0.4430  2.7429
 1754SOL    HW2 5841   5.822   7.605   2.809 -0.1271  1.1438  0.7720
 1755SOL     OW 5842   9.777   1.234   3.893 -0.7056 -0.1367  1.1431
 1755SOL    HW1 5843   9.845   1.300   3.880 -0.6929 -0.1679  1.0555
 1755SOL    HW2 5844   9.695   1.283   3.895 -0.8548 -0.2823 -0.5320
 1756SOL     OW 5845   8.471   1.637   5.570  0.1955 -0.1138 -0.3271
 1756SOL    HW1 5846   8.480   1.662   5.662  0.9800  1.0355 -0.6862
 1756SOL    HW2 5847   8.551   1.589   5.550 -0.5778 -1.5770 -0.0832
 1757SOL     OW 5848   8.539   6.429   1.885  0.1364  0.0100 -0.2888
 1757SOL    HW1 5849   8.449   6.421   1.917  0.5034  1.7456  1.3509
 1757SOL    HW2 5850   8.530   6.458   1.794 -0.9276 -4.1885 -1.7545
 1758SOL     OW 5851   3.696   7.437   2.874 -0.1157 -0.4790  0.3790
 1758SOL    HW1 5852   3.701   7.508   2.810  0.3011 -0.9177 -0.0867
 1758SOL    HW2 5853   3.775   7.448   2.927  2.0622 -2.7730 -2.0556
 1759SOL     OW 5854   8.236   1.794   3.120  0.0244  0.4229  0.6569
 1759SOL    HW1 5855   8.291   1.845   3.061 -0.8149  0.6992  0.0987
 1759SOL    HW2 5856   8.162   1.851   3.140 -0.7401 -0.4251  0.3188
 1760SOL     OW 5857   9.447   1.117   6.749 -0.5159  0.4578 -0.4787
 1760SOL    HW1 5858   9.378   1.175   6.718 -1.7103 -0.7990 -0.2643
 1760SOL    HW2 5859   9.528   1.154   6.713 -1.3869  1.4797 -1.4378
 1761SOL     OW 5860   6.147   8.423   2.369  0.4767 -0.2368  0.1413
 1761SOL    HW1 5861   6.141   8.424   2.273 -3.3333  1.2071  0.2337
 1761SOL    HW2 5862   6.131   8.513   2.395 -0.7225 -0.9967  2.1874
 1762SOL     OW 5863   0.827   7.025   6.804 -0.3433  0.1317 -0.0242
 1762SOL    HW1 5864   0.878   7.084   6.859  0.7997 -0.1464 -0.7427
 1762SOL    HW2 5865   0.820   6.944   6.855  1.0560 -0.2648 -0.3945
 1763SOL     OW 5866   0.775   4.080   0.259  0.0483 -0.0015 -0.3207
 1763SOL    HW1 5867   0.766   4.065   0.353  2.3133  2.1214  0.3732
 1763SOL    HW2 5868   0.731   4.164   0.243  0.4188  0.0848 -0.9574
 1764SOL     OW 5869   5.569   0.657   0.568 -0.5275  0.7826 -0.0667
 1764SOL    HW1 5870   5.542   0.676   0.478 -0.9491  1.7112  0.2434
 1764SOL    HW2 5871   5.575   0.743   0.610 -0.5166  0.3465  0.8465
 1765SOL     OW 5872   7.886   8.806   2.206 -0.5667  0.3234 -0.3038
 1765SOL    HW1 5873   7.947   8.737   2.179 -0.1522  0.1538  1.0140
 1765SOL    HW2 5874   7.823   8.811   2.134  1.0317  0.5758 -1.7534
 1766SOL     OW 5875   6.432   6.852   5.615  0.0943  0.0925 -0.4511
 1766SOL    HW1 5876   6.450   6.938   5.653 -1.3818 -0.3011  1.3107
 1766SOL    HW2 5877   6.445   6.790   5.688  0.6516 -1.1341 -1.5527
 1767SOL     OW 5878   3.088   2.169   5.513 -0.2998 -0.0896 -0.3034
 1767SOL    HW1 5879   3.176   2.130   5.512  0.5281  1.6777 -1.9013
 1767SOL    HW2 5880   3.077   2.199   5.604  0.7987 -0.2211 -0.1026
 1768SOL     OW 5881   7.207   9.463   6.811 -1.1943  0.2601  0.0360
 1768SOL    HW1 5882   7.279   9.400   6.817 -0.7088  0.4692 -2.2896
 1768SOL    HW2 5883   7.175   9.472   6.900  0.4052 -1.3096  0.8420
 1769SOL     OW 5884   6.610   8.866   7.751  0.3035 -0.1345  0.1343
 1769SOL    HW1 5885   6.659   8.788   7.725  0.0775 -0.2735  0.1183
 1769SOL    HW2 5886   6.583   8.849   7.842 -0.5063 -0.4643 -0.1601
 1770SOL     OW 5887   7.153   3.349   2.338  0.2741  0.1369  0.2680
 1770SOL    HW1 5888   7.132   3.385   2.252 -0.6986  3.3079  1.6635
 1770SOL    HW2 5889   7.185   3.260   2.321 -1.3322  0.0897 -3.1788
 1771SOL     OW 5890   3.759   7.851   5.128  0.0229 -0.2995 -0.3116
 1771SOL    HW1 5891   3.734   7.877   5.217  0.3566 -0.1847 -0.2526
 1771SOL    HW2 5892   3.676   7.851   5.080  0.0028  0.8729 -0.3148
 1772SOL     OW 5893   6.089   2.745   6.764 -0.4411  0.2076  0.6405
 1772SOL    HW1 5894   6.067   2.819   6.820 -0.9726  1.0923 -0.6751
 1772SOL    HW2 5895   6.181   2.728   6.781 -0.9462 -0.5411  2.8706
 1773SOL     OW 5896   8.348   3.986   5.629  0.0150  0.1587 -0.1245
 1773SOL    HW1 5897   8.291   3.926   5.676  2.7820 -1.9161  0.8713
 1773SOL    HW2 5898   8.304   4.000   5.545 -1.2603 -2.4557  0.0132
 1774SOL     OW 5899   8.536   7.186   7.773  0.1645 -0.0529 -0.0275
 1774SOL    HW1 5900   8.518   7.262   7.718 -1.2792  0.6468  1.3303
 1774SOL    HW2 5901   8.449   7.150   7.794  0.7321 -1.0208  0.8004
 1775SOL     OW 5902   9.613   1.204   8.525 -0.4536 -0.5868  0.4718
 1775SOL    HW1 5903   9.664   1.134   8.485 -0.3368 -1.2181  1.6670
 1775SOL    HW2 5904   9.542   1.159   8.571 -0.9242  0.1501  0.4869
 1776SOL     OW 5905   1.283   3.037   1.862 -0.1010 -0.4906 -0.5335
 1776SOL    HW1 5906   1.361   3.091   1.853  0.4693 -1.3285 -0.7098
 1776SOL    HW2 5907   1.212   3.091   1.827  0.4180  0.2192 -0.5033
 1777SOL     OW 5908   2.507   7.969   3.532 -0.6264  0.5814 -0.4544
 1777SOL    HW1 5909   2.507   8.030   3.605  2.6315  0.8559 -0.5385
 1777SOL    HW2 5910   2.569   7.900   3.558 -1.7978 -1.0061 -1.6755
 1778SOL     OW 5911   8.051   6.053   0.937 -0.1547  0.3806 -0.1578
 1778SOL    HW1 5912   7.982   6.096   0.987  0.7608  1.4677  0.2101
 1778SOL    HW2 5913   8.100   6.125   0.897  0.2676 -0.4015 -1.0990
 1779SOL     OW 5914   4.342   7.480   2.004  0.3321 -0.4089  0.3811
 1779SOL    HW1 5915   4.268   7.454   2.060  0.3001 -1.1376  0.0208
 1779SOL    HW2 5916   4.375   7.397   1.968  0.2866  0.0412 -0.7513
 1780SOL     OW 5917   0.860   2.887   6.701  0.1241 -0.1060 -0.0075
 1780SOL    HW1 5918   0.776   2.931   6.690  0.6975  0.6981 -1.3456
 1780SOL    HW2 5919   0.847   2.828   6.776 -1.3672  0.6043  0.3123
 1781SOL     OW 5920   3.995   9.914   6.767 -0.0144  0.0720  0.0054
 1781SOL    HW1 5921   3.939   9.836   6.772 -0.3915  0.3987  1.0030
 1781SOL    HW2 5922   4.075   9.882   6.724  0.4196 -1.2210  1.6669
 1782SOL     OW 5923   2.784   0.048   4.064  0.6480  0.2603 -0.3362
 1782SOL    HW1 5924   2.769  -0.022   4.001 -0.0040 -1.0734  1.2478
 1782SOL    HW2 5925   2.708   0.106   4.053  2.0788  1.8444 -2.9474
 1783SOL     OW 5926   4.995   5.866   4.423  0.4363 -0.0385 -0.1003
 1783SOL    HW1 5927   4.964   5.903   4.340  1.0620  1.0863  0.1540
 1783SOL    HW2 5928   4.942   5.908   4.490  0.5417 -0.2804  0.1370
 1784SOL     OW 5929   7.878   6.681   9.593  0.0482 -0.0094  0.3709
 1784SOL    HW1 5930   7.833   6.764   9.607  0.3021  0.2127 -0.1019
 1784SOL    HW2 5931   7.877   6.669   9.498 -0.2086 -0.6746  0.4485
 1785SOL     OW 5932   4.632   0.679   7.378 -0.0997  0.1647 -0.5558
 1785SOL    HW1 5933   4.553   0.628   7.361 -0.0292 -0.5034  0.9580
 1785SOL    HW2 5934   4.686   0.666   7.299  0.0926 -2.5062 -0.0944
 1786SOL     OW 5935   4.681   7.937   9.424  0.2432  0.1188  0.0086
 1786SOL    HW1 5936   4.758   7.993   9.441  0.5486 -0.9604  2.6877
 1786SOL    HW2 5937   4.610   7.980   9.471 -0.3172 -0.0400 -0.6762
 1787SOL     OW 5938   8.745   5.103   9.132  0.3923  0.0861 -0.1127
 1787SOL    HW1 5939   8.712   5.036   9.072 -0.2155  0.9579 -0.7698
 1787SOL    HW2 5940   8.825   5.134   9.091  0.7423 -0.3177  0.2569
 1788SOL     OW 5941   5.494   6.460   8.434 -0.0597 -0.0269  0.5459
 1788SOL    HW1 5942   5.495   6.377   8.482  0.8042 -0.0047  0.5753
 1788SOL    HW2 5943   5.457   6.523   8.495  0.2651 -0.1686  0.8872
 1789SOL     OW 5944   9.376   6.421   5.281  0.0906  0.0250 -0.2136
 1789SOL    HW1 5945   9.356   6.381   5.197 -1.5912  0.6630 -0.1611
 1789SOL    HW2 5946   9.426   6.355   5.328 -0.7358 -1.1647 -0.9424
 1790SOL     OW 5947   6.461   7.568   1.721  0.4848  0.2877  0.5412
 1790SOL    HW1 5948   6.503   7.634   1.776  0.9320  0.9804 -0.5699
 1790SOL    HW2 5949   6.491   7.590   1.632 -0.8518 -0.2699 -0.0722
 1791SOL     OW 5950   4.850   9.878   6.494  0.0056 -0.4814  0.1511
 1791SOL    HW1 5951   4.778   9.863   6.555 -0.9787 -3.7269 -1.5671
 1791SOL    HW2 5952   4.889   9.791   6.481  1.5264  0.4503 -2.1723
 1792SOL     OW 5953   1.799   6.378   9.411 -0.1388  0.1396 -0.3059
 1792SOL    HW1 5954   1.722   6.424   9.445 -0.5229 -1.2913  0.8644
 1792SOL    HW2 5955   1.768   6.290   9.390  0.9987 -0.2091 -0.6099
 1793SOL     OW 5956   1.635   9.593   1.259  0.4727  0.3779 -0.9224
 1793SOL    HW1 5957   1.666   9.502   1.257  1.2393  0.6291 -0.9589
 1793SOL    HW2 5958   1.681   9.635   1.186 -0.2405  0.6833 -1.2009
 1794SOL     OW 5959   1.552   6.260   4.326  0.3486  0.4088 -0.0811
 1794SOL    HW1 5960   1.626   6.214   4.365  0.8146  0.9688 -0.2900
 1794SOL    HW2 5961   1.568   6.352   4.345  0.7430  0.7276 -1.8207
 1795SOL     OW 5962   2.975   9.702   6.129 -0.2101  0.2595 -0.0588
 1795SOL    HW1 5963   2.924   9.714   6.209  1.4522 -1.1651  1.2903
 1795SOL    HW2 5964   2.932   9.628   6.085 -0.8837  0.7880 -0.3173
 1796SOL     OW 5965   8.647   1.197   7.428 -0.4768  0.0150  0.5689
 1796SOL    HW1 5966   8.740   1.216   7.417 -0.9077  1.5289 -0.8328
 1796SOL    HW2 5967   8.607   1.218   7.344 -2.0692 -0.8476  1.0540
 1797SOL     OW 5968   9.828   5.414   4.197 -0.1455  1.1571 -0.6425
 1797SOL    HW1 5969   9.861   5.379   4.280 -0.7474  1.7430 -0.1332
 1797SOL    HW2 5970   9.838   5.343   4.134  0.3263  0.7038 -0.0645
 1798SOL     OW 5971   2.784   1.862   9.473  0.1046  0.2071  0.0451
 1798SOL    HW1 5972   2.775   1.873   9.378 -0.1162  0.8861  0.1442
 1798SOL    HW2 5973   2.754   1.945   9.510 -3.3225 -1.2513  0.9230
 1799SOL     OW 5974   3.393   9.113   1.241  0.4619 -0.1406 -0.3297
 1799SOL    HW1 5975   3.389   9.204   1.210  0.6101 -0.4908 -1.4210
 1799SOL    HW2 5976   3.483   9.102   1.271  0.3821  0.1331  0.0220
 1800SOL     OW 5977   0.970   9.447   2.348  0.2108 -0.4302  0.8243
 1800SOL    HW1 5978   0.913   9.517   2.315  1.7647  0.2831 -0.5029
 1800SOL    HW2 5979   0.959   9.376   2.285  1.4684  0.0709  0.0106
 1801SOL     OW 5980   8.531   3.962   3.536  0.5474  0.1244  0.2662
 1801SOL    HW1 5981   8.605   4.021   3.519 -0.3208  1.0538 -0.4712
 1801SOL    HW2 5982   8.461   3.996   3.481 -0.8907  0.1676  2.0265
 1802SOL     OW 5983   9.750   4.793   7.328 -0.1881 -0.1471  0.4143
 1802SOL    HW1 5984   9.786   4.708   7.353  0.7838 -0.1584 -0.9355
 1802SOL    HW2 5985   9.784   4.809   7.240 -0.9916  1.2892  0.3306
 1803SOL     OW 5986   2.737   8.274   6.006  0.3462  0.5846 -0.1511
 1803SOL    HW1 5987   2.826   8.285   5.972  0.9140 -0.4097  0.9308
 1803SOL    HW2 5988   2.690   8.232   5.934  1.2557 -0.5531 -0.1245
 1804SOL     OW 5989   5.967   5.839   5.431  0.3298  0.2995 -0.9711
 1804SOL    HW1 5990   6.051   5.797   5.411  0.5030 -0.2404  0.7487
 1804SOL    HW2 5991   5.975   5.867   5.522 -0.8862  1.4533 -1.1824
 1805SOL     OW 5992   1.644   1.138   6.555 -0.0005 -0.3807 -0.4042
 1805SOL    HW1 5993   1.669   1.225   6.585 -0.2965 -0.6575  0.6698
 1805SOL    HW2 5994   1.550   1.144   6.539 -0.4070 -1.0034  1.5483
 1806SOL     OW 5995   4.363   3.019   5.298 -0.5374 -0.0924 -0.0072
 1806SOL    HW1 5996   4.387   2.977   5.381 -0.4929 -0.5781 -0.2643
 1806SOL    HW2 5997   4.438   3.005   5.241 -1.0405 -0.8081 -0.5151
 1807SOL     OW 5998   6.439   1.891   6.698  0.5549  0.5027  0.3830
 1807SOL    HW1 5999   6.390   1.937   6.630  0.9962  2.0907  1.1084
 1807SOL    HW2 6000   6.372   1.846   6.750  0.2091 -0.7010 -1.0356
 1808SOL     OW 6001   0.118   4.420   8.441 -0.2052 -0.3088  0.3836
 1808SOL    HW1 6002   0.178   4.349   8.417 -0.6204 -0.5618  0.0712
 1808SOL    HW2 6003   0.074   4.443   8.359  1.0652  1.4373  0.1276
 1809SOL     OW 6004   6.727   4.222   6.776  0.1493  0.9479 -0.1503
 1809SOL    HW1 6005   6.650   4.276   6.760 -0.0953  0.6808  0.1232
 1809SOL    HW2 6006   6.790   4.251   6.710 -0.2208  1.0907 -0.4468
 1810SOL     OW 6007   6.395   2.855   6.487 -0.1924  0.7381 -0.6371
 1810SOL    HW1 6008   6.427   2.773   6.524 -2.1449  0.8109  1.4351
 1810SOL    HW2 6009   6.364   2.833   6.400  0.4761 -0.4410 -0.5923
 1811SOL     OW 6010   1.668   3.379   9.799 -0.2854  0.1368 -0.2202
 1811SOL    HW1 6011   1.589   3.352   9.846  0.4192 -1.9086 -0.1064
 1811SOL    HW2 6012   1.719   3.427   9.864 -0.5198 -0.3086  0.2967
 1812SOL     OW 6013   2.361   9.446   8.862  0.6589 -0.4015  0.0919
 1812SOL    HW1 6014   2.348   9.455   8.767 -1.4411  2.5664  0.4877
 1812SOL    HW2 6015   2.441   9.495   8.880 -0.1906  1.0838  0.0252
 1813SOL     OW 6016   8.517   7.379   7.310 -0.0477  0.1226  0.0580
 1813SOL    HW1 6017   8.494   7.447   7.247 -0.5559  0.6548  0.7914
 1813SOL    HW2 6018   8.598   7.409   7.350  0.3961 -0.3250 -0.4856
 1814SOL     OW 6019   1.785   9.724   2.412  0.0898  0.0116 -0.1784
 1814SOL    HW1 6020   1.814   9.764   2.494 -0.0181  0.7018 -0.4711
 1814SOL    HW2 6021   1.757   9.636   2.437 -0.8924  0.5463  0.7245
 1815SOL     OW 6022   1.107   4.441   0.565 -0.3917  0.6532  0.8768
 1815SOL    HW1 6023   1.165   4.392   0.506 -0.8590  2.3807 -1.1283
 1815SOL    HW2 6024   1.025   4.393   0.564 -0.1386  0.2143  0.8121
 1816SOL     OW 6025   5.951   8.406   5.257  0.0495 -0.7725 -0.2120
 1816SOL    HW1 6026   5.959   8.500   5.272  1.2585 -0.7535 -0.8798
 1816SOL    HW2 6027   6.032   8.369   5.293  1.1697 -1.1610 -2.9062
 1817SOL     OW 6028   5.827   2.342   9.420  0.2808  0.3795  0.0076
 1817SOL    HW1 6029   5.839   2.434   9.445  0.3036  0.9576 -1.9463
 1817SOL    HW2 6030   5.837   2.342   9.325 -0.7410 -1.4997 -0.1418
 1818SOL     OW 6031   3.200   2.395   1.594 -0.1317 -0.1643  0.2022
 1818SOL    HW1 6032   3.270   2.370   1.533 -0.7089  0.0442 -0.5533
 1818SOL    HW2 6033   3.135   2.326   1.586 -0.4264  0.1101  0.2345
 1819SOL     OW 6034   7.164   5.419   0.838  0.0647 -0.0210  0.5556
 1819SOL    HW1 6035   7.141   5.332   0.870 -0.8603  1.0031  2.9252
 1819SOL    HW2 6036   7.259   5.425   0.852 -0.0780 -0.1866  1.6727
 1820SOL     OW 6037   0.858   0.290   9.106 -0.0623  0.4805  0.0793
 1820SOL    HW1 6038   0.904   0.248   9.180  0.9232 -0.8648 -1.2369
 1820SOL    HW2 6039   0.793   0.347   9.148  1.0502  0.4472  1.9981
 1821SOL     OW 6040   2.128   8.827   1.174 -0.3600  0.1506 -0.3595
 1821SOL    HW1 6041   2.203   8.770   1.192 -0.7009 -0.6831 -1.4500
 1821SOL    HW2 6042   2.150   8.872   1.093 -0.5879  0.7089 -0.1177
 1822SOL     OW 6043   4.041   2.882   4.357 -0.5610  0.2118 -0.4400
 1822SOL    HW1 6044   4.076   2.949   4.415  0.8329 -0.2650 -0.6842
 1822SOL    HW2 6045   4.089   2.802   4.382 -0.0937 -0.0462 -2.0860
 1823SOL     OW 6046   6.107   1.080   7.366  0.6074 -0.3518 -0.0993
 1823SOL    HW1 6047   6.161   1.137   7.420  2.4950 -3.3005  1.4150
 1823SOL    HW2 6048   6.132   0.991   7.393 -2.5798 -1.9317 -1.8120
 1824SOL     OW 6049   7.546   3.456   6.826  0.0095  0.1242  0.2119
 1824SOL    HW1 6050   7.556   3.476   6.733  1.8262  1.7778  0.6923
 1824SOL    HW2 6051   7.565   3.363   6.832  0.8959  0.1940 -0.9665
 1825SOL     OW 6052   6.094   7.788   0.730  0.4933 -0.0910  0.5966
 1825SOL    HW1 6053   6.062   7.698   0.735 -1.3280  0.4604 -0.0460
 1825SOL    HW2 6054   6.188   7.780   0.716  0.0906 -1.9377 -1.6308
 1826SOL     OW 6055   9.448   0.906   3.149 -0.2825  0.2628 -0.5266
 1826SOL    HW1 6056   9.543   0.895   3.159 -0.5287 -2.6116 -0.2269
 1826SOL    HW2 6057   9.428   0.986   3.197  1.8531  0.2225  0.5817
 1827SOL     OW 6058   4.956   5.711   5.198  0.0715 -0.4642 -0.0083
 1827SOL    HW1 6059   4.942   5.623   5.233 -0.3004 -0.8037 -0.9949
 1827SOL    HW2 6060   5.024   5.749   5.254  1.1967 -1.8484 -0.3932
 1828SOL     OW 6061   2.390   1.045   4.425  0.0225  0.0544  0.0882
 1828SOL    HW1 6062   2.422   1.103   4.494 -0.9843  0.4445  0.2580
 1828SOL    HW2 6063   2.320   0.995   4.467  1.0994 -1.5625  0.0440
 1829SOL     OW 6064   9.276   3.188   1.523  0.1609  0.1847  0.4157
 1829SOL    HW1 6065   9.205   3.181   1.587  0.4178 -1.2405  0.5752
 1829SOL    HW2 6066   9.311   3.276   1.535 -2.1185  1.2784 -0.2628
 1830SOL     OW 6067   3.616   8.350   5.207  0.0802 -0.0935  0.0816
 1830SOL    HW1 6068   3.651   8.419   5.264 -0.9172  1.0086 -0.5703
 1830SOL    HW2 6069   3.692   8.312   5.164  0.6736  0.4413  0.6452
 1831SOL     OW 6070   5.591   8.667   8.200  0.1694 -0.1920 -0.7462
 1831SOL    HW1 6071   5.682   8.689   8.216  0.1618  0.6192 -1.7464
 1831SOL    HW2 6072   5.541   8.736   8.244  0.0035 -0.9345  0.2711
 1832SOL     OW 6073   4.699   3.846   7.510  0.6053 -0.0333  0.4513
 1832SOL    HW1 6074   4.749   3.868   7.589  1.9107 -0.4174 -0.2278
 1832SOL    HW2 6075   4.722   3.754   7.493  1.8845  0.5806 -1.4281
 1833SOL     OW 6076   1.505   2.350   0.734  0.0304 -0.3147  0.1511
 1833SOL    HW1 6077   1.589   2.322   0.770 -0.1836 -1.0587  0.0921
 1833SOL    HW2 6078   1.501   2.444   0.752  0.5408 -0.4160  0.8182
 1834SOL     OW 6079   3.857   8.057   4.475 -0.6052 -0.7905 -0.0080
 1834SOL    HW1 6080   3.877   7.964   4.466 -0.6866 -0.6477 -2.3074
 1834SOL    HW2 6081   3.762   8.060   4.479 -0.6355 -0.7730 -0.6654
 1835SOL     OW 6082   2.356   4.096   3.115  0.2534 -0.5058  0.1057
 1835SOL    HW1 6083   2.281   4.147   3.085  0.0062 -0.5771  0.5969
 1835SOL    HW2 6084   2.344   4.010   3.073 -0.8592 -1.0693  1.4811
 1836SOL     OW 6085   7.310   5.822   1.379 -0.0116 -0.3162  0.8224
 1836SOL    HW1 6086   7.336   5.757   1.444  1.3698 -0.0601  0.5593
 1836SOL    HW2 6087   7.272   5.770   1.308  2.5876 -1.1002 -0.1363
 1837SOL     OW 6088   9.032   1.964   5.875 -0.0342  0.2822  0.1650
 1837SOL    HW1 6089   9.065   1.888   5.924 -3.5253  0.4549  3.2646
 1837SOL    HW2 6090   9.077   2.039   5.914 -1.0249  0.2111  1.5141
 1838SOL     OW 6091   9.062   8.514   1.541  0.4991 -0.3438 -0.0681
 1838SOL    HW1 6092   9.000   8.481   1.606 -0.5063  0.4640 -0.5697
 1838SOL    HW2 6093   9.148   8.508   1.583 -0.1618  0.5368  1.4951
 1839SOL     OW 6094   2.380   1.412   3.500 -0.1494  0.0351  0.0157
 1839SOL    HW1 6095   2.464   1.409   3.453 -1.3211 -1.3128 -2.1468
 1839SOL    HW2 6096   2.401   1.377   3.587  1.6960  0.6311 -0.1388
 1840SOL     OW 6097   0.413   1.257   5.491  0.7090 -0.1990 -0.0978
 1840SOL    HW1 6098   0.322   1.285   5.487  0.7084  0.0761  1.3211
 1840SOL    HW2 6099   0.464   1.338   5.485  0.8643 -0.3468 -0.8292
 1841SOL     OW 6100   4.523   7.763   7.469  0.6146 -0.2859 -0.2059
 1841SOL    HW1 6101   4.490   7.674   7.479 -0.6967  0.2738  0.6867
 1841SOL    HW2 6102   4.549   7.789   7.558 -0.1996  0.6443 -0.2171
 1842SOL     OW 6103   7.156   4.265   1.815 -0.7709 -0.2138 -0.6280
 1842SOL    HW1 6104   7.095   4.197   1.845 -1.5801  1.2521  1.2172
 1842SOL    HW2 6105   7.115   4.302   1.737 -1.0795 -0.8102 -0.7550
 1843SOL     OW 6106   0.696   5.195   9.829  0.2743  0.1681 -0.1061
 1843SOL    HW1 6107   0.687   5.139   9.906  1.8878 -0.8683 -0.5999
 1843SOL    HW2 6108   0.752   5.144   9.770  0.3108  1.5719 -1.3324
 1844SOL     OW 6109   9.165   0.701   9.516 -0.1679 -0.2607  0.1200
 1844SOL    HW1 6110   9.191   0.632   9.455 -0.5455 -0.5611  0.2990
 1844SOL    HW2 6111   9.207   0.677   9.599 -0.1075 -0.1494  0.1216
 1845SOL     OW 6112   6.000   6.388   7.807  0.6072 -0.5411 -0.3489
 1845SOL    HW1 6113   5.972   6.351   7.891 -1.6504 -0.9574 -1.2036
 1845SOL    HW2 6114   6.088   6.421   7.823  0.3755 -0.9247  2.0798
 1846SOL     OW 6115   0.415   6.697   2.439 -0.1257  0.5298  0.0963
 1846SOL    HW1 6116   0.470   6.619   2.435 -1.0378 -0.0780 -1.2382
 1846SOL    HW2 6117   0.403   6.722   2.347 -1.2180  1.2542  0.4273
 1847SOL     OW 6118   0.899   4.200   1.876  0.1091 -0.2163  0.4022
 1847SOL    HW1 6119   0.819   4.252   1.868  0.2900  0.0356  0.1873
 1847SOL    HW2 6120   0.951   4.246   1.943  0.0553 -0.4020  0.5703
 1848SOL     OW 6121   5.753   5.814   2.515 -0.5671 -0.4338 -0.1212
 1848SOL    HW1 6122   5.783   5.901   2.542 -0.4181 -0.4510 -0.2328
 1848SOL    HW2 6123   5.768   5.758   2.592 -0.6469 -0.3637 -0.0557
 1849SOL     OW 6124   7.118   1.501   6.147  0.0901 -0.3768 -0.5151
 1849SOL    HW1 6125   7.151   1.504   6.237  0.0922  0.5068 -0.5372
 1849SOL    HW2 6126   7.070   1.418   6.142  0.0180 -0.3941  0.3247
 1850SOL     OW 6127   8.038   8.462   2.872  0.3667  0.4126 -0.0773
 1850SOL    HW1 6128   8.110   8.433   2.927 -0.3643 -0.9950  0.1654
 1850SOL    HW2 6129   8.080   8.514   2.803  1.9748 -2.5978 -1.5250
 1851SOL     OW 6130   9.947   1.797   2.987 -0.8754 -0.3840  0.0074
 1851SOL    HW1 6131   9.965   1.782   3.080 -0.9790 -1.2592 -0.1104
 1851SOL    HW2 6132  10.011   1.864   2.962  0.2192 -1.2661  0.3391
 1852SOL     OW 6133   5.151   3.052   2.388 -0.4516  1.0275 -0.2444
 1852SOL    HW1 6134   5.084   3.055   2.456  0.1682 -1.0228  0.5372
 1852SOL    HW2 6135   5.231   3.029   2.435 -0.1547 -1.1754 -1.7126
 1853SOL     OW 6136   2.473   9.433   9.313  0.3516  0.2235 -0.6364
 1853SOL    HW1 6137   2.485   9.424   9.407 -0.6131  1.8088 -0.3270
 1853SOL    HW2 6138   2.380   9.414   9.299  0.2066  1.2117 -1.0850
 1854SOL     OW 6139   5.861   0.245   1.667  0.2160 -0.0184  0.6474
 1854SOL    HW1 6140   5.836   0.153   1.660  1.1732 -0.3032  0.7817
 1854SOL    HW2 6141   5.902   0.265   1.583 -0.2329  0.3756  0.5146
 1855SOL     OW 6142   5.012   6.338   6.792  0.5453  0.0315  0.1985
 1855SOL    HW1 6143   4.980   6.308   6.707  0.1499  2.5462 -0.6250
 1855SOL    HW2 6144   4.977   6.427   6.800  2.2492  0.5958  2.0831
 1856SOL     OW 6145   8.827   3.715   2.174 -0.1035 -0.3153 -0.1014
 1856SOL    HW1 6146   8.801   3.775   2.104 -1.1693  1.4314  1.7022
 1856SOL    HW2 6147   8.758   3.723   2.240  2.4151  0.6474  2.6337
 1857SOL     OW 6148   8.522   0.644   2.666  0.1483  0.2579  0.2179
 1857SOL    HW1 6149   8.456   0.584   2.634  1.3615 -0.2615 -1.4207
 1857SOL    HW2 6150   8.511   0.642   2.761 -0.0518 -2.3341  0.2195
 1858SOL     OW 6151   2.135   9.131   3.415 -0.0599 -0.3401  0.5757
 1858SOL    HW1 6152   2.192   9.152   3.341 -1.1179 -0.3602 -0.2787
 1858SOL    HW2 6153   2.178   9.169   3.491  1.3922 -0.8852  0.0600
 1859SOL     OW 6154   2.167   2.551   1.548 -0.4420  0.8555 -0.0166
 1859SOL    HW1 6155   2.200   2.622   1.493  0.1507 -0.5368 -1.5246
 1859SOL    HW2 6156   2.107   2.502   1.492 -0.8846  0.1944  1.0069
 1860SOL     OW 6157   5.445   9.048   6.595 -0.1605  0.1793  0.4737
 1860SOL    HW1 6158   5.460   9.121   6.535 -0.2595 -0.4011 -0.2851
 1860SOL    HW2 6159   5.349   9.043   6.602 -0.1557  0.0575  0.4427
 1861SOL     OW 6160   2.604   6.377   5.600  0.2472  0.0067 -0.1924
 1861SOL    HW1 6161   2.677   6.437   5.591  1.4923 -1.4786 -0.4893
 1861SOL    HW2 6162   2.564   6.374   5.513  0.3864  0.1661 -0.2614
 1862SOL     OW 6163   8.189   4.305   9.770  0.0445 -0.4928  0.3067
 1862SOL    HW1 6164   8.213   4.213   9.758 -2.0770 -1.0115 -0.3699
 1862SOL    HW2 6165   8.155   4.332   9.685  1.6348  1.3005  0.1679
 1863SOL     OW 6166   1.749   7.074   7.508 -0.0026  0.5822 -0.3275
 1863SOL    HW1 6167   1.724   7.054   7.418 -0.1681  0.4978 -0.2617
 1863SOL    HW2 6168   1.777   7.166   7.505  0.5111  0.4220 -0.5743
 1864SOL     OW 6169   3.491   7.904   4.753 -0.0071  0.1110 -0.0732
 1864SOL    HW1 6170   3.558   7.849   4.793  0.3992  0.4283 -0.3044
 1864SOL    HW2 6171   3.410   7.879   4.796  0.1998 -0.5502 -0.0592
 1865SOL     OW 6172   2.271   2.458   9.820  0.5821 -0.8349  0.3487
 1865SOL    HW1 6173   2.218   2.381   9.801 -2.2352 -0.4017  4.8404
 1865SOL    HW2 6174   2.360   2.424   9.834  0.3998 -2.4752 -2.0466
 1866SOL     OW 6175   1.675   5.301   3.377  0.3798 -0.5316 -0.1036
 1866SOL    HW1 6176   1.753   5.356   3.385  1.0484 -1.5360  0.5568
 1866SOL    HW2 6177   1.694   5.243   3.303  0.0734 -0.4797 -0.2233
 1867SOL     OW 6178   1.983   3.062   8.870  0.6268 -0.2231 -0.5709
 1867SOL    HW1 6179   2.028   3.030   8.949  0.5854 -0.3950 -0.6162
 1867SOL    HW2 6180   2.015   3.151   8.860 -2.4663  1.3556  2.0105
 1868SOL     OW 6181   2.254   0.539   4.950  0.0557 -0.2007 -0.2878
 1868SOL    HW1 6182   2.205   0.476   5.003 -1.1386  0.6109 -0.3831
 1868SOL    HW2 6183   2.217   0.531   4.862  0.8069 -0.2879 -0.6011
 1869SOL     OW 6184   9.311   4.612   9.052 -0.0407  0.7442 -0.3546
 1869SOL    HW1 6185   9.304   4.707   9.049 -0.7098  0.6736 -1.9131
 1869SOL    HW2 6186   9.404   4.594   9.038  0.3261  1.1671  1.2632
 1870SOL     OW 6187   7.732   6.610   2.658  0.2941 -0.6484 -0.4106
 1870SOL    HW1 6188   7.760   6.664   2.585 -1.0899  2.3544  1.1165
 1870SOL    HW2 6189   7.768   6.653   2.735 -1.5250 -1.4217  0.9454
 1871SOL     OW 6190   8.563   5.021   8.793  0.4995  0.2705 -0.0121
 1871SOL    HW1 6191   8.642   5.064   8.763  1.7617 -1.8344  0.1062
 1871SOL    HW2 6192   8.593   4.939   8.833 -1.7486 -0.8663 -0.4520
 1872SOL     OW 6193   2.041   4.083   9.922 -0.5553 -0.2928  0.1337
 1872SOL    HW1 6194   2.086   4.124   9.848 -0.9027  0.2675  0.2310
 1872SOL    HW2 6195   2.048   4.147   9.993  0.8072 -1.2880  0.9701
 1873SOL     OW 6196   6.106   8.293   6.864 -0.6548  0.1115  0.0544
 1873SOL    HW1 6197   6.173   8.263   6.803 -0.4261 -0.4111  0.5632
 1873SOL    HW2 6198   6.049   8.218   6.877 -0.1158 -0.1003  1.2787
 1874SOL     OW 6199   3.639   5.321   4.867  0.3753 -0.5120  0.4303
 1874SOL    HW1 6200   3.730   5.311   4.893  0.2448 -1.1430  0.6583
 1874SOL    HW2 6201   3.633   5.277   4.782  0.8387  1.6746 -0.8252
 1875SOL     OW 6202   8.624   5.931   8.960  0.4281  0.3823  0.3530
 1875SOL    HW1 6203   8.573   5.977   8.893  0.3896 -0.0967  0.0552
 1875SOL    HW2 6204   8.599   5.974   9.042  1.4465  1.8484 -0.0657
 1876SOL     OW 6205   5.281   0.411   5.485 -0.3718 -0.3212  0.2959
 1876SOL    HW1 6206   5.280   0.339   5.548 -0.1338  0.2723  0.9873
 1876SOL    HW2 6207   5.373   0.422   5.462  0.1697  2.0972  2.9692
 1877SOL     OW 6208   9.714   1.223   2.890 -0.1299  0.3202 -0.1720
 1877SOL    HW1 6209   9.714   1.250   2.982  1.8742 -0.2996  0.0582
 1877SOL    HW2 6210   9.768   1.289   2.846  1.6739 -1.1383 -0.2638
 1878SOL     OW 6211   9.306   7.223   4.051  0.2787 -0.4418 -0.5899
 1878SOL    HW1 6212   9.247   7.165   4.100  0.3427 -0.4402 -0.5101
 1878SOL    HW2 6213   9.394   7.198   4.080  0.4216 -1.4929 -1.8459
 1879SOL     OW 6214   9.901   1.924   3.641  0.3547  0.3098 -0.5453
 1879SOL    HW1 6215   9.969   1.864   3.610 -0.0615  0.3492 -1.5911
 1879SOL    HW2 6216   9.929   1.950   3.728  1.4539 -0.0157 -0.7914
 1880SOL     OW 6217   8.924   5.553   1.702  0.4157  0.5934 -0.0474
 1880SOL    HW1 6218   8.990   5.508   1.649  0.1190  0.9092 -0.6868
 1880SOL    HW2 6219   8.933   5.513   1.789  1.0994  0.2749 -0.2528
 1881SOL     OW 6220   3.852   9.282   4.947  0.3763  0.2484 -0.1316
 1881SOL    HW1 6221   3.872   9.351   4.883 -0.6647 -0.3809 -1.1482
 1881SOL    HW2 6222   3.782   9.231   4.907 -1.0728  0.4725  1.9658
 1882SOL     OW 6223   9.013   8.992   2.795 -0.7413 -0.6239  0.8064
 1882SOL    HW1 6224   8.933   9.036   2.767 -0.9007 -2.6131 -2.3575
 1882SOL    HW2 6225   8.982   8.920   2.850 -0.7414  0.7934  2.7763
 1883SOL     OW 6226   8.981   3.957   9.888 -0.7230 -0.3218  0.6179
 1883SOL    HW1 6227   9.030   4.039   9.897 -0.3878 -0.6606  2.0723
 1883SOL    HW2 6228   8.890   3.984   9.878 -0.6122  0.2212  1.0699
 1884SOL     OW 6229   4.106   8.792   8.940  0.0899  0.1312  0.5926
 1884SOL    HW1 6230   4.029   8.845   8.918  0.2513  0.6269  1.1877
 1884SOL    HW2 6231   4.114   8.800   9.035  0.4225 -0.5549  0.6255
 1885SOL     OW 6232   2.198   2.948   4.009 -0.1938  0.7222  0.1045
 1885SOL    HW1 6233   2.201   3.031   4.057  0.8898  1.0565 -0.5032
 1885SOL    HW2 6234   2.269   2.896   4.048 -0.6324  0.2139  0.2360
 1886SOL     OW 6235   6.910   4.108   1.393  0.2372  0.4234 -0.1820
 1886SOL    HW1 6236   6.826   4.092   1.436  1.2248  2.4051  2.7976
 1886SOL    HW2 6237   6.945   4.021   1.374 -0.7918 -0.5716  2.1546
 1887SOL     OW 6238   8.681   3.578   7.129 -0.0519 -0.1326  0.3204
 1887SOL    HW1 6239   8.672   3.670   7.103  0.9287 -0.5154 -1.5335
 1887SOL    HW2 6240   8.595   3.540   7.110 -0.0788  0.1232 -0.0849
 1888SOL     OW 6241   2.552   2.401   0.705 -0.0716 -0.2837  0.0956
 1888SOL    HW1 6242   2.600   2.319   0.697 -0.1262 -0.2921 -0.1567
 1888SOL    HW2 6243   2.540   2.431   0.615 -2.6718 -1.5151 -0.0743
 1889SOL     OW 6244   7.874   7.071   8.004 -0.3294  0.1453 -0.1202
 1889SOL    HW1 6245   7.918   7.015   8.067 -2.5638 -0.8318  0.6344
 1889SOL    HW2 6246   7.783   7.043   8.004 -0.4737 -0.0051 -3.8770
 1890SOL     OW 6247   0.142   9.178   4.839  0.6646 -0.7941  0.1781
 1890SOL    HW1 6248   0.220   9.199   4.890 -0.2421 -0.2088  1.3780
 1890SOL    HW2 6249   0.076   9.155   4.904  0.2546 -2.8509 -0.8803
 1891SOL     OW 6250   6.106   5.630   8.059  0.2444 -0.5201 -0.2541
 1891SOL    HW1 6251   6.147   5.713   8.031  0.7222 -0.8911 -0.6779
 1891SOL    HW2 6252   6.059   5.653   8.139 -0.6713  0.4483 -1.0421
 1892SOL     OW 6253   0.468   7.999   2.862  0.2437  0.3978  0.3908
 1892SOL    HW1 6254   0.385   8.041   2.842  0.9952  1.8786  0.2207
 1892SOL    HW2 6255   0.497   7.963   2.778  0.4854  1.2153  0.1189
 1893SOL     OW 6256   2.210   1.778   8.975 -0.1493  0.4921  0.2141
 1893SOL    HW1 6257   2.151   1.770   8.900  1.7318  1.2861 -1.4475
 1893SOL    HW2 6258   2.289   1.819   8.939  0.5122  1.7365  2.8234
 1894SOL     OW 6259   8.524   6.827   9.774  0.0588 -0.3477  0.0478
 1894SOL    HW1 6260   8.554   6.838   9.864  1.3105  1.2514 -0.5221
 1894SOL    HW2 6261   8.430   6.811   9.781  0.0245  0.4374  1.5961
 1895SOL     OW 6262   7.917   9.953   4.245  0.1165 -0.1532 -0.1899
 1895SOL    HW1 6263   7.881   9.933   4.159 -0.6326 -1.2012  0.3426
 1895SOL    HW2 6264   7.864  10.025   4.278  0.4876  0.3343 -0.6525
 1896SOL     OW 6265   7.278   6.328   2.431  0.0824 -0.1344 -0.5464
 1896SOL    HW1 6266   7.245   6.299   2.516 -0.4399  1.8031 -0.0494
 1896SOL    HW2 6267   7.209   6.306   2.369  0.1979 -0.9818 -0.3822
 1897SOL     OW 6268   0.037   4.295   2.618 -0.6251  0.2501 -0.5641
 1897SOL    HW1 6269   0.074   4.214   2.654 -1.2803 -0.3798 -1.2617
 1897SOL    HW2 6270  -0.017   4.330   2.688 -1.0683 -0.4165 -0.5553
 1898SOL     OW 6271   7.021   7.717   5.075  0.0681 -0.0165  0.5878
 1898SOL    HW1 6272   7.098   7.725   5.132  0.2187  1.1943  0.2455
 1898SOL    HW2 6273   7.021   7.798   5.024 -0.1710 -0.9852 -1.0012
 1899SOL     OW 6274   2.651   1.466   0.886 -0.0277  0.9077 -0.1674
 1899SOL    HW1 6275   2.744   1.468   0.908  0.4780 -1.8016 -1.5235
 1899SOL    HW2 6276   2.629   1.373   0.886 -2.9438  1.5054  0.7527
 1900SOL     OW 6277   3.303   4.002   6.005  1.0958  0.5322  0.1306
 1900SOL    HW1 6278   3.337   4.077   5.957 -0.8334  0.1247 -2.0806
 1900SOL    HW2 6279   3.315   3.928   5.945  0.7510 -0.4602  1.2534
 1901SOL     OW 6280   7.163   3.276   0.440  0.1583  0.3727  0.0064
 1901SOL    HW1 6281   7.152   3.356   0.389  2.0857  0.1489 -0.8212
 1901SOL    HW2 6282   7.171   3.306   0.531 -0.6891  0.9609 -0.0989
 1902SOL     OW 6283   4.121   1.069   9.505  0.0070  0.4978  0.4096
 1902SOL    HW1 6284   4.152   1.015   9.432 -0.4462  0.2508  0.3964
 1902SOL    HW2 6285   4.124   1.158   9.472 -1.2899  0.2975 -0.3323
 1903SOL     OW 6286   2.416   6.789   4.806  0.0448 -0.0439 -0.0295
 1903SOL    HW1 6287   2.396   6.750   4.891 -0.4199  0.7341  0.2276
 1903SOL    HW2 6288   2.500   6.751   4.781  0.0826 -0.4362  0.6729
 1904SOL     OW 6289   6.186   1.377   1.793  0.1390 -0.5061  0.2331
 1904SOL    HW1 6290   6.278   1.381   1.766 -0.2446 -1.4877 -1.3365
 1904SOL    HW2 6291   6.189   1.349   1.885  1.4049 -2.5837 -0.3665
 1905SOL     OW 6292   7.930   3.273   8.627  0.5594  0.5017 -0.0317
 1905SOL    HW1 6293   7.968   3.349   8.671  0.5881  1.2433 -1.2663
 1905SOL    HW2 6294   7.901   3.216   8.697  3.1506  0.3157  0.9675
 1906SOL     OW 6295   9.051   0.146   9.733  0.4677  0.7982 -0.2672
 1906SOL    HW1 6296   9.076   0.140   9.825 -0.7082 -0.1850  0.0198
 1906SOL    HW2 6297   9.119   0.200   9.693  1.0591  1.1526  1.1486
 1907SOL     OW 6298   9.917   1.412   1.638 -0.1197 -0.5806 -0.3596
 1907SOL    HW1 6299   9.874   1.447   1.716  0.7932 -0.1045 -0.0519
 1907SOL    HW2 6300   9.850   1.415   1.570 -0.4475  0.5318 -0.0010
 1908SOL     OW 6301   7.553   5.770   9.256  0.0068  0.1985  0.0109
 1908SOL    HW1 6302   7.589   5.797   9.172  0.3447  1.9101  0.6769
 1908SOL    HW2 6303   7.460   5.793   9.251  0.2621  1.4180  0.5166
 1909SOL     OW 6304   3.620   5.089   2.719 -0.0513 -0.0851 -0.3064
 1909SOL    HW1 6305   3.690   5.029   2.693 -0.5556 -0.7125 -0.2229
 1909SOL    HW2 6306   3.631   5.099   2.814 -0.8252 -1.1701 -0.0852
 1910SOL     OW 6307   5.483   1.321   9.035  0.6732  0.1819 -0.4847
 1910SOL    HW1 6308   5.404   1.293   9.081  0.5441  1.4046  0.0976
 1910SOL    HW2 6309   5.530   1.240   9.016 -0.6162 -0.5568 -0.6661
 1911SOL     OW 6310   4.107   6.009   9.899 -0.3204 -0.1709  0.1034
 1911SOL    HW1 6311   4.039   5.945   9.919 -1.0128 -0.0061 -1.5278
 1911SOL    HW2 6312   4.064   6.073   9.842  0.8939  0.5806 -0.0161
 1912SOL     OW 6313   0.781   0.518   9.753  0.4544 -0.0270  0.3880
 1912SOL    HW1 6314   0.741   0.605   9.761  1.6295  0.6409 -0.5604
 1912SOL    HW2 6315   0.833   0.523   9.673  2.3162 -0.8838  1.4746
 1913SOL     OW 6316   8.508   1.005   0.443 -0.1102  0.0970  0.0548
 1913SOL    HW1 6317   8.541   0.945   0.376 -0.6389  0.6408 -0.7103
 1913SOL    HW2 6318   8.456   1.069   0.394 -0.1862  0.7317  0.9441
 1914SOL     OW 6319   7.447   6.584   9.382  0.7667 -0.5139 -0.6206
 1914SOL    HW1 6320   7.405   6.670   9.378  2.1269  0.2333  0.3504
 1914SOL    HW2 6321   7.384   6.528   9.427 -0.1191 -0.0347 -1.2284
 1915SOL     OW 6322   1.587   2.885   2.463 -0.1499  0.0040 -0.2905
 1915SOL    HW1 6323   1.619   2.882   2.553 -1.2104  0.6704  0.1390
 1915SOL    HW2 6324   1.577   2.794   2.437 -1.3111 -0.2209  0.8416
 1916SOL     OW 6325   3.662   1.306   1.935  0.1013  0.3340  0.6364
 1916SOL    HW1 6326   3.698   1.312   1.846 -0.2807  0.1636  0.4655
 1916SOL    HW2 6327   3.726   1.255   1.984 -0.5131 -1.1043 -0.0013
 1917SOL     OW 6328   6.489   9.325   6.861  0.1352 -0.2114  0.0687
 1917SOL    HW1 6329   6.519   9.280   6.940  0.9732 -0.3035 -0.2873
 1917SOL    HW2 6330   6.448   9.405   6.892 -0.8803 -0.9513  0.6839
 1918SOL     OW 6331   7.017   7.982   1.043  0.7793 -0.3703 -0.0239
 1918SOL    HW1 6332   7.008   7.896   1.085 -0.2561 -1.1706 -1.7419
 1918SOL    HW2 6333   7.108   8.006   1.056  1.0521 -1.6850  0.6190
 1919SOL     OW 6334   8.696   3.323   5.705 -0.0652 -0.7458 -0.3270
 1919SOL    HW1 6335   8.784   3.356   5.682 -0.7584  1.5672  0.0895
 1919SOL    HW2 6336   8.638   3.396   5.686 -2.3449 -3.0805 -3.1347
 1920SOL     OW 6337   2.540   4.133   3.983  0.1264  0.3587 -0.0901
 1920SOL    HW1 6338   2.577   4.203   4.037 -0.9031  2.3809 -1.8089
 1920SOL    HW2 6339   2.455   4.167   3.956  0.5089 -0.5675 -2.7907
 1921SOL     OW 6340   9.799   2.470   2.233 -0.2740 -0.1638 -0.0341
 1921SOL    HW1 6341   9.766   2.506   2.316 -0.1998 -0.1268 -0.0209
 1921SOL    HW2 6342   9.835   2.546   2.187 -0.5017 -0.1494 -0.1888
 1922SOL     OW 6343   9.300   6.665   5.284  0.4485 -0.1962  0.1916
 1922SOL    HW1 6344   9.328   6.575   5.270  0.0165 -0.3642  0.4110
 1922SOL    HW2 6345   9.311   6.679   5.378  3.0205  0.8209 -0.1758
 1923SOL     OW 6346   5.264   6.236   1.853 -0.2428  0.3060 -0.5587
 1923SOL    HW1 6347   5.323   6.304   1.885  0.8314 -0.8079 -0.0900
 1923SOL    HW2 6348   5.179   6.280   1.845  0.1492  1.3976  0.8552
 1924SOL     OW 6349   2.460   9.610   7.619 -0.1336 -0.5072  0.4244
 1924SOL    HW1 6350   2.536   9.630   7.564  1.0040 -3.1919  0.8375
 1924SOL    HW2 6351   2.485   9.642   7.706 -0.3899  0.4912  0.1387
 1925SOL     OW 6352   5.769   5.822   9.957 -0.0083 -0.5094 -0.0497
 1925SOL    HW1 6353   5.706   5.778  10.015  0.1301 -2.5205 -1.2892
 1925SOL    HW2 6354   5.736   5.912   9.949 -2.2473 -1.2386  0.0824
 1926SOL     OW 6355   4.876   2.147   1.260  0.0060 -0.0199 -0.3936
 1926SOL    HW1 6356   4.966   2.116   1.249  0.1949  0.1775  0.5717
 1926SOL    HW2 6357   4.885   2.241   1.278 -0.4468  0.1690 -1.0987
 1927SOL     OW 6358   8.217   5.377   0.823 -0.1894  0.0796  0.0881
 1927SOL    HW1 6359   8.157   5.348   0.891  0.4610 -0.9590  0.2400
 1927SOL    HW2 6360   8.182   5.340   0.742 -0.4356  0.5172 -0.0084
 1928SOL     OW 6361   1.758   7.746   7.663 -0.3333 -0.7477  0.0520
 1928SOL    HW1 6362   1.799   7.785   7.586  0.3544  1.5117  1.4686
 1928SOL    HW2 6363   1.722   7.820   7.712 -1.7590 -2.2142  1.3477
 1929SOL     OW 6364   1.698   1.098   5.121 -0.0325 -0.0720 -0.1176
 1929SOL    HW1 6365   1.703   1.030   5.054 -1.0711 -0.8637  0.5806
 1929SOL    HW2 6366   1.604   1.112   5.134  0.1514  0.1800  1.0708
 1930SOL     OW 6367   6.163   6.130   6.099  0.2369 -0.0045 -0.4400
 1930SOL    HW1 6368   6.169   6.062   6.167  1.9370  0.4869 -0.0546
 1930SOL    HW2 6369   6.249   6.129   6.056  0.3276  1.9403 -0.3811
 1931SOL     OW 6370   5.400   4.054   7.194  0.5050 -0.2619  0.5388
 1931SOL    HW1 6371   5.319   4.031   7.148  0.7685  0.6834 -0.4281
 1931SOL    HW2 6372   5.370   4.095   7.275 -0.2017  3.7918 -1.4994
 1932SOL     OW 6373   7.197   5.837   3.708 -0.2083  0.3713 -0.3087
 1932SOL    HW1 6374   7.189   5.885   3.791 -0.0586 -0.4311  0.1895
 1932SOL    HW2 6375   7.291   5.835   3.691 -0.3508  2.1555 -1.5037
 1933SOL     OW 6376   9.487   0.032   6.063 -0.1603  0.6947  0.1438
 1933SOL    HW1 6377   9.397  -0.002   6.070  0.2681 -0.3152  1.0939
 1933SOL    HW2 6378   9.480   0.104   6.000 -1.3314 -0.3888 -1.0394
 1934SOL     OW 6379   5.356   5.653   0.160  0.0195 -0.4106 -0.7153
 1934SOL    HW1 6380   5.272   5.685   0.125 -1.1360 -1.2831  1.0837
 1934SOL    HW2 6381   5.352   5.558   0.148  0.1350 -0.5989  0.5291
 1935SOL     OW 6382   8.545   2.774   8.031  0.3726  0.1818 -0.2822
 1935SOL    HW1 6383   8.468   2.720   8.044 -0.2034  1.0506  0.0097
 1935SOL    HW2 6384   8.575   2.754   7.943 -0.5973  0.3409 -0.6571
 1936SOL     OW 6385   6.978   4.763   0.046 -0.1981  0.3964  0.8462
 1936SOL    HW1 6386   7.040   4.812  -0.009 -1.7836  0.8157 -0.6415
 1936SOL    HW2 6387   7.030   4.691   0.081  1.3200  1.1411  0.2289
 1937SOL     OW 6388   5.402   8.732   9.301  0.3858  0.1544 -0.1407
 1937SOL    HW1 6389   5.407   8.824   9.275  0.0450  0.3265  0.3952
 1937SOL    HW2 6390   5.425   8.684   9.222  0.3780  0.6956 -0.4785
 1938SOL     OW 6391   4.866   4.954   6.266  0.0175 -0.0322  0.0630
 1938SOL    HW1 6392   4.858   5.035   6.215  0.2728  1.3750  2.1370
 1938SOL    HW2 6393   4.957   4.928   6.255  0.4316  1.0188  0.8459
 1939SOL     OW 6394   6.657   3.036   3.499 -0.1134  0.2453 -0.0949
 1939SOL    HW1 6395   6.716   2.964   3.525  1.0402  0.5966 -1.6416
 1939SOL    HW2 6396   6.667   3.101   3.569  0.3389 -0.2601  0.3238
 1940SOL     OW 6397   8.872   3.447   9.322  0.0425 -0.2778  0.2691
 1940SOL    HW1 6398   8.859   3.378   9.257  0.8095 -1.2453  1.0994
 1940SOL    HW2 6399   8.930   3.407   9.387  0.4481  1.1352  0.8091
 1941SOL     OW 6400   6.143   9.895   2.997 -0.0348 -0.1407  0.2063
 1941SOL    HW1 6401   6.216   9.915   2.938  0.2378  0.0681  0.6065
 1941SOL    HW2 6402   6.076   9.960   2.975 -0.6785 -1.2166 -1.1392
 1942SOL     OW 6403   3.679   0.257   6.086 -0.4019 -0.1932  0.1585
 1942SOL    HW1 6404   3.652   0.199   6.015 -1.6431 -1.0124  1.2605
 1942SOL    HW2 6405   3.616   0.329   6.085  0.7337  0.8307 -0.7741
 1943SOL     OW 6406   9.850   5.700   2.427  0.7133 -0.7875  0.0133
 1943SOL    HW1 6407   9.807   5.778   2.463  1.9188  1.2455 -2.6588
 1943SOL    HW2 6408   9.781   5.655   2.379  0.1321 -1.1634  1.1460
 1944SOL     OW 6409   7.312   0.335   2.488  0.2086 -0.0056 -0.2233
 1944SOL    HW1 6410   7.322   0.300   2.400  0.5635 -1.5735  0.4115
 1944SOL    HW2 6411   7.266   0.266   2.537  2.2294 -0.2727  1.4400
 1945SOL     OW 6412   6.969   8.674   3.044 -0.2513 -0.1911 -0.0533
 1945SOL    HW1 6413   6.943   8.590   3.005  0.1905 -1.1455  1.6034
 1945SOL    HW2 6414   6.961   8.660   3.138 -0.8798  1.8919  0.2644
 1946SOL     OW 6415   5.089   8.875   6.273  0.1542  0.1018 -0.4569
 1946SOL    HW1 6416   4.996   8.893   6.281 -0.3734 -2.4358  0.1334
 1946SOL    HW2 6417   5.100   8.850   6.181  0.1588 -0.0464 -0.4162
 1947SOL     OW 6418   3.653   8.679   3.949 -0.0514  0.1795  0.3898
 1947SOL    HW1 6419   3.715   8.730   4.001  2.8950 -0.7427 -1.9085
 1947SOL    HW2 6420   3.604   8.744   3.899 -0.1868  0.9129  1.4657
 1948SOL     OW 6421   5.777   4.519   9.541  0.4749  0.4729 -0.0842
 1948SOL    HW1 6422   5.728   4.564   9.611 -0.6923 -0.9417  0.0588
 1948SOL    HW2 6423   5.749   4.563   9.461 -0.8902 -0.1390  0.0208
 1949SOL     OW 6424   1.505   3.203   1.809  0.2496 -0.2475 -0.0743
 1949SOL    HW1 6425   1.524   3.133   1.746  0.0690 -1.1504  0.8507
 1949SOL    HW2 6426   1.590   3.223   1.848  0.2289 -0.2635 -0.0217
 1950SOL     OW 6427   9.295   5.934   6.341  0.2911  0.2592  0.1158
 1950SOL    HW1 6428   9.319   6.026   6.336 -2.9779  1.2092 -0.1196
 1950SOL    HW2 6429   9.242   5.927   6.421  0.7916 -1.5317  0.3452
 1951SOL     OW 6430   1.327   2.505   6.602  0.1915  0.0334 -0.0986
 1951SOL    HW1 6431   1.372   2.570   6.548 -0.3633  0.3686 -0.1719
 1951SOL    HW2 6432   1.370   2.422   6.582 -0.0411  0.1423 -1.0962
 1952SOL     OW 6433   3.913   2.909   6.073  0.1544 -0.2476 -0.2276
 1952SOL    HW1 6434   3.819   2.923   6.064 -0.0948 -1.3209  0.6377
 1952SOL    HW2 6435   3.939   2.869   5.990  0.1133  1.2786 -1.0134
 1953SOL     OW 6436   3.401   2.196   7.078  0.1162 -0.0217  0.0632
 1953SOL    HW1 6437   3.404   2.175   7.171 -1.4217  1.2130  0.4388
 1953SOL    HW2 6438   3.455   2.129   7.036 -1.3019 -2.2576  1.5599
 1954SOL     OW 6439   0.801   5.816   0.238 -0.0333 -0.5202 -0.1127
 1954SOL    HW1 6440   0.738   5.880   0.205  0.5732  1.4369  2.1730
 1954SOL    HW2 6441   0.756   5.732   0.233 -2.6893  0.7253  0.9202
 1955SOL     OW 6442   4.025   9.674   5.717  0.4311 -0.1247 -0.0976
 1955SOL    HW1 6443   3.949   9.705   5.666 -1.5769 -0.6550  2.3552
 1955SOL    HW2 6444   4.100   9.712   5.672 -1.3862  1.9532 -1.6680
 1956SOL     OW 6445   6.363   0.096   9.859 -0.1791  0.3740  0.0911
 1956SOL    HW1 6446   6.308   0.136   9.792 -0.9426 -1.5845 -0.5241
 1956SOL    HW2 6447   6.305   0.035   9.904  0.8635  0.1255  1.1415
 1957SOL     OW 6448   8.272   3.674   0.704 -0.5067  0.0370 -0.1242
 1957SOL    HW1 6449   8.275   3.677   0.800 -0.0502  1.2524 -0.1586
 1957SOL    HW2 6450   8.207   3.607   0.684 -2.1152  1.1657  1.0544
 1958SOL     OW 6451   3.683   4.157   9.786  0.1906  0.1676 -0.5390
 1958SOL    HW1 6452   3.778   4.167   9.789  0.0325  1.7714  1.4546
 1958SOL    HW2 6453   3.656   4.154   9.878 -1.7246  0.1886 -1.0586
 1959SOL     OW 6454   7.946   8.676   3.556  0.0977 -0.2797 -0.4336
 1959SOL    HW1 6455   7.955   8.639   3.468  1.3869 -1.5093  0.1834
 1959SOL    HW2 6456   8.030   8.718   3.573 -0.0891 -0.1880  0.2741
 1960SOL     OW 6457   6.312   6.144   0.535  0.1319 -0.4650  0.2032
 1960SOL    HW1 6458   6.386   6.110   0.485  1.7049  0.4245  1.8465
 1960SOL    HW2 6459   6.300   6.081   0.606 -0.3327 -0.3132  0.2641
 1961SOL     OW 6460   0.207   9.571   8.233  0.6567 -0.0466  0.3265
 1961SOL    HW1 6461   0.182   9.538   8.147  0.0869 -0.2798  0.5789
 1961SOL    HW2 6462   0.237   9.494   8.281 -1.0537 -0.3028  1.0522
 1962SOL     OW 6463   3.248   1.848   1.990  0.0535 -0.4271  0.7002
 1962SOL    HW1 6464   3.224   1.877   1.902 -3.0090 -1.4389  1.0863
 1962SOL    HW2 6465   3.330   1.801   1.979  0.5467  0.7927 -1.3161
 1963SOL     OW 6466   0.123   8.327   3.854  0.0310  0.4821 -0.1564
 1963SOL    HW1 6467   0.163   8.252   3.811 -1.5897  0.0926 -1.0527
 1963SOL    HW2 6468   0.030   8.307   3.856 -0.7304  3.1980 -2.0099
 1964SOL     OW 6469   5.557   4.949   7.311 -0.1614 -0.1796  0.2452
 1964SOL    HW1 6470   5.478   4.896   7.323 -0.3804  0.0157 -0.2842
 1964SOL    HW2 6471   5.527   5.027   7.263  0.4168 -0.3132 -0.3603
 1965SOL     OW 6472   2.221   0.054   2.736  0.2154  0.4175 -0.0128
 1965SOL    HW1 6473   2.208   0.104   2.816  0.8854  0.4608  0.0735
 1965SOL    HW2 6474   2.311   0.072   2.711 -0.2059  0.9899 -1.1901
 1966SOL     OW 6475   9.689   9.032   0.867 -0.3438  0.5187  0.2973
 1966SOL    HW1 6476   9.733   8.947   0.863 -2.3363 -0.5314 -2.4961
 1966SOL    HW2 6477   9.755   9.095   0.839  0.5865 -0.3857  0.4173
 1967SOL     OW 6478   2.711   6.539   2.082  0.4941 -0.1606 -0.2510
 1967SOL    HW1 6479   2.638   6.503   2.031 -0.9238  0.6445  1.1015
 1967SOL    HW2 6480   2.784   6.479   2.066 -1.0842 -2.2814  0.0320
 1968SOL     OW 6481   5.625   6.326   5.254  0.1514 -0.5800  0.1936
 1968SOL    HW1 6482   5.531   6.340   5.269  0.1819  0.6105 -0.5805
 1968SOL    HW2 6483   5.631   6.294   5.164  0.4338 -1.6198  0.5659
 1969SOL     OW 6484   1.283   2.841   6.744  0.6600  0.3411  0.0135
 1969SOL    HW1 6485   1.282   2.754   6.783  1.9939  0.1620 -0.2804
 1969SOL    HW2 6486   1.334   2.830   6.663 -0.0510  1.1793 -0.5734
 1970SOL     OW 6487   9.260   2.057   7.636 -0.1637  0.4585  0.3988
 1970SOL    HW1 6488   9.335   1.997   7.639  1.1848  1.9316 -1.3098
 1970SOL    HW2 6489   9.188   2.004   7.602  0.6183 -0.5101  0.2112
 1971SOL     OW 6490   2.196   2.814   1.467 -0.5907 -0.2330 -0.0848
 1971SOL    HW1 6491   2.188   2.864   1.549 -0.0985 -1.6357  0.8651
 1971SOL    HW2 6492   2.152   2.868   1.402 -2.1078  0.3623  1.3572
 1972SOL     OW 6493   3.258   3.642   0.100 -0.2265  0.1770 -0.0310
 1972SOL    HW1 6494   3.250   3.612   0.010  1.3153  1.8545 -0.7754
 1972SOL    HW2 6495   3.183   3.701   0.113  0.0312  0.6138 -0.5092
 1973SOL     OW 6496   2.503   2.602   6.901 -0.2635  0.0018  0.2474
 1973SOL    HW1 6497   2.591   2.639   6.910 -1.0436  1.8710  0.7638
 1973SOL    HW2 6498   2.509   2.515   6.941  1.3136  0.1380  0.3681
 1974SOL     OW 6499   4.184   8.422   5.963 -0.0805  0.0665  0.0872
 1974SOL    HW1 6500   4.215   8.508   5.991 -0.9833  0.6343 -0.6001
 1974SOL    HW2 6501   4.252   8.390   5.902  1.6998 -1.0085  2.4597
 1975SOL     OW 6502   9.589   8.509   0.424 -0.2838  0.1322 -0.1909
 1975SOL    HW1 6503   9.496   8.516   0.403 -0.4069  1.4329  0.6520
 1975SOL    HW2 6504   9.609   8.590   0.472  1.3546  0.0214 -0.6206
 1976SOL     OW 6505   3.010   7.617   8.644 -0.1386  0.4440  0.0926
 1976SOL    HW1 6506   3.007   7.546   8.580  0.2234 -0.4684  1.0547
 1976SOL    HW2 6507   3.092   7.603   8.692 -0.3087  1.2080  0.6310
 1977SOL     OW 6508   2.622   4.486   8.407 -0.4422  0.3987  0.7018
 1977SOL    HW1 6509   2.654   4.475   8.317  4.4573 -0.0548  2.2180
 1977SOL    HW2 6510   2.576   4.404   8.425  2.9721 -1.9114  0.0005
 1978SOL     OW 6511   2.201   3.217   4.141 -0.4865  0.3640 -0.8477
 1978SOL    HW1 6512   2.163   3.301   4.117 -1.9641  0.1286  0.4853
 1978SOL    HW2 6513   2.293   3.223   4.114 -0.5948  2.3396 -0.9097
 1979SOL     OW 6514   4.118   9.216   7.399  0.3830  0.2379 -0.0684
 1979SOL    HW1 6515   4.060   9.141   7.415  1.3256 -0.4564  0.2012
 1979SOL    HW2 6516   4.185   9.209   7.467  1.0417  0.7605 -0.6478
 1980SOL     OW 6517   6.266   6.885   5.896 -0.8262  0.4494  0.2933
 1980SOL    HW1 6518   6.341   6.934   5.862 -0.8418 -1.3106 -2.6024
 1980SOL    HW2 6519   6.292   6.793   5.889 -2.1730 -0.1452  2.1255
 1981SOL     OW 6520   4.499   5.943   4.450  0.0972  0.0190 -0.3185
 1981SOL    HW1 6521   4.512   5.858   4.407  2.4248 -0.2276  0.7234
 1981SOL    HW2 6522   4.568   5.999   4.414 -1.3094  1.4698 -0.8783
 1982SOL     OW 6523   8.813   7.104   6.705 -0.2917 -0.0825 -0.0211
 1982SOL    HW1 6524   8.790   7.054   6.784  0.4630 -0.3743  0.0190
 1982SOL    HW2 6525   8.783   7.193   6.724  0.9041  0.1215  1.0860
 1983SOL     OW 6526   0.766   1.426   7.028  0.0639  0.1541 -0.8548
 1983SOL    HW1 6527   0.834   1.389   6.971 -1.5478 -2.3648 -1.3300
 1983SOL    HW2 6528   0.732   1.501   6.979  0.8042 -0.0919 -1.7823
 1984SOL     OW 6529   2.987   4.937   2.898 -0.4250 -0.2242  0.0890
 1984SOL    HW1 6530   2.998   5.025   2.934  1.2906 -0.8255  1.1517
 1984SOL    HW2 6531   2.939   4.950   2.816  0.4475  1.7753 -0.1526
 1985SOL     OW 6532   9.074   8.088   9.116  0.3415  0.3211  0.6334
 1985SOL    HW1 6533   9.025   8.153   9.166  1.0269  0.6394  0.9104
 1985SOL    HW2 6534   9.008   8.026   9.085 -0.0399 -0.2547  2.4690
 1986SOL     OW 6535   8.848   7.220   8.299 -0.2054  0.1528 -0.0554
 1986SOL    HW1 6536   8.901   7.258   8.228 -0.0062  0.0438  0.0331
 1986SOL    HW2 6537   8.799   7.150   8.256  0.9915 -0.8671  0.1891
 1987SOL     OW 6538   2.634   4.347   6.447 -0.2755  0.3480 -0.8403
 1987SOL    HW1 6539   2.551   4.335   6.494  0.2513  0.6345  0.1858
 1987SOL    HW2 6540   2.642   4.269   6.393  0.0272 -0.9416  0.9796
 1988SOL     OW 6541   3.683   4.860   5.720  0.5689  0.0915 -0.4552
 1988SOL    HW1 6542   3.753   4.893   5.776  2.0217 -1.3109 -1.3592
 1988SOL    HW2 6543   3.666   4.931   5.658  2.0643  0.0335 -0.9680
 1989SOL     OW 6544   0.596   1.740   7.159 -0.1955  0.8629  0.3397
 1989SOL    HW1 6545   0.553   1.810   7.210 -1.3980 -0.3182  0.9929
 1989SOL    HW2 6546   0.635   1.684   7.226 -2.8763 -1.4249  0.1412
 1990SOL     OW 6547   6.551   5.667   0.967  0.0364  0.6669  0.1226
 1990SOL    HW1 6548   6.638   5.649   0.932 -0.7643  0.3429 -1.8321
 1990SOL    HW2 6549   6.540   5.762   0.957 -0.4979  0.4726 -1.3580
 1991SOL     OW 6550   2.541   2.603   5.931  0.6458  0.2737 -0.1896
 1991SOL    HW1 6551   2.596   2.526   5.944  1.3532  0.7897 -0.0448
 1991SOL    HW2 6552   2.460   2.584   5.979 -0.7766 -1.9533 -3.1638
 1992SOL     OW 6553   2.763   7.600   6.425  0.1892 -0.2106 -0.7350
 1992SOL    HW1 6554   2.855   7.592   6.402  0.6303 -0.5799  0.9704
 1992SOL    HW2 6555   2.728   7.511   6.414  0.3283 -0.3233 -0.2882
 1993SOL     OW 6556   2.688   2.993   1.195 -0.5445  0.2983  0.3119
 1993SOL    HW1 6557   2.694   3.087   1.209  0.3518  0.7886 -2.6694
 1993SOL    HW2 6558   2.778   2.962   1.201 -0.7789 -0.3041  0.8221
 1994SOL     OW 6559   7.633   0.677   0.867  0.4037 -0.2223  0.3714
 1994SOL    HW1 6560   7.666   0.745   0.926 -0.0997  0.0666  0.3175
 1994SOL    HW2 6561   7.539   0.691   0.862  0.4982  0.1197 -0.9562
 1995SOL     OW 6562   0.328   9.589   8.583  0.0557  0.4973 -0.0040
 1995SOL    HW1 6563   0.237   9.593   8.613  0.3976  1.2938  1.0253
 1995SOL    HW2 6564   0.336   9.504   8.540 -0.7898 -0.2633  1.2583
 1996SOL     OW 6565   7.281   3.498   5.816  0.2417 -0.0170 -0.2826
 1996SOL    HW1 6566   7.286   3.536   5.904  0.5814 -0.0220 -0.2960
 1996SOL    HW2 6567   7.236   3.564   5.763 -0.1209 -0.0891 -0.0652
 1997SOL     OW 6568   9.996   4.669   1.112 -0.0336 -0.0481 -0.1711
 1997SOL    HW1 6569   9.958   4.584   1.134 -0.8625  0.0545 -1.0961
 1997SOL    HW2 6570   9.924   4.732   1.125  0.2092  0.3409 -0.6492
 1998SOL     OW 6571   3.225   1.806   9.626  0.6456 -0.2051 -0.3525
 1998SOL    HW1 6572   3.169   1.744   9.581  0.5044  0.5188 -1.1934
 1998SOL    HW2 6573   3.281   1.843   9.558  0.0826  1.2810 -0.0511
 1999SOL     OW 6574   8.465   5.898   3.095 -0.2959  0.6034  0.8588
 1999SOL    HW1 6575   8.389   5.934   3.048 -0.7658  0.3089  1.3858
 1999SOL    HW2 6576   8.539   5.914   3.036 -0.7990  0.6970  0.2423
 2000SOL     OW 6577   3.463   1.094   6.158  0.1746  0.1923 -0.4126
 2000SOL    HW1 6578   3.478   1.022   6.219  0.4240  0.4767 -0.1411
 2000SOL    HW2 6579   3.394   1.061   6.099 -0.5876  0.1860  0.4663
 2001SOL     OW 6580   2.831   1.500   2.552  0.3299 -0.0885  0.2068
 2001SOL    HW1 6581   2.788   1.459   2.477 -0.4682  0.6325  0.2421
 2001SOL    HW2 6582   2.760   1.547   2.597  0.7112 -0.8765  1.6745
 2002SOL     OW 6583   8.303   3.004   7.203  0.5800  0.5829  0.4223
 2002SOL    HW1 6584   8.366   3.013   7.274  0.1394  0.6391  0.8077
 2002SOL    HW2 6585   8.218   3.026   7.242  0.5218  2.1466 -0.4816
 2003SOL     OW 6586   3.079   2.188   1.256  0.3862  0.2044 -0.3414
 2003SOL    HW1 6587   3.113   2.277   1.265  1.5244 -0.3971  1.8892
 2003SOL    HW2 6588   3.116   2.157   1.173 -0.2656  1.8477 -1.3148
 2004SOL     OW 6589   3.983   9.669   8.703 -0.6783 -0.1657 -0.2791
 2004SOL    HW1 6590   3.977   9.598   8.640  1.4939 -0.3364 -0.3731
 2004SOL    HW2 6591   3.983   9.749   8.650  3.0308 -0.3498 -0.8252
 2005SOL     OW 6592   5.771   2.555   8.596 -0.1298 -0.1662 -0.1961
 2005SOL    HW1 6593   5.786   2.637   8.644 -0.8633 -0.8054  1.2018
 2005SOL    HW2 6594   5.859   2.526   8.570  0.1848  0.7638 -0.1941
 2006SOL     OW 6595   1.553   5.754   2.824 -0.0068 -0.1327 -0.0271
 2006SOL    HW1 6596   1.490   5.826   2.828  0.6877  0.4478  1.9825
 2006SOL    HW2 6597   1.503   5.680   2.790 -1.1692  0.8747 -0.6031
 2007SOL     OW 6598   1.953   1.014   2.157  0.4794  0.6212 -0.3133
 2007SOL    HW1 6599   1.891   1.046   2.223 -1.7231 -1.0234 -1.4589
 2007SOL    HW2 6600   1.903   1.012   2.076  2.7053  1.2470 -1.7952
 2008SOL     OW 6601   0.105   1.984   3.390 -0.1008 -0.4244 -0.1542
 2008SOL    HW1 6602   0.065   1.904   3.357  0.5326 -0.9832  0.4126
 2008SOL    HW2 6603   0.129   1.964   3.481 -1.2139  0.8674  0.4547
 2009SOL     OW 6604   4.867   5.147   9.459  0.7582 -0.7245  0.0357
 2009SOL    HW1 6605   4.857   5.147   9.554  0.1684 -0.5034 -0.0236
 2009SOL    HW2 6606   4.856   5.055   9.434 -1.1135 -0.5242 -0.0075
 2010SOL     OW 6607   1.937   4.836   1.521 -0.6883  0.0800  0.6594
 2010SOL    HW1 6608   1.890   4.918   1.530 -2.5505 -1.0503  1.8417
 2010SOL    HW2 6609   1.886   4.786   1.457  0.6994 -0.0165 -0.4290
 2011SOL     OW 6610   5.939   0.802   8.472  0.1869 -0.1792 -0.3602
 2011SOL    HW1 6611   5.962   0.779   8.383  0.8943 -0.0814 -0.2051
 2011SOL    HW2 6612   5.985   0.738   8.526  0.1412  0.0515 -0.0447
 2012SOL     OW 6613   2.016   9.712   2.055  0.1948  0.0094 -0.1350
 2012SOL    HW1 6614   2.057   9.635   2.094  1.4909 -0.8504 -2.9026
 2012SOL    HW2 6615   2.087   9.757   2.010 -1.1619  0.7906 -1.6100
 2013SOL     OW 6616   3.267   0.323   7.420 -0.0719 -0.3833 -0.0985
 2013SOL    HW1 6617   3.298   0.254   7.479  2.3478 -0.3634 -1.2544
 2013SOL    HW2 6618   3.231   0.389   7.479 -0.7962 -1.7859  1.1355
 2014SOL     OW 6619   9.113   5.771   7.768  0.0274  0.1801  0.2010
 2014SOL    HW1 6620   9.033   5.803   7.727 -1.0494 -0.9917  1.2869
 2014SOL    HW2 6621   9.083   5.712   7.837  1.8391 -0.4671  0.5022
 2015SOL     OW 6622   8.643   9.738   3.659 -0.3477 -0.1449 -0.1078
 2015SOL    HW1 6623   8.553   9.762   3.639 -0.6733 -2.2920 -1.5201
 2015SOL    HW2 6624   8.696   9.802   3.612 -1.1647 -0.7289 -1.9187
 2016SOL     OW 6625   2.866   8.846   3.827  0.6139 -0.0756  0.3493
 2016SOL    HW1 6626   2.896   8.769   3.779  0.2098 -0.4147  0.6259
 2016SOL    HW2 6627   2.772   8.831   3.838  0.4974  0.5493  0.2440
 2017SOL     OW 6628   5.334   8.797   2.796 -0.3891  0.2792 -0.4805
 2017SOL    HW1 6629   5.358   8.872   2.851 -0.5219 -0.2441  0.3040
 2017SOL    HW2 6630   5.252   8.824   2.753  0.1457  1.0089 -1.0799
 2018SOL     OW 6631   6.857   9.210   9.942  0.3698 -0.0111  0.4225
 2018SOL    HW1 6632   6.856   9.158   9.862  0.9242  2.0486 -1.0064
 2018SOL    HW2 6633   6.942   9.191   9.983  1.3598  1.0975 -1.0398
 2019SOL     OW 6634   3.865   6.827   4.272 -0.0886  0.1046 -0.2431
 2019SOL    HW1 6635   3.863   6.744   4.321 -0.0696  0.2094 -0.0650
 2019SOL    HW2 6636   3.940   6.874   4.308 -0.4486  0.4491  0.0628
 2020SOL     OW 6637   1.786   2.636   4.603  0.0206  0.1202  0.2310
 2020SOL    HW1 6638   1.878   2.610   4.599 -0.3145 -1.1235  0.2974
 2020SOL    HW2 6639   1.766   2.669   4.515  1.2059  2.9189  0.8996
 2021SOL     OW 6640   4.602   4.665   3.476  0.7779  0.5124  0.3116
 2021SOL    HW1 6641   4.601   4.727   3.403 -1.7575 -0.7852 -0.8470
 2021SOL    HW2 6642   4.636   4.584   3.438  1.4750  0.4002  1.1467
 2022SOL     OW 6643   4.895   0.796   4.903 -0.6209  0.0892  0.4092
 2022SOL    HW1 6644   4.865   0.709   4.931  0.9570 -0.7593 -0.4217
 2022SOL    HW2 6645   4.870   0.802   4.811 -1.7809  1.0376  0.7570
 2023SOL     OW 6646   2.267   0.553   5.303  0.1869 -0.1408  0.2642
 2023SOL    HW1 6647   2.198   0.568   5.239  1.1299  0.4006 -0.6742
 2023SOL    HW2 6648   2.225   0.564   5.388 -0.7009  0.9312 -0.2921
 2024SOL     OW 6649   2.498   1.864   4.182  0.4031 -0.5060 -0.6069
 2024SOL    HW1 6650   2.593   1.874   4.191  0.4005  1.1819 -2.0100
 2024SOL    HW2 6651   2.466   1.860   4.272  1.7795 -0.8099 -0.1117
 2025SOL     OW 6652   7.818   3.106   2.377 -0.0734  0.2228 -0.3322
 2025SOL    HW1 6653   7.770   3.077   2.299 -3.2421  2.2838  0.6322
 2025SOL    HW2 6654   7.868   3.182   2.348  0.8787 -0.6129 -0.8985
 2026SOL     OW 6655   7.614   3.675   2.436  0.6142  0.2503 -0.0489
 2026SOL    HW1 6656   7.521   3.682   2.413  0.5378  1.2219  0.4699
 2026SOL    HW2 6657   7.619   3.596   2.490  0.5869 -1.3554 -2.2661
 2027SOL     OW 6658   6.114   9.636   7.556  0.5001  0.4650  0.4849
 2027SOL    HW1 6659   6.027   9.667   7.529  0.1429  0.4011  1.5279
 2027SOL    HW2 6660   6.128   9.558   7.503 -0.4573 -0.0181  0.9140
 2028SOL     OW 6661   3.516   2.070   5.146 -0.1818 -0.2298  0.1615
 2028SOL    HW1 6662   3.570   2.139   5.106 -1.2516  0.9027  0.6159
 2028SOL    HW2 6663   3.480   2.111   5.225 -0.7471 -1.3679  0.5092
 2029SOL     OW 6664   3.015   9.703   4.134  0.0867  0.2898  0.6857
 2029SOL    HW1 6665   3.064   9.639   4.083  1.2678  0.4214  1.6150
 2029SOL    HW2 6666   2.931   9.661   4.150  0.2159 -0.3230 -0.1466
 2030SOL     OW 6667   1.416   0.628   9.967  0.0600 -0.1890 -0.5785
 2030SOL    HW1 6668   1.475   0.555   9.952 -1.4081 -1.4728 -0.4153
 2030SOL    HW2 6669   1.381   0.648   9.881  0.4800  0.3468 -0.6260
 2031SOL     OW 6670   5.769   9.802   8.356  0.7046 -0.1316  0.6123
 2031SOL    HW1 6671   5.709   9.808   8.429  1.5394 -0.3837  1.3397
 2031SOL    HW2 6672   5.716   9.771   8.283 -0.4640  1.5596  0.6953
 2032SOL     OW 6673   4.250   8.716   4.578 -0.4373 -0.1567 -0.3379
 2032SOL    HW1 6674   4.254   8.735   4.484  0.8965  1.0458 -0.0611
 2032SOL    HW2 6675   4.341   8.718   4.607 -0.8214 -0.6832  0.9600
 2033SOL     OW 6676   6.214   1.414   7.797 -0.2201 -0.3657 -0.0946
 2033SOL    HW1 6677   6.183   1.369   7.719 -0.1120 -1.6447  0.5586
 2033SOL    HW2 6678   6.143   1.473   7.821 -1.0315 -1.2951 -0.1448
 2034SOL     OW 6679   9.401   1.059   7.941 -0.3334 -0.1871 -0.4242
 2034SOL    HW1 6680   9.335   1.020   7.884  0.4266 -0.6988 -0.9629
 2034SOL    HW2 6681   9.479   1.065   7.887 -0.3368  1.8587 -0.2786
 2035SOL     OW 6682   1.295   5.242   3.821 -0.0345 -0.5019  0.0279
 2035SOL    HW1 6683   1.318   5.153   3.850  0.0088 -0.0737  1.3728
 2035SOL    HW2 6684   1.352   5.258   3.746  1.2925 -0.9410  0.8991
 2036SOL     OW 6685   4.261   1.453   7.439  0.1486 -0.0518  0.5154
 2036SOL    HW1 6686   4.250   1.365   7.476  1.9351 -0.8774 -0.7470
 2036SOL    HW2 6687   4.281   1.508   7.514  2.4223 -1.4332  1.0408
 2037SOL     OW 6688   7.089   8.589   1.887  0.1740 -0.4461 -0.2244
 2037SOL    HW1 6689   7.132   8.515   1.843  1.3008 -0.1295  0.3016
 2037SOL    HW2 6690   7.028   8.624   1.822  0.3170 -1.2581 -0.8027
 2038SOL     OW 6691   8.024   2.983   2.529 -0.6495  0.0663  0.4727
 2038SOL    HW1 6692   8.017   2.910   2.590 -1.9267  0.2461  0.5892
 2038SOL    HW2 6693   7.938   3.026   2.534 -0.8732 -0.0458 -1.6180
 2039SOL     OW 6694   3.268   9.580   1.936 -0.1344  0.0017 -0.0040
 2039SOL    HW1 6695   3.208   9.638   1.983  0.6200 -0.4634  1.5726
 2039SOL    HW2 6696   3.230   9.573   1.848 -2.4403 -0.3395  0.9559
 2040SOL     OW 6697   5.613   9.331   7.383 -0.1694  0.3276  0.1687
 2040SOL    HW1 6698   5.602   9.348   7.476  3.0860  1.6349  0.4367
 2040SOL    HW2 6699   5.616   9.418   7.343  0.6316 -0.1324 -0.8067
 2041SOL     OW 6700   3.081   7.602   4.825  0.0620  0.6700  0.1887
 2041SOL    HW1 6701   3.125   7.541   4.767 -0.1377  0.9953 -0.3065
 2041SOL    HW2 6702   3.003   7.630   4.777 -0.9674 -0.2699  1.2339
 2042SOL     OW 6703   8.849   3.436   8.999 -0.3330 -0.5383 -0.1650
 2042SOL    HW1 6704   8.890   3.415   8.915  0.3005 -0.2771  0.0728
 2042SOL    HW2 6705   8.776   3.375   9.006  0.3210 -1.3590 -0.3671
 2043SOL     OW 6706   3.132   4.377   8.142  0.0019  0.4360 -0.1035
 2043SOL    HW1 6707   3.172   4.329   8.071  1.9181  2.4732 -0.5262
 2043SOL    HW2 6708   3.168   4.338   8.222  0.2366  0.1090 -0.3729
 2044SOL     OW 6709   2.875   3.020   6.696  0.2401 -0.1396 -0.0299
 2044SOL    HW1 6710   2.876   2.981   6.609  0.7083 -0.6211  0.1910
 2044SOL    HW2 6711   2.889   3.113   6.680 -0.7979 -0.0485 -0.5522
 2045SOL     OW 6712   2.063   3.390   8.358  0.0525 -0.1631 -0.3747
 2045SOL    HW1 6713   1.985   3.444   8.352  0.3109  0.1191 -1.3113
 2045SOL    HW2 6714   2.030   3.302   8.374 -0.3718  0.2407  1.1516
 2046SOL     OW 6715   3.494   6.121   0.465  0.5366 -0.7698 -0.1694
 2046SOL    HW1 6716   3.556   6.100   0.395  2.3082 -1.1983  1.4654
 2046SOL    HW2 6717   3.501   6.048   0.526 -0.8545 -0.3220  0.5589
 2047SOL     OW 6718   3.437   6.984   3.717 -0.0531 -0.0619  0.2243
 2047SOL    HW1 6719   3.524   6.987   3.757 -0.3765  1.7578  0.9036
 2047SOL    HW2 6720   3.454   6.968   3.624  0.9196 -1.0435  0.5508
 2048SOL     OW 6721   6.900   8.368   2.941 -0.8286 -0.6122 -0.1639
 2048SOL    HW1 6722   6.846   8.391   3.017  0.9616  0.2514  0.9270
 2048SOL    HW2 6723   6.887   8.274   2.930 -2.0155 -0.5428  0.4767
 2049SOL     OW 6724   9.187   7.102   4.245  0.4397 -0.1100  0.6927
 2049SOL    HW1 6725   9.254   7.096   4.314  0.1390  1.2980  1.1378
 2049SOL    HW2 6726   9.134   7.023   4.257  1.6435 -0.9418  0.7173
 2050SOL     OW 6727   8.167   0.176   1.588 -0.1973 -0.1477 -0.0522
 2050SOL    HW1 6728   8.188   0.134   1.671 -1.3966  0.3049  0.4995
 2050SOL    HW2 6729   8.073   0.158   1.575 -0.3829  1.0774 -0.5366
 2051SOL     OW 6730   8.942   8.671   0.880 -0.0390 -0.2389  0.0917
 2051SOL    HW1 6731   9.001   8.597   0.865 -0.8638 -0.8042 -0.4025
 2051SOL    HW2 6732   8.964   8.733   0.811  1.0178  0.2260  0.8183
 2052SOL     OW 6733   6.690   1.572   0.452  0.2677  0.5043 -0.1800
 2052SOL    HW1 6734   6.684   1.481   0.480 -4.1774  0.9897  1.2277
 2052SOL    HW2 6735   6.638   1.576   0.372 -0.2890  1.9104  0.2195
 2053SOL     OW 6736   3.631   4.379   0.785  0.1964  0.5812  0.3215
 2053SOL    HW1 6737   3.597   4.331   0.861 -2.1977  2.0472  0.2861
 2053SOL    HW2 6738   3.611   4.323   0.710  0.4762  0.1546  0.5612
 2054SOL     OW 6739   9.996   3.834   2.807 -0.0770  0.1241 -0.2956
 2054SOL    HW1 6740   9.908   3.835   2.770 -0.6032 -0.9081  0.8563
 2054SOL    HW2 6741   9.999   3.910   2.865  0.1459  0.7263 -1.0794
 2055SOL     OW 6742   5.771   2.615   6.131 -0.3022 -0.2447 -0.1231
 2055SOL    HW1 6743   5.716   2.653   6.062 -1.9500 -1.0016  0.7103
 2055SOL    HW2 6744   5.721   2.628   6.211  0.1194 -2.1379  0.5027
 2056SOL     OW 6745   5.574   7.958   5.873 -0.7432 -0.2411  0.1912
 2056SOL    HW1 6746   5.648   7.913   5.914  0.8867  1.4233 -0.7424
 2056SOL    HW2 6747   5.573   7.925   5.783 -2.0194 -1.2247  0.5381
 2057SOL     OW 6748   9.924   1.195   9.431 -0.4612  0.2547  0.5005
 2057SOL    HW1 6749   9.829   1.186   9.418 -0.1739 -2.5001 -0.2474
 2057SOL    HW2 6750   9.945   1.132   9.499  1.1489 -1.0096 -1.0702
 2058SOL     OW 6751   4.951   7.851   9.619  0.0974  0.3266  0.5559
 2058SOL    HW1 6752   4.960   7.834   9.525 -1.2084 -1.2248  0.6530
 2058SOL    HW2 6753   4.871   7.805   9.644  0.6735  0.2867  2.5341
 2059SOL     OW 6754   6.113   4.231   2.964 -0.2568  0.6016  0.4227
 2059SOL    HW1 6755   6.066   4.178   2.899  2.2144 -0.8254 -0.3726
 2059SOL    HW2 6756   6.048   4.293   2.996 -2.2390 -0.2364 -1.6413
 2060SOL     OW 6757   3.464   7.608   8.310  0.2796  0.1127 -0.0345
 2060SOL    HW1 6758   3.553   7.599   8.346  0.1779  0.5059  0.3271
 2060SOL    HW2 6759   3.409   7.625   8.387  0.1498  1.6274 -0.4136
 2061SOL     OW 6760   5.260   6.816   5.967 -0.1492 -0.7538  0.3420
 2061SOL    HW1 6761   5.226   6.906   5.967  2.2845  0.2448  1.2013
 2061SOL    HW2 6762   5.289   6.802   6.057  1.1774 -1.7143 -0.2165
 2062SOL     OW 6763   5.855   2.309   8.137  0.6851 -0.1625  0.6641
 2062SOL    HW1 6764   5.919   2.367   8.178  0.0022  1.4735 -0.4965
 2062SOL    HW2 6765   5.880   2.307   8.045 -1.7166  1.7010 -0.1101
 2063SOL     OW 6766   1.995   1.169   2.574 -0.2727 -0.7690  0.2264
 2063SOL    HW1 6767   2.047   1.098   2.610  1.2131  1.3787  2.6624
 2063SOL    HW2 6768   2.059   1.230   2.537 -1.2055  0.7221  0.9346
 2064SOL     OW 6769   1.737   5.508   8.583 -0.0870  0.9390 -0.3819
 2064SOL    HW1 6770   1.757   5.540   8.495  1.0472  0.8707 -0.1580
 2064SOL    HW2 6771   1.716   5.416   8.571 -0.0503  0.9579 -0.5957
 2065SOL     OW 6772   2.078   3.746   4.351 -0.3117  0.2603 -0.8117
 2065SOL    HW1 6773   2.144   3.809   4.323  0.9724 -1.5849 -2.1735
 2065SOL    HW2 6774   2.097   3.730   4.443  0.7393  0.2479 -1.0217
 2066SOL     OW 6775   4.513   9.288   8.133 -0.1128 -0.4616  0.3447
 2066SOL    HW1 6776   4.505   9.196   8.157  1.7329 -0.5294  0.7838
 2066SOL    HW2 6777   4.605   9.309   8.146 -0.4469  1.3899 -0.0010
 2067SOL     OW 6778   0.213   3.328   6.660  0.2420  0.3854  0.0871
 2067SOL    HW1 6779   0.278   3.278   6.611 -0.1133  1.1258 -1.1924
 2067SOL    HW2 6780   0.129   3.305   6.620 -0.2940 -0.4044  1.5819
 2068SOL     OW 6781   3.668   1.065   8.139 -0.7693  0.1647  0.2573
 2068SOL    HW1 6782   3.723   1.095   8.067  1.3739  0.7502  2.0555
 2068SOL    HW2 6783   3.678   0.969   8.138 -2.7557 -0.1094 -1.6764
 2069SOL     OW 6784   9.873   8.849   0.262 -0.5722 -0.3710  0.4386
 2069SOL    HW1 6785   9.900   8.882   0.348  1.7778  2.2218 -1.1491
 2069SOL    HW2 6786   9.921   8.767   0.252  0.2114 -0.0045  1.0723
 2070SOL     OW 6787   0.043   2.776   3.913  0.4542 -0.4308 -0.2539
 2070SOL    HW1 6788  -0.030   2.759   3.853 -0.2313 -1.1076  0.7301
 2070SOL    HW2 6789   0.005   2.827   3.983  1.0998 -0.1971 -0.0663
 2071SOL     OW 6790   1.355   5.938   4.986 -0.3187 -0.5198 -0.3918
 2071SOL    HW1 6791   1.372   6.008   4.923 -2.8292  2.2345  1.6778
 2071SOL    HW2 6792   1.262   5.917   4.974 -0.2972 -1.5000  0.8938
 2072SOL     OW 6793   0.682   0.684   8.100 -0.5392 -0.5619 -0.1012
 2072SOL    HW1 6794   0.719   0.657   8.185 -0.7304 -1.1215 -0.1944
 2072SOL    HW2 6795   0.758   0.717   8.051 -0.1040 -1.8517 -0.3502
 2073SOL     OW 6796   3.975   5.746   8.321  1.0903  0.3073  0.1733
 2073SOL    HW1 6797   3.974   5.680   8.253 -0.5394 -1.5182  1.8251
 2073SOL    HW2 6798   4.009   5.701   8.398 -1.7393  0.7643  1.8293
 2074SOL     OW 6799   3.897   7.034   5.008  0.1504 -0.1460  0.8512
 2074SOL    HW1 6800   3.929   7.027   5.097  2.5346  0.9038  0.1488
 2074SOL    HW2 6801   3.946   6.968   4.959 -1.4533 -1.0258  0.3560
 2075SOL     OW 6802   2.570   4.997   7.319  0.2829  0.7007  0.1093
 2075SOL    HW1 6803   2.475   5.001   7.309  0.0298 -2.0965  0.5373
 2075SOL    HW2 6804   2.583   4.952   7.402  2.0008  0.8474 -0.0516
 2076SOL     OW 6805   2.966   1.076   7.579  0.3906 -0.0204 -0.3009
 2076SOL    HW1 6806   3.011   1.022   7.515 -0.0976 -1.7137  0.7241
 2076SOL    HW2 6807   2.885   1.029   7.598 -0.6157  1.6632 -0.1984
 2077SOL     OW 6808   9.367   4.478   9.449  0.4116 -0.1290  0.4192
 2077SOL    HW1 6809   9.374   4.573   9.462  1.8844 -0.2034  0.3647
 2077SOL    HW2 6810   9.292   4.467   9.390 -0.4419  0.9078  1.2799
 2078SOL     OW 6811   1.895   6.335   0.080  0.4996  1.1048 -0.5562
 2078SOL    HW1 6812   1.832   6.318   0.151 -0.7576  0.8396 -1.7029
 2078SOL    HW2 6813   1.967   6.382   0.123 -1.3246  3.1508  0.4706
 2079SOL     OW 6814   4.171   3.055   1.616 -0.5850 -0.1319 -0.5361
 2079SOL    HW1 6815   4.216   3.110   1.680  0.4171 -1.8460  0.2786
 2079SOL    HW2 6816   4.240   3.026   1.556 -0.6198 -2.3293  0.3962
 2080SOL     OW 6817   5.878   9.513   1.835 -0.4232  0.3140  0.6752
 2080SOL    HW1 6818   5.944   9.580   1.819  0.7158 -0.9205 -0.0066
 2080SOL    HW2 6819   5.828   9.546   1.910  1.1399  1.1802  1.3985
 2081SOL     OW 6820   4.750   4.253   5.588  0.1021 -0.3369  0.2056
 2081SOL    HW1 6821   4.714   4.339   5.607  0.0638 -0.2459 -0.2675
 2081SOL    HW2 6822   4.822   4.270   5.528  0.0206 -0.6451  0.0192
 2082SOL     OW 6823   7.418   8.846   0.558 -0.3347  0.1589 -0.0193
 2082SOL    HW1 6824   7.465   8.865   0.477  0.8405  0.6766  0.7591
 2082SOL    HW2 6825   7.389   8.755   0.548 -1.1266  0.5388 -1.4406
 2083SOL     OW 6826   9.472   2.016   5.162  0.0267  0.6758  0.1556
 2083SOL    HW1 6827   9.418   1.958   5.216  0.8342  0.8625  1.2032
 2083SOL    HW2 6828   9.560   2.010   5.200  0.1867  2.3895  0.1517
 2084SOL     OW 6829   8.646   7.226   8.564 -0.4396  0.1420  0.0045
 2084SOL    HW1 6830   8.551   7.216   8.556 -0.5293  0.0265  1.1138
 2084SOL    HW2 6831   8.682   7.173   8.493 -1.1927 -0.0691 -0.2238
 2085SOL     OW 6832   5.683   4.623   9.815  0.3269 -0.1833 -0.1038
 2085SOL    HW1 6833   5.609   4.661   9.861 -0.1409 -1.2439  0.0481
 2085SOL    HW2 6834   5.735   4.698   9.787 -1.1605  0.6217 -0.8271
 2086SOL     OW 6835   6.496   9.463   2.230  0.3046 -0.3139 -0.1589
 2086SOL    HW1 6836   6.474   9.370   2.230 -0.0902 -0.2272  0.2847
 2086SOL    HW2 6837   6.520   9.482   2.139  1.5151 -1.0986 -0.0283
 2087SOL     OW 6838   0.608   1.789   5.166 -0.4350  0.0997  0.1596
 2087SOL    HW1 6839   0.583   1.881   5.166 -0.3402  0.2327 -3.0920
 2087SOL    HW2 6840   0.666   1.779   5.090  0.6218 -2.4044  1.1614
 2088SOL     OW 6841   2.862   8.585   9.499 -0.4746 -0.4210 -0.4534
 2088SOL    HW1 6842   2.926   8.576   9.570 -1.3440  0.9284  0.5682
 2088SOL    HW2 6843   2.860   8.678   9.479 -0.0201 -0.8102 -2.5315
 2089SOL     OW 6844   6.871   9.517   0.216 -0.2363  0.3742  0.3141
 2089SOL    HW1 6845   6.776   9.513   0.224 -0.1096 -0.4643  1.9537
 2089SOL    HW2 6846   6.890   9.484   0.129 -1.4005 -0.4440  0.3535
 2090SOL     OW 6847   3.241   8.134   8.216  0.3003 -0.6982  0.0857
 2090SOL    HW1 6848   3.287   8.179   8.145  1.1756 -1.1865  0.3260
 2090SOL    HW2 6849   3.150   8.131   8.187  0.3201  0.6863 -0.2047
 2091SOL     OW 6850   4.485   4.877   6.043 -0.3004  0.1378  0.2926
 2091SOL    HW1 6851   4.480   4.822   6.122 -0.2247 -1.0806 -0.5243
 2091SOL    HW2 6852   4.395   4.879   6.010  0.2291 -2.3684 -1.5420
 2092SOL     OW 6853   4.428   6.014   8.545  0.0860 -0.8532  0.0481
 2092SOL    HW1 6854   4.452   5.931   8.587  0.5514 -0.3168  0.8650
 2092SOL    HW2 6855   4.508   6.067   8.548 -0.4152 -0.0866  0.2491
 2093SOL     OW 6856   4.227   7.734   2.280 -0.3670  0.6141  0.3560
 2093SOL    HW1 6857   4.202   7.823   2.304 -0.9439  0.7426 -0.6402
 2093SOL    HW2 6858   4.225   7.734   2.184 -1.1586 -0.6868  0.3522
 2094SOL     OW 6859   2.874   4.969   5.732  0.3795 -0.2031  0.1632
 2094SOL    HW1 6860   2.890   5.056   5.695 -0.7845 -0.0106  0.0686
 2094SOL    HW2 6861   2.912   4.909   5.668  0.7372  0.2193 -0.0282
 2095SOL     OW 6862   6.416   6.792   1.063  0.2962  0.0602 -0.1492
 2095SOL    HW1 6863   6.368   6.709   1.068 -0.1595  0.3997  1.7832
 2095SOL    HW2 6864   6.489   6.773   1.004  0.0214 -1.6155 -0.0165
 2096SOL     OW 6865   3.322   7.043   6.089  0.1803  0.1522  0.2479
 2096SOL    HW1 6866   3.340   7.045   6.183 -0.5352 -0.3815  0.4082
 2096SOL    HW2 6867   3.311   6.951   6.069  0.4128  0.2604 -0.3809
 2097SOL     OW 6868   6.776   0.306   7.539  0.5863  0.2254  0.7021
 2097SOL    HW1 6869   6.696   0.253   7.528  0.5337  0.4571 -0.0313
 2097SOL    HW2 6870   6.843   0.257   7.493  0.3287  1.2817 -0.8377
 2098SOL     OW 6871   8.552   4.387   5.347 -0.2908  0.0907  0.2347
 2098SOL    HW1 6872   8.615   4.376   5.418 -0.9250  0.1930  0.8221
 2098SOL    HW2 6873   8.593   4.453   5.290  0.3311 -0.1695  0.3645
 2099SOL     OW 6874   6.663   4.519   9.433 -0.1077  0.3532 -0.5158
 2099SOL    HW1 6875   6.596   4.543   9.497 -0.1744  0.9240 -0.7913
 2099SOL    HW2 6876   6.629   4.439   9.392 -1.1108  1.1691 -1.3361
 2100SOL     OW 6877   3.559   2.265   5.576  0.0052 -0.1689  0.6153
 2100SOL    HW1 6878   3.560   2.356   5.548  0.1053  0.0120  1.2038
 2100SOL    HW2 6879   3.651   2.244   5.593 -0.1047 -0.1256  1.2846
 2101SOL     OW 6880   9.321   3.865   4.784 -0.9549  0.0425  0.1227
 2101SOL    HW1 6881   9.323   3.792   4.845  1.6379 -0.4627 -0.4390
 2101SOL    HW2 6882   9.253   3.842   4.721 -1.1653 -1.1851  0.7694
 2102SOL     OW 6883   1.761   1.773   3.308  0.3659 -0.6223 -0.0149
 2102SOL    HW1 6884   1.813   1.739   3.381  0.5446  0.1349  0.2210
 2102SOL    HW2 6885   1.670   1.766   3.338  0.4021 -0.8770  0.0358
 2103SOL     OW 6886   8.067   5.606   0.499  0.3124  0.1204  0.0740
 2103SOL    HW1 6887   8.027   5.691   0.484 -0.2898  0.2383  2.0652
 2103SOL    HW2 6888   8.158   5.617   0.470 -0.3030  0.7176 -1.7865
 2104SOL     OW 6889   5.168   9.013   4.986  0.2256  0.4252 -0.1464
 2104SOL    HW1 6890   5.220   8.983   5.060  0.2044  0.0433 -0.2857
 2104SOL    HW2 6891   5.219   9.086   4.949  0.2441  0.6050  0.2269
 2105SOL     OW 6892   2.241   2.774   3.498  1.0398  0.2153 -0.5653
 2105SOL    HW1 6893   2.203   2.859   3.476  1.0461  0.2423 -0.4733
 2105SOL    HW2 6894   2.217   2.761   3.590 -1.4954 -1.2101 -1.3448
 2106SOL     OW 6895   6.869   6.844   8.364 -0.2172 -0.4078  0.5158
 2106SOL    HW1 6896   6.922   6.907   8.316  2.6717 -2.7278  0.4188
 2106SOL    HW2 6897   6.806   6.811   8.299 -2.5031  2.8732  0.8100
 2107SOL     OW 6898   5.992   1.136   6.781 -0.3490 -0.3140  0.0787
 2107SOL    HW1 6899   6.052   1.211   6.773  0.8895 -1.1494  1.0885
 2107SOL    HW2 6900   5.917   1.170   6.829 -0.5318  0.6592 -0.8523
 2108SOL     OW 6901   6.128   7.261   2.198  0.0101 -0.6903  0.1192
 2108SOL    HW1 6902   6.152   7.226   2.112 -0.0800 -0.6289  0.0686
 2108SOL    HW2 6903   6.062   7.200   2.231  1.4678 -1.8529  1.0148
 2109SOL     OW 6904   7.926   1.272   4.333  0.1594  0.1518 -0.2559
 2109SOL    HW1 6905   7.992   1.248   4.267  0.5608 -0.0601  0.2150
 2109SOL    HW2 6906   7.947   1.217   4.408 -0.0838  0.6329  0.1677
 2110SOL     OW 6907   2.393   9.059   3.269  0.2032  0.1952 -0.5080
 2110SOL    HW1 6908   2.357   9.070   3.181  1.5148  0.2399 -1.0609
 2110SOL    HW2 6909   2.463   9.125   3.275  0.7587 -0.4287  0.2175
 2111SOL     OW 6910   9.237   9.757   5.881 -0.7000  0.9257 -0.0609
 2111SOL    HW1 6911   9.171   9.819   5.850 -2.3336 -0.7828 -0.2479
 2111SOL    HW2 6912   9.255   9.784   5.971 -1.9545  1.2386  0.1220
 2112SOL     OW 6913   1.736   1.570   7.967  0.3433 -0.2108  0.0277
 2112SOL    HW1 6914   1.735   1.475   7.971 -0.7863 -0.1870  3.4634
 2112SOL    HW2 6915   1.723   1.598   8.057  0.4641  3.2290 -0.8826
 2113SOL     OW 6916   8.787   9.620   4.829 -0.6812  0.1496  0.2033
 2113SOL    HW1 6917   8.816   9.701   4.789  1.2391 -0.8512 -0.5274
 2113SOL    HW2 6918   8.866   9.580   4.865 -1.0349 -2.5984 -1.6998
 2114SOL     OW 6919   8.636   3.113   5.422  0.0003  0.0219 -0.8582
 2114SOL    HW1 6920   8.704   3.075   5.367  1.5186  0.4195  0.6564
 2114SOL    HW2 6921   8.657   3.083   5.510 -1.3488  0.7911 -0.2480
 2115SOL     OW 6922   2.922   2.837   9.203 -0.1351  0.0328 -0.6052
 2115SOL    HW1 6923   2.961   2.914   9.245  1.2215 -0.7425 -0.4034
 2115SOL    HW2 6924   2.959   2.762   9.250  0.7854 -0.8423 -2.5900
 2116SOL     OW 6925   0.732   6.975   8.898 -0.6834  0.1852  0.2390
 2116SOL    HW1 6926   0.768   6.970   8.810  0.7432  0.6342  0.7648
 2116SOL    HW2 6927   0.685   6.893   8.910 -1.4176  0.3926 -1.1563
 2117SOL     OW 6928   4.176   9.814   6.478  0.4772 -0.2413 -0.0356
 2117SOL    HW1 6929   4.236   9.785   6.547 -0.3631 -3.3543 -0.4693
 2117SOL    HW2 6930   4.218   9.786   6.397 -0.0699  0.4599 -0.5685
 2118SOL     OW 6931   1.692   3.912   8.334 -0.7505  0.2860 -0.0567
 2118SOL    HW1 6932   1.776   3.869   8.320  0.2416  1.8421  0.7759
 2118SOL    HW2 6933   1.689   3.981   8.267 -0.9802  0.7461  0.4185
 2119SOL     OW 6934   5.014   3.634   1.500 -0.0104  0.7218  0.0120
 2119SOL    HW1 6935   5.068   3.711   1.484 -0.3689  1.1202  0.6611
 2119SOL    HW2 6936   5.077   3.563   1.510  0.3422  0.9917 -0.2724
 2120SOL     OW 6937   2.302   1.700   4.808 -0.4499  0.6650 -0.1460
 2120SOL    HW1 6938   2.376   1.707   4.869 -1.8677 -2.4711  2.2427
 2120SOL    HW2 6939   2.333   1.642   4.739 -0.6648 -0.9729  1.0586
 2121SOL     OW 6940   7.133   5.661   7.623 -0.2978  0.0614  0.0515
 2121SOL    HW1 6941   7.200   5.712   7.668  0.6530 -0.0743 -1.1709
 2121SOL    HW2 6942   7.113   5.710   7.543 -1.3506 -0.1273  0.1723
 2122SOL     OW 6943   9.187   6.719   9.415  0.8498 -0.7104 -0.7511
 2122SOL    HW1 6944   9.187   6.669   9.333 -1.5140  2.6471 -3.0627
 2122SOL    HW2 6945   9.099   6.706   9.451  0.2546  1.4989 -1.3064
 2123SOL     OW 6946   4.808   2.743   1.129 -0.3576  0.1329 -0.0489
 2123SOL    HW1 6947   4.754   2.766   1.054 -1.4566 -1.4734  0.1849
 2123SOL    HW2 6948   4.896   2.731   1.093 -0.8058 -0.2925 -1.0363
 2124SOL     OW 6949   2.020   0.581   2.925  0.9053 -0.4551  0.3743
 2124SOL    HW1 6950   1.995   0.493   2.952 -2.3095 -0.1325 -1.1589
 2124SOL    HW2 6951   1.987   0.638   2.995 -0.9225 -0.2041 -0.6294
 2125SOL     OW 6952   4.635   3.807   9.518  0.1097 -0.0979  0.0892
 2125SOL    HW1 6953   4.610   3.722   9.483  5.0627 -1.2136 -1.5585
 2125SOL    HW2 6954   4.641   3.794   9.612  2.5073 -2.2869 -0.2664
 2126SOL     OW 6955   4.546   3.877   4.027  0.2555  0.0275 -0.6063
 2126SOL    HW1 6956   4.633   3.837   4.030 -0.5031 -1.7984 -1.1558
 2126SOL    HW2 6957   4.498   3.833   4.098 -1.4315 -2.2596 -2.9652
 2127SOL     OW 6958   4.777   6.140   6.099  0.6248 -0.0152 -0.2011
 2127SOL    HW1 6959   4.816   6.076   6.158 -0.5955 -0.5646  0.0160
 2127SOL    HW2 6960   4.713   6.187   6.152 -0.3944 -0.4245 -1.0395
 2128SOL     OW 6961   1.090   2.470   8.285 -0.5939 -0.3226  0.3166
 2128SOL    HW1 6962   1.049   2.457   8.200  0.7081 -2.6415 -0.0455
 2128SOL    HW2 6963   1.132   2.556   8.278 -2.4983  0.6026 -0.4669
 2129SOL     OW 6964   2.367   4.955   0.706  0.4416  0.1881  0.5516
 2129SOL    HW1 6965   2.284   4.988   0.672  0.3885  0.2854  0.7753
 2129SOL    HW2 6966   2.345   4.872   0.748  0.6238 -0.2966 -0.2781
 2130SOL     OW 6967   5.770   3.058   4.287 -1.0626 -0.9246  0.2327
 2130SOL    HW1 6968   5.830   3.112   4.235 -1.7673  0.2194  0.5578
 2130SOL    HW2 6969   5.817   3.039   4.367 -0.9066 -0.5237  0.2414
 2131SOL     OW 6970   9.791   8.760   6.712  0.1439  0.1484  0.7487
 2131SOL    HW1 6971   9.788   8.792   6.802  0.6356 -0.6832  1.0746
 2131SOL    HW2 6972   9.855   8.688   6.714 -1.3452 -1.2593  0.1861
 2132SOL     OW 6973   5.750   3.853   8.912  0.0661  0.1657 -0.4432
 2132SOL    HW1 6974   5.723   3.937   8.948  0.5688 -0.3344  1.1628
 2132SOL    HW2 6975   5.842   3.865   8.889  0.5647 -0.3619  1.1872
 2133SOL     OW 6976   9.799   9.474   3.763  0.4033 -0.0380 -0.3995
 2133SOL    HW1 6977   9.780   9.479   3.669  0.8784  1.7574 -0.4526
 2133SOL    HW2 6978   9.839   9.388   3.776 -1.3789 -1.0809 -1.4881
 2134SOL     OW 6979   0.407   0.392   0.803  0.1564 -0.3230 -0.1662
 2134SOL    HW1 6980   0.375   0.473   0.762 -1.1758 -1.3578 -1.2417
 2134SOL    HW2 6981   0.468   0.356   0.739  0.5743 -0.3082  0.2159
 2135SOL     OW 6982   4.694   1.280   6.230  0.1629 -0.3448 -0.0622
 2135SOL    HW1 6983   4.760   1.349   6.234 -0.3444  0.1478 -0.1252
 2135SOL    HW2 6984   4.744   1.199   6.237  0.5457  0.0456  3.2189
 2136SOL     OW 6985   1.950   4.640   6.004 -0.4348  0.0700 -0.3231
 2136SOL    HW1 6986   1.959   4.651   6.099  0.2372  0.6240 -0.4401
 2136SOL    HW2 6987   1.863   4.673   5.984  0.2493  2.1495 -0.1863
 2137SOL     OW 6988   4.013   5.197   8.756  0.1023  0.3568  0.3045
 2137SOL    HW1 6989   3.999   5.237   8.842 -1.0764  0.8457 -0.0895
 2137SOL    HW2 6990   3.943   5.234   8.701 -0.0733 -1.0661 -0.4750
 2138SOL     OW 6991   1.197   5.881   7.117  0.2607 -0.1270 -0.2949
 2138SOL    HW1 6992   1.122   5.912   7.066  1.6955 -0.4639 -2.7777
 2138SOL    HW2 6993   1.186   5.786   7.122  0.0258 -0.0782  0.2563
 2139SOL     OW 6994   3.466   6.668   1.144 -0.1178  0.1367 -0.0835
 2139SOL    HW1 6995   3.426   6.622   1.217  1.1268  1.3025  1.4205
 2139SOL    HW2 6996   3.527   6.605   1.105  0.1003 -0.1265  0.6750
 2140SOL     OW 6997   7.830   0.346   1.905  0.3501  0.7682 -0.4419
 2140SOL    HW1 6998   7.746   0.369   1.865  0.5825  0.7157 -0.9613
 2140SOL    HW2 6999   7.815   0.357   1.999 -0.5314 -0.1851 -0.4546
 2141SOL     OW 7000   2.507   5.416   3.561  0.1279 -0.1413  0.1715
 2141SOL    HW1 7001   2.520   5.480   3.631 -1.3746 -0.2366  0.5806
 2141SOL    HW2 7002   2.544   5.335   3.595 -0.8408 -0.2617  1.0197
 2142SOL     OW 7003   5.978   8.255   8.928  0.7202  0.1910  0.8242
 2142SOL    HW1 7004   5.891   8.290   8.907 -0.2275 -1.4491  1.7461
 2142SOL    HW2 7005   6.038   8.303   8.872 -1.0588 -0.3132 -1.6963
 2143SOL     OW 7006   3.366   7.334   6.111  0.5965 -0.4636 -0.0797
 2143SOL    HW1 7007   3.363   7.289   6.027 -2.3617 -0.5684 -0.0177
 2143SOL    HW2 7008   3.285   7.385   6.114 -1.2217 -3.0748  4.0094
 2144SOL     OW 7009   6.272   5.308   1.975 -0.5905 -0.2902 -0.0220
 2144SOL    HW1 7010   6.358   5.344   1.997 -0.2352 -0.0465 -1.6981
 2144SOL    HW2 7011   6.210   5.367   2.018  0.0500 -0.0269  0.5683
 2145SOL     OW 7012   0.029   5.945   9.661 -0.0453  0.1905  0.4663
 2145SOL    HW1 7013   0.003   6.013   9.724  0.5516  1.1457 -0.2849
 2145SOL    HW2 7014   0.037   5.991   9.578 -0.2326 -0.9394 -0.1989
 2146SOL     OW 7015   3.753   6.261   3.893 -0.0845 -0.5118  0.2502
 2146SOL    HW1 7016   3.796   6.223   3.970 -0.3761 -3.1951 -0.8059
 2146SOL    HW2 7017   3.821   6.312   3.850  0.6835 -0.7468  1.1512
 2147SOL     OW 7018   4.106   4.636   2.902 -0.2368  0.0249 -0.8954
 2147SOL    HW1 7019   4.193   4.662   2.872  0.0306  0.0843 -0.0876
 2147SOL    HW2 7020   4.094   4.548   2.866  1.2759 -1.0999  1.1424
 2148SOL     OW 7021   9.155   3.126   5.289 -0.1841  0.6115  0.5712
 2148SOL    HW1 7022   9.162   3.137   5.384  2.4117  1.7936  0.3094
 2148SOL    HW2 7023   9.159   3.216   5.254  1.8726  0.0748 -0.7562
 2149SOL     OW 7024   4.471   7.312   5.316  0.5612  0.8354 -0.6613
 2149SOL    HW1 7025   4.533   7.254   5.273 -1.0064 -1.2393 -0.2456
 2149SOL    HW2 7026   4.519   7.394   5.327  3.1296 -0.5802 -0.5920
 2150SOL     OW 7027   9.161   1.041   8.686  0.1052 -0.0521 -0.1696
 2150SOL    HW1 7028   9.249   1.058   8.719 -0.5058  0.6958  1.1492
 2150SOL    HW2 7029   9.121   1.128   8.676 -0.5129 -0.3815 -0.6977
 2151SOL     OW 7030   6.547   1.804   3.928 -0.0845  0.4986 -0.2442
 2151SOL    HW1 7031   6.464   1.840   3.895 -1.2996 -2.4621 -0.7217
 2151SOL    HW2 7032   6.548   1.714   3.897  2.4814 -0.1201  1.3581
 2152SOL     OW 7033   9.595   3.985   8.164  0.2497 -0.2305  0.3883
 2152SOL    HW1 7034   9.568   4.061   8.112  0.5742  0.1282  0.7454
 2152SOL    HW2 7035   9.677   4.011   8.205 -1.1042  0.3778  2.9235
 2153SOL     OW 7036   2.903   9.214   8.488  0.0432  0.0734 -0.0282
 2153SOL    HW1 7037   2.868   9.176   8.569  0.5436  0.0994  0.2045
 2153SOL    HW2 7038   2.826   9.224   8.431 -0.3791  0.4134  0.5820
 2154SOL     OW 7039   6.097   2.838   0.220  0.1612 -0.1190  0.5866
 2154SOL    HW1 7040   6.127   2.777   0.153  1.3006  0.8317  0.2034
 2154SOL    HW2 7041   6.029   2.890   0.177  0.1787 -0.1899  0.4746
 2155SOL     OW 7042   5.529   1.401   8.487 -0.5359 -0.1447  0.1528
 2155SOL    HW1 7043   5.599   1.342   8.458 -0.5500 -1.1053  1.9592
 2155SOL    HW2 7044   5.448   1.359   8.458 -0.4573  0.9093 -1.8341
 2156SOL     OW 7045   7.901   0.056   0.314  0.5465 -0.5895  0.3971
 2156SOL    HW1 7046   7.909   0.008   0.397 -2.4674  1.0257  1.8058
 2156SOL    HW2 7047   7.962   0.130   0.323  0.9300 -0.9427  0.7513
 2157SOL     OW 7048   6.552   7.852   8.420  0.0732 -0.3049 -0.3327
 2157SOL    HW1 7049   6.476   7.902   8.388 -0.8695 -2.1509 -1.1216
 2157SOL    HW2 7050   6.547   7.858   8.515 -2.6439 -2.4959 -0.2182
 2158SOL     OW 7051   3.087   4.853   6.873 -0.2215 -0.0265  0.1301
 2158SOL    HW1 7052   3.153   4.784   6.878  0.0515  0.1540 -0.8334
 2158SOL    HW2 7053   3.046   4.853   6.960 -1.4126 -2.5481 -0.3369
 2159SOL     OW 7054   8.804   6.594   8.254  0.2563  0.1163 -0.0451
 2159SOL    HW1 7055   8.734   6.639   8.207  1.1019  0.5015 -0.9616
 2159SOL    HW2 7056   8.760   6.555   8.330 -0.6393  1.8653  0.3944
 2160SOL     OW 7057   0.597   2.979   1.530  0.0614 -0.6496  0.7497
 2160SOL    HW1 7058   0.559   3.066   1.535  0.7357 -0.3952  1.7718
 2160SOL    HW2 7059   0.662   2.977   1.600  1.5557 -1.2358 -0.5869
 2161SOL     OW 7060   7.460   4.416   8.372  0.1007 -0.6952 -0.4116
 2161SOL    HW1 7061   7.534   4.443   8.317 -0.6507 -1.3696 -1.8256
 2161SOL    HW2 7062   7.483   4.446   8.460  0.7681  1.6539 -1.2962
 2162SOL     OW 7063   6.437   2.941   5.214  0.3246  0.5951 -0.3199
 2162SOL    HW1 7064   6.503   2.960   5.147  0.7498 -1.7876 -0.6704
 2162SOL    HW2 7065   6.402   2.856   5.189 -0.1240  0.0359  2.0176
 2163SOL     OW 7066   6.730   9.068   7.578  0.1450  0.3219 -0.4226
 2163SOL    HW1 7067   6.695   9.030   7.496 -2.3149 -0.3029  0.8102
 2163SOL    HW2 7068   6.720   8.998   7.642  0.4852  1.3556  0.7907
 2164SOL     OW 7069   0.243   0.400   7.122 -0.1881  0.0151  0.5210
 2164SOL    HW1 7070   0.253   0.317   7.169  0.2074  0.4178  1.1489
 2164SOL    HW2 7071   0.303   0.392   7.047  1.0247  0.3334  1.4205
 2165SOL     OW 7072   9.868   9.930   0.416 -0.1185  0.1296  0.3689
 2165SOL    HW1 7073   9.947   9.975   0.446  0.3535 -0.2658 -0.2612
 2165SOL    HW2 7074   9.860   9.954   0.324 -0.2266 -0.5443  0.1939
 2166SOL     OW 7075   2.826   2.158   6.715  0.4994 -0.3918 -0.0168
 2166SOL    HW1 7076   2.879   2.193   6.786 -1.2200  0.5172  0.8894
 2166SOL    HW2 7077   2.888   2.141   6.645  2.1196 -0.3971  1.3472
 2167SOL     OW 7078   4.361   9.203   9.373  0.3830 -0.0405 -0.1072
 2167SOL    HW1 7079   4.348   9.244   9.458  0.7386 -1.8103  0.8471
 2167SOL    HW2 7080   4.317   9.118   9.380 -2.5766  1.0390 -2.8599
 2168SOL     OW 7081   2.766   3.966   3.678 -0.0742  0.1482  0.1177
 2168SOL    HW1 7082   2.727   4.017   3.607  0.4183 -1.7588 -1.6124
 2168SOL    HW2 7083   2.693   3.919   3.717  0.0871 -2.3284 -2.2091
 2169SOL     OW 7084   7.173   8.931   3.082  0.5117 -0.3163 -0.5519
 2169SOL    HW1 7085   7.177   8.987   3.004 -0.3918  0.1208 -0.2985
 2169SOL    HW2 7086   7.140   8.847   3.049 -0.7946  0.1547 -0.5193
 2170SOL     OW 7087   2.837   2.881   4.166 -0.1455  0.0077  0.2765
 2170SOL    HW1 7088   2.837   2.953   4.229  0.9843  0.5114 -0.2702
 2170SOL    HW2 7089   2.879   2.809   4.212  0.3446  0.2585  0.2252
 2171SOL     OW 7090   4.088   3.984   4.812  0.5357 -0.4319  0.0246
 2171SOL    HW1 7091   4.064   3.907   4.864  0.5865 -0.8778 -0.5971
 2171SOL    HW2 7092   4.137   3.948   4.738  1.6550  0.3145  0.3834
 2172SOL     OW 7093   7.193   2.757   5.790  0.1163  0.1740 -0.3423
 2172SOL    HW1 7094   7.141   2.692   5.743  1.8721 -1.3928 -0.2522
 2172SOL    HW2 7095   7.202   2.830   5.728 -1.3636  0.0968 -0.6892
 2173SOL     OW 7096   9.246   5.725   6.554 -0.1813 -0.3294  0.6146
 2173SOL    HW1 7097   9.247   5.643   6.603  1.8011 -0.7478 -0.0450
 2173SOL    HW2 7098   9.335   5.759   6.562 -0.8405  1.5372  0.4890
 2174SOL     OW 7099   2.904   2.556   1.987 -0.0898  0.0174 -0.3718
 2174SOL    HW1 7100   2.995   2.574   1.964  0.0124  0.1430  0.1068
 2174SOL    HW2 7101   2.910   2.485   2.052 -0.4018 -0.7464 -1.1576
 2175SOL     OW 7102   8.027   9.819   4.448 -0.1159  0.0107 -0.1275
 2175SOL    HW1 7103   8.020   9.886   4.516  0.0113  0.2727 -0.3752
 2175SOL    HW2 7104   7.982   9.856   4.372 -0.5823 -0.4315 -0.0756
 2176SOL     OW 7105   2.373   5.353   8.782 -0.8842  0.3142 -0.1843
 2176SOL    HW1 7106   2.336   5.434   8.746 -1.9747  0.1237  0.4836
 2176SOL    HW2 7107   2.356   5.357   8.876  3.8288  1.8316  0.8935
 2177SOL     OW 7108   0.181   8.467   1.140  0.5819  0.4256 -0.3807
 2177SOL    HW1 7109   0.196   8.561   1.143  1.2047  0.2982  0.8616
 2177SOL    HW2 7110   0.124   8.454   1.064  1.5239  1.6440 -1.3183
 2178SOL     OW 7111   6.676   3.442   3.449 -0.1724 -0.6054 -0.0429
 2178SOL    HW1 7112   6.722   3.523   3.430 -1.5914  0.3707  0.5355
 2178SOL    HW2 7113   6.657   3.405   3.363  0.6222 -0.4221 -0.3074
 2179SOL     OW 7114   6.707   4.538   3.646 -0.0212  1.1306 -0.2863
 2179SOL    HW1 7115   6.797   4.561   3.624  0.7508 -1.0777  0.2812
 2179SOL    HW2 7116   6.678   4.481   3.575 -1.0538  1.9260 -0.5386
 2180SOL     OW 7117   9.368   8.352   8.835 -0.5087  0.2853 -0.3120
 2180SOL    HW1 7118   9.299   8.286   8.832 -0.0784 -0.2789  1.2482
 2180SOL    HW2 7119   9.420   8.335   8.756 -0.3117 -1.3771  0.1237
 2181SOL     OW 7120   8.620   6.748   7.020 -0.4330  0.5774 -0.1437
 2181SOL    HW1 7121   8.599   6.734   6.928  3.1446  0.6992 -1.0997
 2181SOL    HW2 7122   8.687   6.683   7.040  0.6980  2.1845  1.6146
 2182SOL     OW 7123   7.788   6.754   5.282  0.2206 -0.0144  0.1503
 2182SOL    HW1 7124   7.843   6.688   5.240  1.2686 -0.1778  1.6864
 2182SOL    HW2 7125   7.779   6.723   5.372 -0.9972  0.9015  0.3586
 2183SOL     OW 7126   9.787   3.837   8.929 -0.3499 -0.2600 -0.0957
 2183SOL    HW1 7127   9.837   3.760   8.958 -1.2915 -0.6740  0.4618
 2183SOL    HW2 7128   9.710   3.838   8.985 -0.7920  0.5911 -0.7009
 2184SOL     OW 7129   1.480   6.389   8.114  0.1753  0.0673  0.4409
 2184SOL    HW1 7130   1.465   6.347   8.198 -1.4874  1.8275  1.1107
 2184SOL    HW2 7131   1.575   6.391   8.104  0.4079 -0.0417  2.3506
 2185SOL     OW 7132   1.398   4.672   7.402 -0.1536 -0.1178 -0.3367
 2185SOL    HW1 7133   1.457   4.745   7.417 -0.1782  0.1506 -1.5022
 2185SOL    HW2 7134   1.433   4.627   7.325  0.4826 -1.9898  0.9666
 2186SOL     OW 7135   2.685   6.738   1.070  0.2701  0.2566  0.2587
 2186SOL    HW1 7136   2.745   6.805   1.103  1.0444 -0.6047  0.6443
 2186SOL    HW2 7137   2.738   6.658   1.066 -0.3359 -0.1004 -1.2318
 2187SOL     OW 7138   5.919   6.702   1.539 -0.0016 -0.3098 -0.2630
 2187SOL    HW1 7139   5.968   6.621   1.525 -1.3818 -0.9599 -1.6497
 2187SOL    HW2 7140   5.963   6.767   1.484 -0.0000 -0.5942 -0.5975
 2188SOL     OW 7141   1.127   5.031   9.787 -0.1186 -0.4345  0.1036
 2188SOL    HW1 7142   1.043   5.008   9.828  0.2621  1.8818  2.5030
 2188SOL    HW2 7143   1.163   5.098   9.845  1.0019  2.4664 -3.5827
 2189SOL     OW 7144   0.196   1.494   1.028  0.1129 -0.3302 -0.2342
 2189SOL    HW1 7145   0.144   1.539   0.962  0.6570  0.9161  0.1570
 2189SOL    HW2 7146   0.244   1.564   1.074  2.1049 -1.3914 -0.5600
 2190SOL     OW 7147   9.722   2.080   2.079  0.1428  0.0518  0.2843
 2190SOL    HW1 7148   9.681   2.166   2.063 -0.2197 -0.4827 -2.1271
 2190SOL    HW2 7149   9.813   2.092   2.054  0.1757 -0.1526  0.3059
 2191SOL     OW 7150   4.671   2.512   7.273  0.8565 -0.0694 -0.0159
 2191SOL    HW1 7151   4.722   2.592   7.284  1.5680 -0.6348  0.9804
 2191SOL    HW2 7152   4.609   2.513   7.346  1.1511 -0.6320  0.2465
 2192SOL     OW 7153   5.218   3.504   8.060 -0.1915 -0.8385  0.1068
 2192SOL    HW1 7154   5.266   3.504   7.978 -2.3713  0.6073 -1.2908
 2192SOL    HW2 7155   5.217   3.596   8.087 -0.9211 -1.0486  0.8483
 2193SOL     OW 7156   7.506   8.901   8.797  0.4089 -0.2648 -0.2778
 2193SOL    HW1 7157   7.508   8.985   8.751  0.4006 -0.3038 -0.3499
 2193SOL    HW2 7158   7.508   8.836   8.727 -2.5656 -0.3707 -0.4027
 2194SOL     OW 7159   1.599   9.623   9.829 -0.3498  0.1915 -0.1698
 2194SOL    HW1 7160   1.533   9.555   9.819 -0.3598  0.1027  0.4502
 2194SOL    HW2 7161   1.571   9.693   9.771 -0.1266 -0.4900 -1.1179
 2195SOL     OW 7162   0.669   6.213   8.474  0.2884  0.5126 -0.2725
 2195SOL    HW1 7163   0.672   6.177   8.385  0.1126 -2.8339  0.9436
 2195SOL    HW2 7164   0.575   6.224   8.492  0.2039 -0.7134  0.1356
 2196SOL     OW 7165   5.278   7.010   0.332  0.3117  0.6378 -0.1142
 2196SOL    HW1 7166   5.232   7.081   0.287  0.2544  1.2504  0.8808
 2196SOL    HW2 7167   5.349   6.985   0.273 -0.2573  0.8555 -0.9006
 2197SOL     OW 7168   8.165   3.336   3.657 -0.0707 -0.4370 -0.4645
 2197SOL    HW1 7169   8.084   3.356   3.609 -0.0821  0.9115  0.0830
 2197SOL    HW2 7170   8.235   3.352   3.594 -0.2068 -2.1902 -1.1348
 2198SOL     OW 7171   4.873   7.721   2.194  0.5378 -0.2794 -0.1995
 2198SOL    HW1 7172   4.827   7.708   2.277  0.5052 -0.6570 -0.2735
 2198SOL    HW2 7173   4.946   7.779   2.216  1.6423 -1.8487  0.5026
 2199SOL     OW 7174   0.897   1.941   8.250 -0.3876 -0.2705 -0.2856
 2199SOL    HW1 7175   0.933   1.855   8.267 -0.4158 -0.4135 -0.9103
 2199SOL    HW2 7176   0.808   1.924   8.217  0.2441 -0.1214 -2.1765
 2200SOL     OW 7177   8.036   2.895   3.538  0.1941 -0.3846  0.2908
 2200SOL    HW1 7178   7.995   2.923   3.456 -2.2074 -1.8752  0.8482
 2200SOL    HW2 7179   7.970   2.837   3.578  1.4040  0.0481  3.1239
 2201SOL     OW 7180   4.390   5.901   7.558 -0.1207  0.2623  0.2206
 2201SOL    HW1 7181   4.412   5.894   7.465 -2.3896 -1.5404 -0.2780
 2201SOL    HW2 7182   4.340   5.983   7.565  0.2028  0.4887 -0.0958
 2202SOL     OW 7183   8.153   7.200   2.261  0.1545  0.1308  0.0216
 2202SOL    HW1 7184   8.071   7.181   2.307  0.1247  0.4725  0.1126
 2202SOL    HW2 7185   8.174   7.290   2.286  1.1196 -0.3105  0.8498
 2203SOL     OW 7186   6.584   1.910   0.170 -0.3432 -0.2062  0.0978
 2203SOL    HW1 7187   6.519   1.894   0.238 -0.5415 -0.6752 -0.1987
 2203SOL    HW2 7188   6.619   1.823   0.148  1.2015  0.1382  1.0479
 2204SOL     OW 7189   1.494   8.481   8.768  0.1561  0.0167 -0.3406
 2204SOL    HW1 7190   1.486   8.429   8.848  0.0022  1.9903  1.0258
 2204SOL    HW2 7191   1.555   8.551   8.792 -0.7808  1.3091 -1.5708
 2205SOL     OW 7192   3.194   0.172   8.238  0.1624 -0.4522  0.3804
 2205SOL    HW1 7193   3.111   0.216   8.216  0.0538 -0.7384  0.2032
 2205SOL    HW2 7194   3.260   0.241   8.232  0.1407 -0.5137 -0.8917
 2206SOL     OW 7195   9.287   6.211   1.299  0.2215 -0.2509 -0.0600
 2206SOL    HW1 7196   9.227   6.208   1.225  0.5191  0.1473 -0.3165
 2206SOL    HW2 7197   9.367   6.170   1.267  0.2667 -0.3092  0.1238
 2207SOL     OW 7198   8.037   0.829   6.897  0.0981 -0.3582 -0.4051
 2207SOL    HW1 7199   8.108   0.889   6.916 -0.2142  0.4736 -1.7836
 2207SOL    HW2 7200   8.079   0.756   6.850  0.3225 -0.7955  0.4492
 2208SOL     OW 7201   2.693   6.734   7.077  0.2706  0.2616 -0.2277
 2208SOL    HW1 7202   2.735   6.714   7.161  0.5993 -1.7144 -0.8226
 2208SOL    HW2 7203   2.611   6.684   7.078  0.5907 -0.3187 -1.3278
 2209SOL     OW 7204   7.756   0.299   6.509  0.4006  0.3726  0.2373
 2209SOL    HW1 7205   7.686   0.364   6.503  1.8476  2.0004  0.1537
 2209SOL    HW2 7206   7.751   0.250   6.427  0.8212  2.0620 -0.8417
 2210SOL     OW 7207   6.485   1.852   9.247 -0.7104  0.0222  0.2875
 2210SOL    HW1 7208   6.398   1.889   9.229 -1.3693 -2.1102 -1.3524
 2210SOL    HW2 7209   6.470   1.786   9.314 -0.9952 -2.3726 -1.9760
 2211SOL     OW 7210   3.970   3.946   6.539  0.1756  0.5515 -0.3331
 2211SOL    HW1 7211   4.055   3.965   6.579 -0.2305  1.9430 -0.0815
 2211SOL    HW2 7212   3.906   3.971   6.605 -0.4748 -2.1916  0.2176
 2212SOL     OW 7213   4.394   8.596   0.418 -0.1038  0.3387  0.3156
 2212SOL    HW1 7214   4.353   8.590   0.331  0.0076 -0.9094  0.3384
 2212SOL    HW2 7215   4.485   8.571   0.403  0.1222  0.9322  0.6606
 2213SOL     OW 7216   0.948   6.543   3.170  0.1898  0.2499  0.2180
 2213SOL    HW1 7217   0.918   6.629   3.142 -0.4308 -0.4509 -1.3609
 2213SOL    HW2 7218   1.037   6.559   3.204  0.1699  1.4705 -0.2578
 2214SOL     OW 7219   0.807   6.651   5.742 -0.0013 -0.5724  0.1010
 2214SOL    HW1 7220   0.785   6.675   5.832  0.3831 -0.5587  0.1953
 2214SOL    HW2 7221   0.885   6.703   5.722  0.6719 -1.5108  0.2103
 2215SOL     OW 7222   3.906   9.470   2.069  0.0412  0.7982  0.1833
 2215SOL    HW1 7223   3.921   9.378   2.047 -0.1302  1.0075 -0.9142
 2215SOL    HW2 7224   3.811   9.479   2.069  0.0590  0.9763  0.2406
 2216SOL     OW 7225   8.836   5.143   2.920  0.2607 -0.3563  0.5299
 2216SOL    HW1 7226   8.928   5.136   2.946  1.0235  0.3561 -1.7414
 2216SOL    HW2 7227   8.801   5.214   2.974  1.3749  0.1674  0.5916
 2217SOL     OW 7228   3.078   7.873   2.140  0.1733 -0.5194  0.6353
 2217SOL    HW1 7229   3.038   7.857   2.055  0.5158  0.9240  0.1696
 2217SOL    HW2 7230   3.017   7.931   2.186  0.7190 -0.0002  0.7303
 2218SOL     OW 7231   0.412   2.644   3.507  0.1099  0.1856 -0.2862
 2218SOL    HW1 7232   0.369   2.712   3.558  0.9839  0.8257 -0.3852
 2218SOL    HW2 7233   0.362   2.639   3.426 -0.2052  0.4103 -0.1086
 2219SOL     OW 7234   9.037   8.338   0.117 -0.2654  0.2626 -0.0444
 2219SOL    HW1 7235   9.053   8.422   0.161 -2.5195  0.3230  0.8123
 2219SOL    HW2 7236   9.046   8.273   0.186 -0.1820 -0.0279 -0.3300
 2220SOL     OW 7237   1.113   5.639   7.214 -0.0363  0.0408  0.3473
 2220SOL    HW1 7238   1.157   5.573   7.161  0.2072 -0.6097  1.3177
 2220SOL    HW2 7239   1.029   5.600   7.238  0.8531 -0.7696  2.4688
 2221SOL     OW 7240   7.921   1.835   1.471 -0.4272  0.2991 -0.1393
 2221SOL    HW1 7241   7.896   1.748   1.504 -0.0128 -0.3822 -1.5461
 2221SOL    HW2 7242   8.016   1.837   1.476 -0.3741  0.2924 -0.9980
 2222SOL     OW 7243   5.194   2.572   3.223  0.4632  0.0716  0.0841
 2222SOL    HW1 7244   5.167   2.480   3.223  0.9099 -0.0696  0.6331
 2222SOL    HW2 7245   5.116   2.620   3.249  0.5913 -0.2821  1.1665
 2223SOL     OW 7246   7.922   6.673   7.730  0.4215  0.7795  0.1196
 2223SOL    HW1 7247   7.881   6.671   7.817 -2.8674 -2.3319 -1.2709
 2223SOL    HW2 7248   7.973   6.592   7.726  0.5644  0.9157 -0.8822
 2224SOL     OW 7249   7.633   6.590   1.923  0.2278 -0.1037  0.0324
 2224SOL    HW1 7250   7.607   6.632   2.005  1.2220  0.3765  0.1155
 2224SOL    HW2 7251   7.728   6.579   1.930  0.2471 -0.6187 -0.8007
 2225SOL     OW 7252   1.116   2.407   2.580  0.0999  0.2388  0.5562
 2225SOL    HW1 7253   1.021   2.420   2.576  0.2511  1.3978  0.4632
 2225SOL    HW2 7254   1.150   2.456   2.505  0.5558 -2.8028 -1.4266
 2226SOL     OW 7255   6.367   3.156   3.814 -0.0378  0.1330  0.0182
 2226SOL    HW1 7256   6.435   3.089   3.804 -0.6875 -0.2793 -2.2326
 2226SOL    HW2 7257   6.395   3.227   3.757 -0.0956  1.1862  1.2649
 2227SOL     OW 7258   7.829   3.834   8.955  0.1147  0.5632 -0.6224
 2227SOL    HW1 7259   7.916   3.820   8.991 -0.1821  0.5014  0.0929
 2227SOL    HW2 7260   7.840   3.906   8.892  0.3583  1.7806  0.7610
 2228SOL     OW 7261   2.002   3.839   8.367 -0.2863  0.3074 -0.1421
 2228SOL    HW1 7262   2.092   3.854   8.339 -0.2871  0.4806 -0.0553
 2228SOL    HW2 7263   2.007   3.760   8.422  0.0094  0.9599  0.8046
 2229SOL     OW 7264   4.759   9.158   5.195  0.4789 -0.7294 -0.1212
 2229SOL    HW1 7265   4.746   9.086   5.256 -1.0083  0.2137  0.7474
 2229SOL    HW2 7266   4.817   9.123   5.128  0.7520 -2.3410  0.9105
 2230SOL     OW 7267   0.752   9.879   3.219 -0.1420 -0.3852 -0.6612
 2230SOL    HW1 7268   0.778   9.945   3.284 -0.3061 -0.7914 -0.1829
 2230SOL    HW2 7269   0.809   9.896   3.144  0.3028 -0.1496 -0.2747
 2231SOL     OW 7270   1.608   4.061   3.186  0.9580 -0.0587 -0.0237
 2231SOL    HW1 7271   1.627   4.128   3.121 -1.7058  0.7041 -0.1082
 2231SOL    HW2 7272   1.548   4.103   3.248  0.5395 -1.8614  0.8730
 2232SOL     OW 7273   7.936   5.325   2.904  0.4801  0.0920 -0.5555
 2232SOL    HW1 7274   7.874   5.301   2.835 -0.3972 -0.4627  0.3986
 2232SOL    HW2 7275   8.006   5.261   2.896  0.3700  0.0131 -0.9087
 2233SOL     OW 7276   9.458   2.506   4.465 -0.0047 -0.1677 -0.1674
 2233SOL    HW1 7277   9.379   2.488   4.517 -1.9851  1.0048 -2.5563
 2233SOL    HW2 7278   9.470   2.601   4.472  1.3836 -0.3578  0.3445
 2234SOL     OW 7279   7.156   3.586   8.110  0.1581  0.3926  0.2432
 2234SOL    HW1 7280   7.156   3.681   8.106  1.7183  0.3948 -0.4491
 2234SOL    HW2 7281   7.227   3.559   8.051 -0.1587 -1.1914  0.5263
 2235SOL     OW 7282   7.599   3.237   3.848  0.4282 -0.2246 -0.3562
 2235SOL    HW1 7283   7.536   3.223   3.919 -0.1756 -0.4980 -0.9366
 2235SOL    HW2 7284   7.639   3.322   3.867 -0.3540  0.1035 -0.1617
 2236SOL     OW 7285   4.918   8.680   0.242 -0.7527 -0.1455  0.3337
 2236SOL    HW1 7286   4.888   8.765   0.276 -3.1281 -1.0284  0.6211
 2236SOL    HW2 7287   4.963   8.640   0.316  0.1506  0.7242  0.2781
 2237SOL     OW 7288   0.529   0.522   8.406 -0.3823 -0.3388 -0.4902
 2237SOL    HW1 7289   0.603   0.583   8.397 -1.5373  1.0013 -1.2162
 2237SOL    HW2 7290   0.473   0.542   8.332 -1.3513 -1.5383 -0.0998
 2238SOL     OW 7291   0.563   5.196   9.594 -0.2133 -0.1253 -0.2282
 2238SOL    HW1 7292   0.501   5.166   9.660  0.5267 -0.0067  0.5407
 2238SOL    HW2 7293   0.611   5.267   9.636  1.8702 -1.5374 -0.0185
 2239SOL     OW 7294   1.164   3.319   0.354  0.0218  0.7182  0.0866
 2239SOL    HW1 7295   1.166   3.321   0.259 -1.6881 -0.0241 -0.0046
 2239SOL    HW2 7296   1.229   3.383   0.381  0.4491  1.0290 -1.5771
 2240SOL     OW 7297   4.191   5.123   6.887  0.6453 -0.1015  0.1712
 2240SOL    HW1 7298   4.221   5.123   6.978 -0.7266 -2.3290  0.7415
 2240SOL    HW2 7299   4.258   5.075   6.839  1.1846  0.7436  0.0639
 2241SOL     OW 7300   1.657   1.389   5.661 -0.3965  0.3229  0.2548
 2241SOL    HW1 7301   1.598   1.431   5.724  0.5779 -0.1915  1.5589
 2241SOL    HW2 7302   1.738   1.375   5.710  0.3427 -0.2645 -1.0811
 2242SOL     OW 7303   3.645   8.033   1.094  0.0932  0.2619 -0.5175
 2242SOL    HW1 7304   3.646   8.124   1.123  0.6369  0.1067 -0.0123
 2242SOL    HW2 7305   3.606   8.035   1.007  1.6015  1.2095 -1.2049
 2243SOL     OW 7306   8.208   5.654   9.844 -0.1223  0.5989 -0.0011
 2243SOL    HW1 7307   8.282   5.596   9.824 -1.3509 -1.1684  0.3347
 2243SOL    HW2 7308   8.227   5.734   9.796  1.7470  0.0073 -0.3409
 2244SOL     OW 7309   5.930   8.561   0.555 -0.4940  0.5032  0.1635
 2244SOL    HW1 7310   6.021   8.532   0.555 -0.7021 -0.4473  2.5627
 2244SOL    HW2 7311   5.916   8.599   0.469  2.4701  1.6724  0.0969
 2245SOL     OW 7312   4.855   4.455   0.749 -0.2323 -0.4203 -0.3715
 2245SOL    HW1 7313   4.817   4.396   0.813  0.4556 -0.4220  0.0503
 2245SOL    HW2 7314   4.789   4.523   0.735  0.8131  1.4594  2.8443
 2246SOL     OW 7315   9.878   4.969   5.693 -0.4356 -0.4588 -0.3481
 2246SOL    HW1 7316   9.894   4.909   5.620 -0.2576  0.3622 -0.9900
 2246SOL    HW2 7317   9.957   5.022   5.699 -0.2713 -0.7974  0.7312
 2247SOL     OW 7318   5.753   8.623   8.531  0.0937  0.0368 -0.1869
 2247SOL    HW1 7319   5.671   8.575   8.541  0.3905 -0.3794  0.3078
 2247SOL    HW2 7320   5.819   8.555   8.519  0.4572  0.3361  0.0922
 2248SOL     OW 7321   3.960   2.730   8.808 -0.2787  0.1670  0.8137
 2248SOL    HW1 7322   3.935   2.729   8.716 -2.3502  2.0208  1.2714
 2248SOL    HW2 7323   3.981   2.821   8.827 -0.3331 -0.0883  2.2686
 2249SOL     OW 7324   7.244   8.238   5.902 -0.0687  0.2014  0.6664
 2249SOL    HW1 7325   7.203   8.174   5.960 -1.1971  1.7696  1.6766
 2249SOL    HW2 7326   7.290   8.185   5.836 -3.3528 -1.7187 -0.3373
 2250SOL     OW 7327   2.928   8.003   7.546 -0.5862 -0.2760  1.0442
 2250SOL    HW1 7328   3.006   7.961   7.581 -0.6344 -0.3327  1.0833
 2250SOL    HW2 7329   2.875   7.932   7.512 -0.1217 -0.1485  0.0016
 2251SOL     OW 7330   7.963   1.390   8.925 -0.2888  0.0026 -0.1960
 2251SOL    HW1 7331   7.899   1.460   8.910  0.1837  0.3212 -0.7928
 2251SOL    HW2 7332   7.951   1.365   9.017 -0.7625  0.5709 -0.0997
 2252SOL     OW 7333   4.112   6.429   5.192  0.2070  0.3841 -0.8266
 2252SOL    HW1 7334   4.182   6.491   5.170  0.0044  0.1218 -2.3111
 2252SOL    HW2 7335   4.033   6.483   5.197  0.5843  0.8565  1.8639
 2253SOL     OW 7336   3.176   8.249   6.702  0.2256 -0.5405 -0.2660
 2253SOL    HW1 7337   3.270   8.265   6.688  0.2726 -1.4147 -1.0142
 2253SOL    HW2 7338   3.156   8.297   6.782  0.8008  1.5622 -1.2950
 2254SOL     OW 7339   8.029   7.559   0.599 -0.4934  0.2740  0.0035
 2254SOL    HW1 7340   8.123   7.541   0.587 -0.2487  0.3702  1.5538
 2254SOL    HW2 7341   7.985   7.497   0.540  0.5120 -0.5437  0.0759
 2255SOL     OW 7342   1.102   3.028   6.720 -0.5714 -0.0823  0.6941
 2255SOL    HW1 7343   1.166   2.959   6.741  1.3619  1.1819 -0.7075
 2255SOL    HW2 7344   1.029   2.981   6.680  1.8648 -1.2692 -2.9160
 2256SOL     OW 7345   9.150   5.523   8.805 -0.1578 -0.2765  0.2214
 2256SOL    HW1 7346   9.070   5.576   8.803  1.0538  1.6720  0.5693
 2256SOL    HW2 7347   9.184   5.527   8.715  0.4950  0.5017  0.4838
 2257SOL     OW 7348   7.836   5.710   1.985 -0.0261 -0.2178 -0.3239
 2257SOL    HW1 7349   7.757   5.676   1.943 -0.9177  0.2095  0.9614
 2257SOL    HW2 7350   7.876   5.766   1.919 -0.8655 -0.3242 -0.9438
 2258SOL     OW 7351   3.085   9.333   5.269 -0.3950  0.1545 -0.3997
 2258SOL    HW1 7352   3.141   9.263   5.236 -0.2424 -0.3962  0.9692
 2258SOL    HW2 7353   2.999   9.314   5.232 -0.1679 -0.2555 -0.7287
 2259SOL     OW 7354   6.625   1.569   1.601  0.5289  0.0004 -0.0047
 2259SOL    HW1 7355   6.711   1.541   1.631  0.0439  0.4271  1.9939
 2259SOL    HW2 7356   6.578   1.488   1.584  1.5516 -0.2339 -1.9719
 2260SOL     OW 7357   2.613   0.588   3.971 -0.3573  0.0578 -0.2565
 2260SOL    HW1 7358   2.688   0.647   3.983 -0.3142  0.0949 -0.6963
 2260SOL    HW2 7359   2.537   0.645   3.976 -0.3174  0.1512 -0.6366
 2261SOL     OW 7360   8.147   7.246   6.678  0.1865 -0.0687  0.2243
 2261SOL    HW1 7361   8.202   7.190   6.732 -1.6749 -1.2949  0.9617
 2261SOL    HW2 7362   8.105   7.186   6.616  0.7222  1.0312 -1.2689
 2262SOL     OW 7363   9.549   7.538   7.739  0.5131 -0.1431 -0.6231
 2262SOL    HW1 7364   9.503   7.455   7.747  0.2848 -0.1317 -1.6482
 2262SOL    HW2 7365   9.640   7.519   7.763  0.0145 -0.1661  1.4239
 2263SOL     OW 7366   6.709   6.131   0.279 -0.0013  0.2759  0.5032
 2263SOL    HW1 7367   6.654   6.209   0.267  1.5371  1.0680 -2.4510
 2263SOL    HW2 7368   6.737   6.108   0.190  0.1154 -3.3440  1.3131
 2264SOL     OW 7369   8.802   6.558   4.144  0.0967  0.1861 -0.5764
 2264SOL    HW1 7370   8.720   6.574   4.098 -1.6944  0.3000  2.3850
 2264SOL    HW2 7371   8.802   6.464   4.163  0.3728  0.2796 -0.0916
 2265SOL     OW 7372   2.759   0.107   0.162 -0.0126  0.0084  0.1279
 2265SOL    HW1 7373   2.702   0.031   0.172  0.5102 -0.5446 -0.9143
 2265SOL    HW2 7374   2.704   0.174   0.121 -0.9224  0.7854  2.4382
 2266SOL     OW 7375   5.240   8.731   1.117  0.5637  0.2145 -0.6681
 2266SOL    HW1 7376   5.202   8.728   1.029  0.5496 -1.7542 -0.6450
 2266SOL    HW2 7377   5.246   8.824   1.138 -1.2189  0.6792 -1.9861
 2267SOL     OW 7378   2.079   9.900   4.981  0.1150 -0.3492 -0.2567
 2267SOL    HW1 7379   2.036   9.912   5.066  0.4855 -0.2510 -0.0820
 2267SOL    HW2 7380   2.173   9.897   5.002  0.2257 -0.0301 -0.6915
 2268SOL     OW 7381   2.499   5.489   1.036 -0.4763  0.2795 -0.0488
 2268SOL    HW1 7382   2.487   5.583   1.054 -0.6541  0.3037 -0.2741
 2268SOL    HW2 7383   2.493   5.483   0.940  1.3656  0.2943 -0.2108
 2269SOL     OW 7384   9.266   7.187   4.498  0.3674 -0.0491 -0.3492
 2269SOL    HW1 7385   9.230   7.271   4.525 -1.8206 -1.3542  1.0715
 2269SOL    HW2 7386   9.345   7.176   4.551 -0.5513  0.1778  1.1348
 2270SOL     OW 7387   8.910   8.168   6.524 -0.5210 -0.2424 -0.2404
 2270SOL    HW1 7388   8.876   8.091   6.478 -1.8887  0.6479 -0.7793
 2270SOL    HW2 7389   8.832   8.214   6.554  0.3125 -0.2487  2.1294
 2271SOL     OW 7390   1.527   9.852   1.669  0.7509  0.6310  0.3237
 2271SOL    HW1 7391   1.496   9.890   1.587 -0.5420  0.1467  0.5633
 2271SOL    HW2 7392   1.447   9.835   1.720  1.4473 -0.1330  1.2091
 2272SOL     OW 7393   8.501   0.729   3.508  0.1578 -0.5450  0.3174
 2272SOL    HW1 7394   8.448   0.796   3.552  1.3555  0.3784  0.4171
 2272SOL    HW2 7395   8.470   0.646   3.546 -0.0989  0.0862  1.5622
 2273SOL     OW 7396   6.010   7.951   2.792 -0.1056 -0.2616 -0.2492
 2273SOL    HW1 7397   5.990   8.044   2.780  0.3527 -0.4735 -3.6382
 2273SOL    HW2 7398   5.927   7.907   2.774 -0.3751 -0.5745  1.5548
 2274SOL     OW 7399   4.075   2.589   7.455  0.4601  0.5796 -0.5936
 2274SOL    HW1 7400   4.128   2.586   7.375 -0.8394 -2.1765 -1.4830
 2274SOL    HW2 7401   4.138   2.585   7.526  1.5735  0.2141 -1.5630
 2275SOL     OW 7402   2.065   3.670   3.757 -0.1284  0.3962  0.1084
 2275SOL    HW1 7403   2.014   3.690   3.679 -0.1850  1.4552  0.3877
 2275SOL    HW2 7404   2.130   3.740   3.761 -0.0281  0.2682  0.9122
 2276SOL     OW 7405   7.040   9.793   8.913 -0.1954  0.9916  0.1875
 2276SOL    HW1 7406   7.087   9.866   8.873  0.6339  1.1089  1.3395
 2276SOL    HW2 7407   7.093   9.716   8.891 -0.2994  0.9190  0.1904
 2277SOL     OW 7408   6.482   8.464   3.611 -0.3332 -0.0254  0.4960
 2277SOL    HW1 7409   6.459   8.373   3.629  1.2862 -0.5935 -0.1238
 2277SOL    HW2 7410   6.402   8.503   3.576 -0.1448 -2.2014 -2.7716
 2278SOL     OW 7411   0.878   4.732   9.740 -0.8591  0.2431 -0.5099
 2278SOL    HW1 7412   0.881   4.702   9.831  2.3978  0.8201 -0.3332
 2278SOL    HW2 7413   0.861   4.826   9.746 -2.1822  0.0382 -0.6385
 2279SOL     OW 7414   1.056   6.661   3.530 -0.4158 -0.0014  0.5158
 2279SOL    HW1 7415   0.970   6.688   3.499 -0.3633 -0.0797  0.2959
 2279SOL    HW2 7416   1.108   6.650   3.450  0.1565  1.2090  0.7002
 2280SOL     OW 7417   6.093   3.014   9.679  0.3295  0.2328  0.1395
 2280SOL    HW1 7418   6.180   2.980   9.658  0.1277  0.3270 -0.9219
 2280SOL    HW2 7419   6.087   3.009   9.774  0.8079 -1.4514  0.1031
 2281SOL     OW 7420   4.444   3.863   7.277  0.0629 -0.0833  0.2639
 2281SOL    HW1 7421   4.416   3.870   7.368  2.1563 -2.2279  1.1702
 2281SOL    HW2 7422   4.539   3.853   7.282  0.2712  0.1221 -2.1895
 2282SOL     OW 7423   7.258   9.040   2.462  0.1299 -0.5407  0.0735
 2282SOL    HW1 7424   7.255   9.006   2.552  0.0293 -0.9484 -0.0780
 2282SOL    HW2 7425   7.297   9.127   2.470 -1.9149  0.3764  0.7928
 2283SOL     OW 7426   5.762   5.882   8.877  0.6320 -0.1037  0.0193
 2283SOL    HW1 7427   5.798   5.805   8.922  0.5372  0.1876  0.6129
 2283SOL    HW2 7428   5.728   5.848   8.795 -1.1135 -1.0562  1.0676
 2284SOL     OW 7429   8.536   9.530   0.852 -0.0207  0.3257  0.5548
 2284SOL    HW1 7430   8.524   9.455   0.910  2.7287 -1.8620 -1.4230
 2284SOL    HW2 7431   8.576   9.597   0.908 -0.2560 -0.5732  1.8525
 2285SOL     OW 7432   8.223   0.605   0.225  0.2214 -0.2978 -0.5107
 2285SOL    HW1 7433   8.264   0.591   0.139 -0.0175 -0.7434 -0.5578
 2285SOL    HW2 7434   8.136   0.566   0.216  0.4959 -1.0951  0.1942
 2286SOL     OW 7435   3.889   1.305   8.341 -0.2845  0.3910 -0.0707
 2286SOL    HW1 7436   3.860   1.255   8.417  0.4401 -1.2745 -0.8303
 2286SOL    HW2 7437   3.814   1.304   8.281 -1.1978  2.5130  0.9245
 2287SOL     OW 7438   1.987   7.693   6.516 -0.2432 -0.4081 -0.1682
 2287SOL    HW1 7439   1.903   7.697   6.471 -0.2140 -0.1950 -0.2073
 2287SOL    HW2 7440   1.968   7.722   6.605 -0.2787 -0.7133 -0.0740
 2288SOL     OW 7441   8.579   7.662   2.947 -0.1103 -0.7574  0.1314
 2288SOL    HW1 7442   8.583   7.609   2.868  0.4289 -0.0303 -0.3336
 2288SOL    HW2 7443   8.556   7.599   3.016 -0.7449 -1.3686 -0.6089
 2289SOL     OW 7444   3.369   8.119   6.451 -0.6476  0.1149 -0.2591
 2289SOL    HW1 7445   3.336   8.066   6.524 -0.5869 -0.9947 -1.0001
 2289SOL    HW2 7446   3.455   8.082   6.432 -0.2672  1.0064 -0.2866
 2290SOL     OW 7447   0.045   1.754   5.878  0.2804 -0.4530  0.5468
 2290SOL    HW1 7448  -0.004   1.826   5.839  1.9790  0.1578 -0.5854
 2290SOL    HW2 7449   0.044   1.686   5.812 -0.0184 -0.9027  1.0018
 2291SOL     OW 7450   8.300   7.435   9.587 -0.3093 -0.2519 -0.4007
 2291SOL    HW1 7451   8.244   7.357   9.584 -0.8204  0.1374 -1.3168
 2291SOL    HW2 7452   8.313   7.459   9.496 -1.1632  1.4369 -0.1204
 2292SOL     OW 7453   8.852   1.156   6.643 -0.1752 -0.6925  0.0248
 2292SOL    HW1 7454   8.855   1.244   6.678 -0.2695 -0.9836  0.7789
 2292SOL    HW2 7455   8.942   1.125   6.647 -0.5628 -1.7069  2.6142
 2293SOL     OW 7456   2.522   5.635   9.255  0.2484 -0.2988 -0.4308
 2293SOL    HW1 7457   2.516   5.710   9.196  3.0406  0.9052  0.6241
 2293SOL    HW2 7458   2.612   5.604   9.245  1.7453  1.3781  4.5777
 2294SOL     OW 7459   3.706   1.089   9.736 -0.3649 -0.0691 -0.4010
 2294SOL    HW1 7460   3.653   1.158   9.698  1.3103  0.2398 -2.3586
 2294SOL    HW2 7461   3.651   1.010   9.730 -0.9034  0.3849 -1.6228
 2295SOL     OW 7462   6.101   9.394   7.949  0.4614  0.1370  0.0594
 2295SOL    HW1 7463   6.192   9.370   7.967  1.1630  1.6593 -1.1609
 2295SOL    HW2 7464   6.079   9.347   7.869  1.1239  1.7395 -1.1347
 2296SOL     OW 7465   0.204   6.857   8.080 -0.5188 -0.0794 -0.1910
 2296SOL    HW1 7466   0.157   6.864   7.997 -0.9356 -1.5249 -0.0951
 2296SOL    HW2 7467   0.173   6.932   8.131 -0.0075  1.0295 -1.4217
 2297SOL     OW 7468   8.626   4.578   2.965 -0.0071  0.3095 -0.0742
 2297SOL    HW1 7469   8.532   4.581   2.945 -0.0198  0.5767  0.0181
 2297SOL    HW2 7470   8.647   4.667   2.991  0.5308  0.5375 -1.2299
 2298SOL     OW 7471   9.231   4.920   9.650 -0.5303  0.0581 -0.2568
 2298SOL    HW1 7472   9.323   4.945   9.643 -0.2450 -0.6142  0.8543
 2298SOL    HW2 7473   9.185   4.979   9.591  0.2945  2.1155  1.0649
 2299SOL     OW 7474   2.971   3.391   1.408 -0.2295 -0.3019 -0.1530
 2299SOL    HW1 7475   3.057   3.385   1.366 -0.9568 -1.6416 -1.5935
 2299SOL    HW2 7476   2.972   3.474   1.454  1.9914 -0.4935  0.2435
 2300SOL     OW 7477   8.630   2.057   9.257 -0.6375 -0.4609 -0.6176
 2300SOL    HW1 7478   8.689   2.021   9.323 -1.3920 -0.7417 -0.0892
 2300SOL    HW2 7479   8.614   2.147   9.286  0.3856 -0.0092 -1.3582
 2301SOL     OW 7480   3.425   7.336   0.935 -0.8298 -0.7083 -0.3375
 2301SOL    HW1 7481   3.483   7.274   0.979 -1.1119 -1.1539 -0.5949
 2301SOL    HW2 7482   3.471   7.420   0.943 -0.2686 -1.0096 -0.3161
 2302SOL     OW 7483   4.085   0.327   7.822  0.1280  0.6272  0.2475
 2302SOL    HW1 7484   4.074   0.376   7.740 -2.3208 -0.4801 -0.1679
 2302SOL    HW2 7485   4.057   0.238   7.801 -0.3298  0.2510  2.2101
 2303SOL     OW 7486   8.190   1.425   9.390 -0.2398  0.3661  0.0794
 2303SOL    HW1 7487   8.248   1.376   9.449 -0.5387 -0.5485 -0.3753
 2303SOL    HW2 7488   8.240   1.434   9.309 -0.5273  0.0216 -0.1395
 2304SOL     OW 7489   1.060   6.939   4.082  0.0836  0.1054  0.0977
 2304SOL    HW1 7490   0.989   6.937   4.146  0.3244 -0.1986  0.3594
 2304SOL    HW2 7491   1.049   6.858   4.032  0.4734 -0.1323  0.3913
 2305SOL     OW 7492   0.880   7.339   4.186 -0.1781 -0.2383  0.0334
 2305SOL    HW1 7493   0.840   7.278   4.248  0.0777 -1.2354 -0.7526
 2305SOL    HW2 7494   0.931   7.399   4.240 -1.7233  0.2927  0.9535
 2306SOL     OW 7495   1.087   6.292   8.468  0.1166 -0.4163 -0.3395
 2306SOL    HW1 7496   1.114   6.368   8.520  0.4042 -0.9673  0.3370
 2306SOL    HW2 7497   1.006   6.262   8.510  0.1427 -0.6345 -0.4446
 2307SOL     OW 7498   7.942   6.873   8.167  0.4573 -0.3572  0.0788
 2307SOL    HW1 7499   8.016   6.836   8.214  0.4867 -1.1222 -0.5542
 2307SOL    HW2 7500   7.892   6.798   8.136 -1.5755  0.1277  1.9692
 2308SOL     OW 7501   6.134   0.324   9.383 -0.5590  0.3536 -0.1430
 2308SOL    HW1 7502   6.171   0.411   9.397  1.5375 -0.2204 -1.6118
 2308SOL    HW2 7503   6.071   0.336   9.312  0.9505  0.4642 -1.5380
 2309SOL     OW 7504   7.901   8.243   3.434  0.8233  0.2538  0.0858
 2309SOL    HW1 7505   7.975   8.287   3.477  0.6427  0.6294  0.0124
 2309SOL    HW2 7506   7.931   8.226   3.345  0.3737  1.5462 -0.3304
 2310SOL     OW 7507   2.583   5.617   0.191 -0.4036 -0.4265 -0.0420
 2310SOL    HW1 7508   2.541   5.696   0.224 -3.0600 -1.9394  0.5625
 2310SOL    HW2 7509   2.613   5.571   0.269  0.4364 -0.3667 -0.3258
 2311SOL     OW 7510   0.095   6.133   9.402 -0.2817  0.4685  0.4899
 2311SOL    HW1 7511   0.054   6.220   9.395 -0.9539  0.1092 -0.3290
 2311SOL    HW2 7512   0.026   6.073   9.372  0.7575 -0.1826 -0.6812
 2312SOL     OW 7513   5.871   3.722   5.350 -0.4841 -0.6343  0.5296
 2312SOL    HW1 7514   5.964   3.719   5.373 -0.5733 -0.6939  0.8874
 2312SOL    HW2 7515   5.827   3.742   5.433 -0.4935  3.7386 -0.2826
 2313SOL     OW 7516   5.597   0.385   2.357  0.0098  0.0410  0.1054
 2313SOL    HW1 7517   5.509   0.347   2.353 -0.2106  0.0545  2.6771
 2313SOL    HW2 7518   5.582   0.477   2.376  0.5850  0.2747 -0.5576
 2314SOL     OW 7519   5.311   0.728   4.966 -0.1776  0.1531  0.4608
 2314SOL    HW1 7520   5.318   0.707   5.059 -0.6928  0.3280  0.5437
 2314SOL    HW2 7521   5.251   0.661   4.932  0.1952 -0.0540  0.2053
 2315SOL     OW 7522   4.789   8.658   7.896 -0.1700  0.2417  0.2038
 2315SOL    HW1 7523   4.797   8.571   7.935 -0.4694 -0.1600 -0.6143
 2315SOL    HW2 7524   4.742   8.709   7.962  0.5973 -0.0176  0.9727
 2316SOL     OW 7525   6.895   7.131   4.259 -0.5652 -0.0878 -0.1061
 2316SOL    HW1 7526   6.895   7.224   4.279 -0.7278  0.1029 -0.9859
 2316SOL    HW2 7527   6.853   7.124   4.173  2.9252 -0.5298 -1.9748
 2317SOL     OW 7528   6.779   3.377   1.107 -0.2301 -0.3774  0.3691
 2317SOL    HW1 7529   6.806   3.286   1.099 -1.2744 -0.7366  0.7462
 2317SOL    HW2 7530   6.823   3.408   1.186  0.4329 -0.4255  0.0290
 2318SOL     OW 7531   8.453   6.605   9.306  0.0459 -0.0040  0.3170
 2318SOL    HW1 7532   8.482   6.636   9.392 -1.9924  1.6898  0.4762
 2318SOL    HW2 7533   8.523   6.632   9.246  0.7713  0.1826  1.2232
 2319SOL     OW 7534   7.698   9.120   6.687  0.0509 -0.3821  0.2359
 2319SOL    HW1 7535   7.772   9.095   6.632  1.1143  0.0298  1.4316
 2319SOL    HW2 7536   7.652   9.188   6.637  0.8389 -0.2011 -0.2536
 2320SOL     OW 7537   4.893   0.328   0.527 -0.4322 -0.3170 -0.1689
 2320SOL    HW1 7538   4.957   0.397   0.512  0.0903 -0.5599  0.8565
 2320SOL    HW2 7539   4.865   0.301   0.439  0.8491 -0.1902 -0.6335
 2321SOL     OW 7540   0.293   5.836   5.114  0.6675 -0.1334 -0.8419
 2321SOL    HW1 7541   0.221   5.809   5.172  1.4916 -1.4698 -0.3901
 2321SOL    HW2 7542   0.344   5.896   5.167  0.5361 -0.1067 -0.7432
 2322SOL     OW 7543   4.080   3.008   7.324 -0.0984 -0.0094  1.5134
 2322SOL    HW1 7544   4.172   2.998   7.299 -0.5263 -0.0401 -0.1594
 2322SOL    HW2 7545   4.071   3.102   7.344 -0.4268  0.7548 -1.7113
 2323SOL     OW 7546   1.707   3.447   4.786  0.1940 -0.0481 -0.2026
 2323SOL    HW1 7547   1.660   3.529   4.801  1.8368  0.6321  1.7542
 2323SOL    HW2 7548   1.784   3.473   4.735 -0.1833 -0.7223 -1.1532
 2324SOL     OW 7549   6.029   0.419   7.551 -0.0025 -0.4352 -0.7035
 2324SOL    HW1 7550   6.012   0.427   7.457  0.4490 -1.6013 -0.9011
 2324SOL    HW2 7551   6.097   0.352   7.558  2.2480  1.7947  0.2810
 2325SOL     OW 7552   1.640   0.081   8.881 -0.4116  0.5968 -0.3327
 2325SOL    HW1 7553   1.683   0.074   8.966  1.0831 -0.6769 -1.1404
 2325SOL    HW2 7554   1.705   0.124   8.825  1.0805 -3.6197 -2.2548
 2326SOL     OW 7555   1.699   1.043   1.241  0.5913 -0.3889 -0.2257
 2326SOL    HW1 7556   1.657   1.086   1.316  1.2613 -1.1794  0.6280
 2326SOL    HW2 7557   1.636   1.053   1.169  1.0495  2.7401 -0.3364
 2327SOL     OW 7558   0.821   8.076   7.691 -0.0843  0.9251  0.4147
 2327SOL    HW1 7559   0.776   8.061   7.608  1.0453  0.2827 -0.1087
 2327SOL    HW2 7560   0.847   7.989   7.719  1.1009  1.3065  0.5338
 2328SOL     OW 7561   7.729   0.501   8.829 -0.2846 -0.7728  0.1467
 2328SOL    HW1 7562   7.789   0.458   8.769  1.0545  0.6065  0.4100
 2328SOL    HW2 7563   7.734   0.594   8.806 -2.6677 -0.6442 -0.0807
 2329SOL     OW 7564   1.701   5.508   5.833 -0.2380 -0.2883  0.0344
 2329SOL    HW1 7565   1.720   5.594   5.796  2.8842 -1.0811 -0.5060
 2329SOL    HW2 7566   1.606   5.503   5.834 -0.5213  2.6773 -1.0154
 2330SOL     OW 7567   1.331   9.027   5.997 -0.3851 -0.3668 -0.0533
 2330SOL    HW1 7568   1.293   8.981   5.923  0.3699 -1.2415  0.0860
 2330SOL    HW2 7569   1.355   8.958   6.059  1.8462  0.0854 -0.3305
 2331SOL     OW 7570   0.556   4.229   4.894  0.7124  0.7901  0.2336
 2331SOL    HW1 7571   0.608   4.190   4.824  0.2366  1.7199 -0.6623
 2331SOL    HW2 7572   0.602   4.205   4.974  1.1905 -0.4064 -0.3816
 2332SOL     OW 7573   3.057   2.397   9.852  0.2142 -0.6713 -0.0117
 2332SOL    HW1 7574   3.152   2.406   9.864  0.1065 -0.7641  0.9101
 2332SOL    HW2 7575   3.018   2.453   9.918 -0.4216  2.4108 -2.7112
 2333SOL     OW 7576   8.440   0.962   1.738 -0.3545 -0.1454 -0.5716
 2333SOL    HW1 7577   8.509   0.930   1.795 -1.1318 -0.1801  0.3663
 2333SOL    HW2 7578   8.448   1.058   1.743 -2.3641 -0.0155  2.1260
 2334SOL     OW 7579   7.575   9.812   4.216 -0.0523  0.2252  0.2800
 2334SOL    HW1 7580   7.532   9.827   4.131 -0.8048 -0.9271  0.4407
 2334SOL    HW2 7581   7.634   9.887   4.226  0.8398 -0.1188 -1.7517
 2335SOL     OW 7582   6.037   9.294   8.364 -0.2974 -0.0819 -0.0383
 2335SOL    HW1 7583   5.994   9.210   8.377  0.1906 -0.2492  0.5654
 2335SOL    HW2 7584   6.013   9.321   8.275  0.3782 -1.3572 -0.6387
 2336SOL     OW 7585   2.212   7.554   5.426 -0.3763  0.6165  0.1005
 2336SOL    HW1 7586   2.222   7.645   5.454 -0.3032  0.9401 -0.9379
 2336SOL    HW2 7587   2.213   7.503   5.508  1.7964  1.3322  0.5852
 2337SOL     OW 7588   2.403   2.114   7.350  0.3974  0.3278  0.3278
 2337SOL    HW1 7589   2.441   2.036   7.309  0.3387  1.2096 -1.4766
 2337SOL    HW2 7590   2.464   2.137   7.420  1.0026 -0.6683  0.1456
 2338SOL     OW 7591   1.550   2.473   9.416 -0.5144  0.1602  0.3819
 2338SOL    HW1 7592   1.539   2.435   9.503 -0.9000  0.2431  0.3680
 2338SOL    HW2 7593   1.610   2.413   9.371 -0.0429  0.2963  0.8165
 2339SOL     OW 7594   5.185   4.781   3.344  0.6045 -0.2122 -0.3908
 2339SOL    HW1 7595   5.194   4.869   3.309  2.8549 -0.7831 -1.4501
 2339SOL    HW2 7596   5.269   4.739   3.325 -0.4600 -2.6480 -0.1033
 2340SOL     OW 7597   8.643   6.931   8.967 -0.0403  0.1378  0.0420
 2340SOL    HW1 7598   8.624   6.844   8.931  0.2539 -0.8015  1.9743
 2340SOL    HW2 7599   8.623   6.992   8.896 -1.8364 -1.3896 -0.8545
 2341SOL     OW 7600   0.591   8.655   4.668 -0.2395 -0.4480  0.1588
 2341SOL    HW1 7601   0.669   8.634   4.719 -1.2172 -1.6015  1.2341
 2341SOL    HW2 7602   0.544   8.719   4.721 -0.9861 -1.2394  0.4810
 2342SOL     OW 7603   2.867   6.195   1.373  0.2852  0.4445  0.0897
 2342SOL    HW1 7604   2.894   6.162   1.287 -1.1884  1.0246 -0.6186
 2342SOL    HW2 7605   2.920   6.274   1.386 -0.7080  1.3515 -1.1132
 2343SOL     OW 7606   0.211   7.988   0.929  0.0552  0.5599  0.0713
 2343SOL    HW1 7607   0.256   8.050   0.873 -0.2108  1.0645  0.4063
 2343SOL    HW2 7608   0.265   7.909   0.927 -1.1038 -0.3032 -2.7594
 2344SOL     OW 7609   0.365   5.565   6.391  0.9686  0.8293 -0.0448
 2344SOL    HW1 7610   0.398   5.574   6.480  1.1345  0.7487 -0.0978
 2344SOL    HW2 7611   0.297   5.498   6.397  0.9575  0.8480  0.0266
 2345SOL     OW 7612   2.769   0.727   6.327 -0.0864 -0.0701  0.1535
 2345SOL    HW1 7613   2.846   0.758   6.376 -0.7595 -0.2095  1.3330
 2345SOL    HW2 7614   2.757   0.793   6.258  0.3748  0.6012  0.6984
 2346SOL     OW 7615   2.883   1.789   6.957 -0.3701  0.4271 -0.3450
 2346SOL    HW1 7616   2.798   1.834   6.955  0.0138  1.2094  0.4875
 2346SOL    HW2 7617   2.945   1.857   6.982  0.3953 -0.3170 -0.2066
 2347SOL     OW 7618   6.254   5.963   1.933  0.0950 -0.1957 -0.2176
 2347SOL    HW1 7619   6.293   6.023   1.869 -1.7919  0.3628 -0.9077
 2347SOL    HW2 7620   6.267   6.006   2.017  1.3763 -0.2710 -0.3530
 2348SOL     OW 7621   8.283   3.587   1.275 -0.5020 -0.3408 -0.3998
 2348SOL    HW1 7622   8.189   3.573   1.286 -0.2917 -0.4212  1.5607
 2348SOL    HW2 7623   8.324   3.517   1.326  0.5926  1.8025  1.8160
 2349SOL     OW 7624   9.432   6.237   8.240  0.7664  0.0982  0.2842
 2349SOL    HW1 7625   9.440   6.327   8.270  0.9201 -0.1008  0.8643
 2349SOL    HW2 7626   9.469   6.185   8.312 -2.4722 -0.6699  1.5933
 2350SOL     OW 7627   1.445   2.945   5.760 -0.4751 -0.2177 -0.0250
 2350SOL    HW1 7628   1.362   2.990   5.772 -0.1445  0.2495  0.5450
 2350SOL    HW2 7629   1.450   2.929   5.665 -0.7472  0.6509 -0.1920
 2351SOL     OW 7630   1.228   9.924   4.044 -0.5959  0.4755  0.5409
 2351SOL    HW1 7631   1.184  10.009   4.041 -0.7620  0.4244  1.2495
 2351SOL    HW2 7632   1.190   9.880   4.120 -1.3209 -0.6970 -0.4807
 2352SOL     OW 7633   7.933   5.454   4.287  0.1694 -0.1166  0.1796
 2352SOL    HW1 7634   7.877   5.524   4.320  1.4567  1.1559 -0.2580
 2352SOL    HW2 7635   7.919   5.381   4.348  0.5013  1.2823  1.9922
 2353SOL     OW 7636   6.215   1.451   3.412  0.2923  0.8455 -0.4225
 2353SOL    HW1 7637   6.208   1.523   3.475  1.1627 -0.8480  1.7337
 2353SOL    HW2 7638   6.290   1.474   3.358  2.4580  0.2991  2.1349
 2354SOL     OW 7639   2.992   3.652   3.273 -0.2003 -0.4095  0.1787
 2354SOL    HW1 7640   2.947   3.653   3.188 -0.8380  0.7471  0.5158
 2354SOL    HW2 7641   2.929   3.689   3.334  0.0237 -1.7930  1.3002
 2355SOL     OW 7642   6.810   5.798   4.282  0.3531 -0.7932  0.5277
 2355SOL    HW1 7643   6.836   5.768   4.369  0.6936 -1.5291  0.1813
 2355SOL    HW2 7644   6.730   5.848   4.297  0.5357 -0.7199  1.2906
 2356SOL     OW 7645   6.117   4.494   5.718  0.2214 -0.5037  0.6942
 2356SOL    HW1 7646   6.099   4.458   5.631 -1.5279 -2.2599  1.7080
 2356SOL    HW2 7647   6.043   4.552   5.735  1.0778  0.6420  0.6387
 2357SOL     OW 7648  -0.021   0.300   2.187 -0.2583  0.2910 -0.0753
 2357SOL    HW1 7649   0.051   0.337   2.238  1.2016 -1.1457 -0.9634
 2357SOL    HW2 7650  -0.013   0.340   2.101 -1.8596  1.6775  0.3749
 2358SOL     OW 7651   7.678   9.384   4.585 -0.0305  0.4752  0.3852
 2358SOL    HW1 7652   7.595   9.354   4.620  0.6000 -1.4127  0.3833
 2358SOL    HW2 7653   7.702   9.459   4.639 -0.2783 -0.8369  2.4184
 2359SOL     OW 7654   0.179   7.110   4.094 -0.4143 -0.0491  0.0508
 2359SOL    HW1 7655   0.159   7.165   4.018 -1.1324  0.8274  0.8531
 2359SOL    HW2 7656   0.189   7.172   4.166  2.1311 -0.6861  0.3418
 2360SOL     OW 7657   9.906   0.268   1.568  0.0527  0.3635  0.7024
 2360SOL    HW1 7658   9.812   0.263   1.552  0.4542 -0.7948 -1.7356
 2360SOL    HW2 7659   9.938   0.334   1.507  1.2204 -1.6148 -0.9625
 2361SOL     OW 7660   4.399   5.416   2.520 -0.3591  0.1907  0.0012
 2361SOL    HW1 7661   4.348   5.454   2.449  0.1416  0.0088 -0.4572
 2361SOL    HW2 7662   4.477   5.470   2.526 -1.3731  1.5679  1.8720
 2362SOL     OW 7663   1.365   6.367   4.076 -0.3018  0.0704 -0.4740
 2362SOL    HW1 7664   1.458   6.343   4.070  0.0893  1.2042  0.6249
 2362SOL    HW2 7665   1.328   6.303   4.136  0.4767  1.4034  1.5244
 2363SOL     OW 7666   1.640   2.646   7.302  0.5422  0.3245  0.0107
 2363SOL    HW1 7667   1.689   2.676   7.379 -0.3313 -0.1778  0.7820
 2363SOL    HW2 7668   1.707   2.606   7.246  1.0363 -0.3772  1.0613
 2364SOL     OW 7669   0.709   8.353   4.888 -0.2726 -0.4569 -0.1752
 2364SOL    HW1 7670   0.685   8.442   4.863  1.6918 -0.0273 -0.6545
 2364SOL    HW2 7671   0.764   8.364   4.966  1.2347 -1.1079 -1.1134
 2365SOL     OW 7672   3.634   2.100   2.428  0.2289 -0.2802  0.1244
 2365SOL    HW1 7673   3.587   2.031   2.381 -0.0723 -0.0720  0.1125
 2365SOL    HW2 7674   3.637   2.173   2.367 -1.5109  0.5342  0.9148
 2366SOL     OW 7675   3.470   0.592   0.987 -0.2186  0.0584  0.4023
 2366SOL    HW1 7676   3.437   0.522   0.931  2.2049  0.3166 -1.5093
 2366SOL    HW2 7677   3.513   0.546   1.059  0.2131 -0.3918 -0.1358
 2367SOL     OW 7678   3.170   7.618   9.305 -0.0346 -0.2343 -0.2358
 2367SOL    HW1 7679   3.246   7.672   9.284 -0.4155  0.6197  0.5295
 2367SOL    HW2 7680   3.190   7.582   9.391  0.1566 -1.2224 -0.6819
 2368SOL     OW 7681   7.739   4.997   2.631  0.1553  0.3941  0.0930
 2368SOL    HW1 7682   7.646   4.974   2.636  0.4451 -0.7613  0.4081
 2368SOL    HW2 7683   7.742   5.089   2.657 -0.9964  0.7173 -0.8006
 2369SOL     OW 7684   4.100   3.348   3.984 -0.0826  0.4172  0.7054
 2369SOL    HW1 7685   4.047   3.385   3.914  0.1658  1.0884  0.8592
 2369SOL    HW2 7686   4.173   3.410   3.994  1.7768 -1.3836 -0.7473
 2370SOL     OW 7687   6.955   1.871   3.473 -0.1960  1.1388  0.0347
 2370SOL    HW1 7688   7.034   1.920   3.499  0.6505 -0.2879  0.2709
 2370SOL    HW2 7689   6.989   1.787   3.442 -1.6987  0.1738  0.9451
 2371SOL     OW 7690   2.363   3.131   5.797  0.5053  0.4738  0.6935
 2371SOL    HW1 7691   2.283   3.167   5.759 -1.8238 -1.2657  3.4557
 2371SOL    HW2 7692   2.360   3.038   5.777  2.1743  0.4601  0.3789
 2372SOL     OW 7693   9.460   6.616   8.773 -0.3608 -0.4906  0.8286
 2372SOL    HW1 7694   9.523   6.547   8.756 -2.5389 -2.5271  0.5363
 2372SOL    HW2 7695   9.435   6.648   8.686  0.0219  0.1123  0.9322
 2373SOL     OW 7696   1.126   4.364   1.618  0.2759 -0.5601 -0.1154
 2373SOL    HW1 7697   1.201   4.423   1.608 -0.2388  0.0728 -0.2924
 2373SOL    HW2 7698   1.165   4.282   1.647  1.1385 -0.5134 -1.0684
 2374SOL     OW 7699   8.973   6.379   2.608 -0.4262  0.1946  1.1003
 2374SOL    HW1 7700   8.900   6.340   2.656  0.1908 -0.0835  1.8382
 2374SOL    HW2 7701   9.016   6.436   2.671 -0.2032  0.6191  0.5741
 2375SOL     OW 7702   9.824   8.175   9.288  0.4771 -0.2050  0.5508
 2375SOL    HW1 7703   9.774   8.095   9.278  0.7252 -0.4561  1.2214
 2375SOL    HW2 7704   9.809   8.201   9.379  0.2893  0.5858  0.3017
 2376SOL     OW 7705   7.410   7.176   4.419  0.3555 -0.1509  0.0960
 2376SOL    HW1 7706   7.330   7.178   4.365 -0.8634 -0.8348  1.7951
 2376SOL    HW2 7707   7.459   7.101   4.385 -1.1015 -1.5037  0.8015
 2377SOL     OW 7708   5.741   6.680   3.949  0.4084 -0.3690  0.2161
 2377SOL    HW1 7709   5.664   6.731   3.976  0.5013  0.0314 -0.2625
 2377SOL    HW2 7710   5.717   6.646   3.863  0.9393  0.1359 -0.1380
 2378SOL     OW 7711   6.210   4.546   9.690  0.3117  0.1787  0.3903
 2378SOL    HW1 7712   6.284   4.528   9.748 -0.7426 -0.0647  1.7159
 2378SOL    HW2 7713   6.132   4.528   9.743 -0.7405 -1.6436 -1.5767
 2379SOL     OW 7714   1.850   7.160   7.789  0.4847  0.0999 -0.4651
 2379SOL    HW1 7715   1.853   7.135   7.696  1.1322 -0.8297 -0.2073
 2379SOL    HW2 7716   1.757   7.168   7.809  0.3372  1.8598 -1.5784
 2380SOL     OW 7717   8.446   8.836   4.429 -0.3398 -0.4482 -0.6766
 2380SOL    HW1 7718   8.426   8.929   4.417 -1.4576 -0.5519  0.1808
 2380SOL    HW2 7719   8.526   8.821   4.378  1.4699  1.5955  1.3309
 2381SOL     OW 7720   3.808   5.939   7.316 -0.5012 -0.9345 -0.1816
 2381SOL    HW1 7721   3.747   5.922   7.244 -0.7412  1.3475 -0.5898
 2381SOL    HW2 7722   3.753   5.938   7.394 -0.6151 -1.2839 -0.2622
 2382SOL     OW 7723   6.070   3.447   3.108  0.1903 -0.7243 -0.5001
 2382SOL    HW1 7724   6.105   3.374   3.056 -2.5167 -1.5527 -1.3360
 2382SOL    HW2 7725   6.049   3.408   3.193  3.6593  0.4047  1.0570
 2383SOL     OW 7726   4.951   7.953   3.682 -0.1612  0.1315  0.0456
 2383SOL    HW1 7727   5.001   8.008   3.622 -0.8764  3.0372  1.9211
 2383SOL    HW2 7728   5.001   7.955   3.763 -1.0392 -0.6542  0.6260
 2384SOL     OW 7729   4.025   6.587   3.606  0.0862  0.0592 -0.2721
 2384SOL    HW1 7730   4.101   6.600   3.550 -0.7548 -1.3058 -1.7849
 2384SOL    HW2 7731   3.952   6.574   3.546 -2.3058  5.2224  0.9053
 2385SOL     OW 7732   5.272   1.317   5.655  0.5140 -0.1917 -0.2569
 2385SOL    HW1 7733   5.221   1.247   5.614  1.9483 -1.0591 -0.6482
 2385SOL    HW2 7734   5.363   1.288   5.646  1.0474  1.0198  0.9326
 2386SOL     OW 7735   5.369   8.112   7.027 -0.3972 -0.5295  0.2676
 2386SOL    HW1 7736   5.423   8.040   6.995  0.2784 -0.4361  1.1310
 2386SOL    HW2 7737   5.379   8.182   6.963 -1.0299 -1.1781 -0.5579
 2387SOL     OW 7738   4.681   1.092   3.465 -0.8445 -0.5512  0.4434
 2387SOL    HW1 7739   4.645   1.173   3.503 -2.0875 -1.1303  0.5627
 2387SOL    HW2 7740   4.622   1.023   3.496  0.0606 -1.4846  0.1538
 2388SOL     OW 7741   5.788   7.721   3.852  0.0443 -0.2439 -0.3798
 2388SOL    HW1 7742   5.828   7.637   3.833  0.2756 -0.1124 -0.4760
 2388SOL    HW2 7743   5.850   7.786   3.819  0.3517 -0.0180  0.6183
 2389SOL     OW 7744   3.429   4.695   9.581  0.2696 -0.2361 -0.3759
 2389SOL    HW1 7745   3.340   4.698   9.545  0.0706  1.8608  0.1741
 2389SOL    HW2 7746   3.484   4.670   9.507 -0.7003 -0.9688 -0.8693
 2390SOL     OW 7747   7.672   3.891   5.109 -0.2907  0.6346 -0.0296
 2390SOL    HW1 7748   7.602   3.851   5.057  0.1966 -0.7687  0.3470
 2390SOL    HW2 7749   7.640   3.886   5.199 -1.1398  3.0751 -0.1273
 2391SOL     OW 7750   6.969   9.102   0.508 -0.5691  0.2427  0.0274
 2391SOL    HW1 7751   6.900   9.036   0.515 -1.1348  0.9122  1.0619
 2391SOL    HW2 7752   6.928   9.182   0.539 -0.1525  1.3016 -1.9441
 2392SOL     OW 7753   4.387   2.014   8.888 -0.1448 -0.6085  0.1060
 2392SOL    HW1 7754   4.372   1.933   8.937 -0.2964 -0.4889  0.2560
 2392SOL    HW2 7755   4.466   1.995   8.835  1.2133 -0.0792  1.8608
 2393SOL     OW 7756   9.368   2.644   8.010  0.3285  0.2229 -0.2044
 2393SOL    HW1 7757   9.387   2.584   8.081  0.0384 -0.5913 -0.8061
 2393SOL    HW2 7758   9.284   2.684   8.033  0.3026  0.0665 -0.0302
 2394SOL     OW 7759   2.036   1.650   5.360  0.4152  0.0533  0.3011
 2394SOL    HW1 7760   2.018   1.686   5.274 -1.7131 -1.2845  0.1057
 2394SOL    HW2 7761   2.026   1.555   5.350  1.1214 -0.2186  1.7944
 2395SOL     OW 7762   7.978   8.558   3.307  0.9139 -0.9335  0.1349
 2395SOL    HW1 7763   8.029   8.479   3.288 -0.5300 -1.7144 -0.6685
 2395SOL    HW2 7764   7.996   8.616   3.233  1.3526 -0.8186  0.3262
 2396SOL     OW 7765   4.343   3.967   0.166 -0.3957 -0.5412 -0.5070
 2396SOL    HW1 7766   4.354   3.994   0.257 -0.8440  2.2579 -1.1961
 2396SOL    HW2 7767   4.252   3.937   0.160 -0.9005  0.8646 -0.3377
 2397SOL     OW 7768   2.308   4.448   6.236 -0.9049  0.5127  0.1882
 2397SOL    HW1 7769   2.388   4.491   6.267  0.2825 -0.6812 -1.0004
 2397SOL    HW2 7770   2.327   4.427   6.144 -1.0961 -2.9621  0.7821
 2398SOL     OW 7771   5.079   8.812   4.433 -0.2477  0.4718  0.2007
 2398SOL    HW1 7772   5.036   8.742   4.385 -1.0079  0.3246  1.0693
 2398SOL    HW2 7773   5.056   8.796   4.525 -0.2792  1.7455  0.4303
 2399SOL     OW 7774   2.482   0.513   5.113  0.2801  0.3401  0.1320
 2399SOL    HW1 7775   2.422   0.513   5.037  1.2763  1.8211 -0.7176
 2399SOL    HW2 7776   2.425   0.533   5.187 -0.5010  0.3628 -0.4474
 2400SOL     OW 7777   5.822   4.503   3.628  0.1900  0.2646 -0.0138
 2400SOL    HW1 7778   5.873   4.458   3.560 -0.1564  0.5173 -0.4429
 2400SOL    HW2 7779   5.888   4.550   3.679  0.5047 -0.3339  0.1380
 2401SOL     OW 7780   6.203   9.252   9.748 -0.0201  0.2100  0.0767
 2401SOL    HW1 7781   6.171   9.327   9.799  0.8702  0.7554 -0.1374
 2401SOL    HW2 7782   6.291   9.279   9.719  0.8086 -1.3830  0.9861
 2402SOL     OW 7783   2.588   2.782   2.133  0.1913  0.2513 -0.1491
 2402SOL    HW1 7784   2.496   2.792   2.156 -0.4424  0.1679 -2.4000
 2402SOL    HW2 7785   2.622   2.718   2.195 -1.0606  0.8194  1.1774
 2403SOL     OW 7786   6.822   7.127   9.407  0.0455  0.0497  0.6785
 2403SOL    HW1 7787   6.802   7.041   9.443 -0.6258  0.3612  1.0758
 2403SOL    HW2 7788   6.835   7.183   9.483 -1.4646  0.7312  0.4690
 2404SOL     OW 7789   2.607   9.514   5.734 -0.0311  0.0561 -0.1218
 2404SOL    HW1 7790   2.578   9.432   5.694 -0.1326  0.2806 -0.5175
 2404SOL    HW2 7791   2.529   9.568   5.739  0.0157  0.0907  0.2313
 2405SOL     OW 7792   9.790   4.687   8.608  0.3987  0.0338  0.1467
 2405SOL    HW1 7793   9.796   4.721   8.518  0.7885  0.8223  0.4591
 2405SOL    HW2 7794   9.837   4.604   8.605  0.6891  0.2071 -0.3113
 2406SOL     OW 7795   6.465   1.338   9.824  0.7055 -0.2951  0.5604
 2406SOL    HW1 7796   6.398   1.393   9.784 -0.0205  0.8360  3.1179
 2406SOL    HW2 7797   6.472   1.262   9.766 -1.2306  0.5760 -0.9233
 2407SOL     OW 7798   7.236   5.641   1.829 -0.8626 -0.3682 -0.6668
 2407SOL    HW1 7799   7.236   5.693   1.910  0.9026 -0.6273 -0.4669
 2407SOL    HW2 7800   7.268   5.555   1.856 -1.3665 -0.8144 -1.4590
 2408SOL     OW 7801   8.870   8.137   0.892 -0.1428 -0.5997 -0.3111
 2408SOL    HW1 7802   8.918   8.098   0.965 -0.8193 -0.7095  0.0837
 2408SOL    HW2 7803   8.877   8.231   0.906 -0.5535 -0.6261  0.0878
 2409SOL     OW 7804   1.858   3.833   6.507  0.2936 -0.1181 -0.5802
 2409SOL    HW1 7805   1.805   3.863   6.581 -0.1909  1.1969 -1.4305
 2409SOL    HW2 7806   1.797   3.781   6.454 -0.0246  0.9149 -1.2583
 2410SOL     OW 7807   6.256   7.938   7.003 -0.0301  0.1512 -0.1073
 2410SOL    HW1 7808   6.242   7.912   7.094  1.9067  1.2961  0.5910
 2410SOL    HW2 7809   6.210   8.021   6.994 -1.1669 -0.5103 -0.5335
 2411SOL     OW 7810   4.556   3.845   2.643  0.1727  0.0816  0.1418
 2411SOL    HW1 7811   4.565   3.909   2.714 -0.8521  0.3863  0.0047
 2411SOL    HW2 7812   4.647   3.822   2.620  0.6368  2.5548 -0.8003
 2412SOL     OW 7813   8.170   3.634   6.432  0.1573 -0.2066  0.4454
 2412SOL    HW1 7814   8.121   3.552   6.437  0.6521 -0.4318  3.2404
 2412SOL    HW2 7815   8.102   3.702   6.427 -0.4124 -0.6529  1.6076
 2413SOL     OW 7816   0.252   4.054   0.871 -0.2965 -0.2337 -0.3287
 2413SOL    HW1 7817   0.287   4.139   0.844 -2.5331  1.3521  1.4325
 2413SOL    HW2 7818   0.170   4.045   0.823 -2.3484  0.8188  2.7118
 2414SOL     OW 7819   4.326   8.758   5.339  0.0355 -0.1477 -0.3222
 2414SOL    HW1 7820   4.273   8.715   5.406  1.8941 -0.9869  0.6963
 2414SOL    HW2 7821   4.361   8.836   5.383 -0.7248  0.6751 -1.1403
 2415SOL     OW 7822   9.927   0.811   3.826 -0.0580 -0.2334 -0.2705
 2415SOL    HW1 7823   9.905   0.796   3.734 -0.2568  1.2657 -0.5027
 2415SOL    HW2 7824  10.013   0.770   3.837  0.0153 -0.3415 -1.1559
 2416SOL     OW 7825   9.913   4.194   5.540 -0.2465 -0.5557 -0.0335
 2416SOL    HW1 7826   9.870   4.182   5.456 -0.5054  1.7453 -0.2811
 2416SOL    HW2 7827   9.842   4.212   5.601  0.1755  1.7642 -0.1496
 2417SOL     OW 7828   9.569   9.313   9.085  0.0006 -0.3155  0.6467
 2417SOL    HW1 7829   9.616   9.304   9.168  0.6466 -0.3084  0.2907
 2417SOL    HW2 7830   9.496   9.371   9.105  0.8606  0.7090  0.9391
 2418SOL     OW 7831   0.314   8.030   9.192 -0.2534 -0.0686  0.2308
 2418SOL    HW1 7832   0.246   8.093   9.218  1.8045  3.1303 -1.3874
 2418SOL    HW2 7833   0.374   8.028   9.266 -1.4465 -2.0268  1.2076
 2419SOL     OW 7834   6.712   6.289   9.211 -0.7715  0.1264 -0.0981
 2419SOL    HW1 7835   6.671   6.316   9.129 -1.0114 -0.0048 -0.0225
 2419SOL    HW2 7836   6.806   6.306   9.198 -0.8536  0.4555 -0.2583
 2420SOL     OW 7837   9.659   7.395   2.779 -0.2444  0.2369  0.2409
 2420SOL    HW1 7838   9.704   7.351   2.706  0.6044 -0.1999  1.0071
 2420SOL    HW2 7839   9.626   7.324   2.834  0.6662  0.5345  1.2035
 2421SOL     OW 7840   5.066   7.483   6.866 -0.1574  1.1616 -0.0661
 2421SOL    HW1 7841   5.125   7.536   6.812  0.6871  0.1273 -0.1821
 2421SOL    HW2 7842   5.094   7.393   6.851 -1.3236  0.7040  0.4282
 2422SOL     OW 7843   4.345   9.152   4.061 -0.5603  0.6358 -0.1070
 2422SOL    HW1 7844   4.438   9.169   4.044 -0.4913  1.8249  1.2145
 2422SOL    HW2 7845   4.335   9.168   4.155 -1.8441 -0.7987  0.0283
 2423SOL     OW 7846   4.475   6.231   1.296 -0.0300 -0.3258 -0.1082
 2423SOL    HW1 7847   4.394   6.235   1.245 -0.3383  0.0730  0.3978
 2423SOL    HW2 7848   4.450   6.184   1.376  1.1566 -3.7682 -1.5875
 2424SOL     OW 7849   9.079   1.997   3.770  0.4096  1.0541 -0.2856
 2424SOL    HW1 7850   9.002   2.042   3.736  0.4181  0.4069 -1.2012
 2424SOL    HW2 7851   9.096   2.038   3.855 -1.0466  1.0797  0.0092
 2425SOL     OW 7852   0.105   3.855   5.291  0.3440 -0.1470 -0.0421
 2425SOL    HW1 7853   0.183   3.909   5.303  0.5815 -0.2321 -1.1256
 2425SOL    HW2 7854   0.032   3.918   5.288  0.4585 -0.0043  0.1700
 2426SOL     OW 7855   9.824   8.100   0.862  0.1320 -0.5057 -0.0385
 2426SOL    HW1 7856   9.786   8.049   0.790 -0.3274 -0.7835  0.3954
 2426SOL    HW2 7857   9.779   8.185   0.858  0.1887 -0.4805 -0.1448
 2427SOL     OW 7858   9.096   1.559   8.335  0.6668  0.8438 -0.1111
 2427SOL    HW1 7859   9.167   1.496   8.343 -1.4093 -1.6346 -0.2447
 2427SOL    HW2 7860   9.108   1.598   8.248 -0.0929 -2.1790 -1.6844
 2428SOL     OW 7861   7.652   1.691   0.854 -0.2691 -0.2292  0.5092
 2428SOL    HW1 7862   7.607   1.609   0.877 -0.2859  0.2093  2.1573
 2428SOL    HW2 7863   7.739   1.663   0.826 -0.4857 -0.8550  0.4421
 2429SOL     OW 7864   1.694   5.407   4.504  0.0577 -0.5428  0.3669
 2429SOL    HW1 7865   1.654   5.334   4.552  0.3451 -1.0827 -0.1931
 2429SOL    HW2 7866   1.678   5.387   4.412  0.5376 -0.1342  0.1892
 2430SOL     OW 7867   6.389   6.172   1.131 -0.6113  0.5609 -0.1891
 2430SOL    HW1 7868   6.448   6.247   1.138  1.7281 -1.0656 -1.2137
 2430SOL    HW2 7869   6.358   6.158   1.221  0.5450  1.4804  0.3818
 2431SOL     OW 7870   2.756   1.051   9.233  0.2669 -0.0805 -0.2755
 2431SOL    HW1 7871   2.836   1.031   9.282  0.1666  2.3667  1.0709
 2431SOL    HW2 7872   2.704   1.104   9.294 -2.3444 -1.4859 -1.1821
 2432SOL     OW 7873   1.754   2.738   2.951  0.0094  0.6068 -0.5540
 2432SOL    HW1 7874   1.834   2.716   2.999 -0.2202 -1.1559 -0.9228
 2432SOL    HW2 7875   1.685   2.739   3.017 -0.2312 -1.3731 -0.7271
 2433SOL     OW 7876   7.858   6.607   8.040  0.0467  0.2484 -0.2133
 2433SOL    HW1 7877   7.815   6.524   8.058  0.8555  0.2048  1.7506
 2433SOL    HW2 7878   7.950   6.584   8.026  0.0302  0.6776 -1.0664
 2434SOL     OW 7879   9.782   1.956   1.300  0.3178 -0.4656 -0.4544
 2434SOL    HW1 7880   9.705   1.992   1.257 -0.4952  1.2402  2.2070
 2434SOL    HW2 7881   9.856   1.987   1.248 -0.5666  2.0502 -0.3446
 2435SOL     OW 7882   2.931   3.829   6.165 -0.4237 -0.1099 -0.2736
 2435SOL    HW1 7883   2.953   3.847   6.074  1.2370 -1.1549 -0.1287
 2435SOL    HW2 7884   2.847   3.784   6.161 -0.5256  0.1471 -1.2580
 2436SOL     OW 7885   6.006   5.401   8.671 -1.1760 -0.6200  0.9569
 2436SOL    HW1 7886   5.965   5.347   8.604 -0.2576  1.8024 -1.7575
 2436SOL    HW2 7887   5.979   5.490   8.649  2.3614  0.6994  1.3672
 2437SOL     OW 7888   5.802   3.671   8.256  0.3955 -0.1919  0.4142
 2437SOL    HW1 7889   5.725   3.713   8.219 -0.2055 -1.5180  0.1141
 2437SOL    HW2 7890   5.814   3.713   8.341  1.8814  3.0304 -1.2024
 2438SOL     OW 7891   4.296   9.940   8.358  0.6838 -0.3591 -0.5235
 2438SOL    HW1 7892   4.284   9.904   8.446 -0.1210  1.8838  0.3593
 2438SOL    HW2 7893   4.287   9.865   8.300 -0.2580 -1.6726  1.2192
 2439SOL     OW 7894   1.517   5.282   9.316  0.5399 -0.6486 -0.1828
 2439SOL    HW1 7895   1.528   5.212   9.381 -0.8362  0.0917  0.8886
 2439SOL    HW2 7896   1.452   5.248   9.255 -0.1477 -0.3234  0.3523
 2440SOL     OW 7897   4.444   9.596   3.704  0.4524  0.8928 -0.3136
 2440SOL    HW1 7898   4.367   9.539   3.698  0.6314  0.5798  0.2516
 2440SOL    HW2 7899   4.419   9.662   3.769  1.0605  0.1204  0.7414
 2441SOL     OW 7900   7.360   1.452   2.875 -0.0986  0.0174  0.5278
 2441SOL    HW1 7901   7.438   1.451   2.820 -0.2654  2.3218  0.1624
 2441SOL    HW2 7902   7.380   1.392   2.947  2.0263  0.6019  0.4712
 2442SOL     OW 7903   8.126   1.311   5.271  0.3337 -0.2249 -0.0393
 2442SOL    HW1 7904   8.073   1.348   5.342  0.9413 -1.4524  1.1092
 2442SOL    HW2 7905   8.094   1.353   5.192  0.3791  2.0730  1.0746
 2443SOL     OW 7906   9.821   5.098   3.172 -0.2428 -0.6780  0.5992
 2443SOL    HW1 7907   9.774   5.079   3.091 -0.7600 -1.6052  1.1108
 2443SOL    HW2 7908   9.759   5.079   3.242 -0.2619  1.3630  1.2220
 2444SOL     OW 7909   0.247   2.137   5.797 -0.3324  0.0995 -0.1375
 2444SOL    HW1 7910   0.226   2.128   5.704  0.0753  0.9405 -0.3164
 2444SOL    HW2 7911   0.309   2.210   5.801  2.1662 -1.8709  0.4130
 2445SOL     OW 7912   7.026   7.769   7.138 -0.1038 -0.4202 -0.8206
 2445SOL    HW1 7913   6.940   7.728   7.152 -0.7662  0.8529 -0.9880
 2445SOL    HW2 7914   7.071   7.759   7.222 -1.9558  2.3221  0.6408
 2446SOL     OW 7915   2.776   7.174   9.000  0.2013 -0.0631 -0.1957
 2446SOL    HW1 7916   2.795   7.228   8.923  1.2912 -2.7174 -1.9580
 2446SOL    HW2 7917   2.851   7.114   9.005 -0.7175 -1.1047  1.9019
 2447SOL     OW 7918   2.957   3.764   5.902 -0.6209  0.1043 -0.1417
 2447SOL    HW1 7919   2.910   3.693   5.947 -0.2128  0.3590  0.7090
 2447SOL    HW2 7920   2.993   3.723   5.823 -2.3245 -0.0762 -0.8634
 2448SOL     OW 7921   8.895   1.132   3.034 -0.9752  0.7728  0.0201
 2448SOL    HW1 7922   8.812   1.180   3.035 -0.9724  0.7619  1.1620
 2448SOL    HW2 7923   8.962   1.199   3.051 -0.8970  0.5021  0.7741
 2449SOL     OW 7924   2.667   6.656   9.204  0.3314 -0.1433  0.0435
 2449SOL    HW1 7925   2.712   6.665   9.120  1.2054 -0.5482  0.4545
 2449SOL    HW2 7926   2.723   6.597   9.255  0.9177  1.6893  1.6652
 2450SOL     OW 7927   5.111   9.573   3.276  0.4158  0.1455 -0.4499
 2450SOL    HW1 7928   5.083   9.609   3.360  0.0937 -1.5377  0.1956
 2450SOL    HW2 7929   5.035   9.523   3.245  0.4874  0.8240 -1.8155
 2451SOL     OW 7930   7.200   8.737   4.435 -0.2344 -0.0641  0.2520
 2451SOL    HW1 7931   7.262   8.745   4.362 -1.8213  2.5058 -0.9886
 2451SOL    HW2 7932   7.182   8.644   4.441  2.9727 -0.8133  0.0672
 2452SOL     OW 7933   6.042   2.602   5.266 -0.2733 -0.3032  0.4116
 2452SOL    HW1 7934   6.006   2.523   5.228 -1.0471  1.1377 -2.1219
 2452SOL    HW2 7935   6.027   2.594   5.360  0.6175 -3.5450  0.3806
 2453SOL     OW 7936   4.993   6.222   1.964 -0.1434  0.2230  0.0250
 2453SOL    HW1 7937   5.025   6.213   2.054 -1.6153  0.1689  0.5672
 2453SOL    HW2 7938   5.008   6.136   1.925 -0.5221 -0.1041  0.5781
 2454SOL     OW 7939   1.317   4.705   3.214 -0.3664  0.1769  0.1970
 2454SOL    HW1 7940   1.317   4.718   3.119  2.6527  0.1046  0.1084
 2454SOL    HW2 7941   1.360   4.621   3.227  1.3278  1.2162  1.6809
 2455SOL     OW 7942   1.787   3.588   9.964  0.2409  0.0193  0.0687
 2455SOL    HW1 7943   1.849   3.660   9.954  0.6738 -0.5180 -1.2512
 2455SOL    HW2 7944   1.701   3.630   9.951  0.5112  0.2422 -1.0866
 2456SOL     OW 7945   8.394   8.134   1.926  0.1402  0.0910  0.4406
 2456SOL    HW1 7946   8.477   8.116   1.971 -0.3006 -1.5927  0.6613
 2456SOL    HW2 7947   8.414   8.125   1.833  0.3115  0.1215  0.4752
 2457SOL     OW 7948   2.444   1.949   2.410 -0.3395  0.4264 -0.3781
 2457SOL    HW1 7949   2.449   1.858   2.438  0.6421  1.1954  2.2601
 2457SOL    HW2 7950   2.368   1.952   2.352 -1.2018 -1.8159  0.5080
 2458SOL     OW 7951   4.103   0.997   8.289  0.7301 -0.4579  0.1256
 2458SOL    HW1 7952   4.028   0.940   8.305  0.4926  0.0157  0.7663
 2458SOL    HW2 7953   4.072   1.061   8.225 -0.8187  2.2435  3.2669
 2459SOL     OW 7954   9.118   5.741   5.727  0.2526 -0.8149 -0.3218
 2459SOL    HW1 7955   9.152   5.780   5.808 -0.6544  2.0546 -1.1818
 2459SOL    HW2 7956   9.029   5.714   5.749  0.2588 -0.7033 -0.1529
 2460SOL     OW 7957   3.406   5.730   4.357  0.0990 -0.3368  0.3633
 2460SOL    HW1 7958   3.325   5.685   4.381 -0.5565  1.6115  2.0570
 2460SOL    HW2 7959   3.427   5.695   4.270 -1.4245 -2.3706  0.7274
 2461SOL     OW 7960   0.333   7.840   3.901 -0.0121  0.3072  0.2005
 2461SOL    HW1 7961   0.407   7.858   3.957  0.5526  1.0682 -0.7579
 2461SOL    HW2 7962   0.361   7.765   3.847 -0.2072  0.1533  0.3102
 2462SOL     OW 7963   4.761   0.972   0.757 -0.1857 -0.3681 -0.4111
 2462SOL    HW1 7964   4.810   0.945   0.679 -0.3515 -0.7359 -0.3927
 2462SOL    HW2 7965   4.689   0.908   0.763  0.5216 -1.0975  0.7329
 2463SOL     OW 7966   8.457   7.562   4.354  0.2682 -0.2630  0.0835
 2463SOL    HW1 7967   8.520   7.623   4.317 -0.4554  0.1162 -0.5510
 2463SOL    HW2 7968   8.508   7.483   4.372  0.4450 -1.0031 -3.0567
 2464SOL     OW 7969   2.350   5.567   2.030 -0.6405  0.0977  0.1592
 2464SOL    HW1 7970   2.410   5.497   2.056  1.6484  1.7331 -0.3185
 2464SOL    HW2 7971   2.342   5.621   2.109 -0.3755  0.6110 -0.1584
 2465SOL     OW 7972   4.056   1.842   6.913 -0.4824  0.0146 -0.1810
 2465SOL    HW1 7973   3.994   1.799   6.972 -0.3458 -0.9848 -0.7595
 2465SOL    HW2 7974   4.095   1.771   6.862  0.4388  0.7270 -0.4962
 2466SOL     OW 7975   1.572   6.114   7.319  0.2213 -0.2116 -0.0447
 2466SOL    HW1 7976   1.497   6.056   7.308 -0.0336  0.1998 -0.5064
 2466SOL    HW2 7977   1.627   6.070   7.385 -0.3430 -0.5888  0.1813
 2467SOL     OW 7978   0.613   4.558  10.003 -0.7367  0.1214 -0.0889
 2467SOL    HW1 7979   0.572   4.632   9.958  0.9396  0.6037 -0.9548
 2467SOL    HW2 7980   0.564   4.481   9.974 -1.4639  0.7316 -0.5023
 2468SOL     OW 7981   8.050   9.738   5.560  1.2442  0.4468 -0.5362
 2468SOL    HW1 7982   7.988   9.665   5.566  3.7277 -1.7832  0.0755
 2468SOL    HW2 7983   8.014   9.795   5.492 -0.1812 -2.0493 -2.0439
 2469SOL     OW 7984   6.250   0.348   8.527 -0.2278  0.5287 -0.1775
 2469SOL    HW1 7985   6.297   0.269   8.554  0.4374  1.4637  1.4839
 2469SOL    HW2 7986   6.161   0.335   8.559 -0.1609  0.3747 -0.0545
 2470SOL     OW 7987   8.820   8.487   2.372  0.7763 -0.6121  0.3692
 2470SOL    HW1 7988   8.880   8.428   2.418  2.4306  0.1253 -0.7671
 2470SOL    HW2 7989   8.797   8.554   2.436  0.4299 -1.3920  1.0797
 2471SOL     OW 7990   7.671   1.489   1.222  0.4542  0.3274  0.1028
 2471SOL    HW1 7991   7.587   1.444   1.228  1.0529 -1.0358 -1.1198
 2471SOL    HW2 7992   7.652   1.579   1.246 -0.9812 -0.3455  1.7117
 2472SOL     OW 7993   5.111   4.653   6.521  0.0550  0.3710  0.5966
 2472SOL    HW1 7994   5.146   4.736   6.488 -0.1575 -0.0810 -0.8266
 2472SOL    HW2 7995   5.175   4.587   6.493 -0.7597 -0.1782 -0.0127
 2473SOL     OW 7996   2.490   6.483   5.916 -0.3784 -0.6754 -0.4531
 2473SOL    HW1 7997   2.519   6.401   5.877  0.7277 -0.7570  0.4649
 2473SOL    HW2 7998   2.570   6.535   5.925 -0.7859 -0.1726  0.5019
 2474SOL     OW 7999   9.239   1.441   4.223 -0.0460 -0.5276 -0.2881
 2474SOL    HW1 8000   9.153   1.483   4.221  0.7798  1.3036  0.3991
 2474SOL    HW2 8001   9.227   1.363   4.276 -1.2464 -0.2300 -0.1004
 2475SOL     OW 8002   6.355   7.130   0.690  0.0320  0.2401 -0.2763
 2475SOL    HW1 8003   6.450   7.145   0.689 -0.0364  0.9275  1.1500
 2475SOL    HW2 8004   6.346   7.037   0.710  0.3970 -0.1502 -1.8095
 2476SOL     OW 8005   7.705   3.715   0.996 -0.1328 -0.0713  0.0372
 2476SOL    HW1 8006   7.732   3.783   0.934 -1.8132  0.7605  0.1457
 2476SOL    HW2 8007   7.684   3.763   1.077 -1.2440 -0.7016  0.1563
 2477SOL     OW 8008   1.503   7.945   0.465  0.8073  0.4190  0.6174
 2477SOL    HW1 8009   1.476   8.031   0.432  1.7727  0.9950  1.2679
 2477SOL    HW2 8010   1.599   7.947   0.462  0.8554 -0.4194  1.1950
 2478SOL     OW 8011   0.669   7.801   4.234  0.7144  0.0801  0.4182
 2478SOL    HW1 8012   0.650   7.831   4.146  1.2057 -0.9219 -0.0501
 2478SOL    HW2 8013   0.623   7.862   4.291  1.0095  1.1949 -0.5011
 2479SOL     OW 8014   2.057   7.754   4.786  0.1074  0.3372 -0.3852
 2479SOL    HW1 8015   1.970   7.712   4.790  0.6739 -0.8507  2.4520
 2479SOL    HW2 8016   2.106   7.701   4.723 -0.3148 -1.0393  0.3842
 2480SOL     OW 8017   5.215   9.211   8.535  0.0799  0.4023 -0.9837
 2480SOL    HW1 8018   5.272   9.210   8.612  0.0438  1.8077 -0.8970
 2480SOL    HW2 8019   5.127   9.228   8.570 -0.7149 -3.0446 -0.9862
 2481SOL     OW 8020   9.355   4.271   7.210 -0.2091  0.2770  0.1755
 2481SOL    HW1 8021   9.441   4.229   7.219  0.7866  2.0791 -0.3885
 2481SOL    HW2 8022   9.374   4.357   7.174 -2.5139 -0.5456 -3.6192
 2482SOL     OW 8023   6.236   7.225   0.452 -0.0850  0.5300  0.2227
 2482SOL    HW1 8024   6.240   7.189   0.541  1.6078  1.5797  0.6188
 2482SOL    HW2 8025   6.168   7.174   0.409  0.1854 -1.1247  1.6283
 2483SOL     OW 8026   4.010   4.989   0.370 -0.1270  0.1012  0.7052
 2483SOL    HW1 8027   3.935   4.989   0.310  0.6436  0.3594 -0.2830
 2483SOL    HW2 8028   4.004   4.904   0.415 -0.4016 -0.3462 -0.1521
 2484SOL     OW 8029   5.954   7.534   6.834 -0.1945 -0.5643 -0.1614
 2484SOL    HW1 8030   5.947   7.477   6.758 -0.1709 -1.9736  0.8535
 2484SOL    HW2 8031   6.028   7.591   6.814 -1.5650  0.6346 -2.1312
 2485SOL     OW 8032   2.882   9.139   4.118 -0.3098  0.1628  0.6485
 2485SOL    HW1 8033   2.913   9.215   4.167 -1.6844  1.2691 -0.1099
 2485SOL    HW2 8034   2.788   9.137   4.134 -0.7247  0.2370 -1.4425
 2486SOL     OW 8035   7.925   6.642   0.133 -0.0263 -0.0208 -0.1230
 2486SOL    HW1 8036   7.937   6.737   0.132  3.1606 -0.2796  0.7492
 2486SOL    HW2 8037   7.917   6.619   0.225  0.9287 -0.6844 -0.1804
 2487SOL     OW 8038   3.477   6.038   7.861  0.2167  0.1437  0.1303
 2487SOL    HW1 8039   3.571   6.045   7.843 -0.3400  0.5232 -3.2845
 2487SOL    HW2 8040   3.463   5.946   7.880  0.9224 -0.5634 -2.4342
 2488SOL     OW 8041   4.993   9.652   4.841 -0.4902 -0.3287  0.3468
 2488SOL    HW1 8042   5.019   9.560   4.844 -0.3887 -0.3086  0.0943
 2488SOL    HW2 8043   5.071   9.698   4.811  0.0760  0.0770  2.2927
 2489SOL     OW 8044   5.803   3.738   9.724  0.0719 -0.0102 -0.5489
 2489SOL    HW1 8045   5.793   3.672   9.655  0.5346  0.9465 -1.5699
 2489SOL    HW2 8046   5.860   3.804   9.685 -0.2240  0.8988  0.5188
 2490SOL     OW 8047   1.306   1.447   4.895 -0.5874  0.3200 -0.2959
 2490SOL    HW1 8048   1.397   1.477   4.906 -0.0066 -1.0457 -1.0543
 2490SOL    HW2 8049   1.255   1.503   4.953  0.8338  0.6804  0.6709
 2491SOL     OW 8050   4.130   7.235   4.097 -0.0236 -0.0797  0.2791
 2491SOL    HW1 8051   4.128   7.328   4.073  0.0439  0.0188  0.6583
 2491SOL    HW2 8052   4.121   7.189   4.013 -0.9275  0.2695  0.1663
 2492SOL     OW 8053   5.278   2.095   2.282  0.0566 -0.1545 -0.6751
 2492SOL    HW1 8054   5.283   2.162   2.351  1.3644 -1.1056  0.2035
 2492SOL    HW2 8055   5.309   2.140   2.203 -2.0655  1.1335 -0.8688
 2493SOL     OW 8056   4.404   1.181   8.048  0.2562 -0.1319 -0.4699
 2493SOL    HW1 8057   4.451   1.254   8.089 -1.4045  0.1838  1.0018
 2493SOL    HW2 8058   4.453   1.103   8.074  0.0857  0.2012  0.9066
 2494SOL     OW 8059   7.903   3.374   3.548  0.1222 -0.4758  0.2542
 2494SOL    HW1 8060   7.859   3.308   3.495 -0.5517 -0.5812  0.9205
 2494SOL    HW2 8061   7.832   3.432   3.577  0.9229  1.8387 -2.0640
 2495SOL     OW 8062   4.220   0.604   1.322 -0.6763 -0.1862  0.4790
 2495SOL    HW1 8063   4.203   0.655   1.242  1.4873  0.6614  0.5046
 2495SOL    HW2 8064   4.202   0.665   1.393 -2.0529 -0.7681  0.6520
 2496SOL     OW 8065   3.765   9.447   9.158 -0.1451  0.2599  0.0354
 2496SOL    HW1 8066   3.757   9.441   9.253 -1.1518 -1.3540 -0.1122
 2496SOL    HW2 8067   3.723   9.530   9.136 -0.7993  0.1816  0.9177
 2497SOL     OW 8068   6.535   8.599   1.884  0.0546 -0.2242 -0.4552
 2497SOL    HW1 8069   6.560   8.677   1.835  0.8086 -0.3620 -0.3133
 2497SOL    HW2 8070   6.469   8.556   1.830 -0.6999  0.7331 -0.3215
 2498SOL     OW 8071   0.166   4.206   3.154  0.0268 -0.4909  0.2097
 2498SOL    HW1 8072   0.131   4.287   3.193 -2.3126 -1.0241 -0.6282
 2498SOL    HW2 8073   0.256   4.201   3.187  0.0483  2.1148  0.7872
 2499SOL     OW 8074   4.861   9.375   6.643 -0.2784  0.0011 -0.4485
 2499SOL    HW1 8075   4.832   9.345   6.729  0.5602  2.4406  0.7828
 2499SOL    HW2 8076   4.955   9.358   6.642 -0.4147 -0.7923 -1.2643
 2500SOL     OW 8077   3.044   4.141   6.575  0.1500  0.0968  0.2881
 2500SOL    HW1 8078   3.112   4.193   6.618  0.1057  0.4554 -0.0754
 2500SOL    HW2 8079   3.091   4.089   6.510  0.2817 -0.7929  1.0715
 2501SOL     OW 8080   5.975   4.963   1.701  0.2351  0.3151  0.1025
 2501SOL    HW1 8081   5.886   4.943   1.673 -0.2699  1.2563  0.9917
 2501SOL    HW2 8082   6.024   4.972   1.620 -0.5024 -0.1151 -0.3985
 2502SOL     OW 8083   8.119   3.573   9.194  1.1645  0.1863 -0.3501
 2502SOL    HW1 8084   8.188   3.552   9.256  1.4997 -0.5831 -0.9609
 2502SOL    HW2 8085   8.062   3.495   9.194 -0.9576  1.5995  1.7289
 2503SOL     OW 8086   0.482   9.229   4.254 -0.1075  0.4469 -0.1274
 2503SOL    HW1 8087   0.524   9.264   4.176  0.1706 -0.4397 -0.3840
 2503SOL    HW2 8088   0.417   9.295   4.278 -0.2529  0.6872 -1.1475
 2504SOL     OW 8089   0.144   6.325   7.627  0.1651  0.2735  0.3675
 2504SOL    HW1 8090   0.118   6.357   7.713  1.3015 -1.8445  1.5774
 2504SOL    HW2 8091   0.081   6.256   7.607  0.5869 -0.0215  0.0309
 2505SOL     OW 8092   8.411   1.840   1.653  0.3583  0.4121 -0.0710
 2505SOL    HW1 8093   8.371   1.908   1.706  0.2274 -0.1795  0.5972
 2505SOL    HW2 8094   8.505   1.860   1.655  0.4858 -0.2295  1.3089
 2506SOL     OW 8095   7.843   8.109   6.044  0.1931  0.0706  0.2198
 2506SOL    HW1 8096   7.757   8.083   6.013 -0.1480 -0.7160  1.7571
 2506SOL    HW2 8097   7.850   8.071   6.131  2.3859 -0.4827 -0.1478
 2507SOL     OW 8098   3.826   0.424   8.850 -0.1942  0.1020  0.1070
 2507SOL    HW1 8099   3.749   0.385   8.809  0.7616  0.0848 -1.8016
 2507SOL    HW2 8100   3.896   0.362   8.833  0.2895  0.1624  1.7429
 2508SOL     OW 8101   8.321   2.509   9.922 -0.4024  0.6320  0.5889
 2508SOL    HW1 8102   8.319   2.584   9.981 -1.4470  0.7951  0.3588
 2508SOL    HW2 8103   8.296   2.435   9.978 -2.4286  0.9464  0.1498
 2509SOL     OW 8104   7.239   2.146   8.984  0.0636  0.3958 -0.1698
 2509SOL    HW1 8105   7.308   2.145   8.917 -0.2403  1.0993 -0.5067
 2509SOL    HW2 8106   7.286   2.133   9.067  0.5452  0.3546 -0.4437
 2510SOL     OW 8107   5.098   7.625   9.457  0.2181  0.1010 -0.1470
 2510SOL    HW1 8108   5.125   7.643   9.367  0.4237 -0.0846 -0.1231
 2510SOL    HW2 8109   5.143   7.691   9.510  2.2651 -1.4261  0.1334
 2511SOL     OW 8110   9.313   0.442   6.314  0.2899  0.3215 -0.5882
 2511SOL    HW1 8111   9.348   0.504   6.378  0.5347  0.2970 -0.6958
 2511SOL    HW2 8112   9.380   0.439   6.245 -0.0377  0.4587 -0.9150
 2512SOL     OW 8113   3.247   0.649   8.624 -0.7387 -0.3228 -0.2793
 2512SOL    HW1 8114   3.242   0.563   8.581  0.6138 -0.0912 -0.9781
 2512SOL    HW2 8115   3.179   0.647   8.691 -0.0418 -2.3643  0.4448
 2513SOL     OW 8116   9.323   7.309   3.106 -0.2307 -0.2316  0.4099
 2513SOL    HW1 8117   9.286   7.353   3.183 -1.0811 -0.8771  0.3859
 2513SOL    HW2 8118   9.310   7.216   3.124  1.2892 -0.4693  0.3356
 2514SOL     OW 8119   6.165   6.192   4.047  0.5849 -0.3213 -0.5885
 2514SOL    HW1 8120   6.155   6.119   4.108  0.4066 -0.7547 -1.1277
 2514SOL    HW2 8121   6.092   6.183   3.986  0.4452  0.4267 -0.5474
 2515SOL     OW 8122   2.714   0.831   2.142 -0.2651 -1.1020 -0.4372
 2515SOL    HW1 8123   2.669   0.904   2.185  0.2339 -1.3117  0.4628
 2515SOL    HW2 8124   2.705   0.850   2.048  0.4357  0.4852 -0.2253
 2516SOL     OW 8125   2.720   0.993   1.031  0.3314  0.0710  0.1610
 2516SOL    HW1 8126   2.811   0.994   1.058  0.6345  1.3873 -0.7948
 2516SOL    HW2 8127   2.702   0.902   1.008  1.6875 -0.0369 -0.5474
 2517SOL     OW 8128   2.555   1.395   9.542  0.1553  0.0135 -0.0328
 2517SOL    HW1 8129   2.474   1.421   9.498  0.5180  1.7059  0.2099
 2517SOL    HW2 8130   2.526   1.349   9.621 -0.6799  2.1490  0.9974
 2518SOL     OW 8131   1.696   0.652   7.130 -0.0012 -0.0114  0.0543
 2518SOL    HW1 8132   1.655   0.738   7.136  1.2541  0.5617  0.9055
 2518SOL    HW2 8133   1.726   0.633   7.219  0.8748 -0.7350 -0.3780
 2519SOL     OW 8134   5.210   8.545   5.839  0.1482  0.1901 -0.2797
 2519SOL    HW1 8135   5.266   8.608   5.885  1.6190 -2.3282  1.6762
 2519SOL    HW2 8136   5.267   8.505   5.774 -0.0677 -0.7411  0.0971
 2520SOL     OW 8137   1.897   5.096   2.506  0.1130 -0.7538 -0.1911
 2520SOL    HW1 8138   1.853   5.157   2.447 -0.0547  0.1771  0.8497
 2520SOL    HW2 8139   1.947   5.038   2.449  1.4890  1.2915 -1.1762
 2521SOL     OW 8140   6.043   5.504   9.375  0.1905 -0.3834 -0.3864
 2521SOL    HW1 8141   6.000   5.544   9.451 -1.1180 -1.0319 -0.7619
 2521SOL    HW2 8142   6.094   5.431   9.412 -1.5485 -1.5830 -0.2275
 2522SOL     OW 8143   8.947   8.855   9.742  0.2181  0.0951  0.7890
 2522SOL    HW1 8144   8.876   8.916   9.725  0.2884 -0.0105  0.1039
 2522SOL    HW2 8145   9.027   8.905   9.724  0.2712 -1.0116 -2.8949
 2523SOL     OW 8146   9.661   7.498   7.394 -0.1699  0.7841  0.3533
 2523SOL    HW1 8147   9.631   7.567   7.334 -0.5679  0.0847 -0.2781
 2523SOL    HW2 8148   9.581   7.469   7.439 -0.1979  0.0004 -0.1795
 2524SOL     OW 8149   4.196   2.125   5.194  0.1169  0.4164  0.2039
 2524SOL    HW1 8150   4.222   2.188   5.127 -0.7358 -0.8049 -1.3730
 2524SOL    HW2 8151   4.243   2.045   5.170  1.1204  0.3865  2.1061
 2525SOL     OW 8152   7.548   8.727   9.318  0.2873 -0.6891  0.4456
 2525SOL    HW1 8153   7.555   8.769   9.232 -1.0663 -2.7302 -0.7567
 2525SOL    HW2 8154   7.627   8.673   9.324  1.0005  0.3903  1.0766
 2526SOL     OW 8155   6.482   8.769   9.738  0.0871 -0.7767 -0.7161
 2526SOL    HW1 8156   6.446   8.706   9.675 -0.5318 -0.6713 -0.4766
 2526SOL    HW2 8157   6.554   8.811   9.691  0.3561 -1.4905 -0.9624
 2527SOL     OW 8158   3.849   6.679   2.703  0.2225 -0.1664 -0.4125
 2527SOL    HW1 8159   3.938   6.712   2.715 -0.3792  1.1240  0.9055
 2527SOL    HW2 8160   3.821   6.656   2.792 -0.8258 -0.3136 -0.7753
 2528SOL     OW 8161   1.893   6.758   6.410 -0.0392 -0.1103 -0.1295
 2528SOL    HW1 8162   1.814   6.728   6.364  1.5298 -1.6346 -2.0418
 2528SOL    HW2 8163   1.872   6.846   6.439 -2.0043  0.0192 -1.7278
 2529SOL     OW 8164   3.237   8.913   8.243  0.0751 -0.4801  0.1438
 2529SOL    HW1 8165   3.272   8.834   8.285 -2.3060 -1.4599  0.4966
 2529SOL    HW2 8166   3.154   8.929   8.289 -0.2967  1.2453 -1.0523
 2530SOL     OW 8167   6.974   3.996   4.883 -0.0935 -0.2270  0.2690
 2530SOL    HW1 8168   6.949   4.080   4.921 -4.0021 -1.2161  0.3357
 2530SOL    HW2 8169   6.956   4.005   4.790  1.4004 -0.4305 -0.0667
 2531SOL     OW 8170   4.854   2.979   7.181 -0.1828  0.1502 -0.4042
 2531SOL    HW1 8171   4.764   2.984   7.148  0.3961 -0.0700 -2.0811
 2531SOL    HW2 8172   4.906   3.029   7.118  0.9973 -0.4303  0.0779
 2532SOL     OW 8173   7.627   2.665   4.116 -0.1937 -0.4721 -0.6701
 2532SOL    HW1 8174   7.677   2.706   4.187  0.4425 -0.2511 -1.2306
 2532SOL    HW2 8175   7.577   2.595   4.158  0.2023 -0.3614 -0.0100
 2533SOL     OW 8176   8.969   3.301   8.480 -0.0050  0.5708 -0.1332
 2533SOL    HW1 8177   9.011   3.261   8.404 -0.4042 -0.0711 -0.0173
 2533SOL    HW2 8178   8.890   3.343   8.445 -0.2330  0.2039 -0.0645
 2534SOL     OW 8179   2.661   6.868   7.436  0.3627 -0.3169  0.5006
 2534SOL    HW1 8180   2.642   6.829   7.522 -0.1708 -2.3886 -0.4955
 2534SOL    HW2 8181   2.748   6.838   7.414 -0.7240 -2.5711 -1.0627
 2535SOL     OW 8182   6.773   2.032   8.640 -0.1618 -0.3983  0.0443
 2535SOL    HW1 8183   6.720   1.983   8.577  0.2814 -0.2221 -0.4722
 2535SOL    HW2 8184   6.837   1.970   8.672  0.5762 -0.1010 -0.8166
 2536SOL     OW 8185   9.134   8.269   9.486 -0.2187 -0.1315 -0.0888
 2536SOL    HW1 8186   9.147   8.348   9.537  1.5558 -0.4378 -0.0308
 2536SOL    HW2 8187   9.221   8.231   9.475 -0.4847 -0.1607 -3.2326
 2537SOL     OW 8188   8.732   3.027   4.540 -0.3115 -0.1462  0.8239
 2537SOL    HW1 8189   8.757   3.022   4.448  0.1490  0.6812  0.8951
 2537SOL    HW2 8190   8.642   2.994   4.542  0.0831 -1.3215  0.2705
 2538SOL     OW 8191   0.404   2.439   8.378  0.2766  0.4809 -0.1451
 2538SOL    HW1 8192   0.449   2.522   8.397  2.4804 -0.7068  0.2043
 2538SOL    HW2 8193   0.455   2.374   8.427 -0.2267 -1.3237 -1.9336
 2539SOL     OW 8194   8.486   0.372   9.831  0.0433 -0.3033  0.2425
 2539SOL    HW1 8195   8.421   0.317   9.786 -0.1801 -0.7323  1.0661
 2539SOL    HW2 8196   8.568   0.323   9.823 -0.1752 -0.8328  1.0664
 2540SOL     OW 8197   9.525   1.501   2.215 -0.0112 -0.2117  0.0298
 2540SOL    HW1 8198   9.518   1.424   2.159 -0.3823  0.9000 -1.5472
 2540SOL    HW2 8199   9.521   1.575   2.153  0.9141  1.0499  1.4288
 2541SOL     OW 8200   1.523   7.675   4.398 -0.0843 -0.4185 -0.5925
 2541SOL    HW1 8201   1.521   7.620   4.319  1.3427  0.4389 -1.2650
 2541SOL    HW2 8202   1.440   7.723   4.395 -1.4349 -2.5499  0.0857
 2542SOL     OW 8203   7.442   0.965   2.747 -0.2964 -0.2914 -0.4779
 2542SOL    HW1 8204   7.440   1.040   2.687 -1.1616  0.3571  0.3252
 2542SOL    HW2 8205   7.414   1.002   2.832  0.1476 -1.3405  0.1399
 2543SOL     OW 8206   4.793   8.842   6.867 -0.3142  0.3011  0.0481
 2543SOL    HW1 8207   4.752   8.762   6.834 -1.1536  0.9034 -0.4071
 2543SOL    HW2 8208   4.798   8.899   6.791  2.2306 -0.0532 -0.1367
 2544SOL     OW 8209   6.120   6.236   7.072 -0.1458 -0.3989 -0.3076
 2544SOL    HW1 8210   6.072   6.316   7.051  0.2221  0.2160  1.0515
 2544SOL    HW2 8211   6.140   6.197   6.987 -1.7953  0.0601 -0.9479
 2545SOL     OW 8212   6.097   9.822   5.138  0.1513  0.4483 -0.0579
 2545SOL    HW1 8213   6.037   9.750   5.156  1.2187 -0.6559 -0.7090
 2545SOL    HW2 8214   6.101   9.871   5.219 -0.2702 -0.4894  0.5494
 2546SOL     OW 8215   8.977   4.717   9.610 -0.2616  0.3691  0.3644
 2546SOL    HW1 8216   9.069   4.736   9.624  0.0387 -0.8488  0.2062
 2546SOL    HW2 8217   8.940   4.709   9.698  0.3302 -1.4897  0.4874
 2547SOL     OW 8218   6.094   6.630   5.704  0.1881 -0.1053  0.0735
 2547SOL    HW1 8219   6.162   6.590   5.649  1.2722 -0.5106  1.6463
 2547SOL    HW2 8220   6.033   6.559   5.723  1.2395 -0.6710  1.5223
 2548SOL     OW 8221   1.842   0.654   6.902 -0.1403  0.1441  0.5337
 2548SOL    HW1 8222   1.784   0.633   6.975  0.6812 -0.3908  1.0627
 2548SOL    HW2 8223   1.823   0.588   6.836  0.9317 -1.0146  1.3355
 2549SOL     OW 8224   4.297   8.794   0.169  0.4231  0.0179  0.4528
 2549SOL    HW1 8225   4.369   8.730   0.168  0.2868 -0.1296  0.1726
 2549SOL    HW2 8226   4.231   8.757   0.110  0.1337  0.1746  0.6769
 2550SOL     OW 8227   2.769   4.693   5.052 -0.3905 -1.0623  0.2936
 2550SOL    HW1 8228   2.855   4.682   5.093 -0.8370 -0.4514  1.4680
 2550SOL    HW2 8229   2.773   4.780   5.013 -0.6785 -0.7599  0.9188
 2551SOL     OW 8230   1.469   1.216   3.212 -0.7227 -0.0279 -0.3876
 2551SOL    HW1 8231   1.418   1.293   3.186  0.8157  1.4168  0.6692
 2551SOL    HW2 8232   1.522   1.195   3.135 -0.4919  0.5426 -0.3892
 2552SOL     OW 8233   6.704   4.590   1.583  0.4956 -0.1640  0.6654
 2552SOL    HW1 8234   6.625   4.550   1.545  0.1316  1.7558 -0.7156
 2552SOL    HW2 8235   6.696   4.573   1.677 -1.1800 -0.6560  0.4680
 2553SOL     OW 8236   6.813   4.297   5.983 -0.6270  0.7417  0.4570
 2553SOL    HW1 8237   6.788   4.387   5.960 -2.3654  0.4345  1.0018
 2553SOL    HW2 8238   6.808   4.249   5.901  2.0375  1.4479 -0.2032
 2554SOL     OW 8239   0.957   7.961   9.665 -0.0854  0.1246  0.0091
 2554SOL    HW1 8240   0.907   7.991   9.741  2.0525  0.6077  1.3323
 2554SOL    HW2 8241   1.026   7.907   9.702  1.7980  1.4025 -1.4273
 2555SOL     OW 8242   6.209   3.457   4.877  0.2493  0.1497  0.1105
 2555SOL    HW1 8243   6.125   3.455   4.832  0.2874  1.7027 -0.0782
 2555SOL    HW2 8244   6.222   3.549   4.900  0.7338 -0.3939  2.3441
 2556SOL     OW 8245   7.920   8.327   9.128 -0.8212 -0.2136  0.4398
 2556SOL    HW1 8246   7.859   8.273   9.079 -1.3251  0.1909  0.6062
 2556SOL    HW2 8247   7.954   8.269   9.197 -2.1051 -0.0626  1.2327
 2557SOL     OW 8248   3.549   2.032   3.117 -0.0612  0.1763 -0.0261
 2557SOL    HW1 8249   3.511   2.023   3.204  1.5961  0.6814  0.7979
 2557SOL    HW2 8250   3.643   2.024   3.131  0.2008 -0.5002 -1.8935
 2558SOL     OW 8251   1.102   9.628   9.699  0.1118 -0.0884  0.5141
 2558SOL    HW1 8252   1.024   9.641   9.646 -0.0313  0.6920  0.9081
 2558SOL    HW2 8253   1.142   9.714   9.706  0.3137 -0.2423  1.3849
 2559SOL     OW 8254   1.707   3.700   1.396 -0.0096 -0.0390 -0.2299
 2559SOL    HW1 8255   1.771   3.685   1.466 -0.2135 -0.2489 -0.0869
 2559SOL    HW2 8256   1.634   3.642   1.418  0.1861 -0.5684 -0.9589
 2560SOL     OW 8257   0.526   3.215   0.634  0.0543  0.1972  1.3862
 2560SOL    HW1 8258   0.601   3.254   0.679  0.1514  2.1370 -0.2985
 2560SOL    HW2 8259   0.453   3.226   0.695  0.8639 -0.6493  2.5564
 2561SOL     OW 8260   8.940   8.834   4.298 -0.0029  0.0511  0.4340
 2561SOL    HW1 8261   8.976   8.839   4.210 -0.3842 -1.2688  0.1861
 2561SOL    HW2 8262   8.955   8.743   4.325 -0.3271  0.3099  1.5381
 2562SOL     OW 8263   8.604   3.701   4.945  0.8408 -0.3014 -0.2771
 2562SOL    HW1 8264   8.646   3.617   4.923  1.9946  0.1987 -0.0820
 2562SOL    HW2 8265   8.562   3.685   5.030 -0.8443 -1.2955 -1.2476
 2563SOL     OW 8266   8.573   5.518   5.770 -0.0639  0.2866  0.1716
 2563SOL    HW1 8267   8.531   5.601   5.746  0.6448 -0.4490 -4.5402
 2563SOL    HW2 8268   8.667   5.536   5.763  0.3970  0.1121  3.8097
 2564SOL     OW 8269   3.949   3.992   9.845  0.3154 -0.1291 -0.7732
 2564SOL    HW1 8270   3.971   4.081   9.816  1.2616 -0.3751 -0.8320
 2564SOL    HW2 8271   3.902   3.954   9.770  1.3817 -0.2353 -1.4039
 2565SOL     OW 8272   7.191   1.342   1.534  0.6563 -0.4548 -0.4364
 2565SOL    HW1 8273   7.252   1.269   1.520  2.5040  0.9658 -0.1165
 2565SOL    HW2 8274   7.242   1.420   1.513 -1.3290  0.7647 -0.9642
 2566SOL     OW 8275   7.896   4.927   7.801  0.5905 -0.2364  0.1360
 2566SOL    HW1 8276   7.876   4.842   7.761 -2.2765  0.1564  0.5145
 2566SOL    HW2 8277   7.873   4.916   7.893 -2.3755  1.5622 -0.2574
 2567SOL     OW 8278   9.824   7.902   4.802  0.5712  0.6005 -0.1665
 2567SOL    HW1 8279   9.733   7.931   4.807  0.3259  0.2550 -1.9264
 2567SOL    HW2 8280   9.824   7.815   4.842 -0.4222 -0.4624 -2.3531
 2568SOL     OW 8281   5.459   3.675   3.622 -0.7472  0.0008 -0.1036
 2568SOL    HW1 8282   5.408   3.756   3.621 -0.6605  0.0970  1.2511
 2568SOL    HW2 8283   5.397   3.608   3.594 -1.6117  0.1456  1.3120
 2569SOL     OW 8284   3.242   3.396   1.232 -0.2409 -0.1875 -0.5081
 2569SOL    HW1 8285   3.297   3.422   1.159 -1.4500  0.5144 -1.1913
 2569SOL    HW2 8286   3.262   3.303   1.245  1.5134  0.1733 -0.3333
 2570SOL     OW 8287   9.849   9.464   6.761 -1.0098 -0.0916 -0.4044
 2570SOL    HW1 8288   9.794   9.453   6.683  1.1857 -0.4449 -2.0000
 2570SOL    HW2 8289   9.925   9.514   6.730 -0.7730  1.1140  1.8967
 2571SOL     OW 8290   8.424   6.383   3.917  0.6629 -0.0723 -0.2560
 2571SOL    HW1 8291   8.465   6.348   3.996 -0.0796  0.3322  0.3332
 2571SOL    HW2 8292   8.333   6.354   3.924 -0.0051  1.9650  0.2924
 2572SOL     OW 8293   2.591   5.005   5.975 -0.0449  0.3576 -0.0993
 2572SOL    HW1 8294   2.538   4.942   6.024 -0.1043 -0.6241 -1.3759
 2572SOL    HW2 8295   2.548   5.011   5.890  1.8303 -0.4484 -1.1693
 2573SOL     OW 8296   9.870   9.973   1.961 -0.3676  0.4679 -0.2124
 2573SOL    HW1 8297   9.862   9.878   1.951  2.9974 -0.0517  0.9219
 2573SOL    HW2 8298   9.797   9.997   2.019 -0.2424 -1.7420  0.9618
 2574SOL     OW 8299   0.404   9.430   9.359 -0.1873  0.1882 -0.4302
 2574SOL    HW1 8300   0.448   9.515   9.367 -1.2556  0.8397 -1.2198
 2574SOL    HW2 8301   0.473   9.370   9.329  0.9268  0.4121  1.4705
 2575SOL     OW 8302   8.441   5.664   8.183 -0.3037  0.5317 -0.4356
 2575SOL    HW1 8303   8.459   5.611   8.105 -1.0194  0.6054 -0.6606
 2575SOL    HW2 8304   8.393   5.605   8.241  0.4290  0.4064  0.0558
 2576SOL     OW 8305   9.412   3.669   7.469 -0.2238 -0.2938 -0.0171
 2576SOL    HW1 8306   9.482   3.712   7.420 -0.6672 -0.5632 -0.9062
 2576SOL    HW2 8307   9.410   3.579   7.436  0.7701 -1.0754  1.9103
 2577SOL     OW 8308   0.494   5.917   4.332  0.0322  0.1028  0.3758
 2577SOL    HW1 8309   0.487   5.965   4.249 -0.2169  0.6318  0.6973
 2577SOL    HW2 8310   0.428   5.957   4.388 -0.3330 -0.7767  0.5799
 2578SOL     OW 8311   9.829   8.233   5.320 -0.0574  0.1294 -0.1870
 2578SOL    HW1 8312   9.822   8.302   5.254  1.0680  0.4614  0.0132
 2578SOL    HW2 8313   9.852   8.155   5.269  3.5301  0.9210 -0.0525
 2579SOL     OW 8314   6.871   6.828   2.140  0.1240 -0.1109 -0.2957
 2579SOL    HW1 8315   6.880   6.738   2.170 -0.9519  0.2801  1.3324
 2579SOL    HW2 8316   6.886   6.881   2.219  0.8598  1.1483 -1.2446
 2580SOL     OW 8317   5.101   4.761   7.553 -0.1792  0.0047  0.3931
 2580SOL    HW1 8318   5.107   4.680   7.504  3.1861  0.7764 -0.7576
 2580SOL    HW2 8319   5.166   4.751   7.623 -2.2857  0.3812  2.5449
 2581SOL     OW 8320   9.200   2.505   2.960  0.1860  0.3032 -0.2134
 2581SOL    HW1 8321   9.148   2.576   2.998 -1.0851  0.1932 -1.6488
 2581SOL    HW2 8322   9.137   2.452   2.912  1.3108 -1.1153 -0.1863
 2582SOL     OW 8323   3.207   0.635   0.766 -0.2169  0.7499 -0.1025
 2582SOL    HW1 8324   3.200   0.604   0.676  1.4452  0.9175 -0.3131
 2582SOL    HW2 8325   3.297   0.665   0.775  0.1174 -0.6521  2.0481
 2583SOL     OW 8326   9.142   9.104   0.208  0.1066  0.2245 -0.0929
 2583SOL    HW1 8327   9.216   9.142   0.255  0.0349  0.7873 -0.4138
 2583SOL    HW2 8328   9.107   9.177   0.157  1.0358 -0.6815 -2.1239
 2584SOL     OW 8329   4.322   7.606   7.157 -0.7408 -0.5110  0.6367
 2584SOL    HW1 8330   4.330   7.701   7.149  1.9563 -0.7501 -0.7260
 2584SOL    HW2 8331   4.391   7.581   7.218 -0.9463 -1.6511  0.4324
 2585SOL     OW 8332   9.220   7.490   8.212  0.6023 -0.2188 -0.2991
 2585SOL    HW1 8333   9.167   7.414   8.186  0.1113 -0.8961  2.3989
 2585SOL    HW2 8334   9.201   7.556   8.146  0.2573 -2.0731 -2.1788
 2586SOL     OW 8335   6.384   8.221   8.593 -0.3422 -0.1527 -0.8997
 2586SOL    HW1 8336   6.405   8.166   8.669  0.3047 -1.5117 -2.0240
 2586SOL    HW2 8337   6.373   8.159   8.521 -1.6923  1.0469 -1.7799
 2587SOL     OW 8338   5.338   2.835   9.531  0.0105  0.1997 -0.0638
 2587SOL    HW1 8339   5.270   2.799   9.588 -0.6210 -0.3994 -1.1614
 2587SOL    HW2 8340   5.406   2.767   9.529 -0.8400 -0.6681 -1.5276
 2588SOL     OW 8341   4.484   5.779   9.070  0.4450 -0.4241 -0.0095
 2588SOL    HW1 8342   4.454   5.868   9.085  0.0125 -0.5688 -0.0118
 2588SOL    HW2 8343   4.432   5.748   8.996  0.4912 -0.7259  0.0838
 2589SOL     OW 8344   4.294   6.051   8.807 -0.1684  0.0127 -0.4516
 2589SOL    HW1 8345   4.306   6.053   8.712 -1.0067 -0.5995 -0.5800
 2589SOL    HW2 8346   4.282   5.959   8.828  1.9883 -0.1040  0.5380
 2590SOL     OW 8347   2.777   1.000   6.137 -0.3284 -0.0023  0.3093
 2590SOL    HW1 8348   2.792   1.004   6.043 -1.3255  0.8851  0.1650
 2590SOL    HW2 8349   2.830   1.071   6.174  1.0101 -1.0936  0.5878
 2591SOL     OW 8350   6.228   9.894   7.977  0.4804  0.1233 -0.1483
 2591SOL    HW1 8351   6.161   9.844   8.022  0.4352  0.9405  0.7159
 2591SOL    HW2 8352   6.295   9.911   8.043  0.7057  0.8086 -0.5350
 2592SOL     OW 8353   3.540   0.739   9.113  0.3678 -0.2343 -0.1194
 2592SOL    HW1 8354   3.599   0.664   9.123  2.3917  1.5023  2.4336
 2592SOL    HW2 8355   3.576   0.806   9.171 -1.5863  2.6118 -1.9067
 2593SOL     OW 8356   8.101   4.577   2.727 -0.2809 -0.1527  0.0397
 2593SOL    HW1 8357   8.027   4.539   2.681  0.1213  0.3163 -1.0241
 2593SOL    HW2 8358   8.067   4.660   2.762 -0.1829  0.2130 -0.7159
 2594SOL     OW 8359   0.217   2.785   4.127 -0.2247  0.0278  0.3689
 2594SOL    HW1 8360   0.281   2.855   4.116 -1.2151  0.8811 -0.0476
 2594SOL    HW2 8361   0.177   2.775   4.040  0.2213 -1.3806  0.2993
 2595SOL     OW 8362   8.556   2.229   3.996  0.2241  0.3619  0.6307
 2595SOL    HW1 8363   8.588   2.274   4.074  0.7484 -2.4433  2.1496
 2595SOL    HW2 8364   8.474   2.189   4.023  0.2533 -0.3988 -0.3595
 2596SOL     OW 8365   9.016   8.296   8.611 -0.3652  0.2107 -0.0803
 2596SOL    HW1 8366   9.073   8.346   8.552  0.6415  1.1487  1.6284
 2596SOL    HW2 8367   8.984   8.360   8.674  0.3915 -1.1275  1.7468
 2597SOL     OW 8368   3.678   2.063   3.896 -0.4605  0.5547 -0.1563
 2597SOL    HW1 8369   3.612   2.039   3.831  0.7131  0.5654 -1.3907
 2597SOL    HW2 8370   3.747   2.106   3.846  0.5365  0.4797  1.0865
 2598SOL     OW 8371   2.790   6.691   0.768 -0.6406 -0.3243  0.0271
 2598SOL    HW1 8372   2.834   6.751   0.828 -1.6617  0.8531 -0.3437
 2598SOL    HW2 8373   2.703   6.678   0.806 -1.5681  0.9993 -1.4687
 2599SOL     OW 8374   9.103   0.599   7.462 -0.0248 -0.0435 -0.6133
 2599SOL    HW1 8375   9.074   0.621   7.550  0.1750 -2.4260  0.1388
 2599SOL    HW2 8376   9.076   0.673   7.408 -1.2665  0.9306  1.2330
 2600SOL     OW 8377   1.549   3.906   7.879 -0.1269 -0.1500 -0.1244
 2600SOL    HW1 8378   1.493   3.976   7.912  0.0717 -0.2046  0.3313
 2600SOL    HW2 8379   1.488   3.835   7.857 -0.4876  0.6932 -2.0134
 2601SOL     OW 8380   1.993   3.619   6.637  0.2494 -0.4738 -0.5519
 2601SOL    HW1 8381   2.084   3.617   6.666 -0.1098  0.0660  0.6851
 2601SOL    HW2 8382   1.990   3.691   6.573  0.4305  0.3742  0.3779
 2602SOL     OW 8383   8.734   8.626   2.592  0.4566 -0.5060  0.0421
 2602SOL    HW1 8384   8.646   8.665   2.601 -0.2451 -1.8074 -0.9177
 2602SOL    HW2 8385   8.760   8.607   2.682 -0.2270 -0.0604  0.3446
 2603SOL     OW 8386   5.497   1.575   7.029  0.2606  0.2693  1.0311
 2603SOL    HW1 8387   5.534   1.561   6.942  1.5069  1.7197  1.2972
 2603SOL    HW2 8388   5.573   1.577   7.088 -0.3267  1.9610  1.7865
 2604SOL     OW 8389   5.770   3.813   5.105  0.2416  0.1595  0.0938
 2604SOL    HW1 8390   5.711   3.887   5.123  0.3962  0.4468 -0.5220
 2604SOL    HW2 8391   5.811   3.793   5.189  1.4962  1.9096 -0.0329
 2605SOL     OW 8392   7.728   3.537   3.668  0.1579  0.5516 -0.2899
 2605SOL    HW1 8393   7.663   3.530   3.738  0.7767 -0.0063  0.2513
 2605SOL    HW2 8394   7.680   3.573   3.594 -0.9634 -0.5700 -0.1509
 2606SOL     OW 8395   0.277   2.141   5.507 -0.5322 -0.0856  0.5737
 2606SOL    HW1 8396   0.278   2.045   5.499  3.6306 -0.1180 -1.2474
 2606SOL    HW2 8397   0.298   2.172   5.419  1.2010  2.3252  1.7385
 2607SOL     OW 8398   2.861   4.610   3.320  0.1506  0.1855 -0.1649
 2607SOL    HW1 8399   2.899   4.563   3.246  0.2929  0.4323 -0.2475
 2607SOL    HW2 8400   2.868   4.702   3.297 -2.9087  0.2089 -1.4145
 2608SOL     OW 8401   2.050   5.044   9.924 -0.0669 -0.0162  0.2577
 2608SOL    HW1 8402   2.087   4.992   9.852 -0.3216 -0.3125  0.3376
 2608SOL    HW2 8403   1.989   5.104   9.882  0.4726  0.4508  0.1274
 2609SOL     OW 8404   8.302   7.237   0.467  0.2005  0.2111  0.2017
 2609SOL    HW1 8405   8.372   7.242   0.533  0.8188  0.9164 -0.4880
 2609SOL    HW2 8406   8.233   7.186   0.510  0.2121  1.4081  1.7351
 2610SOL     OW 8407   0.466   5.159   1.301  0.3595 -0.8366 -0.1953
 2610SOL    HW1 8408   0.541   5.211   1.329 -0.3217  0.0099  0.1185
 2610SOL    HW2 8409   0.393   5.192   1.354 -0.8087  0.2601 -2.3573
 2611SOL     OW 8410   7.285   6.767   1.598 -0.3156 -0.1867 -1.1546
 2611SOL    HW1 8411   7.343   6.741   1.527  0.0591 -1.0003 -0.5649
 2611SOL    HW2 8412   7.323   6.728   1.676 -0.9038  0.4174 -0.5488
 2612SOL     OW 8413   2.252   5.002   4.371 -0.3287 -0.0131 -0.1755
 2612SOL    HW1 8414   2.167   5.017   4.329 -0.5189 -0.8950 -0.1300
 2612SOL    HW2 8415   2.317   5.033   4.308 -0.6734  0.4523 -0.3076
 2613SOL     OW 8416   6.330   4.912   7.402  0.0597  0.0368 -0.8689
 2613SOL    HW1 8417   6.310   4.968   7.328 -1.5236  1.3953  0.5012
 2613SOL    HW2 8418   6.257   4.925   7.463  1.4354 -0.7560  1.0719
 2614SOL     OW 8419   4.102   4.885   0.819 -0.1133 -0.4837  0.2871
 2614SOL    HW1 8420   4.178   4.916   0.770 -0.9353  1.1846 -0.0272
 2614SOL    HW2 8421   4.127   4.799   0.852  1.5257 -0.3933 -0.6413
 2615SOL     OW 8422   2.340   1.184   4.174 -0.4327 -0.5865 -0.4266
 2615SOL    HW1 8423   2.346   1.106   4.229  1.6201 -0.4102 -0.3427
 2615SOL    HW2 8424   2.344   1.257   4.236  1.4294 -0.3945 -0.7363
 2616SOL     OW 8425   8.898   5.960   8.753  0.3880  0.2975  0.0279
 2616SOL    HW1 8426   8.867   5.895   8.815 -1.5015  1.3029  0.2181
 2616SOL    HW2 8427   8.988   5.934   8.734  0.0727 -1.6790  0.9587
 2617SOL     OW 8428   9.881   6.664   9.164  0.2319  0.2981 -0.2863
 2617SOL    HW1 8429   9.920   6.624   9.241 -0.5178 -0.8043 -0.4484
 2617SOL    HW2 8430   9.787   6.663   9.182  0.0548  0.1003 -1.1780
 2618SOL     OW 8431   7.500   0.116   4.480 -0.2962  0.1651  0.0369
 2618SOL    HW1 8432   7.574   0.072   4.522  0.4575 -1.2389 -2.5508
 2618SOL    HW2 8433   7.531   0.205   4.463 -0.2342  0.4206  1.3618
 2619SOL     OW 8434   3.590   8.493   8.674  0.1372  0.2154 -0.3490
 2619SOL    HW1 8435   3.653   8.451   8.733 -0.2604  1.5197  1.0864
 2619SOL    HW2 8436   3.505   8.477   8.715 -0.1572  1.0745 -0.6023
 2620SOL     OW 8437   7.976   5.729   2.685 -0.0954 -0.1584 -0.0553
 2620SOL    HW1 8438   8.039   5.778   2.633 -0.9252 -1.0487 -2.0002
 2620SOL    HW2 8439   8.022   5.710   2.767  2.2913 -1.0541 -1.5011
 2621SOL     OW 8440   1.610   7.424   4.524 -0.0388  0.4097 -0.7147
 2621SOL    HW1 8441   1.581   7.509   4.490 -1.1604 -0.5887 -2.4450
 2621SOL    HW2 8442   1.621   7.370   4.446 -2.4077 -1.9304  0.4126
 2622SOL     OW 8443   7.354   0.252   8.357 -0.3881 -0.6614  0.3188
 2622SOL    HW1 8444   7.296   0.200   8.302 -0.4857  1.0131 -1.2525
 2622SOL    HW2 8445   7.299   0.323   8.390 -0.3783 -1.7208  2.8199
 2623SOL     OW 8446   7.836   8.232   2.182  0.2588  0.2891  0.0242
 2623SOL    HW1 8447   7.808   8.160   2.125 -1.8304  0.4093  0.8062
 2623SOL    HW2 8448   7.809   8.204   2.269  1.1480  1.2147  0.6059
 2624SOL     OW 8449   5.034   6.452   2.620 -0.1001 -0.6576 -0.0035
 2624SOL    HW1 8450   5.111   6.402   2.649 -0.6364 -1.5887 -0.1416
 2624SOL    HW2 8451   4.970   6.443   2.690  0.2060  0.8597  0.5126
 2625SOL     OW 8452   3.057   2.847   9.820  0.2316 -0.2050 -0.5571
 2625SOL    HW1 8453   3.065   2.864   9.914 -0.9400 -1.6192 -0.1733
 2625SOL    HW2 8454   3.023   2.930   9.784 -0.7295 -0.1014  0.5082
 2626SOL     OW 8455   6.547   8.644   1.502 -0.4595  0.0459 -0.3275
 2626SOL    HW1 8456   6.586   8.679   1.583 -0.0063 -0.9316 -0.1114
 2626SOL    HW2 8457   6.622   8.617   1.449 -0.7152  1.4418 -1.4566
 2627SOL     OW 8458   1.117   5.315   1.487  0.0227 -0.3011  0.3962
 2627SOL    HW1 8459   1.074   5.283   1.408 -1.2964 -1.4132  1.5152
 2627SOL    HW2 8460   1.210   5.317   1.465 -0.3110 -0.5815 -1.1622
 2628SOL     OW 8461   4.317   3.492   8.697 -0.0107  0.3784 -0.2789
 2628SOL    HW1 8462   4.367   3.546   8.758 -0.8961  0.5011  0.3748
 2628SOL    HW2 8463   4.264   3.555   8.648 -0.0169  0.2065 -0.4926
 2629SOL     OW 8464   2.805   0.583   5.509  0.6514 -0.7149  0.4594
 2629SOL    HW1 8465   2.900   0.600   5.509  0.8856 -1.9469  0.8338
 2629SOL    HW2 8466   2.786   0.556   5.419  0.9135 -1.7356  0.6960
 2630SOL     OW 8467   9.353   0.847   8.248  0.3130 -0.2215 -0.0450
 2630SOL    HW1 8468   9.288   0.842   8.177 -0.6399 -0.8415  0.8521
 2630SOL    HW2 8469   9.418   0.781   8.224 -0.2418 -0.7547 -0.1316
 2631SOL     OW 8470   7.098   3.046   2.622 -0.1587 -0.1998  0.1989
 2631SOL    HW1 8471   7.035   3.071   2.554 -1.1601  0.2689  1.2737
 2631SOL    HW2 8472   7.091   2.951   2.627 -0.9243 -0.1357  0.4372
 2632SOL     OW 8473   1.228   0.924   4.288 -0.5261 -0.1693 -0.4355
 2632SOL    HW1 8474   1.149   0.976   4.304 -1.5165 -1.6445 -0.4034
 2632SOL    HW2 8475   1.279   0.977   4.226 -1.1898  1.1268  0.0794
 2633SOL     OW 8476   7.288   7.253   3.324 -0.4401  0.4026 -0.2137
 2633SOL    HW1 8477   7.201   7.213   3.324 -0.0396 -0.5531 -1.7389
 2633SOL    HW2 8478   7.271   7.348   3.323 -1.4315  0.2445  0.3768
 2634SOL     OW 8479   4.902  10.003   4.271  0.2952  0.3026  0.4012
 2634SOL    HW1 8480   4.829  10.011   4.332 -2.3962  0.5344 -2.6164
 2634SOL    HW2 8481   4.912   9.908   4.258 -0.7952  0.3068 -0.5910
 2635SOL     OW 8482   8.071   9.913   8.948 -0.3159  0.4878  0.9987
 2635SOL    HW1 8483   7.994   9.935   8.895 -0.8748  1.6421  2.2191
 2635SOL    HW2 8484   8.038   9.853   9.015  0.6537 -2.0632 -0.6617
 2636SOL     OW 8485   1.597   0.738   3.687  0.4426  0.7757 -0.4583
 2636SOL    HW1 8486   1.624   0.811   3.631  1.4854  1.5281  0.9628
 2636SOL    HW2 8487   1.622   0.764   3.775  1.8839 -1.7446  0.0000
 2637SOL     OW 8488   8.517   8.726   1.232 -0.8666 -0.4372 -0.2642
 2637SOL    HW1 8489   8.474   8.641   1.225  1.8726 -2.3070  2.6145
 2637SOL    HW2 8490   8.589   8.722   1.169  0.1824 -1.0066  0.9064
 2638SOL     OW 8491   9.665   6.015   1.591 -0.2783  0.4253 -0.0739
 2638SOL    HW1 8492   9.629   5.932   1.622 -0.3928  1.5950  3.3973
 2638SOL    HW2 8493   9.750   5.992   1.553 -0.5251 -1.3404  0.3705
 2639SOL     OW 8494   5.340   9.945   5.326 -0.0644 -0.1761  0.4382
 2639SOL    HW1 8495   5.387   9.905   5.398  2.4132  0.4298 -0.7481
 2639SOL    HW2 8496   5.275  10.002   5.368  0.7273 -0.4860  2.1452
 2640SOL     OW 8497   2.152   6.963   1.443  0.6269 -0.1148 -0.6530
 2640SOL    HW1 8498   2.147   6.937   1.535 -0.2884 -0.6232 -0.8413
 2640SOL    HW2 8499   2.234   6.924   1.412 -0.0649 -1.6957 -0.5789
 2641SOL     OW 8500   3.879   7.563   6.479 -0.4842  0.1484  0.2374
 2641SOL    HW1 8501   3.966   7.541   6.445 -0.6342  0.8705 -0.6576
 2641SOL    HW2 8502   3.841   7.479   6.504  0.3860 -0.1932  0.4353
 2642SOL     OW 8503   8.268   7.065   6.839 -0.0096  0.3829 -0.3480
 2642SOL    HW1 8504   8.291   6.989   6.893 -1.9015  0.0671  0.0848
 2642SOL    HW2 8505   8.334   7.130   6.861  0.8349 -0.6618  0.3233
 2643SOL     OW 8506   9.925   9.725   7.246  0.1705 -0.0540 -0.4169
 2643SOL    HW1 8507   9.867   9.678   7.186 -0.3333 -0.5644  0.4540
 2643SOL    HW2 8508   9.867   9.783   7.295  0.6332  0.6386 -0.6792
 2644SOL     OW 8509   0.742   4.431   5.639 -0.1136  0.0033 -0.1583
 2644SOL    HW1 8510   0.771   4.418   5.729 -0.1631 -0.0285 -0.1468
 2644SOL    HW2 8511   0.650   4.456   5.647 -0.5566 -1.4966 -0.2754
 2645SOL     OW 8512   6.288   7.112   5.276 -0.0937 -0.2646  0.5616
 2645SOL    HW1 8513   6.250   7.044   5.221  0.4399 -0.4543  0.4231
 2645SOL    HW2 8514   6.370   7.074   5.309 -0.1081  0.0707  0.9998
 2646SOL     OW 8515   9.708   5.786   8.568 -0.0837  0.0965 -0.2064
 2646SOL    HW1 8516   9.713   5.862   8.509 -0.1143  0.8775  0.7785
 2646SOL    HW2 8517   9.793   5.783   8.610  0.4372 -1.3091 -1.2806
 2647SOL     OW 8518   5.534   9.611   8.294  0.0717 -0.2990  0.0592
 2647SOL    HW1 8519   5.495   9.525   8.311  1.8396 -1.0833  0.4255
 2647SOL    HW2 8520   5.561   9.607   8.202  0.6330 -0.3512  0.2225
 2648SOL     OW 8521   9.892   3.437   9.178 -0.7132  0.1754  0.3437
 2648SOL    HW1 8522   9.944   3.488   9.117 -2.7789 -0.2787 -1.9497
 2648SOL    HW2 8523   9.945   3.359   9.196  0.1559  0.5740 -0.4514
 2649SOL     OW 8524   7.368   4.686   1.824  0.1319 -0.3765 -0.0857
 2649SOL    HW1 8525   7.459   4.671   1.849  0.2984 -1.2976 -1.1396
 2649SOL    HW2 8526   7.371   4.694   1.728 -0.7017  1.1228 -0.0015
 2650SOL     OW 8527   6.481   0.344   2.834 -0.7907  0.5339 -0.1135
 2650SOL    HW1 8528   6.422   0.323   2.907  0.0193 -0.2205  0.3380
 2650SOL    HW2 8529   6.474   0.270   2.775 -0.0086  0.2533  0.1355
 2651SOL     OW 8530   8.931   2.700   0.021  0.5619  0.6004  0.8628
 2651SOL    HW1 8531   8.942   2.673   0.112  1.8508 -0.4266  0.4352
 2651SOL    HW2 8532   9.015   2.681  -0.020 -0.9069 -2.0989 -1.2984
 2652SOL     OW 8533   1.385   0.129   4.520  0.3234 -0.0990 -0.0550
 2652SOL    HW1 8534   1.456   0.194   4.520 -0.5906  0.9377 -0.0341
 2652SOL    HW2 8535   1.374   0.105   4.612  0.7960 -0.4468 -0.0845
 2653SOL     OW 8536   8.877   9.970   7.540 -0.5305  0.6129  0.5929
 2653SOL    HW1 8537   8.936   9.938   7.608  0.1728 -1.4387 -0.9017
 2653SOL    HW2 8538   8.789   9.948   7.571 -0.1177 -2.3840 -0.0459
 2654SOL     OW 8539   7.728   1.605   9.261 -0.2793 -0.0010  0.2754
 2654SOL    HW1 8540   7.708   1.556   9.180 -0.2684  0.5444 -0.0611
 2654SOL    HW2 8541   7.664   1.676   9.263 -0.0037  0.2454  0.5219
 2655SOL     OW 8542   4.450   4.069   2.098  0.3712 -0.0989  0.5598
 2655SOL    HW1 8543   4.527   4.097   2.148  0.1708  0.0158  0.8048
 2655SOL    HW2 8544   4.376   4.103   2.147  0.1311 -0.8582  0.7387
 2656SOL     OW 8545   7.324   8.326   5.024 -0.0313  0.7437  0.0005
 2656SOL    HW1 8546   7.296   8.417   5.023 -1.0627  0.5528  2.8446
 2656SOL    HW2 8547   7.243   8.276   5.017  0.5746 -0.0308 -2.2416
 2657SOL     OW 8548   8.007   1.842   6.183 -0.2206  0.1417  0.1039
 2657SOL    HW1 8549   7.956   1.922   6.177 -0.3020  0.1101  0.3382
 2657SOL    HW2 8550   8.056   1.838   6.101 -1.8048 -0.6693 -0.8511
 2658SOL     OW 8551   2.364   0.917   3.596  0.3964  0.4727  0.4038
 2658SOL    HW1 8552   2.315   0.835   3.608 -1.3563  1.4854  0.4598
 2658SOL    HW2 8553   2.456   0.890   3.603 -0.1370 -1.3655  1.2365
 2659SOL     OW 8554   8.617   5.109   0.066 -0.7158 -0.0780 -0.2697
 2659SOL    HW1 8555   8.679   5.042   0.039  1.8488  0.4903  3.4172
 2659SOL    HW2 8556   8.605   5.094   0.160 -1.3501  3.5385  0.3888
 2660SOL     OW 8557   6.022   5.007   9.597 -0.3854 -0.3674  0.1642
 2660SOL    HW1 8558   5.996   4.955   9.521  0.1306  0.7779 -0.8297
 2660SOL    HW2 8559   6.109   4.973   9.620 -0.4743 -0.6110  0.1419
 2661SOL     OW 8560   7.252   6.998   7.633 -0.1543 -0.4051  0.3275
 2661SOL    HW1 8561   7.322   6.934   7.642 -0.1593 -0.4536  0.0119
 2661SOL    HW2 8562   7.213   6.981   7.547  1.9485  2.1170 -1.2726
 2662SOL     OW 8563   9.724   3.682   1.385  0.5007  0.0560  0.0440
 2662SOL    HW1 8564   9.798   3.738   1.410  0.0683  0.1204  1.2514
 2662SOL    HW2 8565   9.680   3.662   1.468 -0.9746  0.2148 -0.6690
 2663SOL     OW 8566   2.458   8.023   3.786 -0.5851 -0.0787 -0.1256
 2663SOL    HW1 8567   2.479   8.072   3.865  1.5990  2.1467 -1.9405
 2663SOL    HW2 8568   2.375   8.059   3.756  0.3314  1.6475 -0.6971
 2664SOL     OW 8569   7.899   0.725   9.702 -0.1876 -0.4556 -0.1919
 2664SOL    HW1 8570   7.973   0.675   9.735  1.6346  2.8146  1.1017
 2664SOL    HW2 8571   7.837   0.727   9.775  0.1604 -0.0904  0.1002
 2665SOL     OW 8572   9.855   6.757   2.574  0.4007 -0.0679  0.0475
 2665SOL    HW1 8573   9.853   6.754   2.669  0.3531 -0.7962  0.0262
 2665SOL    HW2 8574   9.940   6.723   2.549  0.3695  0.0086 -0.1764
 2666SOL     OW 8575   6.442   1.035   9.259 -0.6637 -0.3151 -0.3315
 2666SOL    HW1 8576   6.353   1.008   9.238 -0.2431 -1.8068 -0.3281
 2666SOL    HW2 8577   6.497   0.966   9.220  0.3782 -0.4326  1.2825
 2667SOL     OW 8578   9.569   4.945   7.658  0.6971 -0.3404  0.3418
 2667SOL    HW1 8579   9.654   4.975   7.627  0.5645 -2.8071 -2.8794
 2667SOL    HW2 8580   9.506   4.980   7.595 -0.1791 -1.6845  0.4161
 2668SOL     OW 8581   4.493   7.557   5.593  0.2548 -0.0101  0.3171
 2668SOL    HW1 8582   4.508   7.630   5.532 -0.0064 -1.6668 -1.8621
 2668SOL    HW2 8583   4.398   7.558   5.608  0.1609 -0.2506 -0.2206
 2669SOL     OW 8584   3.084   3.176   3.290  0.3627  0.1913  0.3063
 2669SOL    HW1 8585   3.086   3.247   3.355 -1.3882  0.4805  0.0890
 2669SOL    HW2 8586   3.023   3.112   3.326 -0.6569  0.3651 -1.0168
 2670SOL     OW 8587   1.401   5.903   0.542 -0.0016  0.3820 -0.2720
 2670SOL    HW1 8588   1.484   5.940   0.514 -1.0434  1.7786 -1.7189
 2670SOL    HW2 8589   1.342   5.978   0.546 -1.4880 -0.7276 -0.5193
 2671SOL     OW 8590   2.724   7.321   2.728  0.0687  0.0245  0.1495
 2671SOL    HW1 8591   2.776   7.370   2.791  0.1985 -1.3078  1.1324
 2671SOL    HW2 8592   2.678   7.388   2.677  2.3619  1.2186 -0.4447
 2672SOL     OW 8593   3.849   0.257   7.165  0.3908 -0.5729 -0.3300
 2672SOL    HW1 8594   3.902   0.222   7.093  1.2892  0.1715 -0.0618
 2672SOL    HW2 8595   3.813   0.339   7.131 -0.4992 -1.0070 -0.4619
 2673SOL     OW 8596   7.144   6.512   3.796 -0.5082  0.0071  0.3731
 2673SOL    HW1 8597   7.098   6.540   3.717 -1.2049 -0.4964  0.5975
 2673SOL    HW2 8598   7.212   6.579   3.808 -1.3314  0.9082  0.1836
 2674SOL     OW 8599   8.034   0.207   8.958  0.0114 -0.0782  0.4992
 2674SOL    HW1 8600   7.981   0.217   9.037 -0.4362 -0.7988  0.2923
 2674SOL    HW2 8601   8.038   0.113   8.942 -0.2797  0.0825 -0.5931
 2675SOL     OW 8602   5.944   7.145   5.066  0.3700 -0.3250  0.2947
 2675SOL    HW1 8603   6.018   7.198   5.097  1.2076 -0.4649 -1.3757
 2675SOL    HW2 8604   5.984   7.069   5.024 -0.6164  0.4401 -2.1811
 2676SOL     OW 8605   1.872   6.924   4.604 -0.4901 -0.4727  0.5763
 2676SOL    HW1 8606   1.956   6.967   4.622 -0.6632  0.6362 -1.0482
 2676SOL    HW2 8607   1.868   6.919   4.509 -1.5546 -2.0343  0.6754
 2677SOL     OW 8608   1.117   2.868   5.190 -0.5501  0.4736  0.5173
 2677SOL    HW1 8609   1.113   2.791   5.247 -0.0188  0.6875  0.8575
 2677SOL    HW2 8610   1.210   2.889   5.186 -0.5935  0.5345 -0.3438
 2678SOL     OW 8611   3.961   6.974   8.033  0.3748 -0.1831  0.0612
 2678SOL    HW1 8612   3.957   6.922   7.953  1.4759  0.9287 -0.7642
 2678SOL    HW2 8613   3.873   7.011   8.042  0.7080  1.2347 -1.7724
 2679SOL     OW 8614   9.538   9.032   3.658  0.3778  0.2352  0.0725
 2679SOL    HW1 8615   9.570   8.984   3.734 -2.9422  0.2888  1.6291
 2679SOL    HW2 8616   9.522   8.965   3.592 -0.1106 -0.2512  0.6838
 2680SOL     OW 8617   2.073   9.928   9.111  0.4618  0.1843 -0.1020
 2680SOL    HW1 8618   2.102   9.855   9.166 -0.7020 -0.6277 -0.5108
 2680SOL    HW2 8619   2.080  10.005   9.167  2.5658 -0.0824  0.0571
 2681SOL     OW 8620   7.552   0.368   7.475  0.1293 -0.0880  0.7512
 2681SOL    HW1 8621   7.575   0.433   7.541 -0.7111  0.5696  0.4255
 2681SOL    HW2 8622   7.617   0.379   7.406  1.0927 -0.8703  1.5146
 2682SOL     OW 8623   4.420   2.615   6.904 -0.1009 -0.1663  0.6995
 2682SOL    HW1 8624   4.336   2.655   6.927 -0.1183  0.0412  0.2820
 2682SOL    HW2 8625   4.397   2.534   6.860 -0.1251  0.5748 -0.7085
 2683SOL     OW 8626   4.430   0.117   0.569 -0.0100  0.0363 -0.7595
 2683SOL    HW1 8627   4.523   0.097   0.561  0.3037  0.5311  1.1050
 2683SOL    HW2 8628   4.427   0.199   0.618 -1.4140 -0.9467  0.9399
 2684SOL     OW 8629   4.277   6.062   5.250 -0.3182 -0.6015  0.4338
 2684SOL    HW1 8630   4.216   6.080   5.178  1.2729 -0.4975 -0.9495
 2684SOL    HW2 8631   4.298   5.969   5.241  1.1028 -0.2384 -0.2636
 2685SOL     OW 8632   7.558   8.863   7.729  0.2552  0.2454  0.1040
 2685SOL    HW1 8633   7.553   8.958   7.728 -1.2644  0.1811 -0.1910
 2685SOL    HW2 8634   7.511   8.837   7.809 -0.1603 -0.2813 -0.3028
 2686SOL     OW 8635   0.776   5.670   5.710 -0.3200 -0.0624 -0.7205
 2686SOL    HW1 8636   0.798   5.743   5.769 -1.7581  0.1226 -0.3694
 2686SOL    HW2 8637   0.825   5.596   5.744  2.0568  0.9366 -1.7273
 2687SOL     OW 8638   1.018   0.839   0.300 -0.4427 -0.3809  0.4215
 2687SOL    HW1 8639   1.004   0.813   0.209  1.9226  0.2231 -0.1783
 2687SOL    HW2 8640   1.001   0.933   0.301 -0.1650 -0.3318  0.5367
 2688SOL     OW 8641   0.286   7.595   1.384  0.3138  0.2544  0.2117
 2688SOL    HW1 8642   0.381   7.594   1.372  0.2505  1.7114 -0.6094
 2688SOL    HW2 8643   0.256   7.670   1.332 -1.3817 -0.6857 -0.2398
 2689SOL     OW 8644   7.716   2.019   6.747  0.4750  0.3282  0.1083
 2689SOL    HW1 8645   7.811   2.020   6.756  0.3344 -0.2943  2.1886
 2689SOL    HW2 8646   7.700   1.996   6.656  2.3023  0.8251 -0.3742
 2690SOL     OW 8647   7.992   6.162   8.125 -0.4236 -0.3327 -0.3463
 2690SOL    HW1 8648   8.065   6.147   8.185 -1.0755 -0.5297  0.4247
 2690SOL    HW2 8649   7.929   6.092   8.147 -0.4623 -0.7176 -1.6142
 2691SOL     OW 8650   4.578   9.856   3.714  0.0294 -0.7031 -0.2203
 2691SOL    HW1 8651   4.515   9.920   3.680  0.5414  1.5015  2.5771
 2691SOL    HW2 8652   4.638   9.841   3.640 -0.0034  2.2641 -1.0022
 2692SOL     OW 8653   5.342   7.607   0.777  0.0614 -0.1046  0.4202
 2692SOL    HW1 8654   5.260   7.580   0.817 -0.5995  0.7275 -0.3320
 2692SOL    HW2 8655   5.357   7.695   0.811 -0.4787  0.5937 -1.0661
 2693SOL     OW 8656  -0.024   7.129   2.488 -0.0676 -0.1659  0.2388
 2693SOL    HW1 8657   0.032   7.159   2.560 -1.8874  0.2798  1.5388
 2693SOL    HW2 8658   0.018   7.049   2.456  0.3285 -0.8742  2.3920
 2694SOL     OW 8659   1.550   2.604   2.439 -0.9595  0.8201  0.5610
 2694SOL    HW1 8660   1.466   2.638   2.406 -1.1483 -0.6543 -0.5909
 2694SOL    HW2 8661   1.538   2.509   2.439  1.0824  0.5003 -0.7351
 2695SOL     OW 8662   3.526   3.957   5.743 -0.0114 -0.0898  0.5122
 2695SOL    HW1 8663   3.582   4.033   5.725 -0.4603 -0.1009 -1.0559
 2695SOL    HW2 8664   3.555   3.926   5.829  3.4076 -0.9702 -0.7916
 2696SOL     OW 8665   4.188   8.612   5.532 -0.1320  0.1325  0.1624
 2696SOL    HW1 8666   4.173   8.517   5.531 -0.1965  0.1288 -1.4663
 2696SOL    HW2 8667   4.136   8.644   5.606 -0.8836 -0.9917  0.1447
 2697SOL     OW 8668   8.293   2.564   8.745  0.1635 -0.2126  0.3410
 2697SOL    HW1 8669   8.358   2.508   8.788 -1.6257 -0.1813  3.3963
 2697SOL    HW2 8670   8.333   2.650   8.742  1.5682 -0.8611 -1.1367
 2698SOL     OW 8671   0.411   6.292   2.798 -0.4292 -0.4671  0.4117
 2698SOL    HW1 8672   0.370   6.365   2.845 -0.6824 -0.3813  0.0610
 2698SOL    HW2 8673   0.490   6.329   2.760  1.6720 -1.2987  3.5468
 2699SOL     OW 8674   5.196   4.277   2.825  0.6726 -0.2887  0.0450
 2699SOL    HW1 8675   5.284   4.300   2.793  0.3177 -3.2175 -3.7248
 2699SOL    HW2 8676   5.209   4.199   2.878  0.4081 -0.5619 -0.2866
 2700SOL     OW 8677   1.280   4.515   4.670 -0.3635 -0.0398 -0.7090
 2700SOL    HW1 8678   1.192   4.554   4.667 -0.3488 -0.0270 -0.9675
 2700SOL    HW2 8679   1.300   4.494   4.579 -0.1073 -0.0640 -0.6475
 2701SOL     OW 8680   1.587   8.207   8.137  0.0726  0.2750 -0.1295
 2701SOL    HW1 8681   1.514   8.238   8.191  1.0776  0.2838  1.2812
 2701SOL    HW2 8682   1.545   8.162   8.064 -1.3423 -0.5205  1.1254
 2702SOL     OW 8683   7.957   9.552   5.248  0.1725  0.5335  0.4372
 2702SOL    HW1 8684   7.938   9.469   5.205 -0.2838  0.6496  0.4126
 2702SOL    HW2 8685   8.047   9.542   5.280  0.3202  0.2457 -0.0606
 2703SOL     OW 8686   4.296   8.309   9.586  0.0391 -0.6806 -0.2772
 2703SOL    HW1 8687   4.231   8.377   9.567  0.1376 -0.7532 -0.9003
 2703SOL    HW2 8688   4.254   8.228   9.556  0.2077 -0.7978 -0.1928
 2704SOL     OW 8689   8.239   9.939   9.693  0.7783 -0.7930  0.6256
 2704SOL    HW1 8690   8.267   9.851   9.665 -1.8771 -1.4910 -0.1626
 2704SOL    HW2 8691   8.156   9.924   9.738 -0.5903  1.4426 -0.9794
 2705SOL     OW 8692   9.221   7.156   6.436  0.7496  0.5547  0.7684
 2705SOL    HW1 8693   9.169   7.125   6.511  1.4460  1.0587  1.4795
 2705SOL    HW2 8694   9.204   7.250   6.434 -1.6855  0.1814 -1.6256
 2706SOL     OW 8695   7.676   2.340   3.298  0.1591 -0.2990 -0.3566
 2706SOL    HW1 8696   7.584   2.360   3.279  0.0987 -1.9994 -2.2664
 2706SOL    HW2 8697   7.679   2.327   3.393 -0.7744  3.2333  0.2821
 2707SOL     OW 8698   3.065   4.389   3.872 -0.4067  0.0239 -0.1219
 2707SOL    HW1 8699   2.978   4.383   3.913 -0.8104  0.7927 -0.8398
 2707SOL    HW2 8700   3.126   4.369   3.943 -1.1140  0.8121  0.7363
 2708SOL     OW 8701   4.198   0.023   5.383  0.4605 -0.5142 -0.1598
 2708SOL    HW1 8702   4.290   0.049   5.377  0.2358  1.0054  1.9707
 2708SOL    HW2 8703   4.198  -0.054   5.440  0.4303 -0.7908 -0.5263
 2709SOL     OW 8704   2.065   7.738   4.176  0.0576  0.6693  0.2224
 2709SOL    HW1 8705   2.001   7.714   4.108 -1.8015 -0.9582  2.3622
 2709SOL    HW2 8706   2.131   7.669   4.172 -1.2725 -0.7464  1.4635
 2710SOL     OW 8707   8.537   6.344   2.848 -0.4928 -0.6942  0.1369
 2710SOL    HW1 8708   8.484   6.423   2.832  1.0445  0.4257  0.3688
 2710SOL    HW2 8709   8.496   6.277   2.794 -1.8156  0.2664 -0.1172
 2711SOL     OW 8710   6.299   8.432   9.807  0.1480 -0.1838 -0.6670
 2711SOL    HW1 8711   6.284   8.338   9.793 -0.3237 -0.0906 -0.8088
 2711SOL    HW2 8712   6.370   8.455   9.747  0.0113 -0.3711 -0.8995
 2712SOL     OW 8713   3.692   6.544   4.361 -0.0738 -0.1545 -0.0200
 2712SOL    HW1 8714   3.750   6.509   4.429 -0.0040  1.3790  0.7489
 2712SOL    HW2 8715   3.604   6.516   4.389 -0.0166  0.2364  0.5668
 2713SOL     OW 8716   9.726   0.952   8.409  0.0548 -0.0330  0.1604
 2713SOL    HW1 8717   9.811   0.911   8.394 -0.5906 -1.7175  0.8750
 2713SOL    HW2 8718   9.668   0.916   8.342 -0.5149 -0.3036  0.7745
 2714SOL     OW 8719   6.837   9.049   1.862 -0.4384 -0.1678  0.2672
 2714SOL    HW1 8720   6.809   9.140   1.862  1.1852  0.3797 -0.8754
 2714SOL    HW2 8721   6.793   9.010   1.938 -2.3235  1.1627 -0.0657
 2715SOL     OW 8722   8.836   5.773   5.228  0.4022  0.4884  0.4476
 2715SOL    HW1 8723   8.835   5.678   5.217  1.5197  0.5168 -0.0013
 2715SOL    HW2 8724   8.902   5.790   5.295  0.9165  1.0042 -0.1717
 2716SOL     OW 8725   3.926   9.606   3.963 -0.5232  0.0016  0.2586
 2716SOL    HW1 8726   3.831   9.617   3.956 -0.5449 -0.3711 -0.0773
 2716SOL    HW2 8727   3.949   9.646   4.047 -0.9055  0.5503  0.1022
 2717SOL     OW 8728   4.484   6.216   5.306  0.3421  0.6721  0.8441
 2717SOL    HW1 8729   4.525   6.131   5.322  0.4303  0.3760 -0.8177
 2717SOL    HW2 8730   4.396   6.195   5.274  0.6859  1.1556 -0.4652
 2718SOL     OW 8731   9.928   9.316   5.861 -0.0462 -0.5633 -0.1956
 2718SOL    HW1 8732   9.982   9.302   5.939  0.1305 -1.5268 -0.4696
 2718SOL    HW2 8733   9.873   9.238   5.857 -0.5461 -0.1889 -0.6432
 2719SOL     OW 8734   1.369   3.719   1.555 -0.1207 -0.3630  0.0654
 2719SOL    HW1 8735   1.361   3.687   1.465  1.2523  0.6893 -0.4783
 2719SOL    HW2 8736   1.415   3.649   1.602  0.9441 -0.1211 -0.5758
 2720SOL     OW 8737   8.014   4.824   0.667 -0.2282  0.4760 -0.2236
 2720SOL    HW1 8738   7.989   4.854   0.579  0.3056 -1.1384 -0.9768
 2720SOL    HW2 8739   8.046   4.902   0.711  0.1781  1.1900 -1.7246
 2721SOL     OW 8740   8.432   3.145   5.049  0.2805 -0.0922 -0.4208
 2721SOL    HW1 8741   8.358   3.193   5.085  0.6651 -0.1099  0.4140
 2721SOL    HW2 8742   8.481   3.211   4.999 -0.0993 -0.0007 -0.6764
 2722SOL     OW 8743   0.807   0.109   4.863  0.5718 -0.0009  0.3110
 2722SOL    HW1 8744   0.813   0.121   4.768  0.9179  2.1319  0.5588
 2722SOL    HW2 8745   0.713   0.108   4.881  0.4723  2.2369  0.1767
 2723SOL     OW 8746   4.490   9.153   2.099  0.1505 -0.0855 -0.3899
 2723SOL    HW1 8747   4.564   9.095   2.116  1.0262  1.2774  0.6209
 2723SOL    HW2 8748   4.425   9.129   2.165  0.8495  0.6248  0.5798
 2724SOL     OW 8749   3.734   1.165   8.551  0.4798 -0.3117 -0.1128
 2724SOL    HW1 8750   3.705   1.075   8.540  0.7666 -0.4486  0.2410
 2724SOL    HW2 8751   3.668   1.218   8.506  2.3742 -0.9036 -4.0858
 2725SOL     OW 8752   1.859   3.413   0.193  0.1137  0.2218 -0.2610
 2725SOL    HW1 8753   1.811   3.470   0.133 -0.2597 -0.5660 -0.7357
 2725SOL    HW2 8754   1.827   3.325   0.173  0.2580 -0.1015  0.8366
 2726SOL     OW 8755   1.986   6.133   6.207  0.0090 -0.2579 -0.3500
 2726SOL    HW1 8756   1.916   6.136   6.142 -1.3139  0.0219  1.0085
 2726SOL    HW2 8757   2.058   6.088   6.163 -0.9900 -0.4870 -1.8353
 2727SOL     OW 8758   5.049   2.697   1.463  0.0402  0.2832  0.0118
 2727SOL    HW1 8759   4.962   2.661   1.450  0.1009  0.2331 -0.2619
 2727SOL    HW2 8760   5.034   2.782   1.504 -0.1650  0.5275 -0.5671
 2728SOL     OW 8761   1.816   5.890   7.158 -0.0130 -0.3588 -0.6599
 2728SOL    HW1 8762   1.794   5.863   7.247 -1.7237  0.4929 -0.7872
 2728SOL    HW2 8763   1.902   5.931   7.166 -0.6936  0.8722  0.8455
 2729SOL     OW 8764   8.535   5.751   6.275  0.3453 -0.2920 -0.3218
 2729SOL    HW1 8765   8.583   5.722   6.197 -0.1235 -0.9965 -0.3495
 2729SOL    HW2 8766   8.452   5.703   6.272  0.7870 -1.2135  1.2245
 2730SOL     OW 8767   6.456   3.333   3.573  0.4213 -0.7882 -0.2798
 2730SOL    HW1 8768   6.424   3.405   3.628  0.0054 -0.2680 -1.1772
 2730SOL    HW2 8769   6.539   3.366   3.538  0.4901 -0.9638 -0.2816
 2731SOL     OW 8770   1.475   0.484   7.081 -0.0824 -0.1914  0.5671
 2731SOL    HW1 8771   1.539   0.550   7.108 -1.5223  1.0238  1.1601
 2731SOL    HW2 8772   1.449   0.442   7.163 -0.0138 -0.7431  0.3160
 2732SOL     OW 8773   8.617   8.867   5.937 -0.0919  0.2502  0.1115
 2732SOL    HW1 8774   8.603   8.855   5.843 -2.8607  0.5532  0.3956
 2732SOL    HW2 8775   8.547   8.815   5.978  0.3989  0.9861  1.9678
 2733SOL     OW 8776   7.414   6.640   0.903 -0.2286  0.0371  0.5032
 2733SOL    HW1 8777   7.466   6.591   0.967  0.7760  0.1417 -0.2006
 2733SOL    HW2 8778   7.376   6.712   0.952  2.1668  1.3047  0.6359
 2734SOL     OW 8779   2.033   6.742   9.957 -0.1939  0.1249 -0.8550
 2734SOL    HW1 8780   2.121   6.728   9.989 -0.6614 -0.9131  0.0309
 2734SOL    HW2 8781   2.006   6.656   9.923 -0.3933  0.7406 -2.3403
 2735SOL     OW 8782   1.546   3.103   2.831 -0.1106  0.0229  0.3284
 2735SOL    HW1 8783   1.480   3.167   2.804 -0.4228 -0.7258 -0.7363
 2735SOL    HW2 8784   1.626   3.131   2.786 -0.4329 -0.7547 -0.7603
 2736SOL     OW 8785   1.472   5.009   9.445  0.3477  0.4377  0.0281
 2736SOL    HW1 8786   1.399   5.051   9.491  0.1333 -0.2373  0.3178
 2736SOL    HW2 8787   1.433   4.934   9.402  0.4084  1.4370 -1.8713
 2737SOL     OW 8788   5.400   1.553   7.437  0.0232 -0.0360 -0.6498
 2737SOL    HW1 8789   5.314   1.567   7.396 -0.1964 -1.1974 -0.6196
 2737SOL    HW2 8790   5.381   1.548   7.531  0.2711  0.7190 -0.5521
 2738SOL     OW 8791   5.803   1.789   8.651 -0.1764  0.3992 -0.0078
 2738SOL    HW1 8792   5.785   1.695   8.648  1.2794  0.0910  0.0748
 2738SOL    HW2 8793   5.725   1.827   8.690 -1.2929 -0.6232 -1.1409
 2739SOL     OW 8794   9.150   6.656   1.727  0.7782 -0.0429 -0.1874
 2739SOL    HW1 8795   9.170   6.568   1.697  0.5412  0.0023 -0.4856
 2739SOL    HW2 8796   9.060   6.650   1.761  0.2558  0.3716 -1.4327
 2740SOL     OW 8797   0.068   3.230   7.609 -0.6218  0.3833  0.2263
 2740SOL    HW1 8798   0.068   3.205   7.702 -0.2624 -0.8319 -0.0928
 2740SOL    HW2 8799   0.019   3.161   7.565  0.1089  0.4025 -0.6427
 2741SOL     OW 8800   3.190   3.252   8.478 -0.2896  0.5538 -0.4049
 2741SOL    HW1 8801   3.156   3.177   8.527 -0.7388  0.0095 -1.5299
 2741SOL    HW2 8802   3.188   3.324   8.541  1.3712 -0.6248  1.1131
 2742SOL     OW 8803   5.554   9.542   9.489 -0.2976 -0.3195  0.2621
 2742SOL    HW1 8804   5.582   9.461   9.446  2.0066 -0.5816  2.0747
 2742SOL    HW2 8805   5.553   9.520   9.582 -0.0805  1.6208  0.7602
 2743SOL     OW 8806   0.194   7.660   9.667 -0.3192 -0.5865 -0.1982
 2743SOL    HW1 8807   0.208   7.735   9.609  0.5239  0.3326  1.1541
 2743SOL    HW2 8808   0.107   7.674   9.704 -0.0520 -0.1372  0.2569
 2744SOL     OW 8809   8.074   5.044   1.584  0.4909  0.6002  0.4529
 2744SOL    HW1 8810   8.148   4.983   1.591 -0.2826 -0.4397 -0.0032
 2744SOL    HW2 8811   7.997   4.988   1.595 -0.4059  0.8549 -3.2905
 2745SOL     OW 8812   2.325   5.725   7.871  0.2677  0.6902  0.0558
 2745SOL    HW1 8813   2.371   5.770   7.800  0.4546 -0.1831 -0.3839
 2745SOL    HW2 8814   2.268   5.662   7.826 -1.8469  2.1335  0.5313
 2746SOL     OW 8815   7.958   3.954   2.196 -0.7505 -0.2556  0.5428
 2746SOL    HW1 8816   8.031   3.920   2.143 -0.6751  0.9645 -0.1678
 2746SOL    HW2 8817   7.996   4.027   2.244 -1.1855 -0.4482  1.1815
 2747SOL     OW 8818  10.011   6.263   7.270 -0.1031  0.0051 -0.2209
 2747SOL    HW1 8819   9.941   6.198   7.266 -0.4361  0.3299  0.2005
 2747SOL    HW2 8820   9.973   6.335   7.321  0.9874 -0.3786  1.1913
 2748SOL     OW 8821   2.890   5.743   1.026  0.3621 -0.5384 -0.3231
 2748SOL    HW1 8822   2.932   5.824   0.999  1.3280 -1.2784 -1.1214
 2748SOL    HW2 8823   2.858   5.760   1.114 -0.1653  0.9576 -0.7799
 2749SOL     OW 8824   2.956   8.044   5.993  0.5115 -0.2537 -0.0226
 2749SOL    HW1 8825   2.891   7.977   5.970 -0.0301 -0.0748  0.9460
 2749SOL    HW2 8826   2.976   8.027   6.085  2.7461 -1.0512 -0.5843
 2750SOL     OW 8827   6.422   7.558   2.091  0.0422 -0.4373  0.5960
 2750SOL    HW1 8828   6.512   7.545   2.062  0.3736 -1.1704  1.9015
 2750SOL    HW2 8829   6.423   7.643   2.136  0.0248 -0.3329  0.4001
 2751SOL     OW 8830   6.157   2.103   4.800  0.0693  0.0006 -0.3026
 2751SOL    HW1 8831   6.185   2.110   4.709 -0.0006  0.5869 -0.2822
 2751SOL    HW2 8832   6.099   2.027   4.802 -1.0505  0.8161 -1.0249
 2752SOL     OW 8833   1.321   8.789   2.195 -0.2187 -0.6214  0.2000
 2752SOL    HW1 8834   1.327   8.862   2.257 -0.3401 -0.3936 -0.0544
 2752SOL    HW2 8835   1.347   8.827   2.111 -0.1941 -0.8957  0.0828
 2753SOL     OW 8836   4.848   0.323   6.833  0.3875  0.0591  0.0838
 2753SOL    HW1 8837   4.786   0.371   6.777  1.1380 -0.6599 -1.4095
 2753SOL    HW2 8838   4.821   0.232   6.825  1.4792 -0.2277 -0.3588
 2754SOL     OW 8839   2.749   1.123   7.879 -0.6017  0.2637  0.4169
 2754SOL    HW1 8840   2.823   1.159   7.831 -1.2904  0.9749 -0.1452
 2754SOL    HW2 8841   2.675   1.179   7.855 -1.6373 -1.2711 -0.1647
 2755SOL     OW 8842   3.340   4.848   7.396  0.5929 -0.4568  0.5702
 2755SOL    HW1 8843   3.324   4.791   7.321 -0.0606 -0.0744  0.4101
 2755SOL    HW2 8844   3.435   4.858   7.399  0.5900  0.1578 -0.6987
 2756SOL     OW 8845   5.885   8.063   3.430  0.0681 -0.2447 -0.4356
 2756SOL    HW1 8846   5.867   8.107   3.513  1.1763  0.0799 -0.3536
 2756SOL    HW2 8847   5.799   8.055   3.389 -0.2555  1.5235 -0.2108
 2757SOL     OW 8848   0.931   5.041   4.141  0.4237 -0.1253 -0.0544
 2757SOL    HW1 8849   0.933   5.022   4.235  1.0134 -2.0233 -0.4105
 2757SOL    HW2 8850   1.018   5.076   4.122  0.5796 -0.4905 -0.0264
 2758SOL     OW 8851   5.078   1.833   0.998  0.2364  0.3377 -0.2759
 2758SOL    HW1 8852   4.991   1.798   1.016  1.5070 -2.0141  2.1512
 2758SOL    HW2 8853   5.092   1.898   1.068  1.4139 -1.4193  1.2158
 2759SOL     OW 8854   3.274   8.641   2.963 -0.8117 -0.3325  0.2734
 2759SOL    HW1 8855   3.351   8.659   2.909  0.0816 -0.4419  1.4604
 2759SOL    HW2 8856   3.239   8.559   2.930  0.1348 -0.7614  0.3010
 2760SOL     OW 8857   4.376   9.743   3.940  0.0230  0.0027  0.3777
 2760SOL    HW1 8858   4.322   9.769   4.014  0.8555 -0.0090  0.9966
 2760SOL    HW2 8859   4.466   9.758   3.969  0.3423  0.5228 -0.8270
 2761SOL     OW 8860   0.466   5.659   6.668 -0.0368 -0.4062  0.5897
 2761SOL    HW1 8861   0.411   5.728   6.704  0.9298  0.6528  0.1139
 2761SOL    HW2 8862   0.516   5.627   6.743  1.5647  1.4055  0.3792
 2762SOL     OW 8863   9.337   6.244   0.247 -0.1025  0.0426 -0.1393
 2762SOL    HW1 8864   9.382   6.291   0.177  2.5063 -1.1180  0.6440
 2762SOL    HW2 8865   9.310   6.161   0.207 -0.4931  0.2446 -0.2991
 2763SOL     OW 8866   4.338   7.676   0.739  0.0477  0.1198  0.8344
 2763SOL    HW1 8867   4.286   7.719   0.806 -0.7578 -0.2830  0.4829
 2763SOL    HW2 8868   4.286   7.600   0.713  0.3121  0.2953 -0.2762
 2764SOL     OW 8869   0.646   0.156   6.199 -0.3551  0.1080 -0.1847
 2764SOL    HW1 8870   0.675   0.113   6.119  0.6293  0.0823  0.1683
 2764SOL    HW2 8871   0.721   0.150   6.258 -1.1441 -0.1052  0.8382
 2765SOL     OW 8872   1.142   5.864   9.229  0.1096  0.3180  0.0075
 2765SOL    HW1 8873   1.211   5.917   9.270 -0.1741  0.8767 -0.2392
 2765SOL    HW2 8874   1.061   5.907   9.254 -0.4138 -1.9661  2.8134
 2766SOL     OW 8875   0.677   6.471   3.476 -0.2335  0.1786  0.7135
 2766SOL    HW1 8876   0.714   6.427   3.399  0.9713  0.5007  1.0997
 2766SOL    HW2 8877   0.689   6.564   3.459  0.8995  0.2226  1.7112
 2767SOL     OW 8878   7.689   1.659   9.867  0.2343  0.3272  0.0272
 2767SOL    HW1 8879   7.736   1.741   9.856 -0.5360  0.8817  0.7647
 2767SOL    HW2 8880   7.645   1.667   9.951 -1.1607 -0.1630 -0.6172
 2768SOL     OW 8881   0.073   9.589   9.507  0.4571 -0.3040  0.1999
 2768SOL    HW1 8882   0.106   9.642   9.579 -0.0734  0.1626  0.1028
 2768SOL    HW2 8883   0.015   9.525   9.550 -1.3346  1.1459  0.0277
 2769SOL     OW 8884   7.330   7.584   0.575 -0.1469  0.3920  0.2847
 2769SOL    HW1 8885   7.279   7.604   0.497 -0.9400 -1.6013  0.2517
 2769SOL    HW2 8886   7.276   7.523   0.625  0.6056  1.1286  2.1055
 2770SOL     OW 8887   0.590   1.173   2.173 -0.1546 -0.2792 -0.1188
 2770SOL    HW1 8888   0.652   1.169   2.100 -1.5633  0.6218 -1.4430
 2770SOL    HW2 8889   0.539   1.092   2.166 -0.2727 -0.2049 -0.1243
 2771SOL     OW 8890   7.823   2.227   0.524  0.1126 -0.1411  0.2866
 2771SOL    HW1 8891   7.739   2.185   0.542 -0.5495  0.8718 -0.3200
 2771SOL    HW2 8892   7.871   2.164   0.470 -0.2809 -0.6949  0.5745
 2772SOL     OW 8893   0.888   9.496   1.484  0.0073 -0.1357 -0.3310
 2772SOL    HW1 8894   0.869   9.438   1.558 -1.7992 -0.0138 -0.6340
 2772SOL    HW2 8895   0.954   9.557   1.518  1.3201 -1.8093  0.2470
 2773SOL     OW 8896   7.681   1.883   3.683 -0.0610 -0.3269  0.1508
 2773SOL    HW1 8897   7.738   1.826   3.734  1.1462  1.6574  1.1441
 2773SOL    HW2 8898   7.741   1.940   3.635 -1.2258 -0.0731 -1.0787
 2774SOL     OW 8899   1.230   1.701   0.385 -0.2392  0.3824 -0.2462
 2774SOL    HW1 8900   1.224   1.785   0.341 -0.0743 -0.4867 -2.0068
 2774SOL    HW2 8901   1.290   1.716   0.458 -0.2410  1.7814 -0.5109
 2775SOL     OW 8902   5.407   9.785   7.027 -0.3815  0.1504 -0.4148
 2775SOL    HW1 8903   5.466   9.856   7.050 -0.6586  0.4598 -0.6440
 2775SOL    HW2 8904   5.407   9.727   7.104  0.0237  0.2770 -0.3196
 2776SOL     OW 8905   2.391   7.559   3.162  0.5984 -0.6173 -0.3140
 2776SOL    HW1 8906   2.306   7.517   3.169  0.0771  0.3018 -0.9659
 2776SOL    HW2 8907   2.393   7.624   3.232  1.2791 -1.4723  0.4935
 2777SOL     OW 8908   8.048   6.071   5.264 -0.1388 -0.4015  0.4260
 2777SOL    HW1 8909   7.961   6.041   5.290 -0.7367 -0.0197 -1.0160
 2777SOL    HW2 8910   8.031   6.133   5.193  1.3350 -0.8018 -0.3029
 2778SOL     OW 8911   5.160   8.667   1.814 -0.4735 -0.0222 -0.1526
 2778SOL    HW1 8912   5.210   8.748   1.804  0.0985 -0.3542 -0.0304
 2778SOL    HW2 8913   5.184   8.635   1.901 -0.6579 -0.3505 -0.2225
 2779SOL     OW 8914   0.616   1.765   4.282  0.7330 -0.4656 -0.0480
 2779SOL    HW1 8915   0.657   1.732   4.362  0.2418  1.2399  0.9709
 2779SOL    HW2 8916   0.679   1.828   4.247  2.0909 -2.9589 -2.4915
 2780SOL     OW 8917   6.476   7.043   0.214 -0.0014  0.4354  0.1067
 2780SOL    HW1 8918   6.398   7.083   0.175 -0.3529  0.2596  0.6238
 2780SOL    HW2 8919   6.509   6.985   0.146  1.1195  2.3380 -1.0748
 2781SOL     OW 8920   7.465   8.221   8.963 -0.1741  0.3813 -0.3643
 2781SOL    HW1 8921   7.377   8.200   8.932 -0.4779  1.0150  0.0519
 2781SOL    HW2 8922   7.456   8.306   9.007  0.4886  0.0821  0.3741
 2782SOL     OW 8923   7.408   8.197   4.669 -0.2826  0.0877  0.0619
 2782SOL    HW1 8924   7.389   8.118   4.618 -1.4000  0.6481 -0.4059
 2782SOL    HW2 8925   7.386   8.269   4.611 -0.1966  0.7482  0.8395
 2783SOL     OW 8926   9.091   0.799   9.963  0.2263 -0.5208  0.1802
 2783SOL    HW1 8927   9.015   0.770   9.913  1.0432  0.9542 -2.0722
 2783SOL    HW2 8928   9.061   0.877  10.009 -0.5837 -1.9904  2.2984
 2784SOL     OW 8929   0.465   6.854   7.267 -0.0903 -0.1981 -0.1839
 2784SOL    HW1 8930   0.526   6.892   7.330 -0.9755  0.4795  0.2978
 2784SOL    HW2 8931   0.515   6.846   7.186  0.2665  1.6812 -0.2028
 2785SOL     OW 8932   1.874   2.141   0.849  0.2863 -0.1541  0.3181
 2785SOL    HW1 8933   1.924   2.099   0.920 -1.7980 -0.7396  1.5139
 2785SOL    HW2 8934   1.923   2.119   0.769  1.3351 -1.6271  1.3127
 2786SOL     OW 8935   6.204   7.996   5.403 -0.3036 -0.0356  0.0194
 2786SOL    HW1 8936   6.144   7.948   5.346  1.9721  0.8932 -3.4553
 2786SOL    HW2 8937   6.177   8.087   5.395 -0.7835 -0.0122  1.6091
 2787SOL     OW 8938   6.285   0.521   4.881  0.1911 -0.3148 -0.2854
 2787SOL    HW1 8939   6.351   0.581   4.845 -0.1008  0.4702  0.4455
 2787SOL    HW2 8940   6.270   0.553   4.970 -1.2763 -0.4021 -0.4787
 2788SOL     OW 8941   0.625   8.363   8.625  0.0082 -0.1509  0.0037
 2788SOL    HW1 8942   0.653   8.382   8.715 -1.7623  0.4647  0.4606
 2788SOL    HW2 8943   0.551   8.422   8.610 -0.6781 -1.2988 -1.3434
 2789SOL     OW 8944   3.238   8.257   1.000 -0.0281  0.1733  0.5938
 2789SOL    HW1 8945   3.231   8.187   0.936  0.5723 -0.8899  1.6349
 2789SOL    HW2 8946   3.331   8.283   0.998 -0.3955  1.4858 -0.3197
 2790SOL     OW 8947   3.555   5.036   8.974 -0.1584  0.4052  0.5966
 2790SOL    HW1 8948   3.631   5.003   9.023  0.9074  2.0213  0.0880
 2790SOL    HW2 8949   3.542   5.125   9.006 -0.1276  1.1091 -1.2592
 2791SOL     OW 8950   1.082   9.274   2.589 -0.1502 -0.7806  0.7262
 2791SOL    HW1 8951   1.085   9.245   2.498  0.1708 -1.4052  0.9302
 2791SOL    HW2 8952   1.173   9.286   2.614 -0.2676  2.7465 -0.0433
 2792SOL     OW 8953   7.567   4.300   7.541 -0.4797 -0.2655 -0.2103
 2792SOL    HW1 8954   7.554   4.211   7.573 -1.3343  0.6188  2.0938
 2792SOL    HW2 8955   7.662   4.313   7.545 -0.2190 -1.4214 -1.7215
 2793SOL     OW 8956   3.463   3.332   6.212 -0.1562  0.0725 -0.0581
 2793SOL    HW1 8957   3.540   3.331   6.155 -0.1448 -0.8530 -0.0485
 2793SOL    HW2 8958   3.390   3.351   6.153 -0.1876 -1.1925 -0.4695
 2794SOL     OW 8959   7.472   3.518   1.877 -0.3836 -0.0395 -0.3289
 2794SOL    HW1 8960   7.390   3.559   1.905  0.5316  0.8481  1.1157
 2794SOL    HW2 8961   7.473   3.530   1.782 -1.6648  0.4095 -0.3092
 2795SOL     OW 8962   2.810   3.925   6.684 -0.0436  0.7467  0.4419
 2795SOL    HW1 8963   2.733   3.981   6.682  0.5167  1.5787  1.3503
 2795SOL    HW2 8964   2.874   3.973   6.736  1.0079 -0.0369 -0.0772
 2796SOL     OW 8965   1.111   6.993   8.209  0.3062 -0.1805 -0.4560
 2796SOL    HW1 8966   1.108   6.900   8.230 -0.0269 -0.0855 -0.0725
 2796SOL    HW2 8967   1.045   7.033   8.266  1.8764  0.5920  0.8929
 2797SOL     OW 8968   1.779   7.206   8.441  0.4656  0.7356 -0.6590
 2797SOL    HW1 8969   1.759   7.180   8.531  0.4224 -0.6814 -1.0512
 2797SOL    HW2 8970   1.695   7.201   8.395  0.4823  1.4753 -0.7859
 2798SOL     OW 8971   8.065   9.952   6.824 -0.5888 -0.2322 -0.2548
 2798SOL    HW1 8972   8.055   9.857   6.821  1.6987 -0.4989 -2.2260
 2798SOL    HW2 8973   8.145   9.967   6.875  0.0682  0.4719 -1.4249
 2799SOL     OW 8974   2.174   0.470   4.387  0.0314 -0.7436 -0.5217
 2799SOL    HW1 8975   2.240   0.524   4.431 -0.6814 -0.5137  0.2994
 2799SOL    HW2 8976   2.223   0.395   4.353  0.6336 -0.8517  0.5321
 2800SOL     OW 8977   7.417   7.748   7.620 -0.0251 -0.4746 -0.2508
 2800SOL    HW1 8978   7.336   7.768   7.668  1.2006  0.2013  1.6468
 2800SOL    HW2 8979   7.407   7.657   7.594 -0.4800 -1.0835  1.9073
 2801SOL     OW 8980   7.724   0.364   0.433 -0.1474  0.1943 -0.5020
 2801SOL    HW1 8981   7.708   0.323   0.518  1.4642 -0.5718 -0.5245
 2801SOL    HW2 8982   7.653   0.427   0.422  0.1173  0.9659  1.8186
 2802SOL     OW 8983   5.926   0.745   6.629 -0.3565 -0.4629  0.1871
 2802SOL    HW1 8984   5.935   0.756   6.534  0.6429  0.0039  0.3210
 2802SOL    HW2 8985   5.983   0.812   6.666 -1.6778  0.1633  1.1386
 2803SOL     OW 8986   8.786   4.554   0.903  0.3838 -0.2225 -0.0464
 2803SOL    HW1 8987   8.765   4.643   0.873  0.8637 -0.1146 -0.0695
 2803SOL    HW2 8988   8.874   4.561   0.940 -0.3076 -0.2698  1.7358
 2804SOL     OW 8989   8.368   1.934   3.448  0.0400 -0.0033  0.2287
 2804SOL    HW1 8990   8.335   1.852   3.411 -2.4007  0.7591  0.5718
 2804SOL    HW2 8991   8.351   1.999   3.380  2.2608  0.2368 -0.1815
 2805SOL     OW 8992   8.874   6.244   9.599  0.1386 -0.0932 -0.2531
 2805SOL    HW1 8993   8.854   6.258   9.691  1.0195 -0.4196  0.0037
 2805SOL    HW2 8994   8.967   6.268   9.591 -0.2514  1.1918 -1.3305
 2806SOL     OW 8995   6.628   7.061   8.427  0.5348  0.3402  0.3570
 2806SOL    HW1 8996   6.709   7.011   8.426  0.8496  0.8374  0.0924
 2806SOL    HW2 8997   6.577   7.025   8.500  1.0533  0.1156  0.6109
 2807SOL     OW 8998   9.128   5.411   2.205 -0.4915  0.7320 -0.2045
 2807SOL    HW1 8999   9.166   5.325   2.186 -2.0603 -0.5486  2.0248
 2807SOL    HW2 9000   9.192   5.473   2.168  1.1250 -1.3302 -1.1403
 2808SOL     OW 9001   1.089   2.537   9.890  0.2456 -0.1315  0.0631
 2808SOL    HW1 9002   1.026   2.528   9.961  0.0563  3.0906  0.4186
 2808SOL    HW2 9003   1.036   2.557   9.813  0.7082  0.3750 -0.1247
 2809SOL     OW 9004   8.778   4.139   2.646 -0.3077  0.4199  0.0374
 2809SOL    HW1 9005   8.807   4.159   2.735  0.3622 -0.2163 -0.0337
 2809SOL    HW2 9006   8.858   4.133   2.595 -0.6101 -0.4523 -0.3472
 2810SOL     OW 9007   6.754   2.659   6.623 -0.0968 -0.0845 -0.1410
 2810SOL    HW1 9008   6.714   2.679   6.707  0.0759 -1.5884  0.3372
 2810SOL    HW2 9009   6.782   2.567   6.631  0.2886 -0.1346 -1.6907
 2811SOL     OW 9010   4.717   2.399   0.107 -0.1868  0.2873 -0.0498
 2811SOL    HW1 9011   4.644   2.384   0.048 -0.2819  0.2155  0.0878
 2811SOL    HW2 9012   4.680   2.450   0.179 -0.3541 -0.7169  0.5869
 2812SOL     OW 9013   1.884   9.327   4.593 -0.1888  0.1621  0.3979
 2812SOL    HW1 9014   1.799   9.309   4.554 -0.0224 -0.1135  0.1628
 2812SOL    HW2 9015   1.865   9.346   4.685 -0.4921  0.0052  0.3666
 2813SOL     OW 9016   7.884   0.057   9.159  0.1837  0.7141  0.1207
 2813SOL    HW1 9017   7.817  -0.008   9.137  0.0256  0.4880  1.2351
 2813SOL    HW2 9018   7.956   0.006   9.195  1.2495  0.8922 -1.6605
 2814SOL     OW 9019   6.344   4.348   8.602 -0.3342 -0.4462 -0.1897
 2814SOL    HW1 9020   6.360   4.338   8.508  1.9451  0.1022  0.0934
 2814SOL    HW2 9021   6.431   4.347   8.642 -1.0326  2.2760  1.6408
 2815SOL     OW 9022   7.747   8.151   4.304  0.2040 -0.7048  0.4532
 2815SOL    HW1 9023   7.815   8.217   4.317 -0.0314 -0.6528  1.5386
 2815SOL    HW2 9024   7.780   8.073   4.349  1.2163 -1.8850 -2.1717
 2816SOL     OW 9025   8.364   3.871   9.138 -0.2373 -0.2114 -0.0029
 2816SOL    HW1 9026   8.413   3.857   9.057 -2.1799 -0.0150 -1.2701
 2816SOL    HW2 9027   8.342   3.965   9.136 -1.3222 -0.4487  0.1175
 2817SOL     OW 9028   3.470   7.584   7.767 -0.2560 -0.5566 -0.2976
 2817SOL    HW1 9029   3.466   7.677   7.741  0.6164 -0.3211  0.3700
 2817SOL    HW2 9030   3.444   7.584   7.859  0.4869 -0.8637 -0.0798
 2818SOL     OW 9031   0.960   1.389   6.289  0.0190 -0.1037  0.6663
 2818SOL    HW1 9032   1.042   1.436   6.308  1.1759 -2.1277  0.9804
 2818SOL    HW2 9033   0.984   1.325   6.222 -1.5834 -0.0641  0.0017
 2819SOL     OW 9034   1.045   8.705   5.204  0.3609  0.1446  0.0922
 2819SOL    HW1 9035   1.125   8.721   5.254 -0.0898  2.3416  0.1944
 2819SOL    HW2 9036   0.984   8.771   5.235 -1.6365 -1.6660  0.2331
 2820SOL     OW 9037   0.899   8.539   6.706  0.3624 -0.4266  0.4375
 2820SOL    HW1 9038   0.933   8.601   6.771  1.3081  0.3968 -0.8015
 2820SOL    HW2 9039   0.973   8.522   6.647 -1.0037  0.4739 -1.6481
 2821SOL     OW 9040   1.323   6.967   1.652 -0.0891 -0.3968  0.1370
 2821SOL    HW1 9041   1.288   7.030   1.589  0.4097  0.7396  0.9724
 2821SOL    HW2 9042   1.290   6.996   1.736  0.7799 -0.7922  0.6294
 2822SOL     OW 9043   0.261   6.410   1.825 -0.5294 -0.1493 -0.5023
 2822SOL    HW1 9044   0.186   6.355   1.845 -0.1537 -1.0484 -1.4533
 2822SOL    HW2 9045   0.320   6.399   1.899 -1.4279  0.7826  0.3868
 2823SOL     OW 9046   0.911   6.846   2.463  0.3512  0.0841 -0.8261
 2823SOL    HW1 9047   0.975   6.843   2.392 -1.2561  0.4317 -2.3614
 2823SOL    HW2 9048   0.872   6.933   2.458 -0.1742 -0.0717  0.1417
 2824SOL     OW 9049   6.875   3.458   0.208 -0.1473  0.2187 -0.1786
 2824SOL    HW1 9050   6.953   3.505   0.179 -0.2394 -0.0348 -0.8534
 2824SOL    HW2 9051   6.904   3.369   0.223  0.3255  0.7224  2.3829
 2825SOL     OW 9052   7.999   8.207   5.841  0.2288 -0.4915  0.5310
 2825SOL    HW1 9053   8.036   8.295   5.839 -2.7520  0.8863 -1.6831
 2825SOL    HW2 9054   7.940   8.207   5.916 -0.4552 -0.2206  0.0107
 2826SOL     OW 9055   6.206   7.666   6.805  0.3541  0.6910 -0.2022
 2826SOL    HW1 9056   6.259   7.603   6.756  1.0779  0.9694  0.2019
 2826SOL    HW2 9057   6.214   7.748   6.756 -0.9878  0.3766 -1.0024
 2827SOL     OW 9058   8.589   0.455   9.011  1.0425 -0.0690  0.3704
 2827SOL    HW1 9059   8.574   0.422   9.099  1.8407 -3.2027 -0.5511
 2827SOL    HW2 9060   8.509   0.433   8.963  1.5211 -0.5312 -0.2335
 2828SOL     OW 9061   4.647   4.492   4.123 -0.2334 -0.1823 -0.2763
 2828SOL    HW1 9062   4.576   4.520   4.066 -0.4915  1.1101  0.6508
 2828SOL    HW2 9063   4.688   4.573   4.153  1.0299 -0.8758 -0.0166
 2829SOL     OW 9064   4.057   5.225   0.715 -0.0083 -0.1704  0.2555
 2829SOL    HW1 9065   4.138   5.221   0.765 -1.1134  0.0011  2.1533
 2829SOL    HW2 9066   4.084   5.210   0.624  2.4465  2.2373  0.4634
 2830SOL     OW 9067   6.643   0.195   8.308 -0.1499 -0.4847 -0.3070
 2830SOL    HW1 9068   6.620   0.288   8.315  1.7305 -0.0520  0.8651
 2830SOL    HW2 9069   6.579   0.151   8.365 -0.7235  0.1385 -0.4481
 2831SOL     OW 9070   9.079   6.490   8.186  0.7881 -0.0671  0.3167
 2831SOL    HW1 9071   9.059   6.405   8.225  1.1295 -0.4212 -0.2561
 2831SOL    HW2 9072   8.999   6.541   8.198 -0.1282 -1.1041 -1.0078
 2832SOL     OW 9073   1.085   4.819   5.619  0.4110 -0.0360 -0.5247
 2832SOL    HW1 9074   1.128   4.743   5.657  1.2862  0.3590 -0.7109
 2832SOL    HW2 9075   0.991   4.804   5.635  0.5956 -0.9956 -0.2992
 2833SOL     OW 9076   3.313   9.283   7.254 -0.5801  0.3250 -0.0632
 2833SOL    HW1 9077   3.274   9.218   7.195  0.2262 -0.7698  0.5693
 2833SOL    HW2 9078   3.364   9.231   7.316 -0.7996  1.5108  1.1396
 2834SOL     OW 9079   9.899   5.962   6.292 -0.0140  0.3916 -0.0126
 2834SOL    HW1 9080   9.804   5.949   6.291 -0.0422  0.6134 -0.3831
 2834SOL    HW2 9081   9.929   5.920   6.211  0.0269  1.6593 -0.6664
 2835SOL     OW 9082   0.886   0.417   8.515 -0.3509  0.2997  0.4998
 2835SOL    HW1 9083   0.813   0.368   8.477 -1.0180  0.2606  1.7902
 2835SOL    HW2 9084   0.961   0.358   8.509 -0.4267  0.2914 -0.7161
 2836SOL     OW 9085   5.762   3.373   0.489  0.0038 -0.6848 -0.3332
 2836SOL    HW1 9086   5.782   3.280   0.492 -1.3203 -1.0798 -1.9539
 2836SOL    HW2 9087   5.805   3.404   0.409  2.6980  0.7679  1.5090
 2837SOL     OW 9088   3.266   3.826   2.731  0.1731 -0.1270 -0.4710
 2837SOL    HW1 9089   3.301   3.897   2.678 -0.4759  0.7626  0.2771
 2837SOL    HW2 9090   3.178   3.854   2.755 -0.5440 -1.6994 -1.1321
 2838SOL     OW 9091   6.629   5.335   7.744  0.4743  0.1955  0.0233
 2838SOL    HW1 9092   6.698   5.270   7.730  0.0938  0.1027 -1.5563
 2838SOL    HW2 9093   6.594   5.313   7.830  0.7588 -1.3207 -0.2169
 2839SOL     OW 9094   3.510   1.730   1.970  0.3233  0.3370 -0.0443
 2839SOL    HW1 9095   3.523   1.787   2.045  1.3666 -0.8879  0.7638
 2839SOL    HW2 9096   3.598   1.700   1.946  0.2173  1.8216 -2.7276
 2840SOL     OW 9097   2.186   1.423   2.180 -0.5766  0.3727  0.4771
 2840SOL    HW1 9098   2.234   1.506   2.172  0.1200 -0.1289 -0.8384
 2840SOL    HW2 9099   2.097   1.443   2.152 -1.2816  1.3699  3.1555
 2841SOL     OW 9100   0.200   1.720   7.007 -0.0750  0.4538  0.1551
 2841SOL    HW1 9101   0.144   1.664   7.061  0.7595  0.2770  0.8503
 2841SOL    HW2 9102   0.262   1.660   6.966  0.2613  0.7738  0.1957
 2842SOL     OW 9103   5.320   0.442   1.447  0.2314 -0.2113 -0.2988
 2842SOL    HW1 9104   5.298   0.499   1.520 -0.8855  0.0055 -0.7869
 2842SOL    HW2 9105   5.361   0.500   1.383 -2.7809  0.5752 -1.6891
 2843SOL     OW 9106   5.364   5.836   2.594  0.5137 -0.2164 -0.3588
 2843SOL    HW1 9107   5.436   5.881   2.638  0.2782  0.8751 -1.0530
 2843SOL    HW2 9108   5.378   5.853   2.501  0.1604 -1.2122 -0.6057
 2844SOL     OW 9109   2.517   3.194   7.105 -0.3193  0.2012 -0.3365
 2844SOL    HW1 9110   2.471   3.240   7.175 -1.1013 -1.4316  0.2649
 2844SOL    HW2 9111   2.481   3.106   7.105  1.6241 -0.6725 -0.9730
 2845SOL     OW 9112   6.908   4.738   2.880  0.0963 -0.2490  0.4015
 2845SOL    HW1 9113   6.970   4.797   2.922 -1.1560  0.6034  1.1365
 2845SOL    HW2 9114   6.844   4.719   2.948 -1.0693 -0.1936 -0.6468
 2846SOL     OW 9115   1.366   4.070   6.091  0.2577  0.1124 -0.6668
 2846SOL    HW1 9116   1.396   4.089   6.002 -0.6379 -0.9035 -1.2121
 2846SOL    HW2 9117   1.271   4.076   6.086  0.0815 -1.7626 -0.2526
 2847SOL     OW 9118   5.332   9.574   5.413  0.1622  0.1457 -0.3967
 2847SOL    HW1 9119   5.243   9.588   5.447 -0.2497 -1.2002 -0.8518
 2847SOL    HW2 9120   5.385   9.554   5.490  0.3141  1.8564  0.0015
 2848SOL     OW 9121   9.984   8.074   7.958 -0.1269  0.3621  0.1255
 2848SOL    HW1 9122   9.976   8.135   7.884 -2.1282 -0.3576 -0.3122
 2848SOL    HW2 9123   9.902   8.024   7.957  0.5644 -0.8966  1.7586
 2849SOL     OW 9124   6.932   5.476   8.289 -0.2112 -0.2133  0.4644
 2849SOL    HW1 9125   6.883   5.541   8.339 -0.2349  0.0494  0.1047
 2849SOL    HW2 9126   6.871   5.444   8.224  0.3970  0.9445 -0.7293
 2850SOL     OW 9127   9.107   0.192   1.657  0.0885 -0.2469  0.0991
 2850SOL    HW1 9128   9.119   0.259   1.590  0.9698 -0.7943 -0.3220
 2850SOL    HW2 9129   9.185   0.137   1.649 -0.1363 -0.7337  1.1069
 2851SOL     OW 9130   2.692   4.251   5.179  0.6027  0.2275 -0.4594
 2851SOL    HW1 9131   2.772   4.288   5.215 -0.1151  0.3027  1.1317
 2851SOL    HW2 9132   2.685   4.290   5.092  2.5020 -0.1175 -0.8248
 2852SOL     OW 9133   9.337   5.319   7.380  0.1444 -1.1858 -0.5420
 2852SOL    HW1 9134   9.377   5.405   7.378  0.6165 -1.4115 -0.9561
 2852SOL    HW2 9135   9.344   5.286   7.290 -2.5571 -0.5172 -1.1038
 2853SOL     OW 9136   1.301   6.311   6.396  0.2392  0.2574 -0.4353
 2853SOL    HW1 9137   1.380   6.338   6.349 -0.1649  0.2811 -1.1135
 2853SOL    HW2 9138   1.271   6.233   6.350  0.2415 -0.1496  0.2414
 2854SOL     OW 9139   5.373   3.790   2.396  0.4463  0.4297 -0.2138
 2854SOL    HW1 9140   5.466   3.812   2.398  0.2731  1.1835  0.8553
 2854SOL    HW2 9141   5.331   3.862   2.443 -0.7102  0.2298 -0.9136
 2855SOL     OW 9142   3.137   8.115   8.838 -0.7459  0.0016 -0.2648
 2855SOL    HW1 9143   3.107   8.128   8.747  0.7186 -0.2164 -0.8031
 2855SOL    HW2 9144   3.205   8.049   8.831 -1.2319 -0.6786  1.1405
 2856SOL     OW 9145   7.246   2.793   1.996  0.1901  0.4529  0.2983
 2856SOL    HW1 9146   7.214   2.711   1.960  1.1704  0.3383 -0.3423
 2856SOL    HW2 9147   7.245   2.854   1.922  0.6232  0.6792  0.4731
 2857SOL     OW 9148   9.213   9.545   1.850  0.2708 -0.5377 -0.0495
 2857SOL    HW1 9149   9.236   9.453   1.865  0.9442 -0.4148 -0.2968
 2857SOL    HW2 9150   9.223   9.557   1.756 -2.0608 -0.8055 -0.3773
 2858SOL     OW 9151   5.707   1.224   3.160 -0.1310 -0.0294 -0.0993
 2858SOL    HW1 9152   5.799   1.202   3.162  0.2526  1.2459 -1.7106
 2858SOL    HW2 9153   5.695   1.274   3.079 -2.1867  0.0232  0.1674
 2859SOL     OW 9154   5.424   4.477   8.510  0.1818 -0.1056 -0.1737
 2859SOL    HW1 9155   5.401   4.410   8.575 -0.3197 -1.1939 -1.4226
 2859SOL    HW2 9156   5.340   4.512   8.481  0.3286 -0.4218 -1.0191
 2860SOL     OW 9157   1.720   8.346   1.680 -0.5900  0.2818  0.7852
 2860SOL    HW1 9158   1.736   8.410   1.750  1.7536  1.5703 -0.7731
 2860SOL    HW2 9159   1.799   8.292   1.679 -0.3684  0.5870 -1.1168
 2861SOL     OW 9160   5.369   3.336   5.598 -0.0138 -0.2901  0.4085
 2861SOL    HW1 9161   5.327   3.406   5.549  0.9522 -1.1852 -1.7974
 2861SOL    HW2 9162   5.450   3.375   5.631  0.4122 -0.2942 -0.6213
 2862SOL     OW 9163   7.548   7.375   1.201 -0.4019 -0.1981  0.5171
 2862SOL    HW1 9164   7.609   7.391   1.273 -1.6353  1.3391  1.2840
 2862SOL    HW2 9165   7.506   7.460   1.185 -0.4348 -0.5776 -1.8014
 2863SOL     OW 9166   1.012   1.453   6.875  0.0453  0.0863 -0.5136
 2863SOL    HW1 9167   1.019   1.381   6.812  0.3093 -0.3539  0.0040
 2863SOL    HW2 9168   0.981   1.527   6.824 -2.3606 -0.9419 -0.6670
 2864SOL     OW 9169   2.768   4.935   3.458 -0.3233  0.4565  0.4180
 2864SOL    HW1 9170   2.829   4.963   3.525 -0.4423  2.8974 -0.4130
 2864SOL    HW2 9171   2.823   4.915   3.382 -0.4569  1.9294 -0.0933
 2865SOL     OW 9172   2.260   0.515   2.609  0.7804  0.1038 -0.0755
 2865SOL    HW1 9173   2.206   0.583   2.570  0.1165 -0.5278 -0.2651
 2865SOL    HW2 9174   2.237   0.435   2.562  0.0787 -0.6460  1.4771
 2866SOL     OW 9175   3.728   0.096   2.093 -0.0113 -0.3964  0.2661
 2866SOL    HW1 9176   3.698   0.153   2.022 -0.3790 -0.5439  0.3046
 2866SOL    HW2 9177   3.796   0.042   2.052  0.0358 -0.2278  0.1194
 2867SOL     OW 9178   7.046   7.256   3.444  0.3238 -0.4674 -0.2614
 2867SOL    HW1 9179   7.080   7.276   3.532  0.6824 -0.7789 -0.3303
 2867SOL    HW2 9180   6.963   7.211   3.461  0.1463 -0.0866 -0.0896
 2868SOL     OW 9181   4.648   2.068   8.298  0.0504 -0.3878 -0.3101
 2868SOL    HW1 9182   4.644   2.075   8.203 -0.6189  3.1059 -0.1580
 2868SOL    HW2 9183   4.700   2.144   8.325 -1.2371 -0.2827  2.1545
 2869SOL     OW 9184   0.186   7.467   2.352  0.0259 -0.1162 -0.2080
 2869SOL    HW1 9185   0.155   7.558   2.351  3.1821  1.0915 -2.0048
 2869SOL    HW2 9186   0.279   7.473   2.328  1.3018 -3.5413  2.9532
 2870SOL     OW 9187   6.634   9.855   5.861  0.6931  0.2461 -0.1241
 2870SOL    HW1 9188   6.711   9.798   5.866  0.8208  0.4063 -0.2243
 2870SOL    HW2 9189   6.619   9.867   5.768  0.5269  0.1896 -0.1033
 2871SOL     OW 9190   0.745   7.278   8.527  0.4716  0.3198  0.0164
 2871SOL    HW1 9191   0.709   7.304   8.443 -2.6686 -3.8370 -0.2370
 2871SOL    HW2 9192   0.669   7.258   8.581  2.3502 -1.9551  2.0742
 2872SOL     OW 9193   5.526   8.614   9.058 -0.1965  0.7695  0.0428
 2872SOL    HW1 9194   5.536   8.667   8.978 -0.2364  0.5571 -0.1026
 2872SOL    HW2 9195   5.466   8.544   9.033  1.9294 -0.9610 -0.5863
 2873SOL     OW 9196   0.040   0.216   8.509 -0.1299  0.5073 -0.2411
 2873SOL    HW1 9197  -0.042   0.182   8.471 -0.3695  1.0915 -0.2570
 2873SOL    HW2 9198   0.044   0.176   8.596 -0.3998  0.4251 -0.2633
 2874SOL     OW 9199   9.891   5.041   6.154 -0.5508 -0.0337  0.5056
 2874SOL    HW1 9200   9.836   5.039   6.075 -0.3406 -0.8391  0.3792
 2874SOL    HW2 9201   9.978   5.062   6.122 -0.4680 -0.3466  0.5213
 2875SOL     OW 9202   1.188   7.969   4.180  0.0518  0.7906  0.2705
 2875SOL    HW1 9203   1.128   7.894   4.169  0.3158  0.4895  0.8336
 2875SOL    HW2 9204   1.267   7.931   4.217 -0.1805  1.4842  1.5605
 2876SOL     OW 9205   0.743   4.484   6.676 -0.0453 -0.4207  0.0955
 2876SOL    HW1 9206   0.741   4.498   6.771 -3.9477  1.3849 -0.0644
 2876SOL    HW2 9207   0.660   4.520   6.645  0.7653 -1.5938 -3.9693
 2877SOL     OW 9208   6.716   0.106   3.579  0.5690 -0.2028 -0.3914
 2877SOL    HW1 9209   6.763   0.051   3.642  0.0547 -0.2535 -0.0473
 2877SOL    HW2 9210   6.624   0.089   3.597  0.4155  0.2154 -0.7827
 2878SOL     OW 9211   5.471   3.415   9.247 -0.0827 -0.2142 -0.0245
 2878SOL    HW1 9212   5.549   3.471   9.243  0.2983 -0.5763  1.6750
 2878SOL    HW2 9213   5.416   3.456   9.314 -1.4500  0.1156 -1.2987
 2879SOL     OW 9214   0.336   6.988   3.723 -0.1816 -0.5714 -0.2286
 2879SOL    HW1 9215   0.254   6.965   3.767 -0.1847 -0.6288 -0.2644
 2879SOL    HW2 9216   0.377   7.052   3.781  0.1423 -1.1537  0.2011
 2880SOL     OW 9217   0.074   9.034   2.571  0.1536 -0.2781 -0.0133
 2880SOL    HW1 9218  -0.002   9.067   2.618  0.8646  0.3741  0.7109
 2880SOL    HW2 9219   0.135   9.007   2.640  0.2647 -1.5336 -0.5901
 2881SOL     OW 9220   3.327   1.556   5.120  0.1651  0.2404  0.6225
 2881SOL    HW1 9221   3.360   1.512   5.041  0.2176  1.8362 -0.3049
 2881SOL    HW2 9222   3.367   1.643   5.117 -0.2222  0.5011  2.1689
 2882SOL     OW 9223   3.620   2.284   7.576  0.5190  0.4724  0.8975
 2882SOL    HW1 9224   3.593   2.194   7.591  0.0744  0.8045  2.2865
 2882SOL    HW2 9225   3.603   2.299   7.483  0.3370 -0.7798  0.7139
 2883SOL     OW 9226   1.419   9.380   3.883  0.2834  0.0354 -0.2515
 2883SOL    HW1 9227   1.336   9.371   3.836  0.3817 -1.8662 -0.1230
 2883SOL    HW2 9228   1.404   9.453   3.944 -1.0154  0.2369 -0.7705
 2884SOL     OW 9229   8.213   4.726   7.896  0.4465 -0.4332  0.0320
 2884SOL    HW1 9230   8.238   4.799   7.838  2.0153  1.0933  2.4480
 2884SOL    HW2 9231   8.294   4.679   7.911  0.2004 -0.4348  1.4456
 2885SOL     OW 9232   2.696   6.034   6.886 -0.1836 -0.9100 -0.3060
 2885SOL    HW1 9233   2.604   6.009   6.898 -0.6966  0.4446 -1.1057
 2885SOL    HW2 9234   2.693   6.130   6.878  0.9814 -1.0130 -2.8856
 2886SOL     OW 9235   8.208   1.280   8.911 -0.3046 -0.0435  0.0460
 2886SOL    HW1 9236   8.120   1.317   8.906  0.8765  2.9645 -0.9735
 2886SOL    HW2 9237   8.223   1.241   8.824  0.3515  2.1971 -0.9316
 2887SOL     OW 9238   1.701   9.731   0.640  0.2750 -0.5645 -0.2767
 2887SOL    HW1 9239   1.729   9.640   0.631 -1.1084 -0.9135 -1.2104
 2887SOL    HW2 9240   1.648   9.732   0.720  2.2406 -0.0370  1.1112
 2888SOL     OW 9241   2.469   8.593   3.162  0.7783 -0.3981 -0.3927
 2888SOL    HW1 9242   2.549   8.609   3.212  0.3932  0.2855  0.0169
 2888SOL    HW2 9243   2.450   8.677   3.120  1.2522 -1.0272 -1.9503
 2889SOL     OW 9244   8.774   8.469   6.817  0.0659 -0.5929 -0.0226
 2889SOL    HW1 9245   8.681   8.475   6.796  0.0904  0.2885  0.1074
 2889SOL    HW2 9246   8.776   8.412   6.895 -0.5781  1.0121  1.2395
 2890SOL     OW 9247   7.039   8.069   3.274 -0.1174  0.1354  0.0878
 2890SOL    HW1 9248   7.027   8.036   3.185 -1.3439 -0.0672  0.3013
 2890SOL    HW2 9249   6.997   8.003   3.329  0.4710  0.3477  0.8008
 2891SOL     OW 9250   1.040   1.227   4.097 -0.1591  0.5068 -0.3449
 2891SOL    HW1 9251   1.049   1.141   4.056 -0.8961  0.1005  0.3208
 2891SOL    HW2 9252   1.006   1.208   4.185  0.1763  1.4446 -0.0071
 2892SOL     OW 9253   5.000   9.860   6.780 -0.0074  0.3812  0.0748
 2892SOL    HW1 9254   5.058   9.844   6.854  0.3937  0.5109 -0.2088
 2892SOL    HW2 9255   5.007   9.782   6.725  0.1346  0.5277 -0.1160
 2893SOL     OW 9256   6.189   0.291   0.014 -0.3582 -0.3756  0.4069
 2893SOL    HW1 9257   6.215   0.199   0.005 -0.6374 -0.5450  1.2677
 2893SOL    HW2 9258   6.196   0.309   0.108 -0.3358  0.4785  0.2492
 2894SOL     OW 9259   5.783   7.613   0.794  0.3467  0.1389  0.1039
 2894SOL    HW1 9260   5.796   7.703   0.822 -0.7129  0.4058 -0.1984
 2894SOL    HW2 9261   5.786   7.616   0.698  1.2302 -0.3040  0.1150
 2895SOL     OW 9262   3.191   0.876   0.391 -0.1542  0.2198  0.4728
 2895SOL    HW1 9263   3.100   0.852   0.372 -0.4740  1.1096  0.8404
 2895SOL    HW2 9264   3.207   0.954   0.338  0.0858  0.6250  1.1276
 2896SOL     OW 9265   2.454   3.541   4.496 -0.7178  0.2930 -0.2609
 2896SOL    HW1 9266   2.479   3.628   4.465 -0.0881  0.3878  0.4913
 2896SOL    HW2 9267   2.495   3.480   4.435  1.2095  0.4479  0.8071
 2897SOL     OW 9268   5.393   3.516   7.846  0.8230  0.1387  0.2831
 2897SOL    HW1 9269   5.467   3.486   7.898  0.4398  0.0134  0.7718
 2897SOL    HW2 9270   5.430   3.574   7.781  1.4504 -0.5360  0.0278
 2898SOL     OW 9271   8.865   4.521   2.831 -0.4289  0.1714  0.4730
 2898SOL    HW1 9272   8.835   4.595   2.779  0.0512 -0.0340 -0.1023
 2898SOL    HW2 9273   8.790   4.498   2.885 -0.6906  0.8653  0.4196
 2899SOL     OW 9274   8.772   9.885   7.994  0.4984 -0.3132  0.1249
 2899SOL    HW1 9275   8.754   9.947   7.923  0.6023 -1.2799 -0.7579
 2899SOL    HW2 9276   8.713   9.811   7.977  0.8083 -0.7269  0.8271
 2900SOL     OW 9277   8.782   3.548   0.023 -0.0913  0.6391  0.4010
 2900SOL    HW1 9278   8.733   3.560   0.105  0.1164  3.0466  0.2493
 2900SOL    HW2 9279   8.741   3.609  -0.038 -0.1322 -0.9884 -1.2926
 2901SOL     OW 9280   1.761   5.944   9.923 -0.1250 -0.0536 -0.2402
 2901SOL    HW1 9281   1.671   5.971   9.902  0.6747  1.3192 -2.1468
 2901SOL    HW2 9282   1.769   5.856   9.886 -0.3328  0.3037 -1.1694
 2902SOL     OW 9283   3.069   9.293   6.223  0.3952 -0.2312  0.3476
 2902SOL    HW1 9284   3.149   9.343   6.209  0.2565 -0.0264  0.2754
 2902SOL    HW2 9285   3.090   9.205   6.194 -0.3115  0.4672 -2.6718
 2903SOL     OW 9286   8.788   9.247   3.526 -0.3245  0.6585  0.7998
 2903SOL    HW1 9287   8.719   9.311   3.509  1.2928  2.4502  0.7054
 2903SOL    HW2 9288   8.832   9.280   3.605  0.2149 -0.6435  1.0640
 2904SOL     OW 9289   6.979   0.438   9.112 -0.0830 -0.0686 -0.4596
 2904SOL    HW1 9290   6.946   0.358   9.152  0.1245 -0.1474 -0.4415
 2904SOL    HW2 9291   6.917   0.458   9.042  0.0028 -0.3838 -0.6238
 2905SOL     OW 9292   8.851   8.918   6.080 -0.3664 -0.4630  0.3024
 2905SOL    HW1 9293   8.782   8.894   6.017 -1.2998 -2.1265  1.8558
 2905SOL    HW2 9294   8.811   8.905   6.166  1.2110  0.7032  1.2731
 2906SOL     OW 9295   5.655   4.084   9.032  0.7616  0.4455 -0.3479
 2906SOL    HW1 9296   5.611   4.012   9.077 -2.2651  1.8981 -0.7146
 2906SOL    HW2 9297   5.704   4.128   9.101 -0.8292  0.4689  0.8413
 2907SOL     OW 9298   3.711   7.778   1.013 -0.2989 -0.2202 -0.2132
 2907SOL    HW1 9299   3.720   7.869   1.041 -0.0267  0.4311 -2.2346
 2907SOL    HW2 9300   3.767   7.771   0.935 -0.7440 -1.9609 -0.4184
 2908SOL     OW 9301   9.179   1.643   4.424 -0.1953 -0.1104 -0.2580
 2908SOL    HW1 9302   9.256   1.653   4.481 -2.0967  3.5779  2.0405
 2908SOL    HW2 9303   9.202   1.692   4.345 -0.4256  1.7903  0.8032
 2909SOL     OW 9304   6.473   8.861   9.369 -0.0044 -0.2988 -0.0606
 2909SOL    HW1 9305   6.462   8.933   9.307  0.1279  0.2957  0.5840
 2909SOL    HW2 9306   6.417   8.791   9.336 -0.8793  0.4457 -0.1950
 2910SOL     OW 9307   8.925   6.346   7.268 -0.1468 -0.0385 -0.1237
 2910SOL    HW1 9308   8.837   6.322   7.297  0.9190 -2.5944  1.3740
 2910SOL    HW2 9309   8.981   6.325   7.343  1.5868  3.3330 -0.2906
 2911SOL     OW 9310   7.224   7.364   1.863  0.2953  0.1657  0.3052
 2911SOL    HW1 9311   7.262   7.451   1.877  1.5976 -0.1615 -0.8934
 2911SOL    HW2 9312   7.217   7.326   1.950 -0.9649  1.7208  0.9291
 2912SOL     OW 9313   9.287   2.450   2.581 -0.7160 -0.2909  0.0053
 2912SOL    HW1 9314   9.317   2.384   2.643  0.1047  1.6810  1.8160
 2912SOL    HW2 9315   9.354   2.519   2.584 -1.8391  0.9301 -1.3393
 2913SOL     OW 9316   9.599   0.629   7.465  0.0107  0.2099 -0.1485
 2913SOL    HW1 9317   9.587   0.723   7.478  0.4239  0.4937 -1.6007
 2913SOL    HW2 9318   9.677   0.607   7.515 -0.2556  0.5766  0.4370
 2914SOL     OW 9319   9.142   1.396   7.140  0.0089 -0.1592 -0.0873
 2914SOL    HW1 9320   9.200   1.416   7.066  0.2738 -0.0171  0.1600
 2914SOL    HW2 9321   9.158   1.303   7.158  1.2428  0.2231  0.9184
 2915SOL     OW 9322   2.256   5.347   4.117  0.4799  0.2579  0.4901
 2915SOL    HW1 9323   2.186   5.411   4.132 -1.6508 -1.1496 -2.3909
 2915SOL    HW2 9324   2.295   5.373   4.034  2.1379 -0.1042  1.1170
 2916SOL     OW 9325   8.110   3.164   3.216 -0.3896  0.2416  0.3475
 2916SOL    HW1 9326   8.080   3.114   3.292 -0.6680  2.1309  1.5368
 2916SOL    HW2 9327   8.029   3.188   3.170 -0.3668  0.7497  0.5607
 2917SOL     OW 9328   4.772   8.816   8.815  0.6057  0.4682 -0.2180
 2917SOL    HW1 9329   4.863   8.843   8.826  0.6564  1.5230 -2.6184
 2917SOL    HW2 9330   4.721   8.895   8.831  0.2591  0.3598 -0.7626
 2918SOL     OW 9331   2.462   5.482   7.665 -0.1143  0.3410 -0.1918
 2918SOL    HW1 9332   2.489   5.522   7.747  0.0974  1.3663 -0.7361
 2918SOL    HW2 9333   2.369   5.505   7.656  0.0727  0.9528 -0.6302
 2919SOL     OW 9334   4.113   2.489   9.776 -0.0342  0.3451  0.4126
 2919SOL    HW1 9335   4.145   2.570   9.737 -1.0611  1.8856  2.5384
 2919SOL    HW2 9336   4.129   2.422   9.710  3.4465  1.7383 -0.3591
 2920SOL     OW 9337   6.522   8.692   7.369  0.4593 -0.0534 -1.0581
 2920SOL    HW1 9338   6.547   8.700   7.461  2.0021  1.7506 -1.5635
 2920SOL    HW2 9339   6.438   8.647   7.370  1.0806 -1.2849  1.1381
 2921SOL     OW 9340   2.503   7.013   3.358  0.1820 -0.1882  0.3850
 2921SOL    HW1 9341   2.430   6.950   3.357 -0.1237  0.1266 -1.7517
 2921SOL    HW2 9342   2.461   7.098   3.366  0.5574 -0.1346  2.4617
 2922SOL     OW 9343   7.501   8.608   2.292 -0.2768 -0.2335 -0.3192
 2922SOL    HW1 9344   7.453   8.577   2.215 -2.7711 -2.4925  1.9399
 2922SOL    HW2 9345   7.574   8.548   2.300 -1.1082 -1.2142  0.1016
 2923SOL     OW 9346   3.991   5.403   1.949 -0.1193  0.0310 -0.5838
 2923SOL    HW1 9347   3.938   5.370   2.021 -1.4788 -1.1894 -2.0495
 2923SOL    HW2 9348   4.079   5.372   1.967 -0.4099 -0.1713  0.5823
 2924SOL     OW 9349   9.144   8.789   9.492 -0.1225 -0.0545  0.5145
 2924SOL    HW1 9350   9.172   8.792   9.583 -2.1366  0.4256  1.1719
 2924SOL    HW2 9351   9.071   8.726   9.492 -0.4217  0.2708 -0.6772
 2925SOL     OW 9352   3.590   4.966   9.530  0.4083  0.3359 -0.7198
 2925SOL    HW1 9353   3.514   4.908   9.522 -0.0444  1.1719 -3.5965
 2925SOL    HW2 9354   3.638   4.931   9.605 -1.7136 -1.4967 -0.0845
 2926SOL     OW 9355   0.102   5.466   9.199 -0.2906  0.9805  0.8404
 2926SOL    HW1 9356   0.059   5.456   9.284 -0.9272  0.9578  0.5161
 2926SOL    HW2 9357   0.179   5.520   9.218  1.3604 -1.6088  2.0241
 2927SOL     OW 9358   0.500   4.927   3.670  0.0595  0.1453 -0.4833
 2927SOL    HW1 9359   0.594   4.936   3.684  0.3693 -1.3279 -1.3286
 2927SOL    HW2 9360   0.494   4.875   3.589 -1.4595 -0.5595  0.0538
 2928SOL     OW 9361   0.270   5.828   9.560 -0.4049 -0.2056  0.3671
 2928SOL    HW1 9362   0.196   5.866   9.609 -0.4430 -0.7461  0.7345
 2928SOL    HW2 9363   0.344   5.836   9.619 -0.4997 -1.0738  0.6174
 2929SOL     OW 9364   1.302   9.427   9.016 -0.3449 -0.0877 -0.1923
 2929SOL    HW1 9365   1.308   9.349   8.962  2.9406  1.7933 -2.9025
 2929SOL    HW2 9366   1.232   9.479   8.976  1.0240  0.5986 -1.8148
 2930SOL     OW 9367   4.153   1.807   9.086  0.0013 -0.1646 -0.2714
 2930SOL    HW1 9368   4.249   1.818   9.086  0.2038 -1.6162  0.6095
 2930SOL    HW2 9369   4.140   1.713   9.074 -1.3392  0.0407 -0.5431
 2931SOL     OW 9370   6.071   7.813   4.784 -0.0183  0.0620 -0.6107
 2931SOL    HW1 9371   6.116   7.746   4.731  0.2494  0.2376 -0.6065
 2931SOL    HW2 9372   6.030   7.763   4.855  1.5277  0.0569  0.3254
 2932SOL     OW 9373   8.890   5.364   0.118 -0.6445  0.0372 -0.1491
 2932SOL    HW1 9374   8.796   5.357   0.135 -0.5530 -3.3680 -0.2776
 2932SOL    HW2 9375   8.895   5.385   0.025 -1.2165  1.9224  0.2097
 2933SOL     OW 9376   9.032   2.675   8.757 -0.6080 -0.2075 -0.1517
 2933SOL    HW1 9377   8.997   2.586   8.747  1.1289 -1.0660  0.8611
 2933SOL    HW2 9378   9.021   2.715   8.671 -1.2364 -1.4845 -0.6923
 2934SOL     OW 9379   6.461   0.136   4.560 -0.0202 -0.2073 -0.0321
 2934SOL    HW1 9380   6.523   0.182   4.503 -1.8182  0.5851 -1.4551
 2934SOL    HW2 9381   6.449   0.051   4.519  0.6228 -0.6422  0.6453
 2935SOL     OW 9382   2.432   6.546   8.142 -0.0330 -0.1081  0.1618
 2935SOL    HW1 9383   2.524   6.561   8.120 -0.0666 -0.0967  0.0275
 2935SOL    HW2 9384   2.432   6.460   8.184 -0.3296 -1.4337 -2.3454
 2936SOL     OW 9385   4.156   0.449   5.442 -0.2797  0.0121 -0.3846
 2936SOL    HW1 9386   4.202   0.397   5.509  0.6232  2.8410  1.3430
 2936SOL    HW2 9387   4.069   0.463   5.479 -0.1321  0.6800 -0.2810
 2937SOL     OW 9388   2.508   3.982   9.329  0.1400 -0.1938 -0.0672
 2937SOL    HW1 9389   2.583   4.012   9.379  2.0576 -2.2943 -1.4888
 2937SOL    HW2 9390   2.461   3.923   9.388 -1.9572  2.9608  1.6890
 2938SOL     OW 9391   8.198   3.437   0.422  0.5375  0.6332  0.0326
 2938SOL    HW1 9392   8.152   3.520   0.438  0.7337  1.0740 -1.5563
 2938SOL    HW2 9393   8.181   3.417   0.330  0.2159 -1.2892  0.4497
 2939SOL     OW 9394   9.449   7.909   2.737  0.2060 -0.0123 -0.2731
 2939SOL    HW1 9395   9.502   7.853   2.681 -0.8579  0.3341 -1.7040
 2939SOL    HW2 9396   9.381   7.943   2.679  0.6433  2.5499  0.5726
 2940SOL     OW 9397   7.803   1.166   3.427  0.3680 -0.4105  0.1640
 2940SOL    HW1 9398   7.757   1.082   3.420  1.4656 -1.2277  2.1445
 2940SOL    HW2 9399   7.890   1.149   3.392 -0.0896  0.5676 -1.5805
 2941SOL     OW 9400   5.557   0.382   5.423  0.0205 -0.4250  0.1616
 2941SOL    HW1 9401   5.631   0.408   5.477  0.3560 -0.1449 -0.4215
 2941SOL    HW2 9402   5.576   0.291   5.398  0.2545 -0.2952 -0.1326
 2942SOL     OW 9403   6.067   5.912   8.913  0.4854  0.1478  0.3828
 2942SOL    HW1 9404   6.027   5.845   8.969  1.7240 -0.3248  0.7322
 2942SOL    HW2 9405   6.069   5.873   8.826 -1.7591  1.0152 -0.1147
 2943SOL     OW 9406   2.902   7.581   2.600  0.0232 -0.3851 -0.1405
 2943SOL    HW1 9407   2.881   7.641   2.528  1.2129  0.9451  0.5597
 2943SOL    HW2 9408   2.840   7.604   2.670  0.8888  0.5134  0.3574
 2944SOL     OW 9409   0.548   9.594   7.591  0.2632 -0.6983 -0.0125
 2944SOL    HW1 9410   0.524   9.564   7.503 -1.7963  0.0229  0.2498
 2944SOL    HW2 9411   0.544   9.689   7.585 -1.0679 -0.6459  1.1104
 2945SOL     OW 9412   2.328   8.597   0.822  0.0218 -0.1368 -0.2738
 2945SOL    HW1 9413   2.246   8.576   0.867 -0.3305  2.8553  0.7191
 2945SOL    HW2 9414   2.391   8.534   0.856 -1.3147 -0.9331  0.8389
 2946SOL     OW 9415   2.508   2.636   1.709  0.3431 -0.0293 -0.9238
 2946SOL    HW1 9416   2.585   2.664   1.758 -0.2755  1.7631 -0.8930
 2946SOL    HW2 9417   2.509   2.690   1.630 -0.1343 -0.9852 -1.6063
 2947SOL     OW 9418   8.078   5.731   4.686 -0.6375 -0.5858 -0.2822
 2947SOL    HW1 9419   8.102   5.639   4.695  0.6209 -0.1596  1.0449
 2947SOL    HW2 9420   8.160   5.776   4.669 -0.9321  0.5219  1.0556
 2948SOL     OW 9421   8.361   9.223   2.932  0.0201 -0.1570  0.2769
 2948SOL    HW1 9422   8.390   9.289   2.869 -0.1470  0.4082  0.7867
 2948SOL    HW2 9423   8.266   9.219   2.920  0.0381 -0.3435  0.2073
 2949SOL     OW 9424   3.172   3.216   2.478  0.0751 -0.2021 -0.3297
 2949SOL    HW1 9425   3.162   3.178   2.565 -0.1066 -2.0214 -1.0899
 2949SOL    HW2 9426   3.245   3.278   2.487 -0.2441 -0.0082  1.2017
 2950SOL     OW 9427   1.440   7.510   7.113 -0.4250 -0.5431 -0.9557
 2950SOL    HW1 9428   1.449   7.418   7.089  0.5571 -0.5137 -0.7468
 2950SOL    HW2 9429   1.353   7.517   7.151  0.1278 -1.7658  0.6458
 2951SOL     OW 9430   6.347   0.838   1.517  0.1483  0.0123 -0.3766
 2951SOL    HW1 9431   6.299   0.909   1.559 -1.4616 -0.2357 -1.6981
 2951SOL    HW2 9432   6.407   0.806   1.585 -0.7052  1.1164  0.9544
 2952SOL     OW 9433   6.987   7.076   8.217  0.4819 -0.0168 -0.0368
 2952SOL    HW1 9434   6.916   7.099   8.157  0.2575 -3.4015 -1.2597
 2952SOL    HW2 9435   7.062   7.059   8.160  1.0897 -0.5573  0.8921
 2953SOL     OW 9436   0.353   6.302   7.406  0.3789  0.4779  0.4322
 2953SOL    HW1 9437   0.365   6.393   7.379 -0.8504  0.1463 -1.3897
 2953SOL    HW2 9438   0.297   6.308   7.484  0.7808  1.2859  0.6800
 2954SOL     OW 9439   8.658   1.260   1.272 -0.4381 -0.0159  0.0063
 2954SOL    HW1 9440   8.590   1.242   1.207 -1.1005  1.0401  0.3725
 2954SOL    HW2 9441   8.615   1.243   1.356  0.4469 -1.4890  0.1910
 2955SOL     OW 9442   8.378   5.742   1.789  0.4789 -0.2735 -0.0755
 2955SOL    HW1 9443   8.458   5.691   1.775  0.9710 -0.1051  1.9423
 2955SOL    HW2 9444   8.313   5.677   1.816  0.4469 -0.1606  0.1195
 2956SOL     OW 9445   7.615   5.116   3.931 -0.2350 -0.3372  0.5722
 2956SOL    HW1 9446   7.589   5.029   3.903 -3.3206  0.9271 -0.8983
 2956SOL    HW2 9447   7.544   5.173   3.903  1.7760  2.7382  1.2257
 2957SOL     OW 9448   3.609   5.858   6.641  0.2436 -0.1028 -0.2120
 2957SOL    HW1 9449   3.569   5.911   6.710 -0.2161  0.3800 -0.8493
 2957SOL    HW2 9450   3.553   5.781   6.634  0.6568 -0.4764  0.3933
 2958SOL     OW 9451   6.661   1.853   8.456  0.0870 -0.6263 -0.0830
 2958SOL    HW1 9452   6.570   1.877   8.477  0.3219  0.9678 -0.6851
 2958SOL    HW2 9453   6.675   1.770   8.501 -1.9398 -1.3542 -0.6731
 2959SOL     OW 9454   0.802   8.287   2.737 -0.3554  0.4492 -0.1706
 2959SOL    HW1 9455   0.734   8.284   2.804  1.0380  0.1579  1.2815
 2959SOL    HW2 9456   0.755   8.273   2.655 -1.8257 -1.5173  0.9233
 2960SOL     OW 9457   7.863   1.168   7.318  0.0283  0.0262 -0.4794
 2960SOL    HW1 9458   7.782   1.218   7.317  0.5590  1.0734  1.8657
 2960SOL    HW2 9459   7.858   1.116   7.399  1.5184 -0.1812 -0.4919
 2961SOL     OW 9460   9.831   7.434   7.775  0.0012  0.2050  0.0453
 2961SOL    HW1 9461   9.852   7.372   7.705  0.3853  1.4364 -0.9829
 2961SOL    HW2 9462   9.785   7.382   7.841  1.4076 -1.4245 -0.1903
 2962SOL     OW 9463   9.465   6.486   1.608  0.6826 -0.2924 -0.5016
 2962SOL    HW1 9464   9.484   6.531   1.526 -0.5310  0.9902 -0.1035
 2962SOL    HW2 9465   9.446   6.555   1.671  1.2651 -1.2613  0.8051
 2963SOL     OW 9466   9.558   9.038   1.254 -0.1667 -0.0642  0.5225
 2963SOL    HW1 9467   9.555   9.058   1.348  0.9258  1.1097  0.3316
 2963SOL    HW2 9468   9.625   8.970   1.246  2.0254  2.0287  0.2834
 2964SOL     OW 9469   1.291   7.811   4.432 -0.2814  0.2223 -0.6625
 2964SOL    HW1 9470   1.337   7.866   4.495 -0.5646  1.0267 -1.1371
 2964SOL    HW2 9471   1.202   7.805   4.466 -0.3218  0.2905 -0.7560
 2965SOL     OW 9472   2.581   2.359   8.329 -0.0758  0.5711  0.0707
 2965SOL    HW1 9473   2.618   2.446   8.318  0.5379  0.1931 -1.0031
 2965SOL    HW2 9474   2.576   2.323   8.240  1.6111 -1.2657  0.6328
 2966SOL     OW 9475   7.698   8.053   5.507 -0.7916  0.0239  0.3546
 2966SOL    HW1 9476   7.632   8.097   5.454 -1.8977 -0.3273  1.3845
 2966SOL    HW2 9477   7.655   7.974   5.538  0.2987 -0.4767  0.6418
 2967SOL     OW 9478   5.488   2.049   9.082  0.2704  0.2291  0.0425
 2967SOL    HW1 9479   5.533   1.965   9.089 -1.3045 -0.5512  1.1815
 2967SOL    HW2 9480   5.452   2.064   9.169  0.2666  1.9592 -0.2306
 2968SOL     OW 9481   0.850   5.746   4.492 -0.5294  0.0808  0.1028
 2968SOL    HW1 9482   0.802   5.792   4.560  1.0943 -0.9785  2.0882
 2968SOL    HW2 9483   0.813   5.778   4.410 -1.6945  2.3818  1.4314
 2969SOL     OW 9484   6.651   3.997   2.625 -0.9161  0.4654 -0.0194
 2969SOL    HW1 9485   6.712   4.047   2.678  1.4985 -0.3478 -1.8483
 2969SOL    HW2 9486   6.666   3.906   2.650 -0.7337  0.1898 -1.0714
 2970SOL     OW 9487   3.611   8.024   7.783  0.0415  0.2538  0.4694
 2970SOL    HW1 9488   3.670   8.071   7.724 -2.0699  0.0896 -1.9522
 2970SOL    HW2 9489   3.661   7.947   7.810  0.9256 -0.0058 -1.6646
 2971SOL     OW 9490   0.678   4.789   8.919 -0.1672  0.5651  0.1374
 2971SOL    HW1 9491   0.763   4.750   8.899  0.2160  1.2514  0.4389
 2971SOL    HW2 9492   0.624   4.715   8.948 -0.4278 -0.3201 -2.3471
 2972SOL     OW 9493   6.128   0.186   4.511  0.0962 -0.2834 -0.6990
 2972SOL    HW1 9494   6.180   0.237   4.573  0.3634 -0.9976 -0.3319
 2972SOL    HW2 9495   6.126   0.098   4.548  0.0674 -0.6637 -1.5931
 2973SOL     OW 9496   5.824   5.280   1.624  0.6917  0.2975  0.1494
 2973SOL    HW1 9497   5.902   5.290   1.678  0.0862 -0.3441  1.1933
 2973SOL    HW2 9498   5.754   5.260   1.687  0.0722 -1.0471 -0.9208
 2974SOL     OW 9499   3.055   5.845   5.733 -0.1950  0.0464  0.0812
 2974SOL    HW1 9500   3.102   5.918   5.692  1.4773 -1.5552 -0.9796
 2974SOL    HW2 9501   3.102   5.830   5.815  0.0309 -0.4065 -0.1287
 2975SOL     OW 9502   8.904   0.958   8.005 -0.1360 -0.5454  1.1380
 2975SOL    HW1 9503   8.847   0.889   7.972  0.3230 -0.3309 -0.1584
 2975SOL    HW2 9504   8.883   1.034   7.951  1.8618 -0.6525  0.1057
 2976SOL     OW 9505   9.503   7.022   2.383  0.4375 -0.2108  0.4880
 2976SOL    HW1 9506   9.533   7.078   2.312  1.8078 -0.9194  0.4817
 2976SOL    HW2 9507   9.569   7.032   2.451  0.3467 -1.2829  0.7507
 2977SOL     OW 9508   9.890   7.372   2.332  0.2798  0.0470 -0.2463
 2977SOL    HW1 9509   9.970   7.421   2.315  1.0183 -0.5114  1.4088
 2977SOL    HW2 9510   9.920   7.293   2.378 -1.0879 -0.8757 -0.8759
 2978SOL     OW 9511   7.353   9.694   2.148  0.4252 -0.0582 -0.2085
 2978SOL    HW1 9512   7.399   9.615   2.177 -0.2490 -0.6865 -0.8291
 2978SOL    HW2 9513   7.413   9.765   2.171  0.5959 -0.6477  1.2874
 2979SOL     OW 9514   2.981   4.046   0.986 -0.2710 -0.1994 -1.0211
 2979SOL    HW1 9515   2.923   3.975   1.013  0.2784 -0.0044  0.8239
 2979SOL    HW2 9516   3.053   4.002   0.942 -0.3099 -0.7388 -0.5684
 2980SOL     OW 9517   0.346   1.804   2.550 -0.2725  0.4611 -0.5656
 2980SOL    HW1 9518   0.389   1.740   2.494  0.0912 -3.1248  3.3038
 2980SOL    HW2 9519   0.362   1.888   2.507  4.1352 -1.3737 -3.2169
 2981SOL     OW 9520   7.012   8.539   3.285  0.4808 -0.1535 -0.5179
 2981SOL    HW1 9521   7.007   8.516   3.377 -4.3504  0.2303 -0.4465
 2981SOL    HW2 9522   7.052   8.462   3.243  0.5501 -1.3339  1.6049
 2982SOL     OW 9523   3.180   3.108   6.516  0.2105 -0.1667  0.2973
 2982SOL    HW1 9524   3.197   3.108   6.610  1.6033 -1.2851  0.0892
 2982SOL    HW2 9525   3.267   3.102   6.476 -0.3082  0.9501 -1.0958
 2983SOL     OW 9526   3.606   5.254   5.856 -0.1110 -0.2959  0.1056
 2983SOL    HW1 9527   3.695   5.224   5.878  0.6589  0.7084 -1.4598
 2983SOL    HW2 9528   3.552   5.220   5.927  1.2377 -2.4093  0.2318
 2984SOL     OW 9529   7.091   8.643   1.099 -0.4100 -0.0335 -0.1467
 2984SOL    HW1 9530   7.095   8.738   1.111  1.2518  0.0876 -1.2287
 2984SOL    HW2 9531   7.076   8.632   1.005  0.0575 -0.8253 -0.1364
 2985SOL     OW 9532   2.502   7.328   9.926  0.4580 -0.0719  0.5062
 2985SOL    HW1 9533   2.531   7.250   9.973 -0.3546  1.1390  3.2387
 2985SOL    HW2 9534   2.534   7.316   9.836  0.4998 -3.4151  0.8550
 2986SOL     OW 9535   7.796   2.521   7.055  0.0793  0.3762  0.3156
 2986SOL    HW1 9536   7.777   2.429   7.077  2.1453 -0.0036  0.7905
 2986SOL    HW2 9537   7.889   2.521   7.033  0.4339  2.5573  1.4899
 2987SOL     OW 9538   8.267   6.898   8.521 -0.1882  0.3905  0.7702
 2987SOL    HW1 9539   8.224   6.982   8.506 -2.1872 -0.9014 -1.5593
 2987SOL    HW2 9540   8.196   6.838   8.543  0.4840 -1.5225 -1.7375
 2988SOL     OW 9541   5.595   3.427   6.502  0.0252 -0.2696 -0.0868
 2988SOL    HW1 9542   5.610   3.466   6.416  0.8101 -0.2849  0.0415
 2988SOL    HW2 9543   5.682   3.412   6.538 -0.2778 -1.1878  0.3024
 2989SOL     OW 9544   1.158   7.672   8.317 -0.4563  0.0631 -0.5452
 2989SOL    HW1 9545   1.182   7.721   8.396  0.4172  0.6777 -1.1732
 2989SOL    HW2 9546   1.070   7.640   8.335 -0.5431  0.7732  0.4039
 2990SOL     OW 9547   5.822   7.413   9.350  0.5449  0.3298  0.4491
 2990SOL    HW1 9548   5.892   7.444   9.292  1.4828  0.0140  1.4004
 2990SOL    HW2 9549   5.792   7.332   9.310  0.2212  0.8291 -0.3486
 2991SOL     OW 9550   3.079   0.252   3.314 -0.7477 -0.2850  0.3958
 2991SOL    HW1 9551   3.027   0.222   3.239  1.8817 -1.8009 -0.9671
 2991SOL    HW2 9552   3.109   0.339   3.289  1.7124 -1.5267 -1.3309
 2992SOL     OW 9553   0.224   7.847   2.463  0.4604  0.0051  0.1169
 2992SOL    HW1 9554   0.183   7.916   2.515  2.2195  0.7937  0.5328
 2992SOL    HW2 9555   0.284   7.803   2.524  0.3864 -0.9918 -0.5006
 2993SOL     OW 9556   5.936   7.485   3.819  0.0761  0.3661 -0.2652
 2993SOL    HW1 9557   6.017   7.489   3.768  0.2081 -1.4837 -0.2417
 2993SOL    HW2 9558   5.963   7.455   3.905 -0.7697 -1.5740 -0.6384
 2994SOL     OW 9559   5.681   5.965   4.588 -0.5011  0.4620  0.6126
 2994SOL    HW1 9560   5.611   5.903   4.608 -1.0123  1.0944  0.8122
 2994SOL    HW2 9561   5.636   6.046   4.563  0.1473  0.5861 -0.2133
 2995SOL     OW 9562   5.681   8.563   7.309 -0.3943  0.2197 -0.3261
 2995SOL    HW1 9563   5.627   8.554   7.231  0.4513  0.0091 -0.9024
 2995SOL    HW2 9564   5.764   8.599   7.277  0.4485 -1.1269  0.2611
 2996SOL     OW 9565   4.282   0.656   5.638 -0.2269  0.0124  0.6960
 2996SOL    HW1 9566   4.319   0.648   5.550 -0.0507 -1.5365  0.8907
 2996SOL    HW2 9567   4.190   0.674   5.623 -0.3848 -1.1357  0.1642
 2997SOL     OW 9568   8.949   8.016   6.115  0.2240 -0.2867  0.2471
 2997SOL    HW1 9569   8.912   7.961   6.184 -0.3770 -0.4604 -0.1938
 2997SOL    HW2 9570   8.971   8.098   6.158  0.8916 -0.7830  0.8654
 2998SOL     OW 9571   3.802   9.288   7.547 -0.5587 -0.4392  0.4332
 2998SOL    HW1 9572   3.785   9.298   7.641 -0.5051 -2.0545  0.6479
 2998SOL    HW2 9573   3.801   9.193   7.533  1.5993 -0.3329 -0.8088
 2999SOL     OW 9574   8.779   5.220   4.814  0.0302  0.0831 -0.3040
 2999SOL    HW1 9575   8.830   5.163   4.757  0.5852  1.3869 -1.1709
 2999SOL    HW2 9576   8.750   5.291   4.758 -0.3029  0.8663  0.8106
 3000SOL     OW 9577   8.003   3.110   4.752  0.4996 -0.3945 -0.4764
 3000SOL    HW1 9578   7.932   3.052   4.726 -0.2583 -0.0555  0.7177
 3000SOL    HW2 9579   8.065   3.054   4.799 -0.4865 -0.1945  1.1360
 3001SOL     OW 9580   4.414   4.139   4.329 -0.1060  0.3869 -0.3167
 3001SOL    HW1 9581   4.326   4.156   4.295 -0.1014 -1.0048 -1.1487
 3001SOL    HW2 9582   4.413   4.171   4.419 -1.2004  1.1255 -0.5772
 3002SOL     OW 9583   3.115   6.983   0.668  0.1466 -0.1954 -0.0800
 3002SOL    HW1 9584   3.158   7.040   0.605  1.0623 -0.7924 -0.0193
 3002SOL    HW2 9585   3.043   6.943   0.619 -0.6999  1.2146 -0.0320
 3003SOL     OW 9586   3.511   5.618   4.122  0.0447  0.3573  0.3536
 3003SOL    HW1 9587   3.464   5.535   4.130  2.2318 -1.0969 -0.6386
 3003SOL    HW2 9588   3.460   5.669   4.060 -2.5996  0.7958  2.7041
 3004SOL     OW 9589   5.545   2.050   6.669  0.2073 -0.7564  0.7878
 3004SOL    HW1 9590   5.559   2.108   6.594 -0.9948 -1.4102  0.0224
 3004SOL    HW2 9591   5.458   2.013   6.655  0.3640 -1.6514  2.0021
 3005SOL     OW 9592   0.545   9.411   3.450 -0.1806 -0.0253  0.5996
 3005SOL    HW1 9593   0.522   9.423   3.542  1.2867  0.8978  0.8818
 3005SOL    HW2 9594   0.543   9.500   3.413  1.0764 -0.1306  0.2243
 3006SOL     OW 9595   1.952   1.975   8.486  0.5116  0.2237  0.5849
 3006SOL    HW1 9596   1.871   1.993   8.533  0.9583 -0.1634  1.5378
 3006SOL    HW2 9597   1.950   1.881   8.468 -0.2483  0.5635 -1.3628
 3007SOL     OW 9598   7.294   5.831   5.068  0.6221  0.3868 -0.3236
 3007SOL    HW1 9599   7.310   5.740   5.094 -0.0771 -0.8555 -3.7248
 3007SOL    HW2 9600   7.382   5.869   5.063  1.1132 -0.7507 -0.8786
 3008SOL     OW 9601   0.223   4.248   5.215  0.2334 -0.2898  0.1770
 3008SOL    HW1 9602   0.220   4.246   5.120  0.6452  0.1202  0.1501
 3008SOL    HW2 9603   0.316   4.251   5.236  0.1317  1.7086  0.5251
 3009SOL     OW 9604   9.440   9.651   0.099  0.0291  0.6246  0.2836
 3009SOL    HW1 9605   9.347   9.638   0.115  0.0344 -0.8715 -0.7028
 3009SOL    HW2 9606   9.477   9.674   0.184 -0.7657 -1.7595  1.3282
 3010SOL     OW 9607   0.097   2.459   5.890  0.1135 -0.1902 -0.0489
 3010SOL    HW1 9608   0.011   2.454   5.932  0.8939 -0.9308  1.5633
 3010SOL    HW2 9609   0.113   2.370   5.858 -0.0289  0.1313 -1.0560
 3011SOL     OW 9610   6.573   4.145   9.504  0.7197 -0.5687 -0.0244
 3011SOL    HW1 9611   6.608   4.062   9.471 -0.6721 -0.1890 -2.7739
 3011SOL    HW2 9612   6.492   4.158   9.454 -0.0354  1.5843  1.6152
 3012SOL     OW 9613   7.575   9.496   5.306 -0.5954  0.1212 -0.2086
 3012SOL    HW1 9614   7.580   9.590   5.323  0.2575 -0.3116  2.3002
 3012SOL    HW2 9615   7.499   9.466   5.357 -0.1755 -0.7157 -0.0515
 3013SOL     OW 9616   2.302   4.726   0.835 -0.3371 -0.5746  0.3101
 3013SOL    HW1 9617   2.255   4.743   0.917  1.0626 -2.0539  1.5065
 3013SOL    HW2 9618   2.243   4.669   0.786 -1.4680  0.8488 -0.0315
 3014SOL     OW 9619   0.764   0.542   8.886  0.4954 -0.4544  0.0392
 3014SOL    HW1 9620   0.735   0.450   8.888 -0.5843 -0.1152  1.2547
 3014SOL    HW2 9621   0.721   0.578   8.809 -1.3205 -0.3111  1.0662
 3015SOL     OW 9622   4.711   6.410   8.167 -0.2458 -0.6004 -0.1744
 3015SOL    HW1 9623   4.706   6.315   8.164 -0.3099 -0.5708 -1.3125
 3015SOL    HW2 9624   4.626   6.437   8.203 -0.6355 -0.9405 -0.8158
 3016SOL     OW 9625   1.272   5.221   6.927  0.3341  0.6880  0.2223
 3016SOL    HW1 9626   1.239   5.197   6.841 -0.3696  1.0842  0.3704
 3016SOL    HW2 9627   1.315   5.142   6.959 -0.6860  0.0713  0.1110
 3017SOL     OW 9628   5.422   2.215   7.750  0.1140 -0.3860  0.4867
 3017SOL    HW1 9629   5.436   2.121   7.741 -0.1034 -0.2463 -2.2893
 3017SOL    HW2 9630   5.421   2.248   7.660 -1.1671  2.0844  1.2990
 3018SOL     OW 9631   9.782   5.249   2.758 -1.1719 -0.2310 -0.4062
 3018SOL    HW1 9632   9.764   5.315   2.691  1.0312 -1.4268 -2.3163
 3018SOL    HW2 9633   9.823   5.298   2.829 -0.0375  0.5901 -1.5709
 3019SOL     OW 9634   2.398   7.038   4.604 -0.4642 -0.5638 -0.2186
 3019SOL    HW1 9635   2.493   7.021   4.608  0.2487  2.8235  0.3076
 3019SOL    HW2 9636   2.377   7.077   4.689 -1.6498  1.4408 -1.3573
 3020SOL     OW 9637   7.239   0.798   8.625  0.6544 -0.0823  0.7445
 3020SOL    HW1 9638   7.314   0.763   8.674  0.6751 -0.0458  0.7381
 3020SOL    HW2 9639   7.164   0.781   8.681  0.8053  0.9192  1.2851
 3021SOL     OW 9640   7.734   1.241   6.689  0.2640  0.0098 -0.0890
 3021SOL    HW1 9641   7.686   1.258   6.769 -1.6834  1.0737 -1.4120
 3021SOL    HW2 9642   7.778   1.157   6.705 -2.1976 -1.1616  1.1591
 3022SOL     OW 9643   1.105   4.486   5.996  0.7917  0.1733 -0.0360
 3022SOL    HW1 9644   1.165   4.483   6.070  1.2757  0.5887 -0.4056
 3022SOL    HW2 9645   1.073   4.396   5.987 -0.5570  0.4137  1.7039
 3023SOL     OW 9646   8.616   1.750   9.893 -0.0379 -0.3545 -0.3344
 3023SOL    HW1 9647   8.650   1.750   9.803 -1.4607  0.4696 -0.9095
 3023SOL    HW2 9648   8.521   1.757   9.883 -0.1198  2.3718  1.2216
 3024SOL     OW 9649   5.833   2.739   5.119 -0.6479 -0.2423  0.4427
 3024SOL    HW1 9650   5.900   2.681   5.153  0.7524  1.3233  0.4908
 3024SOL    HW2 9651   5.783   2.766   5.196  0.3634  0.6424  0.8052
 3025SOL     OW 9652   0.773   6.226   0.793  0.0312  0.1614 -0.2956
 3025SOL    HW1 9653   0.813   6.219   0.880  0.4362  0.0307 -0.4882
 3025SOL    HW2 9654   0.743   6.316   0.788  2.6452  1.0894 -1.1265
 3026SOL     OW 9655   1.230   1.730   8.829  0.2516 -0.1784  0.3241
 3026SOL    HW1 9656   1.250   1.817   8.864  1.2150  0.6234 -2.0428
 3026SOL    HW2 9657   1.304   1.676   8.856  1.0533  0.4592 -0.5424
 3027SOL     OW 9658   4.909   5.123   6.039  0.1570  0.1335  0.1105
 3027SOL    HW1 9659   4.858   5.050   6.004  1.5080 -1.2254  0.8374
 3027SOL    HW2 9660   4.912   5.187   5.969 -1.3007 -0.3915 -0.4518
 3028SOL     OW 9661   6.968   2.937   1.321  0.5139  0.2839  0.0548
 3028SOL    HW1 9662   6.906   2.890   1.377 -0.5176  1.5952  0.0419
 3028SOL    HW2 9663   6.990   3.016   1.370  1.4736  0.2919 -0.3584
 3029SOL     OW 9664   2.320   9.109   5.229  0.6369 -0.3255 -0.1174
 3029SOL    HW1 9665   2.362   9.023   5.226  1.7764  0.2353 -0.7408
 3029SOL    HW2 9666   2.354   9.150   5.309  0.4570 -0.2743 -0.0667
 3030SOL     OW 9667   8.257   2.749   4.209 -0.5221  0.2201  0.1319
 3030SOL    HW1 9668   8.180   2.734   4.155 -0.6139 -1.8736  0.7313
 3030SOL    HW2 9669   8.328   2.704   4.161  0.5129  2.5830 -0.7032
 3031SOL     OW 9670   7.755   6.193   6.471 -0.2663  0.0561 -0.5867
 3031SOL    HW1 9671   7.703   6.182   6.391 -1.3370  0.6759  0.0159
 3031SOL    HW2 9672   7.783   6.285   6.468 -0.2263  0.0520 -0.2890
 3032SOL     OW 9673   6.312   9.737   3.351  0.4574 -0.4597  0.1829
 3032SOL    HW1 9674   6.217   9.747   3.345  0.2153 -2.6954 -0.4256
 3032SOL    HW2 9675   6.335   9.781   3.433 -0.6963  2.4044 -0.9067
 3033SOL     OW 9676   7.669   1.466   3.693 -0.3169 -0.3363 -0.4371
 3033SOL    HW1 9677   7.762   1.487   3.682 -0.1020 -0.2369  1.3366
 3033SOL    HW2 9678   7.624   1.550   3.682  0.1140  0.2526  1.7730
 3034SOL     OW 9679   4.386   6.849   5.168 -0.0028 -0.3141  0.0295
 3034SOL    HW1 9680   4.377   6.928   5.115  1.0660  0.6623  1.2399
 3034SOL    HW2 9681   4.409   6.880   5.255 -0.1761 -1.9419  0.7008
 3035SOL     OW 9682   8.313   5.247   3.779 -0.5540 -0.1744 -0.1120
 3035SOL    HW1 9683   8.285   5.235   3.688  0.5045 -0.0688 -0.4682
 3035SOL    HW2 9684   8.231   5.256   3.828 -1.3113 -3.0770 -0.6214
 3036SOL     OW 9685   2.248   7.566   9.966  0.0145  0.0647 -0.0624
 3036SOL    HW1 9686   2.174   7.512   9.994  1.4796 -1.8091  0.3666
 3036SOL    HW2 9687   2.291   7.515   9.897  1.8994  0.2999  0.8822
 3037SOL     OW 9688   4.025   0.152   0.874  0.1324  0.0698  0.2352
 3037SOL    HW1 9689   4.111   0.112   0.862 -0.6148 -2.3372  2.0746
 3037SOL    HW2 9690   4.040   0.223   0.936  0.7761 -0.5008  0.7470
 3038SOL     OW 9691   6.194   7.898   6.141 -0.0174  0.3130 -0.1964
 3038SOL    HW1 9692   6.247   7.923   6.065 -0.7539 -0.2034 -0.8930
 3038SOL    HW2 9693   6.224   7.810   6.164 -0.9603 -0.2357 -0.9762
 3039SOL     OW 9694   8.320   5.179   9.101 -0.2369  0.2405 -0.6604
 3039SOL    HW1 9695   8.242   5.167   9.048 -0.5902  0.5182 -0.2111
 3039SOL    HW2 9696   8.364   5.255   9.062 -0.6891  0.6739 -0.3245
 3040SOL     OW 9697   0.958   9.082   9.317 -0.6871  0.3676  0.3087
 3040SOL    HW1 9698   0.996   9.043   9.238 -1.7094 -0.2697  0.1150
 3040SOL    HW2 9699   0.890   9.020   9.344 -1.1894  1.1925  0.9807
 3041SOL     OW 9700   0.916   6.420   6.772 -0.1060  0.7518  0.3254
 3041SOL    HW1 9701   0.956   6.381   6.694 -0.0229 -0.7318  1.0876
 3041SOL    HW2 9702   0.862   6.492   6.737  0.2550  0.3934 -1.0531
 3042SOL     OW 9703   1.524   5.030   7.658 -0.1284 -0.1688  0.8062
 3042SOL    HW1 9704   1.556   4.999   7.743 -1.3090 -1.1221  0.9197
 3042SOL    HW2 9705   1.541   4.957   7.598 -1.0468 -0.2493  0.6363
 3043SOL     OW 9706   9.653   7.886   6.128  0.4181 -0.2643 -0.4698
 3043SOL    HW1 9707   9.719   7.954   6.139 -0.3948  0.7415 -1.5920
 3043SOL    HW2 9708   9.573   7.926   6.162 -0.4676  0.0766 -2.7850
 3044SOL     OW 9709   4.715   4.166   4.323  0.5124  0.6139 -0.2396
 3044SOL    HW1 9710   4.776   4.098   4.351 -0.4827 -0.4831 -0.6126
 3044SOL    HW2 9711   4.630   4.137   4.359  0.2353  2.2097  0.4762
 3045SOL     OW 9712   0.876   1.135   3.279 -0.3604  0.3617  0.2709
 3045SOL    HW1 9713   0.851   1.227   3.270 -1.0617  0.1863  0.3600
 3045SOL    HW2 9714   0.951   1.137   3.338 -0.8858  0.8216  0.9570
 3046SOL     OW 9715   5.424   7.782   4.015  0.3937  0.0675 -0.3005
 3046SOL    HW1 9716   5.402   7.697   4.052 -0.3306  0.8824  1.2715
 3046SOL    HW2 9717   5.466   7.763   3.932  0.7317 -1.8318  0.2678
 3047SOL     OW 9718   8.145   7.652   7.258 -0.0535  0.0178  0.2187
 3047SOL    HW1 9719   8.182   7.712   7.322 -1.7016  2.7297 -1.1968
 3047SOL    HW2 9720   8.091   7.707   7.201 -0.7571 -2.6431 -1.9219
 3048SOL     OW 9721   0.316   5.321   7.393 -0.6113  0.5519  0.1733
 3048SOL    HW1 9722   0.392   5.285   7.347  0.0854 -0.3129  1.9108
 3048SOL    HW2 9723   0.297   5.403   7.347 -0.7774 -0.8398 -2.4346
 3049SOL     OW 9724   2.673   9.152   2.102 -0.8034 -0.3721  0.8716
 3049SOL    HW1 9725   2.693   9.079   2.160 -0.6264  0.0288  1.3241
 3049SOL    HW2 9726   2.745   9.214   2.115 -0.2205 -0.7028 -0.5268
 3050SOL     OW 9727   3.417   9.990   0.079  0.2788  0.3674 -0.2243
 3050SOL    HW1 9728   3.435   9.900   0.105  0.0479  0.7922  1.5194
 3050SOL    HW2 9729   3.328  10.006   0.110  0.3308  1.2101 -0.4920
 3051SOL     OW 9730   0.244   9.663   2.933 -0.2427  0.6157 -0.0537
 3051SOL    HW1 9731   0.340   9.661   2.942 -0.2816  0.6418  0.3755
 3051SOL    HW2 9732   0.229   9.703   2.847  0.1365  0.4186 -0.2122
 3052SOL     OW 9733   5.009   5.773   9.003 -0.1110 -0.5438  0.5019
 3052SOL    HW1 9734   4.953   5.717   9.056 -2.7866  0.6984 -0.7873
 3052SOL    HW2 9735   4.965   5.858   9.003  1.6657  0.4477 -0.8253
 3053SOL     OW 9736   2.875   8.695   1.141  0.2043  0.4488  0.2630
 3053SOL    HW1 9737   2.842   8.759   1.205 -0.2038  0.3388  0.1610
 3053SOL    HW2 9738   2.944   8.742   1.095  1.0238  0.2879  1.2937
 3054SOL     OW 9739   8.660   1.637   1.846  0.0435 -0.2974  0.3009
 3054SOL    HW1 9740   8.624   1.555   1.813  0.1971 -0.4067  0.4040
 3054SOL    HW2 9741   8.701   1.613   1.929 -1.3897  0.1859  1.1799
 3055SOL     OW 9742   9.796   7.104   1.250 -0.5371 -0.0270 -0.7128
 3055SOL    HW1 9743   9.725   7.071   1.305  0.2004 -0.4578  0.0050
 3055SOL    HW2 9744   9.770   7.081   1.161 -1.4138  0.0505 -0.4859
 3056SOL     OW 9745   7.704   4.759   0.134 -0.9133  0.8040 -0.4485
 3056SOL    HW1 9746   7.712   4.667   0.109 -1.6577  0.6275 -0.0708
 3056SOL    HW2 9747   7.616   4.766   0.172 -0.3089  1.3245  0.9376
 3057SOL     OW 9748   6.328   4.366   9.057  0.3367 -0.4851 -0.0267
 3057SOL    HW1 9749   6.234   4.362   9.040  0.6289 -1.2125 -1.5525
 3057SOL    HW2 9750   6.362   4.428   8.993  1.0180 -0.8420 -0.0248
 3058SOL     OW 9751   1.322   7.341   8.716  0.0509 -0.0007  0.5440
 3058SOL    HW1 9752   1.358   7.317   8.801  1.1061  1.6740  0.6183
 3058SOL    HW2 9753   1.309   7.435   8.721  1.0654  0.3038 -1.4664
 3059SOL     OW 9754   7.620   0.828   7.842  0.2818  0.0601  0.8374
 3059SOL    HW1 9755   7.540   0.776   7.839  1.5665 -1.9988 -1.4294
 3059SOL    HW2 9756   7.672   0.789   7.912  1.1291 -1.7239 -0.6827
 3060SOL     OW 9757   9.033   6.632   8.789 -0.0055 -0.3423 -0.3089
 3060SOL    HW1 9758   9.069   6.706   8.739  2.1545 -1.7475 -0.9374
 3060SOL    HW2 9759   8.998   6.573   8.722  0.4364 -0.9730  0.0056
 3061SOL     OW 9760   5.356   1.381   2.756 -0.5072  0.1462  0.3251
 3061SOL    HW1 9761   5.380   1.474   2.759 -1.2662  0.3295  1.6603
 3061SOL    HW2 9762   5.337   1.359   2.847 -0.0176 -1.4220  0.0790
 3062SOL     OW 9763   2.625   8.440   7.459  0.1992  0.2231 -0.1668
 3062SOL    HW1 9764   2.673   8.359   7.479 -0.6453 -0.0034  1.0318
 3062SOL    HW2 9765   2.599   8.431   7.367 -0.3459 -1.1231  0.1006
 3063SOL     OW 9766   6.663   1.855   7.935  0.0341 -0.0100 -0.3366
 3063SOL    HW1 9767   6.608   1.799   7.991  0.4071 -2.0643 -1.9145
 3063SOL    HW2 9768   6.704   1.917   7.996 -0.4787 -1.4050  1.5084
 3064SOL     OW 9769   4.545   1.464   0.947 -0.0230 -0.0271 -0.2164
 3064SOL    HW1 9770   4.497   1.505   1.019 -0.5086  0.7961 -0.9888
 3064SOL    HW2 9771   4.535   1.370   0.963 -1.1391  0.1324  0.1338
 3065SOL     OW 9772   1.996   2.549   0.577  0.4807 -0.2751 -0.5711
 3065SOL    HW1 9773   2.057   2.489   0.620 -3.0464 -3.7302  0.1829
 3065SOL    HW2 9774   2.027   2.554   0.486  1.6009 -2.2918 -0.3458
 3066SOL     OW 9775   3.240   5.658   2.820 -0.1588 -0.2304  0.4765
 3066SOL    HW1 9776   3.153   5.635   2.789 -0.0304  0.6442 -0.5733
 3066SOL    HW2 9777   3.296   5.650   2.743  1.0261 -2.3113  1.4401
 3067SOL     OW 9778   4.919   0.249   1.503  0.3294  0.1881  0.0348
 3067SOL    HW1 9779   4.864   0.246   1.425 -0.9849  0.4776  0.9207
 3067SOL    HW2 9780   5.007   0.261   1.469 -0.0478 -0.8682 -1.4594
 3068SOL     OW 9781   3.419   9.757   0.224  0.3576 -0.0374  0.1857
 3068SOL    HW1 9782   3.346   9.708   0.187 -0.7390  1.7346 -0.1030
 3068SOL    HW2 9783   3.439   9.711   0.306 -1.7171 -0.0272  0.7500
 3069SOL     OW 9784   3.936   9.488   4.299  0.2886 -0.5384 -0.1640
 3069SOL    HW1 9785   3.978   9.478   4.384  0.8963  0.0068 -0.3960
 3069SOL    HW2 9786   3.980   9.562   4.258  0.7358 -1.4442 -1.3938
 3070SOL     OW 9787   3.456   6.127   0.985  0.0725  0.3832 -0.2149
 3070SOL    HW1 9788   3.489   6.115   1.075 -1.7766  1.1675  0.6149
 3070SOL    HW2 9789   3.444   6.038   0.952 -0.5169  0.0599  0.8290
 3071SOL     OW 9790   3.455   5.281   6.217 -0.1511  0.0109  0.6038
 3071SOL    HW1 9791   3.510   5.215   6.176 -0.3011  0.3224 -0.1158
 3071SOL    HW2 9792   3.365   5.248   6.207 -0.1891  0.1008  0.6464
 3072SOL     OW 9793   2.079   0.885   0.058  0.4331  0.3274  0.0361
 3072SOL    HW1 9794   2.031   0.912   0.135 -0.4679 -0.1642 -0.3435
 3072SOL    HW2 9795   2.026   0.914  -0.016  0.4736 -0.6188 -0.3865
 3073SOL     OW 9796   2.000   6.254   7.201  0.3254  0.5060  0.6696
 3073SOL    HW1 9797   1.966   6.326   7.254  0.9090  1.1891  0.1272
 3073SOL    HW2 9798   1.986   6.281   7.111 -2.3654 -1.4534  0.3828
 3074SOL     OW 9799   2.138   4.684   6.984 -0.4647 -0.1169 -0.0405
 3074SOL    HW1 9800   2.046   4.706   6.992 -0.5809  0.0265 -1.6235
 3074SOL    HW2 9801   2.140   4.609   6.924  0.6359  1.9098 -2.7383
 3075SOL     OW 9802   6.344   3.374   9.165 -0.1609 -0.0041 -0.2619
 3075SOL    HW1 9803   6.282   3.398   9.097  1.1962  2.0691 -0.8903
 3075SOL    HW2 9804   6.294   3.378   9.246 -1.0931  0.5401 -0.8508
 3076SOL     OW 9805   2.282   7.477   6.949 -0.3285  0.4097 -0.4942
 3076SOL    HW1 9806   2.282   7.527   7.031 -0.5492 -0.6617  0.1845
 3076SOL    HW2 9807   2.260   7.388   6.976 -0.8151  0.1185 -1.7792
 3077SOL     OW 9808   9.086   6.072   1.087 -0.0205  0.1317 -0.0609
 3077SOL    HW1 9809   9.139   6.003   1.047  0.3099  1.0970 -1.3596
 3077SOL    HW2 9810   9.024   6.025   1.142  1.0021 -1.1272  0.0753
 3078SOL     OW 9811   1.311   4.882   4.992  0.4478  0.3842 -0.0839
 3078SOL    HW1 9812   1.400   4.888   5.026  0.4646 -0.9764  0.1633
 3078SOL    HW2 9813   1.318   4.825   4.916  0.1784  2.2936 -1.6329
 3079SOL     OW 9814   2.506   2.929   1.575  0.7569  0.3711  0.2079
 3079SOL    HW1 9815   2.528   2.913   1.667  0.8654  1.9843  0.4900
 3079SOL    HW2 9816   2.583   2.899   1.527  1.1551  0.5222  0.7321
 3080SOL     OW 9817   2.512   9.528   9.590 -0.4316  0.4873 -0.3169
 3080SOL    HW1 9818   2.432   9.565   9.628  0.4318  0.7959  1.2935
 3080SOL    HW2 9819   2.581   9.590   9.614  0.4078 -0.1124 -1.0970
 3081SOL     OW 9820   6.452   4.646   6.844 -0.4332 -0.6439  1.1478
 3081SOL    HW1 9821   6.405   4.674   6.923 -0.5217  1.8005  0.3030
 3081SOL    HW2 9822   6.446   4.720   6.785  0.5561 -2.0213 -0.7795
 3082SOL     OW 9823   6.917   2.215   0.772  0.0012  0.0455 -0.3419
 3082SOL    HW1 9824   6.843   2.174   0.817  1.3156  0.8462  2.8002
 3082SOL    HW2 9825   6.990   2.155   0.787  0.5362  0.4256 -1.3563
 3083SOL     OW 9826   3.667   7.229   8.619 -0.2758 -0.0422 -0.7648
 3083SOL    HW1 9827   3.713   7.179   8.686  0.9780  1.0387 -0.7849
 3083SOL    HW2 9828   3.705   7.200   8.536 -0.9430 -0.4637 -0.9385
 3084SOL     OW 9829   4.166   8.489   3.235 -0.2382 -0.1913 -0.2961
 3084SOL    HW1 9830   4.174   8.413   3.177  0.7848  0.4215 -1.0139
 3084SOL    HW2 9831   4.182   8.564   3.177 -1.7220  0.6207  0.2917
 3085SOL     OW 9832   2.402   1.631   0.050  0.4245  0.0243  0.1583
 3085SOL    HW1 9833   2.410   1.658  -0.042  0.6965  0.7434  0.3845
 3085SOL    HW2 9834   2.439   1.543   0.052  0.7361  0.1374 -0.3579
 3086SOL     OW 9835   7.563   4.359   6.299  0.2226 -0.6786  0.2443
 3086SOL    HW1 9836   7.476   4.384   6.332 -0.3653 -1.1643 -0.8773
 3086SOL    HW2 9837   7.622   4.425   6.334 -0.6616 -0.1295  0.7288
 3087SOL     OW 9838   9.448   1.429   5.845 -0.5817  0.2089 -0.2852
 3087SOL    HW1 9839   9.502   1.400   5.919 -0.9646  0.0655 -0.0563
 3087SOL    HW2 9840   9.511   1.456   5.779 -0.2246 -0.2140 -0.1281
 3088SOL     OW 9841   9.278   2.454   9.018  0.2919 -0.3055 -0.1155
 3088SOL    HW1 9842   9.328   2.493   8.946  0.7225 -0.0685  0.3108
 3088SOL    HW2 9843   9.343   2.435   9.085 -0.0466 -0.9437  0.0377
 3089SOL     OW 9844   1.431   8.289   1.883  0.4195 -0.2485 -0.1791
 3089SOL    HW1 9845   1.336   8.301   1.890 -0.0783 -2.8324 -1.1667
 3089SOL    HW2 9846   1.466   8.377   1.874 -1.9485  0.7426 -0.5131
 3090SOL     OW 9847   0.627   6.203   1.386 -0.7628  1.0283 -0.1004
 3090SOL    HW1 9848   0.607   6.133   1.324  0.1665  2.6528 -2.3901
 3090SOL    HW2 9849   0.542   6.237   1.414 -1.2069 -0.6843  0.7245
 3091SOL     OW 9850   8.670   6.039   7.455 -0.3727 -0.0951  0.5505
 3091SOL    HW1 9851   8.665   6.101   7.383  2.6634 -1.1587 -0.7275
 3091SOL    HW2 9852   8.764   6.019   7.464 -0.8446 -1.6637  3.3693
 3092SOL     OW 9853   1.796   6.730   2.185  0.2952  0.2625  0.4116
 3092SOL    HW1 9854   1.727   6.734   2.119 -2.1467  0.2878  2.7681
 3092SOL    HW2 9855   1.813   6.636   2.195 -0.0916  0.1958  0.4656
 3093SOL     OW 9856   9.685   5.930   7.569 -0.0638 -0.0530 -0.1486
 3093SOL    HW1 9857   9.765   5.956   7.615  0.2978  1.3845 -1.4782
 3093SOL    HW2 9858   9.714   5.871   7.500 -0.1181  0.4854 -0.6459
 3094SOL     OW 9859   3.102   5.168   1.135 -0.0266  0.7210  0.0979
 3094SOL    HW1 9860   3.156   5.240   1.102  0.8418 -0.1389 -0.4131
 3094SOL    HW2 9861   3.013   5.202   1.131  0.3543  1.7437 -0.1967
 3095SOL     OW 9862   0.421   8.589   7.093  0.2100 -0.1842  0.1419
 3095SOL    HW1 9863   0.428   8.608   7.186  0.1423  2.1218 -0.2622
 3095SOL    HW2 9864   0.460   8.665   7.050  0.2332 -1.1890 -1.7287
 3096SOL     OW 9865   0.800   2.360   4.240 -0.2093 -0.1524 -0.0620
 3096SOL    HW1 9866   0.808   2.440   4.187 -0.0357 -0.1327 -0.0056
 3096SOL    HW2 9867   0.888   2.345   4.275 -0.0896 -0.7496 -0.6161
 3097SOL     OW 9868   9.611   3.144   3.122  0.1473 -0.2280 -0.2326
 3097SOL    HW1 9869   9.566   3.209   3.069  0.4282 -0.5315 -0.8594
 3097SOL    HW2 9870   9.558   3.136   3.201 -0.1599  0.3913 -0.3742
 3098SOL     OW 9871   7.338   9.008   7.175 -0.2198 -0.0435 -0.1264
 3098SOL    HW1 9872   7.407   9.036   7.114 -0.1551 -0.2261 -0.1384
 3098SOL    HW2 9873   7.299   8.931   7.133 -1.7301  1.1611 -1.0670
 3099SOL     OW 9874   0.534   7.734   8.067 -0.4100  0.6267  0.3456
 3099SOL    HW1 9875   0.507   7.770   7.983 -0.3521  0.8083  0.4046
 3099SOL    HW2 9876   0.572   7.648   8.046 -1.5673  0.1041  0.3163
 3100SOL     OW 9877   4.250   3.625   6.771  0.0763 -0.1476  0.2902
 3100SOL    HW1 9878   4.330   3.601   6.817 -0.1836 -0.2923  0.6674
 3100SOL    HW2 9879   4.281   3.659   6.687  0.5944  0.8232  0.8607
 3101SOL     OW 9880   1.943   1.102   5.293  0.1955  0.4590  0.2910
 3101SOL    HW1 9881   1.956   1.050   5.213  0.7536  0.1106  0.6012
 3101SOL    HW2 9882   1.848   1.108   5.302  0.0949  1.7659 -1.2108
 3102SOL     OW 9883   5.313   4.994   8.580  0.1082 -0.2735 -0.1268
 3102SOL    HW1 9884   5.369   4.953   8.646  3.4340  0.3885 -2.3038
 3102SOL    HW2 9885   5.291   4.922   8.520  1.0793 -0.0226 -0.8059
 3103SOL     OW 9886   7.176   8.721   7.458  0.2213 -0.0738 -0.1271
 3103SOL    HW1 9887   7.151   8.735   7.549 -1.0928 -0.4318 -0.4100
 3103SOL    HW2 9888   7.251   8.778   7.444  1.1102 -0.7920  1.4624
 3104SOL     OW 9889   6.772   8.786   8.188 -0.6282  0.6614 -0.6117
 3104SOL    HW1 9890   6.862   8.818   8.183 -0.0540 -0.8893 -0.6014
 3104SOL    HW2 9891   6.775   8.698   8.150 -2.5833  1.3981 -2.7595
 3105SOL     OW 9892   5.153   3.407   1.818 -0.3247  0.3296 -0.0965
 3105SOL    HW1 9893   5.153   3.427   1.724 -0.7729 -1.1581 -0.4506
 3105SOL    HW2 9894   5.208   3.328   1.825 -1.3332 -0.3265  0.6848
 3106SOL     OW 9895   6.066   2.554   8.054  0.3214 -0.3943 -0.5760
 3106SOL    HW1 9896   6.143   2.500   8.033  0.6197  0.4806 -1.7945
 3106SOL    HW2 9897   6.021   2.564   7.971 -1.2808 -1.0943  0.1657
 3107SOL     OW 9898   2.286   2.906   5.692  0.0456 -0.0524  0.3036
 3107SOL    HW1 9899   2.251   2.846   5.758 -1.1436 -0.7642 -0.9167
 3107SOL    HW2 9900   2.262   2.866   5.608  0.1754  1.5834 -0.5633
 3108SOL     OW 9901   1.401   6.552   2.044  0.3078  0.2550 -0.1592
 3108SOL    HW1 9902   1.335   6.581   1.981  0.5810  1.5182  0.1069
 3108SOL    HW2 9903   1.420   6.630   2.096  2.2015 -0.0076 -0.4022
 3109SOL     OW 9904   3.426   9.499   6.890  0.3428 -0.5219  0.5266
 3109SOL    HW1 9905   3.489   9.545   6.946 -0.4827  1.5036 -0.1071
 3109SOL    HW2 9906   3.355   9.474   6.948 -0.3075  1.1840  0.5209
 3110SOL     OW 9907   8.614   3.537   1.021  0.2009  0.0693 -0.7981
 3110SOL    HW1 9908   8.611   3.570   0.931  1.3419 -1.5926 -1.4888
 3110SOL    HW2 9909   8.649   3.610   1.072 -0.1314  0.9196 -1.7382
 3111SOL     OW 9910   5.307   3.788   6.183 -0.6885  0.1365 -0.1570
 3111SOL    HW1 9911   5.228   3.761   6.136 -0.1171 -1.0412 -0.4798
 3111SOL    HW2 9912   5.287   3.877   6.214 -2.1768 -0.1779 -0.1276
 3112SOL     OW 9913   2.492   9.323   4.679 -0.1059  0.6737  0.3159
 3112SOL    HW1 9914   2.482   9.377   4.758 -0.2458 -1.1382  1.6174
 3112SOL    HW2 9915   2.418   9.348   4.623 -1.2344  0.5635  1.6909
 3113SOL     OW 9916   7.764   9.825   1.589 -0.0434 -0.0555  0.4803
 3113SOL    HW1 9917   7.677   9.864   1.595 -0.0372  0.1232 -0.4726
 3113SOL    HW2 9918   7.758   9.763   1.517  0.1733 -1.2730  1.4699
 3114SOL     OW 9919   2.911   4.035   1.773 -0.2538  0.1044 -0.5399
 3114SOL    HW1 9920   2.964   4.114   1.759  1.5606 -1.1293 -0.9688
 3114SOL    HW2 9921   2.853   4.057   1.846  1.0400  1.4454  0.1289
 3115SOL     OW 9922   5.171   2.575   3.929 -0.2272 -0.6066 -0.0044
 3115SOL    HW1 9923   5.168   2.588   3.834 -0.4247 -1.0139 -0.0552
 3115SOL    HW2 9924   5.107   2.638   3.963  1.3381  1.0577  0.0403
 3116SOL     OW 9925   7.477   5.425   6.547 -0.0797 -0.0778  0.5163
 3116SOL    HW1 9926   7.491   5.341   6.501  0.3536 -0.8941  2.0760
 3116SOL    HW2 9927   7.558   5.439   6.596 -0.4251  0.9160  0.8290
 3117SOL     OW 9928   9.010   6.399   3.948 -0.1145  0.4732 -0.1254
 3117SOL    HW1 9929   8.920   6.382   3.975 -0.1079  0.8904  0.1533
 3117SOL    HW2 9930   9.062   6.333   3.995 -0.3482 -0.2575 -0.8602
 3118SOL     OW 9931   8.555   1.110   0.682  0.3243 -0.2633 -0.2065
 3118SOL    HW1 9932   8.635   1.064   0.706 -0.2626 -1.2149 -0.0290
 3118SOL    HW2 9933   8.527   1.069   0.600  0.2607  0.3681 -0.5083
 3119SOL     OW 9934   5.781   2.413   7.579 -0.0951  0.5409  0.0855
 3119SOL    HW1 9935   5.717   2.402   7.649  1.1467 -1.9676  0.9432
 3119SOL    HW2 9936   5.749   2.358   7.508  1.1731 -0.9381  0.6152
 3120SOL     OW 9937   1.705   9.249   9.801 -0.6362  0.2330 -0.8407
 3120SOL    HW1 9938   1.664   9.177   9.849  1.1205 -0.9539 -1.0556
 3120SOL    HW2 9939   1.633   9.287   9.751 -1.8354 -0.6241  0.1472
 3121SOL     OW 9940   7.463   9.273   1.445  0.1613 -0.3698  0.6328
 3121SOL    HW1 9941   7.422   9.187   1.437  0.8664 -0.6702  0.1256
 3121SOL    HW2 9942   7.495   9.292   1.357  1.5736 -0.3791  1.1261
 3122SOL     OW 9943   5.419   0.077   7.738 -0.3898 -0.4020 -0.6216
 3122SOL    HW1 9944   5.453   0.011   7.797  1.3843 -0.7854 -1.9825
 3122SOL    HW2 9945   5.414   0.157   7.791 -0.6682 -1.1559  0.5171
 3123SOL     OW 9946   4.000   2.491   6.007 -0.6231 -0.0571 -0.1375
 3123SOL    HW1 9947   4.032   2.439   6.081  1.0931  1.2350  0.1011
 3123SOL    HW2 9948   4.034   2.446   5.930 -0.0953  0.0703  0.0150
 3124SOL     OW 9949   9.771   5.785   9.056  0.1544  0.0427  0.1091
 3124SOL    HW1 9950   9.720   5.747   8.986 -1.2381  2.6040 -0.3900
 3124SOL    HW2 9951   9.741   5.876   9.062  1.7026  0.5115  2.6264
 3125SOL     OW 9952   5.822   6.512   6.849  0.3260  0.5216  0.3503
 3125SOL    HW1 9953   5.900   6.528   6.901  0.1771 -1.1787  1.1617
 3125SOL    HW2 9954   5.763   6.585   6.870  1.0140  0.8786  1.0725
 3126SOL     OW 9955   4.760   2.502   8.349  0.4903  0.0214 -0.1799
 3126SOL    HW1 9956   4.773   2.408   8.359  1.8611  0.1071 -0.9373
 3126SOL    HW2 9957   4.729   2.532   8.435 -2.8124 -1.5114 -0.6553
 3127SOL     OW 9958   6.683   4.071   8.856  0.9156  0.4611 -0.0389
 3127SOL    HW1 9959   6.740   3.994   8.845 -0.5089 -0.7292  0.5427
 3127SOL    HW2 9960   6.713   4.111   8.938  0.1342 -0.9255  0.9835
 3128SOL     OW 9961   7.069   0.505   4.596 -0.5111 -0.1976 -0.1318
 3128SOL    HW1 9962   7.107   0.417   4.589 -1.2958 -0.7276  1.7453
 3128SOL    HW2 9963   6.990   0.493   4.647 -1.4955  1.4037 -1.1889
 3129SOL     OW 9964   7.495   9.347   5.861  0.1859 -0.8691 -0.4095
 3129SOL    HW1 9965   7.489   9.418   5.797 -1.2307  1.1210  1.7776
 3129SOL    HW2 9966   7.514   9.269   5.809  0.5925  0.8887 -3.0562
 3130SOL     OW 9967   1.157   6.190   4.162 -0.1744 -0.2178  0.4906
 3130SOL    HW1 9968   1.189   6.191   4.253 -2.0537 -0.6957  1.1973
 3130SOL    HW2 9969   1.125   6.101   4.149 -0.6936  0.0848 -0.3594
 3131SOL     OW 9970   9.899   1.016   4.009 -0.1921 -0.1190  0.4939
 3131SOL    HW1 9971   9.912   0.948   3.943  1.5245 -0.7197  1.3953
 3131SOL    HW2 9972   9.882   1.095   3.958  0.9010 -0.6008 -0.6834
 3132SOL     OW 9973   0.006   1.433   8.801 -0.3066 -0.3237  0.1737
 3132SOL    HW1 9974   0.011   1.490   8.725  3.6297  0.3979  0.7527
 3132SOL    HW2 9975   0.065   1.360   8.781 -4.0697 -3.7147  0.0536
 3133SOL     OW 9976   6.547   2.342   7.204 -0.1135 -0.0853 -0.4730
 3133SOL    HW1 9977   6.638   2.312   7.212 -0.2778 -0.8107 -1.1595
 3133SOL    HW2 9978   6.497   2.278   7.255 -0.2436  0.3420 -0.0539
 3134SOL     OW 9979   0.143   9.650   7.480 -0.6710 -0.3097 -0.8093
 3134SOL    HW1 9980   0.062   9.675   7.437 -1.2866  1.0201  0.9989
 3134SOL    HW2 9981   0.126   9.561   7.513 -0.5292 -0.9502 -2.3964
 3135SOL     OW 9982   6.467   6.887   9.691 -0.0283 -0.3355 -0.5364
 3135SOL    HW1 9983   6.428   6.802   9.707  0.7695 -0.9031 -1.4964
 3135SOL    HW2 9984   6.445   6.939   9.769 -0.0782 -1.5651  0.2950
 3136SOL     OW 9985   6.403   9.027   8.701 -0.1647 -0.5209 -1.0697
 3136SOL    HW1 9986   6.365   9.064   8.622 -1.7265  1.2654  0.4102
 3136SOL    HW2 9987   6.384   8.934   8.695 -2.9065 -0.0161 -1.4800
 3137SOL     OW 9988   8.053   0.613   1.043  0.0948  0.2305  0.0474
 3137SOL    HW1 9989   8.122   0.680   1.041 -1.1814  1.6097  0.2376
 3137SOL    HW2 9990   7.999   0.632   0.966 -0.6314 -0.1984  0.4439
 3138SOL     OW 9991   7.191   4.035   9.696  0.8910 -0.5862 -0.0672
 3138SOL    HW1 9992   7.104   4.022   9.658  0.6916  1.0469 -0.2358
 3138SOL    HW2 9993   7.204   4.130   9.693  3.3410 -0.8883 -1.5288
 3139SOL     OW 9994   0.579   0.228   5.434 -0.3480 -0.2077  0.1318
 3139SOL    HW1 9995   0.658   0.177   5.449 -0.5563 -0.7489 -0.5627
 3139SOL    HW2 9996   0.507   0.166   5.442 -0.7507  0.3670  1.1942
 3140SOL     OW 9997   0.213   0.772   1.352 -0.0860  0.1584 -0.2836
 3140SOL    HW1 9998   0.226   0.677   1.355  0.4505  0.2572  1.7694
 3140SOL    HW2 9999   0.292   0.808   1.392 -1.3595  1.3365  1.2672
 3141SOL     OW10000   3.973   3.435   9.448 -0.4582  0.3179 -0.0663
 3141SOL    HW110001   3.998   3.394   9.365 -1.7315 -1.5349  0.3932
 3141SOL    HW210002   3.998   3.527   9.438  3.0708 -0.5937 -0.9454
 3142SOL     OW10003   3.375   3.667   2.919  0.3101 -0.5709  0.6442
 3142SOL    HW110004   3.331   3.734   2.971  1.3282  1.0028 -0.4426
 3142SOL    HW210005   3.360   3.693   2.828 -1.6139 -3.3649  0.0049
 3143SOL     OW10006   8.148   7.909   2.703  0.5291 -0.3624  0.0307
 3143SOL    HW110007   8.100   7.875   2.778  1.3406 -0.4034  0.5423
 3143SOL    HW210008   8.174   7.998   2.729  0.1416 -0.0884 -0.5087
 3144SOL     OW10009   6.014   7.357   6.183 -0.7023  0.5767  0.0439
 3144SOL    HW110010   6.039   7.330   6.272 -0.3074 -0.3300 -0.3386
 3144SOL    HW210011   5.951   7.291   6.154 -1.9295  1.6501  0.1690
 3145SOL     OW10012   6.076   4.434   0.081  0.1952  0.4488  1.0779
 3145SOL    HW110013   6.063   4.493   0.155  0.7834  1.4686  0.3960
 3145SOL    HW210014   6.047   4.485   0.005 -1.7962 -1.0754  0.7226
 3146SOL     OW10015   6.324   9.431   8.738 -0.2371 -0.1028  0.1972
 3146SOL    HW110016   6.298   9.352   8.692  0.5108 -1.1908  1.5677
 3146SOL    HW210017   6.390   9.402   8.801 -0.4685  1.4792  1.2379
 3147SOL     OW10018   1.487   4.397   3.933 -1.0091  0.1351 -0.1507
 3147SOL    HW110019   1.403   4.366   3.900 -1.6228  0.9976  0.5810
 3147SOL    HW210020   1.522   4.451   3.861 -0.7104 -0.8156 -0.7496
 3148SOL     OW10021   6.999   0.747   8.296 -0.0867 -1.0766 -0.1180
 3148SOL    HW110022   7.031   0.832   8.266 -2.2569  0.4358  1.4644
 3148SOL    HW210023   7.077   0.699   8.323  1.1285  0.9408  0.1250
 3149SOL     OW10024   7.076   8.634   2.503 -0.3395 -0.5753 -0.4995
 3149SOL    HW110025   7.024   8.714   2.498 -0.6817 -0.8035 -0.5453
 3149SOL    HW210026   7.027   8.577   2.562 -0.3762 -0.9638 -0.8997
 3150SOL     OW10027   4.149   2.060   7.535  0.1015  0.2835  0.5587
 3150SOL    HW110028   4.112   2.113   7.465 -0.1394 -0.7716 -0.1336
 3150SOL    HW210029   4.197   1.991   7.490 -0.7006 -0.8753  1.4141
 3151SOL     OW10030   6.594   0.981   3.119 -0.3714 -0.0288  0.4241
 3151SOL    HW110031   6.624   1.061   3.075 -1.7115  0.1633 -0.2155
 3151SOL    HW210032   6.635   0.910   3.070  0.8817  0.2422  1.0342
 3152SOL     OW10033   1.716   2.431   3.028 -0.5977  0.2553 -0.2298
 3152SOL    HW110034   1.737   2.523   3.013 -0.4990  0.2723  0.0200
 3152SOL    HW210035   1.791   2.383   2.992 -0.7254  0.2664 -0.5099
 3153SOL     OW10036   4.620   6.882   2.436 -0.0281  0.6207  0.1070
 3153SOL    HW110037   4.690   6.833   2.480 -0.0530  0.3861 -0.1150
 3153SOL    HW210038   4.560   6.907   2.507 -0.0558  0.2629  0.2100
 3154SOL     OW10039   7.283   6.858   3.244  0.1984  0.0047  0.3438
 3154SOL    HW110040   7.318   6.935   3.200 -0.9379 -0.5685 -1.7240
 3154SOL    HW210041   7.191   6.855   3.216  0.0889 -1.8042  0.7831
 3155SOL     OW10042   2.258   6.032   6.353 -0.4234 -0.0311 -0.0899
 3155SOL    HW110043   2.219   6.077   6.428  2.1959 -0.3170  1.5350
 3155SOL    HW210044   2.271   6.102   6.288 -2.1297  0.3355 -0.0914
 3156SOL     OW10045   4.212   4.666   6.358  0.1185  0.6890  0.1760
 3156SOL    HW110046   4.260   4.620   6.428  2.4948  1.2218 -1.0048
 3156SOL    HW210047   4.168   4.596   6.310  0.4895  0.0527  0.7363
 3157SOL     OW10048   2.083   1.268   5.593  0.4899 -0.1157  0.0993
 3157SOL    HW110049   2.168   1.277   5.635 -0.0293  0.2877  1.1025
 3157SOL    HW210050   2.095   1.306   5.506  1.1201  0.7379  0.5436
 3158SOL     OW10051   9.092   1.313   3.167  0.0348 -0.4135  0.6505
 3158SOL    HW110052   9.019   1.315   3.228  0.3767  0.9551  1.0582
 3158SOL    HW210053   9.136   1.398   3.179  1.0560 -0.7691 -0.3413
 3159SOL     OW10054   6.427   0.613   6.364  0.0333 -0.0109 -0.1922
 3159SOL    HW110055   6.454   0.534   6.319 -1.6172  0.2492 -1.7698
 3159SOL    HW210056   6.385   0.582   6.444  2.4336 -0.5063  0.9656
 3160SOL     OW10057   9.137   6.327   1.057  0.2952 -0.5138  0.7111
 3160SOL    HW110058   9.115   6.233   1.058  1.6800 -0.9058 -0.8030
 3160SOL    HW210059   9.222   6.331   1.013 -0.8292  1.6432 -1.5498
 3161SOL     OW10060   1.070   3.407   2.785  0.2505 -0.0028 -0.1650
 3161SOL    HW110061   1.090   3.494   2.821 -0.5983  0.7357 -1.3955
 3161SOL    HW210062   0.982   3.416   2.750  0.9510 -0.7252 -2.2336
 3162SOL     OW10063   9.129   3.817   7.641 -0.0499  0.3712  0.8422
 3162SOL    HW110064   9.181   3.849   7.567  0.8244 -1.1930  0.7239
 3162SOL    HW210065   9.050   3.782   7.601  1.4462 -2.6843  0.2424
 3163SOL     OW10066   7.762   0.926   6.560 -0.0572  0.0911  0.4674
 3163SOL    HW110067   7.788   0.948   6.650 -0.1507 -2.2923  1.1521
 3163SOL    HW210068   7.843   0.896   6.519 -0.2433  0.0094  0.1601
 3164SOL     OW10069   7.472   3.833   2.118 -0.7084  0.2183  0.6383
 3164SOL    HW110070   7.508   3.899   2.058 -0.4831 -0.0720  0.4533
 3164SOL    HW210071   7.515   3.851   2.201 -0.7125  0.3615  0.6098
 3165SOL     OW10072   2.322   1.767   6.865 -0.3585  0.1054 -0.0297
 3165SOL    HW110073   2.410   1.774   6.830  0.2716 -1.5496  1.0943
 3165SOL    HW210074   2.331   1.791   6.957 -1.1421  0.1401  0.0464
 3166SOL     OW10075   2.494   2.607   9.434  0.4240  0.0465 -0.9631
 3166SOL    HW110076   2.576   2.657   9.427 -1.3042  3.3404  0.1748
 3166SOL    HW210077   2.466   2.595   9.343  0.6947  1.6503 -1.3004
 3167SOL     OW10078   4.108   2.499   1.418  0.8252 -0.5746 -0.5424
 3167SOL    HW110079   4.087   2.583   1.459  0.3751 -0.4654 -0.9870
 3167SOL    HW210080   4.111   2.518   1.325  0.1031 -1.1736 -0.6952
 3168SOL     OW10081   5.766   6.728   4.979 -0.1854  0.1450 -0.3086
 3168SOL    HW110082   5.736   6.685   5.059 -0.4146  0.1355 -0.3977
 3168SOL    HW210083   5.753   6.662   4.911  2.8125 -0.9802  0.0606
 3169SOL     OW10084   7.580   1.353   4.521 -0.3033  0.2725 -0.3473
 3169SOL    HW110085   7.657   1.404   4.544  0.1529 -0.8923  0.8274
 3169SOL    HW210086   7.587   1.273   4.573 -1.8120 -0.2918 -0.9369
 3170SOL     OW10087   7.786   6.375   3.216  0.4556 -0.1930 -0.0825
 3170SOL    HW110088   7.800   6.378   3.122 -0.0859  2.2053 -0.1564
 3170SOL    HW210089   7.874   6.368   3.253  0.5981 -2.7508 -0.7146
 3171SOL     OW10090   9.230   3.484   1.977 -0.1342  0.0004 -0.8303
 3171SOL    HW110091   9.153   3.432   2.002 -0.8855 -0.0212 -3.0113
 3171SOL    HW210092   9.213   3.570   2.015  0.0674 -0.6838  0.9326
 3172SOL     OW10093   7.869   5.634   9.668  0.0216 -0.2420 -0.3408
 3172SOL    HW110094   7.823   5.581   9.604 -0.2309  1.0043 -1.2233
 3172SOL    HW210095   7.894   5.714   9.621 -0.7534  1.0138  1.2665
 3173SOL     OW10096   9.395   0.459   9.935 -0.7725  0.0861 -0.2188
 3173SOL    HW110097   9.398   0.363   9.939 -1.1711 -0.0954 -2.4518
 3173SOL    HW210098   9.483   0.487   9.957 -0.8648 -0.7335  1.2956
 3174SOL     OW10099   0.296   3.276   8.251 -0.0497 -0.5617 -0.0111
 3174SOL    HW110100   0.289   3.190   8.293  0.6737  0.2825  1.9210
 3174SOL    HW210101   0.205   3.305   8.240 -0.2668 -0.6103  1.4514
 3175SOL     OW10102   9.308   9.500   7.538  0.2882  0.2903  0.2058
 3175SOL    HW110103   9.396   9.524   7.508 -0.2506  0.5403 -1.2655
 3175SOL    HW210104   9.250   9.563   7.494 -0.5465  0.8849  2.0730
 3176SOL     OW10105   3.845   9.034   1.664 -0.3794 -0.2115  0.0177
 3176SOL    HW110106   3.882   8.950   1.692 -0.3189 -0.3611 -0.4959
 3176SOL    HW210107   3.761   9.010   1.624 -0.1411 -0.0878 -0.5728
 3177SOL     OW10108   4.621   9.651   6.442  0.2296 -0.0643 -0.5362
 3177SOL    HW110109   4.631   9.715   6.513 -0.0738  0.4475 -0.9425
 3177SOL    HW210110   4.610   9.567   6.486 -0.7017  0.3491  0.0526
 3178SOL     OW10111   1.342   5.528   4.746  0.1126 -0.1910 -0.1248
 3178SOL    HW110112   1.379   5.473   4.815  1.4686  0.8815  0.0540
 3178SOL    HW210113   1.351   5.617   4.780 -0.4159  0.2681 -1.1464
 3179SOL     OW10114   1.553   4.568   6.452 -0.7515 -0.0991  0.3171
 3179SOL    HW110115   1.575   4.476   6.463  1.7094  0.1924 -1.3640
 3179SOL    HW210116   1.484   4.569   6.386 -1.0517 -0.7559  0.6183
 3180SOL     OW10117   1.670   8.561   5.403  0.0403  0.4658 -0.2928
 3180SOL    HW110118   1.720   8.507   5.343 -0.3170 -2.9683  2.2215
 3180SOL    HW210119   1.580   8.557   5.371  0.0839 -0.0901 -0.3493
 3181SOL     OW10120   2.423   5.754   1.824  0.0294 -0.2251  0.2729
 3181SOL    HW110121   2.377   5.712   1.897 -1.7362 -0.4168 -0.8734
 3181SOL    HW210122   2.455   5.837   1.860 -1.0335 -0.1978  1.2062
 3182SOL     OW10123   3.121   5.848   0.109 -0.5670  0.0951  0.2519
 3182SOL    HW110124   3.054   5.899   0.063 -1.1757  0.1274  1.1538
 3182SOL    HW210125   3.201   5.863   0.059 -1.2205  0.0774 -0.8306
 3183SOL     OW10126   2.801   7.046   6.735 -0.4707  0.6219  0.1159
 3183SOL    HW110127   2.803   7.134   6.698 -0.3307  0.6453  0.1776
 3183SOL    HW210128   2.877   7.043   6.793 -0.1372  0.2668 -0.3275
 3184SOL     OW10129   3.755   6.426   1.466 -0.5710  0.2336 -0.3294
 3184SOL    HW110130   3.754   6.434   1.561 -2.4774  0.7140 -0.3600
 3184SOL    HW210131   3.668   6.393   1.443 -0.5069  1.0975 -1.9761
 3185SOL     OW10132   2.547   3.281   4.360  0.0353 -0.0706  0.0304
 3185SOL    HW110133   2.512   3.208   4.410  0.9183  0.6015  1.7404
 3185SOL    HW210134   2.640   3.284   4.384  0.0712  1.4497 -0.1780
 3186SOL     OW10135   6.596   4.884   5.948 -0.2553  0.4682 -0.3093
 3186SOL    HW110136   6.617   4.890   6.041  0.4938 -0.5554 -0.3921
 3186SOL    HW210137   6.569   4.972   5.924  0.4296  0.9710  0.6786
 3187SOL     OW10138   7.989   6.113   3.380 -0.0292 -0.5273 -0.1785
 3187SOL    HW110139   7.991   6.158   3.464 -2.5574  0.1544 -0.4126
 3187SOL    HW210140   8.009   6.021   3.401  0.1143 -0.2306  1.0512
 3188SOL     OW10141   6.323   5.236   7.183 -0.3933 -0.3824  0.5311
 3188SOL    HW110142   6.406   5.223   7.137 -0.2851 -0.3156  0.7047
 3188SOL    HW210143   6.349   5.258   7.272 -0.5306  2.1921 -0.0027
 3189SOL     OW10144   1.844   5.304   4.811  0.0431 -0.1257  0.0963
 3189SOL    HW110145   1.873   5.353   4.735 -1.5472  2.1702  0.8652
 3189SOL    HW210146   1.827   5.370   4.878 -2.7769 -1.6022  1.0239
 3190SOL     OW10147   6.430   7.721   3.555  0.5126  0.1386 -0.8274
 3190SOL    HW110148   6.482   7.712   3.635  0.5577  1.3950 -0.6901
 3190SOL    HW210149   6.378   7.641   3.550 -1.0213  0.9070  1.5811
 3191SOL     OW10150   0.475   8.771   3.469 -0.4554 -0.3076 -0.0644
 3191SOL    HW110151   0.416   8.722   3.410 -1.1781 -0.7101  0.9568
 3191SOL    HW210152   0.494   8.709   3.540 -1.1354  0.7683  1.0994
 3192SOL     OW10153   4.887   3.076   4.939 -0.5296 -0.5871 -0.5289
 3192SOL    HW110154   4.901   3.008   5.005  1.0388 -0.3743 -0.5987
 3192SOL    HW210155   4.841   3.146   4.985 -0.6967 -1.0081 -0.0413
 3193SOL     OW10156   9.205   0.660   4.314 -0.1429  0.6249  0.2195
 3193SOL    HW110157   9.274   0.725   4.312 -0.8755  1.4099 -0.4933
 3193SOL    HW210158   9.140   0.692   4.251 -1.3669  0.1555  1.1976
 3194SOL     OW10159   4.259   3.627   5.821 -0.3771  0.1923  0.7685
 3194SOL    HW110160   4.291   3.704   5.867  0.2808  1.2252 -1.3166
 3194SOL    HW210161   4.175   3.653   5.785 -0.1148 -0.0224 -0.0177
 3195SOL     OW10162   2.368   7.834   5.226  0.1119  0.1385 -0.3016
 3195SOL    HW110163   2.456   7.835   5.188 -0.0349  0.8088 -0.6490
 3195SOL    HW210164   2.309   7.829   5.150 -0.1614  0.5426 -0.1219
 3196SOL     OW10165   8.532   5.273   7.830 -0.0927  0.0249 -0.1608
 3196SOL    HW110166   8.585   5.202   7.794  0.1883  0.4243 -0.5357
 3196SOL    HW210167   8.583   5.352   7.814 -0.4137  0.3190  0.2398
 3197SOL     OW10168   6.210   5.808   2.428  0.5765 -0.5288 -0.1185
 3197SOL    HW110169   6.160   5.872   2.377 -1.2666 -0.2712  1.8654
 3197SOL    HW210170   6.203   5.839   2.518 -0.1173 -3.3329  0.8821
 3198SOL     OW10171   6.520   5.001   7.765  0.3742  0.3346  0.1862
 3198SOL    HW110172   6.457   4.944   7.720  0.5855  1.1140 -1.1629
 3198SOL    HW210173   6.468   5.045   7.832 -0.1145 -0.3583  0.2747
 3199SOL     OW10174   0.209   9.122   7.225  0.0926  0.2988 -0.1705
 3199SOL    HW110175   0.302   9.135   7.210  0.0338 -1.1482 -2.1628
 3199SOL    HW210176   0.180   9.066   7.153 -2.3632  0.8528  0.2793
 3200SOL     OW10177   8.439   0.920   4.460 -0.8000  0.1007 -0.0403
 3200SOL    HW110178   8.445   0.886   4.549 -0.5946  0.5102  0.1038
 3200SOL    HW210179   8.530   0.934   4.434 -0.7449 -1.7129 -0.9799
 3201SOL     OW10180   7.066   6.003   1.892 -0.2372  0.1397  0.1676
 3201SOL    HW110181   7.003   6.049   1.948 -1.7747  0.2632 -1.5757
 3201SOL    HW210182   7.112   5.944   1.951  0.4312  2.4544  2.1288
 3202SOL     OW10183   9.374   5.376   2.404  0.6586 -0.1261  0.0828
 3202SOL    HW110184   9.355   5.425   2.484  0.4237  1.3061 -0.8269
 3202SOL    HW210185   9.304   5.311   2.399 -0.9493  1.5447 -0.3486
 3203SOL     OW10186   0.630   8.983   1.839  0.2705  0.1767  0.4766
 3203SOL    HW110187   0.683   8.958   1.914  2.2316  1.5332 -0.3729
 3203SOL    HW210188   0.551   9.021   1.877 -0.3324 -2.1610  1.7680
 3204SOL     OW10189   6.697   1.128   9.580  0.0794 -0.8050 -0.8062
 3204SOL    HW110190   6.719   1.102   9.669  0.8569  0.1806 -0.6952
 3204SOL    HW210191   6.746   1.067   9.524  0.4418 -0.7515 -0.5530
 3205SOL     OW10192   4.151   3.043   2.049  0.1328  0.2301  0.3699
 3205SOL    HW110193   4.242   3.052   2.079  0.3879 -0.3154 -0.2273
 3205SOL    HW210194   4.156   2.984   1.974 -0.7725 -0.1712  0.6139
 3206SOL     OW10195   0.473   8.329   7.885  0.6498 -0.4903 -0.1398
 3206SOL    HW110196   0.489   8.272   7.961 -0.6082  0.5189  0.9257
 3206SOL    HW210197   0.552   8.381   7.877  0.1404  0.6249  1.6174
 3207SOL     OW10198   0.563   6.469   2.476 -0.2261 -0.1352 -0.0044
 3207SOL    HW110199   0.654   6.493   2.459 -0.3041 -0.1639 -0.4570
 3207SOL    HW210200   0.549   6.496   2.567 -0.5315  2.2725 -0.6902
 3208SOL     OW10201   6.997   3.865   1.599 -0.1560 -0.0353  0.4039
 3208SOL    HW110202   7.056   3.790   1.591  0.7388  0.7179 -0.2661
 3208SOL    HW210203   6.914   3.827   1.627 -0.0611 -1.4449 -1.0808
 3209SOL     OW10204   1.881   5.327   4.194 -0.3010 -0.7482  0.2823
 3209SOL    HW110205   1.894   5.280   4.277 -1.0810 -2.0999 -0.3236
 3209SOL    HW210206   1.954   5.389   4.190 -0.0408 -0.9224  1.8014
 3210SOL     OW10207   5.805   1.914   9.543  0.1776 -0.2926 -0.2334
 3210SOL    HW110208   5.741   1.981   9.518  1.1893  1.4018  1.3964
 3210SOL    HW210209   5.871   1.917   9.475  0.0867  0.2250 -0.3051
 3211SOL     OW10210   9.847   3.314   7.047  0.7966  0.0311 -0.4244
 3211SOL    HW110211   9.839   3.398   7.002  0.5034  0.9698  1.2835
 3211SOL    HW210212   9.877   3.337   7.136 -0.2494 -1.5810  0.4000
 3212SOL     OW10213   3.742   9.448   3.086 -0.0275 -0.5655 -0.1667
 3212SOL    HW110214   3.698   9.410   3.162  2.2488 -3.0451  0.0520
 3212SOL    HW210215   3.828   9.406   3.084  1.4093  2.1517 -2.0198
 3213SOL     OW10216   3.476   4.627   3.780  0.0620 -0.5734 -0.1802
 3213SOL    HW110217   3.544   4.693   3.791  1.0261 -1.5188 -0.3097
 3213SOL    HW210218   3.495   4.588   3.695 -0.0938 -1.4722  0.1916
 3214SOL     OW10219   1.336   3.640   9.673  0.5074  0.4303 -0.2035
 3214SOL    HW110220   1.305   3.551   9.658 -1.1094  0.9012  0.1541
 3214SOL    HW210221   1.423   3.643   9.634  0.2936 -1.1012 -0.8295
 3215SOL     OW10222   3.196   6.342   5.420  0.2154 -0.1814 -0.2769
 3215SOL    HW110223   3.215   6.264   5.367  0.9432 -0.2404  0.0623
 3215SOL    HW210224   3.199   6.414   5.357  3.7994  0.1256  0.0019
 3216SOL     OW10225   3.192   9.675   0.636  0.3781  0.8774  0.1307
 3216SOL    HW110226   3.269   9.630   0.600 -0.2370 -0.3228  0.2579
 3216SOL    HW210227   3.215   9.768   0.632  2.7770  0.4896  2.2412
 3217SOL     OW10228   5.759   4.775   4.256  0.2285  0.0405 -0.1742
 3217SOL    HW110229   5.754   4.730   4.341  1.0287 -1.0275 -0.6568
 3217SOL    HW210230   5.738   4.866   4.276 -0.3328 -0.3271  1.0434
 3218SOL     OW10231   3.822   2.107   1.752 -0.2907 -0.5956 -0.0782
 3218SOL    HW110232   3.744   2.154   1.781  0.1549 -0.1067  0.3650
 3218SOL    HW210233   3.847   2.054   1.827  0.3445 -0.0232  0.1254
 3219SOL     OW10234   4.559   7.370   8.133  0.5719  0.2082 -0.4120
 3219SOL    HW110235   4.644   7.337   8.104 -0.6408 -1.3613 -2.4550
 3219SOL    HW210236   4.532   7.311   8.203  1.1542  0.7568  0.2961
 3220SOL     OW10237   8.250   0.532   4.683 -1.0146  0.4841  0.2612
 3220SOL    HW110238   8.315   0.519   4.752 -1.5533  1.4252  0.9730
 3220SOL    HW210239   8.298   0.580   4.615 -0.9778  1.2671  0.8278
 3221SOL     OW10240   1.484   5.079   1.452 -0.4424 -0.1081 -0.3823
 3221SOL    HW110241   1.550   5.136   1.412 -1.7009  0.4139 -1.7884
 3221SOL    HW210242   1.461   5.016   1.384 -1.0389 -0.5916  0.2528
 3222SOL     OW10243   1.672   2.530   4.948  0.2711  0.2565 -0.4762
 3222SOL    HW110244   1.716   2.489   4.873  0.2297 -0.5934 -0.0444
 3222SOL    HW210245   1.717   2.493   5.024 -1.2513 -0.7253 -0.0173
 3223SOL     OW10246   1.037   4.706   8.521  0.1292 -0.6273  0.4768
 3223SOL    HW110247   1.118   4.699   8.469 -0.4685 -0.2164 -0.5358
 3223SOL    HW210248   1.007   4.615   8.529 -0.8835 -0.5695 -1.7586
 3224SOL     OW10249   2.279   3.366   6.592  0.1984  0.1421 -0.4600
 3224SOL    HW110250   2.254   3.329   6.676  2.3653 -0.5238 -0.0333
 3224SOL    HW210251   2.208   3.342   6.532 -1.2018  0.3361  1.0707
 3225SOL     OW10252   6.242   7.018   2.029  0.3100  0.4875 -0.1080
 3225SOL    HW110253   6.324   7.052   1.992  0.1873 -0.1505 -1.0033
 3225SOL    HW210254   6.174   7.061   1.978  0.1297 -0.2260 -0.4731
 3226SOL     OW10255   1.106   4.788   5.324 -0.5749  0.7248 -0.1210
 3226SOL    HW110256   1.196   4.817   5.313 -1.2498  2.7739 -0.6722
 3226SOL    HW210257   1.093   4.786   5.419  0.1139  0.1474 -0.0320
 3227SOL     OW10258   1.180   2.064   9.143 -0.3434 -0.0493  0.0233
 3227SOL    HW110259   1.135   2.146   9.162 -2.4125 -1.2029  0.3574
 3227SOL    HW210260   1.111   1.998   9.143  1.3344 -1.8961  0.3372
 3228SOL     OW10261   8.045   2.708   3.805  0.6587  0.6790 -0.2940
 3228SOL    HW110262   7.982   2.695   3.735  0.0995  0.9006  0.1601
 3228SOL    HW210263   8.000   2.765   3.867  1.1346  0.4588  0.2602
 3229SOL     OW10264   9.039   7.186   1.223  0.0969 -0.3434  0.1483
 3229SOL    HW110265   9.067   7.103   1.263 -1.5523 -0.3709  1.3936
 3229SOL    HW210266   9.105   7.205   1.157  0.8823 -2.3065  0.3026
 3230SOL     OW10267   4.962   2.403   0.398  0.1702 -0.0319 -0.4585
 3230SOL    HW110268   5.046   2.442   0.420 -0.7725  1.2267  1.1872
 3230SOL    HW210269   4.905   2.426   0.471 -1.4315 -1.4569 -1.1744
 3231SOL     OW10270   2.507   8.600   7.824 -0.6268 -0.6232  0.2040
 3231SOL    HW110271   2.486   8.567   7.737 -2.5206  2.1620 -0.5058
 3231SOL    HW210272   2.603   8.606   7.825 -0.4717 -2.0854 -1.0739
 3232SOL     OW10273   1.859   6.359   6.655 -0.3414 -0.1658 -0.3584
 3232SOL    HW110274   1.869   6.285   6.595  0.5718  0.0138 -0.4524
 3232SOL    HW210275   1.834   6.319   6.739 -2.3377 -0.3586 -0.9998
 3233SOL     OW10276   3.983   8.578   6.586  0.1435 -0.5801  0.5018
 3233SOL    HW110277   3.985   8.553   6.494  0.8902 -0.9839  0.6265
 3233SOL    HW210278   3.922   8.516   6.626 -2.2416  1.1858 -0.1668
 3234SOL     OW10279   1.283   9.055   1.363  0.2386 -0.0430  0.3889
 3234SOL    HW110280   1.219   8.987   1.342  0.8397 -0.1235 -1.3249
 3234SOL    HW210281   1.245   9.102   1.437 -1.7091 -0.2154 -0.4504
 3235SOL     OW10282   3.252   6.011   5.667  0.0680 -0.3991 -0.0737
 3235SOL    HW110283   3.288   6.089   5.623  0.8637 -0.1609  0.9592
 3235SOL    HW210284   3.323   5.947   5.662 -0.1248 -0.6293  0.1936
 3236SOL     OW10285   5.982   1.686   2.562 -0.3162  0.2735 -0.0890
 3236SOL    HW110286   5.969   1.622   2.632  4.0957 -2.0733 -1.1146
 3236SOL    HW210287   5.929   1.654   2.490 -0.1779 -0.7536  0.2527
 3237SOL     OW10288   5.093   1.037   0.722 -0.2493 -0.1177 -0.2530
 3237SOL    HW110289   5.048   1.072   0.645 -0.7821  0.5522  0.3479
 3237SOL    HW210290   5.153   0.971   0.687 -0.1045  0.5465 -1.2955
 3238SOL     OW10291   2.056   4.482   3.706  0.4005  0.0501  0.5438
 3238SOL    HW110292   2.149   4.460   3.715 -0.1249 -1.6410  3.1947
 3238SOL    HW210293   2.030   4.508   3.794 -1.8021 -0.2491  0.0295
 3239SOL     OW10294   5.034   7.462   2.926 -0.5175  0.3215 -0.3027
 3239SOL    HW110295   5.115   7.436   2.881  1.0112  1.1206  1.8154
 3239SOL    HW210296   5.059   7.539   2.977 -2.4369  0.0999  1.0485
 3240SOL     OW10297   8.080   1.171   3.023 -0.1867 -0.3404  0.5978
 3240SOL    HW110298   8.027   1.200   3.098  0.8960 -0.7377  1.5622
 3240SOL    HW210299   8.117   1.252   2.988  0.5959 -0.2601  1.5393
 3241SOL     OW10300   3.629   0.731   5.069 -0.2996 -0.0397  0.3195
 3241SOL    HW110301   3.629   0.651   5.017  1.9572  0.8550 -1.1966
 3241SOL    HW210302   3.581   0.795   5.017 -1.2244 -0.1058  1.0643
 3242SOL     OW10303   2.092   9.167   9.178 -0.6290  0.2819  0.0662
 3242SOL    HW110304   2.044   9.219   9.113  0.0942  0.0372 -0.6826
 3242SOL    HW210305   2.068   9.077   9.159  0.9036  0.0710 -0.9964
 3243SOL     OW10306   1.697   3.700   1.094  0.3166  0.0321 -0.7366
 3243SOL    HW110307   1.604   3.682   1.111  0.7638 -1.4792  0.2616
 3243SOL    HW210308   1.722   3.764   1.160  0.2796 -0.4922 -0.2081
 3244SOL     OW10309   1.895   5.800   0.409  0.2390  0.7732 -0.4961
 3244SOL    HW110310   1.876   5.811   0.316  1.4737  0.2553 -0.8292
 3244SOL    HW210311   1.834   5.733   0.438  0.0742  0.6969 -1.0156
 3245SOL     OW10312   1.468   3.383   0.022  0.8745 -0.4742 -0.0787
 3245SOL    HW110313   1.502   3.295   0.006  1.2448 -0.3160 -0.1714
 3245SOL    HW210314   1.502   3.407   0.108  1.6133 -0.0286 -0.4822
 3246SOL     OW10315   7.913   3.011   4.397 -0.3831 -0.4458  0.0704
 3246SOL    HW110316   7.996   3.047   4.429 -0.7581 -0.5584  1.2209
 3246SOL    HW210317   7.924   3.006   4.302 -0.5413  3.2218 -0.2647
 3247SOL     OW10318   4.407   6.897   1.192  0.5747 -0.3319  0.1938
 3247SOL    HW110319   4.398   6.894   1.287 -0.4256 -2.2791  0.0909
 3247SOL    HW210320   4.481   6.839   1.173  3.0740  2.7078 -0.0700
 3248SOL     OW10321   9.512   5.631   3.668 -0.6377  0.0194  0.5305
 3248SOL    HW110322   9.451   5.669   3.733 -0.9983 -1.3254  1.0010
 3248SOL    HW210323   9.530   5.543   3.701  1.8597  0.4880  0.5778
 3249SOL     OW10324   8.730   8.664   9.620 -0.3945 -0.0432 -0.0592
 3249SOL    HW110325   8.710   8.757   9.622 -0.1602  0.0533 -1.3511
 3249SOL    HW210326   8.707   8.632   9.707  0.0502  1.3282  0.5873
 3250SOL     OW10327   2.822   3.587   1.933 -0.1640 -0.3722 -0.2410
 3250SOL    HW110328   2.833   3.624   2.021 -0.5752  0.1075 -0.3928
 3250SOL    HW210329   2.908   3.596   1.892 -0.0758 -0.2444 -0.0281
 3251SOL     OW10330   8.668   2.405   5.975 -1.2726  0.4111 -0.2547
 3251SOL    HW110331   8.590   2.460   5.967 -0.3171  2.4190  2.5945
 3251SOL    HW210332   8.741   2.467   5.981 -0.0275 -1.1320  2.0119
 3252SOL     OW10333   3.862   7.543   5.325 -0.2954  0.4437 -0.1136
 3252SOL    HW110334   3.907   7.626   5.340 -0.4287  0.8943 -1.9732
 3252SOL    HW210335   3.924   7.477   5.354  0.5971  1.1428 -0.3619
 3253SOL     OW10336   5.360   1.118   3.314 -0.0215  0.4414  0.1746
 3253SOL    HW110337   5.400   1.201   3.340  0.4813 -0.2850  1.8687
 3253SOL    HW210338   5.271   1.141   3.288  0.7678  1.7967 -1.6002
 3254SOL     OW10339   7.778   8.267   0.834  0.0744  0.1018 -0.6336
 3254SOL    HW110340   7.753   8.299   0.921  0.9385  0.5610 -0.5432
 3254SOL    HW210341   7.763   8.341   0.776  1.1950  0.3860 -0.5767
 3255SOL     OW10342   4.040   9.279   1.229  0.1761  0.3089 -0.5461
 3255SOL    HW110343   4.001   9.289   1.316  0.4422  2.0722 -0.5935
 3255SOL    HW210344   4.065   9.368   1.204  1.0955 -0.3249 -1.9740
 3256SOL     OW10345   8.585   7.788   6.072 -0.2465 -0.2556 -0.1512
 3256SOL    HW110346   8.614   7.734   6.145 -1.3808 -1.8490 -0.8321
 3256SOL    HW210347   8.615   7.741   5.994  0.4078  1.0960 -0.7520
 3257SOL     OW10348   0.538   9.841   7.027  0.3721 -0.0507  0.1021
 3257SOL    HW110349   0.489   9.847   6.945  1.5646 -0.8304 -0.6914
 3257SOL    HW210350   0.527   9.749   7.054 -1.4338  0.5888  1.7496
 3258SOL     OW10351   0.407   3.144   6.528  0.4327  0.7492 -0.2252
 3258SOL    HW110352   0.422   3.051   6.514  1.4332  0.8449  0.1198
 3258SOL    HW210353   0.398   3.180   6.439 -1.3954  0.1342 -0.3305
 3259SOL     OW10354   6.003   4.818   9.419 -0.5351  0.1803  0.5741
 3259SOL    HW110355   6.031   4.729   9.439  0.4719  0.3754  0.1063
 3259SOL    HW210356   6.071   4.852   9.361 -1.5631  0.8201 -0.2934
 3260SOL     OW10357   5.272   5.233   8.717  0.3399 -0.1421 -0.2238
 3260SOL    HW110358   5.270   5.157   8.658 -2.4754 -0.6919  0.4204
 3260SOL    HW210359   5.327   5.204   8.790  0.3161 -1.1097 -0.5665
 3261SOL     OW10360   2.144   1.444   3.204  0.2615 -0.5458  0.5028
 3261SOL    HW110361   2.219   1.385   3.206  0.0837 -0.8103 -0.2092
 3261SOL    HW210362   2.181   1.531   3.215  0.8998 -0.4955 -1.5915
 3262SOL     OW10363   3.197   0.206   2.825 -0.4916  0.2948  0.0938
 3262SOL    HW110364   3.233   0.276   2.879  1.8019 -0.1041 -0.8087
 3262SOL    HW210365   3.259   0.134   2.835 -1.6596 -0.8646 -0.6810
 3263SOL     OW10366   2.071   9.557   4.535 -1.2005  0.3769 -0.0597
 3263SOL    HW110367   2.041   9.606   4.611 -0.1633  0.8019  0.0931
 3263SOL    HW210368   2.029   9.471   4.543 -0.9241  0.3373  1.1288
 3264SOL     OW10369   5.873   8.975   9.219  0.4689  0.1814  0.3081
 3264SOL    HW110370   5.813   8.905   9.194 -1.3120  1.4405  0.8699
 3264SOL    HW210371   5.929   8.935   9.286 -1.3359 -0.4096  1.5547
 3265SOL     OW10372   1.814   2.499   6.757  0.1915  0.0978  0.5484
 3265SOL    HW110373   1.894   2.448   6.774 -0.7992 -1.4826  0.6442
 3265SOL    HW210374   1.761   2.487   6.836 -1.0862 -0.7676 -0.4001
 3266SOL     OW10375   3.593   0.932   8.543  0.0731  0.7215  0.2132
 3266SOL    HW110376   3.640   0.868   8.597  2.0642  1.4102 -0.5909
 3266SOL    HW210377   3.625   0.915   8.454 -0.5684  1.8030 -0.2385
 3267SOL     OW10378   4.852   0.026   9.687 -0.1448  0.1868 -0.1887
 3267SOL    HW110379   4.845   0.117   9.657  2.9703  0.3195 -0.7729
 3267SOL    HW210380   4.864   0.033   9.781  0.1045  0.3790 -0.2344
 3268SOL     OW10381   1.249   5.321   2.386 -0.0458  0.1673  0.2780
 3268SOL    HW110382   1.287   5.403   2.356 -0.6510 -0.0924 -1.2870
 3268SOL    HW210383   1.177   5.304   2.326 -0.6254 -0.9573  1.2502
 3269SOL     OW10384   4.280   2.874   8.251  0.3929  0.2341  0.0374
 3269SOL    HW110385   4.195   2.854   8.210  0.8535 -1.1164 -0.3090
 3269SOL    HW210386   4.313   2.948   8.200  0.1016 -0.2117 -0.8371
 3270SOL     OW10387   3.046   1.155   3.706 -0.1940 -0.3044 -0.3497
 3270SOL    HW110388   3.099   1.218   3.656 -0.2270 -0.0082 -0.0192
 3270SOL    HW210389   2.976   1.130   3.645  0.0571 -0.3407 -0.6276
 3271SOL     OW10390   1.536   2.997   9.262  0.2662  0.6382 -0.0285
 3271SOL    HW110391   1.588   3.020   9.185  0.7113  0.7796  0.3104
 3271SOL    HW210392   1.555   2.904   9.276  0.7985  0.8036  0.3728
 3272SOL     OW10393   1.173   2.163   7.160  0.3228 -0.5726 -0.4892
 3272SOL    HW110394   1.234   2.222   7.205 -1.4848  0.8621  0.2411
 3272SOL    HW210395   1.219   2.079   7.155  1.7251  0.0228  1.3981
 3273SOL     OW10396   8.313   2.091   2.647 -0.2518  0.4332  0.3150
 3273SOL    HW110397   8.288   2.018   2.590 -0.3642  0.3963  0.4099
 3273SOL    HW210398   8.370   2.053   2.713  0.2989  0.5759 -0.0784
 3274SOL     OW10399   9.251   3.906   2.299 -0.4072  0.5830  0.1471
 3274SOL    HW110400   9.341   3.936   2.288  0.1653 -0.4654  1.7031
 3274SOL    HW210401   9.249   3.866   2.386 -2.0596 -0.5109 -0.3423
 3275SOL     OW10402   0.642   4.437   2.618  0.1528 -0.2877  0.0743
 3275SOL    HW110403   0.637   4.353   2.663  0.4212  1.4383  3.6640
 3275SOL    HW210404   0.703   4.490   2.671 -0.3867  2.3683 -1.7117
 3276SOL     OW10405   7.709   1.241   0.353 -0.6387  0.3989 -0.3106
 3276SOL    HW110406   7.681   1.150   0.349  0.1692  0.1117  0.2394
 3276SOL    HW210407   7.794   1.238   0.398  0.3736  1.2067 -2.0694
 3277SOL     OW10408   6.895   6.012   6.436 -0.0745  0.6288 -0.6093
 3277SOL    HW110409   6.849   6.013   6.521  0.9654  0.9246 -0.0290
 3277SOL    HW210410   6.982   5.978   6.456 -0.4312 -1.1502 -1.9264
 3278SOL     OW10411   2.496   3.480   5.733  0.1034 -0.3005  0.3945
 3278SOL    HW110412   2.465   3.457   5.820  0.1169 -0.6370  0.3128
 3278SOL    HW210413   2.416   3.504   5.685 -0.3554 -3.1867 -0.4414
 3279SOL     OW10414   8.095   3.969   7.251  0.0937 -0.5701  0.5865
 3279SOL    HW110415   8.066   4.059   7.267  1.7229  0.1068 -0.0703
 3279SOL    HW210416   8.161   3.952   7.319 -0.3608 -1.3603  0.8457
 3280SOL     OW10417   7.234   9.365   3.160  0.1332 -0.2403  0.4946
 3280SOL    HW110418   7.275   9.305   3.221 -0.1966 -3.6253 -2.3053
 3280SOL    HW210419   7.300   9.433   3.144  1.4000 -1.0286  2.1663
 3281SOL     OW10420   4.102   2.283   1.951 -0.8462 -0.2143  0.2844
 3281SOL    HW110421   4.008   2.276   1.934 -0.9659 -0.8144  1.1232
 3281SOL    HW210422   4.133   2.192   1.949 -0.3090 -0.0323  0.1830
 3282SOL     OW10423   6.042   9.690   1.230 -0.7105 -0.0547 -0.3101
 3282SOL    HW110424   5.956   9.665   1.264 -0.6934 -0.7218 -0.7267
 3282SOL    HW210425   6.093   9.714   1.307 -1.6101  1.4516 -0.1585
 3283SOL     OW10426   1.321   4.973   3.910  0.9103 -0.3298 -0.7144
 3283SOL    HW110427   1.381   4.981   3.984 -1.4507  1.8909  1.1727
 3283SOL    HW210428   1.239   4.942   3.948  0.4187 -2.1488 -2.9932
 3284SOL     OW10429   6.143   0.452   1.616  0.2602  0.5097 -0.3313
 3284SOL    HW110430   6.056   0.477   1.648 -0.0277 -0.4295 -0.3706
 3284SOL    HW210431   6.177   0.392   1.681  0.8139  0.7368 -0.4071
 3285SOL     OW10432   0.696   4.986   3.978 -0.5469  0.1852  0.1236
 3285SOL    HW110433   0.623   4.966   4.037  0.4281 -1.4897  0.8531
 3285SOL    HW210434   0.764   5.019   4.036  0.1393 -0.6942 -0.1584
 3286SOL     OW10435   1.448   9.655   4.876 -0.1708  0.4416  0.4163
 3286SOL    HW110436   1.365   9.672   4.832 -0.3143 -0.1190  0.4554
 3286SOL    HW210437   1.443   9.704   4.958  0.1835  1.6643 -0.2624
 3287SOL     OW10438   5.643   0.568   8.506 -0.1946 -0.2325  0.2687
 3287SOL    HW110439   5.566   0.519   8.533 -0.1297 -0.6208 -0.2312
 3287SOL    HW210440   5.695   0.577   8.586 -0.2158 -0.9760  0.3707
 3288SOL     OW10441   0.221   5.280   1.409 -0.3654 -0.0454 -0.4794
 3288SOL    HW110442   0.129   5.254   1.398 -0.3028 -0.8069  0.6820
 3288SOL    HW210443   0.228   5.304   1.501  0.5297  0.3354 -0.6431
 3289SOL     OW10444   9.136   2.476   2.355 -0.1247 -0.1027 -0.4446
 3289SOL    HW110445   9.192   2.466   2.432 -0.8445  0.3791  0.1602
 3289SOL    HW210446   9.194   2.460   2.281  0.8150  0.3929  0.1620
 3290SOL     OW10447   0.265   8.316   2.944  0.2623 -0.4823  0.6132
 3290SOL    HW110448   0.346   8.274   2.974  0.4959 -2.2143 -2.0501
 3290SOL    HW210449   0.199   8.247   2.949 -0.9449  0.7168  2.0941
 3291SOL     OW10450   1.814   5.770   9.543 -0.1280  0.0392  0.4691
 3291SOL    HW110451   1.790   5.689   9.589 -1.0554  0.0986  0.0876
 3291SOL    HW210452   1.794   5.839   9.606 -0.5692  0.0634  0.2984
 3292SOL     OW10453   3.974   8.272   0.030  0.2155 -0.0188  0.1519
 3292SOL    HW110454   3.943   8.336  -0.034 -0.7987 -1.1500 -0.5119
 3292SOL    HW210455   3.899   8.216   0.048  0.6852 -0.1867  1.7968
 3293SOL     OW10456   5.653   8.934   3.791  0.3286 -0.1653 -0.2457
 3293SOL    HW110457   5.735   8.897   3.757  0.4724 -0.0821  0.0095
 3293SOL    HW210458   5.666   8.938   3.886 -0.7819 -2.2097  0.0552
 3294SOL     OW10459   5.751   2.842   3.618 -0.0236 -0.1778  0.7053
 3294SOL    HW110460   5.724   2.794   3.539  0.3364  0.6838  0.0385
 3294SOL    HW210461   5.784   2.775   3.677  2.6665 -0.5746 -1.0801
 3295SOL     OW10462   6.206   0.920   2.635 -0.2000 -0.4342  0.0726
 3295SOL    HW110463   6.285   0.880   2.673 -1.6606 -1.5289  2.2317
 3295SOL    HW210464   6.134   0.872   2.676 -2.0098  0.5941 -1.7370
 3296SOL     OW10465   2.564   5.784   5.952 -0.2284 -0.4675  0.0271
 3296SOL    HW110466   2.572   5.825   6.039  0.6052  2.0343 -1.1135
 3296SOL    HW210467   2.649   5.800   5.911 -0.9646 -0.6229 -1.6345
 3297SOL     OW10468   5.116   9.062   3.932 -0.3336 -0.6275 -0.1417
 3297SOL    HW110469   5.155   8.978   3.954 -0.0236 -0.2047  0.9940
 3297SOL    HW210470   5.174   9.127   3.972  0.3533  0.2233 -2.3851
 3298SOL     OW10471   3.495   1.848   6.085  0.0569  0.0958  0.2461
 3298SOL    HW110472   3.520   1.906   6.157 -0.1287  0.5341 -0.0441
 3298SOL    HW210473   3.493   1.761   6.125  2.3642 -0.0347  0.2349
 3299SOL     OW10474   8.991   6.613   1.009  0.6950 -0.4528  0.6659
 3299SOL    HW110475   8.918   6.643   1.063 -1.0435  0.4619 -2.0055
 3299SOL    HW210476   8.981   6.518   1.006  2.2935 -0.8167  3.8176
 3300SOL     OW10477   4.948   1.918   4.676  0.2627  0.3441 -0.2465
 3300SOL    HW110478   5.000   1.850   4.633  0.5729  0.0905  0.5106
 3300SOL    HW210479   5.005   1.951   4.745 -0.8879 -0.6047  1.2249
 3301SOL     OW10480   1.588   4.028   2.494  0.5295  0.0661  0.4532
 3301SOL    HW110481   1.654   4.087   2.458 -0.0168  1.1606  1.1794
 3301SOL    HW210482   1.559   3.975   2.419  2.5366 -0.7766  0.2194
 3302SOL     OW10483   1.526   3.628   2.361 -0.6939  0.0125  0.0034
 3302SOL    HW110484   1.480   3.577   2.428 -0.1384 -1.0075 -0.3612
 3302SOL    HW210485   1.565   3.562   2.303  1.9695  0.7644  0.7729
 3303SOL     OW10486   0.054   1.157   3.271  0.4258  0.3294  0.6041
 3303SOL    HW110487   0.149   1.168   3.269  0.2169  2.5682 -0.0933
 3303SOL    HW210488   0.035   1.096   3.200  1.1400  2.4180 -1.5028
 3304SOL     OW10489   2.158   1.643   2.378 -0.4167  0.1406 -0.2136
 3304SOL    HW110490   2.146   1.687   2.294 -1.8035  0.5297  0.1551
 3304SOL    HW210491   2.253   1.640   2.390 -0.2239  1.0464 -1.2911
 3305SOL     OW10492   5.178   8.847   3.505  0.4200 -0.2682 -0.0580
 3305SOL    HW110493   5.160   8.937   3.477  0.9107  0.2908  1.3186
 3305SOL    HW210494   5.253   8.855   3.563 -1.2080 -1.1560  2.3230
 3306SOL     OW10495   6.285   6.096   2.555 -0.1700  0.6071 -0.2720
 3306SOL    HW110496   6.198   6.135   2.541 -1.2780 -1.4860  0.2856
 3306SOL    HW210497   6.333   6.162   2.604 -2.3800  0.8254  1.8093
 3307SOL     OW10498   2.898   0.368   4.562  0.1255 -0.4493  0.2721
 3307SOL    HW110499   2.814   0.361   4.516 -0.2343  1.8466  0.4645
 3307SOL    HW210500   2.876   0.352   4.654  0.6966 -4.1283 -0.0826
 3308SOL     OW10501   1.284   0.444   8.609  0.3732  0.5359 -0.2972
 3308SOL    HW110502   1.295   0.481   8.697  1.7235 -1.4110  0.4207
 3308SOL    HW210503   1.290   0.519   8.550 -2.8151  2.2448  1.3128
 3309SOL     OW10504   2.952   7.209   5.187 -0.5324 -0.0837  0.1485
 3309SOL    HW110505   2.867   7.234   5.152 -0.5659  0.1270  0.3751
 3309SOL    HW210506   3.012   7.276   5.155 -0.5926  0.2040  0.6209
 3310SOL     OW10507   7.796   3.180   7.023  0.4473 -0.6600 -0.3566
 3310SOL    HW110508   7.703   3.156   7.014  0.1154 -0.4059  1.7450
 3310SOL    HW210509   7.797   3.275   7.012  0.5716 -0.7306 -0.9979
 3311SOL     OW10510   9.876   3.517   5.750 -0.3357 -0.6073  0.2265
 3311SOL    HW110511   9.929   3.542   5.674 -0.4223 -1.0147  0.0301
 3311SOL    HW210512   9.915   3.564   5.823 -1.3048  1.2147 -0.3413
 3312SOL     OW10513   4.802   5.932   3.888 -0.4673 -0.1681 -0.0481
 3312SOL    HW110514   4.886   5.903   3.853  0.0114 -1.0817  1.7753
 3312SOL    HW210515   4.746   5.854   3.885 -0.6711 -0.0476  0.4355
 3313SOL     OW10516   1.112   9.849   4.596  0.0346 -0.5745 -0.0027
 3313SOL    HW110517   1.023   9.823   4.572  0.1125 -1.3792  0.5524
 3313SOL    HW210518   1.167   9.815   4.525 -0.1939  0.8539 -0.9060
 3314SOL     OW10519   6.017   5.662   0.085 -0.2372 -0.8696  0.2324
 3314SOL    HW110520   6.073   5.738   0.071 -0.0045 -1.2491 -1.0771
 3314SOL    HW210521   5.930   5.690   0.059 -0.6744 -0.3143  2.1627
 3315SOL     OW10522   8.223   3.002   0.913  0.4105 -0.1267 -0.3861
 3315SOL    HW110523   8.230   3.070   0.980  1.5122 -0.9896  0.4172
 3315SOL    HW210524   8.178   2.929   0.957  0.5436 -0.4588 -0.7913
 3316SOL     OW10525   3.330   6.271   2.025 -0.0920 -0.2630 -0.2248
 3316SOL    HW110526   3.305   6.235   2.110 -1.2755  0.7281 -0.1319
 3316SOL    HW210527   3.424   6.290   2.035  0.3218 -2.2052  0.0826
 3317SOL     OW10528   6.051   7.626   4.102 -0.9466 -0.3179 -0.4196
 3317SOL    HW110529   6.082   7.542   4.136  0.0359  0.1824 -0.0125
 3317SOL    HW210530   5.971   7.645   4.151 -0.9833 -0.8536 -0.2733
 3318SOL     OW10531   1.242   4.257   3.804 -0.1691  0.1186 -0.6166
 3318SOL    HW110532   1.303   4.188   3.778 -1.2898 -1.0045 -0.3544
 3318SOL    HW210533   1.209   4.229   3.889 -2.2917 -0.1879 -1.4734
 3319SOL     OW10534   2.644   4.977   1.739  0.0532 -0.2041 -0.6586
 3319SOL    HW110535   2.595   4.894   1.741  1.1641 -0.9077  2.1771
 3319SOL    HW210536   2.578   5.044   1.755 -0.5544 -0.7505 -0.8252
 3320SOL     OW10537   9.167   5.798   8.607  0.6916 -0.6018 -0.1920
 3320SOL    HW110538   9.142   5.872   8.551 -0.1090 -1.4853 -1.0554
 3320SOL    HW210539   9.181   5.726   8.546 -3.5520 -2.5766  0.8044
 3321SOL     OW10540   3.674   8.651   6.298  0.0982 -0.1470  1.1123
 3321SOL    HW110541   3.611   8.719   6.320 -0.5828 -0.4735  0.2644
 3321SOL    HW210542   3.723   8.686   6.223 -0.5475 -0.7322  0.3940
 3322SOL     OW10543   1.954   6.057   9.032 -0.1724  0.0552  0.1781
 3322SOL    HW110544   2.029   5.999   9.046  0.3301  0.8529  0.8705
 3322SOL    HW210545   1.985   6.122   8.968 -1.9885 -2.6876 -3.8944
 3323SOL     OW10546   3.199   1.656   6.081 -0.2936  0.3910  0.0684
 3323SOL    HW110547   3.116   1.610   6.096 -0.4961  1.1158  1.3134
 3323SOL    HW210548   3.241   1.607   6.011 -1.4581 -0.4148 -0.0955
 3324SOL     OW10549   4.378   3.001   4.006  0.3411  0.2932  0.0530
 3324SOL    HW110550   4.342   3.068   3.949  1.5260  0.2307 -0.8050
 3324SOL    HW210551   4.467   3.032   4.026  0.5189 -0.4886  0.5248
 3325SOL     OW10552   6.160   4.221   5.174  0.5827  0.2025 -0.1684
 3325SOL    HW110553   6.174   4.199   5.266 -1.9619  0.8261  0.4521
 3325SOL    HW210554   6.241   4.262   5.146  1.4616 -0.1316  1.7556
 3326SOL     OW10555   7.194   0.176   0.320 -0.5657  0.3377 -0.3751
 3326SOL    HW110556   7.255   0.237   0.280 -1.0976  0.8267 -0.4635
 3326SOL    HW210557   7.107   0.207   0.292 -0.9605  0.7329  1.1854
 3327SOL     OW10558   2.074   2.272   8.521 -0.0154  0.0122 -0.0831
 3327SOL    HW110559   2.089   2.366   8.525  1.1199 -0.2038  2.5737
 3327SOL    HW210560   1.987   2.260   8.560 -0.4087 -0.0479 -0.9347
 3328SOL     OW10561   7.848   7.569   3.998  0.0568  0.3269  0.9186
 3328SOL    HW110562   7.798   7.644   3.966 -1.0153 -0.3578  0.9475
 3328SOL    HW210563   7.876   7.594   4.086  0.3279  0.9693  0.6554
 3329SOL     OW10564   2.605   0.408   9.325  0.2088  0.2238  0.0623
 3329SOL    HW110565   2.606   0.468   9.249 -0.4481  1.1426  0.7544
 3329SOL    HW210566   2.687   0.360   9.318 -0.5487 -0.9005 -2.1433
 3330SOL     OW10567   3.710   4.602   3.281  0.2045 -0.1512 -0.3188
 3330SOL    HW110568   3.779   4.586   3.345  0.3407 -0.3473 -0.5154
 3330SOL    HW210569   3.744   4.673   3.227 -0.0168  0.1901 -0.0213
 3331SOL     OW10570   4.148   6.868   8.545 -0.5901  0.5320  0.5114
 3331SOL    HW110571   4.175   6.778   8.529 -2.5611 -0.7020  3.3177
 3331SOL    HW210572   4.188   6.890   8.629 -2.2062  1.3067  1.1081
 3332SOL     OW10573   5.739  10.002   0.409 -0.0627  0.2848 -0.3213
 3332SOL    HW110574   5.657   9.998   0.457  0.0497  0.7447 -0.0821
 3332SOL    HW210575   5.754   9.913   0.378 -0.5011  0.1403 -0.1152
 3333SOL     OW10576   3.445   9.050   9.189  0.3978  0.2125  0.3786
 3333SOL    HW110577   3.455   9.013   9.101  0.8767  1.9943 -0.3731
 3333SOL    HW210578   3.528   9.030   9.233  0.3279 -0.3161  0.2766
 3334SOL     OW10579   3.573   2.278   2.974 -0.1834  0.3374 -0.3333
 3334SOL    HW110580   3.495   2.281   2.919 -0.9345 -1.2874  0.5873
 3334SOL    HW210581   3.540   2.278   3.064  0.7413 -1.9111  0.0780
 3335SOL     OW10582   1.515   5.744   2.106  0.1947  0.1118 -0.3012
 3335SOL    HW110583   1.467   5.680   2.158  1.2784 -0.8941 -0.4888
 3335SOL    HW210584   1.456   5.765   2.033  0.6675 -2.4949 -1.5645
 3336SOL     OW10585   1.369   7.499   1.910 -0.4710 -0.3608 -0.0656
 3336SOL    HW110586   1.394   7.435   1.843 -0.6179  0.5686 -1.0445
 3336SOL    HW210587   1.447   7.507   1.965 -0.5825 -1.6539  0.3118
 3337SOL     OW10588   4.249   9.288   7.168 -0.4303 -0.3693 -0.3887
 3337SOL    HW110589   4.190   9.274   7.242 -1.7281 -1.5326 -1.5878
 3337SOL    HW210590   4.266   9.200   7.134  0.8568  0.0731 -0.9570
 3338SOL     OW10591   1.383   0.893   8.656 -0.3743  0.0257  0.5841
 3338SOL    HW110592   1.419   0.828   8.595  1.4161 -0.2994  1.9018
 3338SOL    HW210593   1.294   0.863   8.673 -1.2691  0.6295 -2.5010
 3339SOL     OW10594   0.953   3.592   3.259 -0.2849  0.6283 -0.0573
 3339SOL    HW110595   0.892   3.660   3.289 -1.0712 -0.4735  0.9862
 3339SOL    HW210596   0.938   3.519   3.319  1.9274  0.2170  0.0750
 3340SOL     OW10597   7.383   0.672   4.767  0.3519 -0.4291 -0.6093
 3340SOL    HW110598   7.307   0.730   4.770  1.3750  0.9325  0.0075
 3340SOL    HW210599   7.430   0.689   4.848  1.5256 -0.9620 -1.1411
 3341SOL     OW10600   7.817   7.728   7.426 -0.0435  0.0620  0.6076
 3341SOL    HW110601   7.873   7.796   7.389  1.5091 -1.9558 -0.9684
 3341SOL    HW210602   7.784   7.680   7.350 -0.6361 -1.3179  1.6895
 3342SOL     OW10603   3.894   6.259   5.808 -0.1364 -0.0994  0.0142
 3342SOL    HW110604   3.988   6.242   5.813 -0.2818 -1.1677 -0.5003
 3342SOL    HW210605   3.885   6.324   5.739  0.1187 -1.1762 -1.0728
 3343SOL     OW10606   1.161   3.431   5.055 -0.2689  0.1505 -0.0437
 3343SOL    HW110607   1.148   3.385   5.138 -3.5251  0.1129 -0.4695
 3343SOL    HW210608   1.172   3.522   5.079  2.1242 -0.2080  0.5345
 3344SOL     OW10609   1.674   1.949   8.938 -0.5430  0.1914  0.3346
 3344SOL    HW110610   1.680   2.002   9.017 -0.4718  0.8707 -0.1218
 3344SOL    HW210611   1.639   1.865   8.968  0.4814  0.0782  1.2455
 3345SOL     OW10612   4.052   0.376   2.163 -0.0379 -0.2673  0.1145
 3345SOL    HW110613   4.091   0.423   2.090  0.7936 -1.0788  0.0118
 3345SOL    HW210614   4.058   0.284   2.138 -4.4744 -0.4300 -1.1345
 3346SOL     OW10615   4.372   8.166   4.405  0.7442  0.2293 -0.1963
 3346SOL    HW110616   4.348   8.187   4.315 -1.3587  1.3413  0.5710
 3346SOL    HW210617   4.310   8.099   4.432  1.7980 -0.6108  0.2358
 3347SOL     OW10618   2.307   2.667   0.426 -0.2019 -0.0709 -0.1039
 3347SOL    HW110619   2.228   2.663   0.371  1.5751  1.5203 -3.0018
 3347SOL    HW210620   2.344   2.754   0.408  1.9873 -0.6049  1.5044
 3348SOL     OW10621   6.469   6.570   7.935 -0.0303 -0.3791  0.1409
 3348SOL    HW110622   6.537   6.637   7.938 -0.2269  0.1986 -3.5348
 3348SOL    HW210623   6.511   6.496   7.890  0.2349 -2.9826  4.2053
 3349SOL     OW10624   5.370   2.602   7.596 -0.2462 -0.0515 -0.5038
 3349SOL    HW110625   5.367   2.507   7.593 -0.0292 -0.1402  1.0229
 3349SOL    HW210626   5.450   2.625   7.548 -0.3026 -0.6243 -0.8839
 3350SOL     OW10627   7.912   7.789   9.118  0.3215  0.0559  0.5759
 3350SOL    HW110628   7.882   7.745   9.039  1.8083  0.1768 -0.0868
 3350SOL    HW210629   7.834   7.831   9.153 -0.3041  0.2757 -1.0001
 3351SOL     OW10630   8.756   4.015   7.682  0.1253 -0.1714  0.0581
 3351SOL    HW110631   8.833   4.061   7.716 -0.5814  0.7896  0.4065
 3351SOL    HW210632   8.761   4.026   7.587  0.4251 -0.1350  0.0767
 3352SOL     OW10633   6.363   8.896   7.669 -0.6778  0.0587  0.5480
 3352SOL    HW110634   6.335   8.806   7.656 -1.0825  0.2570  0.0221
 3352SOL    HW210635   6.456   8.889   7.693 -0.3264 -0.4334 -0.8280
 3353SOL     OW10636   9.956   3.753   0.847  0.0495  0.0329  0.2673
 3353SOL    HW110637   9.973   3.691   0.776 -1.4995 -1.5032  1.1891
 3353SOL    HW210638   9.972   3.703   0.927 -1.1091  0.8608  1.0355
 3354SOL     OW10639   9.225   2.887   6.015 -0.1559  0.0488 -0.3192
 3354SOL    HW110640   9.196   2.826   5.947 -0.4755 -0.4217  0.2308
 3354SOL    HW210641   9.221   2.973   5.973 -0.6242 -0.2025 -0.8076
 3355SOL     OW10642   3.020   0.611   7.288  0.2119 -0.0389 -0.3209
 3355SOL    HW110643   3.036   0.604   7.382 -1.0212 -0.5427 -0.1249
 3355SOL    HW210644   3.106   0.604   7.248  0.9750  1.9183  0.8384
 3356SOL     OW10645   9.894   2.267   0.354  0.1754  0.1135  0.2947
 3356SOL    HW110646   9.814   2.218   0.371 -0.0549  0.6902  0.9211
 3356SOL    HW210647   9.877   2.316   0.274 -0.3035  0.6455  0.7124
 3357SOL     OW10648   3.718   9.895   0.992 -0.1076 -0.6759  0.1080
 3357SOL    HW110649   3.770   9.943   0.928 -0.0600 -0.9744 -0.0769
 3357SOL    HW210650   3.773   9.892   1.070  1.1973 -3.0574 -0.7967
 3358SOL     OW10651   2.660   2.591   9.136 -0.0546 -0.1059  0.8617
 3358SOL    HW110652   2.612   2.510   9.117 -2.5829  1.1339  1.4721
 3358SOL    HW210653   2.743   2.562   9.173  0.2193 -2.4123 -1.3111
 3359SOL     OW10654   3.710   1.950   1.546  0.1107  0.7452 -0.2025
 3359SOL    HW110655   3.737   2.012   1.614 -0.6462  0.5671  0.2794
 3359SOL    HW210656   3.648   1.892   1.590 -0.5777  0.7768 -1.0998
 3360SOL     OW10657   6.980   8.901   3.685  0.6135 -0.1606  0.5983
 3360SOL    HW110658   7.013   8.945   3.763  1.0236  0.3983  0.1237
 3360SOL    HW210659   7.032   8.938   3.613  0.2649 -0.6835  0.0673
 3361SOL     OW10660   3.351   4.416   5.567  0.2490  0.7566 -0.2868
 3361SOL    HW110661   3.414   4.412   5.495  1.3942 -1.1258  0.7436
 3361SOL    HW210662   3.365   4.335   5.616 -0.9761  1.6511  1.6703
 3362SOL     OW10663   2.740   0.107   8.626  0.0057  0.3906  0.1790
 3362SOL    HW110664   2.654   0.149   8.619 -0.2290 -0.2021 -0.5403
 3362SOL    HW210665   2.720   0.014   8.632  0.6225  0.1944 -0.6911
 3363SOL     OW10666   2.012   4.772   4.329 -0.1954  0.4859  0.4146
 3363SOL    HW110667   2.036   4.683   4.304 -0.3382  0.4128  0.5287
 3363SOL    HW210668   2.013   4.821   4.248  1.1641  0.6861  0.5344
 3364SOL     OW10669   5.997   2.953   2.246 -0.2683  0.8087 -0.6093
 3364SOL    HW110670   6.055   3.021   2.214 -0.5829  1.6690  0.6030
 3364SOL    HW210671   5.928   2.947   2.179 -0.3826  1.8750 -0.6048
 3365SOL     OW10672   6.970   8.183   7.807  0.0910  0.2834 -0.1139
 3365SOL    HW110673   7.019   8.101   7.807 -0.9125 -0.3299 -0.2057
 3365SOL    HW210674   6.882   8.159   7.836  0.1414  1.5637  1.1785
 3366SOL     OW10675   2.875   1.368   8.942  0.2445  1.0748  0.9494
 3366SOL    HW110676   2.795   1.316   8.949  0.8696 -0.3673 -1.4589
 3366SOL    HW210677   2.936   1.326   9.003 -0.3637  1.3329  1.7655
 3367SOL     OW10678   1.764   0.684   9.180 -0.0663 -0.9446 -0.0982
 3367SOL    HW110679   1.797   0.640   9.102  0.9119  0.1116 -0.3105
 3367SOL    HW210680   1.696   0.626   9.214 -1.5209 -0.8054 -2.4908
 3368SOL     OW10681   9.103   2.974   8.386 -0.1272 -0.0843  0.3504
 3368SOL    HW110682   9.074   2.883   8.398 -0.4040  0.0873  0.9969
 3368SOL    HW210683   9.185   2.979   8.436 -0.0214 -0.0244  0.1714
 3369SOL     OW10684   0.710   3.369   2.430  0.2327  0.0624  0.2729
 3369SOL    HW110685   0.785   3.311   2.420 -0.8925 -1.2660 -0.6328
 3369SOL    HW210686   0.733   3.423   2.506  2.4978  0.3446 -0.5243
 3370SOL     OW10687   9.515   3.396   1.355 -0.2261 -0.0115  0.3537
 3370SOL    HW110688   9.605   3.425   1.372  0.1624 -0.8426 -0.2451
 3370SOL    HW210689   9.522   3.302   1.339 -1.3035 -0.2223  1.0188
 3371SOL     OW10690   6.597   9.010   3.416  0.5523 -0.0566 -0.1041
 3371SOL    HW110691   6.664   9.075   3.438  2.1907 -1.6262 -0.2388
 3371SOL    HW210692   6.526   9.061   3.377  1.5235  1.7029  0.3194
 3372SOL     OW10693   8.030   3.309   2.512  0.4466  0.0943  0.2976
 3372SOL    HW110694   8.028   3.224   2.556 -1.1228 -0.1180 -0.1289
 3372SOL    HW210695   7.962   3.360   2.555  1.5573  1.2526  0.7336
 3373SOL     OW10696   3.980   9.229   8.258 -0.5764  0.6866  0.2595
 3373SOL    HW110697   3.940   9.290   8.321 -0.9699 -0.0187  0.6987
 3373SOL    HW210698   3.980   9.277   8.175  0.6845  1.9467  0.9441
 3374SOL     OW10699   8.104   1.245   7.205 -0.1426  0.0505 -0.1990
 3374SOL    HW110700   8.087   1.254   7.111 -1.4443 -1.5061 -0.1560
 3374SOL    HW210701   8.021   1.214   7.241  0.4350  0.3140  1.4369
 3375SOL     OW10702   4.112   1.424   3.006 -0.3956 -0.9829  0.2017
 3375SOL    HW110703   4.029   1.444   2.963 -0.1093  1.1934  0.5469
 3375SOL    HW210704   4.088   1.370   3.081 -1.7058  0.6221  1.0119
 3376SOL     OW10705   7.395   8.848   4.671 -0.3873  0.4668  0.3082
 3376SOL    HW110706   7.371   8.881   4.585 -0.9719  0.5507  0.5013
 3376SOL    HW210707   7.491   8.847   4.671 -0.3861  0.5027 -0.3256
 3377SOL     OW10708   1.001   8.195   4.939  0.1864 -0.0773 -0.0583
 3377SOL    HW110709   0.964   8.107   4.937  0.8754 -0.3679 -1.1748
 3377SOL    HW210710   1.010   8.215   5.032  1.3063 -1.7743  0.2570
 3378SOL     OW10711   1.695   1.984   8.576 -0.3353 -0.4048  0.2888
 3378SOL    HW110712   1.657   1.899   8.596 -0.5948 -0.5745 -0.8697
 3378SOL    HW210713   1.665   2.005   8.488 -0.4767  1.0108  0.6390
 3379SOL     OW10714   1.772   9.874   8.523 -0.4613 -0.2024  0.2992
 3379SOL    HW110715   1.821   9.915   8.594  2.0925  0.1660 -1.5253
 3379SOL    HW210716   1.720   9.945   8.485  1.4165  0.6957 -0.7641
 3380SOL     OW10717   4.329   4.038   4.963  0.2894 -0.1200  0.0011
 3380SOL    HW110718   4.261   3.984   4.923 -0.8162  1.4547 -0.3807
 3380SOL    HW210719   4.345   4.107   4.898  0.7479  0.7097  0.9702
 3381SOL     OW10720   9.201   7.442   4.599  0.3135  0.4157  0.3648
 3381SOL    HW110721   9.159   7.508   4.545  0.0554  0.6576  0.8523
 3381SOL    HW210722   9.209   7.483   4.685  1.9828  0.5700  0.1816
 3382SOL     OW10723   0.557   4.453   1.607 -0.3013  0.6664  0.5279
 3382SOL    HW110724   0.587   4.543   1.624  1.1008  0.2987  0.0958
 3382SOL    HW210725   0.525   4.455   1.517 -1.0975  0.9213  0.8032
 3383SOL     OW10726   2.549   9.881   4.369 -0.3341  0.9453  0.0477
 3383SOL    HW110727   2.595   9.847   4.292 -0.7997  0.5763 -0.0676
 3383SOL    HW210728   2.470   9.922   4.334 -0.2874  1.2476  0.2838
 3384SOL     OW10729   3.220   1.716   3.969  0.3101 -0.3387 -0.1644
 3384SOL    HW110730   3.139   1.759   3.939  0.2484  0.2676  0.8150
 3384SOL    HW210731   3.290   1.764   3.925  0.2061  0.2805  0.3350
 3385SOL     OW10732   6.807   8.954   1.063  0.5335  0.3373  0.4705
 3385SOL    HW110733   6.903   8.953   1.066  0.6043 -0.2518 -1.0561
 3385SOL    HW210734   6.783   8.861   1.068  0.1271  0.3709 -0.7089
 3386SOL     OW10735   5.916   9.393   6.341 -0.1237 -0.0054  0.2077
 3386SOL    HW110736   5.867   9.420   6.419  0.6973 -0.8547  1.0444
 3386SOL    HW210737   6.004   9.373   6.373  0.7811  1.3913 -1.2365
 3387SOL     OW10738   4.833   3.903   5.898  0.2142 -0.4144  0.6835
 3387SOL    HW110739   4.901   3.957   5.939  0.7962 -0.2165 -0.4922
 3387SOL    HW210740   4.777   3.966   5.853 -0.5174 -0.6145  1.3017
 3388SOL     OW10741   3.228   4.687   7.887  0.6424 -0.1763 -0.1609
 3388SOL    HW110742   3.299   4.718   7.943  0.1685  1.1485 -0.2734
 3388SOL    HW210743   3.159   4.661   7.948  0.9886 -0.9325 -0.0731
 3389SOL     OW10744   7.225   7.082   1.295  0.3444  0.2878 -0.6891
 3389SOL    HW110745   7.306   7.040   1.324 -0.1081 -0.5418 -0.6108
 3389SOL    HW210746   7.164   7.070   1.369  0.3823  1.6033 -0.4215
 3390SOL     OW10747   2.508   1.387   0.032  0.1359 -0.2283  0.7959
 3390SOL    HW110748   2.435   1.340   0.072 -0.1347  0.2814  0.9174
 3390SOL    HW210749   2.499   1.369  -0.062  0.0669 -0.4589  0.8455
 3391SOL     OW10750   4.752   7.437   1.667 -0.3651 -0.0953  0.3657
 3391SOL    HW110751   4.773   7.436   1.573 -0.4199  1.2814  0.3098
 3391SOL    HW210752   4.832   7.470   1.709 -0.6566  0.1796  0.7066
 3392SOL     OW10753   8.014   9.587   0.980  0.2612 -0.4899 -0.0960
 3392SOL    HW110754   8.103   9.568   1.008  0.1423 -1.5352 -0.3687
 3392SOL    HW210755   8.014   9.572   0.886 -0.1337 -0.1985 -0.1457
 3393SOL     OW10756   6.920   3.710   3.807 -0.2614  0.1079  0.3375
 3393SOL    HW110757   6.856   3.769   3.849  0.7538  0.6634  1.1653
 3393SOL    HW210758   6.966   3.766   3.744 -0.2475 -0.1511  0.1202
 3394SOL     OW10759   7.395   1.997   0.336  0.2065 -0.1400  0.8320
 3394SOL    HW110760   7.303   1.978   0.350 -0.1911 -0.9814 -2.1523
 3394SOL    HW210761   7.436   1.911   0.325  0.7032  0.2835 -0.9448
 3395SOL     OW10762   8.727   2.991   0.350 -0.0301  0.8529 -0.2443
 3395SOL    HW110763   8.738   3.084   0.370  0.5687  0.6672  0.3491
 3395SOL    HW210764   8.763   2.981   0.262 -0.2969  1.2207 -0.3958
 3396SOL     OW10765   1.002   9.763   8.482  0.6481  0.3807 -0.0118
 3396SOL    HW110766   0.942   9.739   8.412 -0.2725 -0.4783  1.0296
 3396SOL    HW210767   1.051   9.683   8.501  1.2597  0.7459 -0.0094
 3397SOL     OW10768   1.864   2.948   2.220 -0.1088 -0.2671 -0.0239
 3397SOL    HW110769   1.771   2.965   2.203  0.0633 -0.7713 -1.7268
 3397SOL    HW210770   1.867   2.857   2.248 -0.1360 -0.2540  0.0208
 3398SOL     OW10771   9.682   2.270   3.846 -0.0518 -0.0490 -0.1365
 3398SOL    HW110772   9.667   2.232   3.760 -0.0208  0.8671 -0.5548
 3398SOL    HW210773   9.594   2.286   3.880 -0.0806  1.5979 -0.9163
 3399SOL     OW10774   1.683   6.733   8.923 -0.3058 -0.0211  0.1952
 3399SOL    HW110775   1.737   6.663   8.886 -0.0672  0.0614  0.3876
 3399SOL    HW210776   1.680   6.714   9.017 -1.7788 -0.8317  0.0153
 3400SOL     OW10777   7.897   9.623   7.146 -0.0419 -0.7206  0.0796
 3400SOL    HW110778   7.862   9.559   7.084 -1.0258 -0.0425 -0.1016
 3400SOL    HW210779   7.836   9.697   7.140 -0.0288 -0.5450  1.6745
 3401SOL     OW10780   9.482   4.533   1.619  0.1550  0.1251  0.5514
 3401SOL    HW110781   9.541   4.577   1.680 -0.1992  0.0341  0.9640
 3401SOL    HW210782   9.440   4.605   1.571  0.0928  0.2141  0.7371
 3402SOL     OW10783   1.357   7.366   5.718  0.0616 -0.2118  0.1727
 3402SOL    HW110784   1.424   7.303   5.746  1.7159  0.2460 -2.3484
 3402SOL    HW210785   1.343   7.422   5.794  3.2056  0.1624  0.6150
 3403SOL     OW10786   4.720   9.851   6.088  0.0040  0.3230  0.6183
 3403SOL    HW110787   4.783   9.920   6.109  1.2777  0.1544 -2.2178
 3403SOL    HW210788   4.763   9.771   6.117  1.3578  0.1730 -1.6126
 3404SOL     OW10789   8.092   8.856   8.909  0.0773 -0.7215 -0.3683
 3404SOL    HW110790   8.183   8.855   8.879  0.3141  0.0159  0.2727
 3404SOL    HW210791   8.095   8.810   8.993 -0.0558 -0.3632 -0.1616
 3405SOL     OW10792   9.837   8.430   0.184  0.6656 -0.2644 -0.0496
 3405SOL    HW110793   9.887   8.371   0.241  2.5271 -0.6696 -1.9622
 3405SOL    HW210794   9.746   8.402   0.194  1.1249 -1.3826  1.4295
 3406SOL     OW10795   1.477   7.317   8.977 -0.0907  0.1042 -0.0858
 3406SOL    HW110796   1.403   7.285   9.030 -1.0100  1.2065 -0.6615
 3406SOL    HW210797   1.549   7.257   8.998 -1.4595 -1.7561 -0.3964
 3407SOL     OW10798   9.179   8.717   3.674 -0.1246 -0.2629  0.8973
 3407SOL    HW110799   9.089   8.698   3.702 -1.0433  0.2771 -1.3647
 3407SOL    HW210800   9.178   8.810   3.653  0.3620 -0.6454 -1.0160
 3408SOL     OW10801   1.720   3.110   3.276 -0.1242  0.4514  0.5650
 3408SOL    HW110802   1.748   3.156   3.196  0.9924 -0.1527  0.5929
 3408SOL    HW210803   1.630   3.083   3.257 -0.8498  2.6758  0.5667
 3409SOL     OW10804   0.012   2.247   1.712  0.1774 -0.0342 -0.6853
 3409SOL    HW110805   0.088   2.276   1.661  0.1937  0.7377 -0.2408
 3409SOL    HW210806   0.019   2.296   1.794  0.0624 -1.1376 -0.0058
 3410SOL     OW10807   5.739   8.174   7.837 -0.4697 -0.0483 -0.1373
 3410SOL    HW110808   5.693   8.218   7.766  0.9140  0.8645 -0.5122
 3410SOL    HW210809   5.735   8.236   7.910 -0.6009 -0.3429  0.1076
 3411SOL     OW10810   3.030   1.820   8.960  0.6851  0.5158  0.1139
 3411SOL    HW110811   2.962   1.753   8.950  0.9434 -0.1644  2.2700
 3411SOL    HW210812   3.111   1.770   8.969  0.7930  1.0083  2.5040
 3412SOL     OW10813   9.518   3.268   7.847  0.5096 -0.0584  0.3276
 3412SOL    HW110814   9.509   3.280   7.942  0.2554 -1.5792  0.5301
 3412SOL    HW210815   9.492   3.352   7.809 -0.4585  0.2294  1.5575
 3413SOL     OW10816   8.235   7.750   4.464 -0.2868 -0.0839 -0.2497
 3413SOL    HW110817   8.313   7.700   4.489 -0.5981 -0.1412  0.6654
 3413SOL    HW210818   8.215   7.804   4.541 -0.4410  0.8450 -0.9211
 3414SOL     OW10819   7.806   3.652   6.761  0.0792  0.4529  0.3343
 3414SOL    HW110820   7.739   3.603   6.713  0.2298  0.6286 -0.0528
 3414SOL    HW210821   7.807   3.738   6.720 -0.6530  1.0147  1.4315
 3415SOL     OW10822   5.965   5.319   3.576 -0.6407 -0.0503  0.1298
 3415SOL    HW110823   5.979   5.356   3.488  0.7523  1.1736  0.8385
 3415SOL    HW210824   5.994   5.387   3.636  0.1323 -1.5409  1.5334
 3416SOL     OW10825   7.531   0.245   3.785  0.3746 -0.1563 -0.3794
 3416SOL    HW110826   7.575   0.325   3.757 -1.8485 -0.0361 -4.3114
 3416SOL    HW210827   7.597   0.176   3.771  1.3468  0.6372  0.1544
 3417SOL     OW10828   9.535   6.419   4.671  0.2884  0.4320  0.0670
 3417SOL    HW110829   9.447   6.456   4.659 -0.8748 -2.3360 -0.7429
 3417SOL    HW210830   9.531   6.378   4.758  0.0836 -1.2873 -0.7105
 3418SOL     OW10831   4.308   6.786   0.291  0.6296 -0.1392  0.6209
 3418SOL    HW110832   4.399   6.815   0.285  0.1530  1.1848 -2.5587
 3418SOL    HW210833   4.271   6.809   0.206 -1.7824 -3.8039  0.4842
 3419SOL     OW10834   2.952   0.684   3.323 -0.4554  0.6259 -0.3418
 3419SOL    HW110835   2.974   0.777   3.319  0.2197  0.4417 -1.3325
 3419SOL    HW210836   2.861   0.680   3.295 -1.1694  1.1790  1.7272
 3420SOL     OW10837   5.158   2.554   5.415  0.1041  0.2831 -0.0554
 3420SOL    HW110838   5.197   2.511   5.492 -0.5719 -0.9690 -0.3871
 3420SOL    HW210839   5.072   2.583   5.446  0.9367  2.3833  0.4620
 3421SOL     OW10840   8.189   8.949   1.192 -0.6293 -0.1453  0.2457
 3421SOL    HW110841   8.251   8.943   1.264 -1.3881 -0.5718  0.8759
 3421SOL    HW210842   8.241   8.933   1.113 -0.1572 -1.7171  0.8572
 3422SOL     OW10843   2.829   2.481   8.454  0.5634  0.0793 -0.0288
 3422SOL    HW110844   2.923   2.495   8.458  0.5894 -0.2491  0.7775
 3422SOL    HW210845   2.805   2.502   8.364  1.6049 -1.0544 -0.5993
 3423SOL     OW10846   8.402   2.526   3.270 -0.5645 -0.5522 -0.0850
 3423SOL    HW110847   8.419   2.613   3.306 -0.7288 -0.3281 -0.5399
 3423SOL    HW210848   8.489   2.487   3.260 -0.2217  0.6053 -2.4387
 3424SOL     OW10849   6.209   5.848   7.930  0.4006 -0.1007  0.2158
 3424SOL    HW110850   6.272   5.864   7.859  1.3518 -0.9044  0.8659
 3424SOL    HW210851   6.143   5.917   7.918  0.2649 -0.5115 -1.7426
 3425SOL     OW10852   4.585   0.626   0.052 -0.2692 -0.5225 -0.1435
 3425SOL    HW110853   4.493   0.604   0.064 -0.6481  0.5520 -0.8858
 3425SOL    HW210854   4.594   0.712   0.093  0.4375 -0.6686  0.0231
 3426SOL     OW10855   1.121   3.129   2.337  0.2446 -0.2087 -0.3655
 3426SOL    HW110856   1.103   3.223   2.336 -0.7934 -0.3651 -2.6581
 3426SOL    HW210857   1.161   3.114   2.422  0.0963  2.2364  0.2315
 3427SOL     OW10858   1.911   4.432   3.422  0.3044 -0.0013  0.1292
 3427SOL    HW110859   1.956   4.428   3.507 -0.9941  0.1412  0.8458
 3427SOL    HW210860   1.829   4.478   3.440  0.1163  0.2644 -1.2654
 3428SOL     OW10861   8.700   5.611   1.904  0.7718  0.4238  0.4936
 3428SOL    HW110862   8.664   5.522   1.899 -0.4239  0.9067  0.0030
 3428SOL    HW210863   8.712   5.637   1.812  0.9328  0.8388  0.6279
 3429SOL     OW10864   7.235   9.355   0.089 -0.4846 -0.5156 -0.4405
 3429SOL    HW110865   7.213   9.381  -0.001  0.5160 -1.2742 -0.9208
 3429SOL    HW210866   7.186   9.274   0.102 -2.7126  0.8983  0.6634
 3430SOL     OW10867   7.090   2.987   9.100 -0.2691  0.4951  0.9914
 3430SOL    HW110868   7.163   2.928   9.120  0.2851  0.7520 -0.1896
 3430SOL    HW210869   7.119   3.072   9.133 -0.0565  0.5800  0.5962
 3431SOL     OW10870   7.713   3.484   5.571 -0.0778 -0.3754  0.3206
 3431SOL    HW110871   7.635   3.439   5.606 -0.1643 -0.9452 -0.5871
 3431SOL    HW210872   7.683   3.526   5.491 -0.1732  1.9351  1.4753
 3432SOL     OW10873   9.259   5.246   0.424  0.3050  0.0660  0.1231
 3432SOL    HW110874   9.261   5.273   0.332  0.3401 -0.6565 -0.0927
 3432SOL    HW210875   9.322   5.305   0.467  0.9259 -0.1477 -0.4680
 3433SOL     OW10876   7.689   6.061   0.911  0.2456  0.3506 -0.7538
 3433SOL    HW110877   7.741   6.081   0.989 -0.3751 -0.9533  0.0339
 3433SOL    HW210878   7.711   5.970   0.890 -2.4861 -0.6724  0.3174
 3434SOL     OW10879   1.199   9.028   9.701  0.6610 -0.1440 -0.1278
 3434SOL    HW110880   1.256   9.099   9.732 -0.2334  0.6810 -0.3204
 3434SOL    HW210881   1.185   8.973   9.778  0.5677  0.4408  0.2808
 3435SOL     OW10882   8.493   4.776   4.738 -0.0184 -0.3597 -0.2510
 3435SOL    HW110883   8.406   4.768   4.697  0.1017  0.3030 -0.6562
 3435SOL    HW210884   8.475   4.804   4.828 -0.2028  0.4799 -0.5447
 3436SOL     OW10885   4.148   0.330   3.784 -0.4639  0.4759 -0.0477
 3436SOL    HW110886   4.237   0.302   3.761 -0.2908  0.8388  0.1791
 3436SOL    HW210887   4.139   0.308   3.876 -1.2514 -1.2145 -0.4996
 3437SOL     OW10888   8.238   5.461   9.012 -0.0688  0.4821  0.0991
 3437SOL    HW110889   8.178   5.529   8.979 -0.5386  0.5684  1.0701
 3437SOL    HW210890   8.194   5.428   9.091  0.4701 -0.5001 -0.0026
 3438SOL     OW10891   3.531   8.304   2.705 -0.7385 -0.0984  0.3231
 3438SOL    HW110892   3.529   8.399   2.695  0.5746 -0.1777 -1.0771
 3438SOL    HW210893   3.601   8.288   2.769 -0.2265 -0.1457 -0.2356
 3439SOL     OW10894   1.623   8.588   0.546 -0.0229  0.5468 -0.4723
 3439SOL    HW110895   1.621   8.677   0.581 -0.2313  1.5618 -2.8988
 3439SOL    HW210896   1.635   8.532   0.623  0.3139  2.6671  1.0875
 3440SOL     OW10897   2.945   6.550   5.668  0.4977 -0.0149  0.0804
 3440SOL    HW110898   2.860   6.575   5.703 -0.2032  0.3278 -1.8022
 3440SOL    HW210899   2.930   6.531   5.576  2.2429 -1.1116 -0.0353
 3441SOL     OW10900   1.789   3.718   6.861  0.6699  0.1829  0.2670
 3441SOL    HW110901   1.858   3.700   6.798 -2.0137 -0.2790 -2.7943
 3441SOL    HW210902   1.765   3.632   6.896 -0.2655 -0.0688 -0.9274
 3442SOL     OW10903   6.251   2.785   4.493  0.1175 -0.0748 -0.4882
 3442SOL    HW110904   6.179   2.798   4.555  2.7872  1.2643  2.6639
 3442SOL    HW210905   6.278   2.873   4.469  2.5900 -0.3637  0.9274
 3443SOL     OW10906   4.778   3.751   5.540 -0.7923 -0.4043 -0.1793
 3443SOL    HW110907   4.757   3.801   5.461 -0.2939  1.4626  0.8096
 3443SOL    HW210908   4.798   3.817   5.606  2.7400 -1.9253  0.4873
 3444SOL     OW10909   4.206   5.384   3.098 -0.4284 -0.4467 -0.1724
 3444SOL    HW110910   4.298   5.410   3.098 -0.7567  0.8517  1.1019
 3444SOL    HW210911   4.200   5.317   3.166 -0.6206  0.3055  0.5639
 3445SOL     OW10912   6.288   0.836   0.872 -0.1802 -0.3746 -0.0928
 3445SOL    HW110913   6.355   0.879   0.925 -0.1705 -0.4748 -0.0241
 3445SOL    HW210914   6.308   0.743   0.878 -2.3898 -0.7812  2.8427
 3446SOL     OW10915   4.961   1.996   2.759 -0.3184 -0.3011 -0.0451
 3446SOL    HW110916   5.036   2.004   2.700  0.4156 -0.5591  0.8171
 3446SOL    HW210917   4.986   2.047   2.836  0.2663 -2.7539  1.4870
 3447SOL     OW10918   5.592   4.455   8.847 -0.0937 -0.1867  0.1362
 3447SOL    HW110919   5.515   4.442   8.792  0.0110 -0.4714  0.0556
 3447SOL    HW210920   5.652   4.506   8.793 -0.2505  0.0893  0.2215
 3448SOL     OW10921   5.162   9.446   7.229  0.2610 -0.1311  0.0105
 3448SOL    HW110922   5.113   9.372   7.265  1.1428 -0.4050  0.6854
 3448SOL    HW210923   5.209   9.408   7.154 -0.3548  0.0743 -0.4856
 3449SOL     OW10924   7.458   7.662   4.013 -0.3495 -0.4427 -0.1015
 3449SOL    HW110925   7.521   7.671   4.084 -0.9906  2.0468  0.2566
 3449SOL    HW210926   7.450   7.568   3.999  0.8731 -0.9373  2.1277
 3450SOL     OW10927   3.029   7.714   1.387  0.3900 -0.0449  0.0898
 3450SOL    HW110928   3.069   7.763   1.459 -2.0781  0.6538  1.1008
 3450SOL    HW210929   2.997   7.781   1.327  0.0364 -0.5311 -0.2678
 3451SOL     OW10930   5.540   1.939   4.281  0.5683  0.2393 -0.1821
 3451SOL    HW110931   5.482   1.899   4.216  1.7368 -1.6003 -0.1635
 3451SOL    HW210932   5.600   1.868   4.307  1.7471  1.6097  1.0248
 3452SOL     OW10933   6.809   0.362   5.568 -0.0359 -0.4621  0.3971
 3452SOL    HW110934   6.824   0.456   5.566 -1.1863 -0.2478  0.8078
 3452SOL    HW210935   6.724   0.351   5.524 -0.0495 -1.2679  0.6101
 3453SOL     OW10936   8.518   0.800   6.844  0.0997 -0.3467  0.0082
 3453SOL    HW110937   8.572   0.871   6.810  0.7418 -0.5716  0.5387
 3453SOL    HW210938   8.568   0.764   6.917  0.8524 -2.7591 -1.5773
 3454SOL     OW10939   6.623   3.162   8.756  0.3272  0.0926 -0.4853
 3454SOL    HW110940   6.565   3.162   8.832  0.9890  0.9495  0.0317
 3454SOL    HW210941   6.665   3.076   8.758  0.5282  0.2023  0.2679
 3455SOL     OW10942   1.395   5.194   8.417 -0.1365  0.5203  0.2164
 3455SOL    HW110943   1.455   5.228   8.483  0.6618 -1.1722  0.4387
 3455SOL    HW210944   1.308   5.220   8.447  0.1617 -0.6249  2.2418
 3456SOL     OW10945   9.605   3.103   4.036 -0.5506  0.4435 -0.1303
 3456SOL    HW110946   9.545   3.151   3.979 -0.5411  0.5913 -0.0180
 3456SOL    HW210947   9.549   3.067   4.105 -0.3366  1.7627  0.7677
 3457SOL     OW10948   2.009   1.711   8.468 -0.2501  0.2125  0.4787
 3457SOL    HW110949   1.998   1.669   8.383  0.2114 -1.1681  1.0594
 3457SOL    HW210950   1.988   1.642   8.531  1.9271  0.4007  1.4988
 3458SOL     OW10951   2.715   4.798   2.378 -0.6165  0.1887  0.5216
 3458SOL    HW110952   2.703   4.720   2.433 -0.8623 -0.6695 -0.7060
 3458SOL    HW210953   2.807   4.821   2.389 -0.3250 -0.7919  0.2460
 3459SOL     OW10954   9.459   5.561   1.165 -0.3784 -0.3824 -0.6664
 3459SOL    HW110955   9.489   5.494   1.104 -0.7730  0.8745 -2.3129
 3459SOL    HW210956   9.364   5.557   1.161 -0.4083  0.1683 -0.6876
 3460SOL     OW10957   7.793   4.689   4.569 -0.7048 -0.2934 -0.2813
 3460SOL    HW110958   7.780   4.607   4.520 -0.5380  0.1014 -1.0054
 3460SOL    HW210959   7.747   4.755   4.517 -0.4181  0.1597  0.0328
 3461SOL     OW10960   5.190   9.099   0.837 -0.2140  0.3152 -0.1712
 3461SOL    HW110961   5.154   9.029   0.891  0.5448 -0.0246 -0.0986
 3461SOL    HW210962   5.210   9.057   0.753 -0.9135  0.7278 -0.5563
 3462SOL     OW10963   8.830   1.720   2.471  0.2869 -0.2891  0.3708
 3462SOL    HW110964   8.759   1.778   2.498  1.4378  0.2648  2.4524
 3462SOL    HW210965   8.788   1.637   2.452 -0.9167 -0.0549  1.8153
 3463SOL     OW10966   8.137   3.731   2.486 -0.0459  0.3817  0.1681
 3463SOL    HW110967   8.205   3.664   2.477 -0.6332  0.0278 -2.6318
 3463SOL    HW210968   8.164   3.800   2.425 -0.0242  2.2490  2.1903
 3464SOL     OW10969   7.795   9.801   8.365  0.0976 -0.3648  0.1131
 3464SOL    HW110970   7.865   9.864   8.382 -0.7727  1.5430 -2.7152
 3464SOL    HW210971   7.716   9.843   8.400 -0.4655  0.0954 -1.6453
 3465SOL     OW10972   6.608   4.498   3.016  0.2342 -0.2504 -0.3632
 3465SOL    HW110973   6.530   4.514   3.068  0.8360 -1.2539  0.9174
 3465SOL    HW210974   6.585   4.425   2.958  0.8015 -1.9911  1.4907
 3466SOL     OW10975   6.551   2.135   4.268 -0.6231  0.1459  0.1343
 3466SOL    HW110976   6.494   2.080   4.214 -1.1064  0.3671  0.4135
 3466SOL    HW210977   6.538   2.103   4.357  1.6911 -1.5884 -0.0479
 3467SOL     OW10978   5.493   5.964   1.868 -0.2564 -0.2617 -0.1172
 3467SOL    HW110979   5.442   5.989   1.791  1.2444 -0.7335 -1.3258
 3467SOL    HW210980   5.547   5.891   1.838 -0.4812 -1.2488  1.7469
 3468SOL     OW10981   5.158   5.729   9.460 -0.1506  0.4455  0.2361
 3468SOL    HW110982   5.083   5.675   9.484  0.9255 -1.7765 -1.1380
 3468SOL    HW210983   5.179   5.777   9.540 -1.8699 -0.2766  1.1803
 3469SOL     OW10984   3.263   6.994   5.708  0.2204 -0.1800 -0.0436
 3469SOL    HW110985   3.175   6.960   5.725  0.9419 -1.6141  1.0741
 3469SOL    HW210986   3.267   7.005   5.613 -1.6422  1.3721 -0.0062
 3470SOL     OW10987   3.227   8.671   1.761 -0.4005  0.3088 -0.2286
 3470SOL    HW110988   3.209   8.640   1.850 -0.8843  0.5782 -0.2296
 3470SOL    HW210989   3.321   8.688   1.760 -0.3042 -0.1730  0.0800
 3471SOL     OW10990   3.712   0.227   6.357 -0.6002 -0.2300 -0.0524
 3471SOL    HW110991   3.628   0.183   6.373 -0.3251 -1.6627 -2.1075
 3471SOL    HW210992   3.717   0.235   6.261  2.5181 -2.1393 -0.1824
 3472SOL     OW10993   9.235   7.489   6.010  0.0781  0.2045 -0.0413
 3472SOL    HW110994   9.251   7.441   5.928 -0.4655 -0.3054  0.1449
 3472SOL    HW210995   9.321   7.523   6.034 -0.0115  1.6777 -1.6102
 3473SOL     OW10996   4.964   2.778   7.583  0.7071  0.1468 -0.0181
 3473SOL    HW110997   4.911   2.843   7.537  2.1600  1.1325 -0.3481
 3473SOL    HW210998   5.054   2.801   7.562  1.3048 -1.0582  1.1023
 3474SOL     OW10999   9.723   3.268   5.123  0.2825  0.0015 -0.2549
 3474SOL    HW111000   9.643   3.302   5.163  1.5032  1.0883  1.3901
 3474SOL    HW211001   9.758   3.342   5.073  0.3253 -0.4563 -0.9219
 3475SOL     OW11002   9.020   0.902   9.028 -0.2924 -0.5206 -0.0431
 3475SOL    HW111003   9.104   0.947   9.035  0.0385 -0.7601 -2.0876
 3475SOL    HW211004   9.021   0.861   8.942 -2.6153 -0.3309 -0.2252
 3476SOL     OW11005   2.598   2.973   7.496 -0.6252 -0.0850 -0.4962
 3476SOL    HW111006   2.690   2.986   7.521 -0.8472  2.8239 -0.8569
 3476SOL    HW211007   2.602   2.938   7.407  0.1316  0.0245 -0.5143
 3477SOL     OW11008   5.679   6.242   8.517  0.4747  0.0522  0.3190
 3477SOL    HW111009   5.703   6.206   8.603 -2.4733 -3.5435 -0.1321
 3477SOL    HW211010   5.687   6.168   8.458 -1.4487  1.3947 -1.7399
 3478SOL     OW11011   8.296   1.029   3.158 -0.1362 -0.1895  0.2545
 3478SOL    HW111012   8.383   0.995   3.134  0.6561  1.0240  1.2406
 3478SOL    HW211013   8.251   1.042   3.075  1.3594  0.9424 -0.4277
 3479SOL     OW11014   9.135   5.485   3.933  0.4856 -0.0762  0.2133
 3479SOL    HW111015   9.045   5.470   3.963  0.0975  0.1201 -0.8337
 3479SOL    HW211016   9.189   5.462   4.009 -0.3072 -2.3787  0.1610
 3480SOL     OW11017   4.359   2.253   0.847  0.1289 -0.2984 -0.2692
 3480SOL    HW111018   4.346   2.238   0.753 -0.3105  0.2831 -0.3028
 3480SOL    HW211019   4.298   2.193   0.889  0.6942 -0.9377 -0.3360
 3481SOL     OW11020   3.445   4.507   1.112 -0.0086 -0.5693  0.0753
 3481SOL    HW111021   3.467   4.586   1.062 -0.9910 -0.0841  0.3986
 3481SOL    HW211022   3.470   4.434   1.054 -0.2567 -0.0189 -0.7306
 3482SOL     OW11023   9.119   6.182   5.414 -0.5900 -0.1030  0.0810
 3482SOL    HW111024   9.080   6.264   5.443  0.4723  0.1634  0.7938
 3482SOL    HW211025   9.203   6.178   5.459 -0.3437 -1.2707 -0.4522
 3483SOL     OW11026   5.938   1.118   6.142  0.5550  0.0612  0.2771
 3483SOL    HW111027   6.008   1.135   6.079  0.2394  0.3599 -0.0019
 3483SOL    HW211028   5.983   1.103   6.225  0.9613 -0.0400  0.0412
 3484SOL     OW11029   2.641   3.414   5.506  0.3212  0.0756  0.4334
 3484SOL    HW111030   2.725   3.457   5.514  0.8155 -0.9057  0.6559
 3484SOL    HW211031   2.592   3.442   5.583  0.5106  0.4933  0.4040
 3485SOL     OW11032   0.409   8.811   5.287 -0.4398 -0.3074 -0.5698
 3485SOL    HW111033   0.384   8.903   5.301  1.6410  0.1650  0.6089
 3485SOL    HW211034   0.414   8.775   5.375 -1.1988 -1.5815 -1.0266
 3486SOL     OW11035   0.938   7.271   9.940  0.1855 -0.6002  0.4758
 3486SOL    HW111036   1.021   7.311   9.965 -0.1478 -0.1948  0.9594
 3486SOL    HW211037   0.962   7.207   9.874  0.6273  1.0725 -1.0603
 3487SOL     OW11038   9.197   6.296   4.158  0.4739  0.3251 -0.3753
 3487SOL    HW111039   9.275   6.283   4.104 -0.0103  0.8313 -1.2463
 3487SOL    HW211040   9.193   6.220   4.216  0.5150 -0.7365 -1.7099
 3488SOL     OW11041   1.076   4.060   4.602  0.8147 -0.3899 -0.1141
 3488SOL    HW111042   1.169   4.080   4.592  0.9057 -0.5914  0.2976
 3488SOL    HW211043   1.031   4.139   4.575  1.0905 -0.4475 -0.7666
 3489SOL     OW11044   7.142   1.919   6.563 -0.3036 -0.0847 -0.0227
 3489SOL    HW111045   7.181   1.986   6.619 -1.3882 -0.7848  1.6733
 3489SOL    HW211046   7.048   1.936   6.567 -0.4454 -0.5199 -1.1739
 3490SOL     OW11047   7.382   8.927   2.207 -0.1517  0.4442 -0.2788
 3490SOL    HW111048   7.321   8.950   2.278  0.6609 -0.1765  0.6372
 3490SOL    HW211049   7.354   8.840   2.178  0.2187  0.2166  0.0498
 3491SOL     OW11050   9.797   3.086   5.757 -0.0957  0.0794  0.8917
 3491SOL    HW111051   9.874   3.086   5.700  0.2202 -0.3531  1.3207
 3491SOL    HW211052   9.829   3.116   5.841 -0.1588 -1.2129  1.3947
 3492SOL     OW11053   8.630   2.423   9.935 -0.1347 -0.8433  0.6714
 3492SOL    HW111054   8.724   2.440   9.941  0.0608 -1.5476 -0.2697
 3492SOL    HW211055   8.598   2.438  10.024  0.6920  0.3817  0.7913
 3493SOL     OW11056   4.443   1.532   2.989 -0.1729 -0.6264  0.3002
 3493SOL    HW111057   4.439   1.628   2.979  1.0223 -0.6587 -0.7071
 3493SOL    HW211058   4.413   1.499   2.904  0.0666 -1.1364  0.4172
 3494SOL     OW11059   5.497   0.314   4.430 -0.2564  0.1588 -0.5179
 3494SOL    HW111060   5.505   0.236   4.485 -0.8700  1.2172  1.1294
 3494SOL    HW211061   5.563   0.374   4.463 -1.1475  1.1060 -0.4297
 3495SOL     OW11062   6.585   5.428   3.838 -0.2469 -0.0535 -0.0751
 3495SOL    HW111063   6.630   5.512   3.829  0.1749 -0.2642  0.0594
 3495SOL    HW211064   6.576   5.416   3.933 -0.3113 -0.1600 -0.0946
 3496SOL     OW11065   3.280   8.526   8.329 -0.0122  0.1575  0.0862
 3496SOL    HW111066   3.250   8.590   8.393  1.6003  0.3210  0.7259
 3496SOL    HW211067   3.255   8.441   8.366 -1.4560  0.3583 -0.3869
 3497SOL     OW11068   8.345   5.214   2.173 -0.1671  0.3849  0.4379
 3497SOL    HW111069   8.329   5.270   2.097 -1.3110 -1.2145 -0.5868
 3497SOL    HW211070   8.267   5.224   2.227  0.7437  1.6925  1.5659
 3498SOL     OW11071   0.893   1.116   6.498 -0.0664 -0.2989  0.4990
 3498SOL    HW111072   0.819   1.071   6.457 -0.7551 -0.5957  2.0091
 3498SOL    HW211073   0.908   1.192   6.441 -0.4959 -1.0745 -0.7046
 3499SOL     OW11074   3.969   0.290   6.134  0.3608  0.2376  0.8565
 3499SOL    HW111075   3.941   0.371   6.176 -1.4853 -0.2734  0.7197
 3499SOL    HW211076   3.888   0.251   6.100  1.4433 -0.6768 -0.8556
 3500SOL     OW11077   1.972   3.536   3.963 -0.4268 -0.2025  0.3464
 3500SOL    HW111078   2.010   3.579   3.886 -0.2923 -0.4595  0.2678
 3500SOL    HW211079   2.041   3.538   4.028 -0.3226 -0.5434  0.2507
 3501SOL     OW11080   6.888   6.014   5.755  0.0427 -0.1570 -0.0377
 3501SOL    HW111081   6.895   5.952   5.682  0.4827  0.2475 -0.3520
 3501SOL    HW211082   6.978   6.022   5.788 -0.0349  0.1975  0.0899
 3502SOL     OW11083   3.014   9.266   7.232 -0.3972 -0.1069 -0.1369
 3502SOL    HW111084   3.032   9.353   7.198  0.9517  0.7946  2.5980
 3502SOL    HW211085   2.920   9.265   7.250 -0.6138  0.3594 -1.2156
 3503SOL     OW11086   0.448   3.605   9.418 -0.0788  0.0675  0.0397
 3503SOL    HW111087   0.483   3.628   9.332 -0.7614  0.7517 -0.0613
 3503SOL    HW211088   0.437   3.510   9.415 -0.2105  0.1034 -0.6709
 3504SOL     OW11089   8.010   1.334   6.929  0.4140  0.0253  0.4969
 3504SOL    HW111090   7.924   1.298   6.908  0.3522 -0.6065  1.7554
 3504SOL    HW211091   8.012   1.418   6.883 -1.8238  1.1569  2.2925
 3505SOL     OW11092   5.206   2.204   4.459  0.8359 -0.1507 -0.4297
 3505SOL    HW111093   5.131   2.228   4.514  0.5141 -0.3888 -0.7570
 3505SOL    HW211094   5.197   2.259   4.381  0.4982 -0.8050 -0.8650
 3506SOL     OW11095   8.023   6.628   1.664  0.1922  0.0722 -0.1603
 3506SOL    HW111096   8.086   6.651   1.732 -0.9893  1.7814  0.4042
 3506SOL    HW211097   8.017   6.705   1.608 -0.7585 -0.3690 -0.7114
 3507SOL     OW11098   8.450   3.285   3.113  0.2545  0.2944 -0.2233
 3507SOL    HW111099   8.425   3.354   3.174 -0.1569  1.9373 -2.1477
 3507SOL    HW211100   8.508   3.228   3.164 -1.8068  0.2847  2.3375
 3508SOL     OW11101   3.721   5.657   7.036 -0.1405 -0.1321  0.1644
 3508SOL    HW111102   3.794   5.719   7.042  0.1517 -0.5737  2.0549
 3508SOL    HW211103   3.756   5.584   6.985  0.5035 -0.0064  0.4106
 3509SOL     OW11104   2.195   1.732   8.687 -0.5024  0.1301 -0.2456
 3509SOL    HW111105   2.139   1.766   8.617 -1.4662  1.4936  1.1208
 3509SOL    HW211106   2.270   1.791   8.688  0.9137 -1.5069 -1.8628
 3510SOL     OW11107   3.406   9.035   0.103 -0.2213 -0.4274 -0.5838
 3510SOL    HW111108   3.443   8.949   0.127  0.3088 -0.4564 -1.4920
 3510SOL    HW211109   3.347   9.055   0.176  0.7414 -0.8896  0.3702
 3511SOL     OW11110   1.887   4.923   7.984 -0.4693  0.1198 -0.7374
 3511SOL    HW111111   1.951   4.854   8.000 -0.5612  0.0438 -0.6971
 3511SOL    HW211112   1.899   4.984   8.058  1.8252  1.8377 -2.3576
 3512SOL     OW11113   0.851   5.529   9.761  0.2142 -0.0657  0.4914
 3512SOL    HW111114   0.918   5.587   9.725  0.4781 -0.5662  0.1670
 3512SOL    HW211115   0.874   5.442   9.727 -1.2093 -0.0803 -0.4924
 3513SOL     OW11116   3.138   4.821   6.003 -0.4997  0.2259  0.2314
 3513SOL    HW111117   3.126   4.727   5.992 -0.0608  0.1572  0.3099
 3513SOL    HW211118   3.102   4.839   6.090 -2.6098  0.5180 -0.6457
 3514SOL     OW11119   9.878   7.795   0.538  0.3080  0.5633  0.1324
 3514SOL    HW111120   9.846   7.708   0.512  0.8558  0.4695 -0.2451
 3514SOL    HW211121   9.804   7.834   0.585  0.0505 -0.0970  0.2893
 3515SOL     OW11122   1.484   2.410   1.256  0.3555  0.1591  0.1517
 3515SOL    HW111123   1.504   2.354   1.331  2.3011 -0.4327 -0.7506
 3515SOL    HW211124   1.536   2.375   1.184 -1.7724  0.4182 -1.6568
 3516SOL     OW11125   4.132   0.229   0.547 -0.4382  0.4330  0.1220
 3516SOL    HW111126   4.041   0.209   0.569 -0.0288 -0.6629  0.9200
 3516SOL    HW211127   4.159   0.158   0.489  0.2394  0.1133  0.8115
 3517SOL     OW11128   6.672   8.699   6.411  0.4104  0.9194  0.2253
 3517SOL    HW111129   6.628   8.773   6.369  0.3147  0.2581 -0.8867
 3517SOL    HW211130   6.762   8.704   6.380  0.1534 -0.0262 -0.7264
 3518SOL     OW11131   0.636   0.269   8.393  0.5056 -0.8707  0.1251
 3518SOL    HW111132   0.601   0.193   8.440  1.1438 -1.3300 -0.1180
 3518SOL    HW211133   0.577   0.341   8.415  1.0012 -0.9679  1.9597
 3519SOL     OW11134   1.066   8.241   9.215 -0.4004 -0.1273 -0.1363
 3519SOL    HW111135   1.121   8.168   9.241 -1.1502 -0.7158 -0.1635
 3519SOL    HW211136   1.083   8.252   9.121 -0.4763 -0.4314 -0.1856
 3520SOL     OW11137   9.771   1.911   9.309  0.5300  0.3906  0.4310
 3520SOL    HW111138   9.747   1.989   9.258  0.8254 -0.0771 -0.4491
 3520SOL    HW211139   9.842   1.941   9.365  1.0428  0.6307 -0.3230
 3521SOL     OW11140   3.629   5.521   0.995  0.6874 -0.5601 -0.7459
 3521SOL    HW111141   3.713   5.566   0.994  1.1084 -1.3215 -1.1802
 3521SOL    HW211142   3.601   5.519   0.903  1.9888 -3.4662 -1.1963
 3522SOL     OW11143   7.708   8.032   2.855 -0.1368 -0.3100  0.5739
 3522SOL    HW111144   7.748   8.097   2.912 -0.3332 -1.1186  1.6644
 3522SOL    HW211145   7.615   8.056   2.852 -0.2136 -0.5429  0.9963
 3523SOL     OW11146   9.033   0.657   2.647 -0.2259  0.2612  0.0202
 3523SOL    HW111147   8.965   0.658   2.714  0.2354  2.4309  0.5373
 3523SOL    HW211148   9.113   0.683   2.694  0.8263 -1.3889 -0.7405
 3524SOL     OW11149   4.510   3.448   5.102 -0.2663  0.1695 -0.8025
 3524SOL    HW111150   4.605   3.456   5.104 -0.3495  1.1380 -0.1057
 3524SOL    HW211151   4.478   3.538   5.097 -1.1471 -0.1349 -0.7736
 3525SOL     OW11152   9.754   5.796   7.339 -0.1449 -0.2155 -0.1052
 3525SOL    HW111153   9.821   5.733   7.313 -1.1253 -2.0749  1.5768
 3525SOL    HW211154   9.677   5.772   7.287 -1.0004 -1.5258  1.6852
 3526SOL     OW11155   2.532   3.165   8.372 -0.3319 -0.3950  0.0246
 3526SOL    HW111156   2.601   3.167   8.305 -0.3632  1.1748  0.0094
 3526SOL    HW211157   2.451   3.156   8.321 -0.1689 -2.4582  0.0542
 3527SOL     OW11158   0.365   7.227   1.234 -0.2329 -0.1751 -0.0042
 3527SOL    HW111159   0.314   7.277   1.170 -0.7003  0.9449  1.1901
 3527SOL    HW211160   0.350   7.136   1.210 -2.0608  0.1412 -0.2660
 3528SOL     OW11161   1.213   5.214   4.480  0.0117 -0.7730 -0.0325
 3528SOL    HW111162   1.119   5.228   4.495  0.0525 -0.2691 -0.2303
 3528SOL    HW211163   1.231   5.129   4.521 -0.8479 -1.6444 -1.3889
 3529SOL     OW11164   0.058   3.213   4.068 -0.1220  0.0308  0.0932
 3529SOL    HW111165  -0.001   3.138   4.070  1.7382 -1.5719 -1.5670
 3529SOL    HW211166   0.128   3.188   4.008  2.6803  1.5007  2.4467
 3530SOL     OW11167   2.288   0.800   5.015 -0.7467  0.2314 -0.2997
 3530SOL    HW111168   2.357   0.834   5.072 -1.3875 -0.5186  0.9524
 3530SOL    HW211169   2.300   0.706   5.015 -2.2040  0.0058  0.5592
 3531SOL     OW11170   6.397   7.299   4.129 -0.8075 -0.2997 -0.6086
 3531SOL    HW111171   6.431   7.327   4.044 -0.3405  1.3436  0.0797
 3531SOL    HW211172   6.391   7.380   4.180  1.0510 -1.4533  1.6463
 3532SOL     OW11173   5.386   7.754   6.837  0.8773  0.3123  0.2690
 3532SOL    HW111174   5.448   7.716   6.775  1.4272  0.7686  0.5356
 3532SOL    HW211175   5.421   7.840   6.856  0.0224  0.6757  0.2343
 3533SOL     OW11176   3.194   0.282   7.892 -0.1051 -0.1957 -0.1833
 3533SOL    HW111177   3.212   0.309   7.982 -0.5178 -2.0652  0.4947
 3533SOL    HW211178   3.099   0.286   7.885 -0.1860 -1.5191 -0.0284
 3534SOL     OW11179   7.306   9.570   3.453 -0.1664  0.2887 -0.1443
 3534SOL    HW111180   7.315   9.607   3.365 -1.2046 -1.8488 -1.2391
 3534SOL    HW211181   7.372   9.500   3.457  0.0196  0.5038  0.8691
 3535SOL     OW11182   7.666   7.132   7.568  0.7992 -0.3493  0.4846
 3535SOL    HW111183   7.608   7.056   7.571  0.2059 -0.0649 -1.7922
 3535SOL    HW211184   7.754   7.095   7.577  0.5269 -1.3659 -0.6660
 3536SOL     OW11185   1.050   1.920   7.876  0.1137 -0.6163  0.1173
 3536SOL    HW111186   0.965   1.963   7.886  0.5422  0.7993 -1.8533
 3536SOL    HW211187   1.070   1.927   7.783  2.2489 -1.2427  0.4789
 3537SOL     OW11188   7.086   1.043   6.386 -0.2914 -0.9560 -0.5637
 3537SOL    HW111189   7.078   0.952   6.414 -2.3749 -1.1238 -1.5318
 3537SOL    HW211190   7.134   1.038   6.303 -2.1568 -1.4379 -1.6688
 3538SOL     OW11191   0.652   2.375   6.133 -0.1492  0.0780 -0.0908
 3538SOL    HW111192   0.567   2.377   6.089 -0.9972 -0.5457  1.4453
 3538SOL    HW211193   0.659   2.286   6.168  0.2430  0.6844  1.4562
 3539SOL     OW11194   9.808   6.229   3.657 -0.0418  0.3556  0.1579
 3539SOL    HW111195   9.826   6.162   3.723 -0.4621 -0.6655 -0.7375
 3539SOL    HW211196   9.799   6.310   3.707  2.8221  0.2340  1.0765
 3540SOL     OW11197   8.192   2.464   2.820 -0.0136  0.4876  0.3285
 3540SOL    HW111198   8.266   2.496   2.872  0.7091  0.2829 -0.5640
 3540SOL    HW211199   8.170   2.379   2.859 -0.6714  1.1266  1.4453
 3541SOL     OW11200   2.258   3.156   4.731  0.4824 -0.0788  0.7968
 3541SOL    HW111201   2.349   3.143   4.758  1.2238 -0.7484 -1.7422
 3541SOL    HW211202   2.237   3.077   4.681 -1.3494  0.3199  0.8692
 3542SOL     OW11203   7.881   2.550   2.097  0.6731 -0.3470 -0.0117
 3542SOL    HW111204   7.850   2.513   2.015 -1.6672  1.0548  0.1531
 3542SOL    HW211205   7.870   2.644   2.087 -1.2966 -0.2111  2.4435
 3543SOL     OW11206   3.325   4.029   5.220  0.1890  0.1941  0.3908
 3543SOL    HW111207   3.373   4.106   5.250  0.1239  2.3323 -4.1551
 3543SOL    HW211208   3.235   4.059   5.209 -0.3588 -1.2543  0.7151
 3544SOL     OW11209   2.418   4.248   6.578 -0.0445 -0.3666 -0.7438
 3544SOL    HW111210   2.353   4.272   6.644 -0.4538 -2.3304 -0.3716
 3544SOL    HW211211   2.367   4.240   6.497 -0.0072 -0.4594 -0.7584
 3545SOL     OW11212   4.406   0.304   1.861 -0.1639 -0.7216  0.1065
 3545SOL    HW111213   4.444   0.231   1.911  0.6275  0.5316  1.4182
 3545SOL    HW211214   4.316   0.310   1.893 -0.3575 -1.3641 -0.2994
 3546SOL     OW11215   3.760   4.255   2.558  0.3987 -0.7134  0.0287
 3546SOL    HW111216   3.759   4.179   2.616  1.1358 -1.2752 -0.6592
 3546SOL    HW211217   3.675   4.253   2.514 -0.3213 -0.0532  1.3509
 3547SOL     OW11218   0.347   0.498   3.259  0.4028  0.1974  0.3567
 3547SOL    HW111219   0.314   0.409   3.252  1.2137 -0.0834 -0.1410
 3547SOL    HW211220   0.391   0.513   3.175  0.5386  0.9494  0.5591
 3548SOL     OW11221   2.220   6.214   9.780  0.1671  1.0542  0.3844
 3548SOL    HW111222   2.129   6.198   9.803  0.1243 -1.6186 -1.2396
 3548SOL    HW211223   2.217   6.238   9.687  1.0486  2.5248  0.6900
 3549SOL     OW11224   7.701   0.844   7.545 -0.1391 -0.3767 -0.1489
 3549SOL    HW111225   7.677   0.823   7.635 -1.1303 -1.7372 -0.7041
 3549SOL    HW211226   7.723   0.759   7.505 -0.8137  0.0531 -1.5036
 3550SOL     OW11227   2.740   9.190   6.252  0.0513 -0.7521  0.1209
 3550SOL    HW111228   2.688   9.110   6.245  2.6750 -2.4551 -1.9095
 3550SOL    HW211229   2.785   9.197   6.168  1.0645  2.0840  0.7803
 3551SOL     OW11230   7.452   0.846   9.090 -0.2115  0.4108  0.8559
 3551SOL    HW111231   7.398   0.772   9.115 -3.1755  2.3373  0.7467
 3551SOL    HW211232   7.504   0.866   9.167  0.4522 -1.5872  0.9569
 3552SOL     OW11233   5.582   5.044   8.203 -0.2098 -0.2562 -0.2884
 3552SOL    HW111234   5.558   5.120   8.151  0.4267 -0.0131 -0.2398
 3552SOL    HW211235   5.530   4.972   8.167  0.5135 -0.1898 -1.5473
 3553SOL     OW11236   2.977   4.878   9.056  0.3185  0.3338  0.1000
 3553SOL    HW111237   2.900   4.903   9.004  0.1857  0.3204  0.2876
 3553SOL    HW211238   3.039   4.844   8.992  0.0710  0.1141 -0.0267
 3554SOL     OW11239   2.470   9.388   0.510 -0.2698  0.1257 -0.3049
 3554SOL    HW111240   2.389   9.433   0.534 -0.2975  0.1532 -0.4485
 3554SOL    HW211241   2.441   9.303   0.477 -0.2713  0.2959 -0.7545
 3555SOL     OW11242   9.346   4.698   0.507 -0.6745 -0.1759  0.4761
 3555SOL    HW111243   9.441   4.695   0.493 -0.6499  0.4153  0.5013
 3555SOL    HW211244   9.336   4.718   0.600 -0.8376 -1.8395  0.8575
 3556SOL     OW11245   4.230   3.633   5.038 -0.7807 -0.4121 -0.5394
 3556SOL    HW111246   4.301   3.696   5.025 -1.8735  1.2492  0.9973
 3556SOL    HW211247   4.152   3.678   5.003 -1.5668 -0.9221  0.4943
 3557SOL     OW11248   3.988   5.773   7.072 -0.1775  0.3952  0.2577
 3557SOL    HW111249   4.047   5.729   7.134  1.2856 -1.3448 -2.1848
 3557SOL    HW211250   4.042   5.843   7.034 -0.4711  0.2964 -0.3387
 3558SOL     OW11251   6.540   3.606   6.319 -0.0635 -0.3823  0.3408
 3558SOL    HW111252   6.528   3.519   6.281 -0.0796 -0.5848  0.7962
 3558SOL    HW211253   6.561   3.662   6.245 -0.1736 -0.7523  0.0262
 3559SOL     OW11254   7.766   2.875   6.509  0.0584  0.0090 -0.6566
 3559SOL    HW111255   7.702   2.816   6.549  0.0800  0.3156 -0.1650
 3559SOL    HW211256   7.792   2.831   6.428 -1.3230  0.2298 -1.2342
 3560SOL     OW11257   3.665   6.948   3.869 -0.4780 -0.5719  0.4328
 3560SOL    HW111258   3.640   6.935   3.960 -1.5355 -1.6139  0.0298
 3560SOL    HW211259   3.760   6.931   3.867 -0.7207 -2.1575  1.0783
 3561SOL     OW11260   8.986   5.349   6.853  0.1209 -0.0516  0.4944
 3561SOL    HW111261   9.041   5.278   6.821  0.9784  0.9692 -0.3799
 3561SOL    HW211262   9.042   5.426   6.849 -1.3926  1.0444 -0.5264
 3562SOL     OW11263   9.272   2.080   3.326  0.2410  0.0170 -0.4390
 3562SOL    HW111264   9.301   2.155   3.273 -1.1486 -0.3523 -1.8035
 3562SOL    HW211265   9.187   2.107   3.360  0.3781 -0.4027  0.2447
 3563SOL     OW11266   4.825   3.194   1.749  0.4969 -0.2366  0.4342
 3563SOL    HW111267   4.827   3.191   1.845  2.8001  2.7884  0.6303
 3563SOL    HW211268   4.743   3.151   1.725  0.7071 -2.7240  3.6171
 3564SOL     OW11269   9.635   6.784   8.956  0.3158 -0.2477 -0.4802
 3564SOL    HW111270   9.589   6.823   9.030 -0.3895 -1.4466 -0.2738
 3564SOL    HW211271   9.566   6.754   8.897  0.8630 -0.1971 -1.1579
 3565SOL     OW11272   2.884   4.348   9.955  0.7419  0.0778  0.0005
 3565SOL    HW111273   2.966   4.338  10.003  2.7658  1.7860 -2.7623
 3565SOL    HW211274   2.866   4.442   9.957 -2.9483 -0.4363  3.0007
 3566SOL     OW11275   4.515   3.658   5.711 -0.0749 -0.0987  0.3370
 3566SOL    HW111276   4.427   3.620   5.706 -0.1229  0.1751 -1.0544
 3566SOL    HW211277   4.529   3.700   5.626  0.7468  1.3368  1.1384
 3567SOL     OW11278   3.674   7.130   6.786 -0.7475  0.1282  0.2434
 3567SOL    HW111279   3.701   7.051   6.740 -2.3970 -0.2068 -0.2009
 3567SOL    HW211280   3.699   7.115   6.877 -0.1146 -0.4435 -0.0153
 3568SOL     OW11281   5.277   8.039   3.635  0.3221  0.0501 -0.7760
 3568SOL    HW111282   5.353   8.061   3.582  1.0599  0.1745  0.3260
 3568SOL    HW211283   5.311   8.027   3.724 -1.2436  2.4766  0.2606
 3569SOL     OW11284   3.709   1.574   2.752  0.0789  0.2190 -0.1510
 3569SOL    HW111285   3.698   1.666   2.778 -0.8452  0.0461  0.1100
 3569SOL    HW211286   3.625   1.533   2.774  0.8457 -0.9345  0.7577
 3570SOL     OW11287   0.116   0.663   7.984 -0.3077 -0.7624 -0.2400
 3570SOL    HW111288   0.101   0.633   8.073 -0.0210 -0.8106 -0.2047
 3570SOL    HW211289   0.198   0.713   7.989 -0.6302 -0.2141 -0.3498
 3571SOL     OW11290   9.347   8.125   0.568 -0.2027  0.2942 -0.4016
 3571SOL    HW111291   9.295   8.203   0.584 -0.7593 -0.4625  1.7417
 3571SOL    HW211292   9.410   8.152   0.500 -1.4378  2.0787 -0.9002
 3572SOL     OW11293   3.736   1.471   9.942 -0.2837  0.4700 -0.5601
 3572SOL    HW111294   3.742   1.562   9.972  0.0814  1.1334 -2.4797
 3572SOL    HW211295   3.687   1.476   9.860 -1.4930 -1.2709 -0.0064
 3573SOL     OW11296   0.875   3.536   4.037 -0.0430  0.9353 -0.0296
 3573SOL    HW111297   0.851   3.494   3.955  0.7677 -2.5354  1.3347
 3573SOL    HW211298   0.969   3.556   4.028  0.0619  0.4899  0.0530
 3574SOL     OW11299   6.302   4.970   0.631 -0.4039 -0.0018 -0.0255
 3574SOL    HW111300   6.384   4.947   0.675 -0.6338 -0.9819 -0.0843
 3574SOL    HW211301   6.321   5.051   0.584  0.3974  0.0199  0.3328
 3575SOL     OW11302   5.108   9.776   1.996 -0.6949 -0.2081 -0.4505
 3575SOL    HW111303   5.061   9.695   2.017 -1.4042  0.7315  1.9053
 3575SOL    HW211304   5.040   9.844   1.999  0.3411  0.8168  0.3190
 3576SOL     OW11305   7.161   4.994   5.906  0.1228 -0.0610  0.1675
 3576SOL    HW111306   7.113   4.957   5.980 -1.6873  0.5373 -0.6467
 3576SOL    HW211307   7.252   4.974   5.925 -0.4711 -1.9222  1.4332
 3577SOL     OW11308   3.267   0.643   5.830 -0.1056 -0.0242 -0.0781
 3577SOL    HW111309   3.230   0.671   5.914  0.4672 -2.8957  1.2386
 3577SOL    HW211310   3.192   0.612   5.779 -0.1246 -1.0411  0.5570
 3578SOL     OW11311   6.120   0.963   9.201 -0.1975  0.3078  0.6075
 3578SOL    HW111312   6.177   1.030   9.162  0.6986  0.3547  1.9257
 3578SOL    HW211313   6.039   1.010   9.222 -0.7800  0.2450 -1.2655
 3579SOL     OW11314   6.654   4.296   5.066  0.1344  0.2922 -0.4216
 3579SOL    HW111315   6.560   4.313   5.080  0.0662  2.2236 -2.5095
 3579SOL    HW211316   6.680   4.241   5.139 -2.3660  0.7189  0.9060
 3580SOL     OW11317   4.998   3.750   4.293  0.4254 -0.7640 -0.0019
 3580SOL    HW111318   5.066   3.767   4.229 -0.7094  0.8742 -0.8429
 3580SOL    HW211319   5.010   3.658   4.318 -0.1199 -2.0403 -3.8529
 3581SOL     OW11320   1.106   6.830   2.230 -0.7828 -0.4714  0.0850
 3581SOL    HW111321   1.198   6.856   2.231 -1.1131  0.8672 -0.8537
 3581SOL    HW211322   1.106   6.745   2.184 -0.0159 -0.5633  0.2379
 3582SOL     OW11323   7.331   9.899   7.148 -0.3021  0.0552 -0.3157
 3582SOL    HW111324   7.377   9.892   7.065 -0.4128 -1.2810 -0.2794
 3582SOL    HW211325   7.373   9.835   7.205 -1.2063 -0.1118  0.1862
 3583SOL     OW11326   9.739   7.620   6.031  0.0073 -0.0420 -0.0546
 3583SOL    HW111327   9.750   7.544   6.087  1.1245 -0.9035 -1.3733
 3583SOL    HW211328   9.699   7.686   6.087  1.6137 -0.6496  1.9194
 3584SOL     OW11329   7.197   8.636   8.911  0.4219 -0.3427  0.1929
 3584SOL    HW111330   7.175   8.611   8.821  0.5607  1.2502 -0.3080
 3584SOL    HW211331   7.137   8.707   8.932  0.7875 -0.2979  1.1513
 3585SOL     OW11332   9.626   9.209   8.537 -0.0817 -0.4999 -0.4504
 3585SOL    HW111333   9.558   9.235   8.600  0.4818 -1.7923  0.7431
 3585SOL    HW211334   9.578   9.194   8.456 -0.9122  0.6631 -0.2032
 3586SOL     OW11335   4.731   3.150   8.074 -0.0171  0.0980  0.5517
 3586SOL    HW111336   4.748   3.213   8.145  1.7553  0.5916 -0.2414
 3586SOL    HW211337   4.762   3.195   7.996 -0.5672 -1.0203 -0.3285
 3587SOL     OW11338   3.688   6.557   4.084  0.0785 -0.2011  0.2576
 3587SOL    HW111339   3.604   6.525   4.052  0.9353 -1.3803 -0.9224
 3587SOL    HW211340   3.684   6.545   4.178 -1.0875 -0.1902  0.2242
 3588SOL     OW11341   0.325   5.543   4.609  0.2220 -0.0566 -0.1939
 3588SOL    HW111342   0.244   5.583   4.576 -0.4421 -2.5045 -1.7794
 3588SOL    HW211343   0.295   5.469   4.662  1.4185 -0.7785 -0.4974
 3589SOL     OW11344   7.787   2.078   1.558  0.1339 -0.0251 -0.0612
 3589SOL    HW111345   7.819   1.988   1.554 -0.5939 -0.2827 -0.2001
 3589SOL    HW211346   7.849   2.128   1.505 -0.5303 -0.7711 -1.6033
 3590SOL     OW11347   9.270   4.051   2.589  0.0406  0.2574 -0.1540
 3590SOL    HW111348   9.293   3.960   2.608  0.7706  0.1287 -1.5681
 3590SOL    HW211349   9.174   4.051   2.584  0.0502 -0.4896 -0.4190
 3591SOL     OW11350   6.132   7.570   9.927  0.0017  0.2203 -0.3421
 3591SOL    HW111351   6.206   7.532   9.974 -0.4898 -1.1671 -0.6393
 3591SOL    HW211352   6.063   7.576   9.993  0.0459  0.5034 -0.3212
 3592SOL     OW11353   7.896   7.213   7.775 -0.6330  0.4177 -0.1071
 3592SOL    HW111354   7.907   7.135   7.722  1.1807  0.7953 -0.3701
 3592SOL    HW211355   7.885   7.180   7.864  1.3793 -0.1788 -0.0232
 3593SOL     OW11356   9.313   3.768   9.376 -1.0812  0.0407 -0.6344
 3593SOL    HW111357   9.292   3.794   9.286 -0.9339  1.4549 -0.2782
 3593SOL    HW211358   9.245   3.705   9.399 -1.2891 -0.1161 -1.6350
 3594SOL     OW11359   7.320   2.309   5.000 -0.0443  0.5518 -0.1749
 3594SOL    HW111360   7.237   2.289   4.956 -0.6839 -3.3393  2.2946
 3594SOL    HW211361   7.386   2.264   4.948  0.1314  1.2616 -0.5753
 3595SOL     OW11362   8.348   6.026   8.992  0.3163  0.1796 -0.7024
 3595SOL    HW111363   8.321   5.954   9.049  3.4355  0.3205  1.1638
 3595SOL    HW211364   8.287   6.022   8.918 -0.2954 -3.7198 -0.1994
 3596SOL     OW11365   9.503   7.736   3.225  0.5849  0.3511  0.3490
 3596SOL    HW111366   9.534   7.766   3.139 -0.1714 -0.0396 -0.0740
 3596SOL    HW211367   9.423   7.687   3.205  0.6766 -0.1694  1.2332
 3597SOL     OW11368   2.667   5.534   2.640 -0.1703  0.0293 -0.3848
 3597SOL    HW111369   2.718   5.538   2.722 -2.6046  0.3403  1.2116
 3597SOL    HW211370   2.654   5.626   2.616 -0.9507 -0.0130 -0.1327
 3598SOL     OW11371   0.617   4.980   8.726 -0.2925  0.1084  0.4447
 3598SOL    HW111372   0.607   5.056   8.782  0.7212  0.3283  0.3609
 3598SOL    HW211373   0.639   4.908   8.785 -2.1891 -0.3537  0.6233
 3599SOL     OW11374   3.093   8.615   5.479 -0.5965 -0.2775  0.2513
 3599SOL    HW111375   3.165   8.662   5.522  0.1456  0.1956 -1.4005
 3599SOL    HW211376   3.021   8.620   5.541  0.1711  1.0743  1.0941
 3600SOL     OW11377   7.263   0.229   0.604 -0.5612 -0.5817 -0.2185
 3600SOL    HW111378   7.231   0.167   0.539 -2.8223 -0.2486  0.4831
 3600SOL    HW211379   7.255   0.182   0.687 -0.9160  0.1357  0.1623
 3601SOL     OW11380   1.579   4.632   0.186  0.2559  0.3615  0.7062
 3601SOL    HW111381   1.599   4.600   0.274  1.3754  0.5141  0.5230
 3601SOL    HW211382   1.615   4.565   0.128  0.9332  1.0303  0.3427
 3602SOL     OW11383   4.743   0.064   5.571  0.2312  0.4187 -0.3454
 3602SOL    HW111384   4.713  -0.018   5.532  0.4411  1.2659 -2.4482
 3602SOL    HW211385   4.804   0.038   5.639  0.5833 -1.1685 -1.2257
 3603SOL     OW11386   5.671   2.657   2.570  0.2696 -0.6204 -0.3778
 3603SOL    HW111387   5.766   2.661   2.580  0.3168 -1.9207 -0.1920
 3603SOL    HW211388   5.644   2.749   2.566  1.1821 -0.1169  2.6388
 3604SOL     OW11389   8.554   7.869   2.224  0.2875 -0.2223 -0.3407
 3604SOL    HW111390   8.474   7.835   2.184  0.2731 -0.6112  0.0107
 3604SOL    HW211391   8.572   7.951   2.177 -1.8532  1.3522  1.4089
 3605SOL     OW11392   3.606   7.765   4.312 -0.1545  0.4239 -0.1033
 3605SOL    HW111393   3.684   7.804   4.271  0.0021  0.3963  0.1628
 3605SOL    HW211394   3.589   7.822   4.387  1.2948 -1.1372  1.4973
 3606SOL     OW11395   1.257   9.145   7.175 -0.2930 -0.0823 -0.6002
 3606SOL    HW111396   1.230   9.228   7.136 -2.5904 -0.2421  0.4849
 3606SOL    HW211397   1.353   9.147   7.172 -0.2911  1.0127 -3.7784
 3607SOL     OW11398   0.015   7.407   0.429  0.3042 -0.5794 -0.7781
 3607SOL    HW111399   0.039   7.434   0.341  0.6007 -1.8588 -1.0991
 3607SOL    HW211400   0.073   7.334   0.450  0.0823 -0.4522  0.3921
 3608SOL     OW11401   4.674   9.157   2.680 -0.2900 -0.2158 -0.2578
 3608SOL    HW111402   4.695   9.070   2.647  2.1676  0.5196 -0.8343
 3608SOL    HW211403   4.605   9.188   2.621 -0.4225 -1.3444 -0.7223
 3609SOL     OW11404   6.237   8.008   4.202 -0.0124  0.0090  0.4918
 3609SOL    HW111405   6.299   8.056   4.146 -0.0502 -1.2338 -0.6701
 3609SOL    HW211406   6.283   7.998   4.285  0.5066  0.9219  0.3303
 3610SOL     OW11407   5.974   2.256   3.185 -0.3707  0.4104  0.2974
 3610SOL    HW111408   6.016   2.263   3.271 -0.6111  0.9127  0.3789
 3610SOL    HW211409   5.938   2.167   3.184 -0.1461  0.3126  0.6153
 3611SOL     OW11410   1.190   6.572   7.074 -0.0053  0.1280  0.0930
 3611SOL    HW111411   1.119   6.634   7.093 -0.5334 -0.2790 -0.5502
 3611SOL    HW211412   1.160   6.489   7.111 -0.0068 -0.1162 -0.4495
 3612SOL     OW11413   2.159   1.285   6.910  0.1600 -0.3432 -0.0214
 3612SOL    HW111414   2.117   1.333   6.839  0.4106 -1.3990 -0.9119
 3612SOL    HW211415   2.155   1.193   6.883  1.2237 -0.6657  0.8217
 3613SOL     OW11416   7.171   4.497   4.875  0.4319 -0.3622  0.2369
 3613SOL    HW111417   7.230   4.571   4.862 -1.1808  1.3791  2.0563
 3613SOL    HW211418   7.085   4.531   4.850 -0.2602 -1.8237  0.5334
 3614SOL     OW11419   9.399   6.569   9.794 -0.3117 -0.0846  0.1034
 3614SOL    HW111420   9.434   6.528   9.715 -0.8779 -0.0275 -0.1812
 3614SOL    HW211421   9.422   6.662   9.785 -1.0532  0.0552 -0.3713
 3615SOL     OW11422   5.530   9.985   0.572 -0.0525  0.5302  0.1593
 3615SOL    HW111423   5.444  10.002   0.535 -0.0954 -4.3546 -2.9252
 3615SOL    HW211424   5.520   9.901   0.618  2.7016  0.6788  1.2310
 3616SOL     OW11425   8.002   2.819   0.421 -0.3617 -0.0231  0.4514
 3616SOL    HW111426   7.995   2.898   0.475  0.0120  0.1304  0.2758
 3616SOL    HW211427   8.077   2.772   0.456 -0.7152 -0.4109  0.6954
 3617SOL     OW11428   8.301   9.954   0.911 -0.6078 -0.2235  0.1231
 3617SOL    HW111429   8.392   9.976   0.929 -0.7477  2.6673 -2.0533
 3617SOL    HW211430   8.307   9.885   0.844 -0.1246 -1.9171  1.8145
 3618SOL     OW11431   4.526   6.845   7.923  0.3892  0.6290 -0.2784
 3618SOL    HW111432   4.615   6.850   7.889 -0.1575  1.0132 -1.6939
 3618SOL    HW211433   4.500   6.753   7.909  0.4239  0.6098 -0.2172
 3619SOL     OW11434   1.509   2.638   4.617  0.3755 -0.5592  0.0167
 3619SOL    HW111435   1.601   2.657   4.599  0.5276  0.0442  1.3196
 3619SOL    HW211436   1.474   2.719   4.653 -0.4520 -1.0390  0.3189
 3620SOL     OW11437   9.920   6.644   9.503  0.2379  0.5024 -0.4304
 3620SOL    HW111438   9.981   6.713   9.529  1.7713 -1.4357  1.3944
 3620SOL    HW211439   9.840   6.663   9.553  1.3184 -0.0893  1.6166
 3621SOL     OW11440   6.793   0.176   4.886  0.2113  0.0497 -0.5446
 3621SOL    HW111441   6.814   0.086   4.862 -1.2930 -0.4748 -0.0581
 3621SOL    HW211442   6.866   0.204   4.940  0.4970 -1.0447 -0.3370
 3622SOL     OW11443   5.916   3.135   1.280  0.5330 -0.2337 -0.2963
 3622SOL    HW111444   5.861   3.194   1.331  1.0638  1.3862 -1.5276
 3622SOL    HW211445   5.976   3.097   1.344  1.5372  2.1404  0.2978
 3623SOL     OW11446   3.447   8.503   7.299 -0.1446 -0.2725 -0.2904
 3623SOL    HW111447   3.390   8.572   7.334  1.2316  0.5396  0.4360
 3623SOL    HW211448   3.406   8.422   7.326 -1.0041  0.2918  0.1434
 3624SOL     OW11449   0.327   4.656   8.491 -0.1395 -0.0947  0.7505
 3624SOL    HW111450   0.274   4.728   8.457  0.2115 -0.0197  0.3468
 3624SOL    HW211451   0.285   4.577   8.457  0.1869 -0.0214  0.1617
 3625SOL     OW11452   3.423   7.314   9.606  0.1866 -0.7041 -0.0252
 3625SOL    HW111453   3.438   7.404   9.577  0.9159 -0.9819 -0.5790
 3625SOL    HW211454   3.507   7.270   9.588 -0.4867 -1.7320 -0.7275
 3626SOL     OW11455   6.088   0.138   4.885  0.6487  0.3960 -0.4170
 3626SOL    HW111456   6.130   0.204   4.830  1.1389  1.8747  1.6195
 3626SOL    HW211457   6.006   0.118   4.840  2.0463 -0.1899 -2.8267
 3627SOL     OW11458   5.622   8.927   4.921  0.2264  0.1574 -0.2770
 3627SOL    HW111459   5.710   8.907   4.889 -0.2054 -0.9933 -0.8073
 3627SOL    HW211460   5.569   8.853   4.892 -0.6607  0.2065  1.1416
 3628SOL     OW11461   5.761   0.694   2.603 -0.0907  0.2074  0.1739
 3628SOL    HW111462   5.711   0.673   2.525 -0.8309 -0.3862  0.7881
 3628SOL    HW211463   5.851   0.705   2.572 -0.2581 -0.6513 -0.6672
 3629SOL     OW11464   2.132   2.854   0.039 -0.0608 -0.6417 -0.2001
 3629SOL    HW111465   2.216   2.824   0.072 -0.5131 -2.0512 -0.2624
 3629SOL    HW211466   2.132   2.948   0.054  0.8416 -0.8553  1.3253
 3630SOL     OW11467   7.714   6.415   2.246  0.5487  0.3425 -0.4522
 3630SOL    HW111468   7.706   6.368   2.163 -0.2040 -1.1334  0.4077
 3630SOL    HW211469   7.628   6.455   2.259  0.2293 -0.5245  0.2140
 3631SOL     OW11470   6.694   8.967   4.849  0.7379 -0.0468  0.2318
 3631SOL    HW111471   6.620   8.958   4.910 -0.1745  1.2213 -0.6432
 3631SOL    HW211472   6.676   8.904   4.780  0.1436  0.6544 -0.2723
 3632SOL     OW11473   6.575   6.720   7.033 -0.2778 -0.2156 -0.3242
 3632SOL    HW111474   6.547   6.726   7.125 -0.4227 -2.1107 -0.2113
 3632SOL    HW211475   6.621   6.802   7.017 -1.1730  0.6164  1.1241
 3633SOL     OW11476   4.031   3.743   3.413 -0.1209  0.0355 -0.7292
 3633SOL    HW111477   4.117   3.730   3.452  0.2819  1.1191 -1.2273
 3633SOL    HW211478   3.978   3.781   3.483 -1.0237 -3.0148  0.4294
 3634SOL     OW11479   0.810   9.057   9.037  0.3228  0.6240  0.4655
 3634SOL    HW111480   0.890   9.006   9.051 -0.6015 -0.5239  1.8682
 3634SOL    HW211481   0.779   9.028   8.951  1.4985  1.2571 -0.2099
 3635SOL     OW11482   9.584   5.608   2.372 -0.2931 -0.1881 -0.3696
 3635SOL    HW111483   9.500   5.639   2.408 -0.3018 -0.7653  0.1194
 3635SOL    HW211484   9.580   5.513   2.380  1.5808 -0.1669  2.4028
 3636SOL     OW11485   2.540   0.013   7.598  0.6529 -0.0776  0.0244
 3636SOL    HW111486   2.579   0.004   7.511  0.2940  0.5875 -0.2129
 3636SOL    HW211487   2.580   0.092   7.634  1.0753 -0.5579  0.6121
 3637SOL     OW11488   4.868   7.990   8.448 -0.6305 -0.3053  0.3375
 3637SOL    HW111489   4.944   8.009   8.394 -0.6188 -2.5273 -0.5600
 3637SOL    HW211490   4.796   7.978   8.385 -1.3566  0.2148  1.0524
 3638SOL     OW11491   4.718   7.082   8.909  0.3164  0.0257 -0.0819
 3638SOL    HW111492   4.628   7.112   8.898  1.3613  2.5299 -3.7144
 3638SOL    HW211493   4.759   7.150   8.962  0.2590 -0.8006  1.0534
 3639SOL     OW11494   2.699   8.494   5.633 -0.4218  0.1921  0.3297
 3639SOL    HW111495   2.631   8.453   5.579 -1.2240  1.4918  0.3045
 3639SOL    HW211496   2.655   8.511   5.717  0.4089 -0.5442  0.9414
 3640SOL     OW11497   1.611   5.172   5.010  0.8937  0.0880  0.8737
 3640SOL    HW111498   1.630   5.197   4.920 -1.7979 -2.0326 -0.4143
 3640SOL    HW211499   1.551   5.239   5.042  0.0149 -0.3709  0.2311
 3641SOL     OW11500   6.670   9.670   8.415 -0.4386  0.0547 -0.3102
 3641SOL    HW111501   6.611   9.670   8.490  1.1923 -0.8709  1.0256
 3641SOL    HW211502   6.696   9.762   8.404  0.6216 -0.0075  1.3711
 3642SOL     OW11503   6.702   8.259   8.308 -0.3295 -0.1253  0.2329
 3642SOL    HW111504   6.623   8.221   8.270 -1.1173  2.1022 -0.5227
 3642SOL    HW211505   6.774   8.205   8.275 -1.4204 -1.3203 -0.2391
 3643SOL     OW11506   8.298   9.107   7.937 -0.3250  0.0707 -0.2056
 3643SOL    HW111507   8.357   9.062   7.877  1.0274 -0.4548  1.4325
 3643SOL    HW211508   8.228   9.141   7.881  0.8195 -0.4456 -2.0407
 3644SOL     OW11509   6.760   0.759   7.688  0.0054 -0.3437  0.1516
 3644SOL    HW111510   6.745   0.852   7.705  0.7458 -0.6097  2.7405
 3644SOL    HW211511   6.672   0.720   7.689 -0.1500 -0.0602  2.2221
 3645SOL     OW11512   4.914   4.874   1.148  0.9381  0.2860  0.4454
 3645SOL    HW111513   4.931   4.841   1.060 -1.4090  0.1072 -0.0138
 3645SOL    HW211514   4.925   4.798   1.205  1.8443  0.2580  0.2519
 3646SOL     OW11515   3.578   6.216   2.917 -0.1557 -0.3477  0.2770
 3646SOL    HW111516   3.529   6.191   2.838  0.6536 -0.1378 -0.2996
 3646SOL    HW211517   3.595   6.133   2.961  1.4711 -0.7541 -1.0172
 3647SOL     OW11518   4.539   7.007   2.924  0.2183  0.0157  0.5591
 3647SOL    HW111519   4.627   6.972   2.937  1.1416  0.2948 -3.5054
 3647SOL    HW211520   4.551   7.102   2.922 -0.1011  0.0526 -0.1447
 3648SOL     OW11521   0.600   4.997   8.257 -0.7870 -0.4131 -0.0803
 3648SOL    HW111522   0.670   5.006   8.192 -2.0683  2.2354 -1.2683
 3648SOL    HW211523   0.640   5.022   8.340 -0.3581  1.6154 -0.8287
 3649SOL     OW11524   7.043   5.997   7.043  0.3920  0.5949  0.3244
 3649SOL    HW111525   6.979   6.047   7.094  0.6813 -1.5294  2.9772
 3649SOL    HW211526   6.995   5.919   7.013  0.5858  1.1758 -1.6988
 3650SOL     OW11527   2.502   6.818   0.339  0.4834  0.8496 -0.1356
 3650SOL    HW111528   2.516   6.912   0.347  0.4335  1.1681 -2.8479
 3650SOL    HW211529   2.571   6.789   0.278  0.1391 -0.7781  0.1947
 3651SOL     OW11530   4.690   6.888   3.939  0.0812  0.5156  0.1656
 3651SOL    HW111531   4.650   6.918   3.857  0.3645  1.0551  0.2248
 3651SOL    HW211532   4.783   6.902   3.926  0.2448 -0.5628  0.1037
 3652SOL     OW11533   1.350   1.130   6.520 -0.4593  0.1426  0.1904
 3652SOL    HW111534   1.276   1.072   6.503  0.2287 -0.6028 -0.3297
 3652SOL    HW211535   1.331   1.209   6.470 -0.9594 -0.0012  0.1530
 3653SOL     OW11536   0.678   3.061   3.145  0.2649  0.3384  0.0196
 3653SOL    HW111537   0.627   2.991   3.187  0.0183  1.4552  1.6547
 3653SOL    HW211538   0.638   3.071   3.059 -0.3007 -0.8912  0.1150
 3654SOL     OW11539   8.249   0.222   9.154 -0.5502 -0.0381  0.9198
 3654SOL    HW111540   8.177   0.235   9.091 -0.7745  1.3591  1.4144
 3654SOL    HW211541   8.291   0.141   9.126 -2.1729 -0.7691  0.4720
 3655SOL     OW11542   8.734   7.801   8.192 -0.3364  0.3107 -0.4140
 3655SOL    HW111543   8.765   7.725   8.241  0.5045  1.8829  1.7037
 3655SOL    HW211544   8.774   7.792   8.106  1.7018 -0.4929  0.5355
 3656SOL     OW11545   8.195   7.778   8.801  0.0161 -0.1736 -0.2283
 3656SOL    HW111546   8.126   7.713   8.807  0.3392 -0.5423 -0.4931
 3656SOL    HW211547   8.163   7.851   8.854 -1.3303  0.3538 -1.6776
 3657SOL     OW11548   7.674   2.070   9.075  0.0115 -0.4412  0.1926
 3657SOL    HW111549   7.675   2.123   9.155  0.2526  0.7241 -0.5572
 3657SOL    HW211550   7.746   2.008   9.086  0.4303  0.1111  0.6152
 3658SOL     OW11551   6.967   8.812   8.918  0.1553 -0.2823  0.7007
 3658SOL    HW111552   6.882   8.831   8.878  0.2227 -2.0698 -0.3953
 3658SOL    HW211553   6.997   8.896   8.953 -1.9656  0.4139  0.9415
 3659SOL     OW11554   2.892   5.957   9.860 -0.8697  0.0557 -0.4472
 3659SOL    HW111555   2.895   5.982   9.768  1.1576 -2.4676 -1.2074
 3659SOL    HW211556   2.962   6.009   9.901  2.0097 -2.5867 -1.6085
 3660SOL     OW11557   3.599   8.917   7.305 -0.7073  0.2206 -0.0854
 3660SOL    HW111558   3.652   8.934   7.227  0.2073  1.1663  0.7034
 3660SOL    HW211559   3.549   8.998   7.318 -0.7615  0.1189  0.3770
 3661SOL     OW11560   6.856   1.501   5.346  0.8624  0.7973 -0.7700
 3661SOL    HW111561   6.778   1.446   5.354  1.8524 -0.7294 -1.1169
 3661SOL    HW211562   6.847   1.567   5.415  1.1962 -1.8182  1.9980
 3662SOL     OW11563   2.553   1.650   6.197 -0.5653  0.1144  0.0578
 3662SOL    HW111564   2.516   1.564   6.180  1.0473 -0.9026  1.3506
 3662SOL    HW211565   2.617   1.663   6.127 -0.0371 -0.2683  0.4497
 3663SOL     OW11566   1.900   0.850   6.045 -0.2846 -0.0145  0.1744
 3663SOL    HW111567   1.962   0.786   6.080 -0.1417 -0.1507 -0.3187
 3663SOL    HW211568   1.955   0.918   6.006 -0.4415 -0.1694 -0.3266
 3664SOL     OW11569   5.929   0.214   0.251 -0.2880  0.5168  0.5484
 3664SOL    HW111570   5.870   0.144   0.281  0.9258 -0.7250  0.1603
 3664SOL    HW211571   5.904   0.229   0.160  1.1136 -1.3461 -0.2298
 3665SOL     OW11572   4.663   6.322   6.885 -0.0922  0.6538  0.3982
 3665SOL    HW111573   4.700   6.237   6.861 -1.6520  0.1843 -0.5164
 3665SOL    HW211574   4.635   6.360   6.801 -2.1505  0.7128  1.0521
 3666SOL     OW11575   8.287   5.628   6.294  0.4985 -0.1112 -0.1846
 3666SOL    HW111576   8.246   5.661   6.374 -0.8470 -0.3491 -0.7556
 3666SOL    HW211577   8.225   5.648   6.224  0.6329 -1.8306 -0.8575
 3667SOL     OW11578   7.555   4.123   6.512  0.3307 -0.3626 -0.9040
 3667SOL    HW111579   7.599   4.080   6.585  1.2629  0.4401 -0.9784
 3667SOL    HW211580   7.621   4.181   6.475 -1.0880  1.7482 -0.3080
 3668SOL     OW11581   0.693   7.521   3.233  0.1440  0.0306  0.0464
 3668SOL    HW111582   0.704   7.487   3.322 -0.5595  0.5894  0.3519
 3668SOL    HW211583   0.675   7.614   3.244  0.1221  0.1223 -0.6892
 3669SOL     OW11584   0.089   9.915   3.522  0.2461 -0.4151  0.2073
 3669SOL    HW111585   0.182   9.900   3.509  0.5000 -0.9669  2.3064
 3669SOL    HW211586   0.057   9.835   3.563 -1.2278 -0.3516 -0.7392
 3670SOL     OW11587   2.996   7.754   0.745  0.3976 -0.5279 -0.3122
 3670SOL    HW111588   2.978   7.755   0.838 -0.1265 -1.7204 -0.3888
 3670SOL    HW211589   2.965   7.839   0.713  1.5651  0.3268  0.7606
 3671SOL     OW11590   1.734   9.342   1.280 -0.0468  0.2261 -0.1480
 3671SOL    HW111591   1.766   9.353   1.370 -1.0203 -1.1304  0.3858
 3671SOL    HW211592   1.771   9.259   1.251  0.5844  0.8416 -1.1773
 3672SOL     OW11593   7.326   5.230   4.232 -0.1974 -0.2222 -0.0617
 3672SOL    HW111594   7.238   5.267   4.231 -0.0154  0.3698  1.6731
 3672SOL    HW211595   7.333   5.187   4.317  0.7325 -1.4816 -0.7325
 3673SOL     OW11596   6.822   2.031   6.061  0.2774  0.2856 -0.1897
 3673SOL    HW111597   6.788   1.945   6.084 -0.0286  1.1053  2.8270
 3673SOL    HW211598   6.758   2.066   5.999 -0.1678 -1.1994 -0.6135
 3674SOL     OW11599   2.922   9.935   5.697 -0.1029  0.5006  0.1730
 3674SOL    HW111600   2.843   9.985   5.674  1.2158  2.5726 -0.1386
 3674SOL    HW211601   2.901   9.894   5.781 -2.2884 -0.9179 -0.9557
 3675SOL     OW11602   1.133   0.489   0.406 -0.4042 -0.4630 -0.1014
 3675SOL    HW111603   1.205   0.426   0.400 -0.8130 -0.9194 -0.2306
 3675SOL    HW211604   1.126   0.525   0.318  1.9789  2.2023  0.6391
 3676SOL     OW11605   5.374   3.553   0.656  0.2143 -0.6247  0.1961
 3676SOL    HW111606   5.342   3.485   0.716 -0.6540 -0.8260 -0.4606
 3676SOL    HW211607   5.299   3.571   0.599  0.4150  0.9332  0.3855
 3677SOL     OW11608   7.389   9.502   8.549 -0.1475 -0.0851 -0.2428
 3677SOL    HW111609   7.459   9.508   8.484 -1.7558  0.5307 -2.0087
 3677SOL    HW211610   7.433   9.515   8.633  1.4873  3.5770 -1.4725
 3678SOL     OW11611   3.631   9.738   8.437 -0.1949  0.7713 -0.8246
 3678SOL    HW111612   3.680   9.814   8.404 -0.0531  0.4542 -1.3617
 3678SOL    HW211613   3.546   9.743   8.393  0.3057 -0.1418 -1.9556
 3679SOL     OW11614   4.860   7.672   1.433  0.1413  0.0017  0.0818
 3679SOL    HW111615   4.929   7.731   1.464  0.5942 -0.6078  0.2432
 3679SOL    HW211616   4.906   7.603   1.387 -0.4276  0.0642 -0.5971
 3680SOL     OW11617   7.552   5.242   6.823 -0.1822  0.0313 -0.1555
 3680SOL    HW111618   7.566   5.148   6.828  0.5117  0.1781  1.5714
 3680SOL    HW211619   7.630   5.280   6.862  0.6759  1.4649 -3.0037
 3681SOL     OW11620   2.819   2.459   9.703  0.1711 -0.2091 -0.4033
 3681SOL    HW111621   2.733   2.418   9.693 -0.7119  0.7637  2.2772
 3681SOL    HW211622   2.877   2.387   9.726  0.3654 -1.0230 -3.1325
 3682SOL     OW11623   7.447   7.204   5.687  0.3938 -0.0143  0.2121
 3682SOL    HW111624   7.475   7.121   5.650  1.7382  0.6044 -0.2155
 3682SOL    HW211625   7.471   7.269   5.621  0.1860  0.8057  0.9238
 3683SOL     OW11626   5.376   5.936   0.987 -0.4936 -0.1202 -0.9133
 3683SOL    HW111627   5.344   5.942   1.077  0.6027  2.1979 -0.6051
 3683SOL    HW211628   5.297   5.937   0.933 -1.0957  0.3069 -0.0425
 3684SOL     OW11629   0.739   9.787   3.642  0.1003 -0.2518 -0.0930
 3684SOL    HW111630   0.698   9.870   3.621  0.9962  0.0003 -0.9424
 3684SOL    HW211631   0.715   9.770   3.734  0.5006  1.2918  0.3208
 3685SOL     OW11632   0.623   6.911   9.903  0.5252 -0.3134  0.0377
 3685SOL    HW111633   0.538   6.893   9.861  0.2298  1.1698 -0.0369
 3685SOL    HW211634   0.608   6.892   9.996 -0.3943  1.4316  0.2921
 3686SOL     OW11635   2.903   4.374   6.560 -0.2175 -0.0263 -0.5822
 3686SOL    HW111636   2.917   4.280   6.552  0.4461  0.1536 -1.6734
 3686SOL    HW211637   2.814   4.388   6.526 -0.3546 -0.2594 -0.3250
 3687SOL     OW11638   2.491   2.704   4.368  0.0941 -0.0697 -0.6138
 3687SOL    HW111639   2.521   2.713   4.459 -2.7188  0.2128  0.3581
 3687SOL    HW211640   2.489   2.609   4.353 -1.5294 -0.2455  0.4400
 3688SOL     OW11641   6.734   1.738   4.720  0.0359 -0.2464  0.0669
 3688SOL    HW111642   6.674   1.789   4.666  0.1884 -0.4119 -0.2621
 3688SOL    HW211643   6.752   1.794   4.795 -0.5336 -0.1961  0.1747
 3689SOL     OW11644   6.315   6.262   3.175  0.3371 -0.0136 -0.0796
 3689SOL    HW111645   6.230   6.279   3.136  0.1984  0.7907  0.5477
 3689SOL    HW211646   6.325   6.330   3.242  0.0811 -1.9546  2.0743
 3690SOL     OW11647   4.384   5.711   6.664  0.1876  0.7625 -0.5949
 3690SOL    HW111648   4.416   5.736   6.750 -1.9557  0.9526  0.2148
 3690SOL    HW211649   4.422   5.625   6.648 -1.6073 -0.6177  1.9042
 3691SOL     OW11650   8.213   5.434   4.460 -0.1743  0.1139  0.4770
 3691SOL    HW111651   8.164   5.459   4.382 -0.8133  2.4760  1.5305
 3691SOL    HW211652   8.290   5.388   4.427 -1.3041 -0.5229 -1.4155
 3692SOL     OW11653   7.751   9.472   8.610 -0.0590 -0.3669  0.7169
 3692SOL    HW111654   7.783   9.487   8.521 -1.9698 -0.6042 -0.0562
 3692SOL    HW211655   7.806   9.401   8.643  1.2265  0.2795  0.0541
 3693SOL     OW11656   9.784   5.275   2.448  0.4240  0.2931 -0.0350
 3693SOL    HW111657   9.833   5.357   2.445  0.7244  0.1101 -0.1632
 3693SOL    HW211658   9.849   5.209   2.474  0.0216  0.2160  0.8258
 3694SOL     OW11659   7.311   1.982   0.875  0.3886 -0.1375  0.3540
 3694SOL    HW111660   7.269   2.033   0.944  0.4604 -0.1262  0.3897
 3694SOL    HW211661   7.278   2.019   0.793 -2.8732 -2.6497  0.3039
 3695SOL     OW11662   4.978   6.167   0.710 -0.0139  0.4824  0.0661
 3695SOL    HW111663   5.001   6.185   0.619 -2.1722 -0.4018 -0.7198
 3695SOL    HW211664   4.914   6.235   0.732 -2.5520 -1.5349 -0.4937
 3696SOL     OW11665   1.186   4.824   0.498  0.5331  0.3369  0.5458
 3696SOL    HW111666   1.193   4.755   0.433  0.5886  0.2890  0.6014
 3696SOL    HW211667   1.092   4.840   0.507  0.5869  2.0845 -1.3616
 3697SOL     OW11668   9.103   8.365   3.073  0.6564  0.2813  0.4023
 3697SOL    HW111669   9.028   8.308   3.084  2.0666 -1.5490  1.0303
 3697SOL    HW211670   9.152   8.328   2.999  2.3344 -0.2487  1.7056
 3698SOL     OW11671   5.638   7.871   7.675  0.1820  0.2111 -0.3783
 3698SOL    HW111672   5.582   7.941   7.708 -0.9164 -0.5569 -0.5618
 3698SOL    HW211673   5.601   7.848   7.590  0.9484 -0.1298 -0.6298
 3699SOL     OW11674   0.999   1.734   2.685 -0.5792 -1.1125 -0.0852
 3699SOL    HW111675   1.074   1.681   2.714 -0.6949 -1.6858 -0.8211
 3699SOL    HW211676   1.027   1.825   2.701 -0.6543 -1.3794  1.8592
 3700SOL     OW11677   7.984   3.295   0.063  0.7064 -0.6708  0.2890
 3700SOL    HW111678   8.023   3.382   0.068 -1.5267  0.4507 -0.1992
 3700SOL    HW211679   7.979   3.265   0.153  1.9800 -0.5527  0.4167
 3701SOL     OW11680   5.349   3.742   3.094  0.4715 -0.1178  0.6453
 3701SOL    HW111681   5.343   3.741   3.189 -0.6300 -1.0392  0.5846
 3701SOL    HW211682   5.286   3.676   3.065  1.8547 -0.9326 -0.6590
 3702SOL     OW11683   8.729   7.776   0.913 -0.1400 -0.3683 -0.5434
 3702SOL    HW111684   8.664   7.718   0.952 -0.5906  0.5174  0.0678
 3702SOL    HW211685   8.805   7.720   0.897 -1.6037 -1.8584 -2.9017
 3703SOL     OW11686   1.174   6.967   0.109 -0.2082 -0.1330 -0.5474
 3703SOL    HW111687   1.236   6.909   0.155  0.5891  0.8216 -0.3782
 3703SOL    HW211688   1.093   6.959   0.158  0.5731  0.7342  0.9759
 3704SOL     OW11689   5.990   7.867   9.475 -0.1195 -0.1254  0.0897
 3704SOL    HW111690   6.001   7.935   9.542  1.7082 -0.6385  0.3591
 3704SOL    HW211691   6.049   7.797   9.502 -1.0144 -1.2930 -0.8840
 3705SOL     OW11692   1.436   1.695   6.911 -0.0806  0.0138  0.4356
 3705SOL    HW111693   1.354   1.654   6.937 -0.4120  0.5432  0.2287
 3705SOL    HW211694   1.421   1.789   6.922  0.1000  0.1915 -0.7296
 3706SOL     OW11695   1.607   2.338   7.068 -0.2460 -0.0896  0.5677
 3706SOL    HW111696   1.575   2.287   6.994  0.7713  0.8725 -0.5802
 3706SOL    HW211697   1.560   2.303   7.143 -1.4600 -0.9677 -0.5525
 3707SOL     OW11698   5.121   4.384   6.307 -0.3663  0.4513 -0.4097
 3707SOL    HW111699   5.095   4.460   6.256 -0.4617  0.0187 -1.0140
 3707SOL    HW211700   5.187   4.417   6.368 -0.9408  1.1651 -0.1580
 3708SOL     OW11701   1.461   2.476   2.136  1.2756  0.3301 -0.0181
 3708SOL    HW111702   1.547   2.458   2.172  1.3451 -1.8720 -1.1129
 3708SOL    HW211703   1.408   2.401   2.161  0.2397  0.6846 -1.0606
 3709SOL     OW11704   0.969   4.704   2.583 -0.3470  0.1724 -0.6209
 3709SOL    HW111705   1.024   4.776   2.553  0.2697 -0.3375 -0.7273
 3709SOL    HW211706   0.962   4.646   2.507  1.2514 -1.1514  0.1907
 3710SOL     OW11707   7.105   7.162  -0.025  0.1610  0.0969 -0.0025
 3710SOL    HW111708   7.127   7.255  -0.024  0.4964  0.0287 -0.6559
 3710SOL    HW211709   7.085   7.141   0.066  0.7518  0.6502  0.2625
 3711SOL     OW11710   9.040   5.197   9.282  0.5303 -0.0228 -0.3129
 3711SOL    HW111711   9.071   5.287   9.274 -2.2632  1.1257  0.2870
 3711SOL    HW211712   9.030   5.166   9.192  3.8234 -0.7557 -0.5613
 3712SOL     OW11713   0.231   9.275   3.073  0.1595 -0.4239  0.0990
 3712SOL    HW111714   0.219   9.264   2.979 -1.8682  0.3748  0.2293
 3712SOL    HW211715   0.237   9.185   3.107 -0.6465 -0.7612 -0.6226
 3713SOL     OW11716   5.050   3.971   6.767  0.3241 -0.0710 -0.0185
 3713SOL    HW111717   5.127   3.921   6.743 -0.3544 -0.7976 -0.7056
 3713SOL    HW211718   5.004   3.917   6.832 -0.1554 -0.1306 -0.3991
 3714SOL     OW11719   9.553   1.390   6.089  0.2065 -0.3191 -0.0692
 3714SOL    HW111720   9.576   1.399   6.182  0.4206 -0.8367 -0.0689
 3714SOL    HW211721   9.624   1.338   6.052  1.1309  1.4675 -0.9455
 3715SOL     OW11722   0.402   8.548   5.162 -0.6284 -0.3957 -0.1923
 3715SOL    HW111723   0.383   8.636   5.195 -1.4252 -0.2001 -1.1210
 3715SOL    HW211724   0.317   8.513   5.138 -0.2280 -1.1253 -0.5774
 3716SOL     OW11725   2.036   7.747   5.083 -0.0375  0.2255 -0.0229
 3716SOL    HW111726   2.008   7.681   5.020  0.2831  0.9038 -0.8869
 3716SOL    HW211727   2.114   7.787   5.044 -0.6564  1.6288  0.1224
 3717SOL     OW11728   2.592   7.634   1.011 -0.0438  0.0925 -0.6114
 3717SOL    HW111729   2.639   7.605   1.089  0.1789 -0.2171 -0.8567
 3717SOL    HW211730   2.503   7.602   1.023  0.2921 -1.0654 -1.0624
 3718SOL     OW11731   7.114   0.356   3.791 -0.0285 -0.5490  0.1713
 3718SOL    HW111732   7.080   0.314   3.869  0.3845 -2.0581 -0.4319
 3718SOL    HW211733   7.202   0.320   3.780 -0.8901 -2.1718 -2.2343
 3719SOL     OW11734   8.572   5.061   0.340 -0.3116  0.3944 -0.1186
 3719SOL    HW111735   8.583   5.127   0.408 -0.6552  0.5991 -0.2592
 3719SOL    HW211736   8.491   5.016   0.364 -0.6347  0.7131 -0.5955
 3720SOL     OW11737   9.617   4.858   3.391 -0.4670 -0.1924 -0.3089
 3720SOL    HW111738   9.551   4.822   3.331 -0.3902 -1.4834  0.3328
 3720SOL    HW211739   9.700   4.842   3.347 -0.4036 -1.2262  0.1580
 3721SOL     OW11740   9.715   7.281   5.500  0.5904  0.3085 -0.0926
 3721SOL    HW111741   9.717   7.194   5.540  0.1118  0.4970  0.3598
 3721SOL    HW211742   9.760   7.270   5.416  0.4760 -0.3915 -0.0708
 3722SOL     OW11743   6.434   8.502   3.291 -0.0626 -0.4265  0.4217
 3722SOL    HW111744   6.397   8.574   3.342 -0.2671  1.1710 -1.8205
 3722SOL    HW211745   6.479   8.546   3.218 -1.6136 -2.5557 -1.9723
 3723SOL     OW11746   7.050   1.984   2.026  1.1759  0.0882 -0.3687
 3723SOL    HW111747   7.010   2.066   1.997  0.8467 -0.0669 -0.3575
 3723SOL    HW211748   6.978   1.921   2.026  1.6495 -0.4795 -1.4474
 3724SOL     OW11749   1.908   4.218   8.279 -0.0904  0.4923  0.1204
 3724SOL    HW111750   1.860   4.294   8.245  1.5537  1.6960  0.3557
 3724SOL    HW211751   1.962   4.189   8.207  1.7208  1.6447  0.9376
 3725SOL     OW11752   2.474   3.752   1.826  0.0819  0.1437  0.2123
 3725SOL    HW111753   2.481   3.677   1.767  0.3526 -0.2608  0.7548
 3725SOL    HW211754   2.523   3.822   1.782 -1.5095  0.5148 -1.0812
 3726SOL     OW11755   8.801   4.548   1.736 -0.1869 -0.6249 -0.1821
 3726SOL    HW111756   8.727   4.500   1.699  0.3448 -2.7425  1.3060
 3726SOL    HW211757   8.873   4.533   1.674 -0.5858  0.1970 -0.8683
 3727SOL     OW11758   7.060   3.056   5.301 -0.3529 -0.4496  0.4043
 3727SOL    HW111759   7.039   2.984   5.361 -1.2078 -0.6752 -0.1619
 3727SOL    HW211760   7.050   3.019   5.214 -0.0973  0.1607  0.1104
 3728SOL     OW11761   3.011   4.154   8.673  0.0674 -0.0018  0.0718
 3728SOL    HW111762   3.026   4.116   8.759 -0.4998 -0.2813  0.0569
 3728SOL    HW211763   3.069   4.105   8.614  2.2723  1.7881  0.6235
 3729SOL     OW11764   6.658   2.641   1.162  0.1970  0.5316 -0.4968
 3729SOL    HW111765   6.753   2.642   1.163  0.2091 -0.1934 -0.0267
 3729SOL    HW211766   6.634   2.669   1.073  0.8593  0.0243 -0.8438
 3730SOL     OW11767   1.304   3.743   6.236  0.1305  0.2255 -0.2030
 3730SOL    HW111768   1.399   3.731   6.241  0.0175 -0.3992  0.5537
 3730SOL    HW211769   1.284   3.806   6.306  0.0990  1.1313 -1.0041
 3731SOL     OW11770   6.481   0.097   5.947  0.1400 -0.5738  0.1329
 3731SOL    HW111771   6.476   0.003   5.933  0.8065 -0.4887 -0.7800
 3731SOL    HW211772   6.549   0.127   5.886  0.6224  0.3654  1.0890
 3732SOL     OW11773   7.831   3.920   3.544  0.4727  0.3889  0.3877
 3732SOL    HW111774   7.878   3.895   3.464 -1.1199 -0.3029 -0.3806
 3732SOL    HW211775   7.872   3.867   3.613 -1.0328 -2.5242 -0.7557
 3733SOL     OW11776   0.939   4.593   1.911 -0.0322 -0.9826  0.0746
 3733SOL    HW111777   0.948   4.575   1.818  2.2257 -2.2840  0.4583
 3733SOL    HW211778   0.847   4.571   1.931 -1.4934  2.2410 -2.3024
 3734SOL     OW11779   3.595   3.721   8.417  0.1318  0.0407  0.0025
 3734SOL    HW111780   3.528   3.656   8.396 -0.1959  0.1969  0.5416
 3734SOL    HW211781   3.574   3.796   8.362 -0.2886  0.1771  0.3386
 3735SOL     OW11782   1.679   4.552   1.822  0.4752 -0.0050 -0.5582
 3735SOL    HW111783   1.644   4.641   1.819 -0.2937 -0.3267 -3.5117
 3735SOL    HW211784   1.708   4.533   1.733 -1.3129 -3.4297 -0.6204
 3736SOL     OW11785   6.592   8.393   9.304  0.2154  0.1414  0.3115
 3736SOL    HW111786   6.507   8.420   9.268  0.4956 -0.3940 -0.7936
 3736SOL    HW211787   6.579   8.396   9.399 -1.3154 -0.7223  0.1723
 3737SOL     OW11788   6.368   1.610   0.458 -0.0647  0.0395 -0.2704
 3737SOL    HW111789   6.414   1.559   0.391  1.1714 -0.7630  1.1246
 3737SOL    HW211790   6.423   1.687   0.472 -0.3180  0.2070 -0.1908
 3738SOL     OW11791   8.819   7.422   4.248 -0.3269 -0.3017 -0.0391
 3738SOL    HW111792   8.885   7.368   4.291 -1.1177 -1.3415 -0.0994
 3738SOL    HW211793   8.867   7.499   4.218  1.1068 -1.5395 -1.0513
 3739SOL     OW11794   4.544   0.884   3.595 -0.7186 -0.1044 -0.2559
 3739SOL    HW111795   4.457   0.845   3.586 -0.2476 -2.0251  2.3988
 3739SOL    HW211796   4.555   0.898   3.689  1.2839  1.5403 -0.6499
 3740SOL     OW11797   4.138   8.376   6.828 -0.1868 -0.1348 -0.2878
 3740SOL    HW111798   4.044   8.361   6.822 -0.2540 -0.6705  1.5221
 3740SOL    HW211799   4.167   8.386   6.737 -1.9954  0.1537 -0.8680
 3741SOL     OW11800   9.067   5.323   1.290  0.8588  0.3575  0.3116
 3741SOL    HW111801   9.158   5.294   1.282  1.0160  1.0536 -0.6836
 3741SOL    HW211802   9.015   5.244   1.279  1.3407 -0.0174  0.6972
 3742SOL     OW11803   7.384   7.420   9.377  0.5118 -0.0165  0.1242
 3742SOL    HW111804   7.367   7.399   9.286 -1.2190 -0.7042  0.5632
 3742SOL    HW211805   7.398   7.335   9.419 -0.5048  0.1314  0.8044
 3743SOL     OW11806   7.173   6.280   9.035  0.1342 -0.2152  0.4439
 3743SOL    HW111807   7.136   6.337   8.968 -0.4586 -0.3842  0.6267
 3743SOL    HW211808   7.223   6.340   9.092  0.7491 -0.0914 -0.2116
 3744SOL     OW11809   6.745   9.523   5.119 -0.0217 -0.4978  0.2343
 3744SOL    HW111810   6.677   9.457   5.106  0.3574 -0.6588 -1.0551
 3744SOL    HW211811   6.827   9.474   5.118  0.3964  0.1270 -2.4837
 3745SOL     OW11812   6.818   6.039   8.142  0.3266 -0.5539 -0.0131
 3745SOL    HW111813   6.821   5.945   8.127  2.6563 -0.5520  0.0832
 3745SOL    HW211814   6.856   6.051   8.229  0.5106  0.5051 -0.2218
 3746SOL     OW11815   3.159   9.036   5.498  0.4096  0.1979 -0.1197
 3746SOL    HW111816   3.131   9.126   5.511  2.1070  0.7499 -0.0502
 3746SOL    HW211817   3.252   9.036   5.522  0.3375 -1.6658  0.3345
 3747SOL     OW11818   0.867   0.147   4.583 -0.6765  0.8056  0.1636
 3747SOL    HW111819   0.960   0.132   4.599 -1.0061 -2.3801 -0.2517
 3747SOL    HW211820   0.863   0.182   4.495  0.1157 -0.8822 -0.5965
 3748SOL     OW11821   8.048   5.035   6.044 -0.1312  0.0349 -0.5553
 3748SOL    HW111822   8.087   5.070   6.124  0.6612 -0.2752 -0.7961
 3748SOL    HW211823   7.986   4.969   6.074  0.5156 -0.4252 -0.2048
 3749SOL     OW11824   7.935   1.932   4.582  0.5987 -0.0208 -0.0295
 3749SOL    HW111825   7.940   1.848   4.629  1.6908  0.0632  0.0270
 3749SOL    HW211826   7.993   1.921   4.507 -0.3627  0.2041 -0.8413
 3750SOL     OW11827   2.755   3.203   8.255  0.2194  0.0895  0.6232
 3750SOL    HW111828   2.828   3.255   8.289  0.0830  2.9728 -2.9158
 3750SOL    HW211829   2.797   3.130   8.209  0.4684 -1.9891  3.8114
 3751SOL     OW11830   8.255   0.186   6.372  0.0167 -0.0071  0.2815
 3751SOL    HW111831   8.280   0.269   6.413  2.7310 -1.6458  2.3098
 3751SOL    HW211832   8.179   0.157   6.422  0.0100  0.5322  0.6016
 3752SOL     OW11833   6.302   5.435   4.477  0.1344  0.2808 -0.1602
 3752SOL    HW111834   6.228   5.495   4.488  0.6570  0.9487 -0.2561
 3752SOL    HW211835   6.309   5.390   4.562 -1.4412 -1.0330 -0.6758
 3753SOL     OW11836   4.793   4.039   0.579  0.0010  0.2180  0.3152
 3753SOL    HW111837   4.867   4.083   0.622 -0.0265  1.8578 -1.2103
 3753SOL    HW211838   4.732   4.021   0.651  1.5441 -0.5704  1.5070
 3754SOL     OW11839   0.795   9.153   4.997  0.1862 -0.1949  0.0647
 3754SOL    HW111840   0.851   9.231   5.002  0.6361 -0.5709  1.6686
 3754SOL    HW211841   0.764   9.141   5.087  1.1985 -2.6344  0.1629
 3755SOL     OW11842   4.323   8.216   9.299 -0.8036  0.4804  0.3038
 3755SOL    HW111843   4.258   8.278   9.266 -2.3466 -1.3697 -0.3389
 3755SOL    HW211844   4.275   8.133   9.308  1.7996 -1.4153 -1.7219
 3756SOL     OW11845   9.593   4.267   4.642  0.2915 -0.1131 -0.0789
 3756SOL    HW111846   9.592   4.176   4.611  0.3787 -0.0229 -0.3519
 3756SOL    HW211847   9.544   4.316   4.576  0.6173  0.1076 -0.1598
 3757SOL     OW11848   4.790   0.434   1.709  0.0718  0.0957 -0.3022
 3757SOL    HW111849   4.806   0.522   1.745  1.6015  0.2241 -1.2366
 3757SOL    HW211850   4.842   0.431   1.629 -2.9001 -0.3240 -2.3856
 3758SOL     OW11851   1.141   3.461   6.768  0.0141  0.9448 -0.1201
 3758SOL    HW111852   1.095   3.485   6.688 -1.1998 -1.7060 -0.3452
 3758SOL    HW211853   1.197   3.536   6.787  2.4928  0.7131 -4.9776
 3759SOL     OW11854   6.894   3.977   1.057  0.3195 -0.0530  0.1564
 3759SOL    HW111855   6.851   4.059   1.082  1.3081  0.5481 -0.0709
 3759SOL    HW211856   6.932   3.995   0.971 -1.9093 -1.6737 -1.2813
 3760SOL     OW11857   6.385   9.064   0.003 -0.0782 -0.2391 -0.2855
 3760SOL    HW111858   6.408   9.155  -0.012  0.1634 -0.6428 -2.8323
 3760SOL    HW211859   6.306   9.067   0.057  0.6383  1.4113  0.7201
 3761SOL     OW11860   8.154   1.092   9.102 -0.2751 -0.0008  0.7330
 3761SOL    HW111861   8.172   1.155   9.032 -0.4128 -0.2263  0.4908
 3761SOL    HW211862   8.237   1.082   9.147 -0.2372  0.3107  0.7354
 3762SOL     OW11863   1.400   7.601   9.205  0.1652 -0.1910 -0.1102
 3762SOL    HW111864   1.481   7.570   9.245  0.4252 -0.3829 -0.7666
 3762SOL    HW211865   1.383   7.685   9.247 -0.2998 -0.9926  1.3635
 3763SOL     OW11866   3.125   8.122   7.823 -0.0993  0.4560  0.9187
 3763SOL    HW111867   3.177   8.181   7.877  0.2813  0.9949 -0.0178
 3763SOL    HW211868   3.035   8.152   7.835  0.0274  0.8457  0.9278
 3764SOL     OW11869   2.892   4.137   3.351  0.0647  0.0921  0.2434
 3764SOL    HW111870   2.895   4.226   3.315  1.0359 -0.2641 -0.5893
 3764SOL    HW211871   2.811   4.100   3.318 -0.1892  0.5612  0.3381
 3765SOL     OW11872   8.482   9.251   2.436 -0.3475  0.3954 -0.3246
 3765SOL    HW111873   8.474   9.323   2.373  0.9679  1.4410  0.6484
 3765SOL    HW211874   8.566   9.210   2.416  0.0488  0.6932  0.6778
 3766SOL     OW11875   8.995   4.739   7.775  0.1408  0.0435  0.5237
 3766SOL    HW111876   8.916   4.708   7.819 -0.2520 -1.7059 -1.2307
 3766SOL    HW211877   9.066   4.721   7.837 -0.6301 -0.2325  1.3413
 3767SOL     OW11878   6.569   5.332   1.955 -0.0890  0.1530 -0.3469
 3767SOL    HW111879   6.600   5.292   2.036 -2.6179 -1.1150  0.0626
 3767SOL    HW211880   6.558   5.259   1.894 -0.9118  0.7199 -0.9027
 3768SOL     OW11881   4.772   9.931   7.525  0.3886 -0.1397  0.0947
 3768SOL    HW111882   4.730   9.927   7.611  0.2043  0.0340  0.0132
 3768SOL    HW211883   4.714   9.986   7.472 -0.7681 -2.1435 -0.8605
 3769SOL     OW11884   5.999   1.732   1.282 -0.4202 -0.2934  0.0762
 3769SOL    HW111885   6.036   1.672   1.347  1.3570 -1.7787 -2.1386
 3769SOL    HW211886   5.972   1.809   1.333  3.1565 -0.2868  2.3460
 3770SOL     OW11887   4.050   2.587   4.252  0.0066  0.3230  0.2428
 3770SOL    HW111888   3.978   2.590   4.188 -0.9655  1.6771  1.3356
 3770SOL    HW211889   4.015   2.537   4.325  0.6941 -0.2077  0.2205
 3771SOL     OW11890   5.783   8.384   1.402  0.0909 -0.3258  0.3298
 3771SOL    HW111891   5.806   8.473   1.377  0.7751 -0.7018 -0.3887
 3771SOL    HW211892   5.691   8.375   1.376  0.2527 -0.0919 -0.3374
 3772SOL     OW11893   4.297   0.803   3.612 -0.1287  0.3572  0.0061
 3772SOL    HW111894   4.252   0.868   3.667  0.6555 -0.4217  1.6127
 3772SOL    HW211895   4.279   0.719   3.653  2.1734 -0.0604  0.3279
 3773SOL     OW11896   5.941   4.120   1.332 -0.5875 -0.3695  0.2850
 3773SOL    HW111897   6.005   4.084   1.394 -0.7703 -0.3602  0.4795
 3773SOL    HW211898   5.994   4.152   1.259 -0.2386  0.9126  1.0602
 3774SOL     OW11899   6.791   4.801   6.912  0.2420  0.5463 -0.1389
 3774SOL    HW111900   6.823   4.847   6.990  0.2290 -1.6923  1.2915
 3774SOL    HW211901   6.745   4.724   6.947 -1.5008  0.4938 -2.3304
 3775SOL     OW11902   1.006   7.127   5.710 -0.0929  0.0664  0.0469
 3775SOL    HW111903   1.082   7.069   5.713  0.0288  0.2387  0.3601
 3775SOL    HW211904   1.042   7.214   5.728 -0.2208  0.2981 -0.7764
 3776SOL     OW11905   7.673   7.498   3.412  0.4577  0.3487  0.3201
 3776SOL    HW111906   7.589   7.539   3.392 -0.3413 -2.0743 -2.0091
 3776SOL    HW211907   7.709   7.474   3.326  2.0902 -1.3554  1.3950
 3777SOL     OW11908   5.030   7.424   4.539 -0.3963  0.3012  0.0221
 3777SOL    HW111909   4.938   7.398   4.536  0.1218 -1.5590 -0.5621
 3777SOL    HW211910   5.043   7.453   4.630 -0.8723 -2.1947  0.9699
 3778SOL     OW11911   4.062   1.305   1.652 -0.4574  0.1089 -0.1582
 3778SOL    HW111912   4.154   1.289   1.629 -0.2548  0.8217  0.1127
 3778SOL    HW211913   4.013   1.242   1.601  0.2492 -0.9214  0.3890
 3779SOL     OW11914   7.192   4.987   1.293  0.3102 -0.0010 -0.1094
 3779SOL    HW111915   7.239   5.052   1.240  0.4832  0.2310  0.3256
 3779SOL    HW211916   7.117   4.963   1.239  1.0854 -0.5999 -0.9408
 3780SOL     OW11917   1.155   4.080   9.004  0.3251 -1.0164  0.3267
 3780SOL    HW111918   1.135   4.114   9.091 -0.1568 -1.0133  0.2217
 3780SOL    HW211919   1.122   4.147   8.944 -0.0393 -1.3607  0.1333
 3781SOL     OW11920   8.322   9.399   4.434 -0.4545 -0.1366  0.3774
 3781SOL    HW111921   8.271   9.399   4.515  1.7761  0.5107  1.8655
 3781SOL    HW211922   8.399   9.346   4.454  1.4386  2.1649 -0.3797
 3782SOL     OW11923   3.867   5.469   4.529 -0.0560 -0.5199  0.0024
 3782SOL    HW111924   3.929   5.440   4.462  0.3270 -1.5704  0.7854
 3782SOL    HW211925   3.812   5.392   4.546  0.6790 -0.7162  1.7828
 3783SOL     OW11926   7.037   8.706   0.028 -0.1343  0.1262 -0.2665
 3783SOL    HW111927   7.041   8.626   0.079  0.1390 -1.3018 -2.3771
 3783SOL    HW211928   7.023   8.775   0.092 -1.2496 -1.6775  1.5517
 3784SOL     OW11929   2.626   3.233   6.409 -0.7153 -0.1743  0.0073
 3784SOL    HW111930   2.566   3.175   6.361 -0.5975 -1.0075  0.8412
 3784SOL    HW211931   2.630   3.195   6.496  1.3590 -0.3827 -0.1380
 3785SOL     OW11932   6.118   7.722   7.385 -0.2655 -0.0756  0.3105
 3785SOL    HW111933   6.185   7.719   7.317 -0.6717 -1.1032 -0.0554
 3785SOL    HW211934   6.041   7.757   7.341 -0.1285  0.6304  0.6109
 3786SOL     OW11935   6.672   9.190   6.692 -0.2314  0.8012  0.2270
 3786SOL    HW111936   6.633   9.147   6.616  0.4814  1.0609 -0.2978
 3786SOL    HW211937   6.598   9.215   6.746 -0.7654  0.8068 -0.4917
 3787SOL     OW11938   6.061   2.192   6.108 -0.0837 -0.0224  0.2829
 3787SOL    HW111939   5.989   2.253   6.121  0.4736  0.7874 -0.3589
 3787SOL    HW211940   6.118   2.206   6.183 -0.3508 -0.3274  0.5464
 3788SOL     OW11941   8.436   1.928   8.189  0.0070  0.6072 -0.5740
 3788SOL    HW111942   8.473   1.845   8.159 -0.9291 -0.1052  0.1706
 3788SOL    HW211943   8.492   1.954   8.262 -1.3195 -0.8778  1.0781
 3789SOL     OW11944   6.022   7.950   6.707 -0.0688 -0.9574  0.1762
 3789SOL    HW111945   5.958   7.924   6.640 -1.0486  3.5470 -1.0131
 3789SOL    HW211946   5.973   7.947   6.789 -1.0199 -0.2482 -0.3371
 3790SOL     OW11947   8.084   0.660   1.342  0.9775 -0.1645  0.2474
 3790SOL    HW111948   8.034   0.604   1.403  3.0614 -1.7787  0.5868
 3790SOL    HW211949   8.072   0.618   1.257 -0.5786  1.1523 -0.2364
 3791SOL     OW11950   5.287   9.731   8.524  0.0443  0.2844 -0.4503
 3791SOL    HW111951   5.346   9.661   8.496 -1.1756 -0.2212 -1.9544
 3791SOL    HW211952   5.216   9.685   8.569 -1.2817  0.3689 -2.3316
 3792SOL     OW11953   9.401   4.063   4.026 -0.3882 -0.0738 -0.3346
 3792SOL    HW111954   9.386   4.155   4.004 -1.5033 -0.2764 -0.4952
 3792SOL    HW211955   9.369   4.014   3.950  2.5566 -0.5517 -1.4001
 3793SOL     OW11956   6.931   8.952   4.973 -0.0671 -0.2584 -0.6182
 3793SOL    HW111957   6.849   8.972   4.928 -0.2610 -0.6183 -0.4238
 3793SOL    HW211958   6.981   9.034   4.967 -1.1169  0.5182  0.7405
 3794SOL     OW11959   3.755   4.939   5.286  0.0217  0.4466  0.1901
 3794SOL    HW111960   3.791   4.893   5.363  0.9655 -0.1233 -0.5640
 3794SOL    HW211961   3.813   5.014   5.275 -0.0812  0.4961  0.0002
 3795SOL     OW11962   0.345   4.832   3.871  0.1833  0.5240  0.0232
 3795SOL    HW111963   0.417   4.856   3.812  0.3373  1.7815  0.6678
 3795SOL    HW211964   0.384   4.772   3.934  0.7098  1.2257  0.3890
 3796SOL     OW11965   9.634   4.334   1.722  0.1780 -0.2225  0.7364
 3796SOL    HW111966   9.671   4.376   1.799  0.6526  1.2728 -0.2604
 3796SOL    HW211967   9.558   4.387   1.699 -0.3856 -1.0799  0.5884
 3797SOL     OW11968   8.643   9.285   6.840  0.6714 -0.2608  0.0645
 3797SOL    HW111969   8.707   9.348   6.804 -0.0695  0.7900  0.5274
 3797SOL    HW211970   8.631   9.313   6.931 -1.2891  0.2962 -0.3127
 3798SOL     OW11971   6.545   6.350   0.286 -0.4948  0.1000  0.3833
 3798SOL    HW111972   6.562   6.369   0.194 -0.7847 -0.0966  0.2868
 3798SOL    HW211973   6.449   6.352   0.293 -0.4915 -0.3747  0.5754
 3799SOL     OW11974   9.276   3.680   1.371 -0.0753  0.5375 -0.2846
 3799SOL    HW111975   9.186   3.652   1.389 -0.5061  0.8850 -1.7263
 3799SOL    HW211976   9.309   3.712   1.455 -0.9550 -0.5026  0.4834
 3800SOL     OW11977   3.219   8.441   3.982 -0.4027 -0.2335  0.0671
 3800SOL    HW111978   3.177   8.527   3.984  0.2932  0.1028  0.9601
 3800SOL    HW211979   3.269   8.441   3.901 -2.0566 -0.6264 -0.9950
 3801SOL     OW11980   7.548   5.572   3.044  0.4303 -0.2955  0.7582
 3801SOL    HW111981   7.565   5.665   3.030  0.2177 -0.1926  1.1617
 3801SOL    HW211982   7.453   5.567   3.060 -0.3106 -1.0281 -2.9990
 3802SOL     OW11983   6.896   8.544   5.855 -0.4850 -0.3891 -0.0514
 3802SOL    HW111984   6.987   8.562   5.876 -0.8007  0.3152  0.7805
 3802SOL    HW211985   6.893   8.451   5.835 -0.0258 -1.0108  2.4511
 3803SOL     OW11986   9.682   3.871   0.159  0.5085 -0.7224 -0.8394
 3803SOL    HW111987   9.647   3.786   0.133 -0.1842 -1.3528  1.8938
 3803SOL    HW211988   9.767   3.876   0.114 -0.1266 -2.1205 -2.2979
 3804SOL     OW11989   2.955   6.892   0.913  0.1919 -0.1937  0.4101
 3804SOL    HW111990   3.007   6.929   0.841 -0.6559 -0.1735 -0.2134
 3804SOL    HW211991   3.017   6.842   0.964  0.7774 -0.4005 -0.4764
 3805SOL     OW11992   7.131   7.333   1.442  0.1987 -0.0187  0.4392
 3805SOL    HW111993   7.205   7.301   1.493  0.5876  0.4550  0.1819
 3805SOL    HW211994   7.059   7.274   1.464  0.4390  0.0043  1.3066
 3806SOL     OW11995   6.656   2.584   5.955  0.2226  0.3421 -0.1519
 3806SOL    HW111996   6.722   2.651   5.975 -1.3047  1.2165  2.4257
 3806SOL    HW211997   6.652   2.531   6.034 -0.6677 -1.0263 -1.0832
 3807SOL     OW11998   1.349   5.540   2.835  0.2495  0.2852  0.2443
 3807SOL    HW111999   1.280   5.540   2.901  1.6472  1.1906  1.7751
 3807SOL    HW212000   1.306   5.569   2.754 -1.2832  0.1463  0.9842
 3808SOL     OW12001   1.885   3.656   9.424  0.1338  0.1669 -0.5450
 3808SOL    HW112002   1.861   3.746   9.402 -0.3607 -0.2212 -1.7149
 3808SOL    HW212003   1.936   3.627   9.348  3.7330  0.6828  1.4539
 3809SOL     OW12004   1.549   6.643   7.994 -0.4126 -0.4257  0.0184
 3809SOL    HW112005   1.537   6.560   8.040 -0.3632  1.0370  2.9141
 3809SOL    HW212006   1.605   6.695   8.052 -0.5514  1.6752 -1.6079
 3810SOL     OW12007   1.552   4.426   4.770 -0.6092  0.0161  0.2921
 3810SOL    HW112008   1.513   4.483   4.836 -0.3796 -0.2227  0.6414
 3810SOL    HW212009   1.506   4.447   4.689  0.6489  1.9281  0.0245
 3811SOL     OW12010   0.805   1.392   5.453  0.1009 -0.0027  0.3981
 3811SOL    HW112011   0.898   1.378   5.470  0.3753  0.9525 -0.2234
 3811SOL    HW212012   0.770   1.305   5.435  1.2837 -0.1594 -1.2836
 3812SOL     OW12013   1.759   3.637   0.430 -0.0866  0.2162 -0.0202
 3812SOL    HW112014   1.761   3.576   0.503  1.6189  0.2509  0.0071
 3812SOL    HW212015   1.826   3.702   0.451 -1.9872  2.2829  0.0693
 3813SOL     OW12016   4.461   2.410   9.968  0.0458  0.1468 -0.2710
 3813SOL    HW112017   4.374   2.371   9.976  0.5988 -1.0694  0.0020
 3813SOL    HW212018   4.511   2.348   9.915  1.0566  0.2671  0.5075
 3814SOL     OW12019   2.353   3.540   2.789 -0.0581 -0.2977  0.0318
 3814SOL    HW112020   2.276   3.534   2.733  0.1347 -0.0757 -0.2551
 3814SOL    HW212021   2.334   3.481   2.862  0.4719 -2.0856 -1.1908
 3815SOL     OW12022   9.054   4.801   8.334 -0.4197 -0.1726  0.3130
 3815SOL    HW112023   9.149   4.808   8.345 -0.5137 -0.7898  1.7230
 3815SOL    HW212024   9.042   4.784   8.241  0.8423 -0.0468  0.1053
 3816SOL     OW12025   5.393   9.544   0.467  0.2167  0.3396 -0.1229
 3816SOL    HW112026   5.335   9.580   0.534  0.5543  1.8169 -0.5834
 3816SOL    HW212027   5.334   9.497   0.408 -0.2965  0.4409  0.2976
 3817SOL     OW12028   4.858   2.624   6.213 -0.0290 -0.0378  0.2507
 3817SOL    HW112029   4.779   2.615   6.159  1.0793 -0.9332 -1.3195
 3817SOL    HW212030   4.856   2.549   6.272  0.3245 -0.8323 -0.7313
 3818SOL     OW12031   4.356   0.214   3.238 -0.0128 -0.3475  0.4441
 3818SOL    HW112032   4.367   0.204   3.333 -0.8903 -1.5166  0.4461
 3818SOL    HW212033   4.282   0.273   3.228 -0.8474 -1.3493  0.5214
 3819SOL     OW12034   4.721   2.234   7.815  0.1148 -0.1973 -0.3784
 3819SOL    HW112035   4.764   2.267   7.735 -0.1395  0.6610 -0.1705
 3819SOL    HW212036   4.778   2.263   7.886 -0.4222  0.3267 -0.1513
 3820SOL     OW12037   7.082   2.229   2.465  0.3088 -0.4075  0.4298
 3820SOL    HW112038   7.172   2.197   2.469  1.5459  2.6484  0.1260
 3820SOL    HW212039   7.051   2.202   2.379  0.5835 -2.2285  0.8657
 3821SOL     OW12040   7.598   6.029   2.700 -0.0364 -0.0099 -0.0991
 3821SOL    HW112041   7.611   6.070   2.615 -0.8608 -0.1143 -0.2878
 3821SOL    HW212042   7.619   5.937   2.686 -1.1967 -0.2283 -0.4657
 3822SOL     OW12043   6.435   9.953   1.114 -0.0882  0.1745 -0.3701
 3822SOL    HW112044   6.492   9.876   1.112  0.5914  0.6739 -0.9924
 3822SOL    HW212045   6.349   9.920   1.087 -0.0661 -0.5600  0.4176
 3823SOL     OW12046   4.456   8.617   6.227 -0.2113 -0.4599 -0.2010
 3823SOL    HW112047   4.489   8.623   6.137  2.1432 -1.9969  0.4610
 3823SOL    HW212048   4.448   8.523   6.243 -2.0352 -0.1838  0.7726
 3824SOL     OW12049   9.447   6.130   9.840 -0.0747 -0.3007  0.2187
 3824SOL    HW112050   9.484   6.205   9.886 -0.5475 -0.7114  1.3011
 3824SOL    HW212051   9.391   6.088   9.904 -1.4242 -0.4285 -0.9912
 3825SOL     OW12052   3.101   9.736   8.100 -0.6915  0.3758 -0.4239
 3825SOL    HW112053   3.091   9.643   8.079  2.2886 -0.2829  0.4574
 3825SOL    HW212054   3.020   9.760   8.144 -1.2206 -2.0529  0.0880
 3826SOL     OW12055   1.027   6.785   0.441  0.0883  0.0241 -0.3522
 3826SOL    HW112056   1.118   6.782   0.411 -0.3975 -1.6553 -1.7800
 3826SOL    HW212057   0.990   6.862   0.397  0.7977  0.7719  0.3082
 3827SOL     OW12058   1.604   3.489   5.655 -0.1726 -0.0781  0.0571
 3827SOL    HW112059   1.586   3.398   5.632 -1.6508 -0.7661  3.3844
 3827SOL    HW212060   1.675   3.515   5.596  0.3572 -3.3851 -0.9634
 3828SOL     OW12061   7.661   8.612   0.383  0.1742  0.4813  0.3819
 3828SOL    HW112062   7.639   8.628   0.475  0.1274  0.2619  0.4076
 3828SOL    HW212063   7.624   8.526   0.363 -0.1613  0.7002  0.0457
 3829SOL     OW12064   6.346   2.893   9.592  0.0771  0.3364  0.0015
 3829SOL    HW112065   6.340   2.946   9.513  1.7982 -0.7413 -0.8944
 3829SOL    HW212066   6.380   2.808   9.562  1.6215  0.1833  1.9905
 3830SOL     OW12067   9.157   8.232   5.904  0.1240 -0.1825 -0.5684
 3830SOL    HW112068   9.229   8.246   5.965 -0.2700 -0.9834  0.1064
 3830SOL    HW212069   9.141   8.137   5.907 -2.3675  0.2011  0.9470
 3831SOL     OW12070   3.746   2.439   6.414  0.2646  0.2042  0.1186
 3831SOL    HW112071   3.837   2.439   6.386  0.5118  0.5815  0.8886
 3831SOL    HW212072   3.715   2.527   6.391 -0.0877 -0.1247 -0.6943
 3832SOL     OW12073   1.046   5.894   5.365 -0.9232 -0.1484 -0.2471
 3832SOL    HW112074   1.062   5.804   5.336 -0.1706 -0.6852  1.6861
 3832SOL    HW212075   1.032   5.887   5.460  0.9551  1.9521  0.2770
 3833SOL     OW12076   3.648   7.357   6.114  0.6420 -0.3926  0.1225
 3833SOL    HW112077   3.554   7.340   6.119  0.7617 -1.3025 -0.4793
 3833SOL    HW212078   3.666   7.362   6.020  0.9557  1.2564  0.2479
 3834SOL     OW12079   4.040   3.762   8.164 -0.3667  0.3384 -0.2244
 3834SOL    HW112080   4.091   3.795   8.238 -0.6756  0.5066 -0.0836
 3834SOL    HW212081   3.957   3.735   8.203 -0.7343  0.9371 -0.5953
 3835SOL     OW12082   3.800   8.522   9.259 -0.4043  0.1722 -0.4758
 3835SOL    HW112083   3.870   8.586   9.269 -0.5897  0.1882  0.8646
 3835SOL    HW212084   3.722   8.574   9.239  0.0147  0.1235 -2.4251
 3836SOL     OW12085   4.534   2.124   6.341  0.3261 -0.3280 -0.2349
 3836SOL    HW112086   4.561   2.157   6.427  1.1685 -0.5155 -0.4122
 3836SOL    HW212087   4.611   2.138   6.285 -1.1370  2.5382 -1.7698
 3837SOL     OW12088   4.031   1.587   0.146 -0.0729 -0.3475  0.0318
 3837SOL    HW112089   3.955   1.582   0.088 -0.6485  1.8844  0.5305
 3837SOL    HW212090   4.004   1.542   0.225 -1.3314  1.3522  0.6199
 3838SOL     OW12091   8.080   7.700   6.680  0.1874  0.3509  0.1409
 3838SOL    HW112092   8.148   7.763   6.706 -1.3744  1.7306  1.0626
 3838SOL    HW212093   8.129   7.622   6.655  2.0694  0.8769  1.8639
 3839SOL     OW12094   5.924   9.135   3.283  0.3551 -0.3607  0.0423
 3839SOL    HW112095   5.995   9.135   3.347 -0.3937 -0.7767  0.9007
 3839SOL    HW212096   5.966   9.160   3.201  0.8166  3.8860  1.2862
 3840SOL     OW12097   8.843   8.778   5.169 -0.0498  0.3643 -0.4172
 3840SOL    HW112098   8.814   8.808   5.255  0.0728  0.6623 -0.4811
 3840SOL    HW212099   8.847   8.857   5.115 -0.5796  0.1180 -0.8293
 3841SOL     OW12100   0.260   5.753   0.926 -0.0627 -0.4651  0.0915
 3841SOL    HW112101   0.266   5.773   0.832 -1.3511 -0.4424 -0.0004
 3841SOL    HW212102   0.288   5.662   0.932  3.0312  0.3757  0.1311
 3842SOL     OW12103   3.634   9.986   9.511  0.4580  0.3195 -0.3071
 3842SOL    HW112104   3.582   9.921   9.559 -2.2948  1.1753 -1.9524
 3842SOL    HW212105   3.680   9.935   9.444 -0.8735 -0.1152 -0.9219
 3843SOL     OW12106   9.489   1.296   4.199  0.1083  0.0637 -0.6654
 3843SOL    HW112107   9.460   1.320   4.287 -2.6187 -3.2964 -0.4793
 3843SOL    HW212108   9.550   1.224   4.212  0.8645  0.5331 -1.5024
 3844SOL     OW12109   4.229   6.119   7.503  0.3741 -0.0033 -0.3693
 3844SOL    HW112110   4.166   6.111   7.431 -1.0386 -2.7468  1.0340
 3844SOL    HW212111   4.204   6.199   7.548 -1.1404 -0.2360 -0.7491
 3845SOL     OW12112   3.335   6.512   0.839  0.8510  0.2060  0.0722
 3845SOL    HW112113   3.430   6.526   0.839  1.1244 -1.4781 -0.2102
 3845SOL    HW212114   3.316   6.480   0.751 -0.0828  0.9967 -0.0382
 3846SOL     OW12115   7.213   9.151   8.544  0.0132  0.6797  0.5320
 3846SOL    HW112116   7.145   9.205   8.505 -0.2902  0.7798  1.1892
 3846SOL    HW212117   7.295   9.190   8.515 -0.1560 -0.5303 -1.8074
 3847SOL     OW12118   4.500   0.290   2.478  0.0569  0.1687 -0.1902
 3847SOL    HW112119   4.480   0.254   2.564  2.2964 -0.0289  0.3127
 3847SOL    HW212120   4.508   0.214   2.420  1.6629  0.0234  0.1720
 3848SOL     OW12121   1.594   8.639   7.740  0.0438  0.0578  0.1194
 3848SOL    HW112122   1.583   8.563   7.797 -1.1687  0.5900  0.6315
 3848SOL    HW212123   1.689   8.649   7.731  0.3241  0.3831  2.6570
 3849SOL     OW12124   8.701   1.043   5.620  0.0336  0.5636 -0.0125
 3849SOL    HW112125   8.635   1.006   5.680  0.5734  2.2067  1.6932
 3849SOL    HW212126   8.683   1.001   5.536 -1.1298 -1.4385  1.1504
 3850SOL     OW12127   7.104   1.993   2.284  0.3399  0.5910 -0.5590
 3850SOL    HW112128   7.014   2.028   2.286 -0.3866 -1.1651 -0.7336
 3850SOL    HW212129   7.125   1.988   2.191 -0.3935 -1.3177 -0.6786
 3851SOL     OW12130   9.388   2.271   0.084 -0.0368  0.1360 -0.1715
 3851SOL    HW112131   9.327   2.338   0.052  0.0120 -0.1548 -0.9034
 3851SOL    HW212132   9.472   2.317   0.088 -0.1263  0.2916 -0.0505
 3852SOL     OW12133   2.989   9.355   6.817  0.1086 -0.2372  0.3140
 3852SOL    HW112134   2.895   9.340   6.827  0.1566 -0.9082 -0.1966
 3852SOL    HW212135   3.007   9.335   6.726  0.6921  0.2400  0.3192
 3853SOL     OW12136   1.247   4.571   2.393  0.4649  0.3440 -0.1483
 3853SOL    HW112137   1.154   4.566   2.373  0.5874 -0.4441 -0.5354
 3853SOL    HW212138   1.280   4.640   2.336  0.7698 -1.6968 -2.6348
 3854SOL     OW12139   2.876   2.947   5.911 -0.5302 -0.7366 -0.0757
 3854SOL    HW112140   2.817   2.956   5.986  0.0622  0.4011  0.2795
 3854SOL    HW212141   2.960   2.920   5.950 -0.2126 -0.1196 -0.3215
 3855SOL     OW12142   4.051   8.715   3.893  0.0787  0.3063  0.5099
 3855SOL    HW112143   4.096   8.796   3.917  0.5544 -0.4537  2.3759
 3855SOL    HW212144   4.035   8.671   3.977 -0.0907 -1.5608 -0.4555
 3856SOL     OW12145   4.044   4.223   4.053  0.1663  0.2491 -0.8024
 3856SOL    HW112146   4.071   4.169   4.128 -1.1097 -0.0345 -0.5203
 3856SOL    HW212147   4.118   4.219   3.993  0.0797 -1.9366 -0.8525
 3857SOL     OW12148   4.284   2.389   6.803 -0.2870 -0.0184 -0.3608
 3857SOL    HW112149   4.312   2.306   6.839 -1.7021  0.3032  1.6639
 3857SOL    HW212150   4.232   2.366   6.726 -3.4431 -1.3472  1.9693
 3858SOL     OW12151   3.117   1.258   1.252  0.8326  1.3934  0.2344
 3858SOL    HW112152   3.110   1.281   1.159 -0.6584 -1.6964 -0.5620
 3858SOL    HW212153   3.195   1.204   1.257 -0.3630 -0.4331  0.2036
 3859SOL     OW12154   1.534   9.693   0.861 -0.0307 -0.3098  0.1554
 3859SOL    HW112155   1.538   9.712   0.955  0.8353 -3.4203  0.8611
 3859SOL    HW212156   1.442   9.709   0.837 -0.4149 -0.0846  1.6802
 3860SOL     OW12157   4.653   8.683   1.487 -1.1327 -0.5375  0.1871
 3860SOL    HW112158   4.658   8.727   1.572  1.7033  0.5257 -0.4067
 3860SOL    HW212159   4.654   8.753   1.422 -0.4170 -1.3566 -0.7389
 3861SOL     OW12160   7.812   9.692   8.798  0.0696  0.3051  0.3735
 3861SOL    HW112161   7.765   9.633   8.739 -1.7894  0.8782  1.2188
 3861SOL    HW212162   7.900   9.653   8.806 -0.5459 -1.3566 -0.4708
 3862SOL     OW12163   8.461   3.379   9.161 -0.5894 -0.4059  0.2428
 3862SOL    HW112164   8.395   3.310   9.158 -0.5346 -0.4443 -0.0552
 3862SOL    HW212165   8.506   3.365   9.245 -1.1879 -0.1647  0.6040
 3863SOL     OW12166   1.040   1.905   5.490 -0.3077 -0.0946 -0.5489
 3863SOL    HW112167   1.012   1.849   5.562 -2.1162  0.1821 -0.9903
 3863SOL    HW212168   0.965   1.962   5.473  0.6442  0.9021 -1.6359
 3864SOL     OW12169   0.633   7.167   6.047 -0.1100  0.4988  0.3439
 3864SOL    HW112170   0.688   7.113   5.991  1.0323 -0.2300  2.0616
 3864SOL    HW212171   0.631   7.121   6.131 -2.7001  0.9269  0.6161
 3865SOL     OW12172   3.100   9.472   7.053  0.2117  0.6147 -0.2813
 3865SOL    HW112173   3.123   9.561   7.029  1.7801 -0.0133 -1.2736
 3865SOL    HW212174   3.045   9.440   6.980  1.0726  0.2360 -0.7800
 3866SOL     OW12175   3.293   2.997   0.435 -0.2196 -0.0511 -0.6403
 3866SOL    HW112176   3.364   2.964   0.380  0.2905  0.8435 -0.5319
 3866SOL    HW212177   3.285   2.932   0.505  0.2110 -0.3696 -0.8806
 3867SOL     OW12178   0.862   6.345   6.469  0.2864 -0.1594 -0.1128
 3867SOL    HW112179   0.797   6.291   6.512 -0.7194 -0.0815 -1.4687
 3867SOL    HW212180   0.866   6.311   6.379  0.5687  1.1730 -0.6300
 3868SOL     OW12181   5.723   2.805   8.758 -0.4453  0.6582 -0.3777
 3868SOL    HW112182   5.705   2.867   8.687 -0.0557  1.1695 -0.0376
 3868SOL    HW212183   5.776   2.855   8.821  0.9460 -0.3671 -0.6768
 3869SOL     OW12184   8.969   6.690   6.894  0.3721  0.2706  0.1851
 3869SOL    HW112185   8.912   6.652   6.960 -0.3297  1.8062  0.4830
 3869SOL    HW212186   9.056   6.655   6.915 -0.1104 -0.5045  0.9390
 3870SOL     OW12187   6.986   1.021   3.819 -0.3978  0.2018 -0.1500
 3870SOL    HW112188   7.037   0.945   3.845 -1.7029 -0.2175  1.3500
 3870SOL    HW212189   7.033   1.096   3.856 -0.5542 -0.1315  0.7527
 3871SOL     OW12190   6.264   6.880   5.139  0.5324  0.0986  0.0086
 3871SOL    HW112191   6.321   6.879   5.061 -0.9680 -0.8800 -1.1279
 3871SOL    HW212192   6.197   6.815   5.121 -1.5035  1.8272  0.8722
 3872SOL     OW12193   0.086   8.520   4.045 -0.4083 -0.1946  0.0264
 3872SOL    HW112194   0.114   8.463   3.974  0.8417 -1.0688  1.1827
 3872SOL    HW212195  -0.002   8.548   4.020 -1.3048 -3.0477 -0.3520
 3873SOL     OW12196   8.211   7.208   1.989  0.3042  0.0830  0.6068
 3873SOL    HW112197   8.207   7.206   2.084 -0.7134 -0.9400  0.5636
 3873SOL    HW212198   8.183   7.121   1.962 -1.4246  0.9785 -0.6801
 3874SOL     OW12199   0.623   2.198   4.720  0.6092 -0.3898 -0.0880
 3874SOL    HW112200   0.652   2.234   4.636  0.1174 -0.0245 -0.1026
 3874SOL    HW212201   0.672   2.248   4.786  0.4510 -0.1685 -0.1352
 3875SOL     OW12202   6.935   3.931   8.448  0.8972 -0.0755 -0.3643
 3875SOL    HW112203   7.022   3.960   8.421  1.2788  1.4734  2.1789
 3875SOL    HW212204   6.951   3.870   8.520 -0.0997  1.6076  1.3511
 3876SOL     OW12205   3.033   6.660   6.397  0.2432  0.2050 -0.3362
 3876SOL    HW112206   3.114   6.610   6.387  0.5475  0.2037  1.8073
 3876SOL    HW212207   2.969   6.611   6.346  1.4128 -0.1821 -1.4943
 3877SOL     OW12208   4.263   1.789   3.095  0.6109 -0.0648  0.6194
 3877SOL    HW112209   4.197   1.835   3.147  0.0403 -0.2082  0.0337
 3877SOL    HW212210   4.346   1.832   3.118  0.2303  0.5445  0.8790
 3878SOL     OW12211   3.841   0.530   1.887  0.4165 -0.1373 -0.3415
 3878SOL    HW112212   3.885   0.445   1.876 -0.1731 -0.4427 -0.4037
 3878SOL    HW212213   3.751   0.507   1.910  0.5025  0.4730  0.6656
 3879SOL     OW12214   0.978   3.298   1.044  0.8510 -0.3464 -0.1666
 3879SOL    HW112215   0.956   3.294   0.951 -0.2483 -0.6343  0.0944
 3879SOL    HW212216   1.071   3.322   1.045  0.5253  1.0902 -1.3080
 3880SOL     OW12217   5.486   5.541   6.665  0.2784  0.1468  0.4481
 3880SOL    HW112218   5.566   5.569   6.620 -0.0814 -0.5949 -0.7092
 3880SOL    HW212219   5.436   5.622   6.676  1.2184  0.6418  1.2996
 3881SOL     OW12220   5.865   3.921   0.053 -0.4314  0.6253 -0.2184
 3881SOL    HW112221   5.824   3.838   0.027 -1.4203  0.9599  0.2582
 3881SOL    HW212222   5.959   3.904   0.042 -0.6358 -0.4113 -0.5601
 3882SOL     OW12223   9.160   2.858   1.615  0.3113  0.2437  0.2057
 3882SOL    HW112224   9.123   2.809   1.688  0.1051 -0.8056 -0.5740
 3882SOL    HW212225   9.145   2.949   1.637 -0.0094 -0.0669  1.3304
 3883SOL     OW12226   9.149   0.821   8.074  0.8514 -0.0879  0.0845
 3883SOL    HW112227   9.094   0.743   8.079  0.6275  0.0026 -0.8712
 3883SOL    HW212228   9.093   0.889   8.038  0.9022  0.6733  1.3784
 3884SOL     OW12229   2.698   2.855   9.068  0.1287  0.2407  0.6781
 3884SOL    HW112230   2.780   2.878   9.112  1.4059 -1.6549 -0.5715
 3884SOL    HW212231   2.686   2.762   9.088 -0.0247 -0.2953 -1.6820
 3885SOL     OW12232   2.990   7.606   7.671 -0.2841 -0.2247 -0.6354
 3885SOL    HW112233   3.067   7.661   7.680 -1.0737  0.6638  1.2715
 3885SOL    HW212234   3.023   7.516   7.680  0.4416  0.1834  1.0148
 3886SOL     OW12235   8.776   2.406   0.549 -0.0060  0.0165 -0.2700
 3886SOL    HW112236   8.788   2.441   0.637  1.4804  0.8921 -0.7861
 3886SOL    HW212237   8.810   2.317   0.554  1.4182  0.5336 -0.2722
 3887SOL     OW12238   0.999   7.141   3.892  0.7578 -0.2303  0.0306
 3887SOL    HW112239   0.917   7.105   3.857  1.5295 -1.4993 -0.5276
 3887SOL    HW212240   1.028   7.075   3.955  2.0056 -0.4324 -0.7302
 3888SOL     OW12241   3.359   3.992   4.851 -0.2888 -0.2971  0.2526
 3888SOL    HW112242   3.363   3.905   4.892 -0.2476 -0.4114  0.0073
 3888SOL    HW212243   3.273   4.025   4.875 -0.7801 -0.8905 -0.6242
 3889SOL     OW12244   7.331   7.377   7.216  0.0755  0.4434  0.2427
 3889SOL    HW112245   7.401   7.322   7.249 -0.5349 -1.5820 -1.6051
 3889SOL    HW212246   7.376   7.448   7.169  0.8539  0.5234  1.0766
 3890SOL     OW12247   3.343   5.038   1.067 -0.0954  0.2452 -0.5156
 3890SOL    HW112248   3.394   5.119   1.077 -0.0084  0.0363  0.8813
 3890SOL    HW212249   3.253   5.064   1.084  0.0435 -0.0987  0.8808
 3891SOL     OW12250   9.757   6.521   8.268 -0.0189 -0.3882 -0.4166
 3891SOL    HW112251   9.836   6.545   8.317 -2.2539  2.8615  1.9905
 3891SOL    HW212252   9.760   6.575   8.190  0.5801 -1.0247 -0.8457
 3892SOL     OW12253   8.327   9.331   3.928  0.6901  0.0258  0.3423
 3892SOL    HW112254   8.342   9.418   3.893 -1.8177  0.8047  0.9975
 3892SOL    HW212255   8.275   9.286   3.861 -0.4806  0.0552  1.2048
 3893SOL     OW12256   4.541   3.368   9.112  0.6614 -0.0110 -0.2213
 3893SOL    HW112257   4.613   3.411   9.066  0.8740  0.3200  0.4108
 3893SOL    HW212258   4.583   3.323   9.185  0.2739 -0.1763 -0.0964
 3894SOL     OW12259   4.729   4.130   9.212 -0.4130 -0.0681 -0.4130
 3894SOL    HW112260   4.727   4.163   9.302 -0.2791  0.4564 -0.5999
 3894SOL    HW212261   4.768   4.043   9.220  2.7316  1.2262 -0.3203
 3895SOL     OW12262   2.237   5.722   2.563  0.1021 -0.2691 -0.4056
 3895SOL    HW112263   2.237   5.803   2.512  0.5423 -0.4945 -0.7698
 3895SOL    HW212264   2.200   5.656   2.505  0.7474 -0.5618 -0.4963
 3896SOL     OW12265   7.797   9.970   6.785 -0.0911  0.3175 -0.1151
 3896SOL    HW112266   7.890   9.991   6.794 -0.0466 -0.2249  0.9412
 3896SOL    HW212267   7.796   9.879   6.755 -0.2834  0.6301 -1.0695
 3897SOL     OW12268   5.668   6.880   3.748  0.0820  0.0536  0.5176
 3897SOL    HW112269   5.583   6.868   3.791  1.1013 -1.5909  2.2100
 3897SOL    HW212270   5.726   6.911   3.818  1.1771 -0.0838 -0.3168
 3898SOL     OW12271   8.296   3.687   7.220 -0.4741  0.0209  0.1229
 3898SOL    HW112272   8.284   3.631   7.296 -1.1666  1.0460  0.7982
 3898SOL    HW212273   8.230   3.756   7.230 -2.2779 -1.1347 -2.6617
 3899SOL     OW12274   0.820   9.955   7.716 -0.4853 -0.0733  0.1113
 3899SOL    HW112275   0.756   9.884   7.716 -0.6916  0.0769 -1.6864
 3899SOL    HW212276   0.863   9.949   7.631  1.9880 -0.2111  1.2990
 3900SOL     OW12277   5.971   4.637   8.299 -0.4950  0.1969 -0.4681
 3900SOL    HW112278   6.035   4.638   8.370 -0.7013 -1.0072 -0.2427
 3900SOL    HW212279   5.959   4.544   8.279  0.4856  0.5165 -2.9254
 3901SOL     OW12280   9.363   1.817   6.536 -0.1300 -0.2379  0.3010
 3901SOL    HW112281   9.290   1.804   6.597 -0.3684  0.4816  0.1834
 3901SOL    HW212282   9.392   1.907   6.552 -0.8369  0.3122 -1.3109
 3902SOL     OW12283   8.621   0.301   2.347 -0.2583  0.0606  0.1789
 3902SOL    HW112284   8.649   0.282   2.437 -0.8564 -3.8286 -0.2992
 3902SOL    HW212285   8.695   0.347   2.308  0.6692  0.3635  2.1769
 3903SOL     OW12286   5.980   0.706   5.241 -0.3545 -0.2356 -0.1067
 3903SOL    HW112287   5.944   0.789   5.208  1.2911  0.5426 -0.0244
 3903SOL    HW212288   5.958   0.642   5.174 -0.9720  0.4155 -0.5413
 3904SOL     OW12289   7.131   3.332   9.354  0.3496  0.6449 -0.2091
 3904SOL    HW112290   7.063   3.272   9.324  0.5846 -0.3618  1.2032
 3904SOL    HW212291   7.083   3.408   9.388 -0.1609 -0.4636  1.6614
 3905SOL     OW12292   4.604   4.729   2.337 -0.4447  0.0008  0.0175
 3905SOL    HW112293   4.508   4.725   2.329 -0.5649 -3.2231  1.4145
 3905SOL    HW212294   4.635   4.650   2.292  1.3416 -0.2322  1.5173
 3906SOL     OW12295   6.792   2.235   5.600  0.5561 -0.4578  0.2154
 3906SOL    HW112296   6.779   2.244   5.695 -4.6394 -0.2281 -0.2137
 3906SOL    HW212297   6.799   2.326   5.569 -2.3241 -0.1808  0.1296
 3907SOL     OW12298   3.759   5.901   2.881 -0.0739  0.1430 -0.4914
 3907SOL    HW112299   3.720   5.814   2.867  0.5099 -0.2276  0.1273
 3907SOL    HW212300   3.714   5.935   2.958  1.1019 -0.4757  0.5023
 3908SOL     OW12301   3.744   0.966   6.826 -0.1708 -0.0134 -0.0466
 3908SOL    HW112302   3.746   1.053   6.788 -4.4739 -1.0992 -3.7241
 3908SOL    HW212303   3.674   0.970   6.891  1.8607 -0.1064  2.2926
 3909SOL     OW12304   7.077   0.137   4.613 -0.6920  0.1435 -0.2262
 3909SOL    HW112305   6.996   0.111   4.569  0.8690 -2.7855 -1.6633
 3909SOL    HW212306   7.131   0.175   4.543 -0.3054  0.8548  0.4394
 3910SOL     OW12307   4.388   2.146   2.461  0.4182 -0.5852  0.1557
 3910SOL    HW112308   4.457   2.081   2.472 -0.1749 -0.8500  2.8707
 3910SOL    HW212309   4.307   2.100   2.480 -0.2787  0.3770 -0.3305
 3911SOL     OW12310   5.037   5.723   7.102  0.5426 -0.1296  0.0579
 3911SOL    HW112311   4.958   5.713   7.154 -0.0108 -1.3641 -0.9686
 3911SOL    HW212312   5.049   5.818   7.094 -0.4171  0.0691  0.8312
 3912SOL     OW12313   2.055   2.577   0.303  0.3076 -0.1375 -0.2265
 3912SOL    HW112314   1.989   2.610   0.243  0.9782  0.7033 -0.5131
 3912SOL    HW212315   2.117   2.528   0.248  1.3028  1.2143 -0.3548
 3913SOL     OW12316   1.108   7.996   2.706 -0.1569 -0.0457 -0.3664
 3913SOL    HW112317   1.030   7.967   2.754  0.4353  0.3277  0.8748
 3913SOL    HW212318   1.181   7.976   2.765  0.3508  3.1614  0.2948
 3914SOL     OW12319   8.631   5.551   3.641  0.0908 -0.1677 -0.0009
 3914SOL    HW112320   8.558   5.517   3.694 -1.2033 -0.8794 -2.1346
 3914SOL    HW212321   8.669   5.474   3.600  0.2955  0.4572 -1.0253
 3915SOL     OW12322   3.492   8.720   1.474  0.3973  0.0720  0.4124
 3915SOL    HW112323   3.512   8.641   1.524  0.3147  0.4333  1.0268
 3915SOL    HW212324   3.397   8.727   1.477  0.3797  0.0175  0.0732
 3916SOL     OW12325   8.982   4.235   6.292  0.5738  0.0974  0.0243
 3916SOL    HW112326   8.895   4.202   6.316  0.0907  0.3361 -1.3307
 3916SOL    HW212327   8.972   4.330   6.294  0.6825  0.1219 -0.5381
 3917SOL     OW12328   7.038   4.798   3.754 -0.1622 -0.1871 -0.0999
 3917SOL    HW112329   7.105   4.751   3.705  0.6552 -0.1357  0.9311
 3917SOL    HW212330   7.019   4.741   3.828  0.0742  0.6252  0.5914
 3918SOL     OW12331   1.009   7.522   4.346  0.6125  0.3925  0.9757
 3918SOL    HW112332   1.074   7.519   4.417  0.0935  0.0583  1.4433
 3918SOL    HW212333   0.934   7.566   4.385  1.0195  1.9973  0.0379
 3919SOL     OW12334   8.225   5.280   4.857 -0.0746  0.1799 -0.3384
 3919SOL    HW112335   8.205   5.189   4.835 -0.1296 -0.4673  2.0251
 3919SOL    HW212336   8.320   5.281   4.868  0.0498  0.6869 -1.3662
 3920SOL     OW12337   0.785   7.519   0.139 -0.6754  0.2843 -0.0836
 3920SOL    HW112338   0.877   7.505   0.163 -1.2549 -1.6174  1.2754
 3920SOL    HW212339   0.779   7.490   0.048  0.0462  0.3902 -0.1719
 3921SOL     OW12340   6.634   2.117   8.338 -0.5936  0.4392  0.1841
 3921SOL    HW112341   6.679   2.111   8.253 -1.2645  0.6297 -0.1858
 3921SOL    HW212342   6.675   2.048   8.391  0.6881  1.1178  0.1150
 3922SOL     OW12343   6.430   1.868   5.367 -0.9401 -0.1626  0.1459
 3922SOL    HW112344   6.521   1.879   5.396 -0.6086 -1.5597 -0.3054
 3922SOL    HW212345   6.395   1.957   5.366  0.4011  0.3993  0.4038
 3923SOL     OW12346   4.338   1.921   5.096  0.5505 -0.4181  0.5015
 3923SOL    HW112347   4.411   1.862   5.111 -0.1452 -1.4627 -0.0810
 3923SOL    HW212348   4.288   1.880   5.026  0.5495  1.3355 -0.6083
 3924SOL     OW12349   8.590   5.041   5.616 -0.4977 -0.3820  0.2304
 3924SOL    HW112350   8.559   5.036   5.525 -0.4390  0.2465  0.1740
 3924SOL    HW212351   8.686   5.041   5.608 -0.4753  1.4414  0.1754
 3925SOL     OW12352   5.417   4.818   8.790  0.2175 -0.0703 -0.0425
 3925SOL    HW112353   5.511   4.801   8.781  0.0553 -0.5837 -0.9253
 3925SOL    HW212354   5.404   4.834   8.883  1.1645 -0.1171  0.1050
 3926SOL     OW12355   6.876   4.653   9.334 -0.2036 -0.3595 -0.3341
 3926SOL    HW112356   6.871   4.641   9.239  0.5719 -1.5110 -0.2497
 3926SOL    HW212357   6.797   4.613   9.367 -1.0021  0.9716 -0.5424
 3927SOL     OW12358   2.481   2.590   2.383  0.2536 -0.3619  0.2075
 3927SOL    HW112359   2.563   2.540   2.376 -0.5870 -1.7065 -0.4001
 3927SOL    HW212360   2.417   2.526   2.415  0.1257  1.4625  4.3108
 3928SOL     OW12361   8.938   0.472   6.865 -0.0075  0.0629 -0.0976
 3928SOL    HW112362   8.926   0.394   6.919 -1.6832  1.1435  1.2047
 3928SOL    HW212363   8.858   0.479   6.814 -0.0964  1.1748  0.1651
 3929SOL     OW12364   1.081   3.085   9.733  0.1058  0.0275  0.1474
 3929SOL    HW112365   1.050   3.000   9.700 -0.2695 -0.2853  1.2653
 3929SOL    HW212366   1.135   3.063   9.809  2.6806  0.6068 -1.3954
 3930SOL     OW12367   8.418   2.797   8.710  0.0684 -0.7848 -0.2451
 3930SOL    HW112368   8.374   2.854   8.647 -0.5249 -1.9252 -0.8929
 3930SOL    HW212369   8.509   2.792   8.680  0.2028  0.0620  0.0033
 3931SOL     OW12370   0.759   0.391   5.227 -0.2143  0.4574  0.2162
 3931SOL    HW112371   0.717   0.370   5.310 -1.2329 -0.0650 -0.4185
 3931SOL    HW212372   0.792   0.480   5.238 -0.5994  0.4994  1.0680
 3932SOL     OW12373   0.037   5.963   0.413  0.2598 -0.3858 -0.2180
 3932SOL    HW112374   0.028   5.869   0.432 -1.4353 -0.3669 -0.7484
 3932SOL    HW212375  -0.006   6.006   0.486  1.1399  0.0063  0.0815
 3933SOL     OW12376   3.501   7.677   1.481 -0.0645 -0.0610 -0.1096
 3933SOL    HW112377   3.497   7.725   1.398 -0.1536  1.2415  0.6129
 3933SOL    HW212378   3.425   7.618   1.479 -0.6154  0.6472 -0.5580
 3934SOL     OW12379   2.172   8.421   2.491  0.3123 -0.3064 -0.5749
 3934SOL    HW112380   2.112   8.350   2.466  0.1211 -0.2024 -0.4210
 3934SOL    HW212381   2.129   8.500   2.458 -0.2353 -0.1010  0.5633
 3935SOL     OW12382   3.887   3.175   7.513 -0.4809  0.0421  0.0336
 3935SOL    HW112383   3.883   3.258   7.561 -2.4320  0.2295 -0.3800
 3935SOL    HW212384   3.857   3.110   7.577 -0.4685 -0.1138 -0.1202
 3936SOL     OW12385   2.104   3.605   7.577 -0.2093 -0.0130 -0.8412
 3936SOL    HW112386   2.116   3.637   7.666  1.9450  1.1146 -1.4778
 3936SOL    HW212387   2.186   3.625   7.532 -0.9550 -1.2128 -2.8982
 3937SOL     OW12388   0.252   8.432   9.944 -0.5107  0.5565 -0.3304
 3937SOL    HW112389   0.234   8.384  10.024 -0.3858  0.9823 -0.0397
 3937SOL    HW212390   0.319   8.381   9.900 -1.9216 -0.6889 -1.1078
 3938SOL     OW12391   5.343   2.114   0.264 -0.0477  0.4432 -0.3926
 3938SOL    HW112392   5.295   2.159   0.195  1.0644  1.3987 -0.5820
 3938SOL    HW212393   5.417   2.073   0.219 -0.0220 -0.0143  0.0493
 3939SOL     OW12394   3.238   2.165   9.096 -0.3568 -0.3178 -0.5483
 3939SOL    HW112395   3.262   2.130   9.010 -1.6014  2.3625 -2.1326
 3939SOL    HW212396   3.165   2.110   9.125 -1.4826  0.1337 -2.3698
 3940SOL     OW12397   2.562   8.991   3.662  0.4044  0.2406  0.5388
 3940SOL    HW112398   2.551   8.928   3.734  1.3334 -1.8722 -1.0631
 3940SOL    HW212399   2.508   8.957   3.591  2.7890 -0.1993 -1.2016
 3941SOL     OW12400   7.042   2.104   8.434  0.0964  0.2154 -0.2917
 3941SOL    HW112401   6.982   2.130   8.504 -1.9148 -0.4703 -1.6498
 3941SOL    HW212402   7.026   2.168   8.364  0.8025 -0.1102 -0.7584
 3942SOL     OW12403   1.431   1.669   0.138 -0.0046  0.4529  0.7644
 3942SOL    HW112404   1.376   1.642   0.212 -0.8403  1.6209  0.5928
 3942SOL    HW212405   1.491   1.733   0.176  0.7886 -0.2998  0.8008
 3943SOL     OW12406   4.559   1.857   1.626  0.0219  0.0087 -0.5647
 3943SOL    HW112407   4.601   1.905   1.555 -2.0233 -0.4662 -2.2045
 3943SOL    HW212408   4.583   1.766   1.611 -2.0343 -0.3636 -1.9487
 3944SOL     OW12409   4.858   3.791   1.811  0.0384 -0.1230 -0.2586
 3944SOL    HW112410   4.850   3.708   1.764  0.9188 -1.0257  1.1212
 3944SOL    HW212411   4.953   3.806   1.818 -0.0825  0.2601  0.7521
 3945SOL     OW12412   3.603   9.524   0.815 -0.0874 -0.0990 -0.5427
 3945SOL    HW112413   3.631   9.498   0.903 -0.2667  0.9233 -0.1674
 3945SOL    HW212414   3.663   9.479   0.756  0.2273 -0.5569  0.1202
 3946SOL     OW12415   7.283   8.443   7.145 -0.1920 -0.8285 -0.1480
 3946SOL    HW112416   7.215   8.390   7.104  1.1292 -1.2172 -1.9565
 3946SOL    HW212417   7.316   8.389   7.217 -2.1486 -0.3756  1.1736
 3947SOL     OW12418   9.540   0.812   5.775 -0.8135  0.4486 -0.3118
 3947SOL    HW112419   9.548   0.907   5.781  0.3155  0.2885  1.4880
 3947SOL    HW212420   9.487   0.797   5.696 -2.1240  2.5998  0.0708
 3948SOL     OW12421   6.893   3.612   8.612  0.3354 -0.4144  0.1887
 3948SOL    HW112422   6.941   3.548   8.665  0.8967 -0.9761 -0.9608
 3948SOL    HW212423   6.960   3.652   8.556 -0.4384 -0.8466 -1.0799
 3949SOL     OW12424   1.624   1.420   8.703  0.6339  0.0033 -0.0011
 3949SOL    HW112425   1.571   1.469   8.766  2.1790  1.4706  0.2054
 3949SOL    HW212426   1.686   1.371   8.757  0.1547 -0.9432 -0.2854
 3950SOL     OW12427   9.796   3.410   0.066  0.5610 -0.4706 -0.5873
 3950SOL    HW112428   9.821   3.325   0.031  3.1563 -0.2328  0.4842
 3950SOL    HW212429   9.811   3.402   0.160 -0.4657  0.7819 -0.2871
 3951SOL     OW12430   7.091   4.787   8.580 -0.4992 -0.2151  0.7644
 3951SOL    HW112431   7.067   4.724   8.513  1.3008  0.5002 -0.6601
 3951SOL    HW212432   7.069   4.872   8.542 -0.3285  0.1564  1.4772
 3952SOL     OW12433   8.957   4.187   0.193 -0.1287 -0.2014 -0.3799
 3952SOL    HW112434   8.993   4.214   0.109  2.9324 -2.1371  0.1726
 3952SOL    HW212435   8.884   4.130   0.171  1.4195 -1.7185 -1.8343
 3953SOL     OW12436   4.062   2.920   5.443  0.4593  0.1873  0.0231
 3953SOL    HW112437   4.014   2.993   5.482  1.8790  0.3977  1.5572
 3953SOL    HW212438   4.153   2.951   5.440  0.6063 -0.2997 -2.4532
 3954SOL     OW12439   3.063   4.517   3.512  0.5827 -0.2548 -0.0841
 3954SOL    HW112440   3.014   4.533   3.431  2.3995  1.0774 -1.0018
 3954SOL    HW212441   3.018   4.570   3.578 -0.8430 -1.2507 -0.2046
 3955SOL     OW12442   7.704   4.029   0.378  0.1682 -0.0596  0.1022
 3955SOL    HW112443   7.793   4.060   0.395  0.3408 -0.5601  0.1445
 3955SOL    HW212444   7.650   4.072   0.444  0.6579 -1.1328  1.2430
 3956SOL     OW12445   1.689   9.268   8.766 -0.3426 -0.0353 -0.2629
 3956SOL    HW112446   1.684   9.334   8.697  1.6590  0.6423  0.1748
 3956SOL    HW212447   1.696   9.318   8.847  1.4591 -0.7328  0.0633
 3957SOL     OW12448   5.054   3.532   2.351 -0.1124  0.2326  0.1768
 3957SOL    HW112449   5.075   3.595   2.282 -0.3449 -1.4309 -1.5044
 3957SOL    HW212450   5.092   3.449   2.320 -0.2495 -0.5861  2.0581
 3958SOL     OW12451   3.551   3.499   4.117 -0.0290  0.2140  0.0987
 3958SOL    HW112452   3.481   3.563   4.107  0.1323  0.1434 -1.9570
 3958SOL    HW212453   3.554   3.454   4.033 -0.3730 -2.7875  1.5682
 3959SOL     OW12454   6.771   1.310   1.612  0.2892 -0.7386  0.0210
 3959SOL    HW112455   6.783   1.340   1.702 -0.0738 -1.1179  0.2010
 3959SOL    HW212456   6.710   1.237   1.620 -1.7252  0.7449 -0.7704
 3960SOL     OW12457   2.136   8.143   7.637 -0.1890  1.0174 -0.1404
 3960SOL    HW112458   2.157   8.149   7.543  3.1480  2.9817  0.5825
 3960SOL    HW212459   2.179   8.062   7.666  1.6939  2.1046  0.2456
 3961SOL     OW12460   1.918   6.612   8.228  0.3222 -0.5252 -0.2210
 3961SOL    HW112461   1.956   6.645   8.309  1.0804 -1.3534 -0.2290
 3961SOL    HW212462   1.989   6.615   8.165  0.1193 -1.1912 -0.4894
 3962SOL     OW12463   5.403   0.554   6.406 -0.4357  0.2420 -0.7090
 3962SOL    HW112464   5.390   0.510   6.490  1.4599  0.4897 -0.2434
 3962SOL    HW212465   5.445   0.488   6.351  0.2682  0.7357 -0.7673
 3963SOL     OW12466   2.745   3.593   9.375  0.5068 -0.0019  0.1841
 3963SOL    HW112467   2.815   3.579   9.311 -0.8576 -3.1104 -0.8165
 3963SOL    HW212468   2.678   3.643   9.327 -0.1417 -1.5799 -0.6248
 3964SOL     OW12469   8.151   4.783   7.145 -0.7347 -0.0043  0.4954
 3964SOL    HW112470   8.232   4.825   7.173  0.2689 -1.6547  0.1601
 3964SOL    HW212471   8.118   4.841   7.075 -0.0747  0.8946  0.9038
 3965SOL     OW12472   3.452   6.842   2.862  0.1037  0.1504 -0.1226
 3965SOL    HW112473   3.402   6.788   2.923 -0.4471  1.3607  0.5146
 3965SOL    HW212474   3.395   6.852   2.786 -0.2174  0.7014  0.1911
 3966SOL     OW12475   2.635   1.752   5.435  0.1086  0.1887  0.3427
 3966SOL    HW112476   2.624   1.802   5.516 -0.6334 -0.4271  0.6301
 3966SOL    HW212477   2.729   1.735   5.430  0.0610 -0.5844  1.5894
 3967SOL     OW12478   3.253   3.815   3.654  0.3701  0.0715  0.0063
 3967SOL    HW112479   3.256   3.882   3.722  1.0808 -0.1461  0.2027
 3967SOL    HW212480   3.196   3.851   3.587 -0.2029  0.3663  0.6360
 3968SOL     OW12481   5.893   8.360   0.243 -0.2249  0.1201  0.4284
 3968SOL    HW112482   5.831   8.367   0.170 -1.9155  0.9430  1.8569
 3968SOL    HW212483   5.845   8.312   0.311  0.4170  1.3887  1.8386
 3969SOL     OW12484   0.373   3.665   7.877 -0.1765 -0.0360 -0.1206
 3969SOL    HW112485   0.425   3.625   7.807 -0.9116  1.5259 -1.6316
 3969SOL    HW212486   0.319   3.593   7.911  0.7917 -0.9976 -0.5853
 3970SOL     OW12487  -0.009   9.784   1.620  0.5432  0.4359 -0.0108
 3970SOL    HW112488   0.050   9.852   1.587  0.7256 -1.2258 -3.6502
 3970SOL    HW212489   0.046   9.732   1.678  1.2547  1.6333  0.4346
 3971SOL     OW12490   7.831   2.503   8.053  0.2277  0.5135  0.4110
 3971SOL    HW112491   7.877   2.586   8.050  1.1626 -0.0114 -0.0160
 3971SOL    HW212492   7.777   2.503   7.973  1.1130  0.2161 -0.1999
 3972SOL     OW12493   0.669   7.594   6.159  0.3262  1.0741  0.1902
 3972SOL    HW112494   0.610   7.657   6.118 -0.6341  0.3541  0.4212
 3972SOL    HW212495   0.753   7.608   6.117 -0.7640 -0.1637 -2.6613
 3973SOL     OW12496   3.908   6.275   6.537  0.6418  0.5995 -0.1619
 3973SOL    HW112497   3.892   6.186   6.507  1.6517  0.2517  0.3070
 3973SOL    HW212498   3.884   6.331   6.463  0.1214 -0.0587 -0.4981
 3974SOL     OW12499   7.659   7.893   2.621 -0.1280 -0.4550 -0.0342
 3974SOL    HW112500   7.651   7.806   2.661  0.1266 -0.7467 -0.6065
 3974SOL    HW212501   7.682   7.951   2.694 -2.8080 -0.3797  0.8570
 3975SOL     OW12502   1.236   5.784   2.105 -0.1848 -0.3799  0.7775
 3975SOL    HW112503   1.155   5.733   2.107 -0.5225  0.1349  0.4566
 3975SOL    HW212504   1.229   5.839   2.027  1.6058 -2.1290 -0.7414
 3976SOL     OW12505   8.254   0.260   3.941  0.0652 -0.2871 -0.0265
 3976SOL    HW112506   8.249   0.271   4.036 -1.9382  0.8427 -0.1932
 3976SOL    HW212507   8.164   0.272   3.911  0.5464 -1.2151 -2.0277
 3977SOL     OW12508   2.942   3.971   7.807  0.2715 -0.2613 -0.0403
 3977SOL    HW112509   2.907   3.925   7.730 -0.6800  1.4233 -0.6656
 3977SOL    HW212510   2.975   4.053   7.772 -1.4875  1.1848  1.4968
 3978SOL     OW12511   4.879   6.802   8.481  0.5417 -0.3722 -0.0134
 3978SOL    HW112512   4.851   6.857   8.554 -0.7899 -1.6960  0.5294
 3978SOL    HW212513   4.930   6.860   8.425  0.7860  0.9178  1.4786
 3979SOL     OW12514   6.756   6.193   7.486 -0.0806  0.2141  0.4567
 3979SOL    HW112515   6.775   6.282   7.458 -1.8152  0.4206 -0.1818
 3979SOL    HW212516   6.787   6.138   7.415 -1.1668  0.4875 -0.2433
 3980SOL     OW12517   2.295   0.268   3.498  0.2148  0.6429  0.8563
 3980SOL    HW112518   2.338   0.183   3.486  0.7124  0.9626  0.3130
 3980SOL    HW212519   2.295   0.307   3.410 -1.5586  0.4857  0.7472
 3981SOL     OW12520   9.636   8.996   1.533 -0.8781  0.3203 -0.5232
 3981SOL    HW112521   9.594   9.059   1.591  0.0986  0.1661  0.3835
 3981SOL    HW212522   9.727   9.025   1.528 -0.4833 -0.8534 -0.3252
 3982SOL     OW12523   8.169   4.932   5.098  0.1498 -0.0029 -0.1424
 3982SOL    HW112524   8.178   4.911   5.191 -0.7590 -0.4277 -0.1354
 3982SOL    HW212525   8.074   4.936   5.084  0.2728 -0.2335 -1.1096
 3983SOL     OW12526   7.688   6.126   1.772 -0.3349  0.3718 -0.4115
 3983SOL    HW112527   7.759   6.062   1.776 -0.6272  0.0982  1.0237
 3983SOL    HW212528   7.682   6.149   1.679  2.6394  1.5918 -0.4087
 3984SOL     OW12529   7.963   0.574   3.356 -0.3703 -0.8797  0.8526
 3984SOL    HW112530   7.965   0.479   3.345  0.8331 -0.7965  0.2050
 3984SOL    HW212531   8.055   0.600   3.363 -0.7314  0.1152  2.2905
 3985SOL     OW12532   1.891   0.751   4.295 -0.0487  0.3498 -0.0728
 3985SOL    HW112533   1.879   0.656   4.289 -1.3280  0.5261 -0.6495
 3985SOL    HW212534   1.810   0.783   4.334  0.8502  1.1139  1.2626
 3986SOL     OW12535   2.277   0.574   0.976 -0.3507 -0.8577 -0.0430
 3986SOL    HW112536   2.364   0.548   0.945 -0.4994 -0.1822 -1.0796
 3986SOL    HW212537   2.272   0.541   1.066  1.5573  0.3905  0.5723
 3987SOL     OW12538   7.740   8.761   8.051  0.1532  0.5928 -0.3852
 3987SOL    HW112539   7.810   8.826   8.056  1.0319 -0.4029  1.2067
 3987SOL    HW212540   7.659   8.811   8.060  0.7605  1.5612 -0.1949
 3988SOL     OW12541   9.598   3.425   2.797 -0.0926 -0.0506  0.1826
 3988SOL    HW112542   9.652   3.360   2.751 -2.1815 -2.1849  0.5844
 3988SOL    HW212543   9.650   3.449   2.874  1.7734  0.7021 -1.2025
 3989SOL     OW12544   4.895   9.341   6.310  0.2403  0.7350  0.7373
 3989SOL    HW112545   4.944   9.321   6.389  1.5151  0.5467 -0.0781
 3989SOL    HW212546   4.946   9.303   6.239  0.2493  2.7288 -0.3952
 3990SOL     OW12547   0.927   1.761   0.940 -0.8498 -0.2863 -0.3545
 3990SOL    HW112548   0.879   1.830   0.984 -1.2054 -1.1584  0.6744
 3990SOL    HW212549   0.990   1.730   1.005 -2.3111 -2.5350  0.1005
 3991SOL     OW12550   2.382   1.282   1.090 -0.1050 -0.2847 -0.4793
 3991SOL    HW112551   2.361   1.193   1.064  1.3738 -0.6972 -0.3862
 3991SOL    HW212552   2.317   1.304   1.157 -1.5329 -0.6341 -1.7161
 3992SOL     OW12553   4.466   8.180   6.757  0.0322  0.1016  0.3078
 3992SOL    HW112554   4.424   8.203   6.840 -0.7437 -1.1555  0.2972
 3992SOL    HW212555   4.459   8.260   6.704  0.9155  1.0580  1.5705
 3993SOL     OW12556   6.075   7.229   6.854  0.1950 -0.2398 -0.0655
 3993SOL    HW112557   6.034   7.169   6.916  1.3311 -0.9294  0.0477
 3993SOL    HW212558   6.126   7.289   6.908  0.9524 -0.6579 -0.3020
 3994SOL     OW12559   1.041   3.266   3.739 -0.3701 -0.2492  0.5223
 3994SOL    HW112560   1.012   3.355   3.758  1.6075  0.8579 -1.2737
 3994SOL    HW212561   1.099   3.243   3.812  0.8523  0.8430 -0.0658
 3995SOL     OW12562   3.310   7.265   5.820  0.2676 -0.2102  0.4854
 3995SOL    HW112563   3.333   7.294   5.733 -3.7815 -0.2672 -0.8415
 3995SOL    HW212564   3.287   7.172   5.809 -0.3903 -0.1976  1.5585
 3996SOL     OW12565   7.361   0.372   0.223  0.4102 -0.1204  0.0454
 3996SOL    HW112566   7.359   0.458   0.266 -2.6110 -0.3901  0.6964
 3996SOL    HW212567   7.385   0.391   0.132 -0.6635  1.5279  0.0573
 3997SOL     OW12568   9.857   1.483   2.774  0.1168  0.6321 -0.2365
 3997SOL    HW112569   9.901   1.482   2.859  0.9770  3.1629 -0.5649
 3997SOL    HW212570   9.801   1.560   2.777 -1.6903 -0.5607 -1.1551
 3998SOL     OW12571   9.736   9.104   2.091 -0.1916 -0.3554  0.4978
 3998SOL    HW112572   9.805   9.141   2.146  0.4762  0.5068 -0.8689
 3998SOL    HW212573   9.743   9.009   2.104  1.1085 -0.2675  0.5593
 3999SOL     OW12574   6.264   3.164   8.538  0.6735  0.4953 -0.2551
 3999SOL    HW112575   6.177   3.134   8.509  0.4358  1.5609 -0.6912
 3999SOL    HW212576   6.309   3.084   8.564  0.7700 -0.5340 -3.2294
 4000SOL     OW12577   0.209   6.990   1.959 -0.1439 -0.0816 -0.1950
 4000SOL    HW112578   0.131   7.028   1.918 -1.0799 -1.9544 -0.2569
 4000SOL    HW212579   0.253   6.944   1.887  1.3450  1.4056 -0.2779
 4001SOL     OW12580   8.483   9.076   3.699 -0.3429 -0.1096  0.4813
 4001SOL    HW112581   8.526   9.013   3.641  0.3896  0.0100  0.8861
 4001SOL    HW212582   8.432   9.132   3.640 -0.3054 -0.5358  0.0381
 4002SOL     OW12583   4.263   5.765   9.799 -0.2951 -0.2551  0.1678
 4002SOL    HW112584   4.241   5.847   9.842 -1.0545 -0.8393  0.9264
 4002SOL    HW212585   4.275   5.789   9.707 -0.9460  0.6375  0.2979
 4003SOL     OW12586   8.823   9.715   2.081 -0.3698 -0.1307 -0.1236
 4003SOL    HW112587   8.774   9.633   2.070 -0.3320  0.0250 -1.5072
 4003SOL    HW212588   8.902   9.703   2.029 -0.0999  0.5853  0.1110
 4004SOL     OW12589   8.775   5.108   5.259 -0.3299 -0.0605 -0.5193
 4004SOL    HW112590   8.850   5.053   5.284  0.3631  1.0680 -0.0382
 4004SOL    HW212591   8.735   5.061   5.186  0.0966 -1.3206  0.0180
 4005SOL     OW12592   7.396   7.545   1.956 -0.5080  0.2921  0.6486
 4005SOL    HW112593   7.353   7.552   2.041  0.2091  1.1754  0.9531
 4005SOL    HW212594   7.380   7.628   1.913  2.2628  1.3866  1.4753
 4006SOL     OW12595   6.948   1.372   6.564  0.0172 -0.1045 -0.4173
 4006SOL    HW112596   6.884   1.393   6.632  0.8231 -1.1643  0.7167
 4006SOL    HW212597   6.972   1.281   6.581 -1.0012 -0.9902 -3.1775
 4007SOL     OW12598   5.549   7.005   1.207 -0.8032 -0.0412  0.0424
 4007SOL    HW112599   5.543   7.100   1.197  2.4989  0.2744 -0.1009
 4007SOL    HW212600   5.569   6.973   1.119 -1.3828 -0.8407  0.1880
 4008SOL     OW12601   1.157   0.679   9.009  0.0101 -0.5072  0.4358
 4008SOL    HW112602   1.239   0.639   8.980 -0.3654 -1.6609  0.9010
 4008SOL    HW212603   1.161   0.769   8.977  1.2803 -0.6626  0.1171
 4009SOL     OW12604   3.773   3.059   6.886  0.4514  0.1146 -0.2401
 4009SOL    HW112605   3.703   3.002   6.917  0.7589  0.3456  0.9399
 4009SOL    HW212606   3.846   3.041   6.945  1.1292  0.4383 -0.9684
 4010SOL     OW12607   4.499   0.896   9.485  0.4068  0.4173  0.2387
 4010SOL    HW112608   4.475   0.810   9.451  1.6599  0.7854 -1.6910
 4010SOL    HW212609   4.526   0.880   9.576 -1.0200 -0.9229  0.4662
 4011SOL     OW12610   2.365   5.126   0.895  0.1612 -0.6041  0.3608
 4011SOL    HW112611   2.457   5.150   0.903  0.2761 -1.4016  1.7096
 4011SOL    HW212612   2.362   5.067   0.820  0.5910  0.1183 -0.2361
 4012SOL     OW12613   5.910   9.245   9.726 -0.1416  0.0432 -0.0412
 4012SOL    HW112614   5.919   9.339   9.715  1.9402 -0.1067  0.0330
 4012SOL    HW212615   5.903   9.232   9.821  0.3302  0.0706 -0.0034
 4013SOL     OW12616   6.062   1.505   6.603  0.2119  0.3118  0.4652
 4013SOL    HW112617   6.018   1.449   6.539 -0.1877  1.9345 -0.7439
 4013SOL    HW212618   5.993   1.560   6.639  0.9114  1.4871  0.0520
 4014SOL     OW12619   5.390   2.317   9.800  0.3121 -0.2055 -0.3533
 4014SOL    HW112620   5.296   2.306   9.813  0.1043 -0.4893 -1.9511
 4014SOL    HW212621   5.407   2.409   9.822 -0.1246 -0.4323  1.0031
 4015SOL     OW12622   3.707   9.931   8.280 -0.1322  0.2777  0.1035
 4015SOL    HW112623   3.768   9.897   8.215  0.0669  0.8494 -0.0222
 4015SOL    HW212624   3.672  10.011   8.240  1.3442  1.6513  1.3802
 4016SOL     OW12625   7.791   6.003   3.640  0.5558 -0.5300 -0.0317
 4016SOL    HW112626   7.761   5.913   3.653  0.7377 -0.7891 -1.2786
 4016SOL    HW212627   7.719   6.045   3.593  0.9447 -0.3403 -0.4572
 4017SOL     OW12628   1.669   0.104   4.903 -0.1375 -0.4829 -0.2184
 4017SOL    HW112629   1.661   0.200   4.905 -0.5001 -0.5115  1.6841
 4017SOL    HW212630   1.756   0.088   4.866 -0.2334  0.5517 -0.9473
 4018SOL     OW12631   1.996   5.818   4.794  0.0309 -0.0274  0.2866
 4018SOL    HW112632   2.072   5.760   4.805 -0.6139 -1.1376 -0.9686
 4018SOL    HW212633   1.932   5.785   4.857  0.2163  0.3014  0.6544
 4019SOL     OW12634   9.569   2.013   6.619 -0.5918  0.4251 -0.2328
 4019SOL    HW112635   9.595   1.975   6.703  2.4564  1.7399 -0.4606
 4019SOL    HW212636   9.498   2.073   6.641 -1.9127 -1.4343  0.8863
 4020SOL     OW12637   3.567   2.382   8.219  0.1031 -0.1101 -0.7984
 4020SOL    HW112638   3.585   2.411   8.129  2.2910  2.6849  0.3815
 4020SOL    HW212639   3.653   2.380   8.261 -1.0451  0.8796  1.8130
 4021SOL     OW12640   0.291   5.209   4.330  0.4250  0.2722  0.9534
 4021SOL    HW112641   0.322   5.221   4.419 -1.5110  1.0955  1.5666
 4021SOL    HW212642   0.219   5.147   4.337  0.3793  0.1805 -0.0783
 4022SOL     OW12643   5.496   7.238   5.819  0.0076  0.2031  0.0037
 4022SOL    HW112644   5.567   7.245   5.755  0.7812  0.5745  0.8748
 4022SOL    HW212645   5.416   7.229   5.766  0.6071  0.6725 -1.0104
 4023SOL     OW12646   3.184   8.018   1.580 -0.4477  0.1439  0.3428
 4023SOL    HW112647   3.262   8.056   1.540 -0.1284 -0.7618  0.0847
 4023SOL    HW212648   3.216   7.973   1.658 -0.9847  1.3954  1.3269
 4024SOL     OW12649   4.770   2.790   8.855 -0.0725 -0.5475 -0.0606
 4024SOL    HW112650   4.818   2.846   8.794  1.5970 -0.5033  1.2255
 4024SOL    HW212651   4.679   2.795   8.825  0.2167  1.7757 -0.8076
 4025SOL     OW12652   2.053   2.415   1.340 -0.4014  0.1866 -0.0196
 4025SOL    HW112653   2.124   2.377   1.288  0.9399  0.6315  1.3971
 4025SOL    HW212654   1.984   2.349   1.336  0.3254 -0.5647 -0.9246
 4026SOL     OW12655   9.941   3.722   6.743 -0.1875 -0.0662  0.2785
 4026SOL    HW112656   9.856   3.745   6.707 -0.3680  0.8109  1.2337
 4026SOL    HW212657   9.997   3.706   6.666 -0.2155  2.9614 -0.4635
 4027SOL     OW12658   0.488   4.254   5.523  0.4173 -0.3578  0.2319
 4027SOL    HW112659   0.468   4.337   5.568  1.5353  0.5421 -0.8692
 4027SOL    HW212660   0.461   4.186   5.585 -1.9559  0.7839  0.5667
 4028SOL     OW12661   7.931   3.810   3.305 -0.2869 -0.2157  0.2463
 4028SOL    HW112662   7.941   3.731   3.252 -0.1710 -0.9473  1.3438
 4028SOL    HW212663   8.019   3.830   3.336 -0.1721  0.8317 -0.6754
 4029SOL     OW12664   9.226   2.419   4.603  0.0736  0.4669 -0.6462
 4029SOL    HW112665   9.195   2.338   4.561 -1.4852 -0.3410  1.8530
 4029SOL    HW212666   9.146   2.471   4.615 -0.0489 -0.3280  3.1802
 4030SOL     OW12667   0.289   0.547   0.431 -0.3207 -0.2198  0.2732
 4030SOL    HW112668   0.380   0.577   0.431 -0.6406  0.9839 -2.6077
 4030SOL    HW212669   0.237   0.626   0.445 -1.0101 -0.8039  1.2364
 4031SOL     OW12670   6.920   4.342   2.970  0.8254 -0.6489 -0.3664
 4031SOL    HW112671   6.860   4.363   3.041  1.7245 -1.6049  0.7087
 4031SOL    HW212672   6.893   4.400   2.898 -0.0222  0.4280  0.7742
 4032SOL     OW12673   3.957   9.872   4.494 -0.5242  0.1504 -0.0952
 4032SOL    HW112674   3.934   9.920   4.415 -0.2352 -1.8903 -1.4907
 4032SOL    HW212675   3.874   9.834   4.523 -0.5733  0.6460  0.4448
 4033SOL     OW12676   7.622   2.522   7.852  0.3467  0.0410  0.2056
 4033SOL    HW112677   7.687   2.550   7.787  1.5897 -1.4378  0.7726
 4033SOL    HW212678   7.592   2.604   7.891  0.4441  0.8891 -1.3755
 4034SOL     OW12679   8.368   6.417   4.310  0.1562  0.5956  0.0732
 4034SOL    HW112680   8.414   6.385   4.232 -0.3511  0.1464 -0.0503
 4034SOL    HW212681   8.331   6.338   4.350 -1.3093  1.0132 -0.3604
 4035SOL     OW12682   0.831   5.669   2.291 -0.0534 -0.2472 -0.0752
 4035SOL    HW112683   0.842   5.748   2.344  1.7710 -0.8048  0.4481
 4035SOL    HW212684   0.824   5.701   2.201 -0.7338  0.5718  0.2598
 4036SOL     OW12685   8.000   8.015   1.160  0.2591  0.3243  0.2955
 4036SOL    HW112686   7.934   7.996   1.227  0.8106  3.7163  2.0206
 4036SOL    HW212687   8.059   7.940   1.163 -3.2239 -2.7756 -1.2026
 4037SOL     OW12688   9.157   7.423   0.988 -0.0067 -0.7014 -0.3119
 4037SOL    HW112689   9.206   7.380   0.919 -0.0883 -0.3107 -0.6138
 4037SOL    HW212690   9.215   7.420   1.065  0.7169  0.2228 -0.7975
 4038SOL     OW12691   7.865   6.234   2.443  0.3657 -0.6182  0.2601
 4038SOL    HW112692   7.811   6.162   2.411  1.3778 -0.7063 -1.4110
 4038SOL    HW212693   7.815   6.313   2.422 -1.0575 -0.7663  2.7023
 4039SOL     OW12694   4.810   2.288   7.555 -0.1022 -0.2895 -0.1705
 4039SOL    HW112695   4.842   2.358   7.498 -0.6885 -0.5604 -0.8414
 4039SOL    HW212696   4.722   2.268   7.522  0.0975 -1.4115 -0.0500
 4040SOL     OW12697   1.500   0.492   5.853  0.1441 -0.2204 -0.4864
 4040SOL    HW112698   1.572   0.535   5.900 -0.5457  0.6488 -0.1996
 4040SOL    HW212699   1.478   0.417   5.908  0.3696 -0.0901 -0.2127
 4041SOL     OW12700   6.969   6.916   1.901  0.2700 -0.2681 -0.0793
 4041SOL    HW112701   6.903   6.982   1.879 -0.1909 -0.7599 -0.1983
 4041SOL    HW212702   6.938   6.879   1.984  0.2287 -0.7141 -0.2933
 4042SOL     OW12703   8.768   4.573   8.293 -0.5224 -0.1014  0.1254
 4042SOL    HW112704   8.741   4.524   8.371 -2.3854  0.3447 -0.1887
 4042SOL    HW212705   8.769   4.664   8.321 -0.0863 -0.0407 -0.0846
 4043SOL     OW12706   2.064   7.456   8.659  0.2646  0.1252 -0.4359
 4043SOL    HW112707   1.986   7.511   8.646 -0.2385 -0.8196 -1.5927
 4043SOL    HW212708   2.057   7.388   8.592  2.6649  0.6507 -1.3601
 4044SOL     OW12709   1.490   1.048   9.289  0.5530  0.6619 -0.0044
 4044SOL    HW112710   1.535   1.067   9.371 -0.5038  3.8181  0.0062
 4044SOL    HW212711   1.556   1.004   9.235  2.1372  0.9711  1.5759
 4045SOL     OW12712   7.722   4.725   2.989 -0.1982 -0.0991 -0.3286
 4045SOL    HW112713   7.670   4.648   2.966  0.7085 -1.3485  1.5050
 4045SOL    HW212714   7.658   4.797   2.994 -1.1564 -0.8430 -1.5174
 4046SOL     OW12715   8.854   2.880   1.767  0.2199  0.2936 -0.0341
 4046SOL    HW112716   8.782   2.857   1.826 -0.0518 -0.8652 -0.7715
 4046SOL    HW212717   8.921   2.813   1.784  0.8396  0.9329  0.1237
 4047SOL     OW12718   4.774   0.657   7.152  0.0835 -0.5611 -0.0611
 4047SOL    HW112719   4.868   0.643   7.141  0.2306 -1.1320  1.6524
 4047SOL    HW212720   4.733   0.602   7.085  0.8826 -3.0820  1.4220
 4048SOL     OW12721   4.268   8.966   0.378  0.1290 -0.3615  0.9251
 4048SOL    HW112722   4.192   8.920   0.413 -0.0982  0.3822  1.4290
 4048SOL    HW212723   4.296   8.912   0.303 -2.5503  0.7577 -1.0445
 4049SOL     OW12724   6.527   2.017   3.610 -0.0387 -0.2497  0.5495
 4049SOL    HW112725   6.511   1.997   3.518 -0.4302 -2.4618  1.0416
 4049SOL    HW212726   6.598   1.959   3.635 -0.1460  0.1021  1.7252
 4050SOL     OW12727   3.961   0.689   9.461  0.5326  0.6146  0.1140
 4050SOL    HW112728   3.917   0.769   9.491 -0.4887 -0.3938  1.4200
 4050SOL    HW212729   3.996   0.650   9.541 -0.4298 -1.0670 -0.2440
 4051SOL     OW12730   8.704   6.629   0.194  0.3876  0.6695 -0.3352
 4051SOL    HW112731   8.619   6.671   0.205  1.3356  2.6283  0.0451
 4051SOL    HW212732   8.726   6.597   0.282  0.2448  0.5835 -0.3312
 4052SOL     OW12733   8.927   8.614   8.686  0.7855  0.1254  0.4029
 4052SOL    HW112734   8.927   8.615   8.590  0.0275  0.3288  0.3943
 4052SOL    HW212735   8.861   8.679   8.710  0.7280 -0.1703  1.0586
 4053SOL     OW12736   1.202   5.739   1.225 -0.2467 -0.1986  0.2557
 4053SOL    HW112737   1.262   5.665   1.216  0.0422  0.2030 -1.4887
 4053SOL    HW212738   1.172   5.757   1.136 -1.3578  0.9359  0.8200
 4054SOL     OW12739   3.547   7.874   6.774  0.4229 -0.0091 -0.0017
 4054SOL    HW112740   3.467   7.825   6.756  0.6484 -0.5004  0.3110
 4054SOL    HW212741   3.610   7.842   6.709  1.7007 -2.8911  2.4085
 4055SOL     OW12742   9.957   5.897   5.722  0.3615  0.3490 -0.0417
 4055SOL    HW112743   9.909   5.921   5.642 -1.3988 -0.8539  0.5942
 4055SOL    HW212744   9.964   5.978   5.772 -0.0803  0.7552 -0.6286
 4056SOL     OW12745   3.355   1.437   7.610  0.6327  0.3140 -0.2480
 4056SOL    HW112746   3.351   1.497   7.684  1.1037 -1.2719  1.1281
 4056SOL    HW212747   3.276   1.383   7.619  1.6358 -1.1326  0.2576
 4057SOL     OW12748   8.117   1.986   0.140  0.2024 -0.0981  0.3743
 4057SOL    HW112749   8.160   2.033   0.069  0.1858  1.0315  1.0969
 4057SOL    HW212750   8.026   1.978   0.113  0.2958 -0.1006  0.0574
 4058SOL     OW12751   0.994   8.687   6.122  0.2831 -0.1174 -0.1109
 4058SOL    HW112752   1.029   8.715   6.038 -1.5050 -1.7809 -1.5058
 4058SOL    HW212753   0.935   8.757   6.149  1.9474  1.0918  0.5490
 4059SOL     OW12754   2.764   4.680   6.857 -0.1830 -0.1056 -0.2004
 4059SOL    HW112755   2.822   4.751   6.884 -1.2155 -0.2188  2.5897
 4059SOL    HW212756   2.821   4.602   6.857  0.4297  0.3254 -1.0210
 4060SOL     OW12757   6.513   0.138   0.903  0.1235 -0.1349 -0.3125
 4060SOL    HW112758   6.438   0.197   0.889  0.1614 -0.1392 -0.5362
 4060SOL    HW212759   6.482   0.076   0.969  0.3149  0.5441  0.4282
 4061SOL     OW12760   0.980   9.485   3.300  0.7476 -0.8056 -0.6212
 4061SOL    HW112761   1.012   9.517   3.384 -1.4125 -0.9684  0.3283
 4061SOL    HW212762   1.013   9.395   3.294  2.1258 -0.3286 -0.6739
 4062SOL     OW12763   2.288   1.781   9.491  0.3645 -0.2378 -0.4406
 4062SOL    HW112764   2.312   1.690   9.506  1.5080  0.1891  0.4036
 4062SOL    HW212765   2.353   1.813   9.428  0.9850  0.4404  0.5239
 4063SOL     OW12766   9.428   5.982   7.544 -0.3437  0.2454  0.0367
 4063SOL    HW112767   9.389   6.055   7.592 -2.7346  0.9237 -2.6390
 4063SOL    HW212768   9.518   5.979   7.575 -0.6667  3.0988  1.6597
 4064SOL     OW12769   4.382   8.547   3.700 -0.0009 -0.5868  0.2538
 4064SOL    HW112770   4.299   8.502   3.716 -0.5460  0.6230  0.9199
 4064SOL    HW212771   4.404   8.589   3.783  0.1768  0.8646 -0.4862
 4065SOL     OW12772   2.454   1.241   6.530 -0.4575  0.1977  0.2804
 4065SOL    HW112773   2.431   1.159   6.575 -1.3492  0.1267 -0.2734
 4065SOL    HW212774   2.370   1.279   6.505 -0.0106  0.6336 -0.6130
 4066SOL     OW12775   2.779   7.321   6.609  0.4855 -0.3564  0.4309
 4066SOL    HW112776   2.734   7.302   6.527  0.3921  0.6167  0.2474
 4066SOL    HW212777   2.871   7.323   6.586  0.5578 -1.2659  0.5948
 4067SOL     OW12778   1.720   2.163   6.677 -0.6605  0.2191 -0.6225
 4067SOL    HW112779   1.775   2.182   6.601 -0.0803 -0.8294 -0.4821
 4067SOL    HW212780   1.779   2.174   6.752 -1.0769  0.6732 -0.3557
 4068SOL     OW12781   8.986   5.660   4.770 -0.0773  0.0100  0.5509
 4068SOL    HW112782   9.017   5.598   4.837  0.1115 -0.7596 -0.2291
 4068SOL    HW212783   9.010   5.746   4.805  0.1495 -0.3799  1.4072
 4069SOL     OW12784   2.265   0.857   0.378 -0.2155 -0.5842  0.0489
 4069SOL    HW112785   2.177   0.837   0.346 -0.8659  0.9467  0.7997
 4069SOL    HW212786   2.312   0.887   0.300 -0.6128 -0.5689 -0.1875
 4070SOL     OW12787   4.876   0.333   1.022  0.2528  0.4638  0.2921
 4070SOL    HW112788   4.925   0.278   1.084  0.6649 -0.3673 -0.7313
 4070SOL    HW212789   4.889   0.289   0.937 -1.3247  0.8739 -0.1800
 4071SOL     OW12790   6.208   0.365   6.315  0.1129  0.0010  0.4744
 4071SOL    HW112791   6.163   0.300   6.262 -1.6936  0.3683  1.4508
 4071SOL    HW212792   6.294   0.375   6.275 -0.0544 -2.0072 -0.4587
 4072SOL     OW12793   9.091   0.036   5.833 -0.4999 -0.0300  0.1849
 4072SOL    HW112794   9.075   0.024   5.740 -0.0902 -0.4967  0.1721
 4072SOL    HW212795   9.009   0.072   5.867 -1.1005 -1.0818 -0.1209
 4073SOL     OW12796   1.968   4.112   5.706 -0.2584 -0.6276 -0.8460
 4073SOL    HW112797   2.031   4.173   5.744 -1.6346  0.5859 -0.3986
 4073SOL    HW212798   2.003   4.092   5.619  1.5486 -1.2871 -0.0152
 4074SOL     OW12799   1.565   3.505   0.240 -0.2146 -0.0906  0.6466
 4074SOL    HW112800   1.648   3.544   0.269 -0.1059 -0.8460  1.3814
 4074SOL    HW212801   1.498   3.552   0.289 -0.0430 -1.2317  2.0495
 4075SOL     OW12802   0.311   6.684   6.338 -0.1640  0.5281  0.5267
 4075SOL    HW112803   0.270   6.770   6.340  0.5793  1.0178 -1.9085
 4075SOL    HW212804   0.247   6.628   6.293  0.4784  0.5220 -0.4108
 4076SOL     OW12805   4.468   3.607   7.945  0.4624 -0.0228 -0.2108
 4076SOL    HW112806   4.532   3.579   7.880  1.4268  2.7410 -0.6000
 4076SOL    HW212807   4.516   3.609   8.028 -0.0518 -1.0253  0.1301
 4077SOL     OW12808   2.722   7.451   0.791  0.2188  0.4447 -0.2606
 4077SOL    HW112809   2.795   7.389   0.800  0.4025  0.7906  0.8400
 4077SOL    HW212810   2.663   7.430   0.863 -0.1423  0.9888 -0.3865
 4078SOL     OW12811   3.405   9.195   2.778  0.9409 -0.2686 -0.0945
 4078SOL    HW112812   3.456   9.276   2.780  0.7175 -0.1331  0.3336
 4078SOL    HW212813   3.427   9.152   2.861  0.7269 -0.4375 -0.1249
 4079SOL     OW12814   8.447   1.026   5.061 -0.1999  0.3628 -0.2803
 4079SOL    HW112815   8.379   0.999   5.123  0.2576 -0.5370 -0.1493
 4079SOL    HW212816   8.466   1.117   5.084  1.1523 -0.4294  2.0421
 4080SOL     OW12817   9.497   2.104   0.779  0.4145 -0.4797 -0.0794
 4080SOL    HW112818   9.499   2.071   0.689  0.4322 -2.0321  0.4478
 4080SOL    HW212819   9.456   2.190   0.773  1.1782 -0.1858 -1.6725
 4081SOL     OW12820   5.062   6.351   2.376 -0.2355 -0.3445 -0.5394
 4081SOL    HW112821   4.988   6.300   2.341 -0.7516  1.2418 -1.8682
 4081SOL    HW212822   5.032   6.378   2.463 -1.3796  0.5050 -1.1639
 4082SOL     OW12823   2.990   3.419   5.301  0.5241 -0.1320 -0.3404
 4082SOL    HW112824   2.985   3.351   5.234  0.2276  0.4989 -0.9702
 4082SOL    HW212825   2.911   3.472   5.289  0.5059  0.0388  0.4589
 4083SOL     OW12826   3.121   2.243   4.535 -0.0684  0.6322  0.2085
 4083SOL    HW112827   3.185   2.211   4.472  0.6573 -0.3800  1.4090
 4083SOL    HW212828   3.090   2.326   4.498  0.7211  0.3380 -1.1882
 4084SOL     OW12829   4.836   5.612   4.413 -0.9113  0.4311 -0.4146
 4084SOL    HW112830   4.833   5.695   4.460 -0.2587  1.5889 -2.3164
 4084SOL    HW212831   4.863   5.548   4.479 -0.5883  1.8797  0.8983
 4085SOL     OW12832   1.726   9.567   7.508  0.5797 -0.4439  0.4559
 4085SOL    HW112833   1.640   9.602   7.532  0.9368  0.1235  0.9423
 4085SOL    HW212834   1.788   9.631   7.542  1.2424 -1.3439  0.9837
 4086SOL     OW12835   7.453   4.182   1.980 -0.3703 -0.2975  0.4434
 4086SOL    HW112836   7.446   4.246   2.050  1.0322  0.5592 -0.1625
 4086SOL    HW212837   7.539   4.142   1.992  0.0888  0.1805 -1.0057
 4087SOL     OW12838   6.118   1.815   1.939  0.0442 -0.4329 -0.3047
 4087SOL    HW112839   6.203   1.826   1.982 -0.0138 -2.8089  0.5729
 4087SOL    HW212840   6.130   1.854   1.853  1.8280 -0.2037  0.0013
 4088SOL     OW12841   3.855   8.995   9.318 -0.5365 -0.3216  0.2951
 4088SOL    HW112842   3.769   8.956   9.304 -0.7246  0.3462 -0.5052
 4088SOL    HW212843   3.844   9.053   9.393 -1.6916  2.2388 -1.6785
 4089SOL     OW12844   5.295   9.356   1.887  0.4289 -0.0862 -0.4522
 4089SOL    HW112845   5.315   9.361   1.794  0.3716 -1.9215 -0.5988
 4089SOL    HW212846   5.318   9.443   1.921 -1.9007  1.5138 -2.5810
 4090SOL     OW12847   9.551   7.080   4.030  0.1926 -0.3236 -0.7354
 4090SOL    HW112848   9.588   7.064   4.117  0.4414 -0.6911 -0.9082
 4090SOL    HW212849   9.514   6.996   4.005  0.8875 -0.4486 -1.3576
 4091SOL     OW12850   6.136   1.173   5.947 -0.6599  0.4884 -0.0688
 4091SOL    HW112851   6.167   1.222   5.871  0.9273  0.6498  0.6418
 4091SOL    HW212852   6.205   1.109   5.965 -1.4221 -0.1489  0.7033
 4092SOL     OW12853   2.021   1.912   2.074  0.0303  0.6231 -0.6572
 4092SOL    HW112854   2.099   1.956   2.107 -0.4930  0.7506  0.4430
 4092SOL    HW212855   2.029   1.918   1.979  2.0640 -0.5871 -0.6235
 4093SOL     OW12856   9.120   4.058   3.713 -0.9073  0.0301  0.4851
 4093SOL    HW112857   9.191   4.000   3.741 -1.2489  0.1605  1.6883
 4093SOL    HW212858   9.160   4.145   3.711 -1.0879  0.1419  1.4277
 4094SOL     OW12859   6.034   6.657   8.152  0.4527 -0.0593  0.0386
 4094SOL    HW112860   5.944   6.672   8.178  0.7583  0.6262  0.7343
 4094SOL    HW212861   6.044   6.704   8.070 -0.0674 -0.8972 -0.5229
 4095SOL     OW12862   8.864   7.532   5.494  0.3441  0.3230 -0.0409
 4095SOL    HW112863   8.941   7.583   5.468  0.3070  0.1176 -0.5578
 4095SOL    HW212864   8.791   7.592   5.481  0.3401  0.2692 -0.2692
 4096SOL     OW12865   9.184   0.594   5.482 -0.1227  0.0082  0.2552
 4096SOL    HW112866   9.153   0.509   5.450 -1.8388  1.1824 -1.3867
 4096SOL    HW212867   9.192   0.648   5.404 -1.0222  1.9530  1.4242
 4097SOL     OW12868   1.441   9.080   5.446 -0.1028 -0.0491  0.2491
 4097SOL    HW112869   1.413   9.167   5.473  0.3088 -0.3644  1.7706
 4097SOL    HW212870   1.419   9.076   5.353  1.2119  2.2283 -0.2587
 4098SOL     OW12871   8.704   1.177   6.371  0.3202 -0.3802 -0.0545
 4098SOL    HW112872   8.744   1.121   6.438  1.3232 -0.6372 -0.8436
 4098SOL    HW212873   8.754   1.259   6.375  1.2239 -0.8385 -1.3050
 4099SOL     OW12874   3.222   3.423   2.069  0.4468  0.1338  0.0370
 4099SOL    HW112875   3.183   3.419   1.981 -0.6171  0.4288  0.4847
 4099SOL    HW212876   3.287   3.493   2.063 -0.1709  0.6873 -0.3080
 4100SOL     OW12877   2.913   1.843   6.166  0.1327  0.4029 -0.3535
 4100SOL    HW112878   2.964   1.779   6.216 -0.2707  1.0803  0.9581
 4100SOL    HW212879   2.862   1.790   6.104  0.0250 -0.5284  0.5063
 4101SOL     OW12880   2.293   7.786   5.495 -0.1612  0.0580  0.1447
 4101SOL    HW112881   2.307   7.796   5.401  0.2127  1.2052  0.3012
 4101SOL    HW212882   2.377   7.811   5.534 -1.0188  1.9608  0.8827
 4102SOL     OW12883   3.589   1.336   4.694 -0.3111  0.0014 -0.5279
 4102SOL    HW112884   3.639   1.284   4.631 -1.1837  0.2867 -1.4914
 4102SOL    HW212885   3.510   1.362   4.646 -0.7867  0.6133  0.5474
 4103SOL     OW12886   5.942   3.317   8.873 -0.1961 -0.3970  0.1574
 4103SOL    HW112887   6.025   3.279   8.901  1.3434  2.3072 -0.3455
 4103SOL    HW212888   5.880   3.293   8.942  1.0962 -2.1198  0.7829
 4104SOL     OW12889   5.239   6.794   3.334 -0.1881  0.2313  0.1647
 4104SOL    HW112890   5.230   6.700   3.350 -0.6152  0.4398  1.2563
 4104SOL    HW212891   5.297   6.825   3.403  0.6091  0.6519 -0.6688
 4105SOL     OW12892   0.050   2.062   1.444 -0.2917 -0.1352  0.7091
 4105SOL    HW112893   0.022   2.091   1.531  0.2597  1.3611  0.4128
 4105SOL    HW212894  -0.032   2.042   1.398 -0.6328 -0.0902  1.2901
 4106SOL     OW12895   8.408   3.734   3.036 -0.5482  0.3525 -0.1947
 4106SOL    HW112896   8.437   3.825   3.036  4.6592 -0.9699 -0.0411
 4106SOL    HW212897   8.350   3.727   3.112  0.2375  3.1839  0.7861
 4107SOL     OW12898   3.702   4.007   3.989 -0.6240  0.1768 -0.4900
 4107SOL    HW112899   3.616   4.036   4.018 -1.1888 -1.9141  0.1520
 4107SOL    HW212900   3.743   4.085   3.953 -2.5251  1.3812 -0.2062
 4108SOL     OW12901   3.354   7.759   2.151 -0.0258 -0.1046 -0.0723
 4108SOL    HW112902   3.275   7.813   2.162  1.0195  1.6844 -0.9384
 4108SOL    HW212903   3.330   7.674   2.188 -2.3364  0.3964 -0.2616
 4109SOL     OW12904   5.450   8.323   8.748 -0.1066  0.5199  0.0990
 4109SOL    HW112905   5.400   8.243   8.731 -1.4121  1.6319 -1.5818
 4109SOL    HW212906   5.402   8.367   8.818  0.0561  0.3337  0.3325
 4110SOL     OW12907   5.906   5.634   8.539 -0.2074  0.3319  0.0874
 4110SOL    HW112908   5.935   5.650   8.450  1.2110 -0.4442  0.3929
 4110SOL    HW212909   5.814   5.609   8.530 -0.9177  2.9724 -0.8916
 4111SOL     OW12910   0.277   4.028   5.396  0.1812 -0.0157  0.0758
 4111SOL    HW112911   0.263   4.121   5.380  3.9194  0.3402 -2.1991
 4111SOL    HW212912   0.371   4.018   5.405 -0.1932 -3.3284  2.8476
 4112SOL     OW12913   0.465   5.170   7.202  0.6906  0.4075 -0.2645
 4112SOL    HW112914   0.431   5.197   7.117 -0.0293  0.5599  0.0704
 4112SOL    HW212915   0.532   5.104   7.181 -0.4614 -0.5983 -0.8985
 4113SOL     OW12916   7.094   9.642   5.100  0.2488  0.1202 -0.0752
 4113SOL    HW112917   7.105   9.564   5.155  1.4656  0.6593  0.4732
 4113SOL    HW212918   7.182   9.674   5.084 -0.2498  1.9286  0.4918
 4114SOL     OW12919   9.851   2.535   4.672 -0.2884 -0.1730  0.2781
 4114SOL    HW112920   9.842   2.624   4.707 -0.4305 -0.2303  0.3863
 4114SOL    HW212921   9.946   2.524   4.658 -0.4278  0.8541 -1.9722
 4115SOL     OW12922   9.740   9.497   1.444  0.6091 -0.6340 -0.1150
 4115SOL    HW112923   9.779   9.568   1.393  2.5986 -0.3821  1.6373
 4115SOL    HW212924   9.707   9.435   1.377 -2.4572  2.3988 -1.7433
 4116SOL     OW12925   7.658   5.830   0.100  0.0800 -0.7779  0.5025
 4116SOL    HW112926   7.662   5.748   0.050  0.6430  0.0221 -0.8348
 4116SOL    HW212927   7.645   5.803   0.190  0.9309 -2.3742  0.1846
 4117SOL     OW12928   2.525   7.618   9.267  0.2103  0.4771 -0.2661
 4117SOL    HW112929   2.577   7.579   9.337 -0.5011  0.9814  0.5597
 4117SOL    HW212930   2.589   7.664   9.212  0.7212  0.4930  0.3392
 4118SOL     OW12931   4.987   8.914   8.990  0.3394 -0.2179  0.2212
 4118SOL    HW112932   4.978   8.894   9.083  0.9644 -1.0314  0.1199
 4118SOL    HW212933   5.068   8.869   8.963  0.4549  0.4418 -0.5951
 4119SOL     OW12934   4.027   3.144   3.109  0.0444 -0.0839 -0.2132
 4119SOL    HW112935   3.990   3.205   3.173  1.6455  1.8607 -1.0218
 4119SOL    HW212936   4.019   3.189   3.026  1.6291 -0.8011 -0.7938
 4120SOL     OW12937   7.332   4.803   3.310 -0.0368  0.7070 -0.1683
 4120SOL    HW112938   7.258   4.767   3.359  0.9514  0.7648  1.4418
 4120SOL    HW212939   7.310   4.895   3.297 -0.6486  0.5196 -0.5393
 4121SOL     OW12940   3.267   7.006   1.000  0.2119  0.3300  0.0069
 4121SOL    HW112941   3.263   6.951   1.078 -0.7242  0.4462  0.0572
 4121SOL    HW212942   3.349   6.981   0.957  0.0550 -0.7363  0.2949
 4122SOL     OW12943   6.541   7.286   9.790 -0.3033  0.2387 -0.6897
 4122SOL    HW112944   6.471   7.348   9.769  0.0926  1.0490  0.3102
 4122SOL    HW212945   6.617   7.341   9.809 -0.1268 -0.4936  0.9031
 4123SOL     OW12946   7.891   7.918   4.358  0.1962 -0.3784  0.2846
 4123SOL    HW112947   7.959   7.974   4.394 -0.1898 -0.0929  0.5794
 4123SOL    HW212948   7.936   7.836   4.337  0.7011 -0.0654  0.1350
 4124SOL     OW12949   7.214   2.910   8.081 -0.1565 -0.1166  0.0600
 4124SOL    HW112950   7.155   2.914   8.155 -1.9397  1.3652 -1.3371
 4124SOL    HW212951   7.265   2.991   8.086 -0.1093 -0.1298 -0.1680
 4125SOL     OW12952   3.514   0.564   5.952  0.1431  0.1693 -0.3920
 4125SOL    HW112953   3.498   0.532   6.041 -0.0204  0.5694 -0.2746
 4125SOL    HW212954   3.427   0.580   5.917  0.2249  0.4521 -0.4626
 4126SOL     OW12955   4.554   3.971   6.217  0.7152 -0.0324 -0.0158
 4126SOL    HW112956   4.580   4.042   6.158 -0.7276  1.2559  0.8239
 4126SOL    HW212957   4.511   3.907   6.161  1.9593 -0.2402 -0.7703
 4127SOL     OW12958   3.863   3.695   8.442 -0.7084 -0.0408  0.8677
 4127SOL    HW112959   3.796   3.737   8.388  0.1150 -1.7430 -1.7054
 4127SOL    HW212960   3.823   3.614   8.474 -0.2714 -0.5287  0.2218
 4128SOL     OW12961   5.390   2.580   9.897 -0.6110 -0.9689 -0.4461
 4128SOL    HW112962   5.465   2.619   9.943 -0.7577  2.5208 -2.7893
 4128SOL    HW212963   5.315   2.600   9.954 -0.2610 -0.7582 -0.0456
 4129SOL     OW12964   3.886   2.704   0.413  0.0289 -0.6728 -0.1523
 4129SOL    HW112965   3.795   2.675   0.420 -0.8600  1.6242 -1.0912
 4129SOL    HW212966   3.905   2.700   0.319  0.7549 -0.7668 -0.0010
 4130SOL     OW12967   2.360   5.907   8.816 -0.3376  0.0282 -0.7874
 4130SOL    HW112968   2.354   5.954   8.732 -0.9562 -2.1529 -2.0472
 4130SOL    HW212969   2.317   5.823   8.799  0.4472 -0.8830  1.4383
 4131SOL     OW12970   3.950   6.593   1.393  0.6149  0.4098 -0.0647
 4131SOL    HW112971   3.882   6.543   1.438 -0.1407  1.8374  0.4273
 4131SOL    HW212972   4.023   6.598   1.455  1.5698 -1.8293 -0.8949
 4132SOL     OW12973   8.623   1.690   6.428  0.3635  0.4557  0.0602
 4132SOL    HW112974   8.677   1.682   6.349  2.3641  0.1865  1.4009
 4132SOL    HW212975   8.655   1.622   6.487 -2.7008 -0.9834  0.2987
 4133SOL     OW12976   7.978   8.232   3.142  0.2285 -0.0253  0.4539
 4133SOL    HW112977   7.987   8.139   3.119  0.4603 -0.4309  2.0979
 4133SOL    HW212978   7.953   8.274   3.059  2.3318 -1.1750 -0.8863
 4134SOL     OW12979   6.468   7.648   1.465  0.4159  0.4358  0.4450
 4134SOL    HW112980   6.372   7.645   1.466  0.4209 -0.7250 -0.3686
 4134SOL    HW212981   6.489   7.706   1.392  0.2927 -2.3322 -1.9426
 4135SOL     OW12982   4.846   1.361   2.607  0.1121 -0.0655  0.1563
 4135SOL    HW112983   4.828   1.438   2.553  0.4684 -0.4596 -0.5372
 4135SOL    HW212984   4.764   1.344   2.652 -1.0515 -1.2477 -2.2076
 4136SOL     OW12985   5.672   1.244   6.479  0.1277 -0.5645  0.3420
 4136SOL    HW112986   5.637   1.321   6.434 -2.4462 -2.1085 -0.5066
 4136SOL    HW212987   5.766   1.249   6.465 -0.0836  1.7384 -0.7811
 4137SOL     OW12988   6.689   1.594   9.656 -0.0452  0.1979  0.5135
 4137SOL    HW112989   6.733   1.622   9.736  0.4686 -0.1353  0.3550
 4137SOL    HW212990   6.757   1.596   9.589 -0.2814 -0.2775  0.2527
 4138SOL     OW12991   0.307   3.049   6.157  0.6697  0.3413 -0.7528
 4138SOL    HW112992   0.338   3.021   6.071  2.6333 -0.3257  0.1110
 4138SOL    HW212993   0.373   3.111   6.188  1.5095 -1.4719  1.3630
 4139SOL     OW12994   4.143   5.493   5.312  0.1609  0.5878 -0.5303
 4139SOL    HW112995   4.166   5.526   5.225 -0.9788 -2.7977 -2.2523
 4139SOL    HW212996   4.221   5.446   5.341  0.3588  1.2879  0.1330
 4140SOL     OW12997   5.121   4.232   6.703  0.1647 -0.3957  0.2774
 4140SOL    HW112998   5.129   4.146   6.744 -1.3438  0.2509  2.1394
 4140SOL    HW212999   5.084   4.215   6.617  0.5784 -1.6472  0.3340
 4141SOL     OW13000   0.085   0.610   5.209 -0.2764  0.3552  0.3800
 4141SOL    HW113001   0.165   0.595   5.159 -0.4100 -0.8493  0.4904
 4141SOL    HW213002   0.114   0.652   5.290  0.4811 -1.5513  1.1553
 4142SOL     OW13003   4.553   3.748   9.162 -0.1245  0.0216 -0.1435
 4142SOL    HW113004   4.646   3.763   9.180  0.4440 -1.7802 -1.2320
 4142SOL    HW213005   4.543   3.766   9.069 -0.9096  0.3515 -0.0057
 4143SOL     OW13006   5.519   5.643   1.546  0.1426 -0.0935 -0.1052
 4143SOL    HW113007   5.563   5.585   1.484  1.0131  0.7183 -0.2643
 4143SOL    HW213008   5.575   5.720   1.551 -1.6380  1.3134 -0.8898
 4144SOL     OW13009   3.877   1.808   6.101 -0.0567  0.6237 -0.3664
 4144SOL    HW113010   3.866   1.787   6.193 -0.0462  0.9477 -0.2911
 4144SOL    HW213011   3.891   1.723   6.058 -1.1218  0.3571 -0.2255
 4145SOL     OW13012   6.203   0.791   9.863  0.3168 -0.0248 -0.3693
 4145SOL    HW113013   6.207   0.703   9.901  1.8505 -0.4334 -1.3635
 4145SOL    HW213014   6.295   0.816   9.852 -0.0968  1.2145 -1.2021
 4146SOL     OW13015   7.485   7.128   1.952  0.0324 -0.4749  0.1960
 4146SOL    HW113016   7.400   7.088   1.934 -0.2709  0.4735 -0.5418
 4146SOL    HW213017   7.478   7.217   1.917  0.6292  0.3067  1.9305
 4147SOL     OW13018   5.074   8.285   9.190 -0.1324  0.0312 -0.3159
 4147SOL    HW113019   5.050   8.374   9.214 -0.6828 -0.3474  0.5835
 4147SOL    HW213020   5.105   8.246   9.272 -1.2347 -1.0324 -0.3809
 4148SOL     OW13021   9.337   1.815   0.802  0.5868  0.2032 -0.5133
 4148SOL    HW113022   9.355   1.909   0.800 -0.1160  0.3326 -1.4967
 4148SOL    HW213023   9.420   1.775   0.776  1.5659  0.4033  2.0045
 4149SOL     OW13024   7.752   9.627   3.555  0.5716  0.3392  0.0882
 4149SOL    HW113025   7.717   9.672   3.478  0.4555  1.1307  0.5892
 4149SOL    HW213026   7.700   9.662   3.628 -0.2977 -1.4481  0.3700
 4150SOL     OW13027   8.195   8.357   4.251 -0.1890  0.1828  0.1816
 4150SOL    HW113028   8.238   8.436   4.220  0.2758 -0.1804 -0.0986
 4150SOL    HW213029   8.266   8.296   4.270 -0.4942  0.1587  1.3179
 4151SOL     OW13030   3.268   7.593   8.967 -0.5506  0.3178 -0.1380
 4151SOL    HW113031   3.293   7.569   8.878  0.3232  0.4684  0.0616
 4151SOL    HW213032   3.350   7.613   9.011 -1.0046  0.6211  0.5978
 4152SOL     OW13033   5.541   1.945   1.129  0.0651  0.1499 -0.0738
 4152SOL    HW113034   5.519   1.866   1.078  0.7679 -0.2357  0.2047
 4152SOL    HW213035   5.623   1.975   1.092  0.0184  0.5028  0.1106
 4153SOL     OW13036   8.903   3.453   3.325  0.1321 -0.2901  0.3609
 4153SOL    HW113037   8.996   3.432   3.324 -0.0039 -1.0528  1.4456
 4153SOL    HW213038   8.880   3.468   3.234  1.3973  0.2957  0.1168
 4154SOL     OW13039   1.183   9.875   6.230 -0.1460  0.5040  0.5554
 4154SOL    HW113040   1.231   9.886   6.148 -0.5949  1.1932  0.3755
 4154SOL    HW213041   1.243   9.908   6.298 -0.2270  1.0339  0.3720
 4155SOL     OW13042   3.376   1.076   8.596 -0.4138  0.3353  0.2339
 4155SOL    HW113043   3.446   1.030   8.550  1.3343  3.1301 -0.2120
 4155SOL    HW213044   3.363   1.027   8.676 -0.0469 -1.9145 -1.0117
 4156SOL     OW13045   1.276   9.799   1.766 -0.2161 -0.2650  0.5635
 4156SOL    HW113046   1.258   9.705   1.755  0.8035 -1.0374  4.2781
 4156SOL    HW213047   1.207   9.830   1.825  0.0807  1.0917  0.2376
 4157SOL     OW13048   4.460   3.666   1.030  0.2337  0.6002  0.1520
 4157SOL    HW113049   4.529   3.662   1.096 -0.0131 -0.3462  0.3691
 4157SOL    HW213050   4.388   3.713   1.073  0.2424  0.3928  0.3954
 4158SOL     OW13051   5.065   6.114   5.501 -0.0523  0.2784 -0.2855
 4158SOL    HW113052   5.125   6.112   5.427  0.8142 -2.0028  0.3979
 4158SOL    HW213053   4.978   6.112   5.462  0.3506 -3.4965 -1.3717
 4159SOL     OW13054   2.626   5.319   1.245  0.1794  0.0729 -0.3099
 4159SOL    HW113055   2.636   5.396   1.300 -0.8664 -0.2165  0.3130
 4159SOL    HW213056   2.576   5.349   1.169 -2.6425 -0.4706  1.1799
 4160SOL     OW13057   0.036   8.763   1.504 -0.3690  0.1823  0.1974
 4160SOL    HW113058   0.075   8.675   1.499 -1.1420 -0.2570  1.6212
 4160SOL    HW213059  -0.044   8.751   1.553  0.5426  2.0401  2.2875
 4161SOL     OW13060   3.847   3.652   2.142 -0.1795  0.0732  0.1917
 4161SOL    HW113061   3.833   3.671   2.235  0.9940  0.3370  0.3338
 4161SOL    HW213062   3.927   3.599   2.140 -0.7853 -0.8452 -0.5923
 4162SOL     OW13063   0.091   5.039   4.349  0.1538 -0.0888  0.5347
 4162SOL    HW113064   0.112   4.966   4.408  1.1058 -0.5849 -0.3671
 4162SOL    HW213065   0.108   5.003   4.262 -0.0712  0.9960  0.0390
 4163SOL     OW13066   8.802   9.411   2.327 -0.0806  0.3561 -0.2350
 4163SOL    HW113067   8.749   9.472   2.377  0.2436  1.7389 -1.5074
 4163SOL    HW213068   8.892   9.426   2.356  0.0481  0.8032 -0.8329
 4164SOL     OW13069   2.743   4.756   1.938  0.2316  0.1613 -0.4057
 4164SOL    HW113070   2.683   4.721   1.872  0.5748  0.0200 -0.6464
 4164SOL    HW213071   2.812   4.691   1.944 -0.9364 -0.9722  1.7805
 4165SOL     OW13072   2.872   8.548   7.491  0.4014  0.2843 -0.1630
 4165SOL    HW113073   2.782   8.535   7.462 -0.2970  1.5644  1.2340
 4165SOL    HW213074   2.907   8.460   7.504 -0.9769 -0.2380  0.1571
 4166SOL     OW13075   7.125   4.883   4.398 -0.0072  0.1611  0.1580
 4166SOL    HW113076   7.079   4.923   4.324 -0.5261  0.2640  0.5256
 4166SOL    HW213077   7.074   4.806   4.420  1.4068 -1.1668 -1.0195
 4167SOL     OW13078   2.134   8.169   9.083 -0.1572  0.1956 -0.0118
 4167SOL    HW113079   2.219   8.195   9.047 -0.5813 -0.7653 -1.8114
 4167SOL    HW213080   2.072   8.228   9.041 -0.8165 -1.8226 -2.0830
 4168SOL     OW13081   3.919   4.990   4.707  0.2224  0.0018  0.9476
 4168SOL    HW113082   3.932   4.982   4.612  0.4671  4.2601  0.4672
 4168SOL    HW213083   4.004   4.970   4.745  0.1045 -1.8156  0.3809
 4169SOL     OW13084   6.107   5.092   6.253 -0.2600  0.0284  0.3903
 4169SOL    HW113085   6.029   5.122   6.205 -0.4049  1.5991  1.5197
 4169SOL    HW213086   6.110   5.148   6.331  1.0210 -1.1944  1.2686
 4170SOL     OW13087   3.108   6.527   9.780 -0.0599 -0.2199  0.1263
 4170SOL    HW113088   3.105   6.571   9.695  0.1103 -0.0791  0.1923
 4170SOL    HW213089   3.116   6.599   9.843  1.0396 -0.3778  0.1891
 4171SOL     OW13090   1.205   6.456   6.065  0.0365 -0.0118  0.4512
 4171SOL    HW113091   1.246   6.497   5.989 -1.1870  0.3433 -0.0403
 4171SOL    HW213092   1.188   6.528   6.126 -0.0734 -0.1195  0.5489
 4172SOL     OW13093   0.520   1.082   1.124  0.7211  0.0558  0.1379
 4172SOL    HW113094   0.547   1.064   1.214 -0.1116  0.5897  0.5073
 4172SOL    HW213095   0.441   1.136   1.132  0.1855 -0.5281 -0.9065
 4173SOL     OW13096   3.881   9.679   1.245  0.3024  0.2262  0.0107
 4173SOL    HW113097   3.836   9.761   1.224  2.3474  1.3903 -0.0547
 4173SOL    HW213098   3.840   9.650   1.327 -2.2481 -0.1452 -1.3033
 4174SOL     OW13099   8.036   7.426   4.554  0.1347  0.3753  0.1871
 4174SOL    HW113100   7.998   7.342   4.580 -0.7109  1.1489  1.5627
 4174SOL    HW213101   8.095   7.404   4.482  0.1418 -1.4280  0.6920
 4175SOL     OW13102   1.003   3.284   3.095  0.1051  0.1340  0.3489
 4175SOL    HW113103   0.944   3.214   3.125 -0.9171  1.7898  2.5008
 4175SOL    HW213104   0.962   3.316   3.015 -0.9516  0.0638  0.8369
 4176SOL     OW13105   4.261   7.419   6.758 -0.9676  0.0615 -0.1633
 4176SOL    HW113106   4.232   7.508   6.736  0.2727  0.3688 -0.6690
 4176SOL    HW213107   4.250   7.413   6.853 -2.3164  0.2733 -0.2903
 4177SOL     OW13108   4.569   0.956   8.063  0.1949  0.8812 -0.4485
 4177SOL    HW113109   4.624   1.030   8.038  0.5289  0.9544  0.4765
 4177SOL    HW213110   4.588   0.889   7.997  1.4805  0.8722 -0.0976
 4178SOL     OW13111   5.439   7.462   7.363 -0.7187 -0.4548 -0.1896
 4178SOL    HW113112   5.469   7.425   7.280 -0.0933 -0.2485 -0.0597
 4178SOL    HW213113   5.384   7.394   7.402  1.3300 -1.7582  0.5957
 4179SOL     OW13114   7.302   9.005   9.190 -0.7136 -0.1034 -0.0488
 4179SOL    HW113115   7.220   8.964   9.219 -1.5396  0.1925 -1.8464
 4179SOL    HW213116   7.284   9.099   9.195 -0.2062 -0.0213  0.2690
 4180SOL     OW13117   4.559   0.427   9.715 -0.0673 -0.4614 -1.0380
 4180SOL    HW113118   4.521   0.410   9.801  1.8664  0.5769  0.0630
 4180SOL    HW213119   4.591   0.516   9.719  1.2216 -0.8193 -2.3987
 4181SOL     OW13120   0.309   7.347   5.336  0.3122  0.1523 -0.1759
 4181SOL    HW113121   0.251   7.356   5.260 -0.7296 -0.8806  0.4774
 4181SOL    HW213122   0.395   7.326   5.298 -0.0372  0.3397 -1.0887
 4182SOL     OW13123   5.870   1.001   4.135 -0.3498 -0.4324  0.0764
 4182SOL    HW113124   5.916   1.085   4.138 -0.9258 -0.1269  1.1519
 4182SOL    HW213125   5.791   1.019   4.084 -0.1934 -0.4666 -0.1770
 4183SOL     OW13126   0.173   8.384   7.904  0.1304 -0.0074  0.1891
 4183SOL    HW113127   0.091   8.339   7.884 -0.5733  1.0716  0.5539
 4183SOL    HW213128   0.239   8.337   7.853 -0.5225 -1.5772  0.7399
 4184SOL     OW13129   9.137   0.057   9.054 -0.3476  0.1275 -0.3901
 4184SOL    HW113130   9.085  -0.020   9.032 -1.6156  1.2518 -1.4967
 4184SOL    HW213131   9.217   0.048   9.002  0.9407 -1.8981  1.7373
 4185SOL     OW13132   4.919   7.490   9.200 -0.2126  0.6403  0.1521
 4185SOL    HW113133   4.960   7.528   9.122  1.2263  0.6798  0.8809
 4185SOL    HW213134   4.873   7.562   9.242  3.2925  2.0366  2.0546
 4186SOL     OW13135   8.593   6.179   9.708  0.2695 -0.2031 -0.7674
 4186SOL    HW113136   8.594   6.084   9.703 -0.3331 -0.2691  0.1581
 4186SOL    HW213137   8.655   6.200   9.778 -1.1913 -0.0460  0.5159
 4187SOL     OW13138   2.896   6.492   1.698 -0.1896 -0.2451  0.2040
 4187SOL    HW113139   2.909   6.471   1.790  0.9268 -0.9225 -0.0839
 4187SOL    HW213140   2.874   6.585   1.697  0.1504 -0.1452  1.1253
 4188SOL     OW13141   4.168   2.277   4.457 -0.0227 -0.1747 -0.6185
 4188SOL    HW113142   4.191   2.342   4.390 -1.6813  2.2195  0.9482
 4188SOL    HW213143   4.226   2.298   4.531 -0.7250 -0.3164 -0.0195
 4189SOL     OW13144   8.947   5.273   5.011 -0.6475  0.0720 -0.0017
 4189SOL    HW113145   8.929   5.213   5.083 -0.5312 -0.9964 -0.8404
 4189SOL    HW213146   8.879   5.253   4.946  1.5890 -1.8715 -1.9229
 4190SOL     OW13147   2.726   0.531   6.961  0.0492  0.2717 -0.3010
 4190SOL    HW113148   2.764   0.575   6.885  0.2897 -1.0671 -0.9873
 4190SOL    HW213149   2.801   0.499   7.011 -0.0837  1.7198  0.8968
 4191SOL     OW13150   7.060   0.675   4.812 -0.0308  0.0312  0.1920
 4191SOL    HW113151   7.073   0.616   4.738  1.9455  1.1129 -0.4047
 4191SOL    HW213152   7.109   0.753   4.789 -0.5697  0.9668  2.0262
 4192SOL     OW13153   5.040   0.893   1.901 -0.6808 -0.3543 -0.0451
 4192SOL    HW113154   5.110   0.939   1.855  0.7078 -1.0148  1.3050
 4192SOL    HW213155   4.984   0.963   1.936  0.5651  0.2873  0.7248
 4193SOL     OW13156   4.798   0.074   6.793 -0.2663 -0.1726 -0.2192
 4193SOL    HW113157   4.754   0.039   6.871  2.7518 -1.6079  0.9902
 4193SOL    HW213158   4.860   0.006   6.768  2.1471  2.1620 -1.0225
 4194SOL     OW13159   3.641   3.917   5.979  0.0660 -0.4940  0.2453
 4194SOL    HW113160   3.645   3.866   6.060 -0.2866 -1.2939 -0.2274
 4194SOL    HW213161   3.733   3.937   5.958  0.0806  1.6345  1.9866
 4195SOL     OW13162   9.056   3.193   8.254  0.5003  0.0927 -0.1407
 4195SOL    HW113163   9.057   3.120   8.316 -0.0923  0.2379  0.0432
 4195SOL    HW213164   8.979   3.178   8.199  0.6277  0.3406 -0.3935
 4196SOL     OW13165   5.382   7.497   9.662 -0.1373 -0.0987 -0.0593
 4196SOL    HW113166   5.361   7.549   9.584 -2.3520  0.6506  0.9537
 4196SOL    HW213167   5.444   7.552   9.711 -0.6081  0.5182 -0.1465
 4197SOL     OW13168   5.231   1.701   9.248 -0.0418  0.2659 -0.4269
 4197SOL    HW113169   5.177   1.674   9.322  0.6295  2.1528  0.8378
 4197SOL    HW213170   5.320   1.675   9.273  0.2458  1.2753 -0.3503
 4198SOL     OW13171   3.081   3.319   0.845  0.3178  0.1376 -0.2588
 4198SOL    HW113172   3.052   3.393   0.898 -1.5080 -1.8521  1.7263
 4198SOL    HW213173   3.141   3.270   0.901  0.6438 -0.4842 -1.1192
 4199SOL     OW13174   3.084   2.831   6.489  0.4571  0.1540  0.2773
 4199SOL    HW113175   3.170   2.844   6.450  0.3387  3.3367  0.8035
 4199SOL    HW213176   3.096   2.847   6.582 -0.0406 -3.3797  1.0920
 4200SOL     OW13177   0.252   3.669   3.381  0.1951  0.5368  0.2154
 4200SOL    HW113178   0.209   3.611   3.444  1.1315  1.0134  1.3375
 4200SOL    HW213179   0.288   3.610   3.315  0.2784 -0.0897  0.8062
 4201SOL     OW13180   6.303   9.564   6.970  0.2121  0.3801 -0.0140
 4201SOL    HW113181   6.236   9.611   7.019  0.9967  1.9303 -0.3929
 4201SOL    HW213182   6.329   9.623   6.900  1.0277 -0.7323 -0.6964
 4202SOL     OW13183   7.248   0.698   2.559 -0.5504  0.2873  0.6155
 4202SOL    HW113184   7.244   0.644   2.638  0.2895 -1.4624 -0.4930
 4202SOL    HW213185   7.339   0.727   2.554  0.1921 -2.0700 -1.2162
 4203SOL     OW13186   6.957   4.853   3.220 -0.5226 -0.4410 -0.3957
 4203SOL    HW113187   6.896   4.926   3.224 -1.5854 -1.3309  0.5907
 4203SOL    HW213188   6.959   4.828   3.128  0.2841  1.1559 -0.8276
 4204SOL     OW13189   6.149   6.718   4.854  0.1171  0.2698  0.1606
 4204SOL    HW113190   6.188   6.658   4.917  0.7216  0.4754 -0.0158
 4204SOL    HW213191   6.119   6.662   4.782  0.1368  0.1217  0.2680
 4205SOL     OW13192   9.945   3.155   4.399 -0.2791 -0.3642  0.1286
 4205SOL    HW113193  10.029   3.200   4.389 -1.5937  2.3962  0.6099
 4205SOL    HW213194   9.960   3.069   4.360  2.8401 -0.1058  0.4534
 4206SOL     OW13195   5.305   1.231   6.468  0.2858  0.4000  0.1121
 4206SOL    HW113196   5.229   1.174   6.460  1.6701 -1.5039 -0.2076
 4206SOL    HW213197   5.293   1.275   6.552 -1.2096  0.2291  0.0058
 4207SOL     OW13198   4.417   4.944   5.311  0.0491 -0.2397  0.1014
 4207SOL    HW113199   4.465   5.015   5.268 -0.0545 -0.7881 -0.9508
 4207SOL    HW213200   4.326   4.975   5.314  0.0336 -0.2547 -0.1948
 4208SOL     OW13201   9.807   5.411   9.699 -0.2355  0.0107 -0.1581
 4208SOL    HW113202   9.713   5.429   9.711  0.0273 -0.0985  2.8513
 4208SOL    HW213203   9.850   5.492   9.725  0.5428 -0.3134 -0.4238
 4209SOL     OW13204   3.927   1.806   5.680  0.7527 -0.1264  0.3662
 4209SOL    HW113205   3.835   1.779   5.679  0.5762  0.4791  0.0518
 4209SOL    HW213206   3.972   1.738   5.629  0.4080 -0.1710  0.1161
 4210SOL     OW13207   4.922   4.400   4.205 -0.4937 -0.3408  0.2744
 4210SOL    HW113208   4.980   4.360   4.270  0.9300 -0.4058 -0.9737
 4210SOL    HW213209   4.901   4.486   4.241  1.5423  0.2514  0.1538
 4211SOL     OW13210   2.946   3.149   0.686  0.3957 -0.0711 -0.1039
 4211SOL    HW113211   2.868   3.202   0.671  0.7961  0.5150 -0.1377
 4211SOL    HW213212   3.002   3.203   0.741  2.1356  0.8580 -2.5959
 4212SOL     OW13213   4.056   3.791   0.467 -0.1620 -0.4711 -0.5306
 4212SOL    HW113214   4.136   3.739   0.454  0.2360 -0.1119  0.4548
 4212SOL    HW213215   3.987   3.725   0.474 -0.3409 -0.7525 -3.5902
 4213SOL     OW13216   4.194   2.301   7.724  0.7807 -0.3674  0.0695
 4213SOL    HW113217   4.237   2.341   7.648  0.2099  0.1249  0.0041
 4213SOL    HW213218   4.138   2.232   7.687 -0.1161  0.4048 -0.0355
 4214SOL     OW13219   6.973   8.554   2.760 -0.0502  0.6933 -0.6522
 4214SOL    HW113220   6.902   8.618   2.774 -0.4631  0.2077 -0.5135
 4214SOL    HW213221   6.955   8.485   2.824  1.0338  0.9693 -0.0210
 4215SOL     OW13222   7.786   5.503   4.684  0.1136 -0.1337  0.5764
 4215SOL    HW113223   7.746   5.451   4.753 -1.8559  1.5644  0.8248
 4215SOL    HW213224   7.876   5.472   4.679 -0.2874 -1.7636  2.4276
 4216SOL     OW13225   6.641   9.798   5.160  0.1799 -0.1350 -0.7087
 4216SOL    HW113226   6.665   9.707   5.142  1.8075  0.0947  0.0910
 4216SOL    HW213227   6.718   9.849   5.135 -0.6791  1.0413 -1.0823
 4217SOL     OW13228   7.229   0.541   2.779  0.2753  0.2338 -0.0645
 4217SOL    HW113229   7.289   0.475   2.745 -0.8970 -0.2315 -1.3372
 4217SOL    HW213230   7.142   0.504   2.765 -0.3426  1.0430  1.3825
 4218SOL     OW13231   6.979   6.868   9.788  0.0073  0.5179 -0.0119
 4218SOL    HW113232   6.997   6.811   9.863  0.0149  1.0281  0.3790
 4218SOL    HW213233   6.904   6.828   9.744 -0.7331  0.8293  0.9245
 4219SOL     OW13234   8.238   2.221   2.259 -0.8527 -0.0498 -0.6746
 4219SOL    HW113235   8.308   2.159   2.236 -0.6105 -0.3526  0.8093
 4219SOL    HW213236   8.278   2.307   2.252  0.3360 -0.2878  2.1376
 4220SOL     OW13237   1.809   4.153   6.159 -0.1169 -0.5637  0.0979
 4220SOL    HW113238   1.746   4.215   6.120 -0.2005 -0.9073 -0.3174
 4220SOL    HW213239   1.893   4.178   6.121 -0.3881 -1.7674 -1.4242
 4221SOL     OW13240   3.954   5.781   9.846 -0.1325 -0.2051  0.1474
 4221SOL    HW113241   4.047   5.769   9.864  0.6147 -1.2289 -3.5069
 4221SOL    HW213242   3.920   5.693   9.836 -0.5967  0.1403 -1.9326
 4222SOL     OW13243   0.993   7.060   0.334 -0.1471  0.1973  0.5670
 4222SOL    HW113244   1.007   7.135   0.392 -0.6543  0.4163  0.4164
 4222SOL    HW213245   0.924   7.089   0.274 -1.2177 -0.8066  1.2646
 4223SOL     OW13246   5.533   3.513   1.228  0.7566  0.2825 -0.3533
 4223SOL    HW113247   5.518   3.584   1.292  2.3188  0.2303  0.1046
 4223SOL    HW213248   5.530   3.557   1.143  0.0134  0.5924 -0.1775
 4224SOL     OW13249   1.457   9.577   4.080 -0.3007 -0.3076 -0.1022
 4224SOL    HW113250   1.533   9.593   4.137 -0.1905 -1.2458  0.0403
 4224SOL    HW213251   1.422   9.663   4.062 -0.4097  0.0137  1.4998
 4225SOL     OW13252   4.718   0.399   5.197 -0.1322  0.0171 -0.3352
 4225SOL    HW113253   4.699   0.396   5.291  1.2285  2.9180  0.1646
 4225SOL    HW213254   4.632   0.395   5.155 -0.7887 -0.9482  1.0182
 4226SOL     OW13255   6.624   1.394   0.050  0.2289  0.4201  0.0127
 4226SOL    HW113256   6.571   1.404  -0.029 -0.2325 -0.0707  0.2498
 4226SOL    HW213257   6.651   1.302   0.049 -0.7736  0.0903  1.0262
 4227SOL     OW13258   9.577   2.662   4.828 -0.1148 -0.2650  0.5847
 4227SOL    HW113259   9.569   2.582   4.880 -3.2242 -0.4197  0.0749
 4227SOL    HW213260   9.548   2.731   4.887  1.5696  0.3957  0.6920
 4228SOL     OW13261   1.605   3.496   6.871  1.2221  0.1460  0.4718
 4228SOL    HW113262   1.639   3.411   6.902  1.8581  1.0844  2.5048
 4228SOL    HW213263   1.540   3.521   6.936  1.9533  1.8033  0.6138
 4229SOL     OW13264   2.319   8.600   1.170 -0.7741 -0.2791 -0.3209
 4229SOL    HW113265   2.307   8.534   1.238 -0.8298 -1.4437 -1.4195
 4229SOL    HW213266   2.351   8.551   1.094  1.0008  1.2292 -0.6204
 4230SOL     OW13267   8.659   1.965   0.092  0.1295 -1.1756  0.1805
 4230SOL    HW113268   8.663   1.883   0.043 -0.5828 -1.6682  0.9191
 4230SOL    HW213269   8.578   1.958   0.143 -1.2948  1.0415 -1.5808
 4231SOL     OW13270   5.524   5.230   0.826  0.0197 -0.2661  0.4264
 4231SOL    HW113271   5.603   5.252   0.875 -0.5256  1.2787  0.6718
 4231SOL    HW213272   5.453   5.248   0.887 -0.5917  0.1075 -0.3909
 4232SOL     OW13273   5.154   0.237   3.406 -0.3788 -0.1325 -0.4391
 4232SOL    HW113274   5.160   0.242   3.310  4.6648  0.6940 -0.3472
 4232SOL    HW213275   5.179   0.324   3.436 -2.5996 -0.1393  1.7671
 4233SOL     OW13276   9.414   7.705   1.196  0.0004  0.1299 -0.0896
 4233SOL    HW113277   9.493   7.650   1.196 -0.5557 -0.7080 -0.8955
 4233SOL    HW213278   9.366   7.677   1.118 -1.6397 -0.1717  0.9824
 4234SOL     OW13279   8.109   9.847   8.255 -0.0132 -0.1451  0.1955
 4234SOL    HW113280   8.136   9.757   8.239 -0.2591 -0.1159 -0.3896
 4234SOL    HW213281   8.046   9.867   8.186 -1.3967 -0.1445  1.3918
 4235SOL     OW13282   9.568   6.147   1.272  0.0516 -0.5188 -0.6365
 4235SOL    HW113283   9.590   6.178   1.184 -1.8130 -0.8194 -1.2421
 4235SOL    HW213284   9.638   6.182   1.327  0.9160  0.2175 -2.1346
 4236SOL     OW13285   9.169   2.972   4.610  0.0304 -0.3434 -0.2900
 4236SOL    HW113286   9.085   2.951   4.652  0.6354 -0.3573  0.9671
 4236SOL    HW213287   9.185   3.063   4.635  0.7304 -0.5692  0.1022
 4237SOL     OW13288   6.133   9.783   2.430 -0.4984 -0.0120 -0.4284
 4237SOL    HW113289   6.179   9.711   2.386 -0.1196  1.3493 -2.4116
 4237SOL    HW213290   6.099   9.837   2.358 -3.3863  0.2122  0.9706
 4238SOL     OW13291   8.114   5.456   1.295  0.1724 -0.0745  0.2771
 4238SOL    HW113292   8.040   5.411   1.336 -1.6123 -0.2455 -2.8304
 4238SOL    HW213293   8.191   5.413   1.332 -1.1327  0.4869  4.0639
 4239SOL     OW13294   6.377   9.647   5.316 -0.4783 -0.2245 -0.4612
 4239SOL    HW113295   6.473   9.646   5.317 -0.4730 -0.2932  0.9781
 4239SOL    HW213296   6.355   9.738   5.296 -0.1194 -0.2073 -0.8065
 4240SOL     OW13297   1.690   0.742   3.968  0.4743  0.3308  0.0169
 4240SOL    HW113298   1.772   0.777   4.004  0.1541  0.8827  0.2241
 4240SOL    HW213299   1.623   0.803   3.998 -0.1299 -0.5825  0.5497
 4241SOL     OW13300   3.287   7.935   6.065 -0.8234 -0.1209 -0.2859
 4241SOL    HW113301   3.215   7.875   6.049 -0.7621 -0.2914  0.0821
 4241SOL    HW213302   3.295   7.939   6.160  1.5190 -2.3488 -0.2922
 4242SOL     OW13303   0.172   3.968   6.433 -0.3984 -0.5889 -0.0863
 4242SOL    HW113304   0.216   3.887   6.459  1.5058 -0.0286 -1.3470
 4242SOL    HW213305   0.184   4.026   6.508  3.1863  0.3095 -1.1487
 4243SOL     OW13306   1.015   7.580   2.469  0.1654 -0.2931 -0.2232
 4243SOL    HW113307   0.968   7.608   2.548 -0.0732  1.5844 -0.9681
 4243SOL    HW213308   1.085   7.645   2.459 -0.7585  0.4585 -2.3816
 4244SOL     OW13309   0.977   9.395   5.762  0.1613 -0.7724  0.7249
 4244SOL    HW113310   0.986   9.481   5.803 -1.1057 -1.0920  1.7257
 4244SOL    HW213311   1.022   9.335   5.821  0.4974 -0.8994  0.3480
 4245SOL     OW13312   4.606   8.114   7.609 -0.1765  0.2552 -0.2549
 4245SOL    HW113313   4.640   8.064   7.683  1.2002  2.8125  0.9448
 4245SOL    HW213314   4.512   8.121   7.625 -0.2425 -1.0289  0.0509
 4246SOL     OW13315   7.006   3.518   9.127 -0.8416 -0.0342 -0.0078
 4246SOL    HW113316   7.097   3.530   9.100 -0.5774  0.1015  0.9014
 4246SOL    HW213317   7.000   3.427   9.155 -1.7294 -0.9022 -2.7225
 4247SOL     OW13318   4.278   2.581   5.779  0.2583 -0.1839 -0.5052
 4247SOL    HW113319   4.274   2.661   5.831 -1.0931 -1.2445  1.1014
 4247SOL    HW213320   4.231   2.603   5.698 -1.2667  0.2731  0.4686
 4248SOL     OW13321   9.096   9.764   4.506  0.2504  0.0462 -0.2809
 4248SOL    HW113322   9.027   9.747   4.570 -0.2628 -1.9333 -1.2983
 4248SOL    HW213323   9.127   9.852   4.528 -1.0196  0.0844  1.6333
 4249SOL     OW13324   4.720   8.137   7.891  0.0060 -0.5963 -0.2007
 4249SOL    HW113325   4.679   8.069   7.946  0.5026 -1.0268 -0.3502
 4249SOL    HW213326   4.672   8.217   7.911  0.8817 -0.4942  1.7242
 4250SOL     OW13327   2.279   0.955   6.208 -0.2832 -0.0961 -0.6413
 4250SOL    HW113328   2.261   0.883   6.268 -1.0730  0.9908  0.5040
 4250SOL    HW213329   2.362   0.991   6.239 -0.3572  0.0489 -0.6084
 4251SOL     OW13330   7.182   7.179   4.267 -0.0174 -0.0770 -0.5467
 4251SOL    HW113331   7.106   7.129   4.294  0.9401 -1.8559 -0.9896
 4251SOL    HW213332   7.148   7.243   4.204 -1.2223 -0.3896 -0.2302
 4252SOL     OW13333   8.822   0.771   6.476 -0.2287 -0.2725  0.4789
 4252SOL    HW113334   8.915   0.751   6.465 -0.5346 -1.9932  0.8332
 4252SOL    HW213335   8.792   0.714   6.547 -1.9106 -0.9728 -0.7129
 4253SOL     OW13336   7.625   1.447   0.958  0.4831  0.2113  0.0104
 4253SOL    HW113337   7.671   1.461   1.041  1.5211 -0.7533 -0.3733
 4253SOL    HW213338   7.689   1.401   0.903  0.1648  1.6406 -1.6570
 4254SOL     OW13339   1.007   2.011   7.351  0.0198 -0.3880  0.2720
 4254SOL    HW113340   0.939   1.957   7.312  1.5320 -1.6797 -0.6733
 4254SOL    HW213341   1.040   2.065   7.279 -0.3875  0.6695  0.8546
 4255SOL     OW13342   1.363   5.254   3.248 -0.3031 -0.1670 -0.2660
 4255SOL    HW113343   1.423   5.238   3.175  0.6654  1.3022  0.1609
 4255SOL    HW213344   1.362   5.171   3.297  1.2851 -0.2786 -0.3717
 4256SOL     OW13345   8.357   1.869   3.893  0.2364  0.1843 -0.2808
 4256SOL    HW113346   8.377   1.919   3.973  1.9754 -0.2346 -0.4169
 4256SOL    HW213347   8.440   1.831   3.868 -0.9091 -2.3181 -0.5404
 4257SOL     OW13348   7.902   5.638   0.225  0.0947  1.0533 -0.6896
 4257SOL    HW113349   7.926   5.675   0.140 -0.8727  0.5971 -1.1751
 4257SOL    HW213350   7.939   5.699   0.289 -0.1580  2.0271 -1.4514
 4258SOL     OW13351   9.078   5.007   3.056 -0.2232 -0.2835  0.1576
 4258SOL    HW113352   9.168   5.005   3.087  0.0581  0.3428 -0.5635
 4258SOL    HW213353   9.025   5.009   3.135  0.4073 -0.3785  0.5909
 4259SOL     OW13354   5.334   7.080   6.204  0.8921  0.3035 -0.1897
 4259SOL    HW113355   5.401   7.141   6.235  1.5237 -1.3762  2.0776
 4259SOL    HW213356   5.258   7.099   6.258  0.0417  1.0917 -1.6141
 4260SOL     OW13357   4.468   5.307   5.571 -0.1055  0.6761 -0.1482
 4260SOL    HW113358   4.415   5.285   5.495  0.8946 -0.4488 -0.5517
 4260SOL    HW213359   4.546   5.348   5.535  0.5186 -0.1560  0.2381
 4261SOL     OW13360   7.988   0.889   7.919  0.2147 -0.0249  0.0756
 4261SOL    HW113361   7.934   0.854   7.989  1.4136 -1.6224  0.2568
 4261SOL    HW213362   7.981   0.825   7.849  0.7764  0.4395 -0.4132
 4262SOL     OW13363   1.348   0.592   3.733 -0.2626 -0.0185 -0.4826
 4262SOL    HW113364   1.437   0.624   3.717  0.0808 -0.8702 -0.2762
 4262SOL    HW213365   1.329   0.619   3.823 -0.2647  0.2692 -0.5671
 4263SOL     OW13366   3.740   8.757   8.322 -0.2585  0.7975 -0.2433
 4263SOL    HW113367   3.726   8.689   8.387  1.6092 -0.0479 -0.6532
 4263SOL    HW213368   3.734   8.711   8.238 -0.1396  1.3664 -0.5675
 4264SOL     OW13369   0.179   6.042   0.676 -0.0190 -0.0364  0.0934
 4264SOL    HW113370   0.136   5.970   0.724  0.1559  0.0509  0.3848
 4264SOL    HW213371   0.234   5.998   0.612  0.7842 -0.1944  0.8671
 4265SOL     OW13372   4.655   5.656   5.150  0.2874  0.0608  0.3029
 4265SOL    HW113373   4.650   5.658   5.055  0.1214  2.2265  0.3039
 4265SOL    HW213374   4.726   5.717   5.172  0.1776 -0.2342  1.5731
 4266SOL     OW13375   9.893   0.288   4.468 -0.4597 -0.0869  0.1251
 4266SOL    HW113376   9.885   0.356   4.535  2.2933 -0.4899  0.9686
 4266SOL    HW213377   9.970   0.237   4.494 -0.4624 -1.4728 -2.2931
 4267SOL     OW13378   1.134   9.605   8.247  0.1416  0.4390 -0.4376
 4267SOL    HW113379   1.190   9.608   8.170 -0.5230 -3.1754 -1.2573
 4267SOL    HW213380   1.049   9.636   8.216  0.3457  0.8403 -0.6065
 4268SOL     OW13381   2.592   1.761   7.458 -0.0537  0.4286  0.8729
 4268SOL    HW113382   2.510   1.809   7.471  0.2786  1.2700  0.0127
 4268SOL    HW213383   2.660   1.827   7.472  0.4013  0.4782 -1.2264
 4269SOL     OW13384   5.058   3.284   3.765 -1.0748  0.5263  0.0615
 4269SOL    HW113385   5.105   3.333   3.832 -0.7673 -0.8503  0.9006
 4269SOL    HW213386   5.103   3.305   3.684  1.0327 -0.7079  0.8304
 4270SOL     OW13387   2.081   7.071   3.046 -0.0461 -0.0672 -0.6214
 4270SOL    HW113388   2.097   6.977   3.038 -0.4189 -0.1226 -0.6989
 4270SOL    HW213389   2.025   7.079   3.124  2.1587  0.3158  1.0279
 4271SOL     OW13390   3.576   6.605   6.946 -0.0808  0.1665 -0.0710
 4271SOL    HW113391   3.595   6.633   7.036  1.7071  1.9752 -0.9260
 4271SOL    HW213392   3.626   6.525   6.935  0.5633  0.5172  0.2409
 4272SOL     OW13393   1.286   9.240   7.779  0.4368  0.0009 -0.2179
 4272SOL    HW113394   1.236   9.198   7.849  0.3746  1.8629  0.9392
 4272SOL    HW213395   1.258   9.196   7.699 -1.1225 -0.7253  0.6866
 4273SOL     OW13396   6.660   0.499   9.099 -0.1273  0.0443  0.9381
 4273SOL    HW113397   6.685   0.538   9.015  0.6604 -0.0645  1.1147
 4273SOL    HW213398   6.617   0.417   9.075  0.2707 -0.0831  0.6476
 4274SOL     OW13399   3.148   1.936   3.685 -0.5551 -0.0117 -0.1409
 4274SOL    HW113400   3.114   2.026   3.683  2.3441  1.2235  0.6010
 4274SOL    HW213401   3.133   1.907   3.774  0.6446  0.7202  0.3296
 4275SOL     OW13402   5.557   9.480   6.881  0.3880 -0.2245 -0.3504
 4275SOL    HW113403   5.565   9.454   6.972 -0.1676 -1.6877 -0.6946
 4275SOL    HW213404   5.622   9.550   6.870  1.3016 -0.8579  0.8492
 4276SOL     OW13405   6.814   1.029   7.704 -0.0358  0.4338  0.1634
 4276SOL    HW113406   6.752   1.100   7.688  0.1243  0.6822  0.6476
 4276SOL    HW213407   6.882   1.068   7.759 -1.8371 -1.0056  3.7034
 4277SOL     OW13408   1.532   4.933   1.105  0.1395  0.4242  0.0413
 4277SOL    HW113409   1.601   4.910   1.043  0.2371  0.8484 -0.0128
 4277SOL    HW213410   1.455   4.885   1.075  0.2948  0.3044 -0.1643
 4278SOL     OW13411   3.045   4.668   5.165  0.1836 -0.1197 -0.2305
 4278SOL    HW113412   3.132   4.641   5.137  1.1962  2.4512  0.2174
 4278SOL    HW213413   3.060   4.736   5.230 -2.1721  0.0483  0.2318
 4279SOL     OW13414   4.933   7.543   3.931 -0.7657 -0.2520 -0.5690
 4279SOL    HW113415   4.980   7.595   3.865 -2.8299  1.4751 -0.7745
 4279SOL    HW213416   5.002   7.517   3.993  0.3429  3.5903  0.0826
 4280SOL     OW13417   8.064   3.256   0.784 -0.2786  0.4974 -0.5903
 4280SOL    HW113418   8.113   3.286   0.708 -1.4089  3.2608 -0.3420
 4280SOL    HW213419   8.100   3.306   0.857 -1.7926  0.8090 -0.0187
 4281SOL     OW13420   7.805   0.008   5.888 -0.0340  0.0330 -0.5530
 4281SOL    HW113421   7.818   0.033   5.980  0.2496  1.0059 -0.8527
 4281SOL    HW213422   7.718   0.042   5.866 -0.1804 -0.3617 -0.5991
 4282SOL     OW13423   7.193   9.400   6.536 -0.0211  0.2739 -0.0503
 4282SOL    HW113424   7.162   9.490   6.527  0.8970  0.4448 -2.1917
 4282SOL    HW213425   7.203   9.387   6.630  2.2867  3.3065  0.2563
 4283SOL     OW13426   8.178   3.082   9.758  0.1436 -0.7098 -0.0266
 4283SOL    HW113427   8.184   3.175   9.735  0.9180 -0.3811  1.3760
 4283SOL    HW213428   8.266   3.060   9.789 -0.3612 -1.5680  0.8537
 4284SOL     OW13429   5.564   4.065   3.403 -0.0330  0.2538 -0.6508
 4284SOL    HW113430   5.634   4.085   3.465  0.5673  1.7195 -1.7588
 4284SOL    HW213431   5.591   4.107   3.321 -2.1952  0.8761 -1.1100
 4285SOL     OW13432   5.497   9.115   8.408 -0.1126  0.0095  0.7162
 4285SOL    HW113433   5.554   9.188   8.433  0.1895 -0.1561  0.5176
 4285SOL    HW213434   5.442   9.100   8.485 -0.6810  0.9186  0.4930
 4286SOL     OW13435   8.925   3.655   3.534 -0.5740 -0.3946  0.5668
 4286SOL    HW113436   8.940   3.650   3.440  1.1930 -1.8481  0.8626
 4286SOL    HW213437   8.920   3.749   3.553 -0.0058 -0.0525 -0.8431
 4287SOL     OW13438   4.440   1.834   0.396 -0.0008  0.1351 -0.0609
 4287SOL    HW113439   4.390   1.911   0.369 -2.1483 -0.4528  1.9312
 4287SOL    HW213440   4.388   1.794   0.465  2.0148 -2.0320  0.3491
 4288SOL     OW13441   2.319   7.756   6.167  0.8655 -0.0284 -0.0479
 4288SOL    HW113442   2.294   7.828   6.225  3.0830  1.1215 -0.4015
 4288SOL    HW213443   2.249   7.753   6.101 -0.1164  0.6752  0.9181
 4289SOL     OW13444   6.730   8.516   7.100 -0.0271  0.1793  0.3166
 4289SOL    HW113445   6.740   8.477   7.013  1.3467 -0.7409  0.8618
 4289SOL    HW213446   6.643   8.487   7.129  0.2918 -1.1227  0.0374
 4290SOL     OW13447   2.376   7.929   2.871  0.5105 -0.5503 -0.3610
 4290SOL    HW113448   2.427   7.914   2.951  0.5956 -0.8226 -0.4628
 4290SOL    HW213449   2.396   8.019   2.845 -4.0741  1.9178  3.1947
 4291SOL     OW13450   1.869   2.856   5.441  0.4441 -0.3186  0.3075
 4291SOL    HW113451   1.963   2.843   5.430  0.8409  2.1525  0.1572
 4291SOL    HW213452   1.840   2.896   5.358 -0.7719 -1.1711  0.2993
 4292SOL     OW13453   3.061   0.573   9.490  0.1826  0.6547  0.8704
 4292SOL    HW113454   3.067   0.497   9.549 -0.4589 -0.2437 -0.1835
 4292SOL    HW213455   3.036   0.535   9.405  0.2240  2.0145  0.2346
 4293SOL     OW13456   2.647   5.992  10.015 -0.1499  0.1818 -0.0806
 4293SOL    HW113457   2.717   5.965   9.956  0.9433  1.6273  0.4999
 4293SOL    HW213458   2.592   6.051   9.964 -0.7988 -0.7196 -0.4476
 4294SOL     OW13459   1.611   7.651   6.960 -0.4183 -0.3509 -0.1420
 4294SOL    HW113460   1.599   7.625   6.869 -0.4884 -2.6681  0.4598
 4294SOL    HW213461   1.548   7.597   7.009  0.2765  0.1388  1.3669
 4295SOL     OW13462   2.259   5.803   5.376 -0.1682 -0.0999 -0.1011
 4295SOL    HW113463   2.339   5.771   5.336  2.8442  2.4159  3.2122
 4295SOL    HW213464   2.249   5.750   5.455 -2.2148 -0.7748 -0.7590
 4296SOL     OW13465   3.885   9.931   2.961 -0.2568 -0.9180  0.5889
 4296SOL    HW113466   3.832   9.905   3.036  0.4512 -1.0412  1.0588
 4296SOL    HW213467   3.822   9.967   2.898 -0.6663  1.2819  2.1226
 4297SOL     OW13468   7.980   0.330   3.912  0.2319  0.0859 -0.0394
 4297SOL    HW113469   7.953   0.412   3.871 -0.8600 -1.2545 -2.2038
 4297SOL    HW213470   7.900   0.278   3.918  1.2497 -1.7293 -1.0607
 4298SOL     OW13471   2.653   6.286   7.958  0.0957 -0.0464 -0.0625
 4298SOL    HW113472   2.679   6.371   7.994 -1.2569  0.5772 -0.5008
 4298SOL    HW213473   2.590   6.252   8.021  1.1117 -1.0642  0.4543
 4299SOL     OW13474   9.542   9.396   3.100  0.1079  0.1448 -0.1903
 4299SOL    HW113475   9.539   9.444   3.183 -1.5334  0.4675 -0.3983
 4299SOL    HW213476   9.452   9.399   3.068  0.5202 -0.8273 -1.5079
 4300SOL     OW13477   1.692   6.711   5.466  0.2041 -0.0304 -0.4416
 4300SOL    HW113478   1.652   6.794   5.489  0.9028 -0.3367  2.1853
 4300SOL    HW213479   1.751   6.692   5.539 -0.5121 -3.2073 -0.5482
 4301SOL     OW13480   6.208   2.854   7.757 -0.0370 -0.0347  0.1027
 4301SOL    HW113481   6.196   2.771   7.710 -0.9992  0.2473 -0.1617
 4301SOL    HW213482   6.301   2.874   7.746 -0.3636  0.4048 -2.3007
 4302SOL     OW13483   9.949   7.931   1.096  0.1563  0.5202 -0.4829
 4302SOL    HW113484   9.941   7.838   1.077 -0.4326  0.4026  0.3117
 4302SOL    HW213485  10.004   7.965   1.025  0.3499 -0.4177 -0.7964
 4303SOL     OW13486   9.047   0.166   0.928 -0.6998  0.3091 -0.3370
 4303SOL    HW113487   8.955   0.183   0.907 -1.1248  0.4419  1.5058
 4303SOL    HW213488   9.063   0.216   1.008  1.0941  0.5737 -0.8266
 4304SOL     OW13489   6.665   4.629   0.757  0.4913  0.7359  0.3563
 4304SOL    HW113490   6.602   4.558   0.770 -1.1943  1.8688 -1.0732
 4304SOL    HW213491   6.700   4.613   0.669 -0.0457  1.7298 -0.0586
 4305SOL     OW13492   8.924   2.419   8.707  0.0024 -0.2063 -0.3482
 4305SOL    HW113493   8.941   2.409   8.613  0.5585 -0.4410 -0.2286
 4305SOL    HW213494   8.914   2.329   8.739 -1.3343 -0.0789 -0.3791
 4306SOL     OW13495   7.216   5.501   9.642 -0.3373  0.4021 -0.1545
 4306SOL    HW113496   7.154   5.479   9.572 -0.3482  2.5037 -0.8919
 4306SOL    HW213497   7.282   5.556   9.598  1.1177 -0.3909  0.9663
 4307SOL     OW13498   3.272   7.820   4.882 -0.1607  0.5298 -0.9946
 4307SOL    HW113499   3.317   7.793   4.962 -1.6834  0.6563 -0.0540
 4307SOL    HW213500   3.211   7.749   4.863 -0.5883  1.0038 -1.4300
 4308SOL     OW13501   6.423   6.680   2.670 -0.8238 -0.2048 -0.0709
 4308SOL    HW113502   6.344   6.656   2.718 -0.3457 -2.6118 -0.3731
 4308SOL    HW213503   6.397   6.677   2.578 -0.9767  1.5258 -0.1327
 4309SOL     OW13504   8.441   3.817   5.385 -0.0783  0.2083 -0.2570
 4309SOL    HW113505   8.413   3.908   5.389 -0.2571  0.0931  2.8647
 4309SOL    HW213506   8.360   3.767   5.374  0.0840  0.3474 -2.9043
 4310SOL     OW13507   4.411   3.923   9.333 -0.3237  0.3376  0.1487
 4310SOL    HW113508   4.446   3.864   9.267 -1.2914  0.5872 -0.6062
 4310SOL    HW213509   4.461   3.902   9.412  0.2391 -0.5779 -0.4284
 4311SOL     OW13510   0.808   3.563   0.293  0.2587 -0.1298  0.0739
 4311SOL    HW113511   0.854   3.514   0.224 -1.0434  1.8716 -2.3935
 4311SOL    HW213512   0.875   3.619   0.331  1.0331 -1.3748  0.6063
 4312SOL     OW13513   9.495   2.197   1.612 -0.5716 -0.6041  0.2685
 4312SOL    HW113514   9.521   2.157   1.695 -0.5807 -0.7223  0.2150
 4312SOL    HW213515   9.565   2.258   1.592  0.4832 -2.0504 -0.6635
 4313SOL     OW13516   0.819   7.407   7.301 -0.5086  0.1651 -0.3977
 4313SOL    HW113517   0.907   7.401   7.265 -1.1285  0.3625 -2.0292
 4313SOL    HW213518   0.821   7.349   7.377  1.2388  0.8003  0.0866
 4314SOL     OW13519   8.904   4.333   4.423  0.1089  0.1907  0.4061
 4314SOL    HW113520   8.857   4.251   4.433  1.2448 -0.9395 -2.3427
 4314SOL    HW213521   8.899   4.375   4.508 -0.9717 -2.4845  1.7604
 4315SOL     OW13522   0.838   4.320   7.692  0.1372  0.3503  0.2178
 4315SOL    HW113523   0.888   4.299   7.613 -0.3303  0.0987 -0.0163
 4315SOL    HW213524   0.840   4.240   7.744  0.5478  0.5552  0.5190
 4316SOL     OW13525   4.379   3.828   3.770 -0.2818  0.7050  0.1344
 4316SOL    HW113526   4.321   3.818   3.846  1.1041  1.2390  1.2888
 4316SOL    HW213527   4.467   3.825   3.806  0.4030  2.2295 -1.2936
 4317SOL     OW13528   9.396   8.343   4.756 -0.4228 -0.3374  0.8517
 4317SOL    HW113529   9.468   8.287   4.728  0.0583  0.6566  0.0734
 4317SOL    HW213530   9.410   8.355   4.850 -1.2049 -2.4640  1.3064
 4318SOL     OW13531   7.839   6.354   2.681  1.1242  0.0549  0.3173
 4318SOL    HW113532   7.807   6.443   2.665  1.8405  0.4092  0.8412
 4318SOL    HW213533   7.863   6.322   2.594  0.9657  0.4114  0.1385
 4319SOL     OW13534   3.205   5.061   9.074  0.6738  0.2934 -0.1624
 4319SOL    HW113535   3.121   5.050   9.118  0.3777  0.6797 -0.6217
 4319SOL    HW213536   3.187   5.038   8.983  1.4129 -1.0917  0.0065
 4320SOL     OW13537   6.079   6.569   3.098 -0.1776  0.2847  0.4395
 4320SOL    HW113538   6.062   6.476   3.082  0.6023  0.4556 -1.7616
 4320SOL    HW213539   5.994   6.611   3.089 -0.3287 -0.0701  0.1994
 4321SOL     OW13540   6.269   3.510   6.587 -0.0842 -0.3916 -0.1115
 4321SOL    HW113541   6.251   3.499   6.494  1.5783 -0.7688 -0.4159
 4321SOL    HW213542   6.317   3.431   6.612  1.7593  0.8256  0.4278
 4322SOL     OW13543   1.652   9.832   4.131 -0.2814 -0.3548  0.1906
 4322SOL    HW113544   1.744   9.858   4.126 -0.3916 -0.0292 -0.2392
 4322SOL    HW213545   1.614   9.892   4.196 -0.2161 -0.4287  0.2988
 4323SOL     OW13546   0.602   8.115   9.714 -0.0083 -0.1888 -0.0082
 4323SOL    HW113547   0.643   8.200   9.699 -1.5211  0.5758 -0.0008
 4323SOL    HW213548   0.657   8.073   9.781  0.6975  0.8122  0.0634
 4324SOL     OW13549   8.928   8.618   9.879  0.3475  0.0545  0.3568
 4324SOL    HW113550   8.984   8.555   9.832  0.7290  0.6654 -0.0299
 4324SOL    HW213551   8.944   8.701   9.834  0.0278  0.4734  1.0086
 4325SOL     OW13552   9.872   5.083   7.178  0.6232 -0.3956 -0.0137
 4325SOL    HW113553   9.831   5.169   7.170  0.3683 -0.2043  2.5913
 4325SOL    HW213554   9.952   5.099   7.227  0.9822 -1.5379 -0.1972
 4326SOL     OW13555   7.876   1.315   5.428 -0.3861  0.1278  0.6889
 4326SOL    HW113556   7.946   1.292   5.490 -1.8665 -2.9838  1.3732
 4326SOL    HW213557   7.795   1.307   5.479 -1.3850  4.3296  0.1336
 4327SOL     OW13558   5.172   0.321   8.161 -0.0768 -0.5496  0.3626
 4327SOL    HW113559   5.104   0.387   8.173  1.7767  1.5590  0.1081
 4327SOL    HW213560   5.140   0.244   8.207 -1.9045  0.8718  1.6273
 4328SOL     OW13561   9.507   5.414   0.471 -0.0334 -0.0998  0.0802
 4328SOL    HW113562   9.557   5.422   0.389  1.3579 -0.2239  0.8787
 4328SOL    HW213563   9.571   5.384   0.535 -0.9920  0.4146  1.3250
 4329SOL     OW13564   8.507   9.563   2.818  0.1986  0.1816 -0.0017
 4329SOL    HW113565   8.512   9.658   2.808 -0.3524  0.2234  0.0619
 4329SOL    HW213566   8.429   9.550   2.873  0.7340 -0.2617  0.6604
 4330SOL     OW13567   0.916   3.957   5.876 -0.3138  0.4827  0.0550
 4330SOL    HW113568   0.843   3.919   5.827 -1.1962  0.4808  1.3205
 4330SOL    HW213569   0.978   3.884   5.886 -1.3981 -0.3222  1.3150
 4331SOL     OW13570   1.865   7.546   9.115  0.3755 -0.2125  0.1187
 4331SOL    HW113571   1.884   7.511   9.028 -2.2040  1.2731 -1.1696
 4331SOL    HW213572   1.938   7.516   9.170  1.5553 -2.0725 -2.2847
 4332SOL     OW13573   9.550   7.535   8.505  0.1128  0.6954 -0.1716
 4332SOL    HW113574   9.536   7.608   8.445  1.1595  1.3407  0.3401
 4332SOL    HW213575   9.484   7.547   8.574 -0.8023  0.2017 -0.9368
 4333SOL     OW13576   1.274   2.542   1.332 -0.4300  0.0972 -0.1266
 4333SOL    HW113577   1.349   2.576   1.381 -1.9407 -0.0367  2.4029
 4333SOL    HW213578   1.314   2.494   1.259  1.8599  1.9838 -0.2220
 4334SOL     OW13579   5.318   6.353   0.386 -0.3464  0.1124  0.1746
 4334SOL    HW113580   5.282   6.350   0.297  1.8349 -0.0421 -0.7637
 4334SOL    HW213581   5.248   6.392   0.439 -0.9935  2.1271 -1.9830
 4335SOL     OW13582   6.466   2.606   9.832 -0.3408  0.3144 -0.0370
 4335SOL    HW113583   6.498   2.539   9.772 -2.7552 -1.3935  0.4040
 4335SOL    HW213584   6.537   2.618   9.895  0.5898 -1.0108 -0.7838
 4336SOL     OW13585   5.641   6.199   4.198 -0.1758 -0.2363  0.1894
 4336SOL    HW113586   5.686   6.284   4.188 -1.6779  0.7207  1.1836
 4336SOL    HW213587   5.592   6.188   4.116  1.3962 -1.0471 -0.6912
 4337SOL     OW13588   5.080   2.186   7.529 -0.3420  0.5779  0.7676
 4337SOL    HW113589   4.991   2.219   7.545 -1.0558 -0.6495 -0.4392
 4337SOL    HW213590   5.066   2.102   7.485  1.4278 -0.0786  1.4015
 4338SOL     OW13591   4.635   1.926   3.304 -0.2833 -1.0611  0.5619
 4338SOL    HW113592   4.641   2.003   3.361 -1.0705 -1.6599  1.5033
 4338SOL    HW213593   4.726   1.903   3.285 -0.0315 -0.1647  0.6286
 4339SOL     OW13594   9.150   4.938   1.503 -0.2836  0.4613  0.0752
 4339SOL    HW113595   9.116   4.850   1.490 -0.1561  0.1210  1.7628
 4339SOL    HW213596   9.072   4.992   1.516 -0.3028  0.1624  1.3050
 4340SOL     OW13597   7.679   7.678   4.185  0.6387 -0.2712  0.6167
 4340SOL    HW113598   7.725   7.761   4.172  1.7154 -1.1829 -2.3248
 4340SOL    HW213599   7.607   7.699   4.244 -0.7845  3.4420 -2.0480
 4341SOL     OW13600   2.806   5.423   5.339 -0.1325 -0.2379  0.5590
 4341SOL    HW113601   2.806   5.404   5.245 -1.7385  0.2878  0.4253
 4341SOL    HW213602   2.842   5.511   5.345 -0.2725 -0.1700  0.4132
 4342SOL     OW13603   7.359   9.439   3.989  0.2821  0.5885 -0.0740
 4342SOL    HW113604   7.381   9.410   3.901  2.4894 -0.5780  0.7747
 4342SOL    HW213605   7.425   9.507   4.009  0.1982  0.4141  0.8730
 4343SOL     OW13606   1.201   7.196   6.798  0.1475 -0.0620 -0.3693
 4343SOL    HW113607   1.181   7.113   6.756  0.8941  0.0660 -0.9957
 4343SOL    HW213608   1.116   7.227   6.832  0.0646 -1.6829  1.0411
 4344SOL     OW13609   5.390   6.716   5.739 -0.1217  0.5255 -0.6153
 4344SOL    HW113610   5.335   6.768   5.798  0.5042 -0.6534  1.0540
 4344SOL    HW213611   5.471   6.767   5.731 -0.6312  1.2547 -1.4478
 4345SOL     OW13612   9.310   3.064   8.140  0.1180 -0.2898  0.7503
 4345SOL    HW113613   9.232   3.054   8.194  0.5544 -0.5846  1.3377
 4345SOL    HW213614   9.278   3.063   8.050 -0.4634 -1.2879  0.9581
 4346SOL     OW13615   1.561   6.208   0.590 -0.1875 -0.3992  0.1597
 4346SOL    HW113616   1.506   6.270   0.543  1.8796  0.7782 -0.8785
 4346SOL    HW213617   1.621   6.263   0.641 -0.0013 -1.6139  1.3203
 4347SOL     OW13618   5.273   8.008   9.310  0.0889  0.0247 -0.7573
 4347SOL    HW113619   5.260   7.940   9.376 -0.2869 -0.6617 -1.5122
 4347SOL    HW213620   5.316   7.962   9.237  1.8394  1.0688 -0.4502
 4348SOL     OW13621   1.295   3.970   5.579  0.2773  0.1540  0.2474
 4348SOL    HW113622   1.380   4.005   5.552  1.2293 -1.4898  0.9697
 4348SOL    HW213623   1.236   4.045   5.576  0.5853  0.5273 -4.8323
 4349SOL     OW13624   2.435   3.776   1.236  0.6581  0.0632 -0.0186
 4349SOL    HW113625   2.419   3.705   1.174 -3.0378  1.4352 -0.8885
 4349SOL    HW213626   2.519   3.754   1.276  0.1166 -4.3073 -0.8084
 4350SOL     OW13627   9.908   3.921   9.665 -0.1950  0.2104  0.0073
 4350SOL    HW113628   9.835   3.927   9.604 -0.0500  1.4901 -0.0799
 4350SOL    HW213629   9.891   3.843   9.716 -1.7093  0.5770  0.1035
 4351SOL     OW13630   4.998   0.290   7.076  0.5636  0.5747 -0.4805
 4351SOL    HW113631   4.989   0.378   7.112  1.8820  0.5655 -0.0841
 4351SOL    HW213632   4.967   0.297   6.986 -0.1374  1.2377 -0.1937
 4352SOL     OW13633   8.742   9.196   8.575 -0.5637 -0.0198 -0.1506
 4352SOL    HW113634   8.767   9.256   8.504  0.1465  1.0285  0.9453
 4352SOL    HW213635   8.817   9.138   8.585 -0.8926 -0.5361 -0.6171
 4353SOL     OW13636   1.218   0.714   5.620 -0.0392 -0.4188 -0.9681
 4353SOL    HW113637   1.202   0.797   5.664  2.4560  0.4336 -1.5111
 4353SOL    HW213638   1.137   0.694   5.574 -0.5144  2.0116 -1.2791
 4354SOL     OW13639   6.639   3.944   6.493 -0.1752  0.5201  0.2037
 4354SOL    HW113640   6.571   3.881   6.470  0.5470  0.3519 -1.6719
 4354SOL    HW213641   6.598   4.029   6.478 -0.8472  0.5223  1.8352
 4355SOL     OW13642   8.781   1.925   8.050 -0.2590  0.4320 -0.1058
 4355SOL    HW113643   8.723   1.880   7.989 -0.9890  1.7070 -0.3871
 4355SOL    HW213644   8.779   1.871   8.129  0.0974 -0.8242 -0.9338
 4356SOL     OW13645   6.048   6.728   9.299 -0.6660 -0.4819 -0.1183
 4356SOL    HW113646   6.094   6.703   9.219  2.9654 -1.0083  1.9036
 4356SOL    HW213647   6.026   6.820   9.286  2.6857  0.3907 -0.6638
 4357SOL     OW13648   8.596   1.820   2.785 -0.1526  0.0883  0.1759
 4357SOL    HW113649   8.650   1.742   2.795  0.4698  0.1353 -2.2199
 4357SOL    HW213650   8.625   1.859   2.702 -1.2557  2.2286  0.7183
 4358SOL     OW13651   0.901   8.345   2.202  0.1507 -0.2120 -0.6631
 4358SOL    HW113652   0.906   8.350   2.106  0.3183  0.5440 -0.6220
 4358SOL    HW213653   0.850   8.266   2.219 -1.2903  0.5327 -1.4073
 4359SOL     OW13654   0.596   2.997   9.846  0.5451 -0.1035  0.0238
 4359SOL    HW113655   0.617   2.979   9.754 -1.1004  0.9714 -0.6084
 4359SOL    HW213656   0.505   2.969   9.856  0.1636  1.3240  0.8567
 4360SOL     OW13657   1.102   9.945   9.915 -0.3815 -0.4842 -0.0755
 4360SOL    HW113658   1.110   9.941   9.820 -1.2898 -3.2057 -0.1230
 4360SOL    HW213659   1.008   9.940   9.932 -0.3816  1.7495  1.0044
 4361SOL     OW13660   0.404   0.518   9.934  0.8382 -0.0065 -0.1296
 4361SOL    HW113661   0.462   0.576   9.985 -0.0305 -0.0251  0.9328
 4361SOL    HW213662   0.346   0.578   9.887 -0.8657  0.1037  1.9013
 4362SOL     OW13663   1.350   1.239   5.683 -0.3887 -0.1997  0.0269
 4362SOL    HW113664   1.295   1.305   5.724 -1.9288  0.6513 -3.1436
 4362SOL    HW213665   1.398   1.286   5.615  1.7507 -1.5963  0.4693
 4363SOL     OW13666   6.652   5.414   4.777 -0.0649  0.5637  0.4459
 4363SOL    HW113667   6.677   5.391   4.688  3.8101  0.0733  1.4904
 4363SOL    HW213668   6.634   5.330   4.819  0.0510  0.6387  0.6421
 4364SOL     OW13669   1.502   1.361   7.873 -0.0577  0.0377 -0.0463
 4364SOL    HW113670   1.577   1.358   7.815  0.5254  1.8486  0.5336
 4364SOL    HW213671   1.449   1.434   7.841 -0.7270 -0.1688  0.5314
 4365SOL     OW13672   9.927   8.785   7.863  0.2941  0.0376 -0.4871
 4365SOL    HW113673  10.018   8.797   7.835 -0.1156  0.7041 -1.6023
 4365SOL    HW213674   9.875   8.814   7.788 -0.8578  0.9045  0.6125
 4366SOL     OW13675   9.055   3.524   7.425 -0.3433 -0.4638 -0.3296
 4366SOL    HW113676   9.078   3.596   7.367 -1.1735 -0.1975 -0.3391
 4366SOL    HW213677   8.987   3.559   7.482  0.0241 -0.9094  0.4065
 4367SOL     OW13678   0.676   5.124   4.641  0.0130  0.3223 -0.4851
 4367SOL    HW113679   0.634   5.207   4.663  0.5648  1.1538 -2.3448
 4367SOL    HW213680   0.635   5.098   4.558 -0.4174 -1.4765  0.2566
 4368SOL     OW13681   4.611   2.135   5.773  0.2261 -0.1588 -0.0713
 4368SOL    HW113682   4.641   2.056   5.818 -0.6218 -1.0291 -0.9561
 4368SOL    HW213683   4.663   2.139   5.693 -0.8690 -0.8145 -0.8596
 4369SOL     OW13684   4.653   8.508   6.843  0.0452  0.3339  0.5607
 4369SOL    HW113685   4.579   8.491   6.784 -1.4060  0.2280  2.3334
 4369SOL    HW213686   4.728   8.516   6.784 -1.3363  0.3559 -1.3143
 4370SOL     OW13687   1.499   7.552   8.419  0.4238 -0.6008 -0.1133
 4370SOL    HW113688   1.555   7.605   8.361 -0.7501  1.2683  0.3785
 4370SOL    HW213689   1.515   7.588   8.506 -2.1535  0.6385 -0.0603
 4371SOL     OW13690   0.946   3.782   0.408 -0.0714 -0.4298 -0.0213
 4371SOL    HW113691   0.872   3.827   0.368 -1.2015 -0.7075  1.6445
 4371SOL    HW213692   1.002   3.852   0.440 -0.5534 -0.2032  0.3382
 4372SOL     OW13693   8.821   3.204   4.758 -0.2063 -0.1166 -0.4089
 4372SOL    HW113694   8.807   3.123   4.808  0.4543  0.6679  1.1326
 4372SOL    HW213695   8.780   3.187   4.673 -0.3103 -1.9629 -0.0412
 4373SOL     OW13696   5.710   1.346   0.720 -0.0980 -0.1571  0.3509
 4373SOL    HW113697   5.632   1.297   0.694 -0.2980  0.4995 -0.3018
 4373SOL    HW213698   5.754   1.368   0.638  1.1367 -1.0762  0.7351
 4374SOL     OW13699   5.096   7.161   8.443 -0.0124  0.1161  0.0725
 4374SOL    HW113700   5.067   7.228   8.380 -0.5972 -2.4525 -2.6208
 4374SOL    HW213701   5.026   7.096   8.442  2.5317 -2.8999 -1.2778
 4375SOL     OW13702   1.880   6.925   8.839 -0.4680  0.1426 -0.1601
 4375SOL    HW113703   1.812   6.875   8.884  1.2208 -2.8704 -0.7120
 4375SOL    HW213704   1.928   6.969   8.909 -0.1497 -1.5031  0.7004
 4376SOL     OW13705   6.194   7.542   5.824 -0.5902 -0.1990 -0.3868
 4376SOL    HW113706   6.135   7.609   5.789 -1.7386 -2.0050 -2.1178
 4376SOL    HW213707   6.186   7.469   5.764 -1.1385 -2.7859  2.5519
 4377SOL     OW13708   6.990   2.266   9.104  0.2930  0.2918  0.4145
 4377SOL    HW113709   7.050   2.243   9.033 -1.1502  0.6021 -0.9617
 4377SOL    HW213710   7.044   2.316   9.165  1.6235 -0.1341 -0.3681
 4378SOL     OW13711   2.311   6.863   3.222  0.6106  0.1366  0.2643
 4378SOL    HW113712   2.328   6.862   3.128 -2.3146  1.4223 -0.4034
 4378SOL    HW213713   2.289   6.773   3.243 -1.5877  0.3054 -0.9988
 4379SOL     OW13714   1.263   2.545   8.796  0.3660 -0.5345 -0.5626
 4379SOL    HW113715   1.326   2.545   8.724  0.0843 -0.5658 -0.8155
 4379SOL    HW213716   1.206   2.470   8.777  0.1290 -0.3849 -0.4536
 4380SOL     OW13717   0.099   5.307   8.549 -0.1913  0.3613  0.0620
 4380SOL    HW113718   0.121   5.287   8.640  0.6473  1.7606  0.2019
 4380SOL    HW213719   0.132   5.396   8.536  0.2071 -0.0236 -1.7799
 4381SOL     OW13720   0.406   2.969   1.049 -0.4716  0.8403  0.6722
 4381SOL    HW113721   0.479   2.990   1.107  0.0543  1.3169 -0.1320
 4381SOL    HW213722   0.328   2.995   1.097 -0.1009  0.5059  1.4684
 4382SOL     OW13723   3.207   4.447   2.648  0.2311 -0.4554  0.1539
 4382SOL    HW113724   3.247   4.449   2.561 -1.4632 -1.7052 -0.7102
 4382SOL    HW213725   3.274   4.408   2.704  1.3293  0.3261 -0.5766
 4383SOL     OW13726   8.696   0.628   6.696 -0.1534  0.0847 -0.1395
 4383SOL    HW113727   8.633   0.693   6.729  0.8318  0.5077  0.9718
 4383SOL    HW213728   8.649   0.545   6.704 -1.7792  0.6819 -2.4427
 4384SOL     OW13729   3.417   1.460   1.435  0.3300  0.1168 -0.1555
 4384SOL    HW113730   3.394   1.405   1.360  0.4200  0.9197 -0.7889
 4384SOL    HW213731   3.491   1.416   1.476  0.4530 -0.1874 -0.6989
 4385SOL     OW13732   3.188   5.913   2.509 -0.1852 -0.4285  0.7655
 4385SOL    HW113733   3.145   5.898   2.424  0.3985 -4.9013  1.0044
 4385SOL    HW213734   3.120   5.894   2.573  0.3052 -0.6714  1.2187
 4386SOL     OW13735   7.182   8.993   4.762  0.2279 -0.1410  0.1647
 4386SOL    HW113736   7.258   8.948   4.725 -0.6595 -1.5408 -0.0536
 4386SOL    HW213737   7.214   9.031   4.844  1.5645  0.7733 -0.7569
 4387SOL     OW13738   7.712   4.596   8.907  0.5313  0.7632 -0.1632
 4387SOL    HW113739   7.744   4.508   8.890 -0.7143  0.3091 -0.2553
 4387SOL    HW213740   7.623   4.597   8.871  0.6790  2.1923 -0.5615
 4388SOL     OW13741   9.019   1.442   0.585 -0.0837  0.1414 -0.4652
 4388SOL    HW113742   9.012   1.416   0.677 -1.0248 -0.8893 -0.8023
 4388SOL    HW213743   9.083   1.513   0.585  0.6681 -0.4879  0.8534
 4389SOL     OW13744   8.808   9.384   3.115  0.1120  0.4489  0.3123
 4389SOL    HW113745   8.840   9.336   3.191 -2.3459  2.1464  2.5872
 4389SOL    HW213746   8.767   9.317   3.060 -0.0321 -0.5299  1.5733
 4390SOL     OW13747   5.320   2.412   8.792  0.4013  1.2194 -0.0286
 4390SOL    HW113748   5.360   2.330   8.818  0.2880  0.5315 -1.8493
 4390SOL    HW213749   5.392   2.475   8.789  0.3895  1.3599  1.9267
 4391SOL     OW13750   4.520   7.845   1.190  0.5726  0.0871 -0.5190
 4391SOL    HW113751   4.451   7.872   1.129  0.4718  0.7890 -0.1175
 4391SOL    HW213752   4.596   7.898   1.165  1.1066 -0.9798 -1.2225
 4392SOL     OW13753   1.655   0.888   7.707 -0.9074 -0.1624  0.5069
 4392SOL    HW113754   1.610   0.900   7.791  0.1581  1.2277  0.9290
 4392SOL    HW213755   1.723   0.823   7.725 -1.8138 -1.2146  0.2286
 4393SOL     OW13756   3.635   9.518   4.316  0.1157 -0.0509  0.0124
 4393SOL    HW113757   3.656   9.597   4.265 -0.6329 -0.1129 -0.3976
 4393SOL    HW213758   3.719   9.493   4.356  0.1343  1.6657  1.1696
 4394SOL     OW13759   2.105   4.940   2.871 -0.4377 -0.5711  0.2942
 4394SOL    HW113760   2.174   4.947   2.937  1.3974 -1.5328 -1.4529
 4394SOL    HW213761   2.051   5.018   2.886  1.1114  0.3252  1.6045
 4395SOL     OW13762   0.864   6.077   6.666  0.3514  0.6333  0.0611
 4395SOL    HW113763   0.952   6.106   6.690  0.5619 -1.4803  2.1854
 4395SOL    HW213764   0.876   6.033   6.582  1.1983  0.8455  0.0588
 4396SOL     OW13765   8.528   4.119   6.841  0.0639 -0.0054  0.4009
 4396SOL    HW113766   8.553   4.031   6.811 -2.9017 -1.1472  0.8712
 4396SOL    HW213767   8.467   4.150   6.773 -1.7982  0.0481  2.0137
 4397SOL     OW13768   1.530   4.606   8.362 -0.0229 -0.1421 -0.0405
 4397SOL    HW113769   1.445   4.562   8.359  0.8137 -1.8214 -0.3379
 4397SOL    HW213770   1.522   4.670   8.432 -1.1006 -1.2200  0.8519
 4398SOL     OW13771   9.417   7.449   2.647 -0.0009 -0.4417 -0.4656
 4398SOL    HW113772   9.473   7.456   2.724 -0.7611 -0.2409  0.0825
 4398SOL    HW213773   9.333   7.418   2.681 -0.0609 -1.2987 -1.3484
 4399SOL     OW13774   1.587   3.683   3.977  0.2153  0.0009 -0.0892
 4399SOL    HW113775   1.651   3.611   3.976  0.2137  0.0038 -0.7098
 4399SOL    HW213776   1.611   3.735   4.054  1.4887  0.4784 -0.7736
 4400SOL     OW13777   0.387   7.457   5.855  0.5550  0.2458  0.1707
 4400SOL    HW113778   0.373   7.391   5.923  1.0204 -0.3553 -0.3126
 4400SOL    HW213779   0.304   7.506   5.851  0.1545 -0.4069  0.4178
 4401SOL     OW13780   8.947   0.696   4.613 -0.3587  0.0423 -0.0138
 4401SOL    HW113781   8.874   0.699   4.674 -1.5814  1.5856 -1.4650
 4401SOL    HW213782   8.931   0.618   4.560 -0.0547 -0.5043  0.6728
 4402SOL     OW13783   9.188   5.599   0.865 -0.0423 -0.1391 -0.0767
 4402SOL    HW113784   9.126   5.592   0.937  0.6979 -0.3422  0.5521
 4402SOL    HW213785   9.242   5.520   0.872  1.2913  0.7755  0.3602
 4403SOL     OW13786   9.342   5.837   4.947  0.3550 -0.3387 -0.5032
 4403SOL    HW113787   9.370   5.891   5.022  0.7961  0.1732 -1.0259
 4403SOL    HW213788   9.412   5.772   4.937 -0.4963 -1.4625  0.5431
 4404SOL     OW13789   3.251   5.326   3.689  0.5300 -0.1986  0.3793
 4404SOL    HW113790   3.163   5.295   3.712  0.5163 -0.5428 -0.1258
 4404SOL    HW213791   3.255   5.318   3.594  1.3404 -0.7933  0.4545
 4405SOL     OW13792   1.387   0.931   7.111  0.1734  0.7884 -0.3300
 4405SOL    HW113793   1.360   0.949   7.201 -0.3524  0.6522 -0.4539
 4405SOL    HW213794   1.481   0.915   7.116 -0.1223 -0.9487  0.4733
 4406SOL     OW13795   1.471   3.448   9.108 -0.5313  0.6772 -0.2683
 4406SOL    HW113796   1.425   3.369   9.082  0.2704  0.3360 -0.7105
 4406SOL    HW213797   1.555   3.417   9.143 -1.0549  1.2091  1.5591
 4407SOL     OW13798   7.887   4.489   4.991  0.1124  0.0658  0.2305
 4407SOL    HW113799   7.941   4.421   4.952 -0.6387 -0.2231 -0.3253
 4407SOL    HW213800   7.797   4.461   4.974 -0.2072  1.0654  0.2233
 4408SOL     OW13801   8.598   1.021   6.162  0.0497  0.3345 -0.7494
 4408SOL    HW113802   8.643   1.074   6.228  0.4393 -0.1282 -0.6386
 4408SOL    HW213803   8.600   0.932   6.197 -1.5954  0.4092 -0.3957
 4409SOL     OW13804   0.898   8.236   6.901 -0.3396  0.6824  0.3410
 4409SOL    HW113805   0.832   8.244   6.833 -0.6546 -0.0248  0.5593
 4409SOL    HW213806   0.849   8.225   6.982  0.0259 -0.5072  0.4258
 4410SOL     OW13807   4.824   8.462   0.737 -0.1165  0.0975 -0.5649
 4410SOL    HW113808   4.776   8.398   0.685 -1.8338  1.0298 -0.2130
 4410SOL    HW213809   4.768   8.540   0.735  0.5332  0.6505  1.3733
 4411SOL     OW13810   2.094   3.901   0.463 -0.6062 -0.0022  0.3778
 4411SOL    HW113811   2.091   3.811   0.493  1.5092  0.1327  1.1719
 4411SOL    HW213812   2.119   3.895   0.370 -0.5228 -0.2284  0.4161
 4412SOL     OW13813   1.562   2.623   6.819 -0.7944  0.3815 -0.1342
 4412SOL    HW113814   1.566   2.707   6.774  2.7825  0.4239 -0.0319
 4412SOL    HW213815   1.572   2.557   6.750  0.5733  0.2751  0.1352
 4413SOL     OW13816   2.878   2.348   2.832  0.1797 -0.0765  0.1516
 4413SOL    HW113817   2.960   2.314   2.795 -0.4458 -1.3040 -0.1758
 4413SOL    HW213818   2.818   2.350   2.758 -0.6801 -1.2064  0.7765
 4414SOL     OW13819   8.258   5.998   2.752 -0.3794 -0.0292 -0.1757
 4414SOL    HW113820   8.179   6.046   2.729 -0.2985 -0.8117 -2.3514
 4414SOL    HW213821   8.249   5.913   2.708  1.0428 -0.6834  0.6764
 4415SOL     OW13822   5.200   0.279   1.081  0.3080 -0.1455 -0.2579
 4415SOL    HW113823   5.262   0.279   1.008 -0.3954  1.4579 -0.9169
 4415SOL    HW213824   5.134   0.214   1.056  0.8694 -0.6955 -0.3233
 4416SOL     OW13825   1.661   4.326   1.119 -0.0744 -0.1910  0.2232
 4416SOL    HW113826   1.604   4.303   1.192  0.1495 -0.6988  0.2334
 4416SOL    HW213827   1.603   4.325   1.043 -0.6524  1.7911  0.5731
 4417SOL     OW13828   0.651   1.360   8.726 -0.6052  0.1260 -0.1461
 4417SOL    HW113829   0.697   1.382   8.806 -0.6269  0.5109 -0.2391
 4417SOL    HW213830   0.715   1.374   8.656 -1.4760  2.8908 -0.5170
 4418SOL     OW13831   6.722   7.988   2.387 -0.0060 -0.2140 -0.0209
 4418SOL    HW113832   6.726   7.963   2.295  0.6274  2.8605 -0.9571
 4418SOL    HW213833   6.680   7.914   2.430  0.0793 -1.9560 -2.6821
 4419SOL     OW13834   0.978   5.006   6.413  0.0189 -0.0856  0.1085
 4419SOL    HW113835   1.008   4.969   6.496  1.1687 -0.9850 -0.6782
 4419SOL    HW213836   0.943   4.931   6.364 -0.3944  0.3867 -0.3378
 4420SOL     OW13837   7.004   4.305   1.574 -0.5222 -0.7060 -0.2084
 4420SOL    HW113838   6.993   4.234   1.510  0.7527 -0.9786 -0.1522
 4420SOL    HW213839   7.041   4.377   1.524  2.3733 -1.5621  0.5014
 4421SOL     OW13840   5.868   9.288   5.658 -0.3820 -0.0881  0.2477
 4421SOL    HW113841   5.912   9.265   5.740  2.8163  0.7989 -1.0456
 4421SOL    HW213842   5.850   9.381   5.666  1.0618  0.2829 -0.4450
 4422SOL     OW13843   9.674   7.213   8.698  0.0725 -0.4760 -0.6498
 4422SOL    HW113844   9.720   7.168   8.628  2.0980  1.7321 -0.8509
 4422SOL    HW213845   9.725   7.195   8.777 -1.6291 -2.1160  0.1693
 4423SOL     OW13846   3.648   0.006   9.022 -0.0323 -0.2754  0.5496
 4423SOL    HW113847   3.671   0.054   8.943  0.7386  1.2258  1.6512
 4423SOL    HW213848   3.729  -0.040   9.046  0.2457  0.6357  1.3936
 4424SOL     OW13849   1.095   1.198   7.719  0.2613 -0.3571 -0.0606
 4424SOL    HW113850   1.001   1.212   7.703 -0.1732 -1.6761  1.1488
 4424SOL    HW213851   1.109   1.226   7.809  1.2994  0.8811 -0.5760
 4425SOL     OW13852   9.642   1.274   9.664 -0.7398 -0.2110  0.3639
 4425SOL    HW113853   9.688   1.210   9.718  0.5626  0.4998  0.1472
 4425SOL    HW213854   9.649   1.240   9.575  0.5667  0.5314  0.1526
 4426SOL     OW13855   3.221   1.082   9.502  0.8563  0.3255  0.3334
 4426SOL    HW113856   3.212   1.098   9.596  5.3693  1.6670  0.8063
 4426SOL    HW213857   3.237   0.988   9.495 -2.3394 -0.3442  0.3924
 4427SOL     OW13858   0.596   9.332   1.855 -0.0442  0.3290  0.1811
 4427SOL    HW113859   0.580   9.397   1.923 -0.7398  1.8462 -1.3723
 4427SOL    HW213860   0.522   9.272   1.860 -1.6599  2.0839 -1.0196
 4428SOL     OW13861   1.039   6.969   3.107  0.0663 -0.4728 -0.9549
 4428SOL    HW113862   1.100   7.001   3.039  1.8462 -1.9967 -0.1641
 4428SOL    HW213863   1.090   6.972   3.188 -1.4240 -0.4505  0.0223
 4429SOL     OW13864   0.492   9.880   7.703 -0.2616 -0.0846  0.1013
 4429SOL    HW113865   0.511   9.837   7.786 -2.7351 -2.0283 -0.2049
 4429SOL    HW213866   0.435   9.953   7.726 -0.0752  0.0378  0.1820
 4430SOL     OW13867   2.248   5.949   8.011 -0.0217 -0.0309 -0.7696
 4430SOL    HW113868   2.188   6.005   7.962  0.2482 -0.4784 -1.6288
 4430SOL    HW213869   2.282   5.888   7.946 -1.5908 -2.3243  0.4494
 4431SOL     OW13870   2.520   2.889   2.754 -0.1962  0.4572 -0.0389
 4431SOL    HW113871   2.506   2.794   2.757  1.6251 -0.0633 -2.9153
 4431SOL    HW213872   2.584   2.906   2.823 -0.3406 -0.4523  0.3375
 4432SOL     OW13873   2.711   0.355   9.013 -0.5425  0.3867  0.2303
 4432SOL    HW113874   2.756   0.390   8.937 -1.2252  0.7505 -0.0116
 4432SOL    HW213875   2.631   0.408   9.021 -0.5487  0.2669  1.1112
 4433SOL     OW13876   2.806   5.817   5.437 -0.0348  0.0885  0.0628
 4433SOL    HW113877   2.740   5.838   5.503 -0.5292 -1.7691  0.2233
 4433SOL    HW213878   2.765   5.841   5.354  1.1652  3.8898  0.3839
 4434SOL     OW13879   7.251   5.308   1.193 -0.2135 -0.0141 -0.4689
 4434SOL    HW113880   7.307   5.232   1.175  0.0781 -0.0493  0.5268
 4434SOL    HW213881   7.174   5.294   1.139 -0.2093 -1.0746 -0.2283
 4435SOL     OW13882   8.818   0.969   5.012  0.2181  0.3911  0.2633
 4435SOL    HW113883   8.748   0.909   4.988  1.5822 -0.4814 -1.8250
 4435SOL    HW213884   8.839   0.947   5.103 -0.4924 -1.0832  0.0909
 4436SOL     OW13885   4.000   5.109   8.351  0.0859 -0.5429  0.3827
 4436SOL    HW113886   3.971   5.184   8.299 -1.6071 -1.8119 -0.6132
 4436SOL    HW213887   4.027   5.044   8.287 -1.0715 -1.7719  1.0910
 4437SOL     OW13888   2.709   6.255   3.053 -0.4663  0.2074  0.1353
 4437SOL    HW113889   2.626   6.290   3.084 -0.0819  2.3150 -0.9957
 4437SOL    HW213890   2.693   6.237   2.960 -0.0471 -0.7696  0.2395
 4438SOL     OW13891   4.501   7.116   9.185 -0.2598  0.3126 -0.4689
 4438SOL    HW113892   4.472   7.052   9.249 -3.9099  2.0003 -0.1384
 4438SOL    HW213893   4.534   7.190   9.237 -3.9389  2.0081 -0.1955
 4439SOL     OW13894   5.789   8.150   4.496 -0.1417 -0.5585 -0.0873
 4439SOL    HW113895   5.805   8.182   4.585 -1.1807  0.7981 -0.3627
 4439SOL    HW213896   5.828   8.062   4.495  1.5180  0.1094  1.1338
 4440SOL     OW13897   9.621   9.234   9.709  0.0778  0.4824 -0.0700
 4440SOL    HW113898   9.585   9.321   9.726  1.1522  1.1764 -1.1999
 4440SOL    HW213899   9.703   9.231   9.759  0.5147  0.4869 -0.7698
 4441SOL     OW13900   9.631   0.646   6.484  0.3028  0.2969  0.0176
 4441SOL    HW113901   9.556   0.586   6.492  1.3932 -1.4083 -1.8217
 4441SOL    HW213902   9.601   0.726   6.527 -2.3646 -0.5133 -0.1257
 4442SOL     OW13903   9.719   7.704   1.536  0.8251 -0.0204 -0.1960
 4442SOL    HW113904   9.777   7.739   1.468 -0.1377 -0.1405 -1.1058
 4442SOL    HW213905   9.723   7.609   1.524  0.8426 -0.0534  0.0765
 4443SOL     OW13906   5.964   7.319   2.657  0.3895 -0.0387  0.2254
 4443SOL    HW113907   5.900   7.312   2.727 -1.3290  0.9159 -1.1460
 4443SOL    HW213908   6.005   7.233   2.653  0.6291 -0.0813  2.4263
 4444SOL     OW13909   7.522   1.493   7.756 -0.2785 -0.0251 -0.4308
 4444SOL    HW113910   7.594   1.503   7.819 -1.2184  0.2570  0.6312
 4444SOL    HW213911   7.499   1.582   7.731 -0.9781 -0.0419  0.1007
 4445SOL     OW13912   3.699   1.984   5.925 -0.2268  0.1913  0.0767
 4445SOL    HW113913   3.759   1.933   5.979  0.0410  1.5284  1.1113
 4445SOL    HW213914   3.623   1.927   5.912  0.3839 -0.7389  0.5266
 4446SOL     OW13915   0.743   8.392   9.933  0.0041 -0.3281 -0.3373
 4446SOL    HW113916   0.715   8.317   9.986  1.7888 -1.8272 -1.3537
 4446SOL    HW213917   0.697   8.467   9.970 -2.5847 -2.0500  0.1544
 4447SOL     OW13918   6.427   4.985   8.086 -0.3380 -0.4065  0.4606
 4447SOL    HW113919   6.351   4.964   8.033 -0.6338  1.9110 -0.1356
 4447SOL    HW213920   6.392   5.032   8.162  0.3550 -0.9155  1.1180
 4448SOL     OW13921   6.202   2.110   3.019 -0.4373  0.3640 -0.4506
 4448SOL    HW113922   6.158   2.030   2.990  0.5761  0.0677 -1.2082
 4448SOL    HW213923   6.135   2.156   3.070 -1.9357  0.3380 -2.2683
 4449SOL     OW13924   1.891   9.382   6.133 -0.1481  0.3231 -0.7156
 4449SOL    HW113925   1.962   9.331   6.171 -0.1409  0.1914 -0.9022
 4449SOL    HW213926   1.930   9.427   6.058 -0.4918 -0.5398 -1.4295
 4450SOL     OW13927   3.589   3.252   4.806 -0.1964  0.1408  0.2903
 4450SOL    HW113928   3.630   3.325   4.760 -0.1062  0.1288  0.3510
 4450SOL    HW213929   3.597   3.274   4.899  0.5874 -0.3423  0.3491
 4451SOL     OW13930   0.865   0.113   6.340 -0.7821  0.2245 -0.2587
 4451SOL    HW113931   0.881   0.046   6.273 -0.2222  0.9762 -0.9019
 4451SOL    HW213932   0.916   0.085   6.415 -0.4289  0.0037 -0.5772
 4452SOL     OW13933   0.772   9.039   0.303 -0.2471 -0.2868  0.0382
 4452SOL    HW113934   0.684   9.004   0.306 -1.0328  1.2346 -2.3795
 4452SOL    HW213935   0.801   9.026   0.213  1.4417  0.5194  0.4052
 4453SOL     OW13936   0.524   9.802   0.646  0.1676 -0.3756 -0.3641
 4453SOL    HW113937   0.550   9.710   0.654  0.8292 -0.2834 -1.2896
 4453SOL    HW213938   0.558   9.843   0.725 -2.4785 -1.3958  1.4511
 4454SOL     OW13939   5.897   1.816   4.049  0.5619 -0.3844 -0.1061
 4454SOL    HW113940   5.954   1.764   4.106  1.0199  1.8729  1.6400
 4454SOL    HW213941   5.810   1.781   4.063  0.4407  0.9230  3.1614
 4455SOL     OW13942   4.295   2.548   3.863  0.0941  0.4531 -0.4102
 4455SOL    HW113943   4.286   2.612   3.933 -0.8558 -1.6970  1.5750
 4455SOL    HW213944   4.369   2.578   3.811  1.7336  1.4767  2.3092
 4456SOL     OW13945   8.376   4.435   0.623  0.2532 -0.6932  0.2148
 4456SOL    HW113946   8.304   4.497   0.612  0.3166 -0.8475 -1.3677
 4456SOL    HW213947   8.444   4.466   0.563  0.9467 -1.3570  0.6351
 4457SOL     OW13948   2.099   3.716   6.181  0.2700 -0.1950 -0.5628
 4457SOL    HW113949   2.166   3.676   6.236 -2.2793 -1.1603  2.0972
 4457SOL    HW213950   2.067   3.645   6.126 -0.1053 -0.3147 -0.1946
 4458SOL     OW13951   6.755   7.501   4.041  0.4425  0.2251  0.7106
 4458SOL    HW113952   6.793   7.458   4.118  0.0098  2.5025  2.3128
 4458SOL    HW213953   6.816   7.573   4.023 -0.5286  0.9358  0.2084
 4459SOL     OW13954   7.844   2.276   2.513 -0.2784 -0.2359  0.1498
 4459SOL    HW113955   7.884   2.326   2.583  0.9932  0.3399 -0.9379
 4459SOL    HW213956   7.759   2.249   2.548 -1.1707  2.9182  0.7055
 4460SOL     OW13957   3.027   5.251   6.534  0.3392 -0.2508  0.1571
 4460SOL    HW113958   2.997   5.236   6.624 -0.1211 -0.3650 -0.0098
 4460SOL    HW213959   3.122   5.254   6.540  0.3084 -0.2146  0.6558
 4461SOL     OW13960   1.422   9.093   1.013 -0.2632 -0.0408  0.7008
 4461SOL    HW113961   1.407   9.164   1.077  1.9653 -1.3591  2.8603
 4461SOL    HW213962   1.451   9.138   0.934  1.7077  1.5226  2.1913
 4462SOL     OW13963   2.521   6.619   0.630  0.2817  0.3096 -0.6518
 4462SOL    HW113964   2.535   6.711   0.611 -0.1785  0.3105 -0.9883
 4462SOL    HW213965   2.522   6.613   0.725 -0.4013  0.7709 -0.6166
 4463SOL     OW13966   3.731   1.651   0.155  0.1342 -0.0057  0.3964
 4463SOL    HW113967   3.758   1.740   0.177  3.3651 -0.9200  0.7239
 4463SOL    HW213968   3.710   1.610   0.239 -0.2398  0.1374  0.3715
 4464SOL     OW13969   1.663   7.996   7.934  0.7817  0.3349 -0.9067
 4464SOL    HW113970   1.677   7.904   7.952  1.2339  0.7044  0.7496
 4464SOL    HW213971   1.741   8.040   7.968 -1.1974  1.7281  2.3493
 4465SOL     OW13972   0.453   1.717   3.008  0.2565 -0.1187  0.1883
 4465SOL    HW113973   0.455   1.763   3.092 -1.7063  1.1786 -0.4114
 4465SOL    HW213974   0.487   1.781   2.945 -0.7485 -0.1365 -0.3833
 4466SOL     OW13975   7.198   6.077   1.339 -0.5643 -0.3856  0.3816
 4466SOL    HW113976   7.248   5.996   1.354  2.8550  1.4374 -0.1696
 4466SOL    HW213977   7.173   6.106   1.427  0.9311 -0.4830  0.8619
 4467SOL     OW13978   7.272   1.060   0.130 -0.1688 -0.2529  0.0298
 4467SOL    HW113979   7.235   1.104   0.206  0.9743  0.3733  0.2499
 4467SOL    HW213980   7.294   1.131   0.070 -2.0636 -0.7841 -1.4106
 4468SOL     OW13981   4.837   0.987   3.240 -0.1249  0.0552 -0.3022
 4468SOL    HW113982   4.801   0.908   3.280  0.2342  0.6218  1.2390
 4468SOL    HW213983   4.812   1.057   3.301 -0.6416  1.1722 -1.7477
 4469SOL     OW13984   7.814   3.867   0.804  0.1155 -0.8008  0.5516
 4469SOL    HW113985   7.793   3.925   0.732 -0.6029  1.1292  2.2168
 4469SOL    HW213986   7.905   3.841   0.789  0.0983 -0.1333 -0.8090
 4470SOL     OW13987   2.525   5.393   3.050 -0.2967  0.3706 -0.6894
 4470SOL    HW113988   2.509   5.377   2.957  1.8785  0.8453 -1.1899
 4470SOL    HW213989   2.475   5.473   3.069 -0.6789  0.3234 -1.4643
 4471SOL     OW13990   7.285   9.695   4.043 -0.5195  0.5534 -0.3340
 4471SOL    HW113991   7.276   9.600   4.029 -1.6449  0.7223 -0.8302
 4471SOL    HW213992   7.294   9.731   3.955  0.1912  0.9007 -0.1289
 4472SOL     OW13993   7.218   4.028   3.416 -0.4043  0.3555 -0.4486
 4472SOL    HW113994   7.286   3.962   3.398 -1.0633 -0.4136 -0.1796
 4472SOL    HW213995   7.267   4.104   3.446  0.3258 -0.3829  0.3194
 4473SOL     OW13996   5.112   5.572   6.021 -0.0941  0.1487  0.4121
 4473SOL    HW113997   5.027   5.583   5.980 -0.9446  0.2977  2.1389
 4473SOL    HW213998   5.104   5.490   6.072  1.3385 -0.7249 -0.6802
 4474SOL     OW13999   3.724   0.520   9.090 -0.5205 -0.0364 -0.0389
 4474SOL    HW114000   3.781   0.511   9.165 -0.3262  1.5185  0.0347
 4474SOL    HW214001   3.763   0.465   9.023 -0.4888 -1.1412  0.8667
 4475SOL     OW14002   5.797   1.416   0.184  0.7678  0.2884 -0.2073
 4475SOL    HW114003   5.749   1.457   0.113  0.4212  1.0767  0.4768
 4475SOL    HW214004   5.889   1.425   0.159  0.6258 -2.8236 -2.4224
 4476SOL     OW14005   8.436   3.605   9.950 -0.2963 -0.2331  0.0726
 4476SOL    HW114006   8.373   3.632   9.883 -0.1632 -1.2958 -0.5028
 4476SOL    HW214007   8.396   3.632  10.033 -0.6622  0.7066 -0.3921
 4477SOL     OW14008   5.431   2.959   8.172  0.3878 -0.4035 -0.2889
 4477SOL    HW114009   5.494   2.908   8.223 -0.0200 -0.0163  0.6292
 4477SOL    HW214010   5.374   2.892   8.132 -0.8605 -0.7245  1.8285
 4478SOL     OW14011   2.871   1.533   4.645 -0.2771  0.0704  0.0861
 4478SOL    HW114012   2.966   1.523   4.652 -0.1584  0.7404 -0.3905
 4478SOL    HW214013   2.856   1.626   4.664 -0.9395 -0.2189  1.0643
 4479SOL     OW14014   2.796   9.289   3.293 -0.0593 -0.2743 -0.6141
 4479SOL    HW114015   2.739   9.222   3.329 -0.6153  0.7181  0.4131
 4479SOL    HW214016   2.877   9.243   3.270 -1.1315 -1.6356 -1.8068
 4480SOL     OW14017   1.594   0.982   2.277  0.4507  0.4058 -1.0265
 4480SOL    HW114018   1.642   1.065   2.281  1.5389 -0.2769  1.2742
 4480SOL    HW214019   1.661   0.915   2.290 -0.7092 -0.7353 -0.8218
 4481SOL     OW14020   1.462   7.314   0.580  0.1850  0.0768 -0.2992
 4481SOL    HW114021   1.407   7.270   0.645  0.7816  0.8734  0.7770
 4481SOL    HW214022   1.485   7.397   0.621  2.5863 -0.4244 -0.5149
 4482SOL     OW14023   0.334   9.239   2.142 -0.4832  0.2425 -0.1627
 4482SOL    HW114024   0.286   9.272   2.217  2.7551  0.4058  2.0166
 4482SOL    HW214025   0.424   9.227   2.173  0.9748 -0.0850 -3.8919
 4483SOL     OW14026   8.494   0.063   4.721 -0.0484 -0.3224  0.1977
 4483SOL    HW114027   8.406   0.085   4.689 -0.1722  0.6318  1.1140
 4483SOL    HW214028   8.523  -0.009   4.665 -1.6923 -1.1331  0.3360
 4484SOL     OW14029   0.147   0.299   3.140 -0.4968  0.3036 -0.0003
 4484SOL    HW114030   0.182   0.223   3.186 -0.0447 -0.0864 -0.9662
 4484SOL    HW214031   0.053   0.295   3.155 -0.5380 -0.7298 -0.4422
 4485SOL     OW14032   7.618   1.448   0.197 -0.0878 -0.3727 -0.0838
 4485SOL    HW114033   7.610   1.534   0.238  2.0618 -0.2824  0.2752
 4485SOL    HW214034   7.582   1.387   0.261 -2.1922  0.2612 -0.5937
 4486SOL     OW14035   4.211   7.735   1.966  0.6508  0.2846  0.0002
 4486SOL    HW114036   4.244   7.784   1.891 -0.9035  0.0862 -0.8400
 4486SOL    HW214037   4.249   7.648   1.956  2.4274  0.9215  0.8254
 4487SOL     OW14038   3.165   9.109   1.403  0.8411  0.5352  0.1680
 4487SOL    HW114039   3.185   9.172   1.473  1.2165  0.0728  0.4895
 4487SOL    HW214040   3.235   9.122   1.339 -0.9299  2.8115 -1.4634
 4488SOL     OW14041   9.360   8.818   0.205  0.0325  0.0138  0.3309
 4488SOL    HW114042   9.416   8.850   0.276  0.5649 -0.8624  0.3256
 4488SOL    HW214043   9.419   8.766   0.150  0.0417  2.0169 -1.7053
 4489SOL     OW14044   5.880   6.657   9.773  0.7544 -0.8074  0.5655
 4489SOL    HW114045   5.869   6.691   9.684 -2.2617 -1.3786  0.6174
 4489SOL    HW214046   5.943   6.716   9.814  0.9677  0.4481 -1.4611
 4490SOL     OW14047   5.700   1.452   3.820  0.3428  0.1125  0.0901
 4490SOL    HW114048   5.654   1.399   3.755 -0.9136  0.1879  0.8712
 4490SOL    HW214049   5.792   1.450   3.793 -0.0382 -0.4821 -1.2345
 4491SOL     OW14050   8.176   9.304   1.518 -0.1032 -0.6613  0.3375
 4491SOL    HW114051   8.146   9.261   1.598  1.4188 -1.0444  0.7384
 4491SOL    HW214052   8.271   9.304   1.525  0.0933 -0.9497 -1.6008
 4492SOL     OW14053   5.994   9.295   4.158 -0.4268 -0.4901 -0.2172
 4492SOL    HW114054   6.006   9.304   4.252 -0.0822 -0.8410 -0.2255
 4492SOL    HW214055   5.899   9.292   4.146 -0.4984  0.4858  0.0216
 4493SOL     OW14056   7.143   3.410   8.313 -0.2421  0.2238 -0.2785
 4493SOL    HW114057   7.114   3.484   8.258 -0.5446 -0.5701 -1.2127
 4493SOL    HW214058   7.070   3.349   8.311 -0.2136  0.1351  0.9573
 4494SOL     OW14059   0.518   3.241   1.492  0.1179 -0.5012 -0.0066
 4494SOL    HW114060   0.574   3.319   1.492 -0.1727 -0.2809  0.5757
 4494SOL    HW214061   0.438   3.269   1.447 -0.0951 -0.3747  0.4432
 4495SOL     OW14062   4.285   4.911   1.627  0.2324 -0.2939  0.0917
 4495SOL    HW114063   4.228   4.968   1.678 -0.6616 -0.7803 -0.3585
 4495SOL    HW214064   4.373   4.946   1.642  0.2022 -1.2190  3.0977
 4496SOL     OW14065   6.683   0.800   2.903 -0.2511  0.2141  0.1258
 4496SOL    HW114066   6.747   0.745   2.949  1.3192  0.5850 -1.4722
 4496SOL    HW214067   6.638   0.739   2.845 -0.0141  0.2503 -0.0996
 4497SOL     OW14068   4.769   7.984   1.169 -0.0119 -0.8015  0.3512
 4497SOL    HW114069   4.838   7.962   1.232  0.3463 -0.9497 -0.0848
 4497SOL    HW214070   4.798   8.067   1.130  0.4539 -1.3886 -0.5829
 4498SOL     OW14071   3.501   2.732   2.820  0.0185  0.6480 -0.7762
 4498SOL    HW114072   3.443   2.730   2.896  1.1742  1.9729  0.1901
 4498SOL    HW214073   3.562   2.660   2.834  0.0188  0.6825 -0.5939
 4499SOL     OW14074   6.660   0.508   5.914  0.4729 -0.2879  1.0065
 4499SOL    HW114075   6.649   0.530   6.006 -4.5867  1.4364  0.2926
 4499SOL    HW214076   6.688   0.590   5.873  0.0018 -0.2796  0.6911
 4500SOL     OW14077   1.207   1.716   4.575 -0.1866 -0.0909  0.1615
 4500SOL    HW114078   1.289   1.672   4.597 -0.0323  0.6073  1.0634
 4500SOL    HW214079   1.234   1.799   4.535 -0.4663 -0.4003 -0.6923
 4501SOL     OW14080   1.280   9.578   2.756 -0.1201 -0.0442 -0.8587
 4501SOL    HW114081   1.278   9.634   2.678 -0.7043  1.1007 -0.0500
 4501SOL    HW214082   1.303   9.492   2.722  1.1594  0.7353 -2.1082
 4502SOL     OW14083   6.532   8.196   7.637  0.1399 -0.2188  0.9840
 4502SOL    HW114084   6.443   8.215   7.664 -0.1487  0.8337 -0.5799
 4502SOL    HW214085   6.526   8.179   7.543  1.2486 -2.5722  1.2681
 4503SOL     OW14086   4.889   0.870   3.745  0.1910  0.3048 -0.2528
 4503SOL    HW114087   4.925   0.924   3.675  0.6201 -1.2263 -1.2691
 4503SOL    HW214088   4.836   0.804   3.699  2.4679 -2.2701  0.6013
 4504SOL     OW14089   3.962   4.635   2.345  0.3966  0.2731 -0.2233
 4504SOL    HW114090   4.019   4.644   2.420  1.5872  0.1537 -1.0912
 4504SOL    HW214091   3.952   4.725   2.312  0.0664  0.2937 -0.0771
 4505SOL     OW14092   3.800   2.144   7.243 -0.2953 -0.3745  0.1847
 4505SOL    HW114093   3.833   2.130   7.331  0.4471 -1.9241 -0.3064
 4505SOL    HW214094   3.790   2.056   7.206 -1.0681  0.2138 -1.1117
 4506SOL     OW14095   0.811   8.350   1.303  0.1271 -0.4644  0.0023
 4506SOL    HW114096   0.773   8.339   1.216  0.2741 -0.6110 -0.0445
 4506SOL    HW214097   0.823   8.261   1.336 -0.6892 -0.3987  0.5115
 4507SOL     OW14098   1.463   2.708   3.710  0.8079 -0.1189  0.1407
 4507SOL    HW114099   1.529   2.647   3.677  3.0139  1.2661  1.7138
 4507SOL    HW214100   1.512   2.788   3.729 -1.5168  1.2858  0.5499
 4508SOL     OW14101   8.388   3.822   1.407  0.9655  0.4300  0.2385
 4508SOL    HW114102   8.361   3.790   1.492  3.2017  0.0192  0.8745
 4508SOL    HW214103   8.361   3.754   1.345  0.2358  0.2486  0.7518
 4509SOL     OW14104   5.770   1.860   9.895 -0.1233 -0.6773 -0.2427
 4509SOL    HW114105   5.806   1.948   9.880 -1.3358 -0.3089 -1.2234
 4509SOL    HW214106   5.695   1.855   9.835 -2.0569 -1.1840  2.0395
 4510SOL     OW14107   6.111   1.014   3.591 -0.3757 -0.7885 -0.0542
 4510SOL    HW114108   6.094   0.921   3.578  0.5702 -0.9059 -0.5032
 4510SOL    HW214109   6.151   1.020   3.677 -1.1781 -0.6922  0.3234
 4511SOL     OW14110   0.256   2.653   0.215 -0.2915  0.7549 -0.2848
 4511SOL    HW114111   0.162   2.667   0.214 -0.2944  0.7705  0.0119
 4511SOL    HW214112   0.292   2.733   0.254 -0.0928  1.0783 -1.1074
 4512SOL     OW14113   6.452   2.157   5.645 -1.0352 -0.0465 -0.2507
 4512SOL    HW114114   6.406   2.162   5.561 -0.1908  2.7849 -0.6458
 4512SOL    HW214115   6.495   2.242   5.654  1.2597 -1.2948  1.7307
 4513SOL     OW14116   3.325   3.449   1.796 -0.0805 -0.0485  0.2712
 4513SOL    HW114117   3.317   3.354   1.792 -1.7375  0.1198 -1.5281
 4513SOL    HW214118   3.410   3.467   1.757 -0.4882 -0.7092 -0.9670
 4514SOL     OW14119   7.957   3.367   9.697 -0.6255  0.3009 -0.0455
 4514SOL    HW114120   8.044   3.332   9.720  0.0605  0.7828 -1.7482
 4514SOL    HW214121   7.909   3.366   9.779  0.9324 -0.1625  0.9160
 4515SOL     OW14122   1.111   8.277   1.243  0.3445 -0.3773 -0.1356
 4515SOL    HW114123   1.041   8.322   1.196  0.3707 -1.2080 -0.9926
 4515SOL    HW214124   1.113   8.319   1.329 -0.8600  0.0034 -0.2780
 4516SOL     OW14125   6.180   3.097   4.290  0.2816 -0.4304  0.0718
 4516SOL    HW114126   6.224   3.125   4.210  0.6059  0.0043  0.3984
 4516SOL    HW214127   6.130   3.019   4.264 -0.2078  0.1329 -0.7194
 4517SOL     OW14128   7.747   7.745   0.048  0.1909 -0.4053  0.3519
 4517SOL    HW114129   7.729   7.651   0.046  0.0435 -0.3879  0.6567
 4517SOL    HW214130   7.745   7.767   0.141  0.0956 -0.0777  0.2728
 4518SOL     OW14131   5.988   6.851   0.641 -0.2108  0.1793 -0.3317
 4518SOL    HW114132   5.994   6.756   0.640 -0.4798  0.1621 -0.7596
 4518SOL    HW214133   5.907   6.870   0.593 -0.1595  0.6202 -0.2455
 4519SOL     OW14134   3.386   2.015   8.066  0.3177  0.0855 -0.0554
 4519SOL    HW114135   3.345   2.100   8.048 -2.8962 -1.6553 -1.8104
 4519SOL    HW214136   3.433   1.994   7.985  1.6027  0.3943  0.5889
 4520SOL     OW14137   7.316   9.130   5.494  0.3671 -0.2447 -0.4648
 4520SOL    HW114138   7.240   9.117   5.437  0.1207  1.9371 -0.7225
 4520SOL    HW214139   7.289   9.093   5.578 -1.7584  2.0470 -0.0286
 4521SOL     OW14140   7.590   6.874   3.255 -0.4084 -0.6291  0.3355
 4521SOL    HW114141   7.540   6.951   3.229  1.1517  0.0780 -0.7775
 4521SOL    HW214142   7.568   6.861   3.347  0.4120  2.1145  1.0192
 4522SOL     OW14143   9.126   4.568   0.328  0.1580  0.4578  0.1369
 4522SOL    HW114144   9.191   4.618   0.377 -1.5218 -0.2888  3.3937
 4522SOL    HW214145   9.067   4.633   0.291  0.4599  1.0067  0.6159
 4523SOL     OW14146   0.006   1.478   7.591  0.2666 -0.1367  0.2217
 4523SOL    HW114147   0.088   1.429   7.596  0.3484 -0.4103 -2.2737
 4523SOL    HW214148   0.034   1.570   7.584  0.3606 -0.1984 -0.2585
 4524SOL     OW14149   7.716   0.765   1.394  0.2242  0.6494  0.1013
 4524SOL    HW114150   7.756   0.716   1.322  0.5675  1.1692 -0.0667
 4524SOL    HW214151   7.622   0.755   1.381  0.2670  1.6369 -1.0482
 4525SOL     OW14152   5.768   7.961   1.587  0.4782  0.1538 -0.0521
 4525SOL    HW114153   5.800   8.049   1.608  0.7363  0.0177  0.1213
 4525SOL    HW214154   5.811   7.939   1.505  0.9906 -0.1145  0.2890
 4526SOL     OW14155   5.601   1.406   2.363  0.1564 -0.3473  0.1786
 4526SOL    HW114156   5.529   1.374   2.417  0.1627  0.3830  0.6263
 4526SOL    HW214157   5.559   1.466   2.300 -0.1198 -2.4268 -1.7708
 4527SOL     OW14158   1.126   7.267   2.512 -0.3829  0.5367  0.4440
 4527SOL    HW114159   1.041   7.311   2.507 -0.8583 -0.3203  0.6919
 4527SOL    HW214160   1.139   7.228   2.425  0.2856  1.5880  0.0566
 4528SOL     OW14161   1.362   8.760   9.098 -0.2487  0.0858 -0.2267
 4528SOL    HW114162   1.359   8.855   9.096 -3.3955  0.2512  3.0476
 4528SOL    HW214163   1.363   8.734   9.006 -0.3809  3.2771 -1.2276
 4529SOL     OW14164   5.822   5.857   0.714  0.3019  0.0746 -0.3185
 4529SOL    HW114165   5.777   5.899   0.787  0.4518  1.3433 -0.9178
 4529SOL    HW214166   5.900   5.912   0.699  0.9908 -0.9416 -0.5584
 4530SOL     OW14167   6.559   9.920   6.920  0.0080  0.6797  0.1631
 4530SOL    HW114168   6.560   9.825   6.933  1.3870  0.6516  0.0138
 4530SOL    HW214169   6.536   9.932   6.828  0.2254  0.4821  0.0840
 4531SOL     OW14170   3.135   8.568   1.458 -0.2092  0.1570  0.6003
 4531SOL    HW114171   3.169   8.656   1.477 -0.2228  0.3826 -0.3354
 4531SOL    HW214172   3.041   8.580   1.451 -0.0955  0.3623 -0.9014
 4532SOL     OW14173   0.287   0.440   1.046  0.0849 -0.0782  0.0823
 4532SOL    HW114174   0.327   0.420   0.961  0.9771  1.3888  0.1242
 4532SOL    HW214175   0.326   0.377   1.106  0.2418 -0.4478 -0.3961
 4533SOL     OW14176   3.461   4.032   7.270 -0.1254  0.2276  0.4055
 4533SOL    HW114177   3.462   4.115   7.316  0.2810  0.5079 -0.0963
 4533SOL    HW214178   3.418   4.051   7.187 -1.0555 -0.3242  0.7534
 4534SOL     OW14179   4.254   2.041   0.330  0.3046 -0.3851  0.2877
 4534SOL    HW114180   4.161   2.021   0.315 -0.0254  0.9406  0.4703
 4534SOL    HW214181   4.259   2.136   0.329  1.8421 -0.4461 -0.6510
 4535SOL     OW14182   0.829   7.727   9.650 -0.4786  0.0611  0.4142
 4535SOL    HW114183   0.884   7.687   9.718  0.4299  0.2201 -0.2157
 4535SOL    HW214184   0.847   7.821   9.657 -0.3758  0.0776 -0.0424
 4536SOL     OW14185   0.264   9.989   4.986 -0.5110 -0.7168  0.3654
 4536SOL    HW114186   0.331   9.923   5.005 -0.0282 -0.0570  1.0027
 4536SOL    HW214187   0.271  10.004   4.892 -0.6220 -1.5681  0.2166
 4537SOL     OW14188   1.426   7.436   8.023  0.0790 -0.2679  0.4179
 4537SOL    HW114189   1.435   7.392   7.939  0.3384  0.0545  0.2714
 4537SOL    HW214190   1.352   7.393   8.066 -0.3388 -0.1371 -0.1599
 4538SOL     OW14191   3.375   6.898   8.472  0.4437 -0.3674  0.2269
 4538SOL    HW114192   3.354   6.991   8.478  1.7896 -0.0650  0.4648
 4538SOL    HW214193   3.290   6.856   8.455 -0.1078  0.9428 -0.4337
 4539SOL     OW14194   9.729   6.662   9.719  0.3293 -0.1551 -0.0534
 4539SOL    HW114195   9.693   6.575   9.700 -0.2159  0.4007 -1.8370
 4539SOL    HW214196   9.726   6.669   9.814 -4.6633 -0.1084  0.0598
 4540SOL     OW14197   8.966   8.919   4.542 -0.3115 -0.1784 -0.0014
 4540SOL    HW114198   8.998   8.907   4.452 -1.4002  1.5333 -0.6622
 4540SOL    HW214199   8.880   8.959   4.531  0.6019  2.5493  1.8030
 4541SOL     OW14200   5.651   1.810   9.044 -0.0491 -0.2940 -0.2409
 4541SOL    HW114201   5.601   1.807   8.962  1.1385  1.1450 -1.0683
 4541SOL    HW214202   5.646   1.721   9.079 -1.7188 -0.5985 -1.1685
 4542SOL     OW14203   5.923   4.866   2.707  0.0506 -0.0646  0.0701
 4542SOL    HW114204   5.964   4.827   2.630  0.2315 -0.6631  0.4675
 4542SOL    HW214205   5.996   4.885   2.766 -0.2744 -1.7940  1.0855
 4543SOL     OW14206   5.324   0.032   9.633  0.4495 -0.1712 -0.7445
 4543SOL    HW114207   5.280  -0.052   9.616 -0.7813 -0.2565  2.3324
 4543SOL    HW214208   5.253   0.096   9.635  0.6929  0.0956  1.8582
 4544SOL     OW14209   1.332   9.471   8.623 -0.1496 -0.1093  0.5530
 4544SOL    HW114210   1.426   9.484   8.630  0.2100 -0.7483 -1.9925
 4544SOL    HW214211   1.322   9.405   8.554 -2.5235  1.9560 -1.2899
 4545SOL     OW14212   9.514   8.834   7.183 -0.4224  0.3945  0.3573
 4545SOL    HW114213   9.514   8.929   7.181 -1.4961  0.3984  0.1109
 4545SOL    HW214214   9.423   8.809   7.165 -0.3334 -0.6617  1.2733
 4546SOL     OW14215   9.787   1.750   0.190  0.5356  0.4640  0.0377
 4546SOL    HW114216   9.811   1.734   0.282  1.4733  1.6039  0.0052
 4546SOL    HW214217   9.857   1.709   0.139 -0.7800 -1.5625 -0.2645
 4547SOL     OW14218   3.971   3.456   6.239 -0.2137 -0.0995  0.1601
 4547SOL    HW114219   3.980   3.544   6.276 -0.3216 -0.3677  0.8378
 4547SOL    HW214220   3.908   3.465   6.169 -0.6466  0.2602  0.5933
 4548SOL     OW14221   3.598   6.719   4.736  0.1307 -0.3466 -0.5217
 4548SOL    HW114222   3.648   6.690   4.812 -1.2835 -1.3300  0.0797
 4548SOL    HW214223   3.550   6.642   4.707 -3.3265  1.0941  0.7872
 4549SOL     OW14224   4.395   1.415   9.205 -0.3480  0.0571 -0.3685
 4549SOL    HW114225   4.443   1.408   9.122 -0.1016 -2.2619 -0.1083
 4549SOL    HW214226   4.353   1.329   9.215 -0.1534  0.1711  2.0358
 4550SOL     OW14227   5.877   1.556   8.975  0.6517 -0.6927 -0.0162
 4550SOL    HW114228   5.826   1.600   8.907  0.0359  0.1062  0.9388
 4550SOL    HW214229   5.968   1.567   8.947  0.4684  0.5008 -0.2292
 4551SOL     OW14230   9.437   2.513   8.254  0.2475 -0.4664  0.0788
 4551SOL    HW114231   9.400   2.500   8.341 -0.4504  0.5858 -0.0485
 4551SOL    HW214232   9.510   2.574   8.268  0.8348 -1.1535  0.0740
 4552SOL     OW14233   1.591   9.533   3.465  0.2418  0.1992  0.2350
 4552SOL    HW114234   1.633   9.490   3.539  0.4376 -0.1907 -0.0965
 4552SOL    HW214235   1.498   9.527   3.482  0.2980  0.4642  0.6446
 4553SOL     OW14236   5.213   2.499   1.316 -0.2754 -0.0701  0.2530
 4553SOL    HW114237   5.301   2.528   1.341 -1.1021  3.8757 -0.6748
 4553SOL    HW214238   5.154   2.559   1.362 -2.4466 -1.6141 -0.3425
 4554SOL     OW14239   1.069   9.293   8.216  0.2415 -0.1039 -0.0058
 4554SOL    HW114240   1.137   9.276   8.281  1.7083  2.3738 -0.7316
 4554SOL    HW214241   0.987   9.281   8.264  1.1256 -2.8395  0.9940
 4555SOL     OW14242   0.705   2.225   0.968  0.3610  0.4538 -0.0748
 4555SOL    HW114243   0.758   2.271   1.034  1.3680  0.5470 -0.9292
 4555SOL    HW214244   0.749   2.241   0.886 -1.1162  0.6822 -0.8631
 4556SOL     OW14245   9.242   2.046   4.303 -0.3445 -0.2302 -0.0745
 4556SOL    HW114246   9.169   2.072   4.359  0.3922 -1.5210  1.6050
 4556SOL    HW214247   9.314   2.028   4.364  0.7578 -0.9542 -1.5070
 4557SOL     OW14248   2.842   2.652   6.197 -0.3765 -0.1881  0.5049
 4557SOL    HW114249   2.834   2.663   6.292  1.0444 -0.6046  0.7092
 4557SOL    HW214250   2.854   2.558   6.186  3.4822  0.1563  0.3603
 4558SOL     OW14251   9.909   3.208   3.135 -0.3863 -0.0585 -0.4895
 4558SOL    HW114252   9.815   3.218   3.153 -0.6586 -1.6384 -0.9004
 4558SOL    HW214253   9.923   3.113   3.133  0.5864  0.0346 -3.5036
 4559SOL     OW14254   7.654   7.528   2.375 -0.1686 -0.2792  0.1564
 4559SOL    HW114255   7.690   7.528   2.286 -1.3391  0.3913 -0.3471
 4559SOL    HW214256   7.594   7.603   2.376  1.4306  1.0942  2.2016
 4560SOL     OW14257   7.513   7.783   9.551 -0.7631  0.4186 -0.9246
 4560SOL    HW114258   7.525   7.878   9.552  0.1118  0.3254 -1.3123
 4560SOL    HW214259   7.599   7.748   9.526 -0.9804 -0.4942 -0.4391
 4561SOL     OW14260   2.228   4.220   4.622  0.1492 -0.0002 -0.5100
 4561SOL    HW114261   2.262   4.131   4.607  2.8732  0.4864  1.9740
 4561SOL    HW214262   2.291   4.277   4.578 -0.4187  0.7867 -0.3222
 4562SOL     OW14263   4.526   1.021   4.862  0.4943  0.1785 -0.2713
 4562SOL    HW114264   4.522   0.949   4.798 -0.2451 -0.1436  0.1264
 4562SOL    HW214265   4.471   1.090   4.824 -0.1156 -0.0922  0.1022
 4563SOL     OW14266   5.825   0.540   8.721 -0.3050 -0.2811  0.0456
 4563SOL    HW114267   5.877   0.506   8.794 -0.8520  0.3326  0.7368
 4563SOL    HW214268   5.764   0.601   8.762 -0.6316  0.0605 -0.9305
 4564SOL     OW14269   5.970   1.106   8.449 -0.5735 -0.8239  1.0038
 4564SOL    HW114270   6.047   1.158   8.425 -0.1465 -1.5483  0.7734
 4564SOL    HW214271   6.003   1.040   8.510 -1.2186 -0.4744  1.7584
 4565SOL     OW14272   2.220   3.871   1.636  0.4227  0.0638  0.6039
 4565SOL    HW114273   2.233   3.876   1.542  0.3927 -1.9336  0.4424
 4565SOL    HW214274   2.236   3.779   1.657 -1.4188  0.0574  2.2678
 4566SOL     OW14275   7.862   4.567   5.632 -0.3227 -0.4157  0.8795
 4566SOL    HW114276   7.828   4.631   5.568  0.6141  1.3814  2.0835
 4566SOL    HW214277   7.840   4.482   5.595 -1.5102  0.5936 -0.8883
 4567SOL     OW14278   8.503   3.227   0.714 -0.0828 -0.4368 -0.7369
 4567SOL    HW114279   8.482   3.210   0.622  1.7614 -1.4341 -1.0281
 4567SOL    HW214280   8.574   3.166   0.734 -0.1466  0.0615  1.2369
 4568SOL     OW14281   8.304   5.823   7.403 -0.3056 -0.1761  0.2565
 4568SOL    HW114282   8.284   5.734   7.432 -1.7040 -0.0143 -0.1187
 4568SOL    HW214283   8.263   5.829   7.316 -0.6981  0.9862  0.5018
 4569SOL     OW14284   9.838   9.241   4.750 -0.0361 -0.1623 -0.2061
 4569SOL    HW114285   9.929   9.211   4.759 -0.6368 -1.5170  2.6838
 4569SOL    HW214286   9.831   9.313   4.813 -0.2736  2.0338 -2.5922
 4570SOL     OW14287   5.974   8.627   1.145  0.0445  0.5652  0.1384
 4570SOL    HW114288   5.919   8.615   1.223  0.7521  0.2230  0.5958
 4570SOL    HW214289   5.947   8.556   1.086  0.2889  0.1233  0.5441
 4571SOL     OW14290   5.126   6.685   7.233  0.3047 -1.2727  0.4747
 4571SOL    HW114291   5.066   6.637   7.176 -0.7815 -0.6470  1.0661
 4571SOL    HW214292   5.085   6.770   7.246  2.5924  0.1677 -1.1865
 4572SOL     OW14293   2.401   5.573   5.781  0.1275  0.4573  0.1081
 4572SOL    HW114294   2.459   5.634   5.824  2.3909 -1.1951 -0.4107
 4572SOL    HW214295   2.397   5.497   5.839 -1.5203  0.4993  0.1091
 4573SOL     OW14296   6.860   3.920   0.326 -0.4136  0.1505 -0.2889
 4573SOL    HW114297   6.802   3.850   0.354  1.6212 -1.3817  0.3824
 4573SOL    HW214298   6.815   3.963   0.254 -2.1920 -1.1582 -0.0022
 4574SOL     OW14299   3.192   6.286   2.816 -0.2635  0.5163  0.3170
 4574SOL    HW114300   3.187   6.221   2.885  2.7502 -2.2452 -1.7511
 4574SOL    HW214301   3.103   6.293   2.781 -0.8441 -1.8509  1.1895
 4575SOL     OW14302   1.679   4.442   9.760 -0.2425 -0.1857 -0.2307
 4575SOL    HW114303   1.587   4.432   9.736  0.0232 -0.7600 -1.0932
 4575SOL    HW214304   1.715   4.500   9.693  0.3466 -1.1847 -0.8184
 4576SOL     OW14305   8.591   5.863   0.930 -0.2762  0.5046  0.2672
 4576SOL    HW114306   8.662   5.844   0.990  0.8225  1.9945 -0.4937
 4576SOL    HW214307   8.565   5.777   0.895  0.1537 -0.2023  1.6073
 4577SOL     OW14308   1.445   2.382   8.613  0.2133 -0.2294 -0.0768
 4577SOL    HW114309   1.421   2.354   8.525 -0.2326  0.4829 -0.1896
 4577SOL    HW214310   1.438   2.303   8.666  0.2306 -0.6072 -0.6269
 4578SOL     OW14311   4.763   9.443   8.876 -0.1169 -0.2180  0.4211
 4578SOL    HW114312   4.793   9.357   8.907 -1.2894 -0.5539  0.6692
 4578SOL    HW214313   4.683   9.460   8.925 -0.3468  0.6436 -0.2251
 4579SOL     OW14314   3.536   6.812   0.108 -0.0046 -0.0512  0.4928
 4579SOL    HW114315   3.520   6.899   0.071 -1.4218  0.7262  2.7050
 4579SOL    HW214316   3.630   6.811   0.126  0.8520 -0.6266 -3.2209
 4580SOL     OW14317   4.028   3.629   2.614  0.6765  0.2473  0.1049
 4580SOL    HW114318   3.957   3.565   2.613 -0.4859  1.4246 -2.2126
 4580SOL    HW214319   4.106   3.579   2.636 -0.2260 -1.8985 -1.2796
 4581SOL     OW14320   7.020   6.969   3.900 -0.1725  0.1681  0.4093
 4581SOL    HW114321   6.930   6.937   3.902 -0.3674  0.7249  1.7395
 4581SOL    HW214322   7.013   7.059   3.866 -0.2702  0.6111  1.5722
 4582SOL     OW14323   8.286   8.895   3.460  0.5104 -0.0448 -0.6014
 4582SOL    HW114324   8.244   8.979   3.440  1.9385  1.1333  0.9795
 4582SOL    HW214325   8.371   8.899   3.416  0.2782 -1.0169 -1.1652
 4583SOL     OW14326   8.699   3.108   3.591  0.1476 -0.2249 -0.2764
 4583SOL    HW114327   8.656   3.178   3.639 -0.5706  0.3376 -1.6637
 4583SOL    HW214328   8.628   3.058   3.550  0.7004 -0.9997 -0.3275
 4584SOL     OW14329   6.836   0.300   4.227 -0.5604  0.1295  0.5882
 4584SOL    HW114330   6.888   0.375   4.198 -0.0417 -0.3382  0.3031
 4584SOL    HW214331   6.873   0.225   4.180 -1.3780 -0.2363  0.5099
 4585SOL     OW14332   6.716   8.450   7.796 -0.8381  0.1385  0.4133
 4585SOL    HW114333   6.711   8.355   7.788 -1.4239  0.1793  0.2178
 4585SOL    HW214334   6.778   8.477   7.728 -1.7683  0.0157 -0.5032
 4586SOL     OW14335   7.090   6.261   2.138  0.4216 -0.1440  0.1845
 4586SOL    HW114336   7.091   6.266   2.042  2.7370  1.4132  0.2241
 4586SOL    HW214337   7.013   6.311   2.164  0.2400  0.1300 -0.8297
 4587SOL     OW14338   7.549   7.834   8.706 -0.7509 -0.0865 -0.1744
 4587SOL    HW114339   7.619   7.813   8.645 -0.9034 -0.0799 -0.3520
 4587SOL    HW214340   7.576   7.794   8.789 -0.5956 -0.1838 -0.2727
 4588SOL     OW14341   4.868   1.024   5.547  0.1584  0.3057  0.5704
 4588SOL    HW114342   4.781   1.060   5.562 -0.6627 -1.7306  1.0834
 4588SOL    HW214343   4.858   0.968   5.470  0.8663 -0.3538  0.9387
 4589SOL     OW14344   7.372   8.234   5.299  0.3795  0.3162  0.2844
 4589SOL    HW114345   7.425   8.154   5.301 -0.9254 -0.5808  1.8929
 4589SOL    HW214346   7.365   8.256   5.206 -0.7895 -2.5640 -0.4184
 4590SOL     OW14347   0.332   8.183   0.817  0.1026 -0.1463  0.1213
 4590SOL    HW114348   0.269   8.251   0.793 -0.8987 -1.2423 -0.4674
 4590SOL    HW214349   0.413   8.209   0.773 -1.4144 -1.6401 -4.0882
 4591SOL     OW14350   5.369   8.022   2.273 -0.4913 -0.4606  0.0478
 4591SOL    HW114351   5.292   8.079   2.275  1.7385  2.8449  0.3488
 4591SOL    HW214352   5.405   8.033   2.185  0.4068 -0.8155  0.3592
 4592SOL     OW14353   0.675   7.030   8.249  0.2340 -0.5402 -0.0092
 4592SOL    HW114354   0.651   7.121   8.230 -1.4607 -0.7280  1.0130
 4592SOL    HW214355   0.744   7.036   8.315 -1.9724  0.0608  2.3893
 4593SOL     OW14356   9.048   0.362   9.008  0.7289 -0.3263  0.0123
 4593SOL    HW114357   9.069   0.268   9.005  0.0880 -0.4504 -0.7224
 4593SOL    HW214358   8.971   0.371   8.952  0.9376  0.6834 -0.1196
 4594SOL     OW14359   6.998   0.185   2.543 -0.1092  0.1102 -0.4457
 4594SOL    HW114360   6.911   0.174   2.582 -0.9263 -0.0747 -2.2513
 4594SOL    HW214361   7.055   0.201   2.618 -1.7913  0.8724  0.7431
 4595SOL     OW14362   5.693   6.747   7.124  0.5985  0.1050  0.2256
 4595SOL    HW114363   5.605   6.757   7.158  0.5849  0.3249  0.1323
 4595SOL    HW214364   5.745   6.717   7.198  0.2264 -1.1390  0.0034
 4596SOL     OW14365   3.967   2.407   6.651  0.2034 -0.4996  0.1350
 4596SOL    HW114366   4.005   2.449   6.574  0.0872 -2.1655 -0.8944
 4596SOL    HW214367   4.022   2.329   6.665 -0.9312 -1.2586  0.5254
 4597SOL     OW14368   0.116   6.816   0.056  0.2608  0.3086  0.5112
 4597SOL    HW114369   0.138   6.726   0.078 -2.3843 -0.4997  0.1879
 4597SOL    HW214370   0.060   6.846   0.127 -0.0060  1.2327 -0.0624
 4598SOL     OW14371   4.003   6.504   0.737  0.1583  0.8028 -0.1029
 4598SOL    HW114372   3.956   6.452   0.802 -1.1629  0.1448 -1.5247
 4598SOL    HW214373   4.067   6.442   0.700 -0.1192  0.7387 -0.4758
 4599SOL     OW14374   1.651   4.700   2.255 -0.5523  0.2590  0.1081
 4599SOL    HW114375   1.746   4.698   2.245 -0.5532 -3.6634 -0.8416
 4599SOL    HW214376   1.637   4.695   2.349  0.2938 -1.2400  0.1940
 4600SOL     OW14377   9.421   7.990   9.028  0.0356 -0.1516 -0.1904
 4600SOL    HW114378   9.371   8.045   9.089  0.4662 -1.1112  1.0829
 4600SOL    HW214379   9.503   8.038   9.014  0.1912 -0.2101  0.4872
 4601SOL     OW14380   0.845   4.711   5.702  0.2090  0.3358  0.2752
 4601SOL    HW114381   0.754   4.715   5.729  0.5625  0.0647  1.5422
 4601SOL    HW214382   0.861   4.619   5.682  0.7026  0.0508  1.8859
 4602SOL     OW14383   6.382   5.810   3.439  0.3604  0.0700 -0.1076
 4602SOL    HW114384   6.443   5.844   3.374  0.8505 -1.5706 -0.5432
 4602SOL    HW214385   6.337   5.738   3.396 -0.0087 -0.4247  1.0492
 4603SOL     OW14386   1.397   4.978   9.048  0.2552  0.1253 -0.2183
 4603SOL    HW114387   1.407   4.886   9.074 -1.2887  0.5364  2.1519
 4603SOL    HW214388   1.310   4.983   9.009  0.3463  0.5789 -0.3699
 4604SOL     OW14389   9.399   1.859   8.278  0.4157  0.0297 -0.4538
 4604SOL    HW114390   9.411   1.789   8.342  1.3704  0.8788  0.3187
 4604SOL    HW214391   9.314   1.896   8.299  1.2237  1.0805  1.1373
 4605SOL     OW14392   7.818   6.092   5.972  0.3130 -0.1297 -0.6979
 4605SOL    HW114393   7.788   6.183   5.970 -0.2875 -0.3090 -0.2178
 4605SOL    HW214394   7.774   6.050   5.898  0.7120  0.0035 -1.0138
 4606SOL     OW14395   2.567   4.895   5.471 -0.0891  0.7887  0.0519
 4606SOL    HW114396   2.474   4.898   5.449  0.2539  0.2463 -1.6136
 4606SOL    HW214397   2.570   4.917   5.564 -2.0092 -0.6457  0.5250
 4607SOL     OW14398   9.621   2.496   3.116  0.2989  0.0281  0.0373
 4607SOL    HW114399   9.607   2.452   3.033  1.0774 -0.1941  0.0166
 4607SOL    HW214400   9.644   2.586   3.091  0.4991 -0.0295  0.0184
 4608SOL     OW14401   6.892   3.483   1.783 -0.3237  0.1995 -0.1446
 4608SOL    HW114402   6.974   3.458   1.740  1.0261 -1.0354  2.8371
 4608SOL    HW214403   6.824   3.439   1.731  0.9934  0.0397 -1.8495
 4609SOL     OW14404   7.551   9.564   7.517  0.0692 -0.2306  0.3559
 4609SOL    HW114405   7.630   9.511   7.531 -0.0835 -0.1737  1.5199
 4609SOL    HW214406   7.556   9.632   7.584 -1.4557 -0.8066  1.0968
 4610SOL     OW14407   6.877   7.462   7.929 -0.1612  0.0374  0.0736
 4610SOL    HW114408   6.922   7.449   7.846  0.1487 -2.1037  0.5283
 4610SOL    HW214409   6.947   7.466   7.994 -0.2435  3.6040  0.1659
 4611SOL     OW14410   4.166   9.138   3.062  0.0776  0.5275 -0.0363
 4611SOL    HW114411   4.214   9.185   2.995  1.3164 -0.6775 -0.0419
 4611SOL    HW214412   4.230   9.123   3.132 -0.5546 -0.2110  0.4071
 4612SOL     OW14413   8.032   9.143   1.719  0.1215  0.2342  0.0695
 4612SOL    HW114414   8.029   9.048   1.705  2.2957  0.0540  0.4470
 4612SOL    HW214415   7.952   9.176   1.677 -0.8154 -1.7697  0.1595
 4613SOL     OW14416   0.017   6.343   8.987 -0.3512 -0.2278 -0.1988
 4613SOL    HW114417   0.062   6.421   8.956 -1.5391 -0.2111 -1.9928
 4613SOL    HW214418  -0.076   6.367   8.988 -0.6670 -1.3889 -0.0603
 4614SOL     OW14419   6.838   6.859   0.334 -0.0094  0.2764 -0.2912
 4614SOL    HW114420   6.780   6.792   0.371  0.1932  0.0894 -0.3112
 4614SOL    HW214421   6.782   6.936   0.324 -0.4914 -0.1869 -1.2054
 4615SOL     OW14422   6.409   4.563   5.724 -0.4070 -0.0680 -0.1464
 4615SOL    HW114423   6.326   4.516   5.715 -0.9955  0.8387  0.3174
 4615SOL    HW214424   6.384   4.655   5.720  0.6174  0.2188 -0.2221
 4616SOL     OW14425   5.902   0.369   9.738  0.5478  0.2109 -0.0808
 4616SOL    HW114426   5.911   0.276   9.716 -0.0125  0.3719 -1.0789
 4616SOL    HW214427   5.983   0.391   9.784  1.2236 -0.4825 -0.9010
 4617SOL     OW14428   2.401   2.119   7.984 -0.3681 -0.1355 -0.2351
 4617SOL    HW114429   2.310   2.129   8.013  0.0641  0.2154  1.0853
 4617SOL    HW214430   2.399   2.044   7.924 -1.3845 -0.6613  0.4202
 4618SOL     OW14431   4.043   4.023   5.376 -0.1071 -0.0861  0.0858
 4618SOL    HW114432   4.111   4.052   5.316 -0.6671 -0.2081 -0.6129
 4618SOL    HW214433   4.032   3.930   5.358  0.3539 -0.3298  1.0094
 4619SOL     OW14434   4.789   7.064   3.150 -0.2289 -0.1805  0.2296
 4619SOL    HW114435   4.711   7.063   3.205  0.6070  0.7932  1.4853
 4619SOL    HW214436   4.853   7.010   3.198  0.2567  0.0145 -0.1856
 4620SOL     OW14437   4.309   0.987   7.850  0.7167 -0.1378  0.4045
 4620SOL    HW114438   4.371   1.054   7.879 -0.1537  0.1687  1.6351
 4620SOL    HW214439   4.351   0.945   7.775  2.4822 -0.0486  1.3038
 4621SOL     OW14440   1.795   5.020   8.635  0.7701  0.0042  0.0886
 4621SOL    HW114441   1.700   5.011   8.643  0.2466  1.9834 -2.5420
 4621SOL    HW214442   1.828   5.010   8.724 -1.8503 -0.9588  1.0384
 4622SOL     OW14443   5.156   1.570   7.283  0.1343 -0.4527 -0.3430
 4622SOL    HW114444   5.079   1.562   7.340  0.7126 -3.1218  0.1991
 4622SOL    HW214445   5.122   1.609   7.202 -1.0490  1.7327  1.1179
 4623SOL     OW14446   3.840   8.348   2.798 -0.2907 -0.0019  0.3678
 4623SOL    HW114447   3.780   8.392   2.858 -0.5502 -1.3657  1.1640
 4623SOL    HW214448   3.905   8.308   2.855  0.1964 -0.2535 -0.3557
 4624SOL     OW14449   4.155   8.482   4.693 -0.0262  0.1676  0.1777
 4624SOL    HW114450   4.171   8.571   4.661 -0.8051  0.9483  1.8133
 4624SOL    HW214451   4.109   8.438   4.621  0.4696  1.0573 -0.6897
 4625SOL     OW14452   3.749   4.480   5.644 -0.3083  0.3972 -0.3866
 4625SOL    HW114453   3.753   4.572   5.669  0.2882  0.0663  0.8060
 4625SOL    HW214454   3.655   4.460   5.641 -0.4545  0.4675  1.7300
 4626SOL     OW14455   1.615   6.744   3.318  0.0190  0.4376 -0.6669
 4626SOL    HW114456   1.620   6.823   3.265 -2.1544  0.8661 -0.3465
 4626SOL    HW214457   1.561   6.684   3.266 -1.0893  0.4032  0.4758
 4627SOL     OW14458   3.221   9.397   7.733  0.0288 -0.8372  0.8450
 4627SOL    HW114459   3.277   9.388   7.810 -0.0321  1.5007  1.2360
 4627SOL    HW214460   3.256   9.472   7.686  0.0335 -2.1863 -1.4573
 4628SOL     OW14461   7.410   2.284   9.574 -0.3716  0.1500 -0.5707
 4628SOL    HW114462   7.411   2.366   9.624 -3.0566 -0.4293  0.6459
 4628SOL    HW214463   7.317   2.260   9.570  0.1578 -1.9207 -2.4639
 4629SOL     OW14464   1.412   0.737   7.602 -0.9530  0.5607 -0.5853
 4629SOL    HW114465   1.462   0.738   7.683 -1.0265  0.8632 -0.5441
 4629SOL    HW214466   1.478   0.727   7.533 -1.0028 -1.3527 -0.4057
 4630SOL     OW14467   5.454   3.184   5.065 -0.0358 -0.1066  0.3422
 4630SOL    HW114468   5.516   3.248   5.031  0.3162  0.1332  1.4112
 4630SOL    HW214469   5.508   3.109   5.089 -0.2759 -0.2694  0.3775
 4631SOL     OW14470   7.802   3.291   4.602  0.1293 -0.2333  0.2072
 4631SOL    HW114471   7.876   3.241   4.637  1.9190  2.3088  0.3032
 4631SOL    HW214472   7.738   3.293   4.673  0.5269 -1.3254  0.6125
 4632SOL     OW14473   8.636   4.796   8.427 -0.2360 -0.2204 -0.3378
 4632SOL    HW114474   8.547   4.761   8.428 -0.1775 -0.3557  0.1760
 4632SOL    HW214475   8.641   4.846   8.345 -1.0761  0.5328  0.0541
 4633SOL     OW14476   4.650   9.663   3.241 -0.0455  0.1352 -0.1920
 4633SOL    HW114477   4.582   9.652   3.306 -0.3723  1.4533 -0.2878
 4633SOL    HW214478   4.627   9.601   3.171  0.3545 -1.3391  0.9385
 4634SOL     OW14479   3.524   0.074   8.463 -0.0634  0.5720  0.6720
 4634SOL    HW114480   3.581   0.016   8.413 -0.9026  1.1459 -1.0290
 4634SOL    HW214481   3.443   0.025   8.474  0.2820  0.2581  1.9485
 4635SOL     OW14482   5.070   6.103   5.791  0.7015 -0.6760 -0.0817
 4635SOL    HW114483   5.016   6.171   5.832  0.6950 -0.6550 -0.1248
 4635SOL    HW214484   5.048   6.108   5.698  1.5060  0.0025 -0.2480
 4636SOL     OW14485   4.158   8.567   7.911 -0.0375  0.1376  0.4916
 4636SOL    HW114486   4.189   8.522   7.833 -1.4487  0.8760 -0.5512
 4636SOL    HW214487   4.095   8.507   7.951 -0.5713  0.4235  0.1013
 4637SOL     OW14488   9.638   5.782   9.814  0.1102 -0.0132  0.4835
 4637SOL    HW114489   9.650   5.853   9.877  0.9708  0.3257 -0.0350
 4637SOL    HW214490   9.726   5.764   9.781  0.0978 -2.1330  1.4487
 4638SOL     OW14491   8.162   6.696   8.205 -0.5892 -0.5000  0.0093
 4638SOL    HW114492   8.157   6.674   8.111 -0.4032 -0.9974  0.1116
 4638SOL    HW214493   8.243   6.745   8.213 -0.5316 -0.5811 -0.0674
 4639SOL     OW14494   6.964   2.363   6.197 -0.5374  0.1257  0.0764
 4639SOL    HW114495   7.015   2.422   6.253 -2.0728 -0.0444  1.7510
 4639SOL    HW214496   7.024   2.338   6.127  0.8081  2.0214  0.4784
 4640SOL     OW14497   7.817   5.797   7.962 -0.4006 -0.1428 -0.0125
 4640SOL    HW114498   7.755   5.740   7.916  0.3374 -0.7812 -0.2254
 4640SOL    HW214499   7.903   5.758   7.946  0.3767  2.0387 -1.7365
 4641SOL     OW14500   4.738   4.720   0.780  0.6628 -0.3958  0.5986
 4641SOL    HW114501   4.686   4.706   0.859  0.3839  0.7951  0.6473
 4641SOL    HW214502   4.827   4.732   0.812  0.3633  1.3539  0.8856
 4642SOL     OW14503   5.804   1.499   5.506 -0.0768  0.7651 -0.2268
 4642SOL    HW114504   5.833   1.433   5.569 -1.1580  0.0131 -0.4945
 4642SOL    HW214505   5.843   1.471   5.423 -0.1196  0.7482 -0.2412
 4643SOL     OW14506   6.593   5.090   7.328 -0.1605 -0.4358  0.1405
 4643SOL    HW114507   6.557   5.066   7.242  0.4875  0.9388 -0.5445
 4643SOL    HW214508   6.528   5.149   7.366  1.3256  2.2697 -1.2143
 4644SOL     OW14509   4.755   6.148   4.057 -0.0632  0.0833 -0.5445
 4644SOL    HW114510   4.819   6.189   3.998 -0.4072  0.1859 -0.8462
 4644SOL    HW214511   4.761   6.055   4.037  1.0427 -0.0910  0.4533
 4645SOL     OW14512   9.151   2.102   8.571 -0.1618  0.2720  0.5342
 4645SOL    HW114513   9.191   2.048   8.503  0.1864  0.7134  0.3825
 4645SOL    HW214514   9.223   2.119   8.632 -0.3712  0.2267  0.7978
 4646SOL     OW14515   2.568   5.537   7.428  0.7411 -0.2005 -0.0368
 4646SOL    HW114516   2.521   5.466   7.384  0.8325 -0.6386  0.5651
 4646SOL    HW214517   2.546   5.528   7.520 -0.6771  1.6428 -0.1249
 4647SOL     OW14518   8.870   6.333   2.947  0.4566  0.6731 -0.1579
 4647SOL    HW114519   8.871   6.264   3.013 -0.4274  1.5787  0.8256
 4647SOL    HW214520   8.826   6.293   2.871  0.2255  0.0574  0.2941
 4648SOL     OW14521   9.431   0.224   7.840  0.4400  0.6435 -0.1014
 4648SOL    HW114522   9.497   0.172   7.887  1.3717  1.6402 -0.2783
 4648SOL    HW214523   9.467   0.236   7.753 -0.7331 -0.1610 -0.7214
 4649SOL     OW14524   9.606   2.528   6.367  0.3072  0.1548  0.7196
 4649SOL    HW114525   9.698   2.551   6.379  0.8019 -0.7904 -0.9444
 4649SOL    HW214526   9.600   2.436   6.391  0.0370 -0.0727 -0.1782
 4650SOL     OW14527   6.241   1.090   1.150 -0.0865 -0.4308  0.0601
 4650SOL    HW114528   6.169   1.130   1.101  1.2150  2.1209  0.0943
 4650SOL    HW214529   6.202   1.010   1.187 -2.9044  0.8267  0.1228
 4651SOL     OW14530   0.689   2.583   6.454  1.1682 -0.5070 -0.0834
 4651SOL    HW114531   0.620   2.525   6.422 -0.6702  1.4970  0.0094
 4651SOL    HW214532   0.700   2.558   6.546 -0.2824 -0.1437  0.2175
 4652SOL     OW14533   1.373   6.298   8.967  0.1343 -0.3103 -0.4073
 4652SOL    HW114534   1.365   6.275   9.060  1.0470  2.1090  0.3411
 4652SOL    HW214535   1.326   6.228   8.921 -2.8213 -0.1427  2.0186
 4653SOL     OW14536   0.763   3.330   7.941  0.2395 -0.0335  0.1446
 4653SOL    HW114537   0.704   3.329   8.016  1.5962 -1.3573  1.2523
 4653SOL    HW214538   0.840   3.378   7.970 -0.0271  1.2419 -1.1215
 4654SOL     OW14539   8.586   7.035   5.317  0.0607  0.2839  0.3137
 4654SOL    HW114540   8.599   7.056   5.409 -1.1601  2.3870  0.0728
 4654SOL    HW214541   8.503   6.988   5.314  0.7255 -0.9167  0.4035
 4655SOL     OW14542   9.229   7.366   7.079  0.3854  0.7166 -0.6961
 4655SOL    HW114543   9.229   7.299   7.010  0.1168 -1.5816  1.4039
 4655SOL    HW214544   9.151   7.419   7.061 -0.6158 -0.8711 -1.2475
 4656SOL     OW14545   1.877   9.327   4.861 -0.1289  0.2332 -0.0326
 4656SOL    HW114546   1.855   9.294   4.948 -0.1713  0.6613  0.1190
 4656SOL    HW214547   1.959   9.374   4.873 -1.0461  1.8451  0.1403
 4657SOL     OW14548   4.760   1.919   5.591  0.7373  0.2535  0.8738
 4657SOL    HW114549   4.763   1.828   5.620  0.8388  0.5702  1.8860
 4657SOL    HW214550   4.852   1.943   5.577  0.6203 -0.4724 -1.6595
 4658SOL     OW14551   2.486   3.474   7.546  0.3181 -0.4269 -0.3919
 4658SOL    HW114552   2.564   3.510   7.589  1.3633 -0.7927 -1.8957
 4658SOL    HW214553   2.490   3.380   7.564  0.9344 -0.6267 -1.5197
 4659SOL     OW14554   7.600   0.212   8.963  0.1032  0.2431 -0.0786
 4659SOL    HW114555   7.548   0.230   8.884 -0.4536  0.7542  0.4014
 4659SOL    HW214556   7.659   0.286   8.971 -0.8460  0.9214  0.7983
 4660SOL     OW14557   0.672   7.574   4.776  0.7399  0.5916 -0.1505
 4660SOL    HW114558   0.677   7.577   4.872 -0.0648 -2.7391  0.1316
 4660SOL    HW214559   0.590   7.529   4.758  1.8435 -0.7455 -2.3127
 4661SOL     OW14560   3.403   4.967   3.623  0.1038  0.6374  0.0445
 4661SOL    HW114561   3.438   4.897   3.569  0.3873 -0.0490  1.1053
 4661SOL    HW214562   3.471   5.035   3.621  0.5397  0.2100  0.3382
 4662SOL     OW14563   2.276   7.202   1.986 -0.1278 -0.3045 -0.0568
 4662SOL    HW114564   2.209   7.138   1.963  0.5210 -0.9388 -0.1950
 4662SOL    HW214565   2.258   7.277   1.929 -1.2265 -0.1323  0.4876
 4663SOL     OW14566   8.353   6.544   2.778 -0.2416  0.1105  0.2929
 4663SOL    HW114567   8.338   6.573   2.688  1.6178  0.1902 -0.0372
 4663SOL    HW214568   8.357   6.625   2.829  0.0406  0.1521  0.2082
 4664SOL     OW14569   0.522   4.677   4.019 -0.1291  0.1339 -0.2452
 4664SOL    HW114570   0.578   4.667   3.942 -0.3004  1.1810 -0.5223
 4664SOL    HW214571   0.574   4.641   4.092  1.2972  1.8785 -0.3384
 4665SOL     OW14572   6.943   2.707   0.462  0.4557 -0.2403 -0.0822
 4665SOL    HW114573   6.903   2.785   0.500 -0.1288  0.0963 -1.3033
 4665SOL    HW214574   6.912   2.635   0.517 -4.0302 -0.3360 -2.2402
 4666SOL     OW14575   2.693   4.271   2.512  0.2727  0.1337  0.6521
 4666SOL    HW114576   2.603   4.300   2.523 -0.1062 -1.3211  1.7399
 4666SOL    HW214577   2.705   4.203   2.579  1.3243 -1.6240 -1.2114
 4667SOL     OW14578   1.441   2.246   2.936 -0.0296  0.2702 -1.0417
 4667SOL    HW114579   1.456   2.270   2.845  1.3087  1.0172 -0.6524
 4667SOL    HW214580   1.493   2.167   2.950  0.6188  0.7409 -0.6808
 4668SOL     OW14581   2.154   3.610   2.631 -0.8100  0.0870  0.0587
 4668SOL    HW114582   2.148   3.638   2.540  1.1919  1.6361  0.3437
 4668SOL    HW214583   2.089   3.663   2.677  1.1845  2.5903  0.1722
 4669SOL     OW14584   2.503   4.492   7.918 -0.2234  0.0372  0.9112
 4669SOL    HW114585   2.422   4.542   7.917 -0.8905 -0.9953 -0.9990
 4669SOL    HW214586   2.546   4.512   7.835  0.9197 -0.3212  1.3926
 4670SOL     OW14587   7.772   7.235   6.391  0.0800  0.0963 -0.4109
 4670SOL    HW114588   7.721   7.243   6.310 -0.7042 -1.4754 -0.1157
 4670SOL    HW214589   7.826   7.157   6.377  0.1744  0.0047  0.4512
 4671SOL     OW14590   1.661   2.436   5.428 -0.5757  0.0840  0.0052
 4671SOL    HW114591   1.733   2.373   5.436 -1.5399 -1.0691 -0.0801
 4671SOL    HW214592   1.587   2.384   5.398 -1.7305  1.0372  1.0628
 4672SOL     OW14593   2.637   6.630   4.753  0.1130 -0.4375  0.2211
 4672SOL    HW114594   2.611   6.556   4.808  1.2408 -2.2763 -1.5580
 4672SOL    HW214595   2.732   6.619   4.742  0.2605  1.1312 -0.3141
 4673SOL     OW14596   3.216   9.239   4.853  0.3372  0.4763  0.1398
 4673SOL    HW114597   3.131   9.258   4.893  0.4538  1.0145  0.1284
 4673SOL    HW214598   3.227   9.306   4.786  0.1505 -0.3990 -0.8060
 4674SOL     OW14599   3.423   9.297   9.047 -0.5609  0.0214 -0.2945
 4674SOL    HW114600   3.411   9.211   9.088  0.9034 -0.8973 -1.6714
 4674SOL    HW214601   3.392   9.285   8.958  0.9549  0.4700 -0.9205
 4675SOL     OW14602   1.846   1.342   8.874  0.3909 -0.2738 -0.2794
 4675SOL    HW114603   1.923   1.286   8.864  1.4144  0.7447  1.4009
 4675SOL    HW214604   1.809   1.316   8.958 -1.2954 -0.9073 -1.1672
 4676SOL     OW14605   5.133   0.025   4.537  0.2601  0.3796 -0.3115
 4676SOL    HW114606   5.186   0.104   4.550 -0.1153  0.3263  1.8008
 4676SOL    HW214607   5.070   0.050   4.469  1.4756  1.1930 -1.1923
 4677SOL     OW14608   7.887   4.826   2.002 -0.0400 -0.4540 -0.9658
 4677SOL    HW114609   7.808   4.773   1.992 -0.7078  0.4788 -0.8086
 4677SOL    HW214610   7.943   4.775   2.060 -1.1479 -0.4700  0.1289
 4678SOL     OW14611   3.750   8.757   2.081  0.3571 -0.5766  0.3610
 4678SOL    HW114612   3.672   8.703   2.069  0.7374 -0.5762 -3.8287
 4678SOL    HW214613   3.717   8.845   2.097 -0.3824 -1.1112  1.8971
 4679SOL     OW14614   0.594   1.852   0.823 -0.3936 -0.1080 -0.3737
 4679SOL    HW114615   0.499   1.841   0.810 -1.1415  3.7429  0.6108
 4679SOL    HW214616   0.605   1.847   0.918  0.0704  1.0905 -0.3516
 4680SOL     OW14617   0.374   3.096   4.346  0.0959 -0.0669  0.4880
 4680SOL    HW114618   0.386   3.066   4.255 -0.6825  0.3710  0.2342
 4680SOL    HW214619   0.444   3.052   4.394  0.1466 -0.7935 -0.2131
 4681SOL     OW14620   1.698   7.610   0.242  0.4194  0.5241 -0.1626
 4681SOL    HW114621   1.723   7.519   0.257  0.5548  0.4584 -0.7652
 4681SOL    HW214622   1.635   7.629   0.311  0.5758  0.0497  0.1151
 4682SOL     OW14623   1.339   6.838   9.711 -0.6442  0.4366 -0.2085
 4682SOL    HW114624   1.408   6.894   9.674 -1.2814  2.3790  1.3606
 4682SOL    HW214625   1.384   6.758   9.736  0.3603  0.2750 -2.2906
 4683SOL     OW14626   6.510   7.071   2.688 -0.2054  0.0351  0.1947
 4683SOL    HW114627   6.556   6.992   2.658 -0.0563 -0.5122  1.7291
 4683SOL    HW214628   6.557   7.096   2.768 -0.5597  1.4101 -0.0056
 4684SOL     OW14629   7.988   6.443   0.900  0.1309 -0.2096  0.3972
 4684SOL    HW114630   8.026   6.507   0.841 -1.4945 -1.0045 -1.6323
 4684SOL    HW214631   8.055   6.375   0.910  0.9280  0.5863  0.6169
 4685SOL     OW14632   4.025   9.200   6.237  0.3881  1.0075 -0.5499
 4685SOL    HW114633   3.992   9.283   6.270 -1.5657 -0.5707  1.7299
 4685SOL    HW214634   3.951   9.140   6.241  2.2130 -1.3993 -0.2081
 4686SOL     OW14635   6.737   3.394   8.876 -0.3210  0.2895  0.3112
 4686SOL    HW114636   6.649   3.429   8.870 -0.7379 -0.8559 -0.5299
 4686SOL    HW214637   6.726   3.299   8.873  0.7999  0.0560  2.1449
 4687SOL     OW14638   9.565   7.146   4.598  0.2419  0.6316  0.0834
 4687SOL    HW114639   9.521   7.132   4.682  0.0204  1.4379  0.1126
 4687SOL    HW214640   9.645   7.194   4.620  1.0438 -0.6271  0.0024
 4688SOL     OW14641   9.903   6.924   1.574  0.3964 -0.0172 -0.0573
 4688SOL    HW114642   9.922   6.938   1.667  0.7376 -1.5882  0.1347
 4688SOL    HW214643   9.816   6.883   1.574  0.6324 -0.5162 -0.4028
 4689SOL     OW14644   7.880   8.779   4.616 -0.3358  0.5025 -0.0047
 4689SOL    HW114645   7.800   8.764   4.668 -0.3094  2.4501  0.6933
 4689SOL    HW214646   7.847   8.797   4.528 -0.4980 -0.9537 -0.2664
 4690SOL     OW14647   3.265   1.650   1.551 -0.2220 -0.3121 -0.2873
 4690SOL    HW114648   3.174   1.656   1.523 -0.0485  1.2849 -0.5622
 4690SOL    HW214649   3.304   1.583   1.494 -1.3374 -1.4348  0.2200
 4691SOL     OW14650   1.903   9.431   2.351 -0.3811 -0.1557  0.1469
 4691SOL    HW114651   1.828   9.450   2.408 -0.5095 -0.7742  0.1846
 4691SOL    HW214652   1.877   9.466   2.266  0.0559  1.3245  0.5840
 4692SOL     OW14653   2.069   4.124   2.478 -0.0938 -0.0207  0.1202
 4692SOL    HW114654   2.124   4.083   2.410  0.3940  0.7475  0.0451
 4692SOL    HW214655   2.005   4.175   2.429 -0.9025 -0.9090  0.2071
 4693SOL     OW14656   0.682   5.597   0.205 -0.3929  0.2241 -0.6093
 4693SOL    HW114657   0.701   5.504   0.203  2.7098  0.7328  0.6912
 4693SOL    HW214658   0.627   5.609   0.282 -0.9807 -0.5127 -0.8987
 4694SOL     OW14659   7.589   1.225   0.036  0.2389  0.4291  0.3114
 4694SOL    HW114660   7.659   1.160   0.050 -0.5795 -0.5516 -0.0522
 4694SOL    HW214661   7.620   1.303   0.082  2.7289  0.8491 -1.8472
 4695SOL     OW14662   4.349   4.682   2.775 -0.1716 -0.1263 -0.1409
 4695SOL    HW114663   4.409   4.718   2.840 -0.6661  0.9125 -0.2420
 4695SOL    HW214664   4.388   4.598   2.751 -1.2899 -1.8698  3.4103
 4696SOL     OW14665   2.157   8.679   6.855  0.5188  0.0124 -0.2207
 4696SOL    HW114666   2.078   8.645   6.813 -1.2573  2.3885  0.9287
 4696SOL    HW214667   2.160   8.635   6.940 -0.1549  0.5970  0.1179
 4697SOL     OW14668   7.683   8.458   4.501  0.0380 -0.1695 -0.2179
 4697SOL    HW114669   7.623   8.510   4.554  0.9582 -1.5619  2.3532
 4697SOL    HW214670   7.627   8.399   4.451 -0.9116 -2.8026  3.5726
 4698SOL     OW14671   6.391   9.874   2.512 -0.0210  0.4513 -0.6498
 4698SOL    HW114672   6.459   9.812   2.485  0.1080 -0.9165  2.4459
 4698SOL    HW214673   6.311   9.841   2.470  0.4674 -0.4627 -0.8852
 4699SOL     OW14674   1.183   9.940   8.847  0.0658 -0.0906 -0.2173
 4699SOL    HW114675   1.270   9.972   8.871 -0.0953 -0.3419  0.7718
 4699SOL    HW214676   1.175   9.856   8.892 -0.2887 -0.5808 -1.1615
 4700SOL     OW14677   0.758   1.537   1.174 -0.1840  0.7912  0.4820
 4700SOL    HW114678   0.712   1.485   1.240  1.5672 -1.5393 -0.0054
 4700SOL    HW214679   0.848   1.545   1.208  0.3808  0.7568 -0.9232
 4701SOL     OW14680   2.677   2.156   0.666 -0.3051 -0.4664 -0.1942
 4701SOL    HW114681   2.749   2.143   0.605  0.1313 -0.9684  0.4152
 4701SOL    HW214682   2.657   2.068   0.699 -1.3575 -0.3679 -0.5305
 4702SOL     OW14683   3.281   0.631   6.975  0.1775 -0.2508  0.1363
 4702SOL    HW114684   3.256   0.590   7.058  1.3818 -0.9800  0.1597
 4702SOL    HW214685   3.229   0.586   6.909  0.2072 -0.6191  0.3585
 4703SOL     OW14686   3.810   7.872   4.166  0.9660 -0.0167 -0.1520
 4703SOL    HW114687   3.847   7.959   4.178  1.1838 -0.0471 -0.5646
 4703SOL    HW214688   3.880   7.812   4.193  0.8729 -0.0635 -0.0154
 4704SOL     OW14689   8.263   7.982   8.604 -0.1442 -0.0425 -0.0732
 4704SOL    HW114690   8.320   8.037   8.659 -0.7802  0.6161 -0.0604
 4704SOL    HW214691   8.244   7.905   8.658  0.1381  0.0784  0.2005
 4705SOL     OW14692   4.222   7.032   6.577  0.6804 -0.0902  0.6996
 4705SOL    HW114693   4.243   7.014   6.669  0.4475 -1.1115  0.5754
 4705SOL    HW214694   4.128   7.015   6.571  0.2296  2.1505  0.7441
 4706SOL     OW14695   8.622   7.757   3.325 -0.4941  0.2155  0.0825
 4706SOL    HW114696   8.642   7.762   3.418 -3.0857  0.4179  0.7121
 4706SOL    HW214697   8.708   7.760   3.281  0.8049 -0.2999  2.4350
 4707SOL     OW14698   3.081   8.363   2.260  0.1093  0.1161 -0.2263
 4707SOL    HW114699   3.046   8.325   2.180  1.0241  0.3204 -0.7415
 4707SOL    HW214700   3.057   8.456   2.256 -0.2673  0.0311 -0.0167
 4708SOL     OW14701   8.967   5.960   7.434  0.8057  0.0746 -0.2899
 4708SOL    HW114702   8.974   5.873   7.473 -0.3630 -0.0347 -0.2813
 4708SOL    HW214703   8.962   5.944   7.340 -0.0467  0.0756 -0.2527
 4709SOL     OW14704   4.196   9.867   2.671 -0.2376 -0.3117  0.2914
 4709SOL    HW114705   4.177   9.797   2.733 -0.8391  0.3076  0.8264
 4709SOL    HW214706   4.290   9.863   2.658 -0.2092 -0.9376  0.6565
 4710SOL     OW14707   0.546   6.587   9.368 -0.5729 -0.8189 -0.2620
 4710SOL    HW114708   0.505   6.625   9.446 -0.5384 -0.8253 -0.2408
 4710SOL    HW214709   0.639   6.608   9.376 -0.7208  0.0996 -0.8273
 4711SOL     OW14710   1.983   6.313   6.424  0.0662 -0.1562  0.0183
 4711SOL    HW114711   2.042   6.385   6.404 -0.0071  0.0408  0.5045
 4711SOL    HW214712   1.986   6.257   6.346  0.2548  0.2779 -0.2881
 4712SOL     OW14713   3.937   3.354   6.814 -0.0923 -0.2438 -0.3421
 4712SOL    HW114714   3.919   3.430   6.759 -2.3792 -0.3582  0.1431
 4712SOL    HW214715   4.029   3.333   6.797  0.7157  2.7836 -0.2687
 4713SOL     OW14716   9.884   5.344   5.874  0.2442 -0.5400  0.4771
 4713SOL    HW114717   9.892   5.293   5.793  0.0578  1.1367 -0.6304
 4713SOL    HW214718   9.972   5.379   5.889 -0.2592  1.2601 -0.4751
 4714SOL     OW14719   5.499   1.595   2.179 -0.0151  0.2923 -0.6559
 4714SOL    HW114720   5.420   1.563   2.135 -1.2588  1.2536  0.7757
 4714SOL    HW214721   5.538   1.656   2.116 -0.1817 -0.4740 -1.5278
 4715SOL     OW14722   6.541   3.007   1.537 -0.3715  0.4001 -0.0043
 4715SOL    HW114723   6.529   2.946   1.465 -0.5349  1.5355 -0.9631
 4715SOL    HW214724   6.452   3.034   1.561 -0.3265 -0.0548  0.7136
 4716SOL     OW14725   9.952   5.356   5.165 -0.1886  0.0516  0.3626
 4716SOL    HW114726   9.918   5.318   5.084 -0.9596  1.5672 -0.0728
 4716SOL    HW214727  10.013   5.291   5.199  0.5350 -0.4187 -1.7047
 4717SOL     OW14728   4.979   6.562   0.539 -0.5360 -0.3811 -0.1692
 4717SOL    HW114729   5.042   6.505   0.584 -0.5854  0.2223  0.6863
 4717SOL    HW214730   4.894   6.532   0.570 -0.5527  0.2858  0.4535
 4718SOL     OW14731   0.031   9.745   2.774 -0.8998 -0.5803  0.1441
 4718SOL    HW114732   0.057   9.817   2.832  0.2899 -0.9894  0.1507
 4718SOL    HW214733  -0.055   9.717   2.806 -1.4050  0.8611  0.1102
 4719SOL     OW14734   1.480   2.372   0.126 -0.4993 -0.9218  0.8535
 4719SOL    HW114735   1.406   2.323   0.091  0.4550 -1.3019 -0.7201
 4719SOL    HW214736   1.447   2.461   0.137 -1.7648 -1.5131  2.1477
 4720SOL     OW14737   6.596   3.493   2.367  0.3960  0.0566 -0.3473
 4720SOL    HW114738   6.539   3.469   2.293 -0.7945  1.0436  0.2136
 4720SOL    HW214739   6.558   3.573   2.402  2.2356  0.8383 -0.0156
 4721SOL     OW14740   8.361   0.363   0.978 -0.4739  0.6079  0.2913
 4721SOL    HW114741   8.368   0.421   1.054 -1.5241  0.9277  0.1576
 4721SOL    HW214742   8.428   0.297   0.993  1.2446  2.2297  0.1023
 4722SOL     OW14743   3.399   0.829   4.174  0.1696 -0.3106 -0.3599
 4722SOL    HW114744   3.472   0.888   4.196  0.9213 -1.1063 -0.6755
 4722SOL    HW214745   3.406   0.758   4.238 -0.3612 -0.3740 -0.3681
 4723SOL     OW14746   7.907   3.156   1.856  0.2741 -0.3867 -0.1430
 4723SOL    HW114747   7.997   3.189   1.858 -0.2920  1.2143  1.5887
 4723SOL    HW214748   7.861   3.207   1.923 -1.9909 -0.9965 -1.1349
 4724SOL     OW14749   4.219   7.321   2.520 -0.2906 -0.1294  0.0398
 4724SOL    HW114750   4.281   7.385   2.555  0.0293 -0.5239  0.2034
 4724SOL    HW214751   4.158   7.373   2.468 -0.8222  0.4870  1.2408
 4725SOL     OW14752   2.906   0.152   7.518 -0.5324 -0.7726  0.0427
 4725SOL    HW114753   2.921   0.116   7.431  0.7932 -1.8706  0.6883
 4725SOL    HW214754   2.835   0.215   7.506  0.0329 -0.4460 -1.9295
 4726SOL     OW14755   8.177   0.434   5.510 -0.2553  0.1482  0.0894
 4726SOL    HW114756   8.266   0.469   5.509 -0.4383  0.6019 -0.2026
 4726SOL    HW214757   8.133   0.483   5.579 -0.7863  1.1915 -0.9591
 4727SOL     OW14758   5.171   9.882   5.633 -0.0517  0.3716  0.0200
 4727SOL    HW114759   5.129   9.950   5.581  0.7363  0.5986 -0.3462
 4727SOL    HW214760   5.108   9.861   5.702 -2.0586 -1.4750 -2.2377
 4728SOL     OW14761   7.173   7.951   5.340  0.1847  0.0359 -0.0903
 4728SOL    HW114762   7.093   7.990   5.376  0.7031  1.0751 -0.0505
 4728SOL    HW214763   7.217   7.912   5.416 -0.4108 -0.7969 -0.1552
 4729SOL     OW14764   2.152   3.529   4.180 -0.0556  0.0973 -0.1379
 4729SOL    HW114765   2.140   3.604   4.239  1.2453 -0.3779  0.7773
 4729SOL    HW214766   2.243   3.503   4.193 -0.2821 -1.1914 -0.9889
 4730SOL     OW14767   6.608   6.909   2.103  0.1743 -0.1436 -0.1774
 4730SOL    HW114768   6.557   6.877   2.028 -0.7615 -0.6524  0.6453
 4730SOL    HW214769   6.686   6.853   2.105  0.9519  0.8251 -1.6198
 4731SOL     OW14770   1.447   2.947   8.979 -0.3794 -0.2392 -0.0988
 4731SOL    HW114771   1.432   2.955   8.885 -0.2418 -0.2943 -0.1257
 4731SOL    HW214772   1.447   2.853   8.996  3.0185 -0.4716 -0.6210
 4732SOL     OW14773   0.058   5.024   0.415  0.3247 -0.2683 -0.1152
 4732SOL    HW114774   0.023   5.018   0.326  2.3727 -1.6943 -0.9122
 4732SOL    HW214775   0.056   4.934   0.448  0.7512  0.0470  0.8042
 4733SOL     OW14776   0.292   9.046   8.489 -0.1189  0.6829  0.0364
 4733SOL    HW114777   0.294   9.012   8.579  1.7125  0.7144  0.0558
 4733SOL    HW214778   0.242   9.127   8.495 -1.2680 -0.0523  0.7327
 4734SOL     OW14779   7.530   8.515   4.735  0.5790  0.4804 -0.3992
 4734SOL    HW114780   7.561   8.599   4.770  0.4859  0.3974 -0.1134
 4734SOL    HW214781   7.444   8.504   4.774  1.2124 -0.4793  0.8087
 4735SOL     OW14782   7.053   7.533   9.958 -0.0991  0.6952 -0.2816
 4735SOL    HW114783   7.135   7.485   9.965 -1.6704 -2.3109 -0.6507
 4735SOL    HW214784   7.048   7.559   9.866  0.3833  0.8455 -0.2691
 4736SOL     OW14785   1.308   8.352   8.250  0.0195 -0.4177 -0.1870
 4736SOL    HW114786   1.282   8.322   8.337  0.5983 -1.6094 -0.3978
 4736SOL    HW214787   1.260   8.294   8.190  0.6672 -0.5132 -0.6235
 4737SOL     OW14788   6.286   5.462   7.677 -0.2896 -0.3699 -0.1735
 4737SOL    HW114789   6.232   5.535   7.647 -0.3927  0.1090  1.0866
 4737SOL    HW214790   6.235   5.423   7.748  1.8414  1.4645  2.6025
 4738SOL     OW14791   7.941   4.188   8.368 -0.1180 -0.2690 -0.4312
 4738SOL    HW114792   7.989   4.116   8.327 -1.2903 -0.2367 -1.9650
 4738SOL    HW214793   7.938   4.256   8.301 -1.0942  0.2622  0.1227
 4739SOL     OW14794   1.670   0.211   6.394 -0.1117  0.0871  0.1134
 4739SOL    HW114795   1.652   0.294   6.440  1.1084 -0.3122  1.3891
 4739SOL    HW214796   1.715   0.158   6.459 -1.6273 -1.9450 -0.4033
 4740SOL     OW14797   2.115   8.472   2.828  0.3213  0.0176  0.4667
 4740SOL    HW114798   2.188   8.438   2.776  0.7374  0.6945  0.5843
 4740SOL    HW214799   2.111   8.416   2.905 -1.2931 -1.9794 -0.9690
 4741SOL     OW14800   4.175   0.064   4.270  0.4142 -0.1265  0.0253
 4741SOL    HW114801   4.236  -0.010   4.265 -1.0818 -1.5113  1.0532
 4741SOL    HW214802   4.192   0.104   4.355  0.9411  0.4948 -0.3592
 4742SOL     OW14803   3.868   8.396   6.750  0.1051  0.3468 -0.8858
 4742SOL    HW114804   3.787   8.348   6.734 -0.2602  0.3220  0.8266
 4742SOL    HW214805   3.840   8.473   6.799  1.2799 -0.8185  1.8362
 4743SOL     OW14806   7.266   3.976   4.555 -0.8449  0.3190  0.3828
 4743SOL    HW114807   7.239   4.063   4.528 -0.9997  0.4784  1.0256
 4743SOL    HW214808   7.316   3.941   4.481 -1.0054  0.8505  0.0255
 4744SOL     OW14809   0.906   4.042   5.338 -0.2962  0.2018 -0.0834
 4744SOL    HW114810   0.874   4.096   5.410 -0.2391  0.5546 -0.3174
 4744SOL    HW214811   0.933   4.105   5.271 -1.8035 -0.1381 -1.0501
 4745SOL     OW14812   3.278   5.971   4.269 -0.2895  0.1878  0.6377
 4745SOL    HW114813   3.337   5.906   4.232 -0.0414  0.1912  1.0268
 4745SOL    HW214814   3.279   5.954   4.363 -0.6951  0.3652  0.6774
 4746SOL     OW14815   1.758   1.511   1.391 -0.4490  0.0546  0.2379
 4746SOL    HW114816   1.774   1.425   1.429  2.3774  0.7113  0.8216
 4746SOL    HW214817   1.808   1.512   1.310 -1.2353  0.8178 -0.2523
 4747SOL     OW14818   7.798   6.419   9.667  0.4613  0.7759 -0.0346
 4747SOL    HW114819   7.828   6.371   9.744  0.1993 -0.4186 -0.6544
 4747SOL    HW214820   7.866   6.484   9.651  0.8164  0.6284  0.8349
 4748SOL     OW14821   5.884   8.328   3.628 -0.4936  0.0387  0.0283
 4748SOL    HW114822   5.970   8.305   3.663  0.1817  0.4892 -1.2723
 4748SOL    HW214823   5.824   8.268   3.671  0.3196  0.3753  1.7277
 4749SOL     OW14824   4.203   4.972   1.341  0.2184  0.2988 -0.5217
 4749SOL    HW114825   4.220   5.050   1.288 -1.0719  0.9090 -0.0598
 4749SOL    HW214826   4.206   5.004   1.431 -1.3798  0.0503 -0.3624
 4750SOL     OW14827   4.012   4.020   3.651  0.5141 -0.1496 -0.3170
 4750SOL    HW114828   4.048   4.057   3.570 -1.7575 -0.8128 -1.7273
 4750SOL    HW214829   4.001   3.927   3.631  0.1306 -0.3632  0.8494
 4751SOL     OW14830   8.200   1.413   9.888 -0.1253  0.0366  0.4390
 4751SOL    HW114831   8.124   1.452   9.846 -0.4973 -0.7158  0.4045
 4751SOL    HW214832   8.255   1.384   9.815  0.4920  1.0968  0.4497
 4752SOL     OW14833   4.120   0.162   6.324 -0.4040 -0.2267  0.1919
 4752SOL    HW114834   4.158   0.084   6.285 -1.0394 -0.8862  0.8676
 4752SOL    HW214835   4.090   0.214   6.249  1.4572  0.1614 -0.3411
 4753SOL     OW14836   3.867   4.429   2.767  0.0978  0.0466 -0.1885
 4753SOL    HW114837   3.828   4.517   2.772  0.4640  0.1855  0.2471
 4753SOL    HW214838   3.822   4.388   2.693  0.7967  1.0290 -1.1972
 4754SOL     OW14839   3.851   5.034   7.052  0.0127  0.2777 -0.6850
 4754SOL    HW114840   3.897   5.092   7.112 -0.0726  0.2913 -0.6308
 4754SOL    HW214841   3.898   4.951   7.057  0.8293  0.6694 -1.6306
 4755SOL     OW14842   3.511   1.292   6.858 -0.1124  0.1646 -0.4086
 4755SOL    HW114843   3.536   1.377   6.822 -0.4725  0.2443 -0.4746
 4755SOL    HW214844   3.586   1.266   6.912  0.1716  0.3320 -0.7142
 4756SOL     OW14845   8.358   4.450   3.388  0.2155 -0.3226 -0.4903
 4756SOL    HW114846   8.283   4.426   3.334  2.2597 -0.4601 -3.5220
 4756SOL    HW214847   8.367   4.545   3.374 -0.5930  0.1349  1.6437
 4757SOL     OW14848   5.800   8.703   0.728 -0.2288  0.0580 -0.3654
 4757SOL    HW114849   5.834   8.643   0.661  1.8924  0.1994  0.5313
 4757SOL    HW214850   5.752   8.646   0.788  0.6191 -0.5500 -0.2552
 4758SOL     OW14851   5.613   6.443   7.926  0.3850  0.4694 -0.1129
 4758SOL    HW114852   5.549   6.381   7.961  1.1769  0.4625  1.3989
 4758SOL    HW214853   5.685   6.443   7.990  1.4225  1.2670 -1.2239
 4759SOL     OW14854   4.358   9.117   3.290 -0.0620  0.2633  0.3833
 4759SOL    HW114855   4.443   9.083   3.316  1.2061  2.1612 -1.0190
 4759SOL    HW214856   4.359   9.209   3.317 -1.1056  0.6736 -0.8567
 4760SOL     OW14857   7.165   5.445   7.153 -0.3454 -0.0912 -0.0589
 4760SOL    HW114858   7.137   5.354   7.144 -0.6132  0.0962 -1.3986
 4760SOL    HW214859   7.253   5.446   7.117 -1.0008  0.4776 -1.7847
 4761SOL     OW14860   3.822   0.991   3.740  0.1505  0.2125 -0.4125
 4761SOL    HW114861   3.743   0.959   3.783 -0.0237  1.0097 -0.1227
 4761SOL    HW214862   3.892   0.975   3.803 -0.0523  1.0628  0.0495
 4762SOL     OW14863   1.469   5.628   2.472 -0.2923 -0.1495  0.3554
 4762SOL    HW114864   1.421   5.614   2.390 -0.6110  0.4660  0.4290
 4762SOL    HW214865   1.404   5.664   2.532  0.8463  3.6892 -0.4479
 4763SOL     OW14866   4.012   3.219   2.603  0.3754  0.1982 -0.1586
 4763SOL    HW114867   3.951   3.146   2.595 -1.4485  1.4538  1.3636
 4763SOL    HW214868   4.042   3.236   2.514 -1.9387 -0.1313 -1.0523
 4764SOL     OW14869   8.677   7.728   5.428  0.0546 -0.3597  0.3257
 4764SOL    HW114870   8.714   7.777   5.355 -0.5546 -0.9454 -0.3929
 4764SOL    HW214871   8.658   7.794   5.495  1.4937  0.0603  0.3391
 4765SOL     OW14872   5.840   8.051   9.043  0.3734 -0.3642 -0.2552
 4765SOL    HW114873   5.885   8.124   9.001  1.8625 -0.7825  0.5542
 4765SOL    HW214874   5.792   8.009   8.971  1.7350 -0.2302 -1.2914
 4766SOL     OW14875   3.435   4.429   2.810 -0.6252  0.4960 -0.2757
 4766SOL    HW114876   3.441   4.340   2.845  0.8768  0.4306 -0.6237
 4766SOL    HW214877   3.511   4.475   2.846  1.1085  0.3815 -3.4111
 4767SOL     OW14878   3.554   4.451   8.396 -0.1773  0.1904 -0.1403
 4767SOL    HW114879   3.603   4.533   8.394 -1.5114  1.0265 -0.0403
 4767SOL    HW214880   3.525   4.438   8.306 -1.8082  1.0111  0.2403
 4768SOL     OW14881   6.395   0.305   2.398  0.2521  0.2094  0.0701
 4768SOL    HW114882   6.318   0.271   2.353  0.0288  1.4245 -0.4959
 4768SOL    HW214883   6.469   0.271   2.349  0.2880 -3.2603  2.1693
 4769SOL     OW14884   6.915   9.687   0.986  0.7782 -0.1315  0.1690
 4769SOL    HW114885   6.844   9.736   0.944 -0.3691 -1.7958  0.0614
 4769SOL    HW214886   6.988   9.695   0.925 -0.3674 -1.1402 -1.4546
 4770SOL     OW14887   3.500   6.916   3.412 -0.3324  0.1249  0.2091
 4770SOL    HW114888   3.491   6.919   3.316 -1.2488 -0.5563  0.2538
 4770SOL    HW214889   3.570   6.852   3.427  0.6324  1.1032 -0.0215
 4771SOL     OW14890   0.186   7.214   6.521  0.1970  0.5771  0.6776
 4771SOL    HW114891   0.194   7.300   6.478  1.7027  0.4721  0.6692
 4771SOL    HW214892   0.269   7.171   6.501 -0.6844 -1.0393  0.3820
 4772SOL     OW14893   9.060   0.913   5.548 -0.2522 -0.1704  0.1766
 4772SOL    HW114894   9.059   1.000   5.510 -0.1846  0.4739  1.5969
 4772SOL    HW214895   9.055   0.927   5.643 -2.2076 -1.7448  0.3877
 4773SOL     OW14896   0.224   1.501   1.738  0.3684  0.2151 -0.0518
 4773SOL    HW114897   0.158   1.472   1.675 -1.1992 -1.4461  2.2045
 4773SOL    HW214898   0.175   1.515   1.820  2.7219 -0.7252  1.6212
 4774SOL     OW14899   2.556   8.200   6.950  0.1946 -0.2525 -0.5130
 4774SOL    HW114900   2.647   8.219   6.970  0.2340  0.2223 -1.1061
 4774SOL    HW214901   2.560   8.144   6.872  0.0055 -1.0579  0.0386
 4775SOL     OW14902   0.909   4.947   9.935 -0.3297  0.5127  0.3120
 4775SOL    HW114903   0.821   4.965   9.968 -0.6227 -0.0336 -0.1616
 4775SOL    HW214904   0.957   4.913  10.011 -0.4481  1.0615  0.6349
 4776SOL     OW14905   1.420   2.830   0.568  0.0702  0.4447 -0.6955
 4776SOL    HW114906   1.329   2.835   0.539  0.1464  0.4763 -0.9335
 4776SOL    HW214907   1.415   2.833   0.664 -0.1226  1.3301 -0.7298
 4777SOL     OW14908   2.188   7.031   6.293 -0.2344 -0.5497  0.1252
 4777SOL    HW114909   2.248   7.039   6.367  0.5281 -0.0620 -0.5244
 4777SOL    HW214910   2.100   7.036   6.331  0.1500 -0.6591  1.0247
 4778SOL     OW14911   6.013   3.917   9.614  0.1772  0.1544 -0.3128
 4778SOL    HW114912   5.936   3.942   9.564  0.6765  1.4126 -0.5084
 4778SOL    HW214913   6.058   4.000   9.631  1.0090 -0.4567  0.5766
 4779SOL     OW14914   8.623   8.229   9.837  0.2621  0.3641 -0.4843
 4779SOL    HW114915   8.567   8.196   9.908 -1.4379  1.4033 -1.2834
 4779SOL    HW214916   8.676   8.298   9.877 -0.3459  0.6192 -0.1153
 4780SOL     OW14917   5.150   1.245   7.824  0.1047  0.1850 -0.0429
 4780SOL    HW114918   5.136   1.278   7.913 -0.1208 -0.1047  0.0284
 4780SOL    HW214919   5.090   1.171   7.816  0.8507 -0.4238 -0.0921
 4781SOL     OW14920   3.479   0.665   1.629  0.8131 -0.3236  0.0138
 4781SOL    HW114921   3.529   0.712   1.562 -0.4539 -0.2077 -0.8765
 4781SOL    HW214922   3.520   0.692   1.711  1.4069  0.7673 -0.6071
 4782SOL     OW14923   8.118   1.701   9.380 -0.4713  0.2503  0.1281
 4782SOL    HW114924   8.123   1.614   9.420  2.9246  0.7802  1.2014
 4782SOL    HW214925   8.125   1.684   9.286  0.6715 -0.6635  0.3516
 4783SOL     OW14926   5.270   5.145   1.684 -0.8327 -0.0568 -0.2552
 4783SOL    HW114927   5.348   5.115   1.730 -0.2399  0.0514 -1.1641
 4783SOL    HW214928   5.256   5.234   1.716 -1.4984 -0.5994  1.0454
 4784SOL     OW14929   6.133   1.375   8.285 -0.8055  0.2289  0.4762
 4784SOL    HW114930   6.183   1.309   8.237 -2.2218  0.7137 -1.8415
 4784SOL    HW214931   6.195   1.411   8.348  1.0105 -0.8819 -0.5859
 4785SOL     OW14932   8.068   7.367   8.262 -0.6017 -0.8601  0.4429
 4785SOL    HW114933   8.025   7.452   8.274  1.5265  0.3691 -0.1358
 4785SOL    HW214934   8.021   7.328   8.188 -2.2197 -0.6534  1.3086
 4786SOL     OW14935   1.180   7.518   9.560  0.1972 -0.5802 -0.3302
 4786SOL    HW114936   1.241   7.478   9.623  0.3529 -1.9535 -1.2997
 4786SOL    HW214937   1.106   7.458   9.557 -0.7729  0.5547  0.0724
 4787SOL     OW14938   4.103   9.538   1.139 -0.0847  0.1115  0.2055
 4787SOL    HW114939   4.138   9.568   1.056  0.4028  0.6587  0.5980
 4787SOL    HW214940   4.027   9.595   1.155 -0.8931 -0.7746 -0.4269
 4788SOL     OW14941   0.739   8.990   3.477  0.0604  0.1511  0.4129
 4788SOL    HW114942   0.732   8.901   3.443 -1.3075  0.2127  0.4642
 4788SOL    HW214943   0.648   9.017   3.494  0.4223  1.6157  0.2299
 4789SOL     OW14944   1.158   5.210   5.770  0.8423  0.2308 -0.1636
 4789SOL    HW114945   1.181   5.117   5.770 -1.4459 -0.4634  1.8373
 4789SOL    HW214946   1.170   5.237   5.861 -0.3684  1.3427 -0.2962
 4790SOL     OW14947   6.237   2.042   2.324 -0.0266  0.4026 -0.2081
 4790SOL    HW114948   6.249   2.049   2.419 -3.6501  1.9532  0.3010
 4790SOL    HW214949   6.192   1.959   2.311  2.5364 -0.9747 -0.9734
 4791SOL     OW14950   5.914   5.194   6.973  0.3360 -0.2340 -0.0346
 4791SOL    HW114951   6.002   5.226   6.956 -0.0369  1.6873  1.2869
 4791SOL    HW214952   5.899   5.215   7.066 -1.1762 -1.3714  0.0159
 4792SOL     OW14953   6.220   2.140   3.637 -0.7130 -0.1876 -0.0100
 4792SOL    HW114954   6.310   2.157   3.610 -0.7490  1.4057  0.7425
 4792SOL    HW214955   6.167   2.177   3.566 -0.7854 -1.1015 -0.4407
 4793SOL     OW14956   9.405   3.525   0.535 -0.1364 -0.1829 -0.2864
 4793SOL    HW114957   9.474   3.563   0.591 -1.8668 -0.9578  2.6004
 4793SOL    HW214958   9.367   3.601   0.490  0.6345  0.6471  0.3941
 4794SOL     OW14959   8.881   9.538   5.170  0.1833 -0.3571  0.3694
 4794SOL    HW114960   8.818   9.466   5.171  1.4293 -1.4729  0.1962
 4794SOL    HW214961   8.936   9.522   5.094  0.1927  1.0544  0.0464
 4795SOL     OW14962   0.358   9.755   8.032  0.1766 -0.3084  0.2575
 4795SOL    HW114963   0.263   9.746   8.042  0.1430  0.7346  0.9436
 4795SOL    HW214964   0.393   9.731   8.118  0.4795  0.0253  0.2281
 4796SOL     OW14965   8.493   6.707   7.310 -0.5817  0.7571  0.3292
 4796SOL    HW114966   8.548   6.758   7.250  0.2468 -0.8232 -0.3419
 4796SOL    HW214967   8.447   6.772   7.363 -2.8986  2.4001 -3.2966
 4797SOL     OW14968   9.414   8.732   1.519 -0.2104 -0.6057 -0.6187
 4797SOL    HW114969   9.444   8.742   1.429  1.8639  1.3042  0.1623
 4797SOL    HW214970   9.430   8.818   1.559 -1.8589 -1.1412  1.3635
 4798SOL     OW14971   7.841   7.441   2.602 -0.2936  0.4748  0.3276
 4798SOL    HW114972   7.893   7.520   2.591  0.5789 -0.0816  0.4300
 4798SOL    HW214973   7.774   7.446   2.533 -0.0616  1.1480  0.1494
 4799SOL     OW14974   1.931   8.764   0.836  0.4319 -0.1844  0.9693
 4799SOL    HW114975   1.978   8.730   0.912  1.4044 -0.0188  0.4580
 4799SOL    HW214976   1.925   8.858   0.851  1.4573 -0.0149  0.4205
 4800SOL     OW14977   7.479   0.951   8.832 -0.4384 -0.4838 -0.1788
 4800SOL    HW114978   7.486   0.930   8.925  0.1807 -0.6705 -0.2669
 4800SOL    HW214979   7.426   1.031   8.829 -0.3972 -0.4384  0.3374
 4801SOL     OW14980   2.052   7.395   7.366 -0.4410  0.0180 -0.2678
 4801SOL    HW114981   1.967   7.369   7.402 -0.3922  0.2392  0.0138
 4801SOL    HW214982   2.096   7.439   7.439 -0.1051 -0.0534 -0.4289
 4802SOL     OW14983   4.367   3.106   4.552  0.2475 -0.2153  0.0203
 4802SOL    HW114984   4.327   3.114   4.466  0.7129  0.2051 -0.1639
 4802SOL    HW214985   4.294   3.091   4.612  0.0508 -2.2377 -0.6507
 4803SOL     OW14986   6.644   4.583   6.250  0.2834 -0.0064 -0.2076
 4803SOL    HW114987   6.636   4.676   6.229 -0.5050 -0.0159  0.0451
 4803SOL    HW214988   6.555   4.549   6.246  0.1997 -0.2183  2.1461
 4804SOL     OW14989   6.022   6.742   5.163  0.5815 -0.2183 -0.1876
 4804SOL    HW114990   5.974   6.767   5.085 -0.3299 -0.6614  0.2144
 4804SOL    HW214991   6.061   6.657   5.141 -0.4440 -0.7919  0.1357
 4805SOL     OW14992   5.218   9.662   8.864 -1.0357 -0.0564  0.2205
 4805SOL    HW114993   5.230   9.659   8.959 -0.9449  1.8747  0.3172
 4805SOL    HW214994   5.289   9.718   8.833 -0.7930 -1.0363 -1.0512
 4806SOL     OW14995   3.374   0.200   3.992  0.0410  0.1588  0.2465
 4806SOL    HW114996   3.458   0.233   3.960 -0.0589 -1.0903 -1.3931
 4806SOL    HW214997   3.309   0.243   3.937 -0.3606  0.3999  0.8913
 4807SOL     OW14998   6.036   0.526   6.431  0.1831  0.4403  0.5431
 4807SOL    HW114999   6.118   0.477   6.419 -0.0668  0.5046 -1.7918
 4807SOL    HW215000   5.972   0.459   6.456  0.7831  0.3123  1.8490
 4808SOL     OW15001   1.496   3.836   2.991  0.2979  0.3404  0.9217
 4808SOL    HW115002   1.518   3.860   2.901 -0.5182  0.7165  0.8147
 4808SOL    HW215003   1.563   3.878   3.044  1.9827 -1.5206  0.3812
 4809SOL     OW15004   3.245   7.128   3.844 -0.5454  0.2016 -0.1197
 4809SOL    HW115005   3.161   7.117   3.800 -0.6271  0.7447 -0.1153
 4809SOL    HW215006   3.303   7.063   3.804 -0.9308 -0.0806 -0.2166
 4810SOL     OW15007   0.866   9.895   9.654  0.3705  0.3277  0.0184
 4810SOL    HW115008   0.863   9.800   9.644 -0.9992  0.1501  1.6381
 4810SOL    HW215009   0.774   9.922   9.661  0.7105  1.8323 -0.8168
 4811SOL     OW15010   1.333   7.052   4.691 -0.2773  0.6194 -0.2416
 4811SOL    HW115011   1.364   7.142   4.685 -0.5854  0.6680 -1.3023
 4811SOL    HW215012   1.308   7.029   4.602 -2.4075  0.2706  0.3808
 4812SOL     OW15013   4.021   7.366   8.018 -0.6368 -0.3292  0.3190
 4812SOL    HW115014   3.965   7.302   7.974  0.5303  0.7353 -3.0539
 4812SOL    HW215015   4.110   7.334   8.002 -0.1259 -0.2679  2.7174
 4813SOL     OW15016   9.159   7.554   8.502  0.5817 -0.5811 -0.6520
 4813SOL    HW115017   9.209   7.542   8.421  0.9921  0.3156 -0.5359
 4813SOL    HW215018   9.160   7.648   8.517 -0.5586 -0.6098 -0.2725
 4814SOL     OW15019   2.845   1.981   3.755 -0.1858 -0.1519 -0.0855
 4814SOL    HW115020   2.865   1.973   3.661  0.3884 -1.7903  0.1366
 4814SOL    HW215021   2.824   2.073   3.767 -1.8976 -0.1836 -2.1343
 4815SOL     OW15022   6.373   6.581   2.073  0.2835 -0.0137  0.5275
 4815SOL    HW115023   6.349   6.523   2.001  1.0806  1.6572 -1.1712
 4815SOL    HW215024   6.325   6.662   2.055 -0.1812  0.1640  2.3910
 4816SOL     OW15025   5.675   9.801   6.152  0.2481 -0.3030 -0.2932
 4816SOL    HW115026   5.740   9.860   6.190  0.3737  0.2834 -1.3774
 4816SOL    HW215027   5.591   9.836   6.180  0.3695 -0.9848  1.0016
 4817SOL     OW15028   8.590   3.052   8.034  0.4180 -0.5217 -0.2206
 4817SOL    HW115029   8.572   2.959   8.051  0.7899 -0.3426  1.3399
 4817SOL    HW215030   8.511   3.097   8.063  0.6623 -0.2805  0.0829
 4818SOL     OW15031   3.251   8.042   4.435  0.1894  0.2389 -0.0235
 4818SOL    HW115032   3.215   8.129   4.419 -3.2457 -0.8227  1.0609
 4818SOL    HW215033   3.225   8.021   4.525  0.9022 -1.8961 -0.2619
 4819SOL     OW15034   4.154   5.759   4.298  0.1294  0.2256  0.4372
 4819SOL    HW115035   4.195   5.841   4.274 -0.2964  0.2155 -0.3900
 4819SOL    HW215036   4.213   5.691   4.265 -0.7162  0.2092 -1.1493
 4820SOL     OW15037   9.275   8.968   8.976  0.4712  0.2660 -0.1108
 4820SOL    HW115038   9.350   8.952   9.033 -0.1916 -0.7778  0.4970
 4820SOL    HW215039   9.314   8.985   8.890  1.3989 -0.5244  0.1326
 4821SOL     OW15040   9.580   5.277   2.263 -0.7068 -0.2082  0.4581
 4821SOL    HW115041   9.495   5.298   2.300 -0.4890  1.2306  0.2225
 4821SOL    HW215042   9.635   5.255   2.339 -1.2532 -1.0652  0.6146
 4822SOL     OW15043   5.019   8.936   8.485  0.0674 -0.4161 -0.2235
 4822SOL    HW115044   4.982   8.977   8.563 -0.3130 -3.2028  1.2161
 4822SOL    HW215045   5.081   9.000   8.450 -0.8740  1.5122  1.4802
 4823SOL     OW15046   9.201   6.171   7.392  0.3235  0.6319 -0.0398
 4823SOL    HW115047   9.120   6.144   7.435  1.0030  0.3279  1.0939
 4823SOL    HW215048   9.198   6.127   7.306  0.2369 -1.0888  0.7951
 4824SOL     OW15049   8.845   7.140   7.940  0.3597  0.0483 -0.2004
 4824SOL    HW115050   8.874   7.152   7.850 -0.3365 -1.7607 -0.7162
 4824SOL    HW215051   8.750   7.135   7.934  0.3856 -2.3681  0.2489
 4825SOL     OW15052   8.382   3.693   3.528 -0.1821 -0.0881  0.4406
 4825SOL    HW115053   8.432   3.771   3.553 -1.4775  0.3823  1.6723
 4825SOL    HW215054   8.360   3.652   3.611 -1.7949 -0.3073 -0.0770
 4826SOL     OW15055   7.004   0.598   1.998  0.1752  0.5843 -0.1245
 4826SOL    HW115056   7.028   0.670   2.057 -2.7209  1.8684 -0.3192
 4826SOL    HW215057   6.981   0.642   1.916 -0.9600 -0.6241 -0.4818
 4827SOL     OW15058   1.883   7.100   6.031 -0.2305 -0.4048  0.2692
 4827SOL    HW115059   1.927   7.078   6.113 -1.4375 -1.1144  0.7463
 4827SOL    HW215060   1.854   7.016   5.996 -0.0419 -0.0735 -0.7115
 4828SOL     OW15061   2.046   8.849   9.892  0.0177  0.1082  0.3265
 4828SOL    HW115062   2.066   8.815   9.805 -0.0002  0.5166  0.1593
 4828SOL    HW215063   2.112   8.811   9.949  0.7398  0.7496 -0.0688
 4829SOL     OW15064   0.161   3.816   0.617 -0.2152  0.1104  0.5709
 4829SOL    HW115065   0.204   3.817   0.703  3.6079 -0.4888 -1.1372
 4829SOL    HW215066   0.174   3.727   0.584 -2.1668  0.1399 -0.4586
 4830SOL     OW15067   8.276   6.773   6.375 -0.4707  0.1478 -0.7888
 4830SOL    HW115068   8.241   6.828   6.445 -1.8081  0.9799 -2.0629
 4830SOL    HW215069   8.371   6.787   6.380 -0.4008 -0.6626  1.5072
 4831SOL     OW15070   7.115   9.448   3.770  0.1116 -0.9461  0.4014
 4831SOL    HW115071   7.110   9.531   3.723 -2.8634 -1.1301  0.2207
 4831SOL    HW215072   7.207   9.423   3.764  0.5146  0.7340 -2.3432
 4832SOL     OW15073   9.818   1.329   5.708  0.4259 -0.7113 -0.0533
 4832SOL    HW115074   9.888   1.391   5.689  0.2192 -0.7048 -0.8300
 4832SOL    HW215075   9.785   1.303   5.622 -1.0159 -0.1678  0.3064
 4833SOL     OW15076   2.641   3.733   2.401 -0.9769  0.0711 -0.3518
 4833SOL    HW115077   2.615   3.719   2.310  0.1478 -1.0179 -0.5402
 4833SOL    HW215078   2.644   3.828   2.411 -1.8000  0.2051 -1.2310
 4834SOL     OW15079   2.289   9.460   2.827  0.0968 -0.1978  0.1841
 4834SOL    HW115080   2.384   9.456   2.836  0.5373  0.7721 -2.6599
 4834SOL    HW215081   2.274   9.541   2.777 -1.8841 -1.9413 -2.2804
 4835SOL     OW15082   1.936   1.248   6.619 -0.3846 -0.1863  0.3284
 4835SOL    HW115083   1.844   1.247   6.592 -0.9335  0.0295  2.1214
 4835SOL    HW215084   1.952   1.160   6.653  0.2672 -0.4170 -0.5376
 4836SOL     OW15085   0.952   9.459   8.433  0.2604 -0.0327 -0.1605
 4836SOL    HW115086   1.025   9.479   8.375 -0.9707  0.8118 -1.4891
 4836SOL    HW215087   0.882   9.519   8.406 -0.8949 -0.7315  1.1320
 4837SOL     OW15088   7.465   9.307   1.886  0.6615  0.0824 -0.6151
 4837SOL    HW115089   7.471   9.223   1.930 -0.7424 -0.1855 -0.8681
 4837SOL    HW215090   7.388   9.299   1.829  0.5707  1.4865 -0.7464
 4838SOL     OW15091   1.101   8.657   7.647  0.3240  0.2046 -0.1348
 4838SOL    HW115092   1.179   8.627   7.600  0.7889 -0.4670  1.0140
 4838SOL    HW215093   1.046   8.580   7.654 -0.3250  0.6098 -0.6838
 4839SOL     OW15094   7.790   4.297   1.181 -0.0490  0.0676 -0.0802
 4839SOL    HW115095   7.700   4.265   1.190  0.2943 -0.5244  1.5553
 4839SOL    HW215096   7.815   4.273   1.092 -0.8745 -1.4491  0.0579
 4840SOL     OW15097   0.572   2.033   5.790 -0.6013 -0.9317 -0.0672
 4840SOL    HW115098   0.507   1.996   5.849 -1.1699 -1.9681 -1.3301
 4840SOL    HW215099   0.547   2.004   5.703  0.3202  0.4417 -0.8352
 4841SOL     OW15100   0.573   2.965   2.235 -0.0617  0.0525 -0.3148
 4841SOL    HW115101   0.527   3.040   2.198  0.9048  0.6917 -0.2362
 4841SOL    HW215102   0.664   2.994   2.244 -0.2152 -0.0758  2.4823
 4842SOL     OW15103   8.632   5.125   9.624 -0.4185  0.3750 -0.8254
 4842SOL    HW115104   8.615   5.074   9.702  0.1112  1.8920  0.3405
 4842SOL    HW215105   8.699   5.076   9.577 -0.1258 -0.1436  0.1128
 4843SOL     OW15106   4.256   4.080   5.228 -0.2246 -0.7197 -0.1173
 4843SOL    HW115107   4.313   4.061   5.153 -1.3199 -1.8156 -0.7035
 4843SOL    HW215108   4.315   4.119   5.292  1.1460 -1.5013 -0.8319
 4844SOL     OW15109   3.479   7.517   3.035 -0.0254  0.1122  0.5080
 4844SOL    HW115110   3.487   7.466   3.116 -0.0175  0.8849  0.9964
 4844SOL    HW215111   3.560   7.497   2.987  0.7373  0.9216  1.4313
 4845SOL     OW15112   0.030   9.637   8.537 -0.3331  0.1080  0.1428
 4845SOL    HW115113  -0.014   9.554   8.519 -0.8193  0.0407  1.4784
 4845SOL    HW215114  -0.004   9.697   8.470 -2.2922 -0.0257  0.9425
 4846SOL     OW15115   3.008   9.273   7.634  0.6056 -0.1467 -0.1652
 4846SOL    HW115116   2.947   9.338   7.599  0.2968 -0.5424 -0.3576
 4846SOL    HW215117   3.076   9.326   7.677  0.7383  0.3358 -0.9408
 4847SOL     OW15118   6.253   9.595   2.274  0.1126 -0.5613  0.3077
 4847SOL    HW115119   6.203   9.534   2.219  1.3061 -0.6129 -0.7640
 4847SOL    HW215120   6.317   9.540   2.318  1.1014 -0.1360 -0.5567
 4848SOL     OW15121   0.161   8.213   4.709  0.7793  0.1403 -0.1975
 4848SOL    HW115122   0.233   8.178   4.657  4.5418  2.6732  2.7241
 4848SOL    HW215123   0.184   8.306   4.721 -2.9969  1.0683  1.0376
 4849SOL     OW15124   7.657   2.981   4.911  0.1244  0.6100  0.5527
 4849SOL    HW115125   7.695   2.990   4.824  1.8923 -0.1396  1.1992
 4849SOL    HW215126   7.691   3.057   4.960 -0.2237  0.6026  0.8104
 4850SOL     OW15127   9.624   2.725   8.284  0.3059 -0.0533 -0.5164
 4850SOL    HW115128   9.699   2.738   8.226  0.4581 -2.4056 -0.9548
 4850SOL    HW215129   9.590   2.813   8.301  2.8287  1.0237 -0.7317
 4851SOL     OW15130   0.367   7.047   7.500  0.4501  0.1546 -0.1254
 4851SOL    HW115131   0.399   6.967   7.458  0.8250  0.4070 -0.3280
 4851SOL    HW215132   0.398   7.041   7.591  0.1926 -0.0885 -0.0555
 4852SOL     OW15133   4.816   5.824   0.113  0.0069  0.1189 -0.1423
 4852SOL    HW115134   4.854   5.913   0.112  1.8686 -0.6252 -0.2563
 4852SOL    HW215135   4.859   5.781   0.187  1.6514 -1.6664 -1.9993
 4853SOL     OW15136   9.021   1.118   6.303  0.3838 -0.0874 -0.2314
 4853SOL    HW115137   8.982   1.095   6.387  0.9462 -0.5805 -0.0966
 4853SOL    HW215138   8.961   1.081   6.238 -0.9040  1.6433 -0.1124
 4854SOL     OW15139   3.073   8.830   2.970  0.0689 -0.0986  0.2509
 4854SOL    HW115140   3.041   8.836   3.060 -1.0393 -0.3894 -0.1020
 4854SOL    HW215141   3.154   8.780   2.976 -0.6269 -1.1769  0.9511
 4855SOL     OW15142   2.708   9.264   0.158 -0.0867 -0.0631  0.7336
 4855SOL    HW115143   2.626   9.290   0.117  0.2694 -1.5296 -1.0148
 4855SOL    HW215144   2.688   9.262   0.252 -1.9801 -0.1896  0.3664
 4856SOL     OW15145   1.805   4.955   7.509 -0.6354 -0.1957  0.1964
 4856SOL    HW115146   1.842   4.868   7.524 -0.6779 -0.3825 -0.7239
 4856SOL    HW215147   1.848   5.011   7.574 -1.6490 -1.1673  1.7419
 4857SOL     OW15148   8.193   5.378   8.749 -0.6245 -0.2624 -0.3838
 4857SOL    HW115149   8.208   5.408   8.839 -2.7342  0.0975 -0.1000
 4857SOL    HW215150   8.274   5.399   8.703  0.6666 -0.7975  1.5018
 4858SOL     OW15151   3.999   3.722   4.948  0.4325  0.5088  0.3565
 4858SOL    HW115152   3.905   3.720   4.960  0.4452 -0.0721  0.4100
 4858SOL    HW215153   4.015   3.660   4.876  0.5636  2.2576 -1.1944
 4859SOL     OW15154   9.656   3.311   9.140  0.5120  0.0866 -0.3867
 4859SOL    HW115155   9.589   3.370   9.174  0.9127 -1.3356  3.3078
 4859SOL    HW215156   9.731   3.369   9.121 -0.2926  1.1799 -0.3294
 4860SOL     OW15157   7.329   3.155   4.512  0.3891  0.1750  1.3644
 4860SOL    HW115158   7.288   3.072   4.491 -2.0480  1.7927 -1.0340
 4860SOL    HW215159   7.421   3.142   4.489  0.6559 -2.4851  3.4326
 4861SOL     OW15160   0.312   0.082   7.831 -0.2255 -0.6433  0.3808
 4861SOL    HW115161   0.349   0.128   7.907  0.5599 -0.6577  0.0073
 4861SOL    HW215162   0.225   0.055   7.860  0.1117 -0.7501  1.3239
 4862SOL     OW15163   4.167   5.514   0.850 -0.3123 -0.1211 -0.3043
 4862SOL    HW115164   4.185   5.514   0.756 -0.5872  2.3503 -0.4137
 4862SOL    HW215165   4.182   5.423   0.877  3.2716 -0.2584 -2.0766
 4863SOL     OW15166   7.325   1.886   7.741 -0.0290 -0.0894  0.8316
 4863SOL    HW115167   7.385   1.853   7.808  0.0853 -0.4042  0.5781
 4863SOL    HW215168   7.314   1.813   7.680  0.7661  0.5451 -0.1155
 4864SOL     OW15169   8.029   8.450   7.969  1.0708 -0.6621 -0.2438
 4864SOL    HW115170   8.004   8.444   8.061  0.9199 -2.0550 -0.3533
 4864SOL    HW215171   8.071   8.366   7.950  0.8673 -0.5012 -1.5109
 4865SOL     OW15172   6.370   3.422   2.227  0.1981 -0.0041  0.5720
 4865SOL    HW115173   6.346   3.512   2.251  1.0280  0.4910 -0.3412
 4865SOL    HW215174   6.332   3.368   2.295  1.6459  1.2348  2.4900
 4866SOL     OW15175   6.280   2.399   6.116 -0.1865 -0.0439 -0.3284
 4866SOL    HW115176   6.315   2.314   6.090 -1.9215 -0.3578 -1.8538
 4866SOL    HW215177   6.302   2.407   6.208 -2.5484 -3.5417  0.7139
 4867SOL     OW15178   4.209   2.193   1.208  0.6022 -0.4297 -0.1638
 4867SOL    HW115179   4.146   2.255   1.245  0.5509  0.2218 -1.2900
 4867SOL    HW215180   4.294   2.237   1.219  1.0728 -1.7641  2.3355
 4868SOL     OW15181   4.430   2.608   1.246 -0.0250 -0.4625 -0.1639
 4868SOL    HW115182   4.379   2.678   1.286  1.1851  0.5718 -0.3647
 4868SOL    HW215183   4.454   2.551   1.319  0.2251  0.1567  0.2477
 4869SOL     OW15184   0.247   6.851   7.120  0.3383 -0.4231  0.0799
 4869SOL    HW115185   0.282   6.872   7.033 -1.1413  2.1117 -0.0157
 4869SOL    HW215186   0.324   6.848   7.176  1.1052  1.0082 -0.8110
 4870SOL     OW15187   4.580   8.403   8.549  0.4537 -0.6710 -0.5934
 4870SOL    HW115188   4.504   8.363   8.590  0.7024 -1.5479 -0.9741
 4870SOL    HW215189   4.568   8.389   8.455  0.5793  0.0924 -0.7297
 4871SOL     OW15190   8.445   8.958   7.268 -0.0756  0.0102  0.6351
 4871SOL    HW115191   8.456   8.864   7.254  1.4841  0.4426 -1.5456
 4871SOL    HW215192   8.409   8.991   7.185  1.4323  1.6064  0.5524
 4872SOL     OW15193   1.719   4.313   4.462 -0.3683  0.3202 -0.4198
 4872SOL    HW115194   1.803   4.276   4.488 -0.0438 -0.1633 -2.0228
 4872SOL    HW215195   1.742   4.378   4.395 -1.2977 -0.2854 -1.3514
 4873SOL     OW15196   6.577   0.076   7.237  0.6132  0.0455 -0.5107
 4873SOL    HW115197   6.569   0.168   7.212 -0.0631 -0.4929 -2.4259
 4873SOL    HW215198   6.656   0.045   7.192  0.7719 -0.3387  0.0211
 4874SOL     OW15199   5.757   3.791   7.503  0.3319  0.0337 -0.4702
 4874SOL    HW115200   5.739   3.849   7.576 -0.6146 -1.4906  0.5656
 4874SOL    HW215201   5.738   3.843   7.425 -2.9856  0.4009  0.4385
 4875SOL     OW15202   5.252   0.080   2.813 -0.2363  0.0605 -0.1524
 4875SOL    HW115203   5.163   0.068   2.779  0.5205 -1.1187 -1.8373
 4875SOL    HW215204   5.268   0.003   2.867  0.9479 -1.5697 -2.6721
 4876SOL     OW15205   7.801   9.391   6.358  0.1992 -0.5630 -0.1067
 4876SOL    HW115206   7.760   9.372   6.274 -0.2264 -1.1675  0.2306
 4876SOL    HW215207   7.883   9.340   6.357  0.2791 -0.4302 -0.2290
 4877SOL     OW15208   5.374   6.962   4.217 -0.5588  0.0456  0.1507
 4877SOL    HW115209   5.388   7.053   4.240 -0.9750 -0.0595  0.8492
 4877SOL    HW215210   5.313   6.929   4.283 -0.2280 -0.8039  0.0534
 4878SOL     OW15211   2.820   6.543   7.574 -0.1189 -0.0812  0.2673
 4878SOL    HW115212   2.829   6.636   7.594 -1.1242  0.3487 -1.1424
 4878SOL    HW215213   2.747   6.513   7.628 -1.2295  0.4932 -0.8743
 4879SOL     OW15214   3.529   5.793   8.286  0.1637 -0.3306  0.0913
 4879SOL    HW115215   3.551   5.704   8.260 -0.0311 -0.0510 -1.0621
 4879SOL    HW215216   3.447   5.812   8.241 -0.1225  0.2227  0.8228
 4880SOL     OW15217   7.140   8.835   1.509 -0.4678 -0.4073 -0.2012
 4880SOL    HW115218   7.139   8.741   1.494 -1.7934 -0.3840 -0.2937
 4880SOL    HW215219   7.053   8.865   1.485  0.9212  1.3974 -3.6502
 4881SOL     OW15220   3.290   4.856   8.232  0.4762 -0.1932 -0.0458
 4881SOL    HW115221   3.231   4.797   8.279  2.2939 -1.3863  0.8324
 4881SOL    HW215222   3.321   4.917   8.300 -0.2842  0.9041 -0.6572
 4882SOL     OW15223   7.101   3.414   2.578 -0.5161  0.0873  0.0622
 4882SOL    HW115224   7.123   3.393   2.488 -0.9014  0.5315 -0.1369
 4882SOL    HW215225   7.028   3.356   2.600  0.1291 -0.6276  0.3744
 4883SOL     OW15226   1.919   5.199   8.490  0.5223 -0.1832  0.6244
 4883SOL    HW115227   1.859   5.137   8.531  1.9452 -2.3621 -0.4171
 4883SOL    HW215228   1.961   5.245   8.563 -0.2803 -0.7204  1.4307
 4884SOL     OW15229   0.334   0.756   9.772 -0.5474 -0.3393  0.5266
 4884SOL    HW115230   0.297   0.682   9.723  4.1819 -0.0335 -4.4687
 4884SOL    HW215231   0.315   0.832   9.717  2.4153  0.5879  0.6293
 4885SOL     OW15232   4.372   5.140   2.707 -0.2027  0.3721  0.1258
 4885SOL    HW115233   4.404   5.203   2.643 -0.1425 -0.3330 -0.5571
 4885SOL    HW215234   4.371   5.188   2.790 -0.2806  1.3015 -0.3957
 4886SOL     OW15235   2.006   5.530   1.166 -0.0963 -0.1739  0.1337
 4886SOL    HW115236   1.992   5.525   1.261 -0.3179 -0.0640  0.1084
 4886SOL    HW215237   2.081   5.474   1.150  0.3740  0.3470  0.4685
 4887SOL     OW15238   9.658   0.382   3.106 -0.6991 -0.3756  0.0176
 4887SOL    HW115239   9.634   0.293   3.079  1.2692 -0.8357 -0.3334
 4887SOL    HW215240   9.740   0.400   3.061 -2.3125  2.6925 -2.0610
 4888SOL     OW15241   0.104   4.429   3.291  0.0531 -0.0589 -0.2255
 4888SOL    HW115242   0.056   4.441   3.373 -0.1474 -0.2981 -0.3071
 4888SOL    HW215243   0.078   4.504   3.237 -0.7935 -0.5647 -0.5397
 4889SOL     OW15244   8.542   6.397   0.970  0.5150 -0.1693 -0.2743
 4889SOL    HW115245   8.501   6.311   0.962  2.1019 -1.1823  1.5277
 4889SOL    HW215246   8.508   6.432   1.052  0.4381  0.6254 -0.6324
 4890SOL     OW15247   5.762   3.706   1.681 -0.6791 -0.3482  0.1540
 4890SOL    HW115248   5.840   3.738   1.727 -0.4185  0.2556 -0.6916
 4890SOL    HW215249   5.701   3.684   1.751 -0.7149  1.6161  0.7992
 4891SOL     OW15250   4.080   3.884   0.086 -0.0214  0.0043 -0.1368
 4891SOL    HW115251   4.010   3.834   0.129 -1.6374  0.3335 -2.2172
 4891SOL    HW215252   4.038   3.920   0.007  1.9215  2.0996 -0.2884
 4892SOL     OW15253   9.113   7.083   9.657  0.2359  0.2672  0.1267
 4892SOL    HW115254   9.123   7.116   9.747 -0.5662 -0.3663  0.4643
 4892SOL    HW215255   9.171   7.006   9.653 -1.3786 -1.0562  0.8432
 4893SOL     OW15256   5.953   0.086   9.679  0.5724  0.6778  0.2000
 4893SOL    HW115257   5.927  -0.002   9.652  0.6098  0.5746  0.5004
 4893SOL    HW215258   6.049   0.083   9.681  0.6124  0.9643 -0.5880
 4894SOL     OW15259   0.541   1.079   0.669 -0.5524 -0.2013  0.6040
 4894SOL    HW115260   0.532   1.161   0.717  1.1965  2.3670 -2.9478
 4894SOL    HW215261   0.465   1.077   0.611  0.3557  0.0313 -0.6582
 4895SOL     OW15262   2.889   1.225   6.260  0.0781  0.2963  0.3087
 4895SOL    HW115263   2.811   1.274   6.285  1.0696  2.0747  0.0881
 4895SOL    HW215264   2.938   1.215   6.342  0.8663  1.5623  0.0164
 4896SOL     OW15265   6.372   2.462   9.165 -0.0869  0.5134  0.3069
 4896SOL    HW115266   6.457   2.487   9.128 -0.5496  0.9796 -0.4483
 4896SOL    HW215267   6.316   2.447   9.089 -1.1587  1.8427  0.7964
 4897SOL     OW15268   7.636   7.375   7.700  0.0026 -0.3481 -0.2548
 4897SOL    HW115269   7.646   7.296   7.648  1.8073 -1.9339  2.2979
 4897SOL    HW215270   7.690   7.440   7.655  1.0584 -1.4981 -0.6990
 4898SOL     OW15271   1.413   6.800   2.156 -0.2123  0.4208 -0.1220
 4898SOL    HW115272   1.398   6.889   2.126  0.5444  0.5954 -0.0170
 4898SOL    HW215273   1.474   6.809   2.229  2.5144 -0.3513 -2.1218
 4899SOL     OW15274   8.215   5.217   7.433 -0.4122 -0.2623 -0.1017
 4899SOL    HW115275   8.151   5.245   7.498 -0.6255 -0.8280 -0.0581
 4899SOL    HW215276   8.300   5.228   7.476 -0.6321 -3.0246  1.2867
 4900SOL     OW15277   0.628   5.647   5.986  0.2480 -0.3021  0.0479
 4900SOL    HW115278   0.611   5.735   5.952  1.1936 -0.8561 -2.0242
 4900SOL    HW215279   0.603   5.589   5.914  1.3158 -1.6397  0.7150
 4901SOL     OW15280   6.406   8.742   8.212  0.1509  0.2368 -0.0852
 4901SOL    HW115281   6.472   8.674   8.220  0.0531  0.2734  1.5250
 4901SOL    HW215282   6.323   8.697   8.228  0.1030  0.7226  1.2115
 4902SOL     OW15283   8.925   0.720   0.734  0.6012 -0.1114 -0.4018
 4902SOL    HW115284   8.890   0.694   0.649 -0.9021 -0.1968  0.2076
 4902SOL    HW215285   8.943   0.637   0.778 -0.3559 -0.1145  0.0210
 4903SOL     OW15286   7.317   0.759   5.173 -0.5689  0.7322  0.0020
 4903SOL    HW115287   7.261   0.814   5.228  0.2549  1.9452 -0.3208
 4903SOL    HW215288   7.401   0.756   5.219 -0.1227  1.0731 -0.7737
 4904SOL     OW15289   9.801   2.953   0.581  0.5838 -0.1128  0.3563
 4904SOL    HW115290   9.807   3.048   0.586 -0.3242  0.0050 -0.5423
 4904SOL    HW215291   9.891   2.922   0.596  0.7820  0.8471  1.2103
 4905SOL     OW15292   5.204   2.638   9.009  0.7732  0.4737  0.4830
 4905SOL    HW115293   5.227   2.565   8.952  0.9508 -0.4795  1.7210
 4905SOL    HW215294   5.196   2.713   8.951 -1.1746 -0.8714 -1.1032
 4906SOL     OW15295   6.935   5.231   3.202  0.0287 -0.0935  0.3455
 4906SOL    HW115296   6.866   5.184   3.249 -0.0849  0.8969  1.2279
 4906SOL    HW215297   6.891   5.267   3.125 -0.7828  1.4628  1.4614
 4907SOL     OW15298   3.956   0.908   7.016 -0.1529  0.1532  0.5376
 4907SOL    HW115299   4.021   0.839   7.004  1.4163  1.5031  0.8943
 4907SOL    HW215300   3.922   0.924   6.928  1.7196  1.0101 -0.0722
 4908SOL     OW15301   8.306   3.472   5.199  0.1032 -0.4257  0.3190
 4908SOL    HW115302   8.294   3.379   5.218  0.2409 -0.6912 -0.7959
 4908SOL    HW215303   8.300   3.478   5.104 -3.0835  1.1781  0.4674
 4909SOL     OW15304   6.808   9.055   7.225 -0.3099  0.0395 -0.9235
 4909SOL    HW115305   6.875   9.012   7.279 -0.6281  1.0014  0.2988
 4909SOL    HW215306   6.727   9.044   7.276 -0.2970  2.5423 -0.2449
 4910SOL     OW15307   9.821   9.739   1.851  0.2162 -0.0546 -0.2502
 4910SOL    HW115308   9.826   9.699   1.765 -0.1917 -0.0593 -0.2752
 4910SOL    HW215309   9.766   9.680   1.903 -0.4041  0.4643 -0.2919
 4911SOL     OW15310   0.346   5.849   7.668 -0.2380 -0.0095  0.4245
 4911SOL    HW115311   0.431   5.861   7.626 -0.5463 -0.6883 -0.4351
 4911SOL    HW215312   0.327   5.933   7.709 -1.2565  1.7755 -3.2789
 4912SOL     OW15313   3.753   8.210   7.642  0.7610  0.4559  0.1121
 4912SOL    HW115314   3.815   8.280   7.623  1.4704  0.5416  2.4305
 4912SOL    HW215315   3.668   8.254   7.645  1.1606  1.2144  1.2307
 4913SOL     OW15316   5.243   3.581   7.047  0.2498 -0.2124 -0.1728
 4913SOL    HW115317   5.244   3.664   6.998 -0.8415 -0.5702 -0.8276
 4913SOL    HW215318   5.294   3.600   7.125 -1.1147  1.5360  0.3819
 4914SOL     OW15319   1.608   6.896   5.842 -0.1465  0.2830  0.0344
 4914SOL    HW115320   1.555   6.819   5.864 -0.6683  0.3127 -1.0601
 4914SOL    HW215321   1.696   6.873   5.871 -0.0041 -1.3238 -1.4947
 4915SOL     OW15322   1.243   8.420   0.474 -0.1210 -0.4943 -0.1432
 4915SOL    HW115323   1.216   8.504   0.511 -1.0877 -1.1336  0.6660
 4915SOL    HW215324   1.308   8.442   0.407  0.3812  0.8169  0.7499
 4916SOL     OW15325   7.771  -0.023   4.535 -0.0643 -0.0724  0.0336
 4916SOL    HW115326   7.776   0.036   4.609  0.1061  0.8991 -0.7295
 4916SOL    HW215327   7.811   0.025   4.462 -0.0627 -1.0600 -0.6529
 4917SOL     OW15328   0.739   1.582   0.454 -0.0872  0.0451 -0.0323
 4917SOL    HW115329   0.649   1.556   0.476  0.0291  0.2955  0.7573
 4917SOL    HW215330   0.781   1.598   0.538  0.4615  0.7423 -0.4236
 4918SOL     OW15331   5.924   0.235   3.130  0.4232 -0.5430  0.0775
 4918SOL    HW115332   5.879   0.156   3.162 -0.7436 -0.0086 -0.2044
 4918SOL    HW215333   5.930   0.291   3.208 -0.1657 -0.2769 -0.0592
 4919SOL     OW15334   5.232   7.133   9.046 -0.1666  0.8530 -0.0980
 4919SOL    HW115335   5.224   7.138   8.951 -1.2329 -0.1019 -0.0810
 4919SOL    HW215336   5.320   7.099   9.062  0.9136  3.1728 -0.6388
 4920SOL     OW15337   9.894   2.819   4.273  0.1334 -0.0286  0.0645
 4920SOL    HW115338   9.896   2.821   4.369 -5.2530 -0.2533  0.4621
 4920SOL    HW215339   9.922   2.730   4.251 -0.4664 -0.6329  1.6160
 4921SOL     OW15340   9.568   7.116   3.755  1.3571  0.2760  0.1313
 4921SOL    HW115341   9.593   7.108   3.847  0.4916  0.7481  0.4151
 4921SOL    HW215342   9.498   7.181   3.754 -0.5311 -1.6641 -0.5133
 4922SOL     OW15343   4.154   0.405   7.272  0.3524 -0.3691 -0.0767
 4922SOL    HW115344   4.133   0.497   7.259  1.2845 -0.2498 -0.8696
 4922SOL    HW215345   4.125   0.361   7.193 -0.1427 -0.7783  0.3225
 4923SOL     OW15346   4.299   1.816   1.722 -0.3556 -0.3720 -0.4302
 4923SOL    HW115347   4.338   1.757   1.787  0.4134  0.5940  0.0031
 4923SOL    HW215348   4.374   1.861   1.683 -0.8810 -0.2567 -1.3226
 4924SOL     OW15349   1.587   7.052   6.340  0.0134  0.3325 -0.3551
 4924SOL    HW115350   1.546   6.975   6.378  1.0375 -0.3680 -0.6447
 4924SOL    HW215351   1.545   7.061   6.254  0.1196 -0.0875 -0.4528
 4925SOL     OW15352   0.626   3.751   4.179 -0.4462  0.0758  0.2515
 4925SOL    HW115353   0.633   3.832   4.231 -1.2902 -0.4867  1.3032
 4925SOL    HW215354   0.705   3.702   4.201  1.8413  1.9366 -2.9516
 4926SOL     OW15355   9.197   8.599   3.439 -0.0707 -0.4951  0.2480
 4926SOL    HW115356   9.286   8.562   3.442 -1.3286 -3.8500  2.9927
 4926SOL    HW215357   9.191   8.652   3.518 -0.4063  0.0785 -0.1594
 4927SOL     OW15358   4.115   3.617   4.727 -0.5952 -0.1579 -0.1060
 4927SOL    HW115359   4.121   3.643   4.635  0.5797  2.6859  0.6609
 4927SOL    HW215360   4.202   3.636   4.762 -1.0557 -1.1112  1.6339
 4928SOL     OW15361   9.039   4.203   8.274  0.1779 -0.4454  0.1548
 4928SOL    HW115362   9.080   4.174   8.192  1.2485  2.9289 -0.6989
 4928SOL    HW215363   9.110   4.200   8.338  0.9374  1.9898 -0.4566
 4929SOL     OW15364   0.900   1.629   3.838  0.3466 -0.1573 -0.0700
 4929SOL    HW115365   0.952   1.708   3.850 -1.9621  1.2494  1.8004
 4929SOL    HW215366   0.893   1.592   3.926 -0.2399 -1.3330 -0.5960
 4930SOL     OW15367   1.386   9.496   8.320 -0.0274 -0.0411 -0.1024
 4930SOL    HW115368   1.366   9.402   8.326 -1.1044  0.2628  2.1054
 4930SOL    HW215369   1.301   9.538   8.311  0.3023  0.8027  0.5654
 4931SOL     OW15370   9.208   4.799   5.383  0.3245 -0.2696 -0.4520
 4931SOL    HW115371   9.300   4.771   5.373  0.7874  0.8913  0.3716
 4931SOL    HW215372   9.181   4.763   5.467  0.2938  0.0749 -0.3115
 4932SOL     OW15373   0.110   4.291   9.502  0.2245  1.0111 -0.1013
 4932SOL    HW115374   0.047   4.225   9.471 -0.0143  0.5881  1.2319
 4932SOL    HW215375   0.189   4.274   9.450  0.6134 -1.2113  1.0840
 4933SOL     OW15376   9.749   3.860   0.631 -0.6772 -0.0542 -0.3773
 4933SOL    HW115377   9.691   3.937   0.635 -0.2831  0.2183  0.1450
 4933SOL    HW215378   9.786   3.853   0.719 -0.8722 -0.9765 -0.3625
 4934SOL     OW15379   6.998   3.130   1.525  0.0195  0.3730 -0.5204
 4934SOL    HW115380   6.927   3.107   1.584  0.2384  2.4165  0.6233
 4934SOL    HW215381   7.078   3.111   1.575  0.3297 -1.1894 -1.5148
 4935SOL     OW15382   7.991   7.308   5.978  0.4776 -0.1148  0.4850
 4935SOL    HW115383   8.016   7.223   6.013 -3.3199 -1.7897 -0.2553
 4935SOL    HW215384   7.908   7.329   6.022  1.4677  3.4948  0.9547
 4936SOL     OW15385   2.209   6.101   1.494  0.5246  0.7024  0.0796
 4936SOL    HW115386   2.226   6.030   1.432  2.2360  1.8285 -0.8085
 4936SOL    HW215387   2.120   6.085   1.524  0.4544 -1.1677 -0.9428
 4937SOL     OW15388   9.354   1.317   7.579  0.4687  0.2452 -0.8174
 4937SOL    HW115389   9.337   1.359   7.494  0.6796  0.5188 -0.7284
 4937SOL    HW215390   9.323   1.381   7.643 -0.9737 -0.5333 -0.6948
 4938SOL     OW15391   4.221   4.517   2.363  0.1187 -0.2944 -0.8616
 4938SOL    HW115392   4.132   4.490   2.387  0.6411 -0.0301  1.6474
 4938SOL    HW215393   4.276   4.444   2.390  1.0388  1.1548  1.4853
 4939SOL     OW15394   8.108   7.069   2.892 -0.5288  0.4837 -0.6369
 4939SOL    HW115395   8.152   7.016   2.958 -1.4428 -0.8656 -1.0832
 4939SOL    HW215396   8.134   7.159   2.913 -0.9175  0.1219  1.6582
 4940SOL     OW15397   5.948   3.734   4.824 -0.0570 -0.9674 -0.3036
 4940SOL    HW115398   6.005   3.720   4.899  0.0232 -1.1848 -0.4035
 4940SOL    HW215399   5.952   3.828   4.806 -0.7175 -0.7773  0.4774
 4941SOL     OW15400   9.242   5.372   7.767 -0.4131 -0.5938 -0.0891
 4941SOL    HW115401   9.319   5.332   7.808 -0.0122  0.5509  0.3134
 4941SOL    HW215402   9.219   5.445   7.824 -1.3064 -0.4252 -0.6427
 4942SOL     OW15403   5.791   9.596   4.452 -0.1534 -0.6068  0.1176
 4942SOL    HW115404   5.785   9.500   4.451 -1.2141 -0.5525  0.2504
 4942SOL    HW215405   5.805   9.618   4.543  1.1937 -0.6795 -0.0553
 4943SOL     OW15406   7.016   9.703   3.100 -0.0406 -0.1325 -0.3095
 4943SOL    HW115407   6.945   9.748   3.053 -0.3929  0.6309  0.9169
 4943SOL    HW215408   6.999   9.610   3.083 -0.2334  0.1032 -1.5641
 4944SOL     OW15409   0.509   9.555   6.521  0.8829 -0.4752  0.4241
 4944SOL    HW115410   0.464   9.501   6.585 -0.0801 -1.8423 -1.3161
 4944SOL    HW215411   0.498   9.509   6.438  1.3996  1.5893 -0.8862
 4945SOL     OW15412   6.209   3.499   8.335  0.2128 -0.0796  0.0913
 4945SOL    HW115413   6.251   3.578   8.300  0.0235  0.2729  0.6350
 4945SOL    HW215414   6.246   3.490   8.423  0.5821 -0.8714 -0.1362
 4946SOL     OW15415   7.810   3.863   9.753 -0.2874  0.2646 -0.5347
 4946SOL    HW115416   7.858   3.931   9.801  0.8095  0.2041 -1.5095
 4946SOL    HW215417   7.723   3.863   9.793  0.4458  0.5037  1.1724
 4947SOL     OW15418   6.756   8.860   0.480 -0.2929 -0.0617  0.2458
 4947SOL    HW115419   6.710   8.921   0.538  0.4032  1.1840 -0.4704
 4947SOL    HW215420   6.692   8.835   0.415 -0.3672  0.5738  0.0632
 4948SOL     OW15421   4.132   6.292   4.234  0.0260 -0.0187 -0.1635
 4948SOL    HW115422   4.126   6.309   4.328  1.9259  0.0565 -0.0341
 4948SOL    HW215423   4.130   6.379   4.194 -1.0218 -0.0613 -0.2304
 4949SOL     OW15424   8.282   4.134   9.101 -0.1474 -0.0398  0.0190
 4949SOL    HW115425   8.231   4.175   9.031  0.7660 -0.3199 -0.8191
 4949SOL    HW215426   8.292   4.204   9.166  1.1965  1.0626 -1.2926
 4950SOL     OW15427   1.681   4.023   1.126  0.3506 -0.0392  0.2418
 4950SOL    HW115428   1.730   4.098   1.160  0.3036 -0.2398  0.7678
 4950SOL    HW215429   1.589   4.048   1.137  0.3225  0.3385 -0.7482
 4951SOL     OW15430   1.786   2.010   5.528  0.4152  0.3220  0.5681
 4951SOL    HW115431   1.858   1.948   5.517  1.8631  1.8634  0.9372
 4951SOL    HW215432   1.743   1.983   5.609 -0.0732 -1.2076 -0.1705
 4952SOL     OW15433   7.212   6.469   1.049 -0.0919  0.3391 -0.3011
 4952SOL    HW115434   7.252   6.533   1.108  1.0570 -0.1983 -0.4531
 4952SOL    HW215435   7.268   6.391   1.058 -0.5117 -0.0920 -1.3164
 4953SOL     OW15436   2.284   6.764   8.375 -0.1949  0.1390 -0.3730
 4953SOL    HW115437   2.203   6.812   8.362 -0.9301 -0.5874  1.2746
 4953SOL    HW215438   2.283   6.697   8.307 -1.1159 -0.0234 -0.2114
 4954SOL     OW15439   7.923   1.137   2.548  0.1296 -0.0649  0.5089
 4954SOL    HW115440   8.010   1.177   2.543 -0.4418  1.4134  1.7340
 4954SOL    HW215441   7.864   1.210   2.568 -1.1854 -1.2685  1.2069
 4955SOL     OW15442   1.236   4.290   6.437  0.1583 -0.0744  0.4538
 4955SOL    HW115443   1.253   4.353   6.508 -0.1876 -0.7581  1.1576
 4955SOL    HW215444   1.295   4.317   6.367 -1.3234  2.2094 -0.0061
 4956SOL     OW15445   0.965   1.780   9.231 -0.1704  0.0402 -0.4474
 4956SOL    HW115446   0.873   1.773   9.208 -0.1883 -1.3409 -0.0506
 4956SOL    HW215447   0.967   1.844   9.302 -0.2476  3.4729 -3.2457
 4957SOL     OW15448   9.855   1.467   6.224  0.9761 -0.0680 -0.5677
 4957SOL    HW115449   9.910   1.437   6.151  0.0677 -1.3720 -0.7581
 4957SOL    HW215450   9.917   1.504   6.287  1.9164 -0.1773 -1.3942
 4958SOL     OW15451   1.136   4.294   7.130 -0.1279  0.0119  0.3331
 4958SOL    HW115452   1.101   4.361   7.070  0.0129 -0.4774 -0.3004
 4958SOL    HW215453   1.169   4.344   7.205 -0.2825  0.6332 -0.0077
 4959SOL     OW15454   0.441   3.647   0.610  0.7930 -0.2949  0.4587
 4959SOL    HW115455   0.436   3.734   0.568  1.7066 -0.1967  0.5413
 4959SOL    HW215456   0.488   3.593   0.546  0.8018 -0.5553  0.6865
 4960SOL     OW15457   5.846   1.006   7.294 -0.6174  0.3020  0.1423
 4960SOL    HW115458   5.874   0.925   7.251 -2.5356 -1.6434  2.2484
 4960SOL    HW215459   5.928   1.052   7.312  0.6106 -1.4206 -0.6804
 4961SOL     OW15460   2.981   5.500   0.434  0.2199 -0.0657 -0.1392
 4961SOL    HW115461   2.984   5.530   0.343 -0.5211 -1.4640 -0.6525
 4961SOL    HW215462   2.900   5.536   0.470  0.1237 -0.1512 -0.2714
 4962SOL     OW15463   9.932   0.321   8.225  0.8587 -0.8363 -0.7072
 4962SOL    HW115464   9.861   0.280   8.273  0.8611 -1.0395 -0.8740
 4962SOL    HW215465   9.911   0.306   8.133  0.3773  0.3344 -0.8105
 4963SOL     OW15466   4.567   9.589   6.900  1.2603 -0.4828 -0.6014
 4963SOL    HW115467   4.626   9.576   6.974  1.4529 -0.2139 -0.7072
 4963SOL    HW215468   4.612   9.652   6.844 -0.1852  1.6766  0.5154
 4964SOL     OW15469   8.192   8.255   8.428  0.5852  0.2012 -0.4864
 4964SOL    HW115470   8.273   8.228   8.471 -0.6616  0.0150  1.9313
 4964SOL    HW215471   8.201   8.350   8.417  1.1681  0.1697 -0.2992
 4965SOL     OW15472   1.722   2.019   4.489 -0.6113 -0.1226 -0.2242
 4965SOL    HW115473   1.736   2.069   4.408 -0.4222 -0.0683 -0.1590
 4965SOL    HW215474   1.683   2.081   4.550 -0.3681 -0.0500 -0.1401
 4966SOL     OW15475   5.502   9.688   2.177 -0.3289 -0.1241 -0.0854
 4966SOL    HW115476   5.419   9.727   2.202  0.0790  1.2084 -0.7256
 4966SOL    HW215477   5.540   9.657   2.260 -1.2416 -0.3236  0.2660
 4967SOL     OW15478   3.839   9.432   1.717  0.0386 -0.8519  0.1360
 4967SOL    HW115479   3.926   9.392   1.710  0.2324 -0.4385  0.0991
 4967SOL    HW215480   3.790   9.375   1.776  0.2281 -1.2730 -0.1143
 4968SOL     OW15481   1.307   4.456   9.437 -0.5567  0.3557 -0.1447
 4968SOL    HW115482   1.292   4.453   9.342 -0.6448 -0.2305 -0.1153
 4968SOL    HW215483   1.222   4.483   9.473 -0.0167  2.5009 -0.3488
 4969SOL     OW15484   5.542   4.578   4.603 -0.8010 -0.2754 -0.0660
 4969SOL    HW115485   5.522   4.549   4.693  0.3947  1.4927  0.8177
 4969SOL    HW215486   5.478   4.648   4.586 -0.0840  0.4101 -0.0019
 4970SOL     OW15487   9.744   1.995   0.881  0.1737  0.4273  0.2938
 4970SOL    HW115488   9.665   2.004   0.828  1.2906  0.3969 -1.4597
 4970SOL    HW215489   9.778   2.084   0.890  0.1935  0.3858  0.6602
 4971SOL     OW15490   6.197   4.945   7.921 -0.3547  0.0576 -0.0187
 4971SOL    HW115491   6.163   4.890   7.992 -0.7331 -1.8347 -1.5884
 4971SOL    HW215492   6.257   4.888   7.873  0.7869  1.6535 -0.5788
 4972SOL     OW15493   9.999   7.329   6.801 -0.2275 -0.2130 -0.3143
 4972SOL    HW115494   9.917   7.371   6.825  0.5916  2.2241 -1.4428
 4972SOL    HW215495   9.985   7.237   6.820 -2.7349  0.3039  0.7741
 4973SOL     OW15496   8.803   5.498   4.466  0.1290 -0.2979 -0.1939
 4973SOL    HW115497   8.781   5.590   4.456  0.5370 -0.1950 -0.1782
 4973SOL    HW215498   8.862   5.479   4.393 -1.3102 -1.0019 -1.2339
 4974SOL     OW15499   5.745   9.694   6.842 -0.0135 -0.2892 -0.1439
 4974SOL    HW115500   5.835   9.726   6.838 -0.1289  0.3154  1.2449
 4974SOL    HW215501   5.704   9.748   6.911 -0.7010 -2.3074  1.1190
 4975SOL     OW15502   2.555   4.134   0.546 -0.5719  0.0167  0.1816
 4975SOL    HW115503   2.467   4.108   0.573 -0.5759  0.2697  0.4156
 4975SOL    HW215504   2.561   4.227   0.567 -0.2590  0.0106  0.1370
 4976SOL     OW15505   0.779   0.414   1.831 -0.3987 -0.1307 -0.7723
 4976SOL    HW115506   0.704   0.444   1.781  0.7103  1.3538 -1.6031
 4976SOL    HW215507   0.843   0.389   1.765  0.8206  1.1829 -0.1354
 4977SOL     OW15508   1.751   4.388   5.513  0.8396 -0.8519  0.2497
 4977SOL    HW115509   1.844   4.406   5.497  1.5389 -1.9305  2.5673
 4977SOL    HW215510   1.738   4.299   5.480  0.5927 -0.6605 -0.1725
 4978SOL     OW15511   0.413   5.110   2.194 -0.2940  0.4458 -0.4307
 4978SOL    HW115512   0.422   5.205   2.182  0.4125  0.2934 -1.2391
 4978SOL    HW215513   0.365   5.081   2.117 -0.2965  0.1159 -0.3036
 4979SOL     OW15514   7.997   3.703   5.227  0.4735  0.0042 -0.4164
 4979SOL    HW115515   7.923   3.643   5.212  0.5447 -0.6965  1.7079
 4979SOL    HW215516   8.051   3.695   5.149 -0.3487 -1.4941 -0.8607
 4980SOL     OW15517   4.131   7.996   1.200  0.5001 -0.1886  0.5820
 4980SOL    HW115518   4.102   7.908   1.222  0.0441 -0.2558 -0.2262
 4980SOL    HW215519   4.059   8.033   1.147  1.2881  0.1378 -0.3027
 4981SOL     OW15520   5.212   8.136   5.219 -0.1429 -0.1897 -0.5608
 4981SOL    HW115521   5.219   8.084   5.139  1.4990 -0.2748 -0.3904
 4981SOL    HW215522   5.172   8.218   5.190  0.4980 -0.1893 -1.4934
 4982SOL     OW15523   4.796   3.485   9.694  0.3964 -0.1534 -0.4378
 4982SOL    HW115524   4.769   3.553   9.755 -0.3802 -0.8611  0.0313
 4982SOL    HW215525   4.723   3.424   9.692  1.4889 -1.5399 -0.0102
 4983SOL     OW15526   3.576   8.674   9.220  0.1974  0.4483  0.3331
 4983SOL    HW115527   3.510   8.670   9.150  1.7073  0.3286 -1.1237
 4983SOL    HW215528   3.550   8.604   9.280  1.6908 -3.0930 -2.7556
 4984SOL     OW15529   7.976   3.147   6.067  0.0070  0.5896 -0.7463
 4984SOL    HW115530   8.016   3.068   6.031 -1.7873 -0.6988 -0.0775
 4984SOL    HW215531   8.037   3.177   6.134  0.3954 -0.6601 -0.5163
 4985SOL     OW15532   4.707   4.967   2.087  0.7389  0.0601  0.3069
 4985SOL    HW115533   4.769   4.934   2.152  2.1487  0.1643 -0.9605
 4985SOL    HW215534   4.741   4.939   2.003 -0.6758  0.5447 -0.4743
 4986SOL     OW15535   4.323   1.832   7.524  0.0719 -0.0139  0.1235
 4986SOL    HW115536   4.389   1.816   7.456  0.7100  0.9183  0.5005
 4986SOL    HW215537   4.320   1.750   7.573  0.4593 -0.3015 -0.3191
 4987SOL     OW15538   2.531   0.503   3.701  0.0812  0.5568  0.1016
 4987SOL    HW115539   2.568   0.534   3.783 -0.4649 -1.8016  1.3045
 4987SOL    HW215540   2.569   0.416   3.688 -3.6414 -1.3118  0.5713
 4988SOL     OW15541   2.568   1.808   6.764  0.9999 -0.1087 -0.3245
 4988SOL    HW115542   2.583   1.869   6.837  0.9976 -1.6349  0.9925
 4988SOL    HW215543   2.611   1.850   6.689 -0.0029  2.0644  0.2332
 4989SOL     OW15544   2.727   7.188   8.696 -0.2494 -0.8001 -1.0187
 4989SOL    HW115545   2.705   7.213   8.606 -1.5460 -0.1526 -0.5579
 4989SOL    HW215546   2.781   7.260   8.728 -0.0795 -0.8606 -1.1682
 4990SOL     OW15547   4.161   0.180   9.032 -0.0322  0.1390 -0.6006
 4990SOL    HW115548   4.232   0.239   9.006 -0.2966  1.6170  1.6930
 4990SOL    HW215549   4.197   0.131   9.106 -0.0104 -2.3216 -2.1024
 4991SOL     OW15550   5.202   7.658   0.111  0.1614  0.5806 -0.8813
 4991SOL    HW115551   5.278   7.714   0.093 -0.7788  1.3949 -2.5226
 4991SOL    HW215552   5.129   7.720   0.123 -0.8014 -0.2491 -2.2336
 4992SOL     OW15553   4.587   3.071   0.199  0.2357  0.3929  0.3657
 4992SOL    HW115554   4.606   3.015   0.123 -0.6594 -0.7222  0.9380
 4992SOL    HW215555   4.669   3.118   0.214  0.5469  0.3821 -1.0685
 4993SOL     OW15556   5.722   7.168   5.435 -0.6079 -1.0503 -0.8274
 4993SOL    HW115557   5.759   7.139   5.351 -1.1323 -0.6605 -1.2047
 4993SOL    HW215558   5.787   7.143   5.500  0.9366  0.7269 -1.5944
 4994SOL     OW15559   2.472   0.410   5.540 -0.0890 -0.0186 -0.1768
 4994SOL    HW115560   2.455   0.400   5.634  0.9871 -1.4197 -0.0978
 4994SOL    HW215561   2.413   0.481   5.512  0.0523  0.8885  1.6806
 4995SOL     OW15562   6.040   4.479   7.984 -0.4336 -0.4487 -0.1152
 4995SOL    HW115563   5.970   4.416   8.002 -0.0241 -1.3422 -1.5001
 4995SOL    HW215564   6.091   4.482   8.066 -0.5291 -1.8421  0.0144
 4996SOL     OW15565   1.774   4.470   8.258  0.3542  0.1865 -0.2828
 4996SOL    HW115566   1.692   4.485   8.211  0.2155  0.1313 -0.0596
 4996SOL    HW215567   1.756   4.496   8.348 -0.5208 -3.0571  0.6187
 4997SOL     OW15568   0.835   2.967   6.221  0.0995  0.2602 -0.3403
 4997SOL    HW115569   0.744   2.939   6.225 -0.0362  0.8004  0.9791
 4997SOL    HW215570   0.882   2.901   6.272  0.6031 -0.5059 -1.7455
 4998SOL     OW15571   2.193   5.003   8.416 -0.0514 -0.5017 -0.7354
 4998SOL    HW115572   2.165   5.070   8.478  0.4937 -0.2164 -0.7953
 4998SOL    HW215573   2.247   4.943   8.468 -1.4768 -1.5578 -0.4093
 4999SOL     OW15574   5.435   3.690  10.004 -0.7345 -0.0089  0.3007
 4999SOL    HW115575   5.342   3.707  10.022 -0.6032  0.3180  0.6883
 4999SOL    HW215576   5.445   3.708   9.910 -1.1551 -0.4636  0.1668
 5000SOL     OW15577   2.462   1.997   5.626  0.5991  0.1934  0.2731
 5000SOL    HW115578   2.371   2.003   5.656  0.1545  1.9962 -1.2177
 5000SOL    HW215579   2.514   2.011   5.705 -0.4888  2.1889  0.7170
 5001SOL     OW15580   3.116   1.201   8.197  0.2611 -0.1716 -0.4047
 5001SOL    HW115581   3.036   1.167   8.159 -0.6561  0.9397  0.4620
 5001SOL    HW215582   3.152   1.127   8.246  1.9544 -1.9452 -3.9135
 5002SOL     OW15583   2.276   7.559   7.219  0.0120 -0.1865  0.1316
 5002SOL    HW115584   2.198   7.519   7.258  1.1124 -2.6935 -0.0898
 5002SOL    HW215585   2.306   7.621   7.286 -1.6681  0.2206  0.5619
 5003SOL     OW15586   7.701   5.330   7.661 -0.1209  0.7355  0.3362
 5003SOL    HW115587   7.692   5.235   7.669  0.1668  0.7040  0.3009
 5003SOL    HW215588   7.681   5.364   7.747  0.0487  0.6202  0.4226
 5004SOL     OW15589   5.426   1.288   1.945 -0.0985  0.3510  0.2267
 5004SOL    HW115590   5.425   1.193   1.942  0.4079  0.3484 -2.1661
 5004SOL    HW215591   5.339   1.313   1.974 -0.3977 -0.8440  0.3815
 5005SOL     OW15592   7.580   4.945   7.463  0.5425  0.0235  0.0984
 5005SOL    HW115593   7.591   4.852   7.445  1.0008  0.1774 -0.4454
 5005SOL    HW215594   7.572   4.985   7.377  1.1777  0.5864  0.2925
 5006SOL     OW15595   4.932   2.114   2.238  0.3337  0.2497  0.0699
 5006SOL    HW115596   4.885   2.129   2.156  1.0671 -0.7357 -0.5541
 5006SOL    HW215597   4.983   2.194   2.252  2.9995 -0.8362 -2.3719
 5007SOL     OW15598   4.559   7.661   2.002  0.2567 -0.0700 -0.0087
 5007SOL    HW115599   4.478   7.616   1.977  0.0253 -0.4523  1.3275
 5007SOL    HW215600   4.536   7.706   2.083  0.9629  1.1033 -0.4452
 5008SOL     OW15601   4.827   8.666   3.820  0.1893 -0.2426 -0.4052
 5008SOL    HW115602   4.847   8.653   3.727 -0.4020 -0.5672 -0.4929
 5008SOL    HW215603   4.747   8.719   3.820  0.9618  0.9583 -0.0634
 5009SOL     OW15604   5.205   1.020   7.458 -0.7746  0.4902  0.0180
 5009SOL    HW115605   5.245   0.946   7.413 -1.2101 -0.0947  0.5859
 5009SOL    HW215606   5.227   1.096   7.403  0.4476  0.0802 -0.0924
 5010SOL     OW15607   9.821   7.594   5.639 -1.0129 -0.1771  0.0164
 5010SOL    HW115608   9.744   7.571   5.586 -0.4766 -0.2342 -0.7592
 5010SOL    HW215609   9.850   7.511   5.677 -1.3422 -0.1517  0.3297
 5011SOL     OW15610   1.418   1.640   1.749 -0.0263  0.6236 -0.3751
 5011SOL    HW115611   1.422   1.691   1.829  0.4558  0.7927 -0.5043
 5011SOL    HW215612   1.477   1.566   1.763  0.5157  0.9695 -0.7901
 5012SOL     OW15613   7.886   1.330   0.044 -0.1734  0.7169 -0.1711
 5012SOL    HW115614   7.827   1.400   0.072 -1.2645 -0.2309 -0.0287
 5012SOL    HW215615   7.856   1.308  -0.044  0.3620  0.6275 -0.3333
 5013SOL     OW15616   7.719   5.741   3.675 -0.3213  0.1381 -0.3369
 5013SOL    HW115617   7.724   5.706   3.764  1.8882 -1.4991 -1.0120
 5013SOL    HW215618   7.686   5.668   3.623 -0.1921  0.6028 -1.0851
 5014SOL     OW15619   2.812   4.700   2.966  0.8290  0.5871 -0.3001
 5014SOL    HW115620   2.816   4.702   2.870 -2.7550  1.4746 -0.5653
 5014SOL    HW215621   2.870   4.770   2.994  1.7082  0.5036 -1.8237
 5015SOL     OW15622   1.214   8.641   0.035 -0.1018  0.2854  0.3533
 5015SOL    HW115623   1.250   8.555   0.016  2.0542  0.8717  1.4906
 5015SOL    HW215624   1.161   8.628   0.113  1.1750  0.1585  1.2346
 5016SOL     OW15625   7.273   8.746   7.168 -0.2821 -0.2288 -0.2399
 5016SOL    HW115626   7.309   8.666   7.128  0.0811 -0.3396  0.2806
 5016SOL    HW215627   7.217   8.714   7.238  0.0037 -0.0285  0.0845
 5017SOL     OW15628   5.136   6.019   6.228 -0.3094  0.1343  0.0079
 5017SOL    HW115629   5.159   6.101   6.271  0.8383 -0.7180  1.1050
 5017SOL    HW215630   5.118   5.958   6.299 -0.8899 -0.6450 -0.7744
 5018SOL     OW15631   9.437   9.594   8.494  0.7606 -0.1515 -0.0126
 5018SOL    HW115632   9.516   9.581   8.547  1.6154  1.2075 -0.8919
 5018SOL    HW215633   9.390   9.511   8.502  1.6029 -0.5304  1.6176
 5019SOL     OW15634   8.760   3.916   3.267  0.4737  0.3577 -0.4929
 5019SOL    HW115635   8.717   3.844   3.312  0.7830  1.2957  1.4065
 5019SOL    HW215636   8.751   3.991   3.327  1.7255  1.4409 -1.5853
 5020SOL     OW15637   6.329   9.980   7.357 -0.1688 -0.3607 -0.2795
 5020SOL    HW115638   6.350   9.890   7.386  0.9078  0.0592  0.3349
 5020SOL    HW215639   6.405  10.005   7.304  0.1028  0.5922  0.5276
 5021SOL     OW15640   1.187   8.557   3.997  0.4964 -0.3030 -0.0937
 5021SOL    HW115641   1.192   8.587   3.906 -0.6257  0.0266 -0.0668
 5021SOL    HW215642   1.166   8.636   4.047 -0.2991 -0.7331  0.2690
 5022SOL     OW15643   1.808   4.351   9.400  0.4083 -0.3040 -0.2905
 5022SOL    HW115644   1.834   4.346   9.308  0.8326  0.0362 -0.1914
 5022SOL    HW215645   1.882   4.314   9.448  0.3010 -0.2342 -0.0724
 5023SOL     OW15646   0.177   2.192   4.742  0.4410  0.2299 -0.3066
 5023SOL    HW115647   0.202   2.185   4.649  1.0690 -3.3764 -0.0049
 5023SOL    HW215648   0.247   2.245   4.781  2.4412 -1.5723 -1.2379
 5024SOL     OW15649   6.277   8.649   7.603 -0.0368  0.4510 -0.4524
 5024SOL    HW115650   6.300   8.566   7.645 -0.9805  0.8735  1.0147
 5024SOL    HW215651   6.184   8.639   7.580  0.3690  0.3726 -2.1624
 5025SOL     OW15652   0.401   1.687   7.389  0.3708 -0.9288  0.3705
 5025SOL    HW115653   0.398   1.734   7.473  1.4921  0.3297 -0.2558
 5025SOL    HW215654   0.489   1.648   7.387  1.7412  1.9061 -1.6285
 5026SOL     OW15655   1.950   8.503   5.174 -0.2206 -0.4002  0.0352
 5026SOL    HW115656   1.956   8.581   5.228  1.5959 -0.4191 -0.0778
 5026SOL    HW215657   1.991   8.434   5.226 -0.7330 -1.0003 -0.3432
 5027SOL     OW15658   5.807   9.638   2.694  0.3414  0.0312  0.2346
 5027SOL    HW115659   5.875   9.589   2.647  0.7298  0.3090  0.5038
 5027SOL    HW215660   5.777   9.578   2.762  0.7381  0.1210  0.4926
 5028SOL     OW15661   2.346   9.100   4.708 -0.1309  0.5252  0.6486
 5028SOL    HW115662   2.373   9.191   4.698  0.7097  0.1126 -1.1904
 5028SOL    HW215663   2.426   9.049   4.696 -0.7247 -0.4850  0.8414
 5029SOL     OW15664   8.552   2.961   7.573 -0.0258 -0.4767  0.1828
 5029SOL    HW115665   8.592   2.999   7.651 -1.9453  2.1880 -0.0186
 5029SOL    HW215666   8.619   2.971   7.505  0.7311 -0.5138  0.9016
 5030SOL     OW15667   8.049   0.390   7.362  0.2975 -1.0382  0.1544
 5030SOL    HW115668   8.031   0.418   7.452 -0.5229  1.8562 -0.8245
 5030SOL    HW215669   8.132   0.432   7.339  0.0794 -1.0640 -0.7137
 5031SOL     OW15670   3.276   3.365   7.786  0.6946  0.1724  0.7550
 5031SOL    HW115671   3.303   3.425   7.717  1.2061  1.3144  1.8971
 5031SOL    HW215672   3.289   3.414   7.867 -1.3258 -0.5671  1.6002
 5032SOL     OW15673   2.573   7.597   7.733 -0.2105  0.3828  0.3296
 5032SOL    HW115674   2.602   7.508   7.750 -1.0979 -0.2384 -1.1922
 5032SOL    HW215675   2.646   7.652   7.761  1.6053 -0.9881 -1.4257
 5033SOL     OW15676   1.678   2.039   5.788 -0.2339  0.3940  0.4477
 5033SOL    HW115677   1.736   2.114   5.774 -0.0842  0.1793 -0.1197
 5033SOL    HW215678   1.595   2.077   5.817 -0.4226  0.8401 -0.6341
 5034SOL     OW15679   3.709   5.872   9.767  0.2904  0.0359  0.0746
 5034SOL    HW115680   3.799   5.872   9.798  0.8959 -0.2979 -1.5652
 5034SOL    HW215681   3.671   5.790   9.801  1.4775 -1.2270 -1.4950
 5035SOL     OW15682   7.936   4.403   1.940 -0.4915  0.0168  0.3554
 5035SOL    HW115683   7.927   4.314   1.904 -3.5179  0.0862  0.6975
 5035SOL    HW215684   7.925   4.460   1.864 -0.5643  0.1216  0.4448
 5036SOL     OW15685   0.214   8.728   0.491 -0.3459  0.3381 -0.5296
 5036SOL    HW115686   0.272   8.685   0.429 -0.5040 -1.0915  0.2824
 5036SOL    HW215687   0.246   8.702   0.577 -0.7675  1.4467 -0.0084
 5037SOL     OW15688   7.846   2.036   1.277 -0.2833 -0.1825  0.0841
 5037SOL    HW115689   7.826   1.995   1.193 -1.5936 -0.0756  0.3275
 5037SOL    HW215690   7.892   1.968   1.326  1.6149  0.1467 -1.1300
 5038SOL     OW15691   4.428   9.985   0.312 -0.6657 -0.2733  0.3944
 5038SOL    HW115692   4.402   9.897   0.339 -4.5663  0.4065 -0.5099
 5038SOL    HW215693   4.385  10.043   0.375  0.7147  1.0646  0.1728
 5039SOL     OW15694   2.267   6.204   7.252  0.4223 -0.0257  0.2687
 5039SOL    HW115695   2.174   6.224   7.241  0.6772  0.8094 -0.4975
 5039SOL    HW215696   2.312   6.268   7.197  1.4052 -1.0827 -0.2062
 5040SOL     OW15697   3.241   3.631   8.262 -0.1151 -0.2169  0.1943
 5040SOL    HW115698   3.278   3.593   8.182  1.0835 -0.2732  0.7472
 5040SOL    HW215699   3.303   3.700   8.286 -0.8892  0.3360  0.6452
 5041SOL     OW15700   5.966   1.388   5.282 -0.7978 -0.1902 -0.7136
 5041SOL    HW115701   6.013   1.352   5.206 -2.6875 -1.9613 -1.1125
 5041SOL    HW215702   5.959   1.315   5.343  0.3084  1.0931  1.0759
 5042SOL     OW15703   5.950   3.473   4.759  0.2572 -0.4575  0.6379
 5042SOL    HW115704   5.863   3.454   4.724  0.1880 -0.3522  0.7530
 5042SOL    HW215705   5.947   3.566   4.782  0.9124 -0.0429 -0.8550
 5043SOL     OW15706   5.123   6.403   8.643  0.6807  0.4376  0.2520
 5043SOL    HW115707   5.203   6.350   8.641 -0.1104 -0.8209  0.8341
 5043SOL    HW215708   5.108   6.419   8.736  0.5131  1.0920  0.1144
 5044SOL     OW15709   2.861   9.481   2.019  0.2406  0.2349 -0.4876
 5044SOL    HW115710   2.794   9.532   2.064  0.4989 -0.8796  1.2718
 5044SOL    HW215711   2.890   9.417   2.084  0.9315 -1.2172 -2.1431
 5045SOL     OW15712   8.306   8.434   7.742  0.2455  0.3511  0.3661
 5045SOL    HW115713   8.379   8.373   7.755  1.3319  1.5372 -0.0018
 5045SOL    HW215714   8.229   8.386   7.773  0.8610 -1.6731 -1.0133
 5046SOL     OW15715   6.549   6.450   1.427  0.4266  0.0866  0.7460
 5046SOL    HW115716   6.581   6.426   1.514 -0.6554 -1.3489  0.8042
 5046SOL    HW215717   6.459   6.415   1.425 -0.0460  1.2944 -0.4599
 5047SOL     OW15718   1.147   4.454   5.481  0.1358 -0.0083  0.3152
 5047SOL    HW115719   1.197   4.533   5.461 -0.3532 -0.3846 -2.9738
 5047SOL    HW215720   1.208   4.382   5.462  0.0962 -0.4501  1.7872
 5048SOL     OW15721   0.723   3.886   7.670  0.4596  0.5198  0.0755
 5048SOL    HW115722   0.766   3.801   7.671 -0.8925 -0.1879  1.2964
 5048SOL    HW215723   0.789   3.947   7.703  1.7773  0.1684 -1.7322
 5049SOL     OW15724   5.947   0.308   0.671  0.1269  0.3242 -0.0744
 5049SOL    HW115725   5.975   0.384   0.722  0.2787 -0.6052  1.2693
 5049SOL    HW215726   5.858   0.330   0.643 -0.7066  0.1326  2.2022
 5050SOL     OW15727   7.279   8.671   2.864 -0.2054  0.1536  0.6200
 5050SOL    HW115728   7.346   8.658   2.797 -0.1553  1.9297  0.2788
 5050SOL    HW215729   7.196   8.652   2.818 -0.1527  1.1163  0.0795
 5051SOL     OW15730   9.508   5.501   2.999 -0.0546 -0.9405 -0.0321
 5051SOL    HW115731   9.566   5.533   2.930 -0.8447  2.8702  0.8317
 5051SOL    HW215732   9.562   5.503   3.078 -0.8941  1.5158  0.5693
 5052SOL     OW15733   7.674   0.263   9.884 -0.1395 -0.3974  0.2603
 5052SOL    HW115734   7.693   0.205   9.958  2.5200 -0.8151 -0.6475
 5052SOL    HW215735   7.618   0.212   9.826 -1.6759 -0.3118  1.5772
 5053SOL     OW15736   8.317   7.211   4.422 -0.4625  0.2539  0.1958
 5053SOL    HW115737   8.272   7.138   4.379 -2.2843  0.1771  2.0550
 5053SOL    HW215738   8.407   7.180   4.435 -1.0051 -1.3797  0.2853
 5054SOL     OW15739   0.307   6.964   1.214 -0.4080 -0.1282 -0.7105
 5054SOL    HW115740   0.225   6.926   1.245 -0.2873  0.0177 -0.2006
 5054SOL    HW215741   0.374   6.923   1.268 -0.2609  0.7040 -0.2449
 5055SOL     OW15742   3.439   5.772   5.566 -0.0028  0.3782 -0.2978
 5055SOL    HW115743   3.511   5.731   5.614 -0.3418 -0.2496 -0.3078
 5055SOL    HW215744   3.473   5.856   5.538 -0.3713  1.6306  2.6738
 5056SOL     OW15745   9.536   0.660   2.318  0.5315 -0.0284  0.1856
 5056SOL    HW115746   9.445   0.687   2.305  0.1360 -1.7172 -0.8274
 5056SOL    HW215747   9.550   0.591   2.253  1.5953 -1.9550  2.3263
 5057SOL     OW15748   3.510   3.148   3.621 -0.2717  0.2097 -0.0648
 5057SOL    HW115749   3.508   3.137   3.716 -1.1002  2.0042  0.1673
 5057SOL    HW215750   3.498   3.242   3.608  1.3246  0.2028 -1.9136
 5058SOL     OW15751   9.900   5.527   2.114  0.1592 -0.3710  0.1596
 5058SOL    HW115752   9.813   5.544   2.079 -0.4012 -0.6442  1.3350
 5058SOL    HW215753   9.908   5.587   2.188  1.6155  0.7513 -0.8621
 5059SOL     OW15754   4.993   6.479   8.916  0.2274  0.4792 -0.6714
 5059SOL    HW115755   5.051   6.480   8.992 -0.4533 -0.5768 -0.1113
 5059SOL    HW215756   4.985   6.572   8.892  0.8374  0.7908  0.2420
 5060SOL     OW15757   0.459   6.498   8.306  0.0270 -0.1120 -0.5660
 5060SOL    HW115758   0.438   6.584   8.271 -0.0408 -0.4206 -1.3201
 5060SOL    HW215759   0.544   6.476   8.267  0.0661 -0.3628 -0.3419
 5061SOL     OW15760   4.749   5.793   2.948 -0.0634  0.2583 -0.0897
 5061SOL    HW115761   4.765   5.699   2.955  0.2345  0.2927 -0.3262
 5061SOL    HW215762   4.825   5.833   2.989  0.2933  0.4138 -0.8839
 5062SOL     OW15763   6.382   4.538   9.440 -0.4359  0.2562  0.6120
 5062SOL    HW115764   6.358   4.582   9.358 -1.6576  0.0872  0.8647
 5062SOL    HW215765   6.370   4.605   9.508  1.4247  0.6694  0.5937
 5063SOL     OW15766   5.910   4.447   4.940 -0.3595  0.2309 -0.5567
 5063SOL    HW115767   5.899   4.396   5.021  0.4969  0.1684 -0.4741
 5063SOL    HW215768   5.825   4.488   4.926 -0.9279 -0.8501 -0.3682
 5064SOL     OW15769   5.960   2.537   0.736  0.0372 -0.5699  0.3606
 5064SOL    HW115770   5.968   2.632   0.725 -1.9161 -0.3584  0.4568
 5064SOL    HW215771   5.877   2.525   0.781  1.0764 -2.2479  1.9868
 5065SOL     OW15772   3.981   9.330   3.082 -0.1452 -0.6050  0.2958
 5065SOL    HW115773   4.031   9.351   3.160  1.5970  0.4365 -1.0276
 5065SOL    HW215774   4.028   9.257   3.041  0.8078  0.8562 -1.3453
 5066SOL     OW15775   8.972   4.062   8.718 -0.0975 -0.0078 -0.4261
 5066SOL    HW115776   8.882   4.058   8.685  0.1013  0.0304 -0.9769
 5066SOL    HW215777   8.974   3.995   8.787 -0.6483  0.2480 -0.1530
 5067SOL     OW15778   6.937   1.515   1.211 -0.1074  0.4187 -0.1580
 5067SOL    HW115779   6.940   1.439   1.269 -1.0531  0.2385 -0.3158
 5067SOL    HW215780   7.012   1.504   1.152  1.7113  1.3366  1.8576
 5068SOL     OW15781   8.860   6.970   8.765  0.0392  0.5159 -0.0440
 5068SOL    HW115782   8.857   6.897   8.704  1.1890 -0.2721  0.7950
 5068SOL    HW215783   8.789   6.952   8.827  1.9000 -1.3752  1.7026
 5069SOL     OW15784   3.483   7.804   5.882  0.1137  0.0732  0.3112
 5069SOL    HW115785   3.439   7.848   5.956  1.3275 -0.0880  1.1680
 5069SOL    HW215786   3.452   7.714   5.886 -1.1453  0.4535 -0.4538
 5070SOL     OW15787   1.533   1.961   9.671 -0.0958  0.5478  0.4561
 5070SOL    HW115788   1.484   2.014   9.734  0.0020 -0.7593  1.6917
 5070SOL    HW215789   1.477   1.885   9.655  1.2361 -0.7168  1.4942
 5071SOL     OW15790   5.282   5.751   7.447 -0.2464 -0.4429  0.1315
 5071SOL    HW115791   5.194   5.717   7.468 -0.3421 -0.7314 -0.7089
 5071SOL    HW215792   5.295   5.728   7.355  0.2019  0.7172 -0.1090
 5072SOL     OW15793   9.652   5.516   5.874 -0.6862  0.7345 -0.1374
 5072SOL    HW115794   9.667   5.516   5.968 -0.0694 -1.8153 -0.1448
 5072SOL    HW215795   9.737   5.494   5.836 -1.2775  0.0891 -1.1507
 5073SOL     OW15796   5.177   1.344   7.023  0.4166  0.2013  0.2541
 5073SOL    HW115797   5.211   1.329   7.111 -0.6649  1.5140  0.9404
 5073SOL    HW215798   5.187   1.438   7.009 -1.4439  0.3993 -0.1035
 5074SOL     OW15799   8.663   2.805   9.950  0.1033 -0.1562  0.3916
 5074SOL    HW115800   8.663   2.788   9.855  1.0433 -1.2359  0.5785
 5074SOL    HW215801   8.750   2.780   9.979  0.2572  1.3636  1.3614
 5075SOL     OW15802   2.498   4.349   3.330 -0.1927 -0.4258  0.1455
 5075SOL    HW115803   2.561   4.304   3.273 -1.0626 -1.3503 -0.1231
 5075SOL    HW215804   2.520   4.442   3.321  1.4293 -0.7515  0.4321
 5076SOL     OW15805   5.731   3.727   1.413  0.4196 -0.4072 -0.2076
 5076SOL    HW115806   5.818   3.740   1.376  0.0347  0.7169 -0.7639
 5076SOL    HW215807   5.744   3.732   1.508  0.8928  0.3136 -0.2995
 5077SOL     OW15808   9.098   2.671   2.666 -0.7562  0.0587 -0.3009
 5077SOL    HW115809   9.164   2.733   2.638  0.1078 -0.9648 -0.6057
 5077SOL    HW215810   9.142   2.586   2.661 -1.1433 -0.3692  2.3228
 5078SOL     OW15811   3.370   6.945   7.044  0.4108 -0.7871 -0.2061
 5078SOL    HW115812   3.365   6.987   7.130  0.9725 -0.6373 -0.2418
 5078SOL    HW215813   3.331   6.859   7.057 -0.9378 -0.1906 -0.1736
 5079SOL     OW15814   1.200   3.373   3.228 -0.1199  0.1057  0.2706
 5079SOL    HW115815   1.193   3.345   3.319 -0.9341  3.3527  1.3339
 5079SOL    HW215816   1.125   3.334   3.184 -1.0624  0.3903  1.5790
 5080SOL     OW15817   6.283   0.679   8.325  0.0174  0.2138  0.2442
 5080SOL    HW115818   6.325   0.765   8.329  0.1062  0.2646 -1.2835
 5080SOL    HW215819   6.235   0.673   8.407  1.1539  1.1193  1.0120
 5081SOL     OW15820   6.756   8.857   3.271 -0.6293 -0.1082  0.0166
 5081SOL    HW115821   6.698   8.911   3.325  1.0123 -0.1403  1.9320
 5081SOL    HW215822   6.805   8.804   3.334  2.7031  1.1365 -1.3161
 5082SOL     OW15823   4.550   8.702   2.264 -0.2619  0.1717  0.0545
 5082SOL    HW115824   4.464   8.666   2.243 -0.4039  0.2372  0.5270
 5082SOL    HW215825   4.583   8.734   2.180 -0.3456 -0.5968 -0.2842
 5083SOL     OW15826   5.340   2.099   1.217 -1.0014  0.5654 -0.3943
 5083SOL    HW115827   5.401   2.039   1.173 -1.3669 -0.3759  0.3392
 5083SOL    HW215828   5.357   2.086   1.310 -2.1529  0.4561 -0.1867
 5084SOL     OW15829   3.692   2.899   9.299 -0.3122 -0.8197 -0.3216
 5084SOL    HW115830   3.647   2.825   9.340  0.2490 -0.7907  0.3698
 5084SOL    HW215831   3.767   2.860   9.255  0.7757 -0.5549  1.1931
 5085SOL     OW15832   5.711   2.324   0.203 -0.2941 -0.0294  0.6477
 5085SOL    HW115833   5.763   2.286   0.133 -2.0786 -1.5029  0.0504
 5085SOL    HW215834   5.760   2.403   0.229 -0.5764  1.8055 -3.6319
 5086SOL     OW15835   8.845   3.345   6.511  0.0774  0.0500 -0.7685
 5086SOL    HW115836   8.785   3.312   6.444 -0.5961  0.2191 -0.2567
 5086SOL    HW215837   8.788   3.370   6.584  0.6985  0.9999 -0.5937
 5087SOL     OW15838   7.042   7.988   8.610 -0.3431 -0.3746  0.2466
 5087SOL    HW115839   7.011   7.957   8.695 -1.7777 -3.6961 -1.2842
 5087SOL    HW215840   6.971   7.965   8.550  1.4181  0.0803 -2.1404
 5088SOL     OW15841   6.512   4.379   6.739  0.1632 -0.5879  0.6558
 5088SOL    HW115842   6.464   4.454   6.776 -1.8391 -1.1189 -0.7096
 5088SOL    HW215843   6.543   4.410   6.654  0.5532 -0.8741  0.6922
 5089SOL     OW15844   2.567   5.632   7.001 -0.8452 -0.6945 -0.3934
 5089SOL    HW115845   2.543   5.539   6.998 -1.0003 -0.6584 -0.2976
 5089SOL    HW215846   2.604   5.650   6.915  0.3958 -1.1643  0.0197
 5090SOL     OW15847   0.421   6.307   8.494  0.3489 -0.6805  0.9597
 5090SOL    HW115848   0.442   6.377   8.432  1.9216 -2.3586 -0.5238
 5090SOL    HW215849   0.331   6.282   8.472  0.0147  0.3601  1.0516
 5091SOL     OW15850   0.578   8.853   6.466  0.3706 -0.1002 -0.2114
 5091SOL    HW115851   0.665   8.859   6.504 -0.3830 -0.4096  1.6596
 5091SOL    HW215852   0.542   8.941   6.473  0.1016 -0.2340  0.1463
 5092SOL     OW15853   7.133   0.806   3.900 -0.0566  0.1575  0.3033
 5092SOL    HW115854   7.119   0.731   3.843  0.9563  0.1234  0.0770
 5092SOL    HW215855   7.221   0.792   3.936  0.4996  1.6739 -0.4109
 5093SOL     OW15856   1.422   3.556   7.090 -0.0390 -0.1496 -0.2525
 5093SOL    HW115857   1.451   3.484   7.147 -0.9851 -1.4824 -1.3838
 5093SOL    HW215858   1.427   3.634   7.145 -0.3933 -1.2972  1.4704
 5094SOL     OW15859   3.539   1.073   3.916 -0.6254  0.9136  0.0220
 5094SOL    HW115860   3.577   0.985   3.926 -1.0526  0.8321  1.1666
 5094SOL    HW215861   3.454   1.057   3.875  0.1841  1.0131 -1.7446
 5095SOL     OW15862   9.315   7.313   7.759  0.2493 -0.6720 -0.0826
 5095SOL    HW115863   9.292   7.221   7.773 -0.6006 -0.4968 -0.2380
 5095SOL    HW215864   9.238   7.361   7.789  0.5519 -0.0275 -0.3230
 5096SOL     OW15865   8.929   2.958   0.118 -0.0108  0.2067 -0.9564
 5096SOL    HW115866   8.894   2.879   0.076  0.4559 -0.8406  0.5481
 5096SOL    HW215867   9.011   2.976   0.073 -0.6311  0.4817 -2.0111
 5097SOL     OW15868   1.917   1.645   2.463  0.0206 -0.5819  0.1079
 5097SOL    HW115869   2.007   1.652   2.431  0.0366 -3.6813 -0.8451
 5097SOL    HW215870   1.866   1.701   2.404  0.9287 -1.3604 -1.4814
 5098SOL     OW15871   3.812   5.488   6.854 -0.3565  0.1624 -0.5749
 5098SOL    HW115872   3.845   5.567   6.810 -1.2041  1.0692  0.3642
 5098SOL    HW215873   3.890   5.444   6.886  0.0631  1.4015  0.1628
 5099SOL     OW15874   7.015   3.499   3.197 -0.4803  0.0134 -0.1261
 5099SOL    HW115875   7.018   3.455   3.112 -1.6989 -0.1511 -0.0957
 5099SOL    HW215876   6.975   3.435   3.256 -0.2152  0.3554  0.4327
 5100SOL     OW15877   6.281   9.480   5.140 -0.4544  0.4155  0.2552
 5100SOL    HW115878   6.358   9.428   5.117 -0.6039 -0.8585  2.3334
 5100SOL    HW215879   6.314   9.546   5.201 -0.8669  0.3436  0.5613
 5101SOL     OW15880   8.543   9.324   2.721  0.3114 -0.8906 -0.3482
 5101SOL    HW115881   8.496   9.313   2.639 -0.1817 -0.5582 -0.1149
 5101SOL    HW215882   8.545   9.419   2.736 -0.7425 -1.0090  0.6632
 5102SOL     OW15883   8.987   3.777   9.351 -0.6357  0.5251  1.0680
 5102SOL    HW115884   9.050   3.716   9.390 -1.3205 -2.6601 -2.2421
 5102SOL    HW215885   8.906   3.761   9.398 -0.1366  1.1683  2.1945
 5103SOL     OW15886   0.913   9.050   2.490  0.0753  0.0445  0.6399
 5103SOL    HW115887   0.927   8.955   2.487  0.8965  0.1860 -1.6603
 5103SOL    HW215888   0.987   9.087   2.443 -0.3701  1.8323  1.2776
 5104SOL     OW15889   8.322   6.119   9.640 -0.8285  0.1270 -0.1951
 5104SOL    HW115890   8.355   6.151   9.556  0.0028 -1.9662 -0.7237
 5104SOL    HW215891   8.371   6.170   9.705 -0.6119  0.9337 -0.9659
 5105SOL     OW15892   4.487   0.816   9.739 -0.3357 -0.3850  0.8248
 5105SOL    HW115893   4.579   0.813   9.766  0.2892  1.1572 -0.8365
 5105SOL    HW215894   4.443   0.864   9.809  0.9352  2.2421 -0.0170
 5106SOL     OW15895   0.429   5.973   6.197  0.0352  0.1751 -0.3670
 5106SOL    HW115896   0.368   5.974   6.271  0.0497  4.2513 -0.2143
 5106SOL    HW215897   0.513   6.000   6.234  0.8721 -0.9449 -1.3690
 5107SOL     OW15898   5.285   5.180   0.288 -0.1111 -0.0188 -0.0315
 5107SOL    HW115899   5.315   5.206   0.201  0.7641  0.7935  0.4924
 5107SOL    HW215900   5.361   5.141   0.329 -0.6918 -0.9634  0.1665
 5108SOL     OW15901   3.888   8.898   0.835 -0.0759  0.2250 -0.1304
 5108SOL    HW115902   3.808   8.851   0.862  0.2744 -0.1348  0.3014
 5108SOL    HW215903   3.959   8.838   0.858  0.4187  1.2080  0.9866
 5109SOL     OW15904   5.977   6.204   7.588  0.0480 -0.5597 -0.3499
 5109SOL    HW115905   5.992   6.272   7.653  0.5226 -0.5499 -0.4723
 5109SOL    HW215906   5.955   6.252   7.508 -1.0318 -0.5764 -0.0902
 5110SOL     OW15907   3.109   2.159   2.778  0.3228 -0.0030  0.0601
 5110SOL    HW115908   3.107   2.146   2.873  0.2321  1.1191  0.2265
 5110SOL    HW215909   3.193   2.202   2.761  1.3147 -2.0635 -0.6598
 5111SOL     OW15910   1.970   1.047   9.275 -0.3921  0.0252  0.2059
 5111SOL    HW115911   2.052   1.096   9.265  0.3512 -0.8738  1.6043
 5111SOL    HW215912   1.990   0.960   9.241 -0.5271 -0.4153  1.2111
 5112SOL     OW15913   4.217   8.967   8.542 -0.1477  0.1624 -0.0623
 5112SOL    HW115914   4.261   9.031   8.598 -0.4220  0.6983 -0.4551
 5112SOL    HW215915   4.131   9.004   8.525 -0.6331 -0.7171  0.4086
 5113SOL     OW15916   4.839   9.420   3.296  0.1651 -0.4868 -0.1006
 5113SOL    HW115917   4.825   9.358   3.225  0.3331  1.7404 -2.2114
 5113SOL    HW215918   4.768   9.484   3.286 -0.4550 -0.6454  2.4656
 5114SOL     OW15919   2.324   4.846   5.728  0.4074  0.3899  0.9068
 5114SOL    HW115920   2.341   4.804   5.812  1.2637 -0.2985  0.3988
 5114SOL    HW215921   2.279   4.779   5.676  1.0343  0.3743  0.3768
 5115SOL     OW15922   3.774   2.254   6.003 -0.1169  0.1830 -0.0958
 5115SOL    HW115923   3.866   2.245   5.979  0.2737  0.2225  1.3243
 5115SOL    HW215924   3.735   2.169   5.981  0.3440  0.0227 -0.3119
 5116SOL     OW15925   8.100   6.746   3.240 -0.4118 -0.5802  0.0653
 5116SOL    HW115926   8.188   6.729   3.207  0.2521  2.4152  0.0093
 5116SOL    HW215927   8.110   6.824   3.296 -2.7090 -1.3114  1.6634
 5117SOL     OW15928   6.258   4.109   9.612 -0.1373 -0.0970 -0.7333
 5117SOL    HW115929   6.240   4.194   9.573  3.4445  0.6866 -0.9821
 5117SOL    HW215930   6.267   4.049   9.538 -2.5192 -0.7660 -0.5641
 5118SOL     OW15931   1.443   4.337   1.280 -0.1944  0.6583  0.4232
 5118SOL    HW115932   1.406   4.382   1.204 -0.1043  1.2939  0.7558
 5118SOL    HW215933   1.418   4.245   1.267 -1.1656  0.9362  0.2073
 5119SOL     OW15934   0.947   3.268   1.484  0.1476 -0.0484  0.5912
 5119SOL    HW115935   0.886   3.271   1.411 -0.0977 -1.0007  0.7432
 5119SOL    HW215936   0.965   3.175   1.496  0.4856  0.1253  1.4950
 5120SOL     OW15937   5.637   5.072   8.477 -0.2510 -0.5108 -0.0089
 5120SOL    HW115938   5.599   5.095   8.392  0.0175 -0.8356 -0.2180
 5120SOL    HW215939   5.620   4.978   8.486  1.3802 -0.8967 -0.5758
 5121SOL     OW15940   0.720   3.950   5.640  0.4077  0.4432  0.0885
 5121SOL    HW115941   0.694   3.877   5.697  0.5304  0.6831  0.4547
 5121SOL    HW215942   0.753   3.908   5.561 -2.4235  0.0921 -1.0477
 5122SOL     OW15943   6.273   3.838   3.810 -0.1528  0.3175  0.2122
 5122SOL    HW115944   6.315   3.834   3.724 -1.6431  0.0424 -0.5343
 5122SOL    HW215945   6.341   3.811   3.871  0.8886  0.3634 -0.8959
 5123SOL     OW15946   3.483   3.784   0.226  0.2253  0.0110  0.6630
 5123SOL    HW115947   3.440   3.761   0.144  0.7230 -0.0955  0.4258
 5123SOL    HW215948   3.523   3.869   0.210 -0.6380  0.5176  1.1675
 5124SOL     OW15949   4.324   0.897   1.294 -0.2446 -0.7427  0.0341
 5124SOL    HW115950   4.397   0.862   1.345  2.2716  1.7043 -1.6206
 5124SOL    HW215951   4.308   0.831   1.226 -0.5730 -1.9108  1.1958
 5125SOL     OW15952   9.803   0.654   6.277 -0.4366 -0.1853  0.5502
 5125SOL    HW115953   9.740   0.664   6.348 -1.1877  0.2407 -0.1672
 5125SOL    HW215954   9.888   0.656   6.321 -0.9037 -0.6657  1.5122
 5126SOL     OW15955   4.589   4.931   0.644  0.1496  0.0257 -1.0340
 5126SOL    HW115956   4.653   4.890   0.703  0.2739 -0.1252 -1.2722
 5126SOL    HW215957   4.642   4.984   0.584 -0.0248  0.6732 -0.6212
 5127SOL     OW15958   8.134   5.349   9.229 -0.6911 -0.7661  0.4036
 5127SOL    HW115959   8.214   5.359   9.281 -0.6200 -0.3431  0.2219
 5127SOL    HW215960   8.069   5.403   9.275 -0.2533  0.7837 -0.7055
 5128SOL     OW15961   5.567   8.053   3.542  0.0522  0.4819 -0.1424
 5128SOL    HW115962   5.634   8.082   3.603  0.6325  0.0877 -0.5793
 5128SOL    HW215963   5.581   7.958   3.534 -2.4387 -0.1795  2.0471
 5129SOL     OW15964   5.688   3.005   7.373  0.1055  0.3341 -0.2617
 5129SOL    HW115965   5.751   3.075   7.356  1.0169 -0.0735  1.2707
 5129SOL    HW215966   5.619   3.047   7.424  0.0529  0.3788 -0.3698
 5130SOL     OW15967   4.668   4.889   5.436 -0.1971  0.0756  0.6099
 5130SOL    HW115968   4.605   4.876   5.365  0.1050  0.1450  0.3227
 5130SOL    HW215969   4.753   4.874   5.394  0.0399  0.9622  0.7554
 5131SOL     OW15970   9.807   6.978   0.604 -0.0169  0.3669 -0.1810
 5131SOL    HW115971   9.876   6.930   0.559 -1.9946 -3.1758  0.1970
 5131SOL    HW215972   9.847   7.006   0.686  1.6291  0.6391 -1.0484
 5132SOL     OW15973   0.801   5.418   3.614 -0.2686 -0.1901  0.6923
 5132SOL    HW115974   0.808   5.333   3.658  1.1353 -0.0022  0.8625
 5132SOL    HW215975   0.890   5.452   3.612 -1.0347  2.1421  2.2559
 5133SOL     OW15976   7.217   6.147   4.225 -0.3841 -0.3513 -0.2330
 5133SOL    HW115977   7.161   6.191   4.161  0.0856 -0.5985 -0.8167
 5133SOL    HW215978   7.198   6.192   4.307 -2.4056 -1.2856 -0.1349
 5134SOL     OW15979   3.830   3.202   5.850 -0.4543  0.3251  0.0285
 5134SOL    HW115980   3.777   3.125   5.874 -0.6823  0.3751 -0.3053
 5134SOL    HW215981   3.766   3.265   5.817 -0.7570  1.9815  3.3550
 5135SOL     OW15982   6.044   9.467   3.964 -0.3039  0.2827  0.4058
 5135SOL    HW115983   6.028   9.400   4.030  0.4834  0.1853  0.5049
 5135SOL    HW215984   6.133   9.499   3.983 -1.2202  2.4726  1.3513
 5136SOL     OW15985   2.078   5.024   1.033 -0.2322 -0.2242 -0.4718
 5136SOL    HW115986   2.099   5.094   1.094 -0.1224 -0.3678 -0.3466
 5136SOL    HW215987   2.122   4.946   1.068 -0.2260 -0.3220 -0.6932
 5137SOL     OW15988   9.631   2.771   1.425  0.5931  0.0847 -0.0884
 5137SOL    HW115989   9.584   2.731   1.351 -0.6622  0.9147  0.2215
 5137SOL    HW215990   9.576   2.751   1.501  1.1415  0.4361  0.4081
 5138SOL     OW15991   0.286   1.154   0.297  0.6791  0.0584  0.4709
 5138SOL    HW115992   0.303   1.094   0.369  1.3135  1.0273  1.1535
 5138SOL    HW215993   0.253   1.099   0.226  1.7880 -1.1773  0.8847
 5139SOL     OW15994   2.846   7.525   4.396  0.5055  0.2819 -0.4632
 5139SOL    HW115995   2.805   7.585   4.333  0.8370 -0.5004 -1.4601
 5139SOL    HW215996   2.814   7.439   4.370  2.6851 -0.3483 -1.2129
 5140SOL     OW15997   5.679   7.574   0.371  0.2492 -0.3022  0.1561
 5140SOL    HW115998   5.673   7.656   0.320  0.0343 -0.1312  0.4536
 5140SOL    HW215999   5.588   7.552   0.391  0.3179 -0.5235  0.2254
 5141SOL     OW16000   1.349   8.388   9.447 -0.1819  0.0953  0.0554
 5141SOL    HW116001   1.408   8.379   9.373 -1.2349 -0.3445 -0.7499
 5141SOL    HW216002   1.316   8.477   9.441 -0.7895 -0.1600 -0.4063
 5142SOL     OW16003   8.694   4.226   1.394  0.3182 -0.4253 -0.7553
 5142SOL    HW116004   8.752   4.224   1.318 -0.4091 -1.4012 -1.2969
 5142SOL    HW216005   8.606   4.219   1.357 -0.1057  0.1092  0.1197
 5143SOL     OW16006   8.849   8.477   4.553  0.6445  0.1055  0.7131
 5143SOL    HW116007   8.844   8.556   4.607  0.0488  0.5743 -0.0023
 5143SOL    HW216008   8.777   8.422   4.584  0.0191  0.5679  0.1210
 5144SOL     OW16009   3.969   9.328   6.680 -0.0553 -0.1696  0.2635
 5144SOL    HW116010   4.049   9.294   6.721 -0.8096 -0.7458  1.3162
 5144SOL    HW216011   3.931   9.385   6.747  0.4704  1.7153 -0.9663
 5145SOL     OW16012   4.930   5.586   1.359 -0.0940  0.1969 -0.3055
 5145SOL    HW116013   4.981   5.511   1.390 -1.6878 -0.5696  0.5737
 5145SOL    HW216014   4.913   5.567   1.267  0.6619  0.1663 -0.4457
 5146SOL     OW16015   8.678   8.293   4.376 -0.4957  0.3014  0.2752
 5146SOL    HW116016   8.611   8.228   4.356  0.1893  0.1548 -1.6696
 5146SOL    HW216017   8.638   8.376   4.350 -0.8428  0.5257  1.4649
 5147SOL     OW16018   6.541   5.577   4.492 -1.0042  0.3726  0.3311
 5147SOL    HW116019   6.608   5.509   4.495 -0.6519  0.7255  0.6178
 5147SOL    HW216020   6.461   5.533   4.517 -0.9380 -0.1207 -0.3008
 5148SOL     OW16021   1.126   7.136   7.719 -0.0483  0.1193  0.0035
 5148SOL    HW116022   1.125   7.231   7.713  1.8465  0.1744 -0.2228
 5148SOL    HW216023   1.090   7.106   7.635  0.8711  0.6799 -0.6096
 5149SOL     OW16024   2.933   8.130   1.595 -1.0079 -0.3133 -0.8235
 5149SOL    HW116025   2.874   8.061   1.565  0.3673 -1.4117 -1.0645
 5149SOL    HW216026   3.021   8.097   1.577 -0.2559  0.7630  0.6248
 5150SOL     OW16027   6.959   9.124   9.374 -0.1612  0.4343 -0.2983
 5150SOL    HW116028   6.954   9.127   9.470 -0.5581  1.9543 -0.3447
 5150SOL    HW216029   6.995   9.209   9.349  0.0088  0.0306 -1.5105
 5151SOL     OW16030   3.316   3.315   4.155 -0.2039  0.3063 -0.2600
 5151SOL    HW116031   3.339   3.406   4.141 -1.0756  0.5156 -0.3989
 5151SOL    HW216032   3.340   3.298   4.246 -1.8497  1.2676  0.4027
 5152SOL     OW16033   1.590   2.976   9.808  0.5104 -0.4650  0.2237
 5152SOL    HW116034   1.531   2.925   9.753  0.9469 -1.2411  0.4703
 5152SOL    HW216035   1.561   3.067   9.795 -0.7503 -0.8210  0.3494
 5153SOL     OW16036   2.018   2.608   9.009 -0.0385  0.1105  0.4507
 5153SOL    HW116037   1.928   2.641   9.017 -0.8358 -1.7564 -0.2867
 5153SOL    HW216038   2.042   2.581   9.097 -0.3270  0.2914  0.5858
 5154SOL     OW16039   3.361   3.037   3.245 -0.1907 -0.8499  0.1282
 5154SOL    HW116040   3.387   2.954   3.286 -1.2667 -0.4844  1.6427
 5154SOL    HW216041   3.266   3.038   3.250 -0.1934  0.5531  0.3361
 5155SOL     OW16042   6.696   9.452   3.987 -0.0891 -0.1629  0.6613
 5155SOL    HW116043   6.605   9.443   4.013 -0.7057  0.6958 -1.0604
 5155SOL    HW216044   6.696   9.438   3.892  1.0449  2.9041  0.0982
 5156SOL     OW16045   2.199   8.887   5.985 -0.2265  0.5765 -0.0538
 5156SOL    HW116046   2.121   8.856   5.939 -0.7848  0.7235  0.7731
 5156SOL    HW216047   2.178   8.875   6.078  0.8004  0.4636  0.1740
 5157SOL     OW16048   6.765   7.546   5.217  0.5168 -0.1922 -1.0154
 5157SOL    HW116049   6.776   7.623   5.160  2.3098  0.0910 -0.3481
 5157SOL    HW216050   6.851   7.505   5.219  0.3992 -0.4431  1.1275
 5158SOL     OW16051   2.752   1.683   7.982 -0.4021 -0.6204 -0.5137
 5158SOL    HW116052   2.752   1.587   7.990 -2.7286 -0.5731  0.7858
 5158SOL    HW216053   2.704   1.713   8.059  0.2304  1.6122 -0.9364
 5159SOL     OW16054   8.147   3.428   6.992 -0.0650 -0.3431 -0.4416
 5159SOL    HW116055   8.122   3.502   7.047 -0.4620  0.0986 -1.1983
 5159SOL    HW216056   8.106   3.446   6.907  1.5867 -0.3492 -1.2786
 5160SOL     OW16057   9.694   4.511   3.268  0.6244 -0.0465 -0.5855
 5160SOL    HW116058   9.717   4.492   3.359 -1.8460 -0.8333 -0.0458
 5160SOL    HW216059   9.713   4.604   3.257  0.9482  0.0653  0.7416
 5161SOL     OW16060   4.558   2.399   5.881 -0.0089 -0.6099  0.3782
 5161SOL    HW116061   4.516   2.394   5.966  3.0320 -0.8758  1.9959
 5161SOL    HW216062   4.566   2.308   5.852  0.0046 -0.6007  0.3522
 5162SOL     OW16063   6.918   6.214   0.670  0.4395 -0.3017 -0.2000
 5162SOL    HW116064   6.992   6.263   0.635 -1.7028  2.4296 -1.3312
 5162SOL    HW216065   6.929   6.215   0.765  1.4347  0.7273 -0.3202
 5163SOL     OW16066   3.216   6.460   4.609  0.2526  0.7800 -0.4377
 5163SOL    HW116067   3.207   6.396   4.538 -0.3549 -0.2531  0.5388
 5163SOL    HW216068   3.147   6.437   4.671  0.8578  1.5807  0.5663
 5164SOL     OW16069   7.495   8.801   6.244  0.4056  0.2968  0.3971
 5164SOL    HW116070   7.453   8.812   6.329 -0.4133  1.0036 -0.0846
 5164SOL    HW216071   7.560   8.732   6.258 -0.9168 -0.8470  1.1558
 5165SOL     OW16072   8.279   1.431   9.134  0.4804 -0.0589  0.2608
 5165SOL    HW116073   8.357   1.486   9.130  0.6688 -0.2200  1.3805
 5165SOL    HW216074   8.281   1.381   9.053  1.1260  0.4899 -0.0750
 5166SOL     OW16075   6.140   8.945   1.561 -0.2295  0.2791 -0.3028
 5166SOL    HW116076   6.206   8.900   1.507  0.8194  1.2510  0.1354
 5166SOL    HW216077   6.169   8.930   1.651 -1.8743 -1.1826  0.0388
 5167SOL     OW16078   9.238   8.542   1.051 -0.0518 -0.1759 -0.1972
 5167SOL    HW116079   9.264   8.477   1.117 -2.0020 -0.4534  0.3511
 5167SOL    HW216080   9.210   8.489   0.976  0.9251  0.1189 -0.7907
 5168SOL     OW16081   0.912   2.634   4.101  0.8940 -0.5018 -0.4111
 5168SOL    HW116082   0.988   2.603   4.052  2.1495  0.4538  0.8618
 5168SOL    HW216083   0.948   2.671   4.181 -0.6803  2.0512 -0.7587
 5169SOL     OW16084   2.112   8.321   5.355 -0.0386  0.1905 -0.3751
 5169SOL    HW116085   2.113   8.235   5.397 -0.0607  0.6732  0.6360
 5169SOL    HW216086   2.137   8.303   5.264 -1.0393 -1.0081 -0.4385
 5170SOL     OW16087   0.845   3.318   9.015 -0.0014 -0.5731 -0.4994
 5170SOL    HW116088   0.923   3.307   9.068  0.5443  0.4555 -1.0638
 5170SOL    HW216089   0.774   3.280   9.067  0.5583  0.2127  0.8616
 5171SOL     OW16090   1.540   3.131   0.087 -0.1496  0.2396 -0.3312
 5171SOL    HW116091   1.514   3.046   0.051  0.6562 -0.1075 -0.1292
 5171SOL    HW216092   1.532   3.120   0.181 -0.5449  0.5587 -0.3296
 5172SOL     OW16093   4.111   1.199   2.360  0.3358  0.6459  0.5694
 5172SOL    HW116094   4.177   1.131   2.366 -0.3846 -0.0953  0.2285
 5172SOL    HW216095   4.091   1.207   2.266 -0.7135  0.2029  0.7352
 5173SOL     OW16096   0.876   6.675   4.664  0.1411 -0.1057  0.1769
 5173SOL    HW116097   0.838   6.762   4.665  1.0745  0.3135  0.4231
 5173SOL    HW216098   0.860   6.643   4.576 -1.7879 -0.4250  0.5944
 5174SOL     OW16099   7.630   6.171   1.498  0.3741  0.3897 -0.0050
 5174SOL    HW116100   7.549   6.186   1.548 -0.1701  0.5508 -0.9017
 5174SOL    HW216101   7.659   6.258   1.472 -1.0025  0.2126 -2.4629
 5175SOL     OW16102   0.728   3.403   1.821  0.2901 -0.1213 -0.2951
 5175SOL    HW116103   0.807   3.438   1.862  0.0663 -0.6907  0.6569
 5175SOL    HW216104   0.685   3.354   1.891  0.1402 -1.5421 -1.3459
 5176SOL     OW16105   3.706   9.676   6.729 -0.1530 -0.3573  0.1410
 5176SOL    HW116106   3.730   9.658   6.638 -0.2129 -0.8445  0.2172
 5176SOL    HW216107   3.746   9.604   6.779 -1.4813 -1.0198  0.3008
 5177SOL     OW16108   2.024   1.028   5.867  0.3589  0.4537  0.2765
 5177SOL    HW116109   2.053   1.119   5.877 -0.7002  0.7920  0.3059
 5177SOL    HW216110   1.970   1.028   5.788 -1.8525  0.4366  1.7005
 5178SOL     OW16111   0.267   2.677   9.925 -0.4380 -0.4740 -0.1919
 5178SOL    HW116112   0.328   2.605   9.907 -0.7791 -0.7909 -0.0912
 5178SOL    HW216113   0.246   2.667  10.018  0.9778  0.8851  0.3221
 5179SOL     OW16114   9.151   1.982   8.249 -0.3471  0.4952 -0.2000
 5179SOL    HW116115   9.186   2.058   8.203 -0.2581  0.1013 -0.7975
 5179SOL    HW216116   9.087   1.945   8.188  0.9914 -1.0284 -0.7483
 5180SOL     OW16117   1.364   2.811   5.518 -0.6116  0.1449  0.7501
 5180SOL    HW116118   1.286   2.830   5.466 -0.6255 -0.5002  0.5337
 5180SOL    HW216119   1.435   2.803   5.454 -0.4238  0.3987  0.9195
 5181SOL     OW16120   1.636   0.902   6.300  0.5983 -0.4639  0.5999
 5181SOL    HW116121   1.677   0.969   6.245 -1.7931  0.0376 -0.6812
 5181SOL    HW216122   1.548   0.893   6.265  0.7075 -4.0912  0.8912
 5182SOL     OW16123   8.270   6.873  -0.008  0.2381 -0.4867 -0.1633
 5182SOL    HW116124   8.322   6.916   0.060 -0.2258 -1.3942  0.7882
 5182SOL    HW216125   8.205   6.939  -0.033 -0.9019 -0.7900  1.7703
 5183SOL     OW16126   5.111   7.756   1.513  0.0955 -0.4516  0.5390
 5183SOL    HW116127   5.193   7.774   1.467  0.6980 -0.0153  1.7381
 5183SOL    HW216128   5.110   7.819   1.585 -2.3914  1.0872 -0.7172
 5184SOL     OW16129   1.739   7.744   8.025 -0.3170  0.2555 -0.0929
 5184SOL    HW116130   1.755   7.650   8.024 -3.2252 -0.3291 -0.4355
 5184SOL    HW216131   1.707   7.762   8.113 -1.0826  0.6508 -0.4428
 5185SOL     OW16132   0.806   7.870   5.530  0.3810  0.1007  0.5786
 5185SOL    HW116133   0.721   7.855   5.573 -0.1794  2.6578  0.5398
 5185SOL    HW216134   0.867   7.816   5.580 -0.8419  0.1981  2.3095
 5186SOL     OW16135   1.699   2.549   1.138 -0.2441 -0.3813 -0.0270
 5186SOL    HW116136   1.734   2.508   1.217 -2.1039 -1.3877  0.3283
 5186SOL    HW216137   1.672   2.636   1.166  1.0936  0.0879 -0.1100
 5187SOL     OW16138   0.522   4.795   0.590 -0.0128  0.2541 -0.0407
 5187SOL    HW116139   0.545   4.702   0.584 -1.5521 -0.1985  0.5857
 5187SOL    HW216140   0.520   4.813   0.684 -3.1766 -0.0689  0.0623
 5188SOL     OW16141   5.990   2.945   5.973 -0.0889  0.5553  0.6493
 5188SOL    HW116142   5.910   2.982   6.013  0.0262  0.6283  0.8157
 5188SOL    HW216143   5.959   2.903   5.893 -0.0720  2.0469 -0.1802
 5189SOL     OW16144   6.765   4.159   6.201  0.3583 -0.3087  0.0562
 5189SOL    HW116145   6.797   4.203   6.122 -0.6800  0.3439 -0.0280
 5189SOL    HW216146   6.716   4.084   6.167 -0.4139  0.1894  0.0478
 5190SOL     OW16147   3.945   7.378   1.531  0.0527 -0.0817  0.1308
 5190SOL    HW116148   3.928   7.469   1.507  1.5070  0.5802  1.4663
 5190SOL    HW216149   4.003   7.383   1.607  0.2713 -2.1264  0.1591
 5191SOL     OW16150   0.514   3.172   2.080  0.3050 -0.3133  0.2319
 5191SOL    HW116151   0.500   3.105   2.014  1.2626 -0.9836  0.6884
 5191SOL    HW216152   0.432   3.221   2.082  0.3244 -0.1128 -1.6127
 5192SOL     OW16153   0.107   4.783   7.917 -0.1521  0.3033  0.3893
 5192SOL    HW116154   0.158   4.711   7.955 -0.4550 -0.4480 -0.5920
 5192SOL    HW216155   0.166   4.823   7.853  0.4221  1.6839  1.7107
 5193SOL     OW16156   7.809   8.200   3.711  0.1976 -0.3890  0.2742
 5193SOL    HW116157   7.831   8.239   3.626  1.8297  3.2381  2.1375
 5193SOL    HW216158   7.719   8.226   3.727 -0.1709 -1.2281 -0.3822
 5194SOL     OW16159   3.424   6.505   4.849 -0.3079  0.2283  0.5642
 5194SOL    HW116160   3.401   6.520   4.757 -0.4737 -0.8061  0.4208
 5194SOL    HW216161   3.341   6.482   4.891  0.2433 -3.0939  0.1352
 5195SOL     OW16162   0.028   2.739   9.425 -0.0327  0.3129  0.4004
 5195SOL    HW116163   0.093   2.749   9.495  0.3646  2.1383 -0.1883
 5195SOL    HW216164   0.044   2.651   9.391  0.7412 -0.0579  1.6308
 5196SOL     OW16165   0.599   2.564   2.712 -0.0757  0.6666 -0.3695
 5196SOL    HW116166   0.541   2.564   2.636 -0.0948  1.8327 -0.3683
 5196SOL    HW216167   0.544   2.532   2.784  0.0821 -0.9507 -0.9099
 5197SOL     OW16168   1.324   0.302   7.880 -0.0958 -0.6942 -0.2784
 5197SOL    HW116169   1.267   0.369   7.842 -0.3461 -0.0867  1.1258
 5197SOL    HW216170   1.264   0.231   7.904  0.0293 -0.9719 -0.7784
 5198SOL     OW16171   7.885   7.215   4.655 -0.1100  0.0920  0.3096
 5198SOL    HW116172   7.817   7.200   4.721 -1.3539  0.3771 -0.8747
 5198SOL    HW216173   7.867   7.150   4.587  1.1734 -0.2142  0.2408
 5199SOL     OW16174   4.630   9.242   7.878  1.0594 -0.5057 -0.2443
 5199SOL    HW116175   4.701   9.183   7.902 -1.6143 -2.7423  3.0122
 5199SOL    HW216176   4.575   9.248   7.956 -1.1881  2.9628 -1.8076
 5200SOL     OW16177   5.472   6.489   4.730  0.5392  0.0774 -0.3571
 5200SOL    HW116178   5.387   6.477   4.687  1.0250  0.7623 -1.5617
 5200SOL    HW216179   5.451   6.502   4.822 -0.6510  0.0526 -0.6124
 5201SOL     OW16180   7.182   2.810   6.063 -0.6965 -0.2420  0.1878
 5201SOL    HW116181   7.090   2.802   6.089 -1.5689  3.2177 -1.2279
 5201SOL    HW216182   7.183   2.787   5.970 -0.4139  0.8507 -0.0988
 5202SOL     OW16183   1.776   8.245   1.998 -0.3168  0.3610  0.0938
 5202SOL    HW116184   1.770   8.176   2.064  1.5643  0.6346  0.5878
 5202SOL    HW216185   1.775   8.198   1.914  1.7945 -0.3961  0.4296
 5203SOL     OW16186   4.016   5.323   4.324  0.2311  0.3972  0.4680
 5203SOL    HW116187   3.931   5.330   4.281 -0.2259 -2.0332  0.8050
 5203SOL    HW216188   4.080   5.333   4.254 -0.4508 -0.7557 -0.3578
 5204SOL     OW16189   5.469   8.341   6.549  0.1691 -0.3674 -0.1624
 5204SOL    HW116190   5.541   8.281   6.566 -0.1214 -0.6299  0.1599
 5204SOL    HW216191   5.504   8.428   6.568  0.0775 -0.5925  1.0770
 5205SOL     OW16192   9.302   2.860   0.132  0.3399  0.1268 -0.3552
 5205SOL    HW116193   9.228   2.878   0.074  1.3301 -0.3462 -1.8152
 5205SOL    HW216194   9.303   2.933   0.193 -3.2858 -1.3676  1.8566
 5206SOL     OW16195   7.920   2.447   3.144  0.4447  0.3695  0.6344
 5206SOL    HW116196   7.913   2.524   3.200 -0.3707 -0.2057  1.3477
 5206SOL    HW216197   7.840   2.397   3.162  0.8957 -0.5741  0.0786
 5207SOL     OW16198   6.967   1.570   0.741  0.4592 -0.1457  0.6495
 5207SOL    HW116199   7.028   1.621   0.687 -1.2660  0.7824 -0.5306
 5207SOL    HW216200   6.880   1.597   0.711 -0.5741 -0.8786  2.7585
 5208SOL     OW16201   6.201   1.943   1.419  0.2317  0.3096  0.0668
 5208SOL    HW116202   6.121   1.944   1.470  0.3330  1.3695  0.2252
 5208SOL    HW216203   6.195   2.020   1.362  1.3237  0.6467  0.3814
 5209SOL     OW16204   0.116   2.443   1.386  0.1014 -0.3997  0.0702
 5209SOL    HW116205   0.072   2.526   1.401  0.3519  0.0538 -1.5596
 5209SOL    HW216206   0.048   2.377   1.401 -0.4549  0.1570  0.0441
 5210SOL     OW16207   3.632   9.210   4.246 -0.5583 -0.0578  0.5565
 5210SOL    HW116208   3.723   9.236   4.234  0.7928 -3.7525  1.5189
 5210SOL    HW216209   3.615   9.149   4.174 -1.9664 -0.1331  0.9196
 5211SOL     OW16210   1.546   1.183   1.777 -0.1327 -1.0630  0.1894
 5211SOL    HW116211   1.592   1.265   1.794 -0.2628 -0.8953 -0.2566
 5211SOL    HW216212   1.563   1.165   1.684 -2.3511 -0.1227 -0.4631
 5212SOL     OW16213   3.982   1.570   4.082 -0.5690 -0.8265  0.1139
 5212SOL    HW116214   3.888   1.581   4.063 -0.0387  1.4666 -1.5712
 5212SOL    HW216215   4.022   1.560   3.996  0.9643  0.3313  0.6629
 5213SOL     OW16216   8.403   0.458   9.233 -0.2520 -0.7306  0.5968
 5213SOL    HW116217   8.337   0.526   9.248  0.9039  0.1730  1.8260
 5213SOL    HW216218   8.353   0.381   9.209 -1.6209  0.5027 -0.7112
 5214SOL     OW16219   5.951   6.879   5.383  0.2913 -0.2992 -0.8517
 5214SOL    HW116220   6.013   6.867   5.455  0.1236 -0.1017 -0.6725
 5214SOL    HW216221   5.992   6.835   5.308  1.5525  1.3966 -1.2426
 5215SOL     OW16222   7.245   3.285   0.738 -0.8250  0.2294 -0.0102
 5215SOL    HW116223   7.297   3.225   0.791 -3.0693 -1.3632  0.5317
 5215SOL    HW216224   7.265   3.372   0.774  0.6160 -0.4084  0.8393
 5216SOL     OW16225   8.997   6.549   0.378  0.5094 -0.0374  0.3537
 5216SOL    HW116226   8.981   6.616   0.445 -0.4216 -1.0085  1.1439
 5216SOL    HW216227   8.948   6.473   0.409  0.0054 -0.5045 -1.4721
 5217SOL     OW16228   9.134   7.973   2.377  0.4244 -0.1771  0.0165
 5217SOL    HW116229   9.058   8.002   2.428  0.1898  0.3915 -0.6501
 5217SOL    HW216230   9.200   8.040   2.393  1.4683 -1.5866  2.0684
 5218SOL     OW16231   7.611   1.037   1.525  0.3519  0.4339 -0.2544
 5218SOL    HW116232   7.561   0.977   1.579 -0.0488  0.6965 -0.3297
 5218SOL    HW216233   7.693   1.051   1.574 -0.3338  1.2916  0.6767
 5219SOL     OW16234   5.571   7.713   8.306 -0.1688  0.4864 -0.3243
 5219SOL    HW116235   5.621   7.678   8.231 -0.3427 -0.0332 -0.2009
 5219SOL    HW216236   5.507   7.772   8.266 -1.0538 -0.6895 -0.7114
 5220SOL     OW16237   4.104   3.006   4.675 -0.6853 -0.0397 -0.4412
 5220SOL    HW116238   4.020   3.001   4.721 -0.6953  1.5812 -0.2519
 5220SOL    HW216239   4.133   2.915   4.670 -2.5334 -0.6591 -0.6915
 5221SOL     OW16240   6.828   2.262   9.583  0.3599  0.0918  0.2484
 5221SOL    HW116241   6.835   2.351   9.617  1.1222  0.7060 -1.4181
 5221SOL    HW216242   6.914   2.224   9.600  0.1368 -0.2391  0.6670
 5222SOL     OW16243   9.301   5.506   6.058  0.0664  0.2158 -0.4367
 5222SOL    HW116244   9.231   5.568   6.038 -1.4452 -0.4606  2.2127
 5222SOL    HW216245   9.363   5.554   6.112  0.9993  0.4286 -1.6419
 5223SOL     OW16246   6.507   8.149   2.611  0.1093  0.9327 -0.4068
 5223SOL    HW116247   6.447   8.218   2.583 -0.9410 -0.2419 -1.1340
 5223SOL    HW216248   6.455   8.069   2.609  0.6311  0.3800  2.6074
 5224SOL     OW16249   1.268   4.457   9.172  0.2858 -0.4608  0.4491
 5224SOL    HW116250   1.301   4.428   9.086  0.5216 -1.2275  0.7909
 5224SOL    HW216251   1.178   4.424   9.175 -0.0086  0.3079  0.1470
 5225SOL     OW16252   1.071   9.376   5.083  0.2333 -0.4223 -0.0321
 5225SOL    HW116253   1.097   9.286   5.106  1.3458 -1.0588 -3.2306
 5225SOL    HW216254   1.123   9.431   5.142  2.2398 -1.8799 -0.3112
 5226SOL     OW16255   8.877   0.731   9.822  0.8055 -0.6018  0.2114
 5226SOL    HW116256   8.876   0.712   9.728  0.4577 -1.1376  0.3204
 5226SOL    HW216257   8.848   0.650   9.863 -0.1213 -0.0309  0.7238
 5227SOL     OW16258   4.415   6.079   2.781 -0.9741  0.1720 -0.5445
 5227SOL    HW116259   4.495   6.056   2.827 -1.7192 -0.8431  0.2936
 5227SOL    HW216260   4.370   5.996   2.767 -1.5979  0.6508 -1.5742
 5228SOL     OW16261   0.099   7.707   4.937  0.0491  1.1543 -0.2026
 5228SOL    HW116262   0.113   7.792   4.979  1.8334  0.7583  0.0811
 5228SOL    HW216263   0.055   7.655   5.004 -1.3493  1.9217 -0.4892
 5229SOL     OW16264   1.859   5.012   4.616 -0.7078  0.2928  0.3957
 5229SOL    HW116265   1.908   4.932   4.593  0.0283  1.4167 -2.2993
 5229SOL    HW216266   1.881   5.027   4.708  0.7332 -1.5053  0.4111
 5230SOL     OW16267   3.926   9.624   6.132 -0.1647  0.1449  0.3878
 5230SOL    HW116268   3.987   9.696   6.146 -2.9489  2.4189  2.0634
 5230SOL    HW216269   3.873   9.653   6.058 -1.6740  0.1617  1.4292
 5231SOL     OW16270   5.272   1.449   4.485 -0.4712 -0.0199  0.8195
 5231SOL    HW116271   5.250   1.488   4.569  0.4014  1.9081  0.2121
 5231SOL    HW216272   5.190   1.453   4.435 -0.5734  0.3755  1.0145
 5232SOL     OW16273   9.587   9.902   4.879 -0.1005 -0.4890 -0.0230
 5232SOL    HW116274   9.637   9.976   4.844  1.0790 -0.6622  1.1765
 5232SOL    HW216275   9.496   9.925   4.864  0.2804  0.5784 -0.8810
 5233SOL     OW16276   0.010   6.332   0.983 -0.3804 -0.3034  0.0267
 5233SOL    HW116277   0.065   6.272   1.034  0.3357 -0.1545 -0.5519
 5233SOL    HW216278   0.041   6.322   0.893 -1.6202 -0.5597 -0.3947
 5234SOL     OW16279   8.517   7.196   5.028 -0.4457  0.1187 -0.7366
 5234SOL    HW116280   8.496   7.248   5.106 -2.3325 -0.9885 -0.4343
 5234SOL    HW216281   8.517   7.105   5.059  0.2473 -0.2370 -1.7350
 5235SOL     OW16282   6.148   9.162   3.860 -0.0980  0.4209 -0.4779
 5235SOL    HW116283   6.194   9.233   3.815  1.0017  0.2215  0.2723
 5235SOL    HW216284   6.218   9.114   3.905 -0.8664 -0.9143 -0.6659
 5236SOL     OW16285   8.724   7.807   4.488 -0.0625  0.4298  0.3763
 5236SOL    HW116286   8.808   7.853   4.490  0.1910  0.0282 -0.5628
 5236SOL    HW216287   8.715   7.778   4.397 -0.8250 -0.2628  0.6646
 5237SOL     OW16288   2.680   4.640   5.949  0.0891  0.4723 -0.0025
 5237SOL    HW116289   2.721   4.598   5.874  1.0407  0.5073  0.4911
 5237SOL    HW216290   2.722   4.725   5.956  0.4970  0.2053  0.9739
 5238SOL     OW16291   8.211   7.178   4.680  0.0830 -0.3040 -0.3542
 5238SOL    HW116292   8.303   7.174   4.707  0.4805 -0.1153 -1.6566
 5238SOL    HW216293   8.213   7.186   4.585 -1.2307  1.7294 -0.2700
 5239SOL     OW16294   2.412   3.782   7.630  0.5430  0.0660  0.4307
 5239SOL    HW116295   2.324   3.819   7.636 -0.0521 -0.9833 -1.2316
 5239SOL    HW216296   2.470   3.855   7.651 -0.6836  1.0915  0.3818
 5240SOL     OW16297   5.058   1.115   6.534  0.0214 -0.4347 -0.3010
 5240SOL    HW116298   4.996   1.043   6.539 -0.2419 -0.1643  0.6523
 5240SOL    HW216299   5.007   1.188   6.499  0.4664 -0.8793 -1.9352
 5241SOL     OW16300   7.988   3.418   6.480 -0.1297  0.1708  0.5759
 5241SOL    HW116301   7.935   3.359   6.535  0.6178 -1.5725 -0.4709
 5241SOL    HW216302   7.924   3.474   6.437 -1.2379 -2.0025 -0.8119
 5242SOL     OW16303   9.735   5.327   6.104 -0.2931 -0.2248 -0.7989
 5242SOL    HW116304   9.783   5.252   6.137 -0.5023 -0.1399 -0.2891
 5242SOL    HW216305   9.767   5.339   6.015 -0.1113 -0.7893 -0.8123
 5243SOL     OW16306   1.171   4.772   7.265 -0.1249  0.7657  0.2715
 5243SOL    HW116307   1.191   4.735   7.179  0.8801  1.5299  0.1534
 5243SOL    HW216308   1.220   4.718   7.326 -1.9505 -0.6684  0.5470
 5244SOL     OW16309   8.504   8.644   4.816  0.0280 -0.0069 -0.1781
 5244SOL    HW116310   8.540   8.715   4.764  1.8859 -1.3444 -0.8238
 5244SOL    HW216311   8.576   8.615   4.872 -0.7884 -1.1300  0.3538
 5245SOL     OW16312   2.328   0.366   2.326  0.1770  0.2358  0.2294
 5245SOL    HW116313   2.244   0.321   2.318  0.4364 -0.0594 -0.9697
 5245SOL    HW216314   2.310   0.457   2.302  0.3001  0.0608 -0.5316
 5246SOL     OW16315   9.311   1.548   1.585  0.2213 -0.0436 -0.6403
 5246SOL    HW116316   9.223   1.574   1.613  0.3260  0.9158 -1.1359
 5246SOL    HW216317   9.336   1.477   1.644 -1.1876 -0.8545 -0.9791
 5247SOL     OW16318   3.194   6.284   7.501 -0.3670  0.0532  0.2031
 5247SOL    HW116319   3.227   6.369   7.529 -0.3000 -0.0066  0.3034
 5247SOL    HW216320   3.108   6.277   7.543 -0.4409  0.1401  0.0677
 5248SOL     OW16321   5.193   7.862   5.990 -0.0709 -0.3083  0.3226
 5248SOL    HW116322   5.243   7.927   6.039  2.1835 -1.6099 -0.1215
 5248SOL    HW216323   5.118   7.843   6.045  0.4720  0.9133  1.5485
 5249SOL     OW16324   5.771   4.749   6.264  0.7940  0.4995  0.4370
 5249SOL    HW116325   5.837   4.732   6.331  2.0016 -0.6539 -0.9843
 5249SOL    HW216326   5.690   4.716   6.301  0.8321  2.3808  2.4238
 5250SOL     OW16327   0.667   8.703   8.900 -0.0535  0.0663  0.1807
 5250SOL    HW116328   0.762   8.710   8.906 -0.1224  1.1812  0.2559
 5250SOL    HW216329   0.649   8.609   8.904  1.2202 -0.3871 -2.6235
 5251SOL     OW16330   8.579   9.970   1.260 -0.2226  0.1036 -0.1747
 5251SOL    HW116331   8.609   9.944   1.348 -1.6248 -0.9731  0.0120
 5251SOL    HW216332   8.491  10.005   1.274  0.0469  1.1543 -1.0046
 5252SOL     OW16333   6.406   6.743   1.369  0.5463 -0.1618 -0.2239
 5252SOL    HW116334   6.328   6.797   1.357 -0.3234 -1.5024 -0.9194
 5252SOL    HW216335   6.426   6.710   1.281  1.1496 -0.8458  0.1600
 5253SOL     OW16336   7.500   1.793   1.480  0.1187  0.3070 -0.0123
 5253SOL    HW116337   7.552   1.786   1.400 -0.2743 -0.0237 -0.2416
 5253SOL    HW216338   7.477   1.886   1.485 -1.6806 -0.0191 -1.4630
 5254SOL     OW16339   0.250   1.594   2.755  0.0760  0.2120  0.1278
 5254SOL    HW116340   0.271   1.668   2.699 -1.1567  0.7244  0.3209
 5254SOL    HW216341   0.327   1.537   2.749  0.3969  0.7534 -1.2385
 5255SOL     OW16342   6.912   6.482   6.081  0.7743  0.7996 -0.0123
 5255SOL    HW116343   6.894   6.398   6.041  1.5624  1.7049 -2.4219
 5255SOL    HW216344   6.972   6.462   6.153 -0.2408 -0.8201  0.4386
 5256SOL     OW16345   5.378   2.688   1.629  0.1659 -0.5576 -0.0927
 5256SOL    HW116346   5.288   2.677   1.600  0.2586  1.7017 -1.5484
 5256SOL    HW216347   5.431   2.656   1.556  0.4952 -0.4413  0.0924
 5257SOL     OW16348   2.294   4.192   3.905  0.3870 -0.7676 -0.1059
 5257SOL    HW116349   2.267   4.207   3.815  0.2603  1.7529  0.2810
 5257SOL    HW216350   2.212   4.193   3.955  0.6640  2.2945  0.4967
 5258SOL     OW16351   8.622   1.234   3.069 -0.0685  0.2216  0.4336
 5258SOL    HW116352   8.579   1.316   3.044  2.1622  1.7785  1.4286
 5258SOL    HW216353   8.625   1.236   3.164  2.8631  0.6499  0.4322
 5259SOL     OW16354   2.887   6.735   6.122  0.4805  0.0292  0.3498
 5259SOL    HW116355   2.861   6.808   6.066 -0.1221 -0.7026 -0.3570
 5259SOL    HW216356   2.976   6.713   6.093  0.3526 -0.0380  0.0034
 5260SOL     OW16357   6.670   3.647   0.670 -0.1350 -0.3260 -0.0821
 5260SOL    HW116358   6.628   3.636   0.584 -0.2997  0.1451 -0.0695
 5260SOL    HW216359   6.652   3.566   0.717  2.5575 -1.9168 -1.5533
 5261SOL     OW16360   7.002   8.836   4.631  0.6755  0.1965 -0.6965
 5261SOL    HW116361   7.055   8.801   4.559  1.9329 -0.2075  0.3806
 5261SOL    HW216362   7.062   8.894   4.678 -0.1116  0.4141  0.0513
 5262SOL     OW16363   6.159   5.711   4.182 -0.0265 -0.4595 -0.6068
 5262SOL    HW116364   6.137   5.804   4.169 -1.8669 -0.6614  0.6525
 5262SOL    HW216365   6.156   5.699   4.277 -1.5226 -2.1593 -0.8107
 5263SOL     OW16366   6.950   3.603   0.637  0.4200  0.4556 -0.7052
 5263SOL    HW116367   6.879   3.626   0.697 -0.0852 -0.3661 -0.9694
 5263SOL    HW216368   6.909   3.602   0.551  0.9374  0.7225 -0.9614
 5264SOL     OW16369   2.957   0.451   9.909 -0.3447  0.9669  0.1839
 5264SOL    HW116370   2.943   0.437  10.003  1.6763  0.0104  0.4102
 5264SOL    HW216371   2.888   0.402   9.866 -0.1259 -0.2472  1.1755
 5265SOL     OW16372   9.671   4.573   4.913  0.8833  0.7853 -0.0493
 5265SOL    HW116373   9.601   4.626   4.875  1.6891  1.3333 -0.8179
 5265SOL    HW216374   9.645   4.483   4.897  0.4495  0.9892 -0.5235
 5266SOL     OW16375   1.939   7.985   4.849 -0.0543 -0.6625  0.6145
 5266SOL    HW116376   1.918   7.961   4.939  2.6918 -2.1973  0.9549
 5266SOL    HW216377   1.990   7.911   4.816  2.6396  1.6061 -0.7543
 5267SOL     OW16378   6.989   2.074   2.668  0.0263 -0.2961  0.3974
 5267SOL    HW116379   7.020   2.129   2.596  2.1550 -1.9557 -0.0610
 5267SOL    HW216380   6.953   1.996   2.625 -2.3130  0.3526  1.0554
 5268SOL     OW16381   2.949   1.988   0.975 -0.1869 -0.2090  0.1084
 5268SOL    HW116382   2.859   2.011   0.998 -0.1432  1.0644 -0.8783
 5268SOL    HW216383   2.954   1.893   0.989 -1.0593 -0.0045  2.1497
 5269SOL     OW16384   5.117   2.131   5.829  0.4199 -0.0732  0.0485
 5269SOL    HW116385   5.055   2.191   5.870 -0.0625 -1.5662  1.6363
 5269SOL    HW216386   5.203   2.162   5.858  0.2107  0.1844  0.4045
 5270SOL     OW16387   7.470   4.589   1.010  0.2881 -0.3131 -0.1825
 5270SOL    HW116388   7.483   4.681   0.986  0.5381  0.0800  1.3421
 5270SOL    HW216389   7.380   4.585   1.041  0.6708 -0.2908  0.9571
 5271SOL     OW16390   7.467   7.930   2.418  0.6664 -0.3449 -0.4146
 5271SOL    HW116391   7.539   7.940   2.481  0.4361  0.3854 -0.2584
 5271SOL    HW216392   7.439   8.020   2.400  1.2159 -0.4818 -2.1269
 5272SOL     OW16393   3.706   5.395   2.063 -0.2964 -0.5211 -0.1913
 5272SOL    HW116394   3.757   5.365   2.138 -0.9428  1.1963  0.9939
 5272SOL    HW216395   3.666   5.315   2.027  2.1632 -1.7520 -0.4247
 5273SOL     OW16396   8.757   7.602   2.496  0.1689 -0.3676 -0.3459
 5273SOL    HW116397   8.846   7.627   2.518  0.2413  1.0963 -2.0985
 5273SOL    HW216398   8.710   7.685   2.485 -1.2105 -1.0967 -0.2080
 5274SOL     OW16399   9.931   5.702   3.604 -0.5111  0.6148 -0.0514
 5274SOL    HW116400   9.986   5.625   3.589 -0.8772  0.3162  0.1165
 5274SOL    HW216401   9.980   5.755   3.666 -1.3524 -0.6882  1.8451
 5275SOL     OW16402   4.482   3.534   4.544 -0.2766 -0.1597  0.0059
 5275SOL    HW116403   4.568   3.533   4.501 -0.7440  0.9646 -0.9944
 5275SOL    HW216404   4.502   3.557   4.635  0.5905 -1.1587  0.0889
 5276SOL     OW16405   8.060   2.504   7.123  0.1147  0.4280 -0.4736
 5276SOL    HW116406   8.111   2.432   7.159 -1.9822 -1.6182 -1.3943
 5276SOL    HW216407   8.125   2.574   7.110  1.6945 -0.0288  3.4140
 5277SOL     OW16408   3.156   1.595   4.763  0.0603 -0.0495 -0.5967
 5277SOL    HW116409   3.163   1.511   4.718 -1.2798  0.2717 -1.4719
 5277SOL    HW216410   3.144   1.573   4.855  2.1933 -0.7345 -0.4327
 5278SOL     OW16411   2.537   0.506   6.043 -0.2894 -0.5575  0.6937
 5278SOL    HW116412   2.469   0.500   6.111  0.1307  0.8615  1.2947
 5278SOL    HW216413   2.620   0.507   6.092  0.1177 -1.2250  0.0369
 5279SOL     OW16414   0.589   9.429   6.200 -0.3320  0.1533  0.3952
 5279SOL    HW116415   0.530   9.391   6.265  0.4501  0.5338  1.3430
 5279SOL    HW216416   0.662   9.367   6.195  0.5031  1.0433  1.2662
 5280SOL     OW16417   4.628   8.074   4.535  0.1743 -0.2201  0.3843
 5280SOL    HW116418   4.648   8.014   4.464 -0.2445 -0.1441  0.2031
 5280SOL    HW216419   4.533   8.070   4.545 -0.3285  2.8928 -1.8517
 5281SOL     OW16420   2.709   3.568   4.209  0.0618  0.4416  0.5651
 5281SOL    HW116421   2.678   3.639   4.264 -1.3984  0.4056 -0.1488
 5281SOL    HW216422   2.760   3.512   4.268  0.9504  1.8717  1.2008
 5282SOL     OW16423   3.532   4.199   0.318  0.5762  0.2405  0.1741
 5282SOL    HW116424   3.519   4.293   0.305 -0.6057  0.0813  0.0568
 5282SOL    HW216425   3.528   4.188   0.414 -1.5629  0.0591  0.1221
 5283SOL     OW16426   5.662   8.124   9.650 -0.0030 -0.2874  0.2054
 5283SOL    HW116427   5.748   8.093   9.622 -0.6379 -3.0765  1.0146
 5283SOL    HW216428   5.672   8.219   9.657  2.3158 -0.2734 -1.8958
 5284SOL     OW16429   9.403   7.537   3.646 -0.2770 -0.6012 -0.4398
 5284SOL    HW116430   9.347   7.599   3.600 -1.6467 -1.2051  0.3466
 5284SOL    HW216431   9.343   7.469   3.677  0.8505 -1.1209  0.7003
 5285SOL     OW16432   9.394   7.534   8.727  0.1972  0.1796  0.2062
 5285SOL    HW116433   9.303   7.529   8.758  1.2162 -1.4148  3.3662
 5285SOL    HW216434   9.428   7.615   8.765  0.2293  0.5738 -0.6470
 5286SOL     OW16435   8.619   3.402   4.327 -0.0821  0.2161 -0.1573
 5286SOL    HW116436   8.557   3.347   4.374  0.4464  1.7077  2.5191
 5286SOL    HW216437   8.578   3.488   4.323  0.5690  0.5058 -1.0537
 5287SOL     OW16438   5.151   4.590   7.367 -0.4471 -0.3243 -0.8532
 5287SOL    HW116439   5.146   4.572   7.273  1.8070  1.3436 -1.3660
 5287SOL    HW216440   5.174   4.506   7.406 -0.9385 -0.9299 -1.8252
 5288SOL     OW16441   4.069   7.960   2.058 -0.1143  0.1192 -0.0555
 5288SOL    HW116442   3.988   7.921   2.091  0.2238  1.2385  2.3105
 5288SOL    HW216443   4.114   7.887   2.015 -1.3991 -1.0369  0.4564
 5289SOL     OW16444   0.719   8.652   0.324  0.1129  0.4815 -0.1963
 5289SOL    HW116445   0.652   8.585   0.310 -0.0622  0.4985  0.5176
 5289SOL    HW216446   0.712   8.709   0.247 -0.3110  0.1633 -0.3991
 5290SOL     OW16447   5.674   6.593   0.780  0.3710  0.2362 -0.0852
 5290SOL    HW116448   5.741   6.608   0.846 -1.2432  0.4013  1.6066
 5290SOL    HW216449   5.595   6.571   0.830 -0.7267 -0.4389 -1.9996
 5291SOL     OW16450   2.111   8.087   4.622 -0.7313 -0.0012 -0.0841
 5291SOL    HW116451   2.124   8.098   4.716  0.2496 -1.1592 -0.0606
 5291SOL    HW216452   2.017   8.100   4.609 -0.8268  0.4593  1.0112
 5292SOL     OW16453   2.111   1.307   4.361 -0.0713 -0.4539  0.4238
 5292SOL    HW116454   2.050   1.241   4.394 -2.1180  1.0950 -0.0655
 5292SOL    HW216455   2.171   1.323   4.434 -1.2654 -0.8554  1.5369
 5293SOL     OW16456   4.151   5.862   1.425 -0.0553  0.0975  0.7988
 5293SOL    HW116457   4.183   5.845   1.337 -2.1278 -1.3643  0.2504
 5293SOL    HW216458   4.224   5.906   1.469  0.8522  1.3655 -1.7682
 5294SOL     OW16459   9.217   7.389   7.353 -0.2272  0.1738 -0.5014
 5294SOL    HW116460   9.243   7.382   7.261  1.5438  4.0112 -0.5017
 5294SOL    HW216461   9.125   7.362   7.355 -0.1711 -0.4580 -3.2698
 5295SOL     OW16462   5.014   7.756   6.187 -0.5377 -0.0188  0.2160
 5295SOL    HW116463   4.959   7.696   6.235 -0.8503 -0.8610 -1.1436
 5295SOL    HW216464   4.956   7.827   6.161 -1.1909 -1.1739 -1.6920
 5296SOL     OW16465   1.305   6.998   0.559 -0.0250 -0.0307 -0.0869
 5296SOL    HW116466   1.304   7.094   0.557 -2.1327  0.0074  0.5577
 5296SOL    HW216467   1.258   6.972   0.480 -0.6196 -0.4952  0.4122
 5297SOL     OW16468   4.741   0.894   9.848  0.0082  0.3756  0.4119
 5297SOL    HW116469   4.755   0.879   9.754 -2.1228 -1.3591  0.3041
 5297SOL    HW216470   4.716   0.986   9.853 -0.7926  0.2648 -0.8835
 5298SOL     OW16471   5.184   0.649   9.157  0.0238 -0.5694 -0.3884
 5298SOL    HW116472   5.236   0.568   9.149 -0.6548 -0.9085 -1.8307
 5298SOL    HW216473   5.119   0.629   9.224  0.2981 -0.9703 -0.2331
 5299SOL     OW16474   9.575   1.096   2.700  0.3387 -0.1836  0.4827
 5299SOL    HW116475   9.603   1.137   2.782 -1.2363 -0.8509  1.4052
 5299SOL    HW216476   9.486   1.065   2.718 -0.4901  0.6517 -1.8612
 5300SOL     OW16477   1.589   3.277   7.656 -0.2223  0.1987  0.0906
 5300SOL    HW116478   1.565   3.232   7.737  1.2757  0.7329  0.8648
 5300SOL    HW216479   1.575   3.211   7.587 -1.9548 -0.1157  0.6805
 5301SOL     OW16480   8.604   0.815   4.968  0.0465 -0.3130  0.3722
 5301SOL    HW116481   8.526   0.869   4.979 -0.4764 -1.1721  1.0200
 5301SOL    HW216482   8.583   0.734   5.014  1.5084 -0.3722  0.9886
 5302SOL     OW16483   9.735   3.013   1.404 -0.2532  0.1801  0.3348
 5302SOL    HW116484   9.761   3.021   1.496 -0.2807 -0.3769  0.3976
 5302SOL    HW216485   9.698   2.925   1.398 -0.9989  0.5155 -0.0322
 5303SOL     OW16486   6.895   4.678   2.363 -0.3022  0.2755  0.1549
 5303SOL    HW116487   6.904   4.592   2.404 -1.7224 -0.6065 -1.2563
 5303SOL    HW216488   6.952   4.674   2.286 -0.5014  0.5494 -0.0084
 5304SOL     OW16489   0.215   9.570   3.478  0.1782  0.0167 -0.4232
 5304SOL    HW116490   0.283   9.574   3.411  0.7043 -2.3894 -0.0961
 5304SOL    HW216491   0.142   9.525   3.436 -0.1642  0.0699  0.0977
 5305SOL     OW16492   6.223   7.911   1.997  0.2269 -0.1874 -0.6949
 5305SOL    HW116493   6.183   7.916   1.910 -1.1305  0.1449 -0.0831
 5305SOL    HW216494   6.148   7.898   2.056  1.0054  0.7401  0.5352
 5306SOL     OW16495   8.118   0.482   1.787  0.0961  0.4572 -0.0249
 5306SOL    HW116496   8.069   0.447   1.863 -0.6734  0.1236 -0.6562
 5306SOL    HW216497   8.180   0.412   1.766  0.0486  0.3872  0.0590
 5307SOL     OW16498   0.376   8.187   1.143  0.3788  0.0091 -0.3467
 5307SOL    HW116499   0.316   8.239   1.195  1.6604  0.8949  0.3115
 5307SOL    HW216500   0.328   8.167   1.063 -1.8846 -1.9084  1.3403
 5308SOL     OW16501   2.492   9.333   7.601  0.4457  0.1543 -0.0404
 5308SOL    HW116502   2.458   9.420   7.624 -0.2674 -0.2687  0.5276
 5308SOL    HW216503   2.512   9.292   7.686  0.0528 -0.5228 -0.2686
 5309SOL     OW16504   6.269   8.297   7.979  0.6319  0.1376 -0.4290
 5309SOL    HW116505   6.343   8.269   8.034 -0.4345  0.0257  1.0075
 5309SOL    HW216506   6.262   8.230   7.912  2.1286  0.4019 -0.8917
 5310SOL     OW16507   1.108   1.639   9.532  0.0572 -0.4967  0.4013
 5310SOL    HW116508   1.075   1.668   9.446 -1.2236 -0.3770  0.9094
 5310SOL    HW216509   1.153   1.556   9.514  0.0453 -0.3336 -0.4210
 5311SOL     OW16510   4.385   9.037   7.906 -0.1954  0.1675 -0.1544
 5311SOL    HW116511   4.414   9.112   7.853  0.0968 -0.9251 -1.5931
 5311SOL    HW216512   4.315   9.072   7.960  1.7973  2.1908  1.3248
 5312SOL     OW16513   8.933   4.220   7.766  0.3930 -0.2243  0.0804
 5312SOL    HW116514   8.878   4.237   7.843 -0.6386 -0.4078 -0.5956
 5312SOL    HW216515   9.016   4.265   7.786 -0.7025  1.8489  0.2493
 5313SOL     OW16516   5.243   1.828   0.780 -0.3948 -0.6055  0.2364
 5313SOL    HW116517   5.209   1.809   0.867 -0.5982 -0.9395  0.0879
 5313SOL    HW216518   5.230   1.922   0.768  1.6904 -0.1152  1.4514
 5314SOL     OW16519   1.839   3.916   7.072 -0.1461 -0.2715  0.3650
 5314SOL    HW116520   1.831   3.838   7.018 -0.5777 -0.0494  0.1007
 5314SOL    HW216521   1.775   3.904   7.142 -0.7166  0.1606 -0.0741
 5315SOL     OW16522   7.554   1.107   4.917 -0.0530  0.6402 -0.3862
 5315SOL    HW116523   7.590   1.165   4.983  0.2647 -0.4532  0.4149
 5315SOL    HW216524   7.459   1.121   4.922 -0.1209 -0.1333  0.9948
 5316SOL     OW16525   4.684   5.462   9.191  0.2424 -0.2846 -0.2683
 5316SOL    HW116526   4.736   5.382   9.182  0.3243 -0.0694 -1.8695
 5316SOL    HW216527   4.598   5.439   9.156  0.0575  0.1526 -0.1113
 5317SOL     OW16528   8.614   7.057   5.865 -0.2030  0.3349 -0.2991
 5317SOL    HW116529   8.654   7.058   5.777 -1.0066 -0.2684 -0.6856
 5317SOL    HW216530   8.640   7.140   5.904  0.9472  0.2087 -0.7490
 5318SOL     OW16531   5.185   3.844   1.480 -0.2449 -0.0390 -0.2613
 5318SOL    HW116532   5.260   3.819   1.427  0.5376 -0.0537  0.8251
 5318SOL    HW216533   5.215   3.919   1.531 -0.8512 -0.2620  0.4479
 5319SOL     OW16534   5.739   9.634   5.010  0.7898  0.0121  0.1328
 5319SOL    HW116535   5.692   9.551   5.020  1.5064 -0.4846 -0.5136
 5319SOL    HW216536   5.798   9.638   5.085  0.5467  0.0851  0.3225
 5320SOL     OW16537   8.380   0.035   0.427 -0.5894  0.4448  0.7560
 5320SOL    HW116538   8.363  -0.016   0.348  2.2016 -1.6717  1.3216
 5320SOL    HW216539   8.316   0.003   0.491 -2.0307  1.2547 -0.2406
 5321SOL     OW16540   1.218   8.646   3.715 -0.6946 -0.8446 -0.1940
 5321SOL    HW116541   1.241   8.720   3.771 -1.3955 -1.9936  1.7134
 5321SOL    HW216542   1.297   8.629   3.664 -1.1400  2.5028 -2.3492
 5322SOL     OW16543   0.256   3.848   6.738 -0.3011  0.1960  0.6541
 5322SOL    HW116544   0.334   3.842   6.793 -0.2372  2.0189  0.8169
 5322SOL    HW216545   0.248   3.762   6.698  0.9591 -0.4664  1.7540
 5323SOL     OW16546   6.928   5.796   6.137 -0.1028 -0.0161  0.4602
 5323SOL    HW116547   6.877   5.777   6.215 -3.6479  2.6445 -0.8988
 5323SOL    HW216548   6.893   5.737   6.070  1.1398 -0.5367  0.2284
 5324SOL     OW16549   8.172   5.012   0.790  0.3413 -0.1565  0.1344
 5324SOL    HW116550   8.207   4.987   0.704 -0.9397  0.6955 -0.6537
 5324SOL    HW216551   8.245   5.056   0.833  0.9210 -0.3490 -0.6213
 5325SOL     OW16552   7.472   5.574   2.745  0.4104  0.1149  0.0157
 5325SOL    HW116553   7.553   5.624   2.759  0.4901  0.7824 -2.3802
 5325SOL    HW216554   7.502   5.486   2.724  0.5809  0.4927 -1.4099
 5326SOL     OW16555   7.548   9.549   1.817  0.2448  0.3567 -0.0112
 5326SOL    HW116556   7.486   9.491   1.861  0.1046  0.3491 -0.2193
 5326SOL    HW216557   7.528   9.540   1.724  0.3091  0.6407 -0.0538
 5327SOL     OW16558   6.656   6.536   6.838 -0.9769 -0.0406  0.2870
 5327SOL    HW116559   6.634   6.577   6.922 -0.5660  1.9739 -0.5393
 5327SOL    HW216560   6.574   6.540   6.789 -0.8659  0.0482  0.1094
 5328SOL     OW16561   7.163   0.641   2.299  0.1037 -0.0336 -0.3409
 5328SOL    HW116562   7.214   0.646   2.380 -0.0529 -0.1054 -0.2366
 5328SOL    HW216563   7.195   0.714   2.246  0.1244  0.0845 -0.1674
 5329SOL     OW16564   8.743   5.417   8.578  0.4284 -0.8622 -0.6273
 5329SOL    HW116565   8.735   5.511   8.569  4.1425  0.0160  2.2694
 5329SOL    HW216566   8.813   5.393   8.517 -1.0328 -2.0098 -1.9443
 5330SOL     OW16567   5.415   3.744   7.437  0.3680  0.4921 -0.0693
 5330SOL    HW116568   5.478   3.815   7.451  1.0611  0.0552 -0.8852
 5330SOL    HW216569   5.335   3.774   7.480  1.0055  1.2452  0.6148
 5331SOL     OW16570   6.310   6.297   4.747  0.0583  0.1837 -0.6994
 5331SOL    HW116571   6.401   6.289   4.718 -0.3757 -1.5782 -1.7144
 5331SOL    HW216572   6.284   6.208   4.768 -0.9932  0.8654  1.0889
 5332SOL     OW16573   6.280   6.076   9.393  0.6433 -0.1911  0.0609
 5332SOL    HW116574   6.320   6.002   9.438 -0.1779  0.1609  1.4311
 5332SOL    HW216575   6.206   6.037   9.345 -0.4214 -0.1723  1.5988
 5333SOL     OW16576   8.923   4.854   3.569  0.1639 -0.1281 -0.0447
 5333SOL    HW116577   9.004   4.806   3.554  0.2337  0.2062 -0.7763
 5333SOL    HW216578   8.860   4.814   3.508 -0.2932 -0.5509  0.6921
 5334SOL     OW16579   9.184   6.639   5.885  0.1439  0.2656 -0.2732
 5334SOL    HW116580   9.138   6.555   5.876 -0.8574  0.8657 -0.9258
 5334SOL    HW216581   9.142   6.681   5.959  2.2334 -0.7566  1.6443
 5335SOL     OW16582   7.242   4.503   9.052  0.4409 -0.0862 -0.0836
 5335SOL    HW116583   7.291   4.442   9.108  0.7052  0.3517  0.1706
 5335SOL    HW216584   7.165   4.454   9.025  1.6941 -1.3083 -1.6496
 5336SOL     OW16585   4.742   7.647   4.479  0.2895 -0.2643 -0.9400
 5336SOL    HW116586   4.658   7.686   4.455  0.9881  2.3460  0.4700
 5336SOL    HW216587   4.784   7.625   4.396 -0.9887  0.1659 -1.7211
 5337SOL     OW16588   1.186   2.656   5.388 -0.5394 -0.3775 -0.5502
 5337SOL    HW116589   1.201   2.561   5.384 -0.2436 -0.2953 -1.6360
 5337SOL    HW216590   1.261   2.694   5.344 -0.4677  0.4020  0.2174
 5338SOL     OW16591   6.004   6.350   1.699  0.6340 -0.2552 -0.1108
 5338SOL    HW116592   6.019   6.413   1.769 -0.9274  0.4690 -0.3930
 5338SOL    HW216593   6.053   6.272   1.725  1.9487  0.7885  0.6305
 5339SOL     OW16594   9.336   7.938   8.178  0.7170 -0.1942  0.4194
 5339SOL    HW116595   9.397   8.003   8.212  1.1060 -0.6413  0.5818
 5339SOL    HW216596   9.330   7.958   8.084 -0.2230  0.9304  0.7010
 5340SOL     OW16597   0.505   5.946   3.548 -0.3779 -0.3570 -0.0035
 5340SOL    HW116598   0.528   6.008   3.479  1.1853 -0.1076  0.6940
 5340SOL    HW216599   0.538   5.986   3.628  0.7410 -2.0971  0.4713
 5341SOL     OW16600   7.027   7.977   4.588 -0.3057 -0.2158 -0.1240
 5341SOL    HW116601   7.064   8.053   4.543  0.2004 -1.1891 -1.4358
 5341SOL    HW216602   7.103   7.927   4.617 -0.6344 -0.2311  0.7396
 5342SOL     OW16603   4.997   5.681   1.993 -0.6261 -0.6604 -0.5411
 5342SOL    HW116604   4.957   5.768   1.990  0.6146 -0.0456 -0.2599
 5342SOL    HW216605   5.086   5.697   2.024 -1.1458 -2.3259  2.0789
 5343SOL     OW16606   8.275   9.706   5.910  0.2619  0.2570  0.6999
 5343SOL    HW116607   8.333   9.779   5.888 -0.1699  0.0689 -1.2081
 5343SOL    HW216608   8.187   9.744   5.907  0.1314  0.0138  1.2970
 5344SOL     OW16609   3.376   5.446   3.359  0.6327  0.0468  0.5285
 5344SOL    HW116610   3.426   5.443   3.440  3.3880  0.4952 -1.0283
 5344SOL    HW216611   3.426   5.505   3.302 -2.5203  1.7311 -0.7122
 5345SOL     OW16612   7.008   1.939   4.140 -0.0043  0.4692 -0.2066
 5345SOL    HW116613   6.965   2.015   4.179  0.4315  1.4713 -1.6190
 5345SOL    HW216614   6.937   1.877   4.123 -0.5436  1.0904 -0.2362
 5346SOL     OW16615   8.971   2.160   3.997 -0.2515 -0.1709 -0.0821
 5346SOL    HW116616   8.949   2.240   4.045 -0.1712  0.1347 -0.5465
 5346SOL    HW216617   8.962   2.090   4.062 -1.8367  0.0207 -0.0567
 5347SOL     OW16618   0.651   8.172   7.051 -0.3253 -0.0752 -0.3164
 5347SOL    HW116619   0.630   8.102   7.113  1.4245 -0.7977 -0.4840
 5347SOL    HW216620   0.634   8.135   6.965 -1.4570  0.4702 -0.3469
 5348SOL     OW16621   7.830   7.760   0.546  0.0078 -0.5127 -0.3127
 5348SOL    HW116622   7.887   7.684   0.553 -0.3964 -0.6970  1.3762
 5348SOL    HW216623   7.745   7.730   0.579 -0.3194  0.5085 -0.1872
 5349SOL     OW16624   2.128   3.322   5.726 -0.0623 -0.2316 -0.5239
 5349SOL    HW116625   2.189   3.388   5.692 -0.0888  1.2216  1.9982
 5349SOL    HW216626   2.050   3.371   5.750  0.8874 -0.4870  4.0000
 5350SOL     OW16627   8.036   7.538   3.788  0.1174  0.0212  0.3492
 5350SOL    HW116628   7.966   7.513   3.727  0.6132  0.2453 -0.3195
 5350SOL    HW216629   7.990   7.554   3.871 -0.5218 -0.6226  0.1308
 5351SOL     OW16630   1.366   4.087   9.842 -0.1229  0.6244 -0.0085
 5351SOL    HW116631   1.369   3.994   9.861 -1.4290  0.6176  0.2479
 5351SOL    HW216632   1.340   4.128   9.924 -1.2612  1.0320 -0.5477
 5352SOL     OW16633   7.265   7.164   6.996 -0.1544 -0.3851  0.0259
 5352SOL    HW116634   7.316   7.162   7.077  3.5413 -0.7778 -2.0708
 5352SOL    HW216635   7.225   7.078   6.991  0.7465 -0.8781  0.7924
 5353SOL     OW16636   7.280   4.186   7.256  0.0775 -0.1785 -0.3560
 5353SOL    HW116637   7.275   4.124   7.329 -0.5002  0.3090  0.0307
 5353SOL    HW216638   7.198   4.235   7.261 -0.0338 -0.2422 -1.4296
 5354SOL     OW16639   5.447   4.563   7.130  0.2206 -0.1521  0.0886
 5354SOL    HW116640   5.447   4.519   7.045  3.3851 -0.2144  0.0147
 5354SOL    HW216641   5.371   4.621   7.127 -0.9366 -1.6216 -1.9285
 5355SOL     OW16642   8.079   3.832   6.040 -0.2816  0.2710  0.6546
 5355SOL    HW116643   8.017   3.900   6.013 -0.5724  0.4068  1.6168
 5355SOL    HW216644   8.050   3.807   6.127  0.8365  0.1043  0.9921
 5356SOL     OW16645   3.226   1.959   1.750  0.1839  0.7482 -0.5485
 5356SOL    HW116646   3.185   1.899   1.688  2.4760  0.2472 -1.6838
 5356SOL    HW216647   3.285   2.012   1.696  1.2614  1.1874  1.0024
 5357SOL     OW16648   8.611   4.678   6.092  0.3006 -0.4243  0.6035
 5357SOL    HW116649   8.641   4.748   6.149 -1.8450 -0.9256  2.4890
 5357SOL    HW216650   8.542   4.634   6.142 -0.6005 -1.8958 -1.7560
 5358SOL     OW16651   9.071   2.935   3.365  0.0040 -0.1095 -0.3255
 5358SOL    HW116652   9.000   2.921   3.302 -2.0478 -1.6707  2.1424
 5358SOL    HW216653   9.027   2.966   3.444  2.3658  0.8910  0.6886
 5359SOL     OW16654   0.766   2.247   6.846 -0.0735 -0.1360 -0.1069
 5359SOL    HW116655   0.735   2.216   6.761  0.8823  1.5766 -1.1183
 5359SOL    HW216656   0.802   2.334   6.830 -0.6296  0.6141  2.2209
 5360SOL     OW16657   7.854   8.030   6.306 -0.1060  0.5030 -0.1883
 5360SOL    HW116658   7.823   8.091   6.373  2.6152  1.9947 -0.1311
 5360SOL    HW216659   7.914   7.972   6.352  1.7758  1.5210 -1.2089
 5361SOL     OW16660   8.988   4.253   5.381  0.0100 -0.2208 -0.4497
 5361SOL    HW116661   9.051   4.322   5.359 -0.2972 -0.1081 -0.9773
 5361SOL    HW216662   8.943   4.287   5.459  0.1480 -0.0137 -0.4580
 5362SOL     OW16663   8.924   5.890   6.163  0.6567 -0.2665 -0.0058
 5362SOL    HW116664   8.905   5.927   6.076 -0.4272  0.8813  0.6796
 5362SOL    HW216665   8.845   5.908   6.214  0.4646 -2.7071  0.6864
 5363SOL     OW16666   0.866   2.794   2.893  0.2079  0.3964 -0.4338
 5363SOL    HW116667   0.831   2.791   2.804  0.9135  0.5086 -0.7227
 5363SOL    HW216668   0.932   2.724   2.895 -0.4151 -0.1957  0.2747
 5364SOL     OW16669   2.845   1.319   8.663  0.4518  0.1104  0.1428
 5364SOL    HW116670   2.879   1.329   8.752 -0.0227  0.3896  0.2910
 5364SOL    HW216671   2.924   1.302   8.610  0.6960 -0.4297  0.6649
 5365SOL     OW16672   7.930   0.351   9.174  0.2036 -0.1797  0.0394
 5365SOL    HW116673   7.848   0.370   9.129  0.5726  0.2500 -0.4871
 5365SOL    HW216674   7.914   0.271   9.224 -0.0109 -1.1363 -1.4895
 5366SOL     OW16675   6.077   4.882   5.845 -0.1740 -0.0192  0.3794
 5366SOL    HW116676   6.011   4.864   5.778 -0.2221  1.4307  0.0144
 5366SOL    HW216677   6.032   4.866   5.928 -0.9690  0.8457  0.1327
 5367SOL     OW16678   6.729   9.301   4.896 -0.2108  0.2524  0.2532
 5367SOL    HW116679   6.804   9.258   4.854  0.8705  2.1351  0.1413
 5367SOL    HW216680   6.734   9.273   4.987 -0.5140 -1.1178 -0.1254
 5368SOL     OW16681   1.031   9.341   2.835  0.4926 -0.3230 -0.1237
 5368SOL    HW116682   1.115   9.311   2.870 -0.3428 -1.5642  0.9335
 5368SOL    HW216683   1.021   9.293   2.752  0.0570 -1.5488  0.6092
 5369SOL     OW16684   3.721   1.752   3.429 -0.0444 -0.9650  0.4288
 5369SOL    HW116685   3.780   1.706   3.488 -0.8159 -2.1886  0.2751
 5369SOL    HW216686   3.687   1.685   3.370 -0.5227 -0.0515 -0.3868
 5370SOL     OW16687   2.311   0.806   2.491  0.0144  0.3347 -0.3172
 5370SOL    HW116688   2.290   0.836   2.403  0.0131 -2.0452 -1.2013
 5370SOL    HW216689   2.398   0.841   2.509 -0.1512  1.1800 -1.0630
 5371SOL     OW16690   1.612   8.619   2.133  0.1254 -0.9005 -0.2386
 5371SOL    HW116691   1.537   8.561   2.127 -0.6334  0.1502 -1.4618
 5371SOL    HW216692   1.669   8.592   2.060 -0.0835 -0.3313 -0.6188
 5372SOL     OW16693   0.335   7.594   3.140  0.5268 -0.0235 -0.5505
 5372SOL    HW116694   0.310   7.612   3.231  0.4945 -0.5958 -0.4457
 5372SOL    HW216695   0.401   7.661   3.120 -0.0040  0.5708 -0.3490
 5373SOL     OW16696   6.306   6.418   9.941  0.5505 -0.2229  0.0441
 5373SOL    HW116697   6.267   6.437  10.027  1.4108  1.5970  0.0817
 5373SOL    HW216698   6.236   6.437   9.878  1.0594  2.3720  0.1504
 5374SOL     OW16699   7.352   5.987   2.443 -0.0562 -0.9390  0.4503
 5374SOL    HW116700   7.289   6.012   2.511 -0.9644  0.0717 -0.7082
 5374SOL    HW216701   7.378   5.898   2.467 -0.4135 -0.6476  2.0532
 5375SOL     OW16702   1.112   9.771   5.109  0.2053 -0.2144  0.1970
 5375SOL    HW116703   1.047   9.840   5.109 -0.3564 -0.7358  0.0256
 5375SOL    HW216704   1.189   9.810   5.067 -0.5418 -0.0894 -1.1024
 5376SOL     OW16705   0.574   6.368   9.104  0.0086  0.1262  0.0304
 5376SOL    HW116706   0.635   6.434   9.136 -0.6013 -0.3647  2.4321
 5376SOL    HW216707   0.497   6.417   9.075  0.0799  0.5532  0.5540
 5377SOL     OW16708   1.976   0.515   6.363 -0.7400  0.2305  0.7503
 5377SOL    HW116709   1.903   0.533   6.421 -0.3093  1.0771  1.0494
 5377SOL    HW216710   1.936   0.482   6.283 -1.6263  2.4273  0.2019
 5378SOL     OW16711   9.845   6.600   5.201 -0.3264 -0.2096  0.2412
 5378SOL    HW116712   9.901   6.663   5.156 -0.1526 -1.2952 -1.0927
 5378SOL    HW216713   9.855   6.622   5.294  0.8562  0.7852 -0.0991
 5379SOL     OW16714   1.894   5.423   2.604  0.0132  0.5380  0.3540
 5379SOL    HW116715   1.964   5.359   2.617 -1.0046 -1.1768 -1.9143
 5379SOL    HW216716   1.813   5.374   2.619 -0.7784  2.1701  1.7461
 5380SOL     OW16717   8.083   1.640   8.824  0.5984  0.3008  0.3507
 5380SOL    HW116718   8.078   1.567   8.885  0.5474 -1.4126 -1.5738
 5380SOL    HW216719   8.128   1.604   8.747 -0.6358  1.8956 -1.2211
 5381SOL     OW16720   5.145   0.935   9.508  0.5677  0.6992  0.3066
 5381SOL    HW116721   5.154   0.882   9.588 -2.3934  0.6190  0.7004
 5381SOL    HW216722   5.104   1.016   9.538 -0.1595  0.8559 -1.0608
 5382SOL     OW16723   2.848   4.930   7.960  0.1199 -0.2395  0.0969
 5382SOL    HW116724   2.764   4.896   7.926 -0.4100  0.3713  0.7709
 5382SOL    HW216725   2.912   4.906   7.893 -0.6185 -0.6035 -0.4939
 5383SOL     OW16726   5.273   3.317   3.130  0.1417  0.3952  0.7529
 5383SOL    HW116727   5.345   3.349   3.184  0.4841  1.0893 -0.0966
 5383SOL    HW216728   5.308   3.238   3.088  0.1400  0.2927  0.9447
 5384SOL     OW16729   4.096   7.001   1.739 -0.1521 -0.2972  0.2042
 5384SOL    HW116730   4.075   7.089   1.770  2.1588  0.3151  0.2078
 5384SOL    HW216731   4.125   7.014   1.649 -0.9297 -1.2559 -0.2107
 5385SOL     OW16732   6.168   9.169   7.070 -0.1276 -0.3405  0.5105
 5385SOL    HW116733   6.210   9.167   6.984 -2.4381  1.4108 -0.7974
 5385SOL    HW216734   6.207   9.244   7.115 -1.2201  0.8315 -0.4119
 5386SOL     OW16735   3.602   3.536   8.118  0.4901 -0.0720  0.4507
 5386SOL    HW116736   3.631   3.496   8.200 -0.1898 -2.0307 -0.1813
 5386SOL    HW216737   3.680   3.536   8.063  0.7048  0.2989  0.7517
 5387SOL     OW16738   9.374   2.038   0.258 -0.2018 -0.1409 -0.0418
 5387SOL    HW116739   9.279   2.038   0.273 -0.2224  4.0074  0.9191
 5387SOL    HW216740   9.388   2.109   0.195  2.3859  0.2931  0.9067
 5388SOL     OW16741   3.182   7.849   8.509 -0.4116  0.1631 -0.1783
 5388SOL    HW116742   3.175   7.755   8.493  1.5361  0.1296 -1.1989
 5388SOL    HW216743   3.266   7.873   8.470  0.6331  1.7601  2.7215
 5389SOL     OW16744   0.525   7.525   7.830 -0.3595 -0.2256 -0.1089
 5389SOL    HW116745   0.530   7.500   7.738 -1.8555  0.7458 -0.4863
 5389SOL    HW216746   0.445   7.577   7.837  0.9077  1.7105  1.2457
 5390SOL     OW16747   4.460   0.707   0.524  0.4687 -0.1308  0.2836
 5390SOL    HW116748   4.433   0.763   0.597  2.1343  2.2054 -0.7778
 5390SOL    HW216749   4.527   0.650   0.561 -0.2291 -0.5011  1.0319
 5391SOL     OW16750   0.710   9.323   3.893 -0.0489  0.6961  0.6258
 5391SOL    HW116751   0.797   9.352   3.866 -0.5628 -0.3022 -2.4438
 5391SOL    HW216752   0.702   9.234   3.858 -3.1486  1.6211 -1.4119
 5392SOL     OW16753   6.106   3.428   0.607 -0.1233 -0.0292 -0.3345
 5392SOL    HW116754   6.030   3.481   0.634  0.6456  1.2761 -0.6548
 5392SOL    HW216755   6.071   3.340   0.597 -1.0660 -0.0165  2.1029
 5393SOL     OW16756   0.255   5.148   9.334  0.2854  0.0102 -0.0265
 5393SOL    HW116757   0.163   5.145   9.311  0.6681  3.0097 -2.6474
 5393SOL    HW216758   0.297   5.089   9.272  0.4325  1.5761 -1.4892
 5394SOL     OW16759   8.434   5.330   7.579  0.8437 -0.5614 -0.0247
 5394SOL    HW116760   8.513   5.381   7.559  1.6291 -1.5272  0.5181
 5394SOL    HW216761   8.440   5.312   7.673 -0.7405  0.5053  0.3245
 5395SOL     OW16762   5.690   5.661   3.727  0.0337  0.0375 -0.7456
 5395SOL    HW116763   5.698   5.569   3.702 -0.1608 -0.8188  2.0972
 5395SOL    HW216764   5.603   5.668   3.766  0.4507  1.1894  0.0098
 5396SOL     OW16765   3.579   7.164   0.184  0.0058 -0.2645  0.6646
 5396SOL    HW116766   3.525   7.147   0.261 -1.0234  0.7055  0.2087
 5396SOL    HW216767   3.589   7.259   0.183  0.0564 -0.2682 -0.3407
 5397SOL     OW16768   8.683   7.743   4.205  0.1822 -0.3229 -0.9944
 5397SOL    HW116769   8.639   7.723   4.122  0.5377 -0.1306 -1.2281
 5397SOL    HW216770   8.754   7.802   4.181 -0.6346  0.9655 -0.3505
 5398SOL     OW16771   7.008   0.372   2.342 -0.7801 -0.1387  0.6452
 5398SOL    HW116772   7.013   0.325   2.426  0.2611 -2.0619 -0.4195
 5398SOL    HW216773   7.075   0.440   2.349  0.4320 -1.3054  0.8139
 5399SOL     OW16774   6.032   5.339   2.963 -0.2225  0.3173  0.8637
 5399SOL    HW116775   5.995   5.322   2.876 -0.0683  1.3634  0.5874
 5399SOL    HW216776   6.009   5.430   2.982 -0.8793 -0.0995  2.2350
 5400SOL     OW16777   0.880   2.649   8.247  0.4025  0.5454  0.2750
 5400SOL    HW116778   0.955   2.706   8.229  1.5146 -0.5655  1.1904
 5400SOL    HW216779   0.893   2.621   8.337 -1.6868  1.1050  0.8086
 5401SOL     OW16780   7.050   0.106   1.108 -0.7888  0.5658  0.5947
 5401SOL    HW116781   7.117   0.038   1.103 -0.4065  0.9955 -0.6399
 5401SOL    HW216782   6.967   0.059   1.103 -0.5420  0.1408  0.4897
 5402SOL     OW16783   2.272   4.432   9.134 -0.2807  0.5496 -0.4773
 5402SOL    HW116784   2.310   4.358   9.182 -1.2042  0.3399 -0.0537
 5402SOL    HW216785   2.216   4.392   9.068 -1.3468  0.8760  0.2203
 5403SOL     OW16786   3.500   0.247   9.926  0.0818 -0.6383 -0.4868
 5403SOL    HW116787   3.457   0.166   9.953 -0.5081 -0.2527 -0.2500
 5403SOL    HW216788   3.593   0.225   9.922  0.1304 -0.8822  1.2666
 5404SOL     OW16789   4.845   0.543   4.985 -0.4443 -0.1083 -0.2317
 5404SOL    HW116790   4.911   0.503   4.928  0.2630 -0.1794  0.6079
 5404SOL    HW216791   4.845   0.487   5.063 -1.0413  0.2693  0.0432
 5405SOL     OW16792   6.478   4.759   0.486  0.3691 -0.1663  0.1887
 5405SOL    HW116793   6.524   4.824   0.539  0.9319 -0.4488  0.0544
 5405SOL    HW216794   6.402   4.734   0.538 -0.3396  1.2379 -0.1297
 5406SOL     OW16795   2.596   6.205   3.690  0.5272 -0.0054 -0.5135
 5406SOL    HW116796   2.647   6.235   3.615  1.0341 -2.2874 -1.1664
 5406SOL    HW216797   2.628   6.116   3.706 -2.3406 -1.0750 -0.1578
 5407SOL     OW16798   7.793   6.551   4.963  0.5888 -0.3147 -0.2856
 5407SOL    HW116799   7.700   6.549   4.986  0.9117 -0.8509  1.0959
 5407SOL    HW216800   7.807   6.470   4.914 -0.1325  0.8989 -2.6976
 5408SOL     OW16801   4.564   6.240   6.253 -0.1462 -0.0519  0.2437
 5408SOL    HW116802   4.542   6.165   6.309 -1.2205  1.3298  1.7564
 5408SOL    HW216803   4.487   6.250   6.196  0.8163 -1.2640 -1.3392
 5409SOL     OW16804   2.706   7.236   6.136  0.0005 -0.0895 -0.1194
 5409SOL    HW116805   2.790   7.268   6.169  0.1327  0.1454 -0.6539
 5409SOL    HW216806   2.648   7.237   6.212  0.3020  0.3958  0.1137
 5410SOL     OW16807   7.324   0.221   7.724 -0.3433 -0.2277 -0.1738
 5410SOL    HW116808   7.291   0.282   7.659 -1.3643 -0.0424  0.4944
 5410SOL    HW216809   7.309   0.134   7.685  0.3015 -0.0952 -0.7447
 5411SOL     OW16810   2.205   5.823   0.719 -0.0996 -0.3156  0.0474
 5411SOL    HW116811   2.179   5.736   0.748  0.2987 -0.2012  0.7590
 5411SOL    HW216812   2.162   5.883   0.781 -0.0891 -0.0191 -0.2297
 5412SOL     OW16813   7.784   8.128   4.967  0.5616 -0.2516  0.1126
 5412SOL    HW116814   7.694   8.144   4.938  0.3286  0.4986  1.1811
 5412SOL    HW216815   7.830   8.100   4.888 -0.4598 -0.0418 -0.5811
 5413SOL     OW16816   5.637   4.199   7.650  0.6343 -0.6344 -0.5204
 5413SOL    HW116817   5.556   4.249   7.651  0.5620 -0.7513 -0.6112
 5413SOL    HW216818   5.698   4.251   7.703  0.0058 -1.3859  0.9799
 5414SOL     OW16819   1.525   6.186   3.966 -0.1591  0.7196  0.2796
 5414SOL    HW116820   1.434   6.168   3.942  0.3233 -1.3741 -0.1595
 5414SOL    HW216821   1.577   6.140   3.901  1.1963 -1.0170  2.4525
 5415SOL     OW16822   4.696   4.929   6.824  0.7627  0.3477 -0.6318
 5415SOL    HW116823   4.710   5.020   6.850 -1.2521 -0.0127  2.1348
 5415SOL    HW216824   4.784   4.891   6.819  1.5036  1.6441  1.4672
 5416SOL     OW16825   8.756   6.027   2.509  0.5702 -0.5049  0.4366
 5416SOL    HW116826   8.729   6.059   2.423  0.9601  3.2575  1.5378
 5416SOL    HW216827   8.682   5.972   2.538 -1.0015  0.7221 -1.0190
 5417SOL     OW16828   1.556   2.724   9.297  0.2216  0.6571  0.0672
 5417SOL    HW116829   1.545   2.657   9.364  0.6520  0.9909  0.4765
 5417SOL    HW216830   1.520   2.685   9.217 -1.0626  0.5777  0.6785
 5418SOL     OW16831   8.879   7.875   9.152 -0.5456 -0.0422 -0.6736
 5418SOL    HW116832   8.840   7.793   9.183 -1.7429  0.9675  0.6355
 5418SOL    HW216833   8.856   7.939   9.220  2.1920  0.9350 -0.5775
 5419SOL     OW16834   6.736   4.459   0.232  0.2873 -0.0934 -0.4863
 5419SOL    HW116835   6.723   4.383   0.174 -2.4473  0.3543 -0.5719
 5419SOL    HW216836   6.743   4.533   0.173  1.6500 -0.0747 -0.3413
 5420SOL     OW16837   6.581   8.133   4.919 -0.0212  0.0127 -0.3279
 5420SOL    HW116838   6.558   8.042   4.905  1.2778 -0.0217 -3.0518
 5420SOL    HW216839   6.605   8.165   4.832  0.8536  2.5778  0.7463
 5421SOL     OW16840   1.478   1.716   3.898  0.3228 -0.6323 -0.0411
 5421SOL    HW116841   1.400   1.746   3.944 -0.4369 -0.2594 -1.5315
 5421SOL    HW216842   1.495   1.629   3.934  0.0069 -0.1873  1.2325
 5422SOL     OW16843   1.730   8.832   9.645  0.0209  0.1431  0.3844
 5422SOL    HW116844   1.794   8.902   9.634  0.9452 -0.4706  1.6485
 5422SOL    HW216845   1.646   8.877   9.652  0.5698  1.1073  0.9294
 5423SOL     OW16846   2.175   0.640   3.344  0.3107  0.1122  0.0360
 5423SOL    HW116847   2.203   0.651   3.435  1.3275  0.0334 -0.2502
 5423SOL    HW216848   2.115   0.566   3.346  0.3480  0.0938  0.6406
 5424SOL     OW16849   1.437   6.031   8.171  0.3985  0.0053  0.1000
 5424SOL    HW116850   1.515   6.023   8.226 -0.3425 -1.0257  1.0384
 5424SOL    HW216851   1.399   5.943   8.170 -1.6708  0.8259  1.0827
 5425SOL     OW16852   5.827   8.049   6.071 -0.2770  0.3165 -0.1294
 5425SOL    HW116853   5.734   8.067   6.081 -0.2386  1.1296 -1.0151
 5425SOL    HW216854   5.832   7.973   6.013 -0.4058  1.5472 -1.8485
 5426SOL     OW16855   2.483   6.121   9.841  0.3107  0.5775  0.5756
 5426SOL    HW116856   2.458   6.032   9.816  1.0962  0.0997  1.4267
 5426SOL    HW216857   2.402   6.172   9.831 -0.7848 -0.7132  2.3368
 5427SOL     OW16858   4.903   6.603   6.811  0.2690 -0.2286 -0.3211
 5427SOL    HW116859   4.834   6.669   6.814  0.1367 -0.3217 -1.1307
 5427SOL    HW216860   4.972   6.643   6.757 -0.3545 -1.2421 -1.9307
 5428SOL     OW16861   9.492   5.268   4.104  0.6028 -0.1573  0.1799
 5428SOL    HW116862   9.507   5.360   4.126 -0.0140 -0.2363  0.9818
 5428SOL    HW216863   9.545   5.219   4.168 -1.6112 -0.3987  1.9724
 5429SOL     OW16864   8.088   1.379   7.575 -0.1165 -0.1374 -0.2972
 5429SOL    HW116865   8.021   1.429   7.622  0.7897  0.0527  0.8567
 5429SOL    HW216866   8.060   1.288   7.584  0.2797 -0.1553  1.0961
 5430SOL     OW16867   8.885   5.818   7.198 -0.7163 -0.4580 -0.2007
 5430SOL    HW116868   8.851   5.748   7.142 -0.3768  0.4624 -1.5993
 5430SOL    HW216869   8.963   5.781   7.238 -0.2819 -0.7416 -1.2891
 5431SOL     OW16870   3.377   8.585   2.268 -0.1462 -0.5744 -0.1563
 5431SOL    HW116871   3.396   8.510   2.324  0.0940  0.1775  0.8075
 5431SOL    HW216872   3.435   8.574   2.193  0.1922 -1.1268  0.1766
 5432SOL     OW16873   8.424   6.229   7.678 -0.6674  0.3063  0.4868
 5432SOL    HW116874   8.334   6.208   7.653 -0.5774  1.2481 -0.7060
 5432SOL    HW216875   8.468   6.145   7.684 -1.0970 -0.0497 -1.0249
 5433SOL     OW16876   7.080   5.898   5.565 -0.3976  0.0215  0.4330
 5433SOL    HW116877   7.102   5.811   5.599 -0.3329 -0.0973  0.0988
 5433SOL    HW216878   7.032   5.880   5.484  0.8414  0.2961 -0.3956
 5434SOL     OW16879   5.015   4.820   8.765  0.1113  0.1287  0.0003
 5434SOL    HW116880   4.976   4.809   8.852  0.4235 -0.7781  0.0325
 5434SOL    HW216881   4.981   4.904   8.734 -0.2332  0.3189  0.8772
 5435SOL     OW16882   9.499   4.090   9.918  0.1357  0.2181 -0.0154
 5435SOL    HW116883   9.568   4.115   9.857 -0.5755  0.5405 -0.6937
 5435SOL    HW216884   9.475   4.001   9.891  0.3035  0.0901  0.2464
 5436SOL     OW16885   3.598   6.355   9.051 -0.3942  0.0799 -0.3799
 5436SOL    HW116886   3.604   6.301   9.130 -1.0528 -2.3159 -1.8623
 5436SOL    HW216887   3.675   6.410   9.054 -1.0783  1.0347  2.5722
 5437SOL     OW16888   5.545   2.952   4.437  0.6123 -0.6530  0.1560
 5437SOL    HW116889   5.484   3.025   4.433  2.0260  0.7778  2.7804
 5437SOL    HW216890   5.617   2.977   4.378  1.8605  0.9668  2.2148
 5438SOL     OW16891   8.777   8.672   4.012  0.0255  0.1567  0.2270
 5438SOL    HW116892   8.703   8.626   3.973 -0.6964  1.6075 -0.1843
 5438SOL    HW216893   8.803   8.617   4.086 -1.0305 -0.7124 -0.0241
 5439SOL     OW16894   0.294   8.895   9.750  0.6707  0.1173  0.0072
 5439SOL    HW116895   0.248   8.974   9.778  1.1432  0.2796  0.3233
 5439SOL    HW216896   0.230   8.825   9.762  0.2207  0.4584 -0.3572
 5440SOL     OW16897   8.241   2.364   6.880  0.0191 -0.5734  0.3309
 5440SOL    HW116898   8.246   2.433   6.814  1.4673 -0.3297  0.6657
 5440SOL    HW216899   8.268   2.408   6.961  0.7782 -1.4851  0.5822
 5441SOL     OW16900   8.787   9.148   5.782 -0.8298 -0.1177  0.1268
 5441SOL    HW116901   8.829   9.187   5.859 -1.9361  0.4860  0.4369
 5441SOL    HW216902   8.695   9.175   5.787 -0.6118  1.5003 -2.3704
 5442SOL     OW16903   9.353   2.709   3.530  0.0501  0.2468  0.2784
 5442SOL    HW116904   9.404   2.661   3.465 -0.2662 -0.2744  0.4011
 5442SOL    HW216905   9.367   2.801   3.510  1.2315  0.1148  0.4657
 5443SOL     OW16906   0.149   2.867   4.841 -0.1594 -0.1299  0.3533
 5443SOL    HW116907   0.243   2.860   4.856 -0.1170 -2.5712 -0.5605
 5443SOL    HW216908   0.134   2.959   4.820  1.9370  0.3875  0.9664
 5444SOL     OW16909   0.490   7.243   8.713  0.2474 -0.9444  0.1376
 5444SOL    HW116910   0.496   7.155   8.679 -1.1556 -0.5970 -1.0993
 5444SOL    HW216911   0.407   7.245   8.762  1.3934 -0.9489  2.1759
 5445SOL     OW16912   7.232   5.717   7.222  0.1460 -0.0056  0.1440
 5445SOL    HW116913   7.223   5.638   7.276 -1.0259  0.3631  0.5270
 5445SOL    HW216914   7.223   5.686   7.132 -0.3709 -0.3166  0.2960
 5446SOL     OW16915   8.697   1.062   3.561 -0.5009 -0.6745 -0.4990
 5446SOL    HW116916   8.780   1.105   3.540 -0.4268 -0.8907 -0.6479
 5446SOL    HW216917   8.713   0.969   3.544 -0.5597 -0.8038  0.1241
 5447SOL     OW16918   3.229   1.334   3.618  0.1046  0.0128  0.3241
 5447SOL    HW116919   3.292   1.290   3.562 -0.3415 -1.2725  0.8024
 5447SOL    HW216920   3.259   1.425   3.621  1.6912 -0.4757  0.1969
 5448SOL     OW16921   7.238   3.982   4.968 -0.3420  0.2066 -0.2166
 5448SOL    HW116922   7.175   3.945   4.907 -2.2973 -0.0084  1.7947
 5448SOL    HW216923   7.234   4.077   4.952  0.6173  0.0362 -1.6676
 5449SOL     OW16924   6.439   9.327   6.522 -0.2773  0.4029 -0.0333
 5449SOL    HW116925   6.500   9.365   6.586 -0.4983  1.2344 -0.2997
 5449SOL    HW216926   6.493   9.265   6.473 -0.1840 -0.5028  1.1603
 5450SOL     OW16927   4.462   0.609   6.337 -0.3056  0.0916 -0.7826
 5450SOL    HW116928   4.395   0.673   6.363 -0.5592 -0.5125  0.1114
 5450SOL    HW216929   4.417   0.525   6.341  0.6372 -0.3846  0.3815
 5451SOL     OW16930   5.614   2.625   7.035  0.2330 -0.3048  0.7162
 5451SOL    HW116931   5.675   2.668   7.095 -1.1281 -0.3791  2.2240
 5451SOL    HW216932   5.648   2.645   6.947  0.1757  3.1037  1.3541
 5452SOL     OW16933   6.814   8.145   9.950 -0.2680 -0.2251 -0.3423
 5452SOL    HW116934   6.734   8.101   9.922  1.3548 -3.3314 -0.4416
 5452SOL    HW216935   6.846   8.191   9.872 -0.7942 -0.7957 -0.9003
 5453SOL     OW16936   1.711   7.945   2.861  0.2187 -0.5136  0.3842
 5453SOL    HW116937   1.682   7.965   2.771 -0.8471 -1.0063  0.5952
 5453SOL    HW216938   1.792   7.896   2.849  1.3210  1.3370 -0.2178
 5454SOL     OW16939   7.789   9.740   6.328 -0.3662  0.4186  0.1696
 5454SOL    HW116940   7.770   9.723   6.236 -0.9748 -1.7785  0.6434
 5454SOL    HW216941   7.708   9.717   6.374  0.7976 -1.3087  1.4830
 5455SOL     OW16942   3.039   5.147   1.934  0.0911  0.2117 -0.1979
 5455SOL    HW116943   3.009   5.069   1.888 -0.0709  0.0029  0.2642
 5455SOL    HW216944   2.978   5.158   2.007  2.2293 -1.3680  1.9828
 5456SOL     OW16945   2.193   6.557   7.056 -0.0818 -0.5220  0.4188
 5456SOL    HW116946   2.124   6.596   7.002 -0.6583 -2.2542 -0.1561
 5456SOL    HW216947   2.151   6.541   7.141 -0.2682 -1.1531  0.2131
 5457SOL     OW16948   3.159   6.406   7.229  0.2271  0.4783  1.1037
 5457SOL    HW116949   3.254   6.419   7.218  0.3353 -1.3745 -0.7034
 5457SOL    HW216950   3.152   6.321   7.273 -0.6066  0.6917  1.3876
 5458SOL     OW16951   0.613   3.137   5.242  0.1783  0.2748  0.5994
 5458SOL    HW116952   0.625   3.077   5.168 -0.4123  0.7660  0.0916
 5458SOL    HW216953   0.702   3.167   5.263  0.4213 -0.3740  0.5226
 5459SOL     OW16954   0.157   6.345   3.914  0.6609  0.7916 -0.3450
 5459SOL    HW116955   0.233   6.403   3.916  0.6121  0.8836  2.3197
 5459SOL    HW216956   0.194   6.258   3.897  1.3374  0.8935  0.5449
 5460SOL     OW16957   2.121   1.809   2.875  0.0270 -0.2263  0.6577
 5460SOL    HW116958   2.156   1.818   2.786 -0.3687  1.7511  0.6450
 5460SOL    HW216959   2.194   1.832   2.932  0.0342 -0.6269  0.8097
 5461SOL     OW16960   1.606   2.843   6.299  0.0819 -0.0967  0.6666
 5461SOL    HW116961   1.599   2.832   6.204  0.9352  1.1096  0.4542
 5461SOL    HW216962   1.659   2.921   6.311 -0.0056 -0.2360  2.1502
 5462SOL     OW16963   9.353   9.913   6.721 -1.0361  0.1825 -0.0192
 5462SOL    HW116964   9.293   9.927   6.648  0.5495  1.2633 -1.1735
 5462SOL    HW216965   9.354   9.997   6.768 -1.0803 -0.1100  0.5167
 5463SOL     OW16966   9.933   5.823   6.528  0.0799 -0.4159  0.2656
 5463SOL    HW116967   9.862   5.887   6.536  0.3138 -0.2002  0.6251
 5463SOL    HW216968   9.991   5.860   6.462  1.1059  0.5919  1.6933
 5464SOL     OW16969   0.077   5.932   3.118  0.1699 -0.6015  0.2209
 5464SOL    HW116970   0.113   5.853   3.159  0.6553 -1.2535 -1.3611
 5464SOL    HW216971  -0.012   5.908   3.093  0.3906 -0.7434 -0.4570
 5465SOL     OW16972   4.422   7.509   2.601  0.4627  0.2875  0.7252
 5465SOL    HW116973   4.469   7.588   2.628  0.0381  1.1396 -0.8984
 5465SOL    HW216974   4.482   7.465   2.541 -0.3386  0.7995 -0.4846
 5466SOL     OW16975   5.506   1.066   4.926  0.6348  0.0010 -0.2745
 5466SOL    HW116976   5.453   1.138   4.958 -3.1809 -2.2965 -0.7329
 5466SOL    HW216977   5.489   1.064   4.831  1.5913 -0.7960 -0.4521
 5467SOL     OW16978   2.232   6.196   0.182 -0.3477 -0.2796 -0.3993
 5467SOL    HW116979   2.273   6.250   0.115  0.7613 -1.3227 -0.6004
 5467SOL    HW216980   2.225   6.253   0.258  0.2801  0.3183 -0.7827
 5468SOL     OW16981   4.834   9.011   6.643 -0.5519  0.6539 -0.2005
 5468SOL    HW116982   4.901   9.017   6.575 -0.6555  0.2316 -0.3425
 5468SOL    HW216983   4.754   9.044   6.602 -0.6894  0.1050 -0.3954
 5469SOL     OW16984   3.101   6.058   7.842  0.2312  0.0718 -0.9256
 5469SOL    HW116985   3.031   5.993   7.842 -1.1539  1.4944 -2.4290
 5469SOL    HW216986   3.157   6.032   7.769  1.4918 -1.1887  0.4032
 5470SOL     OW16987   7.953   7.996   5.475  0.0316  0.2946 -0.2924
 5470SOL    HW116988   7.977   8.039   5.393  1.9236 -0.1272 -0.0062
 5470SOL    HW216989   7.862   8.022   5.490  0.0325  1.3596 -1.8910
 5471SOL     OW16990   9.043   9.359   8.171 -0.1163 -0.0651  0.4494
 5471SOL    HW116991   9.132   9.386   8.192  0.6280 -2.3329  0.4308
 5471SOL    HW216992   9.053   9.281   8.117 -2.1225 -0.2882  0.3156
 5472SOL     OW16993   6.585   6.669   5.508 -0.2397 -0.0362  0.0251
 5472SOL    HW116994   6.637   6.734   5.461  3.0145 -0.0265  3.2749
 5472SOL    HW216995   6.513   6.718   5.547 -1.3242  0.4217 -2.3628
 5473SOL     OW16996   7.488   7.348   0.507  0.6002 -0.0779  0.0332
 5473SOL    HW116997   7.417   7.407   0.532  0.9876  0.0246  0.9315
 5473SOL    HW216998   7.480   7.339   0.412  0.5177  1.3786 -0.1098
 5474SOL     OW16999   9.613   0.958   7.461 -0.4753  0.0852  0.0838
 5474SOL    HW117000   9.621   0.993   7.372 -1.6611 -0.1627 -0.1291
 5474SOL    HW217001   9.696   0.912   7.475  0.6179  1.8927 -0.0919
 5475SOL     OW17002   4.831   9.696   1.174  0.4869  0.0240  0.0823
 5475SOL    HW117003   4.880   9.614   1.177  1.1110 -0.1267 -4.9838
 5475SOL    HW217004   4.745   9.672   1.141 -0.2984  1.1606  1.2183
 5476SOL     OW17005   8.693   7.498   3.817  0.0672  0.1686  0.0233
 5476SOL    HW117006   8.788   7.507   3.811  0.0323  0.0580 -0.8275
 5476SOL    HW217007   8.673   7.508   3.911  0.8350  0.9809  0.1089
 5477SOL     OW17008   9.182   3.049   6.946 -0.1635  0.1135 -0.4568
 5477SOL    HW117009   9.231   2.969   6.930 -1.1235 -0.2971 -1.4854
 5477SOL    HW217010   9.248   3.119   6.940  0.5678 -0.5372 -0.1836
 5478SOL     OW17011   3.644   5.119   3.675  0.3003  0.4561 -0.0260
 5478SOL    HW117012   3.697   5.073   3.740 -0.0377 -0.9487 -0.7210
 5478SOL    HW217013   3.708   5.153   3.612  0.4380 -0.6389 -0.4885
 5479SOL     OW17014   6.938   3.971   9.569  0.1172 -0.3671 -0.3444
 5479SOL    HW117015   6.948   3.959   9.475 -1.3509 -0.9288 -0.4529
 5479SOL    HW217016   6.897   4.057   9.579  0.1386 -0.3709 -0.2175
 5480SOL     OW17017   3.935   3.123   3.441  0.0531  0.1599  0.1582
 5480SOL    HW117018   3.908   3.184   3.372 -0.2167 -0.6181 -0.4370
 5480SOL    HW217019   3.855   3.077   3.466  0.2156  0.1932  0.7523
 5481SOL     OW17020   0.273   1.197   0.805 -0.6662  0.0646  0.0946
 5481SOL    HW117021   0.294   1.244   0.724  0.5889 -0.9676 -0.2194
 5481SOL    HW217022   0.335   1.232   0.869 -1.0619  0.2432  0.3821
 5482SOL     OW17023   3.477   2.351   6.430  0.2833 -0.2333  0.6442
 5482SOL    HW117024   3.553   2.410   6.428  0.0777  0.1218  1.9472
 5482SOL    HW217025   3.442   2.362   6.519 -1.5284 -0.0925 -0.0522
 5483SOL     OW17026   5.924   0.565   0.482 -0.2411  0.2753  0.1021
 5483SOL    HW117027   5.848   0.511   0.503 -0.5355  0.0840 -1.4145
 5483SOL    HW217028   5.966   0.580   0.567 -0.4975 -1.7894  0.6505
 5484SOL     OW17029   4.754   1.044   9.527  0.5285  0.3910 -0.2638
 5484SOL    HW117030   4.683   0.996   9.483  0.9155  0.7941 -1.3686
 5484SOL    HW217031   4.773   1.117   9.468  2.7687 -0.4357 -0.6606
 5485SOL     OW17032   3.636   9.598   7.083  0.2375  0.1810 -0.4040
 5485SOL    HW117033   3.634   9.566   7.173  0.4194 -0.5350 -0.6420
 5485SOL    HW217034   3.673   9.686   7.089  0.2768  0.1255  0.2184
 5486SOL     OW17035   4.519   8.314   9.010  0.3584 -0.7702  0.4436
 5486SOL    HW117036   4.558   8.290   9.094  1.9085 -2.0012 -0.5625
 5486SOL    HW217037   4.583   8.284   8.945 -2.6717 -3.9016 -1.4401
 5487SOL     OW17038   2.155   2.800   6.944  0.6154 -0.0142 -0.0227
 5487SOL    HW117039   2.152   2.889   6.909  1.8264 -0.0073 -0.1358
 5487SOL    HW217040   2.079   2.757   6.904 -1.2500  1.4966  1.6573
 5488SOL     OW17041   6.696   0.135   0.202 -0.3776  0.1842 -0.1693
 5488SOL    HW117042   6.782   0.172   0.217  0.3469 -1.7584  0.8783
 5488SOL    HW217043   6.701   0.099   0.113 -0.4153  0.8095 -0.4305
 5489SOL     OW17044   0.744   7.145   1.550 -0.1070 -0.0214 -0.1001
 5489SOL    HW117045   0.661   7.144   1.599 -0.1027  1.6494 -0.0041
 5489SOL    HW217046   0.753   7.056   1.516 -1.2587 -0.6021  1.0313
 5490SOL     OW17047   6.196   9.799   3.607 -0.3830 -0.3795  0.0653
 5490SOL    HW117048   6.224   9.862   3.673 -1.1281  0.3642 -0.3127
 5490SOL    HW217049   6.101   9.793   3.618 -0.2879 -1.7322  0.3393
 5491SOL     OW17050   0.467   9.411   8.059 -0.3109  0.2269  0.3774
 5491SOL    HW117051   0.507   9.411   7.972 -1.7112  0.1147 -0.2929
 5491SOL    HW217052   0.402   9.341   8.056 -1.0769  0.8706  1.1758
 5492SOL     OW17053   9.445   4.163   7.958 -0.7095 -0.3062  0.0347
 5492SOL    HW117054   9.473   4.221   7.888 -0.0450 -0.4142  0.2083
 5492SOL    HW217055   9.456   4.215   8.038 -0.0512 -0.6807  0.1959
 5493SOL     OW17056   8.052   0.625   8.662  0.0490  0.1750  0.0453
 5493SOL    HW117057   8.122   0.674   8.705 -1.4180  3.1335 -0.6639
 5493SOL    HW217058   8.052   0.539   8.705  3.5825  0.2896  0.5229
 5494SOL     OW17059   6.327   6.028   8.939 -0.0973 -0.0995 -0.5078
 5494SOL    HW117060   6.364   6.009   8.853  1.2975  2.8784 -0.6815
 5494SOL    HW217061   6.235   6.046   8.922 -0.0416 -0.4299 -1.2131
 5495SOL     OW17062   6.567   5.300   2.740 -0.1130 -0.1884  0.1748
 5495SOL    HW117063   6.531   5.303   2.651  1.1061 -0.8110 -0.3644
 5495SOL    HW217064   6.508   5.355   2.791 -1.5423 -0.7803 -0.7516
 5496SOL     OW17065   0.186   3.969   5.635 -0.0929  0.1547 -0.1005
 5496SOL    HW117066   0.204   3.993   5.544 -0.7134  4.4195  0.6859
 5496SOL    HW217067   0.265   3.995   5.683 -1.0304  1.2793  0.9362
 5497SOL     OW17068   4.036   7.216   0.656  0.2201 -0.4354 -0.2903
 5497SOL    HW117069   4.088   7.136   0.645 -0.4449 -0.8532 -0.4309
 5497SOL    HW217070   3.987   7.202   0.737  1.5610  0.6655  0.7669
 5498SOL     OW17071   7.505   9.719   9.031  0.6636 -0.0546 -0.3652
 5498SOL    HW117072   7.421   9.722   9.078  1.3112  0.8134  0.8010
 5498SOL    HW217073   7.528   9.811   9.018  2.0958 -0.2375  0.6129
 5499SOL     OW17074   1.245   1.106   3.834 -0.5236 -0.0966 -0.2753
 5499SOL    HW117075   1.268   1.168   3.765  1.5120 -0.8612 -0.3596
 5499SOL    HW217076   1.167   1.061   3.800  0.3023 -0.3112 -2.0082
 5500SOL     OW17077   6.315   2.557   5.660 -0.2219 -0.0236 -0.2309
 5500SOL    HW117078   6.393   2.611   5.670 -1.3704  2.1274 -1.9755
 5500SOL    HW217079   6.258   2.585   5.732  0.0741 -0.5789  0.2191
 5501SOL     OW17080   6.991   5.084   0.134  0.5395  0.1223 -0.3546
 5501SOL    HW117081   7.081   5.061   0.159  1.1175 -0.1038 -2.4228
 5501SOL    HW217082   7.000   5.165   0.083 -0.0459 -1.1926 -2.7003
 5502SOL     OW17083   7.165   1.709   4.807 -0.1594 -0.3930 -0.3569
 5502SOL    HW117084   7.196   1.736   4.894  1.5896  1.0405 -1.3520
 5502SOL    HW217085   7.147   1.615   4.816  1.6330 -0.6559  1.1399
 5503SOL     OW17086   7.525   2.527   1.608  0.0836  0.2816 -0.3638
 5503SOL    HW117087   7.531   2.435   1.584 -2.3948  0.3494 -1.4977
 5503SOL    HW217088   7.502   2.527   1.701 -0.1576 -0.2530 -0.4238
 5504SOL     OW17089   1.390   6.810   4.324  0.0078 -0.4410  0.4445
 5504SOL    HW117090   1.366   6.719   4.308  0.1988 -0.6280  1.2065
 5504SOL    HW217091   1.446   6.808   4.401  1.5656  0.1119 -0.6160
 5505SOL     OW17092   6.859   9.411   7.498 -0.1202 -0.3072  0.0886
 5505SOL    HW117093   6.883   9.362   7.419 -0.6790 -1.6281  0.7013
 5505SOL    HW217094   6.943   9.446   7.530  0.4229 -1.4871  0.0195
 5506SOL     OW17095   1.430   6.423   1.021 -0.8069  0.0398  0.2759
 5506SOL    HW117096   1.511   6.474   1.019 -1.0686  0.5919  2.3274
 5506SOL    HW217097   1.371   6.468   0.960  0.3213 -0.2763 -1.1201
 5507SOL     OW17098   8.147   4.982   6.936  0.1895 -0.1380  0.2553
 5507SOL    HW117099   8.236   5.015   6.925  1.4236 -3.1602  0.3469
 5507SOL    HW217100   8.110   4.983   6.848  0.9640 -0.5438 -0.0790
 5508SOL     OW17101   7.451   9.958   4.819  0.6052  0.3190  0.5346
 5508SOL    HW117102   7.385   9.922   4.759  1.3662  0.0035 -0.1237
 5508SOL    HW217103   7.402  10.021   4.872 -0.2052  0.1777 -0.0161
 5509SOL     OW17104   2.932   8.551   6.225  0.3231  0.0621 -0.3521
 5509SOL    HW117105   2.948   8.610   6.299 -0.1460  0.4515 -0.5545
 5509SOL    HW217106   2.888   8.475   6.264 -0.6545  0.6175 -0.3314
 5510SOL     OW17107   1.080   9.261   8.583 -0.2226  0.4035  0.3072
 5510SOL    HW117108   1.025   9.192   8.545  0.8163 -0.0671 -0.3947
 5510SOL    HW217109   1.042   9.343   8.549 -1.2607  0.1773  0.8785
 5511SOL     OW17110   2.490   5.738   5.190 -0.0010 -0.2324 -0.0555
 5511SOL    HW117111   2.432   5.721   5.115 -1.4676 -0.1248  1.0022
 5511SOL    HW217112   2.578   5.741   5.152 -0.4576 -2.2545 -1.4832
 5512SOL     OW17113   2.461   2.119   3.922  0.6263 -0.1259  0.7116
 5512SOL    HW117114   2.367   2.098   3.914  0.3266  1.6599 -0.9323
 5512SOL    HW217115   2.505   2.037   3.899 -0.5282 -0.1586 -1.6553
 5513SOL     OW17116   9.449   7.659   9.228  0.1240 -0.3994  0.6196
 5513SOL    HW117117   9.459   7.564   9.236  1.2600 -0.3037  0.5079
 5513SOL    HW217118   9.355   7.674   9.238 -0.1467 -1.5849  0.0592
 5514SOL     OW17119   4.731   4.342   0.972  0.1800  0.3826 -0.4511
 5514SOL    HW117120   4.803   4.340   1.034 -1.4431  0.8125  1.5636
 5514SOL    HW217121   4.664   4.285   1.011 -1.9936  2.8544 -0.2737
 5515SOL     OW17122   2.941   3.233   5.126  0.1958  0.2550  0.0078
 5515SOL    HW117123   2.903   3.145   5.129 -0.1377  0.4262  0.8949
 5515SOL    HW217124   2.900   3.273   5.049 -0.7857  0.1446  0.4547
 5516SOL     OW17125   5.878   8.572   2.599 -0.1637  0.3489 -0.8206
 5516SOL    HW117126   5.824   8.544   2.673 -0.0703 -0.7406 -1.1427
 5516SOL    HW217127   5.884   8.494   2.543  0.8668  0.7628 -1.3130
 5517SOL     OW17128   7.631   9.989   6.483 -0.5900  0.5449 -0.2410
 5517SOL    HW117129   7.676  10.005   6.565  0.9076  1.4719 -1.1900
 5517SOL    HW217130   7.562   9.926   6.504  0.9588 -0.6933  1.3249
 5518SOL     OW17131   5.356   0.372   2.751  0.2792 -0.0473  0.5743
 5518SOL    HW117132   5.416   0.418   2.810  1.0091  0.8720 -0.8361
 5518SOL    HW217133   5.328   0.295   2.801  1.1674  0.4869  1.9648
 5519SOL     OW17134   5.378   6.442   5.338 -0.3658  0.4844  0.5219
 5519SOL    HW117135   5.433   6.436   5.416 -1.9614 -0.8105  1.5748
 5519SOL    HW217136   5.329   6.524   5.349  0.3691  0.9883  0.1889
 5520SOL     OW17137   4.165   7.375   1.238 -0.2849 -0.1751 -0.1208
 5520SOL    HW117138   4.186   7.341   1.151 -0.5411  0.9331 -0.6310
 5520SOL    HW217139   4.087   7.327   1.265 -1.7096  1.1769 -1.5932
 5521SOL     OW17140   6.941   3.328   9.802 -0.5282  0.6784 -0.3273
 5521SOL    HW117141   6.874   3.332   9.734  0.4331 -0.5615 -1.3920
 5521SOL    HW217142   6.947   3.236   9.826 -0.8885  1.0944  1.5248
 5522SOL     OW17143   2.966   1.046   0.835  0.5085 -0.2534 -0.1114
 5522SOL    HW117144   3.019   1.120   0.863  2.4791 -1.1358 -1.3100
 5522SOL    HW217145   2.987   0.976   0.897  1.0870 -0.7212 -0.8136
 5523SOL     OW17146   8.458   5.483   4.613  0.6611 -0.3952 -0.1961
 5523SOL    HW117147   8.382   5.487   4.555  1.5315  1.2691 -1.2973
 5523SOL    HW217148   8.449   5.559   4.670  1.5489 -0.1080 -0.4202
 5524SOL     OW17149   7.834   7.857   2.403 -0.0266  0.1195  0.2158
 5524SOL    HW117150   7.782   7.863   2.483  0.6380 -1.7222  0.8225
 5524SOL    HW217151   7.871   7.769   2.404  2.4934  1.0679 -0.5733
 5525SOL     OW17152   2.230   3.701   1.929 -0.8334  0.5219  0.1244
 5525SOL    HW117153   2.314   3.733   1.897 -0.5606 -0.1615  0.1354
 5525SOL    HW217154   2.240   3.606   1.930 -1.4238  0.4599  0.6257
 5526SOL     OW17155   9.021   0.098   8.719 -0.0391  0.4440  0.1847
 5526SOL    HW117156   9.115   0.108   8.732 -0.1960  1.8872  0.3517
 5526SOL    HW217157   8.995   0.177   8.671 -0.7491 -1.1022 -2.1462
 5527SOL     OW17158   6.924   2.685   8.722  0.3741 -0.7351 -0.1501
 5527SOL    HW117159   6.941   2.650   8.635 -2.1358  0.7404 -1.3490
 5527SOL    HW217160   7.006   2.727   8.748  1.9511 -3.2483 -0.6472
 5528SOL     OW17161   7.830   2.324   2.817 -0.0633  0.4161  0.3012
 5528SOL    HW117162   7.796   2.398   2.867  0.1143  1.2176 -0.7300
 5528SOL    HW217163   7.893   2.281   2.876  1.9974  2.7687 -0.0265
 5529SOL     OW17164   8.137   0.843   2.467  0.1929 -0.3752 -0.7486
 5529SOL    HW117165   8.090   0.761   2.454 -1.2184  0.6394 -2.4838
 5529SOL    HW217166   8.224   0.827   2.431  0.5828 -1.6699  0.6960
 5530SOL     OW17167   7.397   4.797   7.737  0.6052  0.0363  0.6880
 5530SOL    HW117168   7.445   4.879   7.724  1.0045 -0.1247  1.1133
 5530SOL    HW217169   7.306   4.824   7.751  1.0288  0.5472  2.6868
 5531SOL     OW17170   9.526   2.739   0.031 -0.0515 -0.0158  0.7497
 5531SOL    HW117171   9.593   2.762   0.096  2.2963  0.4076 -1.6288
 5531SOL    HW217172   9.450   2.792   0.056  1.9032  2.8545  1.1929
 5532SOL     OW17173   6.534   8.921   5.690  0.1233 -1.0987 -0.0933
 5532SOL    HW117174   6.518   9.008   5.727  1.4563 -0.1304 -1.6706
 5532SOL    HW217175   6.487   8.922   5.606  1.6787 -1.1494 -1.0042
 5533SOL     OW17176   2.156   4.361   7.416 -0.7232 -0.4884 -0.3254
 5533SOL    HW117177   2.233   4.359   7.360  1.0263  1.8387  1.7706
 5533SOL    HW217178   2.108   4.438   7.389 -1.9465 -1.4743 -1.0697
 5534SOL     OW17179   2.717   7.345   7.809 -0.1068  0.5471  0.3790
 5534SOL    HW117180   2.808   7.327   7.784 -0.0608 -1.6172  1.8689
 5534SOL    HW217181   2.723   7.385   7.895 -0.5385  2.3755 -0.3834
 5535SOL     OW17182   7.751   4.930   1.019  0.0548 -0.0579 -0.1741
 5535SOL    HW117183   7.788   4.849   0.983  0.2121 -0.6302  1.1987
 5535SOL    HW217184   7.785   4.999   0.963  0.5770 -0.8704 -0.8841
 5536SOL     OW17185   3.792   5.025   9.133  0.1682 -0.0980 -0.3575
 5536SOL    HW117186   3.781   5.085   9.206 -0.7082 -0.7021  0.0196
 5536SOL    HW217187   3.876   5.050   9.093 -1.2591  2.9818 -1.7364
 5537SOL     OW17188   1.884   9.233   5.109 -0.0585 -0.4576 -0.1101
 5537SOL    HW117189   1.971   9.222   5.147  0.5210 -2.3088 -1.7983
 5537SOL    HW217190   1.825   9.190   5.170 -0.0764  2.0121  1.7669
 5538SOL     OW17191   0.358   6.475   5.629  0.5569  0.1605 -0.4843
 5538SOL    HW117192   0.386   6.461   5.720 -0.2944 -0.6975 -0.3379
 5538SOL    HW217193   0.437   6.506   5.585  0.8393  1.1493  0.6653
 5539SOL     OW17194   4.935   2.470   7.396  0.2678 -0.4592  0.1249
 5539SOL    HW117195   5.023   2.500   7.376  0.4036 -0.3648  0.8471
 5539SOL    HW217196   4.880   2.511   7.329  0.7847 -0.6425 -0.4204
 5540SOL     OW17197   7.142   8.719   8.325  0.4393  0.1334  0.0512
 5540SOL    HW117198   7.099   8.784   8.270  0.4995  0.7207  0.6836
 5540SOL    HW217199   7.213   8.768   8.368  0.1897 -0.2375  0.8952
 5541SOL     OW17200   4.398   5.123   0.521 -0.2536 -0.6734 -0.3981
 5541SOL    HW117201   4.451   5.193   0.483 -0.1683  0.1100  1.0935
 5541SOL    HW217202   4.461   5.057   0.548 -0.0360  0.0552  0.9580
 5542SOL     OW17203   1.136   6.736   6.191 -0.1117  0.7118 -0.2804
 5542SOL    HW117204   1.142   6.780   6.276  0.5836 -1.6421  0.9847
 5542SOL    HW217205   1.067   6.671   6.203  1.0143 -0.6519 -1.0130
 5543SOL     OW17206   0.887   1.643   2.261 -0.4957  0.8058 -0.5533
 5543SOL    HW117207   0.801   1.677   2.286 -0.8449  0.6342 -1.4704
 5543SOL    HW217208   0.946   1.717   2.268 -1.2062  1.5941 -2.3383
 5544SOL     OW17209   6.387   4.230   6.953 -1.0578 -0.5851  0.0702
 5544SOL    HW117210   6.462   4.242   7.011 -1.3507 -0.2490  0.3870
 5544SOL    HW217211   6.423   4.239   6.864 -0.9936  1.3389  0.2416
 5545SOL     OW17212   6.760   4.968   9.008  0.1795  0.0763  0.2297
 5545SOL    HW117213   6.704   5.038   8.974 -2.7883 -2.2750 -0.1330
 5545SOL    HW217214   6.748   4.972   9.103  0.4550  0.3861  0.2530
 5546SOL     OW17215   5.289   0.711   2.524  0.2492  0.1626 -0.0486
 5546SOL    HW117216   5.258   0.779   2.464 -1.6988 -1.1031 -0.5783
 5546SOL    HW217217   5.241   0.727   2.605  0.4519 -0.0400  0.1130
 5547SOL     OW17218   0.341   3.204   9.760 -0.4823  0.2677 -0.2475
 5547SOL    HW117219   0.301   3.166   9.838 -1.2284  0.1721 -0.6753
 5547SOL    HW217220   0.418   3.249   9.794 -0.4383 -0.3058  0.4678
 5548SOL     OW17221   2.854   3.531   6.030  0.0321  0.3851  0.0436
 5548SOL    HW117222   2.760   3.515   6.023  0.2787 -2.3906  1.4161
 5548SOL    HW217223   2.894   3.457   5.984  1.5536  1.3597 -0.2580
 5549SOL     OW17224   0.355   2.105   7.018  0.0760  0.2994  0.1544
 5549SOL    HW117225   0.430   2.164   7.014 -0.0217  0.3786 -0.7671
 5549SOL    HW217226   0.292   2.148   7.075  0.2856  0.7610  0.0386
 5550SOL     OW17227   6.279   0.936   5.256 -0.2596 -0.1189  0.1489
 5550SOL    HW117228   6.233   0.985   5.188 -1.3224 -1.7761 -0.3655
 5550SOL    HW217229   6.212   0.916   5.321  0.3319 -0.2681  0.7267
 5551SOL     OW17230   3.660   8.395   6.367 -0.3657 -0.4913 -0.6576
 5551SOL    HW117231   3.682   8.477   6.323  1.5124 -0.2350  0.6099
 5551SOL    HW217232   3.697   8.326   6.311  0.0588 -0.3085 -0.6102
 5552SOL     OW17233   1.237   6.006   0.037 -0.4239  0.5013 -0.0158
 5552SOL    HW117234   1.180   6.022   0.112 -0.1343  1.0427  0.0944
 5552SOL    HW217235   1.213   5.919   0.006 -0.7757  0.4150  0.5008
 5553SOL     OW17236   9.283   4.304   4.762  0.0895 -0.2095  0.3501
 5553SOL    HW117237   9.357   4.248   4.738 -0.3161 -0.5080 -0.2575
 5553SOL    HW217238   9.234   4.253   4.827  0.2477 -0.1482  0.5165
 5554SOL     OW17239   9.658   2.086   5.967 -0.2774  0.6591  0.6013
 5554SOL    HW117240   9.722   2.139   6.013 -0.0945  0.5270  0.5043
 5554SOL    HW217241   9.704   2.056   5.888 -1.0136  2.0236 -0.3929
 5555SOL     OW17242   1.595   9.324   3.032 -0.3364  0.0645  0.3895
 5555SOL    HW117243   1.670   9.382   3.042  0.0816 -0.4749  0.4036
 5555SOL    HW217244   1.611   9.278   2.950  0.1320 -1.1733  1.1408
 5556SOL     OW17245   5.189   3.755   8.170 -0.6376  0.0263  0.0812
 5556SOL    HW117246   5.189   3.827   8.107  0.4961 -0.4612 -0.5036
 5556SOL    HW217247   5.146   3.790   8.247  1.1769  1.8268  0.3506
 5557SOL     OW17248   4.794   6.419   6.291  0.4117  0.2283  0.1714
 5557SOL    HW117249   4.702   6.415   6.263 -0.3889  2.7881  2.0317
 5557SOL    HW217250   4.796   6.366   6.372  0.2544  1.1338  0.7808
 5558SOL     OW17251   0.302   4.977   5.435 -0.8814 -0.2847 -0.5456
 5558SOL    HW117252   0.388   5.009   5.462 -2.1850  3.1477  0.1566
 5558SOL    HW217253   0.316   4.940   5.348  1.1572  1.1763 -0.9083
 5559SOL     OW17254   4.243   1.453   7.959 -0.6536  0.7291  0.2668
 5559SOL    HW117255   4.228   1.363   7.989  1.6293 -0.2431 -1.2162
 5559SOL    HW217256   4.164   1.476   7.910 -1.3428 -0.3969  0.8147
 5560SOL     OW17257   6.664   3.300   6.958  0.3457  0.3743 -0.2506
 5560SOL    HW117258   6.639   3.232   6.895 -0.2167  1.8498 -1.6794
 5560SOL    HW217259   6.730   3.258   7.013 -0.7775 -1.6657 -0.3593
 5561SOL     OW17260   7.751   8.498   3.629  0.1058 -0.0160  0.9018
 5561SOL    HW117261   7.836   8.542   3.635  1.3993 -2.1434 -0.7673
 5561SOL    HW217262   7.740   8.479   3.536 -0.5200 -2.8657  1.4620
 5562SOL     OW17263   3.241   6.893   1.541  0.5382  0.4104 -0.2635
 5562SOL    HW117264   3.250   6.981   1.578 -2.8482  1.3389 -1.2822
 5562SOL    HW217265   3.170   6.853   1.591  0.4103 -0.8122 -1.3716
 5563SOL     OW17266   9.843   9.281   1.065  0.0326  0.5951  0.7436
 5563SOL    HW117267   9.931   9.288   1.102  1.0815 -0.9863 -1.2414
 5563SOL    HW217268   9.856   9.298   0.972 -1.8117  0.4673  0.4457
 5564SOL     OW17269   6.926   0.781   2.261 -0.3579 -0.5399  0.1950
 5564SOL    HW117270   6.961   0.699   2.296 -1.3507 -0.9038  0.3521
 5564SOL    HW217271   6.991   0.847   2.286  1.2361 -1.4743 -1.2225
 5565SOL     OW17272   3.776   1.017   5.086  0.4032  0.0838  0.0034
 5565SOL    HW117273   3.795   0.923   5.078  0.4619  0.1344 -0.5055
 5565SOL    HW217274   3.708   1.022   5.154 -0.3645 -0.4359 -0.6949
 5566SOL     OW17275   6.578   0.657   3.374  0.1719  0.6573 -0.8431
 5566SOL    HW117276   6.544   0.602   3.444  1.6697 -2.3196 -2.2299
 5566SOL    HW217277   6.507   0.717   3.352 -2.4887 -2.1825 -0.6188
 5567SOL     OW17278   2.258   4.417   1.458  0.0071  0.0472 -0.2876
 5567SOL    HW117279   2.258   4.352   1.528 -0.0479  0.0326 -0.3008
 5567SOL    HW217280   2.272   4.365   1.378 -1.5374 -0.1450 -0.4710
 5568SOL     OW17281   4.227   4.857   5.746 -0.2669  0.5741  0.7227
 5568SOL    HW117282   4.236   4.806   5.826 -0.3311  0.2143  0.5022
 5568SOL    HW217283   4.186   4.797   5.683  1.5358  0.2095 -0.1720
 5569SOL     OW17284   4.758   4.933   2.431  0.3622  0.5197 -0.2317
 5569SOL    HW117285   4.829   4.941   2.368  0.9393 -1.0992  0.1601
 5569SOL    HW217286   4.694   4.875   2.388  1.2572 -1.5141  0.9998
 5570SOL     OW17287   9.084   7.873   4.038 -0.8301 -0.1703 -0.1400
 5570SOL    HW117288   9.149   7.843   4.102  0.3755  1.1033 -0.7274
 5570SOL    HW217289   9.091   7.968   4.040 -2.5290 -0.0201 -0.4047
 5571SOL     OW17290   4.394   9.704   2.495 -0.3359 -0.2749 -0.1655
 5571SOL    HW117291   4.471   9.664   2.535 -0.3676  0.0956  0.2689
 5571SOL    HW217292   4.415   9.797   2.489 -0.4445 -0.2845 -0.7537
 5572SOL     OW17293   6.520   7.223   7.063 -0.6155 -0.0387  0.0352
 5572SOL    HW117294   6.486   7.158   7.125 -2.9521  0.4741 -0.6272
 5572SOL    HW217295   6.599   7.182   7.027 -2.0707 -2.6188 -0.4604
 5573SOL     OW17296   4.879   1.851   3.216 -0.4386  0.0314  0.2837
 5573SOL    HW117297   4.968   1.819   3.199  0.0010  1.6774 -0.8081
 5573SOL    HW217298   4.836   1.849   3.131 -0.0149  3.2074 -0.1284
 5574SOL     OW17299   2.388   3.739   9.761 -0.1820 -0.1624 -0.2549
 5574SOL    HW117300   2.343   3.691   9.692 -1.5883 -0.1949  0.6402
 5574SOL    HW217301   2.360   3.830   9.749  0.2710 -0.0240 -0.2671
 5575SOL     OW17302   8.134   6.946   1.815 -0.2429  0.2046 -0.3460
 5575SOL    HW117303   8.089   6.993   1.745 -1.4868  0.6981  0.7436
 5575SOL    HW217304   8.067   6.932   1.882  1.0883  0.4301  1.0856
 5576SOL     OW17305   8.601   6.603   3.952  0.0359  0.3531  0.3647
 5576SOL    HW117306   8.589   6.656   3.873  2.1602 -0.7559 -0.7761
 5576SOL    HW217307   8.535   6.533   3.943 -1.8773  1.9386  1.2281
 5577SOL     OW17308   5.156   9.457   6.201 -0.0540 -0.4285 -0.4312
 5577SOL    HW117309   5.235   9.508   6.181  0.2086 -1.1503 -1.3037
 5577SOL    HW217310   5.084   9.514   6.174  0.2261 -0.3640 -1.0574
 5578SOL     OW17311   4.179   2.500   2.796 -0.0216 -0.4266 -0.3171
 5578SOL    HW117312   4.167   2.489   2.702  2.2051  0.1313 -0.7393
 5578SOL    HW217313   4.235   2.427   2.822  0.3954  0.1106  0.3253
 5579SOL     OW17314   2.901   5.992   7.051 -0.0611 -0.3879 -0.0266
 5579SOL    HW117315   2.832   6.007   6.986 -2.9177 -2.3794  2.2402
 5579SOL    HW217316   2.874   6.045   7.126  0.0235 -2.2858  1.4171
 5580SOL     OW17317   3.271   1.179   2.225  0.4371 -0.3418 -0.1748
 5580SOL    HW117318   3.338   1.225   2.276 -1.8623  2.2750  0.7028
 5580SOL    HW217319   3.283   1.213   2.136  0.6389 -0.3326 -0.1463
 5581SOL     OW17320   2.827   3.829   9.960 -0.1798 -0.3619  0.0630
 5581SOL    HW117321   2.826   3.852   9.867 -1.8787 -3.7138 -0.9075
 5581SOL    HW217322   2.751   3.875   9.997  0.0076  0.3098 -0.3651
 5582SOL     OW17323   8.139   5.006   9.234 -0.5133 -0.0030 -0.7214
 5582SOL    HW117324   8.159   5.097   9.210  0.4667 -0.0944 -0.3120
 5582SOL    HW217325   8.221   4.959   9.220 -0.4333 -0.4241  0.9808
 5583SOL     OW17326   1.320   0.401   3.081 -0.3150 -0.4063 -0.4059
 5583SOL    HW117327   1.306   0.341   3.155 -1.6132  0.3138 -0.0425
 5583SOL    HW217328   1.256   0.470   3.094  1.2457  1.1795 -0.7237
 5584SOL     OW17329   4.192   2.294   8.556  0.4874  0.3538  0.4585
 5584SOL    HW117330   4.187   2.356   8.629 -0.4901  1.2404 -0.3296
 5584SOL    HW217331   4.274   2.315   8.512  1.3911 -0.5868  1.6113
 5585SOL     OW17332   2.152   5.192   1.236  0.3510 -0.4383  0.0283
 5585SOL    HW117333   2.163   5.163   1.326  0.8546 -0.8003 -0.1456
 5585SOL    HW217334   2.189   5.280   1.234 -0.4874 -0.0601  0.3776
 5586SOL     OW17335   3.057   3.452   8.306 -0.0738 -0.8246 -0.9318
 5586SOL    HW117336   3.101   3.385   8.358  0.5989  1.4958  1.7474
 5586SOL    HW217337   3.122   3.522   8.298 -1.9914  1.1872 -0.0211
 5587SOL     OW17338   5.627   3.286   1.574  0.8019 -0.0522  0.3198
 5587SOL    HW117339   5.584   3.367   1.600 -0.2422 -0.2875 -0.6178
 5587SOL    HW217340   5.662   3.304   1.487  0.1287 -0.7596 -0.1018
 5588SOL     OW17341   5.749   4.259   4.650  0.0016  0.1446  0.2964
 5588SOL    HW117342   5.742   4.208   4.569  0.4226 -0.1581  0.4449
 5588SOL    HW217343   5.659   4.270   4.679 -0.3843  2.2691 -1.4330
 5589SOL     OW17344   4.656   0.516   0.551 -0.1027 -0.6741 -0.4770
 5589SOL    HW117345   4.641   0.471   0.634 -1.7703 -1.8933 -1.3876
 5589SOL    HW217346   4.733   0.473   0.514 -0.0908 -0.9698 -0.1146
 5590SOL     OW17347   2.288   6.559   5.645  0.1743 -0.3971  0.1941
 5590SOL    HW117348   2.246   6.541   5.561  2.0810 -0.6299 -0.7577
 5590SOL    HW217349   2.301   6.473   5.685  0.1722 -0.3656  0.2634
 5591SOL     OW17350   1.249   9.072   4.309 -0.3431 -0.6318 -0.1773
 5591SOL    HW117351   1.297   9.153   4.293 -0.3562 -0.6018 -0.0645
 5591SOL    HW217352   1.204   9.086   4.392 -1.4467 -0.2361 -0.8133
 5592SOL     OW17353   8.631   6.644   6.454 -0.0576  0.2391 -0.0363
 5592SOL    HW117354   8.587   6.576   6.402  0.3614  0.2594 -0.4236
 5592SOL    HW217355   8.581   6.648   6.536 -0.0184 -0.6155  0.0353
 5593SOL     OW17356   6.599   9.712   7.446  0.7563 -0.0208  0.1418
 5593SOL    HW117357   6.578   9.764   7.523  2.2151  0.5135  0.2176
 5593SOL    HW217358   6.514   9.685   7.411  0.0527  0.1756  1.6156
 5594SOL     OW17359   4.499   0.718   3.029 -0.2312  0.7447 -0.1939
 5594SOL    HW117360   4.408   0.740   3.009  0.1049  2.6306  0.1380
 5594SOL    HW217361   4.507   0.733   3.124  0.2459 -0.1158 -0.0892
 5595SOL     OW17362   8.072   1.352   8.052 -0.7210 -0.6707 -0.9329
 5595SOL    HW117363   8.100   1.264   8.027  0.4220 -0.0854 -1.7988
 5595SOL    HW217364   8.140   1.409   8.018 -1.5872  0.5821 -0.6191
 5596SOL     OW17365   6.111   3.121   5.821 -0.5297  0.1380 -0.1019
 5596SOL    HW117366   6.179   3.086   5.763 -0.2461  0.2906  0.1294
 5596SOL    HW217367   6.088   3.048   5.878  0.2648  0.3867  0.5671
 5597SOL     OW17368   5.450   1.019   1.891  0.0214  0.0111  0.1126
 5597SOL    HW117369   5.512   0.973   1.834 -0.8788 -0.9130 -0.1645
 5597SOL    HW217370   5.398   0.949   1.930 -0.1449  0.7086  1.1689
 5598SOL     OW17371   6.049   7.241   6.427 -0.2472 -0.4676  1.0102
 5598SOL    HW117372   6.120   7.237   6.490 -0.0560 -1.6862  0.7395
 5598SOL    HW217373   6.037   7.151   6.398 -0.2112  0.0825 -0.8291
 5599SOL     OW17374   8.148   2.522   3.421 -0.0028 -0.4589  0.0543
 5599SOL    HW117375   8.148   2.611   3.386 -1.6028 -0.5399 -0.2184
 5599SOL    HW217376   8.224   2.480   3.382  1.5807  1.1645  1.2392
 5600SOL     OW17377   4.106   2.546   3.603 -0.6884  1.1124 -0.1755
 5600SOL    HW117378   4.060   2.597   3.669  0.4045  1.0387  0.6830
 5600SOL    HW217379   4.148   2.476   3.653 -0.8967  0.2848 -1.1307
 5601SOL     OW17380   4.881   1.447   4.786  0.7238  0.1398 -0.6325
 5601SOL    HW117381   4.865   1.488   4.871 -0.1376 -1.0667 -0.1784
 5601SOL    HW217382   4.933   1.369   4.808 -1.1285 -1.2321 -0.9530
 5602SOL     OW17383   1.376   6.354   2.378  0.1881  0.0843 -0.2006
 5602SOL    HW117384   1.329   6.271   2.386  0.5050 -0.0674  0.1233
 5602SOL    HW217385   1.466   6.328   2.356  0.6145  0.2689  1.2151
 5603SOL     OW17386   0.127   7.604   6.142 -0.6919 -0.0771  0.5007
 5603SOL    HW117387   0.169   7.684   6.175  0.1483 -0.4395  0.3392
 5603SOL    HW217388   0.071   7.634   6.070 -1.4591  0.5363  1.3414
 5604SOL     OW17389   9.055   2.612   0.243 -0.3161  0.3549 -0.0812
 5604SOL    HW117390   8.981   2.552   0.244 -0.8833  1.0121 -1.1669
 5604SOL    HW217391   9.105   2.590   0.322  0.8901 -3.2548 -1.6310
 5605SOL     OW17392   4.670   8.279   8.779  0.3406 -0.0767 -0.2141
 5605SOL    HW117393   4.760   8.265   8.808  0.9610 -0.2886 -2.1332
 5605SOL    HW217394   4.677   8.338   8.704 -1.2226  0.6726  0.1664
 5606SOL     OW17395   6.533   2.807   8.425  0.7021 -0.1594 -0.3246
 5606SOL    HW117396   6.488   2.723   8.418 -1.5380  0.9973 -0.9347
 5606SOL    HW217397   6.557   2.828   8.334  1.7301 -0.3372 -0.1123
 5607SOL     OW17398   0.304   4.015   8.893 -0.3761 -0.0284  0.0733
 5607SOL    HW117399   0.286   4.026   8.800  0.8180  2.6189  0.0451
 5607SOL    HW217400   0.220   4.032   8.936 -1.2102 -2.4041 -0.4924
 5608SOL     OW17401   0.392   7.903   0.083  0.4563 -0.5771 -0.1839
 5608SOL    HW117402   0.400   7.917  -0.012  2.5199  0.4729  0.0904
 5608SOL    HW217403   0.381   7.809   0.093 -0.7392 -0.6108 -1.4903
 5609SOL     OW17404   6.690   2.976   8.188 -0.2092  0.2720  0.6699
 5609SOL    HW117405   6.690   2.997   8.095 -0.5379 -0.2247  0.5554
 5609SOL    HW217406   6.781   2.986   8.215 -0.0896  0.2879  0.2635
 5610SOL     OW17407   6.422   4.718   8.294 -0.1066  0.1159 -0.4556
 5610SOL    HW117408   6.404   4.709   8.201  1.5365  2.0641 -1.0321
 5610SOL    HW217409   6.340   4.693   8.337  0.3041 -5.2240 -2.0361
 5611SOL     OW17410   9.535   5.694   8.782 -0.3712  0.8637  0.4272
 5611SOL    HW117411   9.492   5.626   8.729  0.9935  0.3955 -0.1143
 5611SOL    HW217412   9.612   5.719   8.731 -0.6752  2.6127  0.7729
 5612SOL     OW17413   5.618   0.821   5.041  0.1829 -0.5177 -0.0568
 5612SOL    HW117414   5.570   0.894   5.000  0.1001 -0.0914  0.7751
 5612SOL    HW217415   5.706   0.855   5.054  0.3079 -0.7811 -0.2172
 5613SOL     OW17416   8.312   6.748   7.858 -0.3016 -0.2528  0.4269
 5613SOL    HW117417   8.393   6.699   7.849 -0.1714 -0.6518  2.9440
 5613SOL    HW217418   8.244   6.690   7.823  0.4302 -0.0347 -1.4093
 5614SOL     OW17419   2.490   2.932   0.726 -0.3118 -0.0354  0.0105
 5614SOL    HW117420   2.560   2.965   0.669 -2.2577  1.1635 -1.8059
 5614SOL    HW217421   2.505   2.837   0.729  3.0239  0.4073  2.0487
 5615SOL     OW17422   7.605   2.550   8.260 -0.3952 -0.2701 -0.5218
 5615SOL    HW117423   7.669   2.503   8.207 -1.0965  0.7491 -2.3613
 5615SOL    HW217424   7.526   2.554   8.205 -1.1239  0.9514  0.5409
 5616SOL     OW17425   9.588   1.105   5.152  0.6951  0.0879 -0.3403
 5616SOL    HW117426   9.676   1.088   5.120  0.8666  1.1129 -0.4294
 5616SOL    HW217427   9.549   1.163   5.087 -0.1300 -0.5306 -0.4186
 5617SOL     OW17428   9.669   8.778   5.292  0.0384 -0.1480 -0.2322
 5617SOL    HW117429   9.690   8.720   5.219 -0.5002 -0.0127 -0.4982
 5617SOL    HW217430   9.707   8.735   5.369  2.1611  0.5786 -0.8193
 5618SOL     OW17431   2.358   0.091   6.069 -0.5472 -0.2727 -0.6527
 5618SOL    HW117432   2.334   0.103   6.160 -0.5311 -0.5963 -0.6073
 5618SOL    HW217433   2.330   0.172   6.026 -1.7776 -0.6697 -0.6197
 5619SOL     OW17434   0.667   9.122   2.763 -0.0046 -0.4462 -0.1186
 5619SOL    HW117435   0.669   9.124   2.859 -0.0802 -0.3628 -0.1193
 5619SOL    HW217436   0.575   9.110   2.741 -0.2889  1.6822 -0.2314
 5620SOL     OW17437   3.546   6.442   3.083  0.2099  0.0875  0.2181
 5620SOL    HW117438   3.482   6.478   3.022 -1.5238 -1.5691  0.9690
 5620SOL    HW217439   3.570   6.357   3.046  1.9515  0.6305  0.0056
 5621SOL     OW17440   5.777   1.421   0.473 -0.1528 -0.0973 -0.0232
 5621SOL    HW117441   5.797   1.514   0.470 -1.7644  0.2740 -0.7645
 5621SOL    HW217442   5.771   1.395   0.380 -1.3914 -0.5104  0.1453
 5622SOL     OW17443   9.476   2.534   6.982  0.2374 -0.4696  0.6064
 5622SOL    HW117444   9.532   2.577   7.047 -0.0618 -0.6561  0.9840
 5622SOL    HW217445   9.537   2.502   6.915  0.4254  1.1742 -0.0581
 5623SOL     OW17446   1.465   0.526   4.898 -0.2839  0.1085  0.2337
 5623SOL    HW117447   1.538   0.585   4.918 -0.4917  0.4822 -0.0833
 5623SOL    HW217448   1.393   0.585   4.874 -0.4164 -0.2810 -0.3520
 5624SOL     OW17449   8.823   7.620   1.214 -0.1731 -0.2359 -0.0597
 5624SOL    HW117450   8.827   7.529   1.244  0.2043 -0.5634 -1.0654
 5624SOL    HW217451   8.893   7.627   1.149 -0.3953  0.6951 -0.2143
 5625SOL     OW17452   9.229   4.515   2.354  0.2719 -0.5949  0.2462
 5625SOL    HW117453   9.198   4.427   2.332 -0.5510 -0.4157  0.6320
 5625SOL    HW217454   9.293   4.536   2.286  1.0098 -1.7665  0.5465
 5626SOL     OW17455   7.374   0.089   3.080  0.3013 -0.2425  0.0559
 5626SOL    HW117456   7.371   0.033   3.002  0.1204 -0.8035  0.4572
 5626SOL    HW217457   7.378   0.178   3.045 -1.0764 -0.4067 -0.6040
 5627SOL     OW17458   1.678   1.732   4.183 -0.1729  0.0532 -0.1987
 5627SOL    HW117459   1.741   1.698   4.119 -1.4455  0.2046 -1.5758
 5627SOL    HW217460   1.732   1.763   4.255  1.2166 -2.0639 -0.2351
 5628SOL     OW17461   7.127   2.972   3.558 -0.1305 -0.0950  0.0910
 5628SOL    HW117462   7.170   2.984   3.473  0.1570 -2.2204 -0.1312
 5628SOL    HW217463   7.196   2.983   3.622 -0.2786  1.1819  0.0624
 5629SOL     OW17464   4.828   6.895   2.928  0.1424  0.1683  0.3405
 5629SOL    HW117465   4.805   6.802   2.930 -2.8382  0.8055  0.3196
 5629SOL    HW217466   4.846   6.917   3.019 -2.5098  0.1920  0.9603
 5630SOL     OW17467   7.291   1.369   4.748  0.0112 -0.0242  0.1655
 5630SOL    HW117468   7.289   1.372   4.844  1.3457 -0.6383  0.2395
 5630SOL    HW217469   7.335   1.449   4.722 -0.7594  0.3630  0.0301
 5631SOL     OW17470   3.313   8.899   2.089 -0.0699  0.4936 -0.9080
 5631SOL    HW117471   3.267   8.957   2.029 -0.0971  1.7297  0.2758
 5631SOL    HW217472   3.401   8.891   2.052 -0.2902  0.6701 -1.4727
 5632SOL     OW17473   8.694   5.847   9.427  0.2883  0.2561 -0.0806
 5632SOL    HW117474   8.747   5.861   9.506  1.1954  1.1417 -0.8243
 5632SOL    HW217475   8.750   5.797   9.368 -0.7623 -1.3465  0.1914
 5633SOL     OW17476   9.034   0.616   7.796  0.1179  0.9883 -0.1503
 5633SOL    HW117477   9.063   0.527   7.777 -2.4450 -0.0103  0.1924
 5633SOL    HW217478   9.029   0.621   7.891  0.2665  1.5370 -0.1631
 5634SOL     OW17479   3.472   8.840   8.402 -0.5993 -0.0378  0.4485
 5634SOL    HW117480   3.560   8.821   8.368 -0.9120 -1.0298  0.1520
 5634SOL    HW217481   3.459   8.933   8.385 -0.4335 -0.3313 -1.4567
 5635SOL     OW17482   2.956   3.098   7.118  0.4674 -0.3847 -0.9244
 5635SOL    HW117483   3.024   3.154   7.156  1.1649 -1.7511 -0.1032
 5635SOL    HW217484   2.883   3.157   7.102  0.6822  0.5244  1.1723
 5636SOL     OW17485   3.602   2.663   2.458 -0.4784 -0.7517 -0.3566
 5636SOL    HW117486   3.672   2.674   2.522 -0.9800  0.1849  0.0574
 5636SOL    HW217487   3.522   2.654   2.510 -1.1635  1.8997 -0.7786
 5637SOL     OW17488   2.450   2.938   3.752  0.2008  0.4808  0.9380
 5637SOL    HW117489   2.355   2.952   3.756  0.2622  1.9157 -0.9283
 5637SOL    HW217490   2.470   2.884   3.828 -2.3723 -1.4876  0.3425
 5638SOL     OW17491   7.409   1.993   5.230 -0.0239 -0.6535  0.4244
 5638SOL    HW117492   7.464   1.981   5.307  0.7868  1.5146  0.2566
 5638SOL    HW217493   7.391   2.087   5.227 -0.7715 -0.8017 -1.5239
 5639SOL     OW17494   3.674   3.924   1.787 -0.7383  0.0530  0.3476
 5639SOL    HW117495   3.718   3.867   1.724 -0.7593  1.2303 -0.7925
 5639SOL    HW217496   3.719   4.009   1.777 -2.7245  1.0837 -0.2979
 5640SOL     OW17497   4.134   3.401   3.392  0.3897 -0.5725 -0.3926
 5640SOL    HW117498   4.107   3.440   3.475 -1.6822 -2.2432 -0.1853
 5640SOL    HW217499   4.117   3.469   3.327 -1.1732 -0.3773  0.1836
 5641SOL     OW17500   4.249   7.072   7.306  0.2825 -0.3083  0.1205
 5641SOL    HW117501   4.190   7.108   7.372  1.1351 -0.2411  0.8670
 5641SOL    HW217502   4.234   6.978   7.309  1.3528 -0.4601  1.4689
 5642SOL     OW17503   2.595   4.135   3.519  0.3989  0.4894 -0.1122
 5642SOL    HW117504   2.588   4.060   3.460 -0.3809  0.7922 -0.4323
 5642SOL    HW217505   2.560   4.208   3.468  0.9833  1.0322  0.2576
 5643SOL     OW17506   0.937   1.097   8.917  0.0445  0.1830  0.8589
 5643SOL    HW117507   0.866   1.092   8.981 -2.7240  1.5157 -1.8061
 5643SOL    HW217508   0.921   1.025   8.857  2.0717 -0.5539  1.1284
 5644SOL     OW17509   2.047   7.537   8.126 -0.0145 -0.3559  0.0098
 5644SOL    HW117510   2.030   7.468   8.190 -0.6061 -0.6027 -0.3988
 5644SOL    HW217511   1.960   7.568   8.100  0.2402  0.5543  0.1932
 5645SOL     OW17512   3.692   8.661   6.636  0.0668  0.6332 -0.8365
 5645SOL    HW117513   3.655   8.653   6.724  0.8744 -1.4797 -0.6351
 5645SOL    HW217514   3.631   8.615   6.579  0.4836  0.3581 -1.0722
 5646SOL     OW17515   6.638   7.733   6.364 -0.1889 -0.4397  0.1615
 5646SOL    HW117516   6.725   7.761   6.392 -0.9973  1.3975  1.0337
 5646SOL    HW217517   6.597   7.699   6.444 -0.1653 -1.6482 -0.3210
 5647SOL     OW17518   1.819   0.295   3.573 -0.2444  0.6155  0.6380
 5647SOL    HW117519   1.728   0.298   3.541 -0.0465 -1.3308 -0.2778
 5647SOL    HW217520   1.824   0.214   3.622  0.8858  0.9533  1.1020
 5648SOL     OW17521   4.405   3.005   2.421 -0.2382 -0.6430 -0.1921
 5648SOL    HW117522   4.381   2.912   2.421 -0.3128 -0.6471 -1.3595
 5648SOL    HW217523   4.414   3.028   2.513  0.1874 -1.9092  0.1038
 5649SOL     OW17524   1.700   2.335   0.945  0.0511  0.8284 -0.4664
 5649SOL    HW117525   1.764   2.269   0.917 -2.0141 -0.1435 -3.3951
 5649SOL    HW217526   1.750   2.394   1.002  2.9523 -1.0785 -0.8057
 5650SOL     OW17527   3.541   1.334   8.436 -0.1685  0.4395 -0.0880
 5650SOL    HW117528   3.460   1.373   8.469 -1.3079 -2.4804  0.8682
 5650SOL    HW217529   3.518   1.301   8.349  0.3590  0.6678 -0.3183
 5651SOL     OW17530   6.503   6.711   7.298  0.5818 -0.2613 -0.0898
 5651SOL    HW117531   6.503   6.619   7.325  0.8667  0.2895  1.9430
 5651SOL    HW217532   6.582   6.748   7.338  1.4125  0.5178 -2.3141
 5652SOL     OW17533   4.344   1.573   8.860 -0.5370 -0.5617 -0.2176
 5652SOL    HW117534   4.267   1.518   8.848 -0.3246 -0.8914 -0.0815
 5652SOL    HW217535   4.351   1.622   8.778 -0.7879 -0.6581 -0.2983
 5653SOL     OW17536   4.224   6.022   7.021  0.0429 -0.2859 -0.0976
 5653SOL    HW117537   4.285   6.072   7.075 -0.0669  1.1410 -1.2362
 5653SOL    HW217538   4.273   5.943   6.998  0.9576  0.1963  0.1347
 5654SOL     OW17539   9.468   5.319   3.269  0.1830  0.3552 -0.7695
 5654SOL    HW117540   9.395   5.375   3.298 -0.5174 -1.6059  1.6804
 5654SOL    HW217541   9.521   5.308   3.348  1.2171 -1.0516 -1.6338
 5655SOL     OW17542   1.390   4.191   7.267 -0.2973  0.1037  0.5668
 5655SOL    HW117543   1.331   4.249   7.314  0.2020 -0.0781  1.4407
 5655SOL    HW217544   1.436   4.248   7.206 -0.1057  0.5594  1.1311
 5656SOL     OW17545   4.875   1.916   5.161  0.1134 -0.1431  0.0140
 5656SOL    HW117546   4.930   1.842   5.136  0.8310  0.2520  0.4025
 5656SOL    HW217547   4.937   1.986   5.184 -0.4550 -0.3767  2.6427
 5657SOL     OW17548   5.817   0.255   9.963 -0.1834 -0.2154 -0.2034
 5657SOL    HW117549   5.851   0.290   9.880 -0.6787  1.1997  0.1694
 5657SOL    HW217550   5.725   0.279   9.964 -0.0067  0.5422  1.1173
 5658SOL     OW17551   7.549   3.820   9.396 -0.2721  0.2807  0.5417
 5658SOL    HW117552   7.539   3.804   9.489 -0.6832  0.3003  0.5024
 5658SOL    HW217553   7.620   3.762   9.369  0.4602  0.9207  1.0384
 5659SOL     OW17554   5.110   6.983   7.247 -0.3091  0.0497  0.5244
 5659SOL    HW117555   5.054   7.049   7.205 -0.8986 -0.0385  1.1556
 5659SOL    HW217556   5.173   6.959   7.180 -0.3302  0.9766  0.1577
 5660SOL     OW17557   8.261   7.768   0.777 -0.4321 -0.3792  0.7753
 5660SOL    HW117558   8.176   7.743   0.813 -0.2303 -0.5262  1.1559
 5660SOL    HW217559   8.274   7.709   0.703 -0.7835 -0.1726  0.5451
 5661SOL     OW17560   5.509   4.022   5.692 -0.2145 -0.0662 -0.0035
 5661SOL    HW117561   5.474   4.086   5.631  1.1845  0.4205 -0.3251
 5661SOL    HW217562   5.480   3.938   5.658 -0.9948  0.3154 -0.2968
 5662SOL     OW17563   7.854   5.246   9.842 -0.4759  0.8853 -0.7826
 5662SOL    HW117564   7.782   5.219   9.899  0.5501 -0.3203 -0.0034
 5662SOL    HW217565   7.899   5.315   9.890 -0.3472  0.7300 -0.6772
 5663SOL     OW17566   4.179   1.539   6.333  0.7026 -0.3394  0.2205
 5663SOL    HW117567   4.217   1.571   6.251 -1.1485  0.2405 -0.4659
 5663SOL    HW217568   4.196   1.445   6.333 -0.7406 -0.6653 -1.7257
 5664SOL     OW17569   2.269   1.490   8.809  0.4493  0.3030 -0.3013
 5664SOL    HW117570   2.337   1.451   8.754 -0.6641  0.1094 -1.5934
 5664SOL    HW217571   2.255   1.577   8.772  0.3568  0.5390  0.2776
 5665SOL     OW17572   9.072   5.089   3.651 -0.2804  0.5565 -0.5113
 5665SOL    HW117573   9.067   5.101   3.745  1.3590  0.3109 -0.3668
 5665SOL    HW217574   9.027   5.007   3.634  0.0449  0.2340  0.1604
 5666SOL     OW17575   4.990   5.609   2.512  0.2981 -0.3678 -0.4561
 5666SOL    HW117576   5.078   5.577   2.489  1.0174  0.1487  1.3992
 5666SOL    HW217577   4.973   5.572   2.598 -0.2892  1.4695  0.2653
 5667SOL     OW17578   9.053   4.557   0.929  0.1762 -0.2504 -0.2367
 5667SOL    HW117579   9.089   4.536   1.016  0.2110  0.6110 -0.0344
 5667SOL    HW217580   9.096   4.639   0.905  0.8867 -0.9736 -1.5050
 5668SOL     OW17581   4.425   4.603   5.322  0.0101 -0.7990  0.5683
 5668SOL    HW117582   4.412   4.624   5.414 -0.2840  0.3593  0.2799
 5668SOL    HW217583   4.374   4.669   5.275  0.6397 -1.0072 -0.4350
 5669SOL     OW17584   4.338   1.768   0.929  0.4208 -0.3729 -0.0440
 5669SOL    HW117585   4.360   1.849   0.975 -2.2678 -0.1647  1.0895
 5669SOL    HW217586   4.349   1.699   0.995  0.2053 -0.5702 -0.2122
 5670SOL     OW17587   8.057   9.146   3.936 -0.2880 -0.2355 -0.2618
 5670SOL    HW117588   8.131   9.087   3.924  0.0678  0.2792 -0.7041
 5670SOL    HW217589   8.003   9.133   3.857 -0.7318 -0.6925  0.1129
 5671SOL     OW17590   2.759   8.001   8.023 -0.2310 -0.2739 -0.0765
 5671SOL    HW117591   2.786   8.037   7.938 -0.1054  1.6276  0.7126
 5671SOL    HW217592   2.675   7.958   8.005 -1.3728  2.0469 -0.8273
 5672SOL     OW17593   4.839   4.893   9.340  0.6713  0.1435  0.1403
 5672SOL    HW117594   4.782   4.817   9.328  0.2883  0.1997  1.3958
 5672SOL    HW217595   4.919   4.872   9.291  0.1136 -0.5496 -0.4862
 5673SOL     OW17596   3.145   8.596   8.842  0.1581  0.1590  0.5646
 5673SOL    HW117597   3.086   8.648   8.787 -0.5781  0.2532  1.4151
 5673SOL    HW217598   3.087   8.552   8.904  0.9579  0.0104  1.2241
 5674SOL     OW17599   2.875   2.812   5.671  0.3158  0.0977 -0.4639
 5674SOL    HW117600   2.787   2.777   5.658 -0.6287  1.7727  0.9871
 5674SOL    HW217601   2.872   2.852   5.758  2.3802  0.6059 -0.5788
 5675SOL     OW17602   4.636   7.295   6.632 -1.0210  0.3061  0.0503
 5675SOL    HW117603   4.545   7.282   6.603 -1.0493 -1.5170  0.8750
 5675SOL    HW217604   4.637   7.265   6.723  0.9047 -2.0321 -0.6421
 5676SOL     OW17605   1.451   7.977   8.299  0.3569 -0.0660 -0.6758
 5676SOL    HW117606   1.455   7.958   8.205 -0.5720 -0.9777 -0.5504
 5676SOL    HW217607   1.360   8.003   8.314  0.7259  1.0200 -0.1789
 5677SOL     OW17608   2.709   3.164   5.783  0.3600 -0.0458  0.7915
 5677SOL    HW117609   2.639   3.196   5.839 -1.9150  0.0363 -1.8812
 5677SOL    HW217610   2.722   3.073   5.811  0.0778  0.2854  2.0915
 5678SOL     OW17611   9.991   8.365   9.595 -0.4887 -0.1627 -0.4960
 5678SOL    HW117612   9.929   8.292   9.592 -2.4031  1.3341  0.2716
 5678SOL    HW217613  10.016   8.371   9.687 -0.1993  0.0372 -0.5885
 5679SOL     OW17614   9.371   5.189   9.899  1.0527  0.5815 -0.3076
 5679SOL    HW117615   9.458   5.197   9.859  0.8904 -1.8791 -1.3316
 5679SOL    HW217616   9.388   5.156   9.987  1.1613 -0.7323 -0.8012
 5680SOL     OW17617   9.184   3.949   6.419  0.4894  0.0497 -0.5812
 5680SOL    HW117618   9.145   3.903   6.344  0.5845  0.7219 -1.0433
 5680SOL    HW217619   9.255   4.000   6.382  0.1343  0.8903 -0.1355
 5681SOL     OW17620   3.805   2.069   3.532 -0.5547  0.3598  0.2442
 5681SOL    HW117621   3.887   2.022   3.521  0.0819  1.5216 -0.1957
 5681SOL    HW217622   3.741   2.002   3.556  0.1317 -0.8400 -1.1360
 5682SOL     OW17623   5.629   2.836   4.682 -0.4070  0.3735  0.9169
 5682SOL    HW117624   5.603   2.867   4.595 -0.9952 -2.9581 -0.2133
 5682SOL    HW217625   5.547   2.807   4.722  0.1591 -0.2239  1.6699
 5683SOL     OW17626   0.552   2.273   8.535 -0.5671  0.3012 -0.6830
 5683SOL    HW117627   0.612   2.223   8.480  0.8379  1.2956 -0.1163
 5683SOL    HW217628   0.533   2.214   8.608  1.3634  0.6358  0.1690
 5684SOL     OW17629   1.236   7.003   4.968 -0.6752  0.4388 -0.0521
 5684SOL    HW117630   1.257   7.008   4.875  0.0054 -0.9473  0.0031
 5684SOL    HW217631   1.227   6.909   4.985 -0.3584  0.6546  1.3717
 5685SOL     OW17632   9.407   3.762   1.623 -0.0870  0.7233  0.3526
 5685SOL    HW117633   9.343   3.754   1.694 -0.3167 -0.1100  0.0578
 5685SOL    HW217634   9.423   3.856   1.616 -1.8607  1.0313 -0.0656
 5686SOL     OW17635   0.228   9.768   7.710 -0.2537  0.2490 -0.1492
 5686SOL    HW117636   0.226   9.723   7.625  1.0846  1.0411 -0.6422
 5686SOL    HW217637   0.319   9.758   7.740 -0.8737 -0.6257  1.5538
 5687SOL     OW17638   6.461   8.490   1.209 -0.1841 -0.3431 -0.1901
 5687SOL    HW117639   6.516   8.544   1.152 -1.8239  0.1440 -1.3683
 5687SOL    HW217640   6.378   8.537   1.215 -0.6308 -1.2519  1.2314
 5688SOL     OW17641   3.769   1.310   5.308 -0.3423 -0.3350 -0.5958
 5688SOL    HW117642   3.837   1.280   5.368 -0.9893 -0.8788 -0.1161
 5688SOL    HW217643   3.787   1.403   5.294 -0.7456  0.0380  1.2044
 5689SOL     OW17644   8.043   4.259   2.598 -0.2329 -0.6525  0.2945
 5689SOL    HW117645   8.057   4.207   2.677 -0.8485  0.4697  1.1696
 5689SOL    HW217646   7.950   4.249   2.579 -0.1877 -0.5194 -0.0037
 5690SOL     OW17647   5.818   4.199   8.820 -0.0426 -0.2080  0.1469
 5690SOL    HW117648   5.781   4.147   8.892 -0.3928 -0.6790 -0.3639
 5690SOL    HW217649   5.800   4.290   8.844  0.1475 -0.3423  0.8179
 5691SOL     OW17650   3.188   4.587   7.274  0.1266  1.2160 -0.1447
 5691SOL    HW117651   3.114   4.543   7.232  0.2722 -0.5963  1.3613
 5691SOL    HW217652   3.150   4.626   7.353  1.0221 -1.5522  1.8065
 5692SOL     OW17653   7.566   3.336   7.683 -0.0595  0.3185 -0.7212
 5692SOL    HW117654   7.586   3.428   7.666 -1.9403  0.6588 -1.2998
 5692SOL    HW217655   7.636   3.307   7.742  1.2747  1.7469 -1.5146
 5693SOL     OW17656   7.060   5.918   8.361 -0.4117 -0.1536  0.4581
 5693SOL    HW117657   7.042   5.992   8.419 -1.1660 -0.3962  0.5363
 5693SOL    HW217658   7.065   5.843   8.420 -2.2176 -0.5755  0.1317
 5694SOL     OW17659   7.149   8.335   3.145 -0.0670  0.5278 -0.2203
 5694SOL    HW117660   7.133   8.250   3.187 -0.3957  0.4163 -0.5575
 5694SOL    HW217661   7.159   8.314   3.052  2.4917  0.5442 -0.0218
 5695SOL     OW17662   0.138   7.847   6.336  0.6977  0.4301 -0.8656
 5695SOL    HW117663   0.131   7.942   6.349 -0.2937  0.4551 -1.4540
 5695SOL    HW217664   0.231   7.827   6.350  0.6453  1.2308  0.8379
 5696SOL     OW17665   9.896   8.437   8.403  0.4340  0.2236  0.1584
 5696SOL    HW117666   9.970   8.426   8.343 -0.8109  1.2798 -1.6564
 5696SOL    HW217667   9.843   8.505   8.363 -2.1511 -1.2991  0.7958
 5697SOL     OW17668   2.300   9.611   8.452  0.1436 -0.3939  0.0349
 5697SOL    HW117669   2.289   9.559   8.531  0.3453  2.8689  2.3994
 5697SOL    HW217670   2.211   9.637   8.427  0.1927  0.0410  0.2947
 5698SOL     OW17671   5.787   0.561   2.842 -0.1425  0.1777  0.3167
 5698SOL    HW117672   5.839   0.482   2.826 -0.0052  0.1041  1.0848
 5698SOL    HW217673   5.811   0.621   2.771 -1.6167 -1.1274 -1.4088
 5699SOL     OW17674   9.485   0.810   2.617 -0.1150  0.7924  0.9401
 5699SOL    HW117675   9.452   0.867   2.686 -0.6267  0.9227  0.5992
 5699SOL    HW217676   9.412   0.804   2.555  0.4121  0.8560  0.3066
 5700SOL     OW17677   7.680   3.144   2.901  0.2514 -0.2580 -0.6830
 5700SOL    HW117678   7.659   3.055   2.871  2.0875 -0.4414 -1.5743
 5700SOL    HW217679   7.658   3.200   2.826 -1.7339  0.2065  0.1785
 5701SOL     OW17680   9.598   6.444   9.640 -0.2857  0.1299  0.2599
 5701SOL    HW117681   9.522   6.405   9.598 -0.3522  0.7287 -0.1883
 5701SOL    HW217682   9.657   6.371   9.657 -1.1834 -0.4247  1.1094
 5702SOL     OW17683   6.420   1.268   1.067 -0.6661 -0.2600  0.0004
 5702SOL    HW117684   6.363   1.203   1.108 -1.3471 -0.0214 -0.5463
 5702SOL    HW217685   6.367   1.347   1.063 -0.2844 -0.0230 -0.4861
 5703SOL     OW17686   4.076   8.759   5.755 -0.4501 -0.5512 -0.1201
 5703SOL    HW117687   4.004   8.818   5.733 -0.8392 -1.2193 -0.6818
 5703SOL    HW217688   4.051   8.721   5.839 -0.9740 -1.1091 -0.5193
 5704SOL     OW17689   0.615   4.958   7.177 -0.1086  0.1327  0.3759
 5704SOL    HW117690   0.630   4.918   7.262 -0.7317  0.2543  0.5440
 5704SOL    HW217691   0.692   4.932   7.125 -0.3896 -1.1168  0.5384
 5705SOL     OW17692   5.839   1.442   8.224  0.1503 -0.1773 -0.1870
 5705SOL    HW117693   5.919   1.445   8.276 -0.2222 -0.5527  0.4243
 5705SOL    HW217694   5.850   1.367   8.165 -1.0122 -2.2684  2.0621
 5706SOL     OW17695   0.463   8.804   4.905 -0.6504  0.5276  0.3859
 5706SOL    HW117696   0.385   8.809   4.849  1.4978  0.1971 -2.9271
 5706SOL    HW217697   0.488   8.895   4.920 -0.3547  0.6110 -0.5832
 5707SOL     OW17698   7.331   4.425   6.646 -0.3055  0.0544 -0.4011
 5707SOL    HW117699   7.418   4.388   6.665 -0.8447 -0.8648  0.3804
 5707SOL    HW217700   7.347   4.518   6.634  0.8403 -0.1467 -0.5967
 5708SOL     OW17701   8.325   1.429   5.894 -0.3583 -0.5094  0.0375
 5708SOL    HW117702   8.386   1.382   5.837 -0.6792  0.6134 -1.2835
 5708SOL    HW217703   8.342   1.522   5.876 -0.7054 -0.1259  1.5484
 5709SOL     OW17704   9.060   3.431   6.737  0.3799 -0.5567  0.4134
 5709SOL    HW117705   9.019   3.487   6.802 -0.2318 -0.4721 -0.0322
 5709SOL    HW217706   8.990   3.371   6.710  1.3291 -2.3504  1.7516
 5710SOL     OW17707   1.945   3.570   4.919  0.2657  0.1807 -0.6024
 5710SOL    HW117708   1.878   3.524   4.969 -0.2842 -0.7488 -2.1302
 5710SOL    HW217709   1.982   3.503   4.862  2.3304  0.7388  0.0004
 5711SOL     OW17710   2.015   2.972   6.362 -0.5833  0.2284  0.5277
 5711SOL    HW117711   1.992   2.888   6.401 -0.2655  0.4093  1.1069
 5711SOL    HW217712   1.931   3.009   6.335 -0.8357  0.2065  1.2561
 5712SOL     OW17713   2.471   4.647   9.645 -0.3129  0.6510  0.1828
 5712SOL    HW117714   2.550   4.592   9.646  0.0698  1.1565 -0.8799
 5712SOL    HW217715   2.402   4.591   9.679  0.3713 -0.0130  0.5069
 5713SOL     OW17716   6.310   2.064   6.513  0.2646  0.3703 -0.0000
 5713SOL    HW117717   6.234   2.107   6.551  0.3435  2.4773 -1.9687
 5713SOL    HW217718   6.363   2.136   6.478  1.2694 -1.2171 -1.9989
 5714SOL     OW17719   4.170   8.025   3.271  0.8716  0.6400 -0.4537
 5714SOL    HW117720   4.211   7.939   3.260 -0.4511  0.1130 -1.4285
 5714SOL    HW217721   4.242   8.081   3.302  1.2613 -1.2877  2.5384
 5715SOL     OW17722   8.768   3.299   6.035  0.0374 -0.0728  0.2884
 5715SOL    HW117723   8.852   3.319   5.994  0.1497  1.3266  1.1312
 5715SOL    HW217724   8.704   3.349   5.984 -0.5036 -2.0137 -1.0749
 5716SOL     OW17725   8.107   9.924   1.295  0.1832  0.5445 -0.9047
 5716SOL    HW117726   8.075   9.860   1.360 -2.8802  0.9370 -1.8727
 5716SOL    HW217727   8.109   9.875   1.213 -0.9156  1.3108 -1.4103
 5717SOL     OW17728   0.383   7.810   5.786 -0.4862 -0.4493  0.2067
 5717SOL    HW117729   0.316   7.743   5.800 -0.7210 -0.2584  0.0175
 5717SOL    HW217730   0.463   7.761   5.767 -0.6575 -0.6758  0.0653
 5718SOL     OW17731   1.958   2.430   8.157  0.5376 -0.3290 -1.4653
 5718SOL    HW117732   1.999   2.514   8.138  1.2369 -0.7972 -2.1143
 5718SOL    HW217733   1.908   2.408   8.078  1.3488 -1.0767 -1.7898
 5719SOL     OW17734   8.749   0.980   9.827 -0.5507  0.0430 -0.3450
 5719SOL    HW117735   8.797   0.899   9.840 -0.6934  0.0235  0.0769
 5719SOL    HW217736   8.818   1.047   9.817 -0.3877  0.2890  1.9308
 5720SOL     OW17737   1.233   2.453   0.661 -0.5988  0.1290  0.3622
 5720SOL    HW117738   1.306   2.393   0.676 -0.1778  0.2060 -1.1935
 5720SOL    HW217739   1.235   2.512   0.736  1.7966  0.9497 -0.2599
 5721SOL     OW17740   0.674   1.121   3.731  0.0974 -0.1992  0.0679
 5721SOL    HW117741   0.617   1.197   3.719 -0.2924  0.0310  2.8553
 5721SOL    HW217742   0.758   1.158   3.758  0.1439 -0.7243  0.6521
 5722SOL     OW17743   3.905   4.163   3.845  0.2942  0.0212  0.3349
 5722SOL    HW117744   3.965   4.165   3.919  1.4992  0.3449 -0.6175
 5722SOL    HW217745   3.945   4.102   3.783  1.1046  2.2266 -1.4490
 5723SOL     OW17746   8.143   7.798   1.127 -0.6104  0.1105 -0.1107
 5723SOL    HW117747   8.075   7.769   1.066  0.1732 -1.2535 -0.3781
 5723SOL    HW217748   8.206   7.726   1.129  0.9494  1.4129 -0.0462
 5724SOL     OW17749   2.231   0.987   8.747  0.4647 -0.2868 -0.1473
 5724SOL    HW117750   2.317   1.028   8.755 -0.1052  0.9451 -0.2294
 5724SOL    HW217751   2.181   1.046   8.692 -0.5658 -0.8078  0.2082
 5725SOL     OW17752   4.791   4.328   3.876  0.0281 -0.1471 -0.3881
 5725SOL    HW117753   4.865   4.335   3.815  0.4615 -0.4499  0.0980
 5725SOL    HW217754   4.719   4.374   3.832 -0.2690 -2.0667 -2.0599
 5726SOL     OW17755   3.622   3.212   9.739 -0.3872 -0.2101 -0.0483
 5726SOL    HW117756   3.643   3.153   9.667  1.7937  1.4959 -0.9133
 5726SOL    HW217757   3.547   3.262   9.708 -0.0143 -0.0934 -0.7738
 5727SOL     OW17758   5.627   0.086   2.232 -0.2307  0.7445 -0.8780
 5727SOL    HW117759   5.702   0.139   2.259 -1.0720  1.0351  1.0496
 5727SOL    HW217760   5.613   0.026   2.305 -2.2753  1.1641 -0.8743
 5728SOL     OW17761   5.480   7.706   2.005  0.1300  0.5523  0.6240
 5728SOL    HW117762   5.491   7.800   2.020  0.2794  0.9103 -1.4243
 5728SOL    HW217763   5.484   7.696   1.909 -0.8442 -1.4203  0.7295
 5729SOL     OW17764   3.494   2.522   3.231  0.1949  0.1286 -0.0895
 5729SOL    HW117765   3.464   2.606   3.265  2.0622  1.7669 -2.2058
 5729SOL    HW217766   3.577   2.506   3.276 -0.4954 -1.0202  0.8441
 5730SOL     OW17767   9.493   2.408   9.206  0.2990 -0.1203 -0.4731
 5730SOL    HW117768   9.477   2.484   9.262 -0.4427 -0.8446  0.3267
 5730SOL    HW217769   9.519   2.338   9.267 -0.6621 -0.9689 -0.9977
 5731SOL     OW17770   8.667   1.724   4.260 -0.5515 -0.3031 -0.1465
 5731SOL    HW117771   8.615   1.790   4.305 -1.1058 -1.0838  0.3816
 5731SOL    HW217772   8.729   1.693   4.325 -0.6340 -0.6657 -0.2367
 5732SOL     OW17773   4.745   4.597   9.349  0.1087 -0.4520  0.1388
 5732SOL    HW117774   4.822   4.610   9.405  0.6989 -1.4822 -0.3902
 5732SOL    HW217775   4.670   4.606   9.408  0.6865 -0.6998  0.9275
 5733SOL     OW17776   0.323   8.156   7.047 -0.3923 -0.2107  0.1499
 5733SOL    HW117777   0.401   8.186   7.001  0.3248 -0.3726  1.2166
 5733SOL    HW217778   0.254   8.215   7.018  0.4411  0.8635  0.2779
 5734SOL     OW17779   6.610   0.576   7.448  0.3615  0.4451 -0.6020
 5734SOL    HW117780   6.624   0.496   7.499  0.5401  1.0901  0.3918
 5734SOL    HW217781   6.560   0.633   7.507 -2.9401 -0.2175 -2.5270
 5735SOL     OW17782   3.380   6.627  -0.007 -0.5192  0.1214  0.0018
 5735SOL    HW117783   3.437   6.683   0.047 -0.8847 -0.5071  1.0845
 5735SOL    HW217784   3.292   6.643   0.028 -0.9477  0.6182 -1.2403
 5736SOL     OW17785   2.236   9.619   3.854  0.4280  0.1232  0.0480
 5736SOL    HW117786   2.244   9.661   3.769 -0.8213  1.4994  0.5566
 5736SOL    HW217787   2.147   9.584   3.855 -0.0382  1.2841  1.2666
 5737SOL     OW17788   5.004   6.008   7.408  0.3979 -0.0162 -0.4189
 5737SOL    HW117789   5.050   6.004   7.324  0.5813 -0.2060 -0.3096
 5737SOL    HW217790   4.911   6.001   7.384  0.5185 -1.8062 -0.4918
 5738SOL     OW17791   1.623   5.228   7.523 -0.2107  0.0148  0.5518
 5738SOL    HW117792   1.574   5.158   7.566 -0.8629  1.0847  1.5967
 5738SOL    HW217793   1.567   5.305   7.532  2.4868  1.8376  3.7578
 5739SOL     OW17794   1.487   6.032   9.903  0.0759 -0.2089 -0.6822
 5739SOL    HW117795   1.396   6.014   9.928 -0.4340 -1.0913 -2.9514
 5739SOL    HW217796   1.489   6.127   9.891  0.8754  0.6565  4.2262
 5740SOL     OW17797   0.320  10.003   9.243  0.1030  0.0302  0.2164
 5740SOL    HW117798   0.232   9.996   9.204 -1.1605 -1.2098  2.9760
 5740SOL    HW217799   0.337   9.915   9.276  2.6377  0.1511 -0.6051
 5741SOL     OW17800   0.951   5.375   2.767  0.2080  0.2716  0.2567
 5741SOL    HW117801   1.011   5.304   2.743  0.3059  0.2162  0.6645
 5741SOL    HW217802   0.865   5.335   2.764  0.2991  0.0054  0.9418
 5742SOL     OW17803   2.745   5.989   0.684  0.3572 -0.4974 -0.1207
 5742SOL    HW117804   2.650   5.981   0.693  0.1067  0.0086 -1.9772
 5742SOL    HW217805   2.769   6.060   0.744 -0.6384  0.2814 -0.6182
 5743SOL     OW17806   9.395   5.861   3.891 -0.6211  0.0210  0.4285
 5743SOL    HW117807   9.429   5.930   3.834 -2.4788 -0.1591 -0.9734
 5743SOL    HW217808   9.313   5.833   3.850 -0.9300 -1.6529  2.0301
 5744SOL     OW17809   2.306   3.389   3.013 -0.1722 -0.7550  0.4128
 5744SOL    HW117810   2.368   3.324   3.048 -0.6098 -1.9651 -0.9291
 5744SOL    HW217811   2.224   3.372   3.059  0.3762  0.6582  1.9841
 5745SOL     OW17812   9.760   6.359   6.606  0.6359 -0.7857 -0.2281
 5745SOL    HW117813   9.698   6.401   6.547  1.1383 -0.7042 -0.7053
 5745SOL    HW217814   9.817   6.431   6.636 -0.3696 -0.5921  1.3425
 5746SOL     OW17815   4.199   6.631   8.026 -0.1629  0.0258 -0.5556
 5746SOL    HW117816   4.107   6.654   8.010  0.3275  0.3146 -3.5137
 5746SOL    HW217817   4.248   6.701   7.982  1.4944 -0.2131  0.8407
 5747SOL     OW17818   6.206   4.313   6.187 -0.0867 -0.2588  0.0892
 5747SOL    HW117819   6.211   4.244   6.121  0.9161  0.5448 -0.7070
 5747SOL    HW217820   6.145   4.377   6.150 -0.5507 -0.4276  0.5538
 5748SOL     OW17821   0.245   6.655   7.786  0.2909 -0.1358  0.4343
 5748SOL    HW117822   0.229   6.748   7.802 -1.1799 -0.4894  1.1782
 5748SOL    HW217823   0.229   6.645   7.692  2.2266  0.6694 -0.0221
 5749SOL     OW17824   5.378   8.641   6.699 -0.6971  0.0630 -0.4705
 5749SOL    HW117825   5.334   8.626   6.783 -0.0342 -0.1986 -0.1637
 5749SOL    HW217826   5.308   8.670   6.640 -1.1274  0.4818  0.2359
 5750SOL     OW17827   9.943   1.575   7.076  0.3347  0.2229 -0.2205
 5750SOL    HW117828   9.849   1.582   7.093  0.5319  0.1975  0.9612
 5750SOL    HW217829   9.967   1.488   7.108  0.8482  0.4252 -0.0301
 5751SOL     OW17830   2.914   5.076   8.507  0.1221  0.0093 -0.2430
 5751SOL    HW117831   2.928   4.988   8.541 -0.9028 -0.5678 -1.2792
 5751SOL    HW217832   2.922   5.067   8.412 -0.1236  1.0124 -0.3711
 5752SOL     OW17833   2.043   6.761   1.985  0.0973 -0.2731  0.4550
 5752SOL    HW117834   2.014   6.699   2.052  1.2242  0.9035  2.1165
 5752SOL    HW217835   1.963   6.792   1.943 -0.5180 -2.4317 -0.0871
 5753SOL     OW17836   2.341   2.432   1.722 -0.4427 -0.4774  0.1556
 5753SOL    HW117837   2.269   2.448   1.662 -0.3043 -1.4693 -0.3003
 5753SOL    HW217838   2.399   2.507   1.711 -0.7156 -0.3586 -0.5226
 5754SOL     OW17839   3.608   7.683   3.424 -0.0240 -0.1645  0.2417
 5754SOL    HW117840   3.539   7.619   3.407  0.7193 -1.2353  1.1787
 5754SOL    HW217841   3.648   7.655   3.505  0.4945  1.3625  0.5544
 5755SOL     OW17842   8.341   0.724   6.475  0.1589  0.3557 -0.3895
 5755SOL    HW117843   8.275   0.793   6.476  0.6579  0.8620 -0.9353
 5755SOL    HW217844   8.296   0.648   6.437  0.2765  1.1371 -2.2129
 5756SOL     OW17845   4.138   5.222   4.586  0.1708  0.3929  0.3813
 5756SOL    HW117846   4.146   5.129   4.566 -0.0437  0.5659 -0.5373
 5756SOL    HW217847   4.091   5.259   4.512  1.3566  1.4536  0.1213
 5757SOL     OW17848   7.227   9.517   0.314  0.5897 -0.6000 -0.7946
 5757SOL    HW117849   7.216   9.469   0.232  1.0064 -0.8126 -0.7270
 5757SOL    HW217850   7.143   9.507   0.359  0.2311 -0.1874 -1.3481
 5758SOL     OW17851   5.257   6.960   6.998  1.2651 -0.0741 -0.3466
 5758SOL    HW117852   5.253   6.902   6.921  0.9627 -0.5720  0.0381
 5758SOL    HW217853   5.270   7.047   6.961  1.5770 -0.3650 -0.9434
 5759SOL     OW17854   9.929   5.814   1.104 -0.1438  0.4247  0.0312
 5759SOL    HW117855   9.937   5.859   1.020  2.8227 -0.9954 -0.6136
 5759SOL    HW217856  10.012   5.833   1.149 -0.0377 -1.8678  0.9751
 5760SOL     OW17857   1.330   1.951   4.471 -0.6717  0.2299  0.1174
 5760SOL    HW117858   1.341   2.019   4.405  0.9823  0.4185  0.5422
 5760SOL    HW217859   1.313   1.999   4.553 -2.0579  0.0180 -0.0173
 5761SOL     OW17860   5.892   5.217   0.051  0.0686  0.6915 -0.0218
 5761SOL    HW117861   5.976   5.180   0.025 -0.3011  0.5250 -1.0141
 5761SOL    HW217862   5.854   5.250  -0.031 -0.3554  1.7458  0.5785
 5762SOL     OW17863   2.855   2.625   1.570  0.0108 -0.0225  0.7084
 5762SOL    HW117864   2.822   2.677   1.644  2.2895  0.8762  1.1856
 5762SOL    HW217865   2.950   2.636   1.574  0.3701 -2.0136 -0.8785
 5763SOL     OW17866   0.101   2.965   5.320 -0.2020 -0.1568 -0.2736
 5763SOL    HW117867   0.095   2.879   5.277 -0.9956  0.4311 -1.3782
 5763SOL    HW217868   0.018   3.008   5.300 -0.6765  0.1044  2.0052
 5764SOL     OW17869   5.824   0.891   9.597 -0.5705 -0.1664  0.1822
 5764SOL    HW117870   5.834   0.851   9.684  1.6093  0.6708  0.3789
 5764SOL    HW217871   5.900   0.859   9.548 -0.2463  1.5701 -0.4914
 5765SOL     OW17872   0.402   1.371   5.174  0.0958 -0.2951 -0.1989
 5765SOL    HW117873   0.373   1.462   5.168  1.6886  0.3244  0.8244
 5765SOL    HW217874   0.344   1.324   5.115 -0.6399  1.4196 -0.9270
 5766SOL     OW17875   0.583   9.449   7.818  0.2703 -0.2281 -0.1308
 5766SOL    HW117876   0.637   9.389   7.767  0.1569 -0.3347 -0.1272
 5766SOL    HW217877   0.559   9.518   7.757 -2.5386 -1.9719 -1.1711
 5767SOL     OW17878   5.070   5.348   0.287  0.4010  0.1344  0.4199
 5767SOL    HW117879   5.148   5.294   0.273  0.2056  0.2832 -1.5537
 5767SOL    HW217880   4.998   5.297   0.248 -0.3169  0.4790  1.2531
 5768SOL     OW17881   3.662   0.431   8.288 -0.0628  0.1969  0.2541
 5768SOL    HW117882   3.577   0.397   8.317  0.1206 -0.7811 -0.3097
 5768SOL    HW217883   3.701   0.359   8.239  0.8517  0.8389  0.0134
 5769SOL     OW17884   4.066   2.163   4.198 -0.6817  0.0658  0.4902
 5769SOL    HW117885   4.047   2.069   4.205 -2.3157  0.4154  1.0831
 5769SOL    HW217886   4.129   2.179   4.268  1.3917 -0.9701 -1.0242
 5770SOL     OW17887   8.802   0.156   8.126 -0.0791  0.2522  0.2059
 5770SOL    HW117888   8.868   0.202   8.074  0.6360 -1.4852 -0.4902
 5770SOL    HW217889   8.790   0.072   8.082 -1.5461 -0.1475  1.2698
 5771SOL     OW17890   9.835   1.508   1.183 -0.0923 -0.1885 -0.2677
 5771SOL    HW117891   9.832   1.446   1.111  0.1578  0.6083 -0.9749
 5771SOL    HW217892   9.842   1.593   1.141  1.2805  0.2100  0.7070
 5772SOL     OW17893   3.309   6.539   1.344  0.9241  0.1272  0.0615
 5772SOL    HW117894   3.340   6.581   1.424  2.3822  0.8208 -0.8235
 5772SOL    HW217895   3.233   6.590   1.317  0.5941  0.0562  0.8537
 5773SOL     OW17896   9.632   1.244   8.227 -0.4247 -0.3906 -0.1158
 5773SOL    HW117897   9.572   1.219   8.298  0.2546  0.1495  0.6610
 5773SOL    HW217898   9.601   1.330   8.200  0.8470  0.5503  1.2793
 5774SOL     OW17899   1.101   1.785   5.224 -0.3253  0.2497  0.2181
 5774SOL    HW117900   1.070   1.810   5.311  1.0079  0.6822  0.5817
 5774SOL    HW217901   1.158   1.856   5.197  0.0208 -0.3257 -0.6072
 5775SOL     OW17902   8.297   6.465   7.781  0.0920 -0.4613  0.6786
 5775SOL    HW117903   8.286   6.442   7.689 -0.1156 -0.8144  0.7881
 5775SOL    HW217904   8.367   6.407   7.813  0.7558  0.2449  0.5374
 5776SOL     OW17905   8.790   7.195   2.509  0.1676 -0.3978 -0.1033
 5776SOL    HW117906   8.752   7.120   2.463 -1.9074  0.9857 -0.8269
 5776SOL    HW217907   8.804   7.261   2.441  0.3995  0.4495  0.7350
 5777SOL     OW17908   2.589   5.237   8.610 -0.1456  0.1618 -0.5130
 5777SOL    HW117909   2.590   5.145   8.585 -0.1586  0.3835 -1.3384
 5777SOL    HW217910   2.497   5.261   8.612 -0.1380  0.1806 -0.3823
 5778SOL     OW17911   7.485   5.523   0.160 -0.5834  0.2369  0.5486
 5778SOL    HW117912   7.539   5.542   0.083 -1.7630  0.8821 -0.1385
 5778SOL    HW217913   7.532   5.565   0.232  0.1427  0.2846  0.0638
 5779SOL     OW17914   3.833   2.219   2.091 -0.0145  0.0921 -0.1275
 5779SOL    HW117915   3.815   2.264   2.173  2.1401  0.8541 -0.0014
 5779SOL    HW217916   3.753   2.229   2.040 -0.7494  1.1809  1.1722
 5780SOL     OW17917   9.887   9.088   3.555 -0.3539 -0.3141 -0.8775
 5780SOL    HW117918   9.952   9.080   3.484 -0.3053 -0.1759 -0.8485
 5780SOL    HW217919   9.810   9.125   3.513 -0.1433  0.2866 -0.7521
 5781SOL     OW17920   7.907   6.951   7.630  0.1553 -0.1311  0.4348
 5781SOL    HW117921   7.905   6.936   7.535  0.5498  0.5511  0.3125
 5781SOL    HW217922   7.916   6.863   7.667  0.3049 -0.3812 -0.1729
 5782SOL     OW17923   3.410   4.893   5.930  0.2770  0.0169 -0.3498
 5782SOL    HW117924   3.332   4.858   5.973 -2.1147  1.3557 -3.2116
 5782SOL    HW217925   3.435   4.825   5.868  1.3114 -0.3235  0.4225
 5783SOL     OW17926   5.932   9.004   3.639 -0.1697 -0.4567  0.3152
 5783SOL    HW117927   5.938   9.054   3.720  1.1803  0.0150 -0.0524
 5783SOL    HW217928   5.889   9.063   3.576  1.8915  0.5137 -0.2710
 5784SOL     OW17929   1.910   1.585   7.747  0.5000 -0.1243  0.2383
 5784SOL    HW117930   1.942   1.674   7.758  0.3858 -0.1282  0.6378
 5784SOL    HW217931   1.838   1.578   7.810 -1.1461  0.2967 -1.4966
 5785SOL     OW17932   0.415   4.855   1.529 -0.0821  0.4972  0.2440
 5785SOL    HW117933   0.359   4.928   1.554 -0.4670 -0.2867  1.8026
 5785SOL    HW217934   0.380   4.780   1.577 -0.2065 -0.9192 -1.9647
 5786SOL     OW17935   0.532   7.410   6.304  0.5827  0.2922 -0.1365
 5786SOL    HW117936   0.581   7.477   6.256  1.6415 -0.9875 -0.9110
 5786SOL    HW217937   0.584   7.397   6.384  0.8129 -0.1519 -0.3559
 5787SOL     OW17938   2.047   7.371   0.359  0.4621  0.3728 -0.4084
 5787SOL    HW117939   1.972   7.314   0.375  1.0013  0.5325  3.6908
 5787SOL    HW217940   2.012   7.443   0.307 -0.9238 -1.9989 -3.0157
 5788SOL     OW17941   4.073   2.901   2.474  0.3056  0.1302 -0.9822
 5788SOL    HW117942   4.032   2.941   2.397  1.9264 -1.2584 -2.6576
 5788SOL    HW217943   4.127   2.830   2.438  0.8948 -0.7614  1.4829
 5789SOL     OW17944   4.592   9.036   6.483  0.7172  0.2061  0.1320
 5789SOL    HW117945   4.563   8.982   6.409 -0.9250  1.2512 -0.0513
 5789SOL    HW217946   4.621   9.118   6.442  0.4889  0.5161  0.5860
 5790SOL     OW17947   5.873   4.361   0.298  0.5130 -0.3568 -0.7894
 5790SOL    HW117948   5.850   4.402   0.215 -1.4236  0.7691  0.2047
 5790SOL    HW217949   5.805   4.295   0.311 -1.3769  1.8095  1.4095
 5791SOL     OW17950   4.559   0.662   0.999 -0.0538  0.3429  0.4382
 5791SOL    HW117951   4.547   0.571   1.027  0.1756 -0.6973 -2.5177
 5791SOL    HW217952   4.631   0.694   1.053  1.3750 -1.9828  0.0684
 5792SOL     OW17953   2.998   0.431   4.045 -0.8320  0.3929  0.3552
 5792SOL    HW117954   3.015   0.337   4.035 -0.4114  0.5291 -0.2565
 5792SOL    HW217955   2.913   0.436   4.089 -1.0459 -0.2704  0.0198
 5793SOL     OW17956   4.208   6.288   1.505 -0.1596  0.4024 -0.0127
 5793SOL    HW117957   4.130   6.282   1.450 -0.5206  0.8720  0.4546
 5793SOL    HW217958   4.260   6.211   1.480 -0.3915  0.5232 -0.8987
 5794SOL     OW17959   9.041   7.661   2.392 -0.1292 -0.5144  0.1597
 5794SOL    HW117960   9.071   7.597   2.328 -4.5461 -1.3610 -1.3626
 5794SOL    HW217961   9.049   7.745   2.347  3.2066 -0.1197  1.2164
 5795SOL     OW17962   3.889   3.277   8.001  0.3968 -0.2167 -0.8282
 5795SOL    HW117963   3.807   3.319   7.978 -0.2322 -1.5850 -1.2153
 5795SOL    HW217964   3.916   3.318   8.083 -0.4411  0.5462 -0.9236
 5796SOL     OW17965   8.328   5.458   7.257 -0.3803  0.2358 -0.6521
 5796SOL    HW117966   8.263   5.409   7.206 -0.8957  0.3113 -0.0855
 5796SOL    HW217967   8.326   5.417   7.343 -1.5147  1.8274  0.1220
 5797SOL     OW17968   7.115   4.909   2.651  0.1468 -0.1904 -0.3394
 5797SOL    HW117969   7.030   4.867   2.638  0.5236 -0.8201 -0.8511
 5797SOL    HW217970   7.166   4.846   2.702 -0.2615  0.9260  1.5496
 5798SOL     OW17971   0.055   5.903   8.444  0.4392  0.2836  0.3153
 5798SOL    HW117972   0.149   5.917   8.439  0.4735 -0.3031 -1.5578
 5798SOL    HW217973   0.038   5.879   8.535  1.8145  2.1584  1.1263
 5799SOL     OW17974   9.522   1.871   5.673 -0.7355 -0.2248  0.0911
 5799SOL    HW117975   9.435   1.879   5.713 -0.8483  0.6641 -0.3142
 5799SOL    HW217976   9.514   1.916   5.589 -0.5540 -2.2380 -1.0512
 5800SOL     OW17977   7.714   3.900   4.365 -0.4552 -0.0910  0.4939
 5800SOL    HW117978   7.799   3.942   4.378 -0.1124 -0.6290  0.0183
 5800SOL    HW217979   7.711   3.879   4.272 -0.8371 -0.6595  0.6294
 5801SOL     OW17980   8.705   4.448   8.513 -0.5205 -0.4985  0.8858
 5801SOL    HW117981   8.771   4.403   8.566 -0.8727 -1.0978  0.8215
 5801SOL    HW217982   8.654   4.498   8.577  0.7085  0.9251  0.8187
 5802SOL     OW17983   6.114   8.909   8.868  0.0275  0.0281  0.6489
 5802SOL    HW117984   6.129   9.003   8.863  0.2195 -0.0420 -0.2748
 5802SOL    HW217985   6.018   8.900   8.870 -0.1657  0.1646 -2.4875
 5803SOL     OW17986   7.493   1.747   5.913  0.3719  0.1728 -0.0918
 5803SOL    HW117987   7.511   1.805   5.986 -0.7625  1.3289 -0.6882
 5803SOL    HW217988   7.408   1.708   5.933  1.0723 -1.2557  0.2560
 5804SOL     OW17989   5.708   0.335   2.026 -0.0213 -0.9998  0.3864
 5804SOL    HW117990   5.637   0.355   2.086  0.5008  0.4114  0.5726
 5804SOL    HW217991   5.664   0.302   1.947 -0.7239 -2.5337  1.3638
 5805SOL     OW17992   2.584   1.895   3.824  0.2574  0.3646 -0.1463
 5805SOL    HW117993   2.575   1.819   3.881 -0.6011  1.1635  0.8238
 5805SOL    HW217994   2.678   1.903   3.808  0.3334 -1.0136 -0.4419
 5806SOL     OW17995   5.592   0.243   5.743 -0.6167  0.2170  0.0613
 5806SOL    HW117996   5.683   0.233   5.714 -1.0522  0.6974 -1.5753
 5806SOL    HW217997   5.579   0.338   5.747 -1.3399  0.1657 -0.7514
 5807SOL     OW17998   0.810   0.347   2.242 -0.2933  0.0690  0.3178
 5807SOL    HW117999   0.868   0.407   2.195  0.0859  0.2563  1.0061
 5807SOL    HW218000   0.866   0.271   2.263 -1.2597 -1.4850 -2.2864
 5808SOL     OW18001   2.963   4.452   4.709 -0.0679 -0.3719 -0.3917
 5808SOL    HW118002   3.014   4.397   4.769 -1.4706 -1.4189 -0.1018
 5808SOL    HW218003   2.989   4.542   4.731  2.3688 -0.8547 -0.9461
 5809SOL     OW18004   7.674   1.204   5.532 -0.5776 -0.5129 -0.2117
 5809SOL    HW118005   7.635   1.267   5.594 -1.1658 -1.1701  0.0973
 5809SOL    HW218006   7.652   1.118   5.568 -0.9903 -0.9047 -1.3773
 5810SOL     OW18007   4.591   2.066   0.231 -0.1108 -0.3222  0.2255
 5810SOL    HW118008   4.630   1.988   0.193  0.6691  0.8661 -1.5628
 5810SOL    HW218009   4.506   2.074   0.188 -0.0089  0.0281  0.0830
 5811SOL     OW18010   1.812   3.093   7.422  0.5835 -0.5291  0.2998
 5811SOL    HW118011   1.719   3.082   7.443  0.4212 -0.7595 -0.5244
 5811SOL    HW218012   1.831   3.184   7.445 -0.6202  0.4698 -2.3171
 5812SOL     OW18013   6.662   5.456   0.745  0.2115 -0.4373 -0.7429
 5812SOL    HW118014   6.726   5.510   0.792  1.2390 -0.2474 -2.2701
 5812SOL    HW218015   6.634   5.391   0.809  0.1973  0.8676  0.6520
 5813SOL     OW18016   3.177   6.989   7.453  0.0879 -0.3150  0.0326
 5813SOL    HW118017   3.250   6.981   7.392  0.8321 -0.9973  0.9953
 5813SOL    HW218018   3.126   7.063   7.419  1.2238  0.1832 -0.6394
 5814SOL     OW18019   3.051   8.160   3.093 -0.0901  0.0959 -0.4368
 5814SOL    HW118020   3.111   8.125   3.158 -0.4155  1.6433  0.7794
 5814SOL    HW218021   3.064   8.107   3.015  1.5757 -0.6978  0.3549
 5815SOL     OW18022   3.729   5.465   9.270 -0.2554  0.5217  0.3043
 5815SOL    HW118023   3.768   5.547   9.241 -0.7150  1.6431  2.6154
 5815SOL    HW218024   3.787   5.435   9.341  0.6546 -1.9026 -1.3424
 5816SOL     OW18025   1.878   0.227   7.839  0.1453 -0.4557 -0.6059
 5816SOL    HW118026   1.921   0.155   7.791  0.6601 -0.0526 -0.7568
 5816SOL    HW218027   1.805   0.185   7.884  0.0958 -0.9756 -1.1565
 5817SOL     OW18028   9.775   6.739   8.107 -0.4321 -0.4617 -0.1508
 5817SOL    HW118029   9.703   6.762   8.047 -0.5184  0.5490  0.3305
 5817SOL    HW218030   9.831   6.817   8.108  0.2879 -0.9721  0.0556
 5818SOL     OW18031   5.108   6.985   9.466  0.3114 -0.3102  0.2897
 5818SOL    HW118032   5.047   7.008   9.397  0.2169  0.0174  0.4829
 5818SOL    HW218033   5.174   7.055   9.465  0.7097 -0.6813  0.0534
 5819SOL     OW18034   1.409   3.269   7.911  0.4332  0.0743 -0.4798
 5819SOL    HW118035   1.412   3.355   7.953  0.4593 -0.2045  0.1007
 5819SOL    HW218036   1.404   3.207   7.984  0.6261 -0.4273 -0.8884
 5820SOL     OW18037   5.181   4.656   7.099  0.2028  0.4397 -0.1723
 5820SOL    HW118038   5.138   4.629   7.017 -1.6135 -2.4659  1.5713
 5820SOL    HW218039   5.207   4.747   7.083  2.3914 -0.7007 -4.8926
 5821SOL     OW18040   8.705   0.355   1.637 -0.5452  0.1425  0.2751
 5821SOL    HW118041   8.724   0.419   1.706  1.8695 -0.7625  0.5371
 5821SOL    HW218042   8.747   0.275   1.666 -1.7332 -1.0163 -1.0505
 5822SOL     OW18043   4.866   1.529   8.941  0.5769  0.1864 -0.0150
 5822SOL    HW118044   4.949   1.572   8.964  0.2827  0.8976 -0.2420
 5822SOL    HW218045   4.827   1.507   9.025  2.4090 -3.0648  0.1537
 5823SOL     OW18046   1.188   8.552   2.263 -0.4512 -0.1450 -0.0439
 5823SOL    HW118047   1.252   8.623   2.274  0.0585 -0.6775  0.4422
 5823SOL    HW218048   1.141   8.576   2.183 -0.1006  0.6027 -0.0418
 5824SOL     OW18049   6.948   5.518   1.820  0.0577 -0.0627 -0.2328
 5824SOL    HW118050   7.020   5.575   1.796 -0.8091 -0.0226 -3.2202
 5824SOL    HW218051   6.982   5.429   1.807  0.4178 -0.1494  1.2107
 5825SOL     OW18052   4.880   6.883   3.598 -0.1105  0.5009  0.3980
 5825SOL    HW118053   4.971   6.865   3.620  0.4324  0.6649 -1.5673
 5825SOL    HW218054   4.882   6.911   3.507 -2.1555  0.3558  0.2651
 5826SOL     OW18055   6.871   6.306   6.432  0.2653  0.5353 -0.0250
 5826SOL    HW118056   6.891   6.215   6.455 -0.5628  0.5378  0.7796
 5826SOL    HW218057   6.776   6.307   6.419  0.3719  1.1212 -0.8462
 5827SOL     OW18058   0.291   1.957   8.824 -0.3743 -0.0436  0.1204
 5827SOL    HW118059   0.258   2.003   8.901  0.5055 -0.1790  0.6010
 5827SOL    HW218060   0.374   2.000   8.804  0.3048 -1.1879  0.3786
 5828SOL     OW18061   3.775   3.453   8.580  0.0383  0.1002  0.6755
 5828SOL    HW118062   3.726   3.397   8.640  0.4327 -1.9382 -0.8145
 5828SOL    HW218063   3.866   3.448   8.610  0.2804 -1.1455 -0.2170
 5829SOL     OW18064   8.296   4.543   2.911  0.1574 -0.0469  0.0162
 5829SOL    HW118065   8.245   4.524   2.989 -0.5306  0.4955 -0.2918
 5829SOL    HW218066   8.244   4.508   2.839  0.4285  0.1219 -0.2633
 5830SOL     OW18067   4.381   9.747   1.390 -0.1394 -0.8103  0.7101
 5830SOL    HW118068   4.288   9.761   1.373  0.4095 -0.1760 -2.3732
 5830SOL    HW218069   4.425   9.812   1.336  2.1367 -2.3110  0.6298
 5831SOL     OW18070   0.810   7.628   2.698  0.6331  1.1257  0.0246
 5831SOL    HW118071   0.884   7.587   2.744  0.5347  0.2144 -0.5853
 5831SOL    HW218072   0.734   7.608   2.751  0.6187  0.6973 -0.1508
 5832SOL     OW18073   6.983   3.957   4.139  0.1341  0.2822 -0.4022
 5832SOL    HW118074   6.904   3.928   4.095 -0.2773 -0.8319  0.9956
 5832SOL    HW218075   7.050   3.895   4.111 -0.1548 -0.5000  0.5859
 5833SOL     OW18076   9.781   2.240   6.169  0.3175  0.0763  0.5773
 5833SOL    HW118077   9.864   2.213   6.208 -0.1363  0.3500  1.7861
 5833SOL    HW218078   9.720   2.244   6.243 -0.8669 -0.4804 -0.3338
 5834SOL     OW18079   3.205   9.579   9.554  0.0120  0.5372  0.1801
 5834SOL    HW118080   3.115   9.591   9.523  1.0430 -1.1235 -4.2330
 5834SOL    HW218081   3.233   9.666   9.581 -2.8027  1.0976  1.6798
 5835SOL     OW18082   9.146   0.091   4.016  0.0259 -0.1827  0.0726
 5835SOL    HW118083   9.138  -0.004   4.010  0.2720 -0.2675  1.0202
 5835SOL    HW218084   9.240   0.107   4.031  0.2309  0.2976 -1.4940
 5836SOL     OW18085   6.378   9.285   5.563  0.1782 -0.3948  0.0395
 5836SOL    HW118086   6.368   9.249   5.651  0.9608 -0.2039  0.2169
 5836SOL    HW218087   6.315   9.358   5.560 -0.6020 -1.0578  0.0657
 5837SOL     OW18088   5.730   9.224   8.540 -0.5910 -0.9432  0.4081
 5837SOL    HW118089   5.757   9.234   8.632  0.8932  0.4606 -0.1192
 5837SOL    HW218090   5.804   9.180   8.498 -0.0562  0.8175 -0.6097
 5838SOL     OW18091   4.535   0.166   9.506 -0.0449  0.0967 -0.0074
 5838SOL    HW118092   4.573   0.242   9.550 -0.4843  0.9214 -1.0335
 5838SOL    HW218093   4.479   0.126   9.572  1.6281 -0.4484  1.1540
 5839SOL     OW18094   6.215   3.640   3.207  0.3840  0.4324  0.4381
 5839SOL    HW118095   6.178   3.560   3.171  2.3385 -1.3775  2.2142
 5839SOL    HW218096   6.139   3.698   3.219 -1.1860 -1.3797 -0.2286
 5840SOL     OW18097   3.190   3.072   1.522  0.3221 -0.7284  0.3506
 5840SOL    HW118098   3.252   3.102   1.589  0.5227 -0.7380  0.1694
 5840SOL    HW218099   3.104   3.087   1.561  0.4308 -0.3783  0.4601
 5841SOL     OW18100   4.231   2.749   4.051 -0.1040  0.1166  0.0413
 5841SOL    HW118101   4.273   2.834   4.067  0.1075 -0.1589  0.9725
 5841SOL    HW218102   4.210   2.715   4.138  1.7760 -1.7654 -0.1528
 5842SOL     OW18103   3.221   9.917   5.476  0.2720 -0.8428  0.2285
 5842SOL    HW118104   3.302   9.872   5.452 -0.4265 -1.4086 -1.1595
 5842SOL    HW218105   3.194   9.873   5.557  0.3756 -1.9586 -0.3107
 5843SOL     OW18106   0.866   3.332   9.753 -0.1728 -0.0028  0.2428
 5843SOL    HW118107   0.848   3.320   9.659  1.3706  0.7896 -0.1865
 5843SOL    HW218108   0.944   3.280   9.769  0.5009  1.1077  0.7094
 5844SOL     OW18109   7.075   7.003   5.083 -0.7026  0.2690 -0.5135
 5844SOL    HW118110   7.164   7.038   5.087  0.4531 -2.3636 -0.9878
 5844SOL    HW218111   7.022   7.074   5.047  1.7891  0.9654 -3.1258
 5845SOL     OW18112   2.549   9.049   7.644  0.2512  0.0749  0.4083
 5845SOL    HW118113   2.581   8.994   7.716 -0.1530 -0.3359  0.2805
 5845SOL    HW218114   2.627   9.073   7.594  0.5386  0.3655  0.9826
 5846SOL     OW18115   6.620   8.002   9.461 -0.4168 -0.0543  0.3681
 5846SOL    HW118116   6.613   8.097   9.473  3.7728  0.2568  2.3516
 5846SOL    HW218117   6.594   7.965   9.545 -0.3826 -0.4915  0.1887
 5847SOL     OW18118   7.710   1.703   4.355 -0.6061  0.4610 -0.3303
 5847SOL    HW118119   7.753   1.787   4.345  0.0656  0.0523 -0.9917
 5847SOL    HW218120   7.616   1.723   4.351 -0.4636  1.2401  0.1320
 5848SOL     OW18121   9.285   5.400   3.689 -0.0488 -0.0139 -0.3353
 5848SOL    HW118122   9.245   5.440   3.766  2.3806 -1.1295  1.6535
 5848SOL    HW218123   9.236   5.319   3.675 -0.4756  0.1752  0.0756
 5849SOL     OW18124   1.607   6.229   9.621 -0.3521  0.3131 -0.3103
 5849SOL    HW118125   1.536   6.292   9.633  0.0369  1.1678 -2.1515
 5849SOL    HW218126   1.596   6.198   9.531  0.1220 -1.4711  0.1979
 5850SOL     OW18127   6.524   4.358   2.113 -0.1140  0.3373  0.3493
 5850SOL    HW118128   6.562   4.409   2.041  0.6529 -3.2832 -2.0903
 5850SOL    HW218129   6.438   4.332   2.082  0.4881 -1.8454  0.3627
 5851SOL     OW18130   7.407   3.904   0.206  0.8009  0.6106  0.6100
 5851SOL    HW118131   7.327   3.941   0.168  0.7046 -1.3061 -1.2626
 5851SOL    HW218132   7.377   3.858   0.284  0.3522  1.2269  0.8160
 5852SOL     OW18133   5.099   3.012   5.667  0.4696 -0.1482 -0.2860
 5852SOL    HW118134   5.081   3.093   5.620  1.2234  0.6930  0.8118
 5852SOL    HW218135   5.194   3.004   5.665  0.3833 -1.2299 -0.7153
 5853SOL     OW18136   5.345   9.624   1.928  0.1146  0.2639  0.4029
 5853SOL    HW118137   5.406   9.675   1.982  0.6735  1.2738 -1.1130
 5853SOL    HW218138   5.265   9.676   1.927  0.5424  0.9319 -0.7895
 5854SOL     OW18139   3.012   4.220   0.259 -0.3663  0.1018 -0.3152
 5854SOL    HW118140   3.036   4.299   0.307 -1.7000  0.3543 -0.0429
 5854SOL    HW218141   2.920   4.205   0.280 -0.8175 -0.1645 -2.2368
 5855SOL     OW18142   1.397   0.447   8.327  0.0482 -0.3349 -0.0201
 5855SOL    HW118143   1.464   0.446   8.258  0.0751 -0.4240  0.0068
 5855SOL    HW218144   1.349   0.365   8.314  0.1203 -0.4011  0.1329
 5856SOL     OW18145   5.797   9.215   8.806 -0.1504  0.1827 -0.0955
 5856SOL    HW118146   5.892   9.221   8.797 -0.3397  1.1914 -1.9634
 5856SOL    HW218147   5.774   9.288   8.864  0.0930  1.0952 -1.0974
 5857SOL     OW18148   7.294   1.782   8.566 -0.3164  0.3748  0.0291
 5857SOL    HW118149   7.326   1.766   8.655 -0.8943 -0.0212  0.1728
 5857SOL    HW218150   7.323   1.871   8.546 -0.3231  0.5329  0.6799
 5858SOL     OW18151   0.971   3.693   9.587 -0.3970  0.4111  0.2525
 5858SOL    HW118152   1.038   3.759   9.606  1.5955 -0.8944 -1.7320
 5858SOL    HW218153   0.908   3.738   9.532  0.1983  1.0335  0.0641
 5859SOL     OW18154   9.210   8.102   6.287  0.2867 -0.8876  0.0976
 5859SOL    HW118155   9.169   8.115   6.202 -2.1578 -1.9576  1.0183
 5859SOL    HW218156   9.197   8.185   6.333 -2.6385 -1.7378  1.0066
 5860SOL     OW18157   0.914   1.482   0.254  0.0451 -0.3048 -0.6860
 5860SOL    HW118158   0.876   1.393   0.252  0.5081 -0.5186 -0.1159
 5860SOL    HW218159   0.839   1.539   0.274 -0.7333 -0.2782 -3.2850
 5861SOL     OW18160   5.912   6.247   3.943 -0.3077  0.0244 -0.3233
 5861SOL    HW118161   5.854   6.313   3.982 -0.9769  0.3455 -1.7660
 5861SOL    HW218162   5.981   6.298   3.900  1.5526 -0.3773  2.0242
 5862SOL     OW18163   6.761   3.199   3.719 -0.1268 -0.5608  0.5707
 5862SOL    HW118164   6.732   3.281   3.679 -0.2462 -0.3854  1.0050
 5862SOL    HW218165   6.739   3.209   3.812  1.5304 -0.3335  0.9666
 5863SOL     OW18166   5.084   8.467   7.837  0.7430  0.1026  0.2169
 5863SOL    HW118167   4.991   8.446   7.849  0.7141  0.6106  0.9956
 5863SOL    HW218168   5.125   8.383   7.818  0.2125 -0.2210  0.4710
 5864SOL     OW18169   4.879   3.109   0.938 -0.5053  0.6470  0.4059
 5864SOL    HW118170   4.808   3.170   0.956 -2.5628 -1.6531  0.4562
 5864SOL    HW218171   4.895   3.066   1.022 -0.7098 -0.5325 -0.1555
 5865SOL     OW18172   8.489   7.542   1.580  0.5996  0.0334 -0.0353
 5865SOL    HW118173   8.397   7.569   1.583 -0.0559 -1.8238 -1.3257
 5865SOL    HW218174   8.527   7.592   1.508 -0.3469 -1.5658 -1.7536
 5866SOL     OW18175   5.151   3.979   7.152  0.0011  0.3136 -0.0300
 5866SOL    HW118176   5.118   3.923   7.222 -0.0422  0.1089 -0.2107
 5866SOL    HW218177   5.072   4.006   7.104 -0.0118  0.8527  0.2952
 5867SOL     OW18178   8.252   3.321   6.656  0.0562 -0.2179 -0.3711
 5867SOL    HW118179   8.310   3.271   6.715  0.0885  0.0963 -0.1338
 5867SOL    HW218180   8.192   3.367   6.715  1.2269  1.5444 -0.4647
 5868SOL     OW18181   3.022   3.629   0.567 -0.3987  0.1836 -0.1765
 5868SOL    HW118182   3.000   3.573   0.492 -1.3128 -0.4457  0.5452
 5868SOL    HW218183   3.077   3.698   0.530 -0.4182 -0.4040 -1.3361
 5869SOL     OW18184   6.265   3.969   0.393  0.4628  0.0104  0.4827
 5869SOL    HW118185   6.352   3.982   0.432  0.0029  1.5728  1.0582
 5869SOL    HW218186   6.272   3.885   0.346  1.9112 -0.4761  1.4975
 5870SOL     OW18187   4.935   8.718   4.633  0.7602 -0.1534  0.1988
 5870SOL    HW118188   4.899   8.712   4.721  1.0115  1.5183  0.4485
 5870SOL    HW218189   4.952   8.627   4.607  1.1290 -0.6385  2.0410
 5871SOL     OW18190   2.898   5.798   8.642 -0.2104  0.4588  0.4693
 5871SOL    HW118191   2.885   5.885   8.605 -0.4541  0.8073  1.3722
 5871SOL    HW218192   2.903   5.740   8.565 -1.5113  1.0599 -0.0993
 5872SOL     OW18193   5.337   1.916   7.317 -0.6068 -0.0570  0.4658
 5872SOL    HW118194   5.422   1.888   7.352  0.9589  1.2310 -2.0100
 5872SOL    HW218195   5.333   2.009   7.336 -1.3992 -0.0627  0.3680
 5873SOL     OW18196   5.352   1.522   3.854  0.2166 -0.4780  0.2130
 5873SOL    HW118197   5.375   1.481   3.771  1.6010  0.3288  0.1614
 5873SOL    HW218198   5.260   1.546   3.845  0.9361  1.7790 -2.0607
 5874SOL     OW18199   0.686   8.417   3.799  0.4210  0.3306  0.1435
 5874SOL    HW118200   0.752   8.423   3.868  0.7803 -0.5907 -0.0955
 5874SOL    HW218201   0.733   8.440   3.718  0.8431 -1.6310 -0.2257
 5875SOL     OW18202   7.954   6.365   1.280  0.1826 -0.1804 -0.0407
 5875SOL    HW118203   7.937   6.392   1.370  0.8415  0.8753 -0.2243
 5875SOL    HW218204   7.905   6.427   1.226 -0.0244 -0.6674 -0.4300
 5876SOL     OW18205   5.127   1.759   3.137 -0.0332 -0.7120 -0.0292
 5876SOL    HW118206   5.153   1.697   3.206  1.6717 -0.6754 -0.5938
 5876SOL    HW218207   5.190   1.744   3.067 -0.8277  0.3003 -0.9903
 5877SOL     OW18208   6.188   8.659   4.212  0.7278 -0.1780  0.1494
 5877SOL    HW118209   6.111   8.670   4.268  1.5722 -0.9411  1.5134
 5877SOL    HW218210   6.179   8.570   4.178  0.5766  0.0412 -0.3972
 5878SOL     OW18211   7.437   2.452   8.732  0.5610  0.0290  0.2427
 5878SOL    HW118212   7.445   2.357   8.726 -0.2696 -0.0968  0.9688
 5878SOL    HW218213   7.409   2.480   8.644  0.6127 -0.4148  0.0842
 5879SOL     OW18214   6.962   2.664   1.698  0.2807 -0.0783  0.4187
 5879SOL    HW118215   7.024   2.712   1.643  0.2609 -0.4048  0.1033
 5879SOL    HW218216   6.910   2.614   1.636  1.4727 -1.9072  0.8163
 5880SOL     OW18217   0.584   7.958   4.795  0.5527 -0.3733 -0.0915
 5880SOL    HW118218   0.593   7.971   4.889  3.1004 -1.3649 -0.1035
 5880SOL    HW218219   0.505   7.906   4.784 -0.0760  0.2227  1.4298
 5881SOL     OW18220   1.086   8.680   8.508  0.3945 -0.8330  0.2868
 5881SOL    HW118221   1.140   8.743   8.460 -2.6098  2.5755  0.8730
 5881SOL    HW218222   1.020   8.652   8.444 -0.7839  0.0070  1.0939
 5882SOL     OW18223   0.522   2.858   7.692  0.1091 -0.5509  0.0136
 5882SOL    HW118224   0.542   2.901   7.775 -0.2478  1.7905 -1.0285
 5882SOL    HW218225   0.443   2.903   7.660  0.1981 -1.4353 -1.5681
 5883SOL     OW18226   0.161   2.529   9.244 -0.1097  0.6087  0.0971
 5883SOL    HW118227   0.140   2.463   9.310 -1.0541  2.2187  1.4692
 5883SOL    HW218228   0.097   2.516   9.175 -1.1731  0.9336  0.9945
 5884SOL     OW18229   1.735   9.701   1.526  0.1889 -0.5583  0.5992
 5884SOL    HW118230   1.739   9.776   1.466 -0.5888 -1.4494 -0.6054
 5884SOL    HW218231   1.651   9.711   1.571 -0.4853 -1.3288 -0.4439
 5885SOL     OW18232   1.166   8.515   7.034  0.5423 -0.1722  0.0361
 5885SOL    HW118233   1.155   8.437   6.979  2.9620 -1.2792  0.9757
 5885SOL    HW218234   1.253   8.505   7.073  0.0257  1.9209  1.9438
 5886SOL     OW18235   4.955   1.632   5.171 -0.1181  0.7641 -0.4963
 5886SOL    HW118236   4.888   1.621   5.103  0.4960 -1.3796 -0.8203
 5886SOL    HW218237   4.910   1.610   5.252 -0.1452  0.6020 -0.5548
 5887SOL     OW18238   4.845   9.289   0.302 -0.1920 -0.2471  0.5006
 5887SOL    HW118239   4.867   9.334   0.220 -1.6819 -0.0856  0.1564
 5887SOL    HW218240   4.884   9.202   0.293  0.5354  0.1136  0.0636
 5888SOL     OW18241   8.824   9.344   1.195 -0.2111 -0.1246  0.0200
 5888SOL    HW118242   8.867   9.357   1.279  0.0886 -0.0403 -0.1451
 5888SOL    HW218243   8.734   9.321   1.218 -1.2108  3.5364  0.3348
 5889SOL     OW18244   7.121   5.949   5.960 -0.2181  0.8222  0.2727
 5889SOL    HW118245   7.103   5.872   5.906  1.6645 -0.2292  1.0583
 5889SOL    HW218246   7.061   5.942   6.033 -1.2185  1.0323 -0.5072
 5890SOL     OW18247   6.746   3.181   4.388 -0.2552 -0.1038  0.1972
 5890SOL    HW118248   6.653   3.199   4.403 -0.4493 -0.7526 -0.1841
 5890SOL    HW218249   6.788   3.267   4.392 -0.9419  0.2533 -0.1466
 5891SOL     OW18250   6.359   3.949   7.212 -0.2038  0.6421 -0.7939
 5891SOL    HW118251   6.417   3.967   7.138  0.9474  3.8762  0.7364
 5891SOL    HW218252   6.293   4.017   7.208 -0.8514  0.1117  0.4713
 5892SOL     OW18253   3.556   0.517   0.050 -0.6818 -0.0030 -0.8950
 5892SOL    HW118254   3.520   0.434   0.020 -0.3788 -1.3684  2.1170
 5892SOL    HW218255   3.649   0.498   0.064 -0.7375  0.6229  0.4222
 5893SOL     OW18256   8.171   0.967   1.759  0.4587 -0.2785 -0.4180
 5893SOL    HW118257   8.262   0.939   1.758  0.6513  0.2737  0.5716
 5893SOL    HW218258   8.137   0.934   1.843  0.4113  1.4805  0.3012
 5894SOL     OW18259   0.850   7.612   7.886  0.0693 -0.5748  0.1063
 5894SOL    HW118260   0.763   7.573   7.889 -0.1508 -0.4873 -2.5855
 5894SOL    HW218261   0.899   7.567   7.955 -2.5178  0.7110  3.0303
 5895SOL     OW18262   3.301   6.275   4.377  0.0036  0.3570  0.2287
 5895SOL    HW118263   3.348   6.235   4.450 -0.8315 -0.0945  0.5302
 5895SOL    HW218264   3.322   6.220   4.302 -0.7422 -0.3797  0.5421
 5896SOL     OW18265   3.869   8.978   4.741  0.3773  0.2597  0.2097
 5896SOL    HW118266   3.871   8.905   4.803  0.8797 -0.9660 -1.2012
 5896SOL    HW218267   3.782   9.016   4.752 -0.8162 -2.0173 -0.6432
 5897SOL     OW18268   0.860   3.043   2.030 -0.1685  0.0971  0.0081
 5897SOL    HW118269   0.924   3.061   1.961  1.3173 -0.3528  1.2294
 5897SOL    HW218270   0.779   3.026   1.983  1.1212 -1.6358 -1.7356
 5898SOL     OW18271   9.933   4.406   4.529  0.1915  0.2946 -0.1783
 5898SOL    HW118272   9.858   4.411   4.471  1.3533  0.4480 -1.7484
 5898SOL    HW218273   9.933   4.489   4.577 -0.8939  0.0797  0.2246
 5899SOL     OW18274   4.796   5.645   5.949  0.3672 -0.0729  0.2102
 5899SOL    HW118275   4.752   5.566   5.979 -2.5919  0.6885 -1.6592
 5899SOL    HW218276   4.819   5.626   5.858  1.8523  0.4296  0.4458
 5900SOL     OW18277   7.114   1.708   3.750  0.9310  0.2657  0.0281
 5900SOL    HW118278   7.104   1.748   3.664  2.3529  0.3530 -0.1313
 5900SOL    HW218279   7.110   1.780   3.812 -1.2140  0.0772  0.1553
 5901SOL     OW18280   3.503   0.291   3.635 -0.5868 -0.0805 -0.0727
 5901SOL    HW118281   3.516   0.261   3.545 -0.9548  1.8159 -0.8112
 5901SOL    HW218282   3.411   0.318   3.638 -0.1966  1.2876  0.4058
 5902SOL     OW18283   2.065   7.898   1.193 -0.0514 -0.1498 -0.0150
 5902SOL    HW118284   2.026   7.985   1.184  1.1606  0.4503  0.4105
 5902SOL    HW218285   1.996   7.846   1.234 -0.3182  0.9717  1.0128
 5903SOL     OW18286   4.421   9.021   4.777  0.0001 -0.2379  0.5047
 5903SOL    HW118287   4.507   9.060   4.794 -0.7584  1.1282  1.3343
 5903SOL    HW218288   4.358   9.087   4.805 -1.3937 -0.0273 -2.7128
 5904SOL     OW18289   1.247   3.358   1.366  0.2348 -0.8396 -0.0821
 5904SOL    HW118290   1.249   3.274   1.319 -1.1422 -2.2361  2.1267
 5904SOL    HW218291   1.162   3.358   1.411  0.0421  1.9556 -0.2856
 5905SOL     OW18292   3.850   5.127   9.761  0.4413 -0.2204  0.4309
 5905SOL    HW118293   3.926   5.075   9.734  0.3304 -0.1178 -0.0806
 5905SOL    HW218294   3.777   5.066   9.757  0.0611  0.2959 -1.5353
 5906SOL     OW18295   3.429   0.419   4.643  0.3565  0.2592  0.1891
 5906SOL    HW118296   3.366   0.479   4.604 -0.0488 -0.7371 -0.7240
 5906SOL    HW218297   3.493   0.402   4.574  0.5039 -0.3186  0.4620
 5907SOL     OW18298   6.642   0.731   2.582  0.5143  0.1050  0.2836
 5907SOL    HW118299   6.678   0.663   2.524 -1.1240 -1.8989  1.4815
 5907SOL    HW218300   6.719   0.780   2.612  1.5545  0.1199 -2.1903
 5908SOL     OW18301   8.707   5.863   5.020  0.4213 -0.1724  0.6482
 5908SOL    HW118302   8.628   5.869   5.074 -0.2128 -2.4363  0.0954
 5908SOL    HW218303   8.774   5.826   5.079 -0.0367 -1.8384  0.1866
 5909SOL     OW18304   9.918   3.169   0.724  0.4891 -0.1893  0.1996
 5909SOL    HW118305   9.831   3.181   0.761 -0.4578  1.1125 -2.2040
 5909SOL    HW218306   9.959   3.255   0.732  0.2329  0.1515 -1.6649
 5910SOL     OW18307   4.599   3.849   0.055  0.6131 -0.1242 -0.3118
 5910SOL    HW118308   4.527   3.905   0.082  1.1326  1.5041 -2.0425
 5910SOL    HW218309   4.646   3.828   0.136  0.9625  2.8122  0.3630
 5911SOL     OW18310   9.968   5.105   9.322 -0.1378  0.0991 -0.0418
 5911SOL    HW118311   9.942   5.195   9.341  1.4037  0.2173  1.7336
 5911SOL    HW218312   9.917   5.052   9.384  1.2983  0.0642  1.1689
 5912SOL     OW18313   6.116   0.740   3.511  0.1986 -0.0477 -0.5851
 5912SOL    HW118314   6.060   0.751   3.434 -0.5003  0.7657  0.0125
 5912SOL    HW218315   6.054   0.726   3.583  0.8336 -0.6063 -0.1388
 5913SOL     OW18316   9.157   8.281   6.846  0.0605 -0.6450  0.7310
 5913SOL    HW118317   9.145   8.366   6.803 -0.7837 -0.8746  0.4804
 5913SOL    HW218318   9.215   8.299   6.920  1.9522 -0.3163 -0.7405
 5914SOL     OW18319   6.584   5.460   8.421  0.2854  0.4722 -0.5597
 5914SOL    HW118320   6.637   5.495   8.492 -2.5973  2.8479  0.6542
 5914SOL    HW218321   6.576   5.532   8.359 -1.4891  0.2290 -0.6668
 5915SOL     OW18322   3.045   8.669   0.832 -0.4180 -0.1387  0.2966
 5915SOL    HW118323   3.030   8.707   0.745  0.9158 -0.8215 -0.2649
 5915SOL    HW218324   3.042   8.743   0.892  0.4122  0.6258 -0.5595
 5916SOL     OW18325   7.302   1.908   2.987  0.1214 -0.2281  0.6215
 5916SOL    HW118326   7.212   1.933   2.967 -0.2369 -0.8397  1.3803
 5916SOL    HW218327   7.301   1.812   2.987  0.5453 -0.2465  1.5358
 5917SOL     OW18328   7.777   3.895   6.652 -0.7278 -0.5999 -0.1288
 5917SOL    HW118329   7.824   3.915   6.570 -1.2216  1.0641 -0.0525
 5917SOL    HW218330   7.766   3.981   6.694 -1.9714 -1.2205  0.8659
 5918SOL     OW18331   2.656   6.132   2.798 -0.1874 -0.2240 -0.3952
 5918SOL    HW118332   2.611   6.081   2.866  1.1240  0.5234  1.0955
 5918SOL    HW218333   2.586   6.182   2.756 -0.7795  1.5090  2.3802
 5919SOL     OW18334   4.355   7.429   9.516  0.1566  0.2436  0.2348
 5919SOL    HW118335   4.363   7.394   9.427  1.6668 -0.4091  0.5762
 5919SOL    HW218336   4.281   7.382   9.554 -1.8296  2.0020 -1.2815
 5920SOL     OW18337   3.190   4.349   9.696 -0.2600  0.0102 -0.1047
 5920SOL    HW118338   3.265   4.386   9.648 -1.3135  0.8066 -1.1996
 5920SOL    HW218339   3.221   4.342   9.786  1.0942  0.4397 -0.4996
 5921SOL     OW18340   5.999   7.904   4.352  0.0555  0.1092  0.2390
 5921SOL    HW118341   6.075   7.927   4.298 -0.8613  0.4832 -0.9488
 5921SOL    HW218342   5.951   7.841   4.298  0.1041 -1.0127  1.4697
 5922SOL     OW18343   4.160   3.094   7.713  0.0612 -0.7902  0.1624
 5922SOL    HW118344   4.120   3.173   7.750 -1.1435 -1.3522  0.1377
 5922SOL    HW218345   4.085   3.042   7.683  0.8984 -1.2823 -1.1779
 5923SOL     OW18346   6.344   0.873   7.933 -0.0979  0.1058 -0.4824
 5923SOL    HW118347   6.398   0.804   7.971  0.4001  1.3498  1.1823
 5923SOL    HW218348   6.268   0.880   7.990 -0.0512  1.0408 -0.5100
 5924SOL     OW18349   5.027   7.559   8.942  0.1809 -0.2357 -0.8745
 5924SOL    HW118350   5.027   7.651   8.915  2.1246 -0.2215 -0.9687
 5924SOL    HW218351   5.111   7.525   8.912 -0.0057 -1.7450  0.1890
 5925SOL     OW18352   3.596   9.042   4.040 -0.1253 -0.1880 -0.3851
 5925SOL    HW118353   3.511   9.004   4.062 -0.6562  1.7688  1.2412
 5925SOL    HW218354   3.589   9.064   3.947 -2.3087  1.9301  0.1855
 5926SOL     OW18355   2.127   0.315   0.899  0.1647  0.4932  0.1277
 5926SOL    HW118356   2.088   0.235   0.865  1.2527  0.5582 -1.3731
 5926SOL    HW218357   2.217   0.290   0.923  0.5132  1.2420 -0.3530
 5927SOL     OW18358   9.377   7.449   0.243  0.4230 -0.6198  0.3112
 5927SOL    HW118359   9.365   7.375   0.184 -0.2750 -2.8024  2.9820
 5927SOL    HW218360   9.467   7.477   0.229 -0.4011  0.7976 -3.5755
 5928SOL     OW18361   9.533   5.453   4.823  0.7963 -0.5388  0.0376
 5928SOL    HW118362   9.583   5.441   4.743 -1.2155 -0.9092 -1.2358
 5928SOL    HW218363   9.471   5.523   4.802  0.2660 -0.6028  1.2943
 5929SOL     OW18364   6.477   2.900   4.061 -0.3197  0.8261 -0.1572
 5929SOL    HW118365   6.440   2.814   4.043 -0.2441  0.6224  0.6037
 5929SOL    HW218366   6.459   2.915   4.154  0.2798  1.3220 -0.1120
 5930SOL     OW18367   6.844   0.353   8.052  0.2043 -0.5836 -0.3183
 5930SOL    HW118368   6.893   0.325   7.975  0.3568 -0.6117 -0.2109
 5930SOL    HW218369   6.852   0.449   8.053  1.3623 -0.6613  0.4261
 5931SOL     OW18370   8.858   6.186   1.473  0.3801  0.2542 -0.0408
 5931SOL    HW118371   8.795   6.122   1.440 -0.4782  0.9535  0.1947
 5931SOL    HW218372   8.858   6.255   1.406 -0.7664  1.2979  0.9856
 5932SOL     OW18373   9.812   4.727   6.106  0.7870 -0.2182  1.3216
 5932SOL    HW118374   9.862   4.808   6.110  2.6362 -1.1156 -1.2646
 5932SOL    HW218375   9.863   4.669   6.050 -1.8180 -2.2252  0.8020
 5933SOL     OW18376   6.447   5.844   1.703 -0.0185  0.5027  0.2408
 5933SOL    HW118377   6.509   5.913   1.726  0.2184 -0.3357  2.3321
 5933SOL    HW218378   6.496   5.786   1.644  0.2929  1.2783 -0.2667
 5934SOL     OW18379   8.136   7.310   6.375  0.2189  0.2484 -0.2427
 5934SOL    HW118380   8.221   7.294   6.416 -0.1347  0.3202  0.5385
 5934SOL    HW218381   8.154   7.377   6.309  0.7728  0.2535 -0.0954
 5935SOL     OW18382   8.506   0.636   1.564 -0.0522 -0.5191 -0.0411
 5935SOL    HW118383   8.501   0.629   1.659  2.2442 -1.3359  0.0901
 5935SOL    HW218384   8.457   0.561   1.531  0.9351 -1.4639  0.5900
 5936SOL     OW18385   4.069   3.700   9.753  0.0007  0.7102 -0.7577
 5936SOL    HW118386   3.985   3.711   9.798 -0.1112 -1.0779 -0.4769
 5936SOL    HW218387   4.046   3.663   9.668  0.5173 -0.5129 -0.3892
 5937SOL     OW18388   1.581   2.733   8.652 -0.1149 -0.1049 -0.1984
 5937SOL    HW118389   1.626   2.744   8.569  0.8686 -1.6637  0.0839
 5937SOL    HW218390   1.624   2.795   8.711 -0.9654  1.1641 -0.8811
 5938SOL     OW18391   6.648   1.263   3.251 -0.3150 -0.6158  0.3032
 5938SOL    HW118392   6.711   1.201   3.213 -0.7848 -0.2073 -1.2283
 5938SOL    HW218393   6.586   1.280   3.180  1.3952  3.8516 -0.4517
 5939SOL     OW18394   8.282   6.920   8.881  0.3014  0.0969  0.4494
 5939SOL    HW118395   8.307   6.827   8.883  0.2780  0.0476 -0.9274
 5939SOL    HW218396   8.187   6.919   8.888  0.2391 -0.0294 -0.3759
 5940SOL     OW18397   2.859   1.462   9.801  0.2848  0.1159 -0.3529
 5940SOL    HW118398   2.810   1.538   9.769  1.0882  1.5731  1.6769
 5940SOL    HW218399   2.950   1.491   9.805  0.6453 -1.0309  0.2305
 5941SOL     OW18400   6.539   8.503   8.191  0.1896 -0.0711 -0.0443
 5941SOL    HW118401   6.489   8.428   8.225 -0.0900  0.2799  0.3227
 5941SOL    HW218402   6.626   8.493   8.229  0.4916 -0.8233 -0.8840
 5942SOL     OW18403   4.707   2.990   3.910 -0.1044 -0.4026  0.0457
 5942SOL    HW118404   4.763   3.041   3.969  1.3812 -0.4977 -1.2085
 5942SOL    HW218405   4.703   3.041   3.830 -0.2864 -1.2888 -0.5294
 5943SOL     OW18406   6.350   3.742   5.583  0.2234 -0.1277 -0.3456
 5943SOL    HW118407   6.406   3.722   5.509 -0.0282  0.0977 -0.6026
 5943SOL    HW218408   6.325   3.834   5.569  0.5307  0.0502  0.2538
 5944SOL     OW18409   1.833   8.559   3.485  0.7439  0.4695 -0.2418
 5944SOL    HW118410   1.848   8.471   3.520  0.4142  0.3748 -0.3315
 5944SOL    HW218411   1.836   8.548   3.390 -0.4322  0.3373 -0.2814
 5945SOL     OW18412   1.847   4.915   5.855  0.2093 -0.0719 -0.7045
 5945SOL    HW118413   1.890   5.000   5.862  2.2910 -1.1367  0.8935
 5945SOL    HW218414   1.902   4.866   5.793 -1.1858 -0.1681 -1.9111
 5946SOL     OW18415   1.109   5.495   8.543 -0.3687  0.3132  0.7319
 5946SOL    HW118416   1.186   5.516   8.596  1.6179 -1.6365 -1.1027
 5946SOL    HW218417   1.116   5.400   8.529 -1.9633  0.4196 -1.1903
 5947SOL     OW18418   3.666   1.668   8.320 -0.2486 -0.6798  0.0449
 5947SOL    HW118419   3.694   1.638   8.233  1.0215 -0.1464  0.2554
 5947SOL    HW218420   3.593   1.727   8.302  1.8917  1.8613 -0.9584
 5948SOL     OW18421   7.804   6.231   5.591 -0.9526 -0.1025  0.4635
 5948SOL    HW118422   7.804   6.140   5.561 -0.6676  0.6606 -2.0959
 5948SOL    HW218423   7.896   6.249   5.610 -0.7825  0.0471 -0.4512
 5949SOL     OW18424   3.810   8.121   7.058 -0.7500  0.0501  0.5011
 5949SOL    HW118425   3.899   8.118   7.094 -0.9165  1.6267  1.0895
 5949SOL    HW218426   3.817   8.073   6.975  1.2633  2.1908 -0.6995
 5950SOL     OW18427   5.334   6.641   0.527 -0.6838 -0.1817 -0.2782
 5950SOL    HW118428   5.419   6.616   0.491 -1.0925 -1.8942 -0.1669
 5950SOL    HW218429   5.334   6.606   0.617 -1.4602 -0.1400 -0.2485
 5951SOL     OW18430   4.216   1.308   2.590 -0.3694 -0.1874  0.0291
 5951SOL    HW118431   4.180   1.290   2.503  1.0999  0.3577 -0.7264
 5951SOL    HW218432   4.171   1.246   2.648 -1.3723 -0.5588 -1.1113
 5952SOL     OW18433   8.961   8.165   3.184 -0.0600 -0.0349 -0.3344
 5952SOL    HW118434   9.046   8.173   3.228  0.4891  1.6350 -1.5634
 5952SOL    HW218435   8.896   8.177   3.253  0.7400  0.5852  0.3239
 5953SOL     OW18436   3.627   7.926   9.538 -0.0892  0.4116 -0.0673
 5953SOL    HW118437   3.655   7.886   9.621  0.0805 -0.8229 -0.7061
 5953SOL    HW218438   3.695   7.901   9.476 -1.0522 -0.0485 -0.9498
 5954SOL     OW18439   0.191   9.005   5.667  0.0210  0.2380  0.1538
 5954SOL    HW118440   0.271   9.057   5.662  0.3805 -0.4111 -1.5384
 5954SOL    HW218441   0.164   9.011   5.759  0.9569  2.0201  0.3546
 5955SOL     OW18442   4.401   9.299   8.458 -0.1926  0.2853 -0.8219
 5955SOL    HW118443   4.382   9.392   8.445 -1.9670 -0.1472 -1.5291
 5955SOL    HW218444   4.361   9.255   8.383 -1.8564 -1.3275  0.9112
 5956SOL     OW18445   2.215   6.622   9.324 -0.1054  0.2989 -0.4189
 5956SOL    HW118446   2.217   6.541   9.273  0.1155  1.1022 -1.7248
 5956SOL    HW218447   2.162   6.682   9.271 -1.0761  0.7306  0.9936
 5957SOL     OW18448   5.696   2.449   4.213 -0.0650  0.1324 -0.6229
 5957SOL    HW118449   5.619   2.485   4.257  2.4953  2.7638  2.1751
 5957SOL    HW218450   5.703   2.501   4.133 -0.5214  0.7899 -0.2575
 5958SOL     OW18451   7.266   5.658   0.113  0.5054  0.3982 -0.1347
 5958SOL    HW118452   7.301   5.714   0.043  0.3312 -1.3405 -1.6995
 5958SOL    HW218453   7.340   5.601   0.137  0.7147  1.3056  1.5137
 5959SOL     OW18454   2.921   7.230   0.747 -0.0215  0.2059  0.3365
 5959SOL    HW118455   3.004   7.218   0.793  0.3421 -0.0691 -0.3607
 5959SOL    HW218456   2.860   7.169   0.789  0.0662  0.5665  0.9952
 5960SOL     OW18457   7.538   3.881   9.825 -0.3254 -0.2854  0.5148
 5960SOL    HW118458   7.457   3.922   9.855 -0.3236 -0.0920  0.2558
 5960SOL    HW218459   7.510   3.817   9.760 -0.2598 -0.1127  0.3149
 5961SOL     OW18460   9.688   9.994   9.865 -0.2498  0.0698  0.7017
 5961SOL    HW118461   9.724   9.910   9.835 -1.8926 -0.7509  0.9240
 5961SOL    HW218462   9.647   9.974   9.949 -0.1449  1.2438  1.0469
 5962SOL     OW18463   0.709   6.313   6.914 -0.0622  0.3178  0.1306
 5962SOL    HW118464   0.680   6.231   6.873  0.2153  1.1183 -1.7806
 5962SOL    HW218465   0.785   6.340   6.862  0.7707  1.0475  1.6529
 5963SOL     OW18466   0.864   7.192   2.138  0.3024 -0.3870  0.6556
 5963SOL    HW118467   0.796   7.258   2.151  1.6170  0.7916  1.9871
 5963SOL    HW218468   0.853   7.163   2.047  0.0754  2.1870 -0.2118
 5964SOL     OW18469   8.773   8.912   7.207  0.3495  0.1089  0.2155
 5964SOL    HW118470   8.755   8.871   7.292 -2.3101 -0.9763 -0.7613
 5964SOL    HW218471   8.749   8.846   7.143  0.9515  1.3986 -1.4181
 5965SOL     OW18472   8.816   7.965   6.373  0.0871 -0.0682 -0.2375
 5965SOL    HW118473   8.826   7.872   6.356  0.8562 -0.2236  0.9466
 5965SOL    HW218474   8.721   7.979   6.378 -0.0392 -0.7147 -0.7805
 5966SOL     OW18475   0.313   0.968   0.497 -0.5870 -0.1962 -0.4604
 5966SOL    HW118476   0.380   0.910   0.461  0.2647  0.4945 -0.0563
 5966SOL    HW218477   0.238   0.911   0.515 -0.2861 -0.9000 -1.3772
 5967SOL     OW18478   0.267   9.471   4.316  0.9715 -0.0529  0.0507
 5967SOL    HW118479   0.187   9.473   4.368 -0.4725 -1.3229 -1.9585
 5967SOL    HW218480   0.248   9.524   4.239  2.4555  0.4694  0.0074
 5968SOL     OW18481   1.886   8.616   2.804 -0.3769 -0.3879  0.1523
 5968SOL    HW118482   1.895   8.644   2.896  0.7097  1.5698 -0.4837
 5968SOL    HW218483   1.960   8.558   2.789  0.0560  0.1427  0.2268
 5969SOL     OW18484   5.965   3.271   3.280  0.8811 -0.2110  0.4808
 5969SOL    HW118485   5.869   3.271   3.269  1.0907 -0.3544 -1.7590
 5969SOL    HW218486   5.987   3.179   3.295  0.7867 -0.3953 -0.4540
 5970SOL     OW18487   1.686   6.564   6.624  0.5159 -0.3019 -0.3365
 5970SOL    HW118488   1.642   6.549   6.708  1.0275 -0.7835 -0.1499
 5970SOL    HW218489   1.754   6.497   6.621  1.2216  0.4186 -0.6352
 5971SOL     OW18490   8.637   5.522   6.736 -0.1965 -0.1393  0.1534
 5971SOL    HW118491   8.686   5.539   6.656 -0.5351 -2.2300 -0.5635
 5971SOL    HW218492   8.671   5.438   6.767 -1.9312 -0.6604  0.7365
 5972SOL     OW18493   2.801   3.479   9.613  0.6444  0.1129  0.2503
 5972SOL    HW118494   2.769   3.518   9.532 -0.6727  0.4574  0.9135
 5972SOL    HW218495   2.722   3.459   9.664  1.3930 -1.0981  0.9989
 5973SOL     OW18496   5.267   6.645   4.289  0.3116  0.3991 -0.3671
 5973SOL    HW118497   5.254   6.726   4.338 -1.3810  0.4575 -0.8493
 5973SOL    HW218498   5.262   6.576   4.354  2.1663  0.6727  0.1103
 5974SOL     OW18499   5.448   2.702   1.305  0.5536 -0.1456  0.6678
 5974SOL    HW118500   5.500   2.649   1.243  0.6213  0.3435  0.3016
 5974SOL    HW218501   5.511   2.761   1.344  0.5030 -0.4342  1.1915
 5975SOL     OW18502   6.919   8.676   8.507 -0.6406 -0.0300  0.2459
 5975SOL    HW118503   7.001   8.687   8.458 -0.9275  1.5044  0.0534
 5975SOL    HW218504   6.942   8.622   8.582  0.4940  0.1413  0.0360
 5976SOL     OW18505   5.846   5.725   3.219  0.6276 -0.5179 -0.1774
 5976SOL    HW118506   5.880   5.789   3.281  2.0070 -1.5236  0.1393
 5976SOL    HW218507   5.753   5.749   3.209  0.6384  0.3322  1.4124
 5977SOL     OW18508   2.279   8.800   4.489 -0.1110  0.3655  0.0994
 5977SOL    HW118509   2.358   8.854   4.490  0.4789 -0.4348 -0.9101
 5977SOL    HW218510   2.221   8.843   4.426 -0.5583  1.0283  0.9397
 5978SOL     OW18511   7.478   2.786   6.786  0.5528 -0.0362 -0.3001
 5978SOL    HW118512   7.510   2.713   6.733  2.7150  0.5021  0.1708
 5978SOL    HW218513   7.549   2.803   6.848 -0.0648  2.2006 -0.1468
 5979SOL     OW18514   5.212   3.640   6.719 -0.3655 -0.0861 -0.3471
 5979SOL    HW118515   5.229   3.710   6.781 -1.2512 -0.2218  0.0648
 5979SOL    HW218516   5.281   3.575   6.735  0.7902  0.9146 -1.1094
 5980SOL     OW18517   8.658   3.608   6.186 -0.1960 -0.0864 -0.2565
 5980SOL    HW118518   8.660   3.512   6.197  3.3059 -0.2056 -0.8796
 5980SOL    HW218519   8.725   3.626   6.120 -1.5284  2.7757 -0.9784
 5981SOL     OW18520   6.667   4.186   7.373  0.0646 -0.9660 -0.2380
 5981SOL    HW118521   6.732   4.229   7.430 -0.5242  0.0823 -0.3240
 5981SOL    HW218522   6.583   4.225   7.399 -0.2006 -0.2790 -1.9465
 5982SOL     OW18523   4.566   9.927   9.321 -0.2570 -0.4531  0.5845
 5982SOL    HW118524   4.658   9.913   9.297 -0.1016  0.8450  0.3666
 5982SOL    HW218525   4.567  10.004   9.377 -1.3968  0.6511 -0.8463
 5983SOL     OW18526   5.372   0.453   4.034 -0.1531 -0.4205  0.3813
 5983SOL    HW118527   5.463   0.460   4.064 -0.1697 -1.1266  0.6142
 5983SOL    HW218528   5.374   0.486   3.944  0.2166  0.1437  0.5921
 5984SOL     OW18529   7.733   9.317   1.834  0.2426  0.1223 -0.2345
 5984SOL    HW118530   7.641   9.329   1.861  0.7843  1.4914  1.1957
 5984SOL    HW218531   7.783   9.331   1.915  1.6596 -2.1671 -0.6292
 5985SOL     OW18532   4.434   7.224   8.343  0.1891 -0.5866 -0.1939
 5985SOL    HW118533   4.352   7.274   8.351  0.4052 -0.3146  0.4035
 5985SOL    HW218534   4.410   7.135   8.369  0.4938 -0.0838  2.0894
 5986SOL     OW18535   9.349   6.923   3.783 -0.1800  0.4248 -0.3640
 5986SOL    HW118536   9.407   6.904   3.708 -1.0464 -1.8321 -0.5371
 5986SOL    HW218537   9.394   6.883   3.858 -1.4086 -1.3234 -0.4956
 5987SOL     OW18538   5.660   7.156   2.114 -0.0196 -0.5486 -0.1613
 5987SOL    HW118539   5.618   7.164   2.200 -1.3828  1.1367 -0.9020
 5987SOL    HW218540   5.746   7.197   2.126 -0.0500 -0.6548  0.4840
 5988SOL     OW18541   7.113   2.171   0.975  0.3193  0.4303 -0.3843
 5988SOL    HW118542   7.061   2.226   1.033  3.7660  2.4032  1.1405
 5988SOL    HW218543   7.138   2.228   0.903 -0.2486 -0.7222 -1.5369
 5989SOL     OW18544   0.804   7.671   6.827 -0.1795 -0.5577  0.4340
 5989SOL    HW118545   0.776   7.721   6.750 -1.0096  1.5434  1.9892
 5989SOL    HW218546   0.727   7.622   6.852  0.2121 -1.5616 -0.2685
 5990SOL     OW18547   2.494   8.194   9.834  0.2603  0.1473  0.2963
 5990SOL    HW118548   2.422   8.147   9.793 -0.8688  0.4249  1.8867
 5990SOL    HW218549   2.496   8.161   9.924  0.7740  1.6442  0.8543
 5991SOL     OW18550   9.815   9.046   4.552 -0.6462 -0.7094  0.0380
 5991SOL    HW118551   9.812   9.120   4.613  1.6845  0.9684 -1.7074
 5991SOL    HW218552   9.741   9.060   4.493  0.7458  1.3699 -1.3617
 5992SOL     OW18553   7.112   9.307   1.871  0.2574 -0.1558  0.4132
 5992SOL    HW118554   7.134   9.323   1.963  0.4498 -1.7526  0.6713
 5992SOL    HW218555   7.018   9.320   1.867  0.4231  1.3004  0.5016
 5993SOL     OW18556   3.884   3.683   5.606 -0.2198  0.2147  0.0805
 5993SOL    HW118557   3.824   3.737   5.554  0.5143  1.1107  0.1469
 5993SOL    HW218558   3.920   3.621   5.543  0.1726  0.8699 -0.3545
 5994SOL     OW18559   2.713   9.796   9.525 -0.3563 -0.3985  0.1757
 5994SOL    HW118560   2.667   9.837   9.452 -2.6328  1.1508  2.3177
 5994SOL    HW218561   2.707   9.859   9.596  1.1361 -2.1282  1.9607
 5995SOL     OW18562   2.770   8.237   6.502  0.1584  0.5085  0.1327
 5995SOL    HW118563   2.735   8.190   6.426  0.7222 -0.3465  0.3890
 5995SOL    HW218564   2.864   8.218   6.501 -0.1088 -1.4396  2.2982
 5996SOL     OW18565   9.361   9.083   8.387  0.1526 -0.0535 -0.0124
 5996SOL    HW118566   9.411   9.029   8.447  1.9688  1.1468 -0.3392
 5996SOL    HW218567   9.312   9.021   8.333  0.4529 -1.2371  1.0311
 5997SOL     OW18568   9.220   4.723   7.194  0.4071  0.2427  0.2456
 5997SOL    HW118569   9.142   4.746   7.245 -0.3634  1.6494 -1.4578
 5997SOL    HW218570   9.289   4.778   7.230  0.2202  0.2002  0.6792
 5998SOL     OW18571   6.260   7.517   7.538  0.7574 -0.0445 -0.0100
 5998SOL    HW118572   6.328   7.579   7.567 -0.4079  1.0313  0.5541
 5998SOL    HW218573   6.191   7.573   7.501 -0.8155 -0.8711  1.4984
 5999SOL     OW18574   2.397   7.978   0.882 -0.0256 -0.1740  0.2931
 5999SOL    HW118575   2.384   8.035   0.806 -2.4280 -0.5892  0.3140
 5999SOL    HW218576   2.455   7.909   0.851  0.6098  0.7212 -0.5666
 6000SOL     OW18577   8.349   2.427   0.764 -0.1628 -0.4617  0.3231
 6000SOL    HW118578   8.255   2.432   0.746 -0.3527  1.2352  1.4668
 6000SOL    HW218579   8.356   2.375   0.844 -0.1163 -0.6754  0.1806
 6001SOL     OW18580   2.374   9.242   3.022 -0.3165  0.4135  0.4242
 6001SOL    HW118581   2.447   9.192   2.984 -1.8846 -0.1299 -2.1255
 6001SOL    HW218582   2.394   9.333   2.999 -0.0374  0.3574  0.4422
 6002SOL     OW18583   2.326   7.364   2.243 -0.1337 -0.3762 -0.4398
 6002SOL    HW118584   2.293   7.311   2.171 -1.0286  0.6214 -0.7834
 6002SOL    HW218585   2.397   7.311   2.280 -0.4467 -1.4372 -1.2803
 6003SOL     OW18586   4.334   3.240   3.817  0.0922 -0.5393  0.1851
 6003SOL    HW118587   4.266   3.301   3.846  0.3682  0.2398 -0.7613
 6003SOL    HW218588   4.362   3.274   3.732  0.1909 -2.0475 -0.4200
 6004SOL     OW18589   2.450   7.350   7.193  0.2102  0.4545  0.1505
 6004SOL    HW118590   2.532   7.398   7.203 -0.2943  1.0894  1.4502
 6004SOL    HW218591   2.382   7.414   7.215 -0.6944  0.1031 -1.4282
 6005SOL     OW18592   0.325   1.895   7.599  0.1774  0.2015  0.0866
 6005SOL    HW118593   0.335   1.967   7.537  0.9127  2.0248  2.2369
 6005SOL    HW218594   0.307   1.937   7.683 -0.5928 -2.1799  1.2030
 6006SOL     OW18595   2.069   8.760   7.763 -0.7293  0.3019  0.0916
 6006SOL    HW118596   2.032   8.809   7.837 -1.5728  1.3614 -0.9790
 6006SOL    HW218597   2.079   8.826   7.694  0.3911 -0.5843 -0.6289
 6007SOL     OW18598   6.630   0.273   5.777  0.2853  0.0661 -0.0552
 6007SOL    HW118599   6.688   0.264   5.702 -1.0948 -0.1201 -1.1511
 6007SOL    HW218600   6.647   0.360   5.812  1.4396 -0.1192 -0.1430
 6008SOL     OW18601   9.041   0.479   2.455 -0.4690 -0.1618  0.1195
 6008SOL    HW118602   9.073   0.395   2.489  1.8431  0.5486 -0.0985
 6008SOL    HW218603   9.060   0.542   2.526 -2.2602  0.1978  0.3224
 6009SOL     OW18604   0.777   8.897   4.904 -0.2214 -0.3631 -0.1257
 6009SOL    HW118605   0.795   8.990   4.918  1.7383 -0.7882  0.5160
 6009SOL    HW218606   0.708   8.876   4.967 -1.8668  0.9679 -1.3922
 6010SOL     OW18607   4.203   2.943   6.060  0.5685  0.4204  0.0204
 6010SOL    HW118608   4.120   2.896   6.073  1.0619 -0.7100 -0.8173
 6010SOL    HW218609   4.180   3.035   6.072 -1.1376  0.2697 -1.6857
 6011SOL     OW18610   0.069   2.720   8.809  0.3903 -0.3529  0.0093
 6011SOL    HW118611  -0.014   2.705   8.764  0.4736 -1.7560  0.2798
 6011SOL    HW218612   0.111   2.790   8.759 -1.6883  1.7018  0.9030
 6012SOL     OW18613   7.766   3.507   4.394  0.0198  0.4015  0.5268
 6012SOL    HW118614   7.825   3.582   4.400  0.0912  0.3561  0.3703
 6012SOL    HW218615   7.807   3.441   4.450  0.6687 -0.0039 -0.4093
 6013SOL     OW18616   4.284   1.609  -0.008  0.6616  0.3610  0.0374
 6013SOL    HW118617   4.203   1.629   0.039  0.3421 -0.3849 -0.1869
 6013SOL    HW218618   4.354   1.641   0.050  0.2112  1.0652  0.2027
 6014SOL     OW18619   0.836   8.152   3.567 -0.1728 -0.3318  0.1252
 6014SOL    HW118620   0.766   8.100   3.528 -0.8407 -0.5243  1.5161
 6014SOL    HW218621   0.845   8.228   3.510 -0.6223 -0.9521 -0.7809
 6015SOL     OW18622   7.501   5.682   9.686 -0.5211  0.8251  0.4455
 6015SOL    HW118623   7.571   5.622   9.711  0.1120  1.7884  1.0623
 6015SOL    HW218624   7.531   5.721   9.604 -0.2275  1.3655  0.7979
 6016SOL     OW18625   8.346   3.325   8.079  0.7010  0.1837 -0.2763
 6016SOL    HW118626   8.327   3.231   8.074 -0.8309  0.2913  2.1469
 6016SOL    HW218627   8.265   3.365   8.110  1.6204  2.2062 -0.3174
 6017SOL     OW18628   6.272   0.270   4.728  0.6893 -0.3713 -0.1912
 6017SOL    HW118629   6.285   0.344   4.787  0.7457 -0.9168  0.4927
 6017SOL    HW218630   6.361   0.237   4.710  0.5504 -1.8283  1.5465
 6018SOL     OW18631   0.616   3.715   2.508 -0.1594 -0.4381  0.0500
 6018SOL    HW118632   0.689   3.666   2.547 -0.0097  1.1961  1.9780
 6018SOL    HW218633   0.600   3.787   2.569 -1.3612  1.0539 -1.9006
 6019SOL     OW18634   8.255   8.436   6.128 -0.0567  0.1531 -0.0632
 6019SOL    HW118635   8.251   8.341   6.141  0.7412  0.4095  2.4559
 6019SOL    HW218636   8.309   8.447   6.050  2.2224 -1.4348  1.1934
 6020SOL     OW18637   0.350   8.420   0.504 -0.2755 -0.1199  0.4851
 6020SOL    HW118638   0.433   8.373   0.509  0.8503  1.6985 -0.1454
 6020SOL    HW218639   0.291   8.360   0.460  1.3748 -0.6194 -1.1973
 6021SOL     OW18640   8.219   6.027   8.259 -0.2564  0.0864  0.0233
 6021SOL    HW118641   8.288   6.007   8.322 -0.2685 -0.4138 -0.1180
 6021SOL    HW218642   8.172   5.945   8.248 -0.8371  0.4107  0.0696
 6022SOL     OW18643   6.761   8.302   6.288 -0.4487  0.0772  0.1634
 6022SOL    HW118644   6.739   8.343   6.372 -1.5300 -0.0784 -0.0326
 6022SOL    HW218645   6.751   8.372   6.224  0.8901  0.3372  0.1987
 6023SOL     OW18646   0.045   6.510   1.227  0.5521  0.0751 -0.1816
 6023SOL    HW118647  -0.009   6.506   1.148  0.0520  0.2884  0.1471
 6023SOL    HW218648  -0.018   6.520   1.299  1.0624  1.0543  0.1470
 6024SOL     OW18649   1.835   6.083   9.623 -0.0873  0.0510  0.2190
 6024SOL    HW118650   1.746   6.118   9.629 -0.6939 -1.4793  0.6434
 6024SOL    HW218651   1.875   6.103   9.707 -0.9400 -1.5211  1.0414
 6025SOL     OW18652   3.439   0.442   1.429  0.0280 -0.4549  0.1723
 6025SOL    HW118653   3.389   0.392   1.493  1.5021  0.3643  2.0893
 6025SOL    HW218654   3.441   0.531   1.464 -1.1875  0.6527 -2.3326
 6026SOL     OW18655   8.813   1.954   1.067  0.2349  0.4609  0.4785
 6026SOL    HW118656   8.793   1.992   0.981 -0.2228  0.5090  0.6062
 6026SOL    HW218657   8.789   2.022   1.129  0.6469  0.4569  0.6439
 6027SOL     OW18658   0.957   8.834   3.080  0.3138 -0.2050  0.2564
 6027SOL    HW118659   0.871   8.795   3.065  0.6202 -0.3947 -1.1644
 6027SOL    HW218660   0.938   8.913   3.131 -0.6498 -0.4657  0.3278
 6028SOL     OW18661   2.437   5.052   9.082  0.1895 -0.0485  0.3543
 6028SOL    HW118662   2.498   5.074   9.153  1.1803 -1.0136 -0.1725
 6028SOL    HW218663   2.364   5.008   9.125  1.6252 -2.2953  0.6313
 6029SOL     OW18664   6.784   8.818   5.772  0.3887 -0.5060  0.1244
 6029SOL    HW118665   6.792   8.724   5.753 -0.9809 -0.6139 -0.0162
 6029SOL    HW218666   6.696   8.841   5.740  0.9605  0.9746 -0.4569
 6030SOL     OW18667   7.116   8.812   5.194  0.1594  0.0076 -0.0377
 6030SOL    HW118668   7.090   8.872   5.264  1.5311  1.0100 -0.3384
 6030SOL    HW218669   7.082   8.853   5.114 -2.9553 -2.0204  0.1013
 6031SOL     OW18670   0.018   8.126   8.216 -0.0111  0.4963  0.2754
 6031SOL    HW118671   0.060   8.048   8.252 -0.8979  0.5726  1.5777
 6031SOL    HW218672   0.024   8.116   8.121 -0.3782 -1.3007  0.4172
 6032SOL     OW18673   4.775   5.707   8.502 -0.1726 -0.4657 -0.5669
 6032SOL    HW118674   4.811   5.707   8.591 -1.4714  0.7699 -0.0017
 6032SOL    HW218675   4.771   5.614   8.479 -1.8852 -1.0333  1.5988
 6033SOL     OW18676   5.472   5.916   7.490 -0.1886  0.3367  0.2002
 6033SOL    HW118677   5.400   5.853   7.488  0.4514 -0.3987 -1.2606
 6033SOL    HW218678   5.457   5.973   7.415  2.2893 -1.7389 -2.1212
 6034SOL     OW18679   7.437   3.224   7.261  0.6419  0.7425  0.0684
 6034SOL    HW118680   7.503   3.283   7.224  0.5037  1.2803  0.6632
 6034SOL    HW218681   7.488   3.161   7.312  0.6840  1.3797  0.8331
 6035SOL     OW18682   2.859   2.672   6.469 -0.0611 -0.5055 -0.8606
 6035SOL    HW118683   2.902   2.597   6.511  1.5557  1.1524  0.6546
 6035SOL    HW218684   2.927   2.740   6.466 -2.2447  1.9738  0.8223
 6036SOL     OW18685   0.588   8.487   3.460  0.1161 -0.3428  0.3373
 6036SOL    HW118686   0.523   8.438   3.410 -0.0439 -0.9617  1.1241
 6036SOL    HW218687   0.545   8.503   3.545  0.1650  1.1666  0.1085
 6037SOL     OW18688   3.560   2.659   9.062  0.4408 -0.1794  0.0119
 6037SOL    HW118689   3.623   2.730   9.052  0.8091 -0.3485  1.0245
 6037SOL    HW218690   3.540   2.658   9.156 -1.4567  0.2020 -0.3426
 6038SOL     OW18691   3.068   7.185   9.720 -0.4343  0.3197 -0.4739
 6038SOL    HW118692   3.006   7.223   9.784 -1.0612  0.3700 -1.1001
 6038SOL    HW218693   3.078   7.253   9.654 -0.3478 -0.0124 -0.8014
 6039SOL     OW18694   7.929   7.848   8.632  0.3272 -0.4513  0.3440
 6039SOL    HW118695   7.921   7.778   8.567 -0.9644 -1.0483  1.0955
 6039SOL    HW218696   8.021   7.873   8.630  0.3125 -0.3511 -1.8050
 6040SOL     OW18697   6.638   5.065   4.546  0.1709  0.8916 -0.2799
 6040SOL    HW118698   6.682   5.032   4.623 -1.5589 -0.5368  0.1655
 6040SOL    HW218699   6.645   4.995   4.481  1.9744  2.2296 -1.6482
 6041SOL     OW18700   8.727   2.338   7.996 -0.0031 -0.1511  0.0670
 6041SOL    HW118701   8.659   2.393   7.956 -0.3983 -0.6486  0.0479
 6041SOL    HW218702   8.808   2.366   7.954 -0.1259  0.7682  0.4172
 6042SOL     OW18703   5.764   5.264   7.865 -0.0163  0.1922  0.6112
 6042SOL    HW118704   5.716   5.198   7.815  0.6309 -1.2366  1.8022
 6042SOL    HW218705   5.849   5.224   7.883  0.0584  0.9444  2.1751
 6043SOL     OW18706   0.993   7.023   4.666 -0.0577  0.0188  0.8702
 6043SOL    HW118707   1.031   7.107   4.691 -2.1673  1.8738 -1.6093
 6043SOL    HW218708   1.047   6.993   4.593  1.0959 -1.2183  2.1647
 6044SOL     OW18709   3.014   9.061   6.045  0.1172  0.6431 -0.3639
 6044SOL    HW118710   2.976   9.003   6.111  0.3546  0.5468 -0.3111
 6044SOL    HW218711   2.968   9.038   5.964  1.6288 -1.0812 -0.7969
 6045SOL     OW18712   7.518   6.232   8.728  0.0191  0.1737  0.0412
 6045SOL    HW118713   7.574   6.279   8.790 -1.4815  0.6268  1.1228
 6045SOL    HW218714   7.554   6.144   8.724  0.9296  0.5174  0.5462
 6046SOL     OW18715   6.890   4.425   4.442  0.0669 -0.5762  0.0273
 6046SOL    HW118716   6.828   4.432   4.370 -1.0250 -0.7194  0.9163
 6046SOL    HW218717   6.860   4.348   4.492  1.1916 -0.8730  0.2684
 6047SOL     OW18718   5.527   0.741   3.665  0.2883 -0.1714 -0.0828
 6047SOL    HW118719   5.595   0.784   3.614 -0.0414  0.6841  0.1882
 6047SOL    HW218720   5.553   0.752   3.756  0.1470 -0.4590 -0.0053
 6048SOL     OW18721   1.280   5.246   7.340 -0.6022 -0.0424  0.4370
 6048SOL    HW118722   1.324   5.314   7.392  1.6420 -0.1701 -1.1227
 6048SOL    HW218723   1.193   5.281   7.323 -0.0457  1.7478  0.9935
 6049SOL     OW18724   6.480   2.748   1.336  0.1889  0.0231  0.4522
 6049SOL    HW118725   6.544   2.711   1.276  0.1220  1.4941 -0.5892
 6049SOL    HW218726   6.399   2.700   1.317  0.3014  0.1077 -0.2623
 6050SOL     OW18727   1.692   5.354   2.132  0.5080 -0.0958  0.3824
 6050SOL    HW118728   1.771   5.365   2.079  0.1052  2.5603  0.1763
 6050SOL    HW218729   1.623   5.396   2.081 -0.3895  0.3549  1.9050
 6051SOL     OW18730   7.994   7.721   0.276  0.2796  0.8858  0.1659
 6051SOL    HW118731   7.995   7.714   0.181 -0.9552  1.6981  0.0667
 6051SOL    HW218732   8.085   7.740   0.300  0.7453 -0.0677 -0.7676
 6052SOL     OW18733   1.105   0.207   4.007  0.6623 -0.1755 -0.3409
 6052SOL    HW118734   1.111   0.260   4.087  2.4002 -0.4785 -0.2437
 6052SOL    HW218735   1.151   0.258   3.941  2.2519 -1.4621 -0.2774
 6053SOL     OW18736   5.659   4.852   6.946 -0.2858  0.2953 -0.1063
 6053SOL    HW118737   5.602   4.927   6.927 -1.8175 -1.0905 -1.2665
 6053SOL    HW218738   5.626   4.817   7.029 -0.1553  0.3435 -0.0325
 6054SOL     OW18739   5.637   5.887   1.275  0.2220 -0.0680  0.0178
 6054SOL    HW118740   5.661   5.979   1.263  0.5421  0.0145  1.1930
 6054SOL    HW218741   5.693   5.857   1.347  0.4053 -1.2996 -0.6177
 6055SOL     OW18742   6.283   4.652   1.080 -0.1991  0.3084  0.3985
 6055SOL    HW118743   6.317   4.711   1.013 -0.0518 -0.3527 -0.1183
 6055SOL    HW218744   6.204   4.615   1.042  0.1205 -0.4002  0.4111
 6056SOL     OW18745   0.855   4.089   8.601  0.3251  0.6420 -0.5279
 6056SOL    HW118746   0.901   4.054   8.524 -0.6483 -0.0226 -0.8323
 6056SOL    HW218747   0.825   4.011   8.648  0.1649  1.0570  0.0641
 6057SOL     OW18748   5.984   3.527   8.710  0.4227 -0.1677  0.2558
 6057SOL    HW118749   6.035   3.499   8.633 -0.4926  1.3064 -0.9543
 6057SOL    HW218750   5.944   3.447   8.743 -1.7415 -0.5225 -2.7930
 6058SOL     OW18751   2.017   1.060   4.135  0.4398  0.0450  0.4759
 6058SOL    HW118752   1.996   1.152   4.120  1.5756  0.4246  1.1493
 6058SOL    HW218753   2.090   1.061   4.196  1.1788 -1.2779 -0.3377
 6059SOL     OW18754   5.070   7.693   3.753  0.0812 -0.1586  0.2420
 6059SOL    HW118755   5.016   7.771   3.746 -1.5138 -1.3270 -1.3625
 6059SOL    HW218756   5.081   7.663   3.662  1.3730 -1.3302  0.7470
 6060SOL     OW18757   0.508   5.183   8.910 -0.7339  0.2129  0.3845
 6060SOL    HW118758   0.518   5.258   8.851 -0.1060 -0.8788 -0.9593
 6060SOL    HW218759   0.439   5.210   8.972 -1.1921  1.5189 -0.6390
 6061SOL     OW18760   4.748   5.866   0.478  0.0978  0.7648  0.1943
 6061SOL    HW118761   4.826   5.868   0.422 -1.1351  2.0559 -1.6227
 6061SOL    HW218762   4.730   5.773   0.491  0.6832  0.4171 -1.2496
 6062SOL     OW18763   7.786   6.693   5.909  0.4152  0.1902 -0.1250
 6062SOL    HW118764   7.798   6.742   5.828  3.0920  0.7008  0.4628
 6062SOL    HW218765   7.875   6.678   5.941 -0.4634 -1.9567  1.5804
 6063SOL     OW18766   1.013   2.017   4.737 -0.0476  0.1959  0.0610
 6063SOL    HW118767   1.040   1.930   4.768 -0.6864 -0.3023 -0.7346
 6063SOL    HW218768   0.936   2.038   4.789  0.2858  0.4308  0.4672
 6064SOL     OW18769   2.078   5.971   7.196  0.2291  0.1534 -0.0939
 6064SOL    HW118770   2.127   6.052   7.212  0.7530 -0.4728  1.8756
 6064SOL    HW218771   2.141   5.914   7.152  0.1365  0.5158 -0.7037
 6065SOL     OW18772   0.213   9.253   3.378  1.1942 -0.4268  0.2956
 6065SOL    HW118773   0.129   9.298   3.369  0.6776 -1.0910  1.5320
 6065SOL    HW218774   0.266   9.313   3.430  1.2921 -0.2643  0.0119
 6066SOL     OW18775   8.776   0.911   0.987 -0.1283  0.0548  0.2107
 6066SOL    HW118776   8.778   1.005   1.006 -1.9157  0.0736  0.5174
 6066SOL    HW218777   8.756   0.871   1.072 -1.0040 -0.4523 -0.2205
 6067SOL     OW18778   9.677   2.190   7.482 -0.6167 -0.4171 -0.2556
 6067SOL    HW118779   9.694   2.281   7.458  0.4660 -0.3691  0.6064
 6067SOL    HW218780   9.592   2.192   7.525  0.0630  0.4779  1.1449
 6068SOL     OW18781   4.431   2.599   9.493  0.3142 -0.0529 -0.1246
 6068SOL    HW118782   4.374   2.609   9.570 -0.0345  1.7937 -0.5738
 6068SOL    HW218783   4.379   2.631   9.420  1.9413  1.8862 -0.5214
 6069SOL     OW18784   9.076   2.725   3.643 -0.3995 -0.2630 -0.5238
 6069SOL    HW118785   9.142   2.659   3.666 -1.2670 -1.8786 -2.3591
 6069SOL    HW218786   9.125   2.807   3.641  1.3759 -1.2644 -0.8636
 6070SOL     OW18787   9.429   1.101   4.000 -1.1034 -0.2008  0.1599
 6070SOL    HW118788   9.358   1.141   3.949 -0.8552 -0.3692 -0.3274
 6070SOL    HW218789   9.452   1.166   4.066 -0.6148  0.5171 -0.7023
 6071SOL     OW18790   9.426   4.329   0.054  0.7290 -1.0748  1.1783
 6071SOL    HW118791   9.333   4.349   0.064  0.6678 -0.1379 -0.8644
 6071SOL    HW218792   9.428   4.240   0.019  0.3631 -0.0253 -1.8145
 6072SOL     OW18793   9.582   2.315   6.808 -0.0182 -0.4951 -0.2168
 6072SOL    HW118794   9.618   2.247   6.751 -0.1866 -0.8722  0.1227
 6072SOL    HW218795   9.597   2.397   6.760  3.0739 -0.3962  0.7590
 6073SOL     OW18796   1.290   1.512   3.984 -0.0728 -0.4095 -0.2602
 6073SOL    HW118797   1.366   1.460   3.960  0.5392  0.1044  0.5289
 6073SOL    HW218798   1.257   1.473   4.065 -0.4309 -0.4047 -0.3996
 6074SOL     OW18799   1.072   4.692   4.491  0.3195 -0.2012 -0.3288
 6074SOL    HW118800   1.149   4.690   4.435  0.4924  0.6969 -0.1446
 6074SOL    HW218801   1.029   4.774   4.469  1.7072  1.4432  2.5244
 6075SOL     OW18802   5.023   3.146   8.487  0.1996  0.5292 -0.1330
 6075SOL    HW118803   4.931   3.129   8.471 -0.2669  2.5373  0.1380
 6075SOL    HW218804   5.063   3.149   8.400 -0.3158  1.2218 -0.3528
 6076SOL     OW18805   5.885   5.447   7.649  0.3349 -0.1755 -0.1595
 6076SOL    HW118806   5.831   5.391   7.704 -0.2205 -0.6494 -1.1576
 6076SOL    HW218807   5.952   5.389   7.613 -0.7894 -0.4515 -1.9295
 6077SOL     OW18808   6.011   8.609   7.496 -0.4463  0.2693  0.3309
 6077SOL    HW118809   5.939   8.626   7.557 -0.3619  0.1225  0.4735
 6077SOL    HW218810   6.012   8.684   7.437  1.5269  2.0457  2.4785
 6078SOL     OW18811   0.996   0.151   2.045  0.0110  0.0015 -0.6020
 6078SOL    HW118812   1.061   0.210   2.008 -0.4105  1.5300  0.9803
 6078SOL    HW218813   0.927   0.147   1.978  0.5921  0.3378 -1.2327
 6079SOL     OW18814   2.723   7.639   2.831  0.0699 -0.1812 -0.2967
 6079SOL    HW118815   2.742   7.697   2.905 -0.3143  1.4247 -1.4218
 6079SOL    HW218816   2.663   7.574   2.867 -0.8287  1.1045  0.6078
 6080SOL     OW18817   7.178   9.567   5.657  0.6211 -0.1576 -0.9267
 6080SOL    HW118818   7.139   9.627   5.720  0.2182  0.5244 -1.8029
 6080SOL    HW218819   7.110   9.553   5.592  0.9138 -1.1191 -1.0492
 6081SOL     OW18820   9.326   8.341   0.037 -0.3281  0.1843 -0.4772
 6081SOL    HW118821   9.238   8.338   0.075 -0.1004 -0.8203  0.0200
 6081SOL    HW218822   9.378   8.283   0.094  0.3597 -0.2121 -1.4824
 6082SOL     OW18823   0.083   6.635   8.937  0.2997 -0.2773  0.0755
 6082SOL    HW118824   0.114   6.720   8.905  0.4852 -0.3754 -0.0082
 6082SOL    HW218825   0.061   6.650   9.029  0.2373 -0.1155  0.0349
 6083SOL     OW18826   2.725   4.409   8.810  0.0814 -0.3124  0.1952
 6083SOL    HW118827   2.670   4.431   8.886 -0.9087 -0.8413 -0.3494
 6083SOL    HW218828   2.702   4.319   8.789  2.5172 -1.2323  1.0604
 6084SOL     OW18829   4.612   5.984   2.565  0.2286  0.1554 -0.0693
 6084SOL    HW118830   4.647   6.001   2.652  1.1905  1.1055 -0.6189
 6084SOL    HW218831   4.688   5.955   2.514 -0.7228 -2.6667 -0.0478
 6085SOL     OW18832   8.478   7.458   3.524  0.0744 -0.1279  0.1257
 6085SOL    HW118833   8.535   7.407   3.581 -0.5148 -3.5749 -2.0116
 6085SOL    HW218834   8.389   7.435   3.552 -0.2519  1.1429  0.2018
 6086SOL     OW18835   3.129   5.648   8.323  0.6975  0.6321  0.0994
 6086SOL    HW118836   3.092   5.704   8.255 -0.5201 -1.3447 -0.9638
 6086SOL    HW218837   3.054   5.618   8.374  1.0536 -1.2980 -0.4082
 6087SOL     OW18838   3.047   8.880   1.021  0.1532 -0.0579  0.0120
 6087SOL    HW118839   3.135   8.917   1.012 -0.2149  0.6784 -0.7426
 6087SOL    HW218840   3.004   8.935   1.087  0.2428 -0.3751  0.3316
 6088SOL     OW18841   2.918   5.126   2.541  0.5589 -0.1520 -0.3278
 6088SOL    HW118842   2.995   5.070   2.531  1.1954  0.0642  2.5769
 6088SOL    HW218843   2.947   5.213   2.512  0.9240 -0.3779 -0.6453
 6089SOL     OW18844   8.566   6.696   9.547  0.0977 -0.1474  0.3236
 6089SOL    HW118845   8.577   6.604   9.572  2.7760  0.3152  1.1007
 6089SOL    HW218846   8.542   6.740   9.629 -4.4172 -0.4643 -0.5679
 6090SOL     OW18847   3.585   7.471   4.298  0.1772 -0.0970 -0.5315
 6090SOL    HW118848   3.559   7.562   4.287 -1.9518 -0.2844  1.8960
 6090SOL    HW218849   3.680   7.473   4.304  0.2707  1.7423 -1.9339
 6091SOL     OW18850   2.216   6.721   0.333 -0.1402  0.1811  0.6720
 6091SOL    HW118851   2.188   6.795   0.387 -0.5765  0.4648  0.0628
 6091SOL    HW218852   2.308   6.741   0.312  0.0866 -0.0205  1.4511
 6092SOL     OW18853   9.887   5.812   4.531  0.0468 -0.0490 -0.0056
 6092SOL    HW118854   9.899   5.853   4.617 -0.3276  0.0006  0.0218
 6092SOL    HW218855   9.907   5.882   4.469  0.5312 -0.1447  0.0388
 6093SOL     OW18856   6.650   1.175   3.904  0.2178  0.0903 -0.2259
 6093SOL    HW118857   6.555   1.185   3.918  0.3488  1.0674  0.0468
 6093SOL    HW218858   6.658   1.148   3.813 -0.3070  0.3800 -0.3646
 6094SOL     OW18859   2.678   3.911   9.685 -0.1623 -0.3730 -0.2294
 6094SOL    HW118860   2.647   3.822   9.699  1.7502 -1.0703 -0.1075
 6094SOL    HW218861   2.599   3.964   9.681 -1.3000 -1.9317  0.6632
 6095SOL     OW18862   3.191   3.699   7.022  0.0479  0.0475 -0.5364
 6095SOL    HW118863   3.133   3.749   6.964  0.1274  1.5164  0.5700
 6095SOL    HW218864   3.133   3.665   7.090  0.3417  0.9671  0.2074
 6096SOL     OW18865   3.437   6.199   5.576  0.1507 -0.0422 -0.1856
 6096SOL    HW118866   3.511   6.242   5.619 -0.8019 -0.8329  2.4791
 6096SOL    HW218867   3.374   6.269   5.560  0.8537  0.3975 -1.1320
 6097SOL     OW18868   3.180   9.064   0.779 -0.4242  0.3511  0.5170
 6097SOL    HW118869   3.219   8.997   0.836  0.7668  0.3661 -0.2594
 6097SOL    HW218870   3.114   9.107   0.835 -0.7447 -1.0082  1.2352
 6098SOL     OW18871   1.059   2.734   6.977 -0.0851  0.5355 -0.1644
 6098SOL    HW118872   1.072   2.799   7.047  2.2327  0.6313 -0.6016
 6098SOL    HW218873   1.147   2.716   6.945 -0.9648 -0.5514 -2.1435
 6099SOL     OW18874   2.273   7.200   4.074 -0.2397 -0.2915 -0.1460
 6099SOL    HW118875   2.341   7.224   4.137 -0.7292 -0.3553  0.4090
 6099SOL    HW218876   2.308   7.123   4.029  2.0021  2.0872 -2.9289
 6100SOL     OW18877   2.915   8.640   5.679  0.5451  0.1189 -0.4287
 6100SOL    HW118878   2.831   8.605   5.649  1.4705 -2.5582 -0.1616
 6100SOL    HW218879   2.916   8.621   5.773  1.6759 -0.4249 -0.5386
 6101SOL     OW18880   9.400   8.717   2.401 -0.1978  0.0499 -0.1693
 6101SOL    HW118881   9.461   8.643   2.396 -0.7296 -0.4107 -0.0234
 6101SOL    HW218882   9.313   8.676   2.402 -0.5155  0.7008 -0.5122
 6102SOL     OW18883   8.295   4.835   1.250 -0.1385  0.5217 -0.3908
 6102SOL    HW118884   8.215   4.798   1.214  0.6489 -0.7061 -0.9151
 6102SOL    HW218885   8.365   4.777   1.221  0.6389 -0.1495  2.4896
 6103SOL     OW18886   1.818   3.235   0.582  0.3980 -0.1104  0.1738
 6103SOL    HW118887   1.765   3.157   0.561  0.6933 -0.3428  0.2851
 6103SOL    HW218888   1.879   3.205   0.649  0.2784  0.3131  0.4792
 6104SOL     OW18889   8.650   3.024   1.370  0.0534 -0.1811  0.6545
 6104SOL    HW118890   8.682   2.952   1.317  1.3271  0.0153  1.1369
 6104SOL    HW218891   8.595   3.076   1.311  0.2681 -0.7658 -0.0569
 6105SOL     OW18892   6.288   6.865   7.971 -0.1838 -0.2580 -0.3067
 6105SOL    HW118893   6.210   6.835   7.925 -0.9698  0.2469  0.6484
 6105SOL    HW218894   6.361   6.833   7.918 -1.0074 -1.7811 -0.5960
 6106SOL     OW18895   9.414   8.179   1.831  0.3298  0.0665  0.3181
 6106SOL    HW118896   9.467   8.259   1.824  1.4239 -0.6517  0.2183
 6106SOL    HW218897   9.434   8.144   1.918 -0.4613  0.1074  0.5237
 6107SOL     OW18898   4.024   7.173   9.843 -0.1131 -0.3822 -0.0644
 6107SOL    HW118899   3.984   7.098   9.800 -0.3279 -0.1918 -0.2010
 6107SOL    HW218900   4.010   7.157   9.936  0.1068 -0.6570 -0.0762
 6108SOL     OW18901   9.592   9.229   1.897  0.1454 -0.4348 -0.2346
 6108SOL    HW118902   9.631   9.163   1.954 -0.2939 -1.2432 -0.8416
 6108SOL    HW218903   9.610   9.198   1.808  2.7512  1.8919 -0.6809
 6109SOL     OW18904   7.711   5.134   5.479 -0.1325  0.1391 -0.4819
 6109SOL    HW118905   7.669   5.157   5.562 -0.1503 -0.5380 -0.3048
 6109SOL    HW218906   7.709   5.216   5.429 -1.5383  0.1630 -0.4285
 6110SOL     OW18907   2.755   4.201   1.953 -0.1162  0.2115  0.0739
 6110SOL    HW118908   2.693   4.268   1.980  0.4556  0.7218  0.1275
 6110SOL    HW218909   2.841   4.241   1.964  0.3505 -1.1469  1.9376
 6111SOL     OW18910   0.252   7.402   6.342 -0.1793  0.2052  0.5275
 6111SOL    HW118911   0.227   7.428   6.253  0.4251  1.5042  0.7177
 6111SOL    HW218912   0.345   7.422   6.348 -0.6560  2.3856  2.1719
 6112SOL     OW18913   4.719   6.067   6.781 -0.2585  0.7967 -0.3773
 6112SOL    HW118914   4.658   6.044   6.711 -0.2913 -0.3549  0.0029
 6112SOL    HW218915   4.801   6.024   6.756  0.2026  1.7320 -0.5155
 6113SOL     OW18916   1.518   0.273   1.783  0.1049 -0.2336  0.0311
 6113SOL    HW118917   1.521   0.210   1.712  0.4687 -1.8462  1.4180
 6113SOL    HW218918   1.430   0.265   1.820  0.2791 -0.2158  0.4590
 6114SOL     OW18919   5.336   2.128   8.344 -0.4332  0.1269  0.0214
 6114SOL    HW118920   5.396   2.135   8.269  1.6734  0.2318  1.6221
 6114SOL    HW218921   5.337   2.215   8.384  1.2089 -0.7414  2.0716
 6115SOL     OW18922   6.687   7.392   4.674  0.4954 -0.4755  0.1455
 6115SOL    HW118923   6.691   7.379   4.579  1.2839 -0.3214  0.1534
 6115SOL    HW218924   6.605   7.351   4.700 -0.2023  0.3270 -0.7345
 6116SOL     OW18925   5.859   3.567   0.650 -0.2692 -0.2721 -0.3654
 6116SOL    HW118926   5.788   3.631   0.657  0.3650  0.7369 -2.4448
 6116SOL    HW218927   5.824   3.498   0.593 -0.7438 -1.5694  1.3983
 6117SOL     OW18928   5.126   8.427   5.344 -0.1550  0.0407  0.1102
 6117SOL    HW118929   5.217   8.454   5.352  0.9686 -2.6008 -2.1943
 6117SOL    HW218930   5.105   8.389   5.430  0.1295  2.4339  1.3490
 6118SOL     OW18931   9.547   9.761   6.968  0.1466 -0.2003 -0.0478
 6118SOL    HW118932   9.615   9.701   7.000 -1.3562 -1.0147  1.7723
 6118SOL    HW218933   9.586   9.848   6.975  0.7370 -0.5706  1.7884
 6119SOL     OW18934   5.585   6.135   0.710  0.1172  0.7259 -0.2018
 6119SOL    HW118935   5.551   6.196   0.775 -0.7284 -0.6857  0.7336
 6119SOL    HW218936   5.570   6.179   0.626 -0.4258  1.8201  0.4472
 6120SOL     OW18937   2.094   6.941   9.738  0.1916  0.5610 -0.8848
 6120SOL    HW118938   2.024   6.933   9.803  1.5517  0.7278  0.6638
 6120SOL    HW218939   2.133   6.853   9.734 -1.7555 -0.2877 -3.7735
 6121SOL     OW18940   0.761   7.461   9.822  0.1497 -0.3093 -0.0958
 6121SOL    HW118941   0.732   7.437   9.734 -0.3462  0.8824 -0.2808
 6121SOL    HW218942   0.832   7.400   9.842  1.8259  0.8466 -2.2329
 6122SOL     OW18943   3.042   0.872   7.418 -0.6210  0.2459 -0.0091
 6122SOL    HW118944   3.008   0.795   7.463 -1.4792  0.3422 -0.4691
 6122SOL    HW218945   3.042   0.848   7.325 -1.3087  0.9325 -0.2016
 6123SOL     OW18946   6.724   2.678   9.685  0.0494 -0.2354 -0.3061
 6123SOL    HW118947   6.628   2.678   9.680  0.0388 -0.7380 -0.2053
 6123SOL    HW218948   6.753   2.681   9.594 -0.0878 -2.0685 -0.4599
 6124SOL     OW18949   2.635   9.417   1.829 -0.6467 -0.5749  0.1846
 6124SOL    HW118950   2.636   9.502   1.786 -1.6308 -0.3021  0.6720
 6124SOL    HW218951   2.677   9.432   1.913  1.2075 -1.0916 -0.6164
 6125SOL     OW18952   9.851   3.872   3.298 -0.1490 -0.1528 -0.3181
 6125SOL    HW118953   9.837   3.959   3.261  0.7611 -0.4193 -1.3240
 6125SOL    HW218954   9.923   3.835   3.247  0.5378 -0.8938  1.1131
 6126SOL     OW18955   9.260   6.482   8.899 -0.2801 -0.0657  0.6222
 6126SOL    HW118956   9.337   6.497   8.844  0.0542 -0.2762  1.0292
 6126SOL    HW218957   9.192   6.538   8.861  0.4973  1.3147  1.1844
 6127SOL     OW18958   4.000   2.880   4.087 -0.0489  0.0276  0.5054
 6127SOL    HW118959   3.998   2.852   4.178 -0.5892 -2.8133 -0.2495
 6127SOL    HW218960   4.064   2.821   4.046  1.0355  1.9786 -0.7887
 6128SOL     OW18961   9.611   1.710   5.387 -0.7187  0.2106 -0.2758
 6128SOL    HW118962   9.616   1.615   5.401 -0.7603 -0.1468 -2.3445
 6128SOL    HW218963   9.656   1.724   5.304 -0.6248  2.0313  0.0514
 6129SOL     OW18964   9.559   7.810   5.858 -0.4039 -0.0340  0.2872
 6129SOL    HW118965   9.635   7.845   5.812 -2.2851  2.6659 -1.0116
 6129SOL    HW218966   9.597   7.756   5.928  2.6048 -1.8153 -2.4146
 6130SOL     OW18967   8.006   8.088   1.511  0.1569 -0.1750 -0.0067
 6130SOL    HW118968   8.096   8.057   1.496  0.5836  0.4483  1.1627
 6130SOL    HW218969   8.005   8.176   1.474  0.5944  0.5377  1.5753
 6131SOL     OW18970   4.463   9.617   8.429  0.5728  0.2862  0.4212
 6131SOL    HW118971   4.505   9.638   8.512  1.7253  1.9429 -0.5248
 6131SOL    HW218972   4.512   9.667   8.363 -1.4119  0.4443 -1.0424
 6132SOL     OW18973   1.786   9.946   7.455  0.0620 -0.3005  0.1315
 6132SOL    HW118974   1.772   9.909   7.368  0.2535  0.1237 -0.0829
 6132SOL    HW218975   1.826  10.031   7.439  1.2963 -0.7552  0.6856
 6133SOL     OW18976   3.815   1.344   7.701  0.2078  0.0747 -0.0167
 6133SOL    HW118977   3.837   1.422   7.651  0.4692 -1.7905 -3.1193
 6133SOL    HW218978   3.719   1.340   7.699  0.0974  1.0585  1.5391
 6134SOL     OW18979   2.914   6.713   9.688  0.2103 -0.0729  0.3405
 6134SOL    HW118980   2.875   6.654   9.623  0.7334 -1.0447  0.8911
 6134SOL    HW218981   2.927   6.795   9.640  1.2526 -0.9796 -1.0235
 6135SOL     OW18982   5.735   8.579   3.554 -0.9061 -0.1364  0.1380
 6135SOL    HW118983   5.645   8.546   3.548 -0.5538 -0.9971 -0.4725
 6135SOL    HW218984   5.788   8.502   3.573 -0.2989  0.3931  0.6356
 6136SOL     OW18985   7.185   5.881   0.841 -0.2777  0.0660 -0.2848
 6136SOL    HW118986   7.151   5.951   0.785 -0.1476  0.4448  0.1069
 6136SOL    HW218987   7.267   5.916   0.876  0.0085 -0.4531 -0.4303
 6137SOL     OW18988   1.785   0.701   4.704 -0.1809 -0.2414  0.1544
 6137SOL    HW118989   1.809   0.638   4.772  1.0061  0.0055 -0.0197
 6137SOL    HW218990   1.851   0.689   4.636  0.1886  1.3274  0.2086
 6138SOL     OW18991   5.544   7.669   1.223 -0.0222 -0.1351  0.1759
 6138SOL    HW118992   5.609   7.599   1.224 -0.3188 -0.4103  0.7327
 6138SOL    HW218993   5.595   7.749   1.212  0.2469 -0.4940 -1.5449
 6139SOL     OW18994   1.401   5.486   1.707 -0.0489 -0.0944 -0.4635
 6139SOL    HW118995   1.431   5.486   1.616  0.5533 -0.0269 -0.2638
 6139SOL    HW218996   1.350   5.405   1.715 -2.1807  1.0280 -1.5241
 6140SOL     OW18997   8.409   8.504   1.879  0.4446 -0.0843 -0.0355
 6140SOL    HW118998   8.412   8.418   1.921 -0.2988  0.2143  0.6449
 6140SOL    HW218999   8.494   8.512   1.836  0.5334 -1.1454 -0.0902
 6141SOL     OW19000   3.161   4.855   4.613  0.1464  0.4789  0.3800
 6141SOL    HW119001   3.117   4.935   4.585 -1.0529 -1.1205 -2.7942
 6141SOL    HW219002   3.247   4.860   4.571  0.5084  0.5474  1.1026
 6142SOL     OW19003   7.341   5.018   8.027 -0.5027 -0.1382 -0.4255
 6142SOL    HW119004   7.290   5.045   7.950 -0.1746 -0.3766 -0.7273
 6142SOL    HW219005   7.292   4.945   8.064 -0.6894  0.0118 -0.3726
 6143SOL     OW19006   3.449   1.042   7.451  0.1895  0.1773 -0.1620
 6143SOL    HW119007   3.516   0.981   7.483  1.1798  1.8692  1.1678
 6143SOL    HW219008   3.398   1.063   7.529 -2.8398 -2.0335 -1.3434
 6144SOL     OW19009   3.922   3.876   7.208  0.1159  0.1121  0.6827
 6144SOL    HW119010   3.845   3.869   7.152  0.6850  1.4792 -0.3197
 6144SOL    HW219011   3.991   3.906   7.151  0.6228  1.9724  2.1600
 6145SOL     OW19012   6.851   2.535   5.179  0.4338 -0.0694  0.5446
 6145SOL    HW119013   6.773   2.584   5.152  0.7143 -0.1005 -0.3657
 6145SOL    HW219014   6.902   2.526   5.098  0.8255 -1.0585  0.8905
 6146SOL     OW19015   7.855   5.040   8.976 -0.4256 -0.7471 -0.5297
 6146SOL    HW119016   7.879   4.986   9.051  1.5024  1.2884  0.4526
 6146SOL    HW219017   7.939   5.074   8.944 -1.3252 -0.5188 -2.8244
 6147SOL     OW19018   4.387   1.562   1.134 -0.0238  0.0617 -0.8024
 6147SOL    HW119019   4.391   1.512   1.216 -1.4698 -0.8252 -1.2439
 6147SOL    HW219020   4.374   1.652   1.162  0.7636 -0.0451 -0.0384
 6148SOL     OW19021   4.767   7.541   9.533 -0.5363 -0.0804  0.0512
 6148SOL    HW119022   4.806   7.465   9.490 -1.0429 -1.0563  1.2454
 6148SOL    HW219023   4.783   7.614   9.473  0.8717 -0.9270 -0.6579
 6149SOL     OW19024   9.895   1.279   5.411 -0.2266  0.4754  0.3624
 6149SOL    HW119025   9.855   1.298   5.326  0.7410  0.2072 -0.1605
 6149SOL    HW219026   9.847   1.202   5.443 -1.0095  0.9455  0.3584
 6150SOL     OW19027   7.428   2.866   6.500 -0.4070  0.2511 -0.1588
 6150SOL    HW119028   7.445   2.810   6.575 -1.0577 -3.1308 -2.2940
 6150SOL    HW219029   7.447   2.954   6.531 -1.7160 -0.7510  4.2629
 6151SOL     OW19030   8.336   7.706   3.333 -0.3885  0.1329 -0.3516
 6151SOL    HW119031   8.421   7.663   3.328 -0.3697  0.1354 -0.0782
 6151SOL    HW219032   8.342   7.779   3.271  0.7113  1.7097  1.5160
 6152SOL     OW19033   4.390   6.768   1.449  0.1418 -0.1408 -0.6437
 6152SOL    HW119034   4.486   6.771   1.451  0.1281  0.4205  1.7440
 6152SOL    HW219035   4.370   6.674   1.450  0.6551 -0.2580 -0.6664
 6153SOL     OW19036   2.829   9.156   4.747  0.3364 -0.1504 -0.2764
 6153SOL    HW119037   2.852   9.207   4.670 -0.6162 -0.1968 -0.6116
 6153SOL    HW219038   2.755   9.102   4.719  1.4378 -1.8783  0.0067
 6154SOL     OW19039   4.156   7.427   7.012 -0.2894  0.1443  0.6018
 6154SOL    HW119040   4.188   7.511   7.046  0.4340  0.4954 -0.8790
 6154SOL    HW219041   4.216   7.362   7.049  1.2536  0.6480 -0.9279
 6155SOL     OW19042   9.064   9.273   3.470 -0.0824 -0.1144  0.0247
 6155SOL    HW119043   8.970   9.282   3.455  0.3046  1.5175 -1.9800
 6155SOL    HW219044   9.079   9.309   3.557 -1.3820 -1.0255  0.6448
 6156SOL     OW19045   7.838   3.215   0.916 -0.0898  0.3491 -0.0972
 6156SOL    HW119046   7.920   3.202   0.870 -0.2483 -0.2648 -0.2120
 6156SOL    HW219047   7.809   3.127   0.940 -1.0331  0.4953 -0.6214
 6157SOL     OW19048   9.852   9.160   8.723 -0.1100  0.4917  0.1928
 6157SOL    HW119049   9.774   9.117   8.688 -1.0942  1.2712  1.3508
 6157SOL    HW219050   9.829   9.252   8.726  0.9120  0.7474  0.4487
 6158SOL     OW19051   7.620   9.417   0.445  0.0693 -0.0100 -0.2668
 6158SOL    HW119052   7.542   9.372   0.412 -1.3704  1.3573  1.0910
 6158SOL    HW219053   7.669   9.441   0.367 -0.0997 -2.1331 -1.0965
 6159SOL     OW19054   5.250   9.291   8.092 -0.6280 -0.1125  0.4050
 6159SOL    HW119055   5.163   9.330   8.091 -0.7199 -0.3229  0.2024
 6159SOL    HW219056   5.266   9.265   8.001  0.2403  1.2467  0.1353
 6160SOL     OW19057   2.868   0.440   0.938  0.2333  0.2376  0.2655
 6160SOL    HW119058   2.861   0.527   0.976  1.4816  0.4705  0.0024
 6160SOL    HW219059   2.959   0.435   0.907  0.6465 -1.7129  1.6385
 6161SOL     OW19060   6.317   0.567   7.046 -0.0117  0.1127 -0.1376
 6161SOL    HW119061   6.369   0.613   7.111 -2.3280  2.5963  0.1226
 6161SOL    HW219062   6.279   0.493   7.093  1.1286 -0.1840  0.3485
 6162SOL     OW19063   1.862   6.306   5.040  0.2261  0.5010 -0.6846
 6162SOL    HW119064   1.913   6.284   5.119 -1.9308  0.8661  0.8852
 6162SOL    HW219065   1.912   6.377   4.999  1.5751  0.0825  0.1438
 6163SOL     OW19066   6.327   3.724   8.241  0.3519 -0.1723 -0.0500
 6163SOL    HW119067   6.358   3.811   8.268 -0.4262  0.6683 -1.6593
 6163SOL    HW219068   6.243   3.741   8.199  0.2747 -1.6837 -0.5706
 6164SOL     OW19069   7.077   5.811   0.229  0.4450 -0.1036 -0.3952
 6164SOL    HW119070   7.141   5.751   0.191 -1.3855 -2.5912  0.1786
 6164SOL    HW219071   7.049   5.768   0.310 -2.0407  0.7541 -0.7083
 6165SOL     OW19072   2.047   9.620   5.543 -0.5075  0.6776  0.5425
 6165SOL    HW119073   1.965   9.573   5.536 -0.4429  0.5952  0.3431
 6165SOL    HW219074   2.037   9.674   5.622 -0.6304  0.4320  0.6962
 6166SOL     OW19075   1.799   8.335   2.794  0.4082 -0.3373  0.0447
 6166SOL    HW119076   1.745   8.351   2.716  0.2843  1.1322  0.4056
 6166SOL    HW219077   1.835   8.421   2.816  0.3966 -0.7158  1.6522
 6167SOL     OW19078   6.767   2.575   3.798 -0.0511  0.4551 -0.5802
 6167SOL    HW119079   6.836   2.640   3.784 -0.0861  0.3749 -1.1209
 6167SOL    HW219080   6.789   2.534   3.881  0.7349  0.1956 -0.9175
 6168SOL     OW19081   5.091   0.888   4.210  0.5151  0.1046  0.1214
 6168SOL    HW119082   5.042   0.899   4.128  1.2327  1.0407 -0.2037
 6168SOL    HW219083   5.163   0.830   4.187  1.1586  0.9796 -0.1217
 6169SOL     OW19084   6.643   3.032   2.062  0.2187 -0.0215 -0.4955
 6169SOL    HW119085   6.599   3.064   2.140  0.4410 -1.6473  0.3397
 6169SOL    HW219086   6.677   3.111   2.019  0.0268  0.9070  0.9947
 6170SOL     OW19087   5.052   1.056   1.558  0.2079  0.4576  0.2606
 6170SOL    HW119088   5.103   1.074   1.636 -0.1200  0.8034  0.3988
 6170SOL    HW219089   5.109   1.078   1.485  1.1191 -1.4167  0.3474
 6171SOL     OW19090   3.040   4.865   6.525  0.2774 -0.8027 -0.3959
 6171SOL    HW119091   2.985   4.912   6.587  1.4845  0.0070  0.0782
 6171SOL    HW219092   3.039   4.774   6.555 -0.3879 -0.7059 -0.1150
 6172SOL     OW19093   8.267   9.869   0.220  0.2399 -0.2755 -0.3593
 6172SOL    HW119094   8.209   9.804   0.258  0.4815 -0.2154  0.1217
 6172SOL    HW219095   8.220   9.902   0.144 -0.0670 -0.7017 -0.3596
 6173SOL     OW19096   0.270   1.969   0.163 -0.7506  0.0842 -0.1237
 6173SOL    HW119097   0.228   1.900   0.113  0.7388 -3.5894  3.1496
 6173SOL    HW219098   0.357   1.977   0.125 -0.1589 -1.5709  0.7719
 6174SOL     OW19099   0.424   7.269   9.332 -0.1202 -0.1877 -0.2865
 6174SOL    HW119100   0.442   7.363   9.321 -0.2231 -0.1590 -0.2160
 6174SOL    HW219101   0.332   7.260   9.308 -0.0336 -0.3194 -0.5681
 6175SOL     OW19102   9.207   2.122   9.334 -0.3808 -0.0570 -0.8186
 6175SOL    HW119103   9.188   2.045   9.281  0.3405  0.1026 -1.3217
 6175SOL    HW219104   9.133   2.180   9.319 -0.5860 -0.3604 -0.9934
 6176SOL     OW19105   1.590   2.661   3.154  0.1140 -0.0755 -0.1422
 6176SOL    HW119106   1.536   2.591   3.117  1.1135 -0.6672 -0.5435
 6176SOL    HW219107   1.592   2.643   3.248 -0.6022  0.1142 -0.0865
 6177SOL     OW19108   7.720   0.067   3.730 -0.2277  0.5653  0.1631
 6177SOL    HW119109   7.816   0.066   3.729 -0.1807  1.5596 -2.1727
 6177SOL    HW219110   7.695   0.088   3.640 -2.7105 -1.8633  0.1631
 6178SOL     OW19111   3.256   5.697   5.921 -0.4967 -0.4451 -0.0357
 6178SOL    HW119112   3.205   5.616   5.918 -1.1159 -0.0910  0.6701
 6178SOL    HW219113   3.226   5.742   5.999 -1.3506  1.2502 -1.2691
 6179SOL     OW19114   5.060   3.642   7.578 -0.1077  0.3650 -0.2296
 6179SOL    HW119115   5.103   3.725   7.599 -1.5572  1.2909 -0.6924
 6179SOL    HW219116   5.121   3.575   7.607  0.5546  1.5795  1.3692
 6180SOL     OW19117   7.220   5.372   6.625  0.1600 -0.2077  0.8027
 6180SOL    HW119118   7.316   5.373   6.631  0.1781 -1.3346  0.9328
 6180SOL    HW219119   7.190   5.406   6.709  0.4478 -0.5455  1.0455
 6181SOL     OW19120   9.108   6.706   7.726 -0.6106 -0.0567  0.3650
 6181SOL    HW119121   9.122   6.650   7.803 -2.2144 -0.2333  0.5524
 6181SOL    HW219122   9.017   6.693   7.702 -0.6753  1.4969 -0.3912
 6182SOL     OW19123   1.414   3.938   8.331 -0.5962 -0.6409 -0.0867
 6182SOL    HW119124   1.401   3.855   8.286 -0.7497 -0.8882  0.4143
 6182SOL    HW219125   1.509   3.952   8.329 -0.7333  0.8195 -3.1154
 6183SOL     OW19126   4.192   9.257   6.820 -0.7987  0.2359 -0.0587
 6183SOL    HW119127   4.206   9.163   6.831 -2.2057  0.2010  2.0523
 6183SOL    HW219128   4.279   9.295   6.818 -0.2388 -0.9794  0.5548
 6184SOL     OW19129   9.774   1.340   4.159 -0.8969  0.1707 -0.0863
 6184SOL    HW119130   9.772   1.287   4.079 -0.9101 -0.4250  0.3095
 6184SOL    HW219131   9.717   1.414   4.140  0.7248  1.1673 -1.4258
 6185SOL     OW19132   3.543   2.649   9.330 -0.5591 -0.3527  0.3545
 6185SOL    HW119133   3.491   2.701   9.391  1.8648  0.0882  2.1959
 6185SOL    HW219134   3.510   2.559   9.342  0.1025 -0.3514  2.7066
 6186SOL     OW19135   3.174   6.541   8.577  0.6662 -0.1982  0.1949
 6186SOL    HW119136   3.152   6.464   8.630  1.1612 -0.5839 -0.1469
 6186SOL    HW219137   3.262   6.522   8.543  0.5796  0.2877 -0.3082
 6187SOL     OW19138   0.922   4.858   1.649  0.6552  0.5674 -0.0229
 6187SOL    HW119139   0.869   4.782   1.624  1.3031  0.0149  0.2416
 6187SOL    HW219140   0.871   4.902   1.716  0.5938 -0.0396  0.3330
 6188SOL     OW19141   4.981   5.784   7.741  0.2914 -0.3320 -0.4223
 6188SOL    HW119142   5.008   5.855   7.799 -1.5644  0.0467  0.0427
 6188SOL    HW219143   4.964   5.711   7.800  0.8153 -0.7263 -0.7568
 6189SOL     OW19144   6.710   5.407   2.979 -0.0320  0.0446 -0.1173
 6189SOL    HW119145   6.784   5.391   2.920  0.0321  0.4786 -0.1553
 6189SOL    HW219146   6.676   5.319   2.998 -0.1346 -0.0951 -0.8981
 6190SOL     OW19147   3.037   2.163   1.542 -0.2618 -0.0872 -0.2049
 6190SOL    HW119148   3.065   2.177   1.452 -0.7546 -1.5443 -0.5979
 6190SOL    HW219149   2.979   2.088   1.539 -1.5773  0.8104  1.1020
 6191SOL     OW19150   9.747   0.668   5.810 -0.6346 -0.5681 -0.0618
 6191SOL    HW119151   9.661   0.707   5.795  0.0632  2.6964  3.0729
 6191SOL    HW219152   9.728   0.583   5.851 -2.4188  0.2667  0.9592
 6192SOL     OW19153   2.110   1.034   3.557  0.1035  0.3933 -0.3726
 6192SOL    HW119154   2.188   1.018   3.610  0.2057  1.8329 -0.0684
 6192SOL    HW219155   2.140   1.024   3.467  0.5943  0.7118 -0.2498
 6193SOL     OW19156   2.272   8.360   4.456  0.3626 -0.1137  0.0139
 6193SOL    HW119157   2.273   8.315   4.372  0.4260  0.7171 -0.4430
 6193SOL    HW219158   2.308   8.447   4.437 -1.5710  0.8301  0.4688
 6194SOL     OW19159   2.252   1.619   5.532 -0.0933 -0.2619  0.0256
 6194SOL    HW119160   2.256   1.641   5.625  1.0060  0.6956 -0.2205
 6194SOL    HW219161   2.160   1.630   5.508 -0.3346 -0.2565  0.9332
 6195SOL     OW19162   3.643   4.818   4.480 -0.0016  0.2189 -0.4509
 6195SOL    HW119163   3.634   4.754   4.410  0.2307  1.7669 -1.9501
 6195SOL    HW219164   3.711   4.878   4.450 -0.9550  1.8022  0.3885
 6196SOL     OW19165   5.040   6.347   7.853  0.0240  0.2613 -0.1930
 6196SOL    HW119166   5.020   6.324   7.763  1.3721  1.2258 -0.7676
 6196SOL    HW219167   4.978   6.295   7.905 -0.7410 -0.3458 -1.6476
 6197SOL     OW19168   2.969   2.915   2.013 -0.1473  0.5407 -0.1198
 6197SOL    HW119169   3.026   2.990   1.995  0.7657 -0.2737 -0.7509
 6197SOL    HW219170   2.960   2.915   2.109  1.2120  0.5041  0.0388
 6198SOL     OW19171   2.448   7.883   8.972  0.3046  0.1288 -0.5667
 6198SOL    HW119172   2.486   7.818   8.913 -3.6511  0.0074 -3.3794
 6198SOL    HW219173   2.502   7.962   8.959  1.3772 -0.7916 -1.9554
 6199SOL     OW19174   0.185   2.901   1.242  0.3123 -0.2350 -0.2560
 6199SOL    HW119175   0.245   2.828   1.227  0.7819  0.5552 -2.6133
 6199SOL    HW219176   0.103   2.874   1.200 -0.2430 -0.2884  0.8141
 6200SOL     OW19177   7.916   1.255   4.883 -0.1404 -0.2097  0.0213
 6200SOL    HW119178   7.897   1.188   4.817  0.6017 -1.6670  1.2368
 6200SOL    HW219179   7.869   1.228   4.961  2.3382 -0.9216  1.3920
 6201SOL     OW19180   6.957   4.495   0.985  0.0592  0.6772  0.4955
 6201SOL    HW119181   6.986   4.454   0.903  2.1573  0.9643  1.0147
 6201SOL    HW219182   6.930   4.583   0.961 -0.9347  0.2099 -0.1141
 6202SOL     OW19183   4.961   0.294   2.145 -0.0095 -0.0647 -0.3946
 6202SOL    HW119184   4.967   0.371   2.201  0.6631 -0.5570  0.2140
 6202SOL    HW219185   4.878   0.253   2.170  0.3426 -0.3473  0.3297
 6203SOL     OW19186   4.463   2.009   3.102  0.3426  0.3918 -0.1102
 6203SOL    HW119187   4.458   2.104   3.110  0.9637  0.6109 -1.9137
 6203SOL    HW219188   4.503   1.980   3.184 -1.7286  1.4458  1.3615
 6204SOL     OW19189   0.887   4.766   6.887  0.3780 -0.1350  0.4236
 6204SOL    HW119190   0.924   4.719   6.813  0.7244 -0.1623  0.6098
 6204SOL    HW219191   0.812   4.713   6.915  0.4052 -0.2601  0.2578
 6205SOL     OW19192   7.377   7.311   3.964 -0.8270  0.5478  0.5473
 6205SOL    HW119193   7.383   7.249   3.891  0.2269  0.3240  0.8128
 6205SOL    HW219194   7.455   7.295   4.017 -0.9008  1.6094  1.0177
 6206SOL     OW19195   4.124   4.136   9.454  0.5967 -0.1448  0.0292
 6206SOL    HW119196   4.056   4.171   9.512 -0.0128 -0.4512 -0.4864
 6206SOL    HW219197   4.204   4.180   9.482 -0.0812  1.4040 -0.3452
 6207SOL     OW19198   8.109   1.296   0.906 -0.2720  0.2723  0.2495
 6207SOL    HW119199   8.177   1.310   0.840 -0.4911 -1.7497 -0.4735
 6207SOL    HW219200   8.147   1.330   0.987  1.5195 -0.5716 -0.1861
 6208SOL     OW19201   5.791   6.469   2.048  0.5446 -0.0874 -0.1743
 6208SOL    HW119202   5.764   6.546   2.096 -0.1236 -0.3769 -0.0725
 6208SOL    HW219203   5.837   6.503   1.971 -0.3414  0.4327 -0.4869
 6209SOL     OW19204   7.139   6.441   7.515  0.2961 -0.7993  0.0076
 6209SOL    HW119205   7.104   6.425   7.427  0.5166 -0.4158 -0.1538
 6209SOL    HW219206   7.123   6.360   7.562  0.3256 -1.0694 -0.4393
 6210SOL     OW19207   6.824   5.575   6.015 -0.1429 -0.6359 -0.2165
 6210SOL    HW119208   6.864   5.491   6.039  0.5770 -0.1550  0.3049
 6210SOL    HW219209   6.824   5.574   5.919  1.3475 -0.5697 -0.2500
 6211SOL     OW19210   4.893   1.002   7.847  0.0998  0.1225  0.7501
 6211SOL    HW119211   4.916   1.001   7.755  0.8068  0.2762  0.9203
 6211SOL    HW219212   4.830   1.073   7.856 -0.1106 -0.0148  0.3569
 6212SOL     OW19213   7.453   4.942   3.067  0.4717 -0.8016 -0.2795
 6212SOL    HW119214   7.367   4.952   3.107  0.3808 -0.7417 -0.4921
 6212SOL    HW219215   7.509   5.003   3.116  0.4672 -1.0751  0.0706
 6213SOL     OW19216   2.244   6.434   6.402  0.1955 -0.5679 -0.3096
 6213SOL    HW119217   2.322   6.447   6.456 -0.1269 -1.6826  0.4661
 6213SOL    HW219218   2.278   6.421   6.313  0.9544 -1.5856  0.1085
 6214SOL     OW19219   1.159   6.052   6.809  0.1726 -0.4958  0.0546
 6214SOL    HW119220   1.133   5.973   6.762  0.5224  0.6493 -2.2580
 6214SOL    HW219221   1.140   6.123   6.747 -0.2674  1.2584  2.0978
 6215SOL     OW19222   0.449   3.187   7.615 -0.3377  0.0224 -0.0729
 6215SOL    HW119223   0.417   3.197   7.705  0.8676  0.0682  0.3701
 6215SOL    HW219224   0.406   3.107   7.583 -1.6883  0.6472  0.1097
 6216SOL     OW19225   9.525   7.220   9.012 -0.2378  0.0106  0.1261
 6216SOL    HW119226   9.562   7.131   9.008  1.1833  0.6056 -1.0642
 6216SOL    HW219227   9.468   7.226   8.936  0.6432  0.4976 -0.5145
 6217SOL     OW19228   5.050   2.839   0.806  0.5137  0.0265  0.6237
 6217SOL    HW119229   5.125   2.813   0.752  1.6273  2.0121  1.1092
 6217SOL    HW219230   4.988   2.877   0.743  0.2741 -0.8359  0.3281
 6218SOL     OW19231   4.569   6.367   3.331  0.1325 -1.0382  0.2376
 6218SOL    HW119232   4.662   6.347   3.319  0.0559 -1.4804  0.3449
 6218SOL    HW219233   4.526   6.324   3.257 -0.2272 -2.8685  1.4410
 6219SOL     OW19234   4.774   9.017   9.996 -0.1876 -0.2978  0.1728
 6219SOL    HW119235   4.777   8.961   9.919  0.3782 -1.4255  0.9832
 6219SOL    HW219236   4.688   9.059   9.992  0.2744  0.5648 -1.6524
 6220SOL     OW19237   3.511   4.686   8.831 -0.3983 -0.6207 -0.0149
 6220SOL    HW119238   3.482   4.630   8.903  0.0098  0.7136  1.2517
 6220SOL    HW219239   3.606   4.679   8.831 -0.3001  0.4731  0.5363
 6221SOL     OW19240   4.681   2.174   2.500  0.1083  0.9778  0.6333
 6221SOL    HW119241   4.629   2.232   2.444  0.2650 -0.2879 -0.8811
 6221SOL    HW219242   4.770   2.210   2.495  0.3657  0.2031 -0.9473
 6222SOL     OW19243   2.226   5.513   9.596 -0.6742  0.1450 -0.2100
 6222SOL    HW119244   2.232   5.601   9.634 -2.0346 -0.4095  1.3813
 6222SOL    HW219245   2.312   5.474   9.613 -1.3890 -0.2824  2.9468
 6223SOL     OW19246   5.767   3.117   0.473  0.2790  0.6148  0.0781
 6223SOL    HW119247   5.799   3.039   0.429  1.2934  0.4767  1.0097
 6223SOL    HW219248   5.675   3.123   0.447 -0.5076 -2.1871  1.6879
 6224SOL     OW19249   8.824   8.269   8.155  0.2280 -0.1726 -0.1114
 6224SOL    HW119250   8.813   8.224   8.072  1.1290 -0.3788 -0.1296
 6224SOL    HW219251   8.737   8.271   8.194 -0.1248 -0.4022 -0.8921
 6225SOL     OW19252   0.933   4.010   8.336 -0.2501 -0.0452 -0.8311
 6225SOL    HW119253   0.942   4.088   8.281  0.2259 -0.5447 -1.4710
 6225SOL    HW219254   0.982   3.942   8.290  0.2957 -0.4387  0.2802
 6226SOL     OW19255   9.879   5.568   6.648 -0.7626  0.3453  0.2722
 6226SOL    HW119256   9.964   5.541   6.685 -1.1648 -0.0056  0.9551
 6226SOL    HW219257   9.896   5.654   6.612 -0.4776  0.9732  1.8025
 6227SOL     OW19258   8.418   0.565   2.055 -0.8386 -0.4672 -0.0435
 6227SOL    HW119259   8.496   0.540   2.104 -0.8157  0.0528  0.1961
 6227SOL    HW219260   8.452   0.621   1.984 -1.1738  1.8052  1.4677
 6228SOL     OW19261   8.765   8.092   0.185 -0.2775 -0.4809  0.3201
 6228SOL    HW119262   8.849   8.138   0.175 -0.3366 -0.3104  0.5910
 6228SOL    HW219263   8.757   8.040   0.106 -0.7151  0.7909 -0.5004
 6229SOL     OW19264   9.087   1.359   4.856  0.4838  0.0457 -0.0685
 6229SOL    HW119265   9.020   1.292   4.842  1.9107 -1.1511 -1.5317
 6229SOL    HW219266   9.123   1.339   4.943 -1.8339  1.5178  1.3646
 6230SOL     OW19267   7.690   6.947   6.072  0.1349  0.0812 -0.7851
 6230SOL    HW119268   7.714   6.871   6.019 -2.5226  0.3417 -2.5393
 6230SOL    HW219269   7.681   7.019   6.010 -2.1782  0.6272  0.0714
 6231SOL     OW19270   6.094   3.863   7.660  0.1881 -0.2847 -0.6105
 6231SOL    HW119271   6.012   3.884   7.705  0.2188 -0.5418 -0.4350
 6231SOL    HW219272   6.072   3.788   7.604  0.5524 -1.0248  0.2148
 6232SOL     OW19273   7.955   3.026   7.934  0.4076 -0.0959  0.1451
 6232SOL    HW119274   7.971   3.121   7.935 -0.4060  0.1491 -2.6775
 6232SOL    HW219275   7.867   3.017   7.898  0.9119 -1.9699 -0.6900
 6233SOL     OW19276   7.521   7.037   5.401 -0.1595 -0.1473 -0.4425
 6233SOL    HW119277   7.525   6.943   5.415  0.0696  0.1652  2.1096
 6233SOL    HW219278   7.437   7.051   5.358 -0.9154 -1.3944  0.5576
 6234SOL     OW19279   1.339   0.916   2.339 -0.2216  0.3886 -0.0268
 6234SOL    HW119280   1.333   0.930   2.433 -1.1480  0.4112 -0.0874
 6234SOL    HW219281   1.433   0.915   2.321 -0.0416  0.3471  0.8999
 6235SOL     OW19282   8.619   4.382   2.300  0.1275 -0.3704  0.0545
 6235SOL    HW119283   8.537   4.338   2.282  0.0375  0.3568 -1.5555
 6235SOL    HW219284   8.619   4.397   2.394 -1.9340  0.2846 -0.0037
 6236SOL     OW19285   0.653   0.888   6.802  0.8653 -0.5416  0.0153
 6236SOL    HW119286   0.559   0.868   6.791  0.8667 -0.8294  0.4976
 6236SOL    HW219287   0.655   0.962   6.862  0.8180  1.6719 -2.5543
 6237SOL     OW19288   9.534   9.715   0.327 -0.1505 -0.1383  0.3256
 6237SOL    HW119289   9.557   9.647   0.391  1.3137  0.5926  0.6121
 6237SOL    HW219290   9.510   9.791   0.380 -0.1889  0.0724  0.0086
 6238SOL     OW19291   0.347   0.920   3.470 -0.0684  0.1867 -1.0816
 6238SOL    HW119292   0.358   0.970   3.389  2.1932  0.7224 -0.4914
 6238SOL    HW219293   0.318   0.984   3.534  0.1557  0.1828 -0.9764
 6239SOL     OW19294   2.767   9.653   6.607  0.0598 -0.4301 -0.3047
 6239SOL    HW119295   2.859   9.630   6.621 -0.0303 -0.4611  0.2406
 6239SOL    HW219296   2.718   9.579   6.641 -0.1777 -0.3104 -0.3839
 6240SOL     OW19297   2.612   7.781   0.789  0.2769 -0.0769  0.1940
 6240SOL    HW119298   2.603   7.748   0.878 -1.0380 -2.0386 -0.6096
 6240SOL    HW219299   2.638   7.705   0.737 -0.8073  0.5789 -1.4071
 6241SOL     OW19300   8.375   6.312   8.420 -0.3347 -0.1641 -0.5579
 6241SOL    HW119301   8.296   6.259   8.416 -0.2723 -0.2813 -0.2423
 6241SOL    HW219302   8.344   6.400   8.445 -0.2575 -0.4641  0.6685
 6242SOL     OW19303   8.695   3.102   9.872  0.4561 -0.4965 -0.4895
 6242SOL    HW119304   8.748   3.059   9.939  0.1303  0.8043  0.6461
 6242SOL    HW219305   8.605   3.078   9.894  0.4194 -1.0866 -1.2355
 6243SOL     OW19306   6.329   4.034   3.362  0.1126 -0.4190  0.4372
 6243SOL    HW119307   6.344   4.126   3.384  0.3516 -0.3859  0.1340
 6243SOL    HW219308   6.393   4.014   3.294  1.4703 -1.3936  1.9274
 6244SOL     OW19309   7.488   6.752   0.461 -0.5027 -0.1661  0.5553
 6244SOL    HW119310   7.499   6.829   0.516  0.4361 -0.1797  0.4042
 6244SOL    HW219311   7.444   6.688   0.517  2.2448 -0.9252  2.0233
 6245SOL     OW19312   4.298   8.176   1.331  0.5864  0.3135  0.4837
 6245SOL    HW119313   4.270   8.086   1.312  0.4579  0.4631 -0.0341
 6245SOL    HW219314   4.234   8.231   1.286  0.2048  0.6771  1.4370
 6246SOL     OW19315   4.475   7.923   0.052  0.1573 -0.4606  0.0446
 6246SOL    HW119316   4.424   7.889  -0.023  1.0726 -1.0354 -0.3345
 6246SOL    HW219317   4.481   7.848   0.111 -0.0147 -0.1899  0.4047
 6247SOL     OW19318   6.578   5.687   0.181 -0.0232 -0.4375  0.3725
 6247SOL    HW119319   6.483   5.672   0.188 -0.0719 -0.1608  0.3138
 6247SOL    HW219320   6.617   5.606   0.213 -0.2669  0.0633  2.0542
 6248SOL     OW19321   1.749   2.661   4.312  0.0125  0.1579  0.0624
 6248SOL    HW119322   1.822   2.721   4.296  0.0944  0.1097  0.2537
 6248SOL    HW219323   1.705   2.654   4.228 -0.2744  0.8533  0.1465
 6249SOL     OW19324   4.375   2.212   1.563  0.0956  0.3099 -0.4697
 6249SOL    HW119325   4.280   2.220   1.567  0.1335  0.6811 -0.2071
 6249SOL    HW219326   4.403   2.205   1.654  0.2027 -1.4131 -0.6186
 6250SOL     OW19327   7.488   9.953   8.247  0.3972  0.0005  0.0879
 6250SOL    HW119328   7.499  10.048   8.252  0.1826  0.0699 -0.7328
 6250SOL    HW219329   7.513   9.922   8.334 -0.0895  0.8605  0.5467
 6251SOL     OW19330   6.117   4.138   9.333  0.2129  0.6321  0.2917
 6251SOL    HW119331   6.144   4.046   9.334 -1.1546  0.1832 -0.9278
 6251SOL    HW219332   6.199   4.187   9.327  1.0411 -0.4298  2.0133
 6252SOL     OW19333   3.084   1.274   0.957  0.6782 -0.4845 -0.9225
 6252SOL    HW119334   3.177   1.267   0.933  0.7873 -0.2443 -0.5586
 6252SOL    HW219335   3.056   1.357   0.919 -0.0700 -1.7297 -3.3332
 6253SOL     OW19336   3.741   7.201   3.400  0.7027  0.0785  0.1387
 6253SOL    HW119337   3.688   7.245   3.466  0.3844 -0.5074  0.2857
 6253SOL    HW219338   3.742   7.109   3.428 -3.3060 -1.2619 -3.0016
 6254SOL     OW19339   7.498   0.816   4.979  0.0183 -0.1509 -0.2802
 6254SOL    HW119340   7.489   0.912   4.978  2.9970  0.3330  1.8610
 6254SOL    HW219341   7.428   0.786   5.037 -1.1154  0.6771 -1.1858
 6255SOL     OW19342   9.273   6.776   6.267  0.0401  0.2145  0.6765
 6255SOL    HW119343   9.221   6.854   6.249  1.1316  1.3769  2.2508
 6255SOL    HW219344   9.343   6.807   6.326  1.1379 -1.7341  0.4846
 6256SOL     OW19345   5.860   8.055   6.906 -0.1193  0.5693 -0.4900
 6256SOL    HW119346   5.819   8.002   6.974  0.7580  0.4327 -0.0584
 6256SOL    HW219347   5.805   8.133   6.900 -0.4596  0.3783  0.0532
 6257SOL     OW19348   1.378   1.100   7.788 -0.4148  0.0140  0.2167
 6257SOL    HW119349   1.295   1.093   7.740  0.5237  2.0174 -1.8986
 6257SOL    HW219350   1.392   1.194   7.799  2.5592 -0.0928 -1.4853
 6258SOL     OW19351   5.620   2.522   1.711 -0.0590  0.2284  0.5422
 6258SOL    HW119352   5.541   2.515   1.658 -0.2264  0.7826  0.7130
 6258SOL    HW219353   5.589   2.529   1.801  0.1949  0.1586  0.6371
 6259SOL     OW19354   7.795   6.432   7.464  0.3019  0.0574  0.1613
 6259SOL    HW119355   7.855   6.368   7.501  1.2589  2.5258  3.3674
 6259SOL    HW219356   7.845   6.472   7.392  0.2289 -1.6718 -0.9189
 6260SOL     OW19357   0.918   7.545   0.625 -0.0179 -0.5341 -0.1404
 6260SOL    HW119358   0.995   7.600   0.608 -0.6336  0.2852 -0.3628
 6260SOL    HW219359   0.906   7.496   0.544  0.4366 -0.8746 -0.0039
 6261SOL     OW19360   2.388   5.715   1.035 -0.1658  0.2287  0.4301
 6261SOL    HW119361   2.421   5.803   1.054 -1.8377  0.5687  2.0773
 6261SOL    HW219362   2.301   5.713   1.075 -1.1999 -1.3756 -1.6682
 6262SOL     OW19363   9.404   4.346   6.337  0.0030  0.9365 -0.4148
 6262SOL    HW119364   9.489   4.373   6.300 -0.2145  1.1239 -0.7901
 6262SOL    HW219365   9.426   4.275   6.397  0.2273 -0.4091 -2.0211
 6263SOL     OW19366   2.586   0.071   4.850  0.1153 -0.4337 -0.4404
 6263SOL    HW119367   2.602   0.165   4.858  1.3877 -0.6211 -0.5247
 6263SOL    HW219368   2.672   0.031   4.865 -0.4563 -1.5981 -0.1674
 6264SOL     OW19369   8.227   0.751   4.189  0.2237  0.1028 -0.4851
 6264SOL    HW119370   8.256   0.842   4.196 -3.0113  1.4126 -2.0194
 6264SOL    HW219371   8.241   0.728   4.097 -1.3413  0.0500 -0.7493
 6265SOL     OW19372   5.096   3.710   6.006 -0.2091 -0.1575 -0.2415
 6265SOL    HW119373   5.097   3.622   5.969 -0.1156  0.5318 -1.9799
 6265SOL    HW219374   5.022   3.710   6.066 -1.5397 -0.8309 -1.8015
 6266SOL     OW19375   4.228   5.809   0.422  0.4335 -0.3768 -0.4733
 6266SOL    HW119376   4.247   5.716   0.428  1.1683 -0.1276  1.9785
 6266SOL    HW219377   4.312   5.850   0.404  0.1407 -0.1425 -1.3712
 6267SOL     OW19378   9.980   6.289   0.716  0.7608 -0.0909 -0.2555
 6267SOL    HW119379   9.887   6.280   0.695  0.0370  0.9817  2.1086
 6267SOL    HW219380  10.022   6.218   0.667 -1.4470 -1.3178 -0.5326
 6268SOL     OW19381   0.797   2.384   2.328 -0.2639  0.0079 -0.3523
 6268SOL    HW119382   0.857   2.309   2.330  1.6665  1.3322  3.9749
 6268SOL    HW219383   0.726   2.359   2.388 -1.2881  0.4769 -1.3464
 6269SOL     OW19384   8.068   8.202   6.745 -0.4401  0.5436 -0.2400
 6269SOL    HW119385   7.994   8.173   6.799 -0.3807  1.8011  0.5620
 6269SOL    HW219386   8.028   8.254   6.675 -0.5228 -1.1395 -1.5114
 6270SOL     OW19387   8.732   5.463   7.097 -0.1903 -0.6727 -0.2135
 6270SOL    HW119388   8.651   5.507   7.123 -1.3774 -2.9246  0.1469
 6270SOL    HW219389   8.781   5.530   7.049 -0.0254  2.2621  3.5326
 6271SOL     OW19390   8.196   9.690   9.317 -0.5603 -0.4687 -0.1149
 6271SOL    HW119391   8.264   9.689   9.384 -0.2780  0.7098 -0.3615
 6271SOL    HW219392   8.153   9.775   9.328 -1.7891 -1.0608 -0.1730
 6272SOL     OW19393   5.034   9.045   1.892  0.5915 -0.2331  0.1021
 6272SOL    HW119394   5.102   8.978   1.888  0.5943 -0.1587 -1.2419
 6272SOL    HW219395   5.043   9.096   1.812  0.1228  0.9442  0.7545
 6273SOL     OW19396   8.397   9.896   4.286  0.8969  0.1534 -0.0065
 6273SOL    HW119397   8.336   9.953   4.239  0.1349 -0.3551  0.3403
 6273SOL    HW219398   8.355   9.809   4.283  1.7021 -0.2427  0.0744
 6274SOL     OW19399   2.341   1.078   7.256  0.3337  0.4911 -0.8695
 6274SOL    HW119400   2.292   1.132   7.193  0.2833 -0.8591 -2.0541
 6274SOL    HW219401   2.432   1.102   7.243  0.3524  0.0089 -1.7009
 6275SOL     OW19402   3.379   8.748   7.393 -0.6356 -0.0093  0.1178
 6275SOL    HW119403   3.468   8.781   7.386 -0.1654 -0.8958  1.5982
 6275SOL    HW219404   3.338   8.803   7.461 -0.7667 -0.5359  0.4683
 6276SOL     OW19405   9.211   5.385   8.342  0.1401 -0.1734  0.1612
 6276SOL    HW119406   9.258   5.311   8.381 -0.9888 -0.5001  0.9336
 6276SOL    HW219407   9.250   5.462   8.383  1.1012 -0.3369 -0.4084
 6277SOL     OW19408   9.045   5.180   3.898  0.4811 -0.0453  0.0325
 6277SOL    HW119409   9.109   5.162   3.966  0.6009 -1.0243 -0.3296
 6277SOL    HW219410   8.969   5.214   3.945  0.3822 -1.1685  0.7206
 6278SOL     OW19411   6.375   9.212   1.996 -0.7461  0.1443  0.1180
 6278SOL    HW119412   6.306   9.268   2.032  0.6482  0.6457  2.1697
 6278SOL    HW219413   6.434   9.196   2.069  1.9089  0.5906 -1.7845
 6279SOL     OW19414   4.338   9.165   1.850 -0.5012  0.4012  0.3738
 6279SOL    HW119415   4.323   9.077   1.883 -0.0269  0.4516  0.7309
 6279SOL    HW219416   4.395   9.206   1.915 -2.1243  1.5634  1.1467
 6280SOL     OW19417   2.132   8.053   5.438  0.4071 -0.3176  0.4129
 6280SOL    HW119418   2.215   8.008   5.421  0.4073 -0.2893  0.3375
 6280SOL    HW219419   2.065   7.993   5.405  0.3346 -0.7837  1.3612
 6281SOL     OW19420   4.799   6.932   0.365 -0.2024 -0.4007 -0.3396
 6281SOL    HW119421   4.846   6.910   0.284  0.9074 -0.3972  0.2931
 6281SOL    HW219422   4.864   6.924   0.434 -1.6369 -2.5752  0.8696
 6282SOL     OW19423   7.006   1.419   8.179 -0.0844 -0.2757 -0.1392
 6282SOL    HW119424   6.969   1.496   8.222 -1.9613 -0.3964 -1.4206
 6282SOL    HW219425   7.099   1.422   8.200 -0.2611  1.8469  0.5527
 6283SOL     OW19426   5.298   2.355   7.493 -0.0496  0.0991  0.1027
 6283SOL    HW119427   5.222   2.300   7.514 -0.9204  1.6654  1.3409
 6283SOL    HW219428   5.271   2.405   7.417 -1.2368  2.2458  1.8043
 6284SOL     OW19429   5.126   0.421   2.928 -0.0486 -0.4523 -0.3991
 6284SOL    HW119430   5.056   0.381   2.979 -0.4594  1.3620  0.5505
 6284SOL    HW219431   5.195   0.439   2.992 -0.0365  0.6643 -0.7014
 6285SOL     OW19432   0.755   7.271   5.054  0.0665  0.0061 -0.1839
 6285SOL    HW119433   0.797   7.194   5.091 -0.1434 -0.1786 -0.3320
 6285SOL    HW219434   0.704   7.307   5.127 -1.9666 -1.4879 -0.7978
 6286SOL     OW19435   9.352   5.222   8.533  0.3149  0.2028  0.1238
 6286SOL    HW119436   9.304   5.204   8.614  0.1983 -1.6644 -0.3140
 6286SOL    HW219437   9.431   5.168   8.540  0.2970  0.0120 -1.0075
 6287SOL     OW19438   7.259   8.577   5.014 -0.7259  0.6128  0.0227
 6287SOL    HW119439   7.246   8.620   4.929  0.4225  0.9331 -0.0107
 6287SOL    HW219440   7.247   8.646   5.078 -0.9747  0.5070  0.0912
 6288SOL     OW19441   0.992   7.476   2.836  0.6667  0.3509  0.0587
 6288SOL    HW119442   0.979   7.385   2.860  0.3369  0.1331 -0.9189
 6288SOL    HW219443   0.963   7.526   2.913  1.8404 -0.3732  1.0116
 6289SOL     OW19444   5.882   5.903   7.477 -0.2527 -0.0934  0.5902
 6289SOL    HW119445   5.832   5.939   7.550 -0.8486  1.2676 -0.4437
 6289SOL    HW219446   5.828   5.831   7.444 -0.5620  0.0645  0.7471
 6290SOL     OW19447   3.442   8.288   6.761  0.2434 -0.0345 -0.4765
 6290SOL    HW119448   3.418   8.305   6.852 -2.5305 -1.3869 -0.8511
 6290SOL    HW219449   3.520   8.232   6.767  0.2899  0.1391  1.0264
 6291SOL     OW19450   3.259   1.693   2.260 -0.3717 -0.2083 -0.8424
 6291SOL    HW119451   3.325   1.708   2.327 -0.5603 -1.1240 -0.4381
 6291SOL    HW219452   3.279   1.757   2.192  1.2602 -0.8099 -0.9722
 6292SOL     OW19453   9.692   0.096   9.337  0.2040 -0.4484 -0.1461
 6292SOL    HW119454   9.712   0.144   9.256  0.7889 -3.1639 -1.7512
 6292SOL    HW219455   9.776   0.090   9.382 -0.1838  1.3610  0.9440
 6293SOL     OW19456   8.358   6.159   0.547  0.4118 -0.2459  0.4212
 6293SOL    HW119457   8.395   6.240   0.583 -2.0842  0.1232  2.4399
 6293SOL    HW219458   8.429   6.095   0.552  1.3207  0.8420  2.4576
 6294SOL     OW19459   8.951   3.397   2.719  0.2387  0.4602 -0.3802
 6294SOL    HW119460   8.976   3.431   2.633 -0.9675  1.6245 -0.3042
 6294SOL    HW219461   8.856   3.387   2.714  0.2655 -0.3625  0.5192
 6295SOL     OW19462   9.491   3.175   1.748 -0.4724  0.2775  0.6506
 6295SOL    HW119463   9.472   3.236   1.820  0.5238  0.4678  0.7799
 6295SOL    HW219464   9.414   3.179   1.692 -0.3692  1.8092  0.5683
 6296SOL     OW19465   5.542   3.935   4.013 -0.1996 -0.4365  0.1631
 6296SOL    HW119466   5.474   3.944   4.081  1.1757 -0.8627  1.6620
 6296SOL    HW219467   5.575   4.024   4.001 -1.5999 -0.0680 -1.2491
 6297SOL     OW19468   6.414   8.574   0.247  0.1864 -0.1939 -0.3128
 6297SOL    HW119469   6.343   8.516   0.273  0.4773 -0.1929  0.5382
 6297SOL    HW219470   6.390   8.605   0.160 -1.8677  1.3793  0.7235
 6298SOL     OW19471   7.431   2.051   1.570 -0.0853 -0.1088 -0.1551
 6298SOL    HW119472   7.439   2.102   1.651  1.4923  0.1531 -0.4342
 6298SOL    HW219473   7.390   2.111   1.508 -1.7801 -0.4829  0.5724
 6299SOL     OW19474   8.903   5.080   3.254 -0.4513 -0.0971  0.1574
 6299SOL    HW119475   8.956   5.128   3.318  0.0205 -0.3482 -0.0445
 6299SOL    HW219476   8.840   5.145   3.222 -0.7353  0.0133  0.9185
 6300SOL     OW19477   8.306   9.026   9.383  0.1571  0.5904  0.6791
 6300SOL    HW119478   8.257   8.967   9.326 -2.1738  1.2879  1.8203
 6300SOL    HW219479   8.261   9.111   9.375  1.5581  1.4299  1.3491
 6301SOL     OW19480   1.428   4.937   0.360 -0.2825 -0.2561  0.3936
 6301SOL    HW119481   1.517   4.928   0.396  0.2406  0.1643 -0.7367
 6301SOL    HW219482   1.371   4.909   0.431  0.7255  0.0606  1.3675
 6302SOL     OW19483   3.796   0.880   9.102  0.1960 -0.3039 -0.7473
 6302SOL    HW119484   3.765   0.871   9.012  1.1764 -0.7039 -1.0554
 6302SOL    HW219485   3.856   0.954   9.100  0.9550 -0.9043 -0.6378
 6303SOL     OW19486   4.551   7.291   2.910 -0.0174 -0.7982 -0.2679
 6303SOL    HW119487   4.520   7.372   2.950  0.9149 -0.3805 -0.3942
 6303SOL    HW219488   4.587   7.317   2.826 -1.3101 -1.5859 -1.0968
 6304SOL     OW19489   1.646   9.992   3.580  0.0656  0.1516 -0.4845
 6304SOL    HW119490   1.586   9.939   3.633  1.5656 -0.3667  0.7574
 6304SOL    HW219491   1.733   9.966   3.608  0.9493  0.0848 -3.0267
 6305SOL     OW19492   5.697   0.919   8.518  0.3066 -0.2291 -0.1364
 6305SOL    HW119493   5.781   0.899   8.477 -0.5675 -1.7015 -1.2932
 6305SOL    HW219494   5.697   0.867   8.599  0.0270 -1.1721 -0.7358
 6306SOL     OW19495   3.274   2.015   4.907 -0.2524  0.0288 -0.4996
 6306SOL    HW119496   3.266   1.975   4.820  0.8750  1.7974 -1.4675
 6306SOL    HW219497   3.306   2.103   4.890 -2.8868  1.5348  1.5046
 6307SOL     OW19498   9.956   0.674   8.512 -0.3345 -0.2161 -0.0928
 6307SOL    HW119499   9.931   0.718   8.593  0.6117 -0.5587  0.4042
 6307SOL    HW219500   9.999   0.593   8.541 -1.2673 -1.0504 -0.9720
 6308SOL     OW19501   6.061   6.832   8.578  0.0026  0.2073  0.5675
 6308SOL    HW119502   6.000   6.784   8.635  0.8883 -0.2201  1.1783
 6308SOL    HW219503   6.119   6.878   8.638 -0.6660  1.8854 -0.0134
 6309SOL     OW19504   4.441   5.534   0.935 -0.0936  0.4720  0.8909
 6309SOL    HW119505   4.466   5.626   0.941  0.0520  0.5025 -0.1178
 6309SOL    HW219506   4.348   5.536   0.913 -0.4085  0.3626  2.1448
 6310SOL     OW19507   9.174   3.330   7.603  0.2944 -0.3465 -0.0874
 6310SOL    HW119508   9.159   3.248   7.555 -0.4766 -0.0230 -0.4173
 6310SOL    HW219509   9.129   3.397   7.551 -2.1585 -0.2383  1.9824
 6311SOL     OW19510   3.143   4.259   9.404 -0.3212  0.3324  0.4116
 6311SOL    HW119511   3.179   4.319   9.339 -1.5512  1.0533  0.3629
 6311SOL    HW219512   3.208   4.257   9.474  1.3474 -0.9641 -1.0648
 6312SOL     OW19513   8.138   0.808   5.058 -0.2300 -0.0756 -0.3562
 6312SOL    HW119514   8.146   0.900   5.084 -0.0652  0.2641 -1.5622
 6312SOL    HW219515   8.146   0.759   5.140 -2.0785  1.0493  0.5430
 6313SOL     OW19516   0.518   7.430   3.970 -0.3709 -0.0437  0.5108
 6313SOL    HW119517   0.499   7.490   4.043 -0.3175  0.0230  0.4708
 6313SOL    HW219518   0.447   7.446   3.907  0.3049  0.8605 -0.0416
 6314SOL     OW19519   4.285   3.943   6.336 -0.1785 -0.3346 -0.0589
 6314SOL    HW119520   4.275   3.849   6.320 -0.8459 -1.0975  3.8365
 6314SOL    HW219521   4.379   3.954   6.353 -0.0524 -0.2092 -0.8025
 6315SOL     OW19522   3.889   5.058   4.161 -0.0671 -0.1587  0.0224
 6315SOL    HW119523   3.921   5.119   4.095 -0.7326  0.9297  0.6697
 6315SOL    HW219524   3.869   4.978   4.113  0.2697  0.3218 -0.9417
 6316SOL     OW19525   5.420   2.818   1.925  0.1324 -1.0726 -1.1690
 6316SOL    HW119526   5.404   2.813   1.831  0.1851  1.3331 -1.3665
 6316SOL    HW219527   5.333   2.816   1.965  0.1255 -5.9676 -0.8460
 6317SOL     OW19528   2.047   3.443   1.829 -0.1973  0.1546 -0.6116
 6317SOL    HW119529   2.067   3.365   1.881 -0.1800 -0.1394 -1.0598
 6317SOL    HW219530   1.992   3.497   1.887 -0.5045 -0.3512 -0.4288
 6318SOL     OW19531   6.230   9.311   9.126 -0.1138 -0.2818  0.2209
 6318SOL    HW119532   6.134   9.304   9.131 -0.4705  2.7654 -0.7367
 6318SOL    HW219533   6.255   9.240   9.067 -1.8054 -0.9570  0.2416
 6319SOL     OW19534   9.598   5.938   4.823  0.3503 -0.2588  0.7903
 6319SOL    HW119535   9.576   5.874   4.891 -2.0400  0.3044  0.6425
 6319SOL    HW219536   9.525   5.932   4.761  0.9680  1.3860 -0.1425
 6320SOL     OW19537   5.463   3.572   7.214 -1.0418 -0.0231 -0.1962
 6320SOL    HW119538   5.436   3.614   7.295 -0.9065  0.4271 -0.3800
 6320SOL    HW219539   5.556   3.595   7.205 -0.8643 -0.6812 -0.1051
 6321SOL     OW19540   5.491   8.205   5.516  0.0291 -0.1314  0.5117
 6321SOL    HW119541   5.554   8.177   5.582  0.2974 -0.2184  0.2216
 6321SOL    HW219542   5.544   8.228   5.440 -0.4286 -3.0521 -0.8102
 6322SOL     OW19543   2.728   5.131   6.977 -0.1295 -0.1477  0.3780
 6322SOL    HW119544   2.771   5.105   7.059  0.1753 -0.2852  0.1744
 6322SOL    HW219545   2.797   5.175   6.927 -0.3238 -0.0395  0.2054
 6323SOL     OW19546   9.677   2.840   2.326  0.0941  0.3404 -0.2341
 6323SOL    HW119547   9.714   2.926   2.309 -0.3581  0.6673  0.3918
 6323SOL    HW219548   9.749   2.789   2.363  0.3502  0.4595 -0.5694
 6324SOL     OW19549   3.155   0.804   9.831 -0.4215  0.2608 -0.1376
 6324SOL    HW119550   3.169   0.709   9.822  0.0171  0.0353  2.1457
 6324SOL    HW219551   3.089   0.825   9.766 -0.8857 -1.7243 -0.3850
 6325SOL     OW19552   1.520   7.626   2.827  0.0432  0.1099 -0.1134
 6325SOL    HW119553   1.483   7.690   2.767 -0.9522 -1.1004 -0.8320
 6325SOL    HW219554   1.444   7.584   2.868  0.6638 -0.7458  0.1933
 6326SOL     OW19555   3.888   9.566   9.650  0.3855 -0.7000 -0.0593
 6326SOL    HW119556   3.905   9.490   9.706  0.2367  0.1556  1.2060
 6326SOL    HW219557   3.866   9.529   9.565 -1.4488 -2.1391  0.9699
 6327SOL     OW19558   7.456   7.674   0.148  0.4221 -0.7028  0.0528
 6327SOL    HW119559   7.512   7.648   0.222 -3.0115  0.0098  3.1470
 6327SOL    HW219560   7.477   7.766   0.133  2.0556 -1.1816 -0.8489
 6328SOL     OW19561   3.015   8.462   0.010 -0.4326  0.2901 -0.6420
 6328SOL    HW119562   2.954   8.396  -0.024  0.5470 -0.1670 -1.5863
 6328SOL    HW219563   3.058   8.418   0.083 -1.2979  0.6500  0.0905
 6329SOL     OW19564   3.944   3.766   3.673 -0.3560  0.2694  0.5278
 6329SOL    HW119565   3.980   3.677   3.679 -1.0269 -0.1739 -1.3889
 6329SOL    HW219566   3.877   3.769   3.742  2.2869  0.6773  3.2771
 6330SOL     OW19567   4.914   0.455   8.450  0.2407 -0.2000 -0.0814
 6330SOL    HW119568   4.954   0.472   8.536 -0.5934  0.2129  0.2319
 6330SOL    HW219569   4.975   0.495   8.388 -0.1798  1.3408  0.4615
 6331SOL     OW19570   0.726   6.163   9.576 -0.4921  0.8854 -0.0498
 6331SOL    HW119571   0.808   6.166   9.527 -0.2286  1.7029  0.4138
 6331SOL    HW219572   0.668   6.223   9.529 -0.9454  0.0382 -0.5797
 6332SOL     OW19573   6.915   3.878   2.959 -0.1478 -0.1028  0.3012
 6332SOL    HW119574   6.994   3.903   3.008 -1.0579  0.1085  1.7004
 6332SOL    HW219575   6.878   3.805   3.009 -0.1226 -1.1212 -1.1124
 6333SOL     OW19576   1.556   6.485   5.705 -0.3066 -0.5151  0.3932
 6333SOL    HW119577   1.530   6.465   5.615  0.2890 -0.9350  0.3068
 6333SOL    HW219578   1.640   6.440   5.716  0.5802  1.1165  0.5371
 6334SOL     OW19579   5.907   8.701   7.156  0.1858  0.2609 -0.6545
 6334SOL    HW119580   5.881   8.625   7.103 -1.4808 -0.4372  1.0587
 6334SOL    HW219581   5.987   8.732   7.114  0.2461 -1.6765 -2.1578
 6335SOL     OW19582   0.959   9.343   3.759 -0.3193 -0.3026  0.2121
 6335SOL    HW119583   0.953   9.258   3.714  2.5377  0.0381 -0.9724
 6335SOL    HW219584   0.960   9.407   3.688  2.7689  0.3478  0.7443
 6336SOL     OW19585   8.602   7.415   5.673  0.3137  0.8654  0.2941
 6336SOL    HW119586   8.528   7.355   5.684  1.5039 -0.7139  0.2050
 6336SOL    HW219587   8.596   7.445   5.583 -0.2406  0.7799  0.2992
 6337SOL     OW19588   3.145   5.855   9.642  0.5682 -0.6865 -0.2055
 6337SOL    HW119589   3.094   5.798   9.701 -1.1707 -0.9056 -1.8308
 6337SOL    HW219590   3.084   5.924   9.617  2.2568  1.2353  0.6841
 6338SOL     OW19591   7.972   3.779   9.485 -0.1815 -0.7426  0.1131
 6338SOL    HW119592   8.003   3.689   9.476  1.7934 -0.1080  0.0600
 6338SOL    HW219593   7.939   3.785   9.575 -1.0013 -1.6772 -0.1048
 6339SOL     OW19594   1.882   0.747   5.524 -0.2362 -0.2862  0.4624
 6339SOL    HW119595   1.966   0.707   5.501  0.2710  1.0725 -0.1655
 6339SOL    HW219596   1.899   0.841   5.524 -2.0275  0.1005 -0.8768
 6340SOL     OW19597   0.714   2.117   8.379 -0.0097 -0.0968 -0.4278
 6340SOL    HW119598   0.751   2.202   8.357  0.5186 -0.4422 -0.8867
 6340SOL    HW219599   0.760   2.055   8.323  0.1879 -0.7903  0.4708
 6341SOL     OW19600   8.943   2.014   1.857  0.0745  0.2465 -0.2380
 6341SOL    HW119601   8.968   2.042   1.945 -0.3561 -0.9370  0.2799
 6341SOL    HW219602   8.973   2.085   1.800  1.8932  0.2588  0.6686
 6342SOL     OW19603   3.238   7.764   3.151  0.3730 -0.6839  0.6259
 6342SOL    HW119604   3.204   7.853   3.165  0.0315 -1.0064  1.9493
 6342SOL    HW219605   3.170   7.721   3.098  0.1526 -0.3955  0.6724
 6343SOL     OW19606   1.697   7.813   5.999 -0.5662  0.2819  0.1064
 6343SOL    HW119607   1.774   7.828   6.055 -0.2465 -0.4978 -0.1143
 6343SOL    HW219608   1.675   7.900   5.966  1.3520  0.3011 -1.2951
 6344SOL     OW19609   6.735   7.127   8.860 -0.8551  0.4632 -0.8565
 6344SOL    HW119610   6.737   7.214   8.899 -0.8214 -0.5046  1.4439
 6344SOL    HW219611   6.827   7.106   8.844 -0.6047 -0.1308  1.0649
 6345SOL     OW19612   9.155   2.193   5.950  0.8136  0.4739 -0.2532
 6345SOL    HW119613   9.107   2.274   5.936  2.1751  1.4655  0.5399
 6345SOL    HW219614   9.204   2.179   5.869 -1.3376 -0.9909 -1.3953
 6346SOL     OW19615   0.518   6.338   0.903 -0.4337 -0.4150 -0.5022
 6346SOL    HW119616   0.479   6.281   0.968  1.6508  0.1350  1.3637
 6346SOL    HW219617   0.574   6.397   0.954  0.6375  0.6028 -2.7283
 6347SOL     OW19618   1.111   8.426   3.532  0.1700  0.9300 -0.0654
 6347SOL    HW119619   1.016   8.435   3.527 -0.2603 -2.3127 -0.1287
 6347SOL    HW219620   1.134   8.463   3.617 -1.4786  0.0271  0.8335
 6348SOL     OW19621   7.216   9.415   4.359 -0.1873 -0.1174 -0.0430
 6348SOL    HW119622   7.293   9.471   4.369 -0.0414 -0.6984  3.0299
 6348SOL    HW219623   7.241   9.352   4.292  2.0225 -0.2633  0.8333
 6349SOL     OW19624   3.954   0.939   1.879  0.1440  0.1686 -0.1444
 6349SOL    HW119625   4.004   0.891   1.945  0.9493 -1.5148 -1.8858
 6349SOL    HW219626   3.865   0.942   1.913  0.0940 -2.4428  0.1842
 6350SOL     OW19627   5.660   3.332   2.025  0.2659  0.0938  0.2588
 6350SOL    HW119628   5.682   3.256   1.971 -0.7747  0.8646 -1.3229
 6350SOL    HW219629   5.565   3.340   2.019 -0.0056 -0.2469  2.9181
 6351SOL     OW19630   2.670   5.767   1.519 -0.2023  0.3420 -0.0210
 6351SOL    HW119631   2.642   5.849   1.561 -1.4027 -0.4922  0.8589
 6351SOL    HW219632   2.721   5.796   1.443  0.9182  1.9084  1.2421
 6352SOL     OW19633   6.415   5.665   5.279  0.2444  0.5380  0.5661
 6352SOL    HW119634   6.405   5.638   5.188  1.4223  0.4014  0.4615
 6352SOL    HW219635   6.331   5.644   5.320 -0.6553  1.5093 -0.7050
 6353SOL     OW19636   3.197   4.484   4.411 -0.2460 -0.5177  0.2246
 6353SOL    HW119637   3.260   4.523   4.471 -0.2278  1.1998 -0.8311
 6353SOL    HW219638   3.199   4.391   4.431  1.6959 -0.3454  1.0660
 6354SOL     OW19639   6.126   0.956   6.645 -0.0249 -0.4198  0.3936
 6354SOL    HW119640   6.066   1.024   6.675  0.8750  0.2201  0.8119
 6354SOL    HW219641   6.144   0.904   6.724 -1.5562 -1.8481 -0.1476
 6355SOL     OW19642   2.751   3.026   5.208  0.4122  0.4651  0.4057
 6355SOL    HW119643   2.756   2.993   5.297  0.2572 -0.1663  0.1879
 6355SOL    HW219644   2.661   3.059   5.200  0.1978 -0.1360  0.2667
 6356SOL     OW19645   5.350   4.256   1.354  0.2241 -0.4963  0.1899
 6356SOL    HW119646   5.414   4.319   1.321 -1.7901  1.7337  0.1838
 6356SOL    HW219647   5.298   4.232   1.278  0.2269 -1.2603  0.4194
 6357SOL     OW19648   8.284   4.664   0.100 -0.1258  0.2416 -0.0966
 6357SOL    HW119649   8.267   4.758   0.095  0.8591  0.4919  0.8770
 6357SOL    HW219650   8.249   4.629   0.018 -1.3511  1.3084 -0.0606
 6358SOL     OW19651   7.500   6.305   5.008  0.4264  0.4011  0.2881
 6358SOL    HW119652   7.517   6.398   5.017  1.0706  0.3649 -0.4823
 6358SOL    HW219653   7.406   6.296   5.026  0.5428  1.0554  1.2966
 6359SOL     OW19654   0.521   0.047   0.133  0.3814 -0.3465 -0.1310
 6359SOL    HW119655   0.428   0.062   0.153  0.6232  1.6943 -0.3060
 6359SOL    HW219656   0.520  -0.019   0.064 -0.9546 -0.1877 -0.3049
 6360SOL     OW19657   4.723   9.913   4.503 -0.0457  0.3195 -0.0327
 6360SOL    HW119658   4.660   9.941   4.437 -0.3120  1.7937  0.8026
 6360SOL    HW219659   4.674   9.853   4.559  0.3198 -1.3430 -1.4023
 6361SOL     OW19660   7.218   4.377   8.739  0.4369 -0.5607  0.1349
 6361SOL    HW119661   7.148   4.357   8.677 -0.0166  0.8490  0.1642
 6361SOL    HW219662   7.268   4.448   8.698 -0.7886  1.4846  1.9873
 6362SOL     OW19663   9.294   2.836   2.167  0.0434 -0.2138 -0.0989
 6362SOL    HW119664   9.233   2.824   2.239 -0.1546 -0.1170 -0.2476
 6362SOL    HW219665   9.324   2.748   2.146  1.2239 -0.1072  1.0563
 6363SOL     OW19666   1.467   5.334   3.630  0.4493  0.3991  0.0654
 6363SOL    HW119667   1.472   5.306   3.539  0.3422 -0.3372  0.2795
 6363SOL    HW219668   1.532   5.281   3.676 -0.1744  0.0594  0.5835
 6364SOL     OW19669   6.198   5.249   8.303 -0.6719 -0.2449 -0.2771
 6364SOL    HW119670   6.249   5.295   8.370 -0.1171  0.6497 -1.2796
 6364SOL    HW219671   6.181   5.163   8.341 -0.0777  0.1218  0.8737
 6365SOL     OW19672   0.536   8.482   1.549  0.4101 -0.4837  0.4626
 6365SOL    HW119673   0.450   8.520   1.532  0.6005 -0.1171  0.3129
 6365SOL    HW219674   0.588   8.554   1.584  0.7881 -0.5887  0.1242
 6366SOL     OW19675   5.707   4.156   4.359 -0.3382  0.4973 -0.2409
 6366SOL    HW119676   5.746   4.086   4.306 -0.5717 -0.3191  0.6203
 6366SOL    HW219677   5.756   4.234   4.336  2.7244 -0.6866  1.6657
 6367SOL     OW19678   7.483   6.261   6.005 -0.6214 -0.1551  0.1572
 6367SOL    HW119679   7.403   6.236   6.050  0.2903 -1.1330  1.3041
 6367SOL    HW219680   7.472   6.229   5.915 -1.6401  0.0343  0.2102
 6368SOL     OW19681   4.729   8.049   3.811  0.9892 -0.1397 -0.4123
 6368SOL    HW119682   4.737   8.144   3.808  1.4073 -0.1406  0.4497
 6368SOL    HW219683   4.813   8.017   3.778  1.1927 -0.2012  0.1597
 6369SOL     OW19684   3.760   0.202   8.138 -0.1575  0.6174  0.0412
 6369SOL    HW119685   3.718   0.173   8.057  0.3599  3.0205 -1.1541
 6369SOL    HW219686   3.847   0.163   8.136 -0.6382 -0.5372  0.2349
 6370SOL     OW19687   0.209   6.141   1.730 -0.2729 -0.2516  0.2190
 6370SOL    HW119688   0.148   6.087   1.780  0.8271  0.0938  2.0319
 6370SOL    HW219689   0.283   6.155   1.789  0.7887  0.7915 -1.2726
 6371SOL     OW19690   2.390   7.642   2.154 -0.6121 -0.2776  0.2496
 6371SOL    HW119691   2.332   7.575   2.190 -2.3526  1.6114  1.1599
 6371SOL    HW219692   2.357   7.658   2.066 -2.0548  1.2999  1.0112
 6372SOL     OW19693   8.658   5.828   2.046 -0.1467 -0.6965 -0.2298
 6372SOL    HW119694   8.684   5.745   2.008  0.2467 -0.7615  0.1763
 6372SOL    HW219695   8.571   5.812   2.083  0.4490 -1.2824  0.9598
 6373SOL     OW19696   8.466   1.143   1.427  0.7309  0.4473  0.3021
 6373SOL    HW119697   8.435   1.055   1.447  0.3920  0.3237 -0.7452
 6373SOL    HW219698   8.406   1.201   1.474 -0.5748  0.1827 -0.9632
 6374SOL     OW19699   3.850   5.472   8.435  0.1394 -0.4269 -0.1808
 6374SOL    HW119700   3.890   5.444   8.353 -1.1089  0.2021 -1.0314
 6374SOL    HW219701   3.756   5.463   8.421 -0.3283  2.8505 -0.0799
 6375SOL     OW19702   2.510   9.430   3.456 -0.1158  0.3275  0.2581
 6375SOL    HW119703   2.542   9.480   3.381 -0.8663 -3.5095 -2.9651
 6375SOL    HW219704   2.415   9.443   3.455 -0.3135 -0.9825 -0.5876
 6376SOL     OW19705   1.794   3.790   2.780 -0.0076 -0.2494  0.0161
 6376SOL    HW119706   1.870   3.809   2.724 -1.1302  0.9108 -1.1604
 6376SOL    HW219707   1.832   3.771   2.866  1.5465  2.0688 -0.0698
 6377SOL     OW19708   8.445   8.397   0.380 -0.3022 -0.1297  0.0767
 6377SOL    HW119709   8.489   8.381   0.296  2.3079  0.9490  1.1394
 6377SOL    HW219710   8.463   8.319   0.432  0.6470  0.4111  0.5945
 6378SOL     OW19711   1.297   9.022   9.007 -0.1241  0.3639  0.6051
 6378SOL    HW119712   1.369   9.075   9.043  1.1887 -0.1922 -1.0746
 6378SOL    HW219713   1.253   9.080   8.945 -1.6123  0.9219  2.1068
 6379SOL     OW19714   8.681   4.988   4.950 -0.0528 -0.4061 -0.2723
 6379SOL    HW119715   8.674   5.074   4.909  0.5161 -0.0787  0.2968
 6379SOL    HW219716   8.590   4.959   4.961 -0.2239 -0.1891 -1.1036
 6380SOL     OW19717   6.497   3.142   8.282  0.0519  0.2250 -0.4246
 6380SOL    HW119718   6.553   3.207   8.239 -0.0998 -0.1501 -1.2031
 6380SOL    HW219719   6.546   3.060   8.275 -0.2038  0.0641 -0.3180
 6381SOL     OW19720   3.560   6.751   8.225  0.1311  0.4025 -0.2374
 6381SOL    HW119721   3.499   6.774   8.295  0.8460  0.6773  0.3061
 6381SOL    HW219722   3.505   6.742   8.147 -0.4463  1.8443 -0.0194
 6382SOL     OW19723   5.225   3.927   4.784 -0.3296 -0.3445 -0.3951
 6382SOL    HW119724   5.316   3.927   4.814 -0.0685  0.9442 -1.1212
 6382SOL    HW219725   5.173   3.923   4.865  0.3461 -1.5388  0.0124
 6383SOL     OW19726   0.856   0.933   1.526 -0.3969  0.1598  0.7297
 6383SOL    HW119727   0.890   0.854   1.484  0.8334  0.2140  1.5872
 6383SOL    HW219728   0.769   0.944   1.488 -0.4697 -1.4244  0.3563
 6384SOL     OW19729   8.895   2.187   4.928  0.3204  0.1124  0.2626
 6384SOL    HW119730   8.808   2.227   4.926  0.2854  0.1463  1.5255
 6384SOL    HW219731   8.953   2.259   4.955  0.8772  0.2823 -1.2743
 6385SOL     OW19732   5.213   4.601   9.309  0.1982 -0.0538 -0.0864
 6385SOL    HW119733   5.148   4.553   9.258  0.4845 -0.0590 -0.4426
 6385SOL    HW219734   5.279   4.628   9.246 -0.4117  1.6147 -0.0695
 6386SOL     OW19735   7.935   1.064   5.723  0.5240 -0.3502  0.1631
 6386SOL    HW119736   7.979   1.091   5.804 -0.5978 -0.3598  0.8005
 6386SOL    HW219737   7.982   1.111   5.654  0.9782  0.3147  0.8962
 6387SOL     OW19738   7.865   0.810   1.627 -1.1686 -0.8970  0.5044
 6387SOL    HW119739   7.821   0.823   1.543  1.6937  1.0123 -0.8381
 6387SOL    HW219740   7.919   0.732   1.614 -0.1458 -0.1709  0.2381
 6388SOL     OW19741   7.795   9.419   8.142  0.0638  0.1069 -1.2004
 6388SOL    HW119742   7.735   9.433   8.069  0.0398 -0.7803 -1.3623
 6388SOL    HW219743   7.849   9.345   8.115  1.4210  1.0447 -1.1653
 6389SOL     OW19744  -0.026   3.768   2.507  0.2845  0.7726 -0.3125
 6389SOL    HW119745   0.012   3.684   2.483  1.0298  1.0974 -0.3052
 6389SOL    HW219746   0.018   3.793   2.588 -0.4611  0.8341  0.0873
 6390SOL     OW19747   3.715   4.828   0.952  0.0518 -0.1002  0.2700
 6390SOL    HW119748   3.797   4.871   0.976  0.0385 -0.0606  0.2450
 6390SOL    HW219749   3.671   4.891   0.895  0.3508 -0.4372 -0.3417
 6391SOL     OW19750   6.488   4.232   0.069  0.2181 -0.1661  0.1224
 6391SOL    HW119751   6.415   4.194   0.021 -0.7813 -0.4576  1.7957
 6391SOL    HW219752   6.448   4.282   0.139  1.6054  1.3281 -0.0916
 6392SOL     OW19753   1.105   2.901   4.856 -0.4407  0.2946  0.0510
 6392SOL    HW119754   1.135   2.992   4.848  0.9925 -0.1816 -0.3220
 6392SOL    HW219755   1.039   2.904   4.925 -1.9197  1.9389 -1.3376
 6393SOL     OW19756   2.908   4.818   8.624 -0.4018 -0.3302 -0.0565
 6393SOL    HW119757   2.988   4.772   8.599 -0.4471 -0.3777 -0.1125
 6393SOL    HW219758   2.844   4.749   8.640 -0.4725 -0.2855 -0.1514
 6394SOL     OW19759   3.964   5.605   4.842 -0.0720 -0.0034  0.0937
 6394SOL    HW119760   3.893   5.600   4.778  0.7468  0.3828 -0.8586
 6394SOL    HW219761   4.044   5.609   4.790  1.0080 -4.0444  1.0633
 6395SOL     OW19762   3.344   0.586   4.858 -0.0350 -0.3597  0.0565
 6395SOL    HW119763   3.381   0.510   4.815  1.1054 -0.0660  0.4820
 6395SOL    HW219764   3.396   0.660   4.827 -0.1870  0.0550  0.7520
 6396SOL     OW19765   3.968   4.791   7.038 -0.3569  0.5750 -0.2095
 6396SOL    HW119766   3.950   4.700   7.014 -0.4857  0.5384  0.0196
 6396SOL    HW219767   4.060   4.804   7.016 -0.4799  0.5511 -0.7384
 6397SOL     OW19768   4.054   8.234   6.145 -0.3032 -0.1712 -0.1432
 6397SOL    HW119769   4.094   8.294   6.081 -0.4523  2.7811  2.3170
 6397SOL    HW219770   4.129   8.201   6.195 -0.3805 -0.5319 -0.2660
 6398SOL     OW19771   4.522   7.447   5.842  0.0694 -0.3426  0.0045
 6398SOL    HW119772   4.515   7.489   5.757 -1.6265 -0.2570  0.1571
 6398SOL    HW219773   4.576   7.506   5.894  1.3701 -0.5464 -1.0770
 6399SOL     OW19774   4.839   3.838   8.055  0.4627  0.0735 -0.1948
 6399SOL    HW119775   4.826   3.744   8.068  0.5925  0.2507  1.4253
 6399SOL    HW219776   4.769   3.879   8.105  1.7964  0.8539  1.1324
 6400SOL     OW19777   3.778   8.940   0.483 -0.3370  0.4785  0.9570
 6400SOL    HW119778   3.774   9.028   0.444  0.7083 -0.8004 -2.3510
 6400SOL    HW219779   3.688   8.908   0.478 -0.7190  1.2837  2.1554
 6401SOL     OW19780   6.260   8.231   3.340 -0.6723 -0.1915 -0.0453
 6401SOL    HW119781   6.191   8.296   3.349 -0.2412  0.3103 -0.2825
 6401SOL    HW219782   6.219   8.159   3.293 -0.7925  0.4952 -1.0243
 6402SOL     OW19783   7.975   7.640   1.450  0.6021  0.1391 -0.6916
 6402SOL    HW119784   7.936   7.624   1.364 -1.4866  1.3577 -0.0434
 6402SOL    HW219785   7.906   7.615   1.512  0.4570  3.1572  0.5114
 6403SOL     OW19786   8.754   3.712   0.599  0.2130  0.0369 -0.2852
 6403SOL    HW119787   8.797   3.745   0.520  2.1896  2.1942  1.5602
 6403SOL    HW219788   8.795   3.760   0.671 -3.0317 -0.2323  1.9414
 6404SOL     OW19789   5.515   3.288   7.659 -0.4789 -0.1365  0.0405
 6404SOL    HW119790   5.516   3.383   7.647 -1.1752  0.1051  1.6195
 6404SOL    HW219791   5.432   3.271   7.703 -0.8373 -1.6204 -1.1196
 6405SOL     OW19792   6.211   4.087   4.394 -0.0088 -0.3339  0.0135
 6405SOL    HW119793   6.232   4.078   4.301  2.4430 -0.2722  0.4921
 6405SOL    HW219794   6.215   4.182   4.410  1.5915 -0.4708  0.5576
 6406SOL     OW19795   6.915   7.025   9.163  0.7552  0.2043 -0.2015
 6406SOL    HW119796   6.983   7.057   9.104 -0.0920  2.0825 -0.2181
 6406SOL    HW219797   6.907   7.093   9.229  0.7389 -1.2426  1.3523
 6407SOL     OW19798   3.851   4.993   3.028 -0.6953 -0.2734 -0.1901
 6407SOL    HW119799   3.861   4.899   3.016 -0.6998 -0.0565 -2.0859
 6407SOL    HW219800   3.906   5.013   3.104 -0.2992 -1.7092 -0.0720
 6408SOL     OW19801   1.254   9.394   4.182 -0.2788  0.6663  0.3515
 6408SOL    HW119802   1.234   9.389   4.089  1.6110  1.5749 -0.1468
 6408SOL    HW219803   1.316   9.467   4.190 -0.0790  0.3531  2.2627
 6409SOL     OW19804   8.961   8.784   5.551  0.2947  0.2938 -0.6911
 6409SOL    HW119805   8.958   8.720   5.480 -0.1605 -2.3966  1.5745
 6409SOL    HW219806   8.984   8.732   5.628  1.7429  3.2287  0.9923
 6410SOL     OW19807   0.766   4.044   0.522  0.0560 -0.3762 -0.5566
 6410SOL    HW119808   0.704   3.996   0.577  0.8975 -1.0524 -0.1805
 6410SOL    HW219809   0.773   4.130   0.563  0.2808 -0.7030  0.0956
 6411SOL     OW19810   0.586   0.428   2.354  0.2831  0.0261  0.3282
 6411SOL    HW119811   0.510   0.397   2.306  0.2326 -3.2430  2.2755
 6411SOL    HW219812   0.659   0.378   2.318  0.6447 -0.6015  1.8667
 6412SOL     OW19813   6.484   3.892   0.807  0.3781  0.5815  0.3602
 6412SOL    HW119814   6.478   3.957   0.737 -0.9760  0.9952  0.8133
 6412SOL    HW219815   6.525   3.816   0.767 -1.0052  0.5429 -1.1018
 6413SOL     OW19816   6.255   3.848   6.934 -0.1690 -0.6080  0.1069
 6413SOL    HW119817   6.297   3.795   6.866 -0.2379 -0.8052  0.2165
 6413SOL    HW219818   6.324   3.863   6.999  0.8880  2.3461 -1.5166
 6414SOL     OW19819   2.098   3.307   3.500  0.4210  0.4522  0.4303
 6414SOL    HW119820   2.101   3.283   3.592 -2.7286  2.3410  1.1757
 6414SOL    HW219821   2.146   3.390   3.496  0.1687  0.5982  0.4507
 6415SOL     OW19822   4.860   6.012   8.979  0.3574  0.4694 -0.0579
 6415SOL    HW119823   4.921   6.082   9.001 -0.9256  1.1628  1.5199
 6415SOL    HW219824   4.787   6.056   8.936 -1.6506  0.6441  3.1644
 6416SOL     OW19825   7.475   0.953   3.625 -0.5214  0.3796  0.3396
 6416SOL    HW119826   7.534   0.922   3.556 -0.7173  0.0178  0.3279
 6416SOL    HW219827   7.518   1.030   3.661 -0.6779  0.8918 -0.5478
 6417SOL     OW19828   9.880   8.615   5.898  0.4597 -0.3855  0.9361
 6417SOL    HW119829   9.962   8.622   5.948  0.6800  0.5227  0.4631
 6417SOL    HW219830   9.886   8.529   5.856  0.6515 -0.8058  1.7765
 6418SOL     OW19831   7.581   1.926   6.118  0.2872  0.2528  0.9163
 6418SOL    HW119832   7.648   1.859   6.106 -1.0661 -0.9608 -0.3883
 6418SOL    HW219833   7.572   1.935   6.212  0.6903 -1.2451  1.1248
 6419SOL     OW19834   3.591   6.765   6.274  0.4326  0.7837 -0.6024
 6419SOL    HW119835   3.686   6.774   6.284  0.5374 -1.0406  0.3645
 6419SOL    HW219836   3.569   6.687   6.324 -1.3143  0.0567 -2.3806
 6420SOL     OW19837   5.712   0.882   3.512 -0.8296  0.0252 -0.2993
 6420SOL    HW119838   5.707   0.906   3.420 -0.3963 -2.5843 -1.0859
 6420SOL    HW219839   5.754   0.958   3.555 -0.2108  0.9252 -2.3840
 6421SOL     OW19840   2.109   3.053   9.120  0.1679 -0.1047  0.3746
 6421SOL    HW119841   2.127   3.005   9.201 -0.3181  0.3009  0.7376
 6421SOL    HW219842   2.189   3.103   9.102  0.6229 -0.9336  0.0697
 6422SOL     OW19843   5.231   7.982   7.531 -0.1094 -0.1313 -0.6097
 6422SOL    HW119844   5.231   8.027   7.447  0.3131  0.8984 -0.0659
 6422SOL    HW219845   5.275   8.041   7.591 -0.0045 -1.0434  0.2487
 6423SOL     OW19846   5.045   6.504   1.180 -0.1978 -0.0745  0.2012
 6423SOL    HW119847   4.954   6.521   1.203  0.5360  1.7964  2.0273
 6423SOL    HW219848   5.053   6.539   1.091 -1.8417 -2.7081 -1.0936
 6424SOL     OW19849   0.081   1.633   4.009  0.6109  0.7136 -0.1929
 6424SOL    HW119850  -0.010   1.651   4.031  1.0485  2.3218  0.4306
 6424SOL    HW219851   0.131   1.673   4.080  1.8317  0.7234 -1.0358
 6425SOL     OW19852   7.017   4.325   2.188 -0.4273  0.0485 -0.8787
 6425SOL    HW119853   7.072   4.258   2.229 -0.3553  1.6851  1.9542
 6425SOL    HW219854   7.077   4.374   2.132  0.4377  0.1579  0.1078
 6426SOL     OW19855   8.544   8.129   2.441  0.9794 -0.1117  0.4118
 6426SOL    HW119856   8.471   8.084   2.398  0.2549  0.6304  0.8541
 6426SOL    HW219857   8.612   8.062   2.447 -0.0156 -1.1203  0.9135
 6427SOL     OW19858   4.533   8.720   5.949  0.6467  0.0192 -0.2913
 6427SOL    HW119859   4.470   8.792   5.937 -0.4375 -0.3898  2.3170
 6427SOL    HW219860   4.542   8.682   5.862 -2.2660  0.4920 -0.9177
 6428SOL     OW19861   1.950   8.031   9.521 -1.2849 -0.0445 -0.2496
 6428SOL    HW119862   1.961   8.107   9.463 -1.7413  0.0305 -0.2422
 6428SOL    HW219863   2.030   8.030   9.574 -0.3404 -0.7568 -1.6173
 6429SOL     OW19864   0.570   5.467   8.013 -0.0287 -0.1145 -0.0095
 6429SOL    HW119865   0.593   5.379   7.981 -0.5690 -0.3569  0.2525
 6429SOL    HW219866   0.474   5.469   8.010 -0.0504  0.1899  0.7331
 6430SOL     OW19867   1.322   8.736   5.346  0.2072  0.0766 -0.4939
 6430SOL    HW119868   1.350   8.739   5.438  0.8624 -0.7813 -0.6554
 6430SOL    HW219869   1.343   8.647   5.318 -0.3905  0.2010 -1.3564
 6431SOL     OW19870   9.602   0.478   6.164  0.0041  0.1247  0.4397
 6431SOL    HW119871   9.588   0.496   6.071 -0.6956  3.1089  1.0160
 6431SOL    HW219872   9.664   0.545   6.192 -0.0587 -0.5040  2.2002
 6432SOL     OW19873   1.711   9.068   4.698 -0.2213  0.5440 -0.2756
 6432SOL    HW119874   1.781   9.102   4.754 -0.5969  3.5129 -1.4184
 6432SOL    HW219875   1.631   9.087   4.746 -0.3824 -0.8714  0.0534
 6433SOL     OW19876   3.631   9.207   7.022  0.4529 -0.1591 -0.6262
 6433SOL    HW119877   3.629   9.191   7.117  0.2289 -0.8125 -0.7375
 6433SOL    HW219878   3.724   9.205   7.000  0.5033 -0.0613 -0.4292
 6434SOL     OW19879   2.588   4.095   8.003  0.0370 -0.3300 -0.2675
 6434SOL    HW119880   2.525   4.130   7.941 -1.1784 -2.7537 -0.5159
 6434SOL    HW219881   2.651   4.166   8.017 -2.9096  2.3436  0.3003
 6435SOL     OW19882   5.564   8.261   5.936 -0.1669  0.2415  0.5825
 6435SOL    HW119883   5.658   8.261   5.919 -0.1394 -1.0493  0.5891
 6435SOL    HW219884   5.534   8.176   5.902 -1.6352  1.3314 -1.0041
 6436SOL     OW19885   6.341   5.375   8.086  0.3540  0.2907 -0.1900
 6436SOL    HW119886   6.275   5.409   8.026  0.3062  0.1507 -0.2166
 6436SOL    HW219887   6.292   5.352   8.165  0.2898 -0.3123 -0.4029
 6437SOL     OW19888   8.304   6.823   2.844 -0.1788 -0.0014 -0.4155
 6437SOL    HW119889   8.309   6.859   2.933  1.0705  1.5301 -1.0680
 6437SOL    HW219890   8.212   6.833   2.820 -0.3296  0.5069  0.3262
 6438SOL     OW19891   7.877   4.888   4.737 -0.3277 -0.0274  0.4021
 6438SOL    HW119892   7.861   4.824   4.667  0.6354  0.0933  0.0478
 6438SOL    HW219893   7.940   4.949   4.699 -2.2278  1.9509  0.2747
 6439SOL     OW19894   3.575   8.134   3.117 -0.2535 -0.1757  0.2038
 6439SOL    HW119895   3.547   8.225   3.110 -1.5882 -0.5527  0.4959
 6439SOL    HW219896   3.612   8.114   3.030 -1.0700  0.2739 -0.2546
 6440SOL     OW19897   2.863   0.123   2.145  0.3592 -0.0323  0.0532
 6440SOL    HW119898   2.827   0.177   2.075  1.8493  1.6501  0.5173
 6440SOL    HW219899   2.843   0.172   2.225  2.4259  0.3004  0.4217
 6441SOL     OW19900   5.866   5.709   9.057  0.2036  0.1147 -0.1440
 6441SOL    HW119901   5.917   5.637   9.094  0.4555  1.4134  2.2720
 6441SOL    HW219902   5.801   5.730   9.125  0.5458  2.5362 -0.4671
 6442SOL     OW19903   4.036   8.092   0.887  0.1969 -0.0565 -0.0619
 6442SOL    HW119904   4.060   8.181   0.911  0.6580 -0.4404  0.9657
 6442SOL    HW219905   4.098   8.068   0.818  0.0919  0.4017 -0.3154
 6443SOL     OW19906   6.850   7.890   1.827 -0.3711 -0.0223  0.6455
 6443SOL    HW119907   6.861   7.967   1.883 -2.1024  0.4493  0.3880
 6443SOL    HW219908   6.903   7.909   1.750 -1.7940  1.5633 -0.0111
 6444SOL     OW19909   6.596   9.406   7.270  0.5858 -0.2668 -0.0585
 6444SOL    HW119910   6.596   9.419   7.365 -2.4513  1.5055 -0.1849
 6444SOL    HW219911   6.651   9.476   7.236  0.2790  0.1630  0.3272
 6445SOL     OW19912   1.617   9.899   2.643 -0.1768  0.2348 -0.3410
 6445SOL    HW119913   1.651   9.988   2.648  0.6564 -0.1136  0.9008
 6445SOL    HW219914   1.531   9.908   2.602 -0.7096  1.7862  1.0108
 6446SOL     OW19915   6.714   1.822   1.261 -0.1859  0.7093  0.0091
 6446SOL    HW119916   6.793   1.875   1.253  0.3007 -0.0714 -0.3663
 6446SOL    HW219917   6.735   1.739   1.220  0.1328 -1.0033  3.2981
 6447SOL     OW19918   6.385   1.398   3.967 -0.5393  0.4228  0.6948
 6447SOL    HW119919   6.414   1.372   4.055  0.6140  0.1606  0.2557
 6447SOL    HW219920   6.446   1.466   3.940 -0.2235 -0.2335 -0.3146
 6448SOL     OW19921   7.835   5.024   1.828 -0.3549 -0.8646  0.5222
 6448SOL    HW119922   7.828   4.948   1.886  1.9871 -2.0653 -0.5984
 6448SOL    HW219923   7.862   4.987   1.744 -2.1278  0.9622 -0.9449
 6449SOL     OW19924   9.937   8.127   1.276 -0.6924  0.0768  0.2376
 6449SOL    HW119925   9.873   8.193   1.249  0.7694  1.4126 -0.0313
 6449SOL    HW219926   9.940   8.066   1.202 -0.9642  0.5286 -0.1520
 6450SOL     OW19927   8.323   9.131   1.772  0.4122 -0.1562 -0.2457
 6450SOL    HW119928   8.348   9.040   1.789 -0.6482 -0.5286 -0.6159
 6450SOL    HW219929   8.229   9.128   1.758  0.1004  1.2321  1.2528
 6451SOL     OW19930   5.737   0.318   6.881 -0.6013 -0.3430  0.6240
 6451SOL    HW119931   5.673   0.270   6.829 -0.5699  0.4845 -0.1995
 6451SOL    HW219932   5.809   0.256   6.894  0.7523  0.2677 -2.8520
 6452SOL     OW19933   3.280   9.912   8.390  0.3095 -0.4952 -0.2293
 6452SOL    HW119934   3.226   9.909   8.469  2.1406 -0.0867  1.0982
 6452SOL    HW219935   3.239   9.979   8.336 -0.1053  0.3362  1.0654
 6453SOL     OW19936   8.507   5.654   7.177 -0.1101  0.0682  0.2647
 6453SOL    HW119937   8.518   5.700   7.260  0.0550 -2.8617  1.9856
 6453SOL    HW219938   8.431   5.599   7.190  0.3959 -1.0379 -1.2468
 6454SOL     OW19939   1.185   1.994   2.026 -0.0572  0.5380  0.0994
 6454SOL    HW119940   1.256   1.942   1.990 -0.6647  0.1470 -0.5644
 6454SOL    HW219941   1.107   1.939   2.014 -0.3663  0.6408  1.4810
 6455SOL     OW19942   6.223   1.757   0.821 -0.1373 -0.2958  0.1280
 6455SOL    HW119943   6.247   1.765   0.913 -0.9941 -0.1841  0.3472
 6455SOL    HW219944   6.283   1.690   0.787 -0.2681 -0.8347  0.9249
 6456SOL     OW19945   6.166   4.821   8.159 -0.0625  0.0166  0.3930
 6456SOL    HW119946   6.177   4.879   8.235  2.3992 -0.6765  0.6623
 6456SOL    HW219947   6.092   4.765   8.183 -0.3487  0.8452  1.5789
 6457SOL     OW19948   5.176   0.583   4.159 -0.0857 -0.5147  0.1220
 6457SOL    HW119949   5.110   0.583   4.090 -1.5070  1.1511  1.3671
 6457SOL    HW219950   5.250   0.534   4.123 -2.1807 -2.9245 -1.1237
 6458SOL     OW19951   3.636   2.493   4.168  0.5424  0.1336 -0.0992
 6458SOL    HW119952   3.722   2.469   4.134  0.6458  0.7322 -0.2742
 6458SOL    HW219953   3.583   2.511   4.090 -0.3566 -2.1532 -0.1057
 6459SOL     OW19954   6.408   8.757   5.934  0.0677 -0.0276  0.2088
 6459SOL    HW119955   6.498   8.726   5.946 -0.0938 -0.3776  0.5438
 6459SOL    HW219956   6.361   8.725   6.011 -0.2174  0.6491  0.3241
 6460SOL     OW19957   4.306   0.076   0.861  0.0937 -0.3646 -0.0864
 6460SOL    HW119958   4.314   0.014   0.788 -0.9943 -0.8312  0.1679
 6460SOL    HW219959   4.352   0.154   0.831 -0.1155 -0.6413 -1.1787
 6461SOL     OW19960   8.187   6.621   1.911 -0.2133 -0.4246  0.3628
 6461SOL    HW119961   8.252   6.666   1.965 -1.3963  0.8051  0.8137
 6461SOL    HW219962   8.223   6.533   1.900  1.0529 -0.0787  1.4145
 6462SOL     OW19963   0.503   0.320   6.333  0.0250  0.5127 -0.1399
 6462SOL    HW119964   0.574   0.263   6.303  0.5754  0.8496  0.4945
 6462SOL    HW219965   0.516   0.402   6.285 -0.6517  0.1844 -0.9081
 6463SOL     OW19966   6.036   2.528   7.467  0.4328 -0.4107 -0.2466
 6463SOL    HW119967   5.973   2.476   7.517 -0.6286 -0.5452 -1.6670
 6463SOL    HW219968   6.003   2.527   7.378  1.7088  0.7023 -0.7739
 6464SOL     OW19969   8.322   5.366   5.629 -0.2082  0.1393 -0.0005
 6464SOL    HW119970   8.412   5.351   5.602 -0.0682  0.8934  0.0351
 6464SOL    HW219971   8.320   5.343   5.722 -0.4616 -1.5009 -0.3687
 6465SOL     OW19972   8.774   8.980   5.528  0.2469  0.0500 -0.3796
 6465SOL    HW119973   8.782   9.051   5.591 -0.3731  0.4978 -0.7922
 6465SOL    HW219974   8.835   8.913   5.559  2.8586  1.7894 -1.4112
 6466SOL     OW19975   2.013   4.439   0.268 -0.0672 -0.5790  0.3962
 6466SOL    HW119976   1.964   4.503   0.217  2.0818  1.4859  0.7619
 6466SOL    HW219977   2.035   4.371   0.204 -0.3258  0.2575 -0.6151
 6467SOL     OW19978   5.369   6.221   2.220  0.0781  0.3926 -0.2809
 6467SOL    HW119979   5.389   6.176   2.302  0.1928  0.6817 -0.1503
 6467SOL    HW219980   5.454   6.240   2.182  0.0364 -1.2912 -1.3309
 6468SOL     OW19981   8.348   5.692   1.126 -0.0611 -0.1338  0.4360
 6468SOL    HW119982   8.309   5.776   1.149 -1.6209 -0.6760 -0.0989
 6468SOL    HW219983   8.299   5.663   1.050  1.3337 -0.9361 -0.1869
 6469SOL     OW19984   6.006   3.044   8.599  0.0902  0.1094  0.5031
 6469SOL    HW119985   5.938   3.102   8.566 -0.6805 -1.4537 -0.7810
 6469SOL    HW219986   5.989   3.038   8.693  0.5571  2.3563  0.8015
 6470SOL     OW19987   8.449   2.651   4.035 -0.2681 -0.1360 -0.6497
 6470SOL    HW119988   8.389   2.666   3.962  1.1181  0.2162 -1.7748
 6470SOL    HW219989   8.535   2.641   3.993  0.6902  0.8489  0.9710
 6471SOL     OW19990   3.640   8.826   3.532 -0.4409 -0.1213  0.3202
 6471SOL    HW119991   3.599   8.907   3.502  0.4143  0.4853  0.7543
 6471SOL    HW219992   3.631   8.766   3.459  1.0533  1.1263 -0.9586
 6472SOL     OW19993   8.882   4.980   4.664 -0.1343 -0.7313  0.0404
 6472SOL    HW119994   8.904   4.906   4.607  0.8241 -0.2955 -0.1703
 6472SOL    HW219995   8.789   4.996   4.647  0.0417 -0.8569 -1.1302
 6473SOL     OW19996   5.850   9.218   0.016 -0.1474  0.4822 -0.1065
 6473SOL    HW119997   5.837   9.126   0.039  1.7352  0.5454  1.3805
 6473SOL    HW219998   5.790   9.266   0.073 -0.5668  0.2353 -0.3356
 6474SOL     OW19999   5.576   8.568   5.234 -0.0246 -0.3228 -0.3778
 6474SOL    HW120000   5.509   8.534   5.294 -0.6722 -0.4405 -1.1489
 6474SOL    HW220001   5.627   8.491   5.209  0.6372 -0.1794  0.4801
 6475SOL     OW20002   1.157   2.952   6.127 -0.9385 -0.0077  0.8366
 6475SOL    HW120003   1.085   2.980   6.184 -1.8648 -1.7810  0.6027
 6475SOL    HW220004   1.193   2.875   6.170  1.4698  1.3468  1.4183
 6476SOL     OW20005   0.811   4.266   9.581  0.5688 -0.4677 -0.5259
 6476SOL    HW120006   0.894   4.241   9.623  0.4395 -0.1387 -0.0761
 6476SOL    HW220007   0.818   4.360   9.568 -0.5921 -0.0388  1.4791
 6477SOL     OW20008   3.848   3.217   1.271 -0.2751  0.1082  0.0038
 6477SOL    HW120009   3.912   3.192   1.204 -0.0449 -0.9828  0.6125
 6477SOL    HW220010   3.896   3.214   1.353 -0.9360 -0.0829  0.3926
 6478SOL     OW20011   0.767   3.522   7.239  0.3303 -0.0672  0.1750
 6478SOL    HW120012   0.831   3.512   7.308  0.8292  2.3801  0.1324
 6478SOL    HW220013   0.818   3.542   7.160 -0.3775  0.4097 -0.1829
 6479SOL     OW20014   5.029   3.074   6.717 -0.3237  0.4358 -0.7579
 6479SOL    HW120015   4.943   3.039   6.695 -0.5099  0.4301 -0.0254
 6479SOL    HW220016   5.033   3.074   6.812  1.2984 -1.5152 -0.7645
 6480SOL     OW20017   5.849   8.482   6.744  0.0918 -0.0643 -0.3758
 6480SOL    HW120018   5.836   8.388   6.729 -0.7205  0.1384 -1.0248
 6480SOL    HW220019   5.910   8.509   6.676  0.6375 -0.1930  0.0568
 6481SOL     OW20020   2.027   9.063   6.662  0.0228  0.1208 -0.3393
 6481SOL    HW120021   2.010   9.132   6.725 -0.0339  2.5340 -2.7940
 6481SOL    HW220022   1.943   9.049   6.618  0.4029 -0.3182 -0.9494
 6482SOL     OW20023   4.041   8.947   8.315 -0.4555 -0.2495  0.9248
 6482SOL    HW120024   4.019   8.953   8.407 -0.0597 -0.6694  1.0530
 6482SOL    HW220025   4.042   9.037   8.284 -1.8667 -0.1722  1.0168
 6483SOL     OW20026   1.441   7.350   1.673 -0.1913 -0.6815  0.0107
 6483SOL    HW120027   1.507   7.290   1.638 -0.2365 -0.1183 -1.1035
 6483SOL    HW220028   1.358   7.308   1.653 -0.2481  0.0237 -1.3860
 6484SOL     OW20029   8.162   1.024   4.725  0.0747  0.2418  0.2969
 6484SOL    HW120030   8.176   0.932   4.746 -1.4301  0.0789  0.7389
 6484SOL    HW220031   8.232   1.071   4.770 -0.3774 -0.5214  1.8741
 6485SOL     OW20032   1.898   2.155   1.340 -0.5271 -0.1489  0.7438
 6485SOL    HW120033   1.890   2.118   1.428 -2.1626  3.0067  2.0840
 6485SOL    HW220034   1.843   2.100   1.285  0.5303 -2.1788  1.6009
 6486SOL     OW20035   8.406   0.580   5.571 -0.7197  0.2202  0.1990
 6486SOL    HW120036   8.371   0.601   5.658 -0.1701 -1.9183  1.0180
 6486SOL    HW220037   8.469   0.510   5.588  1.7487  1.8595 -1.5784
 6487SOL     OW20038   5.549   6.815   4.680  0.3024  0.7212  0.0682
 6487SOL    HW120039   5.644   6.820   4.689  0.3028  1.7262 -0.2971
 6487SOL    HW220040   5.530   6.722   4.668  1.1576  0.4207  0.9416
 6488SOL     OW20041   0.860   0.663   5.286 -0.3256 -0.0951  0.1404
 6488SOL    HW120042   0.926   0.660   5.217  0.5750  1.0360  0.9034
 6488SOL    HW220043   0.797   0.729   5.257 -0.4643 -0.3021 -0.0305
 6489SOL     OW20044   3.152   5.056   7.135  0.0181  0.0259  0.3147
 6489SOL    HW120045   3.186   5.144   7.149  0.4285 -0.3410  1.8638
 6489SOL    HW220046   3.060   5.061   7.159  0.0512  0.0346  0.4433
 6490SOL     OW20047   7.214   2.557   5.382 -0.6189 -0.4077 -0.3974
 6490SOL    HW120048   7.208   2.586   5.291 -0.7129  0.5011 -0.1097
 6490SOL    HW220049   7.307   2.539   5.395 -0.3760  0.8861 -0.2566
 6491SOL     OW20050   5.964   2.817   6.473  0.0360  0.3729  0.4448
 6491SOL    HW120051   5.878   2.776   6.462 -0.1048  0.6665  0.4374
 6491SOL    HW220052   6.004   2.812   6.386 -0.4604  1.3179  0.1455
 6492SOL     OW20053   7.138   7.432   3.626  0.0885 -0.4087 -0.0591
 6492SOL    HW120054   7.171   7.517   3.655 -1.1795 -1.0013  3.7495
 6492SOL    HW220055   7.044   7.447   3.610  0.0606 -0.8725 -0.3491
 6493SOL     OW20056   6.838   6.216   5.928  0.1364  0.6015 -0.0609
 6493SOL    HW120057   6.839   6.144   5.864 -0.3257  1.2267 -0.7904
 6493SOL    HW220058   6.826   6.172   6.012  1.2159 -0.2697 -0.3416
 6494SOL     OW20059   8.327   8.621   9.211  0.3690 -0.0143 -0.2318
 6494SOL    HW120060   8.271   8.558   9.257  0.2562 -0.8876 -1.5112
 6494SOL    HW220061   8.385   8.655   9.279 -1.4389  0.6451  1.0652
 6495SOL     OW20062   0.983   3.086   5.088  0.2338 -0.2808 -0.0007
 6495SOL    HW120063   1.041   3.018   5.123 -0.3563 -0.7610  0.0649
 6495SOL    HW220064   0.951   3.131   5.166 -0.1646 -0.5888  0.0168
 6496SOL     OW20065   4.899   8.446   9.363  0.1013 -0.7058  0.2305
 6496SOL    HW120066   4.928   8.475   9.450  0.7639 -0.9358  0.0970
 6496SOL    HW220067   4.813   8.486   9.351 -0.1379 -0.9251  1.1263
 6497SOL     OW20068   2.031   4.208   8.031  0.1255 -0.5370  0.1630
 6497SOL    HW120069   2.110   4.165   7.996  0.6134 -0.1544  0.7867
 6497SOL    HW220070   2.063   4.289   8.070 -0.2171 -1.4800  2.5405
 6498SOL     OW20071   2.906   0.879   1.347  0.4077 -0.4779  0.1864
 6498SOL    HW120072   2.862   0.962   1.330 -0.6734 -1.2456 -1.0111
 6498SOL    HW220073   2.994   0.903   1.375  0.2199  1.0671 -0.4604
 6499SOL     OW20074   3.915   5.431   6.399 -0.1700 -0.0001 -0.0758
 6499SOL    HW120075   3.959   5.433   6.314  0.5581  0.6029  0.3038
 6499SOL    HW220076   3.953   5.505   6.447 -0.5769 -0.3350  0.7751
 6500SOL     OW20077   4.856   2.708   7.326 -0.1241 -0.0193 -0.1085
 6500SOL    HW120078   4.838   2.791   7.281 -0.6930  0.0366  0.2128
 6500SOL    HW220079   4.860   2.732   7.419  0.7322 -0.1867 -0.0991
 6501SOL     OW20080   5.599   7.508   4.026 -0.0487  0.3429 -0.2233
 6501SOL    HW120081   5.594   7.518   4.121 -0.9436  1.4046 -0.3636
 6501SOL    HW220082   5.678   7.556   4.001 -1.0695  2.1090 -0.2336
 6502SOL     OW20083   0.872   7.482   8.917  0.2319  0.0258 -0.0787
 6502SOL    HW120084   0.784   7.497   8.882 -0.2587 -0.3886  0.9499
 6502SOL    HW220085   0.863   7.406   8.973  1.3148 -0.1835 -0.1650
 6503SOL     OW20086   6.136   3.668   9.187 -0.1176 -0.6394 -0.9001
 6503SOL    HW120087   6.082   3.594   9.159  1.3649 -1.3436 -1.9802
 6503SOL    HW220088   6.197   3.682   9.116  2.2299 -0.9311  0.9329
 6504SOL     OW20089   7.792   7.520   4.482  0.0433 -0.5384 -0.7712
 6504SOL    HW120090   7.868   7.489   4.531 -1.5303  0.5529  2.6920
 6504SOL    HW220091   7.803   7.615   4.480 -2.1116 -0.1161  1.7589
 6505SOL     OW20092   7.756   3.647   9.341  0.7932 -0.3345  0.1188
 6505SOL    HW120093   7.782   3.583   9.275  0.8272 -0.6972  0.4737
 6505SOL    HW220094   7.838   3.693   9.363  0.3229  1.7331 -2.0788
 6506SOL     OW20095   1.797   0.214   8.710  0.4243  0.2146 -0.3032
 6506SOL    HW120096   1.855   0.220   8.634  0.7825 -1.3761 -0.1885
 6506SOL    HW220097   1.720   0.267   8.686  1.1122  0.8369 -1.2009
 6507SOL     OW20098   8.995   5.300   0.921 -0.0635 -0.3675  0.6291
 6507SOL    HW120099   9.085   5.299   0.889 -0.5511  0.1068 -0.8802
 6507SOL    HW220100   8.952   5.369   0.869 -1.6094 -1.4845  0.3336
 6508SOL     OW20101   5.046   8.752   8.280 -0.1120 -0.3012  0.3031
 6508SOL    HW120102   5.033   8.814   8.352  0.8084 -1.1500  1.2405
 6508SOL    HW220103   4.973   8.691   8.287  0.9924 -1.5380  1.8008
 6509SOL     OW20104   3.951   8.140   1.405  0.1845 -0.3530 -0.6974
 6509SOL    HW120105   3.975   8.146   1.498 -0.9396 -1.0982 -0.3346
 6509SOL    HW220106   4.024   8.181   1.359  1.6221 -1.5331  0.4034
 6510SOL     OW20107   9.668   7.463   2.228 -0.1390  0.6371 -0.3122
 6510SOL    HW120108   9.621   7.383   2.206 -0.5057  0.7900 -0.0738
 6510SOL    HW220109   9.751   7.433   2.265  0.7874  0.3547 -2.4602
 6511SOL     OW20110   7.046   5.772   2.919  0.5969 -0.0928 -0.2244
 6511SOL    HW120111   7.095   5.711   2.864  2.5247 -0.4280  1.7138
 6511SOL    HW220112   7.114   5.824   2.962 -0.8610  0.7474  1.1642
 6512SOL     OW20113   7.791   0.045   9.492  0.5560  1.2590 -0.0167
 6512SOL    HW120114   7.819   0.093   9.570 -2.3311  2.1531  0.5883
 6512SOL    HW220115   7.780  -0.045   9.522  0.0711  1.4699  0.4503
 6513SOL     OW20116   8.044   9.565   8.753  0.2173 -0.0318  0.5216
 6513SOL    HW120117   8.015   9.518   8.675 -0.2229  1.9073 -0.5662
 6513SOL    HW220118   8.139   9.571   8.744  0.2736 -0.6917  0.6634
 6514SOL     OW20119   6.959   1.340   7.661 -0.6266  1.0385 -0.3016
 6514SOL    HW120120   6.935   1.363   7.751  1.2691  0.1213  0.4845
 6514SOL    HW220121   6.992   1.422   7.623 -0.2342  1.1449  0.2645
 6515SOL     OW20122   1.529   5.414   7.801  0.2554  0.5987  1.1270
 6515SOL    HW120123   1.562   5.504   7.810  0.7802  0.7106 -1.2506
 6515SOL    HW220124   1.435   5.424   7.786  0.6412  0.9848 -1.4344
 6516SOL     OW20125   6.455   3.137   9.718  0.0597 -0.6120 -0.6760
 6516SOL    HW120126   6.471   3.043   9.722  1.2367 -0.4484  3.4384
 6516SOL    HW220127   6.541   3.177   9.723 -0.5065  0.6867 -0.8656
 6517SOL     OW20128   3.494   0.478   5.226 -0.1369  0.8173  0.1010
 6517SOL    HW120129   3.542   0.438   5.299 -3.0538  0.5701  2.0396
 6517SOL    HW220130   3.545   0.454   5.148  1.4918 -1.5281  1.7459
 6518SOL     OW20131   7.040   8.925   2.153 -0.1955 -0.3374 -0.2636
 6518SOL    HW120132   6.957   8.884   2.178 -1.1554  2.3138  1.2522
 6518SOL    HW220133   7.098   8.851   2.134 -1.4158 -2.5032  3.4420
 6519SOL     OW20134   2.792   2.606   5.019 -0.3825 -0.0441 -0.1425
 6519SOL    HW120135   2.812   2.699   5.026 -1.5293  0.2731 -0.8820
 6519SOL    HW220136   2.736   2.587   5.094 -0.8497  0.0682 -0.4568
 6520SOL     OW20137   2.665   6.969   4.524  0.4780 -0.1680 -0.2992
 6520SOL    HW120138   2.757   6.975   4.552 -0.3709  0.6206  2.7307
 6520SOL    HW220139   2.660   6.885   4.479  2.8147  0.0930 -1.2191
 6521SOL     OW20140   9.718   5.015   8.544 -0.2187 -0.4299  0.1422
 6521SOL    HW120141   9.659   4.990   8.472  1.4913 -2.1214 -0.7510
 6521SOL    HW220142   9.735   5.108   8.529 -0.1469 -0.6706 -1.4899
 6522SOL     OW20143   5.818   6.607   5.973  0.9492 -0.6341  0.1610
 6522SOL    HW120144   5.826   6.533   5.913  0.7669 -0.2216 -0.3898
 6522SOL    HW220145   5.820   6.684   5.916  0.0006 -0.2619  0.6044
 6523SOL     OW20146   5.180   2.771   9.773  0.3980 -0.5362 -0.0372
 6523SOL    HW120147   5.246   2.722   9.823  2.0986  0.4152 -1.2733
 6523SOL    HW220148   5.156   2.844   9.831 -0.1761 -1.2994  0.7222
 6524SOL     OW20149   5.972   0.558   0.743  0.4280  0.0032 -0.7271
 6524SOL    HW120150   6.048   0.571   0.800  1.8163  0.8997 -2.6861
 6524SOL    HW220151   5.897   0.580   0.798  1.4475 -1.8026  1.5636
 6525SOL     OW20152   7.364   3.735   3.719 -0.0283 -0.3504  0.8092
 6525SOL    HW120153   7.429   3.724   3.789 -0.1676 -2.2553  0.6703
 6525SOL    HW220154   7.368   3.654   3.669 -2.0196 -0.2104  0.3674
 6526SOL     OW20155   5.598   1.885   1.462  0.0132  0.3936  0.6075
 6526SOL    HW120156   5.610   1.872   1.368  0.1447 -2.2618  0.9014
 6526SOL    HW220157   5.527   1.826   1.486 -0.7751  1.8427  2.0277
 6527SOL     OW20158   2.646   2.896   2.995  0.7974  0.1148  0.1068
 6527SOL    HW120159   2.696   2.975   3.019  1.7968 -0.3513 -0.3804
 6527SOL    HW220160   2.573   2.895   3.056  0.7651  1.4271  0.1191
 6528SOL     OW20161   4.697   3.992   5.667 -0.5843 -0.0901 -0.1030
 6528SOL    HW120162   4.686   4.079   5.627 -1.5737 -0.5013 -0.7569
 6528SOL    HW220163   4.616   3.946   5.646 -0.4987 -0.8305  1.1369
 6529SOL     OW20164   5.515   2.391   9.555 -0.1743  0.0028  0.2624
 6529SOL    HW120165   5.535   2.362   9.466  0.2286  1.2879 -0.0845
 6529SOL    HW220166   5.495   2.310   9.602  1.9695 -0.9808 -0.3680
 6530SOL     OW20167   9.378   3.675   7.919  0.1836  0.3114 -0.1272
 6530SOL    HW120168   9.289   3.666   7.885  0.1547  1.0886 -0.2848
 6530SOL    HW220169   9.425   3.723   7.851  0.3891  0.9989  0.4743
 6531SOL     OW20170   1.856   4.820   2.001  0.4505 -0.1884 -0.0592
 6531SOL    HW120171   1.881   4.895   2.054  1.8366 -0.9371  0.4221
 6531SOL    HW220172   1.935   4.799   1.951 -0.5299 -0.0933 -1.7389
 6532SOL     OW20173   9.424   4.354   4.461 -0.3910  0.6926  0.1089
 6532SOL    HW120174   9.334   4.386   4.457 -0.4404  0.5277 -0.1035
 6532SOL    HW220175   9.429   4.286   4.394 -0.1206  0.6703  0.1488
 6533SOL     OW20176   6.830   9.418   2.709 -0.0305 -0.1880  0.3772
 6533SOL    HW120177   6.817   9.392   2.618 -1.1534 -0.3300  0.5668
 6533SOL    HW220178   6.835   9.336   2.758 -1.5440 -0.1098  0.7074
 6534SOL     OW20179   4.262   6.815   9.289  0.3255 -0.5549 -0.0503
 6534SOL    HW120180   4.239   6.903   9.316 -0.3416 -1.3661  2.2425
 6534SOL    HW220181   4.178   6.771   9.276  0.6489 -0.7829 -1.5013
 6535SOL     OW20182   5.145   3.170   7.438 -0.2764 -0.0649 -0.0895
 6535SOL    HW120183   5.159   3.175   7.532 -0.1221  0.6326 -0.1436
 6535SOL    HW220184   5.150   3.077   7.417  0.6627 -0.1382  0.4389
 6536SOL     OW20185   4.957   1.016   7.584 -0.4346  0.0363 -0.8111
 6536SOL    HW120186   4.910   0.976   7.512 -0.2219  0.4487 -1.1864
 6536SOL    HW220187   5.048   1.023   7.554 -0.4882  0.8950 -0.8093
 6537SOL     OW20188   4.627   3.115   2.993 -0.3454 -0.8887  0.3200
 6537SOL    HW120189   4.543   3.151   2.964 -0.3163 -0.8372  0.2986
 6537SOL    HW220190   4.604   3.040   3.048 -0.3633 -2.4502 -1.7301
 6538SOL     OW20191   5.005   7.184   1.412 -0.0740 -0.2762  0.0348
 6538SOL    HW120192   5.034   7.093   1.410  0.0000 -0.2409 -1.2859
 6538SOL    HW220193   5.013   7.214   1.322 -0.2793  0.9905  0.4163
 6539SOL     OW20194   3.836   0.238   4.390  0.0574  0.6806  0.7992
 6539SOL    HW120195   3.852   0.294   4.314 -1.5757  2.4971  1.7184
 6539SOL    HW220196   3.918   0.237   4.438  0.6431  0.7786 -0.1786
 6540SOL     OW20197   6.502   7.519   7.891 -0.5552 -0.6186  0.0138
 6540SOL    HW120198   6.491   7.510   7.986  0.5255  1.2815  0.3875
 6540SOL    HW220199   6.413   7.521   7.857 -1.0873  1.1695  1.3203
 6541SOL     OW20200   7.306   3.583   8.503 -0.3437 -0.2565 -0.4467
 6541SOL    HW120201   7.272   3.509   8.554 -0.6229 -1.1788 -1.9184
 6541SOL    HW220202   7.284   3.562   8.412 -0.4987  1.6890 -0.8998
 6542SOL     OW20203   3.385   2.071   1.563  0.2596 -0.4930  0.0723
 6542SOL    HW120204   3.383   2.157   1.520  1.4146 -0.0542  0.8470
 6542SOL    HW220205   3.478   2.053   1.577 -0.0412 -1.0216  1.5861
 6543SOL     OW20206   2.385   4.585   4.673  0.3794  0.3776  0.2472
 6543SOL    HW120207   2.450   4.570   4.742 -0.9482 -0.9358  1.2677
 6543SOL    HW220208   2.301   4.578   4.718 -0.4995  0.7499 -1.2920
 6544SOL     OW20209   7.600   0.324   4.790 -0.1858  0.0993 -0.4740
 6544SOL    HW120210   7.604   0.301   4.883 -0.4251 -0.6823 -0.6522
 6544SOL    HW220211   7.684   0.294   4.754 -0.2797 -0.0142 -0.6003
 6545SOL     OW20212   4.450   1.245   6.124 -0.1721 -0.1250  0.0339
 6545SOL    HW120213   4.531   1.278   6.162 -0.7190  1.0432  0.2307
 6545SOL    HW220214   4.478   1.184   6.056  0.8747  0.7040 -0.2937
 6546SOL     OW20215   5.103   6.562   8.417  0.3332 -0.0762  0.5393
 6546SOL    HW120216   5.149   6.529   8.494  0.3187  0.3944  0.7543
 6546SOL    HW220217   5.054   6.638   8.449 -0.0045 -0.1282  0.1558
 6547SOL     OW20218   4.783   4.150   1.621  0.3831  0.2231  0.2114
 6547SOL    HW120219   4.872   4.167   1.651  0.7885  0.5353 -1.1100
 6547SOL    HW220220   4.750   4.235   1.593  0.2618 -0.1498 -0.8243
 6548SOL     OW20221   7.011   1.938  -0.026 -0.0876 -0.0313  0.3968
 6548SOL    HW120222   6.954   1.914   0.047 -0.6400  1.7520  0.5978
 6548SOL    HW220223   7.097   1.905   0.000 -0.5633 -0.6734  1.1971
 6549SOL     OW20224   1.417   5.459   3.939  0.7573 -0.4497 -0.3145
 6549SOL    HW120225   1.382   5.381   3.895 -1.6917 -0.4981  1.4977
 6549SOL    HW220226   1.345   5.489   3.994  1.8661  2.7279 -0.4250
 6550SOL     OW20227   3.736   3.755  -0.020  0.1217  0.1255 -0.3001
 6550SOL    HW120228   3.783   3.713   0.053 -1.4694 -0.3779  0.4754
 6550SOL    HW220229   3.769   3.845  -0.020 -1.3810  0.7930  2.5017
 6551SOL     OW20230   0.339   2.531   7.840  0.1189 -0.4244  0.5523
 6551SOL    HW120231   0.380   2.566   7.761 -1.3902 -1.1472 -0.6178
 6551SOL    HW220232   0.383   2.447   7.855  0.7621 -0.0504  0.8052
 6552SOL     OW20233   7.771   1.212   5.129  0.1029 -0.5531  0.6853
 6552SOL    HW120234   7.797   1.277   5.194 -1.9627 -0.1597  1.2034
 6552SOL    HW220235   7.732   1.142   5.181  1.4744 -1.8224  0.0641
 6553SOL     OW20236   5.232   7.244   5.678 -0.0906  0.8235  0.3016
 6553SOL    HW120237   5.200   7.198   5.600 -2.1272  1.2520  0.8260
 6553SOL    HW220238   5.256   7.331   5.646  1.9622  0.0719 -0.3477
 6554SOL     OW20239   9.403   1.546   9.531 -0.0809 -0.1018  0.0323
 6554SOL    HW120240   9.474   1.609   9.521  0.7887 -1.2484 -1.2277
 6554SOL    HW220241   9.428   1.494   9.608 -0.1114  0.1998  0.2468
 6555SOL     OW20242   1.315   5.028   5.863 -0.1156  0.3259  0.8331
 6555SOL    HW120243   1.380   5.078   5.813 -1.4403  1.3015  0.0154
 6555SOL    HW220244   1.328   4.938   5.835 -0.4253  0.7736 -0.8675
 6556SOL     OW20245   7.587   8.696   5.312  0.3429  0.0950  0.0559
 6556SOL    HW120246   7.641   8.641   5.369 -0.4471 -0.6039  0.1534
 6556SOL    HW220247   7.506   8.709   5.362 -0.7811 -1.3694 -1.2657
 6557SOL     OW20248   8.236   4.669   0.820  0.1277  0.0260 -0.1268
 6557SOL    HW120249   8.231   4.737   0.753  0.4712 -1.1229 -1.3509
 6557SOL    HW220250   8.319   4.685   0.865 -0.7291  1.6286  0.9764
 6558SOL     OW20251   7.459   9.309   3.410  0.0919  0.2019 -0.8067
 6558SOL    HW120252   7.542   9.342   3.446 -0.1390  1.0381 -1.0293
 6558SOL    HW220253   7.438   9.234   3.466  1.2376 -0.3319 -1.0441
 6559SOL     OW20254   2.016   9.984   0.309  0.0893 -0.4973 -0.3800
 6559SOL    HW120255   1.969   9.976   0.226 -2.4308  0.4676  0.8576
 6559SOL    HW220256   1.972   9.923   0.367 -0.8901  1.7018  1.3189
 6560SOL     OW20257   6.687   2.126   0.919 -0.6662 -0.0157  0.7577
 6560SOL    HW120258   6.647   2.172   0.993 -1.2232 -1.3021  1.2952
 6560SOL    HW220259   6.626   2.139   0.847  0.2529  1.9009  0.2549
 6561SOL     OW20260   6.465   0.787   5.402  0.4134 -0.0100  0.3201
 6561SOL    HW120261   6.408   0.849   5.357  2.6115  3.0729  1.4136
 6561SOL    HW220262   6.511   0.741   5.332 -0.3693  0.4894 -0.5509
 6562SOL     OW20263   0.988   5.207   2.190 -0.3843 -0.3870 -0.5863
 6562SOL    HW120264   0.940   5.272   2.241  1.0977  0.9855 -0.8352
 6562SOL    HW220265   1.003   5.135   2.251 -1.4509 -0.1868 -0.0770
 6563SOL     OW20266   2.856   7.955   8.388 -0.2005  0.2561  0.1354
 6563SOL    HW120267   2.864   8.009   8.310  1.7555  0.1325  0.1973
 6563SOL    HW220268   2.939   7.967   8.434 -0.6631 -0.9542  1.3610
 6564SOL     OW20269   2.287   4.962   6.271  0.6733 -0.5343  0.4927
 6564SOL    HW120270   2.288   4.939   6.364 -0.7280 -3.9283 -0.1876
 6564SOL    HW220271   2.195   4.957   6.246  1.1023 -0.3699 -1.2315
 6565SOL     OW20272   3.131   5.067   3.361 -0.3379 -0.3901 -0.2559
 6565SOL    HW120273   3.163   5.021   3.439  0.8137 -0.1157 -0.5502
 6565SOL    HW220274   3.180   5.029   3.289 -1.7758 -1.0088 -0.9389
 6566SOL     OW20275   7.266   3.551   9.681  0.0742  0.4602 -0.5923
 6566SOL    HW120276   7.216   3.541   9.600 -0.2075  0.6326 -0.4423
 6566SOL    HW220277   7.298   3.463   9.700 -0.5838  0.2474 -0.4327
 6567SOL     OW20278   7.465   4.425   0.800  0.1398  0.4022 -0.5977
 6567SOL    HW120279   7.476   4.468   0.885  0.0971 -1.5170  0.4187
 6567SOL    HW220280   7.553   4.424   0.763  0.3876  0.1631 -0.0174
 6568SOL     OW20281   5.155   2.821   1.987 -0.2103 -0.0188  0.7056
 6568SOL    HW120282   5.123   2.789   1.903  0.2998 -1.1706  0.9312
 6568SOL    HW220283   5.098   2.895   2.007  1.8967  2.6885 -2.3587
 6569SOL     OW20284   7.970   4.588   1.736 -0.5062 -0.2863  0.5253
 6569SOL    HW120285   8.009   4.548   1.658 -0.0076  2.0971 -0.5372
 6569SOL    HW220286   8.041   4.640   1.774 -1.6843  1.4332  0.4893
 6570SOL     OW20287   6.083   2.697   1.490 -0.5913  0.8230  1.1677
 6570SOL    HW120288   6.062   2.621   1.435  2.0779  0.2975  0.7167
 6570SOL    HW220289   6.007   2.707   1.547 -1.8526 -0.9708 -0.0793
 6571SOL     OW20290   9.165   5.804   3.729 -0.2541  0.8661  0.3340
 6571SOL    HW120291   9.153   5.715   3.762  2.2479  0.3916  0.1581
 6571SOL    HW220292   9.137   5.800   3.638 -1.8006  0.7395  0.7871
 6572SOL     OW20293   3.277   0.364   2.199 -0.3193  0.9681  0.3156
 6572SOL    HW120294   3.259   0.300   2.268 -2.2031  0.9702 -0.1055
 6572SOL    HW220295   3.349   0.417   2.233 -0.7220  0.5180  1.9744
 6573SOL     OW20296   1.471   8.959   1.988 -0.1768  0.0049 -0.0201
 6573SOL    HW120297   1.469   9.049   1.955  0.9993 -0.6430 -2.0523
 6573SOL    HW220298   1.532   8.962   2.062 -0.3892  0.9103  0.1329
 6574SOL     OW20299   4.642   5.368   0.604  0.0492 -0.3996 -0.4953
 6574SOL    HW120300   4.613   5.336   0.690  1.2674  0.6866  0.3484
 6574SOL    HW220301   4.708   5.434   0.624  2.3485 -2.0038 -2.3071
 6575SOL     OW20302   5.336   2.799   6.186  0.6366  0.3351  0.4223
 6575SOL    HW120303   5.335   2.741   6.261 -0.2244  0.1115  0.2448
 6575SOL    HW220304   5.291   2.878   6.216  0.0893  0.1584  0.0825
 6576SOL     OW20305   6.602   1.818   2.186 -0.8394 -0.5715 -0.2050
 6576SOL    HW120306   6.528   1.758   2.185 -1.6382  0.1554  3.1214
 6576SOL    HW220307   6.563   1.905   2.177  0.0704 -0.3531 -2.5273
 6577SOL     OW20308   1.846   5.841   3.999  0.0086 -0.0641  0.0369
 6577SOL    HW120309   1.768   5.819   3.949 -0.3146  0.5530  0.2600
 6577SOL    HW220310   1.813   5.873   4.083  0.5359 -0.7952  0.5363
 6578SOL     OW20311   1.336   3.535   8.162  0.0551 -0.1848 -0.1375
 6578SOL    HW120312   1.422   3.496   8.173 -0.1204 -0.0833  2.2247
 6578SOL    HW220313   1.277   3.476   8.208 -0.5755  1.5211  1.3913
 6579SOL     OW20314   5.003   4.118   8.890 -0.1067 -0.2889 -0.0779
 6579SOL    HW120315   5.003   4.207   8.925  0.6680 -0.1170 -0.4957
 6579SOL    HW220316   5.085   4.079   8.922 -0.2586 -0.7256 -0.2068
 6580SOL     OW20317   7.618   2.953   8.612  0.3505 -0.2232  0.4552
 6580SOL    HW120318   7.583   3.039   8.592 -1.8897 -1.1575  0.0241
 6580SOL    HW220319   7.652   2.920   8.529  0.6794  0.0144  0.4959
 6581SOL     OW20320   4.361   8.154   1.626  0.0642  0.0747 -0.6536
 6581SOL    HW120321   4.318   8.140   1.542 -0.2822 -1.4948 -0.2408
 6581SOL    HW220322   4.353   8.248   1.642 -1.7359  0.0696 -1.3697
 6582SOL     OW20323   7.729   7.150   1.763  0.1973  0.0781 -0.2892
 6582SOL    HW120324   7.663   7.218   1.777 -0.3702 -0.1122 -1.8577
 6582SOL    HW220325   7.708   7.082   1.828 -0.5339  0.4516 -0.1228
 6583SOL     OW20326   2.880   5.968   4.941  0.3429  0.1156  0.3355
 6583SOL    HW120327   2.924   5.950   5.024  0.9794  1.4264  0.3097
 6583SOL    HW220328   2.899   5.892   4.887  0.1233 -0.6437  1.3085
 6584SOL     OW20329   3.130   7.200   7.927 -0.1406 -0.0517  0.4212
 6584SOL    HW120330   3.220   7.233   7.931  0.3123 -1.3289  1.2270
 6584SOL    HW220331   3.094   7.240   7.848  1.1399  0.4502  0.0560
 6585SOL     OW20332   7.817   9.439   6.912  0.1055 -0.0697  0.0006
 6585SOL    HW120333   7.813   9.344   6.897 -0.0096 -0.4436  2.0757
 6585SOL    HW220334   7.745   9.475   6.860  1.3004 -0.8360 -2.3544
 6586SOL     OW20335   4.357   3.845   7.007  0.2278 -0.4830 -0.9407
 6586SOL    HW120336   4.373   3.839   7.101  4.0041  0.3667 -1.3814
 6586SOL    HW220337   4.360   3.754   6.976 -0.1886 -0.6959 -0.3804
 6587SOL     OW20338   6.639   7.124   0.671 -0.0112  0.4974  0.1956
 6587SOL    HW120339   6.670   7.210   0.699  0.3997  0.3595  0.1760
 6587SOL    HW220340   6.699   7.062   0.713 -0.6955  0.1898  0.7308
 6588SOL     OW20341   2.647   2.427   1.556  0.3396 -0.3333 -0.2843
 6588SOL    HW120342   2.719   2.489   1.568 -1.0180  1.3282 -0.2571
 6588SOL    HW220343   2.629   2.393   1.644  0.1106  0.4093 -0.0394
 6589SOL     OW20344   6.479   8.200   4.147 -0.0818 -0.5550  0.4572
 6589SOL    HW120345   6.548   8.267   4.151 -0.7464  0.0994  1.6957
 6589SOL    HW220346   6.467   8.183   4.054  1.0901  0.0080  0.1811
 6590SOL     OW20347   7.568   8.406   7.083  0.0023  0.2289  0.3090
 6590SOL    HW120348   7.478   8.432   7.102 -0.8016 -1.1870 -1.3610
 6590SOL    HW220349   7.583   8.329   7.138 -0.8979 -1.3545 -1.5561
 6591SOL     OW20350   2.757   6.233   3.423  0.4301 -0.1390 -0.2648
 6591SOL    HW120351   2.840   6.269   3.393  0.6705 -0.5154 -0.0578
 6591SOL    HW220352   2.754   6.145   3.387 -0.7340  0.4904 -1.8439
 6592SOL     OW20353   1.490   8.298   6.641 -0.1269 -0.0115 -0.6268
 6592SOL    HW120354   1.570   8.292   6.588  0.9094 -1.5021  0.9593
 6592SOL    HW220355   1.472   8.207   6.666 -0.3416  0.6316  1.8121
 6593SOL     OW20356   9.526   1.447   3.006 -0.0849 -0.0294  0.0848
 6593SOL    HW120357   9.590   1.508   2.971  0.9854 -0.7085  0.7844
 6593SOL    HW220358   9.442   1.479   2.974  0.7290 -0.1001 -2.3012
 6594SOL     OW20359   4.280   3.543   8.328  0.5195 -0.4100  0.1818
 6594SOL    HW120360   4.342   3.616   8.328 -1.0891  1.0319  0.3874
 6594SOL    HW220361   4.224   3.559   8.405 -3.4141  1.4246 -2.6723
 6595SOL     OW20362   1.049   8.612   2.000  0.3294 -0.3380  0.2364
 6595SOL    HW120363   1.042   8.703   1.974  0.4662  0.3066  2.2430
 6595SOL    HW220364   0.962   8.575   1.986 -0.2931  0.6735  1.2603
 6596SOL     OW20365   1.611   5.424   2.592  0.8809  0.1027 -0.3860
 6596SOL    HW120366   1.641   5.380   2.513  1.9459  0.8841 -0.4313
 6596SOL    HW220367   1.558   5.497   2.560  1.0666  0.2425 -0.3780
 6597SOL     OW20368   6.090   0.824   4.117  0.0234  0.1291 -0.4662
 6597SOL    HW120369   6.083   0.741   4.164 -0.4425  0.9762  0.9951
 6597SOL    HW220370   6.001   0.859   4.117  0.4608  1.2860  0.1856
 6598SOL     OW20371   3.696   3.845   6.678  0.6323  0.6768 -0.0565
 6598SOL    HW120372   3.698   3.765   6.625  1.1412  0.2925  0.5306
 6598SOL    HW220373   3.654   3.910   6.621 -0.2362 -0.1238 -0.3654
 6599SOL     OW20374   3.017   0.174   3.952 -0.3347 -0.0023 -0.0027
 6599SOL    HW120375   2.925   0.147   3.959 -0.0820 -0.9130  0.0006
 6599SOL    HW220376   3.066   0.092   3.959  0.4923  0.5017  0.2419
 6600SOL     OW20377   3.214   6.342   1.605  0.1295  0.9643  0.6198
 6600SOL    HW120378   3.149   6.384   1.550  0.5610 -0.0608 -0.7243
 6600SOL    HW220379   3.229   6.404   1.677 -2.0688  1.3559  0.8093
 6601SOL     OW20380   9.396   8.836   3.212 -0.2895  0.3524 -0.7690
 6601SOL    HW120381   9.321   8.781   3.189 -1.8309  0.9607  2.2634
 6601SOL    HW220382   9.360   8.924   3.218  1.0372  0.9213 -0.7249
 6602SOL     OW20383   1.144   7.821   7.924 -0.2933 -0.1011  0.3390
 6602SOL    HW120384   1.160   7.915   7.918 -0.3493 -0.1545 -0.8176
 6602SOL    HW220385   1.220   7.786   7.971  0.2517  0.3768 -0.1813
 6603SOL     OW20386   3.234   9.109   0.295 -0.0866  0.0323 -0.1312
 6603SOL    HW120387   3.178   9.160   0.236 -1.1931  0.9746  1.6598
 6603SOL    HW220388   3.197   9.123   0.382  2.0074 -0.6241  0.9388
 6604SOL     OW20389   2.622   8.602   6.729 -0.1694  0.3789  0.1035
 6604SOL    HW120390   2.700   8.597   6.785 -0.5120  0.7643  0.6226
 6604SOL    HW220391   2.575   8.679   6.760 -0.1388  0.8660 -1.0251
 6605SOL     OW20392   8.405   1.442   0.163 -0.3437 -0.6235 -0.5681
 6605SOL    HW120393   8.490   1.428   0.121 -0.4930 -0.1995 -1.0157
 6605SOL    HW220394   8.343   1.449   0.091 -0.8595 -1.5214 -0.2241
 6606SOL     OW20395   6.271   5.225   5.459  0.2959  0.2788  0.6685
 6606SOL    HW120396   6.218   5.291   5.503 -1.6811 -1.0795  0.4428
 6606SOL    HW220397   6.210   5.154   5.440  2.1066 -1.1508 -0.0888
 6607SOL     OW20398   7.124   0.990   8.197 -0.4136 -0.2362  1.2972
 6607SOL    HW120399   7.039   1.032   8.209 -0.9603 -1.1208  0.5952
 6607SOL    HW220400   7.172   1.048   8.138 -1.0144 -0.3839  0.6529
 6608SOL     OW20401   1.284   9.210   8.822 -0.4381 -0.2017 -0.3083
 6608SOL    HW120402   1.347   9.181   8.756 -0.3886 -1.1737  0.1341
 6608SOL    HW220403   1.212   9.246   8.772 -0.2499 -0.6114 -0.8922
 6609SOL     OW20404   4.934   1.130   9.980  0.0540 -0.0290  0.3407
 6609SOL    HW120405   4.947   1.212  10.028  1.6358 -0.1175  0.1223
 6609SOL    HW220406   4.879   1.155   9.905  1.4293  1.0976 -0.3438
 6610SOL     OW20407   9.809   1.164   0.907 -0.2427 -0.4165 -0.3636
 6610SOL    HW120408   9.836   1.077   0.935 -0.5703 -0.1960  0.6668
 6610SOL    HW220409   9.873   1.189   0.840  0.0403 -1.3132 -0.4357
 6611SOL     OW20410   3.612   8.976   1.552 -0.2348 -0.0662  0.7367
 6611SOL    HW120411   3.577   8.891   1.524  1.4687 -0.5172 -0.1631
 6611SOL    HW220412   3.556   9.002   1.625 -1.0333 -1.7808  0.7863
 6612SOL     OW20413   1.536   8.359   3.500  0.2230  0.2212  0.2955
 6612SOL    HW120414   1.480   8.341   3.575  0.4555  1.1868  0.7249
 6612SOL    HW220415   1.573   8.275   3.476 -0.4860 -0.2317  0.7558
 6613SOL     OW20416   0.270   9.105   2.390  0.3526  0.8804  0.1746
 6613SOL    HW120417   0.326   9.037   2.352 -1.0354  0.3876 -1.0881
 6613SOL    HW220418   0.195   9.058   2.426 -0.0374  1.6320  0.3797
 6614SOL     OW20419   7.318   1.181   1.874 -0.0483 -0.3370  0.1399
 6614SOL    HW120420   7.226   1.191   1.847  0.4156 -1.7694 -2.2596
 6614SOL    HW220421   7.343   1.268   1.905 -1.8069  0.4384 -0.4712
 6615SOL     OW20422   1.657   6.269   8.850 -0.3752  0.3284  0.3810
 6615SOL    HW120423   1.691   6.201   8.792  0.4163 -1.0010  2.2909
 6615SOL    HW220424   1.569   6.239   8.872  0.0276 -0.1905  1.3399
 6616SOL     OW20425   8.221   4.113   1.773  0.7123  0.4359 -0.5592
 6616SOL    HW120426   8.276   4.067   1.836  1.7129  1.2822 -0.7984
 6616SOL    HW220427   8.219   4.056   1.696  0.4545 -0.0425 -0.2063
 6617SOL     OW20428   9.018   4.337   1.918  0.1997 -0.3716 -0.0757
 6617SOL    HW120429   8.930   4.340   1.880  0.0896 -0.1158  0.1925
 6617SOL    HW220430   9.074   4.380   1.853  0.1169 -0.4865 -0.2230
 6618SOL     OW20431   8.824   2.413   5.256 -0.3125 -0.6302  0.5479
 6618SOL    HW120432   8.784   2.332   5.288 -1.2763 -0.9571 -1.3696
 6618SOL    HW220433   8.818   2.407   5.161 -0.6353  1.7925  0.3505
 6619SOL     OW20434   5.486   7.298   1.905 -0.0421  0.4380 -0.1905
 6619SOL    HW120435   5.421   7.267   1.969 -0.5121  1.8918  0.0818
 6619SOL    HW220436   5.548   7.226   1.897 -1.4093 -0.8043 -0.0685
 6620SOL     OW20437   9.672   4.516   5.532 -0.3299 -0.1971  0.0689
 6620SOL    HW120438   9.757   4.526   5.489 -0.1634 -1.4298  0.0805
 6620SOL    HW220439   9.690   4.536   5.624 -0.1128 -0.1590  0.0182
 6621SOL     OW20440   4.108   3.173   5.718 -0.1434 -0.1084  0.6628
 6621SOL    HW120441   4.096   3.215   5.803  0.4502 -1.2707  1.3542
 6621SOL    HW220442   4.020   3.170   5.679 -0.2715  1.2620  0.8175
 6622SOL     OW20443   3.160   6.217   2.489 -0.0501  0.4141 -0.0221
 6622SOL    HW120444   3.160   6.126   2.517 -1.7149 -0.1550 -1.7152
 6622SOL    HW220445   3.180   6.266   2.569 -1.1825 -1.3003  1.3913
 6623SOL     OW20446   6.347   0.754   4.507  0.7883  0.3870  0.3173
 6623SOL    HW120447   6.254   0.734   4.494  1.1269 -2.7284  1.7373
 6623SOL    HW220448   6.389   0.720   4.428  0.9451 -0.8773  0.9144
 6624SOL     OW20449   8.797   2.195   9.108 -0.0930 -0.0674  0.2413
 6624SOL    HW120450   8.807   2.201   9.013 -0.2937 -1.6122  0.0986
 6624SOL    HW220451   8.726   2.132   9.121 -0.6280  0.7399  1.4159
 6625SOL     OW20452   0.939   6.518   0.427 -0.2981 -0.1733 -0.4243
 6625SOL    HW120453   0.956   6.611   0.443  0.0877 -0.4649  0.9839
 6625SOL    HW220454   0.856   6.518   0.378 -0.3259  0.9026 -0.4165
 6626SOL     OW20455   4.568   8.092   0.690 -0.0467  0.3203  0.1540
 6626SOL    HW120456   4.516   8.024   0.649 -1.4918  1.6602 -0.3301
 6626SOL    HW220457   4.505   8.158   0.718  1.3280  1.7543  0.0560
 6627SOL     OW20458   9.830   6.706   5.483  0.2439  0.2082  0.4984
 6627SOL    HW120459   9.861   6.744   5.565 -0.0923  0.0954  0.6773
 6627SOL    HW220460   9.800   6.618   5.506  0.9717 -0.1566  0.0947
 6628SOL     OW20461   0.653   4.085   8.003 -0.2876 -0.1522  0.0475
 6628SOL    HW120462   0.585   4.150   8.019 -1.3639 -1.2473  0.0601
 6628SOL    HW220463   0.633   4.014   8.064  1.2954 -0.2035  0.5457
 6629SOL     OW20464   8.635   6.447   5.661  0.0601  0.0207  0.0626
 6629SOL    HW120465   8.645   6.409   5.574 -1.5586  1.3360 -0.7643
 6629SOL    HW220466   8.716   6.496   5.675 -0.4222  1.4444 -1.6466
 6630SOL     OW20467   2.007   3.272   9.871 -0.8980  0.0430  0.3303
 6630SOL    HW120468   1.948   3.249   9.942  0.3989 -1.7813  0.9097
 6630SOL    HW220469   2.036   3.361   9.891 -2.5715  0.5518  0.6089
 6631SOL     OW20470   4.892   8.297   2.650 -0.3695  0.0381  0.1757
 6631SOL    HW120471   4.825   8.236   2.680 -1.0156  1.1487  1.0878
 6631SOL    HW220472   4.855   8.384   2.670  0.5047  0.7269 -1.0909
 6632SOL     OW20473   6.681   5.729   8.914  0.2686  0.4771 -0.1033
 6632SOL    HW120474   6.665   5.725   8.819 -0.8013 -1.7866  0.1152
 6632SOL    HW220475   6.636   5.808   8.942  1.1565  1.5582 -1.5399
 6633SOL     OW20476   6.982   2.576   9.798 -0.0269 -0.2010 -0.0594
 6633SOL    HW120477   6.915   2.633   9.760  1.2219  0.8324 -0.8117
 6633SOL    HW220478   6.939   2.535   9.873 -1.6714 -0.0467 -0.8746
 6634SOL     OW20479   0.942   5.271   9.642  0.1067  0.6241  0.6577
 6634SOL    HW120480   1.003   5.207   9.677  2.1923  2.0797 -0.1220
 6634SOL    HW220481   0.938   5.253   9.548 -2.1624 -0.5804  0.8997
 6635SOL     OW20482   6.393   6.611   2.330 -0.0082  0.0164  0.1178
 6635SOL    HW120483   6.333   6.542   2.355 -0.1351  0.5780  1.4305
 6635SOL    HW220484   6.384   6.618   2.235 -2.6827  0.6767  0.3596
 6636SOL     OW20485   1.016   9.488   6.115 -0.0141  0.0710  0.1211
 6636SOL    HW120486   1.022   9.552   6.045  1.1172  0.6343  0.7150
 6636SOL    HW220487   1.020   9.403   6.070 -3.3536  0.2765 -0.8508
 6637SOL     OW20488   9.285   1.590   1.974 -0.2731  0.1471  0.2932
 6637SOL    HW120489   9.377   1.572   1.956 -0.1014 -0.3207  1.5155
 6637SOL    HW220490   9.256   1.647   1.902  1.0503  0.5621  0.0700
 6638SOL     OW20491   2.478   6.706   3.066  0.4779 -0.2036  0.9200
 6638SOL    HW120492   2.444   6.784   3.024  2.9134  1.1541  1.2605
 6638SOL    HW220493   2.530   6.663   2.998 -0.3617 -1.2506  0.9057
 6639SOL     OW20494   4.572   2.376   7.035 -0.4221 -0.0866  0.6378
 6639SOL    HW120495   4.613   2.400   7.118  1.8375 -2.2135  0.2363
 6639SOL    HW220496   4.518   2.452   7.013 -1.1959  0.5384  4.0449
 6640SOL     OW20497   9.567   3.092   9.410  0.3390 -0.4407 -0.0088
 6640SOL    HW120498   9.657   3.069   9.432  0.7488  0.2430 -0.9023
 6640SOL    HW220499   9.568   3.103   9.315 -0.4612  0.5424  0.0798
 6641SOL     OW20500   8.301   1.407   0.743 -0.3619 -0.2397 -0.0963
 6641SOL    HW120501   8.396   1.409   0.734 -0.4317  0.8783 -0.7703
 6641SOL    HW220502   8.279   1.492   0.782 -1.2378  0.3826 -1.8265
 6642SOL     OW20503   4.175   1.208   8.474  0.1642 -0.1251  0.6586
 6642SOL    HW120504   4.205   1.268   8.406  0.4900 -1.2967 -0.2809
 6642SOL    HW220505   4.171   1.123   8.430 -1.3862 -0.5976  1.6341
 6643SOL     OW20506   8.180   8.404   0.468 -0.3319  0.7607 -1.0989
 6643SOL    HW120507   8.269   8.370   0.462 -0.4457  0.5677 -1.7779
 6643SOL    HW220508   8.160   8.402   0.562 -0.1666 -0.6102 -1.0678
 6644SOL     OW20509   3.862   9.306   0.730 -0.4159  0.0892 -0.6452
 6644SOL    HW120510   3.912   9.244   0.676 -0.8205 -0.3069 -0.5717
 6644SOL    HW220511   3.929   9.353   0.781 -0.1570 -1.1027  0.1613
 6645SOL     OW20512   3.656   5.538   3.172  0.3005  0.0228 -0.0412
 6645SOL    HW120513   3.681   5.616   3.222 -0.1585  0.7817 -0.9504
 6645SOL    HW220514   3.582   5.567   3.119 -0.6423 -1.3768  0.4741
 6646SOL     OW20515   0.760   7.215   9.006  0.8807 -0.0556  0.3119
 6646SOL    HW120516   0.743   7.132   8.961 -2.1837  0.6217 -0.0525
 6646SOL    HW220517   0.675   7.259   9.006  2.4438  3.2256  0.2746
 6647SOL     OW20518   5.242   6.800   7.517 -0.4215 -0.2666  0.4407
 6647SOL    HW120519   5.271   6.794   7.609  0.4497  1.0927  0.2810
 6647SOL    HW220520   5.196   6.884   7.512 -0.7347 -0.4784 -0.3055
 6648SOL     OW20521   9.853   3.133   5.350 -0.8929 -0.2731 -0.3075
 6648SOL    HW120522   9.839   3.152   5.257  1.1312  0.3444 -0.5469
 6648SOL    HW220523   9.812   3.206   5.396  1.4404  1.6038 -0.9616
 6649SOL     OW20524   2.836   9.540   3.830  0.2204 -0.1013 -0.4176
 6649SOL    HW120525   2.789   9.473   3.880 -0.5387  1.9480  1.8541
 6649SOL    HW220526   2.809   9.526   3.739  0.1153 -2.8162 -0.0542
 6650SOL     OW20527   5.459   4.947   4.218 -0.1278 -0.3621  0.3765
 6650SOL    HW120528   5.372   4.977   4.243 -0.1942 -1.7295  1.9486
 6650SOL    HW220529   5.515   4.967   4.293  0.2073 -2.3179  0.7236
 6651SOL     OW20530   4.418   1.315   4.813 -0.3466  0.5531 -0.3270
 6651SOL    HW120531   4.370   1.391   4.781  0.8083  1.2471 -0.5028
 6651SOL    HW220532   4.417   1.325   4.909 -0.4730  0.6200 -0.3356
 6652SOL     OW20533   1.788   0.556   0.046  0.1398 -0.1765 -0.0081
 6652SOL    HW120534   1.761   0.613  -0.027 -1.2288 -2.1361 -1.1294
 6652SOL    HW220535   1.876   0.527   0.023 -0.1238 -0.4526 -0.7007
 6653SOL     OW20536   5.682   8.616   1.733  0.9723  0.1810  0.7550
 6653SOL    HW120537   5.705   8.707   1.718 -1.4416  0.6874 -0.2965
 6653SOL    HW220538   5.627   8.592   1.658  0.7694 -1.8336  1.4887
 6654SOL     OW20539   8.118   5.163   8.921 -0.4329  0.1156 -0.2565
 6654SOL    HW120540   8.160   5.146   8.836 -0.9145 -0.3300 -0.4115
 6654SOL    HW220541   8.091   5.255   8.916 -0.9079 -0.0447 -0.7935
 6655SOL     OW20542   5.655   0.183   9.175  0.4069 -0.7115 -0.1167
 6655SOL    HW120543   5.599   0.145   9.243  0.9839  0.5299  1.1080
 6655SOL    HW220544   5.713   0.243   9.223 -0.1700  1.3808 -1.8755
 6656SOL     OW20545   2.579   1.153   1.806 -0.1077 -0.2681  0.3419
 6656SOL    HW120546   2.655   1.166   1.749 -0.9536  1.3958 -0.4834
 6656SOL    HW220547   2.568   1.057   1.810  1.5978 -0.5101 -0.0580
 6657SOL     OW20548   2.346   6.447   0.137 -1.2012  0.3029  0.1859
 6657SOL    HW120549   2.372   6.479   0.223 -1.7782 -1.0497  0.8958
 6657SOL    HW220550   2.336   6.526   0.084  0.5711  1.0843  0.9345
 6658SOL     OW20551   4.329   3.498  10.014 -0.1214  0.4088 -0.6021
 6658SOL    HW120552   4.306   3.584   9.981 -1.1994 -0.2192 -1.5484
 6658SOL    HW220553   4.346   3.445   9.936  2.3652  0.2117 -0.0136
 6659SOL     OW20554   4.718   1.292   6.585  0.2381  0.1066  0.2833
 6659SOL    HW120555   4.737   1.386   6.573  1.3140 -0.0750  0.4426
 6659SOL    HW220556   4.662   1.270   6.510 -1.4599  1.2377  1.1460
 6660SOL     OW20557   3.632   5.780   1.165 -0.2066  0.1530 -0.1728
 6660SOL    HW120558   3.584   5.701   1.138 -0.0783  0.2160 -0.5942
 6660SOL    HW220559   3.693   5.749   1.232 -0.4097 -0.0402 -0.0765
 6661SOL     OW20560   9.489   9.899   8.273  0.1809  0.2912  0.4467
 6661SOL    HW120561   9.464   9.963   8.340 -0.1180  2.0357 -1.2643
 6661SOL    HW220562   9.422   9.907   8.206  2.2723  1.0773 -1.6721
 6662SOL     OW20563   6.302   5.215   0.849  0.6405 -0.1356 -0.0334
 6662SOL    HW120564   6.270   5.166   0.925  0.4177  2.8756  2.0312
 6662SOL    HW220565   6.246   5.189   0.777  0.9805 -3.3011  0.7259
 6663SOL     OW20566   7.532   9.491   8.784  0.5462 -0.4130 -0.0814
 6663SOL    HW120567   7.557   9.563   8.842  0.9398 -1.1596  0.6945
 6663SOL    HW220568   7.607   9.481   8.725  0.1656  0.3158 -0.7061
 6664SOL     OW20569   9.096   7.821   3.298  0.3099 -0.1372 -0.2000
 6664SOL    HW120570   9.127   7.834   3.208 -0.8633 -0.7048 -0.7129
 6664SOL    HW220571   9.002   7.804   3.288 -0.0628  0.9461  1.2344
 6665SOL     OW20572   3.735   1.796   0.956 -0.3882  0.0160 -0.0751
 6665SOL    HW120573   3.791   1.801   0.878 -0.9456 -2.3161 -0.6997
 6665SOL    HW220574   3.771   1.862   1.015  1.9652 -0.2264 -1.1104
 6666SOL     OW20575   4.895   6.529   4.290 -0.5729  0.7160 -0.1158
 6666SOL    HW120576   4.818   6.483   4.324  0.5288 -0.5852  0.7007
 6666SOL    HW220577   4.948   6.460   4.249  0.0318  1.6377 -0.9323
 6667SOL     OW20578   0.227   3.026   4.561  0.1882 -0.4247 -0.0146
 6667SOL    HW120579   0.260   2.937   4.577  0.3323 -0.1731  1.1421
 6667SOL    HW220580   0.273   3.054   4.482  1.3193 -0.8068  0.4852
 6668SOL     OW20581   9.286   8.798   4.776  0.2048 -0.3179  0.1067
 6668SOL    HW120582   9.233   8.789   4.855  1.4137  1.4129  1.1745
 6668SOL    HW220583   9.361   8.741   4.791  1.5165  1.5915  1.2443
 6669SOL     OW20584   9.596   1.414   5.425  0.7973  0.1744  0.5460
 6669SOL    HW120585   9.529   1.347   5.409  2.4259 -2.1437  2.6254
 6669SOL    HW220586   9.660   1.400   5.355  0.2920  0.7883 -0.0510
 6670SOL     OW20587   6.175   5.930   6.987 -0.3533  0.1181  0.3576
 6670SOL    HW120588   6.107   5.983   7.028 -0.8081  0.0520 -0.3011
 6670SOL    HW220589   6.170   5.846   7.031 -1.8130 -0.4362 -0.7786
 6671SOL     OW20590   1.812   2.293   5.799 -0.2678 -0.3274  0.4049
 6671SOL    HW120591   1.837   2.320   5.711 -0.5278 -1.0545  0.0999
 6671SOL    HW220592   1.868   2.344   5.857 -0.8201  0.9364 -0.1424
 6672SOL     OW20593   9.415   5.043   0.543 -0.3391 -0.1400  0.3217
 6672SOL    HW120594   9.368   5.114   0.500  0.3845 -0.3221 -0.8223
 6672SOL    HW220595   9.502   5.044   0.503 -0.2680 -1.5731  0.3790
 6673SOL     OW20596   5.759   8.717   9.154  0.6037 -0.2357 -0.1438
 6673SOL    HW120597   5.702   8.674   9.091 -0.9066  0.4297  0.7032
 6673SOL    HW220598   5.707   8.719   9.235  2.2833 -0.6125  0.9811
 6674SOL     OW20599   0.390   8.690   9.941 -0.1799 -0.4369  0.2610
 6674SOL    HW120600   0.321   8.627   9.920 -1.8652  0.8223  1.6316
 6674SOL    HW220601   0.403   8.739   9.860 -1.7918  0.0635  0.2629
 6675SOL     OW20602   0.482   5.269   8.256  0.0326 -0.3931  0.3801
 6675SOL    HW120603   0.533   5.332   8.206  0.3812  0.4324  1.7275
 6675SOL    HW220604   0.523   5.185   8.237  1.7903  0.2078  1.2173
 6676SOL     OW20605   2.928   5.721   3.499  0.2216 -0.0924  0.0263
 6676SOL    HW120606   3.017   5.751   3.485  0.1731  0.3102  0.5473
 6676SOL    HW220607   2.937   5.639   3.546  0.3377 -0.5319 -0.7544
 6677SOL     OW20608   8.016   1.052   9.399  0.3333  0.1336  0.4690
 6677SOL    HW120609   8.047   0.961   9.392 -2.5190 -1.0106  1.0533
 6677SOL    HW220610   8.027   1.088   9.311 -0.6174 -1.6002 -0.4260
 6678SOL     OW20611   4.304   5.419   4.485 -0.9132 -0.0529 -0.3018
 6678SOL    HW120612   4.396   5.425   4.511 -0.4402 -1.5158 -1.5215
 6678SOL    HW220613   4.269   5.346   4.536 -1.4738  0.6259  0.3068
 6679SOL     OW20614   0.031   1.124   0.716  0.7847  0.4785 -0.5593
 6679SOL    HW120615   0.109   1.176   0.737  0.6540  0.6210 -0.4267
 6679SOL    HW220616   0.059   1.033   0.728  0.0990  0.5550  2.4897
 6680SOL     OW20617   3.205   1.187   5.591 -0.4562  0.1784  0.3390
 6680SOL    HW120618   3.270   1.257   5.581 -0.4250  0.2030  0.7115
 6680SOL    HW220619   3.233   1.119   5.530 -1.5280  1.2463 -1.4384
 6681SOL     OW20620   1.158   1.688   7.896  0.4992  0.2645 -0.3756
 6681SOL    HW120621   1.105   1.767   7.893 -0.9123 -0.4635  2.1580
 6681SOL    HW220622   1.170   1.671   7.990  0.8889 -2.4055 -0.8249
 6682SOL     OW20623   2.413   6.999   4.932  0.4717  0.1341 -0.3696
 6682SOL    HW120624   2.414   6.924   4.873  2.5247 -0.0163 -0.1894
 6682SOL    HW220625   2.487   7.053   4.904 -0.7968  1.9880 -0.3220
 6683SOL     OW20626   0.305   1.455   9.376 -0.0189 -0.0457  0.1960
 6683SOL    HW120627   0.235   1.430   9.315  1.2884 -1.3743 -0.8182
 6683SOL    HW220628   0.276   1.419   9.460 -1.3737  0.9593  0.1984
 6684SOL     OW20629   2.324   0.035   1.219  0.2943  0.2929 -0.1795
 6684SOL    HW120630   2.373  -0.036   1.260  0.4732  0.3552 -0.2829
 6684SOL    HW220631   2.263   0.064   1.287 -0.7547 -0.8817 -0.5848
 6685SOL     OW20632   7.642   5.926   9.540 -0.4481 -0.1544  0.3952
 6685SOL    HW120633   7.726   5.897   9.575 -0.4425  0.9873  1.3900
 6685SOL    HW220634   7.659   5.940   9.446  0.8541  1.3046  0.8024
 6686SOL     OW20635   5.825   0.825   1.821 -0.8661  0.5567  0.2834
 6686SOL    HW120636   5.762   0.784   1.761  1.0251  0.1176 -1.4987
 6686SOL    HW220637   5.819   0.918   1.803  0.4564  0.3410 -1.4334
 6687SOL     OW20638   4.743   3.749   0.281 -0.4849  0.0640  0.4310
 6687SOL    HW120639   4.671   3.691   0.255 -0.2912  0.2570 -0.5927
 6687SOL    HW220640   4.791   3.700   0.347 -2.6826  0.7051  2.6945
 6688SOL     OW20641   2.554   7.007   2.405 -0.0306  0.6230  0.1185
 6688SOL    HW120642   2.585   6.923   2.373  0.6178  0.8232  0.2092
 6688SOL    HW220643   2.612   7.028   2.478 -2.1945 -0.3810  2.2586
 6689SOL     OW20644   8.308   4.031   5.357  0.6173 -0.5131 -0.3822
 6689SOL    HW120645   8.351   4.108   5.318  1.7147 -1.3171 -0.8255
 6689SOL    HW220646   8.216   4.042   5.337  0.8272  0.4272 -0.8961
 6690SOL     OW20647   9.794   1.150   6.293  0.1801  0.3069 -0.2137
 6690SOL    HW120648   9.802   1.239   6.328  1.6541 -0.2133  0.8757
 6690SOL    HW220649   9.884   1.119   6.286 -0.1726 -0.3288 -2.7260
 6691SOL     OW20650   2.840   6.939   3.593  0.2226 -0.6180 -0.3874
 6691SOL    HW120651   2.796   6.977   3.517 -0.0552  0.0812  0.1215
 6691SOL    HW220652   2.770   6.918   3.654  0.3969 -1.6525 -0.5110
 6692SOL     OW20653   8.378   3.088   6.234 -0.1336 -0.2750  0.1049
 6692SOL    HW120654   8.325   3.085   6.314 -0.2666 -0.6108  0.0048
 6692SOL    HW220655   8.467   3.105   6.265 -0.3873  0.9507  0.2315
 6693SOL     OW20656   6.479   4.169   6.444 -0.0384 -0.1947  0.4149
 6693SOL    HW120657   6.468   4.265   6.443  1.1687 -0.0015  1.6828
 6693SOL    HW220658   6.423   4.140   6.515 -0.6249 -0.4777 -0.1571
 6694SOL     OW20659   3.572   1.082   9.280  0.1484  0.3238  0.1572
 6694SOL    HW120660   3.588   0.988   9.285  0.7778  0.4247  0.1188
 6694SOL    HW220661   3.658   1.122   9.289 -0.3193  0.9820  2.1444
 6695SOL     OW20662   0.188   7.660   2.890  0.0448 -0.1987 -0.1597
 6695SOL    HW120663   0.268   7.653   2.838  0.1174 -1.5287  0.0899
 6695SOL    HW220664   0.205   7.608   2.968 -1.5625 -1.7924 -0.7832
 6696SOL     OW20665   6.802   9.715   6.159 -0.2495 -0.0359 -0.5142
 6696SOL    HW120666   6.737   9.785   6.168 -0.4066 -0.1838 -0.4895
 6696SOL    HW220667   6.791   9.662   6.238 -0.4600 -0.3630 -0.7610
 6697SOL     OW20668   0.601   0.648   0.155  0.4354  0.1455  0.2029
 6697SOL    HW120669   0.658   0.571   0.154  0.8247  0.4160  0.9384
 6697SOL    HW220670   0.653   0.717   0.113 -1.3087 -0.8734 -4.3073
 6698SOL     OW20671   9.840   4.575   4.696  0.6543 -0.4103 -0.4522
 6698SOL    HW120672   9.771   4.584   4.630 -0.0363  0.6983  0.3836
 6698SOL    HW220673   9.796   4.589   4.780  2.0773  1.7208  0.0486
 6699SOL     OW20674   4.644   9.242   6.327  0.9389 -0.1689  0.2213
 6699SOL    HW120675   4.734   9.274   6.329  0.1674  2.1774  1.2073
 6699SOL    HW220676   4.613   9.260   6.238 -0.1090  4.1933  1.2122
 6700SOL     OW20677   3.984   1.166   7.117 -0.2763 -0.4211  0.0926
 6700SOL    HW120678   4.078   1.180   7.108 -0.1299  0.0527  2.0588
 6700SOL    HW220679   3.970   1.078   7.082  0.5579  0.2030 -1.9941
 6701SOL     OW20680   9.408   0.547   6.620  0.0283  0.1892 -0.1177
 6701SOL    HW120681   9.456   0.479   6.667 -1.2569  0.9586  2.4968
 6701SOL    HW220682   9.316   0.521   6.628 -0.3082  1.0271 -1.1108
 6702SOL     OW20683   1.489   7.625   2.404 -0.1491 -1.1393  0.3621
 6702SOL    HW120684   1.463   7.573   2.480  1.5390 -0.1584  1.6762
 6702SOL    HW220685   1.574   7.590   2.378  0.3144 -0.0346  0.3234
 6703SOL     OW20686   1.069   9.145   4.569 -0.3050  0.5405  0.6319
 6703SOL    HW120687   1.077   9.226   4.619  0.8236 -0.1488  1.6426
 6703SOL    HW220688   1.048   9.079   4.634 -0.5413 -0.0954 -0.0763
 6704SOL     OW20689   5.793   1.629   1.129 -0.6933 -0.8749 -0.3537
 6704SOL    HW120690   5.808   1.654   1.037 -0.6656 -2.5106 -0.8349
 6704SOL    HW220691   5.870   1.661   1.175 -1.0713  0.6606 -0.7434
 6705SOL     OW20692   7.781   0.891   2.603  0.5670  0.0983 -0.0844
 6705SOL    HW120693   7.818   0.973   2.571 -0.1213  0.9955  1.2971
 6705SOL    HW220694   7.854   0.847   2.647  0.5596  0.8073  0.6725
 6706SOL     OW20695   6.738   6.734   3.253  0.1782 -0.1473  0.5343
 6706SOL    HW120696   6.675   6.767   3.189  1.0103  0.6760  0.1234
 6706SOL    HW220697   6.725   6.791   3.330 -0.4471 -0.7922  0.9210
 6707SOL     OW20698   2.921   1.766   3.012  0.2102  0.2931 -0.1985
 6707SOL    HW120699   2.966   1.765   2.928  1.4324  0.6893  0.4365
 6707SOL    HW220700   2.856   1.837   3.004  0.2610  0.2666 -0.8275
 6708SOL     OW20701   4.049   0.912   6.150  0.1337  0.2172  0.0928
 6708SOL    HW120702   4.103   0.915   6.071  0.8119  1.8817  0.5790
 6708SOL    HW220703   3.959   0.925   6.118  0.5126  1.9497 -0.3282
 6709SOL     OW20704   6.508   9.181   2.273 -0.7182  0.4753  0.2636
 6709SOL    HW120705   6.599   9.159   2.291 -0.9499 -0.4869  0.2974
 6709SOL    HW220706   6.461   9.098   2.282 -1.6054  0.9719  0.2994
 6710SOL     OW20707   7.139   6.305   5.351  0.2016  0.0270 -0.3651
 6710SOL    HW120708   7.168   6.285   5.440 -1.9279 -1.2219  0.1205
 6710SOL    HW220709   7.096   6.390   5.359 -1.6713 -0.9234  0.2780
 6711SOL     OW20710   1.727   4.442   5.820  0.4097  0.0652 -0.4535
 6711SOL    HW120711   1.709   4.522   5.770 -4.5021 -0.1070  0.4472
 6711SOL    HW220712   1.715   4.469   5.911 -1.2420 -1.5545 -0.1240
 6712SOL     OW20713   8.359   2.700   6.151  0.1410  0.4022 -0.1138
 6712SOL    HW120714   8.426   2.751   6.106  0.0146  0.3476 -0.3654
 6712SOL    HW220715   8.370   2.722   6.243 -0.0816  1.0804 -0.2487
 6713SOL     OW20716   2.944   9.732   8.878  0.5031  0.0772 -0.0842
 6713SOL    HW120717   2.991   9.703   8.956  1.3742  2.1956  0.2569
 6713SOL    HW220718   2.861   9.685   8.880  1.1333 -1.0206  1.2922
 6714SOL     OW20719   3.169   2.432   1.256  0.1650  0.5325 -0.0628
 6714SOL    HW120720   3.214   2.517   1.256 -1.5158  1.4621  0.9257
 6714SOL    HW220721   3.079   2.452   1.280 -0.7907 -1.2936 -1.7803
 6715SOL     OW20722   9.301   1.669   0.406 -1.1245  0.1923  0.1211
 6715SOL    HW120723   9.281   1.582   0.369 -0.2882 -0.2380  0.6586
 6715SOL    HW220724   9.384   1.694   0.366 -1.0224  0.4429  0.4850
 6716SOL     OW20725   3.132   2.838   1.422 -0.5772  0.0030  0.4508
 6716SOL    HW120726   3.148   2.931   1.436 -1.0332  0.2487 -0.5793
 6716SOL    HW220727   3.168   2.796   1.500  1.9341  0.8211 -0.1592
 6717SOL     OW20728   3.727   2.525   3.430 -0.4709 -0.1966 -0.4285
 6717SOL    HW120729   3.755   2.445   3.386  0.9473  0.1437 -0.2209
 6717SOL    HW220730   3.746   2.594   3.367  1.5773  0.2999  0.6245
 6718SOL     OW20731   8.283   7.560   1.137 -0.0466 -0.3669  0.3737
 6718SOL    HW120732   8.232   7.496   1.087 -0.7062  0.5477 -0.1583
 6718SOL    HW220733   8.280   7.528   1.227 -0.7480 -0.8380  0.1912
 6719SOL     OW20734   8.542   4.543   6.929 -0.0436  0.4403 -0.0823
 6719SOL    HW120735   8.568   4.622   6.882  0.2356  0.6863  0.4644
 6719SOL    HW220736   8.602   4.540   7.004 -1.6195  1.0468  1.2632
 6720SOL     OW20737   7.894   2.920   8.648 -0.2109  0.3140 -0.2356
 6720SOL    HW120738   7.950   2.861   8.598 -0.4122  0.2840 -0.4290
 6720SOL    HW220739   7.806   2.906   8.612 -0.2266  0.8752 -0.4252
 6721SOL     OW20740   0.197   5.446   5.486  0.4839  0.6793  0.2283
 6721SOL    HW120741   0.285   5.477   5.463  1.3748 -1.5545  0.3955
 6721SOL    HW220742   0.173   5.497   5.564  1.9526  0.7820  0.6422
 6722SOL     OW20743   5.806   9.476   8.319  0.2218  0.2227 -0.2379
 6722SOL    HW120744   5.839   9.412   8.383  0.6947  0.7635  0.0731
 6722SOL    HW220745   5.797   9.557   8.370 -1.8782  0.0374 -0.2338
 6723SOL     OW20746   9.601   4.081   0.323 -0.5207  0.2685  0.0701
 6723SOL    HW120747   9.629   4.020   0.255 -0.8475  0.0218  0.1542
 6723SOL    HW220748   9.651   4.056   0.400  0.3817  1.0053 -0.2607
 6724SOL     OW20749   3.142   0.160   9.142  0.2644 -0.2401  0.0220
 6724SOL    HW120750   3.088   0.134   9.217 -0.0777 -0.8724 -0.4308
 6724SOL    HW220751   3.101   0.116   9.067  0.0831  1.0632 -0.6732
 6725SOL     OW20752   3.200   5.266   7.975  0.3923  0.1022  0.3172
 6725SOL    HW120753   3.263   5.208   7.931 -1.0440 -1.3531  0.0911
 6725SOL    HW220754   3.114   5.230   7.952 -0.5154  1.5332  1.3077
 6726SOL     OW20755   2.302   5.565   5.057 -0.2555  0.1172  0.2887
 6726SOL    HW120756   2.218   5.594   5.093 -0.1691  2.3417 -1.0907
 6726SOL    HW220757   2.282   5.544   4.966  0.4491 -0.6792  0.3110
 6727SOL     OW20758   7.069   4.925   2.962 -0.7589 -0.2392 -0.0376
 6727SOL    HW120759   7.073   4.986   2.888 -0.2862 -0.8545 -0.5310
 6727SOL    HW220760   7.139   4.953   3.020 -1.6634  0.7669  0.6079
 6728SOL     OW20761   3.669   4.131   5.131 -1.0973 -0.2468  0.1246
 6728SOL    HW120762   3.648   4.173   5.047  2.2305 -1.3986 -1.4625
 6728SOL    HW220763   3.628   4.045   5.125  0.9457 -1.1992 -1.4372
 6729SOL     OW20764   1.354   0.227   3.306  0.5169  0.1584  0.3885
 6729SOL    HW120765   1.427   0.168   3.326 -1.6423 -2.0636  2.4254
 6729SOL    HW220766   1.355   0.292   3.376  0.9344  0.5760  0.0033
 6730SOL     OW20767   7.107   5.639   1.470  0.2317 -0.0134  0.5877
 6730SOL    HW120768   7.125   5.725   1.507 -0.2224  0.4668 -0.2903
 6730SOL    HW220769   7.176   5.583   1.507  0.7014  0.7787  0.9480
 6731SOL     OW20770   6.451   5.989   0.336 -0.0772 -0.1119  0.2614
 6731SOL    HW120771   6.512   6.049   0.293  0.6567 -0.5809  0.6316
 6731SOL    HW220772   6.506   5.936   0.393 -0.9357 -0.0350  1.1830
 6732SOL     OW20773   8.309   7.798   2.153 -0.1179 -0.1987  0.4042
 6732SOL    HW120774   8.258   7.861   2.102 -1.8730 -0.5257  1.6653
 6732SOL    HW220775   8.245   7.755   2.209  1.3780 -1.5626  1.1481
 6733SOL     OW20776   0.800   4.378   5.884 -0.1915  0.0272 -0.8685
 6733SOL    HW120777   0.878   4.335   5.921  0.4752  1.1782 -0.8884
 6733SOL    HW220778   0.726   4.330   5.922  0.5168 -1.5012 -1.3344
 6734SOL     OW20779   4.000   4.550   0.509 -0.3188 -0.4633 -0.2848
 6734SOL    HW120780   4.076   4.588   0.465  0.9654 -0.4365  1.8520
 6734SOL    HW220781   3.960   4.624   0.555  0.0138 -0.9784  0.8583
 6735SOL     OW20782   7.537   8.302   6.619 -0.2382  0.2996 -0.2479
 6735SOL    HW120783   7.553   8.357   6.696 -0.8267  1.7021 -1.0743
 6735SOL    HW220784   7.510   8.217   6.655  1.2137  0.3582  1.0795
 6736SOL     OW20785   1.509   9.318   9.333  0.2791  0.3309  0.2226
 6736SOL    HW120786   1.463   9.385   9.282  0.8191 -0.5052 -1.4612
 6736SOL    HW220787   1.602   9.340   9.323  0.4423 -0.4790 -0.0839
 6737SOL     OW20788   8.621   6.688   8.876  0.1434  0.1570  0.0310
 6737SOL    HW120789   8.680   6.617   8.852 -0.8753 -1.2123  1.3697
 6737SOL    HW220790   8.560   6.695   8.803 -0.0799 -0.7473  0.1209
 6738SOL     OW20791   0.027   3.083   6.931 -0.2499 -0.3270  0.1448
 6738SOL    HW120792   0.087   3.144   6.974 -0.1488 -0.7469  0.6036
 6738SOL    HW220793   0.056   3.082   6.839 -0.5089  0.6163  0.0381
 6739SOL     OW20794   9.785   6.329   1.325  0.5725 -0.3779  0.0529
 6739SOL    HW120795   9.866   6.300   1.367 -1.5666 -0.9822  4.2051
 6739SOL    HW220796   9.765   6.413   1.367 -0.1899  0.6415 -2.1593
 6740SOL     OW20797   8.057   2.550   0.075  0.2494  0.4412  0.3213
 6740SOL    HW120798   8.125   2.611   0.104  1.1417 -0.1114 -0.5557
 6740SOL    HW220799   8.094   2.464   0.093 -0.8874  0.1288  1.2899
 6741SOL     OW20800   8.552   2.459   0.211 -0.2192 -0.2848 -0.2477
 6741SOL    HW120801   8.546   2.535   0.269  2.4341  0.0441 -0.2907
 6741SOL    HW220802   8.519   2.386   0.263 -0.4860  0.4614  0.6647
 6742SOL     OW20803   5.964   6.113   2.952  0.3858 -0.2308  0.5279
 6742SOL    HW120804   5.874   6.107   2.921  0.2463  0.3198  0.8136
 6742SOL    HW220805   6.015   6.064   2.888 -0.3267 -1.9949  1.2477
 6743SOL     OW20806   7.480   9.158   2.888 -0.6048 -0.4095 -0.7698
 6743SOL    HW120807   7.491   9.152   2.982 -0.4498 -0.4464 -0.7912
 6743SOL    HW220808   7.513   9.076   2.853  2.3837  0.8357 -1.1329
 6744SOL     OW20809   6.480   4.973   9.533  0.3806  0.4437 -0.4849
 6744SOL    HW120810   6.403   4.963   9.589 -0.5789 -0.4300 -1.9181
 6744SOL    HW220811   6.533   4.895   9.550 -1.0369 -1.0233 -2.4315
 6745SOL     OW20812   4.649   3.576   8.146  0.3552 -0.6127  0.0640
 6745SOL    HW120813   4.742   3.555   8.136  0.4661  0.0635 -0.4397
 6745SOL    HW220814   4.634   3.579   8.240  1.4175  1.6250  0.2122
 6746SOL     OW20815   6.200   4.722   6.088 -0.1330 -0.0854  1.0394
 6746SOL    HW120816   6.246   4.790   6.040 -1.3475 -0.1851 -0.3441
 6746SOL    HW220817   6.110   4.724   6.054 -0.2399 -2.2915  0.9983
 6747SOL     OW20818   9.909   4.402   3.504 -0.8914 -0.4339 -0.4841
 6747SOL    HW120819   9.832   4.442   3.545  0.3852  0.0616  1.5600
 6747SOL    HW220820   9.930   4.328   3.560  1.8097  1.1567  0.7800
 6748SOL     OW20821   2.436   6.038   3.474 -0.2529 -1.0357 -0.1877
 6748SOL    HW120822   2.507   6.097   3.499 -1.3037 -1.0937  3.5728
 6748SOL    HW220823   2.450   5.959   3.526 -2.1629 -1.6886 -0.5721
 6749SOL     OW20824   6.674   9.481   0.447 -0.2131 -0.1772  0.3671
 6749SOL    HW120825   6.626   9.492   0.365 -0.8816 -3.1622  0.2483
 6749SOL    HW220826   6.634   9.544   0.507 -0.7601  0.9659 -1.1399
 6750SOL     OW20827   6.602   5.461   7.516 -0.5459  0.4153  0.2748
 6750SOL    HW120828   6.612   5.415   7.599 -2.1010  1.4705  1.0989
 6750SOL    HW220829   6.557   5.543   7.539 -0.2502  1.1288 -1.4899
 6751SOL     OW20830   5.148   6.900   4.407  0.4014  0.0002  0.5224
 6751SOL    HW120831   5.130   6.916   4.500  1.3002 -0.2198  0.7488
 6751SOL    HW220832   5.066   6.867   4.372 -0.1133  0.6112  1.1168
 6752SOL     OW20833   9.691   7.980   0.649 -0.2756  0.3631  0.5807
 6752SOL    HW120834   9.684   8.055   0.590  0.2580  0.7835  1.0451
 6752SOL    HW220835   9.615   7.926   0.628 -0.3772  0.7686 -0.1243
 6753SOL     OW20836   7.122   1.878   8.888 -0.3801  0.1150  0.3299
 6753SOL    HW120837   7.122   1.834   8.972  1.4811  0.4483  0.5603
 6753SOL    HW220838   7.138   1.970   8.909  0.5013  0.1451 -0.3729
 6754SOL     OW20839   0.508   6.178   4.804  0.1022 -0.1620  0.0790
 6754SOL    HW120840   0.528   6.269   4.781  0.5520  0.2046  1.7881
 6754SOL    HW220841   0.563   6.159   4.880 -2.7673 -0.5586  2.2362
 6755SOL     OW20842   1.045   8.968   4.750 -0.2092 -0.0471 -0.1422
 6755SOL    HW120843   0.962   8.936   4.786  0.4219 -2.3618 -0.5356
 6755SOL    HW220844   1.108   8.958   4.822  0.1203 -0.2979 -0.4565
 6756SOL     OW20845   2.376   9.856   7.291  0.3719  0.2882  0.3648
 6756SOL    HW120846   2.363   9.823   7.202  0.7693  1.1191 -0.0129
 6756SOL    HW220847   2.467   9.885   7.292  0.8714 -1.2094  1.5535
 6757SOL     OW20848   0.295   3.145   5.335 -0.0209 -0.1564 -0.3727
 6757SOL    HW120849   0.236   3.195   5.279 -0.4413 -0.2236  0.0052
 6757SOL    HW220850   0.251   3.061   5.348  0.5160 -0.4969 -0.7109
 6758SOL     OW20851   8.617   3.855   0.281  0.0511 -0.1875  0.8445
 6758SOL    HW120852   8.680   3.852   0.354  0.8107  0.3359  0.2256
 6758SOL    HW220853   8.614   3.765   0.248 -0.4840 -0.4835  1.6679
 6759SOL     OW20854   5.240   4.378   6.947  0.3126 -0.4649 -0.1110
 6759SOL    HW120855   5.189   4.350   6.870 -0.9850  0.3693  0.3979
 6759SOL    HW220856   5.310   4.433   6.911  0.0565 -0.5453 -0.7494
 6760SOL     OW20857   4.602   3.184   4.986 -0.0583  0.2973  0.3545
 6760SOL    HW120858   4.534   3.249   5.001 -1.0803 -0.3003 -1.3709
 6760SOL    HW220859   4.659   3.223   4.919  0.6842  0.3628  1.0172
 6761SOL     OW20860   0.560   4.804   5.701  0.6677  0.5760 -0.3921
 6761SOL    HW120861   0.490   4.797   5.766 -0.3229 -0.0154 -1.4745
 6761SOL    HW220862   0.526   4.756   5.625  1.9114  1.0019 -1.2405
 6762SOL     OW20863   4.284   5.523   4.231  0.2710 -0.9124 -0.2598
 6762SOL    HW120864   4.262   5.487   4.316 -0.4565 -2.4872 -1.0688
 6762SOL    HW220865   4.236   5.468   4.168  1.1926 -0.1338 -1.7144
 6763SOL     OW20866   3.942   1.797   9.812 -0.2317 -0.3682  0.2396
 6763SOL    HW120867   4.009   1.851   9.771 -1.2024 -0.0126 -0.9477
 6763SOL    HW220868   3.968   1.707   9.795 -0.1599 -0.2281 -0.3797
 6764SOL     OW20869   1.086   9.543   6.418  0.2987  0.0234  0.1315
 6764SOL    HW120870   1.021   9.564   6.486 -1.0131 -0.4563 -0.9331
 6764SOL    HW220871   1.034   9.508   6.346  1.6623  0.5741 -1.1568
 6765SOL     OW20872   5.927   9.309   2.355 -0.4304 -0.5831 -0.0534
 6765SOL    HW120873   5.994   9.247   2.327  0.6656 -0.0123  1.2382
 6765SOL    HW220874   5.854   9.254   2.383 -0.0686 -1.2398 -0.3815
 6766SOL     OW20875   2.125   8.189   9.792  0.7387 -0.1422 -0.3483
 6766SOL    HW120876   2.034   8.186   9.822 -0.1008 -0.1479 -2.7085
 6766SOL    HW220877   2.173   8.135   9.855 -0.8622 -0.0206  1.0228
 6767SOL     OW20878   6.717   8.142   7.901 -0.2462  0.8154  0.0670
 6767SOL    HW120879   6.663   8.129   7.823  0.1774  0.7941 -0.2221
 6767SOL    HW220880   6.657   8.123   7.974 -0.9198  1.8134 -0.2070
 6768SOL     OW20881   3.512   8.345   0.935 -0.5971 -0.0128  0.3389
 6768SOL    HW120882   3.473   8.312   0.854  0.1767  0.7185 -0.3479
 6768SOL    HW220883   3.607   8.335   0.922 -0.3879  1.4411  0.5422
 6769SOL     OW20884   8.426   8.993   8.367  0.4894  0.3522 -0.5558
 6769SOL    HW120885   8.392   9.056   8.304  0.8300  1.1059 -0.0044
 6769SOL    HW220886   8.495   8.946   8.320  0.0498  0.1947 -1.0526
 6770SOL     OW20887   8.854   1.808   8.271 -0.0965 -0.0735 -0.0954
 6770SOL    HW120888   8.880   1.885   8.321  1.3132 -0.7273  0.2510
 6770SOL    HW220889   8.863   1.736   8.334 -0.6956 -0.6024 -0.6057
 6771SOL     OW20890   5.496   0.828   6.261  0.1928 -0.5016  0.0940
 6771SOL    HW120891   5.562   0.793   6.320  0.8757 -0.1241 -0.4269
 6771SOL    HW220892   5.490   0.921   6.284  1.5448  0.0062 -1.3523
 6772SOL     OW20893   7.974   1.983   7.353  0.2811 -0.4126  0.2081
 6772SOL    HW120894   8.033   1.907   7.359  1.8087  0.4734 -1.9324
 6772SOL    HW220895   8.031   2.058   7.368 -0.8136  0.4020  0.4010
 6773SOL     OW20896   8.448   0.846   2.447  0.2964 -0.3821  0.4289
 6773SOL    HW120897   8.498   0.821   2.525  1.1864  1.0960  0.3648
 6773SOL    HW220898   8.410   0.764   2.415  1.4585 -1.2982  1.3335
 6774SOL     OW20899   0.070   2.132   6.265 -0.1244 -0.5117  0.0028
 6774SOL    HW120900   0.161   2.161   6.261 -0.5675  0.7736 -1.7897
 6774SOL    HW220901   0.072   2.042   6.232  0.3038  0.0954 -1.7025
 6775SOL     OW20902   3.237   5.575   5.657  0.4312 -0.4995  0.0215
 6775SOL    HW120903   3.297   5.628   5.604 -0.6552  0.5278 -0.2298
 6775SOL    HW220904   3.242   5.612   5.745  0.3968 -0.6210  0.0759
 6776SOL     OW20905   7.799   5.056   2.223  0.0629 -0.0193  0.4411
 6776SOL    HW120906   7.838   4.971   2.243 -0.4956  0.2533  3.0754
 6776SOL    HW220907   7.797   5.060   2.127  1.8567 -2.1289  0.2370
 6777SOL     OW20908   7.791   5.297   2.373 -0.4025  0.3634 -0.3792
 6777SOL    HW120909   7.840   5.370   2.335  1.7302 -0.3997  0.7029
 6777SOL    HW220910   7.785   5.233   2.302 -0.8354  0.9306 -0.8582
 6778SOL     OW20911   9.441   0.889   6.890  0.3115  0.1923 -0.6364
 6778SOL    HW120912   9.364   0.832   6.889 -0.2332  0.8207  1.3427
 6778SOL    HW220913   9.421   0.957   6.826 -0.8008  0.3438 -0.1530
 6779SOL     OW20914   0.103   9.440   6.346  0.4578  0.1227 -0.5820
 6779SOL    HW120915   0.073   9.444   6.436 -0.6531 -1.8385 -0.7885
 6779SOL    HW220916   0.062   9.515   6.303  0.1189  0.4605  0.3211
 6780SOL     OW20917   3.683   9.104   8.779 -0.0983  0.0200  0.3191
 6780SOL    HW120918   3.638   9.155   8.711  0.1467  0.9281  0.8317
 6780SOL    HW220919   3.707   9.168   8.846  0.2346 -0.7668  0.9691
 6781SOL     OW20920   1.342   4.042   0.846 -0.4757  0.8440  0.1869
 6781SOL    HW120921   1.250   4.054   0.824  0.0908  0.5636 -2.6394
 6781SOL    HW220922   1.390   4.086   0.776  1.5490 -1.4460 -0.0025
 6782SOL     OW20923   0.986   3.947   3.407 -0.3331  0.3022 -0.2225
 6782SOL    HW120924   1.033   3.869   3.435  1.0877  1.0714 -0.3739
 6782SOL    HW220925   1.022   4.018   3.462 -0.3526  1.1382 -1.2589
 6783SOL     OW20926   0.834   3.055   0.283  0.2832  0.3088 -1.0997
 6783SOL    HW120927   0.826   3.132   0.341 -0.1480 -0.7612  0.3205
 6783SOL    HW220928   0.925   3.026   0.294 -0.7142 -2.2273  2.2880
 6784SOL     OW20929   8.332   1.738   2.684 -0.4934 -0.0218 -0.0356
 6784SOL    HW120930   8.414   1.773   2.719 -1.5286  2.1832  0.3716
 6784SOL    HW220931   8.357   1.695   2.603  0.9350  1.6884 -0.5571
 6785SOL     OW20932   6.858   4.952   8.456 -0.6508 -0.5308  0.1039
 6785SOL    HW120933   6.788   4.972   8.394 -1.2537 -0.2931  0.8543
 6785SOL    HW220934   6.815   4.944   8.540  0.4019  1.0408  0.8440
 6786SOL     OW20935   7.640   4.325   1.474  0.5558 -0.1530 -0.1104
 6786SOL    HW120936   7.702   4.374   1.421  1.4057 -1.0654  0.0179
 6786SOL    HW220937   7.615   4.250   1.419  1.8970 -1.4348  0.9506
 6787SOL     OW20938   2.926   0.557   4.924 -0.7590  0.1626  0.2703
 6787SOL    HW120939   2.985   0.599   4.861  1.2510 -2.0414  0.5201
 6787SOL    HW220940   2.942   0.603   5.006 -1.1420  1.0966 -0.1695
 6788SOL     OW20941   9.619   2.397   4.669 -0.6956 -0.1060 -0.1335
 6788SOL    HW120942   9.562   2.452   4.615 -1.8168  1.0142  2.0775
 6788SOL    HW220943   9.706   2.437   4.659 -1.1114  0.8268 -0.1594
 6789SOL     OW20944   4.854   6.616   4.926  0.1721 -0.3039 -0.3324
 6789SOL    HW120945   4.842   6.555   4.998  2.0324 -0.2986  0.0308
 6789SOL    HW220946   4.810   6.696   4.954 -0.4322 -0.7933  0.1246
 6790SOL     OW20947   5.621   9.764   9.088 -0.5094  0.0454  0.3337
 6790SOL    HW120948   5.577   9.692   9.044  0.5206  0.1767 -0.9676
 6790SOL    HW220949   5.602   9.841   9.035  1.3869  0.0735 -0.3827
 6791SOL     OW20950   5.679   7.948   5.394 -0.5494  0.0367  0.4270
 6791SOL    HW120951   5.719   7.978   5.313  1.2959 -1.4127  0.7338
 6791SOL    HW220952   5.585   7.949   5.377 -0.1964 -0.2841 -1.7496
 6792SOL     OW20953   5.583   5.340   3.863 -0.7640 -0.4615 -0.1942
 6792SOL    HW120954   5.620   5.367   3.779  2.6237 -2.5041  0.4467
 6792SOL    HW220955   5.528   5.265   3.842 -1.6595  0.3397 -0.7772
 6793SOL     OW20956   9.275   1.245   6.290  0.3161  0.0309 -0.4340
 6793SOL    HW120957   9.181   1.235   6.305  0.3287  0.5009 -0.0130
 6793SOL    HW220958   9.282   1.312   6.222  0.3693  0.9312  0.4300
 6794SOL     OW20959   5.027   9.755   6.149 -1.2742 -0.1453 -0.8607
 6794SOL    HW120960   4.955   9.701   6.181 -0.7107  0.4601  1.7199
 6794SOL    HW220961   5.023   9.834   6.203  0.8063  0.2735 -1.2243
 6795SOL     OW20962   4.195   7.768   0.056 -0.2559 -0.1365  0.3010
 6795SOL    HW120963   4.146   7.701   0.009  0.5437  0.0436 -0.8441
 6795SOL    HW220964   4.208   7.837  -0.009  2.0902 -0.4657  0.3338
 6796SOL     OW20965   2.846   5.195   5.024 -0.0114  0.2513 -0.1682
 6796SOL    HW120966   2.897   5.191   4.944 -0.7770 -2.2517 -0.6219
 6796SOL    HW220967   2.767   5.143   5.005  0.4549 -1.6880  2.6012
 6797SOL     OW20968   0.538   6.670   5.516  0.2359  0.0076  0.1455
 6797SOL    HW120969   0.504   6.759   5.510 -0.6593 -0.3201  0.1904
 6797SOL    HW220970   0.572   6.651   5.428  1.8427  0.9241  0.5358
 6798SOL     OW20971   1.747   0.305   5.120  0.1279  0.2011  0.1222
 6798SOL    HW120972   1.653   0.319   5.108 -0.2304 -1.5502  0.6605
 6798SOL    HW220973   1.753   0.222   5.167  1.9916 -0.4070 -1.0819
 6799SOL     OW20974   6.663   8.428   6.587  0.3068 -0.0792  0.1398
 6799SOL    HW120975   6.740   8.439   6.643 -0.2174  0.2264  0.8229
 6799SOL    HW220976   6.655   8.512   6.541  0.9070 -0.4334 -0.6221
 6800SOL     OW20977   3.068   4.170   1.431  0.2489  0.4436 -0.5021
 6800SOL    HW120978   3.152   4.209   1.455  0.5383 -0.0286 -0.7265
 6800SOL    HW220979   3.045   4.213   1.349  0.6491  0.0356 -0.8359
 6801SOL     OW20980   1.185   5.545   2.593  0.3757 -0.2184 -0.2874
 6801SOL    HW120981   1.091   5.562   2.605  0.3343 -0.4643 -0.2607
 6801SOL    HW220982   1.188   5.463   2.545  0.6009 -1.2200  1.3530
 6802SOL     OW20983   8.595   5.031   4.651  0.7797  0.0412  0.1466
 6802SOL    HW120984   8.559   5.009   4.565 -0.4793  0.1222  0.6248
 6802SOL    HW220985   8.580   4.953   4.704 -0.1452  0.6328  0.7838
 6803SOL     OW20986   9.530   1.368   3.493  0.3525 -0.1134 -0.2935
 6803SOL    HW120987   9.456   1.320   3.531 -0.6962 -0.3457 -2.4973
 6803SOL    HW220988   9.491   1.421   3.424  2.4832 -1.9652 -3.1152
 6804SOL     OW20989   9.576   1.417   3.890  0.0658  0.1781  0.0100
 6804SOL    HW120990   9.482   1.400   3.877 -0.6384  2.5553  1.4606
 6804SOL    HW220991   9.580   1.475   3.965  2.9396 -1.8422  1.6339
 6805SOL     OW20992   9.436   5.880   0.308 -0.3921  0.2145 -0.2003
 6805SOL    HW120993   9.431   5.792   0.345  0.6726  0.0300 -0.4383
 6805SOL    HW220994   9.389   5.935   0.370 -0.3580 -0.3985  0.3836
 6806SOL     OW20995   1.703   4.545   5.182  0.3121  0.2402  0.0474
 6806SOL    HW120996   1.687   4.562   5.275 -1.0766 -0.3654 -0.0555
 6806SOL    HW220997   1.797   4.528   5.177  0.3235 -0.3125  1.4486
 6807SOL     OW20998   5.026   9.380   4.704  0.3182 -1.2502  0.7920
 6807SOL    HW120999   5.090   9.314   4.677  0.0341 -1.2498  0.0834
 6807SOL    HW221000   4.965   9.385   4.630  1.5924  1.4370 -0.2246
 6808SOL     OW21001   9.459   4.632   8.205  0.6134  0.1292  0.3658
 6808SOL    HW121002   9.424   4.713   8.168  1.6312  0.3979 -0.0385
 6808SOL    HW221003   9.463   4.648   8.299 -0.4487  0.0419  0.4392
 6809SOL     OW21004   7.119   4.157   0.887 -0.0873  0.1612  0.0963
 6809SOL    HW121005   7.027   4.161   0.861 -0.0779  0.4506  0.1052
 6809SOL    HW221006   7.166   4.202   0.817  0.3212 -2.0585 -1.1488
 6810SOL     OW21007   9.643   0.685   9.570 -0.2568 -1.4900 -0.3709
 6810SOL    HW121008   9.610   0.619   9.510 -4.1252 -0.7658  0.7095
 6810SOL    HW221009   9.596   0.765   9.547 -0.5557 -0.7518  2.3792
 6811SOL     OW21010   7.264   3.982   7.453  0.0809  0.3119 -0.4298
 6811SOL    HW121011   7.282   3.944   7.367 -0.3884  1.0558 -0.8709
 6811SOL    HW221012   7.177   3.948   7.475 -0.1369  0.7382 -0.6131
 6812SOL     OW21013   3.009   2.153   4.132 -0.1122  0.3785  0.1769
 6812SOL    HW121014   3.011   2.069   4.177 -1.2017  0.7613  0.9822
 6812SOL    HW221015   2.922   2.156   4.091  0.8152  0.0740 -1.9464
 6813SOL     OW21016   6.804   4.732   0.979  0.4659  0.3447  0.0529
 6813SOL    HW121017   6.763   4.691   0.903 -0.9344  0.5491  0.6750
 6813SOL    HW221018   6.737   4.730   1.047  1.9909 -0.7100  1.6198
 6814SOL     OW21019   9.795   0.145   8.904 -0.4517 -0.1604  0.7261
 6814SOL    HW121020   9.760   0.232   8.925 -0.6780  0.3693 -1.5393
 6814SOL    HW221021   9.720   0.086   8.917 -0.1375 -0.1512  2.8431
 6815SOL     OW21022   7.174   6.689   6.089 -0.0116 -0.1161 -0.0930
 6815SOL    HW121023   7.176   6.785   6.086  3.4494 -0.0831 -0.5273
 6815SOL    HW221024   7.182   6.668   6.182 -0.7975 -0.0246  0.0048
 6816SOL     OW21025   0.425   6.699   8.668 -0.3171  0.2116  0.0767
 6816SOL    HW121026   0.445   6.729   8.757  2.5332 -1.5082  0.1255
 6816SOL    HW221027   0.500   6.727   8.616  0.2193 -2.5789 -0.8241
 6817SOL     OW21028   4.303   7.351   5.068  0.3887 -0.7400 -0.1717
 6817SOL    HW121029   4.215   7.335   5.103  0.9613 -0.1266  1.6575
 6817SOL    HW221030   4.355   7.377   5.144  1.5073  1.5962 -1.6016
 6818SOL     OW21031   2.373   3.736   6.039  0.4099 -0.2817  0.0272
 6818SOL    HW121032   2.384   3.718   6.132  2.4077 -0.9125 -0.2764
 6818SOL    HW221033   2.329   3.658   6.005  0.3275 -0.3682  0.3272
 6819SOL     OW21034   3.392   0.882   7.229  0.2130  0.4194  0.7646
 6819SOL    HW121035   3.384   0.790   7.257  2.4508 -0.1569 -0.3012
 6819SOL    HW221036   3.408   0.930   7.310  1.0479 -0.4343  1.1275
 6820SOL     OW21037   0.528   0.558   8.697  0.7811  0.4467  0.4934
 6820SOL    HW121038   0.577   0.536   8.618 -0.8244  2.2813 -1.1152
 6820SOL    HW221039   0.448   0.505   8.692 -0.8136  2.7729 -0.8872
 6821SOL     OW21040   6.258   4.341   7.197 -0.1272 -0.0324  0.4442
 6821SOL    HW121041   6.326   4.398   7.232 -0.0314  0.2689 -0.2139
 6821SOL    HW221042   6.195   4.400   7.156 -0.0421 -0.3877 -0.2189
 6822SOL     OW21043   5.134   4.990   0.054 -0.1170 -0.2192 -0.3662
 6822SOL    HW121044   5.083   5.031   0.123 -3.1752 -1.9911 -1.3535
 6822SOL    HW221045   5.108   5.036  -0.026 -0.0066 -1.0252 -0.8777
 6823SOL     OW21046   8.142   4.332   3.814 -0.6054 -0.3861 -0.1598
 6823SOL    HW121047   8.173   4.400   3.874 -0.6726 -0.1057 -0.4388
 6823SOL    HW221048   8.211   4.266   3.815 -0.3389 -0.1101 -0.2136
 6824SOL     OW21049   3.867   5.819   1.353 -0.2721 -0.4731  0.6978
 6824SOL    HW121050   3.962   5.819   1.342 -0.0548 -2.2252  2.0380
 6824SOL    HW221051   3.852   5.769   1.433 -2.3300 -0.2279  0.5298
 6825SOL     OW21052   4.499   9.501   0.334  0.2442  0.4180  0.5381
 6825SOL    HW121053   4.422   9.556   0.348  0.5032  1.3342 -1.3904
 6825SOL    HW221054   4.510   9.499   0.239  0.1727 -3.0992  0.4625
 6826SOL     OW21055   4.527   8.691   4.620 -0.0416  0.2183 -0.5090
 6826SOL    HW121056   4.542   8.625   4.552 -0.2808  0.5797 -0.9178
 6826SOL    HW221057   4.587   8.667   4.690  1.4353  0.7946 -1.5256
 6827SOL     OW21058   2.453   0.500   7.454 -0.6419 -0.8863  0.4644
 6827SOL    HW121059   2.450   0.594   7.436  0.3877 -0.5992  1.6826
 6827SOL    HW221060   2.456   0.460   7.367  0.0494  0.2585 -0.0733
 6828SOL     OW21061   0.098   2.440   7.980 -0.3438 -0.5733 -0.0282
 6828SOL    HW121062   0.123   2.387   8.056 -0.6967  1.6034  1.7303
 6828SOL    HW221063   0.182   2.465   7.940 -0.0303 -0.1294  0.8626
 6829SOL     OW21064   8.699   0.827   1.486  0.0546  0.0246  0.4770
 6829SOL    HW121065   8.645   0.753   1.513  0.6073 -0.9278 -0.9074
 6829SOL    HW221066   8.782   0.815   1.533  0.6538 -1.0683 -0.7790
 6830SOL     OW21067   0.129   9.148   9.396 -0.2094 -0.0483 -0.0858
 6830SOL    HW121068   0.213   9.103   9.389 -0.2634 -0.2686  0.5798
 6830SOL    HW221069   0.144   9.233   9.354  0.9789  0.7501  1.8093
 6831SOL     OW21070   4.426   1.799   3.802 -0.3569 -0.3479 -0.1548
 6831SOL    HW121071   4.438   1.805   3.897  2.0074 -0.6009 -0.3607
 6831SOL    HW221072   4.436   1.706   3.783 -1.5536 -0.4004 -0.6025
 6832SOL     OW21073   6.791   3.782   7.332  0.0313  0.0297  0.5736
 6832SOL    HW121074   6.796   3.688   7.352 -0.5150 -0.3766 -1.0457
 6832SOL    HW221075   6.706   3.809   7.366 -0.7069 -0.5529 -0.7416
 6833SOL     OW21076   6.069   3.832   6.741 -1.6964 -0.1829 -0.4199
 6833SOL    HW121077   6.120   3.753   6.723 -2.4414 -0.6355 -0.6125
 6833SOL    HW221078   6.099   3.861   6.827 -1.1545 -0.4632 -0.5053
 6834SOL     OW21079   9.511   6.620   7.167  0.2439  0.3271 -0.0832
 6834SOL    HW121080   9.514   6.681   7.093  0.2138  0.6364  0.1694
 6834SOL    HW221081   9.573   6.551   7.143 -0.3607  0.0055 -0.7653
 6835SOL     OW21082   2.832   5.016   1.488  0.3510  0.3868  0.1370
 6835SOL    HW121083   2.776   4.990   1.561 -1.5474  0.9589 -1.0392
 6835SOL    HW221084   2.821   4.946   1.423 -0.4350  1.3469 -0.8044
 6836SOL     OW21085   7.210   3.799   4.041 -0.1440 -0.1763  0.3729
 6836SOL    HW121086   7.232   3.707   4.052 -0.0876 -0.4522 -1.7826
 6836SOL    HW221087   7.283   3.847   4.080  0.4132 -1.0379  0.3864
 6837SOL     OW21088   0.950   2.463   4.766 -0.0909 -0.2918 -0.2118
 6837SOL    HW121089   0.994   2.512   4.835  0.0093  1.3789 -1.3998
 6837SOL    HW221090   0.951   2.372   4.796  1.8687  0.0756  0.9818
 6838SOL     OW21091   5.954   8.761   5.168 -0.0549 -0.5446 -0.0470
 6838SOL    HW121092   5.866   8.749   5.133  0.0674 -0.9508 -0.2193
 6838SOL    HW221093   5.940   8.803   5.253 -0.5633 -2.6221  0.9491
 6839SOL     OW21094   7.115   8.819   9.296 -0.0259 -0.4841 -0.1610
 6839SOL    HW121095   7.156   8.733   9.288 -0.8429 -0.7769 -1.3589
 6839SOL    HW221096   7.022   8.803   9.281 -0.4662  0.3428  1.4342
 6840SOL     OW21097   8.965   1.871   7.145 -0.3294  0.6234  0.1080
 6840SOL    HW121098   8.977   1.898   7.236 -0.0218 -0.7721  0.4969
 6840SOL    HW221099   9.044   1.822   7.124 -0.3497  1.0305 -0.9517
 6841SOL     OW21100   8.915   2.810   0.444  0.0919  0.5322  0.0704
 6841SOL    HW121101   9.009   2.825   0.434  0.1807 -0.7254 -1.3658
 6841SOL    HW221102   8.878   2.898   0.449  1.4553  1.0454  2.3250
 6842SOL     OW21103   7.224   8.622   4.748  0.2655 -0.4634  0.0433
 6842SOL    HW121104   7.191   8.600   4.660  2.4186 -0.1626 -0.9017
 6842SOL    HW221105   7.279   8.699   4.734  0.4661 -0.2745  1.7204
 6843SOL     OW21106   2.042   1.959   6.599  0.3428 -0.0149  0.3074
 6843SOL    HW121107   2.113   1.982   6.659  0.5611  0.1836 -0.0254
 6843SOL    HW221108   1.974   1.921   6.656  0.6720 -0.1131  0.6396
 6844SOL     OW21109   1.046   1.305   4.911  0.7142  0.5089  0.4892
 6844SOL    HW121110   1.053   1.221   4.957 -0.0408  0.6848  0.9404
 6844SOL    HW221111   1.137   1.333   4.899  0.9462  0.8900  2.6915
 6845SOL     OW21112   3.195   8.290   8.445 -0.3544 -0.2986 -0.2026
 6845SOL    HW121113   3.194   8.231   8.369 -1.6740 -0.5050 -0.0526
 6845SOL    HW221114   3.251   8.246   8.508  0.2355 -0.4412 -0.8094
 6846SOL     OW21115   8.605   6.170   8.557 -0.1103 -0.0398 -0.0358
 6846SOL    HW121116   8.569   6.248   8.599 -1.3483  0.8245 -2.5048
 6846SOL    HW221117   8.547   6.099   8.585 -0.1975  0.2924  0.6362
 6847SOL     OW21118   5.078   8.054   8.192 -0.2191 -0.4075 -0.3184
 6847SOL    HW121119   5.105   8.063   8.100  1.0192 -1.3772 -0.0885
 6847SOL    HW221120   5.056   7.961   8.201 -0.8412 -0.2082  0.2389
 6848SOL     OW21121   7.415   9.321   7.558  0.1853 -0.2053  0.3841
 6848SOL    HW121122   7.449   9.405   7.527  1.2062 -0.5725  0.4673
 6848SOL    HW221123   7.360   9.289   7.487  1.3871 -0.3928 -0.4861
 6849SOL     OW21124   0.132   4.665   0.732  0.3045 -0.1706 -0.7613
 6849SOL    HW121125   0.199   4.625   0.787 -0.1401 -1.1700 -0.9234
 6849SOL    HW221126   0.139   4.759   0.749  0.9527 -0.3691  0.1106
 6850SOL     OW21127   1.071   2.505   3.096 -0.4218 -0.7801 -0.3204
 6850SOL    HW121128   1.100   2.526   3.007  0.0546 -2.5811 -0.6167
 6850SOL    HW221129   1.041   2.589   3.131  2.9869  0.8126 -0.7879
 6851SOL     OW21130   4.363   6.022   9.075 -0.0514 -0.1148 -1.0312
 6851SOL    HW121131   4.344   6.051   8.986  2.1389 -2.0674 -2.2505
 6851SOL    HW221132   4.279   5.993   9.109 -1.0766  1.4271 -2.1226
 6852SOL     OW21133   2.757   1.356   5.290 -0.4335 -0.1652 -0.0162
 6852SOL    HW121134   2.697   1.422   5.254 -0.3819 -0.0026  0.1939
 6852SOL    HW221135   2.841   1.373   5.246 -0.1941  0.4633  0.6646
 6853SOL     OW21136   5.697   5.268   9.400 -0.2001  0.0602  0.1252
 6853SOL    HW121137   5.786   5.272   9.434  0.3752 -0.2916 -1.2742
 6853SOL    HW221138   5.653   5.205   9.457  0.5346  0.0002  0.6382
 6854SOL     OW21139   5.090   2.349   2.269 -0.0735 -0.5474 -0.2892
 6854SOL    HW121140   5.178   2.351   2.306  0.3291 -0.1382 -1.2394
 6854SOL    HW221141   5.098   2.395   2.185 -1.2000 -0.4663 -0.3672
 6855SOL     OW21142   3.986   3.173   0.864  0.0745  0.5736 -0.4263
 6855SOL    HW121143   3.899   3.181   0.825  0.4491  1.5568 -1.0985
 6855SOL    HW221144   4.010   3.262   0.890  0.5913  0.2103  0.4213
 6856SOL     OW21145   6.216   2.691   0.030 -0.6728  0.1800  0.2557
 6856SOL    HW121146   6.295   2.729  -0.009 -1.4124  0.2986 -1.2068
 6856SOL    HW221147   6.248   2.618   0.083  0.3244 -0.9546 -1.7695
 6857SOL     OW21148   2.747   9.271   7.244  0.0093  0.2216  0.0640
 6857SOL    HW121149   2.677   9.214   7.212 -0.7398 -0.1019  2.1022
 6857SOL    HW221150   2.730   9.356   7.202  0.2249 -0.6010 -1.7928
 6858SOL     OW21151   4.442   8.507   5.281 -0.0958  0.0736 -0.0586
 6858SOL    HW121152   4.428   8.600   5.300 -1.4035 -0.1532  0.1759
 6858SOL    HW221153   4.436   8.501   5.185 -0.5646  0.1603 -0.0398
 6859SOL     OW21154   9.473   4.758   6.745 -0.1444  0.4624  0.2558
 6859SOL    HW121155   9.398   4.730   6.797  0.9375 -0.6477  1.2875
 6859SOL    HW221156   9.511   4.832   6.793  0.9335 -0.6473  1.1901
 6860SOL     OW21157   8.814   2.619   4.401  0.2287 -0.0609  0.1966
 6860SOL    HW121158   8.832   2.705   4.363 -0.2616  0.5364  1.2597
 6860SOL    HW221159   8.725   2.598   4.373  0.6533 -0.6322 -0.7714
 6861SOL     OW21160   7.446   7.303   0.200  0.2255  0.2519  0.2007
 6861SOL    HW121161   7.432   7.357   0.123  2.2546  0.4358 -0.0887
 6861SOL    HW221162   7.522   7.249   0.179  0.0178 -0.6466  1.5789
 6862SOL     OW21163   4.078   0.926   8.858 -0.2956 -0.0832  0.2164
 6862SOL    HW121164   4.025   0.994   8.901  0.4810  0.3570  0.5145
 6862SOL    HW221165   4.118   0.971   8.783  1.2126  0.1635  1.1231
 6863SOL     OW21166   3.887   2.942   4.847 -0.7175 -0.3847 -0.0516
 6863SOL    HW121167   3.865   2.863   4.798 -1.2947 -0.1152 -0.2448
 6863SOL    HW221168   3.802   2.978   4.874 -0.4940  0.3824 -0.3249
 6864SOL     OW21169   1.603   6.453   6.883  0.6024 -0.9701 -0.3467
 6864SOL    HW121170   1.685   6.470   6.930  1.1280 -0.6428 -1.3459
 6864SOL    HW221171   1.535   6.461   6.949  1.0097  2.6197 -0.1788
 6865SOL     OW21172   2.301   5.997   2.803 -0.3527 -0.2079  0.3129
 6865SOL    HW121173   2.207   6.003   2.788 -0.4372 -1.0966  0.3891
 6865SOL    HW221174   2.319   5.903   2.801  0.8029  0.0155 -1.2570
 6866SOL     OW21175   8.397   5.064   6.845  0.3221 -0.1760  0.3966
 6866SOL    HW121176   8.392   5.090   6.754  0.1016 -0.8902  0.1931
 6866SOL    HW221177   8.488   5.079   6.870  0.6296 -0.9011 -0.2426
 6867SOL     OW21178   2.059   7.234   0.860  0.5795 -0.1576 -0.3976
 6867SOL    HW121179   2.026   7.321   0.839 -2.3990 -1.1160 -0.2688
 6867SOL    HW221180   1.989   7.194   0.912  3.0501 -1.6896  2.0135
 6868SOL     OW21181   5.127   7.501   4.128 -0.7339  0.3303  0.4752
 6868SOL    HW121182   5.143   7.413   4.162  0.5567  0.6221  0.6936
 6868SOL    HW221183   5.134   7.558   4.204  1.0752  0.8725 -0.0461
 6869SOL     OW21184   1.401   1.082  -0.002 -0.0781  0.2035  0.3784
 6869SOL    HW121185   1.445   1.056   0.078  0.8997  0.1295 -0.1700
 6869SOL    HW221186   1.308   1.067   0.016  0.2651 -1.8214  0.7868
 6870SOL     OW21187   8.409   8.362   5.703  0.5764  0.0280 -0.0464
 6870SOL    HW121188   8.392   8.409   5.785 -2.3110 -0.7466 -0.0809
 6870SOL    HW221189   8.474   8.295   5.727  0.9021  0.7707  1.2267
 6871SOL     OW21190   5.604   2.458   8.063  0.3450  0.2443 -0.4325
 6871SOL    HW121191   5.573   2.509   8.138  0.9174  0.9906 -0.6920
 6871SOL    HW221192   5.664   2.394   8.101 -0.3900 -0.2684 -0.1048
 6872SOL     OW21193   5.070   7.942   3.915 -0.3581  0.4919 -0.7535
 6872SOL    HW121194   5.052   8.026   3.958 -0.6218  0.4910 -0.8598
 6872SOL    HW221195   5.163   7.926   3.931 -0.3326  0.7529 -0.6419
 6873SOL     OW21196   8.542   3.833   6.094  0.4197  0.3696 -0.2511
 6873SOL    HW121197   8.514   3.791   6.013  0.0330 -0.4974  0.3190
 6873SOL    HW221198   8.589   3.765   6.142 -0.7755  0.3769  0.9812
 6874SOL     OW21199   8.021   8.915   8.371 -0.3602 -0.2903 -0.0509
 6874SOL    HW121200   8.093   8.901   8.432 -0.0308  2.0468  0.2052
 6874SOL    HW221201   7.942   8.916   8.427 -0.1699  0.7888  0.2263
 6875SOL     OW21202   6.074   1.081   6.388  0.6666 -0.2078 -0.6076
 6875SOL    HW121203   6.057   0.992   6.418 -1.2592  0.3529  0.1104
 6875SOL    HW221204   6.168   1.093   6.401  0.5317 -1.1945  1.9690
 6876SOL     OW21205   1.917   5.176   3.425  0.3743  0.3026 -0.4581
 6876SOL    HW121206   1.832   5.168   3.469  0.9802  2.4041  1.3407
 6876SOL    HW221207   1.976   5.122   3.478  0.2202 -1.0690 -1.6421
 6877SOL     OW21208   4.341   3.263   1.743  0.2904  0.2260  0.3497
 6877SOL    HW121209   4.287   3.313   1.805 -0.1238 -0.3990  0.4986
 6877SOL    HW221210   4.403   3.328   1.709 -0.0208  0.7705  0.7862
 6878SOL     OW21211   6.129   5.920   0.021 -0.7242 -0.3032 -0.2754
 6878SOL    HW121212   6.086   5.946  -0.060  0.9424 -1.0492 -1.4484
 6878SOL    HW221213   6.126   5.999   0.076 -0.0652  0.8913 -1.8692
 6879SOL     OW21214   2.580   7.669   4.730  0.1157 -0.0077 -0.1986
 6879SOL    HW121215   2.535   7.615   4.665 -2.3400  0.7109  0.7779
 6879SOL    HW221216   2.567   7.759   4.699  0.9333  0.2143  0.0932
 6880SOL     OW21217   6.343   1.439   7.445 -0.1912 -0.4193  0.0819
 6880SOL    HW121218   6.275   1.469   7.505 -1.3322 -1.8396 -0.4292
 6880SOL    HW221219   6.338   1.343   7.449  2.0860 -0.5804  0.3295
 6881SOL     OW21220   7.954   8.417   6.965  0.2518  0.0882 -0.1319
 6881SOL    HW121221   8.009   8.405   7.042  0.7888 -2.8754 -0.8490
 6881SOL    HW221222   8.009   8.464   6.903 -0.0559  2.1555  1.0666
 6882SOL     OW21223   7.473   3.527   8.066 -0.1851 -0.0054  0.6450
 6882SOL    HW121224   7.556   3.555   8.027  1.3942 -0.9840  3.0746
 6882SOL    HW221225   7.453   3.596   8.130 -0.4820 -0.4431  1.0319
 6883SOL     OW21226   9.764   4.233   8.356  0.5258  0.7134  0.5628
 6883SOL    HW121227   9.747   4.324   8.332 -1.0269  0.5704  1.0508
 6883SOL    HW221228   9.806   4.196   8.278  0.8216  1.7269  0.2185
 6884SOL     OW21229   1.324   8.181   5.538 -0.3487 -0.0020 -0.1835
 6884SOL    HW121230   1.275   8.233   5.474 -0.3615 -1.0745 -1.0818
 6884SOL    HW221231   1.416   8.201   5.518 -0.3423 -0.5406 -0.7509
 6885SOL     OW21232   1.263   8.230   4.914  0.2348 -0.0011 -0.2775
 6885SOL    HW121233   1.294   8.290   4.846  0.3452 -0.2458 -0.4486
 6885SOL    HW221234   1.168   8.225   4.901  0.4793 -1.8014 -1.9104
 6886SOL     OW21235   6.963   1.099   4.938  0.3524 -0.3728  0.2818
 6886SOL    HW121236   6.963   1.108   4.843  0.3186  0.3987  0.3483
 6886SOL    HW221237   6.923   1.014   4.954 -1.0316  0.1453 -0.3365
 6887SOL     OW21238   3.488   6.900   6.558  0.1666 -0.1949  0.7276
 6887SOL    HW121239   3.433   6.867   6.629 -0.4135 -0.3646  0.2037
 6887SOL    HW221240   3.427   6.930   6.492  0.6328 -2.5582 -0.9095
 6888SOL     OW21241   4.477   0.035   7.485  1.1712  0.0143  0.1700
 6888SOL    HW121242   4.451  -0.001   7.570  0.3908  1.5613  0.6207
 6888SOL    HW221243   4.394   0.051   7.440  1.5186  0.6245 -0.2660
 6889SOL     OW21244   5.224   2.277   4.794  0.7929 -0.1930 -0.2317
 6889SOL    HW121245   5.140   2.316   4.815  0.1267 -1.0897 -1.1446
 6889SOL    HW221246   5.203   2.197   4.747  2.1535 -0.6512 -0.1190
 6890SOL     OW21247   7.785   9.309   9.958  0.1065  0.0440  0.2273
 6890SOL    HW121248   7.762   9.239  10.019  0.8945  1.0877  1.7889
 6890SOL    HW221249   7.880   9.301   9.948  0.1356  0.6103  0.0552
 6891SOL     OW21250   7.689   5.279   8.910  0.3519  0.4605 -0.6698
 6891SOL    HW121251   7.737   5.199   8.891  0.4638  0.2268  0.5427
 6891SOL    HW221252   7.726   5.311   8.992  0.0464  1.5558 -0.9359
 6892SOL     OW21253   9.560   7.279   7.175  0.4311  0.3178  0.8847
 6892SOL    HW121254   9.618   7.345   7.213  3.0627 -0.8500 -0.7944
 6892SOL    HW221255   9.584   7.197   7.219 -1.1040  0.0314  1.2507
 6893SOL     OW21256   1.536   1.958   8.065 -0.0814 -0.4772 -0.1954
 6893SOL    HW121257   1.450   1.964   8.022 -0.1900 -0.2024  0.0525
 6893SOL    HW221258   1.532   1.876   8.113  0.8780 -1.9557 -2.4788
 6894SOL     OW21259   0.686   8.488   6.128 -0.0135  0.4686  0.3932
 6894SOL    HW121260   0.610   8.516   6.077 -1.5490 -2.4157  0.9314
 6894SOL    HW221261   0.761   8.506   6.071 -1.5317 -1.2515 -2.3566
 6895SOL     OW21262   1.138   1.024   0.953 -0.3842  0.6797  0.4737
 6895SOL    HW121263   1.053   1.011   0.910  0.4170  1.1401 -1.3280
 6895SOL    HW221264   1.182   0.940   0.945 -0.0734  0.8826 -0.0130
 6896SOL     OW21265   6.218   9.498   5.621  0.3766 -0.3972  0.3309
 6896SOL    HW121266   6.286   9.556   5.656  0.5485 -0.7514  0.5913
 6896SOL    HW221267   6.172   9.551   5.556  0.4306  0.0814  0.6800
 6897SOL     OW21268   0.023   9.976   3.213 -0.0590  0.1651 -0.5266
 6897SOL    HW121269   0.063   9.891   3.191 -0.3142 -0.5288  1.5186
 6897SOL    HW221270   0.018   9.976   3.308 -0.7247  2.2056 -0.5304
 6898SOL     OW21271   7.998   7.303   1.403 -0.6604 -0.3089 -0.2043
 6898SOL    HW121272   8.075   7.348   1.439 -1.3047 -0.3654  1.3373
 6898SOL    HW221273   8.019   7.290   1.310  0.5143  1.0811 -0.1757
 6899SOL     OW21274   1.577   4.901   5.076 -0.2907 -0.4344 -0.0008
 6899SOL    HW121275   1.578   4.987   5.034  1.7379  0.0779  1.0122
 6899SOL    HW221276   1.658   4.897   5.126  0.2059 -3.3698 -0.8535
 6900SOL     OW21277   0.792   0.070   5.944 -0.1869 -0.5598  0.2976
 6900SOL    HW121278   0.854   0.047   5.874 -0.0380 -1.5538  0.7348
 6900SOL    HW221279   0.815   0.011   6.016 -1.0861 -0.3374  0.7779
 6901SOL     OW21280   7.214   9.969   1.465  0.1776  0.3518  0.3382
 6901SOL    HW121281   7.135  10.022   1.474  0.9937  1.8310 -0.8125
 6901SOL    HW221282   7.207   9.904   1.535 -2.0704  0.3911  0.2258
 6902SOL     OW21283   5.151   9.628   9.938  0.2725  0.2363  0.4561
 6902SOL    HW121284   5.151   9.723   9.944 -2.2852  0.2347  1.5449
 6902SOL    HW221285   5.088   9.608   9.870  1.3832 -0.7144 -0.3369
 6903SOL     OW21286   6.832   2.515   9.187  0.1639  0.2890 -0.1235
 6903SOL    HW121287   6.880   2.435   9.205  0.1222  0.4399  0.6907
 6903SOL    HW221288   6.837   2.525   9.092  1.7669  0.3281 -0.0631
 6904SOL     OW21289   9.453   6.594   7.442  0.1659 -0.5289  0.1438
 6904SOL    HW121290   9.483   6.609   7.352 -3.0270 -0.9206 -1.1471
 6904SOL    HW221291   9.438   6.500   7.446 -0.4294 -0.4101  0.8124
 6905SOL     OW21292   5.384   9.069   0.321 -0.3120  0.2908 -0.5017
 6905SOL    HW121293   5.475   9.057   0.346 -0.1119  1.1990 -0.7520
 6905SOL    HW221294   5.388   9.108   0.233 -0.9163  0.9862 -0.2301
 6906SOL     OW21295   8.397   6.026   3.368  0.1109 -0.1991  0.0754
 6906SOL    HW121296   8.454   5.987   3.302 -1.3091 -0.1943 -1.1977
 6906SOL    HW221297   8.455   6.083   3.419  1.3263 -0.5464 -0.8700
 6907SOL     OW21298   8.345   3.508   1.870 -0.2610  0.1865  0.0721
 6907SOL    HW121299   8.342   3.558   1.952 -2.1691 -1.3078  1.0016
 6907SOL    HW221300   8.438   3.494   1.855  0.1992  1.6133  1.2675
 6908SOL     OW21301   2.865   0.334   6.382  0.2061 -0.1416  0.5478
 6908SOL    HW121302   2.952   0.343   6.422  0.3492  1.0419  0.0117
 6908SOL    HW221303   2.804   0.347   6.455  0.4726  0.6412  0.6350
 6909SOL     OW21304   5.005   2.508   7.724 -0.0964 -0.1942 -0.2188
 6909SOL    HW121305   4.993   2.589   7.674  1.4180  1.3489  1.7714
 6909SOL    HW221306   4.955   2.443   7.674 -1.0665  1.8318 -2.1188
 6910SOL     OW21307   0.811   6.107   3.138 -0.1601 -0.2529  0.0043
 6910SOL    HW121308   0.903   6.082   3.150  0.2661  1.3656  0.3350
 6910SOL    HW221309   0.774   6.037   3.084  0.7856 -1.8749  1.3403
 6911SOL     OW21310   2.141   7.009   2.746 -0.6873 -0.4882 -0.9710
 6911SOL    HW121311   2.131   7.038   2.656  1.4691 -1.5289 -1.6077
 6911SOL    HW221312   2.065   6.953   2.762 -0.9541 -0.4998 -2.2130
 6912SOL     OW21313   2.954   7.056   4.514  0.1886  0.1551  0.4824
 6912SOL    HW121314   3.031   7.039   4.460  1.3583 -1.0850  2.4316
 6912SOL    HW221315   2.952   7.152   4.524  2.3264  0.1446  1.5205
 6913SOL     OW21316   0.811   7.121   0.140 -0.2523  0.2277  0.3052
 6913SOL    HW121317   0.748   7.179   0.183  0.6833  1.5744 -0.0529
 6913SOL    HW221318   0.837   7.169   0.061 -0.8340 -1.5306 -1.0026
 6914SOL     OW21319   3.773   2.812   6.695  0.3088 -0.0750 -0.6988
 6914SOL    HW121320   3.863   2.813   6.660 -0.4566  1.0244 -2.8524
 6914SOL    HW221321   3.759   2.721   6.721  1.7679 -0.4525 -1.1076
 6915SOL     OW21322   9.439   2.827   7.178 -0.0874 -0.5775  0.4455
 6915SOL    HW121323   9.519   2.778   7.194  1.2966  1.3582 -0.1499
 6915SOL    HW221324   9.404   2.790   7.097  2.5341  1.1809 -1.6753
 6916SOL     OW21325   4.524   6.032   5.632 -0.1976 -0.8822  0.4610
 6916SOL    HW121326   4.484   6.118   5.619  1.6588 -0.2299 -1.5526
 6916SOL    HW221327   4.455   5.970   5.609 -0.7900  0.1473 -0.7066
 6917SOL     OW21328   7.339   3.327   6.081  0.0895  0.2474  0.9492
 6917SOL    HW121329   7.409   3.312   6.144  0.7411  4.7014  1.6195
 6917SOL    HW221330   7.347   3.420   6.057 -2.3940 -0.2932 -2.9864
 6918SOL     OW21331   4.268   4.896   0.383 -0.0711 -0.2777 -0.1839
 6918SOL    HW121332   4.304   4.956   0.448  0.4856 -1.5228  0.7082
 6918SOL    HW221333   4.187   4.938   0.354 -0.8383 -0.0786  2.0061
 6919SOL     OW21334   5.605   9.459   9.772  0.1397 -0.2419 -0.3636
 6919SOL    HW121335   5.587   9.485   9.863  1.6834  0.5115 -0.2446
 6919SOL    HW221336   5.546   9.385   9.757  2.1441 -2.6261  2.3977
 6920SOL     OW21337   0.823   8.959   7.868 -0.1629  0.0583 -0.2045
 6920SOL    HW121338   0.907   8.926   7.836 -0.7876 -1.4614 -0.3833
 6920SOL    HW221339   0.789   8.888   7.923 -1.2432  0.7190 -0.0032
 6921SOL     OW21340   1.757   7.517   2.376 -0.2647  0.2276 -0.3931
 6921SOL    HW121341   1.849   7.508   2.351  0.0397  0.7518  0.4729
 6921SOL    HW221342   1.751   7.466   2.458 -0.6879  0.3892 -0.3266
 6922SOL     OW21343   2.978   8.851   3.235 -0.1004  0.3766  0.4566
 6922SOL    HW121344   3.009   8.761   3.241  2.0254  1.0478  0.6355
 6922SOL    HW221345   3.001   8.889   3.320  0.6247  1.5024 -0.2111
 6923SOL     OW21346   1.401   4.203   9.352 -0.1088 -0.1837 -0.4232
 6923SOL    HW121347   1.381   4.292   9.383 -1.9970  0.3519 -2.9175
 6923SOL    HW221348   1.462   4.169   9.418 -1.7036  1.7900  2.3247
 6924SOL     OW21349   9.492   4.254   5.637 -0.2587  0.3500  0.1637
 6924SOL    HW121350   9.574   4.298   5.613 -0.6399  1.1150  0.2341
 6924SOL    HW221351   9.507   4.162   5.615  1.2920  0.1344  1.8502
 6925SOL     OW21352   6.543   4.227   5.696 -0.0840 -0.0711 -0.1508
 6925SOL    HW121353   6.513   4.315   5.672  1.1761  0.3313 -0.3364
 6925SOL    HW221354   6.472   4.169   5.670 -0.5116  0.7959 -0.9491
 6926SOL     OW21355   0.883   8.973   5.580 -0.3025 -0.1332 -0.2402
 6926SOL    HW121356   0.846   8.992   5.493 -0.5643  1.2863  0.1542
 6926SOL    HW221357   0.946   8.903   5.564 -0.2383  0.2001 -1.6086
 6927SOL     OW21358   4.616   8.146   4.054 -0.1766  0.0642  0.3147
 6927SOL    HW121359   4.525   8.154   4.084 -0.3329 -2.0022  0.5130
 6927SOL    HW221360   4.611   8.085   3.980  0.9766  0.5469 -0.1827
 6928SOL     OW21361   4.182   9.342   1.705  0.1110 -0.1548 -0.0152
 6928SOL    HW121362   4.238   9.290   1.764 -0.6852  1.1830  2.0234
 6928SOL    HW221363   4.186   9.431   1.741 -2.8574  0.1116 -0.0964
 6929SOL     OW21364   9.132   3.068   1.798 -0.7152 -0.1439 -0.6796
 6929SOL    HW121365   9.201   3.066   1.865 -0.8233 -0.4545 -0.5763
 6929SOL    HW221366   9.091   3.154   1.809  0.5585  0.6232 -1.6663
 6930SOL     OW21367   4.523   1.839   6.542 -0.0011  0.3593 -0.1091
 6930SOL    HW121368   4.534   1.762   6.598 -0.5726  0.4268  0.1038
 6930SOL    HW221369   4.470   1.807   6.469 -0.3250  0.5650  0.0303
 6931SOL     OW21370   8.362   0.584   7.080 -0.0786  0.2717 -0.4983
 6931SOL    HW121371   8.298   0.545   7.019  0.9892 -0.6977 -1.0360
 6931SOL    HW221372   8.447   0.565   7.041  0.7633 -1.9261  2.1051
 6932SOL     OW21373   7.112   7.882   0.231  0.3082 -0.5668  0.2965
 6932SOL    HW121374   7.051   7.870   0.304 -0.0448  1.4224  0.3993
 6932SOL    HW221375   7.056   7.891   0.154  0.4216  1.0421  0.3592
 6933SOL     OW21376   1.944   5.858   7.484 -0.4425 -0.3802  0.2323
 6933SOL    HW121377   2.001   5.782   7.479  1.4349  0.5765  3.5377
 6933SOL    HW221378   2.004   5.933   7.480 -1.2837  0.6757  3.8092
 6934SOL     OW21379   3.041   0.991   9.988 -0.4246 -0.1113  0.5535
 6934SOL    HW121380   2.975   0.933  10.027  0.9322 -0.5668  2.3206
 6934SOL    HW221381   3.084   0.937   9.922 -0.8945 -0.2709  0.3748
 6935SOL     OW21382   2.514   0.873   5.729  0.3371  0.2062  0.4788
 6935SOL    HW121383   2.442   0.889   5.790 -1.5067 -1.2892 -1.1725
 6935SOL    HW221384   2.552   0.790   5.758  0.3580  0.1872  0.3958
 6936SOL     OW21385   9.689   2.066   8.416 -0.2164  0.6761  0.3180
 6936SOL    HW121386   9.671   2.050   8.323  1.8278 -0.2912  0.0302
 6936SOL    HW221387   9.683   2.161   8.426 -2.3419  0.6732 -0.3228
 6937SOL     OW21388   4.963   3.509   7.099 -0.1599 -0.4076 -0.3675
 6937SOL    HW121389   4.959   3.487   7.192  0.3114 -1.2360 -0.5250
 6937SOL    HW221390   5.057   3.506   7.079 -0.2712 -0.3567 -0.8951
 6938SOL     OW21391   9.324   1.990   7.271  0.2236 -0.1641  0.5990
 6938SOL    HW121392   9.413   2.027   7.266  0.5936 -1.2376 -1.9529
 6938SOL    HW221393   9.267   2.067   7.267  1.0175  0.3889 -0.6006
 6939SOL     OW21394   8.900   8.536   7.963  0.0136 -0.2565 -0.2597
 6939SOL    HW121395   8.933   8.612   7.916 -1.9454 -0.3558 -1.9524
 6939SOL    HW221396   8.953   8.462   7.932  2.3002  0.4113  1.8111
 6940SOL     OW21397   1.251   1.596   6.276  0.0912 -0.0866 -0.5204
 6940SOL    HW121398   1.280   1.589   6.367  0.3442 -0.9056 -0.6606
 6940SOL    HW221399   1.273   1.686   6.251 -2.5683  1.1690  1.1006
 6941SOL     OW21400   0.467   5.315   9.940 -0.2615  0.3311 -0.2085
 6941SOL    HW121401   0.417   5.387   9.901  0.2589  0.9780  0.2729
 6941SOL    HW221402   0.550   5.315   9.891 -0.4573 -0.2707 -0.5389
 6942SOL     OW21403   7.506   7.488   8.573 -0.1562 -0.0642  0.3740
 6942SOL    HW121404   7.530   7.578   8.549 -1.7234  0.0054 -1.0899
 6942SOL    HW221405   7.424   7.472   8.526  0.3572 -2.4431  0.2062
 6943SOL     OW21406   7.556   3.208   3.565  0.3666 -0.1272 -0.2056
 6943SOL    HW121407   7.558   3.217   3.660 -1.7007  4.1262 -0.3184
 6943SOL    HW221408   7.487   3.144   3.548  0.0830 -0.1962  1.1178
 6944SOL     OW21409   5.227   2.744   4.467 -0.0718 -0.1045 -0.2660
 6944SOL    HW121410   5.234   2.746   4.372 -1.6035 -0.9632 -0.4330
 6944SOL    HW221411   5.208   2.834   4.492 -1.0721 -0.1102 -0.9375
 6945SOL     OW21412   5.613   8.557   0.850  0.0667 -0.4934 -0.2131
 6945SOL    HW121413   5.607   8.618   0.924  2.4901  2.5445 -2.2798
 6945SOL    HW221414   5.522   8.544   0.822 -0.5571  2.8524 -0.0897
 6946SOL     OW21415   3.640   9.937   3.450 -0.2776  0.0114 -0.5238
 6946SOL    HW121416   3.556   9.917   3.492 -0.4515  0.0139 -0.8713
 6946SOL    HW221417   3.705   9.901   3.510 -0.4474  1.5624  0.6290
 6947SOL     OW21418   7.172   1.229   6.845 -0.4121  0.0876 -0.3794
 6947SOL    HW121419   7.233   1.269   6.782  1.9058 -0.6922  1.2108
 6947SOL    HW221420   7.119   1.302   6.876 -0.2451  0.8372 -1.7421
 6948SOL     OW21421   5.678   8.934   1.543  0.0095 -0.3166  0.3246
 6948SOL    HW121422   5.652   8.895   1.459 -0.0691  2.2023 -0.9096
 6948SOL    HW221423   5.763   8.973   1.526  0.0938  0.0272  1.4938
 6949SOL     OW21424   8.955   5.707   9.964 -0.3661 -0.1097  0.6544
 6949SOL    HW121425   8.923   5.619   9.945 -1.4053  0.2392  0.7168
 6949SOL    HW221426   8.891   5.765   9.922  1.1986  0.6255 -0.8515
 6950SOL     OW21427   9.621   0.557   1.222 -0.2083  0.0856  0.4320
 6950SOL    HW121428   9.678   0.566   1.146 -1.0751  0.7058 -0.1572
 6950SOL    HW221429   9.636   0.637   1.273 -0.7896  0.3927  0.1161
 6951SOL     OW21430   8.379   8.765   0.260 -0.1663 -0.1550  0.0479
 6951SOL    HW121431   8.375   8.689   0.202 -1.7925  0.5259 -0.8011
 6951SOL    HW221432   8.435   8.827   0.214  1.6722 -1.0066  1.0247
 6952SOL     OW21433   3.446   4.639   6.138 -0.4140 -0.1194  0.2814
 6952SOL    HW121434   3.454   4.733   6.158  0.9923 -0.5788  2.1089
 6952SOL    HW221435   3.410   4.601   6.218 -0.5623 -1.2260 -0.2915
 6953SOL     OW21436   1.133   3.056   0.286  0.2304  0.4705 -0.3111
 6953SOL    HW121437   1.161   3.136   0.330  0.2068  1.3272 -1.7842
 6953SOL    HW221438   1.162   2.985   0.344  0.4476  1.5190  0.9129
 6954SOL     OW21439   4.032   2.774   5.875 -0.1979 -0.1011 -1.1988
 6954SOL    HW121440   4.004   2.694   5.918  0.5810 -0.5443 -1.4966
 6954SOL    HW221441   4.026   2.754   5.781 -0.7085  0.4403 -1.2881
 6955SOL     OW21442   0.306   0.729   8.499 -0.7601  0.4544 -0.3402
 6955SOL    HW121443   0.359   0.780   8.561  2.2741 -0.3735 -2.0401
 6955SOL    HW221444   0.287   0.647   8.544  1.0316  0.0410 -0.2671
 6956SOL     OW21445   3.408   5.511   7.958 -0.2027 -0.1409  0.1807
 6956SOL    HW121446   3.395   5.417   7.944 -3.6034  0.1029  0.9789
 6956SOL    HW221447   3.430   5.519   8.050 -0.8249 -0.1008  0.3278
 6957SOL     OW21448   2.810   6.997   5.312 -0.0019 -0.1449  0.5724
 6957SOL    HW121449   2.727   7.042   5.299  1.0518  1.4557 -0.9993
 6957SOL    HW221450   2.876   7.060   5.284  1.5980 -2.3205 -0.8858
 6958SOL     OW21451   6.534   0.636   9.628  0.1785 -0.3757 -0.3365
 6958SOL    HW121452   6.592   0.616   9.555  1.6131  0.8599  0.4102
 6958SOL    HW221453   6.588   0.687   9.689 -2.1287  2.2751 -0.3229
 6959SOL     OW21454   0.521   4.434   2.947  0.3171  0.5542  0.2666
 6959SOL    HW121455   0.590   4.499   2.957 -0.6453  1.3915  1.6710
 6959SOL    HW221456   0.556   4.373   2.881  1.0168  2.7518 -1.5105
 6960SOL     OW21457   6.314   8.743   5.665 -0.0606  0.3608 -0.5405
 6960SOL    HW121458   6.383   8.678   5.666 -0.9438 -0.6508  1.8659
 6960SOL    HW221459   6.342   8.810   5.728 -0.0776  1.3167 -1.5207
 6961SOL     OW21460   4.641   8.852   6.183  0.3356  0.0370 -0.1777
 6961SOL    HW121461   4.667   8.816   6.099 -2.4311  0.9810 -1.5408
 6961SOL    HW221462   4.553   8.817   6.199  0.6436  0.1409  2.1820
 6962SOL     OW21463   5.826   4.803   0.226 -0.1941  0.2108 -0.0592
 6962SOL    HW121464   5.820   4.879   0.285 -2.9874 -0.1740  0.2935
 6962SOL    HW221465   5.840   4.729   0.285 -1.5369 -0.0029  0.0058
 6963SOL     OW21466   9.950   9.517   9.077 -0.2683  0.6325 -0.0272
 6963SOL    HW121467   9.871   9.554   9.117  0.8256  2.4971  0.4929
 6963SOL    HW221468  10.007   9.499   9.152  0.4713  0.9155 -0.5253
 6964SOL     OW21469   6.268   5.371   3.314  0.2928 -0.0336 -0.0676
 6964SOL    HW121470   6.264   5.276   3.322  0.1873 -0.1649 -1.3497
 6964SOL    HW221471   6.305   5.401   3.397  1.1866 -1.2608  0.0113
 6965SOL     OW21472   8.827   6.180   4.738 -0.0175 -0.0998 -0.4128
 6965SOL    HW121473   8.808   6.165   4.831  1.5248  1.2870  0.1860
 6965SOL    HW221474   8.848   6.094   4.703  0.5930 -0.4867  0.8413
 6966SOL     OW21475   5.739   6.339   5.492 -0.1241  0.0562 -0.4051
 6966SOL    HW121476   5.681   6.402   5.533 -0.8104 -0.6618 -0.2427
 6966SOL    HW221477   5.697   6.318   5.408 -0.9789 -1.6603  0.3945
 6967SOL     OW21478   8.716   7.886   6.949  0.0862  0.0256  0.1165
 6967SOL    HW121479   8.664   7.923   6.879 -1.0283 -0.5690  0.5947
 6967SOL    HW221480   8.804   7.921   6.936  0.1566 -0.8774 -2.1749
 6968SOL     OW21481   9.164   4.069   2.899  0.5764  0.1641  0.3619
 6968SOL    HW121482   9.126   4.058   2.986 -1.4891 -0.1095 -0.5239
 6968SOL    HW221483   9.167   4.164   2.885  2.1698  0.2819  1.1953
 6969SOL     OW21484   3.380   7.104   6.824  0.3880 -0.0348  0.2609
 6969SOL    HW121485   3.365   7.055   6.905  0.2615 -1.5185 -0.6079
 6969SOL    HW221486   3.475   7.105   6.814  0.3966 -0.0061  0.3454
 6970SOL     OW21487   3.735   1.886   5.077  0.0642 -0.1325  0.3251
 6970SOL    HW121488   3.791   1.959   5.101 -0.6534  0.3523  0.5773
 6970SOL    HW221489   3.647   1.914   5.104 -0.2784 -0.9164  0.0482
 6971SOL     OW21490   8.336   4.775   6.864 -0.0560 -0.6464 -0.5833
 6971SOL    HW121491   8.299   4.797   6.778 -1.8945 -1.6083 -0.0984
 6971SOL    HW221492   8.388   4.852   6.888 -2.3879  1.2209 -1.0139
 6972SOL     OW21493   4.108   4.421   3.684 -0.5866 -0.2208  0.1824
 6972SOL    HW121494   4.064   4.388   3.606  0.3058 -0.4415 -0.2448
 6972SOL    HW221495   4.164   4.493   3.652  2.1130 -2.2277  0.0334
 6973SOL     OW21496   9.553   1.550   1.053  0.2734 -0.4536 -0.5659
 6973SOL    HW121497   9.514   1.474   1.096 -3.4182  1.4934 -0.0962
 6973SOL    HW221498   9.576   1.609   1.124  2.2748 -0.6797 -0.9716
 6974SOL     OW21499   5.853   8.476   0.970 -0.3421  0.4452 -0.6582
 6974SOL    HW121500   5.848   8.391   1.014  1.4858 -0.0305 -1.2813
 6974SOL    HW221501   5.768   8.487   0.929 -0.6309 -1.0659 -0.5210
 6975SOL     OW21502   5.259   2.959   6.581 -0.0474  0.0379  0.5854
 6975SOL    HW121503   5.182   2.980   6.634 -0.1733 -0.1702  0.4877
 6975SOL    HW221504   5.285   2.871   6.610 -1.2595 -0.9043 -1.0105
 6976SOL     OW21505   8.307   5.388   3.531 -0.2757 -0.8620  0.1302
 6976SOL    HW121506   8.343   5.471   3.562  0.2014 -0.6506 -0.9575
 6976SOL    HW221507   8.213   5.405   3.524 -0.1257 -0.2564 -0.5312
 6977SOL     OW21508   4.093   2.060   6.117  0.1404  0.2012  0.4357
 6977SOL    HW121509   4.023   1.996   6.105  0.6809 -0.3935  0.3700
 6977SOL    HW221510   4.167   2.008   6.150  0.2368  0.9790  1.4833
 6978SOL     OW21511   2.575   0.690   0.319 -0.1253 -0.1934  0.0814
 6978SOL    HW121512   2.560   0.622   0.253 -0.3196 -0.5511  0.4852
 6978SOL    HW221513   2.542   0.652   0.401 -1.4096  0.8618  0.0918
 6979SOL     OW21514   8.761   6.930   7.699  0.2102  0.0252 -0.0791
 6979SOL    HW121515   8.683   6.982   7.715  1.5644  1.9860  0.5211
 6979SOL    HW221516   8.754   6.905   7.607 -1.7281 -0.9973  0.2870
 6980SOL     OW21517   1.000   2.110   0.018  0.2695  0.2494  0.2071
 6980SOL    HW121518   0.923   2.066   0.053  0.1344  0.1819 -0.1744
 6980SOL    HW221519   0.970   2.152  -0.062  0.1131  1.9282  1.0803
 6981SOL     OW21520  10.006   8.383   0.931 -0.6732  0.3880  0.6385
 6981SOL    HW121521   9.946   8.416   0.865  0.0508  0.5471  0.0579
 6981SOL    HW221522   9.974   8.295   0.950 -0.0068 -0.2646 -1.0574
 6982SOL     OW21523   7.334   3.674   5.451  0.6085 -0.3787  0.1166
 6982SOL    HW121524   7.387   3.707   5.524 -0.6163 -0.3789  1.0361
 6982SOL    HW221525   7.244   3.698   5.474  0.3831  2.5144 -2.8842
 6983SOL     OW21526   9.067   5.754   8.257  0.1873  0.1194  0.2887
 6983SOL    HW121527   9.084   5.837   8.212  2.8634  0.7004  2.1126
 6983SOL    HW221528   8.974   5.737   8.244 -0.1736  2.7891 -1.1420
 6984SOL     OW21529   7.667   7.138   5.894 -0.2044 -0.2493 -0.0032
 6984SOL    HW121530   7.740   7.147   5.832  0.2736  0.1105  0.5943
 6984SOL    HW221531   7.591   7.170   5.846 -0.5331 -3.0590 -1.5810
 6985SOL     OW21532   9.631   9.312   1.230 -0.0963 -0.0851  1.0680
 6985SOL    HW121533   9.599   9.224   1.250 -2.5421  0.3912 -0.3483
 6985SOL    HW221534   9.712   9.298   1.181 -0.0362 -1.5233  1.5498
 6986SOL     OW21535   9.099   0.447   4.449 -0.9250  0.2155  0.3465
 6986SOL    HW121536   9.107   0.377   4.383  0.9363  1.2252 -0.5654
 6986SOL    HW221537   9.132   0.525   4.405 -0.1679  1.0419  2.3115
 6987SOL     OW21538   8.936   0.096   4.727 -0.1886  0.1263  0.1291
 6987SOL    HW121539   8.864   0.131   4.673  0.7582 -0.2981 -1.4946
 6987SOL    HW221540   8.967   0.172   4.776  0.1524  1.0299 -1.3915
 6988SOL     OW21541   2.761   9.080   8.684  0.1302  0.5820 -0.4743
 6988SOL    HW121542   2.685   9.086   8.742  0.4727  0.5506 -0.0118
 6988SOL    HW221543   2.791   8.990   8.693 -1.6081 -0.3584 -3.0352
 6989SOL     OW21544   6.520   4.130   0.643 -0.2051  0.3272  0.3920
 6989SOL    HW121545   6.446   4.173   0.600  0.2366  0.0911 -0.6453
 6989SOL    HW221546   6.579   4.201   0.667 -0.6889  0.5033  1.0866
 6990SOL     OW21547   4.576   9.319   1.209  0.0406  0.3455 -0.7360
 6990SOL    HW121548   4.495   9.281   1.176 -0.0446  1.5358 -1.9970
 6990SOL    HW221549   4.550   9.403   1.247  0.5074  0.1134  0.1365
 6991SOL     OW21550   6.735   0.218   6.853 -0.6894 -0.2169  0.0846
 6991SOL    HW121551   6.718   0.236   6.946 -0.8162  0.2473 -0.0304
 6991SOL    HW221552   6.707   0.297   6.807 -1.3446 -0.7334 -0.4287
 6992SOL     OW21553   3.255   4.179   7.926  0.4212 -0.1582  0.3717
 6992SOL    HW121554   3.170   4.151   7.893  0.5099  0.9483 -0.8762
 6992SOL    HW221555   3.306   4.200   7.847  1.7695 -0.5428  1.0990
 6993SOL     OW21556   7.148   4.901   5.642  0.2527  0.0753  0.7731
 6993SOL    HW121557   7.056   4.929   5.636  0.3146  0.2593  0.6634
 6993SOL    HW221558   7.179   4.938   5.724  0.9386  2.1604 -0.3398
 6994SOL     OW21559   3.626   7.574   5.503  0.2087 -0.1888 -0.1424
 6994SOL    HW121560   3.708   7.576   5.455  0.3067  1.3435  0.0243
 6994SOL    HW221561   3.645   7.619   5.585 -0.8717  0.5066 -0.2501
 6995SOL     OW21562   5.760   6.566   9.534  0.0264  0.1588 -0.5619
 6995SOL    HW121563   5.667   6.586   9.522  0.3561  0.8300 -2.3401
 6995SOL    HW221564   5.764   6.515   9.615 -2.1856 -1.8631 -1.6005
 6996SOL     OW21565   1.835   1.350   9.176 -0.2914  0.1422  0.2617
 6996SOL    HW121566   1.863   1.329   9.265  0.8946 -2.0034 -0.5560
 6996SOL    HW221567   1.898   1.415   9.145  1.8574 -2.1101 -0.3571
 6997SOL     OW21568   8.064   5.055   9.911  0.5018 -0.4869 -0.1307
 6997SOL    HW121569   8.028   5.122   9.853 -0.9132 -0.6907  0.4757
 6997SOL    HW221570   8.064   4.975   9.859 -1.1721 -0.7638  0.2470
 6998SOL     OW21571   7.054   6.634   2.542 -0.5621  0.5227  0.0110
 6998SOL    HW121572   7.123   6.599   2.599  0.8712  2.2411 -0.5994
 6998SOL    HW221573   6.972   6.601   2.581  0.5830 -2.0297  0.4396
 6999SOL     OW21574   3.236   4.355   6.933 -0.2585 -0.3554 -0.1732
 6999SOL    HW121575   3.215   4.440   6.895  1.1849  0.1405  0.0452
 6999SOL    HW221576   3.310   4.374   6.992  1.4844 -2.0752 -1.6815
 7000SOL     OW21577   6.666   7.764   2.837  0.3972 -0.9005 -0.2286
 7000SOL    HW121578   6.600   7.775   2.768  0.5298 -0.2599 -0.2638
 7000SOL    HW221579   6.727   7.836   2.822  0.1827 -0.4833  0.8291
 7001SOL     OW21580   8.157   4.475   6.464  0.4848 -0.0360 -0.7814
 7001SOL    HW121581   8.221   4.486   6.534 -0.1110  0.8349 -0.3460
 7001SOL    HW221582   8.195   4.410   6.405  0.5265 -1.6310  0.9200
 7002SOL     OW21583   0.620   4.592   4.288  0.3180 -0.1564  0.0453
 7002SOL    HW121584   0.549   4.531   4.265  0.1008  0.1615 -0.1441
 7002SOL    HW221585   0.610   4.607   4.381  0.7968 -0.9443  0.2374
 7003SOL     OW21586   0.138   6.671   1.613  0.1099  0.5057 -0.0668
 7003SOL    HW121587   0.213   6.642   1.665  0.6697 -0.3523 -1.3010
 7003SOL    HW221588   0.063   6.656   1.670  0.8618  1.4813  1.2376
 7004SOL     OW21589   3.852   5.387   3.298 -0.4998 -0.2417  0.1314
 7004SOL    HW121590   3.810   5.455   3.244 -2.1481 -0.7908  0.6503
 7004SOL    HW221591   3.928   5.431   3.337 -0.7554  0.9044 -0.6010
 7005SOL     OW21592   9.653   9.305   9.332  0.0468  0.5781  0.1367
 7005SOL    HW121593   9.681   9.232   9.387  0.4875  0.8504  0.2870
 7005SOL    HW221594   9.610   9.366   9.393  0.1037  0.6594  0.0955
 7006SOL     OW21595   8.631   0.039   7.330 -0.3486  0.1081 -0.3725
 7006SOL    HW121596   8.623   0.006   7.419  1.5487 -1.5448 -0.7229
 7006SOL    HW221597   8.721   0.072   7.325 -1.1050  2.2428 -1.0872
 7007SOL     OW21598   3.915   5.662   6.173 -0.3016 -0.3328 -0.0449
 7007SOL    HW121599   3.907   5.714   6.092  0.4285  0.9277  0.6491
 7007SOL    HW221600   3.828   5.625   6.186 -0.8764  0.7577 -0.5682
 7008SOL     OW21601   1.341   3.764   0.825 -0.5825  0.1960  0.2126
 7008SOL    HW121602   1.415   3.756   0.763 -0.2710 -0.0664  0.6135
 7008SOL    HW221603   1.328   3.859   0.834 -1.1351  0.2392 -0.8445
 7009SOL     OW21604   3.425   5.574   3.024 -0.1850 -0.0284  1.1120
 7009SOL    HW121605   3.419   5.662   3.061  0.9226  0.5078  0.1218
 7009SOL    HW221606   3.361   5.574   2.953  0.7846  0.5087  0.1944
 7010SOL     OW21607   8.174   6.753   6.098 -0.0311  0.5480 -0.4381
 7010SOL    HW121608   8.211   6.825   6.047 -0.4714  1.5788  0.6717
 7010SOL    HW221609   8.218   6.758   6.183  0.3914 -0.8963 -0.5400
 7011SOL     OW21610   6.331   4.706   7.069  0.4003 -0.1926 -0.1718
 7011SOL    HW121611   6.293   4.794   7.071  1.1535  0.1312  0.1551
 7011SOL    HW221612   6.302   4.666   7.151  1.2800  0.2869  0.3919
 7012SOL     OW21613   7.849   7.226   3.415  0.1341  0.6079 -0.8918
 7012SOL    HW121614   7.896   7.189   3.490 -1.4283 -0.6315 -0.4815
 7012SOL    HW221615   7.757   7.220   3.438 -0.2970  4.4629 -0.9950
 7013SOL     OW21616   0.900   0.166   3.814  0.4021  0.2805  0.4573
 7013SOL    HW121617   0.903   0.075   3.845 -0.7611 -0.2272 -0.7803
 7013SOL    HW221618   0.972   0.210   3.859  0.1916 -0.9408  2.0511
 7014SOL     OW21619   5.348   0.478   9.338  0.2476  0.4264  0.0084
 7014SOL    HW121620   5.408   0.480   9.264  1.3215 -1.2506  0.7649
 7014SOL    HW221621   5.263   0.456   9.299  0.3929  1.4366 -0.9111
 7015SOL     OW21622   7.668   6.619   8.784  0.2803  0.2754 -0.7079
 7015SOL    HW121623   7.654   6.597   8.691 -0.5523 -1.5718 -0.1872
 7015SOL    HW221624   7.617   6.553   8.832  0.6176  1.2617  1.0722
 7016SOL     OW21625   8.866   7.182   9.260  0.2133 -0.0086  0.6194
 7016SOL    HW121626   8.939   7.163   9.202  0.1982  0.1536  0.5468
 7016SOL    HW221627   8.798   7.217   9.202 -0.1243 -0.6752  0.6050
 7017SOL     OW21628   5.933   5.648   6.695 -0.2213  0.0681 -0.2499
 7017SOL    HW121629   5.880   5.717   6.735 -0.2534 -0.3706  0.5001
 7017SOL    HW221630   6.012   5.645   6.749 -0.1019 -0.2980 -0.4428
 7018SOL     OW21631   8.345   0.555   9.979  0.0847  0.1733 -0.4282
 7018SOL    HW121632   8.253   0.544   9.959 -0.1158 -1.3827  1.1020
 7018SOL    HW221633   8.391   0.499   9.917 -0.0985 -0.1204 -0.2972
 7019SOL     OW21634   0.808   0.060   5.474  0.4405  0.7783 -0.9007
 7019SOL    HW121635   0.761  -0.013   5.514  0.6577  1.8433  1.4432
 7019SOL    HW221636   0.803   0.042   5.380 -0.3079 -1.7345 -0.4670
 7020SOL     OW21637   9.737   7.411   1.590  0.5301 -0.5503 -0.1450
 7020SOL    HW121638   9.825   7.387   1.618  1.0473 -0.4499 -1.6077
 7020SOL    HW221639   9.685   7.332   1.603  0.7004 -0.4760  1.1661
 7021SOL     OW21640   5.825   9.985   4.438  0.1892 -0.0648 -0.4727
 7021SOL    HW121641   5.901   9.930   4.461  0.1439  0.0572 -0.0388
 7021SOL    HW221642   5.769   9.927   4.387  0.3500 -0.2953 -0.3901
 7022SOL     OW21643   2.809   7.824   3.035 -0.0778  0.0896 -0.4407
 7022SOL    HW121644   2.795   7.833   3.129 -0.6401  0.3175 -0.5442
 7022SOL    HW221645   2.894   7.780   3.027 -1.5778 -3.1725  0.2157
 7023SOL     OW21646   5.503   6.908   0.780 -0.0866 -0.3176 -0.0361
 7023SOL    HW121647   5.432   6.936   0.722 -1.4278 -1.3629  1.0405
 7023SOL    HW221648   5.536   6.827   0.742  0.4974  0.1289 -0.4955
 7024SOL     OW21649   9.146   6.760   4.027 -0.2874  0.5209 -0.1929
 7024SOL    HW121650   9.236   6.751   4.059  0.9101  2.6623 -2.6035
 7024SOL    HW221651   9.139   6.696   3.956 -1.4270 -1.0079  1.1850
 7025SOL     OW21652   5.069   8.868   7.368  0.1985 -0.0569 -0.0494
 7025SOL    HW121653   5.120   8.787   7.371  1.1228  0.5253  1.4193
 7025SOL    HW221654   5.125   8.931   7.323 -0.7620 -0.3617 -1.7291
 7026SOL     OW21655   4.710   6.282   7.608 -0.3595 -0.0088  0.2269
 7026SOL    HW121656   4.678   6.275   7.699 -0.5051  2.4751  0.4466
 7026SOL    HW221657   4.630   6.279   7.555 -0.5294  1.1262  0.3980
 7027SOL     OW21658   2.535   2.142   6.070 -0.4102  0.7582 -0.2644
 7027SOL    HW121659   2.583   2.105   5.997  0.1579 -1.0124  0.9370
 7027SOL    HW221660   2.470   2.200   6.030 -1.4126 -1.6188 -2.2965
 7028SOL     OW21661   2.834   2.216   9.866 -0.0517 -0.5254  0.6127
 7028SOL    HW121662   2.911   2.271   9.880 -0.8214  1.7103 -2.6546
 7028SOL    HW221663   2.797   2.203   9.953  1.2413  2.6769  1.7878
 7029SOL     OW21664   1.711   7.357   9.669  0.3705  0.0381 -0.0044
 7029SOL    HW121665   1.733   7.329   9.758  0.2892 -1.5324 -0.4397
 7029SOL    HW221666   1.654   7.432   9.681 -2.3506 -2.0866  1.4163
 7030SOL     OW21667   1.540   7.536   0.722 -0.0038 -0.1867 -0.3039
 7030SOL    HW121668   1.572   7.474   0.788  0.3803 -0.5900 -0.8678
 7030SOL    HW221669   1.481   7.594   0.771  0.0777 -0.6402  0.3441
 7031SOL     OW21670   1.828   5.361   9.523  0.5511 -0.8503 -0.0936
 7031SOL    HW121671   1.920   5.357   9.547  0.3949 -0.7750  0.5299
 7031SOL    HW221672   1.800   5.270   9.516  0.0468 -0.9197  2.2069
 7032SOL     OW21673   1.590   3.938   5.052 -0.0989 -0.3955 -0.0171
 7032SOL    HW121674   1.516   3.995   5.031  1.1485  0.0318 -3.9103
 7032SOL    HW221675   1.554   3.850   5.054 -0.7445 -0.2515 -2.4224
 7033SOL     OW21676   3.169   6.568   3.725  0.1285  0.2086  0.3478
 7033SOL    HW121677   3.233   6.600   3.789  0.7869 -1.1934  0.4311
 7033SOL    HW221678   3.216   6.501   3.676 -0.4080  1.1595 -1.5388
 7034SOL     OW21679   2.636   2.511   4.547  0.7803 -0.2606  0.4346
 7034SOL    HW121680   2.617   2.559   4.628 -0.9721 -0.1757  0.0013
 7034SOL    HW221681   2.689   2.437   4.575 -1.3803 -1.3200  2.0088
 7035SOL     OW21682   2.621   8.941   4.697 -0.1355  0.2145  0.4474
 7035SOL    HW121683   2.589   8.940   4.607 -0.5132  1.0506  0.5697
 7035SOL    HW221684   2.642   8.849   4.715 -0.4583 -0.0280 -0.3462
 7036SOL     OW21685   6.664   5.890   7.190  0.3468  0.3463  0.2805
 7036SOL    HW121686   6.744   5.855   7.150  0.3815  2.4998 -1.7349
 7036SOL    HW221687   6.594   5.842   7.147  0.4521  1.4760 -1.2285
 7037SOL     OW21688   1.822   3.215   3.037 -0.1573  0.5737  0.1301
 7037SOL    HW121689   1.779   3.291   2.998 -1.0246  0.7100  1.2919
 7037SOL    HW221690   1.826   3.151   2.966  1.5692  2.0176 -1.2002
 7038SOL     OW21691   2.645   4.622   8.660  0.6873 -0.2723  0.0564
 7038SOL    HW121692   2.683   4.539   8.688 -0.5295 -0.9111 -0.1377
 7038SOL    HW221693   2.618   4.607   8.569  2.6342  1.1017 -0.8315
 7039SOL     OW21694   5.460   2.020   5.658 -0.1494 -0.1432  0.1422
 7039SOL    HW121695   5.540   2.058   5.623  0.3230 -1.6488 -0.5205
 7039SOL    HW221696   5.391   2.050   5.598 -0.0968  1.1132  0.6851
 7040SOL     OW21697   5.229   6.949   4.010 -0.0010  0.0875  0.0562
 7040SOL    HW121698   5.276   6.918   4.088  0.1084  1.9439  0.7749
 7040SOL    HW221699   5.196   7.035   4.035  0.4778  0.9730 -2.1232
 7041SOL     OW21700   6.194   1.998   9.387  0.4455  0.1471 -0.2779
 7041SOL    HW121701   6.185   1.960   9.300 -0.0629  0.5838 -0.4183
 7041SOL    HW221702   6.220   2.088   9.371 -0.3209  0.4205  0.0066
 7042SOL     OW21703   6.725   7.692   4.365 -0.1303  0.1415 -0.2399
 7042SOL    HW121704   6.697   7.733   4.447 -0.9159 -1.4841  0.3617
 7042SOL    HW221705   6.818   7.675   4.377 -0.1135  0.4597  0.0804
 7043SOL     OW21706   3.964   6.660   9.218 -0.2457 -0.1233  0.4901
 7043SOL    HW121707   3.920   6.609   9.150  0.3260 -1.2269  0.9184
 7043SOL    HW221708   3.915   6.641   9.298  0.7991 -1.1588  0.9211
 7044SOL     OW21709   7.347   5.571   1.565  0.3260 -0.0955  0.0729
 7044SOL    HW121710   7.427   5.523   1.545  1.0162  0.6933  0.8428
 7044SOL    HW221711   7.360   5.604   1.654 -0.1214  1.4916 -0.4043
 7045SOL     OW21712   0.782   3.745   2.844  0.4934 -0.3885  0.6720
 7045SOL    HW121713   0.835   3.714   2.917 -1.2382 -0.1155  2.1154
 7045SOL    HW221714   0.819   3.831   2.823 -0.4522  0.6539  2.9140
 7046SOL     OW21715   1.115   6.996   8.568  0.5199  0.5405 -0.2823
 7046SOL    HW121716   1.205   7.028   8.560  0.6830  0.6332  1.5890
 7046SOL    HW221717   1.123   6.909   8.605 -0.1680  0.7645  0.4228
 7047SOL     OW21718   8.564   5.848   6.722  0.1321 -0.6445  0.3990
 7047SOL    HW121719   8.654   5.859   6.692 -0.0032 -1.5064 -0.3480
 7047SOL    HW221720   8.533   5.769   6.678  0.3311 -2.7490  3.6706
 7048SOL     OW21721   3.904   5.310   8.201 -0.0169 -0.2351 -0.0261
 7048SOL    HW121722   3.836   5.304   8.134  1.0826 -1.3825 -1.1159
 7048SOL    HW221723   3.965   5.376   8.167 -0.6514  0.9325  1.0358
 7049SOL     OW21724   3.521   1.739   9.493  0.2208 -0.0103  0.2563
 7049SOL    HW121725   3.608   1.700   9.505 -0.2024 -1.2802 -0.5815
 7049SOL    HW221726   3.537   1.833   9.484  1.5284 -0.2619 -0.1941
 7050SOL     OW21727   3.879   2.976   0.493  0.0683 -0.0005 -0.2586
 7050SOL    HW121728   3.959   3.020   0.464  0.3073 -0.4408 -0.2725
 7050SOL    HW221729   3.893   2.884   0.471  0.2965 -0.3795  1.3302
 7051SOL     OW21730   0.349   4.924   8.841  0.5467 -0.2841  0.0657
 7051SOL    HW121731   0.389   4.842   8.810  0.3071 -0.8806  1.2796
 7051SOL    HW221732   0.423   4.985   8.848  0.9108 -0.7406  0.2626
 7052SOL     OW21733   0.620   7.518   8.820 -0.3746  0.1887  0.1749
 7052SOL    HW121734   0.588   7.445   8.768  0.9585 -0.8737  0.7962
 7052SOL    HW221735   0.643   7.585   8.755 -1.4414  0.0143 -0.4058
 7053SOL     OW21736   5.071   9.323   7.701 -0.3484 -0.1899  1.0568
 7053SOL    HW121737   5.159   9.292   7.724  0.1349  1.6128  1.8494
 7053SOL    HW221738   5.040   9.261   7.635  1.8958 -0.3388  0.0629
 7054SOL     OW21739   3.956   2.431   5.096  0.9488  0.1586 -0.0309
 7054SOL    HW121740   3.994   2.385   5.171 -0.5894 -1.7102 -0.3252
 7054SOL    HW221741   4.027   2.432   5.031  1.6289 -0.0567  0.6890
 7055SOL     OW21742   3.826   5.761   5.005 -0.4367 -0.0882  0.2952
 7055SOL    HW121743   3.798   5.724   5.089  0.7691 -0.2358  0.6579
 7055SOL    HW221744   3.868   5.688   4.959 -0.2924  0.2082 -0.0490
 7056SOL     OW21745   1.161   5.397   5.037 -0.2588 -0.1849 -0.7257
 7056SOL    HW121746   1.087   5.451   5.010  0.0848  0.6801  0.0188
 7056SOL    HW221747   1.127   5.307   5.034 -1.1599  0.1525 -0.9599
 7057SOL     OW21748   2.493   5.112   2.867 -0.1998  0.2414  0.4622
 7057SOL    HW121749   2.438   5.191   2.876 -1.1083 -0.4806  1.5293
 7057SOL    HW221750   2.458   5.067   2.790  1.0097  1.3751 -0.8040
 7058SOL     OW21751   2.308   4.856   5.017 -0.4687 -0.0322  0.1338
 7058SOL    HW121752   2.334   4.766   4.999  0.6485  0.4918 -1.0450
 7058SOL    HW221753   2.390   4.900   5.038 -1.0960  0.5675  1.4042
 7059SOL     OW21754   6.782   6.987   4.759 -0.4434  0.7587  0.2289
 7059SOL    HW121755   6.839   6.995   4.683  0.9349  0.2556  1.1681
 7059SOL    HW221756   6.696   7.017   4.729 -0.6076 -1.7987 -2.2722
 7060SOL     OW21757   3.121   0.893   7.150 -0.0306  0.0507  0.1204
 7060SOL    HW121758   3.089   0.810   7.115 -0.1706 -0.3004  1.0545
 7060SOL    HW221759   3.215   0.891   7.135  0.4374 -1.5449  2.5702
 7061SOL     OW21760   8.064   5.018   6.687 -0.3929 -0.2069 -0.1534
 7061SOL    HW121761   8.105   4.993   6.604  0.7242 -1.2635  0.6883
 7061SOL    HW221762   7.971   4.999   6.675 -0.1675 -0.8455 -0.9848
 7062SOL     OW21763   8.153   6.383   9.213  0.2078 -0.0674 -0.0877
 7062SOL    HW121764   8.101   6.320   9.262 -1.9498  1.6361 -0.0265
 7062SOL    HW221765   8.153   6.462   9.268  0.3687  0.8979 -1.4242
 7063SOL     OW21766   4.678   2.890   9.565  0.6360 -0.1265  0.4450
 7063SOL    HW121767   4.694   2.800   9.536  0.3356  0.1748 -0.6994
 7063SOL    HW221768   4.726   2.945   9.503  1.5907  0.4918  1.6882
 7064SOL     OW21769   4.611   5.275   1.788 -0.2913 -0.4140  0.1843
 7064SOL    HW121770   4.600   5.279   1.883 -0.1955 -0.0321  0.1775
 7064SOL    HW221771   4.679   5.339   1.768  1.4433 -2.1472  0.1414
 7065SOL     OW21772   0.732   4.029   2.618 -0.1853  0.6057 -0.1083
 7065SOL    HW121773   0.747   4.023   2.523  1.0868 -0.9955  0.1630
 7065SOL    HW221774   0.683   3.950   2.640 -0.2507  0.8401  0.6217
 7066SOL     OW21775   2.644   3.913   5.786  0.1424  0.0223 -0.3194
 7066SOL    HW121776   2.730   3.948   5.808 -0.0484  1.4083 -1.6018
 7066SOL    HW221777   2.636   3.834   5.839  1.3787  0.9145  1.2803
 7067SOL     OW21778   4.996   3.955   9.610 -0.2704 -0.0184 -0.0996
 7067SOL    HW121779   4.996   3.860   9.621 -0.7496  0.0480  0.6213
 7067SOL    HW221780   5.063   3.973   9.544 -0.8443 -0.9347 -0.9574
 7068SOL     OW21781   7.703   4.397   7.268  0.2603  0.1327 -0.5043
 7068SOL    HW121782   7.615   4.431   7.288  0.9463  0.4817  2.2472
 7068SOL    HW221783   7.748   4.470   7.227 -0.4661  0.1726 -1.2808
 7069SOL     OW21784   6.835   4.794   2.627  0.3244 -0.3148 -0.4567
 7069SOL    HW121785   6.835   4.715   2.573 -3.1144 -0.8330  0.0934
 7069SOL    HW221786   6.848   4.762   2.716 -1.3330 -0.3953 -0.2009
 7070SOL     OW21787   1.300   9.274   9.798  0.1696  0.0259 -0.1434
 7070SOL    HW121788   1.294   9.364   9.828  0.0137 -0.3457  0.9980
 7070SOL    HW221789   1.352   9.278   9.718 -0.5636  1.2189 -0.5821
 7071SOL     OW21790   6.616   5.974   8.993  0.8257 -0.0474 -0.1386
 7071SOL    HW121791   6.653   6.010   8.913  0.8002  1.0391  0.3149
 7071SOL    HW221792   6.529   6.014   8.999  0.8212 -0.1320  0.4200
 7072SOL     OW21793   9.124   7.100   8.838 -0.0566  0.1084 -0.5389
 7072SOL    HW121794   9.031   7.078   8.842  0.1667 -0.7449  0.4526
 7072SOL    HW221795   9.132   7.158   8.762 -1.4738  0.6068 -0.3288
 7073SOL     OW21796   4.366   8.744   3.927 -0.2442  0.7304 -0.5242
 7073SOL    HW121797   4.431   8.780   3.987 -0.7982  1.3848 -0.2957
 7073SOL    HW221798   4.294   8.807   3.929 -0.8109  0.1138 -0.9107
 7074SOL     OW21799   0.406   3.650   3.705  0.3858  0.3648  0.0588
 7074SOL    HW121800   0.460   3.719   3.741  0.3144  0.7949 -0.6401
 7074SOL    HW221801   0.438   3.638   3.615  1.2003 -1.3527  0.5437
 7075SOL     OW21802   4.989   6.833   4.001  0.2736 -0.1011 -0.1563
 7075SOL    HW121803   5.011   6.741   3.983  0.5100 -0.1618  0.4307
 7075SOL    HW221804   5.063   6.882   3.967  0.1010 -0.1170 -0.5624
 7076SOL     OW21805   1.345   0.791   0.281  0.4579  0.2258 -0.3830
 7076SOL    HW121806   1.254   0.780   0.254  1.2770  0.4983 -3.6723
 7076SOL    HW221807   1.350   0.881   0.313 -0.9719 -0.6927  2.8392
 7077SOL     OW21808   9.277   0.504   0.767 -0.0858  0.2132 -0.1731
 7077SOL    HW121809   9.262   0.474   0.677 -0.4215  0.8726 -0.3443
 7077SOL    HW221810   9.189   0.520   0.801  0.0402 -0.0359  0.2804
 7078SOL     OW21811   1.510   1.697   0.465 -0.0801  0.3137  0.2571
 7078SOL    HW121812   1.514   1.743   0.549 -1.2120 -1.7226  1.5073
 7078SOL    HW221813   1.601   1.687   0.438  0.5906 -1.7771  2.9105
 7079SOL     OW21814   9.643   8.496   8.713 -0.0174 -0.0141 -0.0708
 7079SOL    HW121815   9.564   8.520   8.762 -0.1000 -3.1298  1.5682
 7079SOL    HW221816   9.706   8.564   8.736 -1.3477  0.9638  0.9336
 7080SOL     OW21817   4.038   0.716   4.502 -0.1336  0.2124  0.5545
 7080SOL    HW121818   3.998   0.739   4.418  0.0661 -0.1996  0.3385
 7080SOL    HW221819   3.972   0.664   4.547 -0.0654  0.0204  0.4400
 7081SOL     OW21820   8.047   4.397   7.684  0.4785  0.1245  0.1982
 7081SOL    HW121821   7.970   4.403   7.739  1.8698 -0.1433  2.2881
 7081SOL    HW221822   8.029   4.456   7.611 -0.5664  2.2415  2.0583
 7082SOL     OW21823   4.282   9.658   5.965 -0.1660  0.0405 -0.3879
 7082SOL    HW121824   4.230   9.578   5.958 -1.2969  0.5286  1.7176
 7082SOL    HW221825   4.217   9.728   5.967  0.3804  0.6137  3.2844
 7083SOL     OW21826   2.246   2.766   7.195  0.9259  0.2294  0.5362
 7083SOL    HW121827   2.263   2.768   7.101  1.8624 -0.8982  0.6608
 7083SOL    HW221828   2.219   2.856   7.216  0.2976  0.4022 -0.8652
 7084SOL     OW21829   1.328   4.357   8.932 -0.4878 -0.3024  0.1869
 7084SOL    HW121830   1.313   4.265   8.911  0.2274 -0.3605 -0.0738
 7084SOL    HW221831   1.392   4.386   8.868 -0.1476  0.1760  0.7405
 7085SOL     OW21832   8.245   2.073   3.694 -0.2755  0.3256  0.1429
 7085SOL    HW121833   8.263   2.009   3.762 -0.5386 -1.5683 -1.4929
 7085SOL    HW221834   8.306   2.051   3.624 -0.6176  1.6462 -0.6031
 7086SOL     OW21835   4.447   2.303   3.173 -0.0314 -0.3480  0.3173
 7086SOL    HW121836   4.364   2.299   3.220  0.6065  1.0457  1.6709
 7086SOL    HW221837   4.483   2.390   3.195  0.8556 -0.1020 -1.8371
 7087SOL     OW21838   6.536   8.099   9.860  0.0644 -0.2644 -0.6770
 7087SOL    HW121839   6.449   8.111   9.822 -0.7029  0.3234  1.1414
 7087SOL    HW221840   6.571   8.022   9.816 -3.1182 -3.1971  1.4477
 7088SOL     OW21841   9.599   3.020   9.891 -0.2718 -0.1023  0.3123
 7088SOL    HW121842   9.519   3.061   9.856 -0.4913 -1.8311 -1.3783
 7088SOL    HW221843   9.638   2.976   9.815  1.1583 -1.0824  1.5717
 7089SOL     OW21844   4.548   8.560   9.794 -0.0237 -0.5838 -0.1039
 7089SOL    HW121845   4.641   8.582   9.787  0.2883 -1.4772  0.9598
 7089SOL    HW221846   4.508   8.602   9.718  0.9352  1.4091  0.4026
 7090SOL     OW21847   5.441   9.866   5.569  0.0468 -0.4434 -0.0645
 7090SOL    HW121848   5.526   9.843   5.606  0.1572 -1.0253 -0.6550
 7090SOL    HW221849   5.377   9.834   5.633  0.2708  0.3695  0.5824
 7091SOL     OW21850   7.031   2.493   1.369  0.3505 -0.5960 -0.4489
 7091SOL    HW121851   6.941   2.516   1.392  0.8149  0.9177 -0.0408
 7091SOL    HW221852   7.071   2.576   1.340  1.0902 -1.5720 -2.4467
 7092SOL     OW21853   5.545   7.961   1.908  0.3941 -0.1332 -0.2635
 7092SOL    HW121854   5.625   7.921   1.873  0.5269  0.9080 -1.1771
 7092SOL    HW221855   5.496   7.990   1.831 -1.6204 -2.0847  0.1731
 7093SOL     OW21856   3.308   7.762   4.467  0.1449  0.2247 -0.2399
 7093SOL    HW121857   3.263   7.846   4.459  1.4223  0.8488 -0.9403
 7093SOL    HW221858   3.389   7.782   4.513  0.0083 -0.8055  0.4885
 7094SOL     OW21859   0.494   4.107   2.155  0.4054 -0.5661 -0.5663
 7094SOL    HW121860   0.556   4.160   2.204  0.0671 -1.5098  0.9601
 7094SOL    HW221861   0.547   4.037   2.116  0.7346  0.4078 -1.9381
 7095SOL     OW21862   0.100   1.747   7.616  0.1111  0.5034  0.1037
 7095SOL    HW121863   0.181   1.790   7.589  0.1378  0.0920 -0.4866
 7095SOL    HW221864   0.082   1.783   7.703  0.9857  0.5163  0.2942
 7096SOL     OW21865   7.239   4.892   5.138 -0.1626 -0.3204 -0.0287
 7096SOL    HW121866   7.291   4.812   5.149  1.5202  0.4260 -1.9276
 7096SOL    HW221867   7.213   4.915   5.227  1.0625 -1.8485  0.7994
 7097SOL     OW21868   7.882   1.544   8.180  0.5736  0.4242 -0.2078
 7097SOL    HW121869   7.850   1.537   8.090  0.8117  0.1675 -0.2722
 7097SOL    HW221870   7.952   1.479   8.187  0.0569 -0.0801  0.3847
 7098SOL     OW21871   5.506   8.696   4.796  0.2849  0.5639  0.4404
 7098SOL    HW121872   5.449   8.681   4.872  1.4763 -0.1259  1.2310
 7098SOL    HW221873   5.506   8.613   4.750  0.1652  0.7584  0.0853
 7099SOL     OW21874   4.782   2.942   0.755  0.0969 -0.4722 -0.1609
 7099SOL    HW121875   4.791   2.866   0.813 -1.6744 -0.3935  0.2670
 7099SOL    HW221876   4.789   3.017   0.813 -0.0552 -0.3575 -0.2909
 7100SOL     OW21877   1.476   8.999   3.089 -0.0536  0.1571 -0.1404
 7100SOL    HW121878   1.414   8.929   3.110  1.3316 -1.1406 -0.1789
 7100SOL    HW221879   1.464   9.014   2.996  0.2267 -0.6850 -0.3290
 7101SOL     OW21880   8.930   2.077   7.855  0.1203  0.1838  0.1350
 7101SOL    HW121881   8.893   2.030   7.930  0.0242  0.6740  0.3973
 7101SOL    HW221882   8.864   2.143   7.833 -0.2517 -0.5224 -0.9444
 7102SOL     OW21883   2.951   1.284   9.565  0.1576  0.2079 -0.1685
 7102SOL    HW121884   3.031   1.245   9.600  0.3150  0.0295 -0.7206
 7102SOL    HW221885   2.897   1.303   9.643  1.1311  1.2171  0.2903
 7103SOL     OW21886   7.107   0.317   5.568  0.6310  0.1497  0.3261
 7103SOL    HW121887   7.060   0.235   5.585  1.0920 -0.6191 -1.7898
 7103SOL    HW221888   7.041   0.376   5.533  0.8065 -0.2719 -0.7630
 7104SOL     OW21889   0.451   7.005   9.521 -0.5464 -0.2965 -0.1017
 7104SOL    HW121890   0.506   7.043   9.452 -0.9583 -1.8510 -1.3388
 7104SOL    HW221891   0.364   7.041   9.504 -0.3349  0.6032  0.6398
 7105SOL     OW21892   7.979   4.772   0.221  0.6486  0.1105 -0.0960
 7105SOL    HW121893   7.886   4.775   0.201  0.8084 -0.6676 -1.0702
 7105SOL    HW221894   8.020   4.748   0.138  1.6743  0.0056  0.4269
 7106SOL     OW21895   2.528   1.940   2.040  0.1085 -0.0343  0.7435
 7106SOL    HW121896   2.523   1.864   1.982  1.4446  0.2746  0.1732
 7106SOL    HW221897   2.594   1.996   2.000 -1.7997  2.1016  0.4368
 7107SOL     OW21898   8.023   7.698   4.309 -0.2910 -0.4276 -0.0714
 7107SOL    HW121899   8.021   7.610   4.271  1.5110 -1.0549  1.1230
 7107SOL    HW221900   8.105   7.700   4.358  0.0368  2.1682 -0.6041
 7108SOL     OW21901   7.406   4.221   2.635  0.6665 -0.0946  0.0219
 7108SOL    HW121902   7.346   4.233   2.561  1.2377 -0.4316 -0.5036
 7108SOL    HW221903   7.404   4.126   2.652 -1.5636  0.2248  2.2443
 7109SOL     OW21904   1.238   8.879   3.486 -0.0067 -0.1322  0.3650
 7109SOL    HW121905   1.263   8.788   3.471 -0.6595 -0.0761 -1.4644
 7109SOL    HW221906   1.310   8.930   3.450 -0.9533  0.0256 -1.4367
 7110SOL     OW21907   1.501   0.911   7.917 -0.1412  0.0616  0.0622
 7110SOL    HW121908   1.458   0.970   7.855 -1.2693 -0.0782  0.6798
 7110SOL    HW221909   1.482   0.949   8.003 -0.1175 -0.7052  0.4151
 7111SOL     OW21910   4.937   5.136   0.146 -0.0576 -0.1850  0.0032
 7111SOL    HW121911   4.909   5.186   0.069  1.0484  0.4378 -0.0157
 7111SOL    HW221912   4.857   5.096   0.179 -0.8713  1.1337 -0.3200
 7112SOL     OW21913   1.198   5.764   8.437 -0.2227  0.7761 -0.2734
 7112SOL    HW121914   1.134   5.722   8.493  0.3750 -1.2736 -1.0572
 7112SOL    HW221915   1.280   5.759   8.486  0.0912 -0.0938 -0.8620
 7113SOL     OW21916   4.915   8.718   6.109 -0.4198  0.2943 -0.2214
 7113SOL    HW121917   4.933   8.675   6.193 -0.8929 -0.5590 -0.5414
 7113SOL    HW221918   4.903   8.645   6.048 -0.1493  0.9073 -1.0181
 7114SOL     OW21919   5.676   9.143   6.017  0.4931 -0.2252  0.2824
 7114SOL    HW121920   5.637   9.230   6.024  2.1179  0.5881 -0.1851
 7114SOL    HW221921   5.620   9.087   6.070 -0.2221  1.2327  1.1342
 7115SOL     OW21922   8.540   4.816   9.449 -0.3213 -0.3057  0.0757
 7115SOL    HW121923   8.538   4.874   9.374 -0.9146 -1.1018 -0.5357
 7115SOL    HW221924   8.526   4.873   9.525 -1.4373  0.2797 -0.5521
 7116SOL     OW21925   7.808   6.024   9.013 -0.0944 -0.5357  0.4117
 7116SOL    HW121926   7.892   6.008   9.057  0.0391 -0.5302  0.1601
 7116SOL    HW221927   7.766   6.093   9.065  1.0120  1.0369 -0.6853
 7117SOL     OW21928   6.329   7.667   6.216  0.2567 -0.0114  0.2662
 7117SOL    HW121929   6.305   7.590   6.164 -1.5859  0.9496 -0.3995
 7117SOL    HW221930   6.421   7.683   6.194  0.0657 -0.7689 -1.2312
 7118SOL     OW21931   4.604   9.406   4.911  0.2896 -0.2508  0.2725
 7118SOL    HW121932   4.547   9.482   4.896  1.6989  0.7429 -0.2361
 7118SOL    HW221933   4.689   9.443   4.931  1.0579 -1.7094 -0.1327
 7119SOL     OW21934   5.221   7.090   1.009 -0.5728 -0.1257  0.4509
 7119SOL    HW121935   5.309   7.065   1.036 -0.4366  0.1084  0.2209
 7119SOL    HW221936   5.234   7.161   0.946 -0.7351 -2.6549 -2.6392
 7120SOL     OW21937   1.187   3.692   5.144 -0.1731 -0.1139  0.3702
 7120SOL    HW121938   1.168   3.769   5.091  1.3591  1.2378  1.6758
 7120SOL    HW221939   1.155   3.715   5.231 -3.5992 -2.6810 -0.0015
 7121SOL     OW21940   9.673   9.157   7.952  0.0740  0.1854 -0.3069
 7121SOL    HW121941   9.742   9.091   7.947 -1.4836 -1.6113  0.5516
 7121SOL    HW221942   9.645   9.156   8.043 -1.3031  0.6282 -0.6998
 7122SOL     OW21943   9.642   3.878   9.528 -0.3427  0.4677  0.6725
 7122SOL    HW121944   9.596   3.962   9.517 -0.8849  0.1173  0.1952
 7122SOL    HW221945   9.639   3.838   9.441  0.7545  0.3736  0.6725
 7123SOL     OW21946   3.724   1.339   9.050 -0.5843  0.0064 -0.3325
 7123SOL    HW121947   3.677   1.421   9.056 -1.0026 -0.3639  2.7790
 7123SOL    HW221948   3.739   1.327   8.956 -0.1641  3.7714 -0.8872
 7124SOL     OW21949   1.456   8.617   3.564 -0.2121 -0.1474  0.0939
 7124SOL    HW121950   1.531   8.559   3.549  0.8041  0.6534  1.6874
 7124SOL    HW221951   1.444   8.664   3.482  0.7951 -0.5891 -0.3165
 7125SOL     OW21952   9.576   3.092   1.989  0.1598  0.3464 -0.1811
 7125SOL    HW121953   9.564   3.119   1.898  1.0356 -1.3349 -0.8502
 7125SOL    HW221954   9.487   3.078   2.022 -0.1376 -0.2373 -1.1847
 7126SOL     OW21955   2.806   7.133   8.287  0.0691 -0.1882 -0.4447
 7126SOL    HW121956   2.727   7.105   8.334  0.2535 -0.7257 -0.4433
 7126SOL    HW221957   2.834   7.054   8.240  1.2359 -0.3215  0.4341
 7127SOL     OW21958   2.672   9.664   7.471  0.2600 -0.1155 -0.8052
 7127SOL    HW121959   2.764   9.688   7.478  0.4679 -1.1696  0.5140
 7127SOL    HW221960   2.670   9.599   7.400  0.6019 -0.4070 -0.5510
 7128SOL     OW21961   2.759   7.715   4.230  0.2433 -0.6392 -0.4562
 7128SOL    HW121962   2.721   7.766   4.301  1.7248 -0.2202  0.0699
 7128SOL    HW221963   2.771   7.777   4.159 -0.8665 -0.9716 -0.9578
 7129SOL     OW21964   7.457   9.525   1.582  0.1530 -0.1490  0.2113
 7129SOL    HW121965   7.489   9.467   1.513 -0.6186 -0.4747  0.1158
 7129SOL    HW221966   7.462   9.613   1.544 -1.3963 -0.4337 -0.7279
 7130SOL     OW21967   7.058   6.659   1.497  0.3837  0.0684 -0.4241
 7130SOL    HW121968   7.139   6.684   1.541 -0.0292  1.5726 -0.4763
 7130SOL    HW221969   6.994   6.647   1.567  0.1059  1.0261 -0.4979
 7131SOL     OW21970   4.115   4.635   5.586 -0.9219 -0.1025 -0.2644
 7131SOL    HW121971   4.138   4.634   5.494  2.3739  0.9581  0.4248
 7131SOL    HW221972   4.115   4.543   5.612  1.7626 -0.2712 -0.6101
 7132SOL     OW21973   3.937   1.651   7.089  0.0241 -0.4516 -0.7383
 7132SOL    HW121974   3.846   1.623   7.076 -0.2273  0.2818 -0.5679
 7132SOL    HW221975   3.959   1.622   7.177 -0.3411  0.1643 -0.4436
 7133SOL     OW21976   5.349   4.215   6.408 -0.2618 -0.6208  0.0018
 7133SOL    HW121977   5.340   4.136   6.462 -0.6916 -0.1984  0.5583
 7133SOL    HW221978   5.331   4.184   6.319 -1.9484 -0.8854  0.3911
 7134SOL     OW21979   1.352   0.225   9.323 -0.0029 -0.1737 -0.5982
 7134SOL    HW121980   1.317   0.149   9.277 -1.0716 -0.3787  0.4943
 7134SOL    HW221981   1.420   0.260   9.265  0.5139 -1.9536 -1.1195
 7135SOL     OW21982   0.961   8.767   2.495 -0.9548  0.9860 -0.3479
 7135SOL    HW121983   0.919   8.701   2.439  0.4492 -0.2536 -0.0208
 7135SOL    HW221984   0.981   8.720   2.576 -0.4211  1.9894  0.1205
 7136SOL     OW21985   4.928   7.132   4.572  0.0687 -0.0889  0.8373
 7136SOL    HW121986   4.922   7.081   4.491  0.4020  1.5616 -0.2865
 7136SOL    HW221987   4.858   7.197   4.565 -0.7075 -0.6983  2.4907
 7137SOL     OW21988   3.446   5.689   6.961  0.1114 -0.2950  0.6989
 7137SOL    HW121989   3.427   5.782   6.947  1.4865 -0.0942  0.0905
 7137SOL    HW221990   3.541   5.684   6.968  0.2488 -1.8822 -1.2328
 7138SOL     OW21991   6.323   9.361   7.157  0.3903  0.2888  0.0340
 7138SOL    HW121992   6.327   9.454   7.135  2.1170 -0.2824 -2.3953
 7138SOL    HW221993   6.410   9.341   7.191 -0.3616 -0.2297  1.7657
 7139SOL     OW21994   1.253   3.957   3.011 -0.1467  0.4575  0.0381
 7139SOL    HW121995   1.330   3.903   3.029  0.0863 -0.1635 -2.4524
 7139SOL    HW221996   1.286   4.027   2.954 -0.8823  2.0039  1.4219
 7140SOL     OW21997   8.349   5.358   1.947  0.0919  0.2423  0.7003
 7140SOL    HW121998   8.336   5.360   1.852  2.1726  1.2839  0.3751
 7140SOL    HW221999   8.264   5.382   1.984 -0.9282 -0.8097 -0.8619
 7141SOL     OW22000   0.876   8.911   5.261 -0.2993  0.0628  0.2322
 7141SOL    HW122001   0.932   8.988   5.253 -0.7253  0.1888 -2.5617
 7141SOL    HW222002   0.794   8.937   5.219 -0.0175 -2.2392 -2.0417
 7142SOL     OW22003   2.465   7.444   1.745 -0.7574  0.3096  0.5520
 7142SOL    HW122004   2.513   7.417   1.824 -1.1786 -0.3985  0.5725
 7142SOL    HW222005   2.508   7.525   1.718  2.3064 -1.6138 -0.9620
 7143SOL     OW22006   0.879   8.945   7.119 -0.3002  0.3770 -0.0687
 7143SOL    HW122007   0.950   8.887   7.092 -0.0937 -1.2506  3.4313
 7143SOL    HW222008   0.921   9.011   7.174 -1.1370  1.1157 -0.2890
 7144SOL     OW22009   7.355   0.139   5.072  0.2970  0.2962 -0.9014
 7144SOL    HW122010   7.314   0.119   5.157  0.7004  2.0885 -0.2430
 7144SOL    HW222011   7.283   0.138   5.010 -0.2306  0.2724 -0.3035
 7145SOL     OW22012   9.651   6.124   6.246 -0.1660  0.0498 -0.7003
 7145SOL    HW122013   9.598   6.164   6.178 -0.3007  0.3168 -0.4388
 7145SOL    HW222014   9.654   6.031   6.222 -1.6443 -0.1693 -0.1491
 7146SOL     OW22015   4.263   0.922   9.308 -0.3667 -0.3498 -0.0402
 7146SOL    HW122016   4.193   0.874   9.263 -0.0829 -2.2185  1.3785
 7146SOL    HW222017   4.305   0.856   9.363  1.3489  1.1439  0.5210
 7147SOL     OW22018   0.910   4.194   1.443  0.4218  0.1187 -0.3036
 7147SOL    HW122019   0.981   4.220   1.384  0.6815 -0.9525 -0.4964
 7147SOL    HW222020   0.954   4.162   1.522  0.1609 -0.5396 -0.4176
 7148SOL     OW22021   2.392   3.848   2.887 -0.2919  0.5430  0.8148
 7148SOL    HW122022   2.306   3.889   2.896 -1.6132 -2.0064  0.4919
 7148SOL    HW222023   2.375   3.762   2.850  2.4234 -0.0820  0.7674
 7149SOL     OW22024   7.324   8.575   0.480  0.6523  0.4186  0.2685
 7149SOL    HW122025   7.357   8.571   0.391  0.6074  0.3255  0.2563
 7149SOL    HW222026   7.371   8.507   0.528 -2.0982 -2.3089 -0.5954
 7150SOL     OW22027   6.563   0.213   2.163 -0.2836  0.0334 -0.3763
 7150SOL    HW122028   6.586   0.290   2.111 -1.7915  0.0208 -1.0959
 7150SOL    HW222029   6.638   0.154   2.153  1.1156  1.5771  0.5923
 7151SOL     OW22030   8.467   2.404   6.499  0.0470  0.5225 -0.6652
 7151SOL    HW122031   8.383   2.383   6.458 -0.1599 -0.0041  0.0351
 7151SOL    HW222032   8.448   2.477   6.558 -0.4694 -1.1975  1.4059
 7152SOL     OW22033   9.426   4.902   3.597  0.7311 -0.1730 -0.2371
 7152SOL    HW122034   9.472   4.901   3.513 -0.4779  1.2630 -0.9613
 7152SOL    HW222035   9.455   4.983   3.639  1.6013 -1.0521  0.9230
 7153SOL     OW22036   9.623   6.038   4.109  0.0442  0.3665 -0.1316
 7153SOL    HW122037   9.712   6.043   4.144  0.1285  0.0195 -0.2914
 7153SOL    HW222038   9.566   6.052   4.185  0.2303 -0.1001  0.0962
 7154SOL     OW22039   8.258   0.799   0.982  0.3588  0.7021  0.3406
 7154SOL    HW122040   8.300   0.883   0.963  1.8769  0.0152  0.4833
 7154SOL    HW222041   8.308   0.764   1.056  1.1666 -1.2637 -1.0472
 7155SOL     OW22042   0.728   8.782   7.298 -0.7414  0.6703 -0.4600
 7155SOL    HW122043   0.801   8.769   7.238  0.4807 -2.7215  1.4630
 7155SOL    HW222044   0.763   8.837   7.368 -0.9107  1.2955 -0.8604
 7156SOL     OW22045   6.854   2.507   2.861 -0.0462 -0.5599 -0.5772
 7156SOL    HW122046   6.921   2.574   2.872 -0.9436 -0.0895  3.6880
 7156SOL    HW222047   6.903   2.425   2.854  1.0915 -0.1883  1.9873
 7157SOL     OW22048   2.068   7.198   1.331 -0.2873  0.1014 -0.2947
 7157SOL    HW122049   2.082   7.278   1.383  2.2493 -0.5038  0.1236
 7157SOL    HW222050   2.098   7.127   1.389 -2.8975 -1.2637 -0.4918
 7158SOL     OW22051   8.505   8.159   4.037  0.0141  0.1943  0.3357
 7158SOL    HW122052   8.473   8.200   4.118  1.0457 -1.2410  1.5242
 7158SOL    HW222053   8.437   8.096   4.014 -0.3736  0.7431 -0.0460
 7159SOL     OW22054   3.399   3.924   9.317  0.1912 -0.5024 -0.1407
 7159SOL    HW122055   3.334   3.916   9.248  1.0002 -0.0871 -0.9596
 7159SOL    HW222056   3.482   3.907   9.275  0.9163  1.6773  0.2768
 7160SOL     OW22057   1.891   8.342   3.620 -0.1669  0.0751  0.2008
 7160SOL    HW122058   1.918   8.251   3.606  0.3095  0.2181  0.1457
 7160SOL    HW222059   1.804   8.336   3.657 -0.5754 -0.3862 -0.7893
 7161SOL     OW22060   5.547   8.118   7.469  0.3028  0.2128  0.3620
 7161SOL    HW122061   5.537   8.118   7.564  1.2603  1.4080  0.4765
 7161SOL    HW222062   5.565   8.026   7.448 -1.7195 -0.4079  1.1005
 7162SOL     OW22063   0.084   9.415   7.614 -0.6616  0.3669  0.4435
 7162SOL    HW122064   0.086   9.373   7.700 -2.4214 -0.4218  0.1486
 7162SOL    HW222065   0.005   9.379   7.572  0.7250 -0.0940 -1.9129
 7163SOL     OW22066   6.264   0.438   7.970  0.8303 -0.1803  0.2515
 7163SOL    HW122067   6.245   0.354   8.012  0.3845  0.1286  0.6742
 7163SOL    HW222068   6.315   0.414   7.892 -0.6011 -0.9811 -0.4834
 7164SOL     OW22069   3.808   0.545   7.116  0.6493  0.1346  0.0227
 7164SOL    HW122070   3.822   0.600   7.039  2.6309  0.3271  0.4604
 7164SOL    HW222071   3.715   0.522   7.113  0.4405  1.0473 -1.7998
 7165SOL     OW22072   8.874   3.321   5.188 -0.8656  0.2641  0.3797
 7165SOL    HW122073   8.837   3.232   5.193  0.4146 -0.4231 -1.3114
 7165SOL    HW222074   8.802   3.375   5.155 -1.6678 -0.1125  1.4609
 7166SOL     OW22075   1.400   0.046   4.814 -0.3327 -0.1363 -0.2907
 7166SOL    HW122076   1.352   0.039   4.896  0.5906 -2.3042  0.1363
 7166SOL    HW222077   1.492   0.040   4.839  0.0054  0.1220 -1.4035
 7167SOL     OW22078   5.443   3.150   0.939  0.1276 -0.6345 -0.9579
 7167SOL    HW122079   5.538   3.161   0.942  0.1529 -0.7970 -1.1394
 7167SOL    HW222080   5.416   3.199   0.861 -0.0970  0.5281 -0.1614
 7168SOL     OW22081   0.852   8.211   9.566  0.1013 -0.1548  0.2916
 7168SOL    HW122082   0.889   8.123   9.561  0.7795  0.1937 -1.4616
 7168SOL    HW222083   0.927   8.269   9.577 -0.1656  0.3494 -0.4739
 7169SOL     OW22084   8.102   1.168   6.153 -0.0863  0.1206  0.1085
 7169SOL    HW122085   8.126   1.211   6.070 -1.5077  0.5517 -0.1109
 7169SOL    HW222086   8.021   1.122   6.133 -0.5202  0.3434  1.3004
 7170SOL     OW22087   0.554   3.567   3.490 -0.2025 -0.2936 -0.0076
 7170SOL    HW122088   0.595   3.502   3.547  1.2250  0.8557  0.3265
 7170SOL    HW222089   0.518   3.516   3.417  0.3791 -1.5147  0.5352
 7171SOL     OW22090   5.243   9.501   4.981 -0.1195 -0.1623 -0.1531
 7171SOL    HW122091   5.178   9.548   5.033 -0.4881 -1.9192  1.0472
 7171SOL    HW222092   5.265   9.562   4.910 -3.5023  0.2882 -0.9974
 7172SOL     OW22093   9.874   2.501   9.654  0.5042 -0.1408 -0.0832
 7172SOL    HW122094   9.821   2.449   9.714 -0.4597 -0.2427 -0.9971
 7172SOL    HW222095   9.889   2.583   9.701 -1.7392  0.4847 -0.3472
 7173SOL     OW22096   8.003   9.187   4.205  0.4652  0.1542  0.4820
 7173SOL    HW122097   8.051   9.191   4.123  0.5630 -0.8963  0.4836
 7173SOL    HW222098   8.027   9.268   4.250  2.3889 -0.4053  0.5551
 7174SOL     OW22099   7.968   9.602   6.535 -0.2343  0.0546  0.0855
 7174SOL    HW122100   7.875   9.624   6.538  0.0438  1.2209  0.5277
 7174SOL    HW222101   8.005   9.661   6.469  0.2720 -0.0722  0.2511
 7175SOL     OW22102   7.711   0.795   7.239  0.1410 -0.2800 -0.3709
 7175SOL    HW122103   7.708   0.853   7.315 -0.0665 -0.0143 -0.5820
 7175SOL    HW222104   7.805   0.786   7.220  0.3926 -2.3052  1.3969
 7176SOL     OW22105   1.619   6.834   2.861  0.1388  0.2780 -0.0194
 7176SOL    HW122106   1.688   6.824   2.926  0.9924  0.3712 -0.8823
 7176SOL    HW222107   1.539   6.806   2.906  0.6920  0.4188  1.0751
 7177SOL     OW22108   8.216   3.200   7.539  0.2365  0.5922 -0.1365
 7177SOL    HW122109   8.213   3.252   7.459 -1.5043 -0.5089 -0.8378
 7177SOL    HW222110   8.304   3.216   7.574  0.7707  1.6954 -1.8352
 7178SOL     OW22111   2.668   5.762   6.787 -0.2564 -0.2449 -0.3117
 7178SOL    HW122112   2.716   5.824   6.842 -0.5128 -1.5543  1.4939
 7178SOL    HW222113   2.605   5.816   6.739 -0.7226  0.8807  1.4871
 7179SOL     OW22114   9.118   2.214   0.227 -0.0663 -0.1359  0.3578
 7179SOL    HW122115   9.199   2.258   0.203  0.2343 -0.5058  0.6645
 7179SOL    HW222116   9.060   2.284   0.256 -0.0906  0.2027 -0.5006
 7180SOL     OW22117   9.201   0.973   0.612  0.1377  0.4584 -0.4415
 7180SOL    HW122118   9.216   0.890   0.657  0.0928 -0.4222 -1.9932
 7180SOL    HW222119   9.231   1.039   0.674 -0.2961 -0.6700  1.0323
 7181SOL     OW22120   1.583   4.510   9.262 -0.5711 -0.1711 -0.5419
 7181SOL    HW122121   1.643   4.576   9.296 -1.3769  0.9453 -1.2380
 7181SOL    HW222122   1.619   4.427   9.295 -0.0551  0.6556  1.1285
 7182SOL     OW22123   7.147   0.040   6.455 -0.4189  0.0086  0.2834
 7182SOL    HW122124   7.124   0.016   6.365  2.0359 -1.6117 -0.0182
 7182SOL    HW222125   7.073   0.092   6.486 -0.8318  1.6663 -3.0613
 7183SOL     OW22126   4.946   9.785   0.923  0.2042 -0.5301 -0.5359
 7183SOL    HW122127   4.924   9.717   0.858 -2.5158 -0.6205  0.3592
 7183SOL    HW222128   4.897   9.760   1.001 -1.1016  2.5399 -0.2220
 7184SOL     OW22129   1.618   1.824   4.674  0.1272 -0.0923  0.0336
 7184SOL    HW122130   1.634   1.739   4.633 -1.8872  0.1670 -1.4789
 7184SOL    HW222131   1.643   1.888   4.608 -1.8669  0.3639 -0.3569
 7185SOL     OW22132   2.076   7.533   1.356 -0.4457 -0.6481  0.3059
 7185SOL    HW122133   2.158   7.559   1.314 -0.7696 -0.4270 -0.2047
 7185SOL    HW222134   2.027   7.615   1.364 -1.7076 -1.1158 -1.8007
 7186SOL     OW22135   6.124   3.595   9.974  0.2115  0.0668 -0.5874
 7186SOL    HW122136   6.161   3.676   9.939  0.1160  0.8775  1.1007
 7186SOL    HW222137   6.030   3.614   9.982  0.0015 -0.6385 -1.2676
 7187SOL     OW22138   9.658   0.277   0.899 -0.1748 -0.7300 -0.9031
 7187SOL    HW122139   9.594   0.347   0.913  0.6519 -0.1611  0.2040
 7187SOL    HW222140   9.674   0.277   0.805  0.4477  1.1703 -0.8299
 7188SOL     OW22141   6.014   4.062   5.768  0.2823 -0.1403 -0.5727
 7188SOL    HW122142   5.985   4.145   5.806 -1.6194 -1.2972  0.6759
 7188SOL    HW222143   6.014   4.001   5.842 -2.0688 -2.1255 -2.0799
 7189SOL     OW22144   9.265   3.518   1.126  0.1243 -0.2875 -0.6538
 7189SOL    HW122145   9.316   3.569   1.189 -1.2127  0.4673 -0.1308
 7189SOL    HW222146   9.202   3.581   1.090  1.0914 -0.6016 -3.0465
 7190SOL     OW22147   6.558   5.254   0.874 -0.1623 -0.2648 -0.3386
 7190SOL    HW122148   6.463   5.258   0.864 -0.4417 -2.4400  0.7185
 7190SOL    HW222149   6.571   5.242   0.968  1.2706  1.3448 -0.2761
 7191SOL     OW22150   3.759   3.049   2.584  0.2190 -0.0596 -0.1758
 7191SOL    HW122151   3.752   2.997   2.664  0.9028  0.8477  0.4858
 7191SOL    HW222152   3.721   3.134   2.607 -2.4773 -0.7172 -1.7289
 7192SOL     OW22153   3.268   1.606   7.844  0.1552  0.0321  0.0797
 7192SOL    HW122154   3.181   1.645   7.852 -0.3730 -0.9510 -0.7636
 7192SOL    HW222155   3.288   1.574   7.932  1.7156  4.3306  1.5478
 7193SOL     OW22156   6.000   7.848   8.465  0.2243 -0.1443  0.2311
 7193SOL    HW122157   5.964   7.911   8.403  0.2994 -2.2127 -2.0442
 7193SOL    HW222158   5.940   7.774   8.462  1.7336 -1.4273  0.5072
 7194SOL     OW22159   4.108   1.621   0.871  0.1752 -0.3632 -0.3057
 7194SOL    HW122160   4.179   1.560   0.852  2.2544  2.1231 -1.0727
 7194SOL    HW222161   4.151   1.706   0.881 -2.6271  1.1516 -0.0922
 7195SOL     OW22162   7.576   9.530   6.846  0.1814 -0.2007  0.3769
 7195SOL    HW122163   7.566   9.565   6.934 -1.4258 -0.9600  0.5315
 7195SOL    HW222164   7.525   9.449   6.846 -0.6953  0.2904 -1.5236
 7196SOL     OW22165   0.212   7.347   5.056 -0.8900  0.3854  0.3135
 7196SOL    HW122166   0.221   7.441   5.067 -1.9075  0.4248  1.0256
 7196SOL    HW222167   0.298   7.317   5.026 -0.8270  1.6550 -0.8821
 7197SOL     OW22168   1.529   3.546   3.124  0.4189  0.1639 -0.1346
 7197SOL    HW122169   1.573   3.573   3.043 -1.8885 -1.3662 -2.0679
 7197SOL    HW222170   1.500   3.457   3.106 -1.9735  0.5063  1.5709
 7198SOL     OW22171   9.497   9.196   3.977  0.2332  0.1153 -0.4745
 7198SOL    HW122172   9.517   9.218   4.068 -1.2874 -0.3645  0.0061
 7198SOL    HW222173   9.574   9.148   3.947 -0.3122 -2.1733  1.4596
 7199SOL     OW22174   8.096   5.826   9.364 -0.2570  0.0378 -0.3069
 7199SOL    HW122175   8.073   5.873   9.285 -0.5177  1.5755  0.6486
 7199SOL    HW222176   8.189   5.806   9.354 -0.3243  0.0982 -1.0561
 7200SOL     OW22177   9.527   4.598   0.094  1.0171 -0.0579 -0.1158
 7200SOL    HW122178   9.621   4.584   0.088  0.8822 -0.4096 -1.7258
 7200SOL    HW222179   9.488   4.525   0.046 -0.1336 -0.4039  1.2669
 7201SOL     OW22180   7.794   4.022   9.149  0.8453 -0.1237 -0.2226
 7201SOL    HW122181   7.887   4.008   9.167  0.6674 -0.0363  0.8551
 7201SOL    HW222182   7.773   3.960   9.080  1.4597 -0.8930  0.2694
 7202SOL     OW22183   7.939   3.049   0.621 -0.5881 -0.0093 -0.0354
 7202SOL    HW122184   7.940   3.106   0.698 -1.3674  0.1655 -0.1498
 7202SOL    HW222185   8.028   3.013   0.617 -0.5089  0.0619  0.8817
 7203SOL     OW22186   4.734   9.837   0.094  0.7896 -0.1927  0.5989
 7203SOL    HW122187   4.778   9.777   0.154  1.8503  0.6577  0.6962
 7203SOL    HW222188   4.758   9.805   0.007  1.4165  0.1304  0.6505
 7204SOL     OW22189   0.849   0.059   0.056  0.0842 -0.1370  0.0181
 7204SOL    HW122190   0.845   0.047   0.151  0.7370  0.0933  0.0751
 7204SOL    HW222191   0.769   0.109   0.036  1.3801  2.4735  0.8675
 7205SOL     OW22192   8.887   7.285   9.656 -0.2082 -0.0720  0.2587
 7205SOL    HW122193   8.970   7.238   9.657  0.5617  1.2103 -0.4763
 7205SOL    HW222194   8.821   7.218   9.643  0.8499 -0.9352 -0.7988
 7206SOL     OW22195   3.515   3.342   0.662  0.5029  0.2722 -0.2202
 7206SOL    HW122196   3.498   3.313   0.572  0.3825  0.1045 -0.1441
 7206SOL    HW222197   3.456   3.417   0.675  0.1613 -0.0137 -0.1151
 7207SOL     OW22198   9.935   4.199   2.366 -0.3085 -0.2201  0.0706
 7207SOL    HW122199   9.883   4.123   2.391 -2.5118  1.9567  2.7798
 7207SOL    HW222200   9.984   4.222   2.445 -0.2413  1.5460 -0.4417
 7208SOL     OW22201   7.793   0.039   4.010  0.8672 -0.3648  0.0759
 7208SOL    HW122202   7.824   0.019   3.922 -1.9459 -0.0636 -1.1092
 7208SOL    HW222203   7.756   0.127   4.003 -1.2850 -1.1229  0.9419
 7209SOL     OW22204   2.717   3.665   0.669 -0.0173 -0.5551 -0.3964
 7209SOL    HW122205   2.725   3.661   0.764  1.6527 -0.6462 -0.5155
 7209SOL    HW222206   2.807   3.665   0.637 -0.4968  0.8959 -1.9306
 7210SOL     OW22207   4.264   9.853   1.961  0.5208 -0.4552 -0.3328
 7210SOL    HW122208   4.275   9.761   1.938  1.0855 -0.4038 -0.2635
 7210SOL    HW222209   4.246   9.853   2.055 -0.2280 -0.5455 -0.4692
 7211SOL     OW22210   8.487   4.126   1.243  0.3458  0.0907 -0.0978
 7211SOL    HW122211   8.402   4.112   1.285 -0.4493 -0.4440 -1.8140
 7211SOL    HW222212   8.486   4.068   1.167  1.4416  1.5371 -1.2674
 7212SOL     OW22213   9.455   6.529   2.352 -0.0510  0.9708 -0.2237
 7212SOL    HW122214   9.451   6.532   2.447  0.5440 -0.4098 -0.1429
 7212SOL    HW222215   9.509   6.605   2.328  0.9131  0.5794  0.6268
 7213SOL     OW22216   2.363   1.200   1.656 -0.1632 -0.4211  0.0875
 7213SOL    HW122217   2.370   1.172   1.565  0.2227  1.6359 -0.5565
 7213SOL    HW222218   2.450   1.184   1.693  0.0920  0.0357 -0.3090
 7214SOL     OW22219   4.372   7.229   8.726 -0.0032 -0.9014  0.0618
 7214SOL    HW122220   4.276   7.229   8.719  0.0339  0.4200 -0.7387
 7214SOL    HW222221   4.392   7.151   8.778 -1.5478 -0.9112  0.7022
 7215SOL     OW22222   8.965   3.504   5.499 -0.8001  0.6822  0.5977
 7215SOL    HW122223   9.017   3.561   5.555 -0.3453 -1.0104  2.0048
 7215SOL    HW222224   8.897   3.561   5.463  0.4679  2.3780  0.7758
 7216SOL     OW22225   4.136   6.149   7.855  0.2594  0.4178  0.3983
 7216SOL    HW122226   4.140   6.211   7.929 -1.8974 -0.3606  1.2439
 7216SOL    HW222227   4.141   6.204   7.777 -1.9580  1.7826  1.1247
 7217SOL     OW22228   1.510   9.001   3.740 -0.2695 -0.8942  0.0645
 7217SOL    HW122229   1.518   9.096   3.729 -0.8275 -0.6013  1.8207
 7217SOL    HW222230   1.582   8.965   3.690  2.2053  0.6830  2.2027
 7218SOL     OW22231   4.195   9.902   7.309 -0.1537 -0.4124 -0.6858
 7218SOL    HW122232   4.177   9.982   7.359 -1.1488 -0.1095 -1.5058
 7218SOL    HW222233   4.131   9.902   7.238 -0.3341 -2.0762 -0.5696
 7219SOL     OW22234   6.674   7.895   8.161 -0.4718 -0.0591  0.0912
 7219SOL    HW122235   6.623   7.868   8.237 -0.2731 -1.7261 -0.3297
 7219SOL    HW222236   6.704   7.813   8.121  0.8024  0.8196 -0.8542
 7220SOL     OW22237   4.526   5.807   0.926 -0.1996  0.0244 -0.2064
 7220SOL    HW122238   4.462   5.873   0.901  0.1570  0.1092 -0.9288
 7220SOL    HW222239   4.611   5.844   0.900  0.2687  0.3751  1.6963
 7221SOL     OW22240   1.416   5.801   4.681 -1.0600  0.1937 -0.7010
 7221SOL    HW122241   1.444   5.881   4.638  1.9819  0.5241  1.5534
 7221SOL    HW222242   1.492   5.742   4.675 -2.4136 -1.6911 -0.3477
 7222SOL     OW22243   8.692   4.183   7.096 -0.0031 -0.0045 -0.0224
 7222SOL    HW122244   8.780   4.210   7.071  0.8166 -0.5410  2.0672
 7222SOL    HW222245   8.654   4.149   7.015  1.4561  0.8175 -1.1167
 7223SOL     OW22246   4.895   0.555   7.856  0.0682 -0.1062  0.0768
 7223SOL    HW122247   4.902   0.583   7.765 -0.9676  0.6492  0.2104
 7223SOL    HW222248   4.811   0.590   7.885  1.5442  1.9787  2.1158
 7224SOL     OW22249   0.488   1.244   3.351 -0.0211  0.1862 -0.5324
 7224SOL    HW122250   0.439   1.305   3.405 -0.1471  0.6891 -1.2027
 7224SOL    HW222251   0.561   1.295   3.316  0.4883 -0.3304 -0.2455
 7225SOL     OW22252   2.875   2.355   0.773 -0.5885  0.4952 -0.2007
 7225SOL    HW122253   2.958   2.351   0.821 -0.1403 -1.3616 -1.0162
 7225SOL    HW222254   2.808   2.355   0.842  0.0569 -0.5978  0.4648
 7226SOL     OW22255   6.789   0.642   0.405  0.3041  0.1778  0.5096
 7226SOL    HW122256   6.769   0.555   0.439 -0.1392 -0.2628 -0.8342
 7226SOL    HW222257   6.885   0.646   0.405  0.3694 -0.8251 -0.6112
 7227SOL     OW22258   3.201   0.821   9.455  0.4822  0.0097 -0.5758
 7227SOL    HW122259   3.280   0.779   9.420  0.6575 -0.4729  0.3898
 7227SOL    HW222260   3.135   0.752   9.456  0.4172  0.0763 -0.1535
 7228SOL     OW22261   0.418   1.351   7.706  0.7074  0.6845 -0.0509
 7228SOL    HW122262   0.435   1.374   7.614 -1.7575 -0.0856 -0.8022
 7228SOL    HW222263   0.469   1.414   7.756 -0.0089  3.0060 -1.9917
 7229SOL     OW22264   1.079   7.843   3.906  0.0592  0.1687 -0.2744
 7229SOL    HW122265   1.034   7.916   3.863  2.8119  2.2408  0.0784
 7229SOL    HW222266   1.044   7.842   3.995  0.5509  1.6162 -0.0478
 7230SOL     OW22267   9.015   2.143   2.085  0.1115  0.8917  0.2797
 7230SOL    HW122268   8.972   2.196   2.152  0.6425  1.3911  0.2300
 7230SOL    HW222269   9.102   2.182   2.075 -0.1610  1.2055 -1.1265
 7231SOL     OW22270   0.210   0.274   1.590  0.0173  0.0569  0.2198
 7231SOL    HW122271   0.147   0.226   1.644  2.2315 -1.6854  1.3947
 7231SOL    HW222272   0.280   0.298   1.651  1.0640  0.9282 -1.2598
 7232SOL     OW22273   5.000   9.093   7.527  0.2716  0.3864 -0.5974
 7232SOL    HW122274   5.076   9.060   7.575 -0.9351 -0.7613  0.5864
 7232SOL    HW222275   4.994   9.037   7.450  0.2188  0.0339 -0.3376
 7233SOL     OW22276   5.467   8.675   3.684  0.0826  0.0833  0.3453
 7233SOL    HW122277   5.496   8.677   3.776  0.7944 -0.3938  0.1361
 7233SOL    HW222278   5.522   8.740   3.640 -0.1185  0.1638  0.2081
 7234SOL     OW22279   6.579   6.331   7.800 -0.7755  0.4436  0.5268
 7234SOL    HW122280   6.643   6.299   7.863  1.1574  0.5897 -1.2545
 7234SOL    HW222281   6.508   6.267   7.803 -0.7818  0.4626  2.8014
 7235SOL     OW22282   3.262   9.309   0.051  0.1986  0.2267 -0.7322
 7235SOL    HW122283   3.243   9.386  -0.002 -1.1066  0.6510  0.3027
 7235SOL    HW222284   3.193   9.307   0.117  0.9185 -1.1320  0.0336
 7236SOL     OW22285   5.939   8.656   0.265  0.3423 -0.0985 -0.0870
 7236SOL    HW122286   5.997   8.715   0.217 -1.4539  0.7191 -1.3674
 7236SOL    HW222287   5.936   8.577   0.212  0.7540 -0.3697  0.2929
 7237SOL     OW22288   0.903   7.304   6.381 -0.3363 -0.2623 -0.9822
 7237SOL    HW122289   0.815   7.337   6.398  0.4243  0.9340  0.9084
 7237SOL    HW222290   0.904   7.216   6.421 -0.7463 -0.4083 -1.2832
 7238SOL     OW22291   6.036   4.934   3.503 -0.1045 -0.3821 -0.1158
 7238SOL    HW122292   6.014   5.005   3.562 -0.3002 -0.8474  0.3747
 7238SOL    HW222293   6.042   4.856   3.559 -0.2249 -0.8135 -0.6903
 7239SOL     OW22294   2.891   4.925   3.226 -0.2663  0.2446  0.3586
 7239SOL    HW122295   2.973   4.973   3.210  0.5042 -1.2009 -0.2232
 7239SOL    HW222296   2.827   4.968   3.170  0.3965  0.6265 -0.1253
 7240SOL     OW22297   1.062   3.990   1.954 -0.1526  0.4288 -0.1706
 7240SOL    HW122298   1.040   3.921   2.016  0.5275  0.5028  0.1647
 7240SOL    HW222299   0.981   4.040   1.943 -0.5699 -0.2430 -0.1924
 7241SOL     OW22300   6.589   0.470   6.972  0.1718 -0.0343  0.4645
 7241SOL    HW122301   6.505   0.514   6.962  0.6710  0.3178 -4.0673
 7241SOL    HW222302   6.653   0.541   6.981  0.4703  0.0891 -1.9839
 7242SOL     OW22303   2.479   1.762   5.006 -0.2420 -0.6138 -0.1643
 7242SOL    HW122304   2.492   1.670   5.029 -0.5644 -1.4539 -2.9935
 7242SOL    HW222305   2.566   1.792   4.978 -0.5208 -0.6583 -1.1066
 7243SOL     OW22306   5.747   2.953   9.081  0.2629  0.1108  0.0325
 7243SOL    HW122307   5.751   2.887   9.150 -0.9422 -1.4645 -1.3372
 7243SOL    HW222308   5.663   2.996   9.094  0.5814  0.6751  0.2763
 7244SOL     OW22309   0.473   9.577   7.207 -0.2449  0.2467 -0.2227
 7244SOL    HW122310   0.409   9.507   7.215  0.4180 -0.4212 -0.6467
 7244SOL    HW222311   0.449   9.639   7.276 -0.2679 -0.8560  0.8003
 7245SOL     OW22312   1.530   6.421   1.756 -0.1848  0.7707  0.1839
 7245SOL    HW122313   1.488   6.389   1.835  0.1366 -1.1358 -0.3804
 7245SOL    HW222314   1.549   6.343   1.705 -0.1510  1.9204 -1.6704
 7246SOL     OW22315   6.301   0.446   2.634 -0.7667 -0.4239  0.1576
 7246SOL    HW122316   6.356   0.414   2.706 -1.1538  0.0902  0.6885
 7246SOL    HW222317   6.337   0.404   2.556 -1.1977 -2.0767  0.8169
 7247SOL     OW22318   4.495   1.190   8.836 -0.1799  0.4987  0.1220
 7247SOL    HW122319   4.494   1.097   8.857  1.0228  0.5485  0.4863
 7247SOL    HW222320   4.410   1.206   8.796 -0.6532 -0.6188  0.6209
 7248SOL     OW22321   3.480   5.300   1.154  0.0809  0.0364  0.4062
 7248SOL    HW122322   3.500   5.371   1.093 -1.2925  0.0107 -0.1088
 7248SOL    HW222323   3.529   5.224   1.120 -0.9327 -0.0655 -0.8880
 7249SOL     OW22324   7.114   0.718   2.986  0.0214  0.1052  0.2041
 7249SOL    HW122325   7.162   0.799   2.967 -2.3370  1.1611 -1.8924
 7249SOL    HW222326   7.162   0.650   2.939  0.8681  0.6556  0.2484
 7250SOL     OW22327   6.086   8.767   9.573  0.6376  0.4235 -0.3751
 7250SOL    HW122328   6.085   8.842   9.513 -1.0691  0.0850 -0.8144
 7250SOL    HW222329   6.176   8.763   9.604  0.9698  2.1506 -0.9855
 7251SOL     OW22330   0.337   3.857   1.048 -0.2559  0.5278  0.3384
 7251SOL    HW122331   0.319   3.778   0.998 -0.5397  1.0312 -0.3700
 7251SOL    HW222332   0.318   3.929   0.988  1.1133  1.1307  0.5817
 7252SOL     OW22333   6.364   9.039   4.003  0.0036 -0.7864 -0.4225
 7252SOL    HW122334   6.308   8.965   4.026 -1.3829  0.5558  0.8503
 7252SOL    HW222335   6.441   9.000   3.963 -2.1566 -2.7301 -3.0625
 7253SOL     OW22336   9.690   5.438   7.408  0.2884 -0.1544 -0.6749
 7253SOL    HW122337   9.622   5.461   7.471  1.2467 -0.2356  0.4077
 7253SOL    HW222338   9.712   5.347   7.427  1.4394  0.1828 -0.2921
 7254SOL     OW22339   5.275   5.924   9.320 -0.3777 -0.4470 -0.0982
 7254SOL    HW122340   5.222   5.846   9.338 -1.4964  0.7609  2.2246
 7254SOL    HW222341   5.212   5.991   9.296  0.4772  0.0667 -0.9628
 7255SOL     OW22342   1.810   8.022   6.600  0.2494  0.2372 -0.5045
 7255SOL    HW122343   1.732   7.976   6.631  0.0792  1.1575  0.4733
 7255SOL    HW222344   1.871   8.018   6.674  1.1419 -0.4414 -1.2436
 7256SOL     OW22345   8.336   5.737   1.492 -0.2895 -0.0421 -0.1326
 7256SOL    HW122346   8.262   5.748   1.433  1.2548  0.6850 -2.0579
 7256SOL    HW222347   8.383   5.661   1.458 -0.4019 -0.8250  1.3765
 7257SOL     OW22348   2.906   0.302   6.754  0.3312 -0.4463 -0.2185
 7257SOL    HW122349   2.913   0.235   6.686 -0.1989 -1.0614  0.3205
 7257SOL    HW222350   2.861   0.375   6.712  0.6395 -0.5470 -0.7263
 7258SOL     OW22351   7.468   9.209   8.754  0.0973  0.7048 -0.3345
 7258SOL    HW122352   7.481   9.303   8.756 -0.0903  0.7245  0.2967
 7258SOL    HW222353   7.457   9.188   8.661 -1.8731  1.6048 -0.3723
 7259SOL     OW22354   9.373   2.779   4.090  0.3658  0.3423  0.6872
 7259SOL    HW122355   9.461   2.764   4.124  1.0192  1.7966 -0.2608
 7259SOL    HW222356   9.371   2.732   4.007  0.2522  0.3141  0.7060
 7260SOL     OW22357   3.823   3.955   0.644  0.2574  0.2868 -0.2085
 7260SOL    HW122358   3.838   3.867   0.611 -0.4403  0.1809 -0.2610
 7260SOL    HW222359   3.850   3.951   0.736 -0.3177 -0.1458 -0.0515
 7261SOL     OW22360   2.509   0.543   0.561 -0.0213 -0.4755  0.3017
 7261SOL    HW122361   2.555   0.590   0.630 -0.0520 -0.3452  0.2352
 7261SOL    HW222362   2.456   0.478   0.607 -0.8211  0.2726  0.4841
 7262SOL     OW22363   6.493   1.869   0.490 -0.6811 -0.0216  0.3365
 7262SOL    HW122364   6.571   1.922   0.506  0.1978 -0.3585 -2.3203
 7262SOL    HW222365   6.424   1.913   0.539  0.4072  2.4748 -0.1893
 7263SOL     OW22366   4.356   1.099   9.825 -0.1107 -0.1728  0.4656
 7263SOL    HW122367   4.315   1.067   9.745 -0.1501 -1.0779  0.8308
 7263SOL    HW222368   4.294   1.075   9.895  0.3586 -0.2515  0.8593
 7264SOL     OW22369   3.591   1.078   2.237 -0.1612  0.4280  0.2054
 7264SOL    HW122370   3.671   1.077   2.289  0.1025 -1.0346 -0.1653
 7264SOL    HW222371   3.547   1.159   2.261  1.1149  0.9458  0.8962
 7265SOL     OW22372   0.353   1.346   0.569  0.2415  0.4356  0.2714
 7265SOL    HW122373   0.319   1.369   0.483  1.6591 -0.1579 -0.4946
 7265SOL    HW222374   0.400   1.424   0.598 -0.8546  0.8910  0.8549
 7266SOL     OW22375   2.870   7.828   8.749  0.6780 -0.7079 -0.6647
 7266SOL    HW122376   2.785   7.785   8.759  0.9494 -0.9581  0.8354
 7266SOL    HW222377   2.919   7.772   8.689 -0.4545 -0.1618 -2.1500
 7267SOL     OW22378   4.673   7.408   2.174  0.1403  0.8759 -0.0671
 7267SOL    HW122379   4.634   7.406   2.262  1.4131 -1.2298  0.5046
 7267SOL    HW222380   4.616   7.352   2.122  1.1851 -0.5542  0.2713
 7268SOL     OW22381   7.309   0.239   1.874 -0.9071  0.2978  0.0196
 7268SOL    HW122382   7.372   0.187   1.924 -0.1620 -0.7399 -1.8707
 7268SOL    HW222383   7.250   0.275   1.939  0.4135 -0.4063  1.6838
 7269SOL     OW22384   6.055   1.207   4.162  0.1869  0.2817  0.1392
 7269SOL    HW122385   6.144   1.196   4.197  1.1313 -2.9802 -2.6813
 7269SOL    HW222386   6.069   1.226   4.069 -2.0693 -0.5483 -0.4224
 7270SOL     OW22387   8.318   4.790   4.026  0.6542 -0.3190 -0.1549
 7270SOL    HW122388   8.259   4.717   4.005  0.6699 -0.2721 -0.3620
 7270SOL    HW222389   8.261   4.867   4.030  0.5872 -0.3903  0.3782
 7271SOL     OW22390   5.461   6.963   0.152  0.1184  0.2183  0.0226
 7271SOL    HW122391   5.489   6.879   0.117 -2.8446 -0.8382 -0.0537
 7271SOL    HW222392   5.419   7.007   0.078  0.5045  1.2343  0.3874
 7272SOL     OW22393   5.682   6.292   6.647  0.1310 -0.2690  0.0129
 7272SOL    HW122394   5.776   6.307   6.634  0.3438 -0.4090  1.2765
 7272SOL    HW222395   5.673   6.276   6.741 -1.2746  0.5676  0.0471
 7273SOL     OW22396   7.993   6.365   1.604  0.6165  0.8856  0.5617
 7273SOL    HW122397   7.901   6.387   1.621  0.3514  0.0279  0.2863
 7273SOL    HW222398   8.035   6.449   1.586 -0.1128  1.2887  0.7071
 7274SOL     OW22399   2.933   6.560   4.348 -0.0460 -0.1754  0.1974
 7274SOL    HW122400   2.942   6.465   4.355 -0.1075 -0.4282 -2.3910
 7274SOL    HW222401   3.004   6.588   4.290  1.9285  1.8680  3.2873
 7275SOL     OW22402   4.521   4.685   8.608 -0.4502  0.6969  0.4135
 7275SOL    HW122403   4.548   4.733   8.686  0.3564  1.5366 -0.3695
 7275SOL    HW222404   4.468   4.747   8.558  1.3014  1.1230 -1.0174
 7276SOL     OW22405   2.695   8.331   7.727  0.1666 -0.5284 -0.0180
 7276SOL    HW122406   2.724   8.419   7.751  0.4912 -0.6422  0.0153
 7276SOL    HW222407   2.602   8.328   7.751 -0.0801  0.1131 -0.8530
 7277SOL     OW22408   6.153   3.947   7.979  0.3954  0.0814  0.2081
 7277SOL    HW122409   6.149   3.854   7.999  1.3913 -0.3071 -1.2095
 7277SOL    HW222410   6.079   3.963   7.920  0.8808 -0.0967 -0.4728
 7278SOL     OW22411   4.131   5.622   4.601 -0.3959 -0.5518  0.4533
 7278SOL    HW122412   4.203   5.589   4.547 -1.3516 -0.6513 -0.7983
 7278SOL    HW222413   4.068   5.657   4.538 -0.0478  2.5218  1.6046
 7279SOL     OW22414   9.592   3.326   2.303 -0.4731  0.0664  0.0485
 7279SOL    HW122415   9.607   3.398   2.364  0.5097 -1.2310  1.4063
 7279SOL    HW222416   9.497   3.314   2.303 -0.9515  2.7753 -1.9920
 7280SOL     OW22417   7.310   5.579   5.164  0.3881 -0.1525  0.3375
 7280SOL    HW122418   7.245   5.512   5.141  0.2208 -0.1894  0.8946
 7280SOL    HW222419   7.304   5.585   5.259  1.3732 -0.3313  0.4204
 7281SOL     OW22420   6.345   1.442   8.443  0.1753 -0.2915  0.5811
 7281SOL    HW122421   6.383   1.492   8.516  0.9553 -0.1054  0.0632
 7281SOL    HW222422   6.421   1.407   8.396 -0.3306 -0.7913  0.1195
 7282SOL     OW22423   4.095   1.710   4.305  0.0556  0.3444 -0.4663
 7282SOL    HW122424   4.045   1.700   4.385 -0.7092 -0.7370 -1.0609
 7282SOL    HW222425   4.077   1.631   4.254  0.8483  0.8124 -1.5325
 7283SOL     OW22426   8.914   1.333   8.347 -0.4948  0.4281  0.9549
 7283SOL    HW122427   8.978   1.404   8.353  1.3922 -0.9562 -1.0353
 7283SOL    HW222428   8.954   1.260   8.395 -2.3522  0.5697  2.8762
 7284SOL     OW22429   9.004   0.346   8.570  0.4274 -0.2217 -0.1006
 7284SOL    HW122430   8.952   0.356   8.491  2.0878  0.0076 -1.2214
 7284SOL    HW222431   8.966   0.408   8.632 -1.0096 -0.5306 -0.6307
 7285SOL     OW22432   4.093   1.103   2.854  0.1148  0.1852  0.4006
 7285SOL    HW122433   4.133   1.040   2.794  2.6276  0.0624  2.0372
 7285SOL    HW222434   4.000   1.102   2.832  0.2854 -2.9382 -0.6818
 7286SOL     OW22435   9.690   8.057   2.772 -0.3253 -0.0666  0.1945
 7286SOL    HW122436   9.606   8.013   2.763  0.0080 -0.3485 -2.0480
 7286SOL    HW222437   9.672   8.148   2.749  0.0069 -0.1736 -0.5121
 7287SOL     OW22438   0.323   7.712   7.854 -0.4337  0.4412  0.1189
 7287SOL    HW122439   0.297   7.802   7.875  0.7472  1.1041 -1.0417
 7287SOL    HW222440   0.242   7.662   7.855 -1.1401  1.5565  0.6324
 7288SOL     OW22441   7.126   6.750   7.991 -0.0724  0.9765 -0.2569
 7288SOL    HW122442   7.091   6.734   7.903 -0.2841  1.2707 -0.2275
 7288SOL    HW222443   7.066   6.703   8.049  0.9458 -0.5365 -0.3663
 7289SOL     OW22444   0.207   3.557   5.735 -0.0452 -0.1367 -0.4180
 7289SOL    HW122445   0.169   3.625   5.791  1.3412  1.0771 -0.8519
 7289SOL    HW222446   0.285   3.599   5.698  1.2690 -2.2238 -0.1470
 7290SOL     OW22447   9.867   9.839   5.931  0.3428 -0.7959  0.5445
 7290SOL    HW122448   9.868   9.754   5.888 -2.1478 -1.0803  0.9000
 7290SOL    HW222449   9.849   9.902   5.861 -2.8032 -1.1685  0.8468
 7291SOL     OW22450   7.315   2.423   6.044 -1.1763 -0.1167 -0.2026
 7291SOL    HW122451   7.242   2.416   5.983 -0.3707  0.4038 -1.2574
 7291SOL    HW222452   7.380   2.361   6.011 -0.4936  0.5994 -0.2342
 7292SOL     OW22453   3.465   4.614   3.102 -0.5265  0.2835  0.4192
 7292SOL    HW122454   3.383   4.596   3.149  0.1176 -1.5196  0.9240
 7292SOL    HW222455   3.533   4.580   3.160  0.5549  1.2010 -0.2790
 7293SOL     OW22456   8.335   3.557   3.757  0.1850 -0.3202  0.1251
 7293SOL    HW122457   8.241   3.543   3.747  0.1673  0.6811 -1.5753
 7293SOL    HW222458   8.348   3.570   3.850 -1.8000  2.3294  0.1333
 7294SOL     OW22459   4.433   3.082   8.104  0.0559  0.3344 -0.2783
 7294SOL    HW122460   4.514   3.081   8.053  0.2473  0.1528  0.0290
 7294SOL    HW222461   4.387   3.161   8.074  0.8138  0.9941  0.2626
 7295SOL     OW22462   6.131   5.427   7.915  0.3256  0.5155  0.0232
 7295SOL    HW122463   6.049   5.377   7.912 -0.1305  1.2914 -1.3089
 7295SOL    HW222464   6.104   5.513   7.947  0.2302  1.3999 -2.2594
 7296SOL     OW22465   0.031   2.919   8.584 -0.5138  0.2193 -0.2314
 7296SOL    HW122466   0.018   2.866   8.505 -0.4955 -2.0013  1.1732
 7296SOL    HW222467   0.092   2.987   8.558 -1.9587  0.7159 -2.6097
 7297SOL     OW22468   6.059   8.527   6.126 -0.2819 -0.4907 -0.0801
 7297SOL    HW122469   6.136   8.582   6.112 -0.5457  0.1235  0.7877
 7297SOL    HW222470   6.094   8.437   6.130  0.4117 -0.2060  0.4600
 7298SOL     OW22471   2.323   6.406   6.689  0.0905  0.3110  1.0266
 7298SOL    HW122472   2.412   6.423   6.719  0.5806  0.7631 -0.5971
 7298SOL    HW222473   2.273   6.482   6.718  0.6810  1.0234  0.2282
 7299SOL     OW22474   2.829   5.657   2.851 -0.2755 -0.0661  0.1710
 7299SOL    HW122475   2.815   5.742   2.894  0.9027  0.8615 -1.1741
 7299SOL    HW222476   2.840   5.595   2.923 -1.8458  0.7694  1.1920
 7300SOL     OW22477   8.593   5.132   1.358 -0.8988 -0.2506 -0.6504
 7300SOL    HW122478   8.572   5.069   1.427  2.9540  0.5068  1.4841
 7300SOL    HW222479   8.609   5.078   1.281  1.5326 -1.9776  0.9178
 7301SOL     OW22480   1.662   6.550   3.939  0.1811  0.1195 -0.0879
 7301SOL    HW122481   1.698   6.467   3.971  1.5139 -0.4952 -2.9139
 7301SOL    HW222482   1.568   6.536   3.935  0.2571 -0.7412  0.8037
 7302SOL     OW22483   2.707   7.499   3.729 -0.2814  0.5212  0.1605
 7302SOL    HW122484   2.643   7.464   3.667  1.7165 -1.0794 -1.1041
 7302SOL    HW222485   2.777   7.433   3.731  0.4640  1.2801  2.9431
 7303SOL     OW22486   8.712   1.176   9.585  0.2388 -0.1808  0.3431
 7303SOL    HW122487   8.764   1.141   9.513  0.4586 -1.1551  0.9548
 7303SOL    HW222488   8.763   1.155   9.663 -0.2985  0.3085  0.8328
 7304SOL     OW22489   7.528   7.219   7.316 -0.7024 -0.2519 -0.0522
 7304SOL    HW122490   7.529   7.124   7.323  1.4821 -0.2122  0.9569
 7304SOL    HW222491   7.621   7.244   7.319 -1.1480  1.8403 -1.4307
 7305SOL     OW22492   6.859   9.433   9.122 -0.3585  0.5434 -0.4139
 7305SOL    HW122493   6.878   9.515   9.168 -0.7046  0.8291 -0.7725
 7305SOL    HW222494   6.921   9.432   9.049  0.9660 -0.4493  0.6601
 7306SOL     OW22495   8.147   4.625   6.056 -0.6407 -0.2405 -0.0384
 7306SOL    HW122496   8.190   4.703   6.023  0.5343 -0.6830  0.4045
 7306SOL    HW222497   8.113   4.581   5.977  0.8845 -0.5556 -0.5420
 7307SOL     OW22498   9.956   4.364   0.711  0.5997 -0.0070 -0.1711
 7307SOL    HW122499   9.965   4.458   0.694  2.5498 -0.2796 -0.9688
 7307SOL    HW222500   9.928   4.326   0.628  1.5353 -0.3204 -0.3542
 7308SOL     OW22501   8.973   7.533   7.075 -1.0926 -0.5101  0.2347
 7308SOL    HW122502   8.902   7.580   7.030 -1.1935 -0.4497  0.4569
 7308SOL    HW222503   8.966   7.560   7.166 -0.3126  0.0755  0.1258
 7309SOL     OW22504   8.824   6.286   6.666 -0.2226  0.5799 -0.8061
 7309SOL    HW122505   8.767   6.350   6.708 -1.2866 -1.6548  1.3532
 7309SOL    HW222506   8.769   6.244   6.600  0.1525  1.0948 -1.4621
 7310SOL     OW22507   3.802   5.984   0.408  0.3843 -0.5981  0.4238
 7310SOL    HW122508   3.821   6.042   0.481 -0.2542  1.8145 -1.1867
 7310SOL    HW222509   3.886   5.968   0.366  0.4355  0.0596  0.2731
 7311SOL     OW22510   8.853   5.456   2.700  0.5388 -0.1040  0.1089
 7311SOL    HW122511   8.936   5.409   2.692  2.2751  2.6560  0.5955
 7311SOL    HW222512   8.867   5.538   2.653 -1.7940  0.6220  0.5655
 7312SOL     OW22513   3.094   9.294   9.081  0.0017  0.2086 -0.3034
 7312SOL    HW122514   3.171   9.351   9.071  0.1675  0.3320  1.3639
 7312SOL    HW222515   3.124   9.223   9.138 -0.0347 -1.9464 -2.7831
 7313SOL     OW22516   1.925   5.809   4.516  0.0116 -0.3632 -0.0952
 7313SOL    HW122517   1.927   5.797   4.611 -0.5157  0.4266  0.0245
 7313SOL    HW222518   1.865   5.882   4.502 -0.7461 -1.1417 -1.1031
 7314SOL     OW22519   8.177   8.172   4.864  0.2544 -0.7725 -0.2396
 7314SOL    HW122520   8.249   8.145   4.921  0.5962  1.5472  0.5444
 7314SOL    HW222521   8.109   8.202   4.924 -0.4793 -0.8748 -1.0093
 7315SOL     OW22522   2.995   6.054   9.588 -0.1100  0.3053 -0.2927
 7315SOL    HW122523   2.968   6.067   9.497  0.9073  2.1338 -0.3697
 7315SOL    HW222524   2.988   6.141   9.628  0.0863 -0.3400  1.2058
 7316SOL     OW22525   5.038   5.021   0.726  0.1922 -0.3400  0.0217
 7316SOL    HW122526   4.984   5.095   0.755  1.0843  0.0274  0.7564
 7316SOL    HW222527   5.043   5.032   0.631 -0.5489 -0.0587  0.0043
 7317SOL     OW22528   4.264   7.855   3.571  0.1557 -0.0811 -0.0091
 7317SOL    HW122529   4.257   7.817   3.483  1.1102 -1.1821  0.3646
 7317SOL    HW222530   4.308   7.938   3.557  0.4067 -0.2979 -0.5700
 7318SOL     OW22531   6.095   6.337   9.184 -0.0903 -0.1000 -0.3585
 7318SOL    HW122532   6.027   6.373   9.241 -0.4793 -0.1391 -0.7848
 7318SOL    HW222533   6.095   6.243   9.203  1.6422  0.2104  1.5058
 7319SOL     OW22534   1.169   8.171   9.831  0.2589  0.6857 -0.0936
 7319SOL    HW122535   1.243   8.118   9.860  1.5931  3.4916  2.1500
 7319SOL    HW222536   1.175   8.172   9.736  1.3030 -1.4786 -0.1124
 7320SOL     OW22537   1.272   3.586   3.020  0.4423 -0.2192 -0.1765
 7320SOL    HW122538   1.361   3.594   3.055 -0.3034  1.0110  1.6208
 7320SOL    HW222539   1.230   3.520   3.076 -0.5287  1.1747  0.8139
 7321SOL     OW22540   5.209   1.604   1.412 -0.6792  0.3637  0.1582
 7321SOL    HW122541   5.116   1.584   1.428 -0.0360 -1.6748  1.7509
 7321SOL    HW222542   5.225   1.571   1.324 -0.7026 -2.6431  1.1533
 7322SOL     OW22543   6.318   1.948   8.005 -0.6074  0.2024 -0.5120
 7322SOL    HW122544   6.256   1.953   8.078 -1.5171  4.0950 -1.2896
 7322SOL    HW222545   6.389   2.008   8.030 -0.1212  0.3462 -2.1151
 7323SOL     OW22546   6.179   5.048   1.045 -0.1388  0.2713 -0.0675
 7323SOL    HW122547   6.086   5.028   1.048 -0.8561  3.1200 -0.5200
 7323SOL    HW222548   6.188   5.130   1.094  1.9525  0.6842 -1.0110
 7324SOL     OW22549   1.328   5.592   3.642  0.0434 -0.0780 -0.0531
 7324SOL    HW122550   1.374   5.624   3.720 -2.2254 -2.8650  2.6914
 7324SOL    HW222551   1.363   5.505   3.626 -0.4338 -0.0544 -1.4040
 7325SOL     OW22552   6.650   0.522   9.384  0.2568 -0.1075 -0.4169
 7325SOL    HW122553   6.683   0.432   9.391 -0.3395 -0.2144  2.8491
 7325SOL    HW222554   6.607   0.525   9.299 -0.1487 -3.0876 -0.4353
 7326SOL     OW22555   3.873   1.786   0.483 -0.5509 -0.1628  0.3306
 7326SOL    HW122556   3.808   1.852   0.458 -0.6527 -0.4600 -0.2071
 7326SOL    HW222557   3.956   1.819   0.449 -0.4448  0.1215  0.8483
 7327SOL     OW22558   7.479   2.605   5.077  0.0301 -0.5362 -0.1135
 7327SOL    HW122559   7.413   2.559   5.025  0.6987 -1.2197 -0.3927
 7327SOL    HW222560   7.456   2.697   5.070 -1.3219 -0.8116  0.4119
 7328SOL     OW22561   1.678   5.313   0.957 -0.0482 -0.9534 -0.1747
 7328SOL    HW122562   1.717   5.313   0.870  0.8563 -0.4603  0.2176
 7328SOL    HW222563   1.744   5.272   1.013  0.1444  0.3785  0.6021
 7329SOL     OW22564   8.660   6.445   3.716  0.2506 -0.2127  0.3914
 7329SOL    HW122565   8.579   6.396   3.729  0.2701 -0.3582 -0.0486
 7329SOL    HW222566   8.727   6.378   3.700  0.4787 -0.0984  0.8410
 7330SOL     OW22567   0.687   9.094   3.755 -0.3474 -0.2118 -0.0704
 7330SOL    HW122568   0.622   9.029   3.783 -2.1328  1.8957  0.9352
 7330SOL    HW222569   0.677   9.097   3.659 -1.6185 -0.0466  0.0512
 7331SOL     OW22570   3.406   4.909   5.525  0.3442 -0.2995  0.3426
 7331SOL    HW122571   3.467   4.967   5.571  0.4154 -1.6799  2.1166
 7331SOL    HW222572   3.323   4.957   5.522  0.5041  0.0536  1.4144
 7332SOL     OW22573   8.491   7.614   7.531 -0.5574 -0.0042  0.2555
 7332SOL    HW122574   8.430   7.623   7.458 -1.4044 -0.6067  0.8610
 7332SOL    HW222575   8.450   7.665   7.602  1.3951  2.5697 -0.3281
 7333SOL     OW22576   3.141   7.773   2.424 -0.1885  0.1675  0.0948
 7333SOL    HW122577   3.146   7.838   2.353  0.3901  0.4423  0.3755
 7333SOL    HW222578   3.146   7.689   2.380  1.6433  0.3459 -0.1081
 7334SOL     OW22579   6.908   7.448   5.926 -0.1237  0.1287  0.1629
 7334SOL    HW122580   6.932   7.374   5.981  2.6176 -0.1724 -1.2873
 7334SOL    HW222581   6.837   7.416   5.871 -0.0385 -0.9004  0.6407
 7335SOL     OW22582   0.899   2.712   4.498 -0.1283 -0.0393  0.3146
 7335SOL    HW122583   0.823   2.691   4.552 -1.0113 -0.2207 -0.9719
 7335SOL    HW222584   0.935   2.791   4.538  0.0663 -0.9155  1.9767
 7336SOL     OW22585   2.743   2.511   3.469 -0.1173 -0.5281  0.3146
 7336SOL    HW122586   2.835   2.523   3.492  0.1257 -0.8774 -0.4387
 7336SOL    HW222587   2.695   2.533   3.549  0.6126 -0.2525  0.6844
 7337SOL     OW22588   6.249   4.949   4.668 -0.1046 -0.3084  0.8140
 7337SOL    HW122589   6.212   4.882   4.612 -1.0402 -0.3468  1.4699
 7337SOL    HW222590   6.291   5.010   4.607  0.2902 -1.1853  0.1842
 7338SOL     OW22591   4.913   3.738   3.183 -0.3612 -0.6350  0.0083
 7338SOL    HW122592   4.969   3.798   3.136  0.6408 -0.2444  1.6253
 7338SOL    HW222593   4.847   3.711   3.119 -1.1416  2.5184 -0.6732
 7339SOL     OW22594   9.393   8.341   1.190 -0.1342 -0.1830  0.1270
 7339SOL    HW122595   9.375   8.249   1.170 -1.3387  0.2162 -0.7555
 7339SOL    HW222596   9.387   8.346   1.285 -0.3343 -0.9663  0.1672
 7340SOL     OW22597   0.447   9.387   2.849 -0.2933 -0.2452  0.0789
 7340SOL    HW122598   0.471   9.449   2.918  0.0651  0.4507 -0.6577
 7340SOL    HW222599   0.529   9.342   2.828 -0.5486 -0.9889  0.6046
 7341SOL     OW22600   5.485   3.062   7.537  0.3883  0.0358  0.4222
 7341SOL    HW122601   5.458   3.000   7.606  0.1455  0.9987  1.2074
 7341SOL    HW222602   5.512   3.140   7.585  0.6739  0.5523 -0.5692
 7342SOL     OW22603   4.593   7.200   3.750 -0.0188  0.3645  0.0242
 7342SOL    HW122604   4.595   7.229   3.841 -1.1586  2.6843 -0.6325
 7342SOL    HW222605   4.667   7.246   3.709 -0.9576  1.2550 -0.7156
 7343SOL     OW22606   1.830   5.751   2.751 -0.0666 -0.1486 -0.2007
 7343SOL    HW122607   1.832   5.655   2.752 -0.4315 -0.2975 -3.1659
 7343SOL    HW222608   1.738   5.773   2.761  0.1277 -0.0023  1.5578
 7344SOL     OW22609   5.004   5.215   4.980 -0.2880  0.1025  0.8194
 7344SOL    HW122610   4.966   5.138   4.938 -0.8697  0.7381  0.1425
 7344SOL    HW222611   5.087   5.185   5.016  1.0393 -0.1616 -2.1390
 7345SOL     OW22612   6.319   8.478   1.743  0.0296 -0.2545 -0.0224
 7345SOL    HW122613   6.311   8.467   1.649  0.0692  0.3554 -0.1066
 7345SOL    HW222614   6.232   8.506   1.772  0.0324 -0.3823  0.1133
 7346SOL     OW22615   9.219   6.085   6.043  0.2634  0.4638  0.5036
 7346SOL    HW122616   9.192   6.116   6.130 -1.0977 -0.1685  0.3264
 7346SOL    HW222617   9.224   6.165   5.990 -3.1867  0.5400  0.0575
 7347SOL     OW22618   0.340   7.575   4.383  0.5222 -0.1583 -0.4144
 7347SOL    HW122619   0.253   7.603   4.354 -0.2343 -1.8644  0.0943
 7347SOL    HW222620   0.338   7.585   4.478  1.4811  1.3419 -0.5280
 7348SOL     OW22621   3.061   1.524   0.420  0.2090 -0.2136  0.0988
 7348SOL    HW122622   3.137   1.466   0.420 -0.5732 -1.3339  1.7933
 7348SOL    HW222623   3.042   1.539   0.328  2.9565  0.8105 -0.4028
 7349SOL     OW22624   8.683   3.177   2.325  0.2820  0.0176 -0.1761
 7349SOL    HW122625   8.592   3.192   2.300  0.8114  1.0542 -1.6052
 7349SOL    HW222626   8.678   3.110   2.393 -1.5196 -0.1591 -0.4271
 7350SOL     OW22627   0.423   3.429   4.158 -0.3324 -0.4490 -0.1384
 7350SOL    HW122628   0.367   3.418   4.081 -1.3530  1.2031  0.3105
 7350SOL    HW222629   0.366   3.408   4.233 -0.3131  1.0195  0.3141
 7351SOL     OW22630   5.045   1.961   4.184  0.4626 -0.1785  0.3023
 7351SOL    HW122631   5.118   1.996   4.134 -0.4966 -0.9053 -1.7340
 7351SOL    HW222632   4.980   2.031   4.184  0.7858  0.1389  1.3354
 7352SOL     OW22633   2.815   6.151   1.637 -0.4109  0.6379 -0.0970
 7352SOL    HW122634   2.826   6.172   1.544  0.5628  0.4797 -0.0259
 7352SOL    HW222635   2.736   6.199   1.662  0.9842  3.1901 -0.2752
 7353SOL     OW22636   7.528   0.418   6.332  0.2446 -0.6129 -0.3454
 7353SOL    HW122637   7.575   0.357   6.275  1.2612 -0.8023  0.6564
 7353SOL    HW222638   7.456   0.366   6.368  1.7528 -1.6287  1.3792
 7354SOL     OW22639   8.355   0.655   0.741 -0.0597  0.9885 -0.1477
 7354SOL    HW122640   8.324   0.686   0.826  0.0837  1.1940 -0.1684
 7354SOL    HW222641   8.450   0.650   0.751 -0.1117  0.1055  0.0020
 7355SOL     OW22642   6.335   0.721   2.773 -0.2875  0.1937  0.0199
 7355SOL    HW122643   6.286   0.672   2.839  1.4375 -0.8271  0.6047
 7355SOL    HW222644   6.355   0.657   2.705  0.9614  0.3509  0.2164
 7356SOL     OW22645   3.734   9.051   8.305  0.0990  0.0872 -0.3020
 7356SOL    HW122646   3.734   8.960   8.272  1.3355  0.2029 -0.6820
 7356SOL    HW222647   3.821   9.085   8.281 -0.1675  1.2182  0.2735
 7357SOL     OW22648   0.503   1.167   9.439 -0.1554  0.0193 -0.0456
 7357SOL    HW122649   0.412   1.181   9.412 -0.1556  0.6706  0.2657
 7357SOL    HW222650   0.551   1.238   9.397  0.2167 -0.3353 -0.2256
 7358SOL     OW22651   6.309   4.771   3.980 -0.0414  0.2693  0.3761
 7358SOL    HW122652   6.222   4.783   4.018 -0.6524 -1.2827 -0.4289
 7358SOL    HW222653   6.295   4.779   3.885  0.5778 -0.4923  0.2069
 7359SOL     OW22654   2.820   0.869   7.882  0.3927 -0.1788 -0.0008
 7359SOL    HW122655   2.914   0.879   7.873  0.4738  0.5069  1.3759
 7359SOL    HW222656   2.788   0.957   7.903 -0.5685 -0.3937 -0.4789
 7360SOL     OW22657   2.223   7.509   4.150 -0.9386  0.2089  0.2726
 7360SOL    HW122658   2.247   7.418   4.132  0.3169  0.4621  0.5679
 7360SOL    HW222659   2.305   7.550   4.178 -2.0082  0.7167  3.0245
 7361SOL     OW22660   8.361   2.046   1.063  0.1773  0.3383 -0.9697
 7361SOL    HW122661   8.391   1.965   1.022 -0.4291  0.6319 -2.0337
 7361SOL    HW222662   8.394   2.042   1.152  2.3773  0.1081 -1.7413
 7362SOL     OW22663   7.881   4.718   6.741  0.0854  0.5302  0.0584
 7362SOL    HW122664   7.943   4.660   6.784 -1.7215 -0.5050  1.4166
 7362SOL    HW222665   7.886   4.694   6.648  0.0397 -1.1772  0.4705
 7363SOL     OW22666   3.165   1.703   5.666 -0.2376 -0.3605 -0.0125
 7363SOL    HW122667   3.239   1.752   5.630 -0.7217 -0.9190 -1.8738
 7363SOL    HW222668   3.149   1.634   5.602 -2.0999 -0.5023  0.5629
 7364SOL     OW22669   4.726   2.956   2.412  0.3422 -0.7069 -0.4171
 7364SOL    HW122670   4.632   2.967   2.424  0.3820  4.1518 -2.2584
 7364SOL    HW222671   4.760   2.942   2.500 -1.8848  0.8409  0.7845
 7365SOL     OW22672   2.630   1.108   0.019 -0.5552 -0.1202 -0.5673
 7365SOL    HW122673   2.685   1.070   0.088  0.9108  2.0346 -0.4372
 7365SOL    HW222674   2.553   1.141   0.064 -0.3053 -0.0629 -0.1814
 7366SOL     OW22675   3.208   9.831   9.666  0.7236 -0.2772 -0.3172
 7366SOL    HW122676   3.126   9.839   9.618 -0.6342 -1.0033  1.7783
 7366SOL    HW222677   3.199   9.891   9.739  0.3858 -3.0418  2.0892
 7367SOL     OW22678   2.956   9.117   3.831 -0.2333 -0.2159 -0.8505
 7367SOL    HW122679   2.914   9.120   3.917  1.9363 -0.3567  0.2684
 7367SOL    HW222680   2.948   9.026   3.804 -1.5481 -0.0285 -1.1538
 7368SOL     OW22681   4.973   6.548   7.061  0.4761  0.1925 -0.8227
 7368SOL    HW122682   4.955   6.583   6.974  0.7241  0.2751 -0.8432
 7368SOL    HW222683   4.887   6.528   7.098  0.3443  0.5937 -0.9073
 7369SOL     OW22684   7.083   1.014   2.311  0.2626  0.6257  0.1530
 7369SOL    HW122685   7.140   1.046   2.241  0.0096 -0.0947 -0.3914
 7369SOL    HW222686   7.011   1.077   2.314 -1.9581 -1.4583 -3.0970
 7370SOL     OW22687   8.388   6.930   3.895  0.5194  0.0428 -0.1428
 7370SOL    HW122688   8.326   6.868   3.934  0.6717 -0.4467 -0.6593
 7370SOL    HW222689   8.426   6.882   3.822 -1.5602  1.7211 -2.5172
 7371SOL     OW22690   3.863   2.785   8.516  0.1597 -0.0768 -0.2969
 7371SOL    HW122691   3.876   2.880   8.513  0.4696 -0.0678  0.8149
 7371SOL    HW222692   3.865   2.757   8.425 -1.1120  1.1285 -0.7053
 7372SOL     OW22693   2.863   9.442   9.012 -0.1582  0.5047  0.1124
 7372SOL    HW122694   2.802   9.380   8.971 -0.2580  1.2583 -0.9116
 7372SOL    HW222695   2.930   9.386   9.052 -0.5285 -0.2837 -0.3426
 7373SOL     OW22696   8.595   8.410   1.041  0.7560 -0.3268 -0.2672
 7373SOL    HW122697   8.563   8.401   1.131 -0.5228  1.7599 -0.4523
 7373SOL    HW222698   8.527   8.368   0.988 -1.0559  2.6054 -0.5254
 7374SOL     OW22699   9.264   4.788   4.818 -0.7435  0.0543  0.1990
 7374SOL    HW122700   9.260   4.805   4.724 -1.7026 -1.0942  0.0024
 7374SOL    HW222701   9.179   4.747   4.838 -0.6768  0.5636  1.6225
 7375SOL     OW22702   3.242   3.794   3.192  0.0002 -0.0068  0.7046
 7375SOL    HW122703   3.160   3.747   3.176 -0.3219  0.6102  0.5248
 7375SOL    HW222704   3.215   3.880   3.224  0.5713  0.3295  0.3055
 7376SOL     OW22705   0.933   9.037   2.142 -0.1042  0.3966 -0.1460
 7376SOL    HW122706   1.006   9.076   2.093  1.2921 -1.3533  0.4415
 7376SOL    HW222707   0.894   9.111   2.189  3.0212  1.0796  1.6862
 7377SOL     OW22708   1.585   7.554   6.556  0.1976  0.2052 -0.0028
 7377SOL    HW122709   1.553   7.464   6.546  0.4971 -0.0988  1.5626
 7377SOL    HW222710   1.508   7.604   6.583  0.4080  0.0518  0.8986
 7378SOL     OW22711   1.038   5.987   1.201  0.2155 -0.7639  0.7097
 7378SOL    HW122712   1.117   5.977   1.254  1.1665  0.7871 -0.3337
 7378SOL    HW222713   0.969   5.946   1.253  1.5139 -1.2714  2.1042
 7379SOL     OW22714   3.943   4.544   9.716  0.1954 -0.1242  0.1362
 7379SOL    HW122715   3.921   4.601   9.642 -1.9396  1.1195  1.6307
 7379SOL    HW222716   4.037   4.529   9.707 -0.1368 -0.9811 -3.4374
 7380SOL     OW22717   7.260   3.574   3.291  0.4418 -0.5836 -0.2045
 7380SOL    HW122718   7.285   3.487   3.321 -1.7322 -0.7856  1.2187
 7380SOL    HW222719   7.172   3.563   3.255  0.9545  0.6580 -1.9883
 7381SOL     OW22720  10.014   4.454   4.902  0.2693  0.3764 -0.0613
 7381SOL    HW122721   9.947   4.464   4.834  1.7564  1.1990 -1.4695
 7381SOL    HW222722   9.969   4.409   4.974 -1.9044  1.3347 -0.7558
 7382SOL     OW22723   4.917   4.483   7.113 -0.2313 -0.3987  0.3392
 7382SOL    HW122724   4.941   4.501   7.022  0.3210  0.1950  0.5911
 7382SOL    HW222725   5.001   4.468   7.157 -0.4618 -0.2487  0.8337
 7383SOL     OW22726   0.309   5.648   8.850 -0.2973 -0.0946 -0.3000
 7383SOL    HW122727   0.270   5.733   8.866 -1.3357 -0.6707  0.2895
 7383SOL    HW222728   0.338   5.617   8.936  0.1297 -0.3173 -0.5164
 7384SOL     OW22729   7.155   1.582   9.015  0.0142  0.1838  0.1840
 7384SOL    HW122730   7.081   1.592   8.956 -1.1329  4.1712  1.9222
 7384SOL    HW222731   7.131   1.510   9.073 -0.3081 -1.5905 -2.0373
 7385SOL     OW22732   4.559   5.172   0.860  0.0340 -0.2964 -0.3390
 7385SOL    HW122733   4.610   5.199   0.936 -0.2382 -1.1252  0.1424
 7385SOL    HW222734   4.535   5.081   0.877 -0.9212 -0.1721 -0.9277
 7386SOL     OW22735   0.386   6.409   0.421  0.1678  0.2462  0.1151
 7386SOL    HW122736   0.387   6.381   0.513  0.4113 -0.9586 -0.2371
 7386SOL    HW222737   0.468   6.376   0.385  1.1401  2.6447 -0.0222
 7387SOL     OW22738   3.136   0.070   4.333 -0.5844 -0.2440 -0.3903
 7387SOL    HW122739   3.184   0.089   4.414 -0.7114  1.6319 -0.7145
 7387SOL    HW222740   3.190   0.005   4.288 -0.0029 -0.5571  0.7196
 7388SOL     OW22741   7.787   7.621   7.661 -0.1599  0.1662  0.7069
 7388SOL    HW122742   7.791   7.663   7.575  0.5776 -0.5111  0.3970
 7388SOL    HW222743   7.864   7.652   7.707 -0.3609  0.2460  0.9927
 7389SOL     OW22744   0.805   5.069   6.038  0.2512 -0.2853 -0.9709
 7389SOL    HW122745   0.778   5.061   5.946 -1.5870 -2.2858 -0.3390
 7389SOL    HW222746   0.723   5.074   6.086  1.1113 -1.4512  0.7059
 7390SOL     OW22747   8.520   7.293   0.691  0.3919 -0.0048  0.6574
 7390SOL    HW122748   8.598   7.338   0.724  0.8208 -1.0847  1.1769
 7390SOL    HW222749   8.521   7.208   0.736  1.9129 -2.3169 -3.2634
 7391SOL     OW22750   4.658   6.422   5.406 -0.0125  0.0214  0.3219
 7391SOL    HW122751   4.567   6.402   5.427 -0.1682  1.0031  0.6298
 7391SOL    HW222752   4.709   6.362   5.460 -0.4650 -1.0748 -0.4135
 7392SOL     OW22753   8.235   0.270   4.899 -0.5513 -0.0705  0.0344
 7392SOL    HW122754   8.306   0.320   4.859  0.5450  0.3141  2.2507
 7392SOL    HW222755   8.155   0.311   4.867  0.2843  1.3426 -0.3271
 7393SOL     OW22756   7.442   3.546   1.073 -0.1838 -0.4606  0.5848
 7393SOL    HW122757   7.463   3.572   1.163 -1.1191  2.1466  0.1467
 7393SOL    HW222758   7.373   3.480   1.083 -0.2075 -0.2842  1.7850
 7394SOL     OW22759   1.630   5.466   9.686 -0.3221  0.0121  0.0348
 7394SOL    HW122760   1.604   5.389   9.738 -0.2619 -0.4706 -0.6385
 7394SOL    HW222761   1.693   5.432   9.623  1.1248  0.9723  0.9226
 7395SOL     OW22762   2.511   6.598   0.891  0.4034 -0.4518  0.1736
 7395SOL    HW122763   2.487   6.515   0.932  1.7663 -1.0314 -0.1590
 7395SOL    HW222764   2.525   6.658   0.965 -0.6055 -0.4985  0.4106
 7396SOL     OW22765   1.125   4.955   8.261  0.5235 -0.4664  0.2830
 7396SOL    HW122766   1.097   4.956   8.353  1.1306  2.4830  0.5023
 7396SOL    HW222767   1.219   4.969   8.264  0.6773 -1.1275 -0.8147
 7397SOL     OW22768   0.338   0.521   9.347  0.9919 -0.6173  0.3798
 7397SOL    HW122769   0.342   0.430   9.374  2.8231 -0.7510 -0.2278
 7397SOL    HW222770   0.373   0.570   9.422  2.0693 -0.6243 -0.1025
 7398SOL     OW22771   9.250   4.322   3.050 -0.2343  0.3166  0.4015
 7398SOL    HW122772   9.310   4.298   3.121  1.4252  0.1173 -0.9774
 7398SOL    HW222773   9.163   4.306   3.085  0.4994  0.6745  2.5324
 7399SOL     OW22774   5.427   1.922   1.930  0.3828  0.1184  0.2857
 7399SOL    HW122775   5.484   1.847   1.950  0.4769  0.3635  0.9667
 7399SOL    HW222776   5.482   1.980   1.878  0.2280 -0.3980 -0.4668
 7400SOL     OW22777   7.299   5.340   5.957 -0.5159 -0.3862  0.3908
 7400SOL    HW122778   7.241   5.303   5.891 -0.9357 -0.9543  1.0530
 7400SOL    HW222779   7.255   5.321   6.040 -0.1594  0.5844  0.8194
 7401SOL     OW22780   9.472   6.759   6.942  0.1241 -0.3361 -0.1388
 7401SOL    HW122781   9.562   6.763   6.909 -0.4894  0.7397 -1.8022
 7401SOL    HW222782   9.432   6.842   6.914 -0.9116  0.0062  2.1028
 7402SOL     OW22783   8.895   4.360   6.584 -0.2407  0.2955  0.5328
 7402SOL    HW122784   8.970   4.414   6.560 -0.7985  1.3108  0.9922
 7402SOL    HW222785   8.822   4.422   6.590 -0.6401 -0.2984  2.3194
 7403SOL     OW22786   8.667   1.321   5.254 -0.8164  0.0232  0.1186
 7403SOL    HW122787   8.599   1.255   5.266 -0.4519 -0.0263  2.4515
 7403SOL    HW222788   8.647   1.363   5.170 -1.6613 -2.3145 -0.9146
 7404SOL     OW22789   5.184   6.673   1.977 -0.5766 -0.0751 -0.1432
 7404SOL    HW122790   5.244   6.627   2.035  0.9170  1.9824  0.0554
 7404SOL    HW222791   5.108   6.692   2.032 -0.2054 -0.2257  0.4345
 7405SOL     OW22792   3.424   8.840   2.340 -0.1005  0.2661  0.5789
 7405SOL    HW122793   3.429   8.746   2.321  0.4712  0.6893 -1.6820
 7405SOL    HW222794   3.376   8.876   2.265  0.0034  1.8239  1.2423
 7406SOL     OW22795   8.717   3.560   5.345 -0.7606  0.0309 -0.0410
 7406SOL    HW122796   8.662   3.604   5.279 -0.0925  0.8353 -0.0872
 7406SOL    HW222797   8.660   3.493   5.382 -1.2288 -0.3059 -1.2871
 7407SOL     OW22798   7.281   6.624   3.398  0.0581 -0.0216  0.3486
 7407SOL    HW122799   7.302   6.696   3.339 -1.1317 -0.7008 -0.9603
 7407SOL    HW222800   7.226   6.565   3.346 -1.5802 -0.3502  2.2888
 7408SOL     OW22801   5.586   2.356   2.608  0.9361 -0.5200 -0.0040
 7408SOL    HW122802   5.671   2.320   2.634  1.2057  0.2974  0.2748
 7408SOL    HW222803   5.607   2.442   2.572  0.1347  0.1220  1.0149
 7409SOL     OW22804   4.242   7.924   5.064 -0.4332  0.5571 -0.3572
 7409SOL    HW122805   4.307   7.863   5.098  0.4761  0.4188 -2.2074
 7409SOL    HW222806   4.254   8.004   5.114  2.2494  1.0553 -1.6345
 7410SOL     OW22807   5.175   0.260   0.002  0.2937 -0.0864  0.4973
 7410SOL    HW122808   5.223   0.182  -0.026  0.8493 -0.0581  1.3385
 7410SOL    HW222809   5.215   0.284   0.085 -0.9549  0.1529  1.0423
 7411SOL     OW22810   5.222   7.338   1.570 -0.0455 -0.0046  0.6676
 7411SOL    HW122811   5.232   7.268   1.634  0.1524 -0.2861  0.3345
 7411SOL    HW222812   5.158   7.305   1.508  0.1251  0.0675  0.4521
 7412SOL     OW22813   6.220   5.092   3.329  0.1570  0.0580 -0.0961
 7412SOL    HW122814   6.176   5.093   3.244 -1.3009  1.0111  0.6176
 7412SOL    HW222815   6.150   5.070   3.391  1.0483  0.0593  0.9172
 7413SOL     OW22816   7.968   5.332   0.406 -0.1416 -0.1869  0.2513
 7413SOL    HW122817   7.988   5.420   0.373 -3.5408  1.1423  1.3419
 7413SOL    HW222818   7.976   5.275   0.329  1.3474  1.1381 -0.6543
 7414SOL     OW22819   7.176   1.939   4.446 -0.4526 -0.6946  0.2799
 7414SOL    HW122820   7.221   1.924   4.363 -2.0243  1.2226 -0.9742
 7414SOL    HW222821   7.099   1.882   4.442 -0.8719 -0.1229  0.1222
 7415SOL     OW22822   4.617   5.460   0.345  0.2948 -0.2660 -0.1907
 7415SOL    HW122823   4.637   5.391   0.407  1.1328  0.8447  0.8262
 7415SOL    HW222824   4.644   5.541   0.389  0.7818  0.5840 -1.9314
 7416SOL     OW22825   5.599   8.233   2.953  0.3477 -0.2656 -0.0950
 7416SOL    HW122826   5.564   8.222   2.864  1.1580 -0.9107 -0.3376
 7416SOL    HW222827   5.531   8.283   2.998 -0.7993 -1.2767 -0.6239
 7417SOL     OW22828   6.798   9.296   2.162  0.2673 -0.1551 -0.1679
 7417SOL    HW122829   6.886   9.269   2.190  0.4685  1.1993  0.6029
 7417SOL    HW222830   6.808   9.321   2.070  0.7153  0.0435 -0.0694
 7418SOL     OW22831   5.126   9.706   6.972 -0.0882  0.2189  0.2352
 7418SOL    HW122832   5.214   9.742   6.981  0.1248 -0.6082  1.9193
 7418SOL    HW222833   5.093   9.701   7.062 -0.8758 -1.8240 -0.1136
 7419SOL     OW22834   8.481   3.676   8.648  0.7903 -0.1169  0.0598
 7419SOL    HW122835   8.554   3.630   8.607 -1.0752 -0.9823 -2.5415
 7419SOL    HW222836   8.422   3.607   8.677  0.6412  0.5838  1.4909
 7420SOL     OW22837   4.477   9.434   2.049  0.3481  0.0148  1.1081
 7420SOL    HW122838   4.424   9.448   2.127  0.4023 -0.2108  1.1850
 7420SOL    HW222839   4.497   9.340   2.049 -0.0311 -0.0750  0.5845
 7421SOL     OW22840   1.994   6.005   8.491 -0.2894  0.0247 -0.7295
 7421SOL    HW122841   1.943   5.924   8.493  1.3759 -1.0798 -1.5818
 7421SOL    HW222842   2.006   6.024   8.398  0.8242  0.2824 -0.5411
 7422SOL     OW22843   7.309   5.333   1.855  0.4666  0.4753  0.0652
 7422SOL    HW122844   7.378   5.294   1.801 -1.1881 -0.5932 -1.3447
 7422SOL    HW222845   7.353   5.353   1.938  2.4610 -0.1805 -0.7716
 7423SOL     OW22846   1.943   1.993   4.166  0.0246  0.0643  0.3699
 7423SOL    HW122847   1.880   2.065   4.167  0.1373  0.2566 -1.8787
 7423SOL    HW222848   2.028   2.036   4.171  0.0566 -0.0513  0.9275
 7424SOL     OW22849   2.771   1.671   7.218  0.2493  0.1410  0.3422
 7424SOL    HW122850   2.708   1.635   7.156  0.7248 -1.8301  0.9469
 7424SOL    HW222851   2.731   1.657   7.304  0.6009  0.7973  0.6265
 7425SOL     OW22852   1.799   0.550   4.952  0.3264 -0.7378  0.0993
 7425SOL    HW122853   1.856   0.570   5.026  0.3396 -1.0572  0.1787
 7425SOL    HW222854   1.770   0.460   4.969  0.2834 -0.7890 -0.2543
 7426SOL     OW22855   3.614   4.644   0.755  0.1474  0.0158  0.1537
 7426SOL    HW122856   3.623   4.551   0.774 -0.0168 -0.0246  0.0389
 7426SOL    HW222857   3.671   4.688   0.818  0.7267 -0.2004 -0.2118
 7427SOL     OW22858   1.462   8.121   7.763 -0.1452  0.2098 -0.1439
 7427SOL    HW122859   1.474   8.102   7.670 -1.1780  0.6706 -0.3970
 7427SOL    HW222860   1.497   8.045   7.808 -1.2551 -0.8477 -0.9883
 7428SOL     OW22861   1.019   0.433   8.926  0.6421  0.0206 -0.7479
 7428SOL    HW122862   0.998   0.381   9.003  2.4686 -0.2272 -0.3632
 7428SOL    HW222863   0.934   0.463   8.892 -0.1643  1.3593  2.1602
 7429SOL     OW22864   7.553   8.501   6.009  0.0862  0.4287  0.2799
 7429SOL    HW122865   7.598   8.579   5.977 -0.6595  0.4415 -0.7911
 7429SOL    HW222866   7.531   8.451   5.931 -1.0888  0.0699  0.8022
 7430SOL     OW22867   7.326   0.418   4.772  0.1917 -0.6109 -0.8017
 7430SOL    HW122868   7.417   0.390   4.781  1.0016  2.1436  0.8858
 7430SOL    HW222869   7.332   0.511   4.749 -2.1578  0.0488  0.8676
 7431SOL     OW22870   8.094   3.828   1.737 -0.2799  0.2109  0.0987
 7431SOL    HW122871   8.069   3.766   1.806 -0.8232 -0.4589 -0.6849
 7431SOL    HW222872   8.182   3.802   1.711 -0.6117 -0.4055 -0.4150
 7432SOL     OW22873   3.096   5.527   7.896 -0.2653 -0.4745  0.5453
 7432SOL    HW122874   3.154   5.455   7.919 -0.7852 -0.4313  2.1676
 7432SOL    HW222875   3.134   5.603   7.940  1.2088  0.6911 -2.4654
 7433SOL     OW22876   6.536   7.367   6.466 -0.1846  0.9697 -0.2649
 7433SOL    HW122877   6.545   7.346   6.373  0.3535 -3.6976  0.5755
 7433SOL    HW222878   6.617   7.334   6.506 -1.8413 -0.5421  2.1773
 7434SOL     OW22879   1.619   7.529   7.551  0.1079 -0.9204  0.0993
 7434SOL    HW122880   1.650   7.608   7.595 -1.0906  0.3610 -1.2577
 7434SOL    HW222881   1.573   7.561   7.473 -2.0550 -2.8408  0.4755
 7435SOL     OW22882   3.309   6.801   0.722  0.0638 -0.1872  0.3075
 7435SOL    HW122883   3.242   6.866   0.702  1.1291  0.9231  0.2422
 7435SOL    HW222884   3.277   6.756   0.800  0.0493  1.5522  1.3554
 7436SOL     OW22885   7.437   6.396   1.333  0.5483  0.5388 -0.1621
 7436SOL    HW122886   7.419   6.327   1.269  0.9027 -0.5037  0.8237
 7436SOL    HW222887   7.354   6.408   1.379  0.6704  0.2696  0.1307
 7437SOL     OW22888   2.902   8.011   2.276 -0.2803  0.3922 -0.5925
 7437SOL    HW122889   2.935   8.098   2.251 -0.7748  0.8965  0.4577
 7437SOL    HW222890   2.821   8.029   2.325 -0.1197 -0.6370  0.0836
 7438SOL     OW22891   2.910   2.952   3.388  0.0732 -0.4502 -0.3239
 7438SOL    HW122892   2.851   2.915   3.453 -0.0213  0.9739  0.4513
 7438SOL    HW222893   2.872   2.925   3.304 -2.0334  0.8244  0.1317
 7439SOL     OW22894   6.896   9.735   9.803  0.4603  0.0217 -0.2466
 7439SOL    HW122895   6.916   9.642   9.791 -0.0187 -0.5882  2.7642
 7439SOL    HW222896   6.947   9.760   9.879  0.8848  2.3912 -1.2413
 7440SOL     OW22897   0.826   0.227   7.211  0.1852  0.2454  0.1294
 7440SOL    HW122898   0.778   0.164   7.158 -2.2311  0.3918  1.9759
 7440SOL    HW222899   0.814   0.197   7.301  0.5668  2.3038  0.9212
 7441SOL     OW22900   3.218   4.289   0.999 -0.2160 -0.1382  0.4875
 7441SOL    HW122901   3.264   4.364   1.037 -0.7253  0.1596  0.5178
 7441SOL    HW222902   3.287   4.225   0.983  0.2551  0.4083  0.2793
 7442SOL     OW22903   7.375   4.182   3.203  0.3649 -0.1219 -0.5673
 7442SOL    HW122904   7.431   4.145   3.134  1.4172  0.8437 -0.2634
 7442SOL    HW222905   7.418   4.265   3.226 -2.2326  1.6460 -1.6640
 7443SOL     OW22906   6.607   8.436   0.861 -0.4016 -0.1635 -0.3518
 7443SOL    HW122907   6.615   8.357   0.807 -1.3239 -0.0251 -0.7043
 7443SOL    HW222908   6.554   8.495   0.809  2.3507  1.7298 -1.2340
 7444SOL     OW22909   8.547   4.588   8.680 -0.1634  0.2450  0.5226
 7444SOL    HW122910   8.517   4.624   8.764 -0.0098 -0.1436  0.7486
 7444SOL    HW222911   8.543   4.662   8.619  0.7962  0.8137  1.1291
 7445SOL     OW22912   2.042   5.749   3.490  0.6424 -0.0783 -0.2536
 7445SOL    HW122913   2.003   5.788   3.569 -0.6817 -0.9453 -0.4536
 7445SOL    HW222914   1.967   5.725   3.436  1.5186 -0.2809 -1.4015
 7446SOL     OW22915   4.124   4.406   5.739  0.0491 -0.0041  0.3144
 7446SOL    HW122916   4.087   4.318   5.739  1.4062 -0.5839  0.7459
 7446SOL    HW222917   4.061   4.458   5.789 -1.1818 -0.5210 -0.6425
 7447SOL     OW22918   6.690   9.433   2.994 -0.0263  0.3060 -0.6259
 7447SOL    HW122919   6.785   9.437   3.005 -0.2071  3.8496  1.0766
 7447SOL    HW222920   6.675   9.458   2.903  0.6866  2.0007 -0.3144
 7448SOL     OW22921   9.633   1.240   3.157  0.5857 -0.1280  0.3688
 7448SOL    HW122922   9.590   1.312   3.111  0.1446 -2.8643 -4.1514
 7448SOL    HW222923   9.715   1.277   3.190  0.0309  2.5951 -1.0467
 7449SOL     OW22924   1.864   8.054   1.082  0.5599  0.5032  0.2740
 7449SOL    HW122925   1.877   8.063   0.987  0.2297 -3.0374 -0.2456
 7449SOL    HW222926   1.770   8.040   1.092  0.9844 -3.9556  0.3472
 7450SOL     OW22927   9.492   9.646   7.972 -0.2183  0.4153 -0.0722
 7450SOL    HW122928   9.399   9.641   7.950 -0.4881 -0.4935  1.1638
 7450SOL    HW222929   9.493   9.659   8.067  0.9217 -1.2978  0.1888
 7451SOL     OW22930   1.291   6.618   8.503 -0.0223  0.1398  0.0126
 7451SOL    HW122931   1.266   6.598   8.593 -0.6517 -0.6664 -0.3303
 7451SOL    HW222932   1.335   6.538   8.473  0.3971  0.4915 -0.3292
 7452SOL     OW22933   0.195   4.433   6.546  0.0469  0.0524 -0.6975
 7452SOL    HW122934   0.136   4.412   6.474 -0.2936 -0.4825 -0.2660
 7452SOL    HW222935   0.140   4.430   6.624  0.5802 -0.1537 -0.3229
 7453SOL     OW22936   6.725   0.006   6.248  0.6547  0.2229 -0.0616
 7453SOL    HW122937   6.693   0.071   6.185 -0.3499  0.8148  1.0296
 7453SOL    HW222938   6.646  -0.022   6.295  1.2800 -0.7840  0.4230
 7454SOL     OW22939   7.777   4.121   7.404  0.1540 -0.2717  0.5704
 7454SOL    HW122940   7.749   4.212   7.392 -0.3900 -0.5895 -0.8806
 7454SOL    HW222941   7.866   4.126   7.438  0.0013  0.7994  0.8217
 7455SOL     OW22942   6.215   2.959   0.921 -0.1802  0.3937 -0.2135
 7455SOL    HW122943   6.199   3.006   1.003 -1.2786  0.7293 -0.5984
 7455SOL    HW222944   6.271   3.018   0.871 -0.2208  0.5742 -0.0483
 7456SOL     OW22945   1.743   7.912   3.612 -0.0748 -0.0531  0.1068
 7456SOL    HW122946   1.696   7.993   3.592 -0.7106  0.1617  2.2123
 7456SOL    HW222947   1.680   7.860   3.662  0.6707 -1.4296 -0.3245
 7457SOL     OW22948   0.745   9.322   9.862 -0.2099  0.1930  0.3404
 7457SOL    HW122949   0.746   9.230   9.835 -1.0164 -0.3573  2.0714
 7457SOL    HW222950   0.837   9.348   9.862  0.1330 -0.9514  0.8838
 7458SOL     OW22951   2.720   9.432   1.083 -0.1629 -0.7984 -0.0080
 7458SOL    HW122952   2.794   9.409   1.026  0.2801  0.1777  0.1483
 7458SOL    HW222953   2.676   9.503   1.037 -0.4748 -0.7787  0.3210
 7459SOL     OW22954   4.868   9.113   7.978 -0.0886 -0.0322 -0.2364
 7459SOL    HW122955   4.847   9.105   8.071 -0.2090  0.8296 -0.1838
 7459SOL    HW222956   4.930   9.042   7.962  1.4190  0.9421  0.9556
 7460SOL     OW22957   5.142   7.073   4.967  0.1879  0.0084  0.5590
 7460SOL    HW122958   5.226   7.070   5.012  0.7718  1.1292 -0.3972
 7460SOL    HW222959   5.109   7.161   4.984  0.2690  0.3431 -0.8670
 7461SOL     OW22960   1.377   6.575   4.704 -0.2464 -0.1863 -0.6641
 7461SOL    HW122961   1.282   6.570   4.691 -0.9948  1.8306  2.6589
 7461SOL    HW222962   1.398   6.499   4.759  0.1737 -0.8301 -1.6908
 7462SOL     OW22963   9.279   2.449   7.154 -0.3190 -0.3305  0.1327
 7462SOL    HW122964   9.339   2.467   7.081 -0.5530 -1.5250 -0.3764
 7462SOL    HW222965   9.324   2.486   7.231 -0.3747  1.5573 -0.6745
 7463SOL     OW22966   8.017   4.115   1.152  0.3298  0.4611 -0.1968
 7463SOL    HW122967   7.990   4.077   1.235  1.2788 -1.2271 -0.6168
 7463SOL    HW222968   8.055   4.199   1.175 -1.4060  1.0098  0.8258
 7464SOL     OW22969   1.220   7.330   9.077 -0.0381  0.4240 -0.0713
 7464SOL    HW122970   1.192   7.420   9.064  2.2679  1.0149 -1.5980
 7464SOL    HW222971   1.150   7.277   9.040 -0.6704  1.6545 -0.7030
 7465SOL     OW22972   4.028   6.741   6.550 -0.1311  0.2487  0.1785
 7465SOL    HW122973   3.968   6.669   6.570  2.0613 -1.3200  1.5834
 7465SOL    HW222974   4.115   6.702   6.557  1.1152  2.5274 -1.3053
 7466SOL     OW22975   2.565   6.545   9.617  0.2604  0.1090  0.3687
 7466SOL    HW122976   2.523   6.486   9.555 -0.9000  0.8647  0.4135
 7466SOL    HW222977   2.659   6.537   9.599  0.0355 -0.8336 -0.4256
 7467SOL     OW22978   0.933   4.402   6.483 -0.1246  0.2776 -0.1704
 7467SOL    HW122979   0.891   4.389   6.398  1.0885 -0.8302 -0.6487
 7467SOL    HW222980   0.865   4.384   6.547 -1.2101  1.6600 -0.8794
 7468SOL     OW22981   8.861   2.333   3.088  0.4402 -0.3827 -0.1572
 7468SOL    HW122982   8.933   2.272   3.072 -1.0442 -2.4255  0.6095
 7468SOL    HW222983   8.783   2.287   3.056 -0.6769  1.3781 -0.1044
 7469SOL     OW22984   3.313   2.962   7.322  0.0389 -0.1161 -0.5405
 7469SOL    HW122985   3.286   2.921   7.240 -0.4298 -1.7737  0.3856
 7469SOL    HW222986   3.304   2.893   7.387  2.5281  0.4811  0.5640
 7470SOL     OW22987   2.638   5.155   9.842 -0.0313 -0.4070 -0.3700
 7470SOL    HW122988   2.722   5.134   9.883 -0.6960  0.5994  1.6465
 7470SOL    HW222989   2.576   5.157   9.914 -1.9846 -1.8596 -1.9206
 7471SOL     OW22990   2.162   4.262   8.419 -0.0927  0.2378 -0.3390
 7471SOL    HW122991   2.117   4.216   8.349 -0.9111 -0.8228  0.8574
 7471SOL    HW222992   2.094   4.314   8.462  0.3742  0.7744 -0.2291
 7472SOL     OW22993   3.922   2.567   9.145 -0.2063  0.0882 -0.3050
 7472SOL    HW122994   3.908   2.483   9.189 -1.5512  0.4998  0.1349
 7472SOL    HW222995   4.001   2.555   9.092  0.0711 -1.1890  0.3681
 7473SOL     OW22996   5.959   0.721   9.098  0.1123 -0.3498 -0.1720
 7473SOL    HW122997   5.900   0.738   9.172  0.3160  0.8688 -0.2735
 7473SOL    HW222998   6.045   0.750   9.128 -0.0375  1.4331 -1.3218
 7474SOL     OW22999   9.385   3.157   6.560  0.4805  0.2946 -0.0431
 7474SOL    HW123000   9.402   3.156   6.466  0.9887 -0.9888  0.0443
 7474SOL    HW223001   9.326   3.082   6.574  1.5817 -0.4390  0.8489
 7475SOL     OW23002   1.802   1.894   6.968  0.1681 -0.4680 -0.0018
 7475SOL    HW123003   1.777   1.921   7.056  0.0001  1.8354 -0.6738
 7475SOL    HW223004   1.897   1.904   6.965  0.1171  0.0083 -0.2197
 7476SOL     OW23005   6.318   7.610   8.607 -0.3773  0.3625  0.5553
 7476SOL    HW123006   6.315   7.619   8.512  1.8584 -0.5293  0.3570
 7476SOL    HW223007   6.265   7.683   8.639  0.6454  2.0267 -1.3404
 7477SOL     OW23008   5.756   7.269   6.889 -0.4346  0.2978 -0.0948
 7477SOL    HW123009   5.794   7.330   6.951  0.7073  0.6783 -1.1417
 7477SOL    HW223010   5.761   7.313   6.805  0.7669 -1.3423 -0.9513
 7478SOL     OW23011   0.707   7.665   8.616  0.4102 -0.0994  0.0485
 7478SOL    HW123012   0.736   7.739   8.669  1.2462 -0.4296  0.0661
 7478SOL    HW223013   0.678   7.704   8.534 -0.4996  0.3759  0.5656
 7479SOL     OW23014   6.180   0.038   8.360  0.2251 -0.2980 -0.2551
 7479SOL    HW123015   6.100   0.078   8.325  0.5432 -0.1800 -0.8710
 7479SOL    HW223016   6.163  -0.056   8.356 -0.7001 -0.2515  1.6130
 7480SOL     OW23017   5.224   7.028   7.929  0.4885 -0.1745  0.6392
 7480SOL    HW123018   5.204   7.035   8.023  0.9118  0.2002  0.7049
 7480SOL    HW223019   5.309   7.071   7.919  0.1088  0.4571 -0.0352
 7481SOL     OW23020   2.752   8.085   3.862  0.0565  0.6797  0.0455
 7481SOL    HW123021   2.778   8.064   3.772  4.7275  1.4498  0.9586
 7481SOL    HW223022   2.694   8.160   3.854  0.3059  0.6802 -2.3254
 7482SOL     OW23023   4.160   9.601   4.728 -0.2592 -0.2569 -0.1194
 7482SOL    HW123024   4.100   9.628   4.798 -1.6389  1.7604 -1.9567
 7482SOL    HW223025   4.107   9.545   4.671  0.1755 -0.0592 -0.7247
 7483SOL     OW23026   5.386   8.626   4.107 -0.7943  0.3489  0.1169
 7483SOL    HW123027   5.371   8.720   4.107 -0.2972  0.4780  2.5043
 7483SOL    HW223028   5.467   8.614   4.156 -1.2080 -1.3731  0.4581
 7484SOL     OW23029   9.067   4.037   9.391 -0.2483 -0.4296  0.0074
 7484SOL    HW123030   9.042   3.946   9.372 -0.3026 -0.4057 -0.0358
 7484SOL    HW223031   9.084   4.075   9.305 -1.9903  0.1174 -0.1380
 7485SOL     OW23032   6.804   3.017   7.778  0.3054 -0.2626  0.2690
 7485SOL    HW123033   6.857   3.062   7.844 -0.0946  0.7141 -0.0594
 7485SOL    HW223034   6.714   3.045   7.796  0.2716  0.7118 -1.1872
 7486SOL     OW23035   6.899   1.870   3.823  0.4675 -0.1790 -0.2870
 7486SOL    HW123036   6.867   1.850   3.911  0.6492  1.6883  0.2481
 7486SOL    HW223037   6.822   1.860   3.767 -0.3257  1.1619  0.5038
 7487SOL     OW23038   9.171   1.590   4.732 -0.3097 -0.4796  0.1907
 7487SOL    HW123039   9.143   1.502   4.757 -0.2681 -0.5343  0.0491
 7487SOL    HW223040   9.095   1.645   4.749 -0.3200 -0.5358  0.3225
 7488SOL     OW23041   6.919   2.709   1.063  0.5107 -0.1975  0.1968
 7488SOL    HW123042   7.001   2.745   1.097 -0.0958  0.2477  1.2252
 7488SOL    HW223043   6.885   2.778   1.006  2.0679 -1.3586 -2.3430
 7489SOL     OW23044   4.590   8.808   2.030 -0.0890  0.0028 -0.6290
 7489SOL    HW123045   4.578   8.798   1.936  0.9892 -0.3985 -0.7268
 7489SOL    HW223046   4.646   8.885   2.039  1.3581 -1.0367 -0.4228
 7490SOL     OW23047   9.366   9.170   5.819 -0.3820 -0.2097  0.4916
 7490SOL    HW123048   9.376   9.143   5.911  2.3175 -1.4891 -0.0870
 7490SOL    HW223049   9.387   9.263   5.820  2.1190 -0.6881  0.9354
 7491SOL     OW23050   9.323   9.450   5.844 -0.6258 -0.4629  0.0688
 7491SOL    HW123051   9.293   9.487   5.761 -1.9626  0.2666  0.8425
 7491SOL    HW223052   9.388   9.512   5.876 -1.3008  0.1237  0.3333
 7492SOL     OW23053   5.476   0.400   8.655 -0.2428 -0.1202  0.2275
 7492SOL    HW123054   5.528   0.351   8.719 -0.4290  1.9568  2.0762
 7492SOL    HW223055   5.398   0.427   8.703 -2.0595 -1.2841 -1.8704
 7493SOL     OW23056   5.207   9.074   9.433 -0.1005 -0.3011  0.2606
 7493SOL    HW123057   5.158   9.017   9.492  1.0693 -1.0100  0.6002
 7493SOL    HW223058   5.270   9.015   9.390  2.0352  0.8721  1.5682
 7494SOL     OW23059   9.094   8.855   0.296 -0.0272 -0.1730 -0.3359
 7494SOL    HW123060   9.125   8.932   0.248 -0.7043 -0.4527 -1.2541
 7494SOL    HW223061   9.162   8.837   0.361 -0.2261  1.6738  0.4411
 7495SOL     OW23062   0.420   5.663   4.379  0.1497  0.0745  0.5444
 7495SOL    HW123063   0.473   5.742   4.367 -0.7575  0.6780  0.4581
 7495SOL    HW223064   0.435   5.638   4.470  0.6228  0.2043  0.5078
 7496SOL     OW23065   0.555   6.540   2.738 -0.2498  0.3146 -0.2988
 7496SOL    HW123066   0.584   6.528   2.829 -0.9647  1.6691  0.1329
 7496SOL    HW223067   0.561   6.635   2.724 -0.2264  0.1256 -1.6446
 7497SOL     OW23068   6.709   3.730   2.667  0.4401 -0.1765  0.2451
 7497SOL    HW123069   6.681   3.693   2.751  0.5420 -2.1458 -0.5490
 7497SOL    HW223070   6.800   3.758   2.682  0.5255 -0.7077  0.7341
 7498SOL     OW23071   8.148   9.630   3.977  0.3572  0.2920 -0.1285
 7498SOL    HW123072   8.202   9.582   4.039 -0.0417 -0.1356 -0.1025
 7498SOL    HW223073   8.173   9.722   3.988 -0.1255  0.2906  1.0782
 7499SOL     OW23074   7.181   2.804   6.425  0.4691 -0.2620 -0.1858
 7499SOL    HW123075   7.270   2.828   6.450  0.4137  0.7442 -0.9231
 7499SOL    HW223076   7.166   2.848   6.341 -0.9315  0.0731  0.2081
 7500SOL     OW23077   6.499   2.524   8.686 -0.2453  0.3542  0.2377
 7500SOL    HW123078   6.571   2.462   8.696 -1.1705 -0.9434 -0.7926
 7500SOL    HW223079   6.510   2.561   8.599 -1.3112 -0.5595 -0.3192
 7501SOL     OW23080   6.012   1.988   7.733  0.3215 -0.4289  0.1949
 7501SOL    HW123081   6.021   2.065   7.789 -0.5627  0.7226 -1.1756
 7501SOL    HW223082   6.102   1.957   7.722  0.6173 -0.0885  1.4022
 7502SOL     OW23083   2.934   3.263   6.630  0.5944  1.1540  0.2542
 7502SOL    HW123084   2.860   3.305   6.674  1.5128 -0.3121  3.4475
 7502SOL    HW223085   3.010   3.314   6.657  1.0869  0.8587 -0.5437
 7503SOL     OW23086   4.764   6.672   8.792  0.2965  0.1282  0.2614
 7503SOL    HW123087   4.759   6.646   8.700 -0.2631 -0.8892  0.5607
 7503SOL    HW223088   4.708   6.609   8.838 -0.4852  1.4102  1.1379
 7504SOL     OW23089   0.819   1.319   6.005  1.1343  0.0630  0.1147
 7504SOL    HW123090   0.897   1.284   6.049  0.4419 -0.6261  0.8337
 7504SOL    HW223091   0.827   1.290   5.915  2.5075  1.3609 -0.2382
 7505SOL     OW23092   0.525   1.348   3.698  0.8794  0.2165  0.3992
 7505SOL    HW123093   0.570   1.429   3.721  0.6303  0.6918 -0.7130
 7505SOL    HW223094   0.464   1.373   3.628 -1.3826 -0.3364  2.0668
 7506SOL     OW23095   6.316   8.276   0.232 -0.1171 -0.3331 -0.0027
 7506SOL    HW123096   6.394   8.243   0.187  0.2087 -0.6551  0.7896
 7506SOL    HW223097   6.340   8.278   0.324 -1.1058 -0.6002  0.2715
 7507SOL     OW23098   9.815   8.090   6.108  0.0154  0.0518 -0.2426
 7507SOL    HW123099   9.741   8.150   6.102  0.5710  0.7144 -0.6712
 7507SOL    HW223100   9.861   8.100   6.025 -1.0365 -2.5518 -1.2173
 7508SOL     OW23101   1.880   2.826   1.508  0.8991  0.2086 -0.1609
 7508SOL    HW123102   1.937   2.809   1.583 -0.4108 -0.3932  0.7387
 7508SOL    HW223103   1.932   2.801   1.432  1.7388 -0.5631  0.6433
 7509SOL     OW23104   6.700   3.839   9.680 -0.6275 -0.3241  0.3864
 7509SOL    HW123105   6.724   3.791   9.759 -2.0947  0.8908  1.6323
 7509SOL    HW223106   6.782   3.879   9.650  0.0783 -1.3711  0.8851
 7510SOL     OW23107   1.914   2.207   3.949  0.2023  0.0793 -0.8420
 7510SOL    HW123108   1.889   2.118   3.922  1.4493 -0.5135 -0.1357
 7510SOL    HW223109   1.833   2.257   3.946 -1.1001 -1.7208  1.2284
 7511SOL     OW23110   0.905   5.864   9.599 -0.1433 -0.1827 -0.5659
 7511SOL    HW123111   0.997   5.846   9.577  0.0729 -0.1835  0.3284
 7511SOL    HW223112   0.856   5.797   9.551  0.3344 -0.2920 -0.9078
 7512SOL     OW23113   7.067   6.425   2.813 -0.3033  0.2779  0.6072
 7512SOL    HW123114   7.000   6.487   2.843  0.6623  2.3353 -1.2109
 7512SOL    HW223115   7.138   6.434   2.877 -0.2101  1.0075  0.4100
 7513SOL     OW23116   4.292   0.725   2.388 -0.5218 -0.4048  0.4645
 7513SOL    HW123117   4.347   0.722   2.310 -0.8117 -1.1072  0.2806
 7513SOL    HW223118   4.276   0.633   2.410 -0.0963 -0.2182  1.6044
 7514SOL     OW23119   8.860   0.218   7.381  0.1142  0.5494 -0.2295
 7514SOL    HW123120   8.871   0.137   7.431  0.0141  1.0506  0.6123
 7514SOL    HW223121   8.819   0.279   7.442 -0.8451  0.8991 -1.1919
 7515SOL     OW23122   2.336   1.825   6.241  0.4575  0.5637  0.0816
 7515SOL    HW123123   2.401   1.756   6.256 -0.1477 -0.0331 -0.0280
 7515SOL    HW223124   2.359   1.860   6.155  0.2837 -0.0438 -0.2200
 7516SOL     OW23125   0.177   7.386   0.183 -0.3048  0.0469 -0.0503
 7516SOL    HW123126   0.110   7.375   0.116  0.7716 -0.9216 -1.0066
 7516SOL    HW223127   0.185   7.481   0.192 -3.6779  0.2896  2.0944
 7517SOL     OW23128   3.034   6.788   4.989  0.3039  0.2107 -0.2495
 7517SOL    HW123129   3.117   6.804   4.945  0.5219  1.1918  0.4772
 7517SOL    HW223130   2.969   6.837   4.938  0.1848 -0.4506 -0.7423
 7518SOL     OW23131   1.493   0.040   5.292 -0.1528  0.7494  0.2958
 7518SOL    HW123132   1.588   0.026   5.294  0.1453  2.5021  0.2060
 7518SOL    HW223133   1.456  -0.044   5.319  1.3620 -0.4886 -1.2008
 7519SOL     OW23134   1.481   6.115   5.768 -0.1223 -0.1685  0.4456
 7519SOL    HW123135   1.427   6.041   5.738 -0.0724  0.2101 -0.6236
 7519SOL    HW223136   1.467   6.183   5.702  0.0285  0.6951  1.2888
 7520SOL     OW23137   5.144   6.147   6.481  0.0236 -0.6099 -0.5318
 7520SOL    HW123138   5.236   6.130   6.461 -0.0071 -0.9061 -0.4322
 7520SOL    HW223139   5.122   6.080   6.546  0.1128  0.3004  0.4614
 7521SOL     OW23140   1.554   2.711   4.114  0.6972 -0.6023 -0.0251
 7521SOL    HW123141   1.517   2.720   4.202  1.0177  2.7083 -0.1069
 7521SOL    HW223142   1.479   2.714   4.056  0.6782  2.6155 -0.0145
 7522SOL     OW23143   0.559   3.621   2.867  0.2568  0.2656 -0.1705
 7522SOL    HW123144   0.634   3.673   2.838 -0.7283  1.6561 -0.3487
 7522SOL    HW223145   0.483   3.675   2.846 -0.7437 -0.6029  1.0310
 7523SOL     OW23146   2.839   8.153   3.445  0.3951 -0.7166 -0.5018
 7523SOL    HW123147   2.841   8.170   3.539  1.1548  1.4935 -0.8445
 7523SOL    HW223148   2.931   8.137   3.422  0.2794 -0.7835 -0.9286
 7524SOL     OW23149   9.868   8.016   5.167  0.5227 -0.1373  0.4021
 7524SOL    HW123150   9.791   7.990   5.117 -0.7583 -0.4250  2.4025
 7524SOL    HW223151   9.941   8.010   5.105 -1.0407  0.1118 -1.5426
 7525SOL     OW23152   9.048   0.807   7.274  0.4961 -0.0046 -0.1178
 7525SOL    HW123153   8.980   0.865   7.308 -0.2776  0.0282 -1.6424
 7525SOL    HW223154   9.020   0.788   7.185  2.0000 -0.7818 -0.4428
 7526SOL     OW23155   3.869   4.384   8.153 -0.3542  0.4969 -0.3091
 7526SOL    HW123156   3.895   4.345   8.237 -0.0534  0.4717 -0.4156
 7526SOL    HW223157   3.821   4.315   8.108  0.7841  0.0137 -0.7982
 7527SOL     OW23158   0.992   0.353   6.462 -0.9375  0.0390 -0.0575
 7527SOL    HW123159   0.956   0.376   6.548 -0.8104 -0.8860  0.2547
 7527SOL    HW223160   0.925   0.296   6.423 -1.1402  0.7096 -0.7165
 7528SOL     OW23161   8.095   9.200   2.903  0.2863  0.4992 -0.2430
 7528SOL    HW123162   8.055   9.130   2.955  0.9509  1.2143  1.2881
 7528SOL    HW223163   8.021   9.245   2.863 -0.1828 -0.6868 -0.7684
 7529SOL     OW23164   1.664   3.491   6.607 -0.0483 -0.3468  0.7561
 7529SOL    HW123165   1.593   3.428   6.601 -0.8283  0.4540  1.2873
 7529SOL    HW223166   1.660   3.523   6.697  1.9458 -1.3676  1.2556
 7530SOL     OW23167   2.381   8.884   1.975  0.1441  0.0546 -0.2938
 7530SOL    HW123168   2.414   8.957   1.922  1.2711 -0.8200 -0.8519
 7530SOL    HW223169   2.309   8.921   2.026 -0.0087  1.2806 -1.3630
 7531SOL     OW23170   8.318   7.883  -0.002 -0.2788 -0.1298  0.1732
 7531SOL    HW123171   8.313   7.792  -0.034  1.7969  0.0415 -0.8383
 7531SOL    HW223172   8.335   7.874   0.091  1.2112 -0.8583 -0.1305
 7532SOL     OW23173   8.994   8.428   8.865 -0.2081  0.3489  0.0724
 7532SOL    HW123174   8.990   8.476   8.948 -0.7825  1.3338 -0.5204
 7532SOL    HW223175   8.982   8.494   8.798  0.9707 -0.3341 -0.8468
 7533SOL     OW23176   3.922   8.265   9.564  0.2371  0.0476  0.2321
 7533SOL    HW123177   3.885   8.350   9.584 -1.3377 -0.5641  0.0326
 7533SOL    HW223178   3.948   8.272   9.471  0.7833  0.5145  0.4094
 7534SOL     OW23179   4.740   8.112   6.364  0.1604 -0.4241  0.0193
 7534SOL    HW123180   4.735   8.078   6.453  1.4139  1.2072  0.7473
 7534SOL    HW223181   4.649   8.109   6.333 -0.5298  0.2403  1.8351
 7535SOL     OW23182   1.365   3.509   7.438  0.7035 -0.4366  0.1624
 7535SOL    HW123183   1.394   3.439   7.380 -2.1567 -1.7140  0.1176
 7535SOL    HW223184   1.302   3.560   7.386 -1.1449 -0.9953  1.7362
 7536SOL     OW23185   0.339   2.178   6.247 -0.3796 -0.3538  0.1188
 7536SOL    HW123186   0.351   2.239   6.174 -0.0363  0.1308  0.5694
 7536SOL    HW223187   0.417   2.123   6.245 -0.1415 -0.0311  0.4044
 7537SOL     OW23188   6.024   8.796   9.972 -0.0216  0.1821 -0.1741
 7537SOL    HW123189   6.038   8.714   9.925 -1.0272  1.0291 -2.0304
 7537SOL    HW223190   6.064   8.863   9.916  0.0353  1.0741  0.8925
 7538SOL     OW23191   0.357   0.134   6.851 -0.0099 -0.2125  0.1816
 7538SOL    HW123192   0.321   0.183   6.777  0.6430 -0.7889 -0.5379
 7538SOL    HW223193   0.416   0.197   6.895  0.4947 -0.2121 -0.4810
 7539SOL     OW23194   8.449   9.544   0.439  0.0067 -0.1645 -0.4814
 7539SOL    HW123195   8.486   9.463   0.405  1.2241  0.2972 -0.3207
 7539SOL    HW223196   8.384   9.571   0.373  0.3737 -0.6964 -1.0651
 7540SOL     OW23197   9.501   3.291   9.756 -0.0701 -0.0489  0.3470
 7540SOL    HW123198   9.585   3.259   9.723 -1.7606 -2.4304 -2.0581
 7540SOL    HW223199   9.471   3.351   9.687 -0.9220 -0.2681  0.5216
 7541SOL     OW23200   1.648   0.920   7.175 -0.3455  0.0217 -0.3106
 7541SOL    HW123201   1.629   0.959   7.260 -0.4195  0.6436 -0.6079
 7541SOL    HW223202   1.709   0.981   7.134  0.1997 -0.6023 -0.4474
 7542SOL     OW23203   7.529   7.642   3.698  0.4765  0.0032 -0.0871
 7542SOL    HW123204   7.546   7.600   3.614  0.4235 -0.5924  0.1926
 7542SOL    HW223205   7.615   7.664   3.732  0.4444  1.5639 -0.9418
 7543SOL     OW23206   3.251   9.267   1.654  0.0807 -0.2916  0.4683
 7543SOL    HW123207   3.180   9.289   1.713  0.1655  0.5014  0.2897
 7543SOL    HW223208   3.307   9.345   1.654  1.2476 -1.0946  1.0322
 7544SOL     OW23209   0.425   3.538   2.061 -0.4533 -0.3684 -0.6670
 7544SOL    HW123210   0.464   3.581   2.137  0.8132 -2.6757  0.0819
 7544SOL    HW223211   0.375   3.607   2.018  0.5070  1.5299  1.0713
 7545SOL     OW23212   5.660   0.784   3.918  0.2175 -0.0342  0.0441
 7545SOL    HW123213   5.691   0.751   4.002  0.9698  0.0623 -0.1940
 7545SOL    HW223214   5.633   0.874   3.936 -0.8951 -0.4250  0.4698
 7546SOL     OW23215   1.074   6.754   4.903 -0.5737 -0.0339 -0.5846
 7546SOL    HW123216   1.159   6.741   4.860 -0.6564  0.7779 -1.0228
 7546SOL    HW223217   1.013   6.702   4.851  0.0461 -2.8986  1.3473
 7547SOL     OW23218   6.092   0.557   1.213 -0.1661  0.0458  0.7972
 7547SOL    HW123219   6.086   0.627   1.278 -1.7766  0.4466  0.2872
 7547SOL    HW223220   6.000   0.538   1.191  0.3110 -0.4673 -0.9220
 7548SOL     OW23221   0.563   6.701   8.944 -0.2912 -0.1996 -0.7097
 7548SOL    HW123222   0.519   6.779   8.977 -5.5153 -3.1510  0.4597
 7548SOL    HW223223   0.600   6.659   9.022 -3.2249 -1.8347 -0.0208
 7549SOL     OW23224   0.522   0.811   4.701 -0.1787 -0.0424 -0.0288
 7549SOL    HW123225   0.463   0.870   4.748 -0.1262 -0.7878  0.9894
 7549SOL    HW223226   0.559   0.755   4.768 -1.7481 -2.5777 -1.1356
 7550SOL     OW23227   0.351   9.849   6.808  0.0906 -0.3647  0.3844
 7550SOL    HW123228   0.329   9.941   6.819 -0.2177 -0.1239 -1.8793
 7550SOL    HW223229   0.338   9.832   6.715  0.7799 -2.5354  0.6364
 7551SOL     OW23230   3.116   2.587   8.763  0.3562 -0.2568  0.7573
 7551SOL    HW123231   3.040   2.645   8.768 -0.3061 -0.8030 -1.7150
 7551SOL    HW223232   3.179   2.625   8.824 -1.2891  1.1172  1.6884
 7552SOL     OW23233   9.624   5.743   1.633 -0.0902  0.5911  0.0218
 7552SOL    HW123234   9.609   5.729   1.540 -2.2685  2.9977 -0.1011
 7552SOL    HW223235   9.573   5.673   1.676  0.3541 -0.0970 -0.5442
 7553SOL     OW23236   9.855   7.695   7.801  0.1316 -0.3507  0.4838
 7553SOL    HW123237   9.937   7.709   7.754  0.5815 -1.7429  0.7980
 7553SOL    HW223238   9.839   7.601   7.794 -1.7863 -0.0219 -0.1179
 7554SOL     OW23239   8.156   1.790   7.682  0.2649  0.0519 -0.6500
 7554SOL    HW123240   8.178   1.774   7.774 -0.3392 -0.4712 -0.5896
 7554SOL    HW223241   8.083   1.730   7.664  1.4715 -1.1051 -1.9384
 7555SOL     OW23242   3.253   3.161   5.071 -0.3097 -0.2935  0.3990
 7555SOL    HW123243   3.165   3.162   5.110 -1.0174  0.5362 -1.1099
 7555SOL    HW223244   3.269   3.069   5.052 -1.5623 -0.3221 -0.7174
 7556SOL     OW23245   7.771   8.516   1.993  0.0401  0.2037  0.5147
 7556SOL    HW123246   7.848   8.552   2.036  0.8398 -1.0581  0.2163
 7556SOL    HW223247   7.795   8.513   1.900 -1.2293  1.8369  0.0867
 7557SOL     OW23248   1.952   2.455   7.389 -0.0191 -0.4624  0.4913
 7557SOL    HW123249   1.963   2.536   7.437  1.2234 -0.4609  0.2373
 7557SOL    HW223250   2.036   2.410   7.398 -0.0078 -0.8004 -1.0371
 7558SOL     OW23251   5.429   4.716   4.898 -0.0684 -0.0297 -0.0407
 7558SOL    HW123252   5.391   4.717   4.810  0.6686  0.0367 -0.3629
 7558SOL    HW223253   5.353   4.720   4.956 -0.5923 -0.5871 -0.6613
 7559SOL     OW23254   4.910   8.066   9.794  0.2487 -0.3127  0.3457
 7559SOL    HW123255   4.943   7.992   9.743 -0.7997  0.4649 -1.5274
 7559SOL    HW223256   4.832   8.031   9.839  1.2307 -1.0241  1.5557
 7560SOL     OW23257   3.322   2.003   8.498 -0.0170  0.0333  0.3515
 7560SOL    HW123258   3.362   1.944   8.434 -0.6483  0.2402 -0.2466
 7560SOL    HW223259   3.367   2.087   8.485  0.2492 -0.0742  0.5741
 7561SOL     OW23260   8.535   3.241   1.606 -0.2364  0.1931 -0.8490
 7561SOL    HW123261   8.572   3.174   1.548  1.1136 -0.4601  0.6856
 7561SOL    HW223262   8.472   3.194   1.660  0.0555  0.3468 -0.3715
 7562SOL     OW23263   7.785   8.032   7.587  0.1343  0.0447  0.1862
 7562SOL    HW123264   7.782   8.127   7.596  0.5357 -0.0764  2.0131
 7562SOL    HW223265   7.705   8.009   7.540  0.2554  1.3029 -0.6763
 7563SOL     OW23266   9.577   7.308   5.995 -0.1282  0.0775  0.1324
 7563SOL    HW123267   9.561   7.391   6.039  0.3303  0.1253  0.2062
 7563SOL    HW223268   9.501   7.296   5.938 -0.9763 -0.2072  1.2698
 7564SOL     OW23269   4.708   4.388   3.368  0.0840 -0.2087 -0.0268
 7564SOL    HW123270   4.768   4.352   3.303  1.2998  0.5017  0.6619
 7564SOL    HW223271   4.672   4.312   3.413 -1.4901 -0.7714 -2.0878
 7565SOL     OW23272   1.021   0.368   4.778  0.1831  0.1947 -0.2074
 7565SOL    HW123273   1.114   0.348   4.786 -0.1794 -1.5064  0.3416
 7565SOL    HW223274   0.984   0.338   4.862 -0.8495  0.8760 -0.4072
 7566SOL     OW23275   6.472   9.311   3.981  0.0104  0.2058 -0.0969
 7566SOL    HW123276   6.531   9.288   3.909 -0.0912 -1.3008  0.2653
 7566SOL    HW223277   6.416   9.235   3.991 -1.5835  1.3475  0.0115
 7567SOL     OW23278   0.377   9.315   4.980  0.3113  0.5839  0.4902
 7567SOL    HW123279   0.413   9.344   5.064 -1.1820  1.3663  0.8986
 7567SOL    HW223280   0.366   9.396   4.930 -0.2439  0.2798  0.1202
 7568SOL     OW23281   2.363   3.506   6.968  0.1010 -0.5659  0.2448
 7568SOL    HW123282   2.353   3.527   7.060 -2.8264  0.1453 -0.1504
 7568SOL    HW223283   2.426   3.571   6.935  0.1003  0.0601  1.4453
 7569SOL     OW23284   4.470   1.796   4.083  0.2054  0.8193  0.0074
 7569SOL    HW123285   4.540   1.737   4.110 -1.6749 -0.7322  1.7962
 7569SOL    HW223286   4.502   1.883   4.109  1.7399  0.2467  0.1564
 7570SOL     OW23287   1.341   6.212   4.900  0.0818 -1.0297 -0.1274
 7570SOL    HW123288   1.414   6.273   4.894  0.0764 -0.9428  0.5851
 7570SOL    HW223289   1.314   6.216   4.992 -1.3603 -0.4316 -0.5440
 7571SOL     OW23290   0.575   3.623   1.714 -0.1095 -0.4561 -0.0082
 7571SOL    HW123291   0.565   3.552   1.650 -0.9714 -1.3515  1.0702
 7571SOL    HW223292   0.626   3.584   1.785  0.3495  0.3524  0.1203
 7572SOL     OW23293   0.802   9.310   0.759  0.3019 -0.0013  0.3515
 7572SOL    HW123294   0.838   9.242   0.702 -0.5571  0.8555 -1.2719
 7572SOL    HW223295   0.879   9.355   0.794  0.8922 -1.7756  1.4908
 7573SOL     OW23296   3.071   0.816   2.328 -0.1923 -0.0762 -0.2496
 7573SOL    HW123297   3.159   0.810   2.291  0.6063  0.6485  1.4042
 7573SOL    HW223298   3.018   0.856   2.259  0.9595  0.2264 -0.9903
 7574SOL     OW23299   3.581   4.355   2.249  0.4799 -0.0745  0.2662
 7574SOL    HW123300   3.609   4.308   2.171  0.1920 -0.6674  0.5123
 7574SOL    HW223301   3.540   4.435   2.216 -2.6424 -1.7838 -0.4450
 7575SOL     OW23302   6.152   4.998   2.446 -0.6588  0.0239  0.7890
 7575SOL    HW123303   6.114   4.921   2.404  2.9950 -1.1194 -0.8398
 7575SOL    HW223304   6.112   5.072   2.400 -0.8706 -1.0813 -0.8845
 7576SOL     OW23305   8.797   7.375   1.612 -0.4345 -0.1480  0.2682
 7576SOL    HW123306   8.708   7.404   1.634  0.0871  0.7809  1.2467
 7576SOL    HW223307   8.790   7.279   1.606 -1.0303 -0.3292  2.8046
 7577SOL     OW23308   9.746   0.057   5.740 -0.0481  0.0775 -0.7007
 7577SOL    HW123309   9.700  -0.002   5.680 -0.2729  0.2023 -0.6537
 7577SOL    HW223310   9.763   0.136   5.688  2.9929 -1.1150 -1.7536
 7578SOL     OW23311   7.277   9.119   3.291  0.0504  0.5429 -0.4626
 7578SOL    HW123312   7.228   9.043   3.260  0.3496 -0.0958  0.5858
 7578SOL    HW223313   7.234   9.143   3.374  0.5272  0.9487 -0.3306
 7579SOL     OW23314   5.933   5.327   8.222 -0.6525 -0.0945 -0.1386
 7579SOL    HW123315   5.931   5.251   8.163  0.3485  0.3967 -0.8413
 7579SOL    HW223316   6.022   5.329   8.255 -0.3524  1.3709 -0.9563
 7580SOL     OW23317   6.390   2.805   3.472 -0.2499  0.7174 -0.5084
 7580SOL    HW123318   6.440   2.794   3.553 -0.1585 -2.2497 -0.8288
 7580SOL    HW223319   6.300   2.821   3.501  0.0326  1.1202  0.1573
 7581SOL     OW23320   5.485   7.884   6.422  0.8078  0.0298 -0.5785
 7581SOL    HW123321   5.445   7.967   6.447 -1.1576 -0.1853 -2.7505
 7581SOL    HW223322   5.564   7.909   6.375  0.5196  0.6492 -0.7435
 7582SOL     OW23323   8.716   4.046   8.596  0.3198  0.0213 -0.3978
 7582SOL    HW123324   8.716   4.046   8.500  1.1494 -1.8544 -0.4397
 7582SOL    HW223325   8.644   3.988   8.620  2.4501 -2.6424 -0.0227
 7583SOL     OW23326   8.186   7.148   8.369 -0.3369 -0.4813  0.3022
 7583SOL    HW123327   8.153   7.227   8.326  0.3982 -1.2002 -1.6446
 7583SOL    HW223328   8.107   7.107   8.405 -0.9134  0.3842  0.0792
 7584SOL     OW23329   2.517   8.075   8.337 -0.3572 -0.8229  0.1524
 7584SOL    HW123330   2.453   8.066   8.268  0.3215 -0.1296 -0.5949
 7584SOL    HW223331   2.572   8.149   8.310  0.6962 -1.3305  0.8057
 7585SOL     OW23332   1.844   3.309   0.959 -0.0243  0.1682  0.1910
 7585SOL    HW123333   1.937   3.289   0.963 -0.0092  0.4374  1.5824
 7585SOL    HW223334   1.802   3.223   0.955  0.2351 -0.0360  1.3337
 7586SOL     OW23335   1.221   7.595   1.156 -0.2174 -0.5061  0.1609
 7586SOL    HW123336   1.146   7.621   1.208  0.6643  0.0388  1.1933
 7586SOL    HW223337   1.202   7.506   1.128 -1.4404 -0.2136  0.0250
 7587SOL     OW23338   6.503   2.724   7.852 -0.0962 -0.6815 -0.0232
 7587SOL    HW123339   6.593   2.690   7.859  0.0715 -0.1572  0.4500
 7587SOL    HW223340   6.487   2.728   7.758  0.7163  0.0794 -0.1466
 7588SOL     OW23341   8.171   1.936   5.523 -0.5324 -0.0581 -0.4768
 7588SOL    HW123342   8.237   1.906   5.461 -0.4207  1.7187 -1.2630
 7588SOL    HW223343   8.181   1.878   5.598  2.2108  0.3975 -0.3977
 7589SOL     OW23344   5.756   2.000   5.667  0.3333 -0.0507  0.2692
 7589SOL    HW123345   5.791   1.946   5.596 -1.4160  2.2262 -2.5332
 7589SOL    HW223346   5.720   1.937   5.729  1.1734 -2.1724 -1.2702
 7590SOL     OW23347   1.254   5.508   7.673 -0.7959  0.0395 -0.6460
 7590SOL    HW123348   1.290   5.474   7.591 -1.7424 -0.4756 -0.8772
 7590SOL    HW223349   1.196   5.580   7.647 -0.7429  0.1776 -0.3906
 7591SOL     OW23350   0.864   2.629   9.781  0.5406  0.7325  0.2650
 7591SOL    HW123351   0.896   2.706   9.732  1.3293 -0.1115 -0.5857
 7591SOL    HW223352   0.856   2.660   9.871 -0.2062  2.1214 -0.2441
 7592SOL     OW23353   7.546   6.541   8.273  0.1208 -0.2246  0.3861
 7592SOL    HW123354   7.467   6.559   8.222  2.1530  1.9421 -2.3195
 7592SOL    HW223355   7.586   6.466   8.229  2.2095  2.0391 -1.9623
 7593SOL     OW23356   3.771   4.901   0.267  0.1467 -0.8486 -0.7721
 7593SOL    HW123357   3.763   4.806   0.277  3.4575 -1.2353 -0.8526
 7593SOL    HW223358   3.695   4.936   0.314 -0.2439 -3.4787  0.7824
 7594SOL     OW23359   0.697   6.180   8.197  0.7198 -0.0337 -0.4007
 7594SOL    HW123360   0.663   6.090   8.195  2.0625 -0.5644 -2.3378
 7594SOL    HW223361   0.700   6.206   8.105 -3.1256  3.4838  0.1666
 7595SOL     OW23362   1.166   8.256   6.859 -0.3433  0.1175 -0.3838
 7595SOL    HW123363   1.071   8.248   6.851 -0.5517  0.3447  1.3508
 7595SOL    HW223364   1.188   8.208   6.939  0.7576  1.5001  0.1941
 7596SOL     OW23365   3.707   2.547   6.664 -0.7441 -0.3271  0.5757
 7596SOL    HW123366   3.781   2.494   6.694  0.5600  0.7628 -0.5526
 7596SOL    HW223367   3.679   2.506   6.583  0.1946  0.5903 -0.2399
 7597SOL     OW23368   2.338   6.078   5.470 -0.2084  0.8241  0.7561
 7597SOL    HW123369   2.268   6.014   5.458 -0.9248  1.4238  1.6489
 7597SOL    HW223370   2.304   6.158   5.432  0.0929  1.0599  0.9773
 7598SOL     OW23371   8.150   6.015   6.815 -0.2562  0.3544  0.3801
 7598SOL    HW123372   8.112   6.067   6.744 -0.7278 -0.4911 -0.0045
 7598SOL    HW223373   8.122   5.926   6.797  1.0049 -0.1297  0.7165
 7599SOL     OW23374   3.622   7.807   7.380  0.2678 -0.1945 -0.3481
 7599SOL    HW123375   3.651   7.892   7.348  1.6190 -0.6295 -0.3314
 7599SOL    HW223376   3.554   7.828   7.445 -2.3192  0.7192 -3.1220
 7600SOL     OW23377   6.058   8.505   4.506  0.1072  0.4725 -0.2224
 7600SOL    HW123378   5.973   8.533   4.473  0.2563  0.9537 -0.1998
 7600SOL    HW223379   6.074   8.560   4.583 -1.3627 -2.2658  2.2322
 7601SOL     OW23380   9.168   5.274   0.148 -0.5539 -0.3420  0.2416
 7601SOL    HW123381   9.217   5.348   0.112  0.3720  1.4738  4.5545
 7601SOL    HW223382   9.076   5.300   0.138 -0.2493  1.5135  1.6144
 7602SOL     OW23383   5.243   8.904   1.966  0.1897  0.3183  1.0012
 7602SOL    HW123384   5.308   8.852   1.918  0.2878 -0.0084  1.4871
 7602SOL    HW223385   5.291   8.981   1.996 -0.0411  0.8814 -0.0283
 7603SOL     OW23386   6.820   5.129   2.467 -0.2629 -0.0630  0.5997
 7603SOL    HW123387   6.793   5.220   2.461 -0.9892 -0.2638  0.7592
 7603SOL    HW223388   6.804   5.104   2.558 -2.3664 -1.0292  0.0237
 7604SOL     OW23389   0.629   0.437   0.397  0.3907  0.6329 -0.2594
 7604SOL    HW123390   0.647   0.520   0.351  3.4759 -0.9053 -2.1624
 7604SOL    HW223391   0.692   0.375   0.360 -0.9316 -2.2932  1.9962
 7605SOL     OW23392   2.873   7.544   9.328  0.5528 -0.3711 -0.1874
 7605SOL    HW123393   2.968   7.554   9.321  0.5780  0.3675  1.0057
 7605SOL    HW223394   2.849   7.592   9.407 -0.8747 -0.2006 -0.6888
 7606SOL     OW23395   5.539   3.163   9.278 -0.9415  0.0593  0.3004
 7606SOL    HW123396   5.522   3.257   9.278  0.6004  0.3674  0.9432
 7606SOL    HW223397   5.518   3.135   9.367  2.5158  0.6450  1.4593
 7607SOL     OW23398   9.908   6.279   1.682 -0.1664  0.0339  0.3047
 7607SOL    HW123399   9.936   6.328   1.759 -0.0862  0.6098 -0.0878
 7607SOL    HW223400   9.916   6.187   1.708  1.6570  0.1824  0.3675
 7608SOL     OW23401   3.138   5.677   4.439  0.8610  0.0109 -0.6294
 7608SOL    HW123402   3.046   5.699   4.424  0.7951  0.1833  0.0091
 7608SOL    HW223403   3.175   5.754   4.481  0.8027 -0.7575  0.9401
 7609SOL     OW23404   7.614   3.023   1.968 -0.0645  0.0657 -0.3622
 7609SOL    HW123405   7.602   3.117   1.956 -0.2873  0.1046  0.1528
 7609SOL    HW223406   7.709   3.010   1.963  0.1362  0.5865  1.3917
 7610SOL     OW23407   7.421   7.472   2.785  0.1581 -0.2695 -0.7925
 7610SOL    HW123408   7.406   7.565   2.806  1.9758 -0.0776 -0.1456
 7610SOL    HW223409   7.334   7.433   2.786 -0.6284  1.3922 -0.8784
 7611SOL     OW23410   6.207   3.182   4.030 -0.5080 -0.0554 -0.2141
 7611SOL    HW123411   6.258   3.172   3.949  2.3574  0.1269  1.4599
 7611SOL    HW223412   6.179   3.273   4.029  3.8424  1.5351  1.1965
 7612SOL     OW23413   7.078   0.070   7.119 -0.0282  0.4283 -0.8301
 7612SOL    HW123414   7.079   0.135   7.049  0.3880 -1.8470 -3.1007
 7612SOL    HW223415   7.166   0.034   7.120 -0.3564 -0.3947  0.0742
 7613SOL     OW23416   1.089   7.747   7.072  0.1084  0.6468  0.5960
 7613SOL    HW123417   1.064   7.822   7.126 -0.6646 -0.1635  1.4014
 7613SOL    HW223418   1.009   7.696   7.063  0.6883 -0.2487  0.3359
 7614SOL     OW23419   0.138   7.859   9.427 -0.3805  0.1286  0.3125
 7614SOL    HW123420   0.230   7.882   9.442  0.1948 -2.7910  1.9032
 7614SOL    HW223421   0.141   7.792   9.359 -1.3766  0.1437  0.2391
 7615SOL     OW23422   2.708   5.243   5.765 -0.1895  0.2196  0.1649
 7615SOL    HW123423   2.757   5.212   5.688 -1.9376 -1.1923 -0.4462
 7615SOL    HW223424   2.678   5.162   5.807  0.2486  0.9905  2.0462
 7616SOL     OW23425   9.232   6.718   1.335  0.8811  1.0186  0.4602
 7616SOL    HW123426   9.285   6.648   1.297  2.7875  1.4384  2.1927
 7616SOL    HW223427   9.152   6.674   1.365  0.2167  0.3529 -2.0615
 7617SOL     OW23428   9.029   5.201   1.961  0.1148  0.2337 -0.0969
 7617SOL    HW123429   9.120   5.221   1.984  0.5493 -0.6195 -1.0268
 7617SOL    HW223430   8.981   5.282   1.980  1.1071  0.7691  0.1674
 7618SOL     OW23431   3.836   7.684   9.828  0.1298  0.1128  1.0348
 7618SOL    HW123432   3.849   7.610   9.887 -0.5994 -0.2355  0.7748
 7618SOL    HW223433   3.763   7.732   9.866  0.8136  0.8942  1.3833
 7619SOL     OW23434   5.492   7.678   9.246  0.3093  0.3045  0.1833
 7619SOL    HW123435   5.564   7.717   9.296 -0.0541  0.2610  0.7554
 7619SOL    HW223436   5.442   7.754   9.215 -0.9262  0.3529  2.0746
 7620SOL     OW23437   9.674   8.468   6.936 -0.3325  0.3208  0.2598
 7620SOL    HW123438   9.725   8.548   6.947  0.1822 -0.0265  0.4459
 7620SOL    HW223439   9.585   8.498   6.918 -0.2713  0.9271  0.9514
 7621SOL     OW23440   0.236   1.989   5.223  0.2695 -0.4585 -0.5516
 7621SOL    HW123441   0.238   1.897   5.250  1.2274 -0.8008 -1.7064
 7621SOL    HW223442   0.224   1.986   5.128 -0.0421  0.6266 -0.5619
 7622SOL     OW23443   5.386   7.062   7.216 -0.1989  0.2087  0.0967
 7622SOL    HW123444   5.316   7.040   7.154 -0.7458  1.1639  0.3430
 7622SOL    HW223445   5.446   7.117   7.166 -0.4702  0.7117  0.3194
 7623SOL     OW23446   1.958   8.085   3.542 -0.3285  0.2697 -0.1471
 7623SOL    HW123447   1.898   8.039   3.600 -2.2614  0.4657 -1.8844
 7623SOL    HW223448   1.927   8.065   3.454  3.5034 -1.4122 -1.3209
 7624SOL     OW23449   6.087   1.788   8.457  0.0950  0.0983 -0.6199
 7624SOL    HW123450   6.021   1.807   8.524  0.9344 -0.8863  0.5438
 7624SOL    HW223451   6.135   1.870   8.446 -0.0042  0.2549  0.0632
 7625SOL     OW23452   6.963   0.647   7.823  0.0189  0.5719 -0.0711
 7625SOL    HW123453   6.908   0.693   7.759 -0.5562  1.1924  0.8534
 7625SOL    HW223454   6.904   0.627   7.896  0.7813  0.3033  0.4845
 7626SOL     OW23455   0.806   2.406   3.386 -0.4883 -0.6770 -0.9409
 7626SOL    HW123456   0.869   2.338   3.410  0.5179  0.7572  0.6663
 7626SOL    HW223457   0.739   2.401   3.454 -0.0020  0.4206 -0.3588
 7627SOL     OW23458   4.340   6.833   2.985 -0.1870 -0.5975  0.2399
 7627SOL    HW123459   4.408   6.891   2.952 -1.9284  1.6147  0.3248
 7627SOL    HW223460   4.303   6.880   3.060 -0.6291 -2.5595  1.3128
 7628SOL     OW23461   1.729   1.429   5.022 -0.2619 -0.2064 -0.3157
 7628SOL    HW123462   1.813   1.455   4.983 -0.7440  0.8722 -0.6734
 7628SOL    HW223463   1.663   1.467   4.964 -1.0062 -1.2179 -0.1468
 7629SOL     OW23464   6.970   4.261   7.474 -0.1617 -0.2924 -0.5269
 7629SOL    HW123465   6.917   4.320   7.527  3.3109  2.4155  0.3373
 7629SOL    HW223466   6.960   4.294   7.385 -1.4233 -1.1052 -0.7095
 7630SOL     OW23467   8.134   4.441   2.374 -0.2268  0.1885  0.1783
 7630SOL    HW123468   8.221   4.403   2.364 -0.3500  0.2072 -1.2647
 7630SOL    HW223469   8.095   4.394   2.448  0.4441 -0.9267 -0.1495
 7631SOL     OW23470   4.405   0.658   9.399  0.2774  0.2931 -0.0865
 7631SOL    HW123471   4.328   0.625   9.446 -1.4910  0.2979 -2.7466
 7631SOL    HW223472   4.473   0.594   9.417 -0.6809 -0.3796  1.3667
 7632SOL     OW23473   8.306   9.620   8.238  0.1072 -0.2884 -0.0032
 7632SOL    HW123474   8.262   9.560   8.178  0.0231 -0.9896  0.7313
 7632SOL    HW223475   8.377   9.568   8.276 -1.1377 -0.5873  2.0848
 7633SOL     OW23476   0.559   0.480   9.572 -0.1937 -0.7037 -0.1788
 7633SOL    HW123477   0.529   0.494   9.662 -0.9745 -0.3712 -0.4859
 7633SOL    HW223478   0.634   0.540   9.563  0.2026 -1.0981  0.3965
 7634SOL     OW23479   3.097   8.338   9.536  0.0871 -0.2709 -0.0769
 7634SOL    HW123480   3.033   8.306   9.599 -0.7957  0.8868 -0.3679
 7634SOL    HW223481   3.046   8.364   9.460  1.1995 -2.4274 -1.6744
 7635SOL     OW23482   1.705   4.135   2.867  0.3076  0.5459  0.1574
 7635SOL    HW123483   1.735   4.165   2.781  0.0522 -0.6092 -0.3596
 7635SOL    HW223484   1.640   4.067   2.847 -0.3461  0.8151  1.2689
 7636SOL     OW23485   0.749   9.410   4.584 -0.5271 -0.4523  0.3590
 7636SOL    HW123486   0.745   9.479   4.517  0.2923 -0.7434  0.0035
 7636SOL    HW223487   0.669   9.422   4.635 -2.1048 -1.3476 -1.7531
 7637SOL     OW23488   1.166   9.190   1.795 -0.0045  0.5204 -0.1095
 7637SOL    HW123489   1.153   9.155   1.707 -0.9067  1.5819 -0.4263
 7637SOL    HW223490   1.198   9.279   1.781 -1.5169  1.2100  0.5870
 7638SOL     OW23491   0.486   9.011   3.566 -0.3318  0.3972  0.7071
 7638SOL    HW123492   0.469   8.930   3.517  3.1417 -0.5984  0.8531
 7638SOL    HW223493   0.431   9.004   3.643 -1.8343 -0.6664 -0.3883
 7639SOL     OW23494   3.424   4.660   0.535 -0.2445  0.0402  0.0347
 7639SOL    HW123495   3.431   4.748   0.498  1.1510 -0.3997 -0.8322
 7639SOL    HW223496   3.484   4.660   0.609  0.1279 -0.3043 -0.2601
 7640SOL     OW23497   6.885   6.139   9.840  0.0315 -0.6703  0.5156
 7640SOL    HW123498   6.900   6.054   9.882 -2.1058 -1.6279 -0.5445
 7640SOL    HW223499   6.808   6.126   9.785 -1.5967  2.4978  1.8196
 7641SOL     OW23500   3.530   4.066   7.592 -0.4615 -0.1803 -0.7665
 7641SOL    HW123501   3.578   3.997   7.638 -2.2016  0.2996  1.9678
 7641SOL    HW223502   3.461   4.019   7.545 -1.0100 -0.4294  0.2554
 7642SOL     OW23503   3.682   7.700   6.986  0.1539 -0.3535  0.1834
 7642SOL    HW123504   3.641   7.777   6.947 -1.0258 -0.3691  1.3228
 7642SOL    HW223505   3.697   7.641   6.911 -1.8350 -0.2926 -0.3342
 7643SOL     OW23506   3.744   4.367   3.497 -0.2324 -0.0284  0.1280
 7643SOL    HW123507   3.766   4.433   3.562 -1.1415 -0.3444  0.7717
 7643SOL    HW223508   3.721   4.289   3.548  1.0662 -0.9431 -0.6167
 7644SOL     OW23509   5.360   6.099   7.786  0.2201  0.1220 -0.2012
 7644SOL    HW123510   5.342   6.005   7.779 -0.7627  0.0533  2.2728
 7644SOL    HW223511   5.310   6.138   7.714  0.8566 -1.2381 -1.4335
 7645SOL     OW23512   4.209   7.932   8.743 -0.2467  0.0039  0.3853
 7645SOL    HW123513   4.237   7.862   8.801 -0.3503  0.1332  0.5972
 7645SOL    HW223514   4.213   8.011   8.798  0.4989  0.2669 -0.0346
 7646SOL     OW23515   4.807   7.042   8.106 -0.0658  0.3783 -0.1655
 7646SOL    HW123516   4.793   6.947   8.103 -0.8584  0.5123 -1.5088
 7646SOL    HW223517   4.812   7.068   8.014  2.9643  1.2606  0.1213
 7647SOL     OW23518   9.988   5.694   0.514 -0.1672  0.5444  0.6045
 7647SOL    HW123519   9.906   5.691   0.464  0.0713  0.8363  0.1962
 7647SOL    HW223520   9.964   5.659   0.600 -0.1696 -1.9074 -0.2910
 7648SOL     OW23521   3.746   8.196   2.123  0.5352 -0.0654 -0.0678
 7648SOL    HW123522   3.806   8.161   2.058 -0.0200 -0.2028 -0.5228
 7648SOL    HW223523   3.774   8.157   2.206  1.7099  0.6910 -0.0905
 7649SOL     OW23524   1.762   7.994   2.530  0.4519  0.5374  0.6472
 7649SOL    HW123525   1.769   7.914   2.477 -0.5638  1.9512 -1.7869
 7649SOL    HW223526   1.852   8.013   2.556  0.8240 -0.8844  0.4971
 7650SOL     OW23527   9.242   8.567   8.120  0.0114 -1.1430 -0.3218
 7650SOL    HW123528   9.177   8.505   8.153 -1.5838  0.7385  0.2498
 7650SOL    HW223529   9.192   8.629   8.068  1.6660 -0.7142 -1.5042
 7651SOL     OW23530   5.787   1.484   7.197 -0.0431  0.4826  0.6102
 7651SOL    HW123531   5.802   1.414   7.261  0.9838  0.1535  0.0228
 7651SOL    HW223532   5.828   1.453   7.116 -2.4050  0.3249 -0.6080
 7652SOL     OW23533   8.299   7.669   3.838  0.5378  0.3915  0.2263
 7652SOL    HW123534   8.221   7.613   3.838 -0.8638  2.1429 -1.9566
 7652SOL    HW223535   8.286   7.727   3.763  2.8497  2.3259  1.1971
 7653SOL     OW23536   6.425   1.068   1.988 -0.0041 -0.0649  0.6366
 7653SOL    HW123537   6.443   1.039   2.077  0.4425 -0.7216  0.3396
 7653SOL    HW223538   6.511   1.088   1.951 -0.2793  1.4059  0.7409
 7654SOL     OW23539   5.472   6.387   0.012 -0.4055  0.2298 -0.3100
 7654SOL    HW123540   5.526   6.312   0.038 -0.0277  0.6437  0.1145
 7654SOL    HW223541   5.473   6.444   0.088 -1.5430  0.1971 -0.2609
 7655SOL     OW23542   4.016   2.067   6.406 -0.4305 -0.4776  0.0040
 7655SOL    HW123543   3.975   2.142   6.363 -0.4650 -0.1397  0.6231
 7655SOL    HW223544   4.083   2.038   6.344 -0.7963 -0.2906 -0.4864
 7656SOL     OW23545   9.901   5.680   9.721  0.2007 -0.0998 -0.4547
 7656SOL    HW123546   9.925   5.771   9.706  0.1849 -0.2081 -1.1956
 7656SOL    HW223547   9.982   5.631   9.709  0.1489 -0.2088 -0.3571
 7657SOL     OW23548   2.031   6.503   6.205 -0.4190 -0.2140 -0.4751
 7657SOL    HW123549   1.949   6.455   6.187 -0.3423 -0.0365 -1.3500
 7657SOL    HW223550   2.089   6.477   6.134 -0.8237  2.2003 -1.7935
 7658SOL     OW23551   7.799   3.989   8.154  0.2066  0.0948 -0.0378
 7658SOL    HW123552   7.842   3.923   8.208  1.2286  0.7976  0.0526
 7658SOL    HW223553   7.865   4.014   8.089 -0.3967  0.5220 -0.5034
 7659SOL     OW23554   1.124   2.041   4.215 -0.3114 -0.1318 -0.4165
 7659SOL    HW123555   1.219   2.037   4.204 -0.4244 -0.7744 -1.2766
 7659SOL    HW223556   1.094   1.951   4.202 -0.8454 -0.3871  2.0984
 7660SOL     OW23557   1.763   3.373   9.233  0.1479  0.5821  0.6788
 7660SOL    HW123558   1.793   3.283   9.224 -1.1325  0.2035 -0.1751
 7660SOL    HW223559   1.747   3.384   9.327 -1.0987 -0.5887  0.6390
 7661SOL     OW23560   5.124   4.600   9.006 -0.3713 -0.3014  0.1579
 7661SOL    HW123561   5.122   4.630   8.915  0.8354  0.1604  0.2640
 7661SOL    HW223562   5.208   4.632   9.040 -0.4125 -1.2197  1.1793
 7662SOL     OW23563   4.369   7.323   6.325  0.3561  0.0240 -0.4334
 7662SOL    HW123564   4.396   7.298   6.413  1.6052 -0.4408 -0.9347
 7662SOL    HW223565   4.355   7.240   6.279  1.3229  0.2481 -1.1491
 7663SOL     OW23566   6.534   6.017   7.480 -0.3690 -0.3739 -0.0498
 7663SOL    HW123567   6.603   6.073   7.514  1.1426 -1.4812 -1.1483
 7663SOL    HW223568   6.548   6.015   7.385 -2.6027  0.2375 -0.4488
 7664SOL     OW23569   8.480   2.323   5.632 -0.2424 -0.1202  0.1511
 7664SOL    HW123570   8.566   2.285   5.615  0.3750  1.2167  0.1505
 7664SOL    HW223571   8.438   2.261   5.691  0.2338 -1.4076 -0.8157
 7665SOL     OW23572   6.972   8.509   2.216 -0.4502  0.4137 -0.1211
 7665SOL    HW123573   6.920   8.509   2.297 -0.5136  0.8013 -0.1599
 7665SOL    HW223574   6.908   8.522   2.147 -0.4429 -0.3078 -0.2681
 7666SOL     OW23575   2.093   1.302   4.739 -0.1694  0.1481 -0.5585
 7666SOL    HW123576   2.050   1.375   4.695 -0.2547  0.8200  0.5982
 7666SOL    HW223577   2.028   1.271   4.804  1.1412  1.4060  1.4589
 7667SOL     OW23578   0.362   2.917   8.715 -0.0458 -0.0972 -0.3370
 7667SOL    HW123579   0.426   2.954   8.776 -0.1784  0.4359 -0.5144
 7667SOL    HW223580   0.348   2.987   8.651  0.2172 -0.7071 -1.0695
 7668SOL     OW23581   3.962   1.896   4.102  0.1868  0.3503  0.6242
 7668SOL    HW123582   4.015   1.819   4.123  0.3635  0.6304  1.2398
 7668SOL    HW223583   3.880   1.882   4.149 -1.4212 -1.3605 -2.3940
 7669SOL     OW23584   7.787   8.244   0.185 -0.1078 -0.3220  0.0669
 7669SOL    HW123585   7.853   8.223   0.251 -0.5631  1.5832  1.2156
 7669SOL    HW223586   7.704   8.214   0.223 -0.2671  0.0060 -0.0159
 7670SOL     OW23587   9.934   0.320   9.977 -0.2971 -0.3933  0.1065
 7670SOL    HW123588   9.871   0.263   9.934  0.3544  0.1699 -1.6806
 7670SOL    HW223589  10.010   0.265   9.993 -0.1778 -0.3687 -0.3708
 7671SOL     OW23590   6.939   8.271   1.476  0.1353 -0.3662 -0.2094
 7671SOL    HW123591   6.924   8.189   1.430  0.4250 -0.3756 -0.2902
 7671SOL    HW223592   6.975   8.330   1.410 -1.3967  0.2842 -0.5120
 7672SOL     OW23593   3.835   6.355   0.315 -0.7685  0.2930 -0.0091
 7672SOL    HW123594   3.927   6.364   0.291 -0.5241 -0.3422  0.6378
 7672SOL    HW223595   3.828   6.268   0.353 -1.4138  0.7233  0.9169
 7673SOL     OW23596   7.222   6.201   6.089  0.7203 -0.1170 -0.3452
 7673SOL    HW123597   7.253   6.113   6.114  2.0816  0.2201 -0.7371
 7673SOL    HW223598   7.148   6.217   6.147  1.8066 -0.6548  1.2708
 7674SOL     OW23599   7.544   3.458   3.336 -0.0709  0.7769  0.4054
 7674SOL    HW123600   7.547   3.409   3.254  0.3672  1.6375 -0.1150
 7674SOL    HW223601   7.607   3.530   3.323  0.9743  0.2020  1.9839
 7675SOL     OW23602   0.992   2.124   0.494  0.0356 -0.0810 -0.0650
 7675SOL    HW123603   0.972   2.037   0.460  0.0833  0.1928 -0.7937
 7675SOL    HW223604   1.070   2.110   0.549  0.7275 -0.3122 -1.0809
 7676SOL     OW23605   3.686   9.779   5.777  0.1361 -0.2470 -0.2683
 7676SOL    HW123606   3.607   9.733   5.749  0.5749 -1.5874  0.5892
 7676SOL    HW223607   3.742   9.711   5.815  2.1553  0.4538 -1.7646
 7677SOL     OW23608   0.036   6.744   4.783  0.5339  0.3059  0.4902
 7677SOL    HW123609   0.047   6.649   4.777 -0.5926  0.1680  0.3486
 7677SOL    HW223610  -0.053   6.759   4.752  1.2643  1.5965 -1.1609
 7678SOL     OW23611   3.666   6.281   2.519  0.7223 -0.4500  0.3592
 7678SOL    HW123612   3.735   6.302   2.456  1.4011 -3.0327  0.1569
 7678SOL    HW223613   3.688   6.194   2.551 -0.9082 -0.1645  2.4439
 7679SOL     OW23614   6.836   6.333   5.142  0.4649 -0.2378 -0.3396
 7679SOL    HW123615   6.865   6.251   5.181  0.2345 -1.0680 -1.8191
 7679SOL    HW223616   6.865   6.328   5.051 -0.9273  0.6222 -0.8632
 7680SOL     OW23617   5.443   7.221   3.128 -0.1851 -0.4115 -0.5969
 7680SOL    HW123618   5.372   7.190   3.184 -0.9599  0.7827 -0.8790
 7680SOL    HW223619   5.453   7.313   3.151 -0.3993  0.0648 -2.2738
 7681SOL     OW23620   1.568   9.925   5.732 -0.2529 -0.7659  0.7799
 7681SOL    HW123621   1.493   9.985   5.728 -0.0519 -0.5939 -1.1212
 7681SOL    HW223622   1.638   9.970   5.685  0.3749 -1.8609  0.6386
 7682SOL     OW23623   2.754   7.926   3.305  0.0128 -0.4635 -0.0587
 7682SOL    HW123624   2.766   7.845   3.354 -0.7565 -0.7154 -0.2611
 7682SOL    HW223625   2.752   7.995   3.371  0.5718 -0.6183  0.1225
 7683SOL     OW23626   5.805   5.989   4.254  0.7115 -0.1115 -0.1922
 7683SOL    HW123627   5.798   6.006   4.160  2.1620  1.7464 -0.0356
 7683SOL    HW223628   5.726   6.028   4.292  0.2526 -0.6316 -0.5996
 7684SOL     OW23629   0.228   1.993   4.959 -0.5909  0.1597 -0.3843
 7684SOL    HW123630   0.177   2.027   4.886  0.0746 -0.9444 -1.4005
 7684SOL    HW223631   0.285   1.927   4.920  1.4498  1.1469  0.7288
 7685SOL     OW23632   2.401   3.166   1.885  0.3619 -0.3924 -0.3998
 7685SOL    HW123633   2.417   3.165   1.979 -1.7927 -0.1678  0.0223
 7685SOL    HW223634   2.474   3.215   1.848  0.1982  1.2856  1.3969
 7686SOL     OW23635   6.550   4.670   4.083 -0.0601 -0.1438  0.4700
 7686SOL    HW123636   6.577   4.619   4.008 -0.1238 -0.4052  0.6232
 7686SOL    HW223637   6.467   4.711   4.056 -0.9569 -1.5510  0.9568
 7687SOL     OW23638   9.021   0.883   3.503  0.0091  0.2116 -0.3386
 7687SOL    HW123639   8.939   0.840   3.527  0.9075 -2.0107 -0.9716
 7687SOL    HW223640   9.012   0.901   3.409  0.3305 -0.3476 -0.4869
 7688SOL     OW23641   5.787   4.371   7.804  0.4202 -0.0030 -0.4431
 7688SOL    HW123642   5.873   4.333   7.787 -0.1886 -1.6650 -0.0012
 7688SOL    HW223643   5.777   4.439   7.737  2.8477  1.5875  0.6681
 7689SOL     OW23644   6.748   3.697   3.559 -0.0468 -0.4628  0.1632
 7689SOL    HW123645   6.782   3.741   3.481  0.5021 -1.0814  0.0338
 7689SOL    HW223646   6.813   3.629   3.577 -1.0500 -1.4703  0.1198
 7690SOL     OW23647   5.266   0.670   1.603 -0.9723 -0.4177 -0.0170
 7690SOL    HW123648   5.192   0.709   1.558 -0.3771 -0.2009 -0.8263
 7690SOL    HW223649   5.333   0.739   1.605 -1.1328 -0.2672  1.5917
 7691SOL     OW23650   3.030   9.393   4.224 -0.4196  0.2298 -1.0817
 7691SOL    HW123651   3.066   9.419   4.139  0.9436  0.2000 -0.5341
 7691SOL    HW223652   3.103   9.351   4.270 -1.3461 -0.4578 -0.1871
 7692SOL     OW23653   4.962   1.467   1.407  0.7661  0.1231 -0.0847
 7692SOL    HW123654   4.867   1.477   1.393  0.6853  1.2440  1.0459
 7692SOL    HW223655   4.984   1.385   1.364 -0.5951  0.1930 -0.9880
 7693SOL     OW23656   7.932   0.767   5.711 -0.2372 -0.1149 -0.0761
 7693SOL    HW123657   7.976   0.852   5.708  3.4484 -1.8525 -1.7035
 7693SOL    HW223658   7.921   0.749   5.805  0.4841  1.4194  0.3280
 7694SOL     OW23659   1.263   3.034   2.602 -0.0188  0.1366 -0.2935
 7694SOL    HW123660   1.274   3.010   2.694  0.7517  0.6475 -0.2508
 7694SOL    HW223661   1.195   2.973   2.570 -1.0220  0.6033  0.8600
 7695SOL     OW23662   6.853   3.321   5.111 -0.0469  0.1542  0.8938
 7695SOL    HW123663   6.869   3.261   5.038 -0.1221  0.6000  0.5067
 7695SOL    HW223664   6.759   3.314   5.128  0.2992 -1.6039  2.4135
 7696SOL     OW23665   3.501   6.270   4.557  0.3359 -0.5236  0.3650
 7696SOL    HW123666   3.505   6.365   4.563  0.4551 -0.4549 -0.6158
 7696SOL    HW223667   3.571   6.240   4.615  1.6601  0.0686 -0.8407
 7697SOL     OW23668   6.750   9.449   3.379  0.2465  0.0583  0.2378
 7697SOL    HW123669   6.818   9.514   3.359  0.4267 -0.6656 -1.6155
 7697SOL    HW223670   6.668   9.499   3.379  0.2697  0.1694 -2.1049
 7698SOL     OW23671   0.045   7.402   5.754  0.4073  0.2681 -0.0688
 7698SOL    HW123672   0.112   7.378   5.690 -0.8036  0.0552 -1.3038
 7698SOL    HW223673   0.079   7.481   5.795  1.4120  0.1672 -0.6673
 7699SOL     OW23674   3.752   1.148   1.285 -0.7940  0.1202 -0.1801
 7699SOL    HW123675   3.834   1.106   1.310 -1.3235 -0.7517  0.1592
 7699SOL    HW223676   3.772   1.197   1.206  0.0469 -0.1025 -0.1086
 7700SOL     OW23677   4.784   3.595   7.505  0.6787 -0.3411  0.1766
 7700SOL    HW123678   4.722   3.522   7.501 -0.2690  0.4696 -0.5920
 7700SOL    HW223679   4.870   3.554   7.502  0.2050 -1.5048  1.2721
 7701SOL     OW23680   6.679   3.984   5.947 -0.1898  0.0942 -0.7028
 7701SOL    HW123681   6.587   4.008   5.937 -0.1970  0.5668  0.3338
 7701SOL    HW223682   6.721   4.013   5.866 -0.3548  2.9705  0.1515
 7702SOL     OW23683   7.278   6.972   9.823 -0.0610  0.1966 -0.1845
 7702SOL    HW123684   7.251   6.881   9.836  1.9994 -0.5776 -0.8081
 7702SOL    HW223685   7.207   7.024   9.859 -1.0651 -1.6659  0.6695
 7703SOL     OW23686   8.800   3.344   0.824  0.0028  0.0457  0.0120
 7703SOL    HW123687   8.848   3.363   0.905  1.3266  0.5286 -0.8490
 7703SOL    HW223688   8.735   3.414   0.817 -0.6914 -0.4668  1.0582
 7704SOL     OW23689   3.547   8.242   4.450 -0.2133 -0.6744  0.2438
 7704SOL    HW123690   3.488   8.223   4.376 -0.5664 -1.2532  0.6594
 7704SOL    HW223691   3.524   8.331   4.477 -0.3038 -0.5771 -0.1427
 7705SOL     OW23692   4.314   4.607   1.945 -0.5809  0.4093 -0.6783
 7705SOL    HW123693   4.243   4.669   1.930 -1.0892  0.5615  1.8921
 7705SOL    HW223694   4.384   4.661   1.983 -1.4719 -0.6191  2.7753
 7706SOL     OW23695   2.051   2.829   2.886 -0.5337 -1.0724 -0.0586
 7706SOL    HW123696   2.058   2.905   2.829 -1.8765 -1.1527 -0.3755
 7706SOL    HW223697   1.963   2.836   2.924  0.2446 -1.1307  1.8514
 7707SOL     OW23698   3.276   3.119   2.939 -0.5091  0.0334 -0.0324
 7707SOL    HW123699   3.293   3.059   2.865 -2.1797 -1.7991  0.9873
 7707SOL    HW223700   3.363   3.137   2.974  0.1385 -0.9342 -1.0349
 7708SOL     OW23701   9.266   4.215   0.925 -0.4264  0.0362  0.1065
 7708SOL    HW123702   9.263   4.264   0.842 -0.2587  0.8652  0.5756
 7708SOL    HW223703   9.354   4.179   0.929  0.0069  1.1043  0.5318
 7709SOL     OW23704   7.161   2.301   1.781  0.1312  0.6676  0.6160
 7709SOL    HW123705   7.152   2.320   1.688 -0.1512 -0.0723  0.4821
 7709SOL    HW223706   7.200   2.214   1.784  0.2137  0.7188  1.1878
 7710SOL     OW23707   3.429   0.668   3.949 -0.0074  0.2899  0.0702
 7710SOL    HW123708   3.354   0.702   3.901 -0.4222  0.1309  0.6073
 7710SOL    HW223709   3.411   0.690   4.041 -0.1023 -1.0443  0.3839
 7711SOL     OW23710   6.013   2.640   9.816 -0.0831  0.1694 -0.5102
 7711SOL    HW123711   6.071   2.677   9.882 -2.7487 -0.7036  2.5540
 7711SOL    HW223712   6.050   2.554   9.796  1.4143  0.9313 -1.1351
 7712SOL     OW23713   5.718   4.253   1.169  0.5384 -0.0564  0.0727
 7712SOL    HW123714   5.805   4.253   1.128  0.7773  3.7439  0.2608
 7712SOL    HW223715   5.730   4.300   1.251 -1.8430  1.6652 -0.4593
 7713SOL     OW23716   4.875   2.920   0.144 -0.0787  0.7305 -0.1723
 7713SOL    HW123717   4.865   3.009   0.111  0.4280  0.4927 -1.0067
 7713SOL    HW223718   4.808   2.870   0.097  0.8177  0.3395 -1.0684
 7714SOL     OW23719   7.500   2.467   9.035  0.1254  0.0663  0.3479
 7714SOL    HW123720   7.423   2.470   8.979 -0.1629  0.2491  0.7512
 7714SOL    HW223721   7.476   2.407   9.106  0.0889  0.6705  0.8556
 7715SOL     OW23722   7.849   6.424   9.133  0.1170 -0.7170  0.1486
 7715SOL    HW123723   7.931   6.374   9.140  0.3376 -0.3167  0.5477
 7715SOL    HW223724   7.783   6.367   9.174  0.5620 -0.2769  1.5500
 7716SOL     OW23725   7.960   2.811   2.725  0.1122 -0.1398  0.0913
 7716SOL    HW123726   7.870   2.813   2.693  0.2494 -1.5763 -0.4448
 7716SOL    HW223727   7.959   2.746   2.795  0.7729 -0.2865 -0.0347
 7717SOL     OW23728   8.568   2.918   5.145  0.0658 -0.1464 -0.1213
 7717SOL    HW123729   8.511   2.987   5.112 -0.2546 -1.4654 -2.5516
 7717SOL    HW223730   8.509   2.858   5.190  0.2658  0.7977  1.4802
 7718SOL     OW23731   1.771   2.468   8.359  0.2462 -0.4028 -0.2493
 7718SOL    HW123732   1.787   2.392   8.415 -2.0046 -1.9855 -1.6091
 7718SOL    HW223733   1.831   2.458   8.286 -0.2079 -1.0014 -0.5398
 7719SOL     OW23734   7.534   1.698   3.581 -0.1808  0.1934  0.1150
 7719SOL    HW123735   7.474   1.666   3.648  0.7472 -0.2035  0.7687
 7719SOL    HW223736   7.576   1.774   3.621  0.3379 -0.0135 -0.0309
 7720SOL     OW23737   3.355   6.739   3.129 -0.2331  0.0107 -0.2698
 7720SOL    HW123738   3.403   6.819   3.145  0.1849  0.0828 -1.7321
 7720SOL    HW223739   3.263   6.766   3.123 -0.1052  0.3667 -0.6397
 7721SOL     OW23740   4.218   8.363   6.531 -0.1428  0.1876 -0.4586
 7721SOL    HW123741   4.282   8.428   6.561 -0.3922  0.6023 -0.8254
 7721SOL    HW223742   4.142   8.414   6.504 -0.6616 -0.3043  0.0322
 7722SOL     OW23743   9.028   8.975   9.360 -0.1340  0.5651 -0.6512
 7722SOL    HW123744   9.073   8.897   9.393 -0.7885  0.2156 -0.5874
 7722SOL    HW223745   8.974   9.005   9.433 -0.4075  0.6857 -0.9022
 7723SOL     OW23746   8.129   7.481   6.178 -0.0529  0.4306 -0.2096
 7723SOL    HW123747   8.046   7.517   6.150 -0.1917  0.8077  0.6586
 7723SOL    HW223748   8.165   7.439   6.100 -0.5587  1.1875 -0.8524
 7724SOL     OW23749   8.744   3.075   0.754  0.9076 -0.1942 -0.0114
 7724SOL    HW123750   8.786   3.160   0.745  0.1211  0.0721 -1.3930
 7724SOL    HW223751   8.817   3.015   0.770  1.3711  0.8518  2.1203
 7725SOL     OW23752   5.441   6.577   4.973  0.0290  0.1315  0.5296
 7725SOL    HW123753   5.378   6.645   4.996  1.4915  2.7463 -2.4367
 7725SOL    HW223754   5.519   6.599   5.024  0.6808  1.1394 -0.8249
 7726SOL     OW23755   8.935   8.993   2.026 -0.0483 -0.3053  0.2404
 7726SOL    HW123756   8.841   8.997   2.041 -0.1415 -0.9915 -0.1114
 7726SOL    HW223757   8.943   8.958   1.937  0.5211  0.7874 -0.1491
 7727SOL     OW23758   2.261   8.481   1.416 -0.4228 -0.1088  0.0509
 7727SOL    HW123759   2.337   8.435   1.452  0.1572  1.2768  0.6752
 7727SOL    HW223760   2.208   8.504   1.493 -1.9976 -1.8477 -0.4264
 7728SOL     OW23761   7.036   6.634   2.238 -0.7478  0.3110 -0.0490
 7728SOL    HW123762   7.106   6.592   2.190 -1.8523 -2.8393  0.8540
 7728SOL    HW223763   7.070   6.643   2.327 -0.0254  2.8176 -0.4845
 7729SOL     OW23764   8.734   3.682   8.171  0.1118  0.1436  0.5851
 7729SOL    HW123765   8.674   3.627   8.119  1.9246 -1.1917 -0.2174
 7729SOL    HW223766   8.789   3.726   8.106  0.3399  0.9532  1.3100
 7730SOL     OW23767   7.425   4.745   8.376  0.4036  0.1093 -0.3846
 7730SOL    HW123768   7.354   4.716   8.318  0.6675  2.4065 -1.9563
 7730SOL    HW223769   7.386   4.742   8.464 -1.3885  0.4806 -1.1185
 7731SOL     OW23770   0.752   6.007   4.171  0.4618  0.6405 -0.4632
 7731SOL    HW123771   0.734   6.096   4.200  1.2541  0.4891  0.5403
 7731SOL    HW223772   0.847   5.999   4.175  0.3226 -0.7561  1.0976
 7732SOL     OW23773   1.051   7.279   0.510 -0.5431 -0.2101  0.5916
 7732SOL    HW123774   0.986   7.324   0.456 -0.1035  1.8838  1.6630
 7732SOL    HW223775   1.135   7.317   0.483  0.1822 -2.2601 -0.1879
 7733SOL     OW23776   0.142   2.789   6.079  0.0361  0.0273 -0.5553
 7733SOL    HW123777   0.229   2.828   6.070  0.9811 -2.0085 -0.9836
 7733SOL    HW223778   0.101   2.803   5.993  0.1659  0.4971 -0.5422
 7734SOL     OW23779   8.264   3.002   8.474 -0.0044 -0.1777 -0.1179
 7734SOL    HW123780   8.346   3.025   8.517 -0.6656  0.4569  0.8691
 7734SOL    HW223781   8.207   2.973   8.546 -0.5066 -1.0198 -0.8341
 7735SOL     OW23782   5.259   8.295   0.697  0.0514  0.6426  0.3182
 7735SOL    HW123783   5.281   8.281   0.605  0.0895  1.3821  0.2048
 7735SOL    HW223784   5.188   8.234   0.715 -1.1196  1.6509 -0.6801
 7736SOL     OW23785   3.243   3.945   2.137  0.2040 -0.1028 -0.2127
 7736SOL    HW123786   3.253   4.033   2.173 -0.3431 -0.2709  0.3645
 7736SOL    HW223787   3.325   3.901   2.156 -0.2700 -0.3593  1.3146
 7737SOL     OW23788   7.412   5.378   2.122 -0.0349 -0.4004 -0.0018
 7737SOL    HW123789   7.358   5.452   2.151  2.0143  1.7515 -1.3307
 7737SOL    HW223790   7.419   5.322   2.199 -1.6215  0.7764  1.0717
 7738SOL     OW23791   2.026   9.049   0.889  0.4625  0.1877 -0.0485
 7738SOL    HW123792   2.118   9.040   0.912  0.0926 -4.0743  0.6927
 7738SOL    HW223793   1.986   9.094   0.963  1.3814 -1.5352  1.5537
 7739SOL     OW23794   6.939   8.429   7.563 -0.3354  0.5884  0.7020
 7739SOL    HW123795   6.932   8.436   7.467 -0.3885 -0.7956  0.5892
 7739SOL    HW223796   7.030   8.406   7.578 -0.7474 -1.0195  0.8485
 7740SOL     OW23797   6.631   4.924   8.321 -0.0879  1.1221 -0.4792
 7740SOL    HW123798   6.554   4.867   8.318 -0.3537  1.5057 -1.1721
 7740SOL    HW223799   6.646   4.949   8.230  0.8759  1.0345 -0.3501
 7741SOL     OW23800   7.495   2.278   7.414  0.3092  0.3633 -0.3903
 7741SOL    HW123801   7.563   2.232   7.462  1.6562  0.2085 -2.3290
 7741SOL    HW223802   7.471   2.352   7.470 -0.8595 -1.7632  2.1177
 7742SOL     OW23803   9.601   9.835   3.191 -0.3303  0.0538 -0.7212
 7742SOL    HW123804   9.522   9.851   3.140 -0.4249 -0.4752 -0.7447
 7742SOL    HW223805   9.593   9.894   3.266 -1.7459 -1.4018  0.3459
 7743SOL     OW23806   5.558   0.645   2.421  0.1232  0.1488  0.3314
 7743SOL    HW123807   5.490   0.662   2.486 -1.3242 -2.5258 -0.3295
 7743SOL    HW223808   5.537   0.704   2.348 -0.5363  0.4725  0.7729
 7744SOL     OW23809   7.274   2.653   4.062 -0.3337 -0.2207  0.1961
 7744SOL    HW123810   7.281   2.638   3.968 -0.0581 -0.0681  0.1924
 7744SOL    HW223811   7.288   2.567   4.101 -0.1306 -0.2241  0.1136
 7745SOL     OW23812   3.117   0.319   6.488 -0.0436 -0.6466 -0.0218
 7745SOL    HW123813   3.142   0.386   6.424 -0.7546 -1.1138 -0.8082
 7745SOL    HW223814   3.193   0.311   6.545  0.2567  0.4443 -0.2426
 7746SOL     OW23815   1.461   2.153   5.083 -0.4886 -0.0303  0.0443
 7746SOL    HW123816   1.424   2.228   5.037  0.0705 -0.2606 -0.8017
 7746SOL    HW223817   1.497   2.098   5.013 -0.6295 -0.9378  0.6737
 7747SOL     OW23818   9.892   4.206   0.477 -0.5275  0.2019 -0.3639
 7747SOL    HW123819   9.889   4.282   0.419 -0.0672  0.9653  0.6038
 7747SOL    HW223820   9.940   4.140   0.426 -0.2302  0.8220 -0.9000
 7748SOL     OW23821   4.087   4.028   1.867 -0.6459 -0.4771 -0.1941
 7748SOL    HW123822   4.098   4.117   1.900 -2.3749  0.3351 -1.6249
 7748SOL    HW223823   4.101   3.972   1.943 -0.2956  1.0661  0.9170
 7749SOL     OW23824   6.486   6.452   7.366 -0.1196  0.7626  0.4125
 7749SOL    HW123825   6.448   6.421   7.284 -0.7868  1.8223  0.3057
 7749SOL    HW223826   6.435   6.409   7.435  0.7214 -0.4662  0.2925
 7750SOL     OW23827   4.844   6.281   5.874  0.3088 -0.2489  0.0676
 7750SOL    HW123828   4.855   6.365   5.920  0.2219 -0.2299  0.0524
 7750SOL    HW223829   4.816   6.221   5.943 -3.8677  0.6373 -0.5762
 7751SOL     OW23830   8.955   0.147   7.764  0.4869 -0.3441 -0.3132
 7751SOL    HW123831   8.982   0.061   7.797 -1.2839 -1.0048 -0.4467
 7751SOL    HW223832   8.965   0.206   7.838  1.1220 -0.7881 -0.0363
 7752SOL     OW23833   7.070   6.520   9.923 -0.3745 -0.0197  0.0321
 7752SOL    HW123834   6.978   6.540   9.906 -0.2966  0.3367  0.0101
 7752SOL    HW223835   7.068   6.442   9.978 -0.8230  1.5177  2.4009
 7753SOL     OW23836   5.415   9.027   3.064  0.4533  0.2210 -0.6373
 7753SOL    HW123837   5.507   9.002   3.057  0.9448  1.6673  0.2293
 7753SOL    HW223838   5.379   8.970   3.132  1.2301  0.9575  0.4282
 7754SOL     OW23839   3.982   5.089   9.423 -0.4040 -0.0020  0.5460
 7754SOL    HW123840   3.896   5.107   9.462 -1.2435 -2.3407 -0.0271
 7754SOL    HW223841   4.041   5.083   9.499 -1.0218  0.2800  1.0618
 7755SOL     OW23842   1.944   8.319   8.930 -0.3357 -0.0941  0.2542
 7755SOL    HW123843   1.925   8.258   8.859 -0.4964  0.7130 -0.4105
 7755SOL    HW223844   2.011   8.378   8.895 -0.1664  0.0998  0.8903
 7756SOL     OW23845   1.238   2.058   1.594  0.2133 -0.6979 -0.8632
 7756SOL    HW123846   1.152   2.093   1.614  0.5758  1.0572 -2.0600
 7756SOL    HW223847   1.271   2.024   1.677 -0.8142  0.4765  0.0588
 7757SOL     OW23848   9.808   8.169   1.763  0.0568 -0.1776  0.0180
 7757SOL    HW123849   9.831   8.224   1.688  1.1667 -0.6709 -0.0146
 7757SOL    HW223850   9.816   8.079   1.730  0.0908 -0.3909  0.5930
 7758SOL     OW23851   0.150   5.467   6.666 -0.3401 -0.0312 -0.4433
 7758SOL    HW123852   0.115   5.387   6.706  2.1876 -0.7404  0.5199
 7758SOL    HW223853   0.174   5.442   6.577  0.6819 -0.4360 -0.0621
 7759SOL     OW23854   8.877   7.606   1.854 -0.0986 -0.2824  0.7608
 7759SOL    HW123855   8.815   7.636   1.921  0.6109 -0.2845  1.4275
 7759SOL    HW223856   8.836   7.527   1.817 -1.1870  0.5361  0.1529
 7760SOL     OW23857   9.943   9.774   8.272  0.2823  0.8072  0.1381
 7760SOL    HW123858   9.886   9.697   8.277  0.7003  0.4679 -0.2568
 7760SOL    HW223859  10.028   9.739   8.246  0.7401  1.2843  0.9673
 7761SOL     OW23860   2.053   2.190   7.806  0.0738  0.3095  0.1532
 7761SOL    HW123861   2.084   2.158   7.891  1.0081 -1.9363 -0.9504
 7761SOL    HW223862   1.994   2.262   7.828  1.7922  1.1363  2.6123
 7762SOL     OW23863   7.141   8.101   3.561  0.4096  0.8676  0.1463
 7762SOL    HW123864   7.158   8.096   3.467 -1.0368  1.9213 -0.2236
 7762SOL    HW223865   7.184   8.182   3.589 -0.7678  1.5772 -0.0322
 7763SOL     OW23866   9.691   8.367   9.775  0.1905  0.0260  0.1002
 7763SOL    HW123867   9.765   8.414   9.736  0.2808 -1.0441 -1.1211
 7763SOL    HW223868   9.615   8.399   9.727  0.3010 -1.3053 -1.0268
 7764SOL     OW23869   5.635   9.863   1.783 -0.1146  0.6003  0.3104
 7764SOL    HW123870   5.636   9.768   1.797 -0.8878 -0.0527 -3.1712
 7764SOL    HW223871   5.553   9.892   1.822 -0.2672 -0.2980  0.6870
 7765SOL     OW23872   2.971   9.667   0.490 -0.0327 -0.1716  0.6084
 7765SOL    HW123873   2.898   9.699   0.543  0.3968  0.4363  0.8392
 7765SOL    HW223874   3.044   9.661   0.551  0.6333  1.1270 -0.0196
 7766SOL     OW23875   9.474   6.881   6.430  0.4091  0.1976  0.1801
 7766SOL    HW123876   9.488   6.968   6.393 -0.5612  0.7994  1.1812
 7766SOL    HW223877   9.476   6.894   6.525 -0.2058 -0.7854  0.3439
 7767SOL     OW23878   9.375   0.575   5.705 -0.5767  0.1557  0.6759
 7767SOL    HW123879   9.282   0.570   5.684 -0.8122  1.0944  1.4613
 7767SOL    HW223880   9.378   0.581   5.800  0.3459 -0.9923  0.7351
 7768SOL     OW23881   3.695   1.483   2.142  0.0799  0.2337  0.5115
 7768SOL    HW123882   3.725   1.543   2.074  2.4343 -0.9223  0.4479
 7768SOL    HW223883   3.656   1.410   2.094  0.7655 -0.0833  0.4289
 7769SOL     OW23884   5.750   6.984   2.435  0.4883  0.1552 -0.0186
 7769SOL    HW123885   5.685   6.933   2.483  1.8237 -0.5041  1.1705
 7769SOL    HW223886   5.726   7.075   2.451  0.3919 -0.0661  1.1672
 7770SOL     OW23887   6.762   1.655   0.094 -0.0425 -0.7445 -0.3834
 7770SOL    HW123888   6.835   1.639   0.034  0.8828 -2.1077  1.0287
 7770SOL    HW223889   6.693   1.595   0.065 -1.1685  1.4160 -2.4929
 7771SOL     OW23890   5.628   7.565   2.584  0.2176 -0.4256 -0.8076
 7771SOL    HW123891   5.611   7.631   2.517 -1.9113 -0.2590 -0.1955
 7771SOL    HW223892   5.722   7.547   2.578  0.7014  2.0239 -1.5665
 7772SOL     OW23893   5.160   2.393   0.860  0.2438 -0.2358  0.4638
 7772SOL    HW123894   5.068   2.371   0.851  0.6899 -2.4099  0.7171
 7772SOL    HW223895   5.181   2.374   0.952  0.4998  2.2376  0.9879
 7773SOL     OW23896   1.804   8.049   1.726 -0.5686 -0.3294 -0.3748
 7773SOL    HW123897   1.845   7.963   1.721 -0.1514 -0.3274  1.9789
 7773SOL    HW223898   1.716   8.032   1.758 -1.3735 -0.0365 -2.2682
 7774SOL     OW23899   4.981   2.565   2.398 -0.0738  0.5402  0.4671
 7774SOL    HW123900   5.014   2.644   2.354 -0.2908  0.7433  0.6729
 7774SOL    HW223901   4.986   2.497   2.330 -2.6340  1.3506 -0.6515
 7775SOL     OW23902   4.640   4.238   3.589 -0.2896 -0.1045  0.2961
 7775SOL    HW123903   4.548   4.210   3.582 -0.1995 -0.4831  0.6235
 7775SOL    HW223904   4.635   4.330   3.613 -0.6164  0.8326 -2.9356
 7776SOL     OW23905   1.029   6.131   8.764  0.1195  0.1852 -0.4896
 7776SOL    HW123906   1.021   6.113   8.671 -0.2933  0.3361 -0.4831
 7776SOL    HW223907   1.124   6.127   8.781  0.3950  2.0692 -1.3103
 7777SOL     OW23908   1.072   8.320   2.708 -0.5451 -0.0314  0.1240
 7777SOL    HW123909   1.092   8.227   2.694 -0.3342 -0.1458  1.1390
 7777SOL    HW223910   0.976   8.323   2.712 -0.5405 -0.2628  0.4428
 7778SOL     OW23911   5.760   2.360   1.512 -0.6408  0.3995 -0.6960
 7778SOL    HW123912   5.739   2.413   1.589  1.6523 -0.8562  0.9211
 7778SOL    HW223913   5.815   2.416   1.458 -0.3041  0.5190 -0.2357
 7779SOL     OW23914   8.795   3.293   1.269 -0.1499  0.5517  0.1546
 7779SOL    HW123915   8.878   3.335   1.248 -0.3560  1.2320  0.6622
 7779SOL    HW223916   8.788   3.220   1.208  1.4791 -0.3724  1.0125
 7780SOL     OW23917   3.197   3.048   4.717  0.1140 -0.3600  0.2637
 7780SOL    HW123918   3.227   3.019   4.631  1.3241 -0.1712  0.6037
 7780SOL    HW223919   3.241   3.132   4.731 -1.5940  0.5825  0.2502
 7781SOL     OW23920   4.337   4.764   2.297 -0.3884  0.1969  0.1126
 7781SOL    HW123921   4.318   4.801   2.384  0.1257  0.2103  0.2242
 7781SOL    HW223922   4.295   4.678   2.298  1.5064 -0.7740  1.2334
 7782SOL     OW23923   2.124   3.954   9.198  0.3097 -0.0283  0.1672
 7782SOL    HW123924   2.185   3.898   9.247  0.3254  0.4084  0.6563
 7782SOL    HW223925   2.047   3.960   9.255  0.2540  0.3346  0.0557
 7783SOL     OW23926   2.930   3.003   4.674 -0.3912  0.7262  0.0329
 7783SOL    HW123927   2.961   3.011   4.584 -1.4541  1.5926 -0.2749
 7783SOL    HW223928   3.008   3.020   4.728  0.8214 -2.0952 -0.6726
 7784SOL     OW23929   8.211   0.389   0.642 -0.2314  0.1737 -0.1044
 7784SOL    HW123930   8.159   0.372   0.721  0.5351  2.5825  1.0197
 7784SOL    HW223931   8.254   0.472   0.659  1.1190  0.0660 -2.5168
 7785SOL     OW23932   0.408   1.658   8.391  0.3407 -0.0458 -0.7105
 7785SOL    HW123933   0.347   1.585   8.403  1.1491 -0.6624 -0.1834
 7785SOL    HW223934   0.482   1.636   8.448  0.3562  1.4722 -0.0958
 7786SOL     OW23935   8.123   5.460   3.083 -0.2340 -0.0799 -0.4701
 7786SOL    HW123936   8.078   5.403   3.021 -0.0047 -2.5349  1.4512
 7786SOL    HW223937   8.207   5.417   3.099  1.4944  2.6555 -1.4652
 7787SOL     OW23938   7.693   2.327   5.904  0.5732  0.0240  0.0142
 7787SOL    HW123939   7.684   2.422   5.909 -0.9571 -0.1030  0.2345
 7787SOL    HW223940   7.751   2.312   5.829 -1.1546  1.0875 -1.6404
 7788SOL     OW23941   1.665   9.461   0.374  0.9580 -0.7049  0.4493
 7788SOL    HW123942   1.703   9.462   0.462  2.3656  0.6692 -0.1249
 7788SOL    HW223943   1.741   9.454   0.316  0.3320  1.2368 -0.7100
 7789SOL     OW23944   1.105   2.214   6.809 -0.0316 -0.0003 -0.6092
 7789SOL    HW123945   1.050   2.264   6.748 -0.1893 -0.5784 -0.9582
 7789SOL    HW223946   1.065   2.126   6.809  0.3629 -0.1804 -0.1767
 7790SOL     OW23947   0.126   7.848   3.573  0.2817  0.4691 -0.1893
 7790SOL    HW123948   0.069   7.880   3.643  1.5257 -0.1740  1.1721
 7790SOL    HW223949   0.072   7.784   3.526 -0.5605  0.8637  0.2146
 7791SOL     OW23950   1.998   0.852   8.833  0.1296  0.2604  0.6442
 7791SOL    HW123951   2.084   0.892   8.841  0.8585 -0.8924 -0.8050
 7791SOL    HW223952   1.937   0.921   8.857  1.3208  2.2517 -1.5486
 7792SOL     OW23953   4.856   2.435   4.791  0.1857 -0.1068 -0.3054
 7792SOL    HW123954   4.778   2.460   4.840  0.8979  0.9592  0.3155
 7792SOL    HW223955   4.912   2.393   4.856 -0.2010 -1.6891 -0.9353
 7793SOL     OW23956   5.967   0.959   0.659 -0.5768  0.2261 -0.1788
 7793SOL    HW123957   5.905   0.945   0.588 -0.3755 -0.6813 -0.1930
 7793SOL    HW223958   5.949   1.047   0.690 -1.8111  0.0018 -0.2341
 7794SOL     OW23959   7.360   5.390   5.659 -0.1606 -0.5963 -0.2183
 7794SOL    HW123960   7.326   5.384   5.570 -3.4326  1.0834  0.7747
 7794SOL    HW223961   7.296   5.343   5.713  0.7815 -0.0766  1.4463
 7795SOL     OW23962   8.297   4.533   7.062  0.1470 -0.1910  0.1402
 7795SOL    HW123963   8.256   4.619   7.065 -0.4186 -0.3924 -0.9924
 7795SOL    HW223964   8.364   4.541   6.994  1.1242 -0.2358  1.0731
 7796SOL     OW23965   0.254   3.102   8.536  0.1379 -0.0733 -0.5583
 7796SOL    HW123966   0.274   3.194   8.549  0.9628 -0.2069 -0.8142
 7796SOL    HW223967   0.287   3.082   8.449  0.6659 -0.7882 -0.2087
 7797SOL     OW23968   1.883   7.398   8.890 -0.0071 -0.5168 -0.0008
 7797SOL    HW123969   1.962   7.423   8.842 -0.5902 -1.6013 -1.6003
 7797SOL    HW223970   1.811   7.433   8.838 -0.6234  0.2600  1.3244
 7798SOL     OW23971   4.043   7.527   9.557  0.6732  0.2003  0.9037
 7798SOL    HW123972   4.079   7.438   9.557 -1.5067 -0.7273  0.1587
 7798SOL    HW223973   3.949   7.516   9.570 -0.0553  2.2122 -1.6982
 7799SOL     OW23974   0.186   8.651   5.976  0.7048 -0.0233  0.0247
 7799SOL    HW123975   0.193   8.674   5.883  3.6231 -1.7148 -0.3108
 7799SOL    HW223976   0.223   8.726   6.022  0.9779  0.0625 -0.3277
 7800SOL     OW23977   4.205   3.899   7.448 -0.2734 -0.2477 -0.0459
 7800SOL    HW123978   4.188   3.811   7.481  0.4584  0.4150  2.2464
 7800SOL    HW223979   4.262   3.939   7.513 -0.8403  2.0461 -0.8655
 7801SOL     OW23980   9.361   1.775   4.119  0.1414  0.2984  0.2319
 7801SOL    HW123981   9.372   1.866   4.094  0.7657  0.1924  0.1029
 7801SOL    HW223982   9.266   1.761   4.120  0.0584  0.8180 -0.2207
 7802SOL     OW23983   4.998   2.136   2.981  0.2083 -0.7449 -0.1343
 7802SOL    HW123984   5.065   2.116   3.046 -1.2647 -1.4295  1.2308
 7802SOL    HW223985   4.923   2.166   3.032 -1.4025 -2.4458 -1.3819
 7803SOL     OW23986   8.298   2.592   1.485  0.0959 -0.3991 -0.0129
 7803SOL    HW123987   8.345   2.675   1.469 -0.1170 -0.4447 -0.9633
 7803SOL    HW223988   8.249   2.607   1.565 -0.3624  0.5930 -0.4623
 7804SOL     OW23989   6.358   4.291   0.521 -0.1854  0.0628  0.3146
 7804SOL    HW123990   6.265   4.313   0.524  0.0444  1.0291  0.5799
 7804SOL    HW223991   6.388   4.324   0.436  0.3716  1.7086  1.1113
 7805SOL     OW23992   6.211   0.138   1.434 -0.7355 -0.7072  0.4614
 7805SOL    HW123993   6.186   0.047   1.448  0.9719 -1.1769  0.6620
 7805SOL    HW223994   6.287   0.151   1.492  0.6526  0.0787 -1.4406
 7806SOL     OW23995   0.862   0.508   2.967  0.4441  0.1235  0.1493
 7806SOL    HW123996   0.862   0.572   3.038  0.1901 -0.0175  0.2787
 7806SOL    HW223997   0.932   0.537   2.908 -0.4117  1.2102 -0.3961
 7807SOL     OW23998   2.582   8.495   4.212  0.5298  0.2004  0.1150
 7807SOL    HW123999   2.537   8.521   4.293 -1.5998  0.2911 -1.0424
 7807SOL    HW224000   2.583   8.573   4.158  0.4095 -0.2912 -0.6146
 7808SOL     OW24001   6.794   6.569   9.060  0.0846 -0.4535 -0.7288
 7808SOL    HW124002   6.703   6.541   9.050 -0.5899  0.7217  1.4160
 7808SOL    HW224003   6.796   6.660   9.030  0.4740 -0.3731 -0.4819
 7809SOL     OW24004   8.335   4.038   4.978 -0.8054  0.7400 -0.6147
 7809SOL    HW124005   8.328   4.131   4.956 -1.8666  1.3901  2.0626
 7809SOL    HW224006   8.425   4.016   4.957 -0.4787  2.4292 -1.1910
 7810SOL     OW24007   5.014   4.367   0.500  0.0814  0.1188 -0.1245
 7810SOL    HW124008   4.978   4.351   0.413 -0.7872 -0.4926  0.3376
 7810SOL    HW224009   4.957   4.434   0.538 -0.8349 -1.1358  0.7548
 7811SOL     OW24010   8.176   0.026   5.662  0.2573 -0.4633  0.5342
 7811SOL    HW124011   8.156   0.071   5.580  0.8289  0.3936  0.8557
 7811SOL    HW224012   8.168  -0.067   5.640 -1.9136 -0.2504  0.1030
 7812SOL     OW24013   6.332   1.951   3.851 -0.2679 -0.5928 -0.1977
 7812SOL    HW124014   6.246   1.912   3.865 -0.2411 -0.7675 -0.4911
 7812SOL    HW224015   6.328   1.984   3.761  0.2635 -1.3873 -0.5264
 7813SOL     OW24016   8.604   3.466   1.752 -0.0790 -0.2693 -0.2295
 7813SOL    HW124017   8.688   3.469   1.799  0.5992 -0.3772 -1.4134
 7813SOL    HW224018   8.606   3.383   1.705  0.3527  0.9070 -2.4086
 7814SOL     OW24019   9.531   6.284   3.563  0.3732 -0.3361 -0.5970
 7814SOL    HW124020   9.490   6.219   3.507  1.5184 -1.4712 -0.1612
 7814SOL    HW224021   9.592   6.234   3.618  0.9409  1.0366  0.0752
 7815SOL     OW24022   5.968   1.204   3.177  0.4195  0.3767  0.1759
 7815SOL    HW124023   5.978   1.208   3.272 -1.0506 -1.8323  0.4964
 7815SOL    HW224024   6.010   1.284   3.145  0.2094  1.6048  2.7166
 7816SOL     OW24025   5.640   5.171   5.063 -0.3506 -0.0290 -0.2538
 7816SOL    HW124026   5.594   5.088   5.078 -0.1153  0.1873  2.0428
 7816SOL    HW224027   5.721   5.162   5.113 -0.3535  1.6103  0.0835
 7817SOL     OW24028   5.965   1.734   9.687 -0.0789 -0.3136 -0.0517
 7817SOL    HW124029   5.915   1.813   9.665 -0.7940 -0.6472  0.3355
 7817SOL    HW224030   6.048   1.744   9.641  0.0093  0.8644  0.3298
 7818SOL     OW24031   0.686   7.075   6.356 -0.0296  0.1458  0.2769
 7818SOL    HW124032   0.764   7.066   6.411 -0.2608 -0.0009  0.5869
 7818SOL    HW224033   0.702   7.018   6.281  0.7896  1.2232 -0.3898
 7819SOL     OW24034   9.120   1.873   0.348 -0.0290 -0.1553  0.6878
 7819SOL    HW124035   9.168   1.805   0.396  0.3791 -0.7227 -0.4911
 7819SOL    HW224036   9.130   1.952   0.401  1.5054 -0.4628  0.8893
 7820SOL     OW24037   1.747   5.111   8.981 -0.6334 -0.2589  0.2090
 7820SOL    HW124038   1.841   5.129   8.980 -0.4848 -0.9577  0.6625
 7820SOL    HW224039   1.706   5.197   8.987 -0.0294  0.0675 -0.2534
 7821SOL     OW24040   2.610   0.818   0.005 -0.1035 -0.3015 -0.0865
 7821SOL    HW124041   2.540   0.813   0.070  0.4565  0.9401  0.6649
 7821SOL    HW224042   2.599   0.904  -0.036  1.2261  0.1180  0.3752
 7822SOL     OW24043   1.137   4.954   2.548  0.4436 -0.2404 -0.7464
 7822SOL    HW124044   1.204   4.892   2.578 -2.2240 -2.2991  1.4907
 7822SOL    HW224045   1.154   5.034   2.598 -0.7382 -1.9272  2.6613
 7823SOL     OW24046   4.855   0.322   3.051 -0.4161 -0.1997 -0.3826
 7823SOL    HW124047   4.780   0.267   3.075 -0.1591 -0.6999 -0.6998
 7823SOL    HW224048   4.828   0.411   3.073 -1.9661 -0.0699 -2.5185
 7824SOL     OW24049   6.511   6.525   6.192  0.2600  0.5706 -0.2288
 7824SOL    HW124050   6.573   6.552   6.124  1.0929  0.6462  0.5424
 7824SOL    HW224051   6.448   6.597   6.197 -0.5679 -0.0012 -1.7939
 7825SOL     OW24052   5.495   7.145   7.800 -0.6252  0.7186  0.2921
 7825SOL    HW124053   5.512   7.067   7.854 -1.4747  0.8464  0.7611
 7825SOL    HW224054   5.580   7.189   7.794 -0.5838  0.9475  1.9224
 7826SOL     OW24055   1.927   2.073   0.215 -0.1208 -0.0103  0.1474
 7826SOL    HW124056   1.999   2.011   0.204 -1.5817 -2.0810  1.5015
 7826SOL    HW224057   1.946   2.117   0.298  1.0506  1.6642 -0.9370
 7827SOL     OW24058   1.589   9.416   1.721  0.4001  0.3920  0.6401
 7827SOL    HW124059   1.680   9.437   1.698  0.1195  1.1472  0.1765
 7827SOL    HW224060   1.558   9.364   1.647  0.3063  0.5552  0.5648
 7828SOL     OW24061   8.005   9.008   0.770  0.9337  0.0637  0.2036
 7828SOL    HW124062   7.986   8.926   0.815  0.3420  0.3347  0.4567
 7828SOL    HW224063   8.043   8.981   0.686  1.5407 -0.4508  0.6285
 7829SOL     OW24064   6.173   7.270   1.870  0.1240 -0.3092  0.0183
 7829SOL    HW124065   6.260   7.274   1.908  1.0895  0.9879 -2.1354
 7829SOL    HW224066   6.180   7.319   1.788 -2.0552 -2.0211 -1.3182
 7830SOL     OW24067   1.588   5.762   3.349  0.3110 -0.1839 -0.1287
 7830SOL    HW124068   1.634   5.739   3.430  0.9948 -0.3385 -0.5491
 7830SOL    HW224069   1.557   5.678   3.315  2.0294 -0.4260 -1.2024
 7831SOL     OW24070   6.328   5.846   7.274  0.7026  0.0737 -0.6279
 7831SOL    HW124071   6.271   5.787   7.323  2.0394  0.0123  0.9604
 7831SOL    HW224072   6.306   5.933   7.307  1.6739  0.0221  0.2246
 7832SOL     OW24073   2.609   2.627   5.642  0.2082  0.2376  0.1742
 7832SOL    HW124074   2.604   2.532   5.646 -0.5488  0.2725  0.2276
 7832SOL    HW224075   2.578   2.656   5.728  2.8409  0.4799  1.1141
 7833SOL     OW24076   9.051   7.322   3.646 -0.1588  0.1530 -0.5810
 7833SOL    HW124077   9.022   7.294   3.559  0.8154 -0.1596 -0.8202
 7833SOL    HW224078   9.044   7.242   3.700 -0.3063  0.2282 -0.4862
 7834SOL     OW24079   1.352   5.775   8.190 -0.4734 -0.5112 -0.2330
 7834SOL    HW124080   1.296   5.787   8.268  0.2179 -0.7462  0.3097
 7834SOL    HW224081   1.301   5.718   8.133 -0.6448 -1.0308  0.4187
 7835SOL     OW24082   2.284   2.164   8.650 -0.3267  0.0380  0.2039
 7835SOL    HW124083   2.201   2.183   8.605  0.3565  0.3041 -0.9741
 7835SOL    HW224084   2.343   2.233   8.621  0.5310 -0.5852  0.4403
 7836SOL     OW24085   9.229   0.061   2.315  0.0649  0.1686 -0.4671
 7836SOL    HW124086   9.175   0.075   2.238 -1.5785  1.0165  0.7576
 7836SOL    HW224087   9.306   0.116   2.301 -1.5765  2.6704 -0.2678
 7837SOL     OW24088   7.070   7.804   2.332  0.1589  0.5199  0.1282
 7837SOL    HW124089   7.027   7.735   2.282  3.1027 -0.2626 -1.5918
 7837SOL    HW224090   7.042   7.885   2.290 -0.7821  0.1735  0.0633
 7838SOL     OW24091   6.172   6.644   0.362 -0.0226 -0.2413  0.1727
 7838SOL    HW124092   6.087   6.662   0.402  0.1679 -1.3671  1.1252
 7838SOL    HW224093   6.221   6.726   0.370 -1.4151  0.8202 -1.5018
 7839SOL     OW24094   8.794   1.363   2.722 -0.8421  0.0871  0.7733
 7839SOL    HW124095   8.714   1.310   2.721 -0.7324 -0.0830  0.9561
 7839SOL    HW224096   8.863   1.303   2.694 -0.9034  0.4437 -0.1786
 7840SOL     OW24097   8.646   5.188   7.384 -0.3437 -0.1085 -0.0253
 7840SOL    HW124098   8.592   5.145   7.450  2.9346 -2.0203  1.7039
 7840SOL    HW224099   8.662   5.275   7.419  1.0862 -0.9910  1.7056
 7841SOL     OW24100   6.549   4.839   5.599 -0.0711  0.3783  0.1176
 7841SOL    HW124101   6.563   4.923   5.556  0.6459  0.3102  0.1965
 7841SOL    HW224102   6.461   4.845   5.635  0.6107  1.8199  1.7043
 7842SOL     OW24103   0.688   5.310   1.317 -0.5903  0.1417 -0.4235
 7842SOL    HW124104   0.684   5.388   1.372 -1.3747 -0.3961  0.3196
 7842SOL    HW224105   0.782   5.296   1.302 -0.3093  0.0106  1.2428
 7843SOL     OW24106   0.527   9.103   7.612  0.2250 -0.3638  0.2202
 7843SOL    HW124107   0.516   9.051   7.532 -0.6499  0.0467  0.0593
 7843SOL    HW224108   0.462   9.173   7.604  1.3260  0.7154  0.4684
 7844SOL     OW24109   1.263   4.486   3.518 -0.0671 -0.3243  0.3293
 7844SOL    HW124110   1.170   4.477   3.494 -0.3356  0.7113  0.9091
 7844SOL    HW224111   1.309   4.425   3.460 -0.8810  0.7406 -1.5414
 7845SOL     OW24112   3.324   9.155   7.660  0.5320  0.1080  0.8676
 7845SOL    HW124113   3.404   9.200   7.686 -0.2465  1.5934  0.7821
 7845SOL    HW224114   3.260   9.225   7.646  0.4502 -0.6181 -3.7290
 7846SOL     OW24115   1.528   7.990   5.277  0.1159  0.3205 -0.7147
 7846SOL    HW124116   1.552   8.043   5.353  0.5292  0.2294 -0.7807
 7846SOL    HW224117   1.509   8.053   5.208  0.7117  0.3848 -0.8249
 7847SOL     OW24118   0.273   4.434   1.106 -0.1121  0.2672 -0.1166
 7847SOL    HW124119   0.287   4.420   1.200  0.1726 -0.0208 -0.1964
 7847SOL    HW224120   0.224   4.516   1.100 -1.4946 -0.4911  0.3689
 7848SOL     OW24121   4.010   0.518   9.840  0.5030  0.0049 -0.3919
 7848SOL    HW124122   3.964   0.602   9.838 -0.8830 -0.7256  0.1154
 7848SOL    HW224123   4.008   0.487   9.750 -0.3833 -0.2238 -0.2949
 7849SOL     OW24124   5.019   6.915   5.157 -0.0739 -0.0247  0.4647
 7849SOL    HW124125   5.065   6.955   5.083  1.1046 -0.7931  0.7581
 7849SOL    HW224126   4.928   6.909   5.128 -0.1955  2.2691  0.1787
 7850SOL     OW24127   2.612   8.964   7.897  0.6291 -0.0894 -0.0323
 7850SOL    HW124128   2.673   8.892   7.909  1.0796  0.5237  1.6470
 7850SOL    HW224129   2.527   8.930   7.923  0.7572 -0.1429  0.3104
 7851SOL     OW24130   0.321   5.811   5.940  0.0744  0.4223 -0.1119
 7851SOL    HW124131   0.282   5.773   5.862  0.3782 -1.5478  0.6477
 7851SOL    HW224132   0.391   5.868   5.906  0.5125 -0.7581 -1.2924
 7852SOL     OW24133   5.404   8.467   4.539  0.0581  0.3174  0.0631
 7852SOL    HW124134   5.481   8.520   4.561 -0.8892  0.6872  2.8799
 7852SOL    HW224135   5.330   8.521   4.565 -0.9804 -1.9915  2.4079
 7853SOL     OW24136   4.666   9.884   6.968 -0.3221 -0.1285 -0.3148
 7853SOL    HW124137   4.755   9.884   7.004 -0.4635 -2.0692  0.1411
 7853SOL    HW224138   4.612   9.918   7.040 -0.2549 -1.3873  0.3534
 7854SOL     OW24139   1.288   9.527   3.101 -0.0895 -0.2097 -0.5381
 7854SOL    HW124140   1.286   9.444   3.053  1.1440  0.1021 -1.1520
 7854SOL    HW224141   1.325   9.503   3.187  1.6958 -0.0776 -1.2292
 7855SOL     OW24142   2.192   9.977   4.508 -0.2791 -0.4361  0.3955
 7855SOL    HW124143   2.099   9.998   4.519 -0.5115 -1.1496 -0.1268
 7855SOL    HW224144   2.192   9.892   4.464  0.6109 -1.8525  2.9667
 7856SOL     OW24145   9.388   6.773   1.565 -0.0893 -0.2412  0.4499
 7856SOL    HW124146   9.334   6.735   1.496 -0.5947  1.5515 -0.2100
 7856SOL    HW224147   9.331   6.773   1.642 -0.2784 -0.2994  0.3121
 7857SOL     OW24148   4.060   1.055   1.344 -0.2122 -0.4699  0.6353
 7857SOL    HW124149   4.136   0.998   1.351  1.1761  1.2290  0.1618
 7857SOL    HW224150   4.009   1.037   1.423  1.7219 -0.2294  2.0034
 7858SOL     OW24151   8.434   0.465   6.784 -0.1845  0.2802  0.0248
 7858SOL    HW124152   8.358   0.427   6.829  0.1633  0.3168  0.6604
 7858SOL    HW224153   8.506   0.405   6.804  0.2818  1.0358  0.6934
 7859SOL     OW24154   6.982   3.495   7.922 -0.5252  0.3290 -0.1116
 7859SOL    HW124155   6.896   3.510   7.962 -0.4064  1.1823 -0.1691
 7859SOL    HW224156   7.045   3.528   7.986 -0.1347 -1.6560  0.6056
 7860SOL     OW24157   7.784   8.562   7.186  0.2238  0.1751 -0.5586
 7860SOL    HW124158   7.705   8.616   7.181  0.1967  0.1015 -0.9476
 7860SOL    HW224159   7.765   8.487   7.129  0.9733  0.6639 -1.4535
 7861SOL     OW24160   2.226   2.111   3.471 -0.1787  0.0174 -0.2184
 7861SOL    HW124161   2.270   2.037   3.513 -0.1806 -1.2400 -2.3134
 7861SOL    HW224162   2.291   2.182   3.473  0.2685 -0.4011  0.7088
 7862SOL     OW24163   8.494   7.447   6.692 -0.5884  0.1220 -0.4261
 7862SOL    HW124164   8.555   7.393   6.744  0.7255  1.3366 -0.6668
 7862SOL    HW224165   8.476   7.394   6.614  0.3315 -0.1747 -0.4501
 7863SOL     OW24166   2.515   5.919   6.624 -0.2417  0.0824 -0.0759
 7863SOL    HW124167   2.584   5.979   6.595 -1.2138  1.6587  0.7672
 7863SOL    HW224168   2.502   5.861   6.549  2.3268 -0.6192 -0.0906
 7864SOL     OW24169   8.030   4.540   0.053 -0.0221  0.1808 -0.5213
 7864SOL    HW124170   7.941   4.511   0.071  1.3377 -3.2204  1.6382
 7864SOL    HW224171   8.042   4.522  -0.041 -1.2628 -0.2923 -0.6128
 7865SOL     OW24172   8.846   9.830   0.279 -0.2995 -0.0572  0.0353
 7865SOL    HW124173   8.936   9.860   0.295 -0.4335 -0.5742  1.9442
 7865SOL    HW224174   8.812   9.807   0.365 -1.0104 -3.3935 -0.9901
 7866SOL     OW24175   2.370   1.845   5.351  0.3106 -0.1204  0.3729
 7866SOL    HW124176   2.355   1.756   5.318 -0.3845  0.1116  0.0358
 7866SOL    HW224177   2.436   1.834   5.419 -0.8093 -1.0963  1.3467
 7867SOL     OW24178   8.905   8.782   2.927  0.1136  0.1910 -0.4734
 7867SOL    HW124179   8.902   8.690   2.903  2.1065  0.2422 -1.0483
 7867SOL    HW224180   8.923   8.782   3.021  0.8664 -0.0285 -0.6105
 7868SOL     OW24181   1.187   4.230   6.869 -0.0915  0.9299 -0.3125
 7868SOL    HW124182   1.122   4.295   6.898  0.3894  0.5755  1.6596
 7868SOL    HW224183   1.236   4.208   6.948  2.4400  1.1558 -1.7375
 7869SOL     OW24184   3.403   8.110   3.520 -0.3656  0.3447 -0.4771
 7869SOL    HW124185   3.417   8.113   3.615  0.1192  1.5714 -0.5798
 7869SOL    HW224186   3.486   8.078   3.485 -1.3684 -2.7248 -0.3434
 7870SOL     OW24187   6.238   5.850   0.423 -0.1963 -0.0626 -0.0340
 7870SOL    HW124188   6.191   5.868   0.341  1.7266 -1.1031 -1.4622
 7870SOL    HW224189   6.324   5.891   0.410  0.5246 -1.1752  0.9973
 7871SOL     OW24190   8.567   1.393   0.715  0.7352 -0.0639  0.5513
 7871SOL    HW124191   8.644   1.413   0.770 -0.5623  0.1875  2.3739
 7871SOL    HW224192   8.573   1.299   0.699  2.1550  0.1807 -0.5325
 7872SOL     OW24193   0.178   8.468   5.050 -0.5938 -0.2202 -0.0894
 7872SOL    HW124194   0.187   8.445   4.958 -0.5885  1.4854 -0.5298
 7872SOL    HW224195   0.148   8.559   5.050  0.8130  0.2941  1.6003
 7873SOL     OW24196   8.582   4.248   7.644 -0.6765  0.7118 -0.2423
 7873SOL    HW124197   8.489   4.229   7.650 -0.4765 -0.5953 -0.8962
 7873SOL    HW224198   8.624   4.176   7.691 -0.0257  2.1854  1.5696
 7874SOL     OW24199   8.299   4.956   7.763  0.0759  0.8323 -0.2608
 7874SOL    HW124200   8.282   5.044   7.797 -1.0016  0.9823 -1.0953
 7874SOL    HW224201   8.225   4.940   7.703 -0.0706 -0.8831  0.3396
 7875SOL     OW24202   0.077   1.565   4.718 -0.0460  1.1214  0.7874
 7875SOL    HW124203  -0.018   1.577   4.722 -0.3965 -1.2838  0.7928
 7875SOL    HW224204   0.101   1.530   4.804  0.8037  1.3092  0.6390
 7876SOL     OW24205   8.150   5.885   3.378  0.5245 -0.3872  0.1024
 7876SOL    HW124206   8.229   5.938   3.368 -0.2306  1.6960  3.5996
 7876SOL    HW224207   8.182   5.797   3.396  1.9021 -0.3358 -1.8177
 7877SOL     OW24208   5.079   6.868   5.545 -0.2210 -0.6128 -0.7892
 7877SOL    HW124209   5.122   6.947   5.512  2.3660 -0.7715  1.7913
 7877SOL    HW224210   5.024   6.898   5.617  0.1503 -1.0776 -0.3081
 7878SOL     OW24211   2.298   4.058   1.802  0.6636 -0.2001  0.6284
 7878SOL    HW124212   2.284   4.136   1.748 -1.2809 -0.7469  0.2318
 7878SOL    HW224213   2.265   3.986   1.748 -1.3863 -0.7698  2.4986
 7879SOL     OW24214   2.278   8.038   8.115 -0.5990  0.3573  0.3145
 7879SOL    HW124215   2.225   7.980   8.060  0.3658  1.7757 -2.2368
 7879SOL    HW224216   2.257   8.126   8.085  0.9716  1.1298  1.3256
 7880SOL     OW24217   6.332   0.551   6.781 -0.4038 -0.3926 -0.4214
 7880SOL    HW124218   6.332   0.557   6.877 -1.0433  0.7389 -0.4769
 7880SOL    HW224219   6.339   0.457   6.763 -0.7769 -0.6569  0.7368
 7881SOL     OW24220   2.464   1.076   8.913 -0.6980 -0.3854  0.0853
 7881SOL    HW124221   2.517   1.002   8.943 -2.2225 -1.8967 -0.7343
 7881SOL    HW224222   2.459   1.135   8.989  2.6435  0.2144 -0.0044
 7882SOL     OW24223   7.204   9.875   2.632  0.7296  0.5505 -0.2125
 7882SOL    HW124224   7.203   9.820   2.554  2.3467  0.7308 -0.3892
 7882SOL    HW224225   7.159   9.823   2.699  2.4595 -1.1486 -0.2826
 7883SOL     OW24226   4.696   8.140   0.349 -0.4885 -0.4678 -0.5434
 7883SOL    HW124227   4.775   8.167   0.303  0.7750  0.0953  1.7610
 7883SOL    HW224228   4.699   8.044   0.349 -0.5551 -0.4800 -1.6249
 7884SOL     OW24229   4.047   2.127   2.469 -0.2246  0.6548 -0.3827
 7884SOL    HW124230   4.057   2.071   2.392 -1.1943  0.8110 -0.6344
 7884SOL    HW224231   4.039   2.065   2.542 -0.0406  0.4879 -0.5042
 7885SOL     OW24232   1.067   7.771   4.577  0.5445  0.8338  0.6742
 7885SOL    HW124233   1.015   7.848   4.555  1.0097  1.7683  2.5706
 7885SOL    HW224234   1.030   7.740   4.660  0.7726 -0.6173  0.2599
 7886SOL     OW24235   0.819   6.305   7.373  0.3019 -0.3829  0.0859
 7886SOL    HW124236   0.746   6.254   7.408 -0.8109 -0.3651 -2.0466
 7886SOL    HW224237   0.868   6.242   7.319  0.5994  0.1064 -0.2208
 7887SOL     OW24238   3.605   8.523   0.133 -0.1909 -0.2334 -0.1290
 7887SOL    HW124239   3.572   8.488   0.051 -0.1708  0.7250 -0.5538
 7887SOL    HW224240   3.606   8.448   0.192 -0.8039 -0.7963 -0.8169
 7888SOL     OW24241   7.416   9.306   7.183 -0.5515 -0.6074 -0.2761
 7888SOL    HW124242   7.455   9.238   7.128  0.2254 -1.4054  1.2070
 7888SOL    HW224243   7.355   9.259   7.240 -2.0346  0.3281 -1.0166
 7889SOL     OW24244   2.516   8.719   6.131 -0.2513  0.1049  0.3308
 7889SOL    HW124245   2.550   8.643   6.084  0.2621  0.5785 -0.0739
 7889SOL    HW224246   2.548   8.708   6.221  0.1405  0.0414  0.1855
 7890SOL     OW24247   2.147   8.222   3.009 -0.4874  0.2481  0.5368
 7890SOL    HW124248   2.091   8.231   3.086 -1.9383 -1.8678 -0.1795
 7890SOL    HW224249   2.226   8.179   3.041 -0.8153 -0.0482  0.9478
 7891SOL     OW24250   6.784   8.521   4.998  0.1229  0.1188  0.4867
 7891SOL    HW124251   6.842   8.557   4.931 -0.5713  0.2291 -0.0685
 7891SOL    HW224252   6.826   8.542   5.081  0.1527  1.4747  0.1525
 7892SOL     OW24253   0.348   6.085   2.652  0.2465  0.4239  0.6212
 7892SOL    HW124254   0.262   6.075   2.692  0.5230 -0.7883  0.9641
 7892SOL    HW224255   0.396   6.142   2.711  0.0520  0.1344  1.0658
 7893SOL     OW24256   3.325   5.297   9.169 -0.4564 -0.0297  0.1186
 7893SOL    HW124257   3.368   5.358   9.110 -1.0882  0.0274 -0.3024
 7893SOL    HW224258   3.308   5.220   9.115 -1.6260  0.2729  0.0278
 7894SOL     OW24259   6.279   8.306   7.410 -0.1315 -0.4852 -0.7670
 7894SOL    HW124260   6.262   8.319   7.503 -0.6776 -2.3290 -0.5611
 7894SOL    HW224261   6.201   8.339   7.366 -0.1243 -0.1616 -0.5411
 7895SOL     OW24262   6.104   4.524   2.832 -0.0811  0.3680 -0.3137
 7895SOL    HW124263   6.021   4.556   2.868  0.0652  1.6303 -1.0450
 7895SOL    HW224264   6.079   4.477   2.753 -0.1419  0.3112 -0.2609
 7896SOL     OW24265   3.867   1.881   8.495 -0.2483 -0.5383 -0.3937
 7896SOL    HW124266   3.958   1.852   8.493  0.1193  0.2897  1.6234
 7896SOL    HW224267   3.871   1.971   8.527 -1.7663 -0.3741 -0.5742
 7897SOL     OW24268   4.529   5.665   4.338  0.3163  0.0311  0.0552
 7897SOL    HW124269   4.615   5.630   4.359 -0.3690 -0.8967  1.5567
 7897SOL    HW224270   4.483   5.591   4.298  0.1530  0.4575 -0.5480
 7898SOL     OW24271   1.530   9.477   1.996  0.7095 -0.2281  0.0299
 7898SOL    HW124272   1.559   9.468   1.905 -3.5374  0.1628 -1.5917
 7898SOL    HW224273   1.583   9.549   2.031  2.4441 -0.3487 -2.1104
 7899SOL     OW24274   8.193   8.196   6.340 -0.4457 -0.5093  0.0450
 7899SOL    HW124275   8.108   8.227   6.370  0.3374  0.9010  0.8915
 7899SOL    HW224276   8.180   8.102   6.326 -1.9280 -0.4735  0.9293
 7900SOL     OW24277   8.123   6.501   7.984  0.6755  0.2160 -0.3280
 7900SOL    HW124278   8.086   6.413   7.982  0.9503  0.1028 -0.5308
 7900SOL    HW224279   8.182   6.503   7.908  0.2724  0.7440 -0.6378
 7901SOL     OW24280   5.334   2.480   6.944  0.1145 -0.0232 -0.4005
 7901SOL    HW124281   5.426   2.495   6.966 -0.0141  2.3414 -1.2149
 7901SOL    HW224282   5.336   2.444   6.856  0.3216 -2.8238  0.6618
 7902SOL     OW24283   5.585   6.229   3.412 -0.4832 -0.3453  0.3592
 7902SOL    HW124284   5.608   6.169   3.340 -1.3949  0.7723 -0.9202
 7902SOL    HW224285   5.659   6.223   3.473 -0.6993 -3.0411  0.4920
 7903SOL     OW24286   2.899   8.992   1.225 -0.3117 -0.3956  0.2128
 7903SOL    HW124287   2.893   8.983   1.320  1.7290  1.8055  0.6371
 7903SOL    HW224288   2.822   9.044   1.200  0.2068  0.7815  0.9907
 7904SOL     OW24289   9.923   9.225   3.778 -0.5605 -0.3168  0.0044
 7904SOL    HW124290   9.917   9.153   3.840 -0.0378 -0.7318 -0.4239
 7904SOL    HW224291   9.913   9.185   3.692 -1.0906  0.2303 -0.1996
 7905SOL     OW24292   1.096   6.712   8.290 -0.0527 -0.3737  0.2710
 7905SOL    HW124293   1.149   6.686   8.365  0.6363 -2.0444 -0.7553
 7905SOL    HW224294   1.137   6.669   8.215  0.7586  3.1169 -1.4999
 7906SOL     OW24295   2.997   2.022   0.091 -0.3877 -0.1997  0.1640
 7906SOL    HW124296   2.941   2.054   0.162  0.8219  0.6244  0.7860
 7906SOL    HW224297   2.945   2.035   0.011 -1.3532 -0.1439  0.7930
 7907SOL     OW24298   5.272   8.463   3.942  0.1847  0.2090 -0.6024
 7907SOL    HW124299   5.331   8.521   3.991 -0.8479  0.4684  0.3678
 7907SOL    HW224300   5.187   8.473   3.985 -0.6049 -0.0709 -2.0508
 7908SOL     OW24301   3.590   9.672   3.664  0.0596 -0.2856 -0.2407
 7908SOL    HW124302   3.520   9.734   3.645  0.7941  0.7947  0.4901
 7908SOL    HW224303   3.642   9.669   3.584  1.5057  2.0702  0.5194
 7909SOL     OW24304   9.030   1.842   1.204 -0.2338 -0.4913  0.6047
 7909SOL    HW124305   9.034   1.837   1.299  1.6512  0.0611  0.5992
 7909SOL    HW224306   8.952   1.894   1.186 -0.6749 -0.6902  1.8273
 7910SOL     OW24307   2.269   2.285   5.199  0.2533  0.1156  0.2556
 7910SOL    HW124308   2.335   2.216   5.207  0.3762  0.3381  1.1823
 7910SOL    HW224309   2.199   2.245   5.146  0.8400 -0.3291 -0.1963
 7911SOL     OW24310   0.606   6.447   4.740  0.2355  0.2086 -0.2475
 7911SOL    HW124311   0.696   6.431   4.770  0.0514  1.5261  1.1291
 7911SOL    HW224312   0.615   6.466   4.647  1.8494  3.3138  0.3968
 7912SOL     OW24313   8.052   1.429   0.592  0.1975  0.3047 -0.0247
 7912SOL    HW124314   8.026   1.363   0.528 -1.2925 -1.4715  2.2589
 7912SOL    HW224315   8.139   1.402   0.620 -0.7098 -1.2539  1.4618
 7913SOL     OW24316   4.330   3.956   9.726  0.4486  0.0828 -0.0704
 7913SOL    HW124317   4.301   3.902   9.653 -0.6714  2.4078 -1.4546
 7913SOL    HW224318   4.296   3.911   9.804 -0.0241 -1.4191 -1.1029
 7914SOL     OW24319   0.222   9.007   0.429 -0.0281  0.1852  0.1557
 7914SOL    HW124320   0.174   9.048   0.357 -0.5565  1.9291  1.4594
 7914SOL    HW224321   0.218   8.913   0.409 -1.8806  0.4632 -1.0580
 7915SOL     OW24322   8.847   2.286   2.287  0.5237  0.5197 -0.0782
 7915SOL    HW124323   8.836   2.370   2.243  0.6465 -0.1944 -1.5514
 7915SOL    HW224324   8.871   2.308   2.377 -0.3149  2.0477 -0.1948
 7916SOL     OW24325   8.759   1.606   2.843  0.6950  0.1255  0.4999
 7916SOL    HW124326   8.781   1.530   2.789  0.1581  1.1884 -1.2981
 7916SOL    HW224327   8.793   1.584   2.930  1.2513 -1.8194 -0.1514
 7917SOL     OW24328   4.409   0.369   9.942 -0.1777 -0.1875 -0.0228
 7917SOL    HW124329   4.350   0.314   9.994  0.1664 -0.6417 -0.1056
 7917SOL    HW224330   4.366   0.455   9.940 -1.4937 -0.8218 -1.1642
 7918SOL     OW24331   5.591   8.402   8.283 -0.0031  1.1288 -0.1067
 7918SOL    HW124332   5.626   8.488   8.263  0.3505  1.3709  1.4265
 7918SOL    HW224333   5.569   8.406   8.376  0.8807 -0.7077  0.2300
 7919SOL     OW24334   8.552   1.686   5.218 -0.3278  0.2463 -0.4365
 7919SOL    HW124335   8.590   1.618   5.162 -0.1717 -1.2277  1.3649
 7919SOL    HW224336   8.615   1.696   5.289 -1.4586  0.5687  0.5555
 7920SOL     OW24337   7.697   6.080   7.572 -0.4520  0.0199  0.5244
 7920SOL    HW124338   7.701   6.070   7.667 -0.3562  0.0787  0.5266
 7920SOL    HW224339   7.614   6.124   7.556 -1.0010 -0.9842  0.4957
 7921SOL     OW24340   8.241   3.116   6.475 -0.0900 -0.1613  0.0261
 7921SOL    HW124341   8.238   3.179   6.546 -2.3382  1.9695 -1.7631
 7921SOL    HW224342   8.170   3.055   6.495 -0.0931 -0.1372  0.0899
 7922SOL     OW24343   5.357   7.137   6.610  0.1304 -0.0620  0.4275
 7922SOL    HW124344   5.451   7.151   6.621  0.9794 -3.3451 -1.1734
 7922SOL    HW224345   5.330   7.200   6.544  1.8518 -0.6776 -0.9432
 7923SOL     OW24346   3.992   6.283   1.322  0.4229 -0.4954 -0.0585
 7923SOL    HW124347   3.943   6.203   1.301  0.1286 -0.0632 -1.0997
 7923SOL    HW224348   3.930   6.336   1.371  1.3913 -1.8737  2.8435
 7924SOL     OW24349   9.970   0.815   2.340  0.4605 -0.2767  0.0885
 7924SOL    HW124350   9.907   0.804   2.411 -1.9400  0.6503 -1.7806
 7924SOL    HW224351   9.947   0.749   2.276  2.2189 -0.7147 -0.1449
 7925SOL     OW24352   0.899   7.333   6.743 -0.2967  0.6780  0.6785
 7925SOL    HW124353   0.966   7.400   6.730 -1.7220  1.9027 -0.7808
 7925SOL    HW224354   0.870   7.345   6.833  2.5778 -1.0622  1.9937
 7926SOL     OW24355   5.698   5.715   7.411  0.1187 -0.1891 -0.1843
 7926SOL    HW124356   5.635   5.656   7.453  0.9932 -2.2937 -1.6550
 7926SOL    HW224357   5.650   5.750   7.335  0.6895 -1.9137 -1.3939
 7927SOL     OW24358   6.243   3.259   2.387 -0.4430 -0.1788 -0.3496
 7927SOL    HW124359   6.159   3.291   2.419 -0.0654 -0.2977  0.7997
 7927SOL    HW224360   6.245   3.167   2.414  0.2784 -0.0332  0.1286
 7928SOL     OW24361   7.315   2.248   8.292 -0.0872  0.0472  0.3190
 7928SOL    HW124362   7.228   2.287   8.302  0.3728  0.7994  1.6169
 7928SOL    HW224363   7.362   2.307   8.233  0.4023  1.1997  1.7865
 7929SOL     OW24364   3.750   4.993   0.605 -0.3078 -0.4654  0.6278
 7929SOL    HW124365   3.688   4.967   0.673  0.0856 -1.7204  0.5386
 7929SOL    HW224366   3.734   5.086   0.592 -2.1774 -0.7504  0.5888
 7930SOL     OW24367   5.726   3.838   3.276 -0.3957  0.0640 -0.2089
 7930SOL    HW124368   5.696   3.749   3.295 -0.1246 -0.2480 -1.1919
 7930SOL    HW224369   5.664   3.895   3.323 -1.7567 -0.6015 -1.1636
 7931SOL     OW24370   4.924   2.410   4.339  0.1702  0.7500  0.0447
 7931SOL    HW124371   4.878   2.438   4.260  1.7499  1.5820 -0.6285
 7931SOL    HW224372   5.011   2.385   4.308  0.2357 -0.6892  1.2783
 7932SOL     OW24373   5.022   7.914   7.050  0.0410 -0.1351 -0.4664
 7932SOL    HW124374   5.025   7.936   6.957  0.0290  0.2070 -0.3886
 7932SOL    HW224375   5.050   7.823   7.055 -1.6967 -0.7256 -0.9930
 7933SOL     OW24376   8.669   5.448   7.492 -0.0110 -0.1315  0.8634
 7933SOL    HW124377   8.757   5.438   7.457  0.1131  1.0616  0.7918
 7933SOL    HW224378   8.639   5.532   7.457 -1.1726 -0.5181  0.8983
 7934SOL     OW24379   0.977   7.921   8.715 -0.1217  0.3912  0.7174
 7934SOL    HW124380   0.992   7.882   8.801 -0.8883 -1.0012  0.2457
 7934SOL    HW224381   0.882   7.929   8.708 -0.2950 -1.9416 -0.9718
 7935SOL     OW24382   1.041   3.015   1.361 -0.7058 -0.1976  0.4495
 7935SOL    HW124383   1.127   3.044   1.331 -0.0613 -0.6168  1.8173
 7935SOL    HW224384   1.053   2.925   1.388 -1.2579  0.1164  1.8349
 7936SOL     OW24385   3.183   3.912   0.859 -0.1566  0.4540  0.4265
 7936SOL    HW124386   3.261   3.966   0.862  0.1264 -0.0076  2.6048
 7936SOL    HW224387   3.214   3.823   0.877 -0.7788 -0.3131 -1.9200
 7937SOL     OW24388   8.362   8.911   0.998  0.3232  0.1425 -0.1460
 7937SOL    HW124389   8.343   8.859   0.920 -0.1884 -0.7967  0.5837
 7937SOL    HW224390   8.449   8.883   1.025  0.0545 -0.3290  0.2379
 7938SOL     OW24391   7.186   0.150   9.208  0.4543 -0.1205  0.2885
 7938SOL    HW124392   7.281   0.164   9.204  0.5224 -0.4828  0.5446
 7938SOL    HW224393   7.166   0.155   9.302  0.4145 -1.2430  0.3520
 7939SOL     OW24394   3.357   8.443   8.811  0.1380 -0.3166 -0.0813
 7939SOL    HW124395   3.371   8.411   8.900  0.0164 -0.1600 -0.0063
 7939SOL    HW224396   3.275   8.493   8.816 -0.8759 -1.8415 -0.6638
 7940SOL     OW24397   6.777   3.626   5.060 -0.1578  0.0951 -0.2974
 7940SOL    HW124398   6.775   3.531   5.075 -1.9928 -0.2856 -2.3592
 7940SOL    HW224399   6.860   3.642   5.015  0.4263 -0.4239  0.5738
 7941SOL     OW24400   2.548   9.555   6.104 -0.4299 -0.4835  0.5280
 7941SOL    HW124401   2.639   9.575   6.130 -0.6389  0.1888  0.7701
 7941SOL    HW224402   2.554   9.472   6.058  0.4207 -0.0840 -0.1085
 7942SOL     OW24403   8.962   8.778   2.582 -0.2017 -0.5276 -0.1342
 7942SOL    HW124404   8.877   8.734   2.589 -0.1132 -0.6698  0.0872
 7942SOL    HW224405   8.980   8.809   2.671  0.9452 -2.3202  0.3087
 7943SOL     OW24406   7.534   3.192   6.216  0.2160 -0.5453 -0.1128
 7943SOL    HW124407   7.620   3.233   6.205 -0.4581  1.4852  1.4840
 7943SOL    HW224408   7.546   3.102   6.187  2.7851 -0.2275 -0.2261
 7944SOL     OW24409   8.265   8.998   4.197 -0.6970  1.0460 -0.0516
 7944SOL    HW124410   8.319   9.037   4.266 -0.5118 -0.8159  0.9252
 7944SOL    HW224411   8.178   8.993   4.234 -0.4212 -0.7727  0.4446
 7945SOL     OW24412   1.312   1.506   1.304  0.0193 -0.0593  0.2237
 7945SOL    HW124413   1.344   1.423   1.340 -0.2052 -1.4118 -2.4307
 7945SOL    HW224414   1.305   1.490   1.210 -1.5080  2.5126 -0.1975
 7946SOL     OW24415   2.970   3.939   3.911 -0.3759 -0.0293 -0.2271
 7946SOL    HW124416   2.893   3.973   3.865 -0.0095  0.0842 -0.7638
 7946SOL    HW224417   3.040   3.999   3.889 -0.0906 -0.2265  0.1276
 7947SOL     OW24418   8.679   5.276   4.037 -0.3921 -0.0963 -0.5076
 7947SOL    HW124419   8.638   5.224   4.107 -1.1552 -2.4034 -2.5192
 7947SOL    HW224420   8.630   5.252   3.958  1.1134  1.5981 -2.0448
 7948SOL     OW24421   5.895   1.957   2.610 -0.3079 -0.5664 -0.3339
 7948SOL    HW124422   5.903   1.984   2.702  0.9267 -0.4539 -0.4515
 7948SOL    HW224423   5.953   1.881   2.603  1.9645  1.1666 -1.6564
 7949SOL     OW24424   4.006   5.772   2.474 -0.4057 -0.3803 -0.1328
 7949SOL    HW124425   3.911   5.765   2.485 -0.3319 -0.7645  0.2742
 7949SOL    HW224426   4.043   5.712   2.539  0.1478  1.0484  0.9326
 7950SOL     OW24427   3.159   2.009   6.888  0.0784 -0.1036  0.6649
 7950SOL    HW124428   3.149   2.062   6.967  2.1584  0.6907  0.4709
 7950SOL    HW224429   3.201   2.067   6.825  2.6235 -1.9230  0.5001
 7951SOL     OW24430   9.777   0.892   7.185  0.1226 -0.0848  0.2745
 7951SOL    HW124431   9.849   0.954   7.195 -0.7102  1.3019 -1.5634
 7951SOL    HW224432   9.757   0.895   7.091 -3.1750  0.6594  0.8638
 7952SOL     OW24433   2.098   9.390   0.425  0.7039 -0.5444  0.3795
 7952SOL    HW124434   2.041   9.334   0.372 -3.0276  3.0062  0.1016
 7952SOL    HW224435   2.101   9.348   0.510  0.3714 -2.4830 -0.5074
 7953SOL     OW24436   0.861   1.178   8.587 -0.8527 -0.0013 -0.1272
 7953SOL    HW124437   0.834   1.258   8.542  0.7040  1.3861  1.2513
 7953SOL    HW224438   0.957   1.183   8.590 -0.6499 -2.3418 -0.6895
 7954SOL     OW24439   9.153   4.593   2.935  0.2169  0.7708 -0.2223
 7954SOL    HW124440   9.147   4.613   2.842  0.4300  1.0583 -0.1754
 7954SOL    HW224441   9.182   4.502   2.939  0.3772  0.8135 -0.4328
 7955SOL     OW24442   2.996   8.907   3.506 -1.0842  0.1869  0.3023
 7955SOL    HW124443   3.069   8.902   3.567 -1.7535 -1.3960  1.0126
 7955SOL    HW224444   2.943   8.830   3.525 -0.8211 -0.9286 -2.9107
 7956SOL     OW24445   5.792   6.010   6.300 -0.6219 -0.0593  0.4263
 7956SOL    HW124446   5.823   5.979   6.215 -1.1040  0.8680 -0.1146
 7956SOL    HW224447   5.705   5.971   6.309 -1.2538  1.1358 -0.2824
 7957SOL     OW24448   4.806   3.079   8.990  0.2695  0.1471  0.1550
 7957SOL    HW124449   4.786   3.145   8.923 -1.2965 -0.2819  0.1484
 7957SOL    HW224450   4.820   2.998   8.940 -1.3645 -0.2783  0.3237
 7958SOL     OW24451   8.273   0.579   3.306  0.1840 -0.4079 -0.2803
 7958SOL    HW124452   8.341   0.647   3.302 -1.5860  1.6399  1.6132
 7958SOL    HW224453   8.291   0.532   3.387  0.7299 -1.5365 -1.0225
 7959SOL     OW24454   2.551   6.800   9.458  0.0075  0.6011 -0.0029
 7959SOL    HW124455   2.513   6.725   9.505 -0.5932  0.7883 -0.1791
 7959SOL    HW224456   2.587   6.762   9.378  0.8858  0.3062  0.5236
 7960SOL     OW24457   9.614   1.125   1.096 -0.8624  0.0110 -0.7579
 7960SOL    HW124458   9.584   1.206   1.136  0.0427  0.4395 -0.9313
 7960SOL    HW224459   9.677   1.152   1.030 -0.8537 -0.8113 -1.1048
 7961SOL     OW24460   2.930   8.820   0.338 -0.3899  0.1885  0.4815
 7961SOL    HW124461   2.935   8.911   0.307 -1.8000  0.0064 -0.3562
 7961SOL    HW224462   2.964   8.768   0.266  1.4876  0.0852  1.3913
 7962SOL     OW24463   3.524   4.155   2.414  0.7341  0.3869  0.5456
 7962SOL    HW124464   3.527   4.228   2.352 -2.3250 -0.4878 -0.7992
 7962SOL    HW224465   3.547   4.079   2.361  0.7861 -0.0309  1.1638
 7963SOL     OW24466   1.380   4.432   1.032  0.0201 -0.3423  0.3869
 7963SOL    HW124467   1.445   4.427   0.962  0.3914 -1.3599  0.7926
 7963SOL    HW224468   1.308   4.482   0.993 -0.6695 -2.5546 -1.4681
 7964SOL     OW24469   1.106   7.886   1.470  0.1252  0.1379 -0.3385
 7964SOL    HW124470   1.013   7.866   1.479  0.1012  0.0293 -0.7789
 7964SOL    HW224471   1.131   7.924   1.554 -0.6592  1.5661 -0.7232
 7965SOL     OW24472   4.258   3.669   4.479  0.1208 -0.0283  0.4230
 7965SOL    HW124473   4.320   3.599   4.501 -0.0003 -0.0653  0.6460
 7965SOL    HW224474   4.220   3.642   4.396  1.7126  0.8584 -0.6496
 7966SOL     OW24475   5.053   7.393   5.835  0.1899 -0.3500 -0.0928
 7966SOL    HW124476   5.123   7.335   5.807 -0.9807 -2.1028  0.4488
 7966SOL    HW224477   4.977   7.368   5.781 -1.4884 -2.2751  2.8989
 7967SOL     OW24478   7.680   4.634   8.331 -0.5076 -0.3101 -0.3834
 7967SOL    HW124479   7.690   4.603   8.421  1.5954 -0.4640 -0.6083
 7967SOL    HW224480   7.614   4.702   8.336 -0.5494 -0.4337  1.2509
 7968SOL     OW24481   0.676   2.337   3.954 -0.3573  0.2612 -0.0584
 7968SOL    HW124482   0.663   2.429   3.932 -1.2186  0.2789  0.4446
 7968SOL    HW224483   0.609   2.291   3.903  0.1642 -0.1040 -0.4193
 7969SOL     OW24484   1.967   3.785   9.851  0.5602 -0.0181  0.2310
 7969SOL    HW124485   1.981   3.879   9.862 -0.9016  0.1752  0.7582
 7969SOL    HW224486   1.965   3.772   9.757 -2.0958  1.0431  0.0380
 7970SOL     OW24487   7.976   8.072   8.354  0.7306 -0.2741  0.1330
 7970SOL    HW124488   7.941   8.068   8.443 -1.9157  3.1994 -0.5852
 7970SOL    HW224489   8.059   8.119   8.364  1.9903 -2.5187  1.0063
 7971SOL     OW24490   1.265   7.039   9.144 -0.4131 -0.1759 -0.5061
 7971SOL    HW124491   1.196   7.070   9.085 -0.6036  0.1504 -0.1119
 7971SOL    HW224492   1.218   7.002   9.218 -0.1787 -1.0627 -0.7916
 7972SOL     OW24493   7.172   2.292   3.947 -0.6555 -0.3934 -0.2614
 7972SOL    HW124494   7.127   2.238   3.882  0.3538 -0.3127 -1.0461
 7972SOL    HW224495   7.172   2.380   3.908 -0.5072 -0.2357  0.0956
 7973SOL     OW24496   8.933   1.527   1.447 -0.5821  0.0102  0.0184
 7973SOL    HW124497   8.944   1.622   1.460 -1.4731  0.3435 -1.4022
 7973SOL    HW224498   8.871   1.501   1.515  1.3795 -0.0376  1.8845
 7974SOL     OW24499   2.620   8.279   3.714 -0.0165  0.5234  0.3821
 7974SOL    HW124500   2.692   8.331   3.677  0.8956 -1.5310 -0.8900
 7974SOL    HW224501   2.545   8.300   3.658  0.4554  0.1894 -0.4021
 7975SOL     OW24502   5.641   5.810   7.673  0.3479 -0.0054 -0.3983
 7975SOL    HW124503   5.656   5.753   7.598 -0.7016 -0.7627 -0.0581
 7975SOL    HW224504   5.590   5.883   7.638  1.3632  0.5435 -0.7582
 7976SOL     OW24505   8.348   3.771   5.913 -0.4474  0.1032 -0.2105
 7976SOL    HW124506   8.351   3.866   5.903 -1.8316  0.1623 -0.3381
 7976SOL    HW224507   8.268   3.755   5.964 -0.3606 -0.9980 -0.3933
 7977SOL     OW24508   0.976   3.820   4.656  0.5730  0.1203  0.1005
 7977SOL    HW124509   1.005   3.909   4.634  1.5715  0.4009  2.3410
 7977SOL    HW224510   1.032   3.763   4.603 -0.1371  0.7731 -1.4303
 7978SOL     OW24511   1.226   0.297   1.998 -0.6317 -0.5714 -0.0480
 7978SOL    HW124512   1.294   0.232   2.019 -1.0211 -1.2781 -0.8965
 7978SOL    HW224513   1.226   0.357   2.073  0.1685 -1.1957  0.4704
 7979SOL     OW24514   5.388   9.472   3.599  0.6453  0.0993 -0.0423
 7979SOL    HW124515   5.364   9.395   3.651 -2.1920 -0.6693 -2.1949
 7979SOL    HW224516   5.336   9.543   3.636  2.7781  0.9288  1.5303
 7980SOL     OW24517   3.953   2.443   2.909  0.1089 -0.2684 -1.0026
 7980SOL    HW124518   4.038   2.466   2.872  0.6642  0.2141  0.5034
 7980SOL    HW224519   3.972   2.377   2.975 -0.7109 -0.3174 -0.7936
 7981SOL     OW24520   6.119   2.181   2.124  0.3978  0.3370  0.2802
 7981SOL    HW124521   6.185   2.175   2.056 -1.2825 -1.4799 -1.3092
 7981SOL    HW224522   6.157   2.134   2.199  1.2542  0.0983 -0.2898
 7982SOL     OW24523   8.061   3.495   6.750  0.0495 -1.3199 -0.4402
 7982SOL    HW124524   8.022   3.582   6.762  0.3570 -0.9421 -2.0063
 7982SOL    HW224525   7.998   3.448   6.695  0.9508 -1.2897 -1.5280
 7983SOL     OW24526   8.085   1.396   2.535  0.3442  0.7048 -0.5172
 7983SOL    HW124527   8.073   1.485   2.568 -0.8364  0.3133  0.1695
 7983SOL    HW224528   8.136   1.352   2.603  1.3798  0.9816 -1.0957
 7984SOL     OW24529   7.176   0.003   8.741 -0.0914  0.1439 -0.0775
 7984SOL    HW124530   7.259   0.030   8.702 -0.1819  0.6379  0.0630
 7984SOL    HW224531   7.117  -0.009   8.666  0.6900 -2.3774 -0.3645
 7985SOL     OW24532   9.834   8.198   3.061  1.3618 -0.0859  0.0295
 7985SOL    HW124533   9.914   8.166   3.103  2.6689  1.7772 -0.9246
 7985SOL    HW224534   9.865   8.248   2.986 -0.6965  1.0507 -0.1133
 7986SOL     OW24535   2.099   8.239   1.996  0.2382 -0.5738  0.6272
 7986SOL    HW124536   2.046   8.289   2.058  0.1324 -0.3246  0.3351
 7986SOL    HW224537   2.188   8.269   2.011 -0.1313  1.9770 -1.6369
 7987SOL     OW24538   5.232   1.612   6.955 -0.1731  0.4158  0.1194
 7987SOL    HW124539   5.218   1.706   6.959  0.8518  0.8037 -2.6304
 7987SOL    HW224540   5.324   1.600   6.982 -0.0908  0.3104 -0.1975
 7988SOL     OW24541   4.343   2.022   7.297  0.0928  0.0262  0.4503
 7988SOL    HW124542   4.383   2.001   7.213 -1.1253  0.7150 -0.3234
 7988SOL    HW224543   4.324   1.937   7.337 -1.5731 -0.3762 -1.0876
 7989SOL     OW24544   6.698   0.881   1.466 -0.1452 -0.3377  0.6243
 7989SOL    HW124545   6.684   0.797   1.423  0.6909 -1.4215  2.3264
 7989SOL    HW224546   6.664   0.868   1.555 -0.3531  1.2592  0.8033
 7990SOL     OW24547   3.445   5.414   0.355 -0.5888  0.8047 -0.0785
 7990SOL    HW124548   3.516   5.478   0.365 -0.6720  0.8608  0.1533
 7990SOL    HW224549   3.383   5.456   0.295 -0.9373  1.1969  0.5396
 7991SOL     OW24550   6.558   2.315   3.643 -0.0596 -0.5400 -0.2676
 7991SOL    HW124551   6.542   2.330   3.736 -0.8273 -0.0104 -0.4798
 7991SOL    HW224552   6.528   2.225   3.627 -0.1446 -0.5481 -0.0583
 7992SOL     OW24553   7.029   1.310   7.315 -0.2177  0.0703  0.3186
 7992SOL    HW124554   7.035   1.278   7.405  0.5092  0.7525  0.5237
 7992SOL    HW224555   7.111   1.283   7.275 -0.2670  0.3246  0.0460
 7993SOL     OW24556   4.169   1.541   3.869  0.2793 -0.5338  0.0996
 7993SOL    HW124557   4.120   1.501   3.797 -0.9778 -0.3379  0.8144
 7993SOL    HW224558   4.254   1.563   3.831 -1.1577  1.8735 -2.0952
 7994SOL     OW24559   0.486   3.261   6.258 -0.1101  0.9062  0.5823
 7994SOL    HW124560   0.577   3.269   6.288 -0.4948  2.9967  1.4162
 7994SOL    HW224561   0.484   3.309   6.175 -0.2821  0.1042  0.1142
 7995SOL     OW24562   8.797   9.855   5.989 -0.3963  1.0216 -0.3604
 7995SOL    HW124563   8.845   9.787   6.037 -2.7874  1.2769  2.7083
 7995SOL    HW224564   8.741   9.807   5.929  0.0507  0.4746 -0.3505
 7996SOL     OW24565   5.643   4.671   1.076  0.1291 -0.0855 -0.7305
 7996SOL    HW124566   5.585   4.747   1.070 -1.0107 -0.7544  1.1149
 7996SOL    HW224567   5.624   4.621   0.996  0.2659  1.1149 -1.5394
 7997SOL     OW24568   7.271   0.757   0.123 -0.6415 -0.5489  0.1950
 7997SOL    HW124569   7.301   0.707   0.199  1.2164  0.9945  0.5645
 7997SOL    HW224570   7.216   0.826   0.160 -1.7589 -1.2547 -0.1308
 7998SOL     OW24571   3.909   1.276   0.095 -0.0838  0.1428 -0.1026
 7998SOL    HW124572   3.865   1.338   0.037  0.3684  0.8220  0.2781
 7998SOL    HW224573   3.915   1.321   0.179 -1.0221 -0.9481  0.5849
 7999SOL     OW24574   8.231   3.367   9.732 -0.2059  0.3498  0.5208
 7999SOL    HW124575   8.322   3.341   9.745 -0.8417 -1.4266  1.7481
 7999SOL    HW224576   8.230   3.462   9.747  1.3495  0.3224  0.8800
 8000SOL     OW24577   7.819   6.884   5.707  0.1299  0.1186  0.3751
 8000SOL    HW124578   7.882   6.872   5.635 -1.3369  0.8610 -1.1082
 8000SOL    HW224579   7.804   6.978   5.710 -0.2119  0.0422  1.3551
 8001SOL     OW24580   2.935   0.239   7.802 -0.2763 -0.1231  0.0036
 8001SOL    HW124581   2.871   0.217   7.870 -0.3036  0.1459  0.0658
 8001SOL    HW224582   2.901   0.196   7.723 -1.1352  0.9140 -0.2202
 8002SOL     OW24583   5.046   0.045   0.210  0.3372  0.1168  0.8649
 8002SOL    HW124584   5.092  -0.032   0.244  0.3521 -0.5448 -0.5707
 8002SOL    HW224585   5.098   0.120   0.240  1.3728 -0.5331  0.7103
 8003SOL     OW24586   5.329   4.801   7.338 -0.1807  0.1508 -0.0403
 8003SOL    HW124587   5.277   4.841   7.268 -1.2597  0.1644  0.7430
 8003SOL    HW224588   5.274   4.729   7.370 -0.1141  0.7101  1.3940
 8004SOL     OW24589   1.150   0.572   4.385 -0.0322  0.4422  0.4873
 8004SOL    HW124590   1.176   0.489   4.425  0.3217  0.1150 -0.3870
 8004SOL    HW224591   1.097   0.615   4.452  0.2886 -0.2139  1.1847
 8005SOL     OW24592   7.198   6.479   4.589 -0.2707 -0.8684 -0.0673
 8005SOL    HW124593   7.282   6.504   4.628  0.8420  0.7925 -3.1632
 8005SOL    HW224594   7.148   6.560   4.585 -1.1498 -1.4084 -0.2012
 8006SOL     OW24595   2.709   0.797   8.879  0.1738 -0.2808  0.0825
 8006SOL    HW124596   2.710   0.805   8.975  1.5025 -1.8520  0.2482
 8006SOL    HW224597   2.779   0.854   8.850 -0.5320  0.5562 -0.0125
 8007SOL     OW24598   9.918   5.083   4.684 -0.1354 -0.3611 -0.1865
 8007SOL    HW124599   9.967   5.015   4.730 -0.6243 -0.4912  0.1525
 8007SOL    HW224600   9.881   5.038   4.608 -1.6428 -0.8480  0.7936
 8008SOL     OW24601   8.176   2.634   2.564  0.1280 -0.7789  0.2677
 8008SOL    HW124602   8.215   2.666   2.645 -1.3795  1.1288  0.3168
 8008SOL    HW224603   8.160   2.541   2.580  0.2314 -0.5259  2.0163
 8009SOL     OW24604   6.078   7.102   3.192  0.1311  0.3728 -0.4420
 8009SOL    HW124605   6.153   7.146   3.151 -0.5092  0.2414 -1.7810
 8009SOL    HW224606   6.005   7.161   3.177 -0.3659 -0.2752 -0.5914
 8010SOL     OW24607   8.152   3.233   8.909 -0.4938  0.0214 -0.2508
 8010SOL    HW124608   8.163   3.261   9.000  0.1666  0.5076 -0.4754
 8010SOL    HW224609   8.241   3.217   8.878 -0.6692  0.5235 -1.0230
 8011SOL     OW24610   3.167   9.144   6.582  0.9431 -0.5097 -0.1252
 8011SOL    HW124611   3.179   9.086   6.506  1.9453 -1.4739  0.7342
 8011SOL    HW224612   3.161   9.084   6.657  2.0253  0.5032  0.7960
 8012SOL     OW24613   5.300   7.318   7.693  0.0483 -0.4290  0.6271
 8012SOL    HW124614   5.294   7.359   7.780  3.0807  0.4742  0.5259
 8012SOL    HW224615   5.359   7.244   7.706  0.1651 -0.5572 -0.5861
 8013SOL     OW24616   1.744   5.054   3.216  0.0497 -0.5827 -0.3631
 8013SOL    HW124617   1.806   5.009   3.159  1.2728  0.0145  0.4552
 8013SOL    HW224618   1.756   5.012   3.302 -0.2203 -0.0349 -0.0518
 8014SOL     OW24619   4.907   0.850   8.315 -0.3171 -0.8967  0.4012
 8014SOL    HW124620   4.985   0.841   8.370 -0.4537 -1.0259  0.5768
 8014SOL    HW224621   4.886   0.760   8.290  0.6160 -0.7377 -1.0939
 8015SOL     OW24622   9.510   0.222   9.612 -0.1112 -0.1102  0.1416
 8015SOL    HW124623   9.537   0.130   9.613 -0.8241 -0.3253 -0.1603
 8015SOL    HW224624   9.584   0.269   9.652 -0.4462 -1.0048  1.9237
 8016SOL     OW24625   2.736   7.872   6.046 -0.6332 -0.2692 -0.3553
 8016SOL    HW124626   2.661   7.815   6.029 -0.6997 -0.5291  0.7504
 8016SOL    HW224627   2.808   7.812   6.063 -0.4605 -0.0178 -0.1971
 8017SOL     OW24628   6.006   1.911   1.670 -0.2050  0.2051 -0.0263
 8017SOL    HW124629   5.949   1.934   1.598  0.0100  2.2079  0.3741
 8017SOL    HW224630   5.979   1.823   1.696 -1.5991  0.2443 -1.2476
 8018SOL     OW24631   7.924   6.271   9.872  0.0742  0.4415 -0.1013
 8018SOL    HW124632   7.866   6.197   9.886 -0.0725  0.6959  0.6355
 8018SOL    HW224633   7.941   6.306   9.959  1.8301 -0.0105 -0.2196
 8019SOL     OW24634   3.738   0.931   6.492 -0.4854 -0.5397 -0.3742
 8019SOL    HW124635   3.787   1.007   6.460 -0.8646 -0.3447 -0.5128
 8019SOL    HW224636   3.759   0.925   6.585 -0.0297 -0.5952 -0.4794
 8020SOL     OW24637   9.872   8.521   7.699  0.2970 -0.3880 -0.1797
 8020SOL    HW124638   9.948   8.545   7.646  0.3246 -1.6574 -0.7623
 8020SOL    HW224639   9.880   8.575   7.778  2.5044 -1.3302  0.3401
 8021SOL     OW24640   6.842   7.405   3.798 -0.4996 -0.3871  0.0617
 8021SOL    HW124641   6.805   7.454   3.872  1.6360 -0.9141  1.5595
 8021SOL    HW224642   6.816   7.456   3.721 -0.6255  1.6302  1.3603
 8022SOL     OW24643   0.685   9.546   0.019  0.3489 -0.1600 -0.4330
 8022SOL    HW124644   0.760   9.550   0.078 -0.7648 -1.0544  1.1135
 8022SOL    HW224645   0.693   9.461  -0.025  0.3825 -0.1389 -0.4680
 8023SOL     OW24646   4.181   6.318   5.769 -0.6830 -0.1868  0.2973
 8023SOL    HW124647   4.156   6.409   5.755  0.7506  0.3879  1.2152
 8023SOL    HW224648   4.201   6.285   5.681 -2.8250 -0.1729 -0.2552
 8024SOL     OW24649   8.003   6.978   4.744  0.3708 -0.2351  0.1356
 8024SOL    HW124650   7.966   6.962   4.657 -0.9518  0.3887  0.5476
 8024SOL    HW224651   8.038   7.067   4.740 -0.6693  0.2072  0.5368
 8025SOL     OW24652   2.535   2.899   1.859 -0.2137 -0.2896 -0.0142
 8025SOL    HW124653   2.549   2.827   1.921  1.0555 -0.5821 -0.5944
 8025SOL    HW224654   2.461   2.948   1.895 -0.1449 -1.0204  1.1855
 8026SOL     OW24655   4.879   8.025   0.553 -0.1637  0.9758 -0.0092
 8026SOL    HW124656   4.892   7.931   0.548  0.4434  1.1105 -1.2609
 8026SOL    HW224657   4.784   8.035   0.563 -0.3305  0.2596 -0.7952
 8027SOL     OW24658   7.582   8.353   5.767 -0.2790 -0.6459  0.0291
 8027SOL    HW124659   7.673   8.341   5.739 -0.0370  1.4979 -0.2311
 8027SOL    HW224660   7.534   8.363   5.685 -0.6347 -0.9179  0.2010
 8028SOL     OW24661   8.839   1.211   0.227  0.0274 -0.1702 -0.3231
 8028SOL    HW124662   8.822   1.173   0.313 -1.2879  1.7284  0.3256
 8028SOL    HW224663   8.885   1.143   0.178  1.3911 -1.0585  2.0807
 8029SOL     OW24664   5.364   9.673   2.696 -0.0485 -0.0203 -0.3747
 8029SOL    HW124665   5.382   9.585   2.661 -1.1826 -0.5044  0.2231
 8029SOL    HW224666   5.439   9.725   2.667  0.2853 -1.0058 -1.3619
 8030SOL     OW24667   8.890   0.650   9.560  0.5227 -0.0394  0.2313
 8030SOL    HW124668   8.848   0.573   9.521 -0.6150  0.1894  0.9521
 8030SOL    HW224669   8.974   0.657   9.515 -0.1592 -0.5965 -1.2021
 8031SOL     OW24670   7.875   9.518   1.203 -0.4041 -0.0417  0.1641
 8031SOL    HW124671   7.785   9.547   1.193 -0.7235 -1.7180 -3.3124
 8031SOL    HW224672   7.911   9.520   1.114  2.5357 -0.8259  1.2177
 8032SOL     OW24673   8.583   0.416   9.428 -0.4617 -0.0999  1.2263
 8032SOL    HW124674   8.545   0.480   9.488 -2.1711 -1.6960  1.9539
 8032SOL    HW224675   8.527   0.419   9.350  1.9029  2.1608 -0.5564
 8033SOL     OW24676   5.921   9.053   1.445 -0.4092 -0.1499  0.5004
 8033SOL    HW124677   5.927   9.020   1.355  1.8683 -0.1736  0.5966
 8033SOL    HW224678   5.988   9.004   1.493 -0.0550  1.4076  1.6870
 8034SOL     OW24679   0.357   9.979   4.727  0.3344  0.3536 -0.2899
 8034SOL    HW124680   0.314  10.022   4.653 -0.5496 -0.7899 -0.4631
 8034SOL    HW224681   0.409   9.909   4.688  1.0645  0.6848  0.0614
 8035SOL     OW24682   3.858   0.951   9.532  0.4692  0.0992 -0.5444
 8035SOL    HW124683   3.797   0.948   9.606  0.5783 -1.6081 -0.4772
 8035SOL    HW224684   3.927   1.011   9.561 -1.1308  2.0757 -0.6289
 8036SOL     OW24685   2.338   4.013   9.760 -0.1862  0.3967  0.4765
 8036SOL    HW124686   2.399   4.074   9.718 -0.0022 -0.5509 -0.6642
 8036SOL    HW224687   2.349   4.031   9.854  1.0408  1.0031  0.2484
 8037SOL     OW24688   5.260   3.858   6.922  0.0709  0.4640  0.2264
 8037SOL    HW124689   5.217   3.912   6.989 -1.3871  0.2386 -0.4932
 8037SOL    HW224690   5.346   3.899   6.911  0.9661 -0.3421  3.2360
 8038SOL     OW24691   2.046   1.095   0.929  0.8716 -0.0954 -0.0396
 8038SOL    HW124692   2.123   1.113   0.876 -0.0384  1.5702 -0.8644
 8038SOL    HW224693   2.030   1.002   0.917  1.4265 -0.0088 -1.6695
 8039SOL     OW24694   2.497   2.865   3.266 -0.1438 -0.5866  0.1010
 8039SOL    HW124695   2.572   2.816   3.299 -1.7794 -1.3843  3.0444
 8039SOL    HW224696   2.469   2.919   3.340 -1.5540  0.8920 -1.4054
 8040SOL     OW24697   8.522   3.832   6.764 -0.1492 -0.0317  0.4233
 8040SOL    HW124698   8.583   3.759   6.748 -0.4594 -0.4386  1.0484
 8040SOL    HW224699   8.435   3.794   6.747 -0.2840  0.3077  0.3510
 8041SOL     OW24700   3.104   7.341   1.766  0.2762  0.0439  0.1892
 8041SOL    HW124701   3.178   7.281   1.778 -0.8354 -0.9711  2.5140
 8041SOL    HW224702   3.051   7.299   1.697  1.8013  0.8031 -1.5251
 8042SOL     OW24703   5.760   8.187   0.445 -0.3442  0.2296 -0.1383
 8042SOL    HW124704   5.758   8.099   0.483  0.0450  0.3523  0.1893
 8042SOL    HW224705   5.721   8.243   0.513 -0.9618  0.2559 -0.5099
 8043SOL     OW24706   7.491   9.841   9.659 -0.0659  1.1380  0.0632
 8043SOL    HW124707   7.510   9.839   9.565 -0.7465 -0.8014 -0.0911
 8043SOL    HW224708   7.560   9.788   9.698 -0.4936  0.8855  0.4919
 8044SOL     OW24709   3.721   4.902   9.773 -0.0284  0.4105 -0.2467
 8044SOL    HW124710   3.797   4.895   9.831 -0.3070  1.0014  0.1976
 8044SOL    HW224711   3.653   4.852   9.818  0.3990 -1.0839 -1.1876
 8045SOL     OW24712   8.487   5.046   1.998  0.1906 -0.2449 -0.1382
 8045SOL    HW124713   8.424   5.093   2.053  0.0279 -1.4715  0.7846
 8045SOL    HW224714   8.572   5.071   2.033  0.1135 -0.4413  0.1970
 8046SOL     OW24715   9.381   8.277   8.100 -0.3575  0.0246 -0.1122
 8046SOL    HW124716   9.371   8.245   8.189 -0.6947  0.0058 -0.1551
 8046SOL    HW224717   9.417   8.365   8.110  1.3720 -0.6526 -0.0133
 8047SOL     OW24718   5.580   1.861   8.777  0.3203  0.1975  0.3222
 8047SOL    HW124719   5.557   1.950   8.750 -0.1060  0.2765  0.9170
 8047SOL    HW224720   5.509   1.807   8.741 -0.3466  0.3257  1.3912
 8048SOL     OW24721   5.748   6.425   9.800  0.1805 -0.0294 -0.2394
 8048SOL    HW124722   5.690   6.402   9.873  0.1042 -0.3932 -0.4130
 8048SOL    HW224723   5.791   6.506   9.829  2.8661 -1.9948  1.8095
 8049SOL     OW24724   2.674   6.201   4.670  0.3636 -0.5032 -0.1553
 8049SOL    HW124725   2.674   6.125   4.728 -1.6080 -0.4206  0.0353
 8049SOL    HW224726   2.597   6.189   4.614 -0.2501  1.5295  0.1451
 8050SOL     OW24727   8.992   6.899   9.846 -0.0507  0.0814  0.4409
 8050SOL    HW124728   9.038   6.907   9.763  2.0693 -1.1303  1.4014
 8050SOL    HW224729   8.931   6.825   9.833  2.3175 -2.0654  0.7139
 8051SOL     OW24730   1.717   8.920   6.593  0.0768 -0.5616 -0.3000
 8051SOL    HW124731   1.713   8.997   6.651 -0.3901 -1.0930  0.3926
 8051SOL    HW224732   1.709   8.845   6.652 -0.4944 -1.1202 -1.0616
 8052SOL     OW24733   3.051   7.647   5.256  0.3444  0.0431 -0.1772
 8052SOL    HW124734   3.036   7.573   5.197 -0.0866  1.3281 -1.7521
 8052SOL    HW224735   2.967   7.662   5.299  0.8013 -1.2427  1.2357
 8053SOL     OW24736   5.050   5.974   7.939 -0.5358  0.3150 -0.0731
 8053SOL    HW124737   5.116   6.036   7.969 -0.6629  0.0728  0.7108
 8053SOL    HW224738   5.022   5.928   8.018 -3.4999  2.1735  0.1024
 8054SOL     OW24739   0.197   2.494   6.531  0.4067  0.6946  0.5568
 8054SOL    HW124740   0.184   2.405   6.563  1.8724 -0.5873 -2.0625
 8054SOL    HW224741   0.234   2.542   6.605  0.5325 -1.1385  1.7312
 8055SOL     OW24742   0.983   5.444   2.386 -0.3197 -0.5245  0.1133
 8055SOL    HW124743   0.945   5.532   2.380  0.6409 -0.1357 -0.6873
 8055SOL    HW224744   0.916   5.391   2.429 -1.0614  0.5188  0.2718
 8056SOL     OW24745   6.092   0.032   6.519  0.0346 -1.0231 -0.2560
 8056SOL    HW124746   6.089   0.091   6.444 -0.5970 -2.0899 -1.1004
 8056SOL    HW224747   6.000   0.009   6.536  0.1440 -0.6520  0.9798
 8057SOL     OW24748   9.781   8.828   4.729  0.1047  0.5194  0.5513
 8057SOL    HW124749   9.792   8.903   4.670 -1.7947  0.2272 -0.2227
 8057SOL    HW224750   9.705   8.781   4.696  0.5066 -1.0880  1.7638
 8058SOL     OW24751   3.981   3.694   7.401 -0.6690  0.4180 -0.1312
 8058SOL    HW124752   3.976   3.605   7.365  0.9821  0.5795 -0.8597
 8058SOL    HW224753   3.977   3.751   7.325  0.6960  0.8444  0.0845
 8059SOL     OW24754   0.613   7.280   0.175 -0.0317 -0.1893  0.2241
 8059SOL    HW124755   0.525   7.242   0.181  0.1216 -0.5736  0.0578
 8059SOL    HW224756   0.603   7.369   0.208 -0.6307 -0.0066 -0.4296
 8060SOL     OW24757   7.063   7.658   1.667 -0.2055 -0.1679 -0.0326
 8060SOL    HW124758   7.156   7.676   1.662  0.4263 -3.0381 -0.3722
 8060SOL    HW224759   7.021   7.739   1.641  2.1659  1.2816  0.3989
 8061SOL     OW24760   7.519   8.164   1.275 -0.1295  0.0537 -0.3246
 8061SOL    HW124761   7.572   8.124   1.344  1.7994 -0.3849 -1.9543
 8061SOL    HW224762   7.452   8.213   1.322  1.3468  0.1429  1.8650
 8062SOL     OW24763   6.888   2.630   9.415  0.3231  0.1859  0.1763
 8062SOL    HW124764   6.982   2.618   9.417  0.1698 -1.4839 -0.6352
 8062SOL    HW224765   6.861   2.592   9.331 -1.0049  1.1364  0.1448
 8063SOL     OW24766   8.548   0.801   7.320  0.1513 -0.4060  0.0916
 8063SOL    HW124767   8.625   0.822   7.268 -0.9455  1.1368 -0.9974
 8063SOL    HW224768   8.518   0.717   7.285  0.9039 -0.6499  0.0234
 8064SOL     OW24769   6.989   0.602   3.481  0.0243  0.5085 -0.1669
 8064SOL    HW124770   7.031   0.634   3.401 -0.5841 -0.9651 -1.1364
 8064SOL    HW224771   6.973   0.509   3.463  1.6225 -0.3758  2.4321
 8065SOL     OW24772   6.686   3.945   6.769 -0.0899  0.1606 -0.0541
 8065SOL    HW124773   6.681   3.941   6.674 -2.0791  0.5537 -0.0021
 8065SOL    HW224774   6.710   4.036   6.788 -1.2211  0.5006 -0.1723
 8066SOL     OW24775   0.853   9.542   3.593  0.2826 -0.1232 -0.4989
 8066SOL    HW124776   0.819   9.630   3.607 -1.0802 -0.8609  1.1374
 8066SOL    HW224777   0.797   9.506   3.524  0.5468  0.1076 -0.8419
 8067SOL     OW24778   2.037   9.362   2.591 -0.4538 -0.1193  0.3481
 8067SOL    HW124779   2.001   9.409   2.515 -1.3074 -1.5739 -0.1854
 8067SOL    HW224780   2.004   9.411   2.666  1.8740  2.4514 -0.1168
 8068SOL     OW24781   7.209   5.564   3.642  0.6241 -0.0261  0.2482
 8068SOL    HW124782   7.263   5.590   3.568 -1.9972  1.1821 -1.3936
 8068SOL    HW224783   7.174   5.646   3.677  0.1910 -0.7234  1.5222
 8069SOL     OW24784   9.524   9.889   7.238  0.0652  0.0918  0.8037
 8069SOL    HW124785   9.442   9.918   7.199  0.1654 -0.9834 -0.2431
 8069SOL    HW224786   9.588   9.893   7.167  0.5604 -0.5841  1.1912
 8070SOL     OW24787   7.282   5.879   0.464  0.6222  0.0653 -0.1212
 8070SOL    HW124788   7.255   5.796   0.425  0.8581  0.1282 -0.4205
 8070SOL    HW224789   7.355   5.908   0.410  1.5726 -0.3151  0.9059
 8071SOL     OW24790   6.282   9.587   4.049 -0.1415  0.4848 -0.1012
 8071SOL    HW124791   6.245   9.673   4.029 -1.6171 -0.4182 -1.4762
 8071SOL    HW224792   6.359   9.580   3.992  0.7498  1.3707  0.9501
 8072SOL     OW24793   8.183   9.443   8.083 -0.2410 -0.0039 -0.2088
 8072SOL    HW124794   8.233   9.479   8.010 -0.9193  1.2109 -0.1003
 8072SOL    HW224795   8.126   9.378   8.043 -0.7128  0.7531 -0.8080
 8073SOL     OW24796   0.653   5.998   0.063 -0.4730 -0.1418 -0.7522
 8073SOL    HW124797   0.632   5.980  -0.029 -2.3067  0.0240 -0.4016
 8073SOL    HW224798   0.571   6.032   0.100 -0.3047 -1.8672  1.3887
 8074SOL     OW24799   1.967   1.335   0.712  0.6574 -0.2028 -0.1220
 8074SOL    HW124800   1.878   1.304   0.726  1.1927 -2.7851 -1.6857
 8074SOL    HW224801   2.021   1.281   0.771  1.3967 -0.3531 -0.9141
 8075SOL     OW24802   2.730   6.966   7.943 -0.7013 -0.1874 -0.0817
 8075SOL    HW124803   2.727   7.033   7.875  0.3715  0.1308  0.1637
 8075SOL    HW224804   2.749   6.885   7.897  0.6282  0.1255 -0.1241
 8076SOL     OW24805   1.825   3.122   2.723  0.1422  0.4326  0.3589
 8076SOL    HW124806   1.913   3.147   2.751 -0.1649  0.3861  1.3863
 8076SOL    HW224807   1.840   3.053   2.659  0.8560  0.3894  0.5602
 8077SOL     OW24808   4.188   6.344   0.598  0.6240  0.1130 -0.6148
 8077SOL    HW124809   4.245   6.363   0.523  0.3817  0.0252 -0.8226
 8077SOL    HW224810   4.140   6.265   0.572  0.9883 -0.2809 -0.1130
 8078SOL     OW24811   6.608   6.270   6.644  0.0957  0.1980 -0.3640
 8078SOL    HW124812   6.549   6.345   6.642 -1.4085 -0.9326 -0.1483
 8078SOL    HW224813   6.562   6.202   6.594 -0.3605 -1.7825  2.4718
 8079SOL     OW24814   4.262   7.273   0.294 -0.3504  0.2340  0.6200
 8079SOL    HW124815   4.238   7.353   0.340  1.2170  1.2746 -0.2606
 8079SOL    HW224816   4.330   7.234   0.349  1.4439  1.4214 -0.6394
 8080SOL     OW24817   5.032   5.966   1.824  0.0016 -0.0608 -0.3410
 8080SOL    HW124818   5.060   6.012   1.745  0.7059  2.0608  1.0657
 8080SOL    HW224819   5.112   5.927   1.859  0.0145  0.4743  0.2348
 8081SOL     OW24820   4.667   6.882   1.440  0.0268 -0.0421 -0.0247
 8081SOL    HW124821   4.660   6.848   1.351  0.1976 -2.6688  0.8948
 8081SOL    HW224822   4.747   6.843   1.475  0.5542  1.8113  0.9715
 8082SOL     OW24823   0.951   5.786   0.772  0.4198  0.4691 -0.6622
 8082SOL    HW124824   0.910   5.816   0.854 -1.5001 -0.3494 -1.2617
 8082SOL    HW224825   0.899   5.710   0.747  2.6338 -0.9084 -1.2937
 8083SOL     OW24826   5.153   4.314   4.372  0.4210 -0.0716  0.0836
 8083SOL    HW124827   5.222   4.381   4.369  0.7468 -0.3636  0.9276
 8083SOL    HW224828   5.170   4.265   4.452 -2.0662  1.2343  1.5451
 8084SOL     OW24829   5.672   2.473   3.382 -0.6742  0.2630  0.1633
 8084SOL    HW124830   5.736   2.469   3.453 -1.3476  0.5593  0.7989
 8084SOL    HW224831   5.686   2.559   3.341  1.0772 -0.6925 -1.3946
 8085SOL     OW24832   6.014   2.666   2.125 -0.3509 -0.3366  0.5782
 8085SOL    HW124833   5.988   2.692   2.214 -3.3153 -0.0395 -0.2622
 8085SOL    HW224834   6.056   2.743   2.088  2.2789 -0.9103  2.0988
 8086SOL     OW24835   4.411   4.506   5.953  0.3385  0.4471  0.3654
 8086SOL    HW124836   4.320   4.524   5.975 -0.4365 -1.5575 -0.8688
 8086SOL    HW224837   4.459   4.518   6.035 -1.2338  0.3101  1.3475
 8087SOL     OW24838   3.297   5.139   0.208  0.3229  0.3790  0.0640
 8087SOL    HW124839   3.258   5.211   0.258 -0.1210 -0.0546  0.3609
 8087SOL    HW224840   3.284   5.163   0.117  1.2344  1.2368  0.1455
 8088SOL     OW24841   8.750   0.286   7.633  0.2202  0.2255  0.6895
 8088SOL    HW124842   8.737   0.359   7.694 -1.6916 -0.9045  1.7302
 8088SOL    HW224843   8.815   0.230   7.675 -0.8194 -0.3624  1.5373
 8089SOL     OW24844   1.884   6.413   5.699  0.5829 -0.0439 -0.4676
 8089SOL    HW124845   1.961   6.361   5.722 -0.2039 -2.0066 -2.0168
 8089SOL    HW224846   1.916   6.479   5.637  1.2099 -0.0370 -0.1433
 8090SOL     OW24847   4.093   7.514   2.375 -0.4741  0.3080 -0.2071
 8090SOL    HW124848   4.143   7.592   2.350 -1.6935  0.9313 -0.8003
 8090SOL    HW224849   4.007   7.528   2.336 -0.6942 -1.3935 -0.3864
 8091SOL     OW24850   8.939   4.325   8.611  0.0999 -0.4210  0.1962
 8091SOL    HW124851   8.997   4.249   8.619  0.4144 -0.1597  0.3934
 8091SOL    HW224852   8.997   4.398   8.591 -0.3819 -0.5510 -1.9330
 8092SOL     OW24853   7.301   2.505   3.824  0.3471 -0.1148  0.3867
 8092SOL    HW124854   7.371   2.443   3.846 -0.5147 -0.5030  2.1578
 8092SOL    HW224855   7.338   2.557   3.752  1.4931 -1.9431 -0.4193
 8093SOL     OW24856   2.930   3.678   6.677  0.3244 -0.0589 -0.1334
 8093SOL    HW124857   2.931   3.774   6.673  2.2356  0.0729  1.7561
 8093SOL    HW224858   2.843   3.657   6.711 -0.1122  0.9941 -0.5513
 8094SOL     OW24859   3.789   5.291   8.636 -0.8441  0.3428  0.2886
 8094SOL    HW124860   3.791   5.203   8.597 -0.0413 -0.3652  1.8579
 8094SOL    HW224861   3.816   5.349   8.565  1.2671 -0.9839 -0.0884
 8095SOL     OW24862   1.569   7.867   9.788  0.5815  0.5190  0.3891
 8095SOL    HW124863   1.631   7.812   9.835  0.4956 -1.2859 -1.4699
 8095SOL    HW224864   1.622   7.939   9.754  1.2288  0.1871  0.6862
 8096SOL     OW24865   5.069   0.298   2.679  0.3759 -0.0394 -0.0702
 8096SOL    HW124866   5.119   0.331   2.753  0.9636 -1.1566  0.0388
 8096SOL    HW224867   5.101   0.349   2.604  0.6902  0.2033  0.2286
 8097SOL     OW24868   3.245   3.482   8.617 -0.7051 -0.2252 -0.3261
 8097SOL    HW124869   3.167   3.535   8.637 -0.2373  1.3051 -2.2343
 8097SOL    HW224870   3.306   3.501   8.688 -1.6020 -0.4506  0.5162
 8098SOL     OW24871   1.205   3.366   4.516 -0.0995  0.5247  0.0079
 8098SOL    HW124872   1.149   3.361   4.438  0.7513 -0.2761 -0.5710
 8098SOL    HW224873   1.145   3.391   4.587 -1.3829 -1.1489 -0.4180
 8099SOL     OW24874   3.812   6.441   7.576  0.4976 -0.6213  0.1493
 8099SOL    HW124875   3.828   6.521   7.525 -2.8671 -0.8968 -1.6994
 8099SOL    HW224876   3.763   6.470   7.652  0.3314 -0.7887  0.1084
 8100SOL     OW24877   1.244   5.741   0.073  0.5133  0.0882  0.3211
 8100SOL    HW124878   1.223   5.668   0.015  2.7714 -1.8005  1.7084
 8100SOL    HW224879   1.243   5.704   0.161  0.3702  2.0870  1.2286
 8101SOL     OW24880   8.475   0.320   8.452 -0.0136  0.4516  0.0688
 8101SOL    HW124881   8.438   0.285   8.370 -0.0070 -0.4559  0.4427
 8101SOL    HW224882   8.528   0.394   8.424 -1.7448  1.5150 -0.5274
 8102SOL     OW24883   9.170   3.593   8.631  0.0944  0.3860 -0.0746
 8102SOL    HW124884   9.224   3.572   8.556  0.6669  0.5117  0.2947
 8102SOL    HW224885   9.213   3.669   8.671  0.7365 -0.6768  1.3224
 8103SOL     OW24886   1.843   9.045   0.126 -0.0021  0.5722  0.8472
 8103SOL    HW124887   1.767   9.031   0.069  0.5537  0.8035  0.0265
 8103SOL    HW224888   1.904   8.976   0.101  0.1298  0.5049  1.3663
 8104SOL     OW24889   3.961   6.931   3.253 -0.2421  0.3096 -0.2589
 8104SOL    HW124890   3.925   6.914   3.339  1.7140 -1.2880  0.3295
 8104SOL    HW224891   3.962   6.845   3.209  0.4918  0.7427 -1.1469
 8105SOL     OW24892   0.171  -0.004   1.536 -0.1661 -0.2999  0.5446
 8105SOL    HW124893   0.239  -0.062   1.502  2.0442  1.7360  1.1612
 8105SOL    HW224894   0.189   0.080   1.494 -1.3593  0.6859  1.9010
 8106SOL     OW24895   3.323   4.524   5.905  0.2153 -0.2015 -0.1466
 8106SOL    HW124896   3.356   4.557   5.989 -0.4559  0.5018 -0.1515
 8106SOL    HW224897   3.363   4.581   5.840 -0.8959  0.6007 -0.1589
 8107SOL     OW24898   5.278   8.631   6.956 -0.5949 -0.5319  0.1849
 8107SOL    HW124899   5.183   8.628   6.967 -0.5320 -0.7665  0.6799
 8107SOL    HW224900   5.310   8.553   7.002 -0.1050 -0.1030  0.5888
 8108SOL     OW24901   7.213   1.434   5.544  0.1119  0.1243  0.0158
 8108SOL    HW124902   7.240   1.342   5.544  0.7308  0.2971  0.7693
 8108SOL    HW224903   7.134   1.436   5.599 -1.2397 -0.2996 -1.7979
 8109SOL     OW24904   5.979   6.829   4.428  0.2344  0.1515  0.0640
 8109SOL    HW124905   6.033   6.835   4.349  0.9511  0.2031  0.5521
 8109SOL    HW224906   5.979   6.736   4.450  0.4056  0.1982  0.2604
 8110SOL     OW24907   2.458   3.010   3.505  0.1963 -1.0930 -0.0767
 8110SOL    HW124908   2.472   3.005   3.600 -0.7674  1.8726  0.3215
 8110SOL    HW224909   2.363   3.015   3.495  0.3349  0.6421 -0.9764
 8111SOL     OW24910   2.444   5.862   2.201  0.0436  0.1906  0.4920
 8111SOL    HW124911   2.436   5.917   2.279 -1.9642  1.0287 -0.2518
 8111SOL    HW224912   2.518   5.899   2.153  0.4606  0.4881  1.3352
 8112SOL     OW24913   5.680   2.359   5.045 -0.5665  0.1723 -0.0954
 8112SOL    HW124914   5.603   2.305   5.028  0.5048 -1.5544  0.3627
 8112SOL    HW224915   5.644   2.447   5.060 -2.4694 -0.6340  0.3830
 8113SOL     OW24916   0.840   8.632   4.808  0.6787 -0.1942  0.3423
 8113SOL    HW124917   0.849   8.723   4.834  3.7519 -0.4032  0.4191
 8113SOL    HW224918   0.837   8.584   4.891  0.2254 -0.2517  0.2961
 8114SOL     OW24919   2.699   0.875   1.870  0.0901  0.0096 -0.4575
 8114SOL    HW124920   2.725   0.859   1.779 -1.2110 -0.0591 -0.8320
 8114SOL    HW224921   2.605   0.856   1.872 -0.1763  1.3265  0.5890
 8115SOL     OW24922   4.435   3.616   4.163  0.1888 -0.7402  0.0802
 8115SOL    HW124923   4.517   3.567   4.164  0.7253  0.1176 -0.2420
 8115SOL    HW224924   4.452   3.691   4.220 -0.4817 -0.7230  0.2574
 8116SOL     OW24925   8.203   3.130   1.175 -0.3606  0.3506  0.0403
 8116SOL    HW124926   8.266   3.061   1.193 -0.5698  0.3281  0.7531
 8116SOL    HW224927   8.144   3.129   1.251 -0.5441  1.1106 -0.0768
 8117SOL     OW24928   4.343   1.143   1.180 -0.1789 -0.2735 -0.0397
 8117SOL    HW124929   4.329   1.065   1.234 -0.9674 -0.2983 -0.2760
 8117SOL    HW224930   4.286   1.130   1.104 -1.2049  1.0633  0.4691
 8118SOL     OW24931   1.711   0.157   2.682  0.3162 -0.3512 -0.7392
 8118SOL    HW124932   1.631   0.209   2.689 -0.0389 -0.8154 -1.2446
 8118SOL    HW224933   1.779   0.213   2.719 -0.0689  0.4393 -1.1994
 8119SOL     OW24934   7.203   9.544   9.499 -0.1541 -0.7005 -0.1025
 8119SOL    HW124935   7.280   9.497   9.531  0.5773 -0.1422 -0.9968
 8119SOL    HW224936   7.208   9.630   9.541  0.4078 -0.2263 -1.0920
 8120SOL     OW24937   0.328   6.851   2.205 -0.0925 -0.6305 -0.8728
 8120SOL    HW124938   0.245   6.804   2.211 -0.2123 -0.3571 -0.2541
 8120SOL    HW224939   0.316   6.913   2.134 -1.3549  1.1810  0.8099
 8121SOL     OW24940   2.265   9.684   7.461  0.4694 -0.2290  0.5554
 8121SOL    HW124941   2.338   9.653   7.513  1.5815 -0.0487 -0.8460
 8121SOL    HW224942   2.303   9.748   7.401 -0.6152 -0.8905 -0.9149
 8122SOL     OW24943   7.929   8.158   3.943 -0.2339  0.9601 -0.5508
 8122SOL    HW124944   7.898   8.160   3.852  0.3043  0.1601 -0.7634
 8122SOL    HW224945   7.883   8.230   3.986 -0.1072  1.6776 -1.5858
 8123SOL     OW24946   5.679   0.199   4.141 -0.1331  0.1040 -0.1898
 8123SOL    HW124947   5.740   0.195   4.215 -1.1049 -0.7514  0.5851
 8123SOL    HW224948   5.640   0.286   4.147 -2.0358 -0.7846  1.8545
 8124SOL     OW24949   3.975   1.165   3.130  0.0115  0.0412 -0.0375
 8124SOL    HW124950   3.910   1.095   3.128 -1.8080  1.5747  1.5101
 8124SOL    HW224951   4.003   1.173   3.039 -1.4811 -1.1454 -0.6559
 8125SOL     OW24952   7.175   3.009   1.812  0.2852  0.0529 -0.3650
 8125SOL    HW124953   7.083   2.988   1.826  0.1905 -0.6612 -1.8826
 8125SOL    HW224954   7.190   3.088   1.865 -1.3950  0.6542 -0.7316
 8126SOL     OW24955   0.290   5.528   7.889  0.2720  0.2124  0.5078
 8126SOL    HW124956   0.246   5.459   7.839 -0.0917  2.3348 -2.3667
 8126SOL    HW224957   0.226   5.599   7.892  2.6293  2.6892 -2.1206
 8127SOL     OW24958   3.149   5.330   3.408  0.0452 -0.2564 -0.3087
 8127SOL    HW124959   3.155   5.242   3.371  0.9063 -0.1974 -0.3303
 8127SOL    HW224960   3.234   5.370   3.388 -0.0874  0.3431  0.3001
 8128SOL     OW24961   6.772   2.834   1.467 -0.5144 -0.1334 -0.0917
 8128SOL    HW124962   6.747   2.741   1.471 -0.6737 -0.2016 -1.8061
 8128SOL    HW224963   6.689   2.880   1.456 -0.4268  0.2254  0.6789
 8129SOL     OW24964   9.199   0.687   5.213 -0.4422 -0.5449  0.0232
 8129SOL    HW124965   9.294   0.682   5.204 -0.2490 -0.9412  1.7875
 8129SOL    HW224966   9.177   0.778   5.191  0.4959 -0.1514  0.6424
 8130SOL     OW24967   3.284   6.979   6.389  0.0013 -0.3665 -0.0660
 8130SOL    HW124968   3.261   7.072   6.388  0.5810 -0.2113 -1.0779
 8130SOL    HW224969   3.206   6.935   6.422 -0.2930  0.4727  0.3841
 8131SOL     OW24970   9.723   9.665   3.964 -0.2756  0.0878 -0.4242
 8131SOL    HW124971   9.709   9.595   3.900  0.1038  0.7758 -1.2703
 8131SOL    HW224972   9.788   9.629   4.025 -0.5559 -0.5233 -0.4790
 8132SOL     OW24973   1.988   2.895   8.112  0.4746 -0.5307 -0.1372
 8132SOL    HW124974   1.951   2.818   8.156 -0.0845 -0.3520 -0.2845
 8132SOL    HW224975   2.082   2.878   8.109  0.3274 -1.3570 -0.4507
 8133SOL     OW24976   9.312   8.082   7.919 -0.2182 -0.8204 -0.5209
 8133SOL    HW124977   9.335   8.108   7.830 -0.3445  0.6744 -0.1398
 8133SOL    HW224978   9.336   8.157   7.973 -0.3599 -1.6184  0.6803
 8134SOL     OW24979   5.589   9.312   7.783 -0.6415  0.2733 -0.1984
 8134SOL    HW124980   5.631   9.347   7.705  0.5770 -1.5143 -0.4001
 8134SOL    HW224981   5.632   9.228   7.798 -2.0483 -0.2205  1.4026
 8135SOL     OW24982   6.355   2.687   6.948 -0.1257 -0.6472 -0.0562
 8135SOL    HW124983   6.345   2.762   7.007 -3.0436  0.4460 -1.7125
 8135SOL    HW224984   6.303   2.618   6.988 -0.7043 -0.4545 -0.4549
 8136SOL     OW24985   6.896   0.197   6.424  0.2446 -0.1383  0.1048
 8136SOL    HW124986   6.938   0.254   6.360 -0.0270 -0.3689 -0.2848
 8136SOL    HW224987   6.838   0.141   6.372  0.0956 -0.3963  0.5406
 8137SOL     OW24988   6.490   0.170   6.452  0.7745 -0.2813  1.7030
 8137SOL    HW124989   6.403   0.132   6.441  0.1172  1.4322  0.5369
 8137SOL    HW224990   6.510   0.158   6.545 -0.5643 -0.9955  1.9255
 8138SOL     OW24991   9.606   9.088   7.200 -0.6431  0.2665  0.6489
 8138SOL    HW124992   9.690   9.125   7.227  0.4672 -0.4694 -1.5801
 8138SOL    HW224993   9.570   9.152   7.138 -1.5474  0.3632  1.2482
 8139SOL     OW24994   7.838   2.791   1.221  0.3054  0.1006 -0.1494
 8139SOL    HW124995   7.821   2.700   1.246  0.0303  0.3569  0.6183
 8139SOL    HW224996   7.928   2.807   1.250  0.6319 -0.1571 -0.9879
 8140SOL     OW24997   2.498   0.394   9.578 -0.2201 -0.3364  0.5762
 8140SOL    HW124998   2.501   0.488   9.599 -0.8422 -0.2980  0.5248
 8140SOL    HW224999   2.552   0.385   9.499 -1.3684  0.2406 -0.3062
 8141SOL     OW25000   1.985   4.754   3.638 -0.1431 -0.0474  0.0588
 8141SOL    HW125001   2.003   4.661   3.653  0.6307  0.3276  1.6216
 8141SOL    HW225002   2.069   4.790   3.608 -0.7943 -0.0883 -2.0132
 8142SOL     OW25003   7.159   1.987   1.271 -0.5314  0.5995 -0.3998
 8142SOL    HW125004   7.241   2.015   1.231 -0.0054  2.0857  1.6132
 8142SOL    HW225005   7.154   1.893   1.251  2.2690  0.1977  0.4087
 8143SOL     OW25006   3.556   7.720   8.595 -0.1862  0.2351  0.5821
 8143SOL    HW125007   3.583   7.803   8.555 -0.6016 -0.1249 -0.4812
 8143SOL    HW225008   3.638   7.675   8.615  0.0742  1.2658  2.0265
 8144SOL     OW25009   0.192   4.034   3.392 -0.3676  0.1795 -0.2669
 8144SOL    HW125010   0.265   3.978   3.419 -1.2340 -0.8343  0.0277
 8144SOL    HW225011   0.157   3.991   3.314 -0.3838  0.9000 -0.6609
 8145SOL     OW25012   2.710   5.479   6.358 -0.1132 -0.2250  0.1235
 8145SOL    HW125013   2.696   5.472   6.452 -2.8725  0.7513 -0.1097
 8145SOL    HW225014   2.708   5.388   6.327  0.8091 -0.5544  0.9721
 8146SOL     OW25015   4.688   3.170   3.689  0.1906 -0.3325  0.0428
 8146SOL    HW125016   4.697   3.264   3.700 -0.0292 -0.4133  0.9374
 8146SOL    HW225017   4.610   3.160   3.634 -0.6832 -0.0421  1.2039
 8147SOL     OW25018   9.527   9.313   5.045 -0.5991  0.2727  0.1361
 8147SOL    HW125019   9.577   9.238   5.076  0.4772  1.1483  0.5823
 8147SOL    HW225020   9.435   9.288   5.058 -0.2485 -0.8090  0.6081
 8148SOL     OW25021   6.461   4.644   5.078  0.3768  0.2997  0.2890
 8148SOL    HW125022   6.555   4.651   5.063  0.2222  2.1725 -0.0642
 8148SOL    HW225023   6.421   4.697   5.008 -0.9472 -0.4212  0.4541
 8149SOL     OW25024   0.474   6.893   4.724 -0.1651 -0.4633 -0.2683
 8149SOL    HW125025   0.562   6.929   4.720  0.0589 -1.1009 -2.4270
 8149SOL    HW225026   0.487   6.799   4.709 -0.9300 -1.1920  2.9438
 8150SOL     OW25027   2.252   3.697   9.193  0.0432 -0.0835  0.2999
 8150SOL    HW125028   2.164   3.660   9.194  0.2908 -0.6839  0.4094
 8150SOL    HW225029   2.298   3.648   9.124 -0.0164  0.9684 -0.5032
 8151SOL     OW25030   1.612   2.508   3.637  0.4119 -0.1844  0.4919
 8151SOL    HW125031   1.692   2.548   3.671  0.6619  1.2625 -1.6212
 8151SOL    HW225032   1.640   2.423   3.603  1.4546  0.9229 -1.6091
 8152SOL     OW25033   4.892   1.850   1.851  0.0944  0.5832 -0.3531
 8152SOL    HW125034   4.864   1.835   1.941 -2.7212 -1.9486 -1.4611
 8152SOL    HW225035   4.949   1.775   1.831  0.9190  1.2645 -0.6467
 8153SOL     OW25036   2.131   0.957   1.647 -0.2555  0.2148 -0.1557
 8153SOL    HW125037   2.053   0.964   1.593 -1.1210  0.3673  1.0789
 8153SOL    HW225038   2.165   1.046   1.653 -0.8559  0.4046  0.5392
 8154SOL     OW25039   5.288   4.715   1.563 -0.3117 -0.4350 -0.0660
 8154SOL    HW125040   5.272   4.734   1.656  0.3066 -1.4729  0.2753
 8154SOL    HW225041   5.372   4.668   1.563  0.0755  0.2237 -1.2322
 8155SOL     OW25042   3.293   7.598   8.632  0.2062 -0.1267  0.2715
 8155SOL    HW125043   3.319   7.524   8.576 -1.6352  1.8659 -3.6619
 8155SOL    HW225044   3.374   7.647   8.645  0.7506 -0.8137 -0.3832
 8156SOL     OW25045   0.907   6.082   8.518 -0.6137 -0.1343 -0.1477
 8156SOL    HW125046   0.812   6.093   8.513 -0.6535 -1.0425 -3.0003
 8156SOL    HW225047   0.929   6.026   8.443  1.9822 -1.4721  1.4500
 8157SOL     OW25048   0.026   6.149   5.881 -0.3429 -0.5828 -0.4514
 8157SOL    HW125049   0.075   6.099   5.947  0.8345  1.6321  0.4344
 8157SOL    HW225050   0.090   6.165   5.812 -1.1717 -1.6145 -1.4985
 8158SOL     OW25051   9.594   8.008   7.610 -0.4821 -0.3286 -0.2439
 8158SOL    HW125052   9.664   8.021   7.546 -0.3754  0.8977  0.1035
 8158SOL    HW225053   9.560   7.920   7.590  1.2631 -1.0417 -0.2957
 8159SOL     OW25054   1.210   6.173   5.991  0.3520 -0.2013  0.5813
 8159SOL    HW125055   1.239   6.260   6.019  1.9082 -0.6526  0.5145
 8159SOL    HW225056   1.178   6.186   5.901  1.1039  0.2272  0.3602
 8160SOL     OW25057   1.371   1.984   7.068  0.7721 -0.3773  0.5287
 8160SOL    HW125058   1.360   1.927   7.145  0.3622 -0.3804  0.4721
 8160SOL    HW225059   1.465   1.996   7.060  0.7924  0.2679  1.5140
 8161SOL     OW25060   2.472   0.654   2.719  0.2280 -0.0751  0.4020
 8161SOL    HW125061   2.381   0.630   2.703 -0.1892  0.8814  1.1887
 8161SOL    HW225062   2.523   0.600   2.660 -0.9073 -0.0990 -0.5769
 8162SOL     OW25063   0.981   3.558   9.852 -0.0117 -0.2823 -0.0884
 8162SOL    HW125064   1.002   3.595   9.767 -3.7440  3.3629  0.2319
 8162SOL    HW225065   0.920   3.486   9.833 -1.9474  1.4192 -0.5815
 8163SOL     OW25066   9.799   5.814   5.947  0.3029 -0.2893  0.4155
 8163SOL    HW125067   9.835   5.832   5.860 -0.9826 -1.9627 -0.5412
 8163SOL    HW225068   9.864   5.756   5.988  0.2526 -0.6479 -0.0042
 8164SOL     OW25069   8.113   7.213   9.602  0.1240  0.3075 -0.4979
 8164SOL    HW125070   8.049   7.239   9.536 -0.3324  1.8172  0.4860
 8164SOL    HW225071   8.153   7.134   9.566 -1.3393  0.0783 -1.7530
 8165SOL     OW25072   7.148   8.039   2.672  0.1359 -0.0144  0.1285
 8165SOL    HW125073   7.180   7.953   2.646  0.5752 -0.0873  0.8806
 8165SOL    HW225074   7.096   8.069   2.597 -1.7246 -1.7903  0.6153
 8166SOL     OW25075   1.093   4.815   3.364 -0.4348 -0.2691 -0.1425
 8166SOL    HW125076   1.128   4.803   3.452  1.1850  2.2147 -0.3583
 8166SOL    HW225077   1.163   4.783   3.306 -0.8699 -0.4951 -0.5496
 8167SOL     OW25078   9.777   6.992   8.521  0.1326 -0.5883  0.0373
 8167SOL    HW125079   9.820   7.076   8.505 -0.4143 -0.6670 -2.1899
 8167SOL    HW225080   9.748   6.963   8.434 -2.4353 -1.5863  1.1308
 8168SOL     OW25081   8.431   6.130   0.961 -0.3747  0.0299 -0.0917
 8168SOL    HW125082   8.409   6.060   1.022 -2.2313  0.0084 -0.7512
 8168SOL    HW225083   8.485   6.088   0.895 -0.2944 -0.4563  0.2758
 8169SOL     OW25084   1.268   6.107   2.449  0.4634  0.3363  0.8487
 8169SOL    HW125085   1.284   6.127   2.541 -1.3301  1.1351  1.0282
 8169SOL    HW225086   1.236   6.017   2.449  0.5995  0.2872  0.9803
 8170SOL     OW25087   2.637   4.061   1.520  0.4518 -0.3634  0.1246
 8170SOL    HW125088   2.727   4.035   1.503  0.7480 -0.1234  1.2364
 8170SOL    HW225089   2.627   4.052   1.615 -1.2245 -2.0556 -0.1456
 8171SOL     OW25090   6.578   4.605   1.975  0.3711 -0.4799 -0.0530
 8171SOL    HW125091   6.673   4.590   1.971  0.1648 -1.6763 -1.3671
 8171SOL    HW225092   6.549   4.597   1.884 -1.2666 -2.2808  0.5668
 8172SOL     OW25093   5.855   3.229   5.853 -0.4141  0.4825 -0.2533
 8172SOL    HW125094   5.805   3.163   5.805 -1.1528  1.8537 -1.4567
 8172SOL    HW225095   5.946   3.198   5.849 -0.7106 -0.3342 -1.0024
 8173SOL     OW25096   7.199   7.543   6.792  0.3980  0.5141 -0.1204
 8173SOL    HW125097   7.153   7.542   6.876 -0.0609 -0.0200 -0.3740
 8173SOL    HW225098   7.218   7.452   6.774  0.0726  0.5769 -0.8200
 8174SOL     OW25099   9.248   8.359   9.742 -0.1152  0.4492  0.0118
 8174SOL    HW125100   9.269   8.316   9.824 -0.6028  0.5247  0.1790
 8174SOL    HW225101   9.327   8.410   9.721 -0.5906  1.8085  1.3267
 8175SOL     OW25102   0.702   5.761   3.484  0.9009 -0.4161 -0.8339
 8175SOL    HW125103   0.640   5.822   3.522  1.6103  0.2748 -0.7539
 8175SOL    HW225104   0.739   5.714   3.559  2.4320  1.0713 -0.5886
 8176SOL     OW25105   3.109   0.699   4.741  0.7830 -0.1178  0.6486
 8176SOL    HW125106   3.095   0.793   4.728  1.4188 -0.2265 -0.9612
 8176SOL    HW225107   3.195   0.693   4.783  0.1662  0.0584  2.0008
 8177SOL     OW25108   5.977   6.931   4.898  0.0061 -0.2271  0.0930
 8177SOL    HW125109   6.042   6.863   4.883  0.6751  0.6998 -1.4540
 8177SOL    HW225110   5.897   6.900   4.855  0.3576  0.0108 -0.7539
 8178SOL     OW25111   9.903   5.567   7.906  0.0735  0.6270 -0.3921
 8178SOL    HW125112   9.975   5.627   7.889 -0.5485  1.4061 -0.2936
 8178SOL    HW225113   9.840   5.585   7.837  0.0055 -0.1256 -0.5382
 8179SOL     OW25114   7.425   5.909   7.520 -0.4012 -0.5314  0.2097
 8179SOL    HW125115   7.411   5.902   7.615  0.6861 -3.1363  0.2591
 8179SOL    HW225116   7.513   5.944   7.511 -0.1713 -1.0951  0.2038
 8180SOL     OW25117   8.661   9.572   2.508  0.3475 -0.0476 -0.4728
 8180SOL    HW125118   8.598   9.566   2.580  0.2717 -0.7356 -0.5884
 8180SOL    HW225119   8.701   9.658   2.518 -1.1771  0.7420 -0.8703
 8181SOL     OW25120   2.649   8.655   4.621  0.3042 -0.5400  0.1325
 8181SOL    HW125121   2.616   8.597   4.689 -0.0846  1.2226  1.5244
 8181SOL    HW225122   2.744   8.651   4.630  0.2476 -0.1403  0.9577
 8182SOL     OW25123   6.110   4.105   8.205 -0.1725  0.4722  0.4237
 8182SOL    HW125124   6.123   4.045   8.132 -0.2605  1.9817 -0.8991
 8182SOL    HW225125   6.044   4.062   8.260 -0.7379 -0.3371 -0.8330
 8183SOL     OW25126   7.140   0.478   6.277 -0.6125  0.7135 -0.2470
 8183SOL    HW125127   7.080   0.427   6.224 -0.5967  0.9962 -0.5398
 8183SOL    HW225128   7.189   0.413   6.328 -0.2270  0.4100 -0.9977
 8184SOL     OW25129   5.248   8.921   5.500  0.0237 -0.2279  0.1558
 8184SOL    HW125130   5.219   8.949   5.413 -0.9260  0.8926  0.8073
 8184SOL    HW225131   5.334   8.881   5.485  0.8454  1.8288 -1.0318
 8185SOL     OW25132   7.284   8.872   8.531  0.4190  0.0823 -0.6162
 8185SOL    HW125133   7.206   8.831   8.568  0.2515 -0.1231 -1.1735
 8185SOL    HW225134   7.269   8.966   8.538  0.6681  0.0539  0.3932
 8186SOL     OW25135   0.358   3.081   1.819  0.3016  0.0404 -0.2968
 8186SOL    HW125136   0.294   3.040   1.760  1.0169 -0.9131 -0.4441
 8186SOL    HW225137   0.383   3.162   1.775  0.6061 -0.5154 -1.1862
 8187SOL     OW25138   8.193   1.505   7.334  0.1403 -0.3310  0.4438
 8187SOL    HW125139   8.181   1.496   7.429 -0.6772  0.5416  0.4333
 8187SOL    HW225140   8.142   1.434   7.296  0.0076 -0.3423  0.6409
 8188SOL     OW25141   0.186   8.172   2.257  0.6213 -0.1115  0.2129
 8188SOL    HW125142   0.271   8.129   2.255  0.9663  0.3031  2.4668
 8188SOL    HW225143   0.205   8.263   2.280 -0.3329  0.3732 -0.8308
 8189SOL     OW25144   5.514   6.667   8.056  0.0129 -0.3048  0.0572
 8189SOL    HW125145   5.566   6.596   8.018  0.6070 -0.2593  0.7696
 8189SOL    HW225146   5.467   6.626   8.128  3.4135  0.7025  3.1868
 8190SOL     OW25147   4.771   6.915   5.011 -0.3279 -0.4459 -0.4077
 8190SOL    HW125148   4.743   6.915   4.919  2.2691  1.3649 -1.3168
 8190SOL    HW225149   4.728   6.991   5.049 -2.6987 -2.0839  0.4489
 8191SOL     OW25150   7.333   6.640   9.961 -0.3170  0.2287  0.2092
 8191SOL    HW125151   7.244   6.610   9.948 -0.1921  0.2084 -0.6865
 8191SOL    HW225152   7.368   6.650   9.873  1.8796 -3.6110  0.4154
 8192SOL     OW25153   8.041   9.484   8.990 -0.7011 -0.1593 -0.1112
 8192SOL    HW125154   7.997   9.553   9.039  0.1826  0.3735 -0.0333
 8192SOL    HW225155   8.033   9.510   8.898  1.8811  1.5145  0.0312
 8193SOL     OW25156   6.615   4.512   5.888  0.4482 -0.4054 -0.0757
 8193SOL    HW125157   6.561   4.537   5.813  1.0458  0.8025 -0.1272
 8193SOL    HW225158   6.619   4.591   5.942  3.1701 -0.0203 -0.7033
 8194SOL     OW25159   3.328   8.741   0.634  0.1358 -0.1336  0.5216
 8194SOL    HW125160   3.286   8.655   0.624  0.4794 -0.2986  0.4719
 8194SOL    HW225161   3.255   8.802   0.644 -0.3002  0.0756 -2.8212
 8195SOL     OW25162   4.162   0.178   1.544 -0.4454  0.1759  0.5445
 8195SOL    HW125163   4.200   0.110   1.599 -1.0084 -1.3899 -0.9256
 8195SOL    HW225164   4.171   0.258   1.596  0.1237 -1.0117  2.3834
 8196SOL     OW25165   9.533   8.654   5.611  0.3904 -0.2250  0.4874
 8196SOL    HW125166   9.457   8.597   5.596 -0.5590  1.3575 -0.9781
 8196SOL    HW225167   9.498   8.729   5.659  0.9587  0.6759 -0.4822
 8197SOL     OW25168   2.266   3.572   0.142 -0.9180  0.5057 -0.0920
 8197SOL    HW125169   2.190   3.519   0.167  0.1553 -1.7619 -1.2764
 8197SOL    HW225170   2.298   3.609   0.224 -1.0130 -1.7763  1.0520
 8198SOL     OW25171   5.490   2.377   1.004  0.1064  0.4444 -0.3928
 8198SOL    HW125172   5.403   2.377   1.046  0.2401  1.3306 -0.0836
 8198SOL    HW225173   5.499   2.290   0.967 -0.8741  0.2972 -0.3198
 8199SOL     OW25174   7.128   9.713   6.159  0.0153  0.3452  0.3915
 8199SOL    HW125175   7.190   9.780   6.188 -1.5722  1.8874  0.3222
 8199SOL    HW225176   7.042   9.754   6.166 -0.9292 -1.3440 -0.6197
 8200SOL     OW25177   8.090   4.841   9.691 -0.0775 -0.3635  0.2936
 8200SOL    HW125178   8.081   4.887   9.608 -0.8640 -0.7766  0.1396
 8200SOL    HW225179   8.009   4.791   9.700  0.6374 -1.5319  0.5615
 8201SOL     OW25180   6.435   7.759   9.671  0.5295 -0.9251 -0.1154
 8201SOL    HW125181   6.422   7.671   9.707  4.7478 -1.9356 -0.6399
 8201SOL    HW225182   6.433   7.747   9.576 -2.1947  0.3018 -0.3316
 8202SOL     OW25183   7.122   9.128   6.925 -0.0271 -0.1442  0.2216
 8202SOL    HW125184   7.106   9.064   6.994 -0.4813 -0.5983 -0.2932
 8202SOL    HW225185   7.037   9.168   6.910  0.0834 -0.0056 -0.0285
 8203SOL     OW25186   3.626   3.223   8.156  0.1827  0.0949  0.9423
 8203SOL    HW125187   3.688   3.282   8.199 -1.4106  1.8052  0.9944
 8203SOL    HW225188   3.562   3.202   8.224  1.1678 -2.4918  1.1913
 8204SOL     OW25189   8.191   1.719   4.665  0.1132  1.2211  0.0406
 8204SOL    HW125190   8.230   1.806   4.676 -0.9419  2.1440 -2.7575
 8204SOL    HW225191   8.098   1.732   4.684 -0.0350  0.6901 -0.3167
 8205SOL     OW25192   1.701   9.676   6.912 -0.2153  0.2091  0.2277
 8205SOL    HW125193   1.629   9.734   6.937 -0.1098 -0.4315  2.2113
 8205SOL    HW225194   1.754   9.667   6.992  0.9283 -0.9499 -0.6133
 8206SOL     OW25195   8.387   6.826   4.340  0.4292  0.1468  0.3864
 8206SOL    HW125196   8.460   6.886   4.355  1.8123 -1.4788  0.3906
 8206SOL    HW225197   8.412   6.745   4.384 -0.5215 -1.0607 -1.1719
 8207SOL     OW25198   5.616   4.199   9.501 -0.2321  0.9079  0.5303
 8207SOL    HW125199   5.578   4.111   9.506  0.2089  0.6662 -0.1378
 8207SOL    HW225200   5.553   4.255   9.546 -2.0270  0.7098 -1.5653
 8208SOL     OW25201   8.398   8.756   9.743 -0.4846 -0.4001 -0.2535
 8208SOL    HW125202   8.405   8.827   9.680 -0.0740  0.3359  0.6038
 8208SOL    HW225203   8.472   8.769   9.802 -0.6062 -1.3362  0.1236
 8209SOL     OW25204   4.230   9.067   3.671 -0.3470  0.3501  0.5432
 8209SOL    HW125205   4.268   9.154   3.659 -0.1276  0.3598  1.2722
 8209SOL    HW225206   4.146   9.072   3.625 -0.0574  0.7459  0.0460
 8210SOL     OW25207   4.470   0.628   5.960 -0.2970 -0.2191 -0.0749
 8210SOL    HW125208   4.460   0.718   5.929 -0.4410 -0.5767 -1.0998
 8210SOL    HW225209   4.484   0.637   6.054  3.3583  1.1331 -0.5795
 8211SOL     OW25210   0.563   7.830   3.064  0.0157  0.7623  0.1607
 8211SOL    HW125211   0.640   7.858   3.113  0.4378 -0.2257  0.0811
 8211SOL    HW225212   0.550   7.899   2.998  1.8836  0.1050 -0.9602
 8212SOL     OW25213   7.074   1.236   1.784 -0.2981 -0.3360  0.3981
 8212SOL    HW125214   7.003   1.283   1.827 -0.1144  0.0915  0.2383
 8212SOL    HW225215   7.075   1.271   1.695  1.4093  1.1370  0.9454
 8213SOL     OW25216   8.478   6.865   2.500 -0.1050 -0.1955  0.4823
 8213SOL    HW125217   8.462   6.780   2.458 -1.9291  0.2136  0.3074
 8213SOL    HW225218   8.401   6.917   2.480  1.1998  1.7131  0.1504
 8214SOL     OW25219   7.502   4.468   3.731  0.4978  0.0911 -0.2142
 8214SOL    HW125220   7.562   4.538   3.705 -0.3779  0.2616 -1.9078
 8214SOL    HW225221   7.538   4.390   3.689  0.3197 -0.0860 -0.0370
 8215SOL     OW25222   9.386   1.510   3.273 -0.0325 -0.0394 -0.1392
 8215SOL    HW125223   9.454   1.527   3.208  0.3567  1.6619  0.6565
 8215SOL    HW225224   9.312   1.566   3.247 -0.7288 -1.0241 -0.3561
 8216SOL     OW25225   0.188   7.201   0.818  0.0556  0.1138  0.4852
 8216SOL    HW125226   0.215   7.284   0.858  1.8366 -0.6359  0.9431
 8216SOL    HW225227   0.252   7.138   0.849 -1.6379 -1.5980  0.6816
 8217SOL     OW25228   0.237   1.813   1.423 -0.0448  0.9213 -0.8742
 8217SOL    HW125229   0.217   1.897   1.463 -1.1788  0.3154 -0.1173
 8217SOL    HW225230   0.153   1.769   1.416  0.4776  0.0044 -1.6336
 8218SOL     OW25231   9.119   8.946   5.763  0.4180 -0.1164  0.2237
 8218SOL    HW125232   9.083   8.951   5.674 -1.1177  1.2935  0.8741
 8218SOL    HW225233   9.068   8.877   5.806  0.9279 -0.5632  0.1153
 8219SOL     OW25234   4.773   6.782   8.138  0.0949 -0.3613 -0.3890
 8219SOL    HW125235   4.850   6.757   8.189  0.3192 -2.7782 -1.7354
 8219SOL    HW225236   4.702   6.784   8.201  1.1655  1.7240  0.8440
 8220SOL     OW25237   0.571   3.022   0.155 -0.2518  0.3463  0.0336
 8220SOL    HW125238   0.582   3.039   0.061 -0.4273 -0.4017 -0.1315
 8220SOL    HW225239   0.656   3.045   0.193  0.1101 -0.1704 -0.4404
 8221SOL     OW25240   5.235   3.381   6.425  1.4832  0.8336  0.5124
 8221SOL    HW125241   5.316   3.333   6.408 -0.3517 -2.4002 -0.1272
 8221SOL    HW225242   5.205   3.349   6.510  1.1212  2.4316  1.0200
 8222SOL     OW25243   9.764   4.902   6.377  0.1156 -0.0779 -0.4692
 8222SOL    HW125244   9.793   4.954   6.302  0.6233 -0.8573 -0.8288
 8222SOL    HW225245   9.769   4.811   6.346  1.8220 -0.5408  0.9672
 8223SOL     OW25246   9.151   1.667   0.992 -0.8746 -0.0282  0.1959
 8223SOL    HW125247   9.222   1.722   0.959 -2.0263  0.5875 -1.4490
 8223SOL    HW225248   9.103   1.723   1.052 -2.7754  1.3796 -2.3991
 8224SOL     OW25249   6.620   1.722   8.200  0.3583 -0.1615  0.3924
 8224SOL    HW125250   6.696   1.731   8.258  0.2638  0.0696  0.4821
 8224SOL    HW225251   6.553   1.777   8.240  1.2326  2.5426 -1.5706
 8225SOL     OW25252   7.011   7.125   9.701  0.0301  0.2683 -0.6375
 8225SOL    HW125253   7.017   7.030   9.712  2.6920  0.1062 -2.5160
 8225SOL    HW225254   7.047   7.162   9.781  3.1688 -0.4724 -1.5940
 8226SOL     OW25255   4.002   4.975   1.054 -0.5307  0.1787 -0.0788
 8226SOL    HW125256   4.013   4.913   1.126  1.5308 -0.2384 -0.7021
 8226SOL    HW225257   4.036   4.929   0.977 -0.3904  1.5268 -0.8581
 8227SOL     OW25258   1.013   5.968   2.645  0.2835  0.0596 -0.2798
 8227SOL    HW125259   1.057   5.983   2.729  0.2938 -0.3315 -0.2111
 8227SOL    HW225260   0.960   5.889   2.660  0.5782 -0.2280 -0.7516
 8228SOL     OW25261   4.207   8.049   7.425 -0.3947  0.2648 -0.1020
 8228SOL    HW125262   4.254   8.070   7.506 -1.4062 -1.4157  0.9933
 8228SOL    HW225263   4.115   8.064   7.447 -0.8489 -1.8470 -0.3312
 8229SOL     OW25264   7.425   3.921   7.203  0.0147  0.4410  0.0178
 8229SOL    HW125265   7.430   3.995   7.142 -2.8651  2.5060  1.9843
 8229SOL    HW225266   7.376   3.854   7.155  0.6201  0.7225 -1.0278
 8230SOL     OW25267   1.060   2.746   3.208 -0.3006 -0.2950 -0.1793
 8230SOL    HW125268   1.112   2.758   3.288 -2.1693  1.4428  0.8965
 8230SOL    HW225269   1.089   2.817   3.151 -1.4612  0.7471  0.4667
 8231SOL     OW25270   8.926   1.341   9.414 -0.1826 -0.0889 -0.3605
 8231SOL    HW125271   8.912   1.353   9.508  0.0193 -0.0071 -0.3416
 8231SOL    HW225272   8.888   1.419   9.374  1.3594  0.7569 -0.2198
 8232SOL     OW25273   4.676   3.376   9.342 -0.0683  0.2825 -0.1073
 8232SOL    HW125274   4.714   3.294   9.372  0.3934  1.0622  1.5597
 8232SOL    HW225275   4.748   3.439   9.344 -0.8651  1.2341  0.8529
 8233SOL     OW25276   9.275   9.913   0.074  0.0641  0.0787 -0.0218
 8233SOL    HW125277   9.259   9.889   0.165  1.1762 -0.7374 -0.0179
 8233SOL    HW225278   9.196   9.960   0.047 -0.0616  0.7950  1.5055
 8234SOL     OW25279   6.062   9.468   9.918  0.2401  0.1672  0.1602
 8234SOL    HW125280   5.983   9.509   9.952 -0.1748  1.1694 -1.8573
 8234SOL    HW225281   6.116   9.541   9.888 -0.0960 -0.5893 -2.6270
 8235SOL     OW25282   9.226   1.098   3.052  0.0053  0.5186 -0.0704
 8235SOL    HW125283   9.196   1.008   3.064  1.0800  0.2445  0.8118
 8235SOL    HW225284   9.159   1.152   3.094 -0.4303  0.1004 -0.2225
 8236SOL     OW25285   2.986   2.445   0.549 -0.0756  0.2766  0.5078
 8236SOL    HW125286   2.930   2.394   0.607 -1.0109  1.2293  0.4669
 8236SOL    HW225287   3.006   2.524   0.598 -0.1345  0.6859 -0.1135
 8237SOL     OW25288   7.565   0.852   0.630 -0.3827 -0.3429 -0.6727
 8237SOL    HW125289   7.482   0.843   0.677  0.4719  0.6522  1.1588
 8237SOL    HW225290   7.604   0.932   0.666  1.4800 -0.9060 -1.3082
 8238SOL     OW25291   3.744   9.035   7.499 -0.0975 -0.5489 -0.0050
 8238SOL    HW125292   3.713   8.976   7.431 -1.4800 -0.5619  0.6115
 8238SOL    HW225293   3.735   8.985   7.580 -0.8091  0.3067  0.4665
 8239SOL     OW25294   9.022   8.746   2.152  0.5113 -0.8545 -0.5669
 8239SOL    HW125295   9.040   8.676   2.090  0.5021 -1.4262  0.0651
 8239SOL    HW225296   9.018   8.825   2.099  2.5009 -1.0397 -1.0408
 8240SOL     OW25297   3.599   7.926   2.109  0.3658  0.3116 -0.0838
 8240SOL    HW125298   3.519   7.875   2.098  1.0107 -0.6310 -0.5553
 8240SOL    HW225299   3.584   8.005   2.057 -0.4688  0.4030  0.2845
 8241SOL     OW25300   5.880   2.225   6.993 -0.1744 -0.1640  0.3820
 8241SOL    HW125301   5.897   2.143   6.947 -1.3406  0.1785 -0.7148
 8241SOL    HW225302   5.873   2.200   7.085 -2.4223 -1.6299 -0.1131
 8242SOL     OW25303   6.634   3.381   9.312 -0.6018  0.2758  1.0786
 8242SOL    HW125304   6.717   3.405   9.353 -0.6843  0.4489  1.1421
 8242SOL    HW225305   6.628   3.286   9.324  0.3673  0.0039 -0.3576
 8243SOL     OW25306   7.192   0.172   4.849 -0.1321  0.6366 -0.5403
 8243SOL    HW125307   7.259   0.237   4.826 -0.4353  0.8821 -0.7418
 8243SOL    HW225308   7.134   0.169   4.773 -0.4197  0.5130 -0.3203
 8244SOL     OW25309   6.828   4.942   3.552  0.7072  0.2471  0.4764
 8244SOL    HW125310   6.889   4.897   3.609 -0.0979  0.8067  1.8222
 8244SOL    HW225311   6.817   5.029   3.591 -0.1234  0.5253 -0.3242
 8245SOL     OW25312   8.319   2.418   7.696  0.3285  0.1012  0.1042
 8245SOL    HW125313   8.240   2.386   7.652 -0.0216  1.3771 -0.2324
 8245SOL    HW225314   8.294   2.503   7.732  1.1332 -0.1422  1.2760
 8246SOL     OW25315   6.951   3.618   6.935 -0.0544  0.1410  0.3221
 8246SOL    HW125316   6.999   3.545   6.898 -1.0554  0.4055 -1.6101
 8246SOL    HW225317   7.018   3.680   6.963  0.8447 -1.6918  2.5892
 8247SOL     OW25318   6.749   0.064   7.899 -0.0072 -0.2488  0.2572
 8247SOL    HW125319   6.737   0.103   7.812 -0.3162 -0.5024  0.1836
 8247SOL    HW225320   6.668   0.083   7.945 -0.2038 -0.8826  0.1862
 8248SOL     OW25321   2.547   7.223   5.752 -0.6240 -0.5114 -0.3904
 8248SOL    HW125322   2.464   7.226   5.799  0.1641  1.6290  1.0095
 8248SOL    HW225323   2.527   7.259   5.666 -1.4092 -1.4062 -0.6042
 8249SOL     OW25324   7.923   5.745   7.404  0.7276 -0.2609 -0.5287
 8249SOL    HW125325   7.900   5.836   7.426  0.9273 -0.1770 -0.6638
 8249SOL    HW225326   7.957   5.750   7.314 -3.1016 -1.0597 -2.2068
 8250SOL     OW25327   9.754   5.354   7.775  0.8951 -0.0859  0.1213
 8250SOL    HW125328   9.715   5.438   7.799  0.4988  0.1356 -1.2052
 8250SOL    HW225329   9.833   5.377   7.726  0.9354 -0.4786 -0.0011
 8251SOL     OW25330   8.960   1.842   9.515  0.9107  0.0081  0.1044
 8251SOL    HW125331   9.044   1.798   9.503  1.3275 -0.1040  2.8238
 8251SOL    HW225332   8.956   1.860   9.609 -0.5927  3.0636 -0.4284
 8252SOL     OW25333   5.314   0.934   4.757  0.5383  0.0062 -0.0491
 8252SOL    HW125334   5.258   0.998   4.800 -0.8775 -0.4772 -1.1290
 8252SOL    HW225335   5.310   0.857   4.813  0.6767  0.1892  0.2173
 8253SOL     OW25336   4.286   7.026   6.851  0.4392 -0.2281  0.5582
 8253SOL    HW125337   4.218   6.963   6.874  0.7406 -0.4798  0.7807
 8253SOL    HW225338   4.267   7.103   6.904  0.7706 -0.5801  1.2061
 8254SOL     OW25339   3.454   8.461   6.545 -0.2250  0.7089 -0.1319
 8254SOL    HW125340   3.464   8.393   6.612  1.4736  2.7265  1.7959
 8254SOL    HW225341   3.538   8.460   6.499  1.0228  3.3097  1.8426
 8255SOL     OW25342   0.374   3.961   7.499 -0.2478  0.3748  0.0408
 8255SOL    HW125343   0.433   4.004   7.561  0.5125  1.0388 -1.1218
 8255SOL    HW225344   0.322   3.902   7.554 -0.3854  1.7526  1.4789
 8256SOL     OW25345   4.324   0.489   5.214  0.2001  0.5369 -0.0712
 8256SOL    HW125346   4.382   0.529   5.278  2.1261 -1.2968 -0.5702
 8256SOL    HW225347   4.246   0.464   5.265  0.9074  0.7593  1.1640
 8257SOL     OW25348   7.398   1.774   7.292  0.3921  0.3148 -0.3009
 8257SOL    HW125349   7.407   1.868   7.276  0.1960  0.3508 -0.1920
 8257SOL    HW225350   7.399   1.735   7.205  0.1809  0.4404 -0.3584
 8258SOL     OW25351   9.951   7.397   3.444  0.2213  0.2249  0.3512
 8258SOL    HW125352   9.971   7.340   3.519  1.4646 -0.4700 -0.4789
 8258SOL    HW225353   9.861   7.375   3.421 -0.4387  0.9574  2.0654
 8259SOL     OW25354   7.763   1.018   0.796  0.1932 -0.5547  0.2791
 8259SOL    HW125355   7.765   0.964   0.875  0.1372 -0.1442  0.5657
 8259SOL    HW225356   7.851   1.011   0.759  0.4822 -0.0785  0.8449
 8260SOL     OW25357   6.145   5.720   7.440  0.3350  0.1699 -0.2799
 8260SOL    HW125358   6.099   5.697   7.520  0.4052  1.0041  0.0101
 8260SOL    HW225359   6.177   5.809   7.455  2.0430 -0.3777 -0.4836
 8261SOL     OW25360   9.460   1.810   1.793 -0.2756 -0.3362 -0.3876
 8261SOL    HW125361   9.493   1.763   1.870 -0.5146  1.2354  0.7261
 8261SOL    HW225362   9.498   1.763   1.719  1.4466 -0.8447  0.7371
 8262SOL     OW25363   0.731   0.466   9.247  0.2203 -0.0890  0.1799
 8262SOL    HW125364   0.652   0.514   9.273  0.4330  0.8380 -0.8032
 8262SOL    HW225365   0.793   0.534   9.220  0.4371 -0.8938 -1.4987
 8263SOL     OW25366   8.474   1.920   9.611 -0.2280 -0.2106  0.0802
 8263SOL    HW125367   8.561   1.881   9.602 -0.5620 -0.7290 -1.0896
 8263SOL    HW225368   8.490   2.014   9.603  0.1402 -0.3472 -0.9932
 8264SOL     OW25369   9.349   9.625   2.064  0.6371 -0.5328 -0.2325
 8264SOL    HW125370   9.288   9.618   1.991 -0.3336  0.2815  0.4698
 8264SOL    HW225371   9.349   9.538   2.104  0.3640 -0.6923 -0.5778
 8265SOL     OW25372   9.921   3.087   3.717 -0.2809 -0.2533  0.0571
 8265SOL    HW125373   9.867   3.053   3.789  1.3105 -0.1880  1.3554
 8265SOL    HW225374   9.858   3.117   3.652 -1.8041 -0.2552  1.4554
 8266SOL     OW25375   9.505   7.006   6.741 -0.3103 -0.7608  0.1982
 8266SOL    HW125376   9.591   6.983   6.706  0.1146  0.3543  0.5048
 8266SOL    HW225377   9.501   7.101   6.738 -2.4854 -0.7945 -2.1221
 8267SOL     OW25378   8.110   1.515   6.270 -0.7923 -0.2227 -0.3026
 8267SOL    HW125379   8.199   1.540   6.244 -1.2143  0.8507 -0.7690
 8267SOL    HW225380   8.083   1.583   6.333 -1.1776 -0.7031  0.0603
 8268SOL     OW25381   9.321   1.809   3.071 -0.1172  0.4005  0.3095
 8268SOL    HW125382   9.331   1.860   2.991 -0.2591  0.2299  0.1803
 8268SOL    HW225383   9.249   1.749   3.051  0.3165 -0.1224  0.3206
 8269SOL     OW25384   1.321   1.170   4.101  0.1716 -0.3064  0.3604
 8269SOL    HW125385   1.318   1.164   4.005  1.8556  0.2646  0.2350
 8269SOL    HW225386   1.230   1.182   4.127 -0.1389  1.9813 -1.3939
 8270SOL     OW25387   9.887   8.665   7.235  0.6426  0.6091 -0.6298
 8270SOL    HW125388   9.955   8.723   7.269 -0.6928  2.7481 -1.4083
 8270SOL    HW225389   9.809   8.686   7.285 -0.6342  1.7618 -2.9325
 8271SOL     OW25390   5.110   0.604   8.313  0.7712 -0.2653  0.2697
 8271SOL    HW125391   5.094   0.646   8.228 -1.6552  3.1349  2.1683
 8271SOL    HW225392   5.196   0.637   8.340  0.4135  0.7058  0.2330
 8272SOL     OW25393   0.562   3.511   0.417  0.2889 -0.2010  0.2483
 8272SOL    HW125394   0.520   3.435   0.378 -0.7794 -0.4119  1.7238
 8272SOL    HW225395   0.652   3.509   0.384 -0.3116 -0.8527 -1.4362
 8273SOL     OW25396   5.240   0.281   6.257 -0.2097  0.0561 -0.0836
 8273SOL    HW125397   5.181   0.295   6.183  0.7213  2.9410 -0.3843
 8273SOL    HW225398   5.184   0.242   6.325 -2.0124  0.9388 -0.9961
 8274SOL     OW25399   8.193   4.932   2.914  0.7535 -0.0546 -0.5887
 8274SOL    HW125400   8.185   5.012   2.862  1.3648 -0.9694 -2.1635
 8274SOL    HW225401   8.107   4.891   2.907  0.0057  1.0338  1.3126
 8275SOL     OW25402   2.289   4.646   7.886 -0.3933  0.5924  0.7253
 8275SOL    HW125403   2.315   4.728   7.927 -3.3048  0.8988  2.1707
 8275SOL    HW225404   2.194   4.648   7.884 -0.5216 -1.9684 -0.8860
 8276SOL     OW25405   7.529   0.827   9.760 -0.3416 -0.4554 -0.2451
 8276SOL    HW125406   7.533   0.859   9.670 -2.7065  1.1439  0.1368
 8276SOL    HW225407   7.581   0.889   9.811  0.1090 -0.7590 -0.3202
 8277SOL     OW25408   6.276   5.290   6.514  0.0217 -0.1957  0.0367
 8277SOL    HW125409   6.223   5.222   6.556  1.8302 -1.2660  0.6994
 8277SOL    HW225410   6.322   5.245   6.443  0.2079  0.6483 -0.3911
 8278SOL     OW25411   1.940   6.372   2.439  0.4613  0.6038 -0.6607
 8278SOL    HW125412   1.896   6.411   2.362 -0.4745  2.3067  0.6474
 8278SOL    HW225413   1.877   6.384   2.510  1.4367 -0.6424  0.4519
 8279SOL     OW25414   0.489   1.875   1.837  0.0633  0.5513  0.0152
 8279SOL    HW125415   0.500   1.785   1.806  0.4827  0.4002  0.6012
 8279SOL    HW225416   0.405   1.903   1.799  0.1183  0.0489 -0.4826
 8280SOL     OW25417   7.484   0.096   2.054 -0.1662 -0.2992 -0.3437
 8280SOL    HW125418   7.475   0.032   2.124  0.3767  0.5637  0.5368
 8280SOL    HW225419   7.573   0.084   2.021 -0.5208 -0.9067 -1.1011
 8281SOL     OW25420   1.146   8.973   5.401 -0.6311  0.2501 -0.2275
 8281SOL    HW125421   1.136   9.013   5.488 -0.0786  0.4875 -0.2683
 8281SOL    HW225422   1.236   8.942   5.400 -0.3784  0.9619 -1.0065
 8282SOL     OW25423   4.017   8.060   4.119 -0.3812  0.9744  0.7872
 8282SOL    HW125424   4.061   8.145   4.114  2.0441 -0.2809 -2.2925
 8282SOL    HW225425   3.975   8.050   4.034 -2.2347 -0.2114  1.7669
 8283SOL     OW25426   0.528   2.101   8.758  0.5465 -0.3278 -0.6842
 8283SOL    HW125427   0.561   2.022   8.715  0.0023 -0.7163 -0.4039
 8283SOL    HW225428   0.570   2.101   8.844  0.0644 -0.6653 -0.4397
 8284SOL     OW25429   1.318   1.274   9.279  0.0164 -0.1670 -0.0246
 8284SOL    HW125430   1.369   1.196   9.300  0.4666 -0.0309 -0.5954
 8284SOL    HW225431   1.382   1.342   9.260 -0.2071  1.5081  4.0809
 8285SOL     OW25432   4.611   9.214   0.493  0.4110  0.2528 -0.1076
 8285SOL    HW125433   4.694   9.209   0.445 -0.8922 -0.5354 -2.4698
 8285SOL    HW225434   4.552   9.259   0.433 -1.2685 -0.5269  0.8933
 8286SOL     OW25435   4.075   2.988   9.214  0.5136 -0.0781 -0.2120
 8286SOL    HW125436   4.108   3.030   9.293 -0.0468  0.3707 -0.2052
 8286SOL    HW225437   4.152   2.977   9.158  0.9877 -0.7921  0.5634
 8287SOL     OW25438   4.573   3.239   6.069  0.4167  0.4174 -0.4320
 8287SOL    HW125439   4.549   3.159   6.022 -1.6988  0.4535  0.4809
 8287SOL    HW225440   4.604   3.298   6.000  1.5170 -0.9743 -1.1833
 8288SOL     OW25441   7.348   8.608   3.794 -0.2052  0.4064 -0.3634
 8288SOL    HW125442   7.317   8.530   3.748 -2.1338  0.1900  1.1532
 8288SOL    HW225443   7.443   8.598   3.797 -0.1293 -0.2936 -2.9049
 8289SOL     OW25444   7.824   6.799   6.519 -0.0763  0.1810 -0.4611
 8289SOL    HW125445   7.815   6.720   6.572 -0.4323 -0.3121 -1.2489
 8289SOL    HW225446   7.756   6.858   6.552 -1.0669 -0.5631 -1.1315
 8290SOL     OW25447   5.560   2.595   1.971  0.2274 -0.0119  0.2806
 8290SOL    HW125448   5.503   2.671   1.964  0.9772  0.3995 -2.3964
 8290SOL    HW225449   5.635   2.625   2.022  0.8748  1.3124 -1.3971
 8291SOL     OW25450   0.055   9.038   3.312 -0.1792 -0.0199  0.3234
 8291SOL    HW125451   0.049   9.032   3.217  2.0569 -2.4655  0.1929
 8291SOL    HW225452   0.132   9.093   3.328  0.4137 -0.9068  0.6250
 8292SOL     OW25453   9.395   4.476   4.997  0.0332 -0.4596  0.0823
 8292SOL    HW125454   9.331   4.531   5.042  1.1536  0.8039  0.2157
 8292SOL    HW225455   9.343   4.416   4.944 -1.2683  1.6883 -1.2292
 8293SOL     OW25456   1.500   9.234   5.942  0.1435  0.0723 -0.2748
 8293SOL    HW125457   1.584   9.200   5.973 -0.1768 -1.2399 -0.7784
 8293SOL    HW225458   1.439   9.160   5.952 -0.7496  0.7285 -0.7421
 8294SOL     OW25459   5.626   3.354   5.009 -1.2185 -0.2846  0.2751
 8294SOL    HW125460   5.574   3.418   4.960 -0.9662  0.6827  1.2233
 8294SOL    HW225461   5.697   3.405   5.047  0.2086 -1.5063 -0.6377
 8295SOL     OW25462   5.199   8.211   7.788  0.3205 -0.2913 -0.6650
 8295SOL    HW125463   5.156   8.230   7.704 -1.3315 -0.8863 -0.0006
 8295SOL    HW225464   5.154   8.133   7.820  1.3919 -0.4618  0.4600
 8296SOL     OW25465   6.242   2.097   9.800 -0.0346  0.7455 -0.4223
 8296SOL    HW125466   6.316   2.051   9.838 -1.5584 -0.2491  1.5233
 8296SOL    HW225467   6.278   2.143   9.724  2.5277  0.2923  0.4435
 8297SOL     OW25468   3.802   2.131   5.220 -0.1940 -0.6272  0.4307
 8297SOL    HW125469   3.749   2.076   5.279 -1.5264  0.9894  0.8212
 8297SOL    HW225470   3.852   2.187   5.279 -0.2153 -0.1975  0.0407
 8298SOL     OW25471   5.376   9.497   0.754 -0.1275 -0.0867 -0.0167
 8298SOL    HW125472   5.304   9.455   0.801  1.0580 -0.4158  1.6285
 8298SOL    HW225473   5.447   9.432   0.757  0.2639  0.2286 -1.5794
 8299SOL     OW25474   9.748   1.444   0.038 -0.0094 -0.2108  0.3943
 8299SOL    HW125475   9.658   1.453   0.008 -0.3194 -0.8041  1.1161
 8299SOL    HW225476   9.800   1.488  -0.029 -0.8027 -0.1793 -0.2191
 8300SOL     OW25477   8.080   8.293   2.039  1.1046 -0.0031  0.3939
 8300SOL    HW125478   8.028   8.274   2.117  0.3345  0.9512  0.1327
 8300SOL    HW225479   8.169   8.306   2.072  1.4868 -2.8052  0.7123
 8301SOL     OW25480   9.667   5.942   0.062 -0.1208 -0.5167 -0.3709
 8301SOL    HW125481   9.581   5.958   0.103  0.1467 -1.8082  0.7546
 8301SOL    HW225482   9.696   5.859   0.099  0.6917 -1.1627 -2.3293
 8302SOL     OW25483   2.444   3.778   7.349 -0.6613 -0.3547 -0.0048
 8302SOL    HW125484   2.453   3.738   7.435 -0.4828 -1.6278 -0.5954
 8302SOL    HW225485   2.409   3.866   7.367  1.0917  0.0946  1.4761
 8303SOL     OW25486   1.886   1.859   0.805 -0.6491 -0.1208 -0.4299
 8303SOL    HW125487   1.894   1.885   0.713 -0.6520 -0.2074 -0.4542
 8303SOL    HW225488   1.932   1.775   0.811 -0.5197 -0.0436 -0.3211
 8304SOL     OW25489   3.015   8.429   0.973  0.0511  0.1176  0.2854
 8304SOL    HW125490   3.106   8.398   0.974 -0.4090 -1.4259 -0.9249
 8304SOL    HW225491   3.021   8.520   0.945  1.2130 -0.0007  0.0948
 8305SOL     OW25492   8.147   0.416   3.699  0.0740  0.2461  0.1372
 8305SOL    HW125493   8.115   0.374   3.779 -0.8470  1.7058  0.5692
 8305SOL    HW225494   8.080   0.395   3.633  0.4749 -0.3601 -0.0881
 8306SOL     OW25495   3.448   6.471   8.493 -0.0681 -0.0936 -0.3726
 8306SOL    HW125496   3.469   6.379   8.511 -2.3053 -0.6946 -0.5879
 8306SOL    HW225497   3.520   6.520   8.534  1.3026 -1.9187 -0.4549
 8307SOL     OW25498   2.331   2.934   2.122 -0.2842 -0.2635  0.3333
 8307SOL    HW125499   2.252   2.969   2.081  1.7383  4.3535 -0.2221
 8307SOL    HW225500   2.327   2.966   2.212  1.0315  0.3359  0.2015
 8308SOL     OW25501   1.414   6.157   1.131  0.0141 -0.7027  0.3970
 8308SOL    HW125502   1.361   6.185   1.205  1.9434 -0.2364  1.6817
 8308SOL    HW225503   1.433   6.239   1.084  1.3137 -0.5424  1.1625
 8309SOL     OW25504   8.478   9.297   6.616  0.2271 -0.0419  0.2176
 8309SOL    HW125505   8.560   9.301   6.665  2.3347 -1.7846 -2.8660
 8309SOL    HW225506   8.460   9.389   6.592  2.2623  0.2255 -0.4551
 8310SOL     OW25507   6.971   8.573   5.289 -0.5137  0.0721  0.0513
 8310SOL    HW125508   7.026   8.647   5.265  0.0532  0.5118  2.4802
 8310SOL    HW225509   7.026   8.496   5.272 -1.1385  0.0933 -2.5664
 8311SOL     OW25510   5.058   6.239   3.416 -0.2205 -0.1402 -0.0553
 8311SOL    HW125511   5.088   6.198   3.497 -1.5741 -0.2690  0.3945
 8311SOL    HW225512   5.058   6.169   3.351  1.6397  0.1308 -0.4163
 8312SOL     OW25513   5.162   6.578   7.974  0.1151  0.1195 -0.2984
 8312SOL    HW125514   5.176   6.515   7.904 -0.6985  0.3211 -0.6628
 8312SOL    HW225515   5.066   6.582   7.984 -0.0593  2.9439 -1.8845
 8313SOL     OW25516   5.246   7.821   8.421 -0.1168 -0.0575  0.5357
 8313SOL    HW125517   5.303   7.817   8.344 -1.4086 -0.3057 -0.4372
 8313SOL    HW225518   5.282   7.893   8.473 -1.1597  2.4529 -1.9545
 8314SOL     OW25519   3.521   2.835   1.229  0.1681  0.2810  0.3504
 8314SOL    HW125520   3.493   2.857   1.140  2.1032  0.1764 -0.3353
 8314SOL    HW225521   3.600   2.888   1.243 -0.0119  0.1668  1.9462
 8315SOL     OW25522   4.853   7.969   6.145  0.6170 -0.1900 -0.0528
 8315SOL    HW125523   4.908   8.045   6.163 -1.2215  0.8503  1.5626
 8315SOL    HW225524   4.765   7.996   6.171 -0.7620 -1.7019 -2.7092
 8316SOL     OW25525   8.519   5.936   7.655 -0.0369 -0.3487  0.1303
 8316SOL    HW125526   8.434   5.925   7.614 -0.3290  1.3033  0.2134
 8316SOL    HW225527   8.573   5.976   7.586  0.3423 -0.3463  0.4277
 8317SOL     OW25528   9.775   6.488   6.928 -0.2824  0.2482  0.2078
 8317SOL    HW125529   9.839   6.428   6.967  0.5639 -0.1636 -1.6752
 8317SOL    HW225530   9.721   6.432   6.873 -0.4478  0.9970 -0.4017
 8318SOL     OW25531   0.669   1.008   8.677  0.2010  0.7919  0.6084
 8318SOL    HW125532   0.728   0.937   8.703 -2.0719 -2.6290 -2.5852
 8318SOL    HW225533   0.725   1.067   8.627  1.3096 -1.6949 -1.3086
 8319SOL     OW25534   9.259   6.268   2.380  0.1982  0.5489 -0.4426
 8319SOL    HW125535   9.247   6.330   2.307  0.9203  0.3282 -0.7531
 8319SOL    HW225536   9.171   6.258   2.416 -0.0835  1.0688 -0.9541
 8320SOL     OW25537   2.225   2.175   2.813  0.2165  0.3209  0.1335
 8320SOL    HW125538   2.272   2.114   2.869 -1.8093 -0.5216  1.0247
 8320SOL    HW225539   2.265   2.164   2.727  0.1580 -2.0585  0.3364
 8321SOL     OW25540   3.714   9.779   4.548 -0.5355 -0.3604 -0.4665
 8321SOL    HW125541   3.645   9.838   4.577  0.2070 -0.1441  0.9468
 8321SOL    HW225542   3.683   9.692   4.573 -1.2841 -0.5240 -1.8644
 8322SOL     OW25543   5.302   6.553   7.405 -0.6914 -0.2046 -0.1661
 8322SOL    HW125544   5.229   6.576   7.347 -0.5708  0.8255  0.0615
 8322SOL    HW225545   5.315   6.632   7.459  1.9136  0.4521 -1.5703
 8323SOL     OW25546   9.243   4.775   8.758  0.0470  0.7363  0.0847
 8323SOL    HW125547   9.324   4.803   8.715  0.0381  0.5175 -0.0765
 8323SOL    HW225548   9.268   4.760   8.849 -0.0680  1.8264  0.3142
 8324SOL     OW25549   1.812   5.866   5.288  0.0153  0.1113  0.0201
 8324SOL    HW125550   1.791   5.947   5.334  0.3317  0.3773 -0.2980
 8324SOL    HW225551   1.813   5.799   5.356  2.4583  0.8061  0.7711
 8325SOL     OW25552   3.296   4.661   5.051  0.1000  0.1415  0.0762
 8325SOL    HW125553   3.387   4.692   5.051  0.1657  0.0417  2.0913
 8325SOL    HW225554   3.299   4.579   5.002  1.2308 -0.1853  0.6569
 8326SOL     OW25555   3.062   1.457   5.853 -0.0856  0.4970 -0.1239
 8326SOL    HW125556   3.149   1.418   5.849 -0.2085  0.2284 -0.1582
 8326SOL    HW225557   3.073   1.545   5.816 -0.1989 -0.1769 -1.8065
 8327SOL     OW25558   6.344   8.793   1.407  0.3285 -0.0594 -0.5947
 8327SOL    HW125559   6.301   8.714   1.375 -2.1716  0.3157  1.4733
 8327SOL    HW225560   6.422   8.760   1.454 -0.9679 -1.4332  0.7346
 8328SOL     OW25561   6.955   9.363   3.969  0.0111  0.0615 -0.5711
 8328SOL    HW125562   7.005   9.401   3.896  1.8124 -0.0376  0.5490
 8328SOL    HW225563   6.869   9.405   3.963 -0.5664 -1.2645 -3.8014
 8329SOL     OW25564   3.360   2.454   4.407  0.1164 -0.3010 -0.0269
 8329SOL    HW125565   3.352   2.498   4.322 -2.8065  0.6614  0.6466
 8329SOL    HW225566   3.325   2.366   4.392  1.8927 -1.0125 -0.3206
 8330SOL     OW25567   2.143   4.287   3.113  0.5107 -0.1356 -0.2286
 8330SOL    HW125568   2.213   4.350   3.128  0.5106 -0.3394  0.6918
 8330SOL    HW225569   2.116   4.301   3.023  0.9496  0.7370 -0.2258
 8331SOL     OW25570   0.033   4.444   4.211 -0.0815 -0.2397 -0.0601
 8331SOL    HW125571   0.058   4.379   4.277 -1.3987  0.1044  0.8133
 8331SOL    HW225572  -0.037   4.494   4.252 -0.9693 -0.0385 -1.7424
 8332SOL     OW25573   1.575   5.816   8.704 -0.1528  0.0565  0.7785
 8332SOL    HW125574   1.569   5.906   8.673 -0.1925 -0.5389 -1.0343
 8332SOL    HW225575   1.565   5.823   8.799  0.3893  2.0065  0.7355
 8333SOL     OW25576   2.514   7.077   1.490  0.3807  0.3266 -0.2005
 8333SOL    HW125577   2.477   7.046   1.408  0.1994  2.3446 -0.9216
 8333SOL    HW225578   2.600   7.111   1.467  0.4765  0.5911  0.5145
 8334SOL     OW25579   0.028   6.328   2.707  0.2921  0.1923 -0.0725
 8334SOL    HW125580   0.073   6.380   2.773  0.0538 -0.9435  1.0259
 8334SOL    HW225581  -0.031   6.271   2.756 -0.3709 -0.2443 -1.3062
 8335SOL     OW25582   5.709   1.795   6.359  0.1918 -0.2686 -0.4533
 8335SOL    HW125583   5.764   1.841   6.423  1.7204 -1.9397 -0.5055
 8335SOL    HW225584   5.621   1.797   6.398  0.4048  1.6651  0.0585
 8336SOL     OW25585   1.572   1.986   6.852 -0.4398 -0.5606  0.0740
 8336SOL    HW125586   1.594   2.046   6.780  1.6437 -2.9363 -1.4288
 8336SOL    HW225587   1.654   1.943   6.874 -1.5373 -1.7669  2.1767
 8337SOL     OW25588   1.709   0.404   1.461 -0.5931  0.4300  0.1358
 8337SOL    HW125589   1.785   0.346   1.453 -0.6583  0.1552  1.3224
 8337SOL    HW225590   1.633   0.347   1.452 -0.6573  0.3281  1.2505
 8338SOL     OW25591   6.834   3.641   2.375 -0.4158  0.2554 -0.0582
 8338SOL    HW125592   6.838   3.638   2.471 -0.9926  0.5901 -0.0217
 8338SOL    HW225593   6.758   3.589   2.352 -0.6182  0.6563 -0.3040
 8339SOL     OW25594   8.994   0.961   3.251 -0.0795 -0.0967  0.0311
 8339SOL    HW125595   9.059   0.909   3.203  0.8037  0.5194  0.5256
 8339SOL    HW225596   8.952   1.014   3.183 -0.0209 -0.4504 -0.2878
 8340SOL     OW25597   8.001   5.815   8.677 -0.0532  0.2072 -0.4297
 8340SOL    HW125598   7.906   5.823   8.689 -0.3066 -0.3813 -1.7947
 8340SOL    HW225599   8.010   5.773   8.591  1.4258 -0.8685  0.2098
 8341SOL     OW25600   7.780   6.642   5.550  0.0342  0.1366  0.5021
 8341SOL    HW125601   7.743   6.555   5.533  0.2194  0.4012 -1.4071
 8341SOL    HW225602   7.873   6.625   5.569 -0.2170 -0.1828  1.5144
 8342SOL     OW25603   1.793   0.929   2.666 -0.1460 -0.1773  0.2714
 8342SOL    HW125604   1.861   0.864   2.686  0.6268  0.1636 -1.1173
 8342SOL    HW225605   1.797   0.940   2.571  0.2636  2.4529  0.5201
 8343SOL     OW25606   4.719   1.399   1.315  0.0840  0.5306 -0.0413
 8343SOL    HW125607   4.723   1.329   1.249  1.1178  1.0486 -0.5573
 8343SOL    HW225608   4.719   1.480   1.264 -0.9104  0.9265  0.5599
 8344SOL     OW25609   3.003   0.189   8.547 -0.3632 -0.7881  0.2409
 8344SOL    HW125610   2.996   0.275   8.507  2.4759 -0.9170 -0.8068
 8344SOL    HW225611   2.913   0.164   8.567 -1.6773  0.7984 -2.9166
 8345SOL     OW25612   5.472   4.455   1.226 -0.1799  0.0626 -0.4174
 8345SOL    HW125613   5.551   4.454   1.172  0.5903  1.6362  0.6055
 8345SOL    HW225614   5.409   4.507   1.176 -0.1504 -0.1457 -0.6731
 8346SOL     OW25615   9.294   4.836   2.412 -0.3053 -0.1063  0.8046
 8346SOL    HW125616   9.250   4.751   2.417  0.4798 -0.4783  1.7313
 8346SOL    HW225617   9.373   4.825   2.465  1.4417  0.2003 -1.5241
 8347SOL     OW25618   1.247   7.615   3.097 -0.4948  0.4844  0.1029
 8347SOL    HW125619   1.324   7.670   3.113  0.1683 -0.5196  0.4648
 8347SOL    HW225620   1.274   7.527   3.123 -0.3458 -0.7483 -3.6297
 8348SOL     OW25621   3.206   3.578   5.366 -0.3160  0.3556  1.0664
 8348SOL    HW125622   3.129   3.528   5.339 -0.9089  1.4664  0.6404
 8348SOL    HW225623   3.280   3.518   5.351 -0.9628 -0.2599  0.2376
 8349SOL     OW25624   9.812   2.602   0.757 -0.6646  0.0282  0.2304
 8349SOL    HW125625   9.818   2.697   0.757 -0.9821  0.0791 -1.8662
 8349SOL    HW225626   9.719   2.584   0.771 -0.9489  0.0989 -1.4529
 8350SOL     OW25627   5.357   3.838   1.236  0.0750  0.1353  0.4528
 8350SOL    HW125628   5.429   3.896   1.208  2.4175 -2.0723  1.4820
 8350SOL    HW225629   5.329   3.796   1.155  1.9720 -1.0327  0.3271
 8351SOL     OW25630   0.221   1.966   4.197  0.4759 -0.0021 -0.0919
 8351SOL    HW125631   0.273   1.947   4.275  1.2015  0.0510 -0.5536
 8351SOL    HW225632   0.142   2.009   4.231  0.8596  0.1828  0.5956
 8352SOL     OW25633   1.534   5.753   0.326 -0.0058  0.2290 -0.2207
 8352SOL    HW125634   1.595   5.821   0.295  0.6168  0.9174  2.3354
 8352SOL    HW225635   1.452   5.800   0.340  0.0494  0.1715  0.2944
 8353SOL     OW25636   9.096   9.948   2.817 -0.7363 -0.2342 -0.7272
 8353SOL    HW125637   9.136   9.863   2.833 -0.7783  0.1365  1.6778
 8353SOL    HW225638   9.148   9.986   2.746  2.1731 -0.4684  1.1204
 8354SOL     OW25639   8.895   5.656   0.656  0.0262  0.3545  0.2004
 8354SOL    HW125640   8.913   5.712   0.731 -0.6664  1.6264 -0.5522
 8354SOL    HW225641   8.918   5.709   0.580 -0.0684 -0.6064 -0.5168
 8355SOL     OW25642   0.199   8.945   8.715  0.5640 -0.3329 -0.9260
 8355SOL    HW125643   0.224   8.997   8.791  0.3343 -0.0894 -1.0177
 8355SOL    HW225644   0.116   8.981   8.687  1.4280  0.6975 -2.3066
 8356SOL     OW25645   6.349   2.887   4.816 -0.4722  0.0540 -0.0671
 8356SOL    HW125646   6.307   2.927   4.892  1.1303  0.8025  0.4767
 8356SOL    HW225647   6.433   2.855   4.850  0.1672  0.2008 -1.4800
 8357SOL     OW25648   7.416   3.068   3.184  0.7384 -0.4060 -0.0906
 8357SOL    HW125649   7.408   3.044   3.091 -0.9930  1.0042 -0.3792
 8357SOL    HW225650   7.336   3.034   3.224  1.2424 -0.5666  0.7858
 8358SOL     OW25651   4.734   6.811   7.716 -0.0057  0.0847  0.4595
 8358SOL    HW125652   4.789   6.881   7.682 -2.5966  1.3507 -1.5396
 8358SOL    HW225653   4.788   6.733   7.710  1.6701  1.2684 -1.0491
 8359SOL     OW25654   2.608   6.461   6.712  0.0538 -0.5495  0.5077
 8359SOL    HW125655   2.695   6.490   6.684  0.2974 -2.0170 -0.3434
 8359SOL    HW225656   2.625   6.386   6.769 -0.6639 -0.8584  0.3242
 8360SOL     OW25657   3.182   9.492   8.898 -0.2128  0.2587  0.7681
 8360SOL    HW125658   3.093   9.460   8.886 -0.4598  1.0164  0.5556
 8360SOL    HW225659   3.175   9.557   8.968  0.3804 -0.5182  1.5840
 8361SOL     OW25660   5.797   9.136   5.117  1.0245  0.0563  0.3383
 8361SOL    HW125661   5.759   9.048   5.109  0.7554  0.3268 -1.7040
 8361SOL    HW225662   5.789   9.156   5.210 -1.4631 -0.9511  0.4222
 8362SOL     OW25663   0.594   1.166   5.233  0.6075 -0.0095 -0.7864
 8362SOL    HW125664   0.567   1.228   5.166 -0.9030  1.3707  0.9891
 8362SOL    HW225665   0.512   1.136   5.273  1.4593  0.1541  1.2210
 8363SOL     OW25666   4.188   7.678   6.593  0.1935  0.2617 -0.5973
 8363SOL    HW125667   4.276   7.699   6.561  0.1858 -0.4030 -1.0798
 8363SOL    HW225668   4.153   7.617   6.528 -0.6374  0.5393 -0.4183
 8364SOL     OW25669   0.249   3.041   2.158  0.4617 -0.2278  0.0677
 8364SOL    HW125670   0.156   3.019   2.159  0.2105  0.7268 -0.8514
 8364SOL    HW225671   0.251   3.134   2.135  1.5815  0.1183  1.4297
 8365SOL     OW25672   8.887   9.236   4.758 -0.2770 -0.6091 -0.1026
 8365SOL    HW125673   8.870   9.284   4.677  0.8210 -1.9274 -1.1740
 8365SOL    HW225674   8.801   9.213   4.791 -0.8062  1.4440  0.0730
 8366SOL     OW25675   4.714   2.696   3.905  0.1265 -0.1403  0.2605
 8366SOL    HW125676   4.641   2.700   3.967  0.6547  0.5878  0.8553
 8366SOL    HW225677   4.730   2.787   3.880 -0.7207 -0.5054 -1.7432
 8367SOL     OW25678   5.784   8.280   2.418 -0.1009 -1.1311 -0.0063
 8367SOL    HW125679   5.786   8.265   2.324 -1.7500 -2.7435  0.1388
 8367SOL    HW225680   5.834   8.206   2.455  1.4183  0.0394  0.3859
 8368SOL     OW25681   1.884   6.873   8.085  0.0131  0.2981 -0.6988
 8368SOL    HW125682   1.794   6.841   8.083  0.0986  0.0739 -1.8194
 8368SOL    HW225683   1.932   6.806   8.134 -0.6034  0.9461  0.8452
 8369SOL     OW25684   8.422   8.175   4.337 -0.5957 -0.0629 -0.3644
 8369SOL    HW125685   8.416   8.193   4.431 -0.2497 -1.0147 -0.1587
 8369SOL    HW225686   8.379   8.091   4.326  0.1186 -0.3571 -0.9362
 8370SOL     OW25687   4.540   3.046   1.313 -0.4749  0.3559 -0.2478
 8370SOL    HW125688   4.528   3.067   1.220 -2.6628 -0.5602 -0.2214
 8370SOL    HW225689   4.564   3.129   1.353  2.1808  0.4832 -1.8253
 8371SOL     OW25690   9.320   9.713   2.835 -0.3747 -0.5377 -0.0098
 8371SOL    HW125691   9.356   9.729   2.748 -3.0585  0.6057 -1.0471
 8371SOL    HW225692   9.322   9.618   2.845  1.3253 -0.6003 -0.6449
 8372SOL     OW25693   6.639   8.357   5.268  0.3198 -0.0370  0.0663
 8372SOL    HW125694   6.596   8.341   5.352  0.6889 -0.0003  0.2660
 8372SOL    HW225695   6.728   8.326   5.281  0.3881  0.0016 -0.3038
 8373SOL     OW25696   3.892   7.118   2.024 -0.2638  0.1527 -0.5575
 8373SOL    HW125697   3.970   7.174   2.026 -0.1731  0.0068  0.3895
 8373SOL    HW225698   3.822   7.174   2.056 -0.6462  0.4012 -1.7666
 8374SOL     OW25699   9.819   4.833   7.926 -0.0145 -0.0982 -0.1815
 8374SOL    HW125700   9.801   4.895   7.855 -0.2497 -0.8075 -0.7616
 8374SOL    HW225701   9.914   4.819   7.922 -0.1207 -0.7010 -0.8588
 8375SOL     OW25702   9.593   1.679   0.817 -0.0330 -0.1097  0.1819
 8375SOL    HW125703   9.682   1.647   0.809  0.0834  0.4363 -0.8841
 8375SOL    HW225704   9.562   1.644   0.901  0.8031 -1.1912  0.0568
 8376SOL     OW25705   5.516   5.441   4.135  0.0623 -0.2472 -0.2457
 8376SOL    HW125706   5.450   5.385   4.176 -1.1840  1.7953  0.6876
 8376SOL    HW225707   5.536   5.398   4.052 -1.8161 -1.3755 -0.1642
 8377SOL     OW25708   4.507   7.799   9.089 -0.5122  0.3985 -0.3337
 8377SOL    HW125709   4.507   7.728   9.154  1.0540  1.0451  0.4311
 8377SOL    HW225710   4.600   7.814   9.071 -0.8389 -1.4281 -4.6493
 8378SOL     OW25711   3.526   2.260   2.215 -0.6253 -0.0388 -0.8366
 8378SOL    HW125712   3.574   2.299   2.142 -0.3478 -0.6524 -0.9917
 8378SOL    HW225713   3.448   2.315   2.225 -0.1421  0.6805 -0.9009
 8379SOL     OW25714   5.582   0.839   8.018 -0.3210 -0.5879 -0.3912
 8379SOL    HW125715   5.578   0.935   8.023 -2.6527 -0.6688  0.3599
 8379SOL    HW225716   5.561   0.819   7.927 -0.6372 -0.3992 -0.3615
 8380SOL     OW25717   0.543   3.496   7.404 -0.8863  0.2355  0.0773
 8380SOL    HW125718   0.531   3.591   7.405 -1.0744  0.2131  0.5195
 8380SOL    HW225719   0.610   3.481   7.338 -1.6866  0.5771 -0.8445
 8381SOL     OW25720   2.243   7.880   0.506  0.0058  0.2680  0.3693
 8381SOL    HW125721   2.172   7.841   0.456 -0.4588  0.9410  0.4942
 8381SOL    HW225722   2.274   7.809   0.562  1.2793 -0.8298 -1.6166
 8382SOL     OW25723   3.009   2.888   2.277 -0.2068 -0.1040 -0.0771
 8382SOL    HW125724   3.014   2.860   2.369  0.1019 -0.4742 -0.2008
 8382SOL    HW225725   3.096   2.867   2.242  0.2493  1.5787 -0.0231
 8383SOL     OW25726   5.434   0.739   1.186 -0.6179  0.2644  0.8864
 8383SOL    HW125727   5.512   0.760   1.134 -1.2761 -1.1169 -0.7204
 8383SOL    HW225728   5.468   0.730   1.275  0.6638  1.9083  0.6343
 8384SOL     OW25729   1.363   3.313   2.813 -0.4407 -0.1944 -0.0474
 8384SOL    HW125730   1.363   3.313   2.909  0.3452 -0.6639 -0.0321
 8384SOL    HW225731   1.272   3.299   2.789 -0.3738 -2.2095  0.6734
 8385SOL     OW25732   8.087   0.359   0.918 -0.3923  0.4327  0.5158
 8385SOL    HW125733   8.175   0.351   0.954  0.6243  0.9211 -1.6327
 8385SOL    HW225734   8.065   0.452   0.929  0.7335  1.0397 -1.6359
 8386SOL     OW25735   4.412   5.658   2.018 -0.0943 -0.3590 -0.7375
 8386SOL    HW125736   4.360   5.689   2.092  0.0763 -0.7453 -0.4544
 8386SOL    HW225737   4.371   5.575   1.994 -1.2863  0.5997 -2.2377
 8387SOL     OW25738   5.417   8.510   5.665  0.1035  0.0220 -0.0667
 8387SOL    HW125739   5.436   8.604   5.668  1.2706 -0.1977 -0.2909
 8387SOL    HW225740   5.502   8.468   5.677 -0.3736 -1.0106 -0.2394
 8388SOL     OW25741   9.693   0.631   8.453 -0.3806  0.1423 -0.1740
 8388SOL    HW125742   9.787   0.634   8.469 -0.1412  0.0458 -1.4911
 8388SOL    HW225743   9.678   0.696   8.384 -1.3583  0.4910  0.3405
 8389SOL     OW25744   0.670   5.012   0.107  0.6964 -0.0970  0.2503
 8389SOL    HW125745   0.690   4.978   0.194 -0.8833 -0.7453  0.3921
 8389SOL    HW225746   0.575   5.012   0.102  0.7298 -1.3218 -1.9252
 8390SOL     OW25747   5.439   7.719   3.054  0.0349  0.0313 -0.2962
 8390SOL    HW125748   5.423   7.792   3.113  1.0675 -0.1702  0.2445
 8390SOL    HW225749   5.419   7.753   2.967  0.9496  1.0873 -0.0988
 8391SOL     OW25750   0.238   9.440   1.965  0.8500 -0.3396 -0.5951
 8391SOL    HW125751   0.272   9.364   2.011  1.0229  0.0541 -0.0578
 8391SOL    HW225752   0.284   9.515   2.004 -0.3922  0.1759 -0.0641
 8392SOL     OW25753   5.817   2.745   4.277  0.4934  0.8099 -0.4093
 8392SOL    HW125754   5.752   2.767   4.211  0.2930  2.2653  0.2333
 8392SOL    HW225755   5.891   2.803   4.259  1.1374 -0.0013 -0.4121
 8393SOL     OW25756   6.255   1.098   5.559 -0.3938  0.4069  0.1785
 8393SOL    HW125757   6.186   1.055   5.610 -1.0577  0.8678 -0.3298
 8393SOL    HW225758   6.336   1.054   5.588 -0.8312  0.2066  1.1393
 8394SOL     OW25759   3.337   9.455   5.041  0.3093 -0.2958  0.3061
 8394SOL    HW125760   3.315   9.477   4.950 -0.4746  1.2266  0.8187
 8394SOL    HW225761   3.286   9.518   5.093  1.6734 -0.3399  1.7605
 8395SOL     OW25762   1.523   4.240   8.240 -0.9293 -0.0168  0.5138
 8395SOL    HW125763   1.540   4.255   8.333 -0.2641 -0.6369  0.5010
 8395SOL    HW225764   1.584   4.297   8.194 -1.0717  0.0892  0.4524
 8396SOL     OW25765   5.777   1.683   6.098  0.4089  0.2201  0.2662
 8396SOL    HW125766   5.684   1.665   6.086  0.8064 -0.5943 -2.1414
 8396SOL    HW225767   5.781   1.738   6.176 -2.0514  0.1033  0.5475
 8397SOL     OW25768   7.184   1.697   8.065 -0.0416  0.3777  1.0500
 8397SOL    HW125769   7.207   1.604   8.058  0.8886  0.6258  0.6102
 8397SOL    HW225770   7.263   1.743   8.036 -0.7769  1.2970  0.4727
 8398SOL     OW25771   3.156   4.792   1.835 -0.2607  0.5763 -0.6114
 8398SOL    HW125772   3.082   4.849   1.814  0.1632  0.6811 -1.9146
 8398SOL    HW225773   3.191   4.765   1.750  1.6012  1.0614 -0.0628
 8399SOL     OW25774   0.123   9.331   7.890 -0.3047 -0.3938 -0.5957
 8399SOL    HW125775   0.207   9.331   7.845 -1.2400 -0.2585 -2.4697
 8399SOL    HW225776   0.123   9.412   7.942  2.3185 -2.3682  2.8275
 8400SOL     OW25777   8.333   6.632   3.774  0.0276  0.4136 -0.6533
 8400SOL    HW125778   8.267   6.656   3.839  1.1097  0.2701  0.5408
 8400SOL    HW225779   8.360   6.543   3.799 -0.0217  0.0918 -1.7153
 8401SOL     OW25780   0.137   6.193   1.173 -0.3715 -0.2896  0.9902
 8401SOL    HW125781   0.104   6.202   1.263 -0.2597 -0.0044  1.0023
 8401SOL    HW225782   0.176   6.106   1.171  0.0977 -0.0900  1.3751
 8402SOL     OW25783   3.031   1.568   3.729  0.2717 -0.5273 -0.1408
 8402SOL    HW125784   2.989   1.631   3.786 -1.3410 -2.1644  0.5777
 8402SOL    HW225785   3.092   1.620   3.676  0.9642  1.2032  2.2140
 8403SOL     OW25786   5.258   0.903   0.213  0.3221  0.1265 -0.2935
 8403SOL    HW125787   5.176   0.860   0.188  0.0172  0.6674 -0.2469
 8403SOL    HW225788   5.231   0.990   0.241  1.0132  0.6365 -1.1517
 8404SOL     OW25789   3.995   6.394   3.820 -0.0807 -0.3896 -0.2688
 8404SOL    HW125790   4.005   6.458   3.750  1.0472  0.3893  0.5770
 8404SOL    HW225791   4.037   6.315   3.786 -0.0822 -0.2106 -0.6938
 8405SOL     OW25792   2.726   0.937   7.627 -0.4815  0.2625  0.2113
 8405SOL    HW125793   2.734   0.893   7.711 -3.0798  0.6177  0.7391
 8405SOL    HW225794   2.652   0.997   7.639 -2.1700 -0.9788 -2.8142
 8406SOL     OW25795   7.719   7.784   3.885 -0.5782 -0.5542 -0.1111
 8406SOL    HW125796   7.639   7.783   3.937 -0.0771 -2.3006  0.7170
 8406SOL    HW225797   7.699   7.840   3.810 -2.2746 -0.2775  0.5056
 8407SOL     OW25798   2.331   3.182   2.591  0.4601  0.5939 -0.1848
 8407SOL    HW125799   2.255   3.240   2.596  0.0182 -0.0934  2.3913
 8407SOL    HW225800   2.403   3.239   2.566 -0.6534  1.4804 -1.5624
 8408SOL     OW25801   7.460   7.196   9.496 -0.0586  0.6256 -0.2617
 8408SOL    HW125802   7.528   7.149   9.447  0.7371  1.2767  0.2092
 8408SOL    HW225803   7.481   7.181   9.588 -0.3864  1.0778 -0.1071
 8409SOL     OW25804   1.876   9.387   1.651  0.0688  0.0454 -0.0996
 8409SOL    HW125805   1.957   9.396   1.700 -0.6289  0.4426  1.0229
 8409SOL    HW225806   1.883   9.302   1.607  0.9456 -0.0611  0.2291
 8410SOL     OW25807   7.315   1.031   2.102 -0.3223 -0.1042  0.3046
 8410SOL    HW125808   7.306   1.081   2.021  0.1964 -0.5548 -0.0329
 8410SOL    HW225809   7.297   0.940   2.077 -1.1138 -0.1276  0.8835
 8411SOL     OW25810   4.169   0.186   7.071 -0.0768  0.4098  0.2486
 8411SOL    HW125811   4.225   0.169   6.995  0.1972  0.7823  0.3581
 8411SOL    HW225812   4.093   0.130   7.059  0.4594 -0.3324  0.2474
 8412SOL     OW25813   0.967   1.594   4.543  0.2559  0.1817  0.9256
 8412SOL    HW125814   0.965   1.510   4.588  0.1937  0.5365  1.5926
 8412SOL    HW225815   1.057   1.625   4.555  0.0481  0.6110  1.4466
 8413SOL     OW25816   9.350   7.554   2.958  0.4563 -0.1927  0.1994
 8413SOL    HW125817   9.355   7.506   3.041 -0.3904 -1.6757 -0.5495
 8413SOL    HW225818   9.299   7.496   2.901 -0.7976  1.7186 -0.7155
 8414SOL     OW25819   7.796   1.904   2.271  0.3558  0.0599  0.9680
 8414SOL    HW125820   7.709   1.895   2.309 -0.1334 -0.1465 -0.1609
 8414SOL    HW225821   7.801   1.834   2.206  0.5412  1.3508 -0.4742
 8415SOL     OW25822   2.134   9.523   7.624  0.2229 -0.1606  0.1467
 8415SOL    HW125823   2.154   9.456   7.559 -1.1881 -0.5433  0.0718
 8415SOL    HW225824   2.180   9.601   7.593  0.5520 -0.6605 -0.6505
 8416SOL     OW25825   2.769   0.259   5.777 -0.6219  0.3549 -0.4804
 8416SOL    HW125826   2.684   0.222   5.757 -0.6944  1.7682 -3.2088
 8416SOL    HW225827   2.809   0.276   5.691  1.9725  0.7082  0.6999
 8417SOL     OW25828   2.998   4.792   4.386  0.1519 -0.1235  0.5084
 8417SOL    HW125829   3.049   4.793   4.305  1.4885  0.2214  1.3221
 8417SOL    HW225830   3.063   4.804   4.455 -0.8950 -0.9484  1.6766
 8418SOL     OW25831   7.779   1.638   1.818 -0.1071 -0.5005 -0.1549
 8418SOL    HW125832   7.723   1.574   1.861 -0.8233  1.3246  1.8262
 8418SOL    HW225833   7.726   1.718   1.815  1.9225  0.9676  0.7167
 8419SOL     OW25834   5.584   5.270   9.148  0.6186 -0.6397  0.5848
 8419SOL    HW125835   5.629   5.266   9.233 -1.0667  0.0724  1.5459
 8419SOL    HW225836   5.567   5.363   9.134  0.7490 -0.7702 -0.4809
 8420SOL     OW25837   9.082   0.671   6.474 -0.2074  0.3343  0.0020
 8420SOL    HW125838   9.137   0.747   6.493 -0.5908  0.3815  0.9543
 8420SOL    HW225839   9.100   0.610   6.546  0.1252 -0.5061 -0.7671
 8421SOL     OW25840   6.657   4.508   8.689 -0.3834  0.1047  0.5051
 8421SOL    HW125841   6.643   4.463   8.606  1.1528  0.2888  0.1180
 8421SOL    HW225842   6.749   4.492   8.710  0.4950  3.6112 -0.0262
 8422SOL     OW25843   0.288   8.222   1.592 -0.6174  0.0625  0.3408
 8422SOL    HW125844   0.256   8.278   1.521  0.2595  1.1422  0.7743
 8422SOL    HW225845   0.244   8.138   1.577 -0.1350  0.1084 -1.7480
 8423SOL     OW25846   4.672   9.745   9.788 -0.2331 -0.1142  0.0728
 8423SOL    HW125847   4.645   9.654   9.773  1.2596 -0.6771  0.6183
 8423SOL    HW225848   4.663   9.787   9.702 -0.4075 -0.9269 -0.3153
 8424SOL     OW25849   1.030   3.694   6.253 -0.6259  0.0533 -0.3984
 8424SOL    HW125850   1.108   3.745   6.275 -0.0892 -0.6874 -0.5165
 8424SOL    HW225851   1.030   3.690   6.157  0.0505 -1.1971 -0.3734
 8425SOL     OW25852   3.010   8.627   2.498  0.7484  0.1285  0.8098
 8425SOL    HW125853   3.062   8.707   2.487  0.4603  0.0572 -1.5483
 8425SOL    HW225854   2.956   8.623   2.420 -1.5278 -0.7854  2.3474
 8426SOL     OW25855   2.337   1.850   2.694 -0.3098  0.3350  0.0768
 8426SOL    HW125856   2.414   1.905   2.678  0.3987 -0.5377  0.4216
 8426SOL    HW225857   2.372   1.771   2.736 -1.4796  0.2289  0.8953
 8427SOL     OW25858   9.807   3.962   2.384 -0.1816  0.3541  0.6632
 8427SOL    HW125859   9.741   3.911   2.337  0.4395  0.4090 -0.2830
 8427SOL    HW225860   9.863   3.897   2.425  0.4983  0.2486 -0.3894
 8428SOL     OW25861   0.544   5.389   3.033  0.5555 -0.4306  0.2586
 8428SOL    HW125862   0.563   5.443   3.109 -1.5638  1.8921 -0.7349
 8428SOL    HW225863   0.471   5.334   3.060  1.1079 -1.0565  0.4997
 8429SOL     OW25864   3.274   7.523   1.479 -0.3761  0.2881  0.0311
 8429SOL    HW125865   3.213   7.499   1.549  0.0393 -1.2775 -0.1161
 8429SOL    HW225866   3.217   7.549   1.406 -0.8481 -0.0406  0.2731
 8430SOL     OW25867   5.361   2.559   4.289  0.1344  0.3818 -0.1236
 8430SOL    HW125868   5.348   2.644   4.247  0.7092  0.3457 -0.3944
 8430SOL    HW225869   5.423   2.576   4.360 -0.5363  0.3711  0.4644
 8431SOL     OW25870   1.566   6.198   9.350  0.8771  0.2036  0.1593
 8431SOL    HW125871   1.560   6.285   9.310  1.3272  1.1956  2.1691
 8431SOL    HW225872   1.605   6.144   9.281 -0.0808  1.3886 -1.3939
 8432SOL     OW25873   2.435   8.462   5.256 -0.1255 -0.3475  0.2142
 8432SOL    HW125874   2.514   8.511   5.277  0.4444 -0.4306 -1.5513
 8432SOL    HW225875   2.363   8.519   5.283  0.5227  1.4004 -1.4902
 8433SOL     OW25876   1.527   6.798   6.485  0.3107  0.1578  0.3010
 8433SOL    HW125877   1.577   6.776   6.406  0.6609  1.2917  0.1890
 8433SOL    HW225878   1.578   6.760   6.556 -0.5340 -1.7761 -0.0472
 8434SOL     OW25879   9.006   5.422   4.299 -0.2232 -0.1730 -0.1267
 8434SOL    HW125880   9.094   5.446   4.270 -0.1271  0.1771  0.4443
 8434SOL    HW225881   8.952   5.431   4.221  0.1633  0.0633 -0.3677
 8435SOL     OW25882   5.077   2.673   2.652  0.1736 -0.0970  0.0847
 8435SOL    HW125883   5.050   2.622   2.576  1.0717 -1.3996  0.5883
 8435SOL    HW225884   5.168   2.697   2.634 -0.0416  0.7925  0.1406
 8436SOL     OW25885   6.311   9.373   9.414  0.2589  0.5449  0.2883
 8436SOL    HW125886   6.330   9.324   9.334 -0.3854 -0.8408  0.9570
 8436SOL    HW225887   6.220   9.400   9.406  0.4076  1.0510  0.2368
 8437SOL     OW25888   6.152   9.647   8.111 -0.6689  0.3626 -0.0806
 8437SOL    HW125889   6.232   9.610   8.148  0.0553  2.0147  0.0818
 8437SOL    HW225890   6.113   9.575   8.062  1.0107 -0.4287 -0.3312
 8438SOL     OW25891   9.104   5.544   4.996 -0.3234 -0.1286  0.3579
 8438SOL    HW125892   9.085   5.462   5.043 -0.1935  0.4812  1.5133
 8438SOL    HW225893   9.151   5.598   5.060 -0.8147  1.0244 -0.2277
 8439SOL     OW25894   0.921   2.934   8.563  0.4255 -0.4235  0.0857
 8439SOL    HW125895   0.956   3.013   8.605 -0.8816 -0.0926  0.6105
 8439SOL    HW225896   0.966   2.862   8.606 -0.8140 -0.0923  2.0686
 8440SOL     OW25897   2.952   8.238   7.241 -0.0138  0.5311 -0.1980
 8440SOL    HW125898   2.921   8.212   7.155  1.1388 -0.5631 -0.3146
 8440SOL    HW225899   2.876   8.230   7.298 -0.5098  0.1964 -0.8990
 8441SOL     OW25900   2.968   3.540   6.422 -1.0186 -0.1381 -0.0721
 8441SOL    HW125901   2.968   3.607   6.490 -1.8796 -0.0788 -0.1174
 8441SOL    HW225902   2.877   3.511   6.417 -0.7613 -0.9270 -0.4336
 8442SOL     OW25903   1.717   4.705   8.759  0.3416  0.1780 -0.1881
 8442SOL    HW125904   1.766   4.781   8.788 -0.8281  0.7459  0.3567
 8442SOL    HW225905   1.730   4.640   8.829 -0.8268  0.8329  0.6592
 8443SOL     OW25906   9.842   5.503   1.449  0.0181  0.6324  0.4761
 8443SOL    HW125907   9.814   5.459   1.530 -2.0133  0.6282 -0.1796
 8443SOL    HW225908   9.772   5.566   1.431 -1.3925 -1.6730 -3.0560
 8444SOL     OW25909   6.287   4.978   9.339 -0.4397  0.2026  0.3503
 8444SOL    HW125910   6.250   5.061   9.368 -1.7556 -0.3304  0.3097
 8444SOL    HW225911   6.373   4.974   9.379 -0.4214  1.5012  0.4881
 8445SOL     OW25912   7.453   5.598   8.436 -0.5848  0.0067 -0.8968
 8445SOL    HW125913   7.417   5.630   8.519  0.1718  0.9633 -0.9129
 8445SOL    HW225914   7.491   5.513   8.457 -1.8166 -0.5019 -0.6355
 8446SOL     OW25915   9.828   6.830   5.775 -0.1938  0.1066 -0.5211
 8446SOL    HW125916   9.807   6.820   5.868 -0.3725  1.1629 -0.4321
 8446SOL    HW225917   9.908   6.883   5.774 -0.4818  0.5445 -0.9739
 8447SOL     OW25918   0.855   4.185   5.581  0.4168  0.1263  0.1632
 8447SOL    HW125919   0.806   4.124   5.637  0.9910  0.8602  1.5139
 8447SOL    HW225920   0.789   4.248   5.552 -0.5345 -1.9038 -2.5424
 8448SOL     OW25921   6.469   5.629   0.619 -0.6279  0.1348  0.2934
 8448SOL    HW125922   6.524   5.690   0.569  0.3280 -1.0524 -0.1403
 8448SOL    HW225923   6.530   5.586   0.679 -0.7644 -2.2920 -1.2054
 8449SOL     OW25924   3.196   9.769   1.345 -1.0793  0.4762  0.2576
 8449SOL    HW125925   3.132   9.741   1.281 -0.7076 -2.5448  1.0427
 8449SOL    HW225926   3.281   9.751   1.304 -0.8115  0.4290  0.8164
 8450SOL     OW25927   4.350   8.548   8.967 -0.3710 -0.4119  0.6185
 8450SOL    HW125928   4.423   8.487   8.964  0.2841  0.1795  2.9723
 8450SOL    HW225929   4.387   8.631   8.935  0.2005  0.0403  2.3708
 8451SOL     OW25930   4.828   0.196   5.843  0.4023  0.4704  0.0440
 8451SOL    HW125931   4.784   0.236   5.917  0.7470 -0.3703  0.7214
 8451SOL    HW225932   4.771   0.122   5.819  1.9076 -1.3274  1.6403
 8452SOL     OW25933   5.641   7.060   0.949  0.2520 -0.2864  0.2108
 8452SOL    HW125934   5.585   7.023   0.881  1.8543 -0.5240 -1.0084
 8452SOL    HW225935   5.631   7.155   0.938  0.5268 -0.3237 -0.3725
 8453SOL     OW25936   3.753   7.018   1.797  0.6074  0.2411  0.2892
 8453SOL    HW125937   3.722   7.101   1.762 -1.9097 -0.0710  1.5529
 8453SOL    HW225938   3.816   7.042   1.865 -1.4123  1.2835  1.8986
 8454SOL     OW25939   7.212   1.188   3.839 -0.4567 -0.0386  0.1344
 8454SOL    HW125940   7.289   1.145   3.804 -0.6842  0.7394 -1.4167
 8454SOL    HW225941   7.222   1.280   3.814  0.3723  1.0893  3.9605
 8455SOL     OW25942   6.372   6.106   1.412 -0.5952 -0.0538 -0.5236
 8455SOL    HW125943   6.466   6.087   1.401 -0.4897 -0.2218  0.5815
 8455SOL    HW225944   6.332   6.020   1.425 -0.3558  0.1857  2.7561
 8456SOL     OW25945   4.182   6.313   4.528 -0.1544 -0.0234  0.5522
 8456SOL    HW125946   4.139   6.394   4.554  0.3887  0.4022  0.1574
 8456SOL    HW225947   4.275   6.336   4.520  0.0046 -0.6747  0.4124
 8457SOL     OW25948   4.165   2.246   8.004 -0.0072  0.1679 -0.3651
 8457SOL    HW125949   4.180   2.265   7.911  1.2442 -0.9470 -0.4237
 8457SOL    HW225950   4.230   2.179   8.025 -0.4440  0.2222  1.2599
 8458SOL     OW25951   1.947   7.326   3.723 -0.1885 -0.4501 -0.0674
 8458SOL    HW125952   1.865   7.297   3.763 -0.2721  1.0826  0.9769
 8458SOL    HW225953   1.995   7.368   3.794 -0.7985  3.3941 -1.6322
 8459SOL     OW25954   1.825   5.949   3.359 -0.1251  0.0903 -0.6957
 8459SOL    HW125955   1.878   5.890   3.306  0.1820  0.0066 -0.3036
 8459SOL    HW225956   1.748   5.897   3.383 -0.0971  0.0148 -0.7691
 8460SOL     OW25957   7.294   6.910   3.769  0.4977  0.2609  0.2741
 8460SOL    HW125958   7.325   6.963   3.696  0.4378  1.8777  1.3570
 8460SOL    HW225959   7.201   6.932   3.777 -0.0412 -1.5130 -0.4382
 8461SOL     OW25960   5.903   3.209   0.999  0.3506 -0.0695  0.4456
 8461SOL    HW125961   5.889   3.170   1.085 -0.2560  2.1318  1.4076
 8461SOL    HW225962   5.986   3.257   1.007  0.5778 -0.2962 -0.3876
 8462SOL     OW25963   5.836   9.198   6.902 -0.2287  0.0585  0.4659
 8462SOL    HW125964   5.793   9.122   6.862  2.0677 -0.7221 -0.6989
 8462SOL    HW225965   5.848   9.173   6.994 -1.2935 -0.1325  0.5628
 8463SOL     OW25966   7.428   6.501   3.990  1.0900 -0.2535  0.0371
 8463SOL    HW125967   7.379   6.530   4.067  1.0106 -2.1687  0.7506
 8463SOL    HW225968   7.424   6.576   3.930 -0.7031  0.4980  1.0084
 8464SOL     OW25969   7.923   2.859   6.268  0.6331 -0.1693  0.3064
 8464SOL    HW125970   7.983   2.933   6.263  0.7399 -0.2966 -0.3828
 8464SOL    HW225971   7.847   2.886   6.217  0.0138  0.0651  1.3259
 8465SOL     OW25972   0.701   5.353   4.153 -0.1706 -0.2540  0.1649
 8465SOL    HW125973   0.744   5.368   4.069 -0.9449 -0.3944 -0.2655
 8465SOL    HW225974   0.609   5.341   4.131 -1.2501  4.0100  1.3395
 8466SOL     OW25975   0.243   8.085   3.764  0.4539 -0.1203  0.0292
 8466SOL    HW125976   0.262   8.048   3.850  1.2169 -0.2800 -0.1980
 8466SOL    HW225977   0.201   8.014   3.716  2.8210 -1.1250 -0.7459
 8467SOL     OW25978   1.067   4.119   0.288 -0.4354 -0.0845  0.0281
 8467SOL    HW125979   1.069   4.066   0.367 -0.5818  0.0923  0.1515
 8467SOL    HW225980   0.978   4.110   0.254  0.2831 -2.1232 -1.4737
 8468SOL     OW25981   3.080   6.917   5.245 -0.2215  0.2252  0.7796
 8468SOL    HW125982   3.034   6.959   5.172  0.7626  2.4903  1.3865
 8468SOL    HW225983   3.010   6.879   5.299 -1.1022  0.4622 -0.1535
 8469SOL     OW25984   8.692   8.582   3.397  0.8761 -0.1026  0.0420
 8469SOL    HW125985   8.675   8.586   3.303 -0.4928 -2.8046  0.0709
 8469SOL    HW225986   8.782   8.553   3.404  0.2106 -2.5327 -0.5737
 8470SOL     OW25987   7.108   2.558   6.571 -0.2365  0.0846 -0.0948
 8470SOL    HW125988   7.142   2.621   6.507  0.5031 -0.4629 -0.2540
 8470SOL    HW225989   7.106   2.475   6.524  0.7753 -0.4223  0.7253
 8471SOL     OW25990   0.443   0.253   3.829  0.1691 -0.0614  0.0832
 8471SOL    HW125991   0.366   0.198   3.812 -0.3817  0.5440  0.5355
 8471SOL    HW225992   0.443   0.316   3.757  0.4064 -0.2383 -0.0703
 8472SOL     OW25993   0.597   8.894   2.604 -0.5387 -0.3572  0.5987
 8472SOL    HW125994   0.674   8.949   2.613 -0.4987 -0.4134  0.6037
 8472SOL    HW225995   0.523   8.952   2.621 -0.5499 -0.0824 -0.3845
 8473SOL     OW25996   6.823   1.840   3.052  0.3122  0.2452  0.3337
 8473SOL    HW125997   6.755   1.787   3.010  0.3678 -0.0600  0.6189
 8473SOL    HW225998   6.775   1.895   3.114  0.2771  0.3765  0.1905
 8474SOL     OW25999   2.650   7.721   1.430 -0.0695  0.2318  0.1351
 8474SOL    HW126000   2.628   7.636   1.391 -1.6550  1.4254 -1.7812
 8474SOL    HW226001   2.575   7.777   1.409  1.1224  2.2370  0.9375
 8475SOL     OW26002   8.330   7.506   7.817 -0.3067 -0.3555 -0.0460
 8475SOL    HW126003   8.246   7.483   7.779 -0.7370  0.9013  0.0946
 8475SOL    HW226004   8.308   7.561   7.893  0.6318  1.6401 -1.1314
 8476SOL     OW26005   8.648   3.966   2.914 -0.0712 -0.2091  0.4367
 8476SOL    HW126006   8.703   3.944   2.838 -0.3335  1.9448 -0.4642
 8476SOL    HW226007   8.696   4.035   2.959 -1.8641  1.5726 -0.2516
 8477SOL     OW26008   0.742   9.521   0.468 -0.0303 -0.0008 -0.0433
 8477SOL    HW126009   0.786   9.567   0.539  0.1470 -0.2093 -0.0153
 8477SOL    HW226010   0.781   9.434   0.468 -2.7009 -1.3586  2.1085
 8478SOL     OW26011   2.767   4.148   0.353  0.2799 -0.1541  0.3796
 8478SOL    HW126012   2.731   4.210   0.290  0.8446  1.0313  1.1926
 8478SOL    HW226013   2.710   4.156   0.430 -0.2439 -1.3915  0.1407
 8479SOL     OW26014   1.342   8.275   1.076 -0.0864  0.2354  0.2349
 8479SOL    HW126015   1.277   8.321   1.022 -0.1852 -1.0260 -0.7614
 8479SOL    HW226016   1.330   8.311   1.164  0.6666  2.9878 -0.7031
 8480SOL     OW26017   6.880   9.136   3.191 -0.1519  0.8445 -0.0638
 8480SOL    HW126018   6.897   9.140   3.285 -0.5419  0.1453  0.0442
 8480SOL    HW226019   6.920   9.054   3.163 -0.4851  0.7933 -0.4070
 8481SOL     OW26020   9.641   3.802   7.173 -0.1213 -0.0377 -0.6228
 8481SOL    HW126021   9.733   3.810   7.147  0.1570 -0.7174  0.1180
 8481SOL    HW226022   9.616   3.713   7.149 -0.1598 -0.3379  0.4458
 8482SOL     OW26023   2.965   9.786   1.574  0.2568 -0.4858  1.0536
 8482SOL    HW126024   2.899   9.727   1.537 -0.2623 -0.2655  1.6257
 8482SOL    HW226025   3.042   9.773   1.518  0.1572 -1.7102  1.1655
 8483SOL     OW26026   8.047   8.815   6.725 -0.4310 -0.1574  0.3749
 8483SOL    HW126027   8.069   8.867   6.802 -0.0579 -0.0144  0.1743
 8483SOL    HW226028   7.965   8.772   6.748  0.7107 -1.7481  1.6585
 8484SOL     OW26029   5.628   0.945   0.674 -0.2002  0.0723 -0.3358
 8484SOL    HW126030   5.652   0.993   0.753 -2.4810  1.2512 -0.2739
 8484SOL    HW226031   5.702   0.960   0.614  1.1340 -0.0632  1.2173
 8485SOL     OW26032   4.214   9.624   3.156  0.0495 -0.8138 -0.0645
 8485SOL    HW126033   4.188   9.541   3.198 -3.3265  1.0856  2.0495
 8485SOL    HW226034   4.264   9.670   3.224  1.5388 -0.8425 -1.0852
 8486SOL     OW26035   3.662   2.925   1.927 -0.2553 -0.1272  0.4166
 8486SOL    HW126036   3.620   2.958   2.007 -1.7035 -2.0441  0.5069
 8486SOL    HW226037   3.669   3.002   1.871 -2.4494  0.6233  1.0500
 8487SOL     OW26038   6.563   2.414   9.386 -0.1773  0.3529  0.6046
 8487SOL    HW126039   6.620   2.348   9.346 -1.0203  0.0315 -0.1282
 8487SOL    HW226040   6.499   2.433   9.317 -0.4791  1.2762  1.1342
 8488SOL     OW26041   4.207   2.337   3.291  0.7327  0.1452  0.0366
 8488SOL    HW126042   4.188   2.427   3.266 -0.2246 -0.1647 -0.3813
 8488SOL    HW226043   4.140   2.285   3.247  1.7504 -0.8551 -0.3594
 8489SOL     OW26044   1.420   9.936   2.443  0.0929  0.4781 -0.2923
 8489SOL    HW126045   1.472   9.910   2.367 -2.2575 -0.8481 -1.5876
 8489SOL    HW226046   1.383  10.021   2.419  0.7819  0.9132  0.1652
 8490SOL     OW26047   3.331   0.242   5.315  0.7622  0.3523 -0.6217
 8490SOL    HW126048   3.240   0.215   5.302  0.8127  0.2847 -0.8541
 8490SOL    HW226049   3.350   0.300   5.241  1.3353 -0.7566 -1.3933
 8491SOL     OW26050   4.854   2.542   2.001  0.2241 -0.1666 -0.2038
 8491SOL    HW126051   4.851   2.638   2.003 -0.3726 -0.1601 -0.8209
 8491SOL    HW226052   4.942   2.520   2.032  0.0183  0.5338  0.9234
 8492SOL     OW26053   5.967   3.797   1.830  0.2202  0.4605  0.0809
 8492SOL    HW126054   6.029   3.869   1.821 -0.4232  0.8481 -1.6567
 8492SOL    HW226055   5.993   3.752   1.910  0.5173  2.7216  1.3103
 8493SOL     OW26056   4.402   5.577   8.159 -0.0808  0.1144 -0.2084
 8493SOL    HW126057   4.481   5.598   8.209 -0.3064  0.2200  0.1042
 8493SOL    HW226058   4.360   5.662   8.145  0.6326  0.2648 -1.6890
 8494SOL     OW26059   5.789   8.953   7.331  0.1098 -0.7212 -0.0040
 8494SOL    HW126060   5.700   8.987   7.322  0.3466 -0.0109  0.2270
 8494SOL    HW226061   5.836   8.990   7.257  0.3249 -0.6939  0.1453
 8495SOL     OW26062   8.734   1.606   3.305  0.0628 -0.0743  0.7107
 8495SOL    HW126063   8.721   1.668   3.376 -1.6894  2.4198 -1.5960
 8495SOL    HW226064   8.683   1.529   3.330 -1.2630  1.1149  1.7575
 8496SOL     OW26065   3.888   5.157   6.403  0.3831  0.7798  0.3042
 8496SOL    HW126066   3.884   5.251   6.423  0.8236  0.7274  0.6249
 8496SOL    HW226067   3.960   5.123   6.456 -1.3089 -0.2173  2.0879
 8497SOL     OW26068   5.661   3.315   3.533  0.3551 -0.0877 -0.2879
 8497SOL    HW126069   5.708   3.399   3.533  2.1481 -0.9709  1.7026
 8497SOL    HW226070   5.576   3.335   3.572  0.0720  1.0758 -1.4344
 8498SOL     OW26071   7.090   8.318   1.740  0.0474 -0.2974 -0.3242
 8498SOL    HW126072   7.092   8.372   1.660 -0.3006  0.0199 -0.1211
 8498SOL    HW226073   7.121   8.232   1.711 -1.5460 -0.6350 -1.1529
 8499SOL     OW26074   6.440   3.488   4.688 -0.0238 -0.3903  0.1358
 8499SOL    HW126075   6.435   3.574   4.729  1.8559 -0.7722  1.2889
 8499SOL    HW226076   6.352   3.452   4.697 -0.7754  1.2713 -0.1286
 8500SOL     OW26077   3.293   9.859   4.847  0.1833 -0.2514  0.0479
 8500SOL    HW126078   3.332   9.946   4.859 -0.2755 -0.2869  2.2065
 8500SOL    HW226079   3.199   9.874   4.850  0.0912 -0.9397  1.9400
 8501SOL     OW26080   3.014   3.318   1.884  0.6843  0.2048 -0.2391
 8501SOL    HW126081   2.955   3.331   1.959  0.9200 -1.3890  0.2518
 8501SOL    HW226082   3.014   3.403   1.840  0.5635  1.2046  1.5688
 8502SOL     OW26083   3.187   9.733   5.976 -0.3007  0.4438 -0.6195
 8502SOL    HW126084   3.270   9.746   6.021 -0.5296 -0.7472  0.1818
 8502SOL    HW226085   3.122   9.727   6.046 -0.8036 -0.4562 -1.1495
 8503SOL     OW26086   7.521   8.123   8.688 -0.0325  0.1521 -0.0058
 8503SOL    HW126087   7.498   8.151   8.776  0.2838  0.4888 -0.0297
 8503SOL    HW226088   7.501   8.029   8.686 -0.8077  0.3030  0.1725
 8504SOL     OW26089   6.176   1.607   5.910 -0.2330 -0.6128  0.4044
 8504SOL    HW126090   6.131   1.655   5.841 -0.1707 -2.0856 -0.7083
 8504SOL    HW226091   6.269   1.625   5.895  0.0088 -3.0123 -1.6482
 8505SOL     OW26092   0.737   6.701   8.147  0.0938 -0.3479 -0.4299
 8505SOL    HW126093   0.741   6.618   8.194 -0.7188  0.6919  1.5987
 8505SOL    HW226094   0.761   6.766   8.212 -2.2316  1.3039 -1.1194
 8506SOL     OW26095   8.794   5.739   2.298  0.3757 -0.1320 -0.3389
 8506SOL    HW126096   8.835   5.818   2.264  0.0588 -0.1214 -0.7071
 8506SOL    HW226097   8.715   5.729   2.245  0.8326 -1.1523 -0.8340
 8507SOL     OW26098   6.880   8.897   7.866  0.1412 -0.1495 -0.3395
 8507SOL    HW126099   6.900   8.985   7.900 -0.9116  0.1591 -0.4715
 8507SOL    HW226100   6.784   8.894   7.863  0.1806 -0.4950 -2.4207
 8508SOL     OW26101   2.104   2.312   1.071  0.3332 -0.1645  0.1381
 8508SOL    HW126102   2.190   2.336   1.037 -0.8464  2.9528 -1.0785
 8508SOL    HW226103   2.070   2.248   1.008  1.0243  0.0789 -0.5012
 8509SOL     OW26104   1.608   5.900   2.335 -0.1219  0.1839  0.1042
 8509SOL    HW126105   1.573   5.820   2.298  0.3418 -0.6514  1.3877
 8509SOL    HW226106   1.686   5.872   2.383 -0.7798  1.1497  1.8329
 8510SOL     OW26107   1.778   8.536   8.154 -0.0821 -0.6444  0.0395
 8510SOL    HW126108   1.756   8.615   8.104  0.6371 -0.5029 -0.0760
 8510SOL    HW226109   1.846   8.565   8.215 -1.3519 -0.6764  1.5355
 8511SOL     OW26110   4.201   4.887   5.118  0.2329 -0.0038 -0.4596
 8511SOL    HW126111   4.150   4.858   5.042 -0.5589  0.6565 -0.1893
 8511SOL    HW226112   4.206   4.810   5.175 -2.1298  0.4012  0.4034
 8512SOL     OW26113   4.412   6.175   8.105  0.1876 -0.2851  0.1775
 8512SOL    HW126114   4.404   6.270   8.120 -0.0654  0.0005 -1.5872
 8512SOL    HW226115   4.342   6.136   8.158  0.9640  0.3987  1.7742
 8513SOL     OW26116   2.897   2.651   2.709 -0.1733  0.3676  0.1126
 8513SOL    HW126117   2.950   2.656   2.789 -0.1161  0.2495  0.0822
 8513SOL    HW226118   2.937   2.716   2.651  0.6287 -0.4814 -0.3161
 8514SOL     OW26119   9.395   4.746   1.134 -0.4942  0.5229  0.0096
 8514SOL    HW126120   9.435   4.664   1.104  0.4829  0.7888  0.5671
 8514SOL    HW226121   9.394   4.802   1.056  2.2266  1.2885  0.4451
 8515SOL     OW26122   0.923   5.876   5.862 -0.0592 -0.0893  0.3377
 8515SOL    HW126123   0.876   5.822   5.926  0.4658  0.9174  1.6231
 8515SOL    HW226124   0.944   5.957   5.910  1.6437  0.1010 -0.6578
 8516SOL     OW26125   6.551   8.762   6.817 -0.2436 -0.0469 -0.4272
 8516SOL    HW126126   6.644   8.740   6.813 -0.3472 -1.2983  2.2394
 8516SOL    HW226127   6.537   8.790   6.907 -2.4864 -0.0250 -0.7384
 8517SOL     OW26128   7.783   1.750   7.118 -0.3149  0.6506  0.3728
 8517SOL    HW126129   7.804   1.690   7.190  0.2799  0.3976 -0.0028
 8517SOL    HW226130   7.729   1.699   7.058 -1.2452  1.0151  0.8725
 8518SOL     OW26131   7.631   0.501   3.715 -0.3714  0.5543  0.7901
 8518SOL    HW126132   7.619   0.562   3.788  1.1717  1.7150  0.1368
 8518SOL    HW226133   7.562   0.523   3.653 -0.9532  0.3695  1.3597
 8519SOL     OW26134   3.075   1.849   2.386  0.8730 -0.6564  0.1095
 8519SOL    HW126135   3.005   1.905   2.353 -0.1719 -1.9885  0.0221
 8519SOL    HW226136   3.109   1.806   2.307  1.5838 -0.2764  0.1968
 8520SOL     OW26137   3.192   6.840   8.904 -0.4966 -0.0016  0.0716
 8520SOL    HW126138   3.277   6.845   8.860 -0.9335  2.1609 -0.6387
 8520SOL    HW226139   3.167   6.748   8.897  2.3597 -0.9986  1.4849
 8521SOL     OW26140   7.975   9.922   6.413 -0.2197 -0.4074 -0.0728
 8521SOL    HW126141   7.900   9.862   6.409 -0.8461  0.2645  1.0870
 8521SOL    HW226142   8.051   9.864   6.419 -0.7890 -1.0991  0.7010
 8522SOL     OW26143   2.029   4.416   8.604  0.2403  0.0815 -0.6370
 8522SOL    HW126144   1.984   4.365   8.671  1.0351 -1.5555 -1.3105
 8522SOL    HW226145   1.960   4.472   8.568 -0.6844 -0.5516  0.0796
 8523SOL     OW26146   6.457   5.070   3.974  0.1038  0.1759 -0.3632
 8523SOL    HW126147   6.477   4.977   3.979 -0.9645 -0.0197  0.8761
 8523SOL    HW226148   6.485   5.096   3.886  2.5547 -0.7716  0.0659
 8524SOL     OW26149   0.933   8.205   1.789 -0.4675 -0.2097 -0.1473
 8524SOL    HW126150   0.971   8.130   1.836 -2.6045 -0.5229  1.2063
 8524SOL    HW226151   0.898   8.167   1.708 -1.3535 -0.6649  0.4364
 8525SOL     OW26152   2.219   8.606   4.733 -0.7693 -0.0615 -0.0136
 8525SOL    HW126153   2.215   8.685   4.679 -0.2441  0.0026  0.0435
 8525SOL    HW226154   2.167   8.541   4.684 -0.7153  0.1435 -0.3450
 8526SOL     OW26155   4.863   3.225   1.271  0.3557  0.4676 -0.6147
 8526SOL    HW126156   4.888   3.211   1.362  0.1074 -2.0399 -0.8597
 8526SOL    HW226157   4.778   3.269   1.276  0.9817  1.6317  0.3036
 8527SOL     OW26158   2.308   7.102   9.843  0.2441 -1.0150  0.3333
 8527SOL    HW126159   2.338   7.193   9.831  1.1620 -1.0676  1.9290
 8527SOL    HW226160   2.234   7.093   9.783 -1.9198  1.7866  2.3057
 8528SOL     OW26161   1.418   7.090   7.486 -0.2800  0.3241  0.1710
 8528SOL    HW126162   1.414   7.077   7.581 -0.4014 -0.0898  0.1083
 8528SOL    HW226163   1.511   7.087   7.465 -0.2861 -0.0746  0.2060
 8529SOL     OW26164   8.971   8.990   1.741 -0.0563  0.1319  0.3141
 8529SOL    HW126165   9.018   9.029   1.668 -1.3786 -3.2219 -2.6624
 8529SOL    HW226166   8.880   9.016   1.727 -0.0589  1.2825  2.1952
 8530SOL     OW26167   4.365   8.679   3.079 -0.1742  0.2200 -0.8756
 8530SOL    HW126168   4.419   8.751   3.112  0.3331 -0.1509 -0.8889
 8530SOL    HW226169   4.282   8.720   3.056  0.1811  0.8344 -1.0744
 8531SOL     OW26170   4.522   2.681   3.017  0.2563  0.0501  0.2439
 8531SOL    HW126171   4.571   2.678   2.934 -0.2872  0.7705 -0.1160
 8531SOL    HW226172   4.434   2.707   2.991 -0.1347 -0.5465  0.9709
 8532SOL     OW26173   7.929   4.265   9.466 -0.1392 -0.2717 -0.2733
 8532SOL    HW126174   7.899   4.296   9.381  0.6750  0.9895 -0.1192
 8532SOL    HW226175   7.998   4.326   9.491 -0.0586 -0.8903  1.0928
 8533SOL     OW26176   5.658   6.852   6.585 -0.1681  0.1878 -0.4301
 8533SOL    HW126177   5.740   6.860   6.537  1.0942  0.6930  1.6606
 8533SOL    HW226178   5.613   6.777   6.546  2.4074 -1.6342 -0.1162
 8534SOL     OW26179   7.166   3.320   7.280 -0.5833 -0.1989 -0.3613
 8534SOL    HW126180   7.255   3.284   7.269 -1.2334 -1.9047 -0.2914
 8534SOL    HW226181   7.180   3.413   7.294  1.2218 -0.4648 -0.1277
 8535SOL     OW26182   8.871   4.463   0.305  0.2440  0.1136  0.1134
 8535SOL    HW126183   8.965   4.474   0.291 -0.0017 -0.6377 -2.5836
 8535SOL    HW226184   8.860   4.370   0.323 -0.0141  0.1706  0.2544
 8536SOL     OW26185   3.612   5.753   3.744 -0.1065  0.2085 -0.3908
 8536SOL    HW126186   3.530   5.803   3.742 -0.1597  0.2343  1.1210
 8536SOL    HW226187   3.661   5.790   3.817 -0.3162 -2.1480  1.0438
 8537SOL     OW26188   7.847   1.882   9.529  0.3515  0.0912 -0.1107
 8537SOL    HW126189   7.883   1.915   9.447 -0.3406 -0.7805 -0.7776
 8537SOL    HW226190   7.900   1.924   9.597  0.8783  0.8818 -0.9945
 8538SOL     OW26191   8.362   0.353   8.902 -0.0632 -0.2959 -0.6217
 8538SOL    HW126192   8.320   0.331   8.819  1.2432 -1.5617 -0.9981
 8538SOL    HW226193   8.372   0.268   8.947 -1.6330  0.4478  1.3146
 8539SOL     OW26194   7.428   5.419   7.084 -0.4710 -1.0414 -0.4657
 8539SOL    HW126195   7.474   5.496   7.116 -0.8999 -1.1084  0.3508
 8539SOL    HW226196   7.486   5.381   7.018 -0.1417 -0.1730 -0.6791
 8540SOL     OW26197   6.804   7.160   3.556  0.1909 -0.0769 -0.1276
 8540SOL    HW126198   6.833   7.116   3.636 -0.3035  0.5028  0.3785
 8540SOL    HW226199   6.723   7.205   3.581  0.6521  1.0911 -0.6241
 8541SOL     OW26200   0.868   4.712   3.601 -0.2810 -0.2736  0.3247
 8541SOL    HW126201   0.843   4.797   3.566  0.7002  0.2452  0.8378
 8541SOL    HW226202   0.921   4.671   3.532  0.4281  0.1351  0.6153
 8542SOL     OW26203   8.557   4.484   5.645 -0.6302 -0.7424 -0.2599
 8542SOL    HW126204   8.556   4.579   5.659  0.5415 -0.5592 -1.2732
 8542SOL    HW226205   8.464   4.460   5.636 -1.2387 -0.2473  3.1285
 8543SOL     OW26206   7.952   7.527   8.016 -0.3084  0.3989 -0.2698
 8543SOL    HW126207   8.030   7.507   7.963  0.0487 -0.8322  0.6657
 8543SOL    HW226208   7.919   7.608   7.979 -0.9676 -1.1180 -3.3919
 8544SOL     OW26209   9.591   0.281   1.208 -0.1005  0.0159 -0.2894
 8544SOL    HW126210   9.551   0.281   1.121 -1.4844 -0.2106  0.3161
 8544SOL    HW226211   9.597   0.374   1.231  0.4972  0.0906 -0.7049
 8545SOL     OW26212   4.160   0.805   3.369 -0.5246  0.3285  0.1368
 8545SOL    HW126213   4.190   0.819   3.459 -0.2113  1.0449 -0.0705
 8545SOL    HW226214   4.229   0.842   3.315 -1.0089  0.4757 -0.3857
 8546SOL     OW26215   6.812   9.339   1.889 -0.3528 -0.3702  0.4209
 8546SOL    HW126216   6.724   9.321   1.854 -0.6467 -0.4766  1.2105
 8546SOL    HW226217   6.812   9.433   1.905  0.4605  0.0437 -1.6947
 8547SOL     OW26218   7.396   6.896   5.817 -0.4294  0.2533 -0.3533
 8547SOL    HW126219   7.305   6.918   5.837 -1.1114 -0.8349 -2.0600
 8547SOL    HW226220   7.402   6.802   5.830  0.6894  0.4175  0.4985
 8548SOL     OW26221   4.606   9.840   5.049  0.2288  0.1907 -0.4760
 8548SOL    HW126222   4.652   9.771   5.097 -1.4408  0.1555  1.1878
 8548SOL    HW226223   4.645   9.838   4.961  2.5196 -0.6061  0.4692
 8549SOL     OW26224   1.341   5.816   7.601  0.1324  0.0613  0.2537
 8549SOL    HW126225   1.380   5.808   7.514 -0.2902 -0.0698  0.0706
 8549SOL    HW226226   1.252   5.848   7.585  0.1984  0.4650  0.6701
 8550SOL     OW26227   2.510   6.904   5.958  0.6758  0.8268  0.1161
 8550SOL    HW126228   2.506   6.990   5.916 -0.6671 -0.0774 -1.7422
 8550SOL    HW226229   2.599   6.898   5.991  0.7309  3.0134  0.4984
 8551SOL     OW26230   9.720   7.344   1.917 -0.1794  0.9129 -0.1369
 8551SOL    HW126231   9.702   7.280   1.848  1.0066  0.6956 -0.2686
 8551SOL    HW226232   9.634   7.372   1.947 -0.7172  0.8618 -1.5657
 8552SOL     OW26233   3.285   6.904   0.329  0.3187 -0.1366 -0.2505
 8552SOL    HW126234   3.376   6.880   0.345  0.7268  1.2201 -0.4323
 8552SOL    HW226235   3.289   6.967   0.257 -0.4304  2.2757  1.6906
 8553SOL     OW26236   6.663   5.481   5.625 -0.6542  0.6119  0.7444
 8553SOL    HW126237   6.590   5.444   5.675 -1.3920  0.8014 -0.1683
 8553SOL    HW226238   6.688   5.411   5.564 -0.6317  0.8494  0.4788
 8554SOL     OW26239   0.027   4.218   9.807  0.6218  0.1552  0.4067
 8554SOL    HW126240   0.010   4.132   9.769 -2.0696  0.6970  0.1259
 8554SOL    HW226241   0.102   4.253   9.759  0.4974 -1.2264 -0.8453
 8555SOL     OW26242   3.829   7.590   8.571 -0.3976  0.3068  0.2406
 8555SOL    HW126243   3.872   7.674   8.586 -0.4547  0.3833 -0.0081
 8555SOL    HW226244   3.901   7.527   8.563 -0.2432  0.6432 -1.4601
 8556SOL     OW26245   1.708   3.596   3.428  0.2422 -0.0509 -0.5543
 8556SOL    HW126246   1.613   3.582   3.426  0.3048 -0.5192 -0.4587
 8556SOL    HW226247   1.725   3.655   3.355 -0.0379 -0.5248 -1.0096
 8557SOL     OW26248   1.491   4.162   9.607 -0.0941 -0.0432  0.0045
 8557SOL    HW126249   1.424   4.130   9.669  0.4626 -1.5265 -0.1252
 8557SOL    HW226250   1.487   4.258   9.616 -0.8349 -0.1699  1.4825
 8558SOL     OW26251   4.341   8.957   9.031 -0.1625 -0.9163 -0.0897
 8558SOL    HW126252   4.305   8.922   8.949  0.3564 -2.5916  0.3527
 8558SOL    HW226253   4.265   8.960   9.090 -1.4662  3.9734 -1.5905
 8559SOL     OW26254   1.174   5.608   5.788  0.3300  0.6637 -0.4455
 8559SOL    HW126255   1.087   5.583   5.818  1.0787  0.4650  1.7966
 8559SOL    HW226256   1.228   5.607   5.868  2.2793  1.2299 -1.6766
 8560SOL     OW26257   2.911   0.970   9.724 -0.1499 -0.0847  0.6242
 8560SOL    HW126258   2.844   1.036   9.740  0.6307  0.4157  2.0531
 8560SOL    HW226259   2.868   0.905   9.668 -0.9181  1.6200 -0.8327
 8561SOL     OW26260   0.065   2.239   8.921  0.0464  0.1739  0.1246
 8561SOL    HW126261   0.149   2.282   8.905  0.1444  0.0732  0.3696
 8561SOL    HW226262   0.042   2.200   8.837  1.1522 -1.3974  0.5064
 8562SOL     OW26263   1.418   4.714   9.161 -0.8218 -0.0606  0.3374
 8562SOL    HW126264   1.485   4.714   9.230 -1.9406  0.9513  1.4533
 8562SOL    HW226265   1.389   4.623   9.157 -0.3091 -0.2518  0.7570
 8563SOL     OW26266   1.525   0.336   8.596 -0.1770  0.0130  0.2090
 8563SOL    HW126267   1.560   0.419   8.564  1.7035  0.1127  2.2474
 8563SOL    HW226268   1.431   0.352   8.606 -0.3204  0.9586 -1.9814
 8564SOL     OW26269   6.078   2.838   8.447 -0.4085 -0.1405 -0.1607
 8564SOL    HW126270   6.051   2.916   8.495 -1.1848 -0.1008 -0.6493
 8564SOL    HW226271   6.117   2.871   8.366 -0.7544 -0.2484 -0.3773
 8565SOL     OW26272   9.396   4.019   6.768 -0.2892 -0.0535 -0.0548
 8565SOL    HW126273   9.364   4.059   6.849 -0.2846 -0.5538  0.1998
 8565SOL    HW226274   9.375   3.926   6.778 -0.1306 -0.1429 -0.5539
 8566SOL     OW26275   5.477   8.607   2.682  0.3905  0.4132 -0.3125
 8566SOL    HW126276   5.450   8.520   2.712  2.8697  0.1731  1.4508
 8566SOL    HW226277   5.426   8.668   2.736 -0.7772  0.0871 -1.0150
 8567SOL     OW26278   0.700   8.741   0.047  0.0560 -0.0798  1.0052
 8567SOL    HW126279   0.629   8.803   0.061 -1.1438 -1.3927  0.9607
 8567SOL    HW226280   0.720   8.748  -0.046 -0.2339  0.0704  0.9537
 8568SOL     OW26281   5.841   4.544   2.884 -0.1272  0.1540 -0.9906
 8568SOL    HW126282   5.778   4.564   2.816 -0.1329 -1.1466 -1.3919
 8568SOL    HW226283   5.813   4.460   2.919  0.0059  0.6846  0.4774
 8569SOL     OW26284   2.973   1.088   4.014  0.0760 -0.1246 -0.5622
 8569SOL    HW126285   3.041   1.023   4.026 -1.4250 -1.9504 -1.3706
 8569SOL    HW226286   2.968   1.100   3.919 -0.6706  0.0260 -0.5106
 8570SOL     OW26287   5.366   7.452   0.513  0.0378  0.1215  0.2111
 8570SOL    HW126288   5.282   7.495   0.497 -0.6805 -0.7575  1.3588
 8570SOL    HW226289   5.378   7.457   0.608  0.5722 -0.9897  0.2284
 8571SOL     OW26290   8.693   3.810   1.082  0.5882  0.3932 -0.6546
 8571SOL    HW126291   8.709   3.840   1.172  1.1947  0.7589 -0.8855
 8571SOL    HW226292   8.610   3.853   1.058 -0.2053 -0.6302  0.1378
 8572SOL     OW26293   7.154   5.516   6.378 -0.6899  0.3172 -0.5127
 8572SOL    HW126294   7.212   5.464   6.433 -0.6670  0.0805 -0.7547
 8572SOL    HW226295   7.080   5.537   6.434 -0.4914  0.3978 -0.2797
 8573SOL     OW26296   5.584   1.156   5.409  0.0977  0.4230  0.4005
 8573SOL    HW126297   5.549   1.105   5.336  1.0368 -1.0718  0.9388
 8573SOL    HW226298   5.646   1.217   5.368  2.3833 -1.9693  0.0634
 8574SOL     OW26299   9.844   0.874   8.018  0.6860 -0.1657 -0.1737
 8574SOL    HW126300   9.933   0.854   7.992  1.3658  0.4810  1.4984
 8574SOL    HW226301   9.835   0.969   8.007  0.1444 -0.2505 -0.5075
 8575SOL     OW26302   9.687   4.686   7.674 -0.0352 -0.5514  0.2838
 8575SOL    HW126303   9.647   4.773   7.668 -1.9985 -1.3134  1.3588
 8575SOL    HW226304   9.651   4.648   7.754  0.9602 -2.2880 -0.0315
 8576SOL     OW26305   2.687   5.058   3.080 -0.1766  0.3038 -0.2319
 8576SOL    HW126306   2.623   5.088   3.015  1.0973  0.5130 -1.4523
 8576SOL    HW226307   2.720   5.139   3.119 -1.5815  0.1429  1.3613
 8577SOL     OW26308   7.837   3.933   1.832 -0.4265  1.0436  0.0927
 8577SOL    HW126309   7.763   3.873   1.825 -0.8059  1.5218 -0.0699
 8577SOL    HW226310   7.911   3.884   1.796 -0.2725 -0.0658  1.7766
 8578SOL     OW26311   0.838   6.306   1.506  0.6113  0.0637 -0.3573
 8578SOL    HW126312   0.899   6.310   1.432  1.0217 -0.8389 -0.0795
 8578SOL    HW226313   0.770   6.244   1.477  0.9052 -0.4855  0.1091
 8579SOL     OW26314   7.847   8.336   8.668  0.6663 -0.1147 -0.5379
 8579SOL    HW126315   7.926   8.385   8.690  0.1565  0.1125  0.9005
 8579SOL    HW226316   7.867   8.246   8.694  0.6542 -0.1684 -0.7123
 8580SOL     OW26317   4.778   6.292   5.604 -0.3433 -0.3252  0.0481
 8580SOL    HW126318   4.817   6.209   5.575 -1.5837 -0.5769 -0.9566
 8580SOL    HW226319   4.779   6.286   5.699 -0.6101 -1.6063 -0.0050
 8581SOL     OW26320   9.133   8.859   6.371 -0.2566 -0.3928 -0.8314
 8581SOL    HW126321   9.040   8.882   6.368 -0.0158  1.5091  2.0736
 8581SOL    HW226322   9.136   8.776   6.418 -0.5132 -0.7588 -1.4597
 8582SOL     OW26323   8.760   4.137   6.372 -0.4615  0.6887 -0.2028
 8582SOL    HW126324   8.679   4.183   6.352 -1.7013 -1.6898 -1.0044
 8582SOL    HW226325   8.737   4.080   6.446  0.3109 -0.3773 -0.7600
 8583SOL     OW26326   1.097   3.401   2.011  0.3714  0.1590 -0.1810
 8583SOL    HW126327   1.017   3.351   2.031 -0.0061  1.2882  1.2378
 8583SOL    HW226328   1.105   3.394   1.915  0.1274 -2.2564 -0.0948
 8584SOL     OW26329   3.938   1.665   3.634  0.0923 -0.0658  0.6194
 8584SOL    HW126330   4.023   1.658   3.590  0.4770 -0.9619  1.4515
 8584SOL    HW226331   3.955   1.723   3.709 -0.1226  0.0344  0.5911
 8585SOL     OW26332   2.532   6.569   7.437  0.5050  0.3793  0.4472
 8585SOL    HW126333   2.607   6.548   7.381  1.6901 -2.7475  2.8883
 8585SOL    HW226334   2.570   6.616   7.511 -0.5343  1.6435  0.2154
 8586SOL     OW26335   9.488   4.322   0.633  0.3122 -0.0537 -0.2607
 8586SOL    HW126336   9.392   4.326   0.630  0.3343  2.4566  0.1202
 8586SOL    HW226337   9.516   4.374   0.558  1.2548  2.2988  1.5592
 8587SOL     OW26338   1.694   4.905   1.318  0.0433  0.0645 -0.7839
 8587SOL    HW126339   1.697   4.809   1.309 -1.0567 -0.2120  1.3085
 8587SOL    HW226340   1.633   4.934   1.250  1.8453 -0.4389 -2.7617
 8588SOL     OW26341   2.279   7.130   6.541  0.3338 -0.1329 -0.1603
 8588SOL    HW126342   2.302   7.208   6.592  0.3468  0.9772 -1.7724
 8588SOL    HW226343   2.362   7.084   6.530  0.4705  0.0287  0.1656
 8589SOL     OW26344   4.766   5.379   5.339 -0.3137  0.0429  0.4108
 8589SOL    HW126345   4.680   5.392   5.299 -0.7418  0.7731  1.5161
 8589SOL    HW226346   4.829   5.403   5.271 -1.0214  1.5539  0.2650
 8590SOL     OW26347   2.550   0.957   0.337  0.0579  0.5735 -0.2052
 8590SOL    HW126348   2.552   0.862   0.321 -0.0043  0.5289  0.0403
 8590SOL    HW226349   2.622   0.991   0.284 -0.1409  0.4332 -0.5685
 8591SOL     OW26350   0.792   8.937   5.839 -0.1424 -0.4989 -0.2756
 8591SOL    HW126351   0.812   8.970   5.751  0.3619 -0.2847 -0.0837
 8591SOL    HW226352   0.755   8.850   5.824 -1.2980  0.0528 -0.7783
 8592SOL     OW26353   9.738   8.324   6.402 -0.0093  0.5355 -0.5645
 8592SOL    HW126354   9.799   8.311   6.474  0.5259 -0.9137 -1.2243
 8592SOL    HW226355   9.669   8.259   6.417 -0.8663  1.4797 -0.3694
 8593SOL     OW26356   8.055   5.924   3.088  0.6518 -0.3296 -0.1155
 8593SOL    HW126357   7.986   5.984   3.060 -0.9666 -2.2468 -0.4608
 8593SOL    HW226358   8.078   5.953   3.176  1.6595  2.1956 -1.1005
 8594SOL     OW26359   9.731   9.454   1.850  0.0429  0.4445  0.0424
 8594SOL    HW126360   9.799   9.406   1.804  0.7361  1.2967  0.1534
 8594SOL    HW226361   9.668   9.387   1.876  2.3447 -0.8658  2.7006
 8595SOL     OW26362   6.990   8.487   3.555 -0.7124  0.4254 -0.9168
 8595SOL    HW126363   6.922   8.425   3.529 -2.0916  1.3944  0.2061
 8595SOL    HW226364   6.944   8.571   3.565  0.5408  1.0137  0.3376
 8596SOL     OW26365   8.692   2.485   8.231 -0.0365 -0.0224  0.1929
 8596SOL    HW126366   8.725   2.421   8.168 -1.2178  0.9904 -1.5556
 8596SOL    HW226367   8.598   2.469   8.234  0.0171 -0.1987  1.9444
 8597SOL     OW26368   7.941   6.539   2.321 -0.7479 -0.3261  0.8313
 8597SOL    HW126369   7.886   6.491   2.259 -0.3553 -0.2622  0.4351
 8597SOL    HW226370   7.888   6.615   2.345 -0.8420 -0.2743  0.4641
 8598SOL     OW26371   9.871   9.129   1.510 -0.1270  0.1217  0.0854
 8598SOL    HW126372   9.896   9.221   1.516 -1.2122  0.4461 -0.0429
 8598SOL    HW226373   9.950   9.080   1.533  0.9742  1.0425 -1.5664
 8599SOL     OW26374   7.408   1.342   3.138 -0.3572 -0.2332 -0.5289
 8599SOL    HW126375   7.419   1.404   3.210 -1.9371 -0.0203 -0.4244
 8599SOL    HW226376   7.496   1.308   3.122  0.9493  3.1560 -1.6282
 8600SOL     OW26377   7.090   0.112   1.761 -0.3514 -0.1601 -0.0501
 8600SOL    HW126378   7.170   0.138   1.806 -1.3973  0.7306  1.3852
 8600SOL    HW226379   7.090   0.016   1.763  0.4353 -0.1523  0.3571
 8601SOL     OW26380   2.112   3.433   1.382 -0.1525  0.0160  0.2061
 8601SOL    HW126381   2.033   3.457   1.333  1.1873  1.0194 -1.6236
 8601SOL    HW226382   2.132   3.511   1.434 -0.0272  0.0059  0.1739
 8602SOL     OW26383   3.762   6.263   5.120  0.4850 -0.4363  0.2749
 8602SOL    HW126384   3.795   6.325   5.056 -0.1660  0.2867  0.6227
 8602SOL    HW226385   3.820   6.187   5.113 -0.9672 -1.4061 -2.8352
 8603SOL     OW26386   7.704   5.862   6.631  0.1125  0.1153  0.2818
 8603SOL    HW126387   7.671   5.790   6.576  0.9182 -0.5462  0.6447
 8603SOL    HW226388   7.795   5.874   6.604 -0.0142  1.0080  0.2277
 8604SOL     OW26389   0.962   1.816   1.402 -0.0861 -0.6192 -0.0538
 8604SOL    HW126390   0.908   1.763   1.460 -1.3211  0.6174 -0.0092
 8604SOL    HW226391   0.958   1.904   1.439  0.1371 -0.0583 -1.2990
 8605SOL     OW26392   8.773   5.969   8.514 -0.1828  0.2722 -0.4798
 8605SOL    HW126393   8.816   5.955   8.599 -0.5412  0.9076 -0.1909
 8605SOL    HW226394   8.724   6.050   8.525 -1.1428 -0.2275 -0.9289
 8606SOL     OW26395   1.152   0.488   7.736  0.0442  0.0949 -0.2730
 8606SOL    HW126396   1.191   0.501   7.650 -1.3495  0.5034 -0.8814
 8606SOL    HW226397   1.169   0.569   7.783 -0.1524  0.3189 -0.5784
 8607SOL     OW26398   8.324   3.592   1.025  0.0510  0.0525  0.2492
 8607SOL    HW126399   8.415   3.617   1.011  0.2683 -0.9830 -0.2744
 8607SOL    HW226400   8.315   3.585   1.120  1.3731 -2.7928  0.2650
 8608SOL     OW26401   3.661   4.499   7.311  0.8496 -0.6280 -0.2521
 8608SOL    HW126402   3.677   4.539   7.225 -2.8257 -0.5572 -1.0505
 8608SOL    HW226403   3.697   4.562   7.374 -1.6671  2.4199 -1.5953
 8609SOL     OW26404   6.072   0.936   3.123 -0.4422 -0.1860  0.2663
 8609SOL    HW126405   6.164   0.961   3.130 -0.8376  1.1465  1.0417
 8609SOL    HW226406   6.024   1.018   3.131 -1.7290 -0.9328  0.4839
 8610SOL     OW26407   2.229   1.865   0.556  0.0965 -0.3362 -0.5327
 8610SOL    HW126408   2.226   1.772   0.578  0.1432 -0.3054 -0.3971
 8610SOL    HW226409   2.322   1.886   0.556  0.1140 -0.3982 -1.0230
 8611SOL     OW26410   6.895   7.990   5.797 -0.1932  0.0805 -0.4753
 8611SOL    HW126411   6.889   7.903   5.838 -0.0390  0.0269 -0.5635
 8611SOL    HW226412   6.804   8.017   5.784 -0.2427 -0.1223 -0.5586
 8612SOL     OW26413   4.026   4.404   7.477 -0.6203 -0.0524  0.2947
 8612SOL    HW126414   4.064   4.329   7.524 -2.1133 -0.3492  1.0993
 8612SOL    HW226415   4.044   4.479   7.534  0.4823  0.1334 -0.2918
 8613SOL     OW26416   4.292   7.131   3.060  0.2992  0.1223  0.3853
 8613SOL    HW126417   4.268   7.139   2.968  0.2212 -0.0191  0.3937
 8613SOL    HW226418   4.373   7.182   3.068  0.6039 -0.3229  0.1228
 8614SOL     OW26419   9.090   8.142   1.342 -0.1149  0.3818  0.8446
 8614SOL    HW126420   9.037   8.221   1.326  0.8959  0.5485 -2.2816
 8614SOL    HW226421   9.110   8.146   1.436 -0.2079  3.8127  0.8524
 8615SOL     OW26422   6.726   1.026   4.374 -0.1667 -0.1657  0.9144
 8615SOL    HW126423   6.731   1.097   4.309  3.0102 -1.1161 -0.0768
 8615SOL    HW226424   6.761   0.950   4.328  2.3884 -0.8596  3.7451
 8616SOL     OW26425   3.748   8.562   1.744  0.3775 -0.3214  0.3015
 8616SOL    HW126426   3.813   8.593   1.681  1.0748  1.9729  1.9969
 8616SOL    HW226427   3.800   8.527   1.816 -0.1719  1.4941  1.6500
 8617SOL     OW26428   0.938   2.988   3.064 -0.1007  0.8882 -0.2699
 8617SOL    HW126429   0.872   2.991   3.133 -0.0478  0.8395 -0.2176
 8617SOL    HW226430   0.914   2.910   3.012  0.1708  0.6209  0.0035
 8618SOL     OW26431   4.670   0.680   1.488 -0.5011  0.6312 -0.4484
 8618SOL    HW126432   4.639   0.607   1.435 -1.5785  0.5437  0.2729
 8618SOL    HW226433   4.688   0.750   1.425  0.6152 -0.2517 -1.1480
 8619SOL     OW26434   7.210   6.434   1.487  0.5490 -0.8571  0.3924
 8619SOL    HW126435   7.153   6.368   1.447  0.1888 -0.2868 -0.0428
 8619SOL    HW226436   7.164   6.517   1.474  1.7977 -0.2888 -0.6028
 8620SOL     OW26437   0.719   4.868   7.410  0.0006  0.1159  0.3325
 8620SOL    HW126438   0.783   4.883   7.479  2.0441  3.1985 -1.9110
 8620SOL    HW226439   0.709   4.773   7.406  1.5444 -0.2954  3.2382
 8621SOL     OW26440   0.809   7.992   0.954 -0.2072  0.1316  0.0582
 8621SOL    HW126441   0.777   7.946   0.877  0.7682  0.4127 -0.5312
 8621SOL    HW226442   0.896   7.955   0.970 -0.0486  0.6786  0.4972
 8622SOL     OW26443   8.210   5.216   7.781  0.2513  0.5005 -0.0160
 8622SOL    HW126444   8.131   5.226   7.728 -0.3939  1.2010  1.0319
 8622SOL    HW226445   8.224   5.303   7.818  0.7076  0.0386  0.9192
 8623SOL     OW26446   0.683   2.867   0.669  0.1637 -0.8769  0.2587
 8623SOL    HW126447   0.655   2.797   0.611 -1.0956  0.3995 -0.7583
 8623SOL    HW226448   0.624   2.860   0.745  0.5240 -1.3598  0.4956
 8624SOL     OW26449   0.013   8.486   7.051 -0.4073 -0.8579  0.5076
 8624SOL    HW126450  -0.050   8.537   7.102 -1.1261 -2.5136  1.3509
 8624SOL    HW226451   0.099   8.515   7.083 -0.7731  0.2346  0.5289
 8625SOL     OW26452   2.549   0.368   3.017 -0.4025 -0.2272 -0.3130
 8625SOL    HW126453   2.497   0.373   2.936 -1.3145  0.4858  0.3008
 8625SOL    HW226454   2.615   0.436   3.007 -0.9848  0.3644 -0.1325
 8626SOL     OW26455   2.250   6.454   4.038 -0.3191  0.0575 -0.0155
 8626SOL    HW126456   2.319   6.404   4.083  1.4793  1.0078 -1.5507
 8626SOL    HW226457   2.246   6.415   3.951 -0.7932  0.8704 -0.3640
 8627SOL     OW26458   2.717   6.177   0.898  0.3737  0.0417  0.1069
 8627SOL    HW126459   2.731   6.248   0.835 -0.1984  1.1791  1.2245
 8627SOL    HW226460   2.771   6.200   0.973  0.3497 -0.8340  0.4006
 8628SOL     OW26461   3.557   7.790   9.929 -0.5800  0.2030  0.2940
 8628SOL    HW126462   3.593   7.747  10.007 -0.3811  2.7657  1.7275
 8628SOL    HW226463   3.476   7.742   9.910  1.1331 -2.7499 -0.2009
 8629SOL     OW26464   2.109   3.629   8.537 -0.2323  0.6145  0.0273
 8629SOL    HW126465   2.155   3.703   8.576 -0.3014 -0.2853  1.8900
 8629SOL    HW226466   2.176   3.582   8.488  0.1794  0.9754  0.2430
 8630SOL     OW26467   1.182   2.663   9.545 -0.3257 -0.0030 -0.3394
 8630SOL    HW126468   1.174   2.576   9.583 -0.2075  0.1661  0.0765
 8630SOL    HW226469   1.272   2.689   9.564 -0.4691  0.3557 -0.1431
 8631SOL     OW26470   2.201   8.985   3.044 -0.6044  0.0921  0.4477
 8631SOL    HW126471   2.113   8.959   3.069 -0.8736  0.2851 -0.2774
 8631SOL    HW226472   2.190   9.072   3.005 -0.5139 -1.0255 -2.2231
 8632SOL     OW26473   8.755   5.242   6.019  0.1298  0.4823 -0.4625
 8632SOL    HW126474   8.699   5.273   5.948  0.4144  0.8600 -0.5243
 8632SOL    HW226475   8.713   5.272   6.099 -0.2712 -0.0714 -0.4604
 8633SOL     OW26476   5.780   0.771   2.088  0.6946  0.4121  0.3978
 8633SOL    HW126477   5.811   0.681   2.099  2.8653  1.1267  0.5670
 8633SOL    HW226478   5.788   0.787   1.994 -1.3368 -0.0704  0.0857
 8634SOL     OW26479   3.886   2.225   9.642  0.1634  0.1281  0.1239
 8634SOL    HW126480   3.973   2.255   9.617  0.3838  0.4534  1.2341
 8634SOL    HW226481   3.887   2.224   9.738 -0.7892 -0.6530  0.1395
 8635SOL     OW26482   0.714   6.690   3.331  0.0621  0.1327  0.0302
 8635SOL    HW126483   0.627   6.722   3.309  0.1725  1.4664  1.3541
 8635SOL    HW226484   0.772   6.734   3.269 -0.3381 -2.5264 -2.4131
 8636SOL     OW26485   7.605   5.552   4.091  0.6216  0.2327  0.3259
 8636SOL    HW126486   7.599   5.567   4.186  1.5550 -0.4610  0.5072
 8636SOL    HW226487   7.587   5.459   4.081 -1.9813  0.7307 -0.4638
 8637SOL     OW26488   9.221   6.464   0.715 -0.6751  0.2157  0.0836
 8637SOL    HW126489   9.234   6.556   0.692  1.5181  0.2145  1.0873
 8637SOL    HW226490   9.223   6.463   0.811 -1.8537 -0.7645  0.1278
 8638SOL     OW26491   4.471   1.086   6.524  0.0460  0.0364  0.0484
 8638SOL    HW126492   4.463   0.994   6.552 -0.5329 -0.4235 -1.5023
 8638SOL    HW226493   4.458   1.137   6.603  0.0056 -1.2210  0.8790
 8639SOL     OW26494   8.265   0.433   7.872  0.6756 -0.1644  0.1922
 8639SOL    HW126495   8.265   0.513   7.924  1.2035 -0.4926  0.7097
 8639SOL    HW226496   8.357   0.406   7.870  0.6176 -0.3426 -0.6319
 8640SOL     OW26497   8.686   4.163   1.871  0.1936 -0.2625  0.2024
 8640SOL    HW126498   8.697   4.243   1.923  0.2094 -1.2332  1.7718
 8640SOL    HW226499   8.736   4.178   1.792  2.3035  0.3498  1.5782
 8641SOL     OW26500   6.003   8.250   7.726 -0.0931  0.0732  0.1065
 8641SOL    HW126501   5.952   8.303   7.787  0.3903 -0.7003  1.2230
 8641SOL    HW226502   5.973   8.160   7.741 -1.5289  0.0642 -2.3823
 8642SOL     OW26503   1.458   3.773   5.411 -0.0470 -0.4036 -0.1107
 8642SOL    HW126504   1.440   3.863   5.436  0.1537 -0.1558 -0.8427
 8642SOL    HW226505   1.529   3.745   5.468  1.2778  0.5652 -1.2378
 8643SOL     OW26506   4.808   7.394   4.952  0.3150  0.1879 -0.1148
 8643SOL    HW126507   4.780   7.304   4.935 -2.5554  0.9656  0.0159
 8643SOL    HW226508   4.789   7.440   4.871  2.0711  0.6485 -0.2898
 8644SOL     OW26509   6.080   9.520   3.542 -0.3093 -0.1603 -0.2001
 8644SOL    HW126510   6.042   9.536   3.455 -0.3971 -2.1064 -0.5722
 8644SOL    HW226511   6.140   9.594   3.556 -1.8285  1.2937 -0.9834
 8645SOL     OW26512   4.521   0.238   3.940  0.0531  0.1041  0.1353
 8645SOL    HW126513   4.458   0.241   4.012 -1.4835  0.3716 -1.1692
 8645SOL    HW226514   4.606   0.257   3.981 -0.7809  0.2306  1.8581
 8646SOL     OW26515   0.564   0.096   1.507  0.2762  0.1721  0.0306
 8646SOL    HW126516   0.471   0.110   1.528  0.7780  1.0235  1.9078
 8646SOL    HW226517   0.564   0.022   1.446 -1.7707  1.5272 -1.7857
 8647SOL     OW26518   1.595   1.003   7.452 -0.1585  0.7114 -0.1804
 8647SOL    HW126519   1.612   0.978   7.542 -1.5477  0.0330 -0.0819
 8647SOL    HW226520   1.580   1.098   7.456  3.0067  1.3158 -0.2364
 8648SOL     OW26521   1.424   8.839   4.141  0.4619 -0.2242 -0.4143
 8648SOL    HW126522   1.502   8.784   4.151  0.2680 -0.4566 -0.1551
 8648SOL    HW226523   1.374   8.823   4.221 -0.8471 -1.6633 -1.4647
 8649SOL     OW26524   4.233   1.296   8.815  0.1860 -0.4311 -0.5778
 8649SOL    HW126525   4.156   1.343   8.786  0.0385  1.0762  1.9706
 8649SOL    HW226526   4.229   1.298   8.911  1.0596 -4.2401 -0.2751
 8650SOL     OW26527   5.986   1.682   0.686  1.2858  0.6442  0.1112
 8650SOL    HW126528   6.073   1.713   0.711  2.3037 -0.9230 -1.2615
 8650SOL    HW226529   5.993   1.665   0.593  0.1992 -1.6365  0.3851
 8651SOL     OW26530   6.044   4.791   0.944 -0.2022  0.6390  0.2170
 8651SOL    HW126531   5.951   4.810   0.930 -0.7927 -0.6263  1.9591
 8651SOL    HW226532   6.045   4.698   0.969  1.3330  1.0217  1.7867
 8652SOL     OW26533   2.344   0.812   0.100  0.0076 -0.0271 -0.2559
 8652SOL    HW126534   2.337   0.719   0.121 -0.4752 -0.7685 -3.2175
 8652SOL    HW226535   2.254   0.841   0.088  0.2041  0.5497 -0.3825
 8653SOL     OW26536   3.008   6.214   8.182 -0.0701  0.3160 -0.0698
 8653SOL    HW126537   3.031   6.300   8.146 -2.0682  1.4330  1.1589
 8653SOL    HW226538   3.093   6.172   8.197  0.9798  2.0721 -0.6800
 8654SOL     OW26539   6.728   1.905   6.652  0.5042  0.3992 -0.1499
 8654SOL    HW126540   6.763   1.858   6.727  0.7295  0.6856 -0.0759
 8654SOL    HW226541   6.633   1.889   6.656  0.7311 -1.4615 -1.0949
 8655SOL     OW26542   7.395   3.159   6.753 -0.4468  0.6837 -0.4634
 8655SOL    HW126543   7.482   3.132   6.724  0.1241  0.8229  1.0752
 8655SOL    HW226544   7.344   3.164   6.672  0.1507 -2.3075 -1.1470
 8656SOL     OW26545   9.626   9.955   1.671  0.1736 -0.1803  1.0931
 8656SOL    HW126546   9.556   9.911   1.720 -0.3517  0.1622  0.6672
 8656SOL    HW226547   9.707   9.928   1.714 -0.0806 -2.0197  0.5052
 8657SOL     OW26548   2.041   9.184   6.270  0.2713 -0.0735 -0.3712
 8657SOL    HW126549   1.955   9.166   6.308 -0.8263  0.0221 -2.6983
 8657SOL    HW226550   2.077   9.098   6.248  0.4278 -0.0655 -0.1535
 8658SOL     OW26551   8.629   8.872   2.467  0.0129  0.4461 -0.3132
 8658SOL    HW126552   8.664   8.959   2.445 -2.6377  1.6117 -0.2029
 8658SOL    HW226553   8.594   8.839   2.384  2.5937 -1.4144 -0.7831
 8659SOL     OW26554   8.331   7.035   7.870 -0.1613  0.0113  0.5511
 8659SOL    HW126555   8.266   7.058   7.804  0.2007 -0.6738 -0.0615
 8659SOL    HW226556   8.345   6.941   7.858  1.6441  0.3040 -0.0077
 8660SOL     OW26557   6.094   0.120   6.226 -0.1223 -0.3081 -0.4538
 8660SOL    HW126558   6.004   0.099   6.205 -0.2375  0.4601 -0.7781
 8660SOL    HW226559   6.144   0.043   6.200 -0.6353 -0.5803 -0.6421
 8661SOL     OW26560   9.926   2.552   4.042  0.3505  0.3897  0.1071
 8661SOL    HW126561   9.834   2.578   4.031  0.3828  1.0639  1.3259
 8661SOL    HW226562   9.976   2.622   4.001  0.3554  0.6664  0.5870
 8662SOL     OW26563   1.399   5.257   2.732 -0.1951 -0.1545 -0.2810
 8662SOL    HW126564   1.415   5.276   2.640  0.0271  1.4840  0.0580
 8662SOL    HW226565   1.404   5.343   2.775  1.2665 -1.0601  1.4846
 8663SOL     OW26566   5.363   3.352   3.636  0.2905 -0.3129 -0.3095
 8663SOL    HW126567   5.328   3.422   3.581 -0.2817 -2.0011 -2.2072
 8663SOL    HW226568   5.321   3.272   3.604  2.3935 -1.8127  0.4307
 8664SOL     OW26569   8.564   6.363   8.801  0.2747  0.7989  0.0007
 8664SOL    HW126570   8.528   6.342   8.887  2.2522 -1.3327  0.4048
 8664SOL    HW226571   8.654   6.391   8.818  1.0110 -0.5469 -1.3754
 8665SOL     OW26572   1.357   5.793   4.258  0.1186  0.4008 -0.2834
 8665SOL    HW126573   1.281   5.761   4.306  1.3210  0.7049  1.9273
 8665SOL    HW226574   1.380   5.876   4.300  1.6088  0.3765 -0.9563
 8666SOL     OW26575   5.863   5.414   5.681 -0.4581 -0.8345 -0.4467
 8666SOL    HW126576   5.864   5.364   5.763  1.2570 -0.6492 -0.3181
 8666SOL    HW226577   5.794   5.479   5.694  0.1792 -0.4112  1.1153
 8667SOL     OW26578   5.325   5.346   9.951  0.5657 -0.2584 -0.3052
 8667SOL    HW126579   5.408   5.379   9.917  0.8339 -2.5084 -2.1073
 8667SOL    HW226580   5.259   5.406   9.919  1.3509  0.6644 -0.2248
 8668SOL     OW26581   5.133   4.559   0.805 -0.3716  0.0335  0.0145
 8668SOL    HW126582   5.156   4.498   0.875 -0.9833  0.7220  0.8552
 8668SOL    HW226583   5.071   4.511   0.750 -0.5121 -0.2527  0.4156
 8669SOL     OW26584   4.801   7.643   0.824  0.1719  0.2483 -0.1828
 8669SOL    HW126585   4.797   7.733   0.856 -1.9631 -0.3121  1.3338
 8669SOL    HW226586   4.726   7.600   0.865 -0.2402 -1.6354 -2.6956
 8670SOL     OW26587   0.046   7.702   2.329 -0.7403  0.6851 -0.4802
 8670SOL    HW126588  -0.015   7.769   2.300 -1.2072  0.4044 -0.1634
 8670SOL    HW226589   0.110   7.749   2.381 -0.3058  1.0839 -1.3424
 8671SOL     OW26590   7.925   2.022   5.612 -0.6239 -1.0342  0.0801
 8671SOL    HW126591   7.892   1.939   5.646  0.1836 -1.1908  0.5157
 8671SOL    HW226592   8.008   1.998   5.570 -0.1403 -0.3816  0.6474
 8672SOL     OW26593   2.936   3.521   9.174 -0.4030 -0.4474 -0.0036
 8672SOL    HW126594   2.887   3.487   9.099  0.2139  0.4340 -0.8334
 8672SOL    HW226595   2.985   3.446   9.206  0.0706 -0.6227 -1.0949
 8673SOL     OW26596   3.756   5.310   4.180 -0.2631  0.5958  0.3662
 8673SOL    HW126597   3.773   5.368   4.105  0.9764  0.4813  0.5514
 8673SOL    HW226598   3.751   5.223   4.142  3.4720  0.1010  0.7161
 8674SOL     OW26599   5.746   8.346   9.975  0.5663  0.2777  0.2030
 8674SOL    HW126600   5.793   8.264   9.958  1.4497  0.5754  1.0783
 8674SOL    HW226601   5.670   8.343   9.917  1.3127 -0.5395 -0.7732
 8675SOL     OW26602   1.788   8.677   8.828  0.1666 -0.4278 -0.2085
 8675SOL    HW126603   1.782   8.642   8.739  0.6229  0.3627 -0.5609
 8675SOL    HW226604   1.879   8.660   8.854  0.1693 -0.2114 -0.0777
 8676SOL     OW26605   9.863   4.910   2.203  0.1228  0.5275  0.1254
 8676SOL    HW126606   9.835   4.955   2.282 -1.8305  0.1123 -0.2787
 8676SOL    HW226607   9.942   4.863   2.229 -0.9413 -0.2951  2.0847
 8677SOL     OW26608   0.678   2.833   5.330  0.1291 -0.5549 -0.3941
 8677SOL    HW126609   0.747   2.860   5.391  0.2222  0.7022 -1.0213
 8677SOL    HW226610   0.600   2.822   5.385  0.1162  0.9242 -0.0705
 8678SOL     OW26611   6.660   1.108   3.644 -0.0794 -0.3845 -0.3609
 8678SOL    HW126612   6.585   1.124   3.586  0.6697  0.0643 -1.2387
 8678SOL    HW226613   6.727   1.069   3.586  0.8402  0.4758  0.0929
 8679SOL     OW26614   6.911   7.715   4.025 -0.9483 -0.3909  0.1964
 8679SOL    HW126615   6.879   7.805   4.025 -0.3923 -0.1815 -0.0424
 8679SOL    HW226616   6.994   7.719   4.073  0.2726 -0.3000 -1.8085
 8680SOL     OW26617   8.325   5.899   4.644  0.1824 -0.3200 -0.3937
 8680SOL    HW126618   8.368   5.872   4.564  0.1881  1.4581 -1.0506
 8680SOL    HW226619   8.321   5.995   4.638 -2.2326 -0.2827  0.4548
 8681SOL     OW26620   5.122   1.118   5.570  0.2209  0.0730  0.2570
 8681SOL    HW126621   5.029   1.094   5.567  0.0626  0.6636  0.3000
 8681SOL    HW226622   5.164   1.059   5.508 -0.0824 -0.6378  0.7253
 8682SOL     OW26623   3.814   9.228   1.429  0.1033  0.1258 -0.7944
 8682SOL    HW126624   3.822   9.201   1.521 -0.5998  1.0991 -0.4375
 8682SOL    HW226625   3.734   9.280   1.426  0.3044  0.3930 -1.8965
 8683SOL     OW26626   0.684   8.273   2.486  0.3220 -0.6075 -0.1713
 8683SOL    HW126627   0.728   8.221   2.419  0.4728 -0.6658 -0.0285
 8683SOL    HW226628   0.595   8.284   2.453  0.7105  0.3367 -0.9187
 8684SOL     OW26629   5.936   5.261   9.550  0.0605  0.0034  0.6875
 8684SOL    HW126630   5.888   5.278   9.632 -0.1253 -0.6240  0.7141
 8684SOL    HW226631   5.982   5.178   9.566  0.5511  0.2116  0.3878
 8685SOL     OW26632   5.851   0.478   4.445 -0.3282 -0.0826 -0.1884
 8685SOL    HW126633   5.910   0.532   4.392  1.0230 -1.0757  0.2547
 8685SOL    HW226634   5.850   0.393   4.401  0.1053 -0.6504  0.8624
 8686SOL     OW26635   8.036   6.902   5.553  0.5998 -0.8290 -0.0514
 8686SOL    HW126636   8.062   6.850   5.476 -1.9646 -2.6161  0.1654
 8686SOL    HW226637   8.056   6.992   5.529  2.0629 -1.5699 -1.8421
 8687SOL     OW26638   1.962   9.268   6.837  0.1338 -0.2127  0.2033
 8687SOL    HW126639   1.951   9.362   6.819 -2.1994 -0.7064 -1.3985
 8687SOL    HW226640   1.982   9.264   6.930  0.9904  1.8876  0.1761
 8688SOL     OW26641   6.414   1.385   9.016  0.2577  0.2822 -0.0688
 8688SOL    HW126642   6.430   1.299   8.977  0.2642  0.1234  0.2760
 8688SOL    HW226643   6.438   1.373   9.108  1.4965  1.0003 -0.2854
 8689SOL     OW26644   2.027   0.697   0.364 -0.4419 -0.1867  0.5468
 8689SOL    HW126645   2.002   0.657   0.448  1.7447  1.6006  2.1554
 8689SOL    HW226646   1.992   0.786   0.368  0.0116  0.0413 -0.2926
 8690SOL     OW26647   7.789   1.838   5.772  0.1677 -0.5119  0.0202
 8690SOL    HW126648   7.797   1.778   5.698  1.1390 -1.2439  0.6766
 8690SOL    HW226649   7.711   1.808   5.820 -0.3781 -0.1235 -0.6112
 8691SOL     OW26650   1.868   8.036   2.219 -0.4583 -0.5509  0.2143
 8691SOL    HW126651   1.937   7.998   2.164  1.3935 -0.2310  2.1849
 8691SOL    HW226652   1.836   7.963   2.272 -1.0507 -0.5140 -0.0799
 8692SOL     OW26653   9.562   3.119   0.180 -0.4855  0.3569 -0.3131
 8692SOL    HW126654   9.540   3.207   0.148  2.1313  0.6233 -1.6586
 8692SOL    HW226655   9.568   3.066   0.100  0.8035 -0.3267  0.2234
 8693SOL     OW26656   2.949   8.830   9.788 -0.5307 -0.4004  0.0582
 8693SOL    HW126657   2.992   8.892   9.729  0.1780 -0.9297  0.0044
 8693SOL    HW226658   2.856   8.840   9.769 -0.4701  0.9445  0.3573
 8694SOL     OW26659   6.417   4.044   4.980  0.2099 -0.7245 -0.1061
 8694SOL    HW126660   6.422   4.052   5.075 -0.1612  0.6690 -0.1792
 8694SOL    HW226661   6.507   4.024   4.952  0.6527  0.4580  0.4207
 8695SOL     OW26662   7.834   0.747   8.800  0.2873  0.7221 -0.0192
 8695SOL    HW126663   7.888   0.711   8.871  1.8072 -0.4957 -1.6888
 8695SOL    HW226664   7.878   0.717   8.720 -0.9568  2.6426 -1.4894
 8696SOL     OW26665   4.693   4.505   2.200  0.1950 -0.1695 -0.4155
 8696SOL    HW126666   4.651   4.439   2.145 -0.8143 -0.6527  0.9036
 8696SOL    HW226667   4.764   4.458   2.243 -0.9269 -0.6141  1.0274
 8697SOL     OW26668   2.284   0.822   9.160 -0.0546 -0.2975 -0.1568
 8697SOL    HW126669   2.190   0.819   9.141 -0.1471  0.5985  0.1203
 8697SOL    HW226670   2.293   0.781   9.246 -0.2710  0.1486  0.0808
 8698SOL     OW26671   7.856   5.619   7.123 -0.9397  0.8744  0.3821
 8698SOL    HW126672   7.843   5.525   7.105 -3.0313  1.0419  0.7316
 8698SOL    HW226673   7.822   5.663   7.045 -2.6443  1.3731  1.3515
 8699SOL     OW26674   2.331   6.923   2.930 -0.3636 -0.2989  0.5772
 8699SOL    HW126675   2.270   6.905   2.859  0.9060  0.0387 -0.6369
 8699SOL    HW226676   2.302   7.008   2.965  1.2700  1.5138 -2.1358
 8700SOL     OW26677   8.986   9.661   0.530 -0.2884 -0.8670 -0.0483
 8700SOL    HW126678   9.061   9.627   0.580  0.1054  3.5550  2.9714
 8700SOL    HW226679   8.910   9.620   0.571  0.2973 -1.5599  0.3768
 8701SOL     OW26680   9.514   1.787   4.468 -0.1661  0.0705 -0.1238
 8701SOL    HW126681   9.547   1.837   4.394 -0.4020  0.7358  0.2142
 8701SOL    HW226682   9.568   1.707   4.469  0.5487  0.5434 -0.3641
 8702SOL     OW26683   3.770   9.250   5.731  0.4857  0.3426 -0.7588
 8702SOL    HW126684   3.679   9.267   5.754  0.5865 -1.5363  1.4179
 8702SOL    HW226685   3.820   9.294   5.801  1.1156 -0.7080 -0.5321
 8703SOL     OW26686   5.734   2.133   8.491  0.4969 -0.2645 -0.2223
 8703SOL    HW126687   5.709   2.070   8.423 -1.5287  0.2321 -0.0076
 8703SOL    HW226688   5.706   2.218   8.456  0.4455  0.1283  0.7412
 8704SOL     OW26689   5.871   1.975   4.856 -0.0434 -0.0354 -0.0347
 8704SOL    HW126690   5.823   2.035   4.799 -0.8121 -0.0389  0.6114
 8704SOL    HW226691   5.842   1.887   4.829  0.7630 -0.1191 -0.6881
 8705SOL     OW26692   4.201   3.361   6.733 -0.0865  0.2685 -0.3191
 8705SOL    HW126693   4.197   3.456   6.746 -1.0400  0.1964  0.0296
 8705SOL    HW226694   4.203   3.349   6.638 -0.4875  0.6252 -0.3744
 8706SOL     OW26695   2.849   1.386   3.484  0.1049 -0.4230  0.0829
 8706SOL    HW126696   2.844   1.291   3.496  1.0371 -0.6261 -0.9663
 8706SOL    HW226697   2.939   1.409   3.507  0.2170  0.0248 -0.7649
 8707SOL     OW26698   1.459   4.361   0.190 -0.6218  0.0135 -0.3751
 8707SOL    HW126699   1.489   4.403   0.270  0.6029 -1.5530  0.0318
 8707SOL    HW226700   1.537   4.356   0.134 -1.5572  1.5415 -1.9337
 8708SOL     OW26701   4.740   7.097   5.599 -0.6790  0.1648  0.2865
 8708SOL    HW126702   4.790   7.016   5.608  0.2006  0.5176 -1.2743
 8708SOL    HW226703   4.680   7.080   5.526  0.4219  1.3416 -0.9294
 8709SOL     OW26704   9.036   2.325   2.787 -0.0017  0.2241  0.2216
 8709SOL    HW126705   8.991   2.255   2.835 -0.9355  0.4078 -0.3624
 8709SOL    HW226706   9.121   2.287   2.764  0.1323 -0.1537  1.2900
 8710SOL     OW26707   5.625   5.715   1.829 -0.2320 -0.6792 -0.1236
 8710SOL    HW126708   5.684   5.710   1.754 -0.9781  0.0214 -0.7814
 8710SOL    HW226709   5.569   5.638   1.822 -0.3088 -0.6080 -0.3020
 8711SOL     OW26710   2.224   6.665   0.670 -0.3897 -0.0686  0.5593
 8711SOL    HW126711   2.236   6.755   0.640  0.8577 -0.7053 -0.9736
 8711SOL    HW226712   2.309   6.641   0.707 -0.4835 -0.8727  0.2596
 8712SOL     OW26713   3.499   5.215   7.095 -0.2798 -0.1943  0.0389
 8712SOL    HW126714   3.589   5.237   7.071  0.0803  0.2201  1.6511
 8712SOL    HW226715   3.505   5.130   7.139 -0.7627 -0.4279 -0.3284
 8713SOL     OW26716   4.640   5.897   5.992  0.0180  0.1048 -0.8082
 8713SOL    HW126717   4.691   5.819   6.015  0.2648  0.0826 -1.4015
 8713SOL    HW226718   4.694   5.970   6.022 -1.6849  0.0934  2.8734
 8714SOL     OW26719   0.301   4.524   1.356  0.0925 -0.0114 -0.5056
 8714SOL    HW126720   0.356   4.578   1.412  0.1664  1.1700 -1.6606
 8714SOL    HW226721   0.214   4.563   1.363  0.3081  0.8071 -1.9599
 8715SOL     OW26722   9.723   4.229   6.497  0.1156 -0.1716 -0.4172
 8715SOL    HW126723   9.658   4.162   6.520 -1.0151  1.0026 -0.0725
 8715SOL    HW226724   9.738   4.276   6.579  0.9131 -0.0092 -0.6533
 8716SOL     OW26725   1.753   1.879   9.832 -0.5011 -0.2116 -0.7025
 8716SOL    HW126726   1.823   1.944   9.840  0.0760 -0.6391 -2.0170
 8716SOL    HW226727   1.673   1.928   9.850  0.0536  0.4921 -0.0641
 8717SOL     OW26728   9.136   9.637   0.936  0.1872  0.0858  0.4014
 8717SOL    HW126729   9.068   9.569   0.933  1.8659 -1.6469 -0.6027
 8717SOL    HW226730   9.143   9.659   1.029 -1.5114  0.1129  0.5614
 8718SOL     OW26731   2.194   3.287   7.512  0.6341 -0.1581  0.3247
 8718SOL    HW126732   2.100   3.300   7.510  0.8031  1.1176  0.3743
 8718SOL    HW226733   2.232   3.374   7.498  1.8074 -0.7818 -0.6240
 8719SOL     OW26734   1.807   8.450   6.210 -0.4069 -0.2883 -0.1245
 8719SOL    HW126735   1.893   8.415   6.234  0.1826 -0.1015 -1.8471
 8719SOL    HW226736   1.757   8.448   6.291  1.6728  0.9631  1.2807
 8720SOL     OW26737   4.454   0.711   5.415 -0.3560  0.6891 -0.1624
 8720SOL    HW126738   4.450   0.773   5.343 -0.4823 -0.7048 -1.4012
 8720SOL    HW226739   4.548   0.701   5.434 -0.3329  1.1730 -0.0177
 8721SOL     OW26740   8.118   3.959   6.565 -0.3078 -0.3204  0.1096
 8721SOL    HW126741   8.126   3.885   6.625  0.6245 -0.0573  0.3316
 8721SOL    HW226742   8.104   4.035   6.623 -0.3216 -0.1955 -0.0568
 8722SOL     OW26743   8.047   2.187   6.036  0.1568 -0.2340 -0.0303
 8722SOL    HW126744   7.970   2.209   6.088  0.6038  0.6935  0.2545
 8722SOL    HW226745   8.066   2.266   5.986  1.0106 -0.4055  0.0072
 8723SOL     OW26746   1.365   6.577   5.883  0.3345 -0.2732 -0.2417
 8723SOL    HW126747   1.460   6.566   5.883  0.4361  0.4786  0.8882
 8723SOL    HW226748   1.335   6.522   5.811  1.5764 -0.9311 -0.2837
 8724SOL     OW26749   7.127   2.513   1.984  0.1516  0.0448  0.4097
 8724SOL    HW126750   7.155   2.451   1.916  1.0511 -0.3527  1.1167
 8724SOL    HW226751   7.057   2.564   1.943 -2.3313 -3.0007  0.5228
 8725SOL     OW26752   2.173   5.569   1.808 -0.0634  0.0532  0.1321
 8725SOL    HW126753   2.222   5.506   1.861 -1.8697 -0.3849  1.4079
 8725SOL    HW226754   2.187   5.542   1.718 -1.1417 -2.5421  0.6481
 8726SOL     OW26755   6.216   4.646   8.474  0.1783  0.2567 -0.0791
 8726SOL    HW126756   6.261   4.575   8.521  1.2983  1.2469  0.3845
 8726SOL    HW226757   6.200   4.713   8.541  1.2128  1.4120 -0.9497
 8727SOL     OW26758   3.482   4.385   7.993  0.4406 -0.4263 -0.2966
 8727SOL    HW126759   3.443   4.346   7.914 -1.1722 -3.1950  1.6522
 8727SOL    HW226760   3.537   4.315   8.030  1.6982  1.0265  0.7003
 8728SOL     OW26761   8.372   0.254   2.270 -0.1628  0.3228  0.0945
 8728SOL    HW126762   8.461   0.281   2.294  0.1932  1.3159 -2.0265
 8728SOL    HW226763   8.376   0.158   2.267  0.3608  0.2704  1.5676
 8729SOL     OW26764   8.949   1.124   2.633 -0.1627 -0.5083  0.4430
 8729SOL    HW126765   8.946   1.173   2.551 -1.8577 -0.1387  0.6845
 8729SOL    HW226766   9.021   1.062   2.621 -0.3928 -0.4840 -1.3453
 8730SOL     OW26767   1.697   3.957   8.598 -0.6434  0.4921 -0.1957
 8730SOL    HW126768   1.697   3.932   8.506 -0.5665  1.6835 -0.5369
 8730SOL    HW226769   1.789   3.971   8.619 -0.7668  1.5456 -0.3253
 8731SOL     OW26770   3.952   8.057   9.735  0.5496  0.3082  0.0032
 8731SOL    HW126771   3.924   8.120   9.668  0.5445 -0.1059 -0.3844
 8731SOL    HW226772   3.912   8.089   9.816  1.9615  1.8152  0.1598
 8732SOL     OW26773   1.327   4.800   6.772  0.2379 -0.1485  0.2570
 8732SOL    HW126774   1.398   4.798   6.837 -0.0377  1.0137  0.6144
 8732SOL    HW226775   1.341   4.882   6.724 -0.5096 -0.2058 -0.0632
 8733SOL     OW26776   0.222   0.736   5.831  0.0715 -0.2272 -0.4621
 8733SOL    HW126777   0.170   0.682   5.771  0.5432 -2.5628  1.1392
 8733SOL    HW226778   0.181   0.723   5.917  3.0308 -1.8981  0.8087
 8734SOL     OW26779   7.468   6.709   9.724 -0.4655  0.6925  0.5114
 8734SOL    HW126780   7.458   6.779   9.659 -1.3015  1.5797  1.5486
 8734SOL    HW226781   7.538   6.741   9.781  0.7377 -0.3920 -0.3104
 8735SOL     OW26782   7.596   5.815   6.000 -0.0662  0.6067 -0.2408
 8735SOL    HW126783   7.537   5.861   5.941 -1.4137  0.1068  0.6588
 8735SOL    HW226784   7.551   5.733   6.019  1.1574  0.0014  0.1019
 8736SOL     OW26785   0.226   3.131   0.043  0.4656 -0.1051  0.0233
 8736SOL    HW126786   0.226   3.059   0.106  1.3761 -0.4949 -0.3995
 8736SOL    HW226787   0.243   3.209   0.095  1.1284 -0.4128  0.2719
 8737SOL     OW26788   0.024   7.104   2.937 -0.3576  0.0870 -0.1060
 8737SOL    HW126789  -0.017   7.173   2.989 -1.1139 -1.1529  0.9808
 8737SOL    HW226790   0.007   7.024   2.985  0.5250 -0.8762 -1.3389
 8738SOL     OW26791   3.683   8.681   4.998 -0.0414  0.1134  0.2315
 8738SOL    HW126792   3.720   8.765   5.026 -2.1191  1.3337 -0.4804
 8738SOL    HW226793   3.756   8.636   4.956  0.8526  2.0934 -0.4645
 8739SOL     OW26794   2.884   6.024   6.240 -0.1684  0.0271  0.0719
 8739SOL    HW126795   2.917   6.082   6.171 -1.7853 -0.9561 -1.6152
 8739SOL    HW226796   2.963   5.990   6.283  0.9033  0.3725 -1.5306
 8740SOL     OW26797   5.989   7.973   6.267 -0.1286 -0.3110 -0.0302
 8740SOL    HW126798   5.924   8.012   6.209  0.5667  1.7056  0.4606
 8740SOL    HW226799   6.069   7.970   6.215  0.2611  0.6443  0.4712
 8741SOL     OW26800   9.432   5.325   8.962 -0.2463  0.2471 -0.1490
 8741SOL    HW126801   9.366   5.302   8.897  0.6708 -0.4496 -0.8531
 8741SOL    HW226802   9.421   5.419   8.975 -1.9108  0.0084  0.3611
 8742SOL     OW26803   3.536   9.317   3.206  0.2782 -0.1724  0.1395
 8742SOL    HW126804   3.530   9.239   3.151 -0.7064 -0.6353  0.8616
 8742SOL    HW226805   3.467   9.375   3.173  1.2052  0.5384 -0.5917
 8743SOL     OW26806   3.205   2.859   7.697  0.1016  0.6739 -0.6203
 8743SOL    HW126807   3.172   2.818   7.617 -0.7114 -1.3675  0.6768
 8743SOL    HW226808   3.156   2.940   7.705 -1.9605 -0.5045 -0.6960
 8744SOL     OW26809   6.505   1.897   2.975  0.0031 -0.3714 -0.3138
 8744SOL    HW126810   6.445   1.871   2.906 -0.4593  0.9869 -0.4318
 8744SOL    HW226811   6.565   1.959   2.934 -0.7035  0.9936  0.6379
 8745SOL     OW26812   0.914   5.228   9.337 -0.0337 -0.0167 -0.0061
 8745SOL    HW126813   0.877   5.307   9.298  0.1401  0.4778  0.8159
 8745SOL    HW226814   0.842   5.165   9.337 -0.3134  0.3004 -0.2053
 8746SOL     OW26815   0.364   5.330   1.996 -0.4268 -0.8969 -0.1959
 8746SOL    HW126816   0.312   5.409   1.978 -0.8401 -1.2884 -0.7651
 8746SOL    HW226817   0.446   5.364   2.033  0.0211 -0.0813 -1.8088
 8747SOL     OW26818   0.900   5.589   1.271  0.6037  0.0871 -0.0515
 8747SOL    HW126819   0.973   5.553   1.220 -0.3404 -0.0239 -1.3553
 8747SOL    HW226820   0.912   5.684   1.267  0.7602  0.0643 -0.1172
 8748SOL     OW26821   9.055   7.796   9.395 -0.8076 -0.3257  0.3507
 8748SOL    HW126822   9.020   7.770   9.480 -0.6336  0.3076  0.6201
 8748SOL    HW226823   9.001   7.871   9.369  1.9502  2.4703  2.0289
 8749SOL     OW26824   6.644   3.038   7.241  0.1734  0.4324  0.0567
 8749SOL    HW126825   6.703   3.111   7.262 -2.4391  2.8138 -0.2942
 8749SOL    HW226826   6.654   2.978   7.315  3.8929  0.0202 -0.6029
 8750SOL     OW26827   4.183   8.069   9.512 -0.9314  0.3123 -0.0673
 8750SOL    HW126828   4.147   8.011   9.579  0.1989 -1.8073 -1.2112
 8750SOL    HW226829   4.118   8.068   9.442 -0.4791 -0.3693 -0.4868
 8751SOL     OW26830   1.056   9.705   1.564 -0.1437 -0.6281  0.2584
 8751SOL    HW126831   1.095   9.775   1.617  0.4810 -1.2665  0.6627
 8751SOL    HW226832   1.112   9.698   1.487  0.0733 -0.9966  0.4460
 8752SOL     OW26833   0.038   7.139   1.416  0.3913 -0.1625 -0.5160
 8752SOL    HW126834  -0.036   7.139   1.355  0.3869 -0.3109 -0.5114
 8752SOL    HW226835   0.019   7.066   1.476  0.3475  0.0408 -0.2790
 8753SOL     OW26836   8.106   6.002   8.834 -0.4934 -0.6694  0.1749
 8753SOL    HW126837   8.035   6.013   8.897 -0.7151  0.9391 -0.2867
 8753SOL    HW226838   8.080   5.927   8.780 -1.7787 -0.2130  0.1221
 8754SOL     OW26839   9.852   3.051   7.506 -0.0392  0.4238  0.1498
 8754SOL    HW126840   9.799   3.039   7.427 -0.2904  0.2260  0.3477
 8754SOL    HW226841   9.812   2.993   7.571 -0.7083  1.5949  0.8370
 8755SOL     OW26842   2.202   4.682   7.580 -0.2820  0.2360  0.2053
 8755SOL    HW126843   2.291   4.672   7.545 -0.0397  3.2067 -0.2741
 8755SOL    HW226844   2.213   4.672   7.674  0.3723 -0.4845  0.0649
 8756SOL     OW26845   2.780   9.045   3.110 -0.3619 -0.6192 -0.3368
 8756SOL    HW126846   2.803   9.088   3.027 -1.0068 -0.8703 -0.6536
 8756SOL    HW226847   2.864   9.024   3.150 -0.0441 -0.1518 -0.7522
 8757SOL     OW26848   2.615   1.166   4.800  0.0238 -0.1183  0.3886
 8757SOL    HW126849   2.693   1.189   4.750  0.0295 -0.1566  0.3801
 8757SOL    HW226850   2.546   1.159   4.735 -0.4747  2.0369  0.5993
 8758SOL     OW26851   1.620   8.254   1.104  0.0261  0.3781  0.7295
 8758SOL    HW126852   1.533   8.282   1.075  0.6790  1.9628  0.1813
 8758SOL    HW226853   1.609   8.230   1.196 -1.8339 -3.4784 -0.2528
 8759SOL     OW26854   5.015   8.479   4.979 -0.3451  0.4846  0.1480
 8759SOL    HW126855   5.065   8.561   4.985 -0.9691  0.8889 -0.1127
 8759SOL    HW226856   4.928   8.501   5.012 -0.2248 -0.3441  1.0707
 8760SOL     OW26857   8.976   5.033   7.741  0.6610  0.5128 -0.4195
 8760SOL    HW126858   9.013   4.948   7.767  0.7621  0.3972 -0.9252
 8760SOL    HW226859   9.045   5.074   7.689  1.4452  1.8158  1.5213
 8761SOL     OW26860   1.674   1.854   6.076 -0.4458  0.0638  0.0080
 8761SOL    HW126861   1.666   1.912   6.151 -2.5881  0.1041 -0.1931
 8761SOL    HW226862   1.751   1.800   6.096  1.1366  2.3713  0.5581
 8762SOL     OW26863   7.350   8.919   7.446  0.5570  0.0954 -0.0864
 8762SOL    HW126864   7.335   8.930   7.352  0.9976 -0.0745 -0.1762
 8762SOL    HW226865   7.419   8.981   7.468  1.7537 -1.1256 -0.2392
 8763SOL     OW26866   5.202   5.444   9.578  0.0055  0.0604  0.0111
 8763SOL    HW126867   5.230   5.530   9.548  1.0792  0.1739  1.2580
 8763SOL    HW226868   5.164   5.460   9.664 -1.7953 -0.4388 -0.6390
 8764SOL     OW26869   0.333   7.445   0.911  0.5374  0.1816  0.1521
 8764SOL    HW126870   0.416   7.492   0.914  0.2565  0.6443  1.7230
 8764SOL    HW226871   0.299   7.450   1.001 -0.9931 -0.3408 -0.3577
 8765SOL     OW26872   4.445   5.792   5.528  0.2473  0.1152 -0.7082
 8765SOL    HW126873   4.519   5.732   5.528  1.1734  1.1718  1.3203
 8765SOL    HW226874   4.374   5.742   5.487  1.2394 -1.9950 -0.0130
 8766SOL     OW26875   0.530   1.013   0.160 -0.4970 -0.3581  0.2223
 8766SOL    HW126876   0.548   1.038   0.251  0.6300 -2.6751  0.7198
 8766SOL    HW226877   0.439   0.982   0.161 -0.7414  0.3484  0.3709
 8767SOL     OW26878   1.355   3.908   9.300 -0.3488 -0.1828  0.2161
 8767SOL    HW126879   1.402   3.976   9.348  0.0375 -1.3067  1.4972
 8767SOL    HW226880   1.423   3.863   9.249 -0.4808 -0.1160 -0.0238
 8768SOL     OW26881   4.925   6.145   2.957 -0.3807  0.6651 -0.0527
 8768SOL    HW126882   4.975   6.224   2.978 -1.5303  1.0509  1.4290
 8768SOL    HW226883   4.880   6.123   3.039 -0.0138 -1.6053 -0.4039
 8769SOL     OW26884   4.597   7.760   1.697  0.1605  0.3955 -0.3045
 8769SOL    HW126885   4.585   7.704   1.774 -2.9147 -1.1186 -1.7213
 8769SOL    HW226886   4.645   7.705   1.635 -0.5573  0.2642 -0.7528
 8770SOL     OW26887   5.065   5.125   0.451  0.4932  0.0142  0.0984
 8770SOL    HW126888   5.050   5.207   0.404  1.2687  1.2115  1.8185
 8770SOL    HW226889   5.147   5.092   0.415  0.6039  0.4268 -0.0323
 8771SOL     OW26890   0.276   3.312   2.082 -0.1252 -0.0848  0.0018
 8771SOL    HW126891   0.195   3.315   2.030  0.9939 -1.5813 -1.9526
 8771SOL    HW226892   0.308   3.402   2.082 -1.2975  0.3484  0.0048
 8772SOL     OW26893   0.222   6.132   2.117 -0.0168 -0.4037 -0.2500
 8772SOL    HW126894   0.161   6.167   2.182  1.6462  0.2603  1.0325
 8772SOL    HW226895   0.191   6.042   2.101 -0.4188 -0.6169  1.5350
 8773SOL     OW26896   9.017   3.741   1.947  0.1444 -0.3168  0.1099
 8773SOL    HW126897   9.109   3.767   1.953  0.0320  0.6032 -1.4440
 8773SOL    HW226898   8.969   3.813   1.987  0.0748 -0.6265  0.5899
 8774SOL     OW26899   2.389   2.829   9.701 -0.2148 -0.1672  0.3850
 8774SOL    HW126900   2.439   2.761   9.747  0.2695 -0.0304  0.0700
 8774SOL    HW226901   2.315   2.783   9.662 -0.5619 -0.3085  1.1920
 8775SOL     OW26902   5.805   1.280   9.556  0.2189 -0.2177 -0.5051
 8775SOL    HW126903   5.748   1.205   9.570 -0.8226  0.7943  0.8920
 8775SOL    HW226904   5.884   1.260   9.606 -0.0840 -0.3347 -0.0766
 8776SOL     OW26905   4.952  -0.009   8.036  0.0826  0.4030 -0.0972
 8776SOL    HW126906   4.988   0.056   7.977 -1.2099  1.4590  0.2196
 8776SOL    HW226907   4.996   0.008   8.120  0.1890  0.4635 -0.1651
 8777SOL     OW26908   3.664   2.070   4.750 -0.1442  0.0222 -0.0874
 8777SOL    HW126909   3.636   2.129   4.681  1.1481  0.0017 -0.6686
 8777SOL    HW226910   3.652   2.120   4.831 -0.2533  0.6116 -0.4609
 8778SOL     OW26911   6.778   0.909   9.422 -0.0055  0.1315 -0.7031
 8778SOL    HW126912   6.689   0.883   9.402 -1.1530  0.4989  3.0784
 8778SOL    HW226913   6.833   0.855   9.365 -2.5164 -3.5619  0.0283
 8779SOL     OW26914   7.422   9.361   3.731  0.0228  0.3776 -0.1732
 8779SOL    HW126915   7.418   9.266   3.720  0.1665 -0.0680  2.8147
 8779SOL    HW226916   7.501   9.387   3.684 -0.2187 -0.8823 -1.3576
 8780SOL     OW26917   1.477   8.164   5.076 -0.1747  0.3687  0.0664
 8780SOL    HW126918   1.532   8.122   5.009  0.2923 -1.2667  1.3967
 8780SOL    HW226919   1.415   8.218   5.026 -0.4744 -1.5227 -1.7508
 8781SOL     OW26920   9.069   6.024   3.896  0.0120 -0.0862 -0.1681
 8781SOL    HW126921   9.076   5.955   3.831  2.8702 -0.7865  0.7482
 8781SOL    HW226922   9.115   6.099   3.858 -1.9717  0.9613 -0.6306
 8782SOL     OW26923   6.975   6.888   2.493  0.3711 -0.4133  0.8493
 8782SOL    HW126924   6.887   6.858   2.469  0.4717 -1.4513  1.7172
 8782SOL    HW226925   7.028   6.809   2.493  1.5187  0.3078 -0.4356
 8783SOL     OW26926   9.771   8.722   1.556 -0.4012  0.0550  0.5479
 8783SOL    HW126927   9.727   8.804   1.576  1.8759  1.2129  1.1748
 8783SOL    HW226928   9.764   8.713   1.461  1.0536  2.1299  0.1628
 8784SOL     OW26929   2.036   0.638   3.811  0.3223 -0.5727 -0.0968
 8784SOL    HW126930   1.955   0.629   3.761  0.6252 -0.4245 -0.6137
 8784SOL    HW226931   2.010   0.686   3.890  0.0137 -0.0275 -0.5251
 8785SOL     OW26932   1.812   9.404   8.364  0.3598  0.2899 -0.2041
 8785SOL    HW126933   1.754   9.444   8.428  1.5095 -1.3529  1.9758
 8785SOL    HW226934   1.787   9.444   8.281 -2.4377  1.1646  0.9471
 8786SOL     OW26935   0.155   2.640   8.544 -0.0213 -0.1679  0.2700
 8786SOL    HW126936   0.067   2.631   8.579 -0.1698 -2.5918 -0.4869
 8786SOL    HW226937   0.145   2.693   8.465 -0.5870  0.5573  0.8174
 8787SOL     OW26938   0.918   3.904   6.659 -0.1020  0.4839 -0.4292
 8787SOL    HW126939   0.852   3.856   6.708  1.4214 -0.8628  0.4068
 8787SOL    HW226940   0.995   3.905   6.717  0.5747  2.1850 -1.2624
 8788SOL     OW26941   9.462   5.223   0.778 -0.2410 -0.0627 -0.0809
 8788SOL    HW126942   9.416   5.172   0.712  0.3062 -0.7105  0.0364
 8788SOL    HW226943   9.548   5.240   0.740 -0.2708  0.4193  0.0560
 8789SOL     OW26944   2.192   9.781   0.534 -0.6515 -0.0659 -0.3602
 8789SOL    HW126945   2.172   9.728   0.457  1.5035 -1.3976 -0.0633
 8789SOL    HW226946   2.162   9.728   0.608  0.1523 -0.2173 -0.1369
 8790SOL     OW26947   5.937   3.330   6.214  0.3892 -0.0277  0.1229
 8790SOL    HW126948   5.891   3.383   6.149 -0.1815 -0.0490  0.5006
 8790SOL    HW226949   5.956   3.391   6.285  0.3489 -0.1679  0.2563
 8791SOL     OW26950   2.083   5.664   5.201  0.4574 -0.1837  0.1098
 8791SOL    HW126951   2.039   5.593   5.248 -1.0234  1.3357  1.1372
 8791SOL    HW226952   2.101   5.730   5.267  1.3898  0.5985 -0.8889
 8792SOL     OW26953   3.926   9.886   5.025 -0.5282 -0.4088 -0.3195
 8792SOL    HW126954   3.981   9.964   5.024  0.2154 -0.7890 -3.5930
 8792SOL    HW226955   3.843   9.914   5.064  0.0651  1.7398 -0.5182
 8793SOL     OW26956   6.591   8.164   6.551  0.6423 -0.1714 -0.0265
 8793SOL    HW126957   6.671   8.114   6.537  1.9429  2.0460 -1.1391
 8793SOL    HW226958   6.621   8.254   6.562 -1.7798  1.0803 -2.4632
 8794SOL     OW26959   4.229   3.902   2.849  0.3197 -0.3439  0.5933
 8794SOL    HW126960   4.200   3.938   2.933 -2.0137 -1.0238  0.1593
 8794SOL    HW226961   4.296   3.838   2.872  1.6042  1.3045  1.6874
 8795SOL     OW26962   4.026   2.475   6.375  0.3269 -0.2343 -0.6812
 8795SOL    HW126963   4.031   2.564   6.338 -0.2375  0.4549  0.8418
 8795SOL    HW226964   4.058   2.419   6.304  1.4850  1.2446 -1.4003
 8796SOL     OW26965   3.571   6.388   9.483  0.2102 -0.6861  0.2134
 8796SOL    HW126966   3.601   6.463   9.534  3.8114 -2.0648  0.4229
 8796SOL    HW226967   3.512   6.341   9.541 -0.9751  1.1777  0.5863
 8797SOL     OW26968   9.422   1.860   3.317  0.1974 -0.2122  0.0969
 8797SOL    HW126969   9.356   1.924   3.345  0.8672  0.8675 -0.7003
 8797SOL    HW226970   9.389   1.826   3.233  0.9193  0.7900 -0.6177
 8798SOL     OW26971   0.929   8.122   4.130  0.5451  0.3089 -0.1631
 8798SOL    HW126972   0.921   8.092   4.040  0.0326  1.9531 -0.7161
 8798SOL    HW226973   1.023   8.118   4.149  0.4767 -1.8308 -0.0691
 8799SOL     OW26974   6.917   2.898   1.856 -0.5860 -0.5199  0.4705
 8799SOL    HW126975   6.925   2.818   1.804 -0.3002 -0.9586  1.1708
 8799SOL    HW226976   6.851   2.950   1.811 -0.2120 -0.8043 -0.4329
 8800SOL     OW26977   2.231   3.028   6.753 -0.1978 -0.2768  0.3830
 8800SOL    HW126978   2.279   3.101   6.791 -0.5514  0.3959 -0.4327
 8800SOL    HW226979   2.292   2.955   6.755  1.1786  0.7462 -1.3424
 8801SOL     OW26980   5.917   2.970   8.877  0.1699  0.0532  0.2583
 8801SOL    HW126981   5.856   2.961   8.950  0.6619  1.4001  0.8629
 8801SOL    HW226982   5.989   2.911   8.899 -0.5122 -0.9090 -0.0452
 8802SOL     OW26983   8.557   9.488   5.980  0.0052  0.6997 -0.0465
 8802SOL    HW126984   8.474   9.507   6.024  1.2437  1.3031  2.1254
 8802SOL    HW226985   8.571   9.563   5.922 -1.4428  0.0834 -1.2903
 8803SOL     OW26986   1.283   4.842   1.929  0.5069  0.1773  0.2335
 8803SOL    HW126987   1.318   4.760   1.895  1.6793  0.9021 -0.3593
 8803SOL    HW226988   1.212   4.816   1.988  0.8899 -1.2481  0.0777
 8804SOL     OW26989   4.097   6.278   3.114 -0.4407 -0.1078 -0.5835
 8804SOL    HW126990   4.092   6.201   3.058  1.2563 -0.2869 -0.5342
 8804SOL    HW226991   4.155   6.253   3.186  0.3583  1.2816 -0.7009
 8805SOL     OW26992   8.772   5.607   5.449  0.0821  0.2909  0.0550
 8805SOL    HW126993   8.688   5.645   5.424 -0.0452  1.0793  1.5994
 8805SOL    HW226994   8.774   5.523   5.403 -3.5093 -1.8242  3.1249
 8806SOL     OW26995   4.436   5.452   6.621  0.0794 -0.4832  0.0416
 8806SOL    HW126996   4.473   5.367   6.643  0.3968  0.1887  2.3151
 8806SOL    HW226997   4.344   5.433   6.598  0.7597 -1.6844 -1.9602
 8807SOL     OW26998   2.581   1.956   5.856  0.1760  0.1716  0.1503
 8807SOL    HW126999   2.509   1.941   5.917  0.2593  0.5097  0.3352
 8807SOL    HW227000   2.635   1.877   5.861 -0.3622 -0.2300 -0.2430
 8808SOL     OW27001   3.624   9.861   6.911 -0.2358  0.4595 -0.1006
 8808SOL    HW127002   3.695   9.849   6.975 -0.3216  2.2226  0.3562
 8808SOL    HW227003   3.651   9.808   6.836  0.2739 -0.9837  1.0501
 8809SOL     OW27004   7.315   6.843   1.082 -0.2103  0.6625 -0.7108
 8809SOL    HW127005   7.277   6.822   1.167  0.6957 -1.3757 -0.7646
 8809SOL    HW227006   7.239   6.864   1.027 -0.9031  0.7865  0.2641
 8810SOL     OW27007   3.648   3.554   3.259 -0.7886  0.2281 -0.1286
 8810SOL    HW127008   3.579   3.534   3.197 -1.2123  1.6071 -0.1231
 8810SOL    HW227009   3.611   3.535   3.345 -0.6504 -0.4290 -0.2122
 8811SOL     OW27010   2.503   6.044   5.140 -0.6325 -0.1874  0.0174
 8811SOL    HW127011   2.418   6.001   5.149 -0.8046  0.1261 -0.0673
 8811SOL    HW227012   2.551   6.021   5.220 -0.8369 -0.2797  0.1131
 8812SOL     OW27013   1.837   3.056   7.122  0.5332 -0.2408  0.0482
 8812SOL    HW127014   1.845   2.960   7.115 -0.4855 -0.3395 -0.0210
 8812SOL    HW227015   1.801   3.070   7.210 -2.5616 -0.2007 -1.1023
 8813SOL     OW27016   3.837   2.575   1.142 -0.5625 -0.5557 -0.0466
 8813SOL    HW127017   3.757   2.527   1.122 -0.1962 -1.3012  0.2591
 8813SOL    HW227018   3.814   2.667   1.125 -1.9911 -0.5426  1.5641
 8814SOL     OW27019   5.585   6.486   7.341  0.1291 -0.6729 -0.0066
 8814SOL    HW127020   5.595   6.393   7.362 -0.7565 -0.6960  0.3476
 8814SOL    HW227021   5.498   6.509   7.374 -0.7729 -0.3517 -2.4177
 8815SOL     OW27022   6.926   5.880   9.965 -0.2011  0.3169 -0.0953
 8815SOL    HW127023   6.978   5.828   9.904  0.1357  0.8010 -0.2297
 8815SOL    HW227024   6.970   5.870  10.049 -0.1168  0.4108 -0.1283
 8816SOL     OW27025   0.315   1.719   1.148 -0.0294 -0.4975  0.4674
 8816SOL    HW127026   0.311   1.803   1.102  0.7298 -1.1316 -0.7722
 8816SOL    HW227027   0.307   1.743   1.241 -0.9298  0.8409  0.0766
 8817SOL     OW27028   6.173   3.005   6.561 -0.0360 -0.4725  0.0922
 8817SOL    HW127029   6.080   2.984   6.558 -0.0763 -0.2544 -0.4068
 8817SOL    HW227030   6.217   2.924   6.533 -0.0084 -0.9313  1.4107
 8818SOL     OW27031   7.338   3.521   4.482  0.5122 -0.0338 -0.0750
 8818SOL    HW127032   7.399   3.542   4.411  0.5089 -1.2890 -0.4585
 8818SOL    HW227033   7.252   3.549   4.449  0.7989  1.4459  0.3429
 8819SOL     OW27034   5.847   8.794   4.548  0.0332 -0.3217 -0.0715
 8819SOL    HW127035   5.902   8.810   4.471 -0.0663 -1.2404 -0.3433
 8819SOL    HW227036   5.777   8.859   4.541  0.3019 -0.0661 -0.4806
 8820SOL     OW27037   4.729   9.851   2.098  0.4812  0.2155 -0.0236
 8820SOL    HW127038   4.803   9.863   2.039  0.8950 -0.4204  0.3567
 8820SOL    HW227039   4.711   9.757   2.096  0.6984  0.1313  1.0961
 8821SOL     OW27040   6.965   0.771   8.779  0.5440  0.3728 -0.2292
 8821SOL    HW127041   7.051   0.774   8.820  0.9606 -0.2769 -1.0250
 8821SOL    HW227042   6.955   0.856   8.737  0.9481  0.3251 -0.4227
 8822SOL     OW27043   4.379   1.812   1.227  0.0767  0.6065 -0.0443
 8822SOL    HW127044   4.437   1.870   1.277 -0.0143  0.2297  0.5070
 8822SOL    HW227045   4.291   1.843   1.246  0.1094  1.9583 -1.8486
 8823SOL     OW27046   5.968   2.047   7.463 -1.1192  0.4071 -0.1938
 8823SOL    HW127047   5.877   2.021   7.448 -0.2043 -2.4336 -1.4113
 8823SOL    HW227048   5.984   2.027   7.556 -1.5360  0.3140 -0.1399
 8824SOL     OW27049   2.011   1.726   7.169  0.1871  0.1289 -0.1660
 8824SOL    HW127050   1.950   1.723   7.244 -1.3963  0.4683 -1.3841
 8824SOL    HW227051   1.979   1.657   7.110  1.5880 -0.3270 -0.4309
 8825SOL     OW27052   6.672   8.659   4.197 -0.0275 -0.0900 -0.6210
 8825SOL    HW127053   6.604   8.701   4.249 -0.7624 -2.1203  0.1951
 8825SOL    HW227054   6.645   8.567   4.194  1.9416 -0.6835 -1.5114
 8826SOL     OW27055   1.503   2.622   5.852 -0.4185 -0.6660  0.3258
 8826SOL    HW127056   1.552   2.540   5.857  0.4686 -0.1903 -0.2488
 8826SOL    HW227057   1.533   2.663   5.771 -0.9796  0.1481  0.5134
 8827SOL     OW27058   1.931   5.392   7.911 -0.2858 -0.2087  0.5677
 8827SOL    HW127059   1.865   5.325   7.928 -0.6734  0.0373  0.0573
 8827SOL    HW227060   2.005   5.345   7.873 -0.6397 -0.3235  0.0067
 8828SOL     OW27061   0.688   9.197   6.708  0.2420  0.0434  0.4558
 8828SOL    HW127062   0.603   9.159   6.728 -0.4342  0.7759 -0.9013
 8828SOL    HW227063   0.751   9.127   6.729 -0.9833 -2.1632 -2.4301
 8829SOL     OW27064   7.285   9.314   6.039  0.1488 -0.0903  0.7150
 8829SOL    HW127065   7.202   9.293   5.998  0.1890  0.1505  0.5101
 8829SOL    HW227066   7.350   9.309   5.968  0.7306 -2.7657  1.3206
 8830SOL     OW27067   3.863   8.924   8.880  0.4367  0.1527  0.2595
 8830SOL    HW127068   3.795   8.979   8.841  0.2045  0.5013  1.1389
 8830SOL    HW227069   3.828   8.835   8.871  0.5791  0.1842 -0.6965
 8831SOL     OW27070   1.541   1.580   4.577  0.1457  0.3248 -0.0153
 8831SOL    HW127071   1.496   1.500   4.605 -1.1538  0.0807 -2.5146
 8831SOL    HW227072   1.612   1.550   4.520  1.2231  0.8834  0.9868
 8832SOL     OW27073   3.942   6.617   3.983 -0.1344  0.3230  0.8243
 8832SOL    HW127074   3.968   6.534   3.944 -0.5949  1.0928 -1.2439
 8832SOL    HW227075   3.856   6.601   4.021 -0.1390 -0.2008  0.5956
 8833SOL     OW27076   3.793   3.439   4.614  0.3548  0.3634 -0.4292
 8833SOL    HW127077   3.790   3.366   4.552  1.3508  0.5982 -0.7809
 8833SOL    HW227078   3.850   3.504   4.573  0.3593  0.8861  0.3588
 8834SOL     OW27079   1.557   8.540   8.396  0.2506  0.3626  0.4094
 8834SOL    HW127080   1.537   8.465   8.453  3.1516  0.6973  2.0944
 8834SOL    HW227081   1.593   8.501   8.317 -1.0800 -0.0557 -0.0060
 8835SOL     OW27082   3.067   6.111   4.162 -0.1289  0.5812  0.6515
 8835SOL    HW127083   3.015   6.045   4.116 -0.5642  0.4036  1.3735
 8835SOL    HW227084   3.141   6.062   4.198  1.1021  0.9962 -1.1722
 8836SOL     OW27085   1.468   6.007   2.074 -0.1174  0.2304 -0.1046
 8836SOL    HW127086   1.549   5.986   2.029 -0.4174 -0.2065 -0.4442
 8836SOL    HW227087   1.483   5.979   2.165 -0.4196 -1.2645 -0.4869
 8837SOL     OW27088   6.005   6.197   5.888  0.4990  0.1868 -0.5962
 8837SOL    HW127089   5.918   6.181   5.924  0.8378 -2.3335 -0.7223
 8837SOL    HW227090   6.065   6.167   5.956  1.2972  1.3465 -0.7522
 8838SOL     OW27091   0.220   5.090   1.068 -0.2598  0.5019 -0.4354
 8838SOL    HW127092   0.285   5.154   1.037  0.3625 -0.0398 -0.2718
 8838SOL    HW227093   0.248   5.070   1.157 -0.9010  0.5720 -0.2160
 8839SOL     OW27094   7.785   3.250   2.086 -0.0765  0.1684 -0.5198
 8839SOL    HW127095   7.860   3.251   2.146  1.2930  1.6187 -2.1274
 8839SOL    HW227096   7.715   3.295   2.133  0.7008  0.5488  0.2956
 8840SOL     OW27097   5.750   1.897   7.288 -0.3250  0.5394  0.0279
 8840SOL    HW127098   5.750   1.807   7.320  1.6231 -0.0687 -1.4548
 8840SOL    HW227099   5.688   1.897   7.215  1.0604 -0.1633 -1.2069
 8841SOL     OW27100   7.677   6.970   1.987 -0.2481  0.1190 -0.8194
 8841SOL    HW127101   7.644   6.890   2.027 -0.2442  0.5438  0.0497
 8841SOL    HW227102   7.603   7.030   1.989 -0.1820  0.2157 -1.2612
 8842SOL     OW27103   6.820   8.117   6.941 -0.3515 -0.0737  0.3125
 8842SOL    HW127104   6.784   8.033   6.912 -0.2561  0.1095 -0.3354
 8842SOL    HW227105   6.862   8.097   7.025  0.1427 -0.7828 -0.0992
 8843SOL     OW27106   8.536   6.913   6.278  0.2311  0.7309 -0.2523
 8843SOL    HW127107   8.600   6.950   6.339  0.8189  0.1440 -0.4927
 8843SOL    HW227108   8.589   6.861   6.217 -0.5263 -0.1833 -0.1478
 8844SOL     OW27109   8.902   8.826   8.147  0.2753 -0.3621  0.0181
 8844SOL    HW127110   8.853   8.828   8.065 -0.2174 -0.8924  0.2904
 8844SOL    HW227111   8.897   8.735   8.176  1.2421 -0.3820  0.1670
 8845SOL     OW27112   0.225   4.802   9.046 -0.2504  0.6237 -0.0948
 8845SOL    HW127113   0.244   4.786   8.953 -1.3506  1.1859 -0.4413
 8845SOL    HW227114   0.219   4.715   9.084 -0.6288  0.3543 -0.7465
 8846SOL     OW27115   1.526   1.834   7.624 -0.2920 -0.2477  0.2591
 8846SOL    HW127116   1.589   1.874   7.564 -1.4607  2.1397  0.5171
 8846SOL    HW227117   1.448   1.820   7.572 -1.6131  2.6330  1.2608
 8847SOL     OW27118   4.793   8.112   9.062  0.0344 -0.0629 -0.5455
 8847SOL    HW127119   4.881   8.150   9.055  0.6292 -1.2842 -0.1102
 8847SOL    HW227120   4.753   8.157   9.137  0.3750  0.3376 -0.6004
 8848SOL     OW27121   2.915   7.762   8.041  0.2637  0.1119 -0.3350
 8848SOL    HW127122   2.886   7.705   8.112  0.2718  0.8727  0.2955
 8848SOL    HW227123   2.860   7.840   8.050  1.6486  1.0713  0.1197
 8849SOL     OW27124   7.458   8.607   1.253 -0.3817 -0.5867 -0.3259
 8849SOL    HW127125   7.461   8.660   1.173  0.3158  1.3281  0.8866
 8849SOL    HW227126   7.549   8.587   1.272 -0.4970 -0.5522  0.2825
 8850SOL     OW27127   8.659   8.243   6.276  0.0327 -0.2641 -0.4274
 8850SOL    HW127128   8.746   8.204   6.271  0.1121 -0.2959  0.9174
 8850SOL    HW227129   8.616   8.198   6.349 -1.1641 -0.3319 -1.1530
 8851SOL     OW27130   9.517   7.220   2.930 -0.0467  0.6832 -0.4780
 8851SOL    HW127131   9.448   7.258   2.985  0.4037 -0.6736  1.1083
 8851SOL    HW227132   9.471   7.167   2.866 -0.5293  0.6758 -0.1289
 8852SOL     OW27133   4.521   0.096   1.983 -0.1630 -0.3908 -0.1118
 8852SOL    HW127134   4.571   0.029   2.030 -0.0465 -0.6646 -0.6151
 8852SOL    HW227135   4.566   0.105   1.900 -0.3934  0.0568 -0.1901
 8853SOL     OW27136   0.298   2.974   7.502 -0.8462  0.4453 -0.1971
 8853SOL    HW127137   0.260   3.014   7.424  0.2987 -0.2307 -1.1394
 8853SOL    HW227138   0.234   2.907   7.527 -1.7449  1.3910  0.1214
 8854SOL     OW27139   1.705   4.166   5.747  0.0407  0.7394  0.7270
 8854SOL    HW127140   1.796   4.138   5.736  0.6455  2.1856  1.6000
 8854SOL    HW227141   1.712   4.260   5.767 -1.6931  1.0178  0.1649
 8855SOL     OW27142   4.921   8.155   4.029 -0.6493  0.5345 -0.2207
 8855SOL    HW127143   4.831   8.145   3.998 -0.5598  1.6607 -0.8683
 8855SOL    HW227144   4.941   8.247   4.017  0.5629  0.3194  0.0173
 8856SOL     OW27145   4.968   9.664   9.116 -0.1021 -0.3921  0.9842
 8856SOL    HW127146   5.054   9.705   9.127  0.0872 -0.7652  0.9013
 8856SOL    HW227147   4.964   9.598   9.185 -0.7946  0.4051  1.7167
 8857SOL     OW27148   3.824   7.435   5.073 -0.0453  0.1289  0.1659
 8857SOL    HW127149   3.847   7.473   5.158  1.2321 -0.6245  0.1809
 8857SOL    HW227150   3.903   7.446   5.020 -1.0092  1.1043 -1.1339
 8858SOL     OW27151   0.629   0.045   4.552  0.0306  0.0671  0.0634
 8858SOL    HW127152   0.589   0.108   4.611 -0.0524 -0.4734  0.6003
 8858SOL    HW227153   0.723   0.058   4.561  0.0148  0.0573  0.2413
 8859SOL     OW27154   0.613   1.931   3.516  0.5505 -0.0053 -0.4647
 8859SOL    HW127155   0.597   2.022   3.543 -3.2457 -0.5963 -0.2747
 8859SOL    HW227156   0.673   1.897   3.582 -0.6881  1.4257  1.5180
 8860SOL     OW27157   0.322   5.616   3.956 -0.2669 -0.4343  0.1378
 8860SOL    HW127158   0.233   5.646   3.973  0.2970  1.5341 -0.0615
 8860SOL    HW227159   0.370   5.638   4.037  0.1847 -0.8606 -0.0076
 8861SOL     OW27160   3.731   2.170   4.304 -0.5182 -0.1909 -0.8277
 8861SOL    HW127161   3.796   2.164   4.373 -0.9346  0.1955 -0.3954
 8861SOL    HW227162   3.776   2.217   4.233 -0.0163 -0.7976 -0.9158
 8862SOL     OW27163   8.856   5.907   6.707  0.2161  0.3562 -0.4812
 8862SOL    HW127164   8.847   5.985   6.762  2.0120  0.3092 -0.0492
 8862SOL    HW227165   8.906   5.937   6.631  0.9281 -0.3609 -0.3079
 8863SOL     OW27166   9.224   6.584   7.973 -0.4079 -0.1899  0.0424
 8863SOL    HW127167   9.163   6.553   8.040 -1.2708 -0.6078 -0.9129
 8863SOL    HW227168   9.239   6.509   7.916 -0.6277  0.4677 -0.9140
 8864SOL     OW27169   2.594   2.947   0.080  0.1518  0.1047  0.8425
 8864SOL    HW127170   2.530   3.002   0.035 -1.8847 -0.9589  2.2143
 8864SOL    HW227171   2.626   3.001   0.152  0.1925  0.4012  0.5994
 8865SOL     OW27172   0.459   3.297   2.523  0.0221  0.2494 -0.0180
 8865SOL    HW127173   0.521   3.335   2.460 -0.7434 -0.0190 -0.9464
 8865SOL    HW227174   0.497   3.213   2.546 -0.1929 -0.1019 -0.9093
 8866SOL     OW27175   5.305   1.686   9.888 -0.1309 -0.6800  0.1994
 8866SOL    HW127176   5.373   1.663   9.952 -0.8029 -0.7842  0.8862
 8866SOL    HW227177   5.231   1.630   9.911 -1.3583  1.1874  1.0904
 8867SOL     OW27178   4.993   1.730   7.868 -0.3905  0.2132  0.0733
 8867SOL    HW127179   4.993   1.759   7.959 -1.2605  0.5394 -0.0225
 8867SOL    HW227180   5.030   1.803   7.819 -1.1629  0.5731  0.0146
 8868SOL     OW27181   8.114   4.430   9.535 -0.4836 -0.3557  0.2255
 8868SOL    HW127182   8.196   4.393   9.501  0.4673  0.4934  1.4590
 8868SOL    HW227183   8.114   4.520   9.504  0.6731  0.6065  2.7201
 8869SOL     OW27184   4.580   4.347   0.403  0.2189 -0.0132 -0.2414
 8869SOL    HW127185   4.569   4.422   0.462 -1.8416  0.1870 -0.8149
 8869SOL    HW227186   4.551   4.271   0.454  0.5052 -0.1565 -0.2882
 8870SOL     OW27187   3.895   3.939   8.805 -0.2688 -0.3424 -0.7981
 8870SOL    HW127188   3.850   4.013   8.845  0.0947 -1.3049  1.5347
 8870SOL    HW227189   3.865   3.863   8.855  3.5965 -1.0832  0.6935
 8871SOL     OW27190   0.879   9.928   8.129  0.2413 -0.2168  0.6869
 8871SOL    HW127191   0.907   9.848   8.085  1.2675 -0.8935  2.4820
 8871SOL    HW227192   0.958   9.961   8.172 -0.6880  0.3941  2.0025
 8872SOL     OW27193   1.954   6.283   7.737 -0.0299  0.1074  0.3437
 8872SOL    HW127194   2.041   6.257   7.707 -0.1617 -1.8748  1.4967
 8872SOL    HW227195   1.893   6.233   7.682 -0.5217  1.8809 -0.8250
 8873SOL     OW27196   5.462   0.252   6.093 -0.0750 -0.4603  0.6119
 8873SOL    HW127197   5.420   0.271   6.009 -0.2549  0.1498  0.8306
 8873SOL    HW227198   5.397   0.278   6.159 -0.2662 -1.7151  0.9383
 8874SOL     OW27199   7.254   4.963   0.169  0.0155  0.2862  0.3707
 8874SOL    HW127200   7.296   5.042   0.203  0.0512  0.0642  0.8628
 8874SOL    HW227201   7.305   4.939   0.092  0.6732  0.1389  0.8383
 8875SOL     OW27202   9.744   4.252   4.231 -0.0560 -0.4533  0.2824
 8875SOL    HW127203   9.664   4.211   4.262  0.8925 -1.8749  0.9244
 8875SOL    HW227204   9.757   4.327   4.289 -0.3363 -0.8682  0.8927
 8876SOL     OW27205   6.656   3.552   2.043  0.0422  0.1826 -0.4658
 8876SOL    HW127206   6.599   3.626   2.023  0.1904  0.4031 -0.0959
 8876SOL    HW227207   6.743   3.590   2.053  0.0824 -0.0038 -0.0556
 8877SOL     OW27208   2.927   1.849   0.574  0.2019  0.5946  0.4628
 8877SOL    HW127209   2.873   1.771   0.582 -0.5232  1.1890  1.4327
 8877SOL    HW227210   3.004   1.830   0.627 -0.1771  0.7097  1.0595
 8878SOL     OW27211   3.722   8.037   7.306 -0.1905  0.6122 -0.1547
 8878SOL    HW127212   3.762   8.059   7.222  0.0730  0.2056 -0.1400
 8878SOL    HW227213   3.705   8.121   7.347  0.9981  0.8050 -0.0022
 8879SOL     OW27214   2.851   7.256   7.002  0.7142  0.2286  0.2858
 8879SOL    HW127215   2.778   7.221   7.054  2.0892 -0.0288  2.1454
 8879SOL    HW227216   2.834   7.350   6.997 -0.2357  0.0426 -0.1251
 8880SOL     OW27217   2.729   3.133   9.150 -0.5783 -0.2951  0.6590
 8880SOL    HW127218   2.670   3.061   9.174 -0.1380 -0.5485  1.0053
 8880SOL    HW227219   2.716   3.145   9.056 -2.0797  0.4649  0.9277
 8881SOL     OW27220   2.018   0.041   5.228 -0.4626 -0.2499  0.3040
 8881SOL    HW127221   1.923   0.028   5.233 -0.6755  0.9799 -0.1868
 8881SOL    HW227222   2.047   0.047   5.319 -1.2401  1.8029  0.4581
 8882SOL     OW27223   4.483   4.707   0.964 -0.0384  0.5395 -0.2554
 8882SOL    HW127224   4.457   4.716   1.055  0.9503  1.7758 -0.0581
 8882SOL    HW227225   4.410   4.746   0.915 -0.5272 -0.0357  0.0100
 8883SOL     OW27226   7.647   5.111   5.091  0.0916 -0.5534  0.7238
 8883SOL    HW127227   7.740   5.130   5.092 -0.1717  0.8922  0.3131
 8883SOL    HW227228   7.641   5.021   5.059  1.2855 -0.3073 -0.2514
 8884SOL     OW27229   6.288   6.306   6.369 -0.4651  0.4488  0.0779
 8884SOL    HW127230   6.247   6.302   6.283 -0.3611 -3.6367  0.0155
 8884SOL    HW227231   6.382   6.317   6.350 -0.5426  0.4833 -0.2925
 8885SOL     OW27232   6.119   4.460   4.495 -0.5041  0.3227  0.2593
 8885SOL    HW127233   6.082   4.447   4.583  0.3557  2.5436  1.0091
 8885SOL    HW227234   6.206   4.421   4.500 -0.9405 -0.7351 -0.0573
 8886SOL     OW27235   8.719   8.313   1.570  0.3935  0.3664  0.0080
 8886SOL    HW127236   8.684   8.389   1.617 -1.1268 -0.3538  0.1012
 8886SOL    HW227237   8.804   8.295   1.612 -0.1961  0.7289  1.3984
 8887SOL     OW27238   4.387   3.226   2.815 -0.0478 -0.0292  0.0289
 8887SOL    HW127239   4.326   3.281   2.865 -1.1248  1.6620 -2.8830
 8887SOL    HW227240   4.332   3.158   2.776  0.3203  0.0842 -0.7058
 8888SOL     OW27241   4.591   4.180   6.060 -0.0561  0.2770  0.3377
 8888SOL    HW127242   4.591   4.263   6.107  1.1090  0.0857  0.7102
 8888SOL    HW227243   4.658   4.190   5.993 -0.6528  0.0053 -0.3220
 8889SOL     OW27244   3.930   4.554   8.981 -0.0521 -0.2536  0.3140
 8889SOL    HW127245   4.000   4.523   8.922  1.7221  2.3778  0.8714
 8889SOL    HW227246   3.963   4.534   9.068 -0.3634  0.2738  0.5539
 8890SOL     OW27247   6.970   3.288   3.359  0.8439  0.1414  0.3179
 8890SOL    HW127248   7.061   3.271   3.385  0.5766 -0.9299  0.5786
 8890SOL    HW227249   6.922   3.295   3.441  0.4981 -0.3806  0.1608
 8891SOL     OW27250   8.701   3.068   7.317  0.0691  0.0645  0.1850
 8891SOL    HW127251   8.743   3.102   7.239 -0.9758 -1.4966 -1.1152
 8891SOL    HW227252   8.721   3.133   7.385  1.5791  1.1075 -1.1815
 8892SOL     OW27253   8.250  -0.012   4.904 -0.2647 -0.1007  0.0494
 8892SOL    HW127254   8.247  -0.045   4.993 -0.4597 -1.7316 -0.5345
 8892SOL    HW227255   8.254   0.083   4.914  0.9191 -0.2988  1.7932
 8893SOL     OW27256   4.775   5.709   9.147 -0.6015 -0.1254 -0.0009
 8893SOL    HW127257   4.744   5.624   9.179 -0.8688  0.3265  0.9777
 8893SOL    HW227258   4.695   5.756   9.121 -0.5553  0.2184  0.4637
 8894SOL     OW27259   1.675   8.907   6.203 -0.2696  0.0424 -0.1897
 8894SOL    HW127260   1.598   8.865   6.164  0.9266 -1.3284 -1.1894
 8894SOL    HW227261   1.687   8.987   6.151 -0.0476 -0.6029 -1.1506
 8895SOL     OW27262   5.490   7.098   5.521  0.0614  0.3579 -0.1815
 8895SOL    HW127263   5.567   7.141   5.483  0.3976  0.4622  0.6018
 8895SOL    HW227264   5.416   7.138   5.477  0.2291  3.2222  1.8420
 8896SOL     OW27265   5.554   5.757   4.362  0.6468  0.7350 -0.7249
 8896SOL    HW127266   5.501   5.831   4.332  2.0340  1.6789 -0.9468
 8896SOL    HW227267   5.627   5.753   4.300  1.3235  0.0479  0.0901
 8897SOL     OW27268   5.026   6.935   1.596  0.3000 -0.9429  0.0834
 8897SOL    HW127269   4.949   6.880   1.608 -0.1995  0.1466  2.2608
 8897SOL    HW227270   5.085   6.910   1.666  0.9338 -0.1292 -0.1372
 8898SOL     OW27271   6.999   9.956   6.238 -0.2415  0.2463 -0.1365
 8898SOL    HW127272   6.910   9.925   6.225 -0.7456  1.6479 -0.1784
 8898SOL    HW227273   7.021  10.002   6.157 -0.1514  1.4298  0.5360
 8899SOL     OW27274   7.116   7.475   3.274 -0.1407 -0.0689 -0.3893
 8899SOL    HW127275   7.061   7.424   3.334  1.3067 -0.5645  0.5696
 8899SOL    HW227276   7.102   7.434   3.188  0.3052 -1.5290  0.2062
 8900SOL     OW27277   7.803   6.052   7.114 -0.3107 -0.2181  0.1940
 8900SOL    HW127278   7.732   5.988   7.111 -0.1967 -0.4225  1.2808
 8900SOL    HW227279   7.857   6.024   7.188  0.2398  0.6235  0.1256
 8901SOL     OW27280   1.797   0.117   9.149 -0.2017 -0.1636  0.0163
 8901SOL    HW127281   1.776   0.054   9.218 -2.2252  0.8324  0.3975
 8901SOL    HW227282   1.890   0.133   9.158 -0.0434 -1.5509  1.2282
 8902SOL     OW27283   3.608   1.034   1.666 -0.2798 -0.4184  0.2902
 8902SOL    HW127284   3.517   1.065   1.672 -0.1853 -0.4492  2.9650
 8902SOL    HW227285   3.638   1.029   1.756  2.2786 -0.8410 -0.4953
 8903SOL     OW27286   8.680   0.667   0.926  0.2140  0.5279  0.2512
 8903SOL    HW127287   8.731   0.634   0.852  0.7862 -0.0185  0.8816
 8903SOL    HW227288   8.706   0.759   0.933 -0.4858  0.8235 -0.7489
 8904SOL     OW27289   8.378   6.024   8.628  0.0580 -0.1520  0.0797
 8904SOL    HW127290   8.326   6.076   8.688  0.5356  1.7163 -1.0605
 8904SOL    HW227291   8.314   5.979   8.572 -0.3529  0.4018  0.1033
 8905SOL     OW27292   1.519   2.925   1.684  0.1245 -0.0124 -0.1223
 8905SOL    HW127293   1.462   2.876   1.743  0.7492  0.4860  0.9278
 8905SOL    HW227294   1.599   2.873   1.679  0.1149  0.0038 -0.4426
 8906SOL     OW27295   2.771   4.728   0.864  0.2515 -0.2127 -0.1469
 8906SOL    HW127296   2.722   4.766   0.791  0.8160  0.9752  0.0658
 8906SOL    HW227297   2.842   4.790   0.880  0.9187 -1.1235  0.5561
 8907SOL     OW27298   6.127   6.554   6.175  0.2703  0.0055  0.4678
 8907SOL    HW127299   6.210   6.568   6.221  1.0447  1.2073 -1.1585
 8907SOL    HW227300   6.153   6.511   6.093 -0.6339  0.8621 -0.2909
 8908SOL     OW27301   5.175   7.286   1.224 -0.8227  0.2746  0.4735
 8908SOL    HW127302   5.253   7.264   1.275  0.4432  2.5717 -0.3178
 8908SOL    HW227303   5.185   7.236   1.143 -0.3078  0.3191  0.5047
 8909SOL     OW27304   4.700   2.062   2.776 -0.4256  0.2497  0.2332
 8909SOL    HW127305   4.786   2.037   2.741 -0.4782  0.9216 -0.4285
 8909SOL    HW227306   4.642   2.056   2.700 -1.3416 -1.8306  1.0361
 8910SOL     OW27307   9.193   0.190   6.331 -0.1830  0.1320 -0.2174
 8910SOL    HW127308   9.212   0.284   6.331 -1.1330  0.3700  1.5266
 8910SOL    HW227309   9.141   0.176   6.253 -2.0884  1.5644  0.6913
 8911SOL     OW27310   2.475   0.836   5.199 -0.2856 -0.2794  0.5643
 8911SOL    HW127311   2.563   0.873   5.190 -0.0413 -0.5908  1.5463
 8911SOL    HW227312   2.473   0.802   5.288 -0.4561 -2.7002 -0.2838
 8912SOL     OW27313   0.206   5.009   5.123  0.7439 -0.9200 -0.0433
 8912SOL    HW127314   0.166   5.069   5.187  1.4030 -1.4196  0.8623
 8912SOL    HW227315   0.138   4.945   5.104 -0.0229  0.1694 -1.1344
 8913SOL     OW27316   2.302   6.931   7.510  0.5710 -0.3336 -0.0627
 8913SOL    HW127317   2.314   6.886   7.594  0.2425 -0.6170 -0.1608
 8913SOL    HW227318   2.220   6.894   7.476  0.8857 -0.4757 -0.6690
 8914SOL     OW27319   5.648   8.835   7.106 -0.3259  0.2967 -0.5739
 8914SOL    HW127320   5.720   8.784   7.142 -1.0427 -0.5463 -0.3042
 8914SOL    HW227321   5.659   8.827   7.011 -0.6165 -0.6463 -0.5371
 8915SOL     OW27322   9.694   5.655   4.412  0.0765  0.2551 -0.6074
 8915SOL    HW127323   9.732   5.656   4.324 -2.2922  3.4376 -1.7698
 8915SOL    HW227324   9.749   5.716   4.461  0.5793 -0.4803 -0.2417
 8916SOL     OW27325   8.930   7.348   5.688  0.1845 -0.3812  0.1772
 8916SOL    HW127326   8.873   7.377   5.617  1.0378 -1.0520 -0.7985
 8916SOL    HW227327   8.945   7.427   5.741 -0.8737  0.0007 -0.0807
 8917SOL     OW27328   7.231   7.377   8.292 -0.1581 -0.0171 -0.1307
 8917SOL    HW127329   7.189   7.431   8.359  0.5217  0.9086 -0.4282
 8917SOL    HW227330   7.209   7.287   8.315 -0.1931  0.3119  1.1559
 8918SOL     OW27331   5.999   8.867   4.301  0.2078  0.0643  0.2685
 8918SOL    HW127332   6.077   8.914   4.272  0.8474 -1.3695 -0.4256
 8918SOL    HW227333   5.932   8.890   4.237  0.6506 -0.3339 -0.3487
 8919SOL     OW27334   5.048   7.519   1.267 -0.1213 -0.4989 -0.2674
 8919SOL    HW127335   5.109   7.578   1.222 -0.0618  0.3347  0.8631
 8919SOL    HW227336   5.088   7.432   1.258  0.4125 -0.1940 -0.9172
 8920SOL     OW27337   6.542   3.505   0.435  0.4397  0.1383  0.1420
 8920SOL    HW127338   6.461   3.456   0.425 -0.2776  1.3340 -0.0636
 8920SOL    HW227339   6.598   3.448   0.488 -0.5032 -0.7157  0.2508
 8921SOL     OW27340   6.248   4.621   1.599 -0.2229 -0.6384  0.1617
 8921SOL    HW127341   6.205   4.620   1.513  0.6720  0.8372 -0.3260
 8921SOL    HW227342   6.178   4.639   1.661 -1.1653 -3.1581 -0.0242
 8922SOL     OW27343   5.957   7.158   0.452 -0.7346 -0.3883 -0.4108
 8922SOL    HW127344   5.869   7.165   0.415 -0.5423  1.4960 -0.5710
 8922SOL    HW227345   5.945   7.103   0.530 -1.6072 -2.1097 -1.6806
 8923SOL     OW27346   6.645   3.025   2.647 -0.5878  0.5538 -1.1360
 8923SOL    HW127347   6.570   3.071   2.685 -1.2370  0.4874 -2.2851
 8923SOL    HW227348   6.650   3.057   2.557 -0.1734 -0.5608 -1.5290
 8924SOL     OW27349   6.916   8.763   1.750 -0.1015 -0.1502  0.6375
 8924SOL    HW127350   6.918   8.859   1.756 -1.2094  0.0710 -1.4194
 8924SOL    HW227351   6.863   8.746   1.671 -0.7425 -2.4773  1.5047
 8925SOL     OW27352   3.421   3.880   8.947  0.2507 -0.1257  0.0173
 8925SOL    HW127353   3.335   3.863   8.984 -0.3066  0.7622 -0.8305
 8925SOL    HW227354   3.416   3.844   8.858  1.2910 -1.4822  0.4687
 8926SOL     OW27355   3.122   9.861   2.878 -0.7185 -0.4634 -0.3451
 8926SOL    HW127356   3.048   9.903   2.835 -0.1870 -0.9481 -1.7899
 8926SOL    HW227357   3.088   9.776   2.906 -0.5073 -1.0345 -1.7611
 8927SOL     OW27358   0.219   7.431   4.800 -0.4595 -0.4775  0.0988
 8927SOL    HW127359   0.284   7.361   4.795  0.2952  0.1399  1.0059
 8927SOL    HW227360   0.183   7.424   4.889 -0.0421  0.5766  0.3603
 8928SOL     OW27361   3.556   5.272   3.181 -0.4160  0.0194 -0.2758
 8928SOL    HW127362   3.593   5.254   3.267 -0.5447  0.2684 -0.1675
 8928SOL    HW227363   3.595   5.356   3.154 -0.4593 -0.0031 -0.4118
 8929SOL     OW27364   0.561   6.307   5.427  0.2167 -0.2451 -0.4015
 8929SOL    HW127365   0.591   6.360   5.500 -0.8470 -0.3202  0.1062
 8929SOL    HW227366   0.542   6.221   5.465 -0.1358 -0.3525 -0.8105
 8930SOL     OW27367   2.930   1.130   4.634 -0.2120  0.1541  0.0242
 8930SOL    HW127368   2.868   1.064   4.602 -0.2462  0.4161 -0.4523
 8930SOL    HW227369   2.912   1.135   4.728 -0.2766 -0.4419  0.0485
 8931SOL     OW27370   5.222   2.307   0.108 -0.0688  0.2489  0.0610
 8931SOL    HW127371   5.179   2.281   0.026 -0.6745  3.2414 -0.6938
 8931SOL    HW227372   5.169   2.380   0.141  0.4839 -0.5022  2.8755
 8932SOL     OW27373   3.484   9.769   0.705  0.1298 -0.3936 -0.0912
 8932SOL    HW127374   3.468   9.840   0.767 -1.4161 -0.0689 -0.8072
 8932SOL    HW227375   3.480   9.690   0.758 -0.0276 -0.0581  0.4050
 8933SOL     OW27376   8.045   9.308   9.205 -0.0011 -0.0629  0.1673
 8933SOL    HW127377   8.076   9.219   9.190  0.9453 -0.0996  2.0431
 8933SOL    HW227378   8.067   9.355   9.124  1.9408 -0.8989  0.1502
 8934SOL     OW27379   4.758   8.967   7.121 -0.2541 -0.2446 -0.1276
 8934SOL    HW127380   4.758   8.937   7.030 -1.1160  0.1931 -0.2925
 8934SOL    HW227381   4.685   9.030   7.125 -0.0234 -0.0165  0.7865
 8935SOL     OW27382   3.421   4.182   9.192  0.0993 -0.4974  0.2669
 8935SOL    HW127383   3.357   4.145   9.252 -1.6216  3.1663  0.9652
 8935SOL    HW227384   3.498   4.200   9.246 -0.7095  0.9205  1.0157
 8936SOL     OW27385   1.755   4.754   2.524  0.0655 -0.3272  0.7012
 8936SOL    HW127386   1.797   4.840   2.521  0.2429 -0.4238 -2.3103
 8936SOL    HW227387   1.671   4.769   2.567 -0.8917  1.8908 -1.7074
 8937SOL     OW27388   0.352   7.626   4.645  0.7528  0.1918  0.0969
 8937SOL    HW127389   0.341   7.716   4.676 -0.4779  0.4643 -1.0101
 8937SOL    HW227390   0.295   7.574   4.701  0.3010  0.3410 -0.2166
 8938SOL     OW27391   9.015   2.167   3.444 -0.2253 -0.4115 -0.2555
 8938SOL    HW127392   8.982   2.164   3.534 -0.2902  2.4907 -0.0849
 8938SOL    HW227393   8.942   2.138   3.390 -0.8913 -0.1945  0.5062
 8939SOL     OW27394   6.633   7.730   1.883 -0.5438  0.1173 -0.5417
 8939SOL    HW127395   6.721   7.759   1.858 -0.2758 -0.0413  0.1746
 8939SOL    HW227396   6.582   7.811   1.889 -1.1589  0.0336 -3.4502
 8940SOL     OW27397   7.406   2.972   3.474 -0.2160 -0.2286  0.8516
 8940SOL    HW127398   7.373   2.952   3.386 -1.0873  0.0731  1.1037
 8940SOL    HW227399   7.463   2.898   3.496 -0.2458 -0.4616  0.1643
 8941SOL     OW27400   3.552   3.034   2.152 -0.4023 -0.3927 -0.3421
 8941SOL    HW127401   3.556   3.022   2.247 -0.8509  0.1858 -0.2486
 8941SOL    HW227402   3.569   3.127   2.139 -0.1103 -0.5170 -0.8480
 8942SOL     OW27403   8.722   2.266   6.773 -0.7221  0.1021 -0.0024
 8942SOL    HW127404   8.816   2.275   6.791 -0.6339  1.8956 -1.0790
 8942SOL    HW227405   8.714   2.273   6.678 -1.8829 -0.9924 -0.0164
 8943SOL     OW27406   0.318   2.786   2.128 -0.0659  0.1154 -0.0558
 8943SOL    HW127407   0.413   2.797   2.132 -0.0279  0.0774 -0.8384
 8943SOL    HW227408   0.283   2.875   2.122  0.0533  0.0514 -2.3327
 8944SOL     OW27409   3.295   7.672   9.899 -0.9305  0.8352  0.2950
 8944SOL    HW127410   3.292   7.582   9.865 -2.4760  1.0411 -0.1781
 8944SOL    HW227411   3.211   7.710   9.875 -0.4682  2.2926  0.8643
 8945SOL     OW27412   2.500   5.523   9.650  0.3101 -0.8501 -0.2797
 8945SOL    HW127413   2.514   5.564   9.735 -2.4266 -1.1614  0.4048
 8945SOL    HW227414   2.503   5.596   9.588  0.4670 -0.3559  0.3004
 8946SOL     OW27415   7.003   7.078   3.026 -0.4548 -0.0641 -0.1102
 8946SOL    HW127416   7.011   6.996   3.075 -0.7547  0.6585  1.2184
 8946SOL    HW227417   6.910   7.098   3.028 -0.2639  0.8214  0.4908
 8947SOL     OW27418   7.941   0.437   6.107 -0.3665  0.8325 -0.1586
 8947SOL    HW127419   7.947   0.475   6.195 -0.7557 -0.2688  0.3637
 8947SOL    HW227420   8.031   0.437   6.074 -0.1675  0.9488  0.3768
 8948SOL     OW27421   7.324   7.883   3.277 -0.0422 -0.8986 -0.0478
 8948SOL    HW127422   7.239   7.849   3.306 -1.0843  0.7874 -0.9620
 8948SOL    HW227423   7.376   7.888   3.357 -1.1694 -0.9324  0.7222
 8949SOL     OW27424   1.206   0.202   0.620  0.5809  0.1529 -0.0297
 8949SOL    HW127425   1.244   0.116   0.639 -1.4670 -0.5570  1.1377
 8949SOL    HW227426   1.253   0.232   0.542  1.7304 -1.7796 -0.1435
 8950SOL     OW27427   3.516   9.339   5.513  0.5822 -0.1928 -0.7438
 8950SOL    HW127428   3.509   9.368   5.604 -0.4377 -2.0850 -0.1579
 8950SOL    HW227429   3.475   9.408   5.462  1.8701  1.2743  0.1176
 8951SOL     OW27430   0.067   2.823   0.551 -0.4820  0.2192  0.2792
 8951SOL    HW127431   0.104   2.862   0.472  0.3999 -0.2509  0.4509
 8951SOL    HW227432   0.023   2.744   0.521  0.7561 -0.5295  0.3743
 8952SOL     OW27433   2.616   0.043   1.872 -0.0460  0.0402  0.7181
 8952SOL    HW127434   2.704   0.082   1.873  0.2826 -0.6937  1.0965
 8952SOL    HW227435   2.609  -0.003   1.956  0.0244 -1.6759 -0.1761
 8953SOL     OW27436   5.044   7.491   2.286 -0.0177 -0.6860  0.5985
 8953SOL    HW127437   5.055   7.567   2.229 -0.4562 -1.4580 -0.5605
 8953SOL    HW227438   5.133   7.460   2.303  0.0814 -1.1909 -0.7436
 8954SOL     OW27439   4.864   1.501   4.472  0.3340  0.2691  0.0247
 8954SOL    HW127440   4.777   1.474   4.502  0.9338 -0.3274  1.2962
 8954SOL    HW227441   4.902   1.547   4.546  0.9530  0.9069 -0.6692
 8955SOL     OW27442   7.564   2.715   9.191  0.4397  0.0997 -0.3009
 8955SOL    HW127443   7.532   2.644   9.135  0.5119 -0.2479  0.0939
 8955SOL    HW227444   7.659   2.708   9.187  0.4470  0.1790 -0.2672
 8956SOL     OW27445   0.372   0.724   4.467 -0.1013  0.2165 -0.4210
 8956SOL    HW127446   0.332   0.810   4.454  1.8923  0.9105 -2.8277
 8956SOL    HW227447   0.428   0.736   4.544 -0.3637  0.8719 -0.3211
 8957SOL     OW27448   2.666   1.972   6.970  0.3921  0.2152 -0.1928
 8957SOL    HW127449   2.725   2.035   6.929 -1.7999  2.3682 -0.2524
 8957SOL    HW227450   2.632   2.018   7.047 -1.6437 -0.7122 -0.4925
 8958SOL     OW27451   4.307   2.453   4.290  0.2804 -0.0022  0.1566
 8958SOL    HW127452   4.365   2.408   4.229  0.1434  1.0673 -0.7959
 8958SOL    HW227453   4.245   2.500   4.234 -2.8793 -2.7039  1.0938
 8959SOL     OW27454   3.191   6.577   4.948 -0.0073 -0.0701  0.0001
 8959SOL    HW127455   3.104   6.594   4.911  0.0770  1.1495  0.3205
 8959SOL    HW227456   3.210   6.654   5.002 -0.0457 -1.6880  2.4656
 8960SOL     OW27457   1.684   2.936   4.176  0.5120  0.0581 -0.1525
 8960SOL    HW127458   1.637   2.890   4.107  0.7204  0.8887 -0.8686
 8960SOL    HW227459   1.679   3.028   4.151  0.0398  0.4550  1.2797
 8961SOL     OW27460   7.496   2.946   8.281 -0.6219 -0.2709 -0.4215
 8961SOL    HW127461   7.519   2.878   8.218  0.0127  1.5473 -2.2736
 8961SOL    HW227462   7.571   3.005   8.281 -0.3891 -0.4386  2.4806
 8962SOL     OW27463   9.913   5.586   7.299  0.5750  0.0675 -0.3033
 8962SOL    HW127464  10.001   5.600   7.333  0.8408 -1.1681 -0.4263
 8962SOL    HW227465   9.866   5.543   7.370  0.3522 -0.1289 -0.5680
 8963SOL     OW27466   0.631   0.729   3.217  0.3742  0.0711  0.1176
 8963SOL    HW127467   0.564   0.723   3.149  1.4602  1.6558 -1.1833
 8963SOL    HW227468   0.625   0.819   3.249 -0.1998 -0.6747  2.2943
 8964SOL     OW27469   0.971   2.494   0.640  0.0155 -0.2748  0.1216
 8964SOL    HW127470   1.067   2.493   0.637  0.0114  0.3219 -0.6729
 8964SOL    HW227471   0.947   2.578   0.600 -0.8404 -0.5010  0.1472
 8965SOL     OW27472   3.284   5.880   6.514  0.2043  0.2881  0.4426
 8965SOL    HW127473   3.270   5.792   6.548 -2.1349  0.8759  1.1770
 8965SOL    HW227474   3.377   5.898   6.532  1.0615 -2.4188 -0.8373
 8966SOL     OW27475   3.921   9.050   1.160  0.3123  0.8816 -0.5814
 8966SOL    HW127476   4.001   9.026   1.114  0.9450  1.1451  0.3703
 8966SOL    HW227477   3.940   9.134   1.200  0.7636 -0.5261  2.4213
 8967SOL     OW27478   5.562   5.419   5.217  0.7271  0.2654 -0.3175
 8967SOL    HW127479   5.507   5.345   5.192 -0.4514 -0.0781  2.8003
 8967SOL    HW227480   5.510   5.497   5.197  0.3770  0.0693 -0.1714
 8968SOL     OW27481   2.143   4.046   7.129  0.8650 -0.1278  0.3653
 8968SOL    HW127482   2.096   4.026   7.048  1.8525  0.6085 -0.4156
 8968SOL    HW227483   2.220   4.094   7.100  1.6811 -0.6012  1.6795
 8969SOL     OW27484   8.081   9.103   7.116 -0.0396  0.3480 -0.4638
 8969SOL    HW127485   8.176   9.094   7.104  0.3001  0.3195  1.8931
 8969SOL    HW227486   8.067   9.195   7.137 -0.3071  0.0524  0.7435
 8970SOL     OW27487   5.876   4.378   7.319 -0.0852  0.0189  0.0773
 8970SOL    HW127488   5.910   4.347   7.234  0.1333  1.1939 -0.2784
 8970SOL    HW227489   5.791   4.336   7.327 -1.4714  2.1730 -2.1657
 8971SOL     OW27490   4.001   2.211   5.842 -0.3467  0.0575 -0.5996
 8971SOL    HW127491   4.078   2.268   5.849 -0.5323  0.5557 -2.1440
 8971SOL    HW227492   4.037   2.125   5.818 -0.2824  0.4275 -1.8957
 8972SOL     OW27493   8.847   3.869   5.551  0.1042 -0.0967 -0.5706
 8972SOL    HW127494   8.884   3.907   5.631 -2.2749 -1.1481  1.1684
 8972SOL    HW227495   8.781   3.932   5.523 -0.1969 -0.4858 -0.7454
 8973SOL     OW27496   3.656   2.942   5.951 -0.5469  0.0821 -0.0917
 8973SOL    HW127497   3.613   2.860   5.974 -0.8421 -0.1821 -1.4957
 8973SOL    HW227498   3.631   2.958   5.860  2.1905 -0.0266 -0.9685
 8974SOL     OW27499   3.980   0.646   7.339  0.1111 -0.4523 -0.0533
 8974SOL    HW127500   3.930   0.624   7.260  1.0805 -0.4144 -0.6912
 8974SOL    HW227501   3.922   0.703   7.389 -0.9013 -1.2817 -0.2571
 8975SOL     OW27502   3.670   0.528   9.446 -0.3149  0.3399 -0.4084
 8975SOL    HW127503   3.755   0.520   9.404  0.6417 -0.6184  1.5724
 8975SOL    HW227504   3.661   0.449   9.499 -1.3231  1.5315  1.3391
 8976SOL     OW27505   8.735   8.606   2.119 -0.1383  0.3884 -0.2200
 8976SOL    HW127506   8.789   8.586   2.043  0.7029  0.4796  0.3338
 8976SOL    HW227507   8.793   8.590   2.194 -0.6509  1.2182  0.3655
 8977SOL     OW27508   8.626   9.555   9.962 -0.0473 -0.2894 -0.0089
 8977SOL    HW127509   8.716   9.587   9.957  0.1317 -0.6916  0.5106
 8977SOL    HW227510   8.574   9.631   9.988  0.4106 -0.4515  1.4892
 8978SOL     OW27511   2.618   3.673   5.889 -0.2610  0.6192 -0.3470
 8978SOL    HW127512   2.531   3.693   5.924 -0.8255  0.1742 -1.4531
 8978SOL    HW227513   2.605   3.595   5.835  1.0743 -0.1808  0.4346
 8979SOL     OW27514   5.820   2.766   0.745 -0.7803  0.0949 -0.6044
 8979SOL    HW127515   5.750   2.803   0.692 -2.5186 -0.8821  0.8747
 8979SOL    HW227516   5.779   2.748   0.830  1.7478  1.2236  0.9944
 8980SOL     OW27517   1.200   0.594   7.496  0.4650 -0.2364 -0.7868
 8980SOL    HW127518   1.160   0.637   7.420  0.2674  1.8671  0.4233
 8980SOL    HW227519   1.274   0.650   7.518  0.7400 -1.0298  0.3534
 8981SOL     OW27520   7.341   8.455   8.553 -0.6512 -0.1748 -0.1583
 8981SOL    HW127521   7.335   8.367   8.516  1.2669 -0.3325 -0.2181
 8981SOL    HW227522   7.417   8.451   8.611 -0.4049  1.4954 -0.3159
 8982SOL     OW27523   9.868   4.425   8.604  0.0828 -0.0789 -0.1217
 8982SOL    HW127524   9.958   4.420   8.573  0.9157  0.7194  1.9513
 8982SOL    HW227525   9.839   4.334   8.605  1.3672 -0.5150  0.4631
 8983SOL     OW27526   8.234   5.799   6.521 -0.6259 -0.0700  0.1038
 8983SOL    HW127527   8.322   5.763   6.532 -0.3953  0.5801  0.4385
 8983SOL    HW227528   8.195   5.792   6.609 -0.1371  1.6225  0.4791
 8984SOL     OW27529   8.756   4.872   3.319  0.2343  0.4194  0.1759
 8984SOL    HW127530   8.808   4.937   3.273 -1.0398  0.4484 -1.3013
 8984SOL    HW227531   8.679   4.920   3.349 -1.3214 -0.5734 -1.9897
 8985SOL     OW27532   5.876   3.469   0.266 -0.0539 -0.4743 -0.2682
 8985SOL    HW127533   5.842   3.514   0.189 -2.7768 -1.1410  0.4588
 8985SOL    HW227534   5.905   3.539   0.324  1.1803  0.0630 -1.4493
 8986SOL     OW27535   6.370   2.136   9.563  0.0967 -0.4592 -0.0586
 8986SOL    HW127536   6.366   2.153   9.469  0.8680  1.3820  0.1893
 8986SOL    HW227537   6.404   2.047   9.571  2.9930  0.3813 -1.5659
 8987SOL     OW27538   9.791   8.699   5.519 -0.3533 -0.2660 -0.1395
 8987SOL    HW127539   9.712   8.679   5.570 -0.6080 -0.1231 -0.4819
 8987SOL    HW227540   9.853   8.630   5.544 -0.2808  0.1224  0.7952
 8988SOL     OW27541   9.113   1.621   9.108  0.6777 -0.4554 -0.0089
 8988SOL    HW127542   9.185   1.677   9.078 -0.0071 -0.4284 -1.6997
 8988SOL    HW227543   9.109   1.637   9.203  0.0860  2.8928 -0.4704
 8989SOL     OW27544   0.403   1.774   5.490  0.2014 -0.2947 -0.6641
 8989SOL    HW127545   0.459   1.698   5.470  1.2204  0.3484 -0.3128
 8989SOL    HW227546   0.458   1.850   5.471 -1.1016  0.3913 -1.8478
 8990SOL     OW27547   1.434   3.433   0.732  0.3572  0.1283 -0.1519
 8990SOL    HW127548   1.512   3.456   0.782  1.1750 -0.3415 -1.1889
 8990SOL    HW227549   1.367   3.419   0.799  1.5223 -0.8955  0.8710
 8991SOL     OW27550   9.720   1.645   2.993  0.4283  0.0231 -0.2028
 8991SOL    HW127551   9.806   1.684   2.975  0.9460 -1.6491 -1.7307
 8991SOL    HW227552   9.693   1.683   3.076  2.1065  1.4903 -0.2611
 8992SOL     OW27553   3.596   9.356   8.703  0.0287  0.1514 -0.2240
 8992SOL    HW127554   3.606   9.452   8.704  1.3297  0.0340  0.3369
 8992SOL    HW227555   3.507   9.341   8.735 -0.1174  1.1694 -0.0972
 8993SOL     OW27556   5.092   1.440   9.810 -0.9668  0.0756  0.1181
 8993SOL    HW127557   5.067   1.409   9.897 -2.0354  0.0668 -0.1777
 8993SOL    HW227558   5.187   1.429   9.807 -1.0987 -1.5675  0.6590
 8994SOL     OW27559   8.117   7.827   6.209 -0.2647 -0.2330 -0.1894
 8994SOL    HW127560   8.206   7.860   6.205 -0.6603  0.9634  0.2713
 8994SOL    HW227561   8.084   7.858   6.294 -1.8034  1.2145 -1.2413
 8995SOL     OW27562   7.620   9.105   4.191  0.2891  0.0109  0.3844
 8995SOL    HW127563   7.662   9.074   4.270  1.4353  0.8984  0.1500
 8995SOL    HW227564   7.567   9.180   4.219 -1.2151 -1.1069  0.6803
 8996SOL     OW27565   8.132   1.161   1.569  0.1930 -0.2302 -0.1028
 8996SOL    HW127566   8.134   1.098   1.498 -2.3693  0.0955 -0.5633
 8996SOL    HW227567   8.136   1.108   1.649  1.4089 -0.7030 -0.4545
 8997SOL     OW27568   0.660   9.288   9.318  0.1832  0.3243 -0.2275
 8997SOL    HW127569   0.750   9.307   9.289  1.0896 -2.3714  0.5197
 8997SOL    HW227570   0.671   9.254   9.407 -1.7383  1.0553  0.3249
 8998SOL     OW27571   8.042   9.944   2.411 -0.3409 -0.1660  0.1763
 8998SOL    HW127572   8.029   9.971   2.320  1.3059  2.1467  0.5576
 8998SOL    HW227573   8.131   9.908   2.413 -0.6996 -1.0670  0.7257
 8999SOL     OW27574   4.326   5.301   5.344  0.1040 -0.3242 -0.2180
 8999SOL    HW127575   4.384   5.365   5.303  0.6187 -1.2911 -1.0511
 8999SOL    HW227576   4.287   5.254   5.270  0.0370 -1.2395  0.3851
 9000SOL     OW27577   0.998   8.006   2.404  0.0072  0.8731 -0.6887
 9000SOL    HW127578   1.084   8.038   2.377 -0.3772  0.7957 -2.0940
 9000SOL    HW227579   1.003   7.999   2.499  1.7289  0.3734 -0.7875
 9001SOL     OW27580   4.076   2.506   0.477  0.2260 -0.2027  0.4528
 9001SOL    HW127581   4.019   2.580   0.457 -0.4920 -0.1580  2.4058
 9001SOL    HW227582   4.151   2.544   0.523  1.5744 -0.3431 -1.5087
 9002SOL     OW27583   2.589   1.982   2.759  0.2009 -0.1519 -0.2790
 9002SOL    HW127584   2.644   1.939   2.694  0.3263 -2.6875  1.4003
 9002SOL    HW227585   2.630   2.067   2.774  0.9834 -0.1124 -2.3918
 9003SOL     OW27586   3.603   6.670   9.499 -0.0571 -0.8502  0.4701
 9003SOL    HW127587   3.593   6.664   9.594  1.9183  0.6764  0.8427
 9003SOL    HW227588   3.523   6.713   9.469  0.1974  0.6442  1.7778
 9004SOL     OW27589   0.904   2.340   7.769  0.1051 -0.5085  0.2635
 9004SOL    HW127590   0.859   2.299   7.695  0.1800 -2.4190  1.1931
 9004SOL    HW227591   0.994   2.352   7.739 -0.4219  1.0987 -0.7837
 9005SOL     OW27592   4.857   3.961   8.697  0.2360  0.1463  0.5976
 9005SOL    HW127593   4.886   4.017   8.769  0.8625  1.0160 -0.2977
 9005SOL    HW227594   4.791   4.014   8.651  0.4192 -0.0756  0.0759
 9006SOL     OW27595   4.146   9.073   8.036 -0.6552 -0.1659 -0.7438
 9006SOL    HW127596   4.129   8.979   8.037  0.3198 -0.3454  0.2059
 9006SOL    HW227597   4.066   9.111   8.001 -1.7532 -1.2199  0.4942
 9007SOL     OW27598   9.699   6.757   1.118  0.1798 -0.4469  0.5136
 9007SOL    HW127599   9.636   6.775   1.048 -0.0213 -1.9317  0.2784
 9007SOL    HW227600   9.656   6.786   1.198 -0.3375 -0.3942  0.2190
 9008SOL     OW27601   8.223   7.491   6.616 -0.5775 -0.0698  0.6088
 9008SOL    HW127602   8.297   7.482   6.676  0.1720 -0.8880 -0.4078
 9008SOL    HW227603   8.167   7.415   6.635 -1.1910  0.5465  1.3751
 9009SOL     OW27604   6.085   0.660   7.914 -0.3119 -0.3100  0.1230
 9009SOL    HW127605   5.999   0.622   7.932  0.3195 -0.9775  2.0270
 9009SOL    HW227606   6.146   0.588   7.927  0.6644  0.5812  0.6501
 9010SOL     OW27607   0.356   9.057   9.301 -0.8011  0.3683 -0.3853
 9010SOL    HW127608   0.421   9.103   9.248  1.8708  0.2139  2.3956
 9010SOL    HW227609   0.322   8.988   9.244 -0.0795  1.7753 -2.6344
 9011SOL     OW27610   6.420   4.766   2.107 -0.2122 -0.8090  0.6659
 9011SOL    HW127611   6.477   4.763   2.184  1.0163 -0.8529 -0.2174
 9011SOL    HW227612   6.463   4.708   2.044 -0.5660  0.1529 -0.4698
 9012SOL     OW27613   8.136   3.211   1.713 -0.1514  0.0274  0.0076
 9012SOL    HW127614   8.091   3.275   1.659  0.1246  0.1558 -0.0736
 9012SOL    HW227615   8.221   3.252   1.732  0.0203 -0.3116 -0.0364
 9013SOL     OW27616   9.083   2.919   4.143 -0.0006 -0.2997 -0.4508
 9013SOL    HW127617   9.095   2.989   4.080 -0.6613  1.1188  0.9302
 9013SOL    HW227618   9.125   2.951   4.223  1.1402 -2.1929 -0.2343
 9014SOL     OW27619   6.004   9.218   7.758 -0.2196 -0.1512  0.2051
 9014SOL    HW127620   5.970   9.257   7.677  0.0981 -0.6395 -0.1659
 9014SOL    HW227621   6.053   9.141   7.730 -0.8704 -0.8595  0.9285
 9015SOL     OW27622   1.840   8.479   3.213  0.0754 -0.2958  0.3721
 9015SOL    HW127623   1.772   8.437   3.160 -1.6036  2.7190 -0.0837
 9015SOL    HW227624   1.887   8.536   3.151  1.1849 -0.2357  1.2330
 9016SOL     OW27625   8.323   7.514   6.923  0.0654 -0.4856  0.3917
 9016SOL    HW127626   8.397   7.456   6.908 -1.1394 -1.7652 -0.8370
 9016SOL    HW227627   8.246   7.458   6.920 -1.0052  0.8213  1.5243
 9017SOL     OW27628   7.864   0.511   8.054 -0.6114 -0.3832 -0.3250
 9017SOL    HW127629   7.926   0.500   8.126 -1.7472  1.3625  0.9832
 9017SOL    HW227630   7.853   0.422   8.019 -0.3461 -1.3736  1.9207
 9018SOL     OW27631   5.103   3.930   1.013  0.0248 -0.0820  0.7167
 9018SOL    HW127632   5.154   3.939   0.932  1.9473  0.8609  1.9634
 9018SOL    HW227633   5.043   3.858   0.995 -4.1136  3.7239 -3.7996
 9019SOL     OW27634   2.815   8.134   0.548 -1.0756  0.8638  0.5004
 9019SOL    HW127635   2.759   8.197   0.593 -1.4459 -0.8500  2.6031
 9019SOL    HW227636   2.755   8.064   0.520 -0.4958  0.7822 -0.6074
 9020SOL     OW27637   7.492   7.221   2.952  0.0063  0.6636  0.1789
 9020SOL    HW127638   7.587   7.212   2.938  0.0955  0.7536  0.7132
 9020SOL    HW227639   7.474   7.313   2.932 -0.3847  0.1217 -2.2515
 9021SOL     OW27640   7.523   9.870   3.599  0.3946  1.1053  0.6395
 9021SOL    HW127641   7.599   9.863   3.658 -0.6144  1.0524  1.9760
 9021SOL    HW227642   7.561   9.897   3.515  1.8561  1.4737  1.3741
 9022SOL     OW27643   2.608   2.525   4.827  0.4449  0.0166  0.7198
 9022SOL    HW127644   2.566   2.456   4.876 -0.0739 -0.4831 -0.3842
 9022SOL    HW227645   2.666   2.568   4.889 -0.9954  0.1258  2.0420
 9023SOL     OW27646   4.938   8.440   3.434  0.0042  0.0337  0.4941
 9023SOL    HW127647   4.918   8.381   3.361 -0.3677 -1.0567  1.4370
 9023SOL    HW227648   5.010   8.397   3.480  0.4242  0.8566  0.6221
 9024SOL     OW27649   0.436   9.679   4.003 -0.0741  0.4743  0.5366
 9024SOL    HW127650   0.423   9.769   3.974 -1.0319  1.0028  2.4242
 9024SOL    HW227651   0.352   9.653   4.041  0.4109 -0.9462  0.7111
 9025SOL     OW27652   2.059   5.524   4.090  0.2672  0.0615 -0.1055
 9025SOL    HW127653   2.014   5.599   4.128 -0.7657 -0.7800  0.3886
 9025SOL    HW227654   2.031   5.523   3.998  1.3857  1.0741 -0.4773
 9026SOL     OW27655   0.911   0.048   8.955  0.0639 -0.0102 -0.6026
 9026SOL    HW127656   0.893   0.119   9.017 -1.7384  1.3226 -2.5255
 9026SOL    HW227657   1.003   0.061   8.930  1.1757 -1.2240  2.4584
 9027SOL     OW27658   0.320   7.099   2.737  0.6529 -0.1492 -0.3258
 9027SOL    HW127659   0.340   7.121   2.828  0.3486 -0.8149 -0.0921
 9027SOL    HW227660   0.235   7.139   2.721  0.2820 -0.7906 -0.0235
 9028SOL     OW27661   4.469   9.432   0.905 -0.8197 -0.0673  0.3084
 9028SOL    HW127662   4.439   9.353   0.949 -2.2151  1.0105  1.3995
 9028SOL    HW227663   4.523   9.401   0.833 -0.0963 -1.9500  1.5969
 9029SOL     OW27664   1.828   0.203   1.862 -0.2065  0.3261  0.5901
 9029SOL    HW127665   1.805   0.164   1.778 -1.3685 -0.5689  1.2817
 9029SOL    HW227666   1.914   0.242   1.848 -0.2537 -0.0505 -0.9239
 9030SOL     OW27667   2.722   3.794   5.077  0.1382  0.0564 -0.1540
 9030SOL    HW127668   2.646   3.781   5.019  0.3196  1.4055 -0.7234
 9030SOL    HW227669   2.689   3.849   5.148  1.1814  3.1249 -1.8818
 9031SOL     OW27670   1.457   2.063   3.795  0.5936  0.3560 -0.0646
 9031SOL    HW127671   1.526   2.071   3.729  0.4082 -0.1733 -0.3361
 9031SOL    HW227672   1.378   2.092   3.750  0.1851 -1.4262 -0.5969
 9032SOL     OW27673   8.348   7.839   7.371 -0.4840  0.3425 -0.2175
 9032SOL    HW127674   8.315   7.911   7.426 -0.2125  0.4900 -0.2436
 9032SOL    HW227675   8.422   7.878   7.324 -0.4636  0.1003 -0.3829
 9033SOL     OW27676   5.733   5.275   1.341 -0.0598  0.8595 -0.2937
 9033SOL    HW127677   5.706   5.367   1.334 -0.0166  0.7951 -1.5068
 9033SOL    HW227678   5.770   5.268   1.429  1.4342  2.4107 -0.7433
 9034SOL     OW27679   6.774   2.308   7.375 -0.6884 -0.4141  0.6170
 9034SOL    HW127680   6.833   2.383   7.366 -1.1170 -0.1326  0.1289
 9034SOL    HW227681   6.828   2.241   7.418  0.4386 -0.6608 -1.0716
 9035SOL     OW27682   2.646   3.474   8.151  0.4571 -0.0452  0.3119
 9035SOL    HW127683   2.698   3.397   8.175  0.0835 -0.1819  0.6846
 9035SOL    HW227684   2.691   3.509   8.074 -0.2639 -1.5602 -0.8712
 9036SOL     OW27685   7.548   9.784   5.337  0.0869 -0.7637  0.0756
 9036SOL    HW127686   7.606   9.860   5.333 -1.1874  0.1819 -1.8108
 9036SOL    HW227687   7.508   9.790   5.423  1.8750 -0.7767  0.9546
 9037SOL     OW27688   5.720   8.191   0.767  0.0333 -0.1091 -0.1112
 9037SOL    HW127689   5.808   8.153   0.776  0.6680  1.4956  0.9800
 9037SOL    HW227690   5.661   8.122   0.795  0.9974 -0.9701 -0.1364
 9038SOL     OW27691   6.181   8.364   5.852 -0.2419 -0.3425 -0.3092
 9038SOL    HW127692   6.125   8.431   5.813  0.4435 -1.2117 -3.0022
 9038SOL    HW227693   6.150   8.356   5.942 -2.5985  1.1293 -0.9094
 9039SOL     OW27694   4.262   3.789   9.523 -0.0612  0.3817 -0.3275
 9039SOL    HW127695   4.288   3.788   9.431  0.0700  0.6474 -0.2950
 9039SOL    HW227696   4.167   3.783   9.522 -0.1159  1.1861 -0.5066
 9040SOL     OW27697   7.133   3.497   1.139 -0.2912  0.2930 -0.2061
 9040SOL    HW127698   7.056   3.463   1.184 -0.3403  0.2173 -0.3451
 9040SOL    HW227699   7.116   3.479   1.046 -0.0686  0.1997 -0.2295
 9041SOL     OW27700   8.274   6.425   8.970  0.1461 -0.2649 -0.3316
 9041SOL    HW127701   8.235   6.367   9.035 -0.8107 -0.2089 -0.8328
 9041SOL    HW227702   8.296   6.505   9.019 -0.9397 -0.0687 -0.1368
 9042SOL     OW27703   0.598   0.103   3.035  0.2355 -0.0195 -0.2768
 9042SOL    HW127704   0.642   0.154   3.103  1.2899 -0.5969 -0.5077
 9042SOL    HW227705   0.658   0.106   2.960  0.0547 -1.1117 -0.4795
 9043SOL     OW27706   7.820   6.927   1.597 -0.1359 -0.1210 -0.0910
 9043SOL    HW127707   7.835   6.954   1.506  1.4587 -0.1114  0.1481
 9043SOL    HW227708   7.800   7.009   1.642  0.5651  0.0939 -0.1589
 9044SOL     OW27709   4.689   7.742   5.183  0.0100 -1.0694  0.3531
 9044SOL    HW127710   4.732   7.658   5.169  0.4539 -0.8451  0.3367
 9044SOL    HW227711   4.762   7.804   5.192 -0.3246 -0.5453 -0.5036
 9045SOL     OW27712   6.799   5.795   4.558 -0.3441  0.4554 -0.1954
 9045SOL    HW127713   6.806   5.846   4.638  1.2667  0.1896 -0.1325
 9045SOL    HW227714   6.736   5.726   4.578 -0.6729  0.9567  0.5195
 9046SOL     OW27715   0.994   3.353   6.141  0.0320  0.3447  0.4729
 9046SOL    HW127716   1.083   3.375   6.168 -0.3277  0.4845  1.6055
 9046SOL    HW227717   0.958   3.304   6.215 -0.8669  0.3825  0.0751
 9047SOL     OW27718   6.963   0.169   5.920  0.1226  0.4110 -0.8334
 9047SOL    HW127719   6.935   0.160   5.829  1.2033 -0.9915 -1.0703
 9047SOL    HW227720   7.055   0.140   5.919 -0.0826 -0.4051  0.8294
 9048SOL     OW27721   8.153   6.848   1.463 -0.2573 -0.4075  0.1589
 9048SOL    HW127722   8.231   6.828   1.516  0.2766  0.4294 -0.2731
 9048SOL    HW227723   8.111   6.920   1.509 -1.5187 -1.6913  1.0863
 9049SOL     OW27724   2.239   5.272   9.802 -1.0114  0.2535 -0.0512
 9049SOL    HW127725   2.253   5.178   9.815 -1.2018  0.1037 -0.8440
 9049SOL    HW227726   2.277   5.313   9.879 -1.9577 -0.5521  0.8811
 9050SOL     OW27727   6.169   3.751   4.980  0.1482 -0.2490 -0.0301
 9050SOL    HW127728   6.243   3.786   4.931  1.3993 -1.3263  1.0033
 9050SOL    HW227729   6.193   3.764   5.072 -1.0878 -0.3514  0.3235
 9051SOL     OW27730   1.467   3.842   3.469 -0.2420 -0.4748 -0.0267
 9051SOL    HW127731   1.459   3.752   3.436 -0.1553 -1.0401  1.4405
 9051SOL    HW227732   1.474   3.832   3.564  0.4975  1.0442  0.0981
 9052SOL     OW27733   6.879   1.484   6.319 -0.2054 -0.2839  0.1696
 9052SOL    HW127734   6.879   1.439   6.404  0.2709  0.4519  0.5781
 9052SOL    HW227735   6.913   1.419   6.257  2.4989  0.0965  1.1087
 9053SOL     OW27736   8.594   8.284   7.424 -0.0057  0.1065  0.5631
 9053SOL    HW127737   8.627   8.229   7.495 -1.0686  0.3313  1.2662
 9053SOL    HW227738   8.663   8.284   7.358 -0.2008 -2.5220  0.2848
 9054SOL     OW27739   2.106   6.652   5.833  0.5468  0.4601  0.8193
 9054SOL    HW127740   2.160   6.660   5.912  0.7208 -0.6584  0.8314
 9054SOL    HW227741   2.169   6.645   5.761  0.3891  1.3117  0.5820
 9055SOL     OW27742   3.360   1.254   9.340  0.1835 -0.0301  0.1787
 9055SOL    HW127743   3.282   1.220   9.384  0.5584  0.5695  1.3582
 9055SOL    HW227744   3.416   1.177   9.329 -0.2534 -0.3298  0.0009
 9056SOL     OW27745   1.932   9.364   2.883 -0.0850  0.2119 -0.0950
 9056SOL    HW127746   1.958   9.386   2.972 -1.4796  0.2532  0.3150
 9056SOL    HW227747   1.934   9.448   2.836  1.7667  0.0249 -0.4309
 9057SOL     OW27748   8.169   7.881   7.013 -0.1935 -0.1837  1.0870
 9057SOL    HW127749   8.230   7.844   6.949 -0.9885 -0.3881  0.4254
 9057SOL    HW227750   8.083   7.855   6.981 -0.8046  2.2317  0.5742
 9058SOL     OW27751   1.704   6.446   4.676  0.4379  0.1523 -0.1117
 9058SOL    HW127752   1.779   6.404   4.635  1.1539  0.2652  1.0320
 9058SOL    HW227753   1.731   6.537   4.688 -0.2250  0.4052 -0.4862
 9059SOL     OW27754   7.513   3.395   4.640  0.0159  0.0902  0.2839
 9059SOL    HW127755   7.439   3.445   4.606  0.0742  1.3957  1.9637
 9059SOL    HW227756   7.481   3.354   4.720  0.5735 -0.9398  0.0102
 9060SOL     OW27757   0.716   5.089   1.547 -0.3825 -0.0186 -0.0718
 9060SOL    HW127758   0.654   5.162   1.548 -1.9109 -1.2464  0.8242
 9060SOL    HW227759   0.720   5.060   1.639  1.8369  0.2415 -0.0370
 9061SOL     OW27760   3.811   6.428   4.597  0.0869 -0.0276 -0.1320
 9061SOL    HW127761   3.902   6.454   4.613  0.5932 -2.2402  0.8299
 9061SOL    HW227762   3.784   6.381   4.675 -2.7262  2.4569  0.6141
 9062SOL     OW27763   1.422   6.815   9.134 -0.1065 -0.7891  0.2614
 9062SOL    HW127764   1.426   6.790   9.042  0.1684  1.1563 -0.3011
 9062SOL    HW227765   1.366   6.892   9.135  0.0830 -0.6444  1.6978
 9063SOL     OW27766   9.577   2.946   1.100  0.5502  0.4594  0.2484
 9063SOL    HW127767   9.632   3.010   1.147  1.5332 -0.0915 -0.1132
 9063SOL    HW227768   9.494   2.991   1.086  0.6174  1.0401  1.5249
 9064SOL     OW27769   0.033   1.270   1.053 -0.8086 -0.1414 -0.0371
 9064SOL    HW127770   0.072   1.357   1.059 -1.0144 -0.0093 -0.5961
 9064SOL    HW227771   0.083   1.226   0.984  0.6554 -1.1884  1.6068
 9065SOL     OW27772   1.932   5.747   3.210 -0.0579  0.0244 -0.8754
 9065SOL    HW127773   2.000   5.706   3.158  0.1055  0.1376 -0.7524
 9065SOL    HW227774   1.864   5.772   3.147  0.1775  0.2407 -1.0421
 9066SOL     OW27775   6.614   8.891   9.961  0.3868  0.2037 -0.7892
 9066SOL    HW127776   6.563   8.830   9.908  0.0017 -0.6787  0.5466
 9066SOL    HW227777   6.548   8.945  10.006  0.6618  0.1067 -0.2609
 9067SOL     OW27778   7.531   4.681   7.425  0.1571  0.1061 -0.1322
 9067SOL    HW127779   7.462   4.637   7.473 -1.5357  2.2696 -0.4136
 9067SOL    HW227780   7.498   4.687   7.335  0.2512  1.9190 -0.0959
 9068SOL     OW27781   1.972   5.819   7.818  0.2372  0.3333  0.3874
 9068SOL    HW127782   1.893   5.814   7.873 -0.5363 -0.6757 -0.7664
 9068SOL    HW227783   1.980   5.732   7.780  1.1389  0.8205 -0.5757
 9069SOL     OW27784   2.397   2.004   9.882  1.1949 -0.3793 -0.8721
 9069SOL    HW127785   2.335   1.944   9.840  0.4395  1.6857 -2.9194
 9069SOL    HW227786   2.352   2.031   9.963  1.0544 -1.6143 -0.5013
 9070SOL     OW27787   3.907   9.209   1.972  0.3468  0.4639 -0.1707
 9070SOL    HW127788   3.921   9.130   1.921  3.6799 -0.9731  2.5860
 9070SOL    HW227789   3.940   9.188   2.060 -1.4268  3.9768  1.5620
 9071SOL     OW27790   9.530   9.689   6.716 -0.1276 -0.0783 -0.5107
 9071SOL    HW127791   9.519   9.710   6.809 -0.5523 -1.0628 -0.3239
 9071SOL    HW227792   9.572   9.767   6.678  0.4978  0.1506  0.6037
 9072SOL     OW27793   9.356   3.965   9.616 -0.4313 -0.2319  0.3475
 9072SOL    HW127794   9.343   3.939   9.525  0.5787  1.4715 -0.3255
 9072SOL    HW227795   9.319   4.053   9.620 -1.9330 -0.8770  2.0283
 9073SOL     OW27796   5.554   3.035   0.323 -0.0047 -0.3783 -0.2304
 9073SOL    HW127797   5.535   2.948   0.289 -1.2623  0.1240 -0.8688
 9073SOL    HW227798   5.547   3.093   0.247  3.2356  0.0406 -0.3650
 9074SOL     OW27799   3.246   3.756   0.438 -0.2027  0.2814 -0.1324
 9074SOL    HW127800   3.280   3.781   0.352 -1.0164  0.3493 -0.4409
 9074SOL    HW227801   3.312   3.695   0.472  1.2379  1.9437  0.1653
 9075SOL     OW27802   5.226   1.336   6.709  0.1517  0.7538  0.1825
 9075SOL    HW127803   5.255   1.327   6.799  0.5852 -0.8911 -0.0911
 9075SOL    HW227804   5.163   1.264   6.696 -0.8452  1.7103 -0.4758
 9076SOL     OW27805   3.853   4.580   6.601 -0.0986 -0.3721 -0.2119
 9076SOL    HW127806   3.880   4.575   6.509 -1.3756 -1.1956 -0.5725
 9076SOL    HW227807   3.886   4.665   6.631  0.4992 -0.1725 -1.3790
 9077SOL     OW27808   0.640   6.783   2.633 -0.1092  0.4993 -0.6972
 9077SOL    HW127809   0.611   6.861   2.585 -0.3079  1.2115  0.5375
 9077SOL    HW227810   0.679   6.726   2.566  0.8500  2.0357 -1.4948
 9078SOL     OW27811   6.862   9.687   9.254  0.0512  0.3902  0.2539
 9078SOL    HW127812   6.809   9.766   9.253  0.4443  0.6556 -0.5237
 9078SOL    HW227813   6.951   9.719   9.270  0.4028  0.2474 -1.2639
 9079SOL     OW27814   2.643   0.297   7.618  0.4677  0.0299  0.2168
 9079SOL    HW127815   2.640   0.353   7.540 -0.6363  0.9616  0.8928
 9079SOL    HW227816   2.650   0.359   7.691  0.2081 -0.7642  0.9240
 9080SOL     OW27817   5.981   0.862   2.798 -0.1933  0.4020  0.1105
 9080SOL    HW127818   5.990   0.891   2.889  0.6423  2.2758 -0.5219
 9080SOL    HW227819   5.895   0.893   2.771 -0.2719  0.2075  0.1366
 9081SOL     OW27820   5.502   6.595   9.614 -0.2487  0.0919 -0.7514
 9081SOL    HW127821   5.510   6.641   9.697  0.2310 -0.3187 -0.5689
 9081SOL    HW227822   5.421   6.630   9.575  0.4561  1.6239 -0.9467
 9082SOL     OW27823   8.613   3.755   7.462  0.0836  0.3167  0.1830
 9082SOL    HW127824   8.587   3.824   7.523  0.0386  0.1827  0.3178
 9082SOL    HW227825   8.608   3.795   7.376 -0.2133  0.3997  0.2371
 9083SOL     OW27826   4.202   1.170   3.706 -0.4492  0.2180 -0.3942
 9083SOL    HW127827   4.199   1.140   3.615 -0.9815 -0.4992 -0.1420
 9083SOL    HW227828   4.290   1.207   3.716 -0.2787  0.0133 -1.1073
 9084SOL     OW27829   3.130   2.669   6.190  0.2565 -0.2195  0.3104
 9084SOL    HW127830   3.035   2.659   6.188  0.3345 -1.2981 -1.8220
 9084SOL    HW227831   3.162   2.582   6.212  0.7287 -0.6693 -1.8514
 9085SOL     OW27832   4.248   4.310   0.094  0.2124  0.2502 -0.1284
 9085SOL    HW127833   4.181   4.280   0.155 -0.5019 -0.0897 -1.0557
 9085SOL    HW227834   4.300   4.372   0.144 -0.7749  0.4935  0.6248
 9086SOL     OW27835   8.120   9.529   8.474  0.1944  0.2569  0.1499
 9086SOL    HW127836   8.038   9.515   8.426  1.5702 -0.6607 -2.0986
 9086SOL    HW227837   8.183   9.555   8.407  2.5493 -2.2131  1.2054
 9087SOL     OW27838   7.536   1.857   2.387  0.4640  0.0740 -0.4853
 9087SOL    HW127839   7.470   1.906   2.436 -0.2614 -0.4528 -0.9044
 9087SOL    HW227840   7.523   1.766   2.415  0.9702 -0.0444 -0.6262
 9088SOL     OW27841   2.868   2.733   3.681 -0.3135 -0.4650  0.3337
 9088SOL    HW127842   2.842   2.782   3.759  0.3793  0.2614  0.1170
 9088SOL    HW227843   2.787   2.724   3.630 -1.0905 -2.1466  1.7430
 9089SOL     OW27844   4.039   6.507   6.004  0.1970 -0.3144 -0.8945
 9089SOL    HW127845   4.036   6.500   5.908 -0.7043 -1.8237 -0.7989
 9089SOL    HW227846   3.951   6.535   6.029 -0.4890 -2.6168 -0.4077
 9090SOL     OW27847   0.358   0.857   7.122 -0.1737  0.3658  0.1651
 9090SOL    HW127848   0.298   0.829   7.053 -0.0177  1.7646 -0.5870
 9090SOL    HW227849   0.436   0.803   7.110 -0.0283  0.7870 -0.9866
 9091SOL     OW27850   2.299   0.396   3.256 -0.3751  0.0218  0.0751
 9091SOL    HW127851   2.227   0.354   3.209 -0.0538  0.1520 -0.5358
 9091SOL    HW227852   2.339   0.455   3.192  2.0860 -2.1373 -0.5652
 9092SOL     OW27853   7.703   0.030   2.498 -0.4598  0.6441 -0.5802
 9092SOL    HW127854   7.781   0.075   2.529  1.0241 -2.6045  0.8086
 9092SOL    HW227855   7.713   0.027   2.403  1.5676 -0.3155 -0.3872
 9093SOL     OW27856   1.983   0.263   8.510 -0.4160  0.2447 -0.1004
 9093SOL    HW127857   1.957   0.253   8.418  0.8120 -0.5570 -0.3872
 9093SOL    HW227858   2.035   0.344   8.511  1.5670 -0.9526 -0.6258
 9094SOL     OW27859   1.653   9.660   2.775 -0.4238 -0.0836  0.4220
 9094SOL    HW127860   1.613   9.657   2.862  0.9449  0.4816  1.1052
 9094SOL    HW227861   1.631   9.748   2.742 -0.5267 -0.1164  0.4020
 9095SOL     OW27862   7.494   3.359   4.163 -0.2416  0.3471  0.0068
 9095SOL    HW127863   7.520   3.304   4.236 -0.7220 -0.3906 -0.3647
 9095SOL    HW227864   7.517   3.448   4.190  0.8619 -0.0670  0.4709
 9096SOL     OW27865   7.349   2.862   5.397 -0.3579  1.0126 -0.1609
 9096SOL    HW127866   7.273   2.870   5.455  0.8721 -0.2594  1.7260
 9096SOL    HW227867   7.356   2.768   5.380  0.5357  1.1616 -0.6551
 9097SOL     OW27868   6.501   3.207   1.286  0.1703 -0.0763 -0.1066
 9097SOL    HW127869   6.492   3.301   1.301 -1.4309  0.0623 -1.5720
 9097SOL    HW227870   6.595   3.189   1.297  0.3179  1.4451  1.3610
 9098SOL     OW27871   3.166   3.886   9.049 -0.1243  0.5547  0.0055
 9098SOL    HW127872   3.157   3.798   9.011 -1.0801  0.6781 -0.0666
 9098SOL    HW227873   3.092   3.894   9.109 -0.1118  1.3655 -0.0838
 9099SOL     OW27874   5.597   6.129   1.603 -0.0477  0.0446  0.3679
 9099SOL    HW127875   5.632   6.203   1.653 -0.3590 -0.6285  1.6052
 9099SOL    HW227876   5.542   6.082   1.665 -0.6384 -0.6907 -0.6804
 9100SOL     OW27877   7.734   0.963   0.063  0.6335  0.3697 -0.4014
 9100SOL    HW127878   7.670   0.929   0.125  0.6339 -1.0342 -1.1417
 9100SOL    HW227879   7.819   0.941   0.101  0.6345 -2.0215 -1.6613
 9101SOL     OW27880   1.060   0.302   2.727 -0.1381 -0.7777  0.1883
 9101SOL    HW127881   1.099   0.266   2.647  0.7694 -0.4060  0.4455
 9101SOL    HW227882   1.135   0.326   2.781 -0.7379 -0.0200  0.7084
 9102SOL     OW27883   2.404   5.243   4.313 -0.1352  0.0158  0.1273
 9102SOL    HW127884   2.359   5.286   4.241 -0.0689  1.2894  0.8233
 9102SOL    HW227885   2.489   5.217   4.276 -0.4820 -0.2090 -0.5142
 9103SOL     OW27886   3.475   3.534   5.102  0.6143  0.0146 -0.9203
 9103SOL    HW127887   3.437   3.479   5.170  1.9550 -0.0982 -0.2245
 9103SOL    HW227888   3.556   3.489   5.076  1.0327  0.9537 -1.3167
 9104SOL     OW27889   3.793   0.094   2.739  0.1057  0.2805  0.0134
 9104SOL    HW127890   3.884   0.121   2.724  0.7119 -1.9513 -0.6058
 9104SOL    HW227891   3.770   0.043   2.662 -0.9463 -0.9739  1.1207
 9105SOL     OW27892   7.921   1.479   6.091  0.9206  0.1321  0.1943
 9105SOL    HW127893   7.865   1.442   6.159 -0.6337  2.4992  0.3378
 9105SOL    HW227894   8.008   1.483   6.131  0.9860 -2.4302  0.4375
 9106SOL     OW27895   9.659   7.172   0.461 -0.0697  0.0589  0.1679
 9106SOL    HW127896   9.734   7.134   0.506  1.0008  2.0374  0.1423
 9106SOL    HW227897   9.683   7.170   0.368 -1.0694 -1.4013 -0.1016
 9107SOL     OW27898   5.189   6.297   7.284 -0.2572 -0.2368  0.1684
 9107SOL    HW127899   5.192   6.382   7.328 -0.7469  0.5087 -1.1684
 9107SOL    HW227900   5.100   6.264   7.301 -1.1029  0.9170 -1.7416
 9108SOL     OW27901   3.991   8.526   0.328  0.9352 -0.2657 -0.2599
 9108SOL    HW127902   4.028   8.446   0.292 -0.2297 -0.3948 -1.2212
 9108SOL    HW227903   3.933   8.559   0.259 -0.9781 -0.2481  1.2686
 9109SOL     OW27904   6.177   9.862   1.078 -0.2434  0.2683  0.1573
 9109SOL    HW127905   6.114   9.933   1.067 -0.0167  0.6817  1.3761
 9109SOL    HW227906   6.140   9.807   1.146  1.1078  1.0195  1.5655
 9110SOL     OW27907   6.042   9.697   5.513 -0.2864 -0.2302 -0.1375
 9110SOL    HW127908   6.053   9.781   5.468 -1.1406 -0.2083 -0.3235
 9110SOL    HW227909   5.994   9.718   5.592  0.3702 -0.4138  0.3216
 9111SOL     OW27910   5.371   3.078   5.641 -0.2567  0.2806 -0.4948
 9111SOL    HW127911   5.368   3.170   5.615 -1.2344  0.2030 -0.6881
 9111SOL    HW227912   5.463   3.062   5.662 -0.2081  1.5082  0.3002
 9112SOL     OW27913   1.656   0.734   5.695 -0.1242 -0.0733  0.6233
 9112SOL    HW127914   1.601   0.812   5.686  0.2412  0.0555 -0.5526
 9112SOL    HW227915   1.743   0.761   5.664  0.0576 -0.8990  0.3806
 9113SOL     OW27916   7.100   6.469   3.248 -0.0663 -0.2613 -0.1812
 9113SOL    HW127917   7.087   6.394   3.190 -1.4484  0.6092 -1.0636
 9113SOL    HW227918   7.050   6.448   3.326 -2.1683  0.5611 -1.2391
 9114SOL     OW27919   9.636   5.864   1.230 -0.1651  0.2251 -0.2947
 9114SOL    HW127920   9.589   5.934   1.275 -0.8741 -0.9119  0.7719
 9114SOL    HW227921   9.728   5.880   1.250 -0.5003 -0.6687  2.2317
 9115SOL     OW27922   5.747   3.580   6.280 -0.0883  0.0986  0.5567
 9115SOL    HW127923   5.666   3.622   6.308 -0.5574 -1.2439  1.3036
 9115SOL    HW227924   5.746   3.586   6.185 -0.8560  0.4750  0.5825
 9116SOL     OW27925   6.279   9.231   8.512  0.4161 -0.4262  0.0481
 9116SOL    HW127926   6.361   9.229   8.462  0.3528 -0.5219 -0.0525
 9116SOL    HW227927   6.211   9.228   8.445  0.3005 -2.9090  0.1619
 9117SOL     OW27928   3.072   2.988   3.692 -0.6655 -0.5085  0.1769
 9117SOL    HW127929   3.087   3.082   3.699 -0.3714 -0.6332  1.5290
 9117SOL    HW227930   2.979   2.976   3.715 -0.8750 -0.4929 -0.6363
 9118SOL     OW27931   7.858   6.144   1.121 -0.0256 -0.0410 -0.0421
 9118SOL    HW127932   7.863   6.230   1.163 -0.5342 -0.2379  0.4283
 9118SOL    HW227933   7.837   6.083   1.192  2.0677 -0.8385 -0.0427
 9119SOL     OW27934   1.277   6.233   9.219  0.1315 -0.2409  0.0436
 9119SOL    HW127935   1.307   6.232   9.311 -0.9193  1.6911  0.4619
 9119SOL    HW227936   1.196   6.283   9.221  0.3217  0.2299 -2.0280
 9120SOL     OW27937   4.653   1.205   5.574 -0.2485  0.2305 -0.3380
 9120SOL    HW127938   4.560   1.185   5.587 -0.5339  1.7258  0.1416
 9120SOL    HW227939   4.661   1.298   5.595  1.8699 -0.4350  2.4173
 9121SOL     OW27940   8.547   1.347   8.245 -0.1553 -0.0113 -0.5957
 9121SOL    HW127941   8.459   1.368   8.216  0.8204  0.9052 -3.2308
 9121SOL    HW227942   8.575   1.274   8.189  0.7485 -0.3204  0.2194
 9122SOL     OW27943   2.503   6.975   3.693  0.0099 -0.0397 -0.0380
 9122SOL    HW127944   2.423   7.029   3.687 -0.1577 -0.2341  0.4493
 9122SOL    HW227945   2.537   6.974   3.603  0.1177  1.0288 -0.0276
 9123SOL     OW27946   7.105   7.707   8.947  0.4368 -0.0652  0.2623
 9123SOL    HW127947   7.059   7.623   8.940  1.0243 -0.3651 -0.0165
 9123SOL    HW227948   7.155   7.714   8.866 -0.5124  1.1063 -0.2672
 9124SOL     OW27949   6.664   7.578   9.524  0.3659 -0.1396  0.0276
 9124SOL    HW127950   6.738   7.632   9.550  2.2382 -2.0869 -0.9497
 9124SOL    HW227951   6.683   7.491   9.559 -1.5538 -0.6765 -0.1193
 9125SOL     OW27952   8.662   4.611   1.376 -0.1190  0.2059  0.4232
 9125SOL    HW127953   8.612   4.635   1.297 -0.3571 -1.7078 -0.0724
 9125SOL    HW227954   8.745   4.578   1.342 -0.1766 -0.5148  0.9651
 9126SOL     OW27955   4.663   1.926   5.949 -0.2933  0.1155  0.1296
 9126SOL    HW127956   4.632   1.987   6.017 -0.5643  0.1677 -0.0375
 9126SOL    HW227957   4.606   1.850   5.958 -0.7703  0.3962 -0.4764
 9127SOL     OW27958   9.527   6.232   5.427 -0.0950 -0.0098  0.4246
 9127SOL    HW127959   9.567   6.193   5.349  0.4839  2.0425 -0.3812
 9127SOL    HW227960   9.551   6.173   5.498  2.9353  0.1722 -0.3038
 9128SOL     OW27961   3.419   7.945   5.414 -0.0791 -0.3802  0.0124
 9128SOL    HW127962   3.398   7.997   5.337 -0.9135  0.2513  0.6444
 9128SOL    HW227963   3.383   7.858   5.395  0.2806 -0.4061 -0.5613
 9129SOL     OW27964   4.214   1.961   3.734  1.2202 -0.0241 -0.2741
 9129SOL    HW127965   4.239   2.001   3.818  1.5086 -0.5348 -0.1169
 9129SOL    HW227966   4.289   1.908   3.710  1.6627  1.1012 -1.4951
 9130SOL     OW27967   1.477   6.600   7.743  0.1793 -0.5312  0.6193
 9130SOL    HW127968   1.499   6.598   7.836 -0.6639 -0.1327  0.8329
 9130SOL    HW227969   1.414   6.671   7.734  0.5177 -0.3293 -0.3257
 9131SOL     OW27970   3.442   9.676   1.500  0.1213  0.1399  0.0325
 9131SOL    HW127971   3.475   9.734   1.431 -1.6190  1.6679  0.4226
 9131SOL    HW227972   3.415   9.597   1.452  0.4555  0.5221 -0.8180
 9132SOL     OW27973   2.914   8.908   5.569 -0.1054  0.3870  0.1528
 9132SOL    HW127974   3.000   8.949   5.563 -0.0456  0.4801  1.3714
 9132SOL    HW227975   2.931   8.820   5.604 -0.2397 -0.7225 -2.3616
 9133SOL     OW27976   1.148   6.483   0.593 -0.7160  0.0823  0.3051
 9133SOL    HW127977   1.077   6.488   0.529  0.1116 -0.9891 -0.7612
 9133SOL    HW227978   1.124   6.410   0.650 -0.5912 -0.1245  0.0943
 9134SOL     OW27979   3.674   5.164   2.964 -0.4495 -0.1980 -0.2977
 9134SOL    HW127980   3.616   5.160   3.040  0.9116  3.2090  1.1542
 9134SOL    HW227981   3.751   5.113   2.989 -0.2394  0.4601  0.4339
 9135SOL     OW27982   3.364   1.330   4.494 -0.0130 -0.0990 -0.1453
 9135SOL    HW127983   3.386   1.408   4.443  0.5215 -0.3042 -0.2347
 9135SOL    HW227984   3.298   1.285   4.442 -0.4644  0.3821 -0.0064
 9136SOL     OW27985   5.765   5.910   6.570  0.3465 -0.3232 -0.1163
 9136SOL    HW127986   5.785   5.960   6.491  1.3015 -0.6865 -0.1200
 9136SOL    HW227987   5.726   5.829   6.538  1.3797 -0.7774 -0.2750
 9137SOL     OW27988   6.003   4.662   2.016 -0.2539 -0.4310  0.1972
 9137SOL    HW127989   6.090   4.680   2.052 -0.4772  1.4457 -0.1235
 9137SOL    HW227990   5.944   4.672   2.090 -0.2579 -1.1226  0.2885
 9138SOL     OW27991   9.967   2.285   2.257  0.0474  0.1138 -0.6893
 9138SOL    HW127992   9.911   2.362   2.244 -0.6471  0.0438  1.4515
 9138SOL    HW227993  10.052   2.312   2.221 -0.0555  2.0847  0.3607
 9139SOL     OW27994   7.680   5.740   2.779  0.6932  0.7602  0.0593
 9139SOL    HW127995   7.772   5.726   2.755  0.8239  0.4991  0.6829
 9139SOL    HW227996   7.681   5.746   2.875 -0.0813 -0.4206  0.1623
 9140SOL     OW27997   0.426   1.273   7.416 -0.6107  0.4571 -0.1251
 9140SOL    HW127998   0.420   1.178   7.404 -0.1939  0.0081  2.4842
 9140SOL    HW227999   0.519   1.289   7.431 -0.9451  0.8564  1.8188
 9141SOL     OW28000   3.711   2.710   7.961  0.2611 -0.2123  0.3457
 9141SOL    HW128001   3.622   2.681   7.982 -0.2095  0.9256 -0.0298
 9141SOL    HW228002   3.746   2.742   8.045  0.5778 -1.2791  0.6387
 9142SOL     OW28003   3.692   6.641   7.268  0.5155 -0.1962 -0.2241
 9142SOL    HW128004   3.784   6.617   7.257  1.3668  0.6618  3.6363
 9142SOL    HW228005   3.684   6.727   7.226  0.5276 -1.5841 -3.3539
 9143SOL     OW28006   1.155   1.306   7.965 -0.0382 -0.3731  0.9413
 9143SOL    HW128007   1.170   1.391   8.005  0.1707  0.6631 -1.2022
 9143SOL    HW228008   1.197   1.244   8.025  0.8625  1.1248  1.9476
 9144SOL     OW28009   9.569   2.143   4.097  0.0114 -0.3033 -0.6334
 9144SOL    HW128010   9.573   2.213   4.162  0.1685 -2.0467  1.3736
 9144SOL    HW228011   9.481   2.105   4.108 -0.1470 -0.3250 -1.8215
 9145SOL     OW28012   0.411   3.873   3.474  0.0362  0.0480  0.6650
 9145SOL    HW128013   0.376   3.793   3.434 -1.4683  1.8392 -1.8722
 9145SOL    HW228014   0.491   3.891   3.426 -0.1171  0.5487  0.5891
 9146SOL     OW28015   5.845   3.757   2.349  0.1372 -0.2866 -0.3249
 9146SOL    HW128016   5.790   3.697   2.399 -1.3024  0.6044 -0.7774
 9146SOL    HW228017   5.931   3.750   2.390 -0.5410 -0.9808  1.0598
 9147SOL     OW28018   7.387   7.335   7.861  0.0087 -0.2598 -0.5711
 9147SOL    HW128019   7.385   7.424   7.895 -0.6838 -0.3944 -0.2560
 9147SOL    HW228020   7.382   7.346   7.766  2.0114  0.1175 -0.6762
 9148SOL     OW28021   0.671   3.290   3.295  0.0644  0.9401 -0.0412
 9148SOL    HW128022   0.696   3.218   3.237 -1.6750 -1.3590  1.8385
 9148SOL    HW228023   0.644   3.360   3.236  1.0651 -0.2236 -1.9907
 9149SOL     OW28024   6.372   6.649   4.120 -0.2100  0.2386  0.1913
 9149SOL    HW128025   6.346   6.559   4.137 -1.8045  0.5021 -0.6300
 9149SOL    HW228026   6.443   6.642   4.056 -0.4941 -0.4328 -0.0602
 9150SOL     OW28027   8.030   6.562   5.999  0.0158  0.3233 -0.3573
 9150SOL    HW128028   8.087   6.616   6.055  0.0319 -0.0816  0.0194
 9150SOL    HW228029   8.027   6.477   6.042 -1.7513  0.6351  0.2419
 9151SOL     OW28030   0.688   5.781   2.089  0.1640  0.2810  0.2497
 9151SOL    HW128031   0.653   5.863   2.055  0.9326  0.0755 -1.0915
 9151SOL    HW228032   0.626   5.755   2.157  0.4000  2.4304  1.3562
 9152SOL     OW28033   4.992   9.455   9.265 -0.3070 -0.8381 -0.2452
 9152SOL    HW128034   5.071   9.402   9.252  0.6927  0.7827 -1.0575
 9152SOL    HW228035   4.921   9.391   9.268  0.8799 -2.2512 -0.8361
 9153SOL     OW28036   7.969   0.506   4.322 -0.2874  0.2156  0.1982
 9153SOL    HW128037   8.053   0.502   4.275 -0.3487 -0.2873  0.1183
 9153SOL    HW228038   7.981   0.447   4.397 -1.3356 -1.7506 -1.0890
 9154SOL     OW28039   3.967   3.219   1.507 -0.0649 -0.0787 -0.6860
 9154SOL    HW128040   3.983   3.280   1.579 -2.2693 -0.4819  0.2118
 9154SOL    HW228041   4.031   3.149   1.520  0.7825  0.7580 -0.2373
 9155SOL     OW28042   6.477   1.727   7.549 -0.0633 -0.4998 -0.5465
 9155SOL    HW128043   6.516   1.648   7.587 -0.2475 -0.2402  0.2045
 9155SOL    HW228044   6.397   1.696   7.507 -0.7638 -0.5619  0.7713
 9156SOL     OW28045   0.907   8.332   8.262 -0.1409  0.4037 -0.3521
 9156SOL    HW128046   0.876   8.252   8.220  0.5186 -0.5359  0.8783
 9156SOL    HW228047   0.984   8.358   8.211 -0.1122  0.0222 -0.5060
 9157SOL     OW28048   2.274   8.973   0.990  0.1910  0.5798  0.3233
 9157SOL    HW128049   2.324   9.014   1.060  0.1521  0.0761  0.6427
 9157SOL    HW228050   2.337   8.917   0.945 -0.3659 -1.0519  1.5157
 9158SOL     OW28051   6.486   3.525   4.399  0.3726  1.0890 -0.0378
 9158SOL    HW128052   6.447   3.531   4.487  2.3283  2.5090  0.8262
 9158SOL    HW228053   6.578   3.551   4.413  1.3847 -1.0914 -2.1007
 9159SOL     OW28054   0.599   9.170   0.880 -0.3594  0.0532 -0.4102
 9159SOL    HW128055   0.633   9.082   0.897 -0.1453  0.2195  0.0205
 9159SOL    HW228056   0.670   9.214   0.832  0.4529  0.7063  1.2959
 9160SOL     OW28057   9.163   1.835   5.612  0.5216  0.4640  0.0170
 9160SOL    HW128058   9.162   1.855   5.705  0.1844 -0.3820  0.2033
 9160SOL    HW228059   9.183   1.741   5.607 -0.2410  0.3210 -0.7153
 9161SOL     OW28060   0.162   7.156   8.968  0.9293  0.3588 -0.0356
 9161SOL    HW128061   0.159   7.250   8.951 -3.1304  0.6523  1.3708
 9161SOL    HW228062   0.170   7.148   9.063  2.3121 -0.7981 -0.2116
 9162SOL     OW28063   8.837   7.074   2.745  0.4459 -0.1966  0.7365
 9162SOL    HW128064   8.813   7.105   2.657 -1.3331 -3.4484 -0.0951
 9162SOL    HW228065   8.911   7.016   2.730  1.6435  1.0051  1.7790
 9163SOL     OW28066   9.944   1.681   7.355 -0.4849 -0.4709 -0.1833
 9163SOL    HW128067   9.998   1.614   7.312 -1.1719  0.1880 -2.1465
 9163SOL    HW228068   9.981   1.687   7.444  2.0628 -0.7171 -1.1371
 9164SOL     OW28069   8.670   0.698   7.073  0.6950  0.0108 -0.6048
 9164SOL    HW128070   8.649   0.605   7.067 -1.8427  0.5725 -2.2461
 9164SOL    HW228071   8.763   0.703   7.051  1.2659 -2.2202  0.9637
 9165SOL     OW28072   8.289   9.821   2.777  0.0952 -0.6802  0.2146
 9165SOL    HW128073   8.219   9.769   2.737 -1.0101  1.1035 -0.2694
 9165SOL    HW228074   8.259   9.911   2.771  2.3115  0.1268  0.3135
 9166SOL     OW28075   9.269   5.162   3.423 -0.0604 -0.1420 -0.9427
 9166SOL    HW128076   9.248   5.131   3.511  3.0514  1.6734  0.6158
 9166SOL    HW228077   9.186   5.195   3.389 -1.5337 -1.6745  0.9033
 9167SOL     OW28078   5.455   9.714   1.006  0.2002 -0.4176  0.1866
 9167SOL    HW128079   5.446   9.689   0.914  0.5060 -1.4300  0.4176
 9167SOL    HW228080   5.485   9.634   1.050 -1.0957 -0.2991  1.3689
 9168SOL     OW28081   0.459   2.455   1.893 -0.2435  0.4722  0.0303
 9168SOL    HW128082   0.377   2.505   1.888 -0.9951 -0.7120  0.2089
 9168SOL    HW228083   0.456   2.412   1.978  1.0651  1.2306  0.4853
 9169SOL     OW28084   5.068   0.866   5.118 -0.2132 -0.1587 -0.2944
 9169SOL    HW128085   5.019   0.835   5.042  0.7191  0.3694 -1.1228
 9169SOL    HW228086   5.142   0.914   5.082  1.3991 -1.6063  0.8882
 9170SOL     OW28087   5.365   3.105   0.563  0.3586  0.6932  0.1762
 9170SOL    HW128088   5.281   3.060   0.575  0.9299 -0.4180  0.1217
 9170SOL    HW228089   5.379   3.103   0.468  0.9398 -0.0837  0.2666
 9171SOL     OW28090   6.105   0.710   1.463  0.2283 -0.1790  0.0464
 9171SOL    HW128091   6.052   0.670   1.531  0.9557 -0.2690  0.5784
 9171SOL    HW228092   6.172   0.760   1.511  0.5762 -0.0126 -0.5976
 9172SOL     OW28093   8.888   6.563   9.456  0.4833  0.9841 -0.3674
 9172SOL    HW128094   8.822   6.613   9.407 -1.3108  0.0753  0.9673
 9172SOL    HW228095   8.867   6.581   9.548  1.7564  0.1782  0.1008
 9173SOL     OW28096   1.313   8.084   6.102  0.2407 -0.3103  0.4342
 9173SOL    HW128097   1.321   7.993   6.129  1.5195  0.1083  1.5669
 9173SOL    HW228098   1.381   8.130   6.151 -3.2782  2.1219  3.6036
 9174SOL     OW28099   5.110   3.904   6.466 -0.0276 -0.3022  0.6683
 9174SOL    HW128100   5.186   3.942   6.510  0.2214 -0.8083  0.6880
 9174SOL    HW228101   5.133   3.812   6.454 -1.0355 -0.7052  1.5978
 9175SOL     OW28102   0.036   1.920   4.524 -0.4712  0.2049  0.6578
 9175SOL    HW128103  -0.025   1.857   4.486 -0.6718  1.3190 -0.9896
 9175SOL    HW228104   0.043   1.989   4.458  1.9478  0.5217  1.1503
 9176SOL     OW28105   6.511   7.033   4.767  0.2953 -0.1686  0.2167
 9176SOL    HW128106   6.513   7.059   4.860  0.9598 -0.9589  0.4294
 9176SOL    HW228107   6.425   7.062   4.737 -0.9054 -1.9157  1.6973
 9177SOL     OW28108   7.892   7.193   9.936 -0.8012 -0.5121  0.0158
 9177SOL    HW128109   7.958   7.250   9.977  1.0793 -1.0208 -2.0874
 9177SOL    HW228110   7.895   7.112   9.987 -0.7455 -0.0702  0.7283
 9178SOL     OW28111   8.665   7.515   0.273 -0.1149 -0.1722 -1.3418
 9178SOL    HW128112   8.573   7.502   0.252 -0.1567 -1.1212 -0.6849
 9178SOL    HW228113   8.667   7.522   0.369  0.6410 -1.8963 -1.1855
 9179SOL     OW28114   2.293   5.862   6.024 -0.0329 -0.1276  0.0140
 9179SOL    HW128115   2.274   5.793   6.087 -0.7006 -1.2779 -1.3939
 9179SOL    HW228116   2.387   5.852   6.005  0.2767  0.4951  1.0759
 9180SOL     OW28117   1.164   6.542   0.248  0.0126  0.0861 -0.2040
 9180SOL    HW128118   1.105   6.511   0.317  0.2518  0.5533  0.2209
 9180SOL    HW228119   1.127   6.508   0.167 -0.4817 -0.1615  0.1218
 9181SOL     OW28120   0.473   1.885   3.233 -0.3604 -0.2823 -0.1635
 9181SOL    HW128121   0.459   1.979   3.223  0.4296 -0.1339  0.0204
 9181SOL    HW228122   0.538   1.878   3.303  0.0014 -0.9404 -0.5582
 9182SOL     OW28123   0.596   0.905   7.560  0.4211 -0.3315 -0.4869
 9182SOL    HW128124   0.555   0.949   7.634  0.2380 -0.9871 -0.1928
 9182SOL    HW228125   0.552   0.941   7.483  0.0699 -0.2244 -0.2367
 9183SOL     OW28126   3.551   1.289   9.592  0.5355  0.1928  0.1687
 9183SOL    HW128127   3.558   1.316   9.501  1.3989 -1.7974 -0.4190
 9183SOL    HW228128   3.459   1.301   9.614  0.4410  1.3049 -0.7450
 9184SOL     OW28129   8.461   8.268   9.202  0.2976  0.3250 -0.0864
 9184SOL    HW128130   8.417   8.241   9.283  0.1695  0.5208 -0.0903
 9184SOL    HW228131   8.510   8.346   9.226 -1.6017  1.7930 -0.7215
 9185SOL     OW28132   1.320   7.254   1.268  0.7214  0.0018  0.2324
 9185SOL    HW128133   1.237   7.256   1.221  1.4579  0.3624 -1.0916
 9185SOL    HW228134   1.308   7.314   1.341 -0.6828 -1.1081  0.9629
 9186SOL     OW28135   9.140   0.453   1.997  0.0853 -0.2240  0.0900
 9186SOL    HW128136   9.180   0.463   2.083  0.7258  2.1203 -0.4096
 9186SOL    HW228137   9.202   0.493   1.936  0.4931 -3.3371 -1.7929
 9187SOL     OW28138   7.091   2.095   3.193 -0.1819 -0.2418  0.0992
 9187SOL    HW128139   7.063   2.049   3.113 -1.1382 -0.7338  0.6836
 9187SOL    HW228140   7.115   2.024   3.254 -2.4316 -0.0988  1.2909
 9188SOL     OW28141   5.233   5.380   8.989 -0.0405 -0.3671 -0.2603
 9188SOL    HW128142   5.301   5.358   8.925 -1.1737 -1.0499 -1.2720
 9188SOL    HW228143   5.196   5.462   8.959  1.1902  0.7100  1.0384
 9189SOL     OW28144   3.462   1.171   3.528  0.5642  0.1944  0.3089
 9189SOL    HW128145   3.516   1.118   3.470  0.3736  0.9615 -0.6007
 9189SOL    HW228146   3.433   1.110   3.596  1.8241 -0.4354  0.3202
 9190SOL     OW28147   9.021   9.195   1.051 -0.3460 -0.5656  0.0319
 9190SOL    HW128148   9.031   9.101   1.064  0.5985 -0.4985 -0.1306
 9190SOL    HW228149   8.929   9.212   1.069 -0.5485 -1.5339 -0.0238
 9191SOL     OW28150   4.053   8.126   3.531 -0.4382  0.1430 -0.0699
 9191SOL    HW128151   4.121   8.193   3.540  0.5574 -0.9464  0.8616
 9191SOL    HW228152   4.060   8.097   3.440  0.4920 -0.0762  0.0603
 9192SOL     OW28153   4.075   9.626   2.220 -0.0401 -0.0512 -0.1196
 9192SOL    HW128154   4.017   9.590   2.153 -1.9035  0.9021  0.8896
 9192SOL    HW228155   4.060   9.572   2.298  1.9029 -0.9885 -0.3331
 9193SOL     OW28156   0.879   7.394   1.465 -0.1925  0.2777 -0.0335
 9193SOL    HW128157   0.820   7.323   1.489  1.0547 -0.3593  1.3491
 9193SOL    HW228158   0.925   7.415   1.547  2.3213 -0.0778 -1.2522
 9194SOL     OW28159   3.785   9.286   2.453 -0.2158  0.7564  0.1595
 9194SOL    HW128160   3.764   9.231   2.529  1.3651 -1.0436 -0.6261
 9194SOL    HW228161   3.717   9.354   2.453 -2.8195 -1.6539  0.7459
 9195SOL     OW28162   2.090   6.267   2.695  0.1793  0.6513 -0.6861
 9195SOL    HW128163   2.031   6.193   2.710  0.4123  0.8551  1.5508
 9195SOL    HW228164   2.065   6.301   2.610  0.4256 -2.3084 -2.0560
 9196SOL     OW28165   3.015   3.479   1.070 -0.3966  0.1586 -0.5365
 9196SOL    HW128166   3.023   3.559   1.120 -0.2677  0.1813 -0.5932
 9196SOL    HW228167   3.075   3.418   1.112 -0.6448  0.0278 -0.3688
 9197SOL     OW28168   4.246   5.804   8.107 -0.2469 -0.2083 -0.0233
 9197SOL    HW128169   4.227   5.876   8.166 -1.3464  0.7194 -1.4502
 9197SOL    HW228170   4.284   5.845   8.029  1.1542 -1.3974 -0.0272
 9198SOL     OW28171   7.333   4.167   0.315 -0.0241  0.0015  0.0482
 9198SOL    HW128172   7.346   4.186   0.222 -0.5158  1.0914  0.1904
 9198SOL    HW228173   7.264   4.101   0.317 -0.1354  0.1028 -0.3513
 9199SOL     OW28174   7.606   1.469   1.943 -0.0071  0.5571  0.1836
 9199SOL    HW128175   7.511   1.459   1.955  0.1299  1.0138  1.8595
 9199SOL    HW228176   7.645   1.408   2.006  0.7995  2.0745  1.1983
 9200SOL     OW28177   2.042   4.274   9.519  0.7082 -0.5930  0.1280
 9200SOL    HW128178   2.123   4.323   9.510  1.4201 -1.5089  1.2819
 9200SOL    HW228179   2.070   4.182   9.515 -0.2308 -0.9168  0.8481
 9201SOL     OW28180   9.057   5.664   6.094 -0.0575 -0.1220 -0.0182
 9201SOL    HW128181   9.015   5.745   6.120  1.1058 -0.0068  1.7002
 9201SOL    HW228182   8.991   5.618   6.042 -2.0242  0.3904  1.8605
 9202SOL     OW28183   4.254   0.480   8.927 -0.7438  0.1164  0.1738
 9202SOL    HW128184   4.273   0.500   8.835 -1.9240 -0.3112 -0.1749
 9202SOL    HW228185   4.208   0.558   8.959  0.0564  0.4508  0.5417
 9203SOL     OW28186   3.248   0.770   2.638  0.1759 -0.2869 -0.3624
 9203SOL    HW128187   3.306   0.741   2.709  0.8715  1.4729 -0.1698
 9203SOL    HW228188   3.279   0.722   2.561  1.6867  0.3611 -0.1828
 9204SOL     OW28189   1.659   6.996   2.221 -0.0283 -0.4353 -0.8371
 9204SOL    HW128190   1.748   6.994   2.255  0.0195  0.3160 -0.9129
 9204SOL    HW228191   1.670   7.004   2.126 -0.1701  0.4942 -0.7854
 9205SOL     OW28192   1.548   2.871   8.194  0.2452 -0.3059  0.2365
 9205SOL    HW128193   1.597   2.890   8.274 -1.2996  1.3038  0.8513
 9205SOL    HW228194   1.508   2.785   8.210  0.8344 -0.4972  0.7153
 9206SOL     OW28195   0.504   5.389   9.414 -0.0671  0.1362 -0.1396
 9206SOL    HW128196   0.528   5.303   9.449 -0.1826 -0.8367 -2.3021
 9206SOL    HW228197   0.411   5.381   9.393  0.4137 -0.1044 -2.5451
 9207SOL     OW28198   3.669   3.558   4.366 -0.4602  0.5690  0.6455
 9207SOL    HW128199   3.624   3.549   4.282  0.3174  0.8672  0.1848
 9207SOL    HW228200   3.639   3.642   4.401 -0.7781  0.4486  0.6652
 9208SOL     OW28201   6.831   9.784   3.864 -0.1917  0.6164  0.2926
 9208SOL    HW128202   6.865   9.873   3.860 -0.6144  0.7385 -1.5159
 9208SOL    HW228203   6.896   9.731   3.818 -0.3055  0.1226  0.6997
 9209SOL     OW28204   3.711   3.680   7.482  0.3780  0.3044 -0.3907
 9209SOL    HW128205   3.660   3.714   7.409 -1.3947  0.3023  0.7933
 9209SOL    HW228206   3.802   3.698   7.458 -0.2069  1.0785 -2.1847
 9210SOL     OW28207   8.776   3.743   4.290 -0.0344  0.3784 -0.6629
 9210SOL    HW128208   8.692   3.775   4.322  0.4396  1.5252 -0.5323
 9210SOL    HW228209   8.809   3.813   4.234  1.5493  0.6548  0.5339
 9211SOL     OW28210   0.951   7.123   6.107 -0.0455 -0.7626 -0.1151
 9211SOL    HW128211   0.934   7.216   6.123  0.8601 -0.6460  0.2325
 9211SOL    HW228212   0.926   7.079   6.188 -1.8680 -1.0268 -0.7789
 9212SOL     OW28213   5.860   1.951   1.438  0.0404 -0.8934 -0.1254
 9212SOL    HW128214   5.780   1.917   1.478 -0.1363 -0.2593  0.0764
 9212SOL    HW228215   5.830   2.023   1.382  0.4363 -0.8557 -0.2921
 9213SOL     OW28216   5.832   0.595   4.745  0.7842 -0.2103  0.3533
 9213SOL    HW128217   5.744   0.577   4.779  1.1806 -1.0982  0.9639
 9213SOL    HW228218   5.833   0.556   4.658 -0.4463  2.6240 -1.0610
 9214SOL     OW28219   5.620   3.798   9.350  0.2846 -0.0992 -0.5326
 9214SOL    HW128220   5.534   3.808   9.389 -0.2628 -2.9689 -0.7462
 9214SOL    HW228221   5.610   3.827   9.260 -0.2708  0.2169 -0.3692
 9215SOL     OW28222   6.406   6.873   3.084  0.5609 -0.2908  0.4047
 9215SOL    HW128223   6.444   6.785   3.090  0.7199 -0.2972 -0.6403
 9215SOL    HW228224   6.326   6.862   3.033  1.6119  0.4612 -1.4979
 9216SOL     OW28225   2.660   9.661   1.690  0.1912  0.6292 -0.0952
 9216SOL    HW128226   2.571   9.694   1.696 -0.8323 -2.0411  0.9117
 9216SOL    HW228227   2.667   9.625   1.602 -0.6949 -1.4567  0.6199
 9217SOL     OW28228   6.048   8.541   9.857 -0.0823 -0.0116  1.1443
 9217SOL    HW128229   5.998   8.469   9.896 -0.6915 -0.7305 -0.8559
 9217SOL    HW228230   6.135   8.504   9.842 -0.1900 -0.1065  0.7567
 9218SOL     OW28231   4.096   2.291   1.568 -0.0765  0.3597 -0.5491
 9218SOL    HW128232   4.025   2.232   1.544 -0.3169  0.4745 -0.1345
 9218SOL    HW228233   4.085   2.367   1.511 -1.8638  1.5352  1.2275
 9219SOL     OW28234   7.113   3.436   7.684  0.3622 -0.4049 -0.1084
 9219SOL    HW128235   7.041   3.468   7.740 -1.0498 -0.5771 -1.7389
 9219SOL    HW228236   7.171   3.390   7.744 -0.6030  0.2052  1.3638
 9220SOL     OW28237   2.989   8.292   5.830 -0.0105 -0.5768 -0.8742
 9220SOL    HW128238   2.976   8.210   5.877  0.7462 -0.5666 -0.6332
 9220SOL    HW228239   3.084   8.300   5.820  0.0410  0.9347  0.3359
 9221SOL     OW28240   0.401   4.086   9.633  0.5622  0.2737  0.6051
 9221SOL    HW128241   0.319   4.056   9.593 -0.7169  2.3173  1.4900
 9221SOL    HW228242   0.468   4.071   9.566 -0.6881 -0.5996 -0.5034
 9222SOL     OW28243   5.006   8.932   0.969 -0.2366  0.8929  0.3728
 9222SOL    HW128244   4.996   8.849   0.922 -0.1644  0.0892  1.6996
 9222SOL    HW228245   4.918   8.968   0.974 -0.0233  1.8515 -1.7976
 9223SOL     OW28246   3.472   9.060   6.088  0.0058 -0.1879  0.2446
 9223SOL    HW128247   3.423   9.128   6.042  0.7060  0.2106  0.0743
 9223SOL    HW228248   3.421   8.980   6.073 -1.9286  0.5944  2.1240
 9224SOL     OW28249   7.696   5.349   5.287  0.2098  0.2938  0.3951
 9224SOL    HW128250   7.678   5.282   5.221  1.9636  0.4618 -0.3043
 9224SOL    HW228251   7.672   5.431   5.245  1.1120  0.3794  0.0244
 9225SOL     OW28252   0.630   6.714   3.624 -0.4163 -0.2278 -0.1646
 9225SOL    HW128253   0.637   6.619   3.630  1.6726 -0.2393 -1.6615
 9225SOL    HW228254   0.550   6.729   3.574 -0.6381 -1.2184 -0.1244
 9226SOL     OW28255   0.104   4.006   5.018  0.4318 -0.2219 -0.3022
 9226SOL    HW128256   0.167   3.954   5.068  1.6215  1.8689  0.5273
 9226SOL    HW228257   0.041   4.036   5.083 -1.1265 -1.7865 -1.0254
 9227SOL     OW28258   1.788   2.774   9.633  0.4910  0.5668  0.2421
 9227SOL    HW128259   1.865   2.774   9.690  1.6241  0.6058 -1.2432
 9227SOL    HW228260   1.797   2.853   9.580 -0.5240  0.5119 -0.0478
 9228SOL     OW28261   9.975  -0.028   0.131  0.3416 -0.0835  0.5225
 9228SOL    HW128262  10.047   0.031   0.107 -0.0278  1.1744  2.2902
 9228SOL    HW228263   9.898   0.028   0.134 -0.4296 -1.1037  0.1593
 9229SOL     OW28264   0.076   5.344   9.865 -0.3249 -0.0772 -0.1937
 9229SOL    HW128265   0.011   5.280   9.835  0.5372 -0.5080 -1.1668
 9229SOL    HW228266   0.142   5.346   9.796  0.1287  1.1988  0.2518
 9230SOL     OW28267   7.874   1.910   9.910 -0.1496  0.6322  0.3081
 9230SOL    HW128268   7.933   1.842   9.943  0.2017  0.5685 -0.4271
 9230SOL    HW228269   7.904   1.926   9.820 -0.9217  0.9767  0.1019
 9231SOL     OW28270   9.093   4.506   4.821  0.4215  0.4287  0.0700
 9231SOL    HW128271   9.162   4.461   4.772  0.5695  0.9766 -0.2341
 9231SOL    HW228272   9.014   4.493   4.768  0.2558 -0.3207  0.4907
 9232SOL     OW28273   5.798   0.986   0.458 -0.0289 -0.7433  0.0307
 9232SOL    HW128274   5.777   1.077   0.440  0.9370 -0.7461 -1.2676
 9232SOL    HW228275   5.766   0.938   0.382 -0.0007 -1.4051  0.4271
 9233SOL     OW28276   3.093   6.457   8.048  0.3126  0.0403  0.1979
 9233SOL    HW128277   3.033   6.411   7.988 -0.7078  1.2689  0.2377
 9233SOL    HW228278   3.150   6.507   7.991  1.9205 -1.7466  0.1156
 9234SOL     OW28279   2.559   7.681   0.333 -0.3375  0.1289 -0.6564
 9234SOL    HW128280   2.560   7.661   0.427  0.0921  0.9249 -0.4808
 9234SOL    HW228281   2.466   7.687   0.312 -0.5327  3.0289  0.4595
 9235SOL     OW28282   1.477   5.111   2.339 -0.3206 -0.2725 -0.1171
 9235SOL    HW128283   1.470   5.100   2.244 -1.4606  1.9320 -0.3476
 9235SOL    HW228284   1.408   5.174   2.361  1.3256  0.9439  1.8516
 9236SOL     OW28285   4.039   1.535   7.328  0.4538 -0.8434  0.0770
 9236SOL    HW128286   4.134   1.529   7.340  0.6238 -1.7933 -1.3976
 9236SOL    HW228287   4.009   1.444   7.332 -0.7133 -0.4255  2.4336
 9237SOL     OW28288   5.131   2.367   3.647 -0.4685 -0.4196 -0.5102
 9237SOL    HW128289   5.217   2.330   3.669 -0.4783 -0.2384 -0.1745
 9237SOL    HW228290   5.147   2.462   3.640 -0.9551 -0.2093  1.0491
 9238SOL     OW28291   2.861   8.138   7.790 -0.5234  0.4608  0.2007
 9238SOL    HW128292   2.849   8.078   7.716  0.3938  0.2567  0.2050
 9238SOL    HW228293   2.790   8.201   7.781 -0.5207  0.3493 -0.7753
 9239SOL     OW28294   9.466   3.704   4.525  0.3974  0.4420 -0.0719
 9239SOL    HW128295   9.375   3.722   4.500 -0.2565 -2.2548  0.0062
 9239SOL    HW228296   9.518   3.746   4.458 -0.9658  1.2163 -0.6856
 9240SOL     OW28297   5.261   5.549   1.203  0.0303  0.2698  0.0855
 9240SOL    HW128298   5.301   5.635   1.216 -1.0028  0.8536 -0.4035
 9240SOL    HW228299   5.258   5.510   1.291  0.9847  0.5141  0.2296
 9241SOL     OW28300   8.578   4.338   9.779  0.2210  0.7010  0.1878
 9241SOL    HW128301   8.638   4.388   9.724 -0.5671  0.8145 -0.5718
 9241SOL    HW228302   8.502   4.395   9.790  0.4205  0.7554  1.5445
 9242SOL     OW28303   9.307   1.912   9.699 -0.0141 -0.1762 -0.0665
 9242SOL    HW128304   9.303   1.977   9.769  0.1046  0.6382 -0.8041
 9242SOL    HW228305   9.249   1.842   9.729 -0.1201  0.2478  0.7528
 9243SOL     OW28306   8.433   3.024   1.767  0.2581 -0.4028  0.2612
 9243SOL    HW128307   8.494   2.986   1.830 -0.9361 -0.5644  1.3474
 9243SOL    HW228308   8.355   2.969   1.773  0.2124 -0.6164 -1.5990
 9244SOL     OW28309   5.281   9.552   4.587 -0.0581  0.6704 -0.0154
 9244SOL    HW128310   5.228   9.605   4.528 -0.8200  0.5592  0.5639
 9244SOL    HW228311   5.264   9.587   4.674  0.8010  0.6150  0.1893
 9245SOL     OW28312   4.947   6.650   3.352 -0.6296 -0.0350  0.6483
 9245SOL    HW128313   4.862   6.670   3.391 -0.5061  2.9244 -0.3112
 9245SOL    HW228314   4.926   6.610   3.268 -1.0885  0.4407  0.5295
 9246SOL     OW28315   0.323   8.025   3.476 -0.1998  0.2771 -0.3085
 9246SOL    HW128316   0.245   7.974   3.493 -0.0128  0.4627  1.2866
 9246SOL    HW228317   0.291   8.107   3.438 -1.0435  1.2729  2.3348
 9247SOL     OW28318   7.986   3.082   9.165  0.1910  0.0310 -0.1081
 9247SOL    HW128319   7.986   3.023   9.240  0.4407 -1.6967 -1.3983
 9247SOL    HW228320   7.933   3.037   9.099 -0.2181  1.6038 -0.9009
 9248SOL     OW28321   2.013   7.441   4.352 -0.2858  0.3945  0.2592
 9248SOL    HW128322   2.055   7.491   4.282 -0.0797  1.7406  1.2917
 9248SOL    HW228323   2.040   7.351   4.337  2.9326  1.1470  0.7922
 9249SOL     OW28324   3.885   7.433   0.032 -0.7011  0.6408 -0.0118
 9249SOL    HW128325   3.832   7.386  -0.032 -0.9569  1.5085 -0.4608
 9249SOL    HW228326   3.845   7.412   0.117 -1.0581  0.3791 -0.2467
 9250SOL     OW28327   3.817   0.538   0.154 -0.1495  0.8931 -0.1849
 9250SOL    HW128328   3.790   0.629   0.144  0.3782  0.9152 -1.4702
 9250SOL    HW228329   3.882   0.540   0.224 -1.4745  1.2093  1.1011
 9251SOL     OW28330   8.467   0.355   1.522  0.3155 -0.7327 -0.7154
 9251SOL    HW128331   8.552   0.347   1.566 -0.7443 -1.2366  1.3949
 9251SOL    HW228332   8.447   0.267   1.493  0.9831 -0.4129 -2.2988
 9252SOL     OW28333   2.380   4.247   7.886 -0.1832  0.3107  0.5710
 9252SOL    HW128334   2.298   4.248   7.836  1.1954  2.3885 -1.9128
 9252SOL    HW228335   2.402   4.339   7.898  1.5343 -0.1867  1.6693
 9253SOL     OW28336   7.228   8.026   7.818 -0.0705 -0.1914  0.3492
 9253SOL    HW128337   7.268   8.099   7.770 -0.2594 -0.3677 -0.0817
 9253SOL    HW228338   7.295   8.000   7.882  1.5527 -2.0408 -1.9112
 9254SOL     OW28339   8.061   9.233   6.311 -0.0353 -0.5158 -0.1752
 9254SOL    HW128340   8.156   9.238   6.323 -0.1208 -1.3611  1.1766
 9254SOL    HW228341   8.050   9.180   6.233  0.6028  0.2118 -0.7727
 9255SOL     OW28342   3.881   1.168   4.355  0.4884  1.0313  0.0760
 9255SOL    HW128343   3.877   1.106   4.282  1.4515  0.3711  0.5690
 9255SOL    HW228344   3.794   1.207   4.357 -0.7550 -1.5297  0.8044
 9256SOL     OW28345   1.534   2.035   5.370 -0.1747  0.1090 -0.1837
 9256SOL    HW128346   1.477   1.985   5.429  0.8422  1.6755  2.3022
 9256SOL    HW228347   1.622   2.023   5.406  0.4814  1.2554 -1.3119
 9257SOL     OW28348   5.355   4.766   0.279  0.6873 -0.2420  0.2319
 9257SOL    HW128349   5.363   4.818   0.359 -0.6099 -0.5415  0.5782
 9257SOL    HW228350   5.383   4.678   0.304  2.7446  0.2116 -0.3182
 9258SOL     OW28351   6.447   4.532   1.751 -0.1331  0.0761  0.1078
 9258SOL    HW128352   6.422   4.440   1.745 -0.8541  0.3369 -1.3059
 9258SOL    HW228353   6.383   4.578   1.696  1.1673  1.2295 -0.4986
 9259SOL     OW28354   3.173   3.905   1.396  0.6808  0.4303  0.0627
 9259SOL    HW128355   3.133   3.992   1.393  1.6645  0.8939 -0.1357
 9259SOL    HW228356   3.238   3.906   1.326 -0.9261 -1.3187 -1.5913
 9260SOL     OW28357   7.435   6.081   2.915 -0.6230 -0.0745 -0.4061
 9260SOL    HW128358   7.389   6.163   2.899 -1.2679 -0.5383 -0.9816
 9260SOL    HW228359   7.510   6.083   2.856  0.3790  0.8815  0.8450
 9261SOL     OW28360   7.544   9.543   7.114  0.0513 -0.5929 -0.1068
 9261SOL    HW128361   7.500   9.470   7.159 -1.1310  0.2206  0.1118
 9261SOL    HW228362   7.518   9.620   7.164 -0.2175  0.1896 -1.4067
 9262SOL     OW28363   9.825   2.651   6.060 -0.1999 -0.4753 -0.2048
 9262SOL    HW128364   9.821   2.716   5.989 -0.2515  0.0419  0.2660
 9262SOL    HW228365   9.840   2.568   6.015 -0.5795 -0.2048 -0.8527
 9263SOL     OW28366   6.109   6.000   4.213 -0.0849  0.5078  0.0322
 9263SOL    HW128367   6.018   6.000   4.243 -0.2217  1.0996 -0.3664
 9263SOL    HW228368   6.158   5.962   4.286 -0.8001 -1.0791 -0.2575
 9264SOL     OW28369   7.877   3.778   5.470 -0.0381 -0.0692 -0.8794
 9264SOL    HW128370   7.936   3.740   5.534  0.1377  1.7242  0.0658
 9264SOL    HW228371   7.909   3.745   5.386 -0.0026 -2.0926 -0.1303
 9265SOL     OW28372   2.390   0.245   1.866  0.1786  0.1444  0.0731
 9265SOL    HW128373   2.401   0.307   1.938 -1.1262 -0.7412  1.0819
 9265SOL    HW228374   2.479   0.222   1.840  0.6683  1.4146  0.5719
 9266SOL     OW28375   7.829   4.440   4.077 -0.3169  0.2488  0.2229
 9266SOL    HW128376   7.805   4.407   3.991  0.4614 -1.2996  0.5703
 9266SOL    HW228377   7.873   4.523   4.059  1.6898 -1.0056 -1.0932
 9267SOL     OW28378   0.299   8.659   4.571  0.6694 -0.8254  0.1701
 9267SOL    HW128379   0.370   8.722   4.562  0.0528 -0.1367  0.0809
 9267SOL    HW228380   0.306   8.604   4.492  1.6311 -1.3192  0.5882
 9268SOL     OW28381   6.623   0.301   5.098  0.0065 -0.4512 -0.3193
 9268SOL    HW128382   6.543   0.262   5.061  0.1810 -1.1672  0.0260
 9268SOL    HW228383   6.693   0.274   5.038  0.1872 -1.0233  0.1376
 9269SOL     OW28384   5.900   7.334   5.850 -0.1257  0.6904 -0.1954
 9269SOL    HW128385   5.969   7.305   5.791  1.0342  0.8053  1.0469
 9269SOL    HW228386   5.905   7.274   5.924 -2.9356 -0.7965 -1.0583
 9270SOL     OW28387   4.373   4.991   6.474 -0.2903  0.3654  0.5073
 9270SOL    HW128388   4.347   5.075   6.437  0.8333  0.7420  0.5383
 9270SOL    HW228389   4.405   4.940   6.400  0.4064  0.5126  0.6963
 9271SOL     OW28390   1.528   1.417   3.913 -0.4459 -0.1231  0.0809
 9271SOL    HW128391   1.588   1.344   3.928 -0.0136  0.0929 -0.5368
 9271SOL    HW228392   1.507   1.411   3.819  0.2764  1.0493 -0.1665
 9272SOL     OW28393   1.656   2.447   8.793 -0.1619 -0.5216 -0.5780
 9272SOL    HW128394   1.725   2.509   8.769  0.6649 -1.0118  0.4784
 9272SOL    HW228395   1.590   2.458   8.725  0.2048  1.1372 -0.6945
 9273SOL     OW28396   4.197   3.881   3.224  0.1625  0.4895  0.2370
 9273SOL    HW128397   4.167   3.821   3.293  1.6246  2.6420  2.9692
 9273SOL    HW228398   4.117   3.919   3.189 -0.6053  0.9479  2.3527
 9274SOL     OW28399   0.666   7.946   3.764 -0.1256  0.0260 -0.3553
 9274SOL    HW128400   0.626   7.996   3.693 -3.6590 -0.5007  1.0735
 9274SOL    HW228401   0.690   7.862   3.724 -2.6327 -0.5051 -0.9226
 9275SOL     OW28402   9.244   6.157   4.623 -0.3834  0.5902  0.0789
 9275SOL    HW128403   9.330   6.157   4.583 -0.9342 -1.8681 -1.3151
 9275SOL    HW228404   9.184   6.137   4.551 -1.7642 -0.7813  1.5426
 9276SOL     OW28405   1.214   2.759   0.013  0.3431  0.3628 -0.6175
 9276SOL    HW128406   1.249   2.706   0.085  2.1732  0.0618 -1.6720
 9276SOL    HW228407   1.169   2.697  -0.043  1.3198  0.1017 -1.1450
 9277SOL     OW28408   3.988   5.586   4.183  0.2869  0.3474  0.1998
 9277SOL    HW128409   4.043   5.516   4.148 -0.4364 -0.6792  1.0534
 9277SOL    HW228410   4.050   5.647   4.223  0.8623 -0.6190  0.8434
 9278SOL     OW28411   6.265   8.126   4.637 -0.0122  0.0933 -0.5516
 9278SOL    HW128412   6.206   8.155   4.568 -1.0834  0.2085  0.3863
 9278SOL    HW228413   6.331   8.196   4.642  0.0504  0.1097 -1.4042
 9279SOL     OW28414   1.719   5.705   7.624 -0.1177 -0.0274 -1.2069
 9279SOL    HW128415   1.784   5.767   7.593  0.7822  0.3401  1.1759
 9279SOL    HW228416   1.635   5.739   7.592  0.4001  2.1597 -0.3967
 9280SOL     OW28417   1.830   8.107   7.696  0.2577 -0.1661  0.1255
 9280SOL    HW128418   1.915   8.064   7.708 -0.0421 -0.5526  0.9373
 9280SOL    HW228419   1.813   8.150   7.780 -1.1588 -1.5739  0.6122
 9281SOL     OW28420   7.821   9.093   2.584  0.1121  0.1923  0.7710
 9281SOL    HW128421   7.761   9.163   2.610  2.1484  2.1513  0.4715
 9281SOL    HW228422   7.820   9.032   2.658 -0.1022  1.6377  2.0151
 9282SOL     OW28423   6.612   7.416   0.419 -0.2696 -0.0048 -0.1177
 9282SOL    HW128424   6.631   7.483   0.353 -0.6961 -1.5512 -1.8896
 9282SOL    HW228425   6.632   7.333   0.376  1.5034 -1.0254  2.4568
 9283SOL     OW28426   7.051   8.959   5.420  0.3352  0.1213 -0.1636
 9283SOL    HW128427   7.064   8.901   5.494 -0.0540 -0.0883 -0.2557
 9283SOL    HW228428   6.959   8.985   5.425  0.3355  0.2019 -0.5011
 9284SOL     OW28429   3.195   1.204   6.263 -0.2727  0.2388 -0.4090
 9284SOL    HW128430   3.198   1.263   6.188  0.3994  0.5304 -0.1664
 9284SOL    HW228431   3.170   1.119   6.227  1.6345 -0.0159 -1.2411
 9285SOL     OW28432   3.475   7.499   2.405  0.3693  0.1096  0.2661
 9285SOL    HW128433   3.494   7.406   2.395 -0.1391  0.0464 -0.1085
 9285SOL    HW228434   3.383   7.502   2.432  0.3970  0.5025  0.3233
 9286SOL     OW28435   9.693   9.332   7.751 -0.0783  0.2973  0.0379
 9286SOL    HW128436   9.716   9.416   7.792 -0.7670  0.1639  0.7232
 9286SOL    HW228437   9.705   9.268   7.821  1.0458 -0.2861 -0.6532
 9287SOL     OW28438   8.885   4.656   6.575 -0.0097 -0.3193  0.5917
 9287SOL    HW128439   8.980   4.652   6.586  0.1806 -0.3387 -0.9276
 9287SOL    HW228440   8.870   4.641   6.482 -1.4161  1.1227  0.5325
 9288SOL     OW28441   8.231   7.270   1.737  0.1488 -0.0542 -0.1449
 9288SOL    HW128442   8.227   7.249   1.830 -0.3463  0.4259 -0.0498
 9288SOL    HW228443   8.188   7.355   1.730  1.4357  0.5893 -0.6106
 9289SOL     OW28444   7.244   3.361   5.552  0.3462  0.1494  0.0165
 9289SOL    HW128445   7.256   3.369   5.647  1.3691 -1.0913  0.0201
 9289SOL    HW228446   7.332   3.363   5.516  0.1476 -1.6477 -0.6843
 9290SOL     OW28447   7.705   4.371   5.492 -0.2588  0.3046  0.1134
 9290SOL    HW128448   7.727   4.389   5.400 -0.1200  0.1436  0.1150
 9290SOL    HW228449   7.638   4.436   5.514 -1.9887 -1.1055 -0.7772
 9291SOL     OW28450   2.767   4.502   4.197 -0.3190  0.1340  0.9289
 9291SOL    HW128451   2.860   4.505   4.175  0.1620  0.0580  2.7788
 9291SOL    HW228452   2.725   4.554   4.129  1.0403  0.0729 -0.0214
 9292SOL     OW28453   2.022   3.301   8.034  0.2749 -0.0626 -0.2265
 9292SOL    HW128454   1.995   3.387   8.066  1.6216  0.8085 -1.3231
 9292SOL    HW228455   1.983   3.294   7.947 -0.5897 -0.9785  0.2154
 9293SOL     OW28456   7.230   3.982   1.061 -0.2477 -0.6102 -0.3127
 9293SOL    HW128457   7.261   3.924   0.992  0.8508 -1.5160  0.8843
 9293SOL    HW228458   7.161   4.034   1.020  0.5279 -0.9465 -2.1344
 9294SOL     OW28459   5.756   6.119   4.818 -0.4131  0.0354 -0.1103
 9294SOL    HW128460   5.733   6.088   4.731 -1.8545  0.5735  0.0474
 9294SOL    HW228461   5.773   6.039   4.868  1.4167 -0.2439 -1.1056
 9295SOL     OW28462   2.847   3.819   7.605  0.0331  0.0037 -0.2347
 9295SOL    HW128463   2.768   3.872   7.596  0.5675  0.9832  0.5671
 9295SOL    HW228464   2.815   3.730   7.620 -0.8895  0.1729 -1.0681
 9296SOL     OW28465   8.433   8.601   3.656 -0.4125  0.2350 -0.4876
 9296SOL    HW128466   8.484   8.534   3.610 -0.0937 -0.4361  0.7876
 9296SOL    HW228467   8.343   8.570   3.652 -0.1566 -0.8205  0.9110
 9297SOL     OW28468   6.573   2.040   5.140 -0.5027 -0.2803 -0.1310
 9297SOL    HW128469   6.537   2.025   5.228 -0.1619 -0.7033 -0.0630
 9297SOL    HW228470   6.626   2.119   5.150  0.5912 -1.0518  0.3618
 9298SOL     OW28471   6.080   9.906   4.556 -0.1673  0.1568  0.1809
 9298SOL    HW128472   6.114   9.840   4.495 -1.2655  0.9026 -1.2892
 9298SOL    HW228473   6.100   9.870   4.643 -1.2442 -2.4029 -0.5301
 9299SOL     OW28474   0.514   4.434   6.193  0.4247  0.6082  0.1788
 9299SOL    HW128475   0.493   4.502   6.256  1.0823  1.5980 -0.6330
 9299SOL    HW228476   0.507   4.352   6.243 -1.5779  1.1371  0.8616
 9300SOL     OW28477   6.693   4.502   2.697  0.1689  0.8897 -0.4193
 9300SOL    HW128478   6.633   4.438   2.661  0.7497  1.3554 -2.3181
 9300SOL    HW228479   6.638   4.575   2.723 -0.4389 -0.1187  1.2960
 9301SOL     OW28480   7.362   7.960   3.960 -0.2464 -0.0774 -0.3768
 9301SOL    HW128481   7.393   7.984   4.047  0.4949  0.8257 -0.8772
 9301SOL    HW228482   7.384   7.868   3.951  2.1820  0.4789 -0.6497
 9302SOL     OW28483   0.242   0.887   1.752 -0.1999  0.2820  0.1333
 9302SOL    HW128484   0.180   0.822   1.782 -1.2358  0.7701 -0.9032
 9302SOL    HW228485   0.262   0.939   1.830 -1.1194  0.1351  0.4756
 9303SOL     OW28486   3.773   2.159   8.000 -0.8211 -0.1854 -0.4553
 9303SOL    HW128487   3.777   2.252   8.020 -0.1592 -0.1137 -0.9097
 9303SOL    HW228488   3.798   2.115   8.082 -1.3486  0.0191 -0.1766
 9304SOL     OW28489   6.257   1.335   2.778 -0.1096 -0.9558 -0.5677
 9304SOL    HW128490   6.209   1.271   2.831  1.5061 -0.8149  1.1545
 9304SOL    HW228491   6.256   1.415   2.831  1.2099 -0.6910 -0.9261
 9305SOL     OW28492   7.071   6.926   3.454  0.9576  0.0917 -0.2052
 9305SOL    HW128493   7.045   6.917   3.363  0.1208 -1.2788  0.1443
 9305SOL    HW228494   6.991   6.912   3.504  1.2628  1.4616  0.7541
 9306SOL     OW28495   9.333   7.792   2.473 -0.0424 -0.6575 -0.2062
 9306SOL    HW128496   9.266   7.854   2.443 -0.1131 -0.2479  0.7706
 9306SOL    HW228497   9.285   7.710   2.487 -0.9220  0.2601  2.9078
 9307SOL     OW28498   1.628   4.970   9.188  0.4411 -0.1087  0.0299
 9307SOL    HW128499   1.539   4.997   9.167  0.6254  0.2614 -0.2883
 9307SOL    HW228500   1.683   5.018   9.126  1.1144  1.8683  2.0165
 9308SOL     OW28501   7.079   3.771   5.536 -0.7562 -0.2644  0.4157
 9308SOL    HW128502   7.063   3.852   5.584 -0.0909  1.2491 -1.7584
 9308SOL    HW228503   7.029   3.705   5.584 -0.0911  1.0744  3.1569
 9309SOL     OW28504   0.007   7.861   7.048  0.6026 -0.5648  0.2344
 9309SOL    HW128505  -0.059   7.794   7.068  1.4576 -1.6482 -0.5119
 9309SOL    HW228506   0.084   7.835   7.099  0.7951  0.1191  0.2970
 9310SOL     OW28507   1.604   5.541   7.265  0.5121  0.4592  0.2796
 9310SOL    HW128508   1.638   5.456   7.235  2.0284  1.0249  0.3110
 9310SOL    HW228509   1.556   5.575   7.190 -1.2718 -0.9831  0.6869
 9311SOL     OW28510   9.087   8.015   0.564 -0.3606 -0.2883 -0.1917
 9311SOL    HW128511   9.079   7.920   0.552 -1.7560 -0.0133 -2.0208
 9311SOL    HW228512   9.180   8.030   0.575 -0.1047 -1.8729  0.0654
 9312SOL     OW28513   4.109   7.796   8.044 -0.3035  0.6429 -0.6447
 9312SOL    HW128514   4.149   7.866   8.095  0.7039  0.3245 -0.9734
 9312SOL    HW228515   4.055   7.841   7.980  1.2668  1.1922 -1.6308
 9313SOL     OW28516   0.766   7.720   3.640 -0.0947 -0.0967 -0.0257
 9313SOL    HW128517   0.861   7.733   3.638 -0.1232  0.0780 -0.3063
 9313SOL    HW228518   0.754   7.637   3.686  0.0753  1.0167  2.1412
 9314SOL     OW28519   8.925   9.474   5.851 -0.4856  0.1107 -0.0152
 9314SOL    HW128520   8.993   9.495   5.915  0.6918 -3.0750 -0.0492
 9314SOL    HW228521   8.876   9.402   5.891 -0.8678 -0.7400 -1.9144
 9315SOL     OW28522   6.117   0.224   0.468 -0.3668 -0.6368  0.4856
 9315SOL    HW128523   6.051   0.249   0.534  0.1129  0.8925  0.4183
 9315SOL    HW228524   6.073   0.237   0.384  0.2864  1.3177  0.4090
 9316SOL     OW28525   9.112   5.829   9.616 -0.3402 -0.9874  0.2595
 9316SOL    HW128526   9.036   5.773   9.608 -1.9967  1.3794 -3.6332
 9316SOL    HW228527   9.085   5.898   9.676 -0.7289 -0.9425  0.0346
 9317SOL     OW28528   7.505   2.430   4.450  0.0409 -0.3253 -0.1604
 9317SOL    HW128529   7.529   2.486   4.525  0.6485  0.1332 -0.6871
 9317SOL    HW228530   7.471   2.350   4.490 -0.5263  0.2889  0.6085
 9318SOL     OW28531   6.161   5.746   1.711 -0.0735  0.1196 -0.2751
 9318SOL    HW128532   6.093   5.802   1.674 -0.2272  0.4346  0.4619
 9318SOL    HW228533   6.157   5.665   1.659  0.1398  0.7691 -1.3346
 9319SOL     OW28534   8.620   5.301   2.728  0.0720  0.2007  0.4086
 9319SOL    HW128535   8.669   5.382   2.740  0.9573 -0.5336  1.9303
 9319SOL    HW228536   8.642   5.247   2.804 -0.6942 -1.3782 -0.4377
 9320SOL     OW28537   5.673   7.910   9.377  0.3504  0.1187 -0.0960
 9320SOL    HW128538   5.760   7.872   9.385  0.6530  1.0449  1.4861
 9320SOL    HW228539   5.642   7.916   9.468 -1.4450 -0.3653 -0.6349
 9321SOL     OW28540   0.839   6.689   1.409 -0.2037 -0.3950  0.0410
 9321SOL    HW128541   0.779   6.622   1.376 -1.5219  0.1756  1.2233
 9321SOL    HW228542   0.911   6.640   1.448 -0.1666 -1.0877 -0.8681
 9322SOL     OW28543   1.424   3.491   4.406 -0.1067  0.0934  0.0718
 9322SOL    HW128544   1.354   3.455   4.460 -0.2139 -1.2586 -0.9125
 9322SOL    HW228545   1.379   3.524   4.328  0.1104  1.4445  0.5006
 9323SOL     OW28546   6.392   0.408   0.227 -0.3023 -0.1115 -0.3145
 9323SOL    HW128547   6.372   0.472   0.295 -0.8783 -0.0571 -0.5251
 9323SOL    HW228548   6.407   0.326   0.273  0.2442  0.1331 -0.0567
 9324SOL     OW28549   0.426   9.146   5.672 -0.0381 -0.5533 -0.4860
 9324SOL    HW128550   0.514   9.164   5.706  0.7685 -2.4318 -1.4180
 9324SOL    HW228551   0.409   9.218   5.611  0.6663  0.0680  0.0244
 9325SOL     OW28552   1.071   5.953   0.603  0.3240  0.8257 -0.1168
 9325SOL    HW128553   1.018   5.893   0.656  0.9228  0.8100  0.4754
 9325SOL    HW228554   1.107   5.899   0.533 -0.6139  0.8817 -0.6623
 9326SOL     OW28555   8.379   4.223   6.613 -0.1298 -0.0851  0.0309
 9326SOL    HW128556   8.307   4.213   6.551 -2.5785 -0.3682  2.6907
 9326SOL    HW228557   8.372   4.313   6.645 -0.1759 -0.5014  1.2703
 9327SOL     OW28558   7.959   4.088   4.382 -0.1469 -0.0758  0.0383
 9327SOL    HW128559   7.911   4.100   4.464 -1.0888  0.3984 -0.5605
 9327SOL    HW228560   7.957   4.174   4.340  0.7768 -0.1853 -0.2460
 9328SOL     OW28561   1.790   2.957   5.158 -0.3223 -0.7767 -0.0122
 9328SOL    HW128562   1.775   2.892   5.088 -1.7857  1.2122 -1.6707
 9328SOL    HW228563   1.850   3.020   5.119 -0.4982 -0.0629  0.8466
 9329SOL     OW28564   5.271   7.177   4.750 -0.9840  0.4216  0.2945
 9329SOL    HW128565   5.301   7.097   4.705 -1.0149  0.4358  0.2484
 9329SOL    HW228566   5.208   7.146   4.814 -1.0664  0.4188  0.2120
 9330SOL     OW28567   7.092   7.479   8.070  0.0684  0.4582  0.0218
 9330SOL    HW128568   7.087   7.560   8.120 -0.3996  0.1273  0.5234
 9330SOL    HW228569   7.145   7.421   8.124  2.5611  1.2051 -1.4460
 9331SOL     OW28570   4.488   5.427   7.811  0.1483 -0.5950 -0.1809
 9331SOL    HW128571   4.507   5.514   7.774  1.0160 -0.3283  0.8419
 9331SOL    HW228572   4.447   5.380   7.739 -0.3744  0.6730 -0.7532
 9332SOL     OW28573   6.340   3.556   7.425 -0.3494 -0.2601  0.1167
 9332SOL    HW128574   6.262   3.513   7.392 -1.8172  0.9584  1.7808
 9332SOL    HW228575   6.377   3.493   7.488 -0.7715 -0.3199  0.3102
 9333SOL     OW28576   3.726   9.682   6.432 -0.1977 -0.1288  0.5336
 9333SOL    HW128577   3.792   9.750   6.448 -0.7746 -0.0212  2.7496
 9333SOL    HW228578   3.642   9.728   6.442 -0.6325 -0.6083 -0.6982
 9334SOL     OW28579   7.909   0.832   5.334  0.1712 -0.1271  0.6295
 9334SOL    HW128580   7.861   0.847   5.415  0.9386  1.9260  0.7681
 9334SOL    HW228581   7.843   0.843   5.265 -0.0347  0.3524  0.8988
 9335SOL     OW28582   9.546   3.370   3.571  0.2502  0.3200  0.5574
 9335SOL    HW128583   9.497   3.424   3.634 -0.9627 -0.5088  0.3593
 9335SOL    HW228584   9.598   3.433   3.521 -0.1874  1.1807  1.1501
 9336SOL     OW28585   1.848   1.797   2.247 -0.1484  0.3744 -0.5347
 9336SOL    HW128586   1.913   1.814   2.178 -0.1852  2.6978 -0.0741
 9336SOL    HW228587   1.808   1.882   2.263 -0.6785 -0.2608  1.8455
 9337SOL     OW28588   6.185   7.324   8.538 -0.1809 -0.1335  0.2686
 9337SOL    HW128589   6.212   7.413   8.561  0.2549 -0.6621  1.9474
 9337SOL    HW228590   6.090   7.329   8.527 -0.3461  0.2694  1.7664
 9338SOL     OW28591   1.429   2.064   1.335 -0.1184 -0.3793  0.1268
 9338SOL    HW128592   1.370   2.074   1.410 -0.8100  0.8758 -0.5429
 9338SOL    HW228593   1.505   2.118   1.357 -1.5829  2.4956 -1.2383
 9339SOL     OW28594   0.595   7.064   1.843  0.2380  0.1528 -0.0576
 9339SOL    HW128595   0.528   7.091   1.780 -0.4118 -0.2946  0.4294
 9339SOL    HW228596   0.565   6.979   1.874  0.2100  0.6422  1.3279
 9340SOL     OW28597   4.400   1.955   5.707 -0.2870 -0.1829  0.3476
 9340SOL    HW128598   4.317   2.001   5.717  0.5797  1.3640  0.7279
 9340SOL    HW228599   4.457   1.992   5.775  0.7793 -1.0506 -0.0360
 9341SOL     OW28600   2.555   8.935   4.965 -0.3970  0.1760 -0.0155
 9341SOL    HW128601   2.588   8.942   4.875 -1.2935  0.3395 -0.3461
 9341SOL    HW228602   2.569   9.022   5.002 -2.2616  0.8777 -0.8200
 9342SOL     OW28603   0.420   1.423   4.747 -0.4026 -0.5114 -0.5073
 9342SOL    HW128604   0.408   1.439   4.653  1.8312  1.4118 -0.5670
 9342SOL    HW228605   0.404   1.330   4.758 -1.6473 -0.6018 -2.6116
 9343SOL     OW28606   8.095   1.279   5.900  0.1281 -0.2365 -0.1835
 9343SOL    HW128607   8.037   1.309   5.830  0.9370 -0.7514 -1.1022
 9343SOL    HW228608   8.167   1.342   5.900  0.9412 -1.1414 -0.9268
 9344SOL     OW28609   4.671   2.834   5.633  0.1115 -0.3885  0.6999
 9344SOL    HW128610   4.666   2.743   5.662  3.3220 -1.2535 -0.9125
 9344SOL    HW228611   4.765   2.854   5.634 -0.4735  2.9624  1.0117
 9345SOL     OW28612   5.473   8.365   7.877 -0.3098 -0.6784  0.1901
 9345SOL    HW128613   5.420   8.397   7.950  0.7793  2.9794 -0.4067
 9345SOL    HW228614   5.457   8.427   7.806  1.6092 -1.8535 -1.4039
 9346SOL     OW28615   9.613   1.305   6.584  0.4433 -0.2383  0.7805
 9346SOL    HW128616   9.629   1.363   6.509 -1.0231  2.1778  2.1659
 9346SOL    HW228617   9.595   1.220   6.545 -1.5446  1.1746 -1.7865
 9347SOL     OW28618   7.534   8.700   8.614 -0.4995  0.1925 -0.3941
 9347SOL    HW128619   7.543   8.611   8.649 -0.8932 -1.0621 -3.2156
 9347SOL    HW228620   7.450   8.700   8.569 -0.0840  1.7068 -1.2396
 9348SOL     OW28621   0.249   4.095   9.279  0.2778 -0.4934 -0.4340
 9348SOL    HW128622   0.265   4.005   9.250  0.6143 -1.2123  1.7949
 9348SOL    HW228623   0.329   4.142   9.257  0.5233 -1.0047 -0.6640
 9349SOL     OW28624   3.545   6.493   3.630 -0.0460  0.5655  0.1681
 9349SOL    HW128625   3.511   6.567   3.680 -2.3167 -0.4186  0.1919
 9349SOL    HW228626   3.526   6.416   3.683 -0.2942 -0.2797 -1.0945
 9350SOL     OW28627   3.593   5.566   3.555 -0.0802 -0.4028 -0.2368
 9350SOL    HW128628   3.614   5.642   3.609  0.2678  0.6125 -1.7344
 9350SOL    HW228629   3.677   5.537   3.519 -0.4916  0.0985 -1.6807
 9351SOL     OW28630   2.939   7.111   3.059  0.6775  0.2511  0.1905
 9351SOL    HW128631   2.855   7.073   3.036  1.2136 -2.3603  2.0256
 9351SOL    HW228632   2.939   7.114   3.155  2.4434  0.7530  0.2204
 9352SOL     OW28633   6.322   5.281   8.950 -0.6336  0.4092 -0.1538
 9352SOL    HW128634   6.318   5.375   8.929 -1.6617  0.0851 -1.6579
 9352SOL    HW228635   6.260   5.241   8.889 -0.7338 -1.1837  0.9300
 9353SOL     OW28636   8.164   6.223   7.443  0.3579 -0.8199  0.3570
 9353SOL    HW128637   8.198   6.312   7.447 -0.3266 -0.4824 -0.8295
 9353SOL    HW228638   8.208   6.182   7.369 -0.1246 -1.1115  0.2218
 9354SOL     OW28639   7.004   9.109   2.376 -0.1646 -0.1070 -0.3263
 9354SOL    HW128640   7.089   9.101   2.418  0.1452  0.9332 -0.7280
 9354SOL    HW228641   7.019   9.078   2.286 -0.2382 -0.0297 -0.3655
 9355SOL     OW28642   2.473   1.066   7.646 -0.0031  0.1396 -0.3191
 9355SOL    HW128643   2.407   1.072   7.577  1.2669 -2.1334 -1.8759
 9355SOL    HW228644   2.428   1.029   7.721 -0.9976  0.9307 -0.5028
 9356SOL     OW28645   0.935   6.568   6.289  0.2847  0.1135 -0.0365
 9356SOL    HW128646   0.882   6.567   6.370 -0.4478 -0.1122 -0.5067
 9356SOL    HW228647   0.956   6.476   6.274 -1.1874 -0.0893 -1.1111
 9357SOL     OW28648   7.886   2.898   0.901  0.2357 -0.3153 -0.1282
 9357SOL    HW128649   7.944   2.842   0.849 -0.5043  0.1670 -1.5018
 9357SOL    HW228650   7.922   2.892   0.990  2.2609 -0.2060 -0.8787
 9358SOL     OW28651   3.492   5.956   8.929  0.3838 -0.2378  0.1276
 9358SOL    HW128652   3.527   5.928   8.845  0.6454 -3.2346  1.1414
 9358SOL    HW228653   3.566   5.951   8.989  0.1046  1.4586  0.6797
 9359SOL     OW28654   2.183   7.854   7.004  0.8989  0.5148 -0.2603
 9359SOL    HW128655   2.155   7.885   7.090  0.7897  2.0912 -0.8311
 9359SOL    HW228656   2.261   7.906   6.984  0.0397  1.2979 -1.7619
 9360SOL     OW28657   3.954   8.634   2.451  0.3668 -0.3822  0.0477
 9360SOL    HW128658   3.952   8.547   2.491 -0.8932 -0.3304  0.1186
 9360SOL    HW228659   3.924   8.620   2.361  0.5835 -0.0748 -0.0748
 9361SOL     OW28660   1.731   5.548   9.009 -0.0005  0.4132 -0.1796
 9361SOL    HW128661   1.752   5.517   9.097 -0.9359  1.5528  0.4760
 9361SOL    HW228662   1.677   5.626   9.023 -0.1448  0.6357 -1.7662
 9362SOL     OW28663   7.199   5.284   1.479 -0.2336 -0.1303 -0.2776
 9362SOL    HW128664   7.264   5.339   1.522  0.1899 -0.8401  0.0115
 9362SOL    HW228665   7.217   5.294   1.385  0.0785 -0.0737 -0.2100
 9363SOL     OW28666   2.593   2.316   5.654 -0.8688 -0.1945 -0.3120
 9363SOL    HW128667   2.548   2.268   5.584 -1.6599 -0.6196  0.4729
 9363SOL    HW228668   2.675   2.268   5.668 -0.5433  0.0890 -1.1623
 9364SOL     OW28669   7.743   0.701   9.939  0.7112 -0.1737  0.5693
 9364SOL    HW128670   7.657   0.659   9.932  1.1788 -0.8847 -1.8770
 9364SOL    HW228671   7.724   0.791   9.965 -0.7003 -0.5369  0.8767
 9365SOL     OW28672   0.616   7.096   9.315 -0.9714  0.6882  0.3855
 9365SOL    HW128673   0.699   7.137   9.289 -0.8359 -0.6607 -1.5192
 9365SOL    HW228674   0.550   7.162   9.296 -0.6252  0.5900 -1.2865
 9366SOL     OW28675   0.149   9.409   0.141 -0.3040  0.2568 -0.7356
 9366SOL    HW128676   0.066   9.405   0.093  0.1655 -0.2612 -1.5457
 9366SOL    HW228677   0.199   9.477   0.097 -1.0153  1.9607  0.9902
 9367SOL     OW28678   3.623   9.396   6.145  0.0648  0.6345  0.4785
 9367SOL    HW128679   3.604   9.317   6.095 -1.4772  2.8906 -2.8516
 9367SOL    HW228680   3.718   9.392   6.161 -0.1311 -2.3230  1.5100
 9368SOL     OW28681   5.610   2.920   2.464  0.0301 -0.1830  0.7633
 9368SOL    HW128682   5.668   2.988   2.498  0.1167 -1.2904  3.0226
 9368SOL    HW228683   5.522   2.954   2.480  0.0635 -0.8045  2.5133
 9369SOL     OW28684   0.126   0.892   9.387  0.0561  0.6546 -0.0434
 9369SOL    HW128685   0.093   0.978   9.363  1.3831  1.4366  0.7899
 9369SOL    HW228686   0.075   0.868   9.465  0.3063  1.1176  0.2699
 9370SOL     OW28687   7.636   8.801   3.240 -0.3910  0.2892 -0.0656
 9370SOL    HW128688   7.654   8.709   3.256 -1.5253  0.0712  0.0979
 9370SOL    HW228689   7.674   8.847   3.315 -1.2911 -0.2291  0.7306
 9371SOL     OW28690   4.303   0.657   2.732 -1.0496  0.3726  0.3010
 9371SOL    HW128691   4.294   0.603   2.653  1.2933  0.5694 -0.1947
 9371SOL    HW228692   4.262   0.605   2.801 -1.6687 -0.5790 -0.7325
 9372SOL     OW28693   4.757   0.632   2.045  0.3054  0.5501  0.2217
 9372SOL    HW128694   4.762   0.593   2.132 -0.4313 -0.6624 -0.2515
 9372SOL    HW228695   4.681   0.589   2.004  0.2461  1.5713 -0.7821
 9373SOL     OW28696   4.743   5.806   4.595  0.0351  0.4814 -0.2308
 9373SOL    HW128697   4.650   5.792   4.578  0.2026 -0.9714 -0.0551
 9373SOL    HW228698   4.753   5.902   4.595 -1.2633  0.6417 -1.2208
 9374SOL     OW28699   3.836   2.718   0.141  0.0798 -0.4402  0.1557
 9374SOL    HW128700   3.813   2.672   0.061  1.1818  1.0546 -1.1064
 9374SOL    HW228701   3.833   2.811   0.117  1.2546  0.0236  1.5929
 9375SOL     OW28702   1.528   0.462   6.441  0.1381 -0.6575  0.1714
 9375SOL    HW128703   1.444   0.418   6.455  0.3501 -2.5743 -3.4400
 9375SOL    HW228704   1.509   0.529   6.375  1.0086  0.6561  1.2093
 9376SOL     OW28705   0.595   7.034   0.644 -0.0345 -0.0033 -0.1820
 9376SOL    HW128706   0.646   7.114   0.626 -1.1459  0.8279  0.2326
 9376SOL    HW228707   0.560   7.047   0.732 -1.2095 -0.3946 -0.5696
 9377SOL     OW28708   2.697   2.797   3.475  0.0614 -0.2311  0.4871
 9377SOL    HW128709   2.613   2.825   3.511 -0.8096 -0.4574 -1.2668
 9377SOL    HW228710   2.700   2.703   3.491  0.0626 -0.1869  0.7384
 9378SOL     OW28711   7.291   2.665   7.961 -0.2737  0.8526 -0.1601
 9378SOL    HW128712   7.242   2.713   8.029 -0.8309  1.5570 -1.0217
 9378SOL    HW228713   7.347   2.732   7.921 -0.2963  0.5513 -0.6984
 9379SOL     OW28714   7.661   7.134   0.182 -0.3346  0.0150  0.2503
 9379SOL    HW128715   7.713   7.123   0.261  0.2239  0.2379 -0.0759
 9379SOL    HW228716   7.631   7.046   0.160 -1.6332  0.1296  1.4509
 9380SOL     OW28717   2.149   9.520   9.650  0.1402  0.3175  0.1326
 9380SOL    HW128718   2.054   9.520   9.663  0.0096  0.8586 -0.7321
 9380SOL    HW228719   2.173   9.428   9.642 -0.4263  0.2130 -0.4174
 9381SOL     OW28720   5.325   1.222   4.297 -0.4699 -0.6323  0.3119
 9381SOL    HW128721   5.362   1.305   4.328 -0.5968 -0.6504  0.5104
 9381SOL    HW228722   5.243   1.213   4.345  0.8799 -2.3199  2.5129
 9382SOL     OW28723   8.991   0.897   1.907 -0.4349  0.4850 -0.7641
 9382SOL    HW128724   9.056   0.856   1.965 -0.6599  0.2461 -0.6786
 9382SOL    HW228725   9.030   0.981   1.883  0.3984 -0.1193 -1.6049
 9383SOL     OW28726   1.873   2.585   3.731 -0.5921 -0.4917  0.3782
 9383SOL    HW128727   1.907   2.633   3.806 -0.6995 -0.8912  0.6838
 9383SOL    HW228728   1.863   2.652   3.662 -0.8954 -0.0521  0.8435
 9384SOL     OW28729   8.222   5.649   0.906 -0.4804  0.4065  0.6665
 9384SOL    HW128730   8.155   5.693   0.854 -3.9088 -1.2672  3.2869
 9384SOL    HW228731   8.226   5.560   0.871  0.9800  0.6662  0.0936
 9385SOL     OW28732   2.593   2.257   2.753  0.1179  0.1146 -0.2499
 9385SOL    HW128733   2.631   2.331   2.705 -1.7321  0.0856 -1.9022
 9385SOL    HW228734   2.583   2.289   2.843  1.1388  1.1770 -0.4868
 9386SOL     OW28735   7.051   0.742   1.749 -0.0095  0.4449 -0.5213
 9386SOL    HW128736   7.143   0.719   1.734 -0.3448  0.2927 -2.6294
 9386SOL    HW228737   7.002   0.693   1.683 -1.8020 -0.5217  1.3752
 9387SOL     OW28738   1.711   4.794   3.994 -0.5854 -0.1084  0.6253
 9387SOL    HW128739   1.774   4.862   3.970 -0.4399 -0.0243  1.2267
 9387SOL    HW228740   1.761   4.713   3.994 -0.7317 -0.1996  0.0245
 9388SOL     OW28741   4.371   5.465   1.404 -0.0790 -0.2860 -0.3775
 9388SOL    HW128742   4.429   5.519   1.350  0.8338 -0.0610  0.8080
 9388SOL    HW228743   4.429   5.404   1.449 -0.2324  1.8752  3.1683
 9389SOL     OW28744   4.252   6.830   8.803  0.0645 -0.3175  0.3331
 9389SOL    HW128745   4.175   6.852   8.856 -0.3726 -1.1110  0.0420
 9389SOL    HW228746   4.276   6.741   8.832  0.3133 -0.4333 -0.2230
 9390SOL     OW28747   8.548   8.743   0.720  0.0858 -0.3205  0.4525
 9390SOL    HW128748   8.621   8.683   0.735  0.2300 -0.4247 -0.5840
 9390SOL    HW228749   8.494   8.700   0.653 -0.0831  0.4689  0.0661
 9391SOL     OW28750   9.913   2.673   8.184 -0.4578  0.0422  0.6744
 9391SOL    HW128751   9.991   2.711   8.224  0.5883 -0.4840 -0.7983
 9391SOL    HW228752   9.930   2.578   8.183 -0.4773  0.0272 -0.8867
 9392SOL     OW28753   3.605   8.904   9.337  0.3414 -0.2780 -0.0640
 9392SOL    HW128754   3.602   8.904   9.433 -2.4125  1.2058 -0.0404
 9392SOL    HW228755   3.588   8.813   9.312 -2.0354 -0.1755  0.9318
 9393SOL     OW28756   0.169   3.129   4.803  0.0090 -0.1192  0.6031
 9393SOL    HW128757   0.149   3.113   4.711 -0.3957 -1.3179  0.8766
 9393SOL    HW228758   0.108   3.198   4.829  0.4769  0.5866 -0.1524
 9394SOL     OW28759   1.940   0.532   8.986  0.9759  0.1486  0.2102
 9394SOL    HW128760   1.923   0.541   8.892 -0.3203 -1.6851  0.2122
 9394SOL    HW228761   2.016   0.474   8.991 -0.0292 -1.2114  0.2629
 9395SOL     OW28762   6.865   3.240   2.625 -0.0264  0.3363 -0.3733
 9395SOL    HW128763   6.772   3.262   2.633 -0.5565 -1.5267 -0.9361
 9395SOL    HW228764   6.888   3.201   2.709  0.9557  2.9687  0.6833
 9396SOL     OW28765   9.128   2.823   0.759 -0.3022 -0.1642 -0.6043
 9396SOL    HW128766   9.174   2.815   0.676  1.4165  0.0237  0.2902
 9396SOL    HW228767   9.092   2.912   0.757  0.2045  0.0410 -0.9218
 9397SOL     OW28768   1.962   0.900   8.063  0.0137 -0.1842 -0.0175
 9397SOL    HW128769   2.052   0.920   8.089 -0.2396  0.2365  0.5718
 9397SOL    HW228770   1.966   0.888   7.969  0.8347 -0.9962  0.1110
 9398SOL     OW28771   2.662   7.047   9.429  0.2347 -0.2520  0.4262
 9398SOL    HW128772   2.621   6.962   9.418 -1.6004  0.7371 -0.9027
 9398SOL    HW228773   2.744   7.040   9.379  0.7437 -1.5915  1.3824
 9399SOL     OW28774   9.490   0.577   8.182 -0.2420 -0.5119 -0.4095
 9399SOL    HW128775   9.534   0.522   8.118 -1.4502 -2.2609  0.1854
 9399SOL    HW228776   9.447   0.516   8.242 -1.5740  1.0745  0.3609
 9400SOL     OW28777   3.653   6.229   9.277  0.4053 -0.2001 -1.2572
 9400SOL    HW128778   3.635   6.297   9.342  1.8034  0.8931 -1.9632
 9400SOL    HW228779   3.715   6.170   9.320  2.1846  1.1146 -1.8756
 9401SOL     OW28780   5.134   7.646   2.005  0.3990 -0.0976 -0.3724
 9401SOL    HW128781   5.221   7.652   1.967  0.5645  0.6963  0.1071
 9401SOL    HW228782   5.074   7.663   1.932  0.7273  1.9971 -0.2210
 9402SOL     OW28783   1.908   1.494   6.736 -0.1907 -0.2844 -0.1782
 9402SOL    HW128784   1.911   1.423   6.672  0.3691  0.0583 -0.5451
 9402SOL    HW228785   1.992   1.539   6.726 -0.1696 -0.1127  0.6715
 9403SOL     OW28786   9.373   4.000   5.374  0.7039  0.1410  0.0031
 9403SOL    HW128787   9.390   4.076   5.319  2.1616 -0.9770 -1.1784
 9403SOL    HW228788   9.453   3.988   5.425 -0.1258  0.3476  1.4090
 9404SOL     OW28789   9.029   9.311   0.055 -1.0664  0.5169 -0.1036
 9404SOL    HW128790   8.937   9.331   0.075 -1.2017 -0.0744 -0.1074
 9404SOL    HW228791   9.030   9.295  -0.040 -0.7551  1.5759 -0.2916
 9405SOL     OW28792   6.582   6.115   3.797  0.2171  0.7146  0.4210
 9405SOL    HW128793   6.585   6.092   3.890  0.4219  0.9107  0.4640
 9405SOL    HW228794   6.500   6.162   3.787 -0.2690 -0.1347  0.3058
 9406SOL     OW28795   9.896   7.890   5.439  0.2152 -0.3063  0.1609
 9406SOL    HW128796   9.901   7.962   5.376  0.8653 -0.3448  0.1626
 9406SOL    HW228797   9.876   7.813   5.385  1.4345 -0.4579 -0.1010
 9407SOL     OW28798   4.204   7.050   7.677 -0.6836 -0.6990 -0.1050
 9407SOL    HW128799   4.229   7.119   7.616 -0.5954 -0.6460 -0.0097
 9407SOL    HW228800   4.109   7.048   7.672 -0.6665 -0.8353 -0.3966
 9408SOL     OW28801   1.751   3.549   7.789  0.2175  0.3016  0.4696
 9408SOL    HW128802   1.801   3.630   7.786  0.9847 -0.1594  0.7632
 9408SOL    HW228803   1.664   3.575   7.758  1.2550  0.6137 -2.4435
 9409SOL     OW28804   3.855   6.474   8.973  0.7741  0.5961  0.1089
 9409SOL    HW128805   3.777   6.499   8.923  0.1697 -0.9772  0.2358
 9409SOL    HW228806   3.924   6.465   8.907  0.3377 -0.0471 -0.2604
 9410SOL     OW28807   1.322   4.270   3.378  0.6056 -0.8787  0.1708
 9410SOL    HW128808   1.286   4.255   3.290  0.2889  1.8849 -0.2798
 9410SOL    HW228809   1.404   4.222   3.379  0.6766 -0.8757 -1.7199
 9411SOL     OW28810   6.485   2.437   6.946  0.0015  0.1721  0.2553
 9411SOL    HW128811   6.461   2.528   6.959  0.7304  0.4261 -0.1596
 9411SOL    HW228812   6.495   2.401   7.034 -1.6893  0.1050  0.4456
 9412SOL     OW28813   1.294   2.937   4.146  0.2471 -0.2859  0.0435
 9412SOL    HW128814   1.300   2.862   4.086  0.7914 -1.2363  1.2387
 9412SOL    HW228815   1.369   2.926   4.205 -0.9086 -0.0317  1.6104
 9413SOL     OW28816   0.595   2.324   2.490 -0.2095  0.1658  0.3988
 9413SOL    HW128817   0.543   2.253   2.527  0.0244 -0.1325  0.1702
 9413SOL    HW228818   0.533   2.396   2.476 -0.6113 -0.2685 -0.1025
 9414SOL     OW28819   8.705   7.722   9.677 -0.7745 -0.6810  0.5022
 9414SOL    HW128820   8.704   7.804   9.628  0.5936 -0.1422  1.3130
 9414SOL    HW228821   8.750   7.660   9.620  2.8637  0.5143  1.7804
 9415SOL     OW28822   5.189   1.078   2.613 -0.1570  0.2863  0.1506
 9415SOL    HW128823   5.201   1.026   2.534 -2.2896  0.5204 -0.3859
 9415SOL    HW228824   5.165   1.165   2.582 -0.0783  0.6484  1.0628
 9416SOL     OW28825   0.549   6.457   9.946 -0.0925  0.0353  0.0865
 9416SOL    HW128826   0.529   6.523   9.879  0.6122  0.0407 -0.1333
 9416SOL    HW228827   0.624   6.409   9.911  1.4014  1.1337  1.5682
 9417SOL     OW28828   5.886   3.317   4.151 -0.4172  0.1276 -0.1141
 9417SOL    HW128829   5.961   3.345   4.099  0.7462 -0.4028  1.1938
 9417SOL    HW228830   5.879   3.384   4.220 -0.2537 -0.5490  0.5760
 9418SOL     OW28831   9.101   2.572   5.615 -0.0471  0.1293 -0.7044
 9418SOL    HW128832   9.195   2.586   5.624 -0.1210  1.6736 -1.8363
 9418SOL    HW228833   9.092   2.528   5.531 -0.3647  0.7621 -1.0138
 9419SOL     OW28834   7.515   9.162   7.789  0.1110  0.4999 -0.0091
 9419SOL    HW128835   7.468   9.186   7.709 -1.4929 -3.2147 -0.3741
 9419SOL    HW228836   7.448   9.162   7.857  0.2569 -1.5930  0.1760
 9420SOL     OW28837   8.390   0.383   3.078 -0.6936 -0.0609  0.4726
 9420SOL    HW128838   8.371   0.394   3.171 -0.3746  0.4019  0.4835
 9420SOL    HW228839   8.342   0.303   3.053 -2.3704  0.8686  0.5786
 9421SOL     OW28840   4.144   3.348   9.663 -0.1450  0.0345 -0.9864
 9421SOL    HW128841   4.095   3.386   9.590 -1.4374 -0.1916 -0.2764
 9421SOL    HW228842   4.110   3.259   9.670 -0.2110  0.1263  0.0188
 9422SOL     OW28843   4.893   1.582   2.424 -0.1512 -0.0554 -0.0241
 9422SOL    HW128844   4.884   1.645   2.495  0.5089  1.7046 -1.4022
 9422SOL    HW228845   4.949   1.626   2.360 -0.0865 -1.8612 -1.3071
 9423SOL     OW28846   0.615   0.721   9.724  0.4711  0.0730  0.4666
 9423SOL    HW128847   0.524   0.713   9.752  0.2882  0.3971 -0.0222
 9423SOL    HW228848   0.642   0.808   9.754  0.4878  0.1481  0.2346
 9424SOL     OW28849   1.581   7.600   9.677  0.5056 -0.2582  0.4195
 9424SOL    HW128850   1.639   7.628   9.607  1.4796 -0.4290  1.1248
 9424SOL    HW228851   1.550   7.681   9.718  0.1288 -0.1637 -0.0524
 9425SOL     OW28852   0.947   3.436   7.439  0.4225  0.1386 -0.0486
 9425SOL    HW128853   0.935   3.343   7.417  0.8201  0.2935 -0.9448
 9425SOL    HW228854   1.007   3.434   7.514 -1.4199 -0.4141  1.5128
 9426SOL     OW28855   3.003   4.084   8.283 -0.1379 -0.1730  0.1750
 9426SOL    HW128856   2.923   4.087   8.335  0.3201 -1.0688  0.9569
 9426SOL    HW228857   3.055   4.158   8.316 -0.6801  0.4925 -0.4274
 9427SOL     OW28858   4.383   7.942   6.625 -0.4976 -0.2490 -0.2191
 9427SOL    HW128859   4.441   7.891   6.681 -0.3125 -0.6533 -0.7685
 9427SOL    HW228860   4.399   8.033   6.651 -0.2281 -0.4141  0.2044
 9428SOL     OW28861   2.714   2.160   8.463 -0.0787 -0.2886 -0.2457
 9428SOL    HW128862   2.665   2.224   8.411  0.8091 -1.4085 -2.5864
 9428SOL    HW228863   2.805   2.189   8.457  0.2355 -1.3441 -0.6825
 9429SOL     OW28864   6.830   1.163   5.754 -0.2330  0.3776  0.2603
 9429SOL    HW128865   6.805   1.072   5.739  1.4279 -0.5613  2.5559
 9429SOL    HW228866   6.752   1.204   5.791 -1.0150 -0.0581 -0.8491
 9430SOL     OW28867   3.643   8.011   6.370 -0.0136 -0.7253 -0.2640
 9430SOL    HW128868   3.618   7.941   6.309  0.1689  0.3775 -1.6458
 9430SOL    HW228869   3.702   8.067   6.320 -1.9787  1.7368 -0.0454
 9431SOL     OW28870   8.835   0.767   2.108 -0.3837 -0.5542 -0.8332
 9431SOL    HW128871   8.760   0.808   2.151 -1.9063 -1.7150 -2.3005
 9431SOL    HW228872   8.862   0.830   2.041  1.2241  0.7065  0.8794
 9432SOL     OW28873   9.790   6.682   6.443 -0.3587 -0.3068 -0.5387
 9432SOL    HW128874   9.827   6.656   6.359 -1.8268 -0.8963 -1.0367
 9432SOL    HW228875   9.696   6.667   6.433 -0.6867  0.6823  0.8280
 9433SOL     OW28876   3.301   3.246   7.376  0.2014  0.2300 -0.6005
 9433SOL    HW128877   3.242   3.258   7.301 -0.5817 -1.1146 -0.2410
 9433SOL    HW228878   3.322   3.153   7.375  0.0504  0.1523  0.9380
 9434SOL     OW28879   4.410   2.176   5.002  0.5465 -0.1229  0.2115
 9434SOL    HW128880   4.454   2.194   4.919 -0.1269 -0.1472 -0.1513
 9434SOL    HW228881   4.378   2.086   4.994 -2.0674  0.7975 -0.6798
 9435SOL     OW28882   0.812   9.581   7.674  0.2364  0.4921 -0.3301
 9435SOL    HW128883   0.880   9.580   7.606 -0.0304  0.4794 -0.5957
 9435SOL    HW228884   0.731   9.598   7.626  0.0282  0.3357 -0.0306
 9436SOL     OW28885   1.847   5.251   9.947  0.1858 -0.5687 -0.0609
 9436SOL    HW128886   1.821   5.341   9.964  0.2552 -0.4384 -0.6140
 9436SOL    HW228887   1.783   5.197   9.993  0.9563 -0.2380  1.4626
 9437SOL     OW28888   8.353   2.589   8.096  0.3500  0.3190  0.5866
 9437SOL    HW128889   8.402   2.512   8.124  0.7304  0.5024  0.4244
 9437SOL    HW228890   8.270   2.553   8.064 -0.7899  0.2133  3.3815
 9438SOL     OW28891   3.896   8.829   6.534 -0.4212  0.2353 -0.5329
 9438SOL    HW128892   3.964   8.762   6.535 -1.0309 -0.4216 -1.5544
 9438SOL    HW228893   3.817   8.784   6.561 -1.2783 -0.0252 -3.1349
 9439SOL     OW28894   9.977   2.991   2.151  0.1826 -0.1729 -0.5232
 9439SOL    HW128895   9.980   2.987   2.055  0.0116 -0.1429 -0.5312
 9439SOL    HW228896   9.884   3.009   2.170 -0.1749 -2.1428 -0.2787
 9440SOL     OW28897   2.178   6.867   9.075 -0.4353  0.4816  0.6713
 9440SOL    HW128898   2.181   6.789   9.020  0.0468 -0.3320  1.8065
 9440SOL    HW228899   2.143   6.936   9.018  2.3606  0.3415 -1.4612
 9441SOL     OW28900   9.605   9.821   8.777 -0.4543 -0.1501  0.2034
 9441SOL    HW128901   9.528   9.830   8.722  1.2280  0.6355 -2.2136
 9441SOL    HW228902   9.581   9.757   8.843 -2.0476 -2.6512 -2.5842
 9442SOL     OW28903   9.083   3.665   2.293  0.4183  0.4029 -0.1904
 9442SOL    HW128904   9.110   3.753   2.321 -1.6985  0.8791  0.6126
 9442SOL    HW228905   9.016   3.682   2.226  0.2567 -0.6198 -0.2929
 9443SOL     OW28906   6.293   7.996   8.394 -0.2973  0.0217  0.0176
 9443SOL    HW128907   6.289   7.960   8.305 -0.0171  0.0941 -0.0264
 9443SOL    HW228908   6.235   7.939   8.445 -1.2280  0.5672 -0.4041
 9444SOL     OW28909   3.137   1.405   6.661 -0.1158  0.4175  0.3022
 9444SOL    HW128910   3.112   1.458   6.585  0.8084  0.3239 -0.0774
 9444SOL    HW228911   3.059   1.352   6.679 -0.0268 -0.2991 -1.2267
 9445SOL     OW28912   5.015   9.237   6.084  0.3313 -0.2480  0.2210
 9445SOL    HW128913   5.035   9.153   6.042  1.4673  0.8344 -1.4978
 9445SOL    HW228914   5.099   9.281   6.092 -0.3432  1.0519  0.4026
 9446SOL     OW28915   7.608   3.860   5.373  0.0216  0.1650 -0.4286
 9446SOL    HW128916   7.696   3.853   5.410  0.5927 -0.1108 -1.8002
 9446SOL    HW228917   7.550   3.862   5.450  1.2985  2.1441  0.5700
 9447SOL     OW28918   7.978   6.352   0.162  0.2311  0.5128 -0.0964
 9447SOL    HW128919   7.906   6.347   0.224  0.1788  1.2483 -0.0863
 9447SOL    HW228920   8.052   6.385   0.214  0.3223  0.6425 -0.3035
 9448SOL     OW28921   2.630   5.315   8.874  0.2774  0.0765  0.4911
 9448SOL    HW128922   2.640   5.224   8.846  0.1941 -0.1472  1.1532
 9448SOL    HW228923   2.545   5.342   8.838  0.3553 -0.0682  0.1939
 9449SOL     OW28924   9.608   2.354   4.284  0.0537 -0.1113  0.0999
 9449SOL    HW128925   9.697   2.383   4.301  0.9784 -2.5948 -0.0877
 9449SOL    HW228926   9.556   2.392   4.356  1.4836  0.3056  0.9549
 9450SOL     OW28927   1.916   4.570   3.982 -0.3880  0.1586  0.2222
 9450SOL    HW128928   1.878   4.518   4.052 -0.1588 -0.1382  0.1292
 9450SOL    HW228929   2.010   4.569   4.000 -0.3455  0.2271  0.0061
 9451SOL     OW28930   6.237   6.124   7.295 -0.1871 -0.3579 -0.3552
 9451SOL    HW128931   6.194   6.162   7.219  1.8882 -1.6111 -2.2826
 9451SOL    HW228932   6.320   6.171   7.302  0.1903 -1.0971  0.3549
 9452SOL     OW28933   8.296   7.601   6.372 -0.5122  0.7415  0.1983
 9452SOL    HW128934   8.240   7.576   6.299  0.8224 -2.2393  0.0333
 9452SOL    HW228935   8.254   7.563   6.449  0.2908  0.0529  0.3166
 9453SOL     OW28936   2.076   9.655   5.275 -0.1492 -0.0725  0.3747
 9453SOL    HW128937   2.145   9.596   5.244 -0.2486 -0.6408  1.1974
 9453SOL    HW228938   2.066   9.633   5.368 -0.5460  0.8939  0.5727
 9454SOL     OW28939   8.299   9.766   1.972  0.1454  0.2879  0.8446
 9454SOL    HW128940   8.246   9.696   2.011  0.3674 -0.7411 -0.6156
 9454SOL    HW228941   8.235   9.830   1.940 -0.1669 -0.3006  0.2778
 9455SOL     OW28942   3.830   5.037   7.384 -0.0516  0.3066 -0.1618
 9455SOL    HW128943   3.866   4.951   7.361 -1.6634 -0.0862 -1.4274
 9455SOL    HW228944   3.883   5.099   7.335  0.7461 -0.0217  0.2824
 9456SOL     OW28945   1.339   0.095   7.029  0.0075  0.8504  0.3060
 9456SOL    HW128946   1.374   0.152   6.960  1.6877 -0.2361  0.1989
 9456SOL    HW228947   1.286   0.153   7.083  0.6852  2.2607 -0.4847
 9457SOL     OW28948   8.365   6.859   7.475  0.2860 -0.0364 -0.2597
 9457SOL    HW128949   8.290   6.813   7.514  0.6237 -0.3615  0.0135
 9457SOL    HW228950   8.359   6.948   7.509 -0.9059  0.4021 -1.5134
 9458SOL     OW28951   2.789   7.115   2.006 -0.4877  0.1820 -0.1402
 9458SOL    HW128952   2.807   7.145   1.917 -0.3464  0.7861  0.0820
 9458SOL    HW228953   2.846   7.169   2.061 -1.3293  0.5494  0.3914
 9459SOL     OW28954   0.685   8.045   7.917  0.0104 -0.5845 -0.3576
 9459SOL    HW128955   0.718   8.082   7.835 -0.7906 -0.8702 -0.8172
 9459SOL    HW228956   0.753   7.985   7.946  1.0285  0.7081  0.0376
 9460SOL     OW28957   9.142   0.630   9.073  0.7735  0.7045  0.0573
 9460SOL    HW128958   9.116   0.540   9.056  0.6258  0.9692 -1.1978
 9460SOL    HW228959   9.142   0.672   8.987  0.2025  2.0734  0.6992
 9461SOL     OW28960   0.222   7.201   7.824 -0.0440 -0.1054 -0.2559
 9461SOL    HW128961   0.234   7.251   7.905 -0.2324  0.7459 -0.7407
 9461SOL    HW228962   0.177   7.261   7.765  0.3418 -0.6189 -1.0955
 9462SOL     OW28963   4.780   2.812   3.444 -0.5322  0.3513 -0.5300
 9462SOL    HW128964   4.800   2.719   3.438 -0.6791  0.1937  0.9324
 9462SOL    HW228965   4.747   2.835   3.357 -1.2377 -1.1417 -0.6971
 9463SOL     OW28966   3.502   0.899   2.499  0.2548  0.7103 -0.1680
 9463SOL    HW128967   3.583   0.885   2.548  1.0614  0.3892 -1.5573
 9463SOL    HW228968   3.464   0.978   2.538  1.2223  0.8692  0.4957
 9464SOL     OW28969   0.443   2.122   2.580 -0.4983  0.0962  0.4654
 9464SOL    HW128970   0.489   2.087   2.657 -1.9130 -1.5477  0.6190
 9464SOL    HW228971   0.472   2.067   2.508 -0.9015  0.1696  0.2461
 9465SOL     OW28972   4.880   5.560   9.799 -0.7949  0.1531 -0.3618
 9465SOL    HW128973   4.884   5.574   9.705  0.0523 -0.6566 -0.4656
 9465SOL    HW228974   4.794   5.593   9.825 -1.6328 -0.9269 -1.6471
 9466SOL     OW28975   4.499   0.068   2.344  0.3936  0.1346  0.4827
 9466SOL    HW128976   4.419   0.057   2.292  1.0587  1.7497 -1.0231
 9466SOL    HW228977   4.501  -0.008   2.401 -0.6134 -1.5847 -1.6083
 9467SOL     OW28978   5.892   0.988   8.045 -0.5104  0.3907  0.4362
 9467SOL    HW128979   5.890   1.082   8.067 -0.3899  0.1203  1.6690
 9467SOL    HW228980   5.810   0.953   8.081  0.3031 -0.3130  1.6696
 9468SOL     OW28981   2.457   1.385   0.387 -0.0265 -0.3719 -0.0518
 9468SOL    HW128982   2.411   1.302   0.399 -0.7431 -0.3513 -2.2127
 9468SOL    HW228983   2.549   1.362   0.390 -0.1734 -0.8457  1.6978
 9469SOL     OW28984   0.899   8.537   0.527  0.3998  0.3432  0.4170
 9469SOL    HW128985   0.853   8.566   0.449  0.5802 -2.4434 -0.8371
 9469SOL    HW228986   0.970   8.601   0.539 -0.2062  1.3512 -1.1016
 9470SOL     OW28987   3.792   2.849   2.813  0.6467  0.1932  0.4662
 9470SOL    HW128988   3.800   2.903   2.891 -0.7897  0.8293  0.2005
 9470SOL    HW228989   3.710   2.801   2.825  1.7154 -1.7164  0.5386
 9471SOL     OW28990   6.228   7.254   7.115 -0.2537 -0.2329 -0.2826
 9471SOL    HW128991   6.238   7.160   7.101  0.0817 -0.0569 -1.2731
 9471SOL    HW228992   6.315   7.290   7.096 -0.1048  0.1732  1.0744
 9472SOL     OW28993   4.853   1.012   2.915 -0.2028  0.2717  0.0293
 9472SOL    HW128994   4.843   0.995   3.008 -0.5751  1.1439  0.1600
 9472SOL    HW228995   4.779   0.968   2.874  0.6821 -1.2257 -0.0062
 9473SOL     OW28996   2.804   5.935   3.357 -0.5387  0.3899  0.3549
 9473SOL    HW128997   2.716   5.908   3.330 -0.0604  0.2537 -1.1331
 9473SOL    HW228998   2.851   5.853   3.371  0.0902  0.4018 -1.4256
 9474SOL     OW28999   5.153   9.166   1.349 -0.5823 -0.1155 -0.4377
 9474SOL    HW129000   5.150   9.074   1.377  2.3095  0.1548  1.1430
 9474SOL    HW229001   5.243   9.193   1.366 -1.7791  3.5625  0.9725
 9475SOL     OW29002   4.640   8.389   6.406 -0.3658 -0.0015  0.4338
 9475SOL    HW129003   4.674   8.466   6.362 -2.1111  1.3833  1.3897
 9475SOL    HW229004   4.672   8.315   6.354 -0.7714  1.4504 -2.0395
 9476SOL     OW29005   4.188   5.996   2.445 -0.2736 -0.0954 -0.3176
 9476SOL    HW129006   4.117   5.934   2.459 -0.5163 -0.4488 -2.6816
 9476SOL    HW229007   4.268   5.943   2.454 -0.4487 -0.5309 -1.1662
 9477SOL     OW29008   7.819   1.961   1.918 -0.6553 -0.1188 -0.7964
 9477SOL    HW129009   7.767   1.922   1.848 -1.1212  0.1439 -0.6040
 9477SOL    HW229010   7.789   1.916   1.997 -1.8298  1.1867 -0.4449
 9478SOL     OW29011   1.922   9.605   2.758 -0.3806  0.0192 -0.0178
 9478SOL    HW129012   1.960   9.676   2.706 -2.2763 -0.6047 -2.4297
 9478SOL    HW229013   1.837   9.639   2.787 -0.9588 -0.9254 -0.5292
 9479SOL     OW29014   9.279   1.358   8.297 -0.2816 -0.3537 -0.7612
 9479SOL    HW129015   9.261   1.283   8.239 -0.6354 -0.7781 -0.1057
 9479SOL    HW229016   9.332   1.322   8.367 -0.6733 -0.0458 -0.2990
 9480SOL     OW29017   9.869   3.781   4.012  0.1946 -0.7863  0.2523
 9480SOL    HW129018   9.890   3.720   4.083  1.9490 -2.2013 -1.3827
 9480SOL    HW229019   9.953   3.815   3.983 -0.3508 -1.0218 -1.7771
 9481SOL     OW29020   3.626   8.584   3.306 -0.0228 -0.2568  0.3050
 9481SOL    HW129021   3.669   8.540   3.379  0.6106 -1.7769 -0.9321
 9481SOL    HW229022   3.690   8.580   3.235 -0.9911  0.3132 -0.6168
 9482SOL     OW29023   7.897   7.679   5.003 -0.2123  0.3836  0.2743
 9482SOL    HW129024   7.975   7.735   4.999  0.0347 -0.0169 -0.7868
 9482SOL    HW229025   7.914   7.609   4.940 -1.7038  0.6333 -0.4615
 9483SOL     OW29026   0.422   8.105   2.149 -0.1960  0.0896 -0.5493
 9483SOL    HW129027   0.373   8.066   2.077  0.2584 -1.3487 -0.1104
 9483SOL    HW229028   0.503   8.054   2.153  0.4242  1.0910  0.0579
 9484SOL     OW29029   8.829   4.592   9.061 -0.3766 -0.4700  0.2113
 9484SOL    HW129030   8.869   4.546   8.987 -0.2664  0.3933 -0.2872
 9484SOL    HW229031   8.774   4.526   9.103 -2.0756 -0.4994 -1.8642
 9485SOL     OW29032   3.666   4.805   3.819 -0.0758  0.1582  0.3120
 9485SOL    HW129033   3.667   4.829   3.911  2.1039  0.5587  0.2479
 9485SOL    HW229034   3.676   4.888   3.772  1.7209 -0.2491 -0.1258
 9486SOL     OW29035   4.738   4.165   9.486  0.2569 -0.2723 -0.4846
 9486SOL    HW129036   4.693   4.156   9.570  0.3551 -0.3974 -0.4454
 9486SOL    HW229037   4.819   4.115   9.497  1.2135  1.3232  0.0280
 9487SOL     OW29038   2.053   6.060   1.889 -0.0111  0.4113  0.4100
 9487SOL    HW129039   2.128   6.115   1.911  0.9235  0.1103 -1.7811
 9487SOL    HW229040   2.086   5.998   1.824 -2.1561  0.3147 -0.6863
 9488SOL     OW29041   2.658   3.718   6.177 -0.1727  0.1945  0.0696
 9488SOL    HW129042   2.658   3.697   6.270 -2.8781  0.5282  0.2442
 9488SOL    HW229043   2.641   3.634   6.134  0.9765  0.0567 -0.1294
 9489SOL     OW29044   0.700   5.432   9.205  0.6247  0.4343 -0.2188
 9489SOL    HW129045   0.626   5.418   9.264  0.0135 -0.8078 -1.2243
 9489SOL    HW229046   0.704   5.527   9.194 -0.4703  0.5595  0.2993
 9490SOL     OW29047   9.360   3.980   0.634  0.4746  0.3532 -0.0289
 9490SOL    HW129048   9.432   4.043   0.638  0.1949  0.7402 -0.7494
 9490SOL    HW229049   9.328   3.974   0.724  1.6395 -0.1085  0.3712
 9491SOL     OW29050   5.645   6.630   0.497 -0.4341  0.1785  0.5782
 9491SOL    HW129051   5.684   6.717   0.491 -1.6890  0.6790 -0.6099
 9491SOL    HW229052   5.664   6.602   0.587  1.2647  1.0354  0.5291
 9492SOL     OW29053   4.529   8.320   7.992 -0.0183  0.6010  0.0915
 9492SOL    HW129054   4.546   8.318   8.086 -1.6935 -0.1746  0.4222
 9492SOL    HW229055   4.523   8.413   7.971  2.6440  0.8735  0.2480
 9493SOL     OW29056   8.712   3.212   9.614  0.5657 -0.0173  0.5482
 9493SOL    HW129057   8.799   3.243   9.589  0.3080  0.6650  0.4643
 9493SOL    HW229058   8.723   3.179   9.703  1.0814 -0.6898  0.2396
 9494SOL     OW29059   1.044   0.905   4.805  0.0412 -0.2830 -0.0775
 9494SOL    HW129060   0.987   0.874   4.875  2.5074 -0.1709  2.1119
 9494SOL    HW229061   1.053   0.830   4.746 -2.3505 -0.2704 -0.5413
 9495SOL     OW29062   7.124   3.784   8.587 -0.1295  0.0280 -0.4499
 9495SOL    HW129063   7.206   3.736   8.578  0.7870  1.5145 -0.2941
 9495SOL    HW229064   7.121   3.812   8.678 -1.9530 -1.9268  0.1767
 9496SOL     OW29065   3.929   4.328   0.653  0.0247  0.4845 -0.5293
 9496SOL    HW129066   3.976   4.406   0.622 -0.3360  0.9317  0.0293
 9496SOL    HW229067   3.853   4.363   0.699  0.5739 -0.1582  0.9227
 9497SOL     OW29068   8.562   4.015   0.769 -0.1866 -0.3761  0.0490
 9497SOL    HW129069   8.483   4.061   0.797  0.2034 -0.4033  1.2735
 9497SOL    HW229070   8.588   4.059   0.688 -1.2363 -0.1285 -0.1699
 9498SOL     OW29071   3.165   4.098   3.757  0.4914 -0.0181  0.5372
 9498SOL    HW129072   3.124   4.080   3.672  0.9249 -1.6393  0.6405
 9498SOL    HW229073   3.153   4.192   3.770  1.8145  0.5763 -2.0477
 9499SOL     OW29074   5.141   5.924   4.010 -0.5339 -0.5117  0.4195
 9499SOL    HW129075   5.188   5.843   4.029 -1.7715 -1.1887  0.6643
 9499SOL    HW229076   5.054   5.911   4.048 -1.1194  0.4769 -0.5390
 9500SOL     OW29077   1.868   6.382   3.654  0.5228  0.1131 -0.2902
 9500SOL    HW129078   1.907   6.462   3.618 -0.1701  0.1986 -0.8632
 9500SOL    HW229079   1.774   6.402   3.661  0.1129 -1.1639 -1.8526
 9501SOL     OW29080   3.043   7.803   4.458  0.2430 -0.2026 -0.3195
 9501SOL    HW129081   2.969   7.754   4.494  0.4543 -0.3349 -0.0540
 9501SOL    HW229082   3.119   7.748   4.477  0.4906  0.2470  0.0319
 9502SOL     OW29083   6.522   1.410   4.689  0.0402  0.2021  0.1138
 9502SOL    HW129084   6.617   1.398   4.690  0.0405  0.2203  0.7507
 9502SOL    HW229085   6.507   1.492   4.736 -0.4063 -0.8057  1.8065
 9503SOL     OW29086   2.485   5.981   1.037  0.1908 -0.2242 -1.1533
 9503SOL    HW129087   2.551   6.030   1.086 -0.2388  0.3784 -1.1630
 9503SOL    HW229088   2.496   6.010   0.946  0.5958 -0.9001 -1.3278
 9504SOL     OW29089   5.855   9.633   0.038  0.5279  0.9045  0.2667
 9504SOL    HW129090   5.763   9.618   0.059  0.9144  0.8612  2.1571
 9504SOL    HW229091   5.867   9.727   0.051  0.7276  0.9271 -0.0893
 9505SOL     OW29092   0.732   7.793   4.636  0.1272  0.2284  0.1698
 9505SOL    HW129093   0.715   7.707   4.674 -2.2151  0.3129 -0.5794
 9505SOL    HW229094   0.695   7.855   4.699 -0.5754  0.5474 -0.5456
 9506SOL     OW29095   2.133   5.685   5.831 -0.0393 -0.1661 -0.2054
 9506SOL    HW129096   2.221   5.671   5.796 -0.4957  1.0531 -1.9668
 9506SOL    HW229097   2.144   5.683   5.926  1.9682  0.3879 -0.3855
 9507SOL     OW29098   7.642   9.278   2.687 -0.6598  0.4023 -0.2292
 9507SOL    HW129099   7.623   9.372   2.678  0.2664  0.5649 -0.5821
 9507SOL    HW229100   7.588   9.250   2.761  0.0302  1.4935  0.7277
 9508SOL     OW29101   2.520   7.864   8.020  0.0793  0.0356  0.2200
 9508SOL    HW129102   2.439   7.899   8.056  0.0978  0.7214 -0.3802
 9508SOL    HW229103   2.516   7.770   8.039  0.3478  0.4213  2.4765
 9509SOL     OW29104   9.000   7.543   9.819  0.4142  0.0214  0.5570
 9509SOL    HW129105   9.004   7.621   9.765 -0.6454 -0.0034  0.4334
 9509SOL    HW229106   8.916   7.502   9.798  0.8723 -1.0655  0.7378
 9510SOL     OW29107   5.742   7.039   4.001 -0.2133 -0.9620  0.6308
 9510SOL    HW129108   5.663   7.093   4.006 -1.0206 -2.0217 -0.0842
 9510SOL    HW229109   5.735   6.981   4.076 -0.7841 -1.8792 -0.0982
 9511SOL     OW29110   0.617   1.854   8.707  0.2304  0.0635  0.4402
 9511SOL    HW129111   0.675   1.814   8.772  1.5808 -0.2556 -0.9064
 9511SOL    HW229112   0.608   1.787   8.639  0.4456  1.0907 -0.6283
 9512SOL     OW29113   1.287   7.481   3.554  0.4804 -0.9606  0.1715
 9512SOL    HW129114   1.193   7.468   3.558  0.5464 -1.3306  0.5374
 9512SOL    HW229115   1.313   7.498   3.645  0.5709  0.5337 -0.1045
 9513SOL     OW29116   6.623   4.471   3.886 -0.2435  0.1145 -0.7906
 9513SOL    HW129117   6.658   4.498   3.801  0.4826  0.0936 -0.5026
 9513SOL    HW229118   6.692   4.417   3.925 -0.7500 -0.2387 -0.3725
 9514SOL     OW29119   0.809   1.918   2.539 -0.0337  0.3507 -0.0167
 9514SOL    HW129120   0.760   1.857   2.484 -0.7265  0.7429  0.1408
 9514SOL    HW229121   0.885   1.869   2.568 -1.8199 -1.3475  2.1695
 9515SOL     OW29122   1.893   4.859   3.098 -0.0545  0.3481  0.1717
 9515SOL    HW129123   1.908   4.765   3.109 -0.1394  0.1844 -1.0766
 9515SOL    HW229124   1.976   4.899   3.125  0.2729 -0.1320 -0.1091
 9516SOL     OW29125   2.129   3.507   2.192  0.0111  0.0380 -0.2058
 9516SOL    HW129126   2.064   3.437   2.190  1.0980 -0.9748 -1.0031
 9516SOL    HW229127   2.176   3.499   2.109  1.9124  0.0254  0.8355
 9517SOL     OW29128   0.981   2.813   9.635 -0.3304  0.1611  0.6160
 9517SOL    HW129129   1.059   2.772   9.599  0.7375  0.8806  2.0447
 9517SOL    HW229130   0.941   2.859   9.560  1.7765  1.5316  0.2588
 9518SOL     OW29131   5.676   9.508   3.837  0.1641  0.4302 -0.0066
 9518SOL    HW129132   5.751   9.472   3.789  0.5049  1.2738 -0.1273
 9518SOL    HW229133   5.607   9.443   3.826  1.1371 -0.8070  0.8432
 9519SOL     OW29134   5.983   7.587   7.698 -0.2172  0.1075 -0.3748
 9519SOL    HW129135   5.897   7.606   7.735  0.5404 -0.6302  1.9744
 9519SOL    HW229136   5.984   7.492   7.686  0.3306  0.0767 -0.1463
 9520SOL     OW29137   4.188   8.960   3.912 -0.5019  0.4107  0.3818
 9520SOL    HW129138   4.216   9.027   3.973 -1.6319  1.9318 -0.6938
 9520SOL    HW229139   4.188   9.003   3.827  0.1785 -1.3908 -0.5918
 9521SOL     OW29140   9.707   3.870   2.695 -0.3507  0.1848  0.4005
 9521SOL    HW129141   9.750   3.885   2.611 -0.1294  3.1149  0.9396
 9521SOL    HW229142   9.669   3.783   2.687  1.4132 -0.4698 -1.9456
 9522SOL     OW29143   9.839   8.267   3.807 -0.2218 -0.1018 -0.6554
 9522SOL    HW129144   9.779   8.219   3.863 -0.4351 -0.8461 -1.4907
 9522SOL    HW229145   9.810   8.246   3.718  0.5880  0.4169 -1.0512
 9523SOL     OW29146   6.262   3.939   2.927 -0.0693  0.1850  0.1049
 9523SOL    HW129147   6.188   3.982   2.969  1.3409  0.6467  2.2842
 9523SOL    HW229148   6.286   3.997   2.855 -0.0766  1.5530  1.1555
 9524SOL     OW29149   9.002   7.241   4.377 -0.1807 -0.8795  0.0462
 9524SOL    HW129150   9.068   7.204   4.318  0.2944  0.0161  0.0034
 9524SOL    HW229151   9.044   7.240   4.463  1.1671  2.5124 -0.4213
 9525SOL     OW29152   0.287   9.291   5.456 -0.5525  0.0928  0.0857
 9525SOL    HW129153   0.268   9.315   5.547 -0.3555  0.7206 -0.0359
 9525SOL    HW229154   0.252   9.364   5.404 -0.5103 -0.1802 -0.3297
 9526SOL     OW29155   9.279   2.890   0.536  0.4030  0.0698 -0.0656
 9526SOL    HW129156   9.309   2.925   0.451 -0.4792 -0.0297 -0.4279
 9526SOL    HW229157   9.283   2.965   0.595  0.1323  0.3786 -0.4311
 9527SOL     OW29158   2.812   0.831   7.107  0.0104 -0.1791 -0.0967
 9527SOL    HW129159   2.808   0.735   7.115  2.3091 -0.2431  0.7624
 9527SOL    HW229160   2.770   0.863   7.187  1.2035 -0.5193  0.6855
 9528SOL     OW29161   1.133   8.185   4.349 -0.6173 -0.8496  0.2882
 9528SOL    HW129162   1.177   8.116   4.299 -1.5644 -1.0732 -0.2547
 9528SOL    HW229163   1.065   8.139   4.398  0.1536 -0.6049  1.6482
 9529SOL     OW29164   1.899   4.729   6.350  0.0908  0.1294  0.3941
 9529SOL    HW129165   1.979   4.683   6.377 -0.7506 -2.7911 -1.7679
 9529SOL    HW229166   1.872   4.776   6.429  1.3142 -2.6723  2.6425
 9530SOL     OW29167   3.757   6.521   1.167  0.0341 -0.0070 -0.1489
 9530SOL    HW129168   3.844   6.548   1.139  0.0458 -0.0756 -0.1790
 9530SOL    HW229169   3.768   6.495   1.259  0.3018 -1.1986 -0.5036
 9531SOL     OW29170   1.955   3.528   6.035  0.3465 -0.3718 -0.7581
 9531SOL    HW129171   1.869   3.501   6.067 -0.1046 -0.2828 -1.8430
 9531SOL    HW229172   1.967   3.478   5.954  0.9579  0.2092 -1.0399
 9532SOL     OW29173   4.211   5.569   5.060 -0.4260  0.0860  0.2834
 9532SOL    HW129174   4.134   5.560   5.004 -0.5818  1.8936  0.1451
 9532SOL    HW229175   4.284   5.536   5.008 -0.7241  0.8157 -0.6110
 9533SOL     OW29176   2.234   9.874   0.906  0.0841 -0.4317 -0.0427
 9533SOL    HW129177   2.219   9.943   0.971  0.0113 -0.4301 -0.0608
 9533SOL    HW229178   2.273   9.802   0.956 -2.6559 -1.6076  0.6441
 9534SOL     OW29179   5.208   5.388   5.292 -0.0054  0.0435 -0.1517
 9534SOL    HW129180   5.172   5.402   5.380 -2.5641 -1.9569 -0.7409
 9534SOL    HW229181   5.281   5.328   5.305 -1.2831 -1.4239  0.5424
 9535SOL     OW29182   3.579   0.925   1.244  0.3090  0.0362 -0.5126
 9535SOL    HW129183   3.564   0.895   1.154 -0.3909 -1.3430  0.0375
 9535SOL    HW229184   3.618   1.012   1.234 -1.8856  0.9314 -2.1365
 9536SOL     OW29185   8.684   8.780   1.713 -0.0974  0.0790  0.0705
 9536SOL    HW129186   8.715   8.868   1.695 -1.6010  0.7292  0.5499
 9536SOL    HW229187   8.612   8.767   1.652 -0.7843 -0.2877  0.9431
 9537SOL     OW29188   6.726   1.846   3.615 -0.0518 -0.4477  0.0603
 9537SOL    HW129189   6.806   1.868   3.567  0.2970  0.1829  0.9106
 9537SOL    HW229190   6.713   1.752   3.597  1.1679 -0.6854  0.3184
 9538SOL     OW29191   0.308   0.897   4.857  0.1057  0.2827  1.0820
 9538SOL    HW129192   0.301   0.915   4.951 -0.6379 -1.8172  1.4877
 9538SOL    HW229193   0.217   0.884   4.829  0.4065 -0.3364  0.3602
 9539SOL     OW29194   6.305   6.848   8.745  0.3305 -0.1521 -0.1937
 9539SOL    HW129195   6.391   6.884   8.722  0.5012  0.9353  1.8712
 9539SOL    HW229196   6.281   6.894   8.825 -0.7266 -2.7175  1.0927
 9540SOL     OW29197   2.129   1.163   6.189  0.1101 -0.5628 -0.3063
 9540SOL    HW129198   2.067   1.161   6.262  1.6825  1.7644  1.2398
 9540SOL    HW229199   2.178   1.081   6.196 -0.0602 -0.5712  1.0055
 9541SOL     OW29200   1.155   6.075   6.256  0.5102  0.8695 -0.0641
 9541SOL    HW129201   1.087   6.010   6.275  2.1442 -0.7054  0.7258
 9541SOL    HW229202   1.228   6.023   6.222  2.1744  2.1710  1.3613
 9542SOL     OW29203   3.450   1.216   7.884  0.1731 -0.0862 -0.2538
 9542SOL    HW129204   3.402   1.200   7.802 -1.1266  1.0863  0.2539
 9542SOL    HW229205   3.434   1.137   7.936 -3.6984  1.3549  1.0478
 9543SOL     OW29206   5.724   0.592   3.422 -0.0798 -0.0081 -0.1045
 9543SOL    HW129207   5.711   0.589   3.327 -1.0981 -0.1092  0.0252
 9543SOL    HW229208   5.743   0.684   3.440  1.6388 -0.2373 -0.5710
 9544SOL     OW29209   2.184   3.768   4.596  0.0161  0.6509  0.0407
 9544SOL    HW129210   2.121   3.805   4.657  0.9707 -0.3266  1.7104
 9544SOL    HW229211   2.269   3.803   4.624  0.8154 -1.7834  1.0356
 9545SOL     OW29212   9.083   2.011   6.780  0.4220 -0.6309  1.0306
 9545SOL    HW129213   9.063   2.066   6.704  1.6927 -0.0718  1.0858
 9545SOL    HW229214   9.105   2.072   6.850  0.5179 -1.1788  1.4872
 9546SOL     OW29215   3.946   4.815   7.302  0.6955  0.6851  0.1468
 9546SOL    HW129216   3.956   4.806   7.207  1.6756  2.1470  0.0680
 9546SOL    HW229217   4.014   4.758   7.339 -0.9448 -1.4101  0.0654
 9547SOL     OW29218   9.436   6.667   6.077 -0.6795 -0.8155  0.2271
 9547SOL    HW129219   9.374   6.717   6.131 -3.2209 -3.4253 -0.0617
 9547SOL    HW229220   9.402   6.676   5.988  0.7755 -0.3978 -0.3102
 9548SOL     OW29221   3.851   0.458   8.015  0.8737 -0.6953  0.1909
 9548SOL    HW129222   3.928   0.489   8.063  1.0265  0.4732 -0.7477
 9548SOL    HW229223   3.866   0.364   8.004  1.6532 -0.6721  0.9186
 9549SOL     OW29224   1.289   1.090   2.118  0.4359 -0.0467 -0.0634
 9549SOL    HW129225   1.239   1.030   2.063 -0.3318  1.1335 -0.6862
 9549SOL    HW229226   1.309   1.040   2.197 -1.2299 -0.7397 -0.0445
 9550SOL     OW29227   7.864   9.325   3.049 -0.1179 -1.0905 -0.8103
 9550SOL    HW129228   7.884   9.381   2.974 -0.2722 -2.5944 -1.9976
 9550SOL    HW229229   7.847   9.239   3.012 -1.3024 -1.6271  0.8599
 9551SOL     OW29230   4.866   3.341   8.232  0.5901  0.2031  0.0714
 9551SOL    HW129231   4.857   3.402   8.159  0.2542  1.9521  1.5106
 9551SOL    HW229232   4.957   3.350   8.259  0.4229  0.3982  0.5711
 9552SOL     OW29233   0.007   5.606   0.777  0.4364  0.2230 -0.2329
 9552SOL    HW129234  -0.014   5.514   0.791 -0.0362  0.3373 -0.1878
 9552SOL    HW229235   0.046   5.635   0.859 -1.3722  0.6153  0.5339
 9553SOL     OW29236   3.727   4.872   1.432  0.1030 -0.7742  0.5837
 9553SOL    HW129237   3.767   4.957   1.449 -1.4128 -0.1696  1.3340
 9553SOL    HW229238   3.681   4.883   1.349 -1.3181 -0.3515  1.3865
 9554SOL     OW29239   2.121   7.645   4.516  0.6790  0.5490  0.2463
 9554SOL    HW129240   2.120   7.562   4.469 -0.1562  0.8160 -0.2407
 9554SOL    HW229241   2.044   7.692   4.483 -1.0331  0.0411  3.1268
 9555SOL     OW29242   7.057   7.364   3.023 -0.1235  0.4468  0.0462
 9555SOL    HW129243   7.082   7.400   2.937 -1.4546 -1.2911 -1.1411
 9555SOL    HW229244   7.040   7.271   3.006 -0.3585  0.0431  2.2345
 9556SOL     OW29245   7.051   6.160   3.554 -0.0185  0.0770  0.3213
 9556SOL    HW129246   6.969   6.206   3.539  0.7131  1.0301 -0.9994
 9556SOL    HW229247   7.028   6.067   3.547 -1.5086  0.1362  3.0072
 9557SOL     OW29248   7.718   5.366   4.919 -0.0338  0.8504  0.3852
 9557SOL    HW129249   7.758   5.284   4.949 -0.3700 -0.1557 -1.7641
 9557SOL    HW229250   7.624   5.348   4.917  0.0336  0.4332 -2.3016
 9558SOL     OW29251   1.817   8.355   7.523 -0.1766  0.1039  0.0583
 9558SOL    HW129252   1.848   8.274   7.564  1.0621  0.8278  0.5776
 9558SOL    HW229253   1.802   8.415   7.596  1.8453  1.3353 -0.4661
 9559SOL     OW29254   1.199   6.090   1.425 -0.2710  0.5230 -0.1703
 9559SOL    HW129255   1.154   6.027   1.482 -0.6438  2.3989  1.7413
 9559SOL    HW229256   1.289   6.058   1.421 -1.0457 -1.6544 -1.6053
 9560SOL     OW29257   7.931   9.697   3.817  0.1785 -0.2875 -0.1374
 9560SOL    HW129258   7.986   9.635   3.866 -0.2342 -1.3096 -0.9321
 9560SOL    HW229259   7.988   9.729   3.748 -0.1809 -1.2999 -0.9235
 9561SOL     OW29260   7.832   6.980   6.305  0.2239 -0.0947 -0.1182
 9561SOL    HW129261   7.768   6.980   6.234  1.4218  0.0022 -1.2261
 9561SOL    HW229262   7.822   6.893   6.345 -0.0065 -0.3967 -0.8195
 9562SOL     OW29263   2.828   5.364   9.511  0.3256  0.2315 -0.3212
 9562SOL    HW129264   2.752   5.368   9.453  0.9148  2.1157 -1.0358
 9562SOL    HW229265   2.801   5.306   9.582 -1.2583 -0.2653 -1.2817
 9563SOL     OW29266   4.278   0.282   5.612 -0.7367 -0.2840  0.3602
 9563SOL    HW129267   4.293   0.204   5.557 -0.7587  0.0112 -0.0680
 9563SOL    HW229268   4.324   0.263   5.693 -0.5690 -0.6606  0.1801
 9564SOL     OW29269   8.855   4.069   9.161  0.2803  0.6363  0.1768
 9564SOL    HW129270   8.847   4.090   9.254 -0.0728  0.4282  0.1953
 9564SOL    HW229271   8.769   4.035   9.137 -0.1807  2.2984 -0.6341
 9565SOL     OW29272   6.208   6.474   7.953 -0.3249 -0.4651 -0.1711
 9565SOL    HW129273   6.160   6.529   8.016  0.6581  1.3335 -0.9120
 9565SOL    HW229274   6.294   6.516   7.946  0.4770 -2.1478 -0.7802
 9566SOL     OW29275   5.399   5.412   8.282 -0.6871 -0.4661  0.3234
 9566SOL    HW129276   5.494   5.401   8.292 -0.2561  1.6255 -0.8455
 9566SOL    HW229277   5.388   5.444   8.192 -2.4933 -0.5839  0.4689
 9567SOL     OW29278   1.573   7.776   1.672 -0.3904 -0.4107 -0.2016
 9567SOL    HW129279   1.647   7.718   1.689 -0.8418 -1.2246 -0.9578
 9567SOL    HW229280   1.557   7.820   1.756  0.1930 -1.1044  0.2794
 9568SOL     OW29281   9.530   1.695   1.529  0.1462  0.2933 -0.2436
 9568SOL    HW129282   9.470   1.621   1.545  0.5974 -0.2020 -0.8192
 9568SOL    HW229283   9.520   1.713   1.436  1.7703 -0.5725 -0.6101
 9569SOL     OW29284   4.631   8.275   9.235 -0.1206  0.7242  0.4340
 9569SOL    HW129285   4.561   8.267   9.301  1.4907 -1.3530  2.0170
 9569SOL    HW229286   4.702   8.319   9.282  1.3123 -1.4078  0.3880
 9570SOL     OW29287   6.104   6.460   9.779 -0.1489 -0.1445  0.4101
 9570SOL    HW129288   6.100   6.410   9.698  0.9599  1.5843 -0.7981
 9570SOL    HW229289   6.029   6.519   9.774 -0.4156 -0.4354  0.9363
 9571SOL     OW29290   2.093   8.810   6.228  0.3690 -0.3758 -0.1043
 9571SOL    HW129291   2.016   8.812   6.285 -0.3636  0.9759 -1.0858
 9571SOL    HW229292   2.095   8.721   6.194  1.3252 -1.5106  2.6140
 9572SOL     OW29293   0.991   8.644   6.401 -0.7072 -0.1396 -0.2830
 9572SOL    HW129294   0.992   8.662   6.307 -0.9795 -3.4010 -1.0450
 9572SOL    HW229295   1.076   8.674   6.432 -0.4042  0.5485 -1.6774
 9573SOL     OW29296   2.862   8.800   4.255  0.0371 -0.0578 -0.0453
 9573SOL    HW129297   2.923   8.750   4.309 -0.3452  0.6350  1.0501
 9573SOL    HW229298   2.899   8.795   4.167  1.2149 -0.3662  0.4492
 9574SOL     OW29299   7.226   3.391   8.651  0.3801  0.5791 -0.1265
 9574SOL    HW129300   7.137   3.374   8.683 -0.0368  1.2478 -0.9096
 9574SOL    HW229301   7.280   3.390   8.730 -0.4579  1.0234  0.4668
 9575SOL     OW29302   1.294   3.741   4.646  0.4197  0.3131  0.5674
 9575SOL    HW129303   1.375   3.701   4.677  1.3556  0.1249 -1.9071
 9575SOL    HW229304   1.297   3.831   4.679  1.0339 -0.0312  1.4874
 9576SOL     OW29305   5.963   5.444   4.081  0.5525  0.4903  0.5261
 9576SOL    HW129306   6.017   5.513   4.042  1.4733  0.1986  1.2458
 9576SOL    HW229307   5.937   5.479   4.166  1.1917 -0.1131  0.9807
 9577SOL     OW29308   3.099   2.565   6.705  0.3844  0.2617  0.4172
 9577SOL    HW129309   3.117   2.480   6.665  1.5491  1.4047 -1.5828
 9577SOL    HW229310   3.182   2.612   6.702 -0.3863  1.7162  0.9174
 9578SOL     OW29311   7.291   3.314   3.368  0.1648  0.1818 -0.3956
 9578SOL    HW129312   7.290   3.314   3.463  0.8710  0.6905 -0.3815
 9578SOL    HW229313   7.370   3.266   3.344 -1.1129 -1.8632 -0.7754
 9579SOL     OW29314   1.769   4.598   9.546  0.6250  0.3471 -0.0594
 9579SOL    HW129315   1.784   4.520   9.492  1.5046 -1.0035  2.0303
 9579SOL    HW229316   1.802   4.671   9.493  0.5017 -0.7602 -1.7409
 9580SOL     OW29317   3.546   7.817   6.211 -0.4041  0.3053  0.0077
 9580SOL    HW129318   3.592   7.734   6.219  0.2080  0.5470 -0.8161
 9580SOL    HW229319   3.454   7.794   6.223 -0.3727 -0.7152 -1.3835
 9581SOL     OW29320   4.243   1.533   4.664 -0.1766 -0.4285  0.3430
 9581SOL    HW129321   4.225   1.627   4.658 -0.6322 -0.6056 -1.8294
 9581SOL    HW229322   4.260   1.506   4.574  0.6478 -2.3095  1.0149
 9582SOL     OW29323   3.486   9.639   0.467 -0.1954 -0.2093 -0.1353
 9582SOL    HW129324   3.515   9.696   0.538  1.6876 -1.1877 -0.0546
 9582SOL    HW229325   3.471   9.555   0.508  2.0103 -1.1029 -0.9762
 9583SOL     OW29326   1.485   0.340   5.112 -0.3327 -0.0443 -0.0928
 9583SOL    HW129327   1.459   0.421   5.068  1.7218  3.4144  4.2449
 9583SOL    HW229328   1.401   0.300   5.137 -1.4671  1.5597 -1.0759
 9584SOL     OW29329   6.537   3.891   1.291 -0.0915  0.0491  0.4851
 9584SOL    HW129330   6.597   3.848   1.352  1.0527  0.8960 -0.0167
 9584SOL    HW229331   6.563   3.859   1.205 -0.8811 -0.1590  0.3074
 9585SOL     OW29332   4.537   7.766   5.432 -0.6614  0.3908 -0.6174
 9585SOL    HW129333   4.599   7.767   5.358 -0.7784 -2.1681 -0.8438
 9585SOL    HW229334   4.451   7.757   5.390 -0.6665 -1.9287 -0.2383
 9586SOL     OW29335   0.161   3.490   7.687 -0.5133 -0.0035 -0.0314
 9586SOL    HW129336   0.087   3.514   7.744 -1.3749  0.4035 -1.2615
 9586SOL    HW229337   0.153   3.395   7.677 -0.9692  0.0579 -0.2808
 9587SOL     OW29338   0.205   7.724   1.131 -0.4316 -0.0246 -0.3631
 9587SOL    HW129339   0.294   7.749   1.104 -0.8148  1.8479  0.0213
 9587SOL    HW229340   0.150   7.746   1.056 -0.9628  1.6256  0.4742
 9588SOL     OW29341   4.344   1.880   2.128 -0.3009  0.2336  0.2281
 9588SOL    HW129342   4.345   1.821   2.203  0.8771 -0.0649 -0.0019
 9588SOL    HW229343   4.425   1.931   2.136  0.1561 -0.2282 -1.1580
 9589SOL     OW29344   3.697   1.678   4.478  0.3945 -0.0322 -0.3553
 9589SOL    HW129345   3.635   1.614   4.443 -0.4038  0.7844 -0.4737
 9589SOL    HW229346   3.642   1.746   4.517  1.2331 -0.5052  1.8172
 9590SOL     OW29347   8.367   9.684   7.067  0.3223  0.7029  0.1586
 9590SOL    HW129348   8.459   9.670   7.089  0.3650  1.0194  0.1770
 9590SOL    HW229349   8.355   9.638   6.984  0.0820 -0.8011  0.9720
 9591SOL     OW29350   0.433   5.947   2.919 -0.1956  1.0182 -0.6571
 9591SOL    HW129351   0.486   5.909   2.849  0.3108  1.4308 -0.5089
 9591SOL    HW229352   0.483   5.930   2.998  0.5614  2.8546 -0.6947
 9592SOL     OW29353   6.532   2.347   5.319  0.3659 -0.1623 -0.2949
 9592SOL    HW129354   6.625   2.325   5.329  0.3529  0.4693  1.3710
 9592SOL    HW229355   6.526   2.381   5.229  1.8985  0.5045 -0.1841
 9593SOL     OW29356   3.143   3.935   9.837 -0.2170 -0.0246  0.5036
 9593SOL    HW129357   3.110   3.896   9.917  0.8673 -0.4226  0.7700
 9593SOL    HW229358   3.232   3.963   9.858  0.7282 -1.6800 -1.0194
 9594SOL     OW29359   5.857   7.685   0.532 -0.6145 -0.0419 -0.1169
 9594SOL    HW129360   5.943   7.696   0.491 -0.5151  0.5388  0.2404
 9594SOL    HW229361   5.806   7.635   0.468  0.1167 -0.7556 -0.1551
 9595SOL     OW29362   4.567   6.860   7.212 -0.0815  0.2311 -0.4060
 9595SOL    HW129363   4.642   6.854   7.271  0.3300  0.4031 -0.9001
 9595SOL    HW229364   4.596   6.919   7.142 -0.3168 -0.4917 -1.1321
 9596SOL     OW29365   7.312   7.557   1.448 -0.2544 -0.0189 -0.0017
 9596SOL    HW129366   7.247   7.489   1.437  0.2323 -0.8087  1.6225
 9596SOL    HW229367   7.343   7.576   1.359 -2.9570  0.7226 -0.8802
 9597SOL     OW29368   6.116   2.211   3.901  0.5717 -0.1014  0.5011
 9597SOL    HW129369   6.132   2.164   3.820  1.5200 -0.4742  0.8877
 9597SOL    HW229370   6.056   2.155   3.950 -0.1758  0.2270 -0.0185
 9598SOL     OW29371   8.327   9.569   8.800  0.3561 -0.1114  0.1074
 9598SOL    HW129372   8.339   9.611   8.885  1.6087  1.9718 -1.0173
 9598SOL    HW229373   8.407   9.519   8.786  0.0920 -0.5666  0.1800
 9599SOL     OW29374   8.463   5.437   1.102 -0.0351 -0.2639  0.3567
 9599SOL    HW129375   8.435   5.524   1.130  0.7164  0.2668 -0.4807
 9599SOL    HW229376   8.395   5.378   1.134 -1.6658  0.8577 -0.9127
 9600SOL     OW29377   0.192   6.200   8.417  0.5502  0.0853 -0.2381
 9600SOL    HW129378   0.153   6.244   8.342 -0.5754  1.8970  1.3385
 9600SOL    HW229379   0.118   6.177   8.473  1.3464 -1.4293  0.2680
 9601SOL     OW29380   8.833   0.379   3.353 -0.1920  0.1402 -0.1747
 9601SOL    HW129381   8.823   0.455   3.296 -0.2209  0.5776  0.4072
 9601SOL    HW229382   8.900   0.326   3.311 -0.2588  0.4275 -0.6467
 9602SOL     OW29383   0.067   7.719   5.593  0.2303 -0.1136  0.5523
 9602SOL    HW129384  -0.004   7.659   5.614 -0.4174  1.0150  1.7121
 9602SOL    HW229385   0.026   7.791   5.546  0.5334  0.6953  1.4943
 9603SOL     OW29386   4.520   4.999   1.211  0.1712  0.2766  0.1699
 9603SOL    HW129387   4.558   5.005   1.298  0.0053  2.5242  0.1448
 9603SOL    HW229388   4.590   5.027   1.152 -0.3838  0.9289 -0.1956
 9604SOL     OW29389   4.719   7.466   5.241 -0.1493  0.3140  0.4683
 9604SOL    HW129390   4.771   7.439   5.317  1.8977 -0.0076 -0.9858
 9604SOL    HW229391   4.732   7.397   5.176 -0.6381  1.2913 -0.7112
 9605SOL     OW29392   4.008   1.676   1.821  0.4483 -0.4036  0.1148
 9605SOL    HW129393   4.039   1.713   1.738  0.3705  0.9307  0.6600
 9605SOL    HW229394   4.062   1.598   1.833  0.3905 -0.6827 -1.2362
 9606SOL     OW29395   4.921   2.425   1.210 -0.2384  0.3707  0.3108
 9606SOL    HW129396   5.004   2.440   1.165  0.3298  1.7481  1.7259
 9606SOL    HW229397   4.895   2.511   1.243 -0.9179 -0.4501  2.0774
 9607SOL     OW29398   0.893   5.703   2.984 -0.7397  0.1063 -0.1436
 9607SOL    HW129399   0.902   5.718   3.078  1.1283 -0.9272 -0.0986
 9607SOL    HW229400   0.963   5.641   2.963 -0.5132  1.0211 -2.3819
 9608SOL     OW29401   8.979   5.532   8.008  0.4833  0.6986 -0.2222
 9608SOL    HW129402   8.956   5.487   7.927 -0.2420  0.4916  0.0947
 9608SOL    HW229403   8.955   5.470   8.078 -2.4840  2.2925  0.3544
 9609SOL     OW29404   4.950   3.412   2.032 -0.2337  0.1784 -0.0254
 9609SOL    HW129405   5.003   3.387   2.108 -0.7840  2.3892  1.1796
 9609SOL    HW229406   5.010   3.405   1.958 -0.0589 -3.4123  0.2785
 9610SOL     OW29407   1.451   6.352   9.801 -0.7409  0.3915 -0.1835
 9610SOL    HW129408   1.496   6.425   9.844 -1.0274  1.0309 -0.9347
 9610SOL    HW229409   1.365   6.350   9.843 -0.1432 -0.6574  1.0619
 9611SOL     OW29410   8.495   7.090   8.818  0.2615 -0.3680  0.4437
 9611SOL    HW129411   8.498   7.142   8.737  0.9706 -1.2542 -0.1114
 9611SOL    HW229412   8.412   7.042   8.812  0.0026  0.0562  0.5622
 9612SOL     OW29413   2.398   3.822   2.530 -0.2185 -0.1374 -0.2470
 9612SOL    HW129414   2.468   3.762   2.508 -1.4045 -1.6534 -0.0473
 9612SOL    HW229415   2.318   3.769   2.526 -1.3339  1.4511 -0.2024
 9613SOL     OW29416   4.521   7.785   2.280 -0.2960 -0.0807 -0.1328
 9613SOL    HW129417   4.434   7.759   2.309  0.0980  0.8236  2.1139
 9613SOL    HW229418   4.580   7.729   2.331  0.4739 -1.3139 -2.2724
 9614SOL     OW29419   4.932   3.574   6.704 -0.0882 -0.1093 -0.5723
 9614SOL    HW129420   4.928   3.517   6.628 -3.2244 -0.6398 -0.1157
 9614SOL    HW229421   5.026   3.590   6.717  0.6368 -1.6319 -3.2781
 9615SOL     OW29422   2.474   1.598   9.778  0.4935  0.3341 -0.1926
 9615SOL    HW129423   2.465   1.535   9.707 -0.8217  1.5055 -1.1168
 9615SOL    HW229424   2.560   1.638   9.764  0.8426 -0.4451 -0.2715
 9616SOL     OW29425   9.011   2.699   8.261  0.2627  0.6578  0.1014
 9616SOL    HW129426   9.043   2.741   8.181  0.9264  1.2996  0.6948
 9616SOL    HW229427   8.915   2.706   8.254  0.3328  1.2599 -0.3426
 9617SOL     OW29428   5.520   4.704   7.601 -0.3037 -0.9120  0.1726
 9617SOL    HW129429   5.490   4.643   7.533  2.6018  0.6431 -2.7655
 9617SOL    HW229430   5.450   4.769   7.608  0.2184  0.1581 -3.1417
 9618SOL     OW29431   0.130   5.065   6.948 -0.2198 -0.2581 -0.1871
 9618SOL    HW129432   0.086   5.057   7.032  0.2672  1.0833  0.2171
 9618SOL    HW229433   0.216   5.101   6.968  0.7504 -1.9195 -1.0626
 9619SOL     OW29434   0.572   9.159   0.535 -0.0378 -0.3623  0.2873
 9619SOL    HW129435   0.507   9.230   0.536  0.1809 -0.1319 -0.8429
 9619SOL    HW229436   0.645   9.194   0.484  1.2841 -0.3749  2.0730
 9620SOL     OW29437   3.051   9.281   1.882  0.4177  0.4119 -0.2810
 9620SOL    HW129438   3.012   9.196   1.903  1.2935 -0.0145 -0.3097
 9620SOL    HW229439   2.977   9.340   1.870 -0.2003 -0.3332 -0.1788
 9621SOL     OW29440   4.942   4.620   1.262 -0.1785 -0.5187 -0.2216
 9621SOL    HW129441   5.030   4.596   1.291 -0.5195 -0.7418  0.6518
 9621SOL    HW229442   4.908   4.541   1.220 -0.0115 -0.4723 -0.4451
 9622SOL     OW29443   8.207   0.165   0.124  0.4523 -0.0448 -0.1753
 9622SOL    HW129444   8.243   0.171   0.213  0.0824  1.5673 -0.0980
 9622SOL    HW229445   8.194   0.257   0.098 -1.0003 -0.5294 -1.2527
 9623SOL     OW29446   5.687   5.573   4.769  0.1267  0.5271  0.1285
 9623SOL    HW129447   5.627   5.637   4.808 -1.1757 -0.0740 -0.8381
 9623SOL    HW229448   5.651   5.556   4.682  2.1618  0.7543 -0.8244
 9624SOL     OW29449   8.927   5.633   3.749 -0.6405  0.5905 -0.8044
 9624SOL    HW129450   8.853   5.590   3.706 -0.7399 -0.5368  0.4238
 9624SOL    HW229451   8.894   5.657   3.836  0.7734 -1.2130  0.3158
 9625SOL     OW29452   1.205   3.560   2.468  0.4232  0.7447  0.0724
 9625SOL    HW129453   1.259   3.505   2.525 -0.8633 -0.4853  0.1574
 9625SOL    HW229454   1.257   3.571   2.389  1.6792  1.3722  0.9557
 9626SOL     OW29455   4.798   1.978   3.785 -0.8105 -0.7115  0.8952
 9626SOL    HW129456   4.712   1.996   3.748 -0.6031  1.1639  1.2332
 9626SOL    HW229457   4.859   2.031   3.733  0.0029 -1.1939  1.3239
 9627SOL     OW29458   9.261   1.244   6.576  0.0981 -0.3259 -0.2853
 9627SOL    HW129459   9.286   1.249   6.483 -1.1868 -0.5934 -0.6670
 9627SOL    HW229460   9.196   1.313   6.587  0.1672 -0.3637  0.3945
 9628SOL     OW29461   8.837   0.236   9.477  0.0110  0.8205  0.5309
 9628SOL    HW129462   8.750   0.275   9.485  0.1580  0.8970  1.9631
 9628SOL    HW229463   8.863   0.214   9.566  1.4855  0.8370  0.1474
 9629SOL     OW29464   6.692   7.770   5.565 -0.3675  0.5219  0.4660
 9629SOL    HW129465   6.632   7.802   5.632  1.8795 -0.2357  3.0345
 9629SOL    HW229466   6.705   7.845   5.507 -3.0025  0.9748  0.3142
 9630SOL     OW29467   6.557   7.074   5.356 -0.2455  0.2472 -0.4721
 9630SOL    HW129468   6.650   7.097   5.351 -0.0741 -0.1906  0.3927
 9630SOL    HW229469   6.555   6.979   5.356 -0.5438  0.2118  1.1741
 9631SOL     OW29470   4.486   9.961   2.626 -0.4326  0.1678  0.9026
 9631SOL    HW129471   4.447  10.022   2.688 -1.4313 -0.1961  0.6653
 9631SOL    HW229472   4.572   9.941   2.662 -0.5515  0.8258  1.5739
 9632SOL     OW29473   6.864   6.410   2.232 -0.3598  0.5364 -0.2287
 9632SOL    HW129474   6.909   6.494   2.226 -2.0715  1.4521 -1.3834
 9632SOL    HW229475   6.787   6.428   2.287  1.2766 -1.3372  2.9514
 9633SOL     OW29476   8.310   8.858   1.724  0.0019 -0.0682 -0.1511
 9633SOL    HW129477   8.232   8.868   1.668 -0.3827  0.2775  0.4356
 9633SOL    HW229478   8.381   8.840   1.662 -0.6480 -0.9960 -0.6583
 9634SOL     OW29479   5.721   7.400   9.731  0.1884  0.1957 -0.0723
 9634SOL    HW129480   5.711   7.458   9.807 -1.2704  1.9637 -1.5338
 9634SOL    HW229481   5.652   7.335   9.743  0.2405  0.2066  0.3266
 9635SOL     OW29482   6.153   9.062   4.191 -0.3548  0.0258  0.0485
 9635SOL    HW129483   6.111   9.131   4.139  0.8808  0.2821 -0.6437
 9635SOL    HW229484   6.241   9.095   4.209 -0.8576  0.1133  2.6890
 9636SOL     OW29485   4.160   9.408   3.956  0.6558  0.2036 -0.2334
 9636SOL    HW129486   4.211   9.394   4.036  1.0184 -1.1468 -0.6802
 9636SOL    HW229487   4.127   9.497   3.964  1.6892  0.5079  0.8587
 9637SOL     OW29488   7.869   9.125   3.693 -0.0114 -0.1999 -0.1322
 9637SOL    HW129489   7.934   9.147   3.626 -0.1354 -0.2418 -0.2673
 9637SOL    HW229490   7.820   9.052   3.655 -0.6695  0.3604 -0.3784
 9638SOL     OW29491   3.885   1.035   0.903 -0.0839  0.0034  0.5463
 9638SOL    HW129492   3.856   1.117   0.865 -1.1104  0.3051  1.9090
 9638SOL    HW229493   3.863   0.969   0.837 -1.1001  0.5927  0.2754
 9639SOL     OW29494   6.906   8.218   9.675 -0.1706  0.0291  0.3914
 9639SOL    HW129495   6.876   8.306   9.654 -0.2023  0.3786  1.7653
 9639SOL    HW229496   6.999   8.228   9.695 -0.4357 -0.0065  1.7411
 9640SOL     OW29497   6.799   2.265   5.257  0.3010  0.0303  0.0862
 9640SOL    HW129498   6.832   2.355   5.256  0.2010  0.0660 -0.4278
 9640SOL    HW229499   6.861   2.217   5.203  0.4708 -0.2543  0.5315
 9641SOL     OW29500   7.509   2.671   2.290 -0.5238  0.4158  0.3819
 9641SOL    HW129501   7.437   2.680   2.352 -0.6452  0.1617  0.2816
 9641SOL    HW229502   7.479   2.603   2.229  0.8066 -1.5475  1.7851
 9642SOL     OW29503   1.161   9.282   3.515 -0.5974  0.0977 -0.4689
 9642SOL    HW129504   1.073   9.246   3.525 -0.3147 -1.1516 -2.1429
 9642SOL    HW229505   1.215   9.232   3.577 -0.9905  0.7288  0.4136
 9643SOL     OW29506   5.137   5.463   8.380  0.2286 -0.3236 -0.2918
 9643SOL    HW129507   5.227   5.472   8.348  0.8731 -0.7213  1.3356
 9643SOL    HW229508   5.128   5.370   8.401  0.1647  0.0584  1.5215
 9644SOL     OW29509   5.696   4.556   1.613  0.1223 -0.3913  0.4026
 9644SOL    HW129510   5.614   4.573   1.566  0.3259  0.6061  0.3810
 9644SOL    HW229511   5.728   4.643   1.639  0.0042 -0.9075  2.4349
 9645SOL     OW29512   8.739   9.350   7.657  0.2785 -0.2595 -0.3473
 9645SOL    HW129513   8.760   9.442   7.641 -0.1091 -0.6989 -4.6547
 9645SOL    HW229514   8.814   9.302   7.621 -1.0035 -1.5960 -1.3697
 9646SOL     OW29515   4.037   1.583   7.781  0.0724  0.3761  0.1212
 9646SOL    HW129516   3.988   1.654   7.741 -0.5635 -0.4882 -0.6658
 9646SOL    HW229517   3.999   1.573   7.868 -2.0210 -1.0756 -0.8936
 9647SOL     OW29518   4.829   8.816   9.797  0.3034 -0.2898  0.1368
 9647SOL    HW129519   4.873   8.765   9.729 -0.2355  2.4529 -2.5029
 9647SOL    HW229520   4.898   8.837   9.860  0.7802 -3.0907  0.6502
 9648SOL     OW29521   5.613   2.372   7.194 -0.0233 -0.7420 -0.8474
 9648SOL    HW129522   5.623   2.452   7.142 -0.4591 -1.1023 -1.5079
 9648SOL    HW229523   5.687   2.317   7.167 -0.3553 -1.0042 -1.2324
 9649SOL     OW29524   5.480   4.650   4.245 -0.4472  0.0952  0.2791
 9649SOL    HW129525   5.478   4.745   4.246 -1.6530  0.2645 -3.6020
 9649SOL    HW229526   5.561   4.628   4.199  0.4609 -0.8711  2.2353
 9650SOL     OW29527   4.119   2.504   2.507 -0.0322  0.5871 -0.1701
 9650SOL    HW129528   4.027   2.480   2.511 -0.4992  2.2673 -0.0606
 9650SOL    HW229529   4.119   2.600   2.499  1.7000  0.7927  1.4689
 9651SOL     OW29530   6.882   0.805   4.596  0.5878 -0.3713 -0.4104
 9651SOL    HW129531   6.837   0.754   4.664  0.5255 -0.6196 -0.6374
 9651SOL    HW229532   6.888   0.894   4.633  2.0429 -0.8605  0.6224
 9652SOL     OW29533   8.643   3.712   3.962  0.1186  0.6730  0.2922
 9652SOL    HW129534   8.570   3.650   3.970  0.9578 -0.1514  2.0640
 9652SOL    HW229535   8.604   3.798   3.979 -0.5716  0.3219  0.4945
 9653SOL     OW29536   3.173   6.088   8.573 -0.1440  0.1647  0.2031
 9653SOL    HW129537   3.211   6.081   8.660 -1.4576 -0.1585  0.7768
 9653SOL    HW229538   3.217   6.020   8.522  0.8991  0.6041  0.4927
 9654SOL     OW29539   3.157   1.786   0.074 -0.7352  0.3778 -0.0876
 9654SOL    HW129540   3.112   1.870   0.076 -0.3140  0.6588 -1.7486
 9654SOL    HW229541   3.087   1.721   0.087 -1.6042  0.8312 -2.2030
 9655SOL     OW29542   7.362   0.296   5.579 -0.6184 -0.4303  0.0774
 9655SOL    HW129543   7.267   0.309   5.581 -0.7145 -0.7156 -1.4395
 9655SOL    HW229544   7.397   0.383   5.557 -0.5226 -0.3304  0.6145
 9656SOL     OW29545   5.333   1.163   8.487 -0.2390  0.8554  0.0312
 9656SOL    HW129546   5.336   1.178   8.393  0.3345  2.1331  0.2291
 9656SOL    HW229547   5.370   1.075   8.499  1.4108  1.3973 -0.7953
 9657SOL     OW29548   4.036   3.434   0.912 -0.3511 -0.2394 -0.5830
 9657SOL    HW129549   4.122   3.464   0.883  0.1629 -0.0768  0.9942
 9657SOL    HW229550   4.028   3.467   1.001 -1.4044 -1.5144 -0.1651
 9658SOL     OW29551   2.457   6.286   8.546  0.2335  0.2759  0.3248
 9658SOL    HW129552   2.406   6.207   8.562  0.1564  0.3559  0.4756
 9658SOL    HW229553   2.403   6.357   8.579  0.5176  0.3446  0.6554
 9659SOL     OW29554   1.135   1.881   0.834 -0.5711  0.0394  0.2238
 9659SOL    HW129555   1.046   1.848   0.826 -0.0457 -1.0736 -1.6190
 9659SOL    HW229556   1.144   1.942   0.761 -0.6051  2.2338  1.9259
 9660SOL     OW29557   5.669   1.543   1.380  0.1596 -0.4069 -0.0733
 9660SOL    HW129558   5.724   1.581   1.312  0.3943 -1.0987 -0.2825
 9660SOL    HW229559   5.620   1.473   1.334 -0.2930 -0.3284  0.2849
 9661SOL     OW29560   1.103   2.980   9.322 -0.6222 -0.8412  0.1707
 9661SOL    HW129561   1.176   2.980   9.385 -0.0924  0.9587 -0.3689
 9661SOL    HW229562   1.122   2.907   9.263 -0.0994 -1.3670  0.9745
 9662SOL     OW29563   3.692   2.537   2.922  1.2748  0.2934 -0.0553
 9662SOL    HW129564   3.787   2.533   2.923  1.2349 -1.0476  0.9885
 9662SOL    HW229565   3.664   2.447   2.938 -0.1532  1.0272  1.9909
 9663SOL     OW29566   5.249   8.674   7.764 -0.9912  0.7086 -0.0886
 9663SOL    HW129567   5.305   8.640   7.834  1.0021  0.1657 -1.8129
 9663SOL    HW229568   5.164   8.634   7.779 -0.2156 -0.5529  1.1924
 9664SOL     OW29569   3.134   1.843   5.291 -0.1951  0.5208 -0.3208
 9664SOL    HW129570   3.196   1.849   5.218 -0.5644  0.6375 -0.6273
 9664SOL    HW229571   3.072   1.914   5.275 -0.4734  0.3318 -0.0723
 9665SOL     OW29572   6.439   3.661   9.101  0.1080 -0.0262 -0.1171
 9665SOL    HW129573   6.456   3.649   9.008  0.5183  0.3257 -0.0889
 9665SOL    HW229574   6.444   3.572   9.138 -1.2674 -0.3370 -0.6142
 9666SOL     OW29575   5.234   8.953   1.527 -0.0009  0.2771 -0.1368
 9666SOL    HW129576   5.279   8.872   1.507 -0.3857  0.1187 -0.3747
 9666SOL    HW229577   5.297   9.004   1.579  0.3642 -0.0268 -0.2811
 9667SOL     OW29578   7.570   0.969   8.131 -0.3938  0.2414 -0.0727
 9667SOL    HW129579   7.640   0.906   8.113 -2.1671 -1.1152 -2.9477
 9667SOL    HW229580   7.541   0.949   8.220  1.2220 -0.8041  0.2425
 9668SOL     OW29581   5.318   6.040   8.468 -0.1818  0.1828  0.0251
 9668SOL    HW129582   5.242   5.984   8.452 -0.5304  0.5140  0.4717
 9668SOL    HW229583   5.376   6.025   8.394 -1.1512  0.7039 -0.8581
 9669SOL     OW29584   2.903   8.404   1.612  0.0789  0.6263 -0.1778
 9669SOL    HW129585   2.991   8.435   1.590 -0.0769 -0.3875 -2.5283
 9669SOL    HW229586   2.908   8.309   1.602 -0.9739  0.4218  0.9564
 9670SOL     OW29587   5.313   9.366   2.317  0.2533 -0.2417 -0.6438
 9670SOL    HW129588   5.251   9.304   2.353 -0.4769  0.4356 -0.7116
 9670SOL    HW229589   5.263   9.415   2.251  0.9830 -0.0148 -1.0429
 9671SOL     OW29590   6.449   9.909   5.331 -0.3067  0.7784 -0.6040
 9671SOL    HW129591   6.509   9.867   5.269 -0.4829 -0.6686  0.1623
 9671SOL    HW229592   6.471  10.002   5.327  0.3628  0.5814 -2.0898
 9672SOL     OW29593   9.121   7.063   7.524 -0.3023 -0.0660  0.0035
 9672SOL    HW129594   9.154   7.152   7.510 -1.7368  0.4221 -0.5256
 9672SOL    HW229595   9.093   7.034   7.437 -0.0616 -0.9498  0.2138
 9673SOL     OW29596   0.942   1.918   0.323  0.3470 -0.3498 -0.1233
 9673SOL    HW129597   1.025   1.937   0.278  0.0778  1.9714  0.2197
 9673SOL    HW229598   0.879   1.906   0.253  0.8532 -1.6282 -0.3831
 9674SOL     OW29599   0.123   5.371   0.957 -0.4084 -0.3673 -0.2438
 9674SOL    HW129600   0.111   5.335   1.045 -0.0932  0.7958  0.2924
 9674SOL    HW229601   0.212   5.408   0.959 -0.7456  0.4868 -0.7481
 9675SOL     OW29602   0.962   3.933   3.857  0.2419  0.0591 -0.6271
 9675SOL    HW129603   0.932   4.024   3.866 -0.5352 -0.2091 -0.4039
 9675SOL    HW229604   0.895   3.892   3.802  0.1353 -0.5837 -0.0295
 9676SOL     OW29605   4.862   9.425   8.266 -0.0248 -0.1964  0.5146
 9676SOL    HW129606   4.912   9.364   8.212  0.8367 -0.0038  1.0729
 9676SOL    HW229607   4.868   9.508   8.219 -1.8676 -0.6598 -0.6658
 9677SOL     OW29608   8.237   1.675   2.267  0.1362 -0.2331 -0.0898
 9677SOL    HW129609   8.202   1.680   2.178  2.0483 -0.6385 -0.9230
 9677SOL    HW229610   8.277   1.588   2.272  1.2746  0.3098  0.6706
 9678SOL     OW29611   6.941   3.167   9.288 -0.1245 -0.4334 -0.0539
 9678SOL    HW129612   6.966   3.112   9.362  0.2038 -0.2938 -0.0603
 9678SOL    HW229613   6.854   3.135   9.263  0.7182 -2.0534 -1.0988
 9679SOL     OW29614   2.873   5.390   2.441 -0.0669  0.1725 -0.0001
 9679SOL    HW129615   2.824   5.438   2.508 -0.5210 -1.0537  0.5773
 9679SOL    HW229616   2.960   5.429   2.442 -0.1626  0.3960  1.0830
 9680SOL     OW29617   9.780   0.205   7.461 -0.2249  0.2399  0.3376
 9680SOL    HW129618   9.838   0.268   7.504  0.1054 -0.3670  0.7971
 9680SOL    HW229619   9.836   0.162   7.396  0.5978 -2.0912  2.4208
 9681SOL     OW29620   6.002   1.249   8.037 -0.1494 -0.2514  0.8106
 9681SOL    HW129621   6.091   1.248   8.072 -0.2615  0.3026  1.1098
 9681SOL    HW229622   6.013   1.271   7.945  0.2122 -2.4388  0.2597
 9682SOL     OW29623   4.142   1.765   8.420  0.4997  0.0997  0.6145
 9682SOL    HW129624   4.090   1.700   8.466  0.1648 -1.4617 -1.7987
 9682SOL    HW229625   4.156   1.728   8.333  1.7983  2.5009 -0.3061
 9683SOL     OW29626   2.313   7.558   4.933 -0.2258  0.3788 -0.4987
 9683SOL    HW129627   2.291   7.517   4.850  2.6075  0.3232 -1.3268
 9683SOL    HW229628   2.288   7.650   4.922 -3.0237 -0.2272 -0.0502
 9684SOL     OW29629   4.801   7.983   7.470 -0.6228 -0.7144  0.4918
 9684SOL    HW129630   4.803   8.041   7.395  2.0839 -1.0294  0.2393
 9684SOL    HW229631   4.741   8.025   7.532  0.7650  2.0424  0.0833
 9685SOL     OW29632   2.228   7.366   5.130 -0.0849  0.1417  0.1108
 9685SOL    HW129633   2.200   7.417   5.206 -2.9998 -1.1013  0.0091
 9685SOL    HW229634   2.264   7.430   5.070  0.6354  1.3938  1.7956
 9686SOL     OW29635   8.811   0.025   9.297  0.0803  0.1839 -0.3096
 9686SOL    HW129636   8.859   0.107   9.310 -2.7207  1.8904  0.2260
 9686SOL    HW229637   8.805  -0.014   9.384  0.2338  0.1273 -0.3245
 9687SOL     OW29638   8.674   8.597   6.479 -0.4763  0.1423 -0.2608
 9687SOL    HW129639   8.719   8.517   6.507 -1.6417 -0.1688  0.8421
 9687SOL    HW229640   8.643   8.577   6.391  0.7450  0.0345 -0.6774
 9688SOL     OW29641   4.153   3.916   1.642 -0.0611  0.8091  0.4737
 9688SOL    HW129642   4.110   3.926   1.727 -1.0209  1.4960 -0.0725
 9688SOL    HW229643   4.234   3.964   1.650  0.2158  0.2404  1.2375
 9689SOL     OW29644   4.024   6.015   6.825  0.6691  0.6947  0.0251
 9689SOL    HW129645   4.060   5.974   6.747  0.3782 -1.6439  1.0333
 9689SOL    HW229646   4.095   6.012   6.889  0.1293  0.1827  0.6212
 9690SOL     OW29647   9.877   6.202   7.601  0.1634 -0.1700  0.3737
 9690SOL    HW129648   9.800   6.207   7.545  0.4320  0.5109  0.0632
 9690SOL    HW229649   9.850   6.143   7.672 -0.6983  0.1879  0.3578
 9691SOL     OW29650   3.398   4.005   8.702 -0.0965  0.3481 -0.6992
 9691SOL    HW129651   3.395   4.039   8.791  0.1482 -0.2790 -0.4465
 9691SOL    HW229652   3.480   3.955   8.697  0.3592  1.1457 -1.5608
 9692SOL     OW29653   9.293   9.313   7.222 -0.0376 -0.4475 -0.1598
 9692SOL    HW129654   9.286   9.306   7.127  1.2150 -0.7833 -0.2520
 9692SOL    HW229655   9.384   9.338   7.237 -0.2379 -0.3453  0.9545
 9693SOL     OW29656   2.869   3.266   3.534  0.4358 -0.2232  0.3995
 9693SOL    HW129657   2.843   3.318   3.610 -0.7696 -0.9041  0.4795
 9693SOL    HW229658   2.964   3.276   3.529  0.3628  1.0215  1.1025
 9694SOL     OW29659   5.105   3.922   1.823 -0.5782  0.4767 -0.1525
 9694SOL    HW129660   5.163   3.939   1.897  1.1754  0.8954 -1.5553
 9694SOL    HW229661   5.156   3.864   1.766 -2.5566 -1.2989 -0.2487
 9695SOL     OW29662   7.599   4.180   4.476 -0.5530  0.6189  0.2215
 9695SOL    HW129663   7.643   4.158   4.558  0.8948  1.0842 -0.3955
 9695SOL    HW229664   7.606   4.101   4.423 -0.2614  0.7735  0.0327
 9696SOL     OW29665   1.784   7.677   4.715  0.2602 -0.0260  0.3380
 9696SOL    HW129666   1.792   7.705   4.624  1.1181 -0.1334  0.3702
 9696SOL    HW229667   1.827   7.591   4.718  0.2523 -0.0167  0.8415
 9697SOL     OW29668   4.137   3.838   3.908  1.0934 -0.2002  0.1700
 9697SOL    HW129669   4.066   3.868   3.965  2.3558  2.0536  0.6443
 9697SOL    HW229670   4.119   3.879   3.823  0.7141 -1.3575 -0.3374
 9698SOL     OW29671   2.384   7.730   6.797  0.0512 -0.0882 -0.0322
 9698SOL    HW129672   2.337   7.664   6.848  0.1208  0.7935  1.1884
 9698SOL    HW229673   2.429   7.679   6.729 -0.9965 -1.1516  0.0399
 9699SOL     OW29674   9.380   1.059   4.802 -0.2013  0.1655  0.2610
 9699SOL    HW129675   9.360   1.045   4.710 -1.2907  0.9845  0.3415
 9699SOL    HW229676   9.442   1.132   4.803  0.9368 -0.7784  0.1243
 9700SOL     OW29677   3.648   7.212   9.257  0.2528 -0.0797 -0.7685
 9700SOL    HW129678   3.621   7.121   9.250 -1.2851  0.3623 -0.9334
 9700SOL    HW229679   3.602   7.256   9.185 -0.8821  1.2322  0.6926
 9701SOL     OW29680   7.978   9.827   5.286  0.3850  0.2485  0.3340
 9701SOL    HW129681   8.048   9.858   5.230  0.1629  0.7550  0.3257
 9701SOL    HW229682   7.951   9.743   5.249 -0.9725  1.3898 -1.4244
 9702SOL     OW29683   6.396   5.693   5.631 -0.8177 -0.3376  0.0931
 9702SOL    HW129684   6.375   5.610   5.673 -1.1314 -0.8645 -1.0707
 9702SOL    HW229685   6.491   5.692   5.621 -0.8490 -0.6912 -0.1831
 9703SOL     OW29686   7.805   0.210   0.914 -0.1270 -0.4715  0.2928
 9703SOL    HW129687   7.755   0.275   0.964  0.8413  0.4749  0.0647
 9703SOL    HW229688   7.896   0.233   0.929  0.2073 -0.8565 -1.0055
 9704SOL     OW29689   4.110   5.490   2.622 -0.0922 -0.6200 -0.4376
 9704SOL    HW129690   4.103   5.417   2.684 -0.2854 -0.7283 -0.5865
 9704SOL    HW229691   4.175   5.461   2.558  0.7941 -0.1377  0.2213
 9705SOL     OW29692   7.302   1.682   5.596  0.4958  0.2954 -0.9372
 9705SOL    HW129693   7.272   1.593   5.581 -1.0971  0.5170  0.5176
 9705SOL    HW229694   7.221   1.733   5.605  1.3588  1.8179 -1.3614
 9706SOL     OW29695   4.673   6.465   3.838  0.5235 -1.1243 -0.0101
 9706SOL    HW129696   4.614   6.395   3.810  1.1018 -1.6526  0.0871
 9706SOL    HW229697   4.704   6.504   3.756 -1.2696  0.2903 -0.0730
 9707SOL     OW29698   8.277   8.405   9.403  0.1873 -0.2810  0.0734
 9707SOL    HW129699   8.352   8.426   9.458  1.6040 -1.5643 -1.2619
 9707SOL    HW229700   8.280   8.309   9.395  0.1814 -0.1308 -2.3517
 9708SOL     OW29701   8.041   5.108   5.788 -0.0557  0.3058  0.7010
 9708SOL    HW129702   8.049   5.071   5.876  0.3731 -1.0243  0.1251
 9708SOL    HW229703   8.055   5.034   5.729 -2.1885  0.7881 -0.5113
 9709SOL     OW29704   1.114   8.139   6.607 -0.4267  0.4693  0.1464
 9709SOL    HW129705   1.136   8.179   6.691  1.2730  1.2606 -0.6176
 9709SOL    HW229706   1.195   8.146   6.556 -0.8487 -1.6850 -0.9110
 9710SOL     OW29707   8.272   1.719   7.911 -0.3732  0.0139 -0.9698
 9710SOL    HW129708   8.311   1.631   7.913 -0.7309 -0.1351 -0.4799
 9710SOL    HW229709   8.347   1.778   7.905 -0.1638 -0.3618 -3.0382
 9711SOL     OW29710   0.968   2.371   3.796 -0.3901  0.4421 -0.3312
 9711SOL    HW129711   0.959   2.295   3.738  0.6650  1.3120 -1.6860
 9711SOL    HW229712   0.910   2.352   3.869 -0.2038 -1.6490 -0.6646
 9712SOL     OW29713   3.288   7.089   9.487  0.1445  0.8619  0.2991
 9712SOL    HW129714   3.319   7.170   9.528 -0.8731  0.8814  1.0719
 9712SOL    HW229715   3.265   7.115   9.397  1.7903  0.9582 -0.1166
 9713SOL     OW29716   0.958   7.684   4.819  0.6913  0.2272 -0.1399
 9713SOL    HW129717   0.980   7.591   4.805 -0.2038  0.0677 -0.5719
 9713SOL    HW229718   0.878   7.682   4.871 -0.8901  0.6754 -2.4101
 9714SOL     OW29719   3.383   2.184   9.515  0.6703  0.5360  0.1715
 9714SOL    HW129720   3.388   2.276   9.489 -1.6946  1.5798  2.9216
 9714SOL    HW229721   3.365   2.186   9.609 -1.6242 -2.6567 -0.0221
 9715SOL     OW29722   2.259   3.518   5.613  0.4043 -0.2336 -0.0354
 9715SOL    HW129723   2.286   3.537   5.523 -1.4448 -1.0483 -0.8128
 9715SOL    HW229724   2.203   3.592   5.637  1.1069  0.1154  0.5707
 9716SOL     OW29725   2.716   2.891   4.768 -0.2180 -0.2612 -0.1659
 9716SOL    HW129726   2.801   2.909   4.728  0.4052  1.0080  1.6317
 9716SOL    HW229727   2.736   2.866   4.858 -1.7175 -0.7556  0.0599
 9717SOL     OW29728   4.631   6.307   8.625 -0.1748  0.4813  0.3433
 9717SOL    HW129729   4.670   6.315   8.712  1.5365 -1.8419 -0.1249
 9717SOL    HW229730   4.537   6.323   8.639 -0.0469 -0.5305  2.7392
 9718SOL     OW29731   4.381   8.226   4.122 -0.2085 -0.2844 -1.0884
 9718SOL    HW129732   4.412   8.317   4.124  1.6619 -0.8603  1.5521
 9718SOL    HW229733   4.288   8.232   4.142  0.0708  1.0450 -0.0439
 9719SOL     OW29734   0.155   6.481   0.053 -0.6592  0.2952 -0.2287
 9719SOL    HW129735   0.143   6.515   0.141 -2.1895 -0.3364 -0.1676
 9719SOL    HW229736   0.211   6.546   0.010 -1.5679  1.6704  0.5871
 9720SOL     OW29737   1.976   2.318   4.360 -0.6127 -0.3864 -0.4647
 9720SOL    HW129738   1.966   2.298   4.453 -1.3925 -0.0938 -0.4744
 9720SOL    HW229739   1.900   2.276   4.319  0.2382 -1.3538 -1.1104
 9721SOL     OW29740   7.173   6.174   5.824  0.1086 -0.1026 -0.1187
 9721SOL    HW129741   7.159   6.093   5.874 -0.7988  0.7858  1.1243
 9721SOL    HW229742   7.185   6.242   5.891  0.7862  0.8207 -1.1371
 9722SOL     OW29743   6.649   9.902   1.597  0.4139  0.1215  0.1804
 9722SOL    HW129744   6.738   9.883   1.625  0.3238  0.4819  0.7291
 9722SOL    HW229745   6.658   9.943   1.511  0.7354 -0.4411 -0.0507
 9723SOL     OW29746   2.401   3.177   9.041  0.2355 -0.0370  0.0748
 9723SOL    HW129747   2.334   3.243   9.024 -1.7007 -1.9825 -0.3788
 9723SOL    HW229748   2.479   3.210   8.996 -0.4109  2.2664  0.5150
 9724SOL     OW29749   9.734   5.392   0.286  0.4297 -0.7476 -0.9625
 9724SOL    HW129750   9.796   5.334   0.330 -0.2720 -2.4637 -2.1635
 9724SOL    HW229751   9.779   5.418   0.205  1.1098  1.2007 -0.0383
 9725SOL     OW29752   8.170   3.009   4.938 -0.5646  0.6353 -0.0743
 9725SOL    HW129753   8.235   3.080   4.941  0.1838 -0.0614  0.7800
 9725SOL    HW229754   8.209   2.939   4.990 -2.6388  0.7227  1.7084
 9726SOL     OW29755   7.774   6.742   6.880 -0.1945 -0.2166 -0.4759
 9726SOL    HW129756   7.766   6.665   6.824  0.6070  0.8325 -2.1134
 9726SOL    HW229757   7.715   6.806   6.841 -0.7621  0.0742  0.8006
 9727SOL     OW29758   4.550   6.133   4.837  0.8397  0.4039  0.0132
 9727SOL    HW129759   4.508   6.219   4.843  2.9952  1.4750  0.4438
 9727SOL    HW229760   4.495   6.085   4.775 -1.3900  1.4666  1.0491
 9728SOL     OW29761   1.533   1.803   5.854  0.1881  0.1618  0.6709
 9728SOL    HW129762   1.536   1.890   5.815  0.4125 -0.1770 -0.0814
 9728SOL    HW229763   1.582   1.812   5.935  0.3480  0.6991  0.5210
 9729SOL     OW29764   9.339   3.044   0.309  0.1243 -0.0492  0.1716
 9729SOL    HW129765   9.301   3.129   0.333 -0.4250 -0.2890  0.1698
 9729SOL    HW229766   9.428   3.064   0.280  0.3306  0.4107  1.0983
 9730SOL     OW29767   6.227   4.477   1.312 -0.0652 -0.1860 -0.0337
 9730SOL    HW129768   6.239   4.536   1.237  0.4564 -1.0346 -0.6372
 9730SOL    HW229769   6.132   4.464   1.317 -0.2141  0.9358  0.3037
 9731SOL     OW29770   8.462   1.979   5.897  0.3238 -0.1586 -0.1667
 9731SOL    HW129771   8.402   2.038   5.852  0.0808 -1.4341 -1.5718
 9731SOL    HW229772   8.544   2.029   5.903 -0.5687  1.2466  0.9554
 9732SOL     OW29773   4.478   4.707   9.522 -0.4873  0.0968 -0.0524
 9732SOL    HW129774   4.553   4.665   9.565  0.4763  0.0190 -1.6872
 9732SOL    HW229775   4.420   4.635   9.499  0.1425 -0.1540 -0.9479
 9733SOL     OW29776   0.559   3.776   9.893  0.0751  0.6660  0.3009
 9733SOL    HW129777   0.503   3.854   9.890  1.1177  1.4348  0.4402
 9733SOL    HW229778   0.534   3.732   9.974 -0.3373  0.9870  0.3545
 9734SOL     OW29779   1.655   2.578   6.536 -0.1444 -0.2456 -0.1903
 9734SOL    HW129780   1.684   2.610   6.451 -0.5803 -0.1767 -0.3179
 9734SOL    HW229781   1.733   2.540   6.576  0.6320  1.7307  0.3138
 9735SOL     OW29782   7.132   5.034   8.452 -0.2758  0.3742 -0.2466
 9735SOL    HW129783   7.038   5.015   8.455  0.1701 -2.0697  0.2806
 9735SOL    HW229784   7.137   5.127   8.428 -2.7976  0.2562 -1.5932
 9736SOL     OW29785   6.710   6.829   5.320 -0.3975  0.5887 -0.1270
 9736SOL    HW129786   6.696   6.888   5.245 -0.1668 -0.4004 -0.9583
 9736SOL    HW229787   6.755   6.753   5.283 -0.9302 -0.2348  0.8843
 9737SOL     OW29788   0.259   3.723   2.718 -0.3343  0.1470  0.0041
 9737SOL    HW129789   0.244   3.637   2.757 -2.1784 -0.3393 -1.6419
 9737SOL    HW229790   0.194   3.780   2.759 -0.9019  0.1173 -0.8476
 9738SOL     OW29791   5.405   9.967   0.078  0.8429 -0.3768  0.8706
 9738SOL    HW129792   5.322   9.949   0.033  1.0729  0.0943  0.2492
 9738SOL    HW229793   5.461  10.007   0.011  1.3574 -0.1129  1.4491
 9739SOL     OW29794   5.591   1.878   7.092 -0.6634 -0.4881 -0.1777
 9739SOL    HW129795   5.525   1.814   7.120 -1.0756 -0.8816 -1.8891
 9739SOL    HW229796   5.540   1.945   7.046 -0.0415  0.1397  0.0402
 9740SOL     OW29797   9.784   1.188   8.002 -0.2634  0.2732  0.6190
 9740SOL    HW129798   9.848   1.256   7.982 -1.2839  0.9936 -0.3884
 9740SOL    HW229799   9.747   1.213   8.086  0.9264 -0.2837  1.3225
 9741SOL     OW29800   2.492   5.948   2.983 -0.0622 -0.0994 -0.2446
 9741SOL    HW129801   2.437   5.988   2.916  1.4428 -0.6442 -1.8720
 9741SOL    HW229802   2.436   5.945   3.061 -1.8072  0.7187 -1.4013
 9742SOL     OW29803   0.451   9.417   3.703 -0.1427  0.3559 -0.2662
 9742SOL    HW129804   0.512   9.392   3.772  1.2825  1.9163 -0.9057
 9742SOL    HW229805   0.376   9.358   3.715  1.0333 -0.9238  1.1695
 9743SOL     OW29806   0.127   6.560   4.207  0.0019  0.0199 -0.4442
 9743SOL    HW129807   0.202   6.504   4.190  1.1587  1.5234 -0.5478
 9743SOL    HW229808   0.153   6.646   4.172 -0.6857  1.2524  1.8585
 9744SOL     OW29809   6.108   8.458   3.895 -0.1396 -0.0171  0.3899
 9744SOL    HW129810   6.125   8.376   3.849 -2.5778 -0.4798  0.1549
 9744SOL    HW229811   6.086   8.521   3.826  1.1602  0.7046  0.6081
 9745SOL     OW29812   7.384   3.814   3.366 -0.1930 -0.4350 -0.0936
 9745SOL    HW129813   7.473   3.789   3.390 -0.5155 -1.9246 -0.3959
 9745SOL    HW229814   7.344   3.734   3.333 -1.7078  0.1650  0.1956
 9746SOL     OW29815   3.617   7.702   0.201 -0.1529 -0.0509  0.5295
 9746SOL    HW129816   3.616   7.607   0.202 -2.2454 -0.0739  0.0376
 9746SOL    HW229817   3.615   7.728   0.293 -1.0637 -0.5073  0.6472
 9747SOL     OW29818   7.620   4.399   3.276 -0.1711 -0.0690 -0.7031
 9747SOL    HW129819   7.684   4.353   3.330  0.6216  0.1637 -1.4202
 9747SOL    HW229820   7.642   4.375   3.186 -1.7508 -0.8071 -0.9342
 9748SOL     OW29821   4.285   2.342   4.684  0.0990 -0.0017 -0.0312
 9748SOL    HW129822   4.234   2.380   4.756  1.7945  1.6085  0.3875
 9748SOL    HW229823   4.373   2.331   4.720  0.6812 -0.3317 -1.4780
 9749SOL     OW29824   4.503   0.801   0.787  0.0378 -0.1529  0.2820
 9749SOL    HW129825   4.472   0.882   0.827 -0.6897 -0.5628  0.5609
 9749SOL    HW229826   4.507   0.738   0.859 -0.0172 -0.5370 -0.0449
 9750SOL     OW29827   1.696   2.917   4.461 -0.4635  0.3051 -0.5337
 9750SOL    HW129828   1.754   2.992   4.470 -0.0587 -0.0865  0.2570
 9750SOL    HW229829   1.673   2.915   4.368  1.4383 -0.0002 -1.0435
 9751SOL     OW29830   3.883   4.954   7.912 -0.5344 -0.1042  0.0745
 9751SOL    HW129831   3.857   4.862   7.912  0.7902 -0.5015  0.2580
 9751SOL    HW229832   3.943   4.962   7.987 -0.8614  0.9807  0.2397
 9752SOL     OW29833   6.561   2.791   2.772  0.0030  0.3303  0.4006
 9752SOL    HW129834   6.604   2.868   2.735  1.0819  0.9108  2.6731
 9752SOL    HW229835   6.544   2.814   2.864 -1.2153 -1.5257  0.7140
 9753SOL     OW29836   0.437   2.578   9.281 -0.0701 -0.8007  0.0441
 9753SOL    HW129837   0.496   2.506   9.259  0.2473 -0.5209 -0.0353
 9753SOL    HW229838   0.349   2.542   9.270  0.0824 -1.3493  0.5682
 9754SOL     OW29839   6.742   1.591   3.197 -0.2084  0.5658  0.2560
 9754SOL    HW129840   6.748   1.621   3.106 -0.1806 -1.7660 -0.5865
 9754SOL    HW229841   6.829   1.604   3.233 -0.3500  1.9844  0.1434
 9755SOL     OW29842   9.844   0.645   4.537 -0.3554  0.3015  0.0864
 9755SOL    HW129843   9.759   0.628   4.497 -0.1932  0.1054 -0.1739
 9755SOL    HW229844   9.849   0.584   4.610 -0.8322  0.9504  0.6693
 9756SOL     OW29845   8.707   8.675   1.009 -0.0187  0.1596 -0.1786
 9756SOL    HW129846   8.677   8.584   1.010 -1.2785  0.5510 -0.2497
 9756SOL    HW229847   8.797   8.670   0.977 -0.2974 -1.0087 -0.8587
 9757SOL     OW29848   8.460   6.013   6.324  0.1424  0.1969  0.6450
 9757SOL    HW129849   8.474   5.919   6.334 -0.7746  0.0953  1.1315
 9757SOL    HW229850   8.541   6.046   6.285 -0.3207 -1.1231 -1.6246
 9758SOL     OW29851   9.539   2.667   9.758 -0.4924 -0.5254  0.5161
 9758SOL    HW129852   9.617   2.718   9.735  0.6373 -2.2048  0.4332
 9758SOL    HW229853   9.530   2.680   9.853 -1.0895  0.9317  0.2910
 9759SOL     OW29854   6.756   8.237   0.362 -0.0843 -0.7293 -0.1217
 9759SOL    HW129855   6.786   8.326   0.342  1.2825 -1.6997 -2.8210
 9759SOL    HW229856   6.674   8.228   0.313  1.1556 -1.7668 -2.1140
 9760SOL     OW29857   2.936   8.829   5.107  0.6921 -0.0466 -0.3291
 9760SOL    HW129858   2.988   8.895   5.062 -1.4724  1.5196 -0.7110
 9760SOL    HW229859   2.906   8.770   5.038 -0.5368  0.8823 -0.6348
 9761SOL     OW29860   1.918   8.059   8.054 -0.7018 -0.3294  0.1809
 9761SOL    HW129861   1.941   7.987   7.996  1.1609 -0.1058  0.5732
 9761SOL    HW229862   1.925   8.022   8.142 -0.4352  0.1526  0.3618
 9762SOL     OW29863   9.505   4.614   8.482 -0.3345  0.9226  0.7677
 9762SOL    HW129864   9.541   4.542   8.534  2.7170  1.9883  0.2857
 9762SOL    HW229865   9.523   4.693   8.534 -0.8044  1.6545 -0.1405
 9763SOL     OW29866   9.173   4.919   0.447 -0.6469 -0.2800 -0.5884
 9763SOL    HW129867   9.169   4.959   0.360 -0.6088  0.5004 -0.2401
 9763SOL    HW229868   9.267   4.909   0.464 -0.5763  1.1184  0.0346
 9764SOL     OW29869   6.281   1.566   2.904  0.0653  0.8226  0.0652
 9764SOL    HW129870   6.237   1.642   2.866 -1.6660 -0.5899 -0.8911
 9764SOL    HW229871   6.339   1.603   2.971  0.8702  3.1455 -1.7607
 9765SOL     OW29872   2.711   3.106   0.298  0.2102 -0.0365 -0.7421
 9765SOL    HW129873   2.805   3.105   0.315  0.6710 -0.3700 -2.9686
 9765SOL    HW229874   2.699   3.177   0.234 -1.2616  0.8475  0.4387
 9766SOL     OW29875   2.239   2.525   0.098  0.5281 -0.1078  0.3665
 9766SOL    HW129876   2.281   2.612   0.098  0.6717 -0.0804  3.3122
 9766SOL    HW229877   2.222   2.508   0.006  2.2167  2.2161 -0.5082
 9767SOL     OW29878   7.638   2.614   0.745 -0.1285 -0.0752  0.0073
 9767SOL    HW129879   7.583   2.674   0.796 -2.0409 -1.2064 -0.6311
 9767SOL    HW229880   7.635   2.649   0.656 -0.8579 -0.8171 -0.2714
 9768SOL     OW29881   9.621   3.883   4.066  0.1039  0.2244 -0.1859
 9768SOL    HW129882   9.588   3.956   4.012  0.0049  1.0471  0.9504
 9768SOL    HW229883   9.708   3.865   4.030  0.7534  1.9123  0.4171
 9769SOL     OW29884   3.703   0.070   4.075 -0.0892  0.1702 -0.5058
 9769SOL    HW129885   3.633   0.054   4.138 -0.1416 -0.2338 -0.6626
 9769SOL    HW229886   3.726   0.162   4.088 -1.3243  0.6017 -1.1239
 9770SOL     OW29887   9.043   2.103  -0.007  0.2679  0.0677  0.1367
 9770SOL    HW129888   9.044   2.162   0.068  0.7585  0.3902 -0.1188
 9770SOL    HW229889   9.088   2.025   0.024  0.3764  0.1588  0.2094
 9771SOL     OW29890   4.964   1.865   2.320 -0.2466 -0.1785  0.2937
 9771SOL    HW129891   4.954   1.956   2.293 -0.5076 -0.2884  0.0154
 9771SOL    HW229892   4.909   1.857   2.398 -0.2247 -0.0978  0.3172
 9772SOL     OW29893   5.996   0.400   2.714 -0.3813 -0.2162  0.0509
 9772SOL    HW129894   5.917   0.375   2.665 -1.5307  0.3761  1.5267
 9772SOL    HW229895   6.059   0.423   2.646 -0.7965 -2.5485 -1.2392
 9773SOL     OW29896   7.814   1.360   1.427 -0.5601  0.9212  0.3590
 9773SOL    HW129897   7.789   1.377   1.336  0.7167  0.1969 -0.1687
 9773SOL    HW229898   7.877   1.288   1.420  0.6980  1.8454  1.6805
 9774SOL     OW29899   6.260   5.246   9.441 -0.0953 -1.0383 -0.0666
 9774SOL    HW129900   6.345   5.289   9.441 -0.4964 -0.2236 -0.6656
 9774SOL    HW229901   6.230   5.252   9.532 -0.4441  0.5876 -0.2644
 9775SOL     OW29902   2.920   3.917   0.405  0.1457  0.4075  0.0392
 9775SOL    HW129903   2.862   3.980   0.362 -1.5637 -0.9604  0.2392
 9775SOL    HW229904   2.943   3.959   0.488 -0.8581  0.8495  0.1141
 9776SOL     OW29905   9.780   4.844   0.528 -0.1740  0.1305  0.4671
 9776SOL    HW129906   9.756   4.757   0.558 -0.3071 -0.3108 -0.8436
 9776SOL    HW229907   9.863   4.832   0.482 -0.3760  0.6213 -0.0443
 9777SOL     OW29908   1.464   6.917   6.870  0.2856  0.2072  0.2796
 9777SOL    HW129909   1.398   6.983   6.850 -0.3945 -0.1602  1.2716
 9777SOL    HW229910   1.418   6.834   6.868  1.2716 -0.3527 -1.6121
 9778SOL     OW29911   4.545   9.180   6.994 -0.0976 -0.0063 -0.5454
 9778SOL    HW129912   4.534   9.165   6.900 -0.2268 -0.5371 -0.4472
 9778SOL    HW229913   4.460   9.157   7.032  0.7508 -2.5244  0.0255
 9779SOL     OW29914   6.848   0.671   1.267  0.0870 -0.2673 -0.4680
 9779SOL    HW129915   6.752   0.678   1.271  0.0223  1.1333 -2.6493
 9779SOL    HW229916   6.864   0.578   1.249 -0.6038 -1.1894  2.8722
 9780SOL     OW29917   5.517   7.620   5.472 -0.5708  0.1677 -0.4736
 9780SOL    HW129918   5.538   7.537   5.513 -1.5071 -0.7844 -1.8475
 9780SOL    HW229919   5.488   7.676   5.544 -2.6211 -1.5931  0.1789
 9781SOL     OW29920   7.068   0.918   3.271  0.6645 -0.4335 -0.2655
 9781SOL    HW129921   7.107   0.924   3.358 -0.9311  0.2317  0.4462
 9781SOL    HW229922   6.998   0.854   3.280 -0.4319  0.6598 -0.6600
 9782SOL     OW29923   8.123   3.122   8.245  0.0559 -0.2698  0.3514
 9782SOL    HW129924   8.138   3.062   8.172 -0.4971  0.1314 -0.1064
 9782SOL    HW229925   8.173   3.085   8.317  1.8841  0.1569 -0.6376
 9783SOL     OW29926   9.110   6.133   2.074  0.1754  0.3110 -0.1658
 9783SOL    HW129927   9.179   6.122   2.139  1.1882 -2.8190 -1.5553
 9783SOL    HW229928   9.156   6.132   1.990 -1.3369  0.9572 -1.0345
 9784SOL     OW29929   9.731   0.760   2.498  0.0643  0.1787 -0.4656
 9784SOL    HW129930   9.644   0.789   2.526 -0.0940 -0.3890 -0.3410
 9784SOL    HW229931   9.713   0.691   2.433  0.4203  0.1364 -0.5191
 9785SOL     OW29932   6.631   0.045   1.367  0.3674  0.0941 -0.5618
 9785SOL    HW129933   6.686   0.099   1.311  0.6223  0.5206  0.0770
 9785SOL    HW229934   6.542   0.060   1.336  0.6575 -1.4244 -2.2962
 9786SOL     OW29935   6.608   2.268   9.921 -0.0394  0.7226 -0.2022
 9786SOL    HW129936   6.564   2.183   9.922  1.5407 -0.1181  0.2533
 9786SOL    HW229937   6.544   2.328   9.960 -0.8978 -0.3934  0.1639
 9787SOL     OW29938   5.797   9.611   4.054 -0.6278  0.3725  0.0154
 9787SOL    HW129939   5.763   9.546   3.992  0.5587 -1.3808  1.0876
 9787SOL    HW229940   5.884   9.634   4.020 -1.3253  2.0313 -0.7531
 9788SOL     OW29941   2.864   5.444   3.390 -0.2756  0.3548  0.4024
 9788SOL    HW129942   2.957   5.420   3.387 -0.3907 -0.1858  1.0253
 9788SOL    HW229943   2.830   5.400   3.468 -0.9639  0.8896  0.4148
 9789SOL     OW29944   6.258   4.361   2.061 -0.3988 -0.1148  0.2925
 9789SOL    HW129945   6.259   4.447   2.104 -0.5637  0.3705 -0.6425
 9789SOL    HW229946   6.173   4.357   2.018  0.1224 -0.1751 -0.7692
 9790SOL     OW29947   1.344   2.772   1.140 -0.0227 -0.4683  0.0711
 9790SOL    HW129948   1.339   2.700   1.203  1.0967 -1.0811 -0.5086
 9790SOL    HW229949   1.437   2.778   1.117 -0.4640 -0.6845 -1.9870
 9791SOL     OW29950   6.799   5.813   2.849  0.3821 -0.5481  0.5006
 9791SOL    HW129951   6.888   5.806   2.885  0.2969 -3.2280  0.3911
 9791SOL    HW229952   6.746   5.848   2.921  0.9425 -2.0226  1.6711
 9792SOL     OW29953   7.590   2.811   9.787  0.3632  0.0887 -0.4337
 9792SOL    HW129954   7.547   2.850   9.863 -1.7787 -1.6931 -0.6109
 9792SOL    HW229955   7.681   2.839   9.794 -0.2803  2.0291  1.3779
 9793SOL     OW29956   9.810   3.419   0.342  0.0008  0.3458  1.0817
 9793SOL    HW129957   9.743   3.362   0.380 -2.1568  1.9213 -0.1317
 9793SOL    HW229958   9.787   3.507   0.372  3.3541  0.7461  3.0890
 9794SOL     OW29959   7.758   5.615   2.510  0.0176  0.1299  0.4126
 9794SOL    HW129960   7.672   5.573   2.509  1.3665 -2.9854 -1.0968
 9794SOL    HW229961   7.795   5.592   2.596 -0.4780  1.1798  0.9249
 9795SOL     OW29962   2.599   9.246   7.923  0.7549 -0.2745 -0.7019
 9795SOL    HW129963   2.563   9.255   8.012 -0.0822 -1.0713 -0.9406
 9795SOL    HW229964   2.610   9.152   7.911  0.7566 -0.1830 -1.4834
 9796SOL     OW29965   1.850   1.893   4.888  0.1124 -0.2752  0.4364
 9796SOL    HW129966   1.849   1.859   4.798  0.6843  0.5346  0.1019
 9796SOL    HW229967   1.767   1.865   4.926 -0.6585  0.3359 -0.7292
 9797SOL     OW29968   3.120   0.079   2.202 -0.4773  0.1218  0.2016
 9797SOL    HW129969   3.032   0.114   2.188 -1.2618 -1.2677  1.3280
 9797SOL    HW229970   3.122   0.058   2.296  1.3301  0.8137  0.3501
 9798SOL     OW29971   2.124   6.113   6.565  0.4135 -0.0896  0.6066
 9798SOL    HW129972   2.086   6.108   6.653  0.6491 -0.3099  0.6992
 9798SOL    HW229973   2.088   6.193   6.527 -0.3555 -0.4346  0.5903
 9799SOL     OW29974   8.660   3.268   9.002  0.3785  0.2389 -0.2878
 9799SOL    HW129975   8.625   3.181   8.982  1.1906 -0.2202  0.2293
 9799SOL    HW229976   8.592   3.310   9.055  0.3834 -0.4526  0.2775
 9800SOL     OW29977   7.126   9.108   0.133  0.0885 -0.0142 -0.2227
 9800SOL    HW129978   7.070   9.031   0.127  0.9171 -0.7587  0.9201
 9800SOL    HW229979   7.170   9.098   0.218 -0.8170  2.4416  0.6058
 9801SOL     OW29980   3.709   9.923   0.098 -0.2205  0.3522 -0.5885
 9801SOL    HW129981   3.622   9.953   0.071 -0.0698  0.8931 -0.4757
 9801SOL    HW229982   3.734   9.860   0.030  0.3508  2.0334 -2.0037
 9802SOL     OW29983   6.501   4.455   1.437 -0.4280  0.1710  0.2001
 9802SOL    HW129984   6.410   4.456   1.406  0.3824 -0.2051 -2.4260
 9802SOL    HW229985   6.524   4.362   1.440  0.1614  0.2974 -0.1754
 9803SOL     OW29986   6.972   2.515   3.986 -0.2489 -0.4636 -0.0526
 9803SOL    HW129987   7.007   2.562   4.062 -0.7731  0.8265 -0.5870
 9803SOL    HW229988   6.997   2.424   4.002  1.0826  0.0182  0.8502
 9804SOL     OW29989   6.627   0.825   5.125 -0.0628  0.4602  0.3109
 9804SOL    HW129990   6.656   0.807   5.036  0.9562  0.5121  0.6125
 9804SOL    HW229991   6.640   0.919   5.136 -0.4726  0.5060  0.4189
 9805SOL     OW29992   9.702   2.328   5.718  0.0632 -0.1266 -0.4370
 9805SOL    HW129993   9.727   2.360   5.631  0.3160 -0.3638 -0.4545
 9805SOL    HW229994   9.607   2.325   5.716  0.0873 -1.8365 -1.3489
 9806SOL     OW29995   5.491   9.761   9.353 -0.3851 -0.3929  0.4908
 9806SOL    HW129996   5.519   9.701   9.422  0.7277 -0.2023  0.2176
 9806SOL    HW229997   5.542   9.735   9.276 -0.0154  0.7791  0.3236
 9807SOL     OW29998   2.724   0.579   3.001  0.1934 -0.8458  0.0261
 9807SOL    HW129999   2.684   0.637   3.066 -1.3546 -0.6521 -1.0416
 9807SOL    HW230000   2.809   0.620   2.981  0.5291 -0.7139  1.6018
 9808SOL     OW30001   3.649   8.805   4.462 -0.5540  0.0183 -0.0257
 9808SOL    HW130002   3.712   8.872   4.434 -0.3896 -0.3054 -0.4445
 9808SOL    HW230003   3.665   8.794   4.556 -1.4104  1.4341  0.3147
 9809SOL     OW30004   7.103   1.556   3.451 -0.3813 -0.1350  0.3592
 9809SOL    HW130005   7.165   1.483   3.453  0.3533  0.1875 -3.3887
 9809SOL    HW230006   7.018   1.515   3.439 -0.0405 -0.4457 -1.1534
 9810SOL     OW30007   2.451   7.393   3.865 -0.1610  0.1777  0.1028
 9810SOL    HW130008   2.402   7.371   3.785  1.9085 -0.8320 -0.9795
 9810SOL    HW230009   2.427   7.483   3.884 -0.3900  0.5917 -1.9237
 9811SOL     OW30010   6.512   1.561   3.749 -0.1377 -0.5193  0.5438
 9811SOL    HW130011   6.460   1.484   3.727 -1.6339  0.5085  0.3635
 9811SOL    HW230012   6.539   1.596   3.664 -0.1227 -0.3979  0.5990
 9812SOL     OW30013   8.094   1.749   3.759 -0.0157  0.2805 -0.3503
 9812SOL    HW130014   8.157   1.808   3.802 -0.0126 -0.6991  1.0534
 9812SOL    HW230015   8.009   1.782   3.786 -0.0126 -0.3845  0.5314
 9813SOL     OW30016   0.052   0.935   2.774  0.5798 -0.8010 -0.0060
 9813SOL    HW130017  -0.015   0.967   2.713  1.1827 -1.1809 -0.8954
 9813SOL    HW230018   0.079   1.012   2.823  0.9963 -0.2094 -1.1258
 9814SOL     OW30019   2.614   7.986   5.493 -0.5333 -0.0655  0.4938
 9814SOL    HW130020   2.584   8.074   5.517 -0.4540 -0.5586  2.6204
 9814SOL    HW230021   2.706   7.999   5.469 -0.6602  0.5060  0.2908
 9815SOL     OW30022   6.084   8.207   0.129 -0.3827 -0.4746  0.0638
 9815SOL    HW130023   6.164   8.247   0.163 -0.1841 -2.6042  2.3312
 9815SOL    HW230024   6.015   8.270   0.150  0.1523 -0.4704  1.9466
 9816SOL     OW30025   3.033   2.099   6.011  0.3082  0.2561 -0.2980
 9816SOL    HW130026   3.060   2.090   6.102 -1.3996 -0.3046  0.1779
 9816SOL    HW230027   3.046   2.012   5.973  1.1512  0.5233 -0.6489
 9817SOL     OW30028   0.942   0.304   0.571  0.2220 -0.2259  0.2229
 9817SOL    HW130029   0.957   0.396   0.593 -1.1341  0.0753 -0.0309
 9817SOL    HW230030   1.023   0.259   0.596  1.3357  1.2035 -0.6896
 9818SOL     OW30031   4.796   9.782   5.459  0.3939  0.1757  0.0256
 9818SOL    HW130032   4.883   9.743   5.454 -1.0697 -3.6491  0.7485
 9818SOL    HW230033   4.765   9.785   5.368  0.6021 -0.1794 -0.0564
 9819SOL     OW30034   1.767   3.838   3.297  0.3674 -0.5986 -0.1318
 9819SOL    HW130035   1.692   3.893   3.274 -0.2073 -1.4552 -0.3451
 9819SOL    HW230036   1.813   3.888   3.365 -2.1473 -1.3744  2.3753
 9820SOL     OW30037   8.487   6.237   2.470  0.0886 -0.4502 -0.8791
 9820SOL    HW130038   8.488   6.203   2.560 -0.8635 -1.0642 -1.0822
 9820SOL    HW230039   8.439   6.171   2.420  0.6099 -0.1132 -1.8475
 9821SOL     OW30040   0.912   7.617   8.381 -0.2562  0.1073 -0.8820
 9821SOL    HW130041   0.892   7.584   8.468  0.1117 -1.8897 -1.4949
 9821SOL    HW230042   0.830   7.655   8.350 -0.2711  1.2564  0.4641
 9822SOL     OW30043   0.167   7.123   6.117  0.4743  0.2768  0.0195
 9822SOL    HW130044   0.238   7.187   6.124  2.4147 -1.6648 -0.6748
 9822SOL    HW230045   0.131   7.137   6.029  0.9512  0.3526 -0.1667
 9823SOL     OW30046   5.259   6.037   1.291  0.2615 -0.1615  0.2967
 9823SOL    HW130047   5.242   6.122   1.250 -0.0940  0.8998  2.5177
 9823SOL    HW230048   5.203   6.036   1.368  1.1244 -1.9380  0.9501
 9824SOL     OW30049   3.424   8.488   4.482  0.3809 -0.3723 -0.5254
 9824SOL    HW130050   3.377   8.464   4.562  2.0156 -0.1773  0.5700
 9824SOL    HW230051   3.359   8.485   4.413 -0.7534 -2.0953  0.5551
 9825SOL     OW30052   1.787   9.394   9.251 -0.1112  0.3579 -0.6146
 9825SOL    HW130053   1.833   9.459   9.304 -0.0739  0.0122 -0.2296
 9825SOL    HW230054   1.825   9.404   9.163  1.1348 -0.3418 -0.1741
 9826SOL     OW30055   4.346   8.691   9.629 -0.3504 -0.1173 -0.2276
 9826SOL    HW130056   4.343   8.785   9.611  2.5934 -0.1056 -1.2247
 9826SOL    HW230057   4.370   8.651   9.546 -0.6225 -1.6630  0.3952
 9827SOL     OW30058   2.295   6.053   8.573  0.0222 -0.7129 -0.0937
 9827SOL    HW130059   2.203   6.046   8.549  0.0556 -0.8409 -0.1877
 9827SOL    HW230060   2.333   5.968   8.547 -0.3727 -1.7226  2.3719
 9828SOL     OW30061   5.280   6.524   7.018 -0.0759  0.2622  0.2092
 9828SOL    HW130062   5.187   6.508   7.035  0.0709 -0.6167  0.2363
 9828SOL    HW230063   5.298   6.608   7.060 -0.8882  0.5067  0.0854
 9829SOL     OW30064   3.670   6.643   8.546  0.3155  0.7807  0.1964
 9829SOL    HW130065   3.696   6.603   8.629 -0.5398  0.9674  0.5638
 9829SOL    HW230066   3.751   6.680   8.511  0.7482  0.4068  0.7829
 9830SOL     OW30067   0.223   8.067   5.610  0.1999 -0.2124  0.5573
 9830SOL    HW130068   0.247   8.008   5.681 -2.0590 -0.7524  0.9349
 9830SOL    HW230069   0.287   8.138   5.616 -0.3527  0.1689  3.6675
 9831SOL     OW30070   2.510   7.294   9.639 -0.0044 -0.3774  0.4922
 9831SOL    HW130071   2.465   7.377   9.622  1.0199  0.3056  0.9782
 9831SOL    HW230072   2.530   7.260   9.552  0.8509  0.6363  0.2631
 9832SOL     OW30073   3.386   8.205   8.615 -0.7203  0.1767  0.0007
 9832SOL    HW130074   3.375   8.116   8.649 -0.4177 -0.5597 -1.6890
 9832SOL    HW230075   3.380   8.262   8.691 -2.7331 -1.1554  0.9088
 9833SOL     OW30076   0.130   9.027   7.647 -0.2789 -0.2301  0.2335
 9833SOL    HW130077   0.169   9.109   7.675 -0.0100 -0.8155  1.6585
 9833SOL    HW230078   0.037   9.045   7.641 -0.1190  0.4254 -0.4270
 9834SOL     OW30079   6.911   7.274   0.717 -0.3030  0.2646 -0.1405
 9834SOL    HW130080   6.908   7.232   0.803 -2.0324 -1.3654 -0.9165
 9834SOL    HW230081   6.962   7.214   0.662 -0.1787  0.7135 -0.5251
 9835SOL     OW30082   0.016   9.461   3.078 -0.5261  0.0160  0.3436
 9835SOL    HW130083   0.062   9.379   3.060  0.4204  1.1038 -3.0347
 9835SOL    HW230084   0.084   9.528   3.069 -1.3028  1.2622  2.8757
 9836SOL     OW30085   6.309   1.250   6.466 -0.4753  0.2038  0.3312
 9836SOL    HW130086   6.383   1.306   6.490 -0.7823  0.1682  1.4251
 9836SOL    HW230087   6.298   1.263   6.372  1.3305 -0.2885  0.0140
 9837SOL     OW30088   7.328   8.500   7.438  0.1559  0.4114 -0.3525
 9837SOL    HW130089   7.411   8.542   7.461 -0.6241  0.3636  3.0657
 9837SOL    HW230090   7.265   8.572   7.433  0.4141  0.5354 -3.6733
 9838SOL     OW30091   1.164   8.304   1.906 -0.3712  0.0628 -0.2057
 9838SOL    HW130092   1.167   8.399   1.893 -0.0972  0.0607 -0.1657
 9838SOL    HW230093   1.100   8.273   1.842 -0.0263  0.2053 -0.6205
 9839SOL     OW30094   8.184   9.858   0.583  0.5058  0.0724 -0.6736
 9839SOL    HW130095   8.236   9.797   0.635 -0.5875  0.2248  0.6555
 9839SOL    HW230096   8.122   9.895   0.645 -1.5461 -0.4808 -2.2973
 9840SOL     OW30097   2.713   5.348   2.014  0.5124  0.2995 -0.0797
 9840SOL    HW130098   2.634   5.343   2.068  0.7986  0.7814  0.4020
 9840SOL    HW230099   2.776   5.291   2.058  0.0381 -1.1354 -1.1903
 9841SOL     OW30100   7.313   6.129   6.675 -0.1450  0.1289 -0.0832
 9841SOL    HW130101   7.223   6.120   6.708 -0.0576 -1.5016 -0.1871
 9841SOL    HW230102   7.360   6.171   6.747 -0.6484 -0.4961  0.6330
 9842SOL     OW30103   3.063   3.873   6.417  0.4912  0.1797 -0.6867
 9842SOL    HW130104   3.013   3.825   6.351 -0.6682  0.2183  0.1268
 9842SOL    HW230105   3.137   3.816   6.438 -0.3772 -0.8738 -0.3710
 9843SOL     OW30106   0.179   8.635   7.795 -0.3537  0.2296 -0.2902
 9843SOL    HW130107   0.198   8.628   7.702  1.6107  0.3507  0.0574
 9843SOL    HW230108   0.169   8.545   7.825  0.7921  0.0933 -0.2995
 9844SOL     OW30109   8.880   8.534   6.215  0.2557  0.6599  0.6058
 9844SOL    HW130110   8.914   8.508   6.129 -0.1685 -0.0199  0.6314
 9844SOL    HW230111   8.785   8.522   6.207  0.3045 -0.6312  1.5470
 9845SOL     OW30112   6.882   5.031   5.696  0.2051  0.5791  0.2354
 9845SOL    HW130113   6.855   5.110   5.742 -1.8619  0.1524 -0.1215
 9845SOL    HW230114   6.851   4.959   5.751  0.3306  0.0449 -0.3734
 9846SOL     OW30115   1.279   9.476   0.289 -0.7577  0.5824 -0.2609
 9846SOL    HW130116   1.362   9.486   0.242 -0.3984  0.8254  0.4061
 9846SOL    HW230117   1.213   9.510   0.229 -0.4314  0.0224 -0.9649
 9847SOL     OW30118   1.788   3.189   6.034 -0.5387 -0.8302  0.3016
 9847SOL    HW130119   1.743   3.143   5.963  0.4048  0.9506 -1.5504
 9847SOL    HW230120   1.881   3.176   6.016 -0.2846  0.1217  0.8671
 9848SOL     OW30121   2.386   4.149   1.496  0.1547  0.8240 -0.1666
 9848SOL    HW130122   2.470   4.103   1.501 -0.1231  0.2466 -0.7079
 9848SOL    HW230123   2.328   4.088   1.450 -0.5507  1.2348  0.1620
 9849SOL     OW30124   4.262   1.948   6.292  0.1787  0.2628 -0.0240
 9849SOL    HW130125   4.327   2.001   6.338  1.6079 -0.9767 -0.5027
 9849SOL    HW230126   4.256   1.868   6.344  0.0410 -0.1752 -0.6958
 9850SOL     OW30127   4.724   0.245   8.496  0.4528  0.2708  0.0568
 9850SOL    HW130128   4.788   0.173   8.490 -0.6934 -0.7031 -0.8658
 9850SOL    HW230129   4.778   0.324   8.495  1.7028 -0.5382  0.1739
 9851SOL     OW30130   1.364   2.419   4.656  0.9566  0.1039 -0.4282
 9851SOL    HW130131   1.299   2.431   4.586  1.5162  0.4472 -0.8913
 9851SOL    HW230132   1.406   2.505   4.665 -0.7711  0.7882  2.0277
 9852SOL     OW30133   4.763   6.029   1.472 -0.3233 -0.2352 -0.5803
 9852SOL    HW130134   4.682   5.984   1.447 -0.4795 -0.2621 -0.0466
 9852SOL    HW230135   4.745   6.064   1.559 -0.2189  0.9168 -1.0121
 9853SOL     OW30136   3.475   2.005   4.371  0.4970 -1.2627 -0.2141
 9853SOL    HW130137   3.418   1.964   4.306 -3.2287 -1.1372  2.6095
 9853SOL    HW230138   3.486   2.095   4.340 -1.4998 -1.0969 -0.6217
 9854SOL     OW30139   2.247   4.528   8.425  0.0578 -0.2926  0.7442
 9854SOL    HW130140   2.329   4.479   8.422 -0.7772 -1.9136  2.1207
 9854SOL    HW230141   2.201   4.493   8.501 -1.8834  0.6090  0.0689
 9855SOL     OW30142   4.584   9.825   0.927  0.2281  0.1325 -0.1228
 9855SOL    HW130143   4.548   9.909   0.954  1.0085  0.1104  1.0754
 9855SOL    HW230144   4.563   9.818   0.834  0.3515  1.7514 -0.2963
 9856SOL     OW30145   7.433   6.110   0.902 -0.2574  0.3042 -0.6061
 9856SOL    HW130146   7.524   6.082   0.898 -0.3536 -0.3077  0.7329
 9856SOL    HW230147   7.420   6.165   0.825  1.6453  1.6284 -0.0406
 9857SOL     OW30148   3.419   3.668   2.461  0.5947  0.7709  0.7008
 9857SOL    HW130149   3.460   3.669   2.374  0.0182  0.9247  0.4265
 9857SOL    HW230150   3.467   3.735   2.510  1.5601  0.0287  0.8114
 9858SOL     OW30151   5.514   2.321   9.288 -0.7486  0.7415  0.0810
 9858SOL    HW130152   5.573   2.390   9.257 -2.8050  2.3140 -0.5312
 9858SOL    HW230153   5.447   2.314   9.221 -0.8489 -1.6292  0.3312
 9859SOL     OW30154   4.586   4.965   2.763  0.6440  0.1934  0.3966
 9859SOL    HW130155   4.531   4.955   2.840 -0.4550 -2.1511 -0.5950
 9859SOL    HW230156   4.525   4.962   2.689  1.7714  1.3467 -0.6317
 9860SOL     OW30157   2.739   1.474   8.332 -0.6850 -0.1512 -0.1845
 9860SOL    HW130158   2.731   1.380   8.350 -2.2071 -0.2185 -1.0175
 9860SOL    HW230159   2.745   1.479   8.237  0.6358  0.5493 -0.0849
 9861SOL     OW30160   3.707   9.923   3.838  0.0244 -0.3320 -0.3358
 9861SOL    HW130161   3.618   9.888   3.837 -0.9066  1.8492 -0.8274
 9861SOL    HW230162   3.712   9.972   3.920  1.2472 -1.4362  0.2874
 9862SOL     OW30163   1.064   1.768   4.836  0.1533  0.6550  0.0144
 9862SOL    HW130164   1.044   1.693   4.892 -1.7002  1.1156  0.0337
 9862SOL    HW230165   1.155   1.754   4.809  0.6246 -0.3767  1.8952
 9863SOL     OW30166   3.239   3.695   7.744  0.4235 -0.0080 -0.4279
 9863SOL    HW130167   3.327   3.669   7.773 -0.3698 -1.6931  0.6046
 9863SOL    HW230168   3.212   3.762   7.807 -0.1122 -1.5339  1.0527
 9864SOL     OW30169   8.339   2.501   7.088  0.7931 -0.2685  0.1105
 9864SOL    HW130170   8.310   2.578   7.137 -0.0549 -0.1466 -0.5535
 9864SOL    HW230171   8.423   2.526   7.051 -0.0885  0.8554 -1.2131
 9865SOL     OW30172   4.664   4.082   7.370  0.2340  0.2021 -0.2774
 9865SOL    HW130173   4.743   4.117   7.329 -0.8580  3.0013 -0.1731
 9865SOL    HW230174   4.692   3.997   7.405  2.8635  0.5631 -1.2364
 9866SOL     OW30175   2.611   0.935   0.617  0.2693 -0.5005  0.7638
 9866SOL    HW130176   2.564   0.920   0.534 -0.7498 -0.8551  1.3895
 9866SOL    HW230177   2.613   0.850   0.659 -0.0677 -0.1408  1.5280
 9867SOL     OW30178   6.804   2.503   1.526 -0.0111 -0.3890 -0.2004
 9867SOL    HW130179   6.756   2.451   1.461  0.2447 -0.8522 -0.0228
 9867SOL    HW230180   6.797   2.452   1.607 -1.1586  0.6528  0.3856
 9868SOL     OW30181   0.430   4.361   3.646  0.2524  0.3834 -0.3464
 9868SOL    HW130182   0.389   4.329   3.566  1.6078 -2.0450 -0.1735
 9868SOL    HW230183   0.393   4.307   3.716  1.5289  0.1423  0.1825
 9869SOL     OW30184   5.619   9.374   0.882  0.4883  0.7584  0.1500
 9869SOL    HW130185   5.577   9.289   0.871 -0.1000  1.2336 -1.5028
 9869SOL    HW230186   5.624   9.386   0.977  1.3537 -1.4745  0.4509
 9870SOL     OW30187   4.675   6.491   2.213 -0.2237 -0.2961  0.0826
 9870SOL    HW130188   4.698   6.584   2.212 -1.9075  0.1798  1.3093
 9870SOL    HW230189   4.583   6.489   2.240  0.3199 -2.4377  2.0467
 9871SOL     OW30190   9.209   7.219   0.418 -0.4455 -0.0286 -0.4313
 9871SOL    HW130191   9.167   7.157   0.357  0.4151  0.4415 -1.5338
 9871SOL    HW230192   9.150   7.295   0.419 -1.4275 -0.7747  0.8110
 9872SOL     OW30193   0.994   5.106   0.216  0.3223  0.0254  0.0608
 9872SOL    HW130194   1.003   5.142   0.128 -1.2557 -0.2851 -0.2513
 9872SOL    HW230195   0.990   5.011   0.204  0.3798 -0.0358  0.4914
 9873SOL     OW30196   7.957   2.427   8.632 -0.0216 -0.1301 -0.4492
 9873SOL    HW130197   8.007   2.372   8.572 -0.5708 -0.5388 -0.5433
 9873SOL    HW230198   8.010   2.430   8.712  1.1372  1.1193 -1.2205
 9874SOL     OW30199   1.493   8.187   0.645 -0.1137 -0.3619 -0.0463
 9874SOL    HW130200   1.479   8.213   0.554 -1.5790  1.6722  0.6879
 9874SOL    HW230201   1.587   8.171   0.651  0.0532 -0.3255 -1.8502
 9875SOL     OW30202   1.016   0.838   6.835 -0.5306 -0.0911 -0.2548
 9875SOL    HW130203   0.961   0.798   6.901 -0.4771  2.4839  1.4903
 9875SOL    HW230204   1.053   0.916   6.877  0.1458  1.2650 -3.0572
 9876SOL     OW30205   0.179   4.734   5.753  0.2705 -0.4842  0.0145
 9876SOL    HW130206   0.105   4.773   5.708 -0.0782  0.3971  1.2865
 9876SOL    HW230207   0.210   4.666   5.694 -1.1616 -0.4573 -0.8180
 9877SOL     OW30208   4.412   6.458   8.055  0.0097 -0.3582  0.6313
 9877SOL    HW130209   4.487   6.494   8.007  1.2515 -0.2349  2.5364
 9877SOL    HW230210   4.336   6.504   8.019  1.1748  1.6617  0.6090
 9878SOL     OW30211   0.029   2.403   3.349 -0.7866 -0.3784 -0.2336
 9878SOL    HW130212   0.022   2.394   3.444 -3.3016  0.3339 -0.2682
 9878SOL    HW230213  -0.008   2.321   3.315 -0.6076 -0.3107 -0.5950
 9879SOL     OW30214   1.594   7.305   3.193 -0.7438  0.0193 -0.3288
 9879SOL    HW130215   1.665   7.347   3.145 -0.0880  0.3883  0.9261
 9879SOL    HW230216   1.574   7.365   3.264 -0.4305 -1.3357  0.9474
 9880SOL     OW30217   7.226   8.015   2.149 -0.0779  0.1754 -0.6531
 9880SOL    HW130218   7.317   8.040   2.161  0.3655 -1.7672  0.5647
 9880SOL    HW230219   7.221   7.926   2.183 -2.3310  0.0415 -1.1594
 9881SOL     OW30220   3.713   3.627   1.017 -0.1436 -0.2177 -0.0022
 9881SOL    HW130221   3.790   3.684   1.026  0.4339 -0.8475 -0.7085
 9881SOL    HW230222   3.727   3.558   1.081 -0.3199 -0.1185  0.1420
 9882SOL     OW30223   8.250   1.372   4.839 -0.5417 -0.3568  0.2306
 9882SOL    HW130224   8.200   1.377   4.758 -0.2938 -0.7541  0.0525
 9882SOL    HW230225   8.287   1.284   4.840 -0.4653 -0.3245  0.7292
 9883SOL     OW30226   7.341   1.443   5.900 -0.4124 -0.4198  0.3367
 9883SOL    HW130227   7.340   1.418   5.993  0.0472  0.0951  0.4850
 9883SOL    HW230228   7.298   1.528   5.898  0.7317  0.1646  0.2590
 9884SOL     OW30229   0.746   3.693   5.325  0.0932 -0.3602 -0.0467
 9884SOL    HW130230   0.745   3.720   5.416 -2.3104 -0.5175  0.0270
 9884SOL    HW230231   0.809   3.620   5.322  0.3888 -0.1805  1.4068
 9885SOL     OW30232   9.179   6.509   4.974  0.8266  0.0489 -0.5454
 9885SOL    HW130233   9.237   6.443   5.012  3.3088  1.7586 -1.1743
 9885SOL    HW230234   9.105   6.458   4.941  0.8092 -2.0017  2.2272
 9886SOL     OW30235   1.704   5.803   6.304 -0.2369 -0.1646 -0.1358
 9886SOL    HW130236   1.788   5.811   6.349 -0.2445 -1.2693  0.1015
 9886SOL    HW230237   1.644   5.858   6.355 -0.7205 -2.8477  2.4912
 9887SOL     OW30238   8.459   9.414   7.721  0.2510  0.6831  0.4991
 9887SOL    HW130239   8.554   9.406   7.719  0.2209  0.2041  0.8157
 9887SOL    HW230240   8.427   9.327   7.699 -0.1039  0.5910  1.3390
 9888SOL     OW30241   0.980   7.884   5.011 -0.4831  0.2652 -0.3762
 9888SOL    HW130242   0.907   7.848   5.061 -0.9133  0.8984 -0.5354
 9888SOL    HW230243   0.995   7.821   4.941  0.2308 -0.7102  0.6350
 9889SOL     OW30244   8.320   8.556   4.068  0.4123  0.0135 -0.1623
 9889SOL    HW130245   8.297   8.479   4.016 -0.4261 -1.0124  1.6391
 9889SOL    HW230246   8.359   8.616   4.005 -1.7325 -0.6243 -2.2643
 9890SOL     OW30247   3.215   0.946   6.831  0.2687 -0.0801  0.4916
 9890SOL    HW130248   3.128   0.964   6.867  0.8932 -0.2026  2.2010
 9890SOL    HW230249   3.247   1.031   6.801 -0.8242 -0.2102 -1.1426
 9891SOL     OW30250   3.470   9.814   9.614  0.5062  0.0679 -0.3984
 9891SOL    HW130251   3.497   9.770   9.694 -1.7713 -1.4716 -0.3729
 9891SOL    HW230252   3.376   9.830   9.627  0.6595  2.3287 -1.6405
 9892SOL     OW30253   2.292   1.922   0.842 -0.1775 -0.5770  0.1835
 9892SOL    HW130254   2.239   1.850   0.808  0.6275 -1.4703  0.7908
 9892SOL    HW230255   2.362   1.880   0.893  0.0977  0.6397  0.8608
 9893SOL     OW30256   8.966   9.338   9.754  0.4094 -0.6004 -0.0428
 9893SOL    HW130257   8.928   9.419   9.719  0.5810 -0.1122  0.8839
 9893SOL    HW230258   9.061   9.349   9.741  0.6763  0.4830  2.3380
 9894SOL     OW30259   6.073   5.908   3.379  0.8043 -0.1758  0.1014
 9894SOL    HW130260   6.020   5.931   3.303 -1.0183 -2.2860  0.6276
 9894SOL    HW230261   6.163   5.913   3.347  0.3159  2.4019 -1.1525
 9895SOL     OW30262   6.878   2.044   9.203 -0.7719  0.0898  0.1818
 9895SOL    HW130263   6.922   2.120   9.165  0.9368 -0.7567  0.3872
 9895SOL    HW230264   6.945   1.976   9.206 -2.0832 -1.2414  0.6109
 9896SOL     OW30265   3.685   1.951   0.434 -1.1076 -0.6440  0.0353
 9896SOL    HW130266   3.613   1.948   0.497 -1.6300 -0.6895 -0.5478
 9896SOL    HW230267   3.642   1.966   0.350 -0.3319  0.7875 -0.1414
 9897SOL     OW30268   7.317   2.527   2.853  0.2324 -0.3559  0.2476
 9897SOL    HW130269   7.388   2.524   2.917  0.0621 -0.8080  0.4154
 9897SOL    HW230270   7.347   2.590   2.787  0.7481 -0.4764  0.3644
 9898SOL     OW30271   3.558   7.455   9.982  0.4048  0.1925  0.3570
 9898SOL    HW130272   3.584   7.392   9.914  1.6140  1.6866 -0.6269
 9898SOL    HW230273   3.476   7.492   9.950 -0.6940 -1.2955  1.2762
 9899SOL     OW30274   6.045   9.224   9.471 -0.4105  0.5298  0.3098
 9899SOL    HW130275   6.016   9.315   9.474 -0.0969  0.6200  0.7827
 9899SOL    HW230276   6.074   9.205   9.560 -1.3289 -0.3186  0.4500
 9900SOL     OW30277   3.637   9.217   4.510  0.3088 -0.1263  0.0834
 9900SOL    HW130278   3.625   9.219   4.415  0.5951 -0.1257  0.0460
 9900SOL    HW230279   3.576   9.150   4.541 -1.1750  1.1765  0.1074
 9901SOL     OW30280   2.652   7.702   5.020 -0.2974  0.1611  0.1369
 9901SOL    HW130281   2.622   7.793   5.028 -0.4653  0.1135  0.0414
 9901SOL    HW230282   2.623   7.675   4.933  0.7029  0.3647 -0.2718
 9902SOL     OW30283   0.807   2.267   9.855  0.4753  0.4721 -0.3798
 9902SOL    HW130284   0.739   2.291   9.918 -0.1243 -0.0330 -0.8293
 9902SOL    HW230285   0.825   2.348   9.807  1.1837  0.9488  0.6583
 9903SOL     OW30286   9.885   3.915   1.843 -0.0537 -0.5055  0.1939
 9903SOL    HW130287   9.860   3.914   1.750 -0.0540 -0.3129  0.1916
 9903SOL    HW230288   9.980   3.923   1.842 -0.0253 -0.8265  0.2078
 9904SOL     OW30289   5.413   8.649   6.204  0.7122  0.3510  0.8055
 9904SOL    HW130290   5.430   8.650   6.299 -1.0771  1.2185  1.1778
 9904SOL    HW230291   5.430   8.559   6.177 -2.2903 -0.9573  2.7414
 9905SOL     OW30292   3.857   4.361   4.204 -0.1486 -0.0205  0.4397
 9905SOL    HW130293   3.927   4.307   4.168 -0.7649  0.1695 -1.1075
 9905SOL    HW230294   3.901   4.443   4.228 -0.1581  1.2096 -3.0985
 9906SOL     OW30295   2.643   1.212   4.189 -0.4067 -0.6447  0.0229
 9906SOL    HW130296   2.648   1.134   4.133 -0.3580 -0.1653 -0.6467
 9906SOL    HW230297   2.587   1.186   4.262  0.0291 -1.4752  0.0720
 9907SOL     OW30298   8.832   7.216   7.161 -0.2212  0.5412  0.6756
 9907SOL    HW130299   8.756   7.158   7.156  0.5492 -0.6690  2.1332
 9907SOL    HW230300   8.803   7.297   7.118 -1.7795 -0.4347 -0.2239
 9908SOL     OW30301   2.781   4.146   9.091 -0.1118 -0.5898 -0.1283
 9908SOL    HW130302   2.784   4.233   9.131  2.9950  0.4430 -2.1603
 9908SOL    HW230303   2.724   4.157   9.015  2.1875  0.5263 -1.8085
 9909SOL     OW30304   7.462   7.367   9.697 -0.1220 -0.3455  0.2854
 9909SOL    HW130305   7.532   7.325   9.747 -0.3579 -0.0381  0.8807
 9909SOL    HW230306   7.480   7.343   9.606  1.5670  0.8684  0.2480
 9910SOL     OW30307   5.246   3.539   3.502 -0.4515 -0.9867 -0.2784
 9910SOL    HW130308   5.176   3.478   3.480 -2.6708  1.4851 -0.6449
 9910SOL    HW230309   5.236   3.611   3.439  1.0355  0.4556  1.0313
 9911SOL     OW30310   8.696   2.634   8.672  0.4191  0.2334 -0.2579
 9911SOL    HW130311   8.778   2.585   8.681 -0.1344 -0.6827 -0.0600
 9911SOL    HW230312   8.633   2.569   8.639 -0.0694  1.0858 -1.0497
 9912SOL     OW30313   4.294   1.560   4.944  0.1284  0.2939 -0.0522
 9912SOL    HW130314   4.264   1.543   4.855 -1.2821  1.0894  0.2468
 9912SOL    HW230315   4.268   1.651   4.962  2.9736  1.1707  0.1622
 9913SOL     OW30316   2.788   1.010   0.230 -0.1108 -0.3328 -0.3191
 9913SOL    HW130317   2.854   0.943   0.248 -0.6962 -0.5592  1.1286
 9913SOL    HW230318   2.819   1.087   0.277 -0.3982 -0.1635 -0.4040
 9914SOL     OW30319   7.853   9.041   9.426 -0.4895  0.2040 -0.5375
 9914SOL    HW130320   7.769   9.076   9.396 -1.4673  0.1663  1.9379
 9914SOL    HW230321   7.902   9.118   9.454 -1.2828  0.0063  1.6285
 9915SOL     OW30322   3.589   0.354   4.402  0.5896  0.2756 -0.0255
 9915SOL    HW130323   3.659   0.289   4.393  0.7730  0.4621  0.0504
 9915SOL    HW230324   3.522   0.325   4.341  1.5393  1.1547 -1.5798
 9916SOL     OW30325   0.702   7.828   6.614 -0.0270 -0.1135 -0.2796
 9916SOL    HW130326   0.726   7.774   6.539  1.1121 -1.1244  0.7685
 9916SOL    HW230327   0.753   7.909   6.602 -0.3961  0.0336 -0.9377
 9917SOL     OW30328   3.489   3.530   5.944  0.2617  0.4165  0.4040
 9917SOL    HW130329   3.424   3.468   5.977  1.1778 -0.0162  1.4615
 9917SOL    HW230330   3.437   3.600   5.905 -0.8458 -0.0141  1.0421
 9918SOL     OW30331   3.719   7.310   2.171 -0.1731  0.2560 -0.2196
 9918SOL    HW130332   3.657   7.318   2.244  1.2965  0.9945  1.0076
 9918SOL    HW230333   3.783   7.380   2.186  1.1708 -0.7072 -1.2193
 9919SOL     OW30334   1.123   7.158   2.268 -0.1490  0.0351  0.3068
 9919SOL    HW130335   1.128   7.226   2.200  0.3206 -0.6044 -0.3132
 9919SOL    HW230336   1.062   7.093   2.233  1.0104 -0.8872 -0.0566
 9920SOL     OW30337   2.828   6.493   6.246 -0.0639 -0.4376  0.6390
 9920SOL    HW130338   2.814   6.571   6.192  0.8192  0.0745  1.1316
 9920SOL    HW230339   2.852   6.424   6.184  3.2170  0.6841  0.4827
 9921SOL     OW30340   6.784   5.522   8.589  0.1977 -0.9716  0.3481
 9921SOL    HW130341   6.726   5.487   8.657 -1.4437  0.1273 -0.4286
 9921SOL    HW230342   6.872   5.496   8.618 -0.4884 -1.1205  2.5238
 9922SOL     OW30343   1.003   5.932   8.228 -0.1334  0.9066 -0.3726
 9922SOL    HW130344   1.047   6.017   8.228 -0.8382  1.2939  0.5318
 9922SOL    HW230345   1.075   5.868   8.234  0.3513  1.5158  0.8088
 9923SOL     OW30346   6.911   1.530   8.898  0.1951  0.4562 -0.1131
 9923SOL    HW130347   6.821   1.562   8.889  0.7846  1.8543 -1.4466
 9923SOL    HW230348   6.903   1.435   8.899 -1.1963  0.5329 -1.5890
 9924SOL     OW30349   5.852   1.831   9.225  0.0883 -0.3256 -0.0490
 9924SOL    HW130350   5.901   1.750   9.239 -0.0750 -0.1535  1.7476
 9924SOL    HW230351   5.800   1.813   9.146  2.0519 -0.9492 -1.2909
 9925SOL     OW30352   4.641   1.319   3.065  0.3737  0.0090  0.0782
 9925SOL    HW130353   4.612   1.245   3.011  1.3005 -0.0738 -0.3172
 9925SOL    HW230354   4.586   1.392   3.036  1.7909  0.3271 -2.0335
 9926SOL     OW30355   1.935   3.386   7.503 -0.3241 -0.4303  0.1300
 9926SOL    HW130356   1.983   3.467   7.520 -1.4507  0.2780  0.0078
 9926SOL    HW230357   1.843   3.411   7.508 -0.7873 -2.1739  2.6496
 9927SOL     OW30358   5.636   2.404   6.793 -0.0848 -0.2346 -0.1578
 9927SOL    HW130359   5.644   2.499   6.790  2.0512 -0.3215  0.6493
 9927SOL    HW230360   5.725   2.373   6.813 -1.1310 -2.2578  1.8896
 9928SOL     OW30361   2.587   4.918   6.883  0.2997  0.1836  0.0448
 9928SOL    HW130362   2.644   4.845   6.905 -0.3189  0.3364  2.4461
 9928SOL    HW230363   2.630   4.995   6.921 -0.1637  0.7246 -0.5013
 9929SOL     OW30364   9.398   6.908   3.426 -0.5823 -0.5446 -0.2712
 9929SOL    HW130365   9.479   6.877   3.469 -1.0160 -2.1679 -0.5632
 9929SOL    HW230366   9.392   7.000   3.451  1.9334 -0.0735 -1.1197
 9930SOL     OW30367   6.849   5.249   4.146 -0.8351  0.1468  0.1747
 9930SOL    HW130368   6.753   5.255   4.150 -0.8995  0.0380 -1.0737
 9930SOL    HW230369   6.879   5.332   4.182 -1.4743  1.5157 -2.2350
 9931SOL     OW30370   8.090   4.897   7.597  0.2345 -0.0653 -0.6495
 9931SOL    HW130371   8.036   4.949   7.536 -1.0795 -1.1205 -0.4323
 9931SOL    HW230372   8.036   4.890   7.676  0.1801 -2.0827 -0.8107
 9932SOL     OW30373   6.118   6.298   9.550  0.6048 -0.2717 -0.1171
 9932SOL    HW130374   6.045   6.268   9.495 -0.6549 -0.3600  1.5253
 9932SOL    HW230375   6.197   6.275   9.500 -0.4625  0.0014 -2.0379
 9933SOL     OW30376   7.308   5.172   9.810 -0.6220 -0.0612 -0.1404
 9933SOL    HW130377   7.285   5.265   9.815 -0.7815 -0.0143 -1.2892
 9933SOL    HW230378   7.378   5.161   9.874 -1.2792  0.6242  0.7238
 9934SOL     OW30379   7.360   7.213   1.085  0.2601  0.1322  0.2126
 9934SOL    HW130380   7.297   7.194   1.155 -1.3331  1.8087 -0.6908
 9934SOL    HW230381   7.423   7.272   1.125 -0.8702  1.4119  0.1938
 9935SOL     OW30382   9.303   0.900   1.287  0.1888  0.7466 -0.0630
 9935SOL    HW130383   9.218   0.867   1.315  0.6176 -0.4723 -0.1365
 9935SOL    HW230384   9.340   0.940   1.365  0.8674 -1.5468  0.8722
 9936SOL     OW30385   0.537   4.391   1.060 -0.5246  0.5064  0.4869
 9936SOL    HW130386   0.549   4.331   0.987  0.2595  2.3405 -0.9776
 9936SOL    HW230387   0.442   4.405   1.063 -0.5549  0.5339 -0.3027
 9937SOL     OW30388   8.721   3.654   7.853 -0.5703 -0.6103  0.1838
 9937SOL    HW130389   8.639   3.695   7.826 -0.7540 -0.5650  0.8039
 9937SOL    HW230390   8.762   3.717   7.911 -0.4574 -0.9493  0.4780
 9938SOL     OW30391   0.656   9.702   4.905 -0.4524 -0.1288  0.1054
 9938SOL    HW130392   0.664   9.657   4.821 -0.9802 -1.0593  0.5276
 9938SOL    HW230393   0.737   9.681   4.951 -0.6328 -0.5352  0.2434
 9939SOL     OW30394   9.943   4.859   5.166 -0.4129  0.5110 -0.2600
 9939SOL    HW130395   9.882   4.864   5.240 -1.8348 -2.3168 -1.1006
 9939SOL    HW230396   9.889   4.873   5.089  0.2566 -0.6140 -0.9620
 9940SOL     OW30397   1.291   1.128   8.706 -0.2528  0.0610 -0.2834
 9940SOL    HW130398   1.317   1.038   8.686  3.1837  0.7658  0.3005
 9940SOL    HW230399   1.348   1.154   8.779 -0.8491  2.8115 -0.6676
 9941SOL     OW30400   4.192   6.183   3.456 -0.0631  0.4013  0.0067
 9941SOL    HW130401   4.170   6.144   3.540 -0.6470 -1.0418 -0.7826
 9941SOL    HW230402   4.286   6.201   3.461 -0.0574  0.1471  0.8969
 9942SOL     OW30403   4.226   5.495   1.685 -0.5589  0.2676 -0.0074
 9942SOL    HW130404   4.311   5.462   1.655 -0.0233  0.7220  0.9750
 9942SOL    HW230405   4.241   5.589   1.701 -1.4343  0.5028 -0.4847
 9943SOL     OW30406   8.547   0.340   4.115 -0.3091  0.6434  0.2385
 9943SOL    HW130407   8.631   0.309   4.080 -0.4780  0.5614 -0.1068
 9943SOL    HW230408   8.497   0.366   4.037 -0.8752  0.0147  0.3786
 9944SOL     OW30409   3.759   9.928   1.277  0.0618 -0.0054  0.1565
 9944SOL    HW130410   3.754  10.022   1.262  0.8238  0.3952  2.1791
 9944SOL    HW230411   3.704   9.912   1.353 -0.3527 -1.2705 -0.3818
 9945SOL     OW30412   2.790   2.972   6.435 -0.5497 -0.0242  0.8708
 9945SOL    HW130413   2.862   3.028   6.408  1.1802 -1.3646  2.4431
 9945SOL    HW230414   2.750   2.944   6.353  0.8273  0.6156 -0.0579
 9946SOL     OW30415   6.645   5.521   3.395 -0.4310 -0.1073  0.1864
 9946SOL    HW130416   6.680   5.593   3.449 -1.8363  0.5619  0.2317
 9946SOL    HW230417   6.661   5.550   3.305  0.3745 -0.4496  0.2088
 9947SOL     OW30418   5.131   2.652   7.023 -0.2479  0.2823  0.2840
 9947SOL    HW130419   5.192   2.587   6.989  0.1108  0.6352  0.2426
 9947SOL    HW230420   5.046   2.608   7.023 -0.0671 -0.0710 -0.0588
 9948SOL     OW30421   5.147   6.155   5.168 -0.3645 -0.3548 -0.1739
 9948SOL    HW130422   5.208   6.113   5.229  0.6161  1.3280  0.0587
 9948SOL    HW230423   5.197   6.227   5.130 -2.7422  2.4597  1.5760
 9949SOL     OW30424   9.009   2.586   0.676 -0.7146  0.0991 -0.0933
 9949SOL    HW130425   9.052   2.670   0.684 -0.7908  0.2229 -0.8905
 9949SOL    HW230426   8.916   2.605   0.685 -0.7612  0.1661 -0.6539
 9950SOL     OW30427   9.421   6.780   3.170 -0.0163  0.0249 -0.3857
 9950SOL    HW130428   9.515   6.765   3.184 -0.3418 -1.8629 -0.0572
 9950SOL    HW230429   9.391   6.820   3.252  0.6580  1.6564 -0.8756
 9951SOL     OW30430   3.086   0.635   8.838 -0.0220 -0.1665 -0.2257
 9951SOL    HW130431   3.062   0.688   8.914 -2.0355  1.9652 -2.2221
 9951SOL    HW230432   3.115   0.552   8.876  0.0195  1.1360  2.8907
 9952SOL     OW30433   2.270   2.923   8.025 -0.0682 -0.2794 -0.0161
 9952SOL    HW130434   2.320   2.856   7.980  0.9267  0.0292  0.5977
 9952SOL    HW230435   2.270   2.998   7.966  0.2392 -0.2647  0.0023
 9953SOL     OW30436   6.337   1.650   9.365 -0.9268  0.3726  0.0563
 9953SOL    HW130437   6.278   1.613   9.300 -0.4481 -1.0804  0.4243
 9953SOL    HW230438   6.279   1.684   9.434 -1.4386  1.9752 -1.0893
 9954SOL     OW30439   0.865   3.123   3.551  0.2298  0.4473  0.4486
 9954SOL    HW130440   0.902   3.036   3.540 -1.8831 -0.7343  1.9307
 9954SOL    HW230441   0.922   3.166   3.614  0.9765 -0.0472  0.1263
 9955SOL     OW30442   1.782   1.272   2.056  0.1314  0.0488  0.4701
 9955SOL    HW130443   1.692   1.249   2.079  0.2450  0.3848  1.2977
 9955SOL    HW230444   1.814   1.320   2.132  1.3417 -0.9371  0.6156
 9956SOL     OW30445   7.551   9.469   2.190  0.1754 -0.0080  0.5635
 9956SOL    HW130446   7.514   9.381   2.196 -0.4875  0.1517 -0.6978
 9956SOL    HW230447   7.636   9.456   2.149 -0.1819 -0.0274 -0.1998
 9957SOL     OW30448   0.644   2.432   0.022 -0.7073  0.5421 -0.2895
 9957SOL    HW130449   0.578   2.468  -0.037 -3.3378 -0.8807  1.6017
 9957SOL    HW230450   0.692   2.508   0.054 -0.9928  1.5639 -2.1363
 9958SOL     OW30451   4.773   0.737   3.375 -0.1720 -0.3895  0.0921
 9958SOL    HW130452   4.746   0.690   3.454 -0.1992 -1.3424 -0.4664
 9958SOL    HW230453   4.854   0.694   3.349  0.2391  0.4202  0.0233
 9959SOL     OW30454   6.604   3.956   4.161 -0.1027  0.0408  0.2680
 9959SOL    HW130455   6.622   4.024   4.226 -1.5416 -0.1797  0.9453
 9959SOL    HW230456   6.517   3.978   4.127 -0.8863 -1.7843  0.9674
 9960SOL     OW30457   3.556   8.784   8.664 -0.2754  0.3979  0.3139
 9960SOL    HW130458   3.535   8.691   8.652 -0.5216  0.3711  0.8988
 9960SOL    HW230459   3.567   8.818   8.576  1.3664 -0.5451  0.1077
 9961SOL     OW30460   0.836   3.882   0.097 -0.4148 -0.0665 -0.3851
 9961SOL    HW130461   0.819   3.961   0.149 -0.7876 -0.4658  0.1056
 9961SOL    HW230462   0.750   3.844   0.082 -0.1840 -0.7344 -0.0575
 9962SOL     OW30463   3.662   9.306   1.891 -0.0126  0.1266 -0.3871
 9962SOL    HW130464   3.744   9.269   1.923 -0.2820 -0.0520  0.0959
 9962SOL    HW230465   3.633   9.365   1.960 -0.2696  0.2306 -0.5808
 9963SOL     OW30466   6.333   1.171   7.476 -0.5641 -0.7233 -0.4587
 9963SOL    HW130467   6.404   1.136   7.421  0.5750 -1.6307  1.4836
 9963SOL    HW230468   6.339   1.121   7.557 -2.6748  0.0526  0.2341
 9964SOL     OW30469   8.702   4.395   9.254 -0.3771 -0.7276 -0.6608
 9964SOL    HW130470   8.690   4.307   9.291  1.4088 -1.1463 -0.9765
 9964SOL    HW230471   8.676   4.454   9.325  0.0578 -1.5251  0.1926
 9965SOL     OW30472   3.352   2.946   3.557 -0.3385  0.1245 -0.5285
 9965SOL    HW130473   3.419   3.011   3.533 -1.2601  0.5982 -1.9865
 9965SOL    HW230474   3.300   2.990   3.625 -0.0416  0.3131 -0.4198
 9966SOL     OW30475   2.004   9.579   8.518 -0.0597  0.2918 -0.3605
 9966SOL    HW130476   1.971   9.657   8.473  0.6227  0.3111 -0.8504
 9966SOL    HW230477   1.942   9.510   8.496  0.3851  0.2455 -1.5561
 9967SOL     OW30478   5.813   1.235   4.440 -0.3105  0.4207 -0.1678
 9967SOL    HW130479   5.859   1.163   4.484  1.1635  1.9512  0.9461
 9967SOL    HW230480   5.722   1.206   4.436 -0.3351 -0.3186  2.9683
 9968SOL     OW30481   1.577   4.108   0.351  0.3352 -0.2953 -0.5130
 9968SOL    HW130482   1.610   4.158   0.426 -0.5919  1.9324 -1.4910
 9968SOL    HW230483   1.653   4.098   0.294  0.8117 -1.1079  0.2478
 9969SOL     OW30484   8.233   0.415   4.229  0.4948  0.0057  0.0156
 9969SOL    HW130485   8.309   0.369   4.263  0.7515  0.9296  0.7498
 9969SOL    HW230486   8.267   0.470   4.158 -0.3061 -3.1990 -3.1067
 9970SOL     OW30487   0.279   7.198   0.559 -0.0777 -0.4721  0.3356
 9970SOL    HW130488   0.244   7.208   0.647 -0.2019 -0.2737  0.2652
 9970SOL    HW230489   0.280   7.104   0.543 -0.3365 -0.4918  0.4349
 9971SOL     OW30490   1.841   5.404   7.613  0.3667 -0.2545  0.3481
 9971SOL    HW130491   1.834   5.452   7.696  0.1861  0.7441 -0.2172
 9971SOL    HW230492   1.759   5.355   7.606  0.5869 -0.7056  0.9827
 9972SOL     OW30493   1.136   5.805   1.477 -0.3363 -0.1478  0.3189
 9972SOL    HW130494   1.217   5.783   1.523  0.6556  1.4057 -0.6478
 9972SOL    HW230495   1.152   5.782   1.386 -0.4366  1.5179 -0.1432
 9973SOL     OW30496   8.485   8.287   5.176 -0.1411 -0.2139  0.8387
 9973SOL    HW130497   8.424   8.218   5.151 -0.4508 -0.5933  2.5042
 9973SOL    HW230498   8.436   8.342   5.237  0.3728  1.0162  0.1840
 9974SOL     OW30499   1.986   4.469   5.337  0.4550 -0.3297 -0.4467
 9974SOL    HW130500   2.049   4.534   5.306 -0.9543  0.3091 -2.1654
 9974SOL    HW230501   2.015   4.387   5.298  0.6246 -0.1849 -0.6259
 9975SOL     OW30502   8.676   7.259   3.671 -0.3368 -0.3627  0.5513
 9975SOL    HW130503   8.661   7.330   3.734  0.0421 -0.0282  0.2677
 9975SOL    HW230504   8.692   7.182   3.725 -0.1884 -0.1126  0.8684
 9976SOL     OW30505   1.263   8.361   5.998 -0.2504  0.3676 -0.2487
 9976SOL    HW130506   1.256   8.377   5.904 -0.0879 -1.4826 -0.5986
 9976SOL    HW230507   1.294   8.271   6.006  3.8263  1.6860  1.5141
 9977SOL     OW30508   3.112   5.205   2.888 -0.0479 -0.4642 -0.2410
 9977SOL    HW130509   3.177   5.253   2.939  0.1597 -2.7047  1.7920
 9977SOL    HW230510   3.030   5.251   2.905  0.5675  0.9189 -0.8326
 9978SOL     OW30511   1.728   1.777   0.185  0.2293  0.3056  0.6073
 9978SOL    HW130512   1.746   1.831   0.108  0.1856 -0.7252 -0.1514
 9978SOL    HW230513   1.814   1.752   0.217  0.2449 -0.2268  0.1747
 9979SOL     OW30514   5.566   1.955   5.165 -0.2209 -0.0486 -0.4743
 9979SOL    HW130515   5.542   2.004   5.087  0.1139  0.6174 -0.1633
 9979SOL    HW230516   5.632   1.892   5.134 -2.4498 -2.1132 -1.4038
 9980SOL     OW30517   6.830   3.234   7.241  0.1786 -0.1132  0.3063
 9980SOL    HW130518   6.884   3.314   7.242  0.4848 -0.2841  2.3884
 9980SOL    HW230519   6.894   3.163   7.241 -0.0926 -0.4234 -2.0436
 9981SOL     OW30520   0.500   3.733   9.120  0.2729 -0.6248  0.4599
 9981SOL    HW130521   0.556   3.705   9.047  1.5999  0.9115  0.8412
 9981SOL    HW230522   0.523   3.824   9.135 -2.1873  0.0119  0.8258
 9982SOL     OW30523   3.126   3.312   7.141 -0.2296  0.4791 -0.2621
 9982SOL    HW130524   3.077   3.386   7.106  1.7282  2.9558  1.7881
 9982SOL    HW230525   3.192   3.292   7.074 -1.5228 -0.2941 -1.3454
 9983SOL     OW30526   3.681   3.255   6.115 -0.2807 -0.5688  0.6173
 9983SOL    HW130527   3.708   3.190   6.050 -1.0655 -0.1121 -0.1846
 9983SOL    HW230528   3.737   3.238   6.191  2.1325  0.2181 -0.8922
 9984SOL     OW30529   6.742   1.105   6.839  0.0275  0.2057  0.0025
 9984SOL    HW130530   6.833   1.079   6.828  0.1499 -0.6646  2.3879
 9984SOL    HW230531   6.694   1.022   6.845 -1.1373  0.6438 -2.3161
 9985SOL     OW30532   4.589   2.423   3.449 -0.3936  0.3323  0.0031
 9985SOL    HW130533   4.659   2.360   3.464  0.1687  1.1856  1.1025
 9985SOL    HW230534   4.620   2.476   3.375  0.4173  1.0887  0.8640
 9986SOL     OW30535   3.250   7.448   1.190  0.1350  0.0115  0.4439
 9986SOL    HW130536   3.343   7.432   1.174  1.1756  2.5849  2.9147
 9986SOL    HW230537   3.226   7.517   1.128 -1.5204 -3.4062 -3.1639
 9987SOL     OW30538   8.280   2.178   8.664  0.3428 -0.6387 -0.3030
 9987SOL    HW130539   8.369   2.197   8.692  0.2760 -0.0629 -0.4763
 9987SOL    HW230540   8.236   2.148   8.743  0.2402  0.6733  0.1512
 9988SOL     OW30541   9.893   3.915   4.437  0.3065 -0.5320  0.4980
 9988SOL    HW130542   9.933   3.976   4.499 -0.2019 -1.0021  1.3088
 9988SOL    HW230543   9.966   3.867   4.399  0.7689  0.9022 -0.5377
 9989SOL     OW30544   8.592   5.736   1.213 -0.6087  0.0683 -0.8432
 9989SOL    HW130545   8.633   5.654   1.185 -0.8392 -0.5434  0.5255
 9989SOL    HW230546   8.502   5.730   1.180 -0.4467  0.0740 -1.2980
 9990SOL     OW30547   1.084   3.648   4.506  0.0842 -0.1038  0.1484
 9990SOL    HW130548   1.085   3.569   4.558  0.3407 -0.6363 -0.6459
 9990SOL    HW230549   1.170   3.688   4.520 -0.5690  0.8446  1.7239
 9991SOL     OW30550   3.336   6.689   4.257 -0.0883  0.1841  0.7013
 9991SOL    HW130551   3.404   6.653   4.200  0.0688  1.2259  0.2095
 9991SOL    HW230552   3.266   6.623   4.254  0.5677 -0.5248  0.5827
 9992SOL     OW30553   8.418   8.491   7.482  0.0414 -0.5999  0.3240
 9992SOL    HW130554   8.460   8.409   7.455 -1.0519 -0.7767 -0.9852
 9992SOL    HW230555   8.388   8.475   7.571 -1.1970 -2.1006 -0.3107
 9993SOL     OW30556   9.366   8.163   0.235  0.2453 -0.0386 -0.9060
 9993SOL    HW130557   9.275   8.170   0.264  0.4047 -0.2786 -0.3234
 9993SOL    HW230558   9.367   8.086   0.178  0.0872 -0.0631 -0.8775
 9994SOL     OW30559   9.314   4.726   3.824  0.0861  0.3577  0.2599
 9994SOL    HW130560   9.334   4.785   3.751  0.5217 -1.6094 -1.2989
 9994SOL    HW230561   9.239   4.767   3.867 -0.2150  1.5833 -1.3038
 9995SOL     OW30562   0.029   6.354   7.010  0.2241  0.5166  0.2094
 9995SOL    HW130563   0.096   6.412   7.046  0.1106  0.6907  0.1427
 9995SOL    HW230564   0.016   6.287   7.077  0.8729  0.1553 -0.0163
 9996SOL     OW30565   3.086   0.530   0.516  0.4266 -0.5530  0.4344
 9996SOL    HW130566   3.057   0.574   0.436  0.0300  0.5579  1.1676
 9996SOL    HW230567   3.143   0.459   0.486  0.2039 -0.2084 -0.8274
 9997SOL     OW30568   9.659   8.599   4.359 -0.3550  0.1680 -0.3466
 9997SOL    HW130569   9.730   8.632   4.414 -0.2906 -0.8006  0.1715
 9997SOL    HW230570   9.670   8.504   4.361 -1.6739  0.0048 -0.2512
 9998SOL     OW30571   9.699   6.620   0.012  0.4448 -0.7555 -0.3982
 9998SOL    HW130572   9.624   6.583   0.057 -0.1555  0.1157 -0.6646
 9998SOL    HW230573   9.768   6.555   0.023 -0.0255 -1.0773  0.7779
 9999SOL     OW30574   6.529   0.980   3.377  0.5142 -0.2489  0.0372
 9999SOL    HW130575   6.547   0.987   3.284 -2.3598 -1.0931 -0.6800
 9999SOL    HW230576   6.498   1.066   3.403  0.2383 -0.3187 -0.0594
10000SOL     OW30577   1.805   2.160   4.837 -0.4602 -0.4892 -0.0585
10000SOL    HW130578   1.819   2.068   4.856 -2.4100 -0.6975  0.6125
10000SOL    HW230579   1.714   2.165   4.807 -0.8258  1.3856  1.1884
10001SOL     OW30580   3.664   2.763   8.248  0.9967 -0.6878  0.0139
10001SOL    HW130581   3.607   2.715   8.187 -0.2022  1.1958 -0.4283
10001SOL    HW230582   3.608   2.784   8.322  1.8975 -1.1793  0.8532
10002SOL     OW30583   8.949   0.707   7.015 -0.3925  0.2981 -0.3539
10002SOL    HW130584   8.990   0.771   6.956 -2.3547 -0.7344 -3.0437
10002SOL    HW230585   8.975   0.622   6.980  0.6428 -0.4538  2.0367
10003SOL     OW30586   5.130   5.192   8.409 -0.3669 -0.2431  0.1094
10003SOL    HW130587   5.166   5.135   8.478 -2.5261 -0.6257  0.9772
10003SOL    HW230588   5.120   5.135   8.333  2.7232  0.3419 -0.8943
10004SOL     OW30589   9.371   9.279   9.564 -0.5502 -0.5911 -0.2371
10004SOL    HW130590   9.414   9.345   9.510  1.8638 -0.4759  1.6696
10004SOL    HW230591   9.365   9.202   9.508  0.9334 -0.1706 -1.0065
10005SOL     OW30592   5.421   4.930   3.931 -0.7191  0.1580 -0.1895
10005SOL    HW130593   5.387   5.019   3.925 -2.0221 -0.3461 -0.7364
10005SOL    HW230594   5.412   4.907   4.024 -1.3493  0.2448 -0.2257
10006SOL     OW30595   0.291   6.276   5.321  0.1884  0.0501  0.1972
10006SOL    HW130596   0.383   6.278   5.348  0.1194 -2.4190  0.8893
10006SOL    HW230597   0.250   6.346   5.371  1.4528  0.2855  0.9520
10007SOL     OW30598   5.226   9.348   3.153 -0.4360 -0.5741  0.4747
10007SOL    HW130599   5.285   9.311   3.219  0.1908  1.2046  0.9796
10007SOL    HW230600   5.197   9.431   3.191 -2.5277 -0.9452 -0.2031
10008SOL     OW30601   9.829   0.103   3.540 -0.3671  0.2485  0.4825
10008SOL    HW130602   9.863   0.185   3.505 -1.2402  1.3941  2.1611
10008SOL    HW230603   9.906   0.047   3.549 -0.0508 -0.1577 -3.0449
10009SOL     OW30604   5.707   3.340   4.666 -0.9219  0.0067 -0.1943
10009SOL    HW130605   5.632   3.399   4.676 -0.8308  0.1276 -0.2236
10009SOL    HW230606   5.681   3.260   4.713 -1.4609 -0.3175 -1.0369
10010SOL     OW30607   6.326   7.665   4.477  0.5100  0.5143  0.0090
10010SOL    HW130608   6.366   7.621   4.552  1.0193 -0.0668 -0.5946
10010SOL    HW230609   6.234   7.677   4.503 -0.2213 -2.7749 -0.5560
10011SOL     OW30610   7.096   3.646   3.523 -0.0201 -0.3827 -0.0740
10011SOL    HW130611   7.064   3.735   3.512  0.3635 -0.4007 -1.6958
10011SOL    HW230612   7.179   3.645   3.475 -0.8821 -2.0490 -1.6774
10012SOL     OW30613   5.621   0.546   7.861  0.4583 -0.4369  0.1328
10012SOL    HW130614   5.534   0.520   7.891 -0.0297 -0.2622 -1.0805
10012SOL    HW230615   5.607   0.629   7.816  1.3904  0.0132  0.6475
10013SOL     OW30616   4.346   3.037   7.528 -0.3968  0.0054 -0.3864
10013SOL    HW130617   4.279   3.047   7.596  1.9351  3.7744  1.7323
10013SOL    HW230618   4.318   3.096   7.458 -0.5667 -0.4254 -0.6838
10014SOL     OW30619   5.689   8.189   4.229 -0.4026  0.1554  0.6555
10014SOL    HW130620   5.603   8.216   4.261  0.5286  1.7751  1.9884
10014SOL    HW230621   5.735   8.158   4.307  0.0409 -1.2979 -0.1477
10015SOL     OW30622   2.089   9.685   6.619 -0.3606 -0.2327 -0.3769
10015SOL    HW130623   2.106   9.779   6.621 -0.5392 -0.1982 -0.4356
10015SOL    HW230624   2.079   9.664   6.526 -1.5434 -0.0773 -0.3077
10016SOL     OW30625   3.141   9.680   5.142 -0.2926 -0.0093  0.8138
10016SOL    HW130626   3.178   9.766   5.124 -3.8691  1.4529 -0.5699
10016SOL    HW230627   3.121   9.681   5.235 -2.8850  1.9930  0.3657
10017SOL     OW30628   4.172   8.740   8.698  0.0092  0.0187  0.3585
10017SOL    HW130629   4.152   8.784   8.781 -2.8324  0.5027 -0.4675
10017SOL    HW230630   4.169   8.810   8.633  1.5646 -0.4640 -0.2787
10018SOL     OW30631   1.875   7.633   4.021  0.2158  0.6446 -0.2518
10018SOL    HW130632   1.849   7.541   4.021  2.0835  0.0693 -0.8999
10018SOL    HW230633   1.794   7.681   4.001 -0.4704 -0.9737 -1.6657
10019SOL     OW30634   1.000   4.974   8.502 -0.4507  0.0541  0.2846
10019SOL    HW130635   0.908   4.987   8.478 -0.1802 -0.4873 -1.2114
10019SOL    HW230636   1.004   4.885   8.536 -0.5154  0.1309  0.4883
10020SOL     OW30637   8.719   1.150   1.551 -0.0358  0.3158  0.3925
10020SOL    HW130638   8.739   1.078   1.611 -0.9688 -0.3387 -0.0581
10020SOL    HW230639   8.642   1.119   1.502  0.0591  1.2820 -0.3798
10021SOL     OW30640   0.237   4.210   5.805 -0.4242 -0.0084 -0.3653
10021SOL    HW130641   0.198   4.261   5.734 -0.5303 -0.8783 -0.9440
10021SOL    HW230642   0.171   4.213   5.875 -1.0096 -0.4372 -0.8846
10022SOL     OW30643   8.327   6.498   5.109 -0.8214 -0.3124 -0.2467
10022SOL    HW130644   8.277   6.544   5.041 -0.8189 -0.3910 -0.3021
10022SOL    HW230645   8.415   6.489   5.072 -0.4314  0.9256  0.3545
10023SOL     OW30646   8.683   0.914   4.327  0.1323 -0.3670  0.5096
10023SOL    HW130647   8.720   0.971   4.260 -3.0738  0.7796 -0.4516
10023SOL    HW230648   8.695   0.826   4.293  0.7844  0.0462 -0.3532
10024SOL     OW30649   4.718   1.664   1.236 -0.1403 -0.1828 -0.1782
10024SOL    HW130650   4.794   1.695   1.286  1.2667 -0.7388 -1.8898
10024SOL    HW230651   4.733   1.695   1.147 -0.7538 -2.2064 -1.0535
10025SOL     OW30652   0.127   8.519   7.534  0.6430  0.3732  0.2272
10025SOL    HW130653   0.199   8.579   7.511  0.5617  1.4423  2.4845
10025SOL    HW230654   0.163   8.432   7.519  1.0798  0.9125 -2.2790
10026SOL     OW30655   2.562   0.852   1.352 -0.5027 -0.1328 -0.2865
10026SOL    HW130656   2.478   0.884   1.386 -0.7568  1.2689 -2.1295
10026SOL    HW230657   2.614   0.836   1.430 -2.4828 -1.1218  0.9284
10027SOL     OW30658   6.316   6.985   4.426  0.0812  0.2886 -0.0018
10027SOL    HW130659   6.265   6.983   4.506 -1.6179 -0.0846 -1.0401
10027SOL    HW230660   6.348   6.896   4.414  0.3524  0.3498  0.2553
10028SOL     OW30661   4.655   9.551   7.581 -0.3600 -0.1861 -0.2655
10028SOL    HW130662   4.723   9.546   7.648 -1.4093  0.5252  0.9015
10028SOL    HW230663   4.577   9.580   7.628 -1.2406 -0.0487 -1.7359
10029SOL     OW30664   9.339   2.947   8.885  0.5606  0.6093  0.4312
10029SOL    HW130665   9.272   2.880   8.886 -0.2451  1.3999  0.4840
10029SOL    HW230666   9.406   2.915   8.945  1.0930 -1.0213 -0.9540
10030SOL     OW30667   0.633   5.992   9.362 -0.4456 -0.4274 -0.0268
10030SOL    HW130668   0.545   6.030   9.363 -0.7079 -1.0224 -0.1757
10030SOL    HW230669   0.681   6.041   9.428 -0.3988  1.0613 -1.0953
10031SOL     OW30670   7.518   8.602   2.749 -0.6373  0.6041 -0.3407
10031SOL    HW130671   7.489   8.542   2.680 -0.6468 -0.4768  0.5714
10031SOL    HW230672   7.592   8.649   2.711 -0.0013 -0.6939 -0.7525
10032SOL     OW30673   2.636   5.992   3.991 -0.7979  0.0855  0.3560
10032SOL    HW130674   2.622   5.899   3.973  0.8542 -0.2224  0.4679
10032SOL    HW230675   2.635   5.999   4.086 -2.1738  0.4210  0.3312
10033SOL     OW30676   1.431   7.222   4.412  0.4926 -0.1128  0.2205
10033SOL    HW130677   1.422   7.293   4.475 -0.9240  0.0245 -0.1120
10033SOL    HW230678   1.348   7.221   4.365  0.6742 -1.6687 -0.1153
10034SOL     OW30679   0.191   4.884   8.410 -0.5523  0.9153 -0.1535
10034SOL    HW130680   0.182   4.964   8.461  1.1401  2.4543 -2.0979
10034SOL    HW230681   0.124   4.892   8.342  0.3284  1.2985 -1.0152
10035SOL     OW30682   8.464   1.249   3.646  0.1363 -0.2733  0.4144
10035SOL    HW130683   8.509   1.165   3.635 -1.4468 -1.1724  0.4438
10035SOL    HW230684   8.508   1.308   3.585  2.6624 -0.5033  1.8635
10036SOL     OW30685   9.112   8.803   6.086  0.1907  0.4549  0.2002
10036SOL    HW130686   9.029   8.852   6.078 -2.0229 -2.6486  2.0740
10036SOL    HW230687   9.154   8.840   6.164 -0.2288  0.9542  0.1982
10037SOL     OW30688   3.474   4.212   9.604 -0.1299 -0.6034 -0.1222
10037SOL    HW130689   3.541   4.186   9.667  0.6988  0.6282 -0.4409
10037SOL    HW230690   3.420   4.134   9.592  0.6321 -1.3203  0.9228
10038SOL     OW30691   1.223   5.032   1.752 -0.4952 -0.5064  0.0032
10038SOL    HW130692   1.253   4.979   1.678 -1.8919 -0.5162 -0.5902
10038SOL    HW230693   1.217   4.970   1.825 -2.9151 -1.4178 -0.8895
10039SOL     OW30694   1.229   6.421   1.204  0.5810 -0.0323  0.7497
10039SOL    HW130695   1.287   6.436   1.130  0.9547 -0.3246  0.9798
10039SOL    HW230696   1.259   6.482   1.271 -0.5637  1.1418  0.2314
10040SOL     OW30697   2.031   5.767   1.436 -0.0016  0.1386 -0.5011
10040SOL    HW130698   2.125   5.753   1.449  0.7474  0.8567 -4.1253
10040SOL    HW230699   1.992   5.680   1.443  1.4055 -0.6448 -1.7908
10041SOL     OW30700   0.339   8.899   3.037 -0.2373 -0.4803 -1.0546
10041SOL    HW130701   0.340   8.804   3.051 -1.4982 -0.3324  0.2508
10041SOL    HW230702   0.374   8.936   3.118 -0.9637  0.2110 -1.0477
10042SOL     OW30703   9.981   4.799   6.605  0.2282  0.1839  0.3041
10042SOL    HW130704   9.909   4.853   6.574  0.8759  1.4044  0.8726
10042SOL    HW230705   9.979   4.721   6.549 -0.3201  1.0805 -0.9538
10043SOL     OW30706   8.499   5.055   5.350  0.1316 -0.9014  0.0339
10043SOL    HW130707   8.407   5.035   5.365  0.1901 -0.7390  0.6349
10043SOL    HW230708   8.500   5.106   5.269 -0.2011 -1.7266 -0.4943
10044SOL     OW30709   3.066   2.944   0.119  0.5087  0.6352 -0.2543
10044SOL    HW130710   3.016   2.927   0.198 -1.4017  0.0828 -1.5247
10044SOL    HW230711   3.146   2.987   0.150 -0.2450  0.5606  1.9382
10045SOL     OW30712   9.581   6.777   8.449  0.1338  0.2230  0.0821
10045SOL    HW130713   9.500   6.727   8.443  0.4011 -0.1897 -0.0916
10045SOL    HW230714   9.640   6.723   8.501  0.0158  0.9077  0.9571
10046SOL     OW30715   4.459   0.313   7.624  0.4290  0.3154  0.4026
10046SOL    HW130716   4.498   0.242   7.675  0.4985 -0.4148 -0.6261
10046SOL    HW230717   4.533   0.371   7.605  1.0418 -0.9269 -1.3172
10047SOL     OW30718   1.603   6.107   0.887 -0.0144 -0.0946 -0.0383
10047SOL    HW130719   1.508   6.109   0.889 -0.0654 -1.8149  0.4483
10047SOL    HW230720   1.626   6.160   0.810 -1.3994 -0.5143 -0.7702
10048SOL     OW30721   7.809   4.899   5.565 -0.3136 -0.1163  0.2028
10048SOL    HW130722   7.776   4.984   5.534 -0.2613  0.6108  1.9594
10048SOL    HW230723   7.749   4.875   5.635 -1.2062 -2.3228 -1.2483
10049SOL     OW30724   7.857   5.765   4.156  0.2548 -0.2218 -0.4037
10049SOL    HW130725   7.804   5.729   4.227  0.0023  1.0303  0.0733
10049SOL    HW230726   7.812   5.846   4.131  0.7507 -0.2623 -1.4924
10050SOL     OW30727   5.845   3.596   9.942 -0.0901 -0.1161  0.5671
10050SOL    HW130728   5.774   3.533   9.937  0.2045 -0.3220 -2.8438
10050SOL    HW230729   5.834   3.653   9.866  2.4416  0.8773  0.8216
10051SOL     OW30730   7.918   0.034   6.142  0.2912 -0.0705 -0.4989
10051SOL    HW130731   7.988   0.028   6.206  0.1889  0.2747 -0.3547
10051SOL    HW230732   7.842  -0.005   6.186  0.1060  0.5758 -0.2451
10052SOL     OW30733   8.386   8.782   6.058  0.2730  0.4125  0.1234
10052SOL    HW130734   8.354   8.834   6.132 -0.6239 -0.5305  0.4353
10052SOL    HW230735   8.312   8.776   5.998 -0.2881 -1.9282  0.9156
10053SOL     OW30736   3.101   3.437   4.435 -0.5366  0.2920  0.2016
10053SOL    HW130737   3.140   3.524   4.445 -1.7455  0.6625  2.2024
10053SOL    HW230738   3.154   3.380   4.490 -1.2043  0.2840  0.8591
10054SOL     OW30739   3.793   7.890   8.886  0.1907 -0.8056 -0.2215
10054SOL    HW130740   3.853   7.847   8.946  0.4014  0.8207  0.8077
10054SOL    HW230741   3.832   7.877   8.799  1.9400 -0.0212  0.3946
10055SOL     OW30742   6.773   9.195   3.455  0.3913 -0.5216 -0.4521
10055SOL    HW130743   6.838   9.184   3.524 -1.3958  0.6432  1.5546
10055SOL    HW230744   6.760   9.290   3.450 -2.2639 -0.7646  0.3972
10056SOL     OW30745   0.978   1.596   7.144 -0.1578 -0.0867  0.1936
10056SOL    HW130746   0.901   1.541   7.126  0.6498 -0.8308 -1.2089
10056SOL    HW230747   0.963   1.674   7.091  0.0305 -0.2275 -0.0716
10057SOL     OW30748   8.715   0.806   7.910  0.0354  0.3022 -0.0310
10057SOL    HW130749   8.651   0.868   7.874  0.6848  0.8034 -0.3306
10057SOL    HW230750   8.662   0.743   7.959 -0.8133  0.0547 -1.2027
10058SOL     OW30751   9.619   2.756   5.661 -0.1702  0.0423 -0.0754
10058SOL    HW130752   9.618   2.824   5.593 -1.2441 -0.6244 -0.7636
10058SOL    HW230753   9.700   2.772   5.710  0.2100  1.0554 -0.9879
10059SOL     OW30754   0.357   0.828   2.971 -0.4578  0.1577 -0.4527
10059SOL    HW130755   0.373   0.919   2.946  0.6799  0.5488  1.4491
10059SOL    HW230756   0.293   0.834   3.043 -0.1737 -0.5132 -0.1332
10060SOL     OW30757   9.192   7.401   2.809  0.4711 -0.5706 -0.8184
10060SOL    HW130758   9.138   7.352   2.871 -0.9201  1.3912 -0.3785
10060SOL    HW230759   9.146   7.393   2.725 -0.4250  0.8596 -0.5036
10061SOL     OW30760   2.138   4.932   5.967 -0.6454  0.4689 -0.0701
10061SOL    HW130761   2.112   4.920   6.059 -2.6519  3.4128 -0.1210
10061SOL    HW230762   2.111   4.851   5.924  0.2281 -0.9321  1.8343
10062SOL     OW30763   7.667   9.840   7.401  0.1407 -0.1600  0.4260
10062SOL    HW130764   7.645   9.828   7.494 -1.6207  0.4228  0.1184
10062SOL    HW230765   7.745   9.895   7.402  1.3379 -1.7901  1.5744
10063SOL     OW30766   3.897   0.872   7.614 -0.1091 -0.0458  0.2506
10063SOL    HW130767   3.931   0.962   7.620  0.6198 -0.3421  0.7125
10063SOL    HW230768   3.958   0.820   7.666  1.4246 -1.3891 -2.6417
10064SOL     OW30769   0.263   7.325   4.318  0.8755 -0.3774 -0.4353
10064SOL    HW130770   0.312   7.406   4.330 -0.4162  0.7611 -2.3875
10064SOL    HW230771   0.194   7.328   4.385  2.5763 -1.3781  1.4712
10065SOL     OW30772   9.950   5.103   1.225 -0.1453 -0.2331  0.7795
10065SOL    HW130773  10.030   5.063   1.190  0.3295  0.6262  0.8290
10065SOL    HW230774   9.953   5.193   1.192 -3.2049 -1.2008 -2.6619
10066SOL     OW30775   7.108   6.306   0.505 -0.2513 -0.4407  0.0230
10066SOL    HW130776   7.202   6.300   0.520 -0.2642 -0.8009 -0.0302
10066SOL    HW230777   7.092   6.248   0.431 -0.1800  1.3669 -1.4987
10067SOL     OW30778   8.060   1.549   8.455  0.3614 -0.5452  0.6397
10067SOL    HW130779   8.127   1.537   8.522  1.9281 -1.2371 -0.9649
10067SOL    HW230780   8.050   1.644   8.447 -1.9261 -0.3733  3.7186
10068SOL     OW30781   8.319   7.534   2.485  0.3001  0.4105  0.3661
10068SOL    HW130782   8.410   7.544   2.512  0.2855 -0.2589  0.6678
10068SOL    HW230783   8.280   7.477   2.550  0.1473 -0.8517 -0.7763
10069SOL     OW30784   8.511   3.759   8.915 -0.4434 -0.3680  0.2010
10069SOL    HW130785   8.482   3.676   8.952  1.0145 -1.4307 -0.9327
10069SOL    HW230786   8.497   3.749   8.821  3.1744 -0.8754 -0.4039
10070SOL     OW30787   6.236   8.027   2.993 -0.0345  0.8360 -0.4369
10070SOL    HW130788   6.176   8.023   2.918  0.0227  0.1600 -0.4590
10070SOL    HW230789   6.289   7.947   2.985 -1.8025 -0.6940  1.7490
10071SOL     OW30790   2.440   2.926   0.410 -0.2751  0.0185  0.0303
10071SOL    HW130791   2.467   2.923   0.502 -0.5426 -1.4930  0.0714
10071SOL    HW230792   2.356   2.973   0.412 -1.7749 -2.4761  0.9905
10072SOL     OW30793   2.281   5.814   0.229 -0.2626 -0.0301  0.1848
10072SOL    HW130794   2.351   5.796   0.292  1.4571  0.8018 -1.4023
10072SOL    HW230795   2.221   5.871   0.276  0.3795 -0.3251  1.4258
10073SOL     OW30796   5.358   1.321   8.248 -0.0509 -0.0705 -0.2421
10073SOL    HW130797   5.433   1.282   8.203  0.1495  1.4359 -1.3097
10073SOL    HW230798   5.298   1.346   8.177 -0.9692 -0.0448  0.5158
10074SOL     OW30799   3.636   8.052   1.731  0.5838 -0.3763  0.3982
10074SOL    HW130800   3.590   8.097   1.802  0.0416 -0.2325 -0.0473
10074SOL    HW230801   3.620   8.105   1.654  0.6050 -0.9043  0.0271
10075SOL     OW30802   2.239   5.569   6.720 -0.0076  0.3238  0.0442
10075SOL    HW130803   2.214   5.541   6.808 -1.9710 -0.5642 -0.7249
10075SOL    HW230804   2.259   5.662   6.729 -1.1287  0.4789  1.2573
10076SOL     OW30805   7.362   8.481   9.070 -0.0476 -0.1582  0.2554
10076SOL    HW130806   7.304   8.534   9.015 -0.6524 -1.0403  0.0282
10076SOL    HW230807   7.450   8.512   9.049 -0.4461  2.0228  1.4501
10077SOL     OW30808   9.864   1.709   4.384  0.2852  0.0976 -0.5426
10077SOL    HW130809   9.929   1.643   4.365  0.2891 -0.1089  0.1482
10077SOL    HW230810   9.783   1.660   4.398  0.1939  0.2719 -0.4513
10078SOL     OW30811   7.723   2.761   8.442 -0.0902 -0.0818 -0.7254
10078SOL    HW130812   7.724   2.686   8.502 -0.7883 -0.1238 -0.7523
10078SOL    HW230813   7.663   2.734   8.372 -0.1756  0.4165 -0.8462
10079SOL     OW30814   0.627   8.928   1.316  0.1278 -0.5394  0.1940
10079SOL    HW130815   0.569   8.855   1.335  1.9231 -2.2122 -0.3562
10079SOL    HW230816   0.664   8.953   1.400 -0.1449 -0.5579  0.3194
10080SOL     OW30817   5.832   8.078   9.953 -0.2077 -0.6751 -0.0312
10080SOL    HW130818   5.873   8.028  10.024  0.9665 -0.5858 -0.6347
10080SOL    HW230819   5.803   8.011   9.891  1.2324 -0.6506 -0.7681
10081SOL     OW30820   1.316   0.085   3.759  0.0210  0.0587  0.2500
10081SOL    HW130821   1.397   0.101   3.807 -0.1598  0.5473  0.3897
10081SOL    HW230822   1.292  -0.005   3.782 -0.7876  0.7289  2.1506
10082SOL     OW30823   0.861   7.018   5.482  0.0480 -0.2020  0.0069
10082SOL    HW130824   0.895   7.076   5.550 -1.3541  0.6764 -0.0010
10082SOL    HW230825   0.795   6.965   5.527 -0.0910 -0.3983 -0.4252
10083SOL     OW30826   1.473   9.397   2.429  0.0408  0.3065  0.4692
10083SOL    HW130827   1.408   9.464   2.410  0.2416  0.2761 -0.3512
10083SOL    HW230828   1.474   9.341   2.351  1.9703  1.0625 -0.0968
10084SOL     OW30829   7.830   9.378   2.124 -0.2772  0.0739  0.2812
10084SOL    HW130830   7.830   9.289   2.158  0.9924 -0.0570 -0.0271
10084SOL    HW230831   7.892   9.426   2.179  0.7691  0.1870 -0.9359
10085SOL     OW30832   1.271   8.502   1.731  1.0325  0.2202  0.0986
10085SOL    HW130833   1.357   8.531   1.762  0.7839 -0.1796  1.2083
10085SOL    HW230834   1.213   8.576   1.749  1.6201  1.7346 -3.3934
10086SOL     OW30835   3.439   8.234   0.275 -0.6784  0.5301  0.1426
10086SOL    HW130836   3.526   8.273   0.280  0.1370 -1.3170  1.4465
10086SOL    HW230837   3.421   8.227   0.181  2.0054 -1.9115 -0.3233
10087SOL     OW30838   8.830   7.370   1.283 -0.4611 -0.6058 -0.1664
10087SOL    HW130839   8.907   7.320   1.254 -0.9652 -2.8106  1.9200
10087SOL    HW230840   8.816   7.341   1.373 -2.7583  1.0099  0.0829
10088SOL     OW30841   9.190   7.488   9.445 -0.1407  0.0724 -0.2453
10088SOL    HW130842   9.195   7.393   9.439  0.9043  0.1226 -0.2594
10088SOL    HW230843   9.148   7.515   9.364  0.4106 -0.3092 -0.6622
10089SOL     OW30844   5.383   1.030   3.613 -0.4222  0.3594  0.2248
10089SOL    HW130845   5.375   1.037   3.518  0.3865  2.5117  0.2727
10089SOL    HW230846   5.406   0.938   3.628 -0.4990 -0.0093 -1.6507
10090SOL     OW30847   6.744   1.280   4.616 -0.6753 -0.0824 -0.0996
10090SOL    HW130848   6.669   1.267   4.558 -0.5054  0.0541 -0.3546
10090SOL    HW230849   6.808   1.327   4.562 -0.9290  1.0235  0.5234
10091SOL     OW30850   4.959   6.239   7.047 -0.5815 -0.6357  0.0797
10091SOL    HW130851   4.942   6.240   6.953  0.7929 -0.4769 -0.1790
10091SOL    HW230852   4.952   6.331   7.073  0.5788 -0.4713 -0.1651
10092SOL     OW30853   2.303   8.113   6.982  0.7147 -0.1915  0.7478
10092SOL    HW130854   2.296   8.075   6.895  2.1831 -0.9891  0.9567
10092SOL    HW230855   2.385   8.162   6.981 -0.4376  1.8753  0.9346
10093SOL     OW30856   6.999   6.512   4.974 -0.1234 -0.0091  0.0950
10093SOL    HW130857   7.027   6.603   4.986  0.0300  0.0166 -0.4509
10093SOL    HW230858   6.913   6.519   4.935  0.2588 -0.0972 -0.7806
10094SOL     OW30859   5.104   0.787   8.917 -0.4098 -0.0597 -0.3141
10094SOL    HW130860   5.118   0.748   9.004 -1.5454 -0.4226 -0.2755
10094SOL    HW230861   5.010   0.775   8.900 -0.6867  2.0189 -0.6132
10095SOL     OW30862   1.570   2.097   9.424 -0.4294  0.1271  0.1093
10095SOL    HW130863   1.570   2.111   9.518  0.1165 -2.2270  0.5022
10095SOL    HW230864   1.647   2.145   9.393  0.6268 -0.8107  1.1820
10096SOL     OW30865   1.099   1.556   9.222 -0.0355  0.1526 -0.0412
10096SOL    HW130866   1.187   1.583   9.250 -0.5932  0.7047  1.2520
10096SOL    HW230867   1.052   1.639   9.209 -0.9137 -0.1439  1.1240
10097SOL     OW30868   5.100   6.112   2.201  0.2172  0.5257  0.3047
10097SOL    HW130869   5.096   6.033   2.255 -0.1384 -0.0616 -0.5698
10097SOL    HW230870   5.185   6.151   2.222  0.5873 -0.3245  0.4187
10098SOL     OW30871   4.943   5.114   8.615  0.6414 -0.0370 -0.1049
10098SOL    HW130872   4.999   5.165   8.557  1.4966 -0.6530  0.1546
10098SOL    HW230873   4.931   5.169   8.692 -1.7738  1.4423 -1.4439
10099SOL     OW30874   7.313   7.510   7.480  0.3861  0.4597  0.1389
10099SOL    HW130875   7.315   7.509   7.384 -0.3079  0.3170  0.1179
10099SOL    HW230876   7.332   7.420   7.506  2.0119  0.7948  0.1872
10100SOL     OW30877   7.030   5.326   3.443  0.0630  0.7060 -0.2322
10100SOL    HW130878   7.088   5.400   3.425  0.0770  0.6908 -0.2491
10100SOL    HW230879   6.999   5.298   3.357  1.3022 -0.3184 -0.3759
10101SOL     OW30880   9.700   3.777   5.744  0.1560 -0.0909  0.5512
10101SOL    HW130881   9.766   3.771   5.675  0.7836  0.1218  1.1159
10101SOL    HW230882   9.636   3.710   5.721  1.0497 -0.9502  0.4762
10102SOL     OW30883   5.021   3.129   9.143  0.0786  0.1765 -0.1661
10102SOL    HW130884   4.943   3.093   9.101 -1.8274 -0.2232  3.2967
10102SOL    HW230885   5.076   3.053   9.163  0.0498  0.1441 -0.2126
10103SOL     OW30886   7.458   8.287   9.910  0.1393 -0.4069 -0.3858
10103SOL    HW130887   7.541   8.330   9.888 -1.0233  2.0052 -0.3317
10103SOL    HW230888   7.414   8.348   9.969 -2.3250 -0.9127 -1.5517
10104SOL     OW30889   3.710   9.936   1.801  0.3945  0.6256  0.1760
10104SOL    HW130890   3.765   9.957   1.726 -0.9250  1.2066 -0.6772
10104SOL    HW230891   3.679   9.847   1.784 -1.2709  1.3585 -0.9017
10105SOL     OW30892   9.376   3.923   7.074 -0.0273  0.1236 -0.2220
10105SOL    HW130893   9.443   3.864   7.108  0.0632 -1.0657 -2.3433
10105SOL    HW230894   9.377   3.997   7.135  2.9246 -0.0401  0.0634
10106SOL     OW30895   7.138   8.290   0.474 -0.0857 -0.0956  0.1311
10106SOL    HW130896   7.061   8.339   0.500  0.0879  1.0563 -1.3987
10106SOL    HW230897   7.174   8.339   0.400  1.4827 -1.2111  0.1060
10107SOL     OW30898   1.925   8.899   7.256  0.2730  0.0155 -0.1677
10107SOL    HW130899   1.836   8.909   7.287 -0.4262 -0.7011 -1.8364
10107SOL    HW230900   1.963   8.831   7.313 -0.5008 -0.2412  0.0514
10108SOL     OW30901   8.814   4.163   2.932  0.3421  0.8824  0.0884
10108SOL    HW130902   8.889   4.128   2.980  0.5983  0.5149 -0.5740
10108SOL    HW230903   8.801   4.251   2.969  1.1139  0.9603  0.1862
10109SOL     OW30904   8.188   1.286   1.267 -0.1195 -0.2409 -0.3709
10109SOL    HW130905   8.156   1.213   1.321  0.0267  1.4230  2.1590
10109SOL    HW230906   8.162   1.364   1.316  1.7794  1.3649 -1.7851
10110SOL     OW30907   6.155   1.416   1.168  0.1521 -0.3700 -0.3015
10110SOL    HW130908   6.230   1.470   1.194  0.0983 -0.7952  0.8025
10110SOL    HW230909   6.136   1.443   1.079  1.1069  0.3290 -0.3137
10111SOL     OW30910   8.368   7.284   5.697  0.1068 -0.2579 -0.0986
10111SOL    HW130911   8.384   7.201   5.651 -1.5365  0.1551 -1.5091
10111SOL    HW230912   8.348   7.258   5.787  2.9766 -1.1175  0.4085
10112SOL     OW30913   4.135   8.498   9.434 -0.4448  0.0251  0.7767
10112SOL    HW130914   4.164   8.473   9.346 -2.2053 -2.1747  0.7653
10112SOL    HW230915   4.071   8.567   9.419 -2.4878 -1.9157  0.0779
10113SOL     OW30916   3.412   8.366   3.104  0.1658  0.3413  0.4085
10113SOL    HW130917   3.329   8.347   3.060  0.3483 -0.7136  0.4930
10113SOL    HW230918   3.398   8.450   3.147 -0.0373  1.3997 -1.6232
10114SOL     OW30919   9.307   3.270   2.243 -0.6803 -0.3224 -0.1227
10114SOL    HW130920   9.245   3.340   2.223 -0.3098  0.9948  2.7078
10114SOL    HW230921   9.278   3.236   2.328  2.7337  0.8866  1.7452
10115SOL     OW30922   7.704   3.317   0.196 -0.7311  0.3139 -0.5784
10115SOL    HW130923   7.639   3.259   0.235 -0.8558 -0.3102 -1.6608
10115SOL    HW230924   7.776   3.320   0.259 -0.3162 -1.7808 -0.8994
10116SOL     OW30925   6.747   4.763   5.757 -0.1017 -0.0182  0.1421
10116SOL    HW130926   6.690   4.802   5.823 -1.8446  0.9934 -1.8342
10116SOL    HW230927   6.696   4.768   5.676  1.8819 -1.3213 -1.2642
10117SOL     OW30928   7.303   7.466   9.978  0.2453 -0.8331 -0.2065
10117SOL    HW130929   7.355   7.542  10.004 -2.7191  1.4499 -0.3200
10117SOL    HW230930   7.335   7.443   9.891  0.7820  0.7695 -0.4671
10118SOL     OW30931   4.456   4.572   9.890 -0.6160 -0.4723 -0.2782
10118SOL    HW130932   4.487   4.486   9.863 -0.1989 -0.2952 -0.3760
10118SOL    HW230933   4.525   4.606   9.947  0.1976  0.6232 -1.8276
10119SOL     OW30934   7.417   6.668   3.800  0.5400  0.1184  0.2741
10119SOL    HW130935   7.413   6.761   3.777  2.7523 -0.1692 -1.7155
10119SOL    HW230936   7.430   6.624   3.716 -1.1249 -2.0887  1.0974
10120SOL     OW30937   1.313   0.954   2.624 -0.1382 -0.0787  0.1052
10120SOL    HW130938   1.349   1.041   2.640 -0.8458  0.6471 -1.8736
10120SOL    HW230939   1.218   0.967   2.627 -0.3591 -1.5621  3.2977
10121SOL     OW30940   1.476   8.813   7.541 -0.3808  0.2434 -0.1900
10121SOL    HW130941   1.491   8.760   7.620  0.8706  1.6318  0.5654
10121SOL    HW230942   1.456   8.750   7.473  0.8172 -1.2038  0.7319
10122SOL     OW30943   7.338   7.662   9.140  0.0411  0.0162 -0.3214
10122SOL    HW130944   7.296   7.686   9.223 -0.6810 -0.0004 -0.6752
10122SOL    HW230945   7.292   7.714   9.074  0.3550 -0.2556 -0.7573
10123SOL     OW30946   1.174   6.929   6.713  0.6070 -0.2648  0.0695
10123SOL    HW130947   1.083   6.900   6.706  0.5629 -0.1339  0.0967
10123SOL    HW230948   1.216   6.863   6.768  0.3388  0.1084  0.7282
10124SOL     OW30949   8.254   9.679   4.380 -0.7782  0.1140  0.3054
10124SOL    HW130950   8.264   9.584   4.377 -0.9825  0.1195 -0.6727
10124SOL    HW230951   8.162   9.693   4.399 -1.1950  0.1125 -1.5848
10125SOL     OW30952   7.838   2.502   4.459  0.1140 -0.2094 -0.2214
10125SOL    HW130953   7.788   2.447   4.520 -0.2438  0.3818  0.0307
10125SOL    HW230954   7.929   2.483   4.478  0.0635  1.1626  1.6593
10126SOL     OW30955   8.385   7.932   7.661  0.0830  0.3560 -0.1088
10126SOL    HW130956   8.295   7.909   7.680  0.3337 -1.0341 -0.5196
10126SOL    HW230957   8.431   7.924   7.745 -0.2956  1.8900  0.2914
10127SOL     OW30958   8.681   2.563   3.900  0.2282  0.1724 -0.3021
10127SOL    HW130959   8.755   2.503   3.904  1.2463  1.3916 -0.0269
10127SOL    HW230960   8.712   2.635   3.845  0.2885  2.0361  2.0235
10128SOL     OW30961   7.344   7.269   5.167 -0.2368  0.5396 -0.6937
10128SOL    HW130962   7.290   7.308   5.098 -0.2915 -0.2961 -1.1436
10128SOL    HW230963   7.375   7.343   5.219 -1.3459  1.0713 -0.7730
10129SOL     OW30964   6.056   1.844   2.880 -0.1554  0.4124  0.6256
10129SOL    HW130965   5.982   1.900   2.903 -1.0587 -0.4034 -0.1891
10129SOL    HW230966   6.017   1.759   2.863  0.4747  0.6650 -2.9262
10130SOL     OW30967   9.510   5.496   6.470 -0.4518 -0.4529 -0.6154
10130SOL    HW130968   9.494   5.474   6.379  2.3217 -0.9655 -1.0807
10130SOL    HW230969   9.532   5.590   6.469  0.7278 -0.7125 -0.6977
10131SOL     OW30970   3.634   0.799   1.467 -0.1557  0.2030 -0.2169
10131SOL    HW130971   3.655   0.881   1.511  1.3258  0.4587 -1.3125
10131SOL    HW230972   3.614   0.824   1.376 -2.1611 -0.4129 -0.0028
10132SOL     OW30973   9.823   1.237   6.994 -0.3310 -0.0950  0.1716
10132SOL    HW130974   9.850   1.270   6.908 -1.3067  1.7638  0.5341
10132SOL    HW230975   9.728   1.250   6.996 -0.8210 -3.1374  0.3204
10133SOL     OW30976   0.396   8.172   2.610  0.1255 -0.0456  0.0692
10133SOL    HW130977   0.400   8.213   2.524 -1.1601 -0.4860 -0.2195
10133SOL    HW230978   0.306   8.141   2.618  0.6130 -1.3001  0.9832
10134SOL     OW30979   4.780   1.842   1.012  0.5488  0.6403 -0.0775
10134SOL    HW130980   4.697   1.888   1.005  0.7841  1.0004 -0.5682
10134SOL    HW230981   4.808   1.830   0.921  0.4099 -0.6131  0.0290
10135SOL     OW30982   9.259   5.544   4.758 -0.1134 -0.0891 -0.2976
10135SOL    HW130983   9.227   5.458   4.730  0.9816 -0.0494 -1.7552
10135SOL    HW230984   9.221   5.556   4.846 -0.5319 -1.9163 -0.1888
10136SOL     OW30985   4.410   2.908   5.545 -0.2109 -0.7351  0.3555
10136SOL    HW130986   4.499   2.883   5.570 -0.6283 -0.9219  1.7553
10136SOL    HW230987   4.356   2.880   5.619 -0.9774  2.5325  1.1557
10137SOL     OW30988   9.801   5.260   8.517 -0.3519  0.3037 -0.2115
10137SOL    HW130989   9.755   5.340   8.544  2.1738  1.3623  1.2447
10137SOL    HW230990   9.892   5.286   8.508  0.2269 -1.9597 -1.8977
10138SOL     OW30991   7.577   9.097   7.503  0.2677 -0.1075 -0.0487
10138SOL    HW130992   7.649   9.151   7.471  0.7521 -1.5591 -1.5980
10138SOL    HW230993   7.511   9.160   7.532  0.9288  1.3305 -1.4776
10139SOL     OW30994   0.243   6.109   6.638  0.4549 -0.4699 -0.2775
10139SOL    HW130995   0.161   6.129   6.592  1.2049  1.7269 -0.7668
10139SOL    HW230996   0.240   6.162   6.717  1.3185 -0.5103 -0.2064
10140SOL     OW30997   8.847   1.938   0.302  0.9357 -0.1351  0.2265
10140SOL    HW130998   8.935   1.903   0.286 -0.5589 -4.3267 -0.1294
10140SOL    HW230999   8.805   1.938   0.216  0.0990  0.3433  0.6167
10141SOL     OW31000   1.485   5.671   4.948  0.5814  0.0083 -0.2982
10141SOL    HW131001   1.449   5.756   4.975  0.4450 -0.6643  1.7867
10141SOL    HW231002   1.576   5.673   4.978  0.6928 -0.4187 -0.6029
10142SOL     OW31003   8.054   7.964   4.090 -0.0765  0.3402 -0.6216
10142SOL    HW131004   7.988   7.937   4.153 -0.1778 -0.9875 -1.2701
10142SOL    HW231005   8.008   8.025   4.032 -0.5533 -0.0682 -0.6759
10143SOL     OW31006   3.161   5.153   6.869 -0.0905  0.0190 -0.2334
10143SOL    HW131007   3.207   5.237   6.882  0.6006 -0.1678 -1.2857
10143SOL    HW231008   3.164   5.110   6.954 -0.5553  1.1100  0.3508
10144SOL     OW31009   5.148   6.801   3.718 -0.4054  0.0370  0.1187
10144SOL    HW131010   5.147   6.864   3.790 -0.4789 -1.1545  1.1904
10144SOL    HW231011   5.229   6.820   3.671 -1.5182  2.4381 -0.9930
10145SOL     OW31012   5.182   6.121   7.587 -0.7568 -0.6566 -0.6600
10145SOL    HW131013   5.253   6.095   7.528  1.4288  2.5694  0.2229
10145SOL    HW231014   5.102   6.100   7.540  0.8331 -0.7392 -3.5721
10146SOL     OW31015   1.989   2.680   1.292 -0.3585 -0.4008 -0.3983
10146SOL    HW131016   1.999   2.585   1.296 -1.7006 -0.6943 -2.3569
10146SOL    HW231017   2.008   2.702   1.201  0.3208  1.2926  0.1106
10147SOL     OW31018   1.294   8.026   5.776 -0.0379 -0.4160  0.2912
10147SOL    HW131019   1.300   8.079   5.696 -0.4328  0.6934  0.9754
10147SOL    HW231020   1.366   8.057   5.830 -0.5171 -0.2884  0.8651
10148SOL     OW31021   5.885   9.605   9.220  0.2570 -0.3363 -0.5651
10148SOL    HW131022   5.900   9.624   9.128 -0.6203 -0.3292 -0.7168
10148SOL    HW231023   5.853   9.687   9.257  0.6422 -0.3284 -0.2447
10149SOL     OW31024   6.076   4.047   3.236  0.0542 -0.0272 -0.3825
10149SOL    HW131025   6.015   3.989   3.281  1.5634 -1.4538 -0.0623
10149SOL    HW231026   6.160   4.031   3.279  0.6237  2.1057 -0.5900
10150SOL     OW31027   0.789   2.480   1.399 -0.2050 -0.1785  0.4275
10150SOL    HW131028   0.867   2.450   1.444 -0.3316 -0.0832  0.7106
10150SOL    HW231029   0.791   2.575   1.408 -0.0275 -0.1252 -0.1013
10151SOL     OW31030   6.350   7.999   5.132 -0.1893  0.1150 -0.5918
10151SOL    HW131031   6.307   8.012   5.047 -1.0644 -0.6397 -0.2803
10151SOL    HW231032   6.289   8.038   5.195  0.2046  0.1866 -0.2536
10152SOL     OW31033   1.183   7.323   8.431 -0.3997 -0.4252 -0.0683
10152SOL    HW131034   1.092   7.351   8.443 -0.5988 -1.5820  1.5504
10152SOL    HW231035   1.220   7.323   8.520  1.0384 -0.4845 -0.6291
10153SOL     OW31036   3.404   2.830   1.862 -0.0346  0.7384 -0.3910
10153SOL    HW131037   3.483   2.856   1.908 -0.4322  1.0782  0.1099
10153SOL    HW231038   3.415   2.866   1.773  1.2450 -0.9089 -0.9358
10154SOL     OW31039   1.401   4.060   1.119 -0.3524  0.0151  0.2593
10154SOL    HW131040   1.352   3.987   1.156 -1.3397  0.3520 -0.3608
10154SOL    HW231041   1.394   4.050   1.024  0.7287  0.1096  0.1530
10155SOL     OW31042   1.207   9.767   0.553 -0.2092  0.1074  0.3223
10155SOL    HW131043   1.295   9.742   0.523  0.7259  3.3285 -0.0428
10155SOL    HW231044   1.178   9.693   0.605  2.4284 -1.4062 -0.1547
10156SOL     OW31045   7.731   8.561   5.536  0.0535  0.1100 -0.0893
10156SOL    HW131046   7.826   8.571   5.544  0.5177 -1.2300 -2.8677
10156SOL    HW231047   7.714   8.469   5.556 -0.6769  0.2883  0.1764
10157SOL     OW31048   2.437   8.377   3.506 -0.1953 -0.6055 -0.3909
10157SOL    HW131049   2.361   8.408   3.457  0.5121  0.3069 -0.9323
10157SOL    HW231050   2.474   8.308   3.452 -0.1120 -0.4201 -0.5729
10158SOL     OW31051   3.175   8.020   3.947  0.2631  0.1986  0.4399
10158SOL    HW131052   3.100   8.076   3.961  1.1644  1.3866  0.6854
10158SOL    HW231053   3.140   7.931   3.950 -1.2304  0.7395 -0.1867
10159SOL     OW31054   6.340   6.735   8.204  0.4744 -0.3034 -0.3370
10159SOL    HW131055   6.268   6.677   8.181  1.7071 -1.4051 -1.6415
10159SOL    HW231056   6.345   6.797   8.130  0.1521  0.5001  0.3006
10160SOL     OW31057   7.471   3.555   3.034 -0.1967 -0.4478 -0.8096
10160SOL    HW131058   7.458   3.474   3.082 -0.6364  0.7806  1.2591
10160SOL    HW231059   7.383   3.586   3.014 -0.0331 -0.4856 -1.6340
10161SOL     OW31060   0.189   5.326   2.337  0.4858  0.2334 -0.1271
10161SOL    HW131061   0.142   5.389   2.391  1.3616 -0.7394  1.8659
10161SOL    HW231062   0.246   5.380   2.282  0.0082  1.2256  0.3269
10162SOL     OW31063   5.489   0.155   4.911 -0.1173 -0.3491 -0.4282
10162SOL    HW131064   5.417   0.198   4.956 -0.6236 -0.8663 -0.7270
10162SOL    HW231065   5.540   0.113   4.980 -0.9601 -1.2454 -0.3289
10163SOL     OW31066   4.118   3.678   6.105 -0.1547 -0.4387  0.5354
10163SOL    HW131067   4.082   3.706   6.020  2.0738 -0.0665 -0.3536
10163SOL    HW231068   4.061   3.719   6.170 -1.9970 -0.8381 -0.7522
10164SOL     OW31069   6.351   2.533   4.479 -0.6807 -0.4177 -0.0383
10164SOL    HW131070   6.332   2.626   4.494  1.6908 -0.0572  1.2406
10164SOL    HW231071   6.354   2.494   4.566 -0.2252 -1.3753 -0.4650
10165SOL     OW31072   8.521   3.639   5.191 -0.5121  0.1616  0.5745
10165SOL    HW131073   8.499   3.701   5.260 -0.4303  0.4956  0.3047
10165SOL    HW231074   8.445   3.581   5.186 -1.5778  1.5915 -0.6774
10166SOL     OW31075   6.865   3.074   4.653 -0.4932 -0.0750 -0.0146
10166SOL    HW131076   6.819   3.117   4.581 -0.9060  1.4148  1.1048
10166SOL    HW231077   6.838   2.983   4.647 -1.5455  0.2705 -0.9479
10167SOL     OW31078   3.194   0.547   6.281 -0.6179  0.6183  0.1608
10167SOL    HW131079   3.107   0.518   6.252 -0.3549  1.0128 -1.0961
10167SOL    HW231080   3.190   0.642   6.274  0.3045  0.5843 -1.1379
10168SOL     OW31081   9.864   3.186   6.010 -0.1264  0.3976  0.2033
10168SOL    HW131082   9.872   3.135   6.090 -0.3306 -0.8585 -0.5362
10168SOL    HW231083   9.791   3.245   6.026 -3.0574 -2.7020 -0.4387
10169SOL     OW31084   1.619   1.649   1.970 -0.2321 -0.0484  1.1686
10169SOL    HW131085   1.643   1.607   1.887 -1.7012 -3.5691  2.3234
10169SOL    HW231086   1.657   1.737   1.965  2.3902 -1.1738 -1.8986
10170SOL     OW31087   2.882   4.455   5.295  0.1743 -0.3664  0.2937
10170SOL    HW131088   2.912   4.448   5.385 -1.8983 -2.9440  0.8977
10170SOL    HW231089   2.910   4.543   5.267  0.2964  0.7894  3.6283
10171SOL     OW31090   6.834   9.667   5.710 -0.4695 -0.2693 -0.8663
10171SOL    HW131091   6.893   9.684   5.783 -0.7244 -1.3863 -0.3789
10171SOL    HW231092   6.790   9.585   5.733 -1.9238  0.3268 -1.3940
10172SOL     OW31093   8.611   9.097   6.064 -0.1843  0.0382  0.3214
10172SOL    HW131094   8.671   9.152   6.013  0.5051  0.5496  1.6474
10172SOL    HW231095   8.609   9.014   6.017  2.3806 -0.3578  0.7680
10173SOL     OW31096   0.241   9.818   6.064  0.3376  0.2092 -0.2710
10173SOL    HW131097   0.199   9.850   6.144 -1.0352 -0.7099 -0.5753
10173SOL    HW231098   0.206   9.874   5.995 -0.4303 -0.5673 -0.5288
10174SOL     OW31099   6.691   3.121   9.167  0.6911 -0.0720 -0.2936
10174SOL    HW131100   6.618   3.137   9.107  1.3563 -0.9732 -1.3728
10174SOL    HW231101   6.649   3.111   9.253 -0.2671  1.3477 -0.5648
10175SOL     OW31102   3.840   1.936   8.802 -0.4142  0.0130 -0.3294
10175SOL    HW131103   3.920   1.975   8.767  0.9094 -1.5506  0.7560
10175SOL    HW231104   3.825   1.859   8.747  0.5908 -1.3732  1.2033
10176SOL     OW31105   6.582   3.132   9.408 -0.8306  0.3000 -0.3722
10176SOL    HW131106   6.633   3.067   9.457  0.5995  0.2935 -1.7883
10176SOL    HW231107   6.494   3.094   9.402 -0.5673 -0.5135  0.6243
10177SOL     OW31108   9.040   4.799   9.361 -1.5133 -0.2404 -0.3551
10177SOL    HW131109   9.021   4.776   9.452 -0.0652 -0.4496 -0.0890
10177SOL    HW231110   9.036   4.716   9.314 -0.7402 -0.3769 -0.1949
10178SOL     OW31111   3.257   6.159   9.466  0.4390  0.0818 -0.0770
10178SOL    HW131112   3.212   6.075   9.462  0.0102  0.2861  0.3624
10178SOL    HW231113   3.245   6.198   9.379 -2.6603  1.3647  0.7878
10179SOL     OW31114   4.887   6.275   6.518 -0.2712  0.5285  0.2286
10179SOL    HW131115   4.871   6.188   6.554 -0.1291  0.4263  0.0437
10179SOL    HW231116   4.980   6.276   6.496 -0.5006  0.3290 -0.8340
10180SOL     OW31117   9.689   9.637   1.042  0.3527 -0.7830 -0.8901
10180SOL    HW131118   9.603   9.606   1.013 -0.1282  0.4583 -0.8705
10180SOL    HW231119   9.727   9.679   0.965  0.9752 -1.3451 -0.9056
10181SOL     OW31120   7.411   3.912   4.161 -0.1911  0.4169  0.3352
10181SOL    HW131121   7.443   3.911   4.252 -0.1333 -1.6029  0.3429
10181SOL    HW231122   7.485   3.879   4.110 -0.0136  2.1078 -0.5619
10182SOL     OW31123   7.037   7.191   7.462 -0.0724  0.2660 -0.6927
10182SOL    HW131124   7.102   7.225   7.523 -1.3037  0.3308  0.6504
10182SOL    HW231125   7.069   7.105   7.436  1.5114  1.0950 -1.6471
10183SOL     OW31126   4.436   3.147   0.606  0.0751  0.1199 -0.3508
10183SOL    HW131127   4.340   3.137   0.607 -0.0363  1.0876  0.2288
10183SOL    HW231128   4.468   3.065   0.568 -0.9475 -0.5351  0.1277
10184SOL     OW31129   3.573   5.417   4.345 -0.1187  0.4867  0.1734
10184SOL    HW131130   3.645   5.406   4.284 -1.1046  0.2477 -0.9817
10184SOL    HW231131   3.548   5.509   4.336 -0.7743  0.2607 -0.3846
10185SOL     OW31132   7.107   5.014   9.284 -0.3820  0.4005 -0.2886
10185SOL    HW131133   7.063   5.078   9.228  0.0565  0.8008 -0.1869
10185SOL    HW231134   7.104   4.932   9.234  0.5310  0.8902 -1.1834
10186SOL     OW31135   7.576   5.352   4.288 -0.6213 -0.2912  0.0690
10186SOL    HW131136   7.584   5.436   4.335 -0.0324  1.4450 -2.8954
10186SOL    HW231137   7.484   5.347   4.264 -0.7208 -0.6818  0.5182
10187SOL     OW31138   9.170   1.427   9.741  0.5177  0.0823 -0.0575
10187SOL    HW131139   9.262   1.448   9.750  0.3603  0.6104  0.3040
10187SOL    HW231140   9.150   1.371   9.816  0.2576  0.9346  0.5098
10188SOL     OW31141   1.507   1.984   4.856  0.0424  0.0130  0.0463
10188SOL    HW131142   1.433   2.020   4.807 -1.0641 -0.2413  1.4382
10188SOL    HW231143   1.533   1.906   4.807 -0.1361  0.5114 -0.8530
10189SOL     OW31144   4.027   3.097   9.633  0.0433 -0.1725  0.6390
10189SOL    HW131145   4.077   3.104   9.552 -0.5851 -1.4376  0.1103
10189SOL    HW231146   3.958   3.034   9.613 -0.1369 -0.4914  2.1554
10190SOL     OW31147   0.054   5.811   9.181 -0.1999 -0.1054 -0.1224
10190SOL    HW131148  -0.040   5.822   9.195 -0.6356 -0.8867 -2.1835
10190SOL    HW231149   0.066   5.820   9.087  1.3893 -2.7255 -0.2702
10191SOL     OW31150   1.919   7.813   1.840 -0.8026 -0.4656 -0.2423
10191SOL    HW131151   1.901   7.757   1.916 -0.5990 -0.0501  0.1150
10191SOL    HW231152   1.991   7.870   1.868 -0.7064 -0.3254 -0.7574
10192SOL     OW31153   1.348   2.810   3.107  0.1252  0.3286  1.1118
10192SOL    HW131154   1.401   2.735   3.137 -0.7687 -0.4243  0.8599
10192SOL    HW231155   1.297   2.775   3.034  0.8572  1.6173 -0.0776
10193SOL     OW31156   4.410   3.433   3.617  0.0351  0.2577  0.3873
10193SOL    HW131157   4.396   3.505   3.679 -0.3211 -0.0221  0.6409
10193SOL    HW231158   4.503   3.411   3.626  0.0071  0.2814  0.7611
10194SOL     OW31159   3.868   4.628   9.465 -0.2301  0.6181  0.2726
10194SOL    HW131160   3.817   4.687   9.410 -1.2199  0.0483  0.5494
10194SOL    HW231161   3.802   4.578   9.514  0.5748 -0.5533  0.2137
10195SOL     OW31162   8.688   5.503   7.777 -0.5973 -0.1352 -0.0635
10195SOL    HW131163   8.767   5.556   7.786  1.4760 -2.9079 -0.7223
10195SOL    HW231164   8.678   5.488   7.683 -0.3050 -1.9367  0.1428
10196SOL     OW31165   0.385   7.730   7.523  0.2821  0.8820 -0.5857
10196SOL    HW131166   0.329   7.744   7.446 -1.7159 -1.5361  0.2755
10196SOL    HW231167   0.421   7.642   7.511 -0.4266  0.2640  1.4125
10197SOL     OW31168   9.882   1.162   1.656 -0.6288  0.3118  0.0137
10197SOL    HW131169   9.903   1.127   1.743  1.8374  2.3522  0.3412
10197SOL    HW231170   9.920   1.250   1.655  0.3458  0.0181 -3.4728
10198SOL     OW31171   7.104   9.716   2.426  0.1888 -0.6021 -0.0150
10198SOL    HW131172   7.013   9.746   2.418  0.0623 -0.8968  0.3182
10198SOL    HW231173   7.142   9.733   2.339  0.5318  1.8370  0.5366
10199SOL     OW31174   8.315   1.713   9.903 -0.0625  0.4098  0.3623
10199SOL    HW131175   8.292   1.627   9.868 -0.7670  0.7770 -0.1041
10199SOL    HW231176   8.231   1.758   9.914  0.2183  0.6716  1.5813
10200SOL     OW31177   0.155   5.099   8.849  0.2914  0.0466  0.0569
10200SOL    HW131178   0.143   5.094   8.944  1.0178 -1.6299  0.0917
10200SOL    HW231179   0.229   5.041   8.831  0.5642  0.8249 -1.4770
10201SOL     OW31180   1.988   8.268   1.739  0.0388 -0.2355 -0.4268
10201SOL    HW131181   2.027   8.273   1.826 -2.0131  2.6853  0.4556
10201SOL    HW231182   1.921   8.199   1.747 -2.7770  2.4566  1.6577
10202SOL     OW31183   1.638   4.849   0.548 -0.0323  0.1904  0.3183
10202SOL    HW131184   1.584   4.779   0.583  0.2469  0.0749  0.5233
10202SOL    HW231185   1.726   4.812   0.544 -0.3911 -0.5875 -2.6480
10203SOL     OW31186   0.736   4.904   2.403 -0.1595 -0.3965 -0.4535
10203SOL    HW131187   0.734   4.966   2.476  0.5652 -2.4102  1.3945
10203SOL    HW231188   0.826   4.909   2.370 -0.1000 -0.4681 -0.3021
10204SOL     OW31189   9.460   8.921   0.415 -0.2167  0.5130  0.2017
10204SOL    HW131190   9.396   8.985   0.446 -0.5456  0.7534 -0.9193
10204SOL    HW231191   9.522   8.911   0.487 -0.4193  1.7590  0.5646
10205SOL     OW31192   6.554   1.863   6.091  0.4583 -0.8134 -0.0808
10205SOL    HW131193   6.520   1.809   6.163  0.5477 -0.0494  0.5525
10205SOL    HW231194   6.479   1.915   6.064  0.8783  0.2543  0.7394
10206SOL     OW31195   5.099   1.092   3.224  0.2451  0.1361 -0.1886
10206SOL    HW131196   5.032   1.142   3.176 -0.5469 -0.8978 -0.1804
10206SOL    HW231197   5.050   1.042   3.288  1.1454  0.1748  0.5398
10207SOL     OW31198   8.998   2.443   3.462 -0.0421 -0.8460  0.1992
10207SOL    HW131199   9.085   2.478   3.440 -0.4339 -0.7909 -1.4364
10207SOL    HW231200   9.002   2.352   3.433 -0.6324 -0.7371 -0.2575
10208SOL     OW31201   2.129   7.920   3.112  0.1464  0.3000 -0.0904
10208SOL    HW131202   2.098   7.925   3.022  0.1753 -1.5865 -0.2486
10208SOL    HW231203   2.210   7.971   3.112 -0.4119  1.2320 -0.8435
10209SOL     OW31204   3.029   2.124   0.756 -0.2151  0.1890 -0.9227
10209SOL    HW131205   2.960   2.190   0.748  2.0829  2.7938 -0.4218
10209SOL    HW231206   3.002   2.070   0.831 -2.2273  0.4034 -1.4440
10210SOL     OW31207   1.127   9.652   0.098  0.5032 -0.0602 -0.2944
10210SOL    HW131208   1.047   9.600   0.112  1.3415 -1.1779  0.5495
10210SOL    HW231209   1.114   9.730   0.152 -0.3892  0.2001 -0.8598
10211SOL     OW31210   3.532   5.074   4.581 -0.1054  0.0279  0.0079
10211SOL    HW131211   3.557   4.992   4.538 -3.2466 -0.6487 -0.7740
10211SOL    HW231212   3.484   5.045   4.659  2.2179  1.2328  1.9993
10212SOL     OW31213   6.710   3.404   1.389  0.3030 -0.0980  0.1834
10212SOL    HW131214   6.721   3.499   1.388  2.5892 -0.3125  0.4835
10212SOL    HW231215   6.674   3.386   1.476  0.7895  0.4093  0.4946
10213SOL     OW31216   1.437   2.120   5.869 -0.2849  0.0891  0.2797
10213SOL    HW131217   1.368   2.116   5.802  0.4844 -1.3803 -0.4609
10213SOL    HW231218   1.391   2.100   5.951 -1.1636  1.5092  0.1682
10214SOL     OW31219   3.896   4.311   0.978  0.1630 -0.0925 -0.6032
10214SOL    HW131220   3.873   4.398   1.011 -1.8164 -1.3155  1.5823
10214SOL    HW231221   3.832   4.293   0.910 -0.0261 -0.1757 -0.4067
10215SOL     OW31222   1.654   5.377   6.934 -0.3137 -0.0274  0.3897
10215SOL    HW131223   1.594   5.309   6.905 -1.2267  0.8557  0.1780
10215SOL    HW231224   1.628   5.456   6.886  0.9971  0.3874  0.2987
10216SOL     OW31225   8.862   9.373   4.529  0.2967  0.7048  0.0160
10216SOL    HW131226   8.868   9.338   4.440  0.3187  1.9263 -0.4785
10216SOL    HW231227   8.796   9.442   4.524 -0.5290  0.0410  1.2148
10217SOL     OW31228   6.423   0.001   2.968  0.4472 -0.2528 -0.0552
10217SOL    HW131229   6.494   0.060   2.941  0.1350 -0.1328 -0.6389
10217SOL    HW231230   6.440  -0.017   3.060  0.3038  1.1074  0.2589
10218SOL     OW31231   1.960   1.220   4.963 -0.1323 -0.1230 -0.8752
10218SOL    HW131232   1.973   1.128   4.983  0.4391  0.1509  0.0984
10218SOL    HW231233   1.867   1.235   4.978  0.2217  0.0340  1.6648
10219SOL     OW31234   5.614   0.280   8.878  0.2131 -0.0798  0.0507
10219SOL    HW131235   5.617   0.189   8.906  0.7270  0.4742  1.9350
10219SOL    HW231236   5.615   0.331   8.959  1.1274  1.6376 -0.9710
10220SOL     OW31237   4.772   0.762   1.239 -0.1754  0.1470 -0.2067
10220SOL    HW131238   4.807   0.674   1.228 -0.0116  0.2293 -0.3544
10220SOL    HW231239   4.849   0.819   1.238 -0.0643  0.1115  2.1541
10221SOL     OW31240   3.693   2.771   8.790 -0.3513 -0.8558 -0.0217
10221SOL    HW131241   3.739   2.839   8.741 -0.5346 -0.9230 -0.2878
10221SOL    HW231242   3.762   2.723   8.835 -0.3165  0.4713  1.4275
10222SOL     OW31243   8.304   6.621   4.605  0.4664  0.5040 -0.2433
10222SOL    HW131244   8.259   6.538   4.591  2.4446 -0.9092  1.2701
10222SOL    HW231245   8.393   6.607   4.572  0.5641  2.4010 -0.9449
10223SOL     OW31246   7.720   5.291   7.053  0.3900 -0.1009  0.3503
10223SOL    HW131247   7.708   5.293   7.148 -1.5237 -1.4279  0.2019
10223SOL    HW231248   7.769   5.210   7.037  0.4921 -0.0080  0.1937
10224SOL     OW31249   4.722   1.292   9.360  0.6026  0.3382  0.2342
10224SOL    HW131250   4.637   1.289   9.403  0.6952  0.1541  0.4054
10224SOL    HW231251   4.714   1.363   9.296  0.4752  0.6366  0.5797
10225SOL     OW31252   0.357   2.347   4.855 -0.1185 -0.3106  0.0687
10225SOL    HW131253   0.394   2.425   4.814  1.6895 -0.9124  0.4598
10225SOL    HW231254   0.289   2.380   4.913 -0.6154  0.8076 -1.1087
10226SOL     OW31255   4.319   3.661   5.339 -0.2889 -0.2355  0.5078
10226SOL    HW131256   4.375   3.679   5.263  0.9420  1.1231  1.6840
10226SOL    HW231257   4.342   3.571   5.364  1.1210  0.1606  0.7334
10227SOL     OW31258   6.217   2.616   7.643  0.1832  0.1457 -0.9181
10227SOL    HW131259   6.291   2.637   7.586  0.0440 -2.1743 -2.0607
10227SOL    HW231260   6.145   2.594   7.583 -0.2503 -1.4329  0.1003
10228SOL     OW31261   8.721   9.044   6.927 -0.2133 -0.4138 -0.6502
10228SOL    HW131262   8.728   9.058   7.022 -3.5094 -0.1510 -0.3525
10228SOL    HW231263   8.716   9.132   6.890 -1.9003 -0.5100 -0.7172
10229SOL     OW31264   5.132   1.329   4.736  0.0260 -0.5954 -0.3631
10229SOL    HW131265   5.112   1.420   4.759 -0.2971 -0.7309 -0.1167
10229SOL    HW231266   5.227   1.328   4.727 -0.0154 -0.0866 -0.9817
10230SOL     OW31267   2.513   3.225   5.979 -0.2347  0.6288 -0.0856
10230SOL    HW131268   2.540   3.150   6.033  1.8720  0.8751 -0.7239
10230SOL    HW231269   2.456   3.186   5.912 -0.2093 -0.1885  0.3488
10231SOL     OW31270   3.853   4.088   6.720 -0.7265 -0.2756 -0.3456
10231SOL    HW131271   3.771   4.111   6.764 -0.4716 -0.0323  0.0183
10231SOL    HW231272   3.868   4.160   6.659 -0.4442  0.0313  0.0735
10232SOL     OW31273   1.366   7.381   6.500  0.2856  0.2571  0.2347
10232SOL    HW131274   1.320   7.464   6.490  0.7649  0.6933  1.4719
10232SOL    HW231275   1.303   7.315   6.469 -0.4119  1.0024  0.0255
10233SOL     OW31276   6.638   1.753   2.710  0.3974 -0.9021  0.6981
10233SOL    HW131277   6.655   1.841   2.743  1.7715 -0.5524 -0.7835
10233SOL    HW231278   6.617   1.766   2.618 -0.8865 -2.0248  0.8152
10234SOL     OW31279   8.396   4.755   5.538 -0.6683  0.3506 -0.1271
10234SOL    HW131280   8.461   4.761   5.468 -1.7485 -1.3895 -1.3545
10234SOL    HW231281   8.416   4.830   5.595  1.7742  0.4303 -0.9510
10235SOL     OW31282   8.018   2.168   4.266 -0.5018 -0.5411  0.4816
10235SOL    HW131283   7.995   2.259   4.249  1.4248 -0.1695 -0.4598
10235SOL    HW231284   8.066   2.170   4.349 -0.9824 -0.7956  0.7684
10236SOL     OW31285   0.481   6.126   0.267 -0.3588  0.1867 -0.2650
10236SOL    HW131286   0.552   6.187   0.285  1.8317 -0.9788 -3.8870
10236SOL    HW231287   0.414   6.178   0.223  0.5479  0.4535 -1.3869
10237SOL     OW31288   1.284   0.924   8.974  0.1687  0.5028 -0.6740
10237SOL    HW131289   1.308   1.014   8.994  1.0328 -0.1804  1.7469
10237SOL    HW231290   1.345   0.897   8.906 -0.0543  1.6915 -1.3709
10238SOL     OW31291   5.957   8.307   7.468 -0.4739 -0.4330  0.2073
10238SOL    HW131292   5.984   8.398   7.478 -0.1729 -0.4732 -0.2252
10238SOL    HW231293   5.953   8.273   7.557  0.9393 -0.4324  0.2835
10239SOL     OW31294   3.323   5.321   3.058  0.1563  0.2999  0.0812
10239SOL    HW131295   3.357   5.407   3.032 -1.0406  1.0767  0.9909
10239SOL    HW231296   3.389   5.286   3.118  0.7024  0.5062 -0.3789
10240SOL     OW31297   4.846   6.066   9.975 -0.2448  0.2997 -0.2393
10240SOL    HW131298   4.860   5.999   9.908  0.3096 -2.1341  2.1253
10240SOL    HW231299   4.933   6.103   9.990 -0.2054  0.1690 -0.1548
10241SOL     OW31300   0.561   5.425   7.165 -0.2851  0.1684  0.0537
10241SOL    HW131301   0.520   5.339   7.152  0.9393 -0.1659 -1.9168
10241SOL    HW231302   0.645   5.419   7.121  1.0854  1.4931  2.3007
10242SOL     OW31303   4.166   8.863   3.338  0.4495 -0.4289  0.1777
10242SOL    HW131304   4.210   8.807   3.402 -0.8659 -3.1724 -1.1628
10242SOL    HW231305   4.230   8.932   3.319  1.7558 -0.8358  2.6594
10243SOL     OW31306   0.209   2.860   3.324 -0.4232  0.4876 -0.1726
10243SOL    HW131307   0.198   2.766   3.311  1.8830  0.3399 -1.7116
10243SOL    HW231308   0.180   2.875   3.414 -1.3843 -1.5762 -0.0757
10244SOL     OW31309   0.272   0.772   6.655 -0.2178 -0.1512  0.3746
10244SOL    HW131310   0.297   0.864   6.649 -0.4096 -0.0544  1.0180
10244SOL    HW231311   0.219   0.756   6.577  0.8619 -0.0545 -0.4023
10245SOL     OW31312   8.705   0.224   2.016  0.6955  0.1452  0.0926
10245SOL    HW131313   8.683   0.307   2.058  0.6590  1.1529 -1.8367
10245SOL    HW231314   8.776   0.244   1.956 -0.2874 -0.8743 -1.4961
10246SOL     OW31315   8.260   9.822   2.457 -0.1049 -0.4460  0.3361
10246SOL    HW131316   8.294   9.748   2.508 -2.4076 -0.5597  1.8507
10246SOL    HW231317   8.324   9.834   2.388  0.6619 -3.5193  0.3433
10247SOL     OW31318   3.011   2.923   0.992 -0.0644 -0.0811 -0.0604
10247SOL    HW131319   2.939   2.941   0.932 -1.7634 -0.5562  1.7331
10247SOL    HW231320   3.050   2.842   0.958 -2.4679 -1.6654  0.6686
10248SOL     OW31321   7.344   9.107   4.458 -0.0708 -0.3970 -0.7148
10248SOL    HW131322   7.383   9.144   4.379  1.3167 -0.4623 -0.0925
10248SOL    HW231323   7.364   9.170   4.526 -1.2063 -0.3714 -0.3846
10249SOL     OW31324   6.508   5.186   3.733  0.5770 -0.8594  0.1682
10249SOL    HW131325   6.415   5.206   3.723  0.7961 -0.4843 -1.3301
10249SOL    HW231326   6.549   5.271   3.749  0.7614 -0.9084 -0.0419
10250SOL     OW31327   3.111   7.128   2.829  0.2177  0.3356  0.3888
10250SOL    HW131328   3.087   7.210   2.787 -1.6116 -0.8494 -1.0090
10250SOL    HW231329   3.056   7.124   2.908  0.0069  0.2581  0.2372
10251SOL     OW31330   2.727   9.388   2.706  0.6374  0.7670  0.1994
10251SOL    HW131331   2.672   9.414   2.632  2.3047 -0.1064 -1.4430
10251SOL    HW231332   2.726   9.292   2.704  0.8837  0.7334  1.1708
10252SOL     OW31333   6.581   5.200   7.980 -0.8641  0.0663  0.3284
10252SOL    HW131334   6.641   5.153   8.037 -0.2663  2.5184  1.8707
10252SOL    HW231335   6.498   5.200   8.027 -1.1171 -0.2113 -0.1083
10253SOL     OW31336   6.870   6.952   0.931  0.4963  0.0773 -0.4140
10253SOL    HW131337   6.810   6.916   0.865 -1.1321  2.6227 -0.4339
10253SOL    HW231338   6.902   6.875   0.978 -1.8788 -1.4759 -1.1709
10254SOL     OW31339   0.628   0.858   0.999 -0.6292  0.1383 -0.2067
10254SOL    HW131340   0.565   0.924   1.028 -2.6145 -1.2286 -1.1784
10254SOL    HW231341   0.594   0.827   0.916  0.5951 -1.6569 -0.0939
10255SOL     OW31342   9.422   4.525   7.162  0.0315  0.3835  0.4396
10255SOL    HW131343   9.487   4.551   7.097 -1.0927  1.5952 -0.2534
10255SOL    HW231344   9.350   4.588   7.150 -1.2640 -0.9008  1.1744
10256SOL     OW31345   6.338   7.487   6.641 -0.6739 -0.2629  0.0453
10256SOL    HW131346   6.394   7.486   6.563 -0.0539  0.2344  0.4757
10256SOL    HW231347   6.291   7.404   6.637 -0.5152 -0.3219 -0.7671
10257SOL     OW31348   7.741   8.870   7.382 -0.2304  0.6612  0.4708
10257SOL    HW131349   7.690   8.922   7.444 -0.4447 -0.9739  1.7404
10257SOL    HW231350   7.828   8.908   7.385 -0.7155  1.8071  0.3115
10258SOL     OW31351   7.265   7.936   3.029 -0.0039 -0.5874  0.4010
10258SOL    HW131352   7.286   7.938   3.122 -0.6986  0.3046  0.5542
10258SOL    HW231353   7.177   7.972   3.023 -0.4582 -1.7404 -0.4883
10259SOL     OW31354   6.945   0.523   4.120  0.6925 -0.3421  0.4106
10259SOL    HW131355   6.951   0.618   4.124 -0.4817 -0.2339  0.1289
10259SOL    HW231356   7.035   0.492   4.133  0.6909  0.6745  3.5681
10260SOL     OW31357   4.446   2.223   8.085  0.1018 -0.1898 -0.1453
10260SOL    HW131358   4.508   2.156   8.057  0.7772  0.2568  0.2358
10260SOL    HW231359   4.467   2.299   8.030 -1.3636 -0.5946 -1.3193
10261SOL     OW31360   9.662   7.222   7.819 -0.3540  0.0311 -0.0495
10261SOL    HW131361   9.713   7.181   7.748  1.3080  1.1856  0.4158
10261SOL    HW231362   9.610   7.150   7.855  1.4726 -1.4036 -0.1168
10262SOL     OW31363   7.691   1.040   4.075 -0.0208  0.6353  0.8868
10262SOL    HW131364   7.756   0.982   4.115 -0.6680 -1.1301 -0.5181
10262SOL    HW231365   7.684   1.113   4.137  4.6130  1.9279  0.2923
10263SOL     OW31366   7.164   3.860   8.113  0.3761 -0.2105 -0.6322
10263SOL    HW131367   7.131   3.910   8.187  0.3830 -1.0467 -0.0541
10263SOL    HW231368   7.253   3.893   8.099  0.1747  0.3359 -0.6298
10264SOL     OW31369   4.280   9.290   4.850  0.1108 -0.0943  0.1486
10264SOL    HW131370   4.308   9.368   4.898  1.0444 -0.6074  0.4546
10264SOL    HW231371   4.266   9.321   4.761  0.6568  0.3875  0.2220
10265SOL     OW31372   8.735   2.865   4.891  0.6276  0.1282  0.0872
10265SOL    HW131373   8.680   2.874   4.969 -1.9786 -0.0864 -1.6023
10265SOL    HW231374   8.775   2.779   4.900 -1.6644 -1.0203  0.0490
10266SOL     OW31375   8.640   7.306   9.389 -0.2610  0.5234 -0.4200
10266SOL    HW131376   8.553   7.290   9.353  0.2486  0.9340 -1.9322
10266SOL    HW231377   8.686   7.223   9.378 -1.0654 -0.4028  2.4148
10267SOL     OW31378   5.944   0.108   8.207  0.2542  0.1600 -0.0001
10267SOL    HW131379   5.864   0.055   8.213 -0.2754  0.6840 -1.7199
10267SOL    HW231380   5.921   0.190   8.250 -0.9090  1.0805 -2.1636
10268SOL     OW31381   7.227   4.072   1.296 -0.0622 -0.0739  0.4485
10268SOL    HW131382   7.220   4.026   1.212 -2.7151 -0.3889  0.7461
10268SOL    HW231383   7.165   4.144   1.289 -0.2350 -0.0256  2.0673
10269SOL     OW31384   3.257   5.960   6.187 -0.7078  0.0373 -0.0125
10269SOL    HW131385   3.262   5.903   6.264  0.0783 -1.2072 -0.9476
10269SOL    HW231386   3.207   6.036   6.217  0.0870 -0.1366  1.8823
10270SOL     OW31387   7.782   2.465   1.860 -0.1065 -0.2061 -0.2947
10270SOL    HW131388   7.768   2.501   1.773  0.3971 -0.4075 -0.4642
10270SOL    HW231389   7.818   2.377   1.844  2.9891  0.8777  0.0745
10271SOL     OW31390   9.254   5.476   8.043 -0.3779 -0.0329  0.1765
10271SOL    HW131391   9.270   5.414   8.114 -0.7417 -1.0545 -0.6016
10271SOL    HW231392   9.159   5.488   8.042 -0.3600  0.1059 -0.0265
10272SOL     OW31393   8.680   4.734   2.138  0.6702 -0.2147 -0.2388
10272SOL    HW131394   8.641   4.707   2.054 -1.5776  1.6516  0.1001
10272SOL    HW231395   8.733   4.810   2.115 -1.1864  1.2690  0.1636
10273SOL     OW31396   4.166   0.811   8.536 -0.4557 -0.1706 -0.0243
10273SOL    HW131397   4.077   0.840   8.552 -0.4649 -0.5637  0.6950
10273SOL    HW231398   4.158   0.718   8.516 -0.2480 -0.1055 -0.4214
10274SOL     OW31399   7.199   1.329   2.427 -0.1872  0.0471 -0.5718
10274SOL    HW131400   7.222   1.421   2.441 -0.1806  0.0185 -0.4019
10274SOL    HW231401   7.154   1.329   2.342 -0.9485  0.3363 -0.1811
10275SOL     OW31402   8.420   8.077   9.687  0.0725 -0.0941 -0.0994
10275SOL    HW131403   8.409   8.135   9.611 -1.3569  1.2519  1.0816
10275SOL    HW231404   8.489   8.119   9.739 -0.8298  0.4703  0.6625
10276SOL     OW31405   9.439   2.820   6.185  0.2768  0.1239  1.0733
10276SOL    HW131406   9.485   2.745   6.147  0.6687  1.0887 -0.4389
10276SOL    HW231407   9.380   2.850   6.116  0.8668  1.8223  1.2690
10277SOL     OW31408   6.798   2.367   8.910  0.0997 -0.4545  0.7981
10277SOL    HW131409   6.856   2.323   8.972 -0.0239 -0.0705  1.1947
10277SOL    HW231410   6.855   2.393   8.838  0.3873 -0.2434  1.0993
10278SOL     OW31411   7.711   6.682   7.199  0.2382 -0.0433 -0.1354
10278SOL    HW131412   7.620   6.662   7.224  0.5087 -1.7200 -0.4051
10278SOL    HW231413   7.717   6.655   7.107  1.4891 -1.7618  0.4030
10279SOL     OW31414   2.333   0.631   9.364  0.1733 -0.1478 -0.4708
10279SOL    HW131415   2.378   0.675   9.435  1.6514  0.4036 -1.6901
10279SOL    HW231416   2.396   0.565   9.334 -1.2891 -1.8935  0.1372
10280SOL     OW31417   8.531   5.684   7.492 -0.3206  0.4347 -0.4691
10280SOL    HW131418   8.438   5.676   7.471 -1.1016 -0.2562  2.7060
10280SOL    HW231419   8.543   5.776   7.517  0.3829  1.0258 -2.7751
10281SOL     OW31420   0.694   2.472   4.920  0.5020 -0.5053 -0.4610
10281SOL    HW131421   0.703   2.515   4.835  0.6556 -1.7670 -1.0994
10281SOL    HW231422   0.733   2.534   4.982 -2.0666  1.6904 -0.8691
10282SOL     OW31423   5.345   5.029   4.913 -0.1515  0.0655 -0.5712
10282SOL    HW131424   5.424   5.075   4.886  0.8799 -1.3994 -0.1575
10282SOL    HW231425   5.288   5.033   4.837  1.0947 -0.5201 -1.5631
10283SOL     OW31426   2.982   4.192   3.003  0.0356 -0.1648 -0.5683
10283SOL    HW131427   2.896   4.173   3.041 -1.0851 -1.1653 -3.3453
10283SOL    HW231428   3.031   4.110   3.013  0.4030  0.1492  0.2871
10284SOL     OW31429   2.437   1.327   3.207  0.2194  0.0011  0.0334
10284SOL    HW131430   2.433   1.250   3.264 -1.5478  0.3081  0.4037
10284SOL    HW231431   2.474   1.396   3.262 -0.3143 -0.0206  0.4263
10285SOL     OW31432   8.805   9.909   9.561  0.1543  0.1424  0.1159
10285SOL    HW131433   8.749   9.892   9.637 -0.2648 -0.4710 -0.3171
10285SOL    HW231434   8.893   9.886   9.590 -0.1494 -1.0941  0.0992
10286SOL     OW31435   4.072   3.511   8.971 -0.4318 -0.0212 -0.6218
10286SOL    HW131436   4.032   3.477   8.891 -0.3882  0.2735 -0.7682
10286SOL    HW231437   4.121   3.588   8.943 -0.3111  0.0091 -0.3319
10287SOL     OW31438   0.685   1.626   6.565 -0.0491  0.2004  0.6591
10287SOL    HW131439   0.596   1.645   6.536 -0.6795 -0.0646  2.3313
10287SOL    HW231440   0.696   1.533   6.549 -0.6335 -0.0838  1.8290
10288SOL     OW31441   7.491   2.098   2.941 -0.1695 -0.2941  0.2915
10288SOL    HW131442   7.491   2.095   2.846  0.6544 -1.0467  0.2986
10288SOL    HW231443   7.419   2.041   2.968  1.0030 -1.9308  0.1203
10289SOL     OW31444   2.545   2.649   3.639 -0.2927  0.0058  0.4958
10289SOL    HW131445   2.453   2.662   3.617 -0.0333  2.3392  0.5128
10289SOL    HW231446   2.555   2.691   3.725  0.5101 -1.5392  1.2185
10290SOL     OW31447   9.334   5.772   0.712 -0.9600 -0.1335 -0.0096
10290SOL    HW131448   9.397   5.793   0.781  0.0238 -1.4666 -0.4705
10290SOL    HW231449   9.272   5.713   0.754 -1.0051 -0.0679  0.0172
10291SOL     OW31450   3.442   9.069   5.518  0.4176 -0.4251  0.3703
10291SOL    HW131451   3.492   9.005   5.468  0.0514 -0.0423 -0.5176
10291SOL    HW231452   3.500   9.145   5.524  0.8564 -0.8217  1.4322
10292SOL     OW31453   6.430   9.421   4.225  0.5898 -0.0365  0.0485
10292SOL    HW131454   6.441   9.374   4.142  0.7083 -1.0001  0.5907
10292SOL    HW231455   6.368   9.491   4.204 -0.2511 -0.9425 -0.6029
10293SOL     OW31456   0.405   4.442   5.933  0.1948 -0.2931 -0.1075
10293SOL    HW131457   0.449   4.453   6.017 -2.4616 -0.3947  1.4040
10293SOL    HW231458   0.312   4.452   5.953 -0.5247  0.0028 -3.1132
10294SOL     OW31459   5.933   3.036   1.817 -0.5020  0.1721 -0.4467
10294SOL    HW131460   5.856   2.993   1.780 -0.2920 -0.4500 -0.1869
10294SOL    HW231461   6.007   2.990   1.778 -0.2537  0.9524 -0.9089
10295SOL     OW31462   1.652   0.935   9.093  0.0087 -0.2352 -0.2185
10295SOL    HW131463   1.615   0.878   9.025  1.6047 -0.7715 -0.6759
10295SOL    HW231464   1.710   0.878   9.143  2.7370  1.2096 -1.5328
10296SOL     OW31465   3.089   3.537   6.165 -0.1245  0.0144 -0.0664
10296SOL    HW131466   3.038   3.531   6.246 -0.5578  0.9862 -0.2427
10296SOL    HW231467   3.023   3.552   6.097  0.3002  0.0511 -0.4726
10297SOL     OW31468   0.550   5.852   2.329 -0.1319 -0.3582  0.5855
10297SOL    HW131469   0.479   5.797   2.296  0.2726 -1.4234  1.4236
10297SOL    HW231470   0.561   5.825   2.420 -0.3254  1.5668  1.2278
10298SOL     OW31471   1.817   7.357   7.508 -0.3865  0.2162  0.7602
10298SOL    HW131472   1.738   7.407   7.486  0.8450  1.9698  0.2038
10298SOL    HW231473   1.850   7.398   7.588 -1.0229 -1.7216  2.0929
10299SOL     OW31474   9.829   4.886   4.472 -0.1030  0.2328  0.1548
10299SOL    HW131475   9.899   4.869   4.409  0.0319  0.0405  0.3575
10299SOL    HW231476   9.762   4.820   4.452 -0.0284  0.1249  0.2599
10300SOL     OW31477   9.558   5.978   9.649  0.1005 -0.3852 -0.5207
10300SOL    HW131478   9.581   5.899   9.699  0.3899  0.1275  0.1891
10300SOL    HW231479   9.532   6.041   9.716  0.2125  0.2319 -1.0494
10301SOL     OW31480   9.873   6.475   6.249  0.4951  0.5009 -0.1909
10301SOL    HW131481   9.958   6.508   6.220  1.2963 -0.9331  0.4737
10301SOL    HW231482   9.823   6.465   6.167  1.6478 -0.5203 -0.7959
10302SOL     OW31483   4.541   8.287   1.298  0.3476 -0.2890  0.3337
10302SOL    HW131484   4.570   8.319   1.384 -2.1429  1.3626  0.6684
10302SOL    HW231485   4.456   8.245   1.316 -0.9394  1.3868 -1.4603
10303SOL     OW31486   3.344   0.729   8.397 -0.0830  0.2168  0.2715
10303SOL    HW131487   3.316   0.716   8.488  1.3410  0.0485  0.7067
10303SOL    HW231488   3.431   0.690   8.393  0.4688  1.4901 -0.8003
10304SOL     OW31489   2.996   8.983   4.415  0.4645  0.1275  0.2359
10304SOL    HW131490   2.976   8.943   4.330 -0.9598  0.7365  0.2613
10304SOL    HW231491   3.087   9.013   4.407  1.1451 -1.8615 -0.2451
10305SOL     OW31492   6.647   1.050   1.229  0.3511 -0.4337 -0.1929
10305SOL    HW131493   6.628   1.141   1.254 -0.7937 -0.9077  0.7400
10305SOL    HW231494   6.636   1.001   1.310 -1.4533 -1.7474 -1.1688
10306SOL     OW31495   1.557   1.085   1.520 -0.7331  0.1700 -0.4065
10306SOL    HW131496   1.557   0.996   1.487 -1.2284 -0.8252  2.0456
10306SOL    HW231497   1.464   1.110   1.525 -0.6278  0.6108 -0.5755
10307SOL     OW31498   9.267   8.403   7.572 -0.3914  0.5041  0.4208
10307SOL    HW131499   9.327   8.336   7.603  0.9278  1.3659 -0.1458
10307SOL    HW231500   9.183   8.359   7.565  0.3848 -1.0242  0.2769
10308SOL     OW31501   0.889   6.830   7.394  0.4370 -0.2260 -0.0933
10308SOL    HW131502   0.864   6.746   7.432 -0.0075 -0.3597 -0.6674
10308SOL    HW231503   0.933   6.877   7.465  1.6216 -1.3374 -0.0552
10309SOL     OW31504   5.370   3.347   8.989 -0.4388  0.1431  0.6682
10309SOL    HW131505   5.411   3.344   9.075  1.9663  1.4464 -0.3552
10309SOL    HW231506   5.402   3.268   8.944 -1.5036 -0.4114  0.8259
10310SOL     OW31507   4.062   0.143   3.028 -0.2419  0.1000 -0.7735
10310SOL    HW131508   3.988   0.084   3.047  0.3972 -0.0021  1.7099
10310SOL    HW231509   4.036   0.188   2.947 -2.2120 -1.1978 -0.9487
10311SOL     OW31510   2.591   3.001   4.121  0.2505  0.2866  0.0488
10311SOL    HW131511   2.651   2.937   4.159  0.3472  0.9365  1.0124
10311SOL    HW231512   2.641   3.083   4.122 -0.8978  1.0137  1.5898
10312SOL     OW31513   8.597   7.884   4.809 -0.0032 -0.8081  0.2685
10312SOL    HW131514   8.683   7.905   4.774  0.4997  0.2856  2.0481
10312SOL    HW231515   8.547   7.964   4.800 -0.0162 -0.6531  1.5214
10313SOL     OW31516   0.038   4.301   9.133  0.0652 -0.8377 -0.2693
10313SOL    HW131517   0.030   4.382   9.083 -0.8336  0.2304  1.4973
10313SOL    HW231518   0.119   4.311   9.183 -0.9089 -0.1992  1.2620
10314SOL     OW31519   2.528   7.754   9.747 -0.9915  0.2112 -0.1015
10314SOL    HW131520   2.503   7.662   9.757 -0.9561  0.1254 -0.7394
10314SOL    HW231521   2.566   7.778   9.831 -2.2910  0.0534  0.5568
10315SOL     OW31522   2.171   7.856   6.397  0.2113 -0.0774  0.2403
10315SOL    HW131523   2.150   7.772   6.437 -0.3141 -0.9368 -1.7001
10315SOL    HW231524   2.086   7.891   6.368  0.6651 -0.2343 -1.4175
10316SOL     OW31525   3.520   1.543   9.808  0.0984  0.5778  0.7318
10316SOL    HW131526   3.449   1.531   9.744  0.3287 -0.5573  0.6824
10316SOL    HW231527   3.508   1.633   9.839  0.2008  1.3162 -1.1714
10317SOL     OW31528   6.554   5.135   7.052  1.0156  0.2890  0.3073
10317SOL    HW131529   6.646   5.121   7.030  0.8371  0.9779 -0.9343
10317SOL    HW231530   6.506   5.111   6.972 -0.0257 -1.5440  1.4081
10318SOL     OW31531   9.328   5.613   9.619 -0.2039  0.3158 -0.1292
10318SOL    HW131532   9.241   5.580   9.643 -0.2823 -0.7956 -1.7549
10318SOL    HW231533   9.312   5.668   9.542  0.2681  2.1380  1.0210
10319SOL     OW31534   5.609   6.905   1.631  0.0615  0.5055 -0.0578
10319SOL    HW131535   5.657   6.926   1.711 -0.0988  1.6840 -0.2484
10319SOL    HW231536   5.522   6.943   1.646 -0.6944 -1.2185  0.1082
10320SOL     OW31537   5.407   8.300   3.139 -0.6763  0.2611  0.2690
10320SOL    HW131538   5.426   8.393   3.151  1.2739  0.3093 -2.3419
10320SOL    HW231539   5.403   8.264   3.227 -0.4177  2.6173  1.2975
10321SOL     OW31540   1.305   6.598   0.820  0.1778  0.2593  0.1918
10321SOL    HW131541   1.253   6.650   0.880 -0.2956 -0.0161  0.0283
10321SOL    HW231542   1.245   6.577   0.748  0.3489 -0.5341  0.2711
10322SOL     OW31543   3.896   1.264   1.092  0.3416 -0.3306  0.3939
10322SOL    HW131544   3.897   1.352   1.054 -0.0245  0.3935  1.9920
10322SOL    HW231545   3.988   1.239   1.096  0.3573 -0.8312 -1.7788
10323SOL     OW31546   2.294   1.570   5.255 -0.1244  0.3519  0.3105
10323SOL    HW131547   2.222   1.597   5.313 -1.4154 -1.1044 -0.5376
10323SOL    HW231548   2.251   1.547   5.173  1.5556  1.2160 -0.8571
10324SOL     OW31549   6.071   8.549   4.795  0.6890  0.3359 -0.0234
10324SOL    HW131550   6.137   8.498   4.841  0.8594 -0.9996 -1.6177
10324SOL    HW231551   6.116   8.629   4.768  1.6638 -0.4746 -0.9322
10325SOL     OW31552   4.848   5.922   8.369 -0.8919 -0.0298  0.4134
10325SOL    HW131553   4.837   5.842   8.421  1.2676 -0.1644  0.7939
10325SOL    HW231554   4.828   5.993   8.429  2.6343 -0.1337  1.9648
10326SOL     OW31555   3.025   6.002   0.887  0.4142  0.0942  0.0474
10326SOL    HW131556   3.076   6.083   0.878  1.5158 -0.3869  1.5400
10326SOL    HW231557   3.037   5.957   0.803 -1.7593  2.2696 -1.5451
10327SOL     OW31558   5.044   2.604   9.231 -0.6018  0.3781  0.2501
10327SOL    HW131559   4.965   2.598   9.178 -0.3619 -2.2119  0.0718
10327SOL    HW231560   5.116   2.589   9.168 -0.0005  1.8540  0.5529
10328SOL     OW31561   8.261   5.037   0.261 -0.0100  0.4415 -0.2265
10328SOL    HW131562   8.305   5.111   0.301 -0.6457  0.1401  1.0826
10328SOL    HW231563   8.184   5.075   0.218  0.5739  0.7438 -1.0210
10329SOL     OW31564   3.113   8.525   7.686 -0.0427 -0.7137 -0.7158
10329SOL    HW131565   3.103   8.459   7.617  2.0323 -2.1102  0.2257
10329SOL    HW231566   3.080   8.483   7.765 -0.7788  0.2268 -0.5081
10330SOL     OW31567   2.421   4.044   8.512  0.8839  0.3458 -0.0304
10330SOL    HW131568   2.329   4.045   8.538  0.7367  1.5616 -0.5096
10330SOL    HW231569   2.441   3.952   8.499 -0.7796  0.1455 -1.6378
10331SOL     OW31570   7.322   0.902   6.779 -0.1166  0.0144  0.1171
10331SOL    HW131571   7.376   0.828   6.806 -0.9084 -0.1911  1.2046
10331SOL    HW231572   7.261   0.915   6.852 -0.0572  1.6757 -0.0818
10332SOL     OW31573   3.279   2.614   5.025  0.4766 -0.0158  0.2858
10332SOL    HW131574   3.226   2.556   4.970 -0.6982  0.6295  0.6984
10332SOL    HW231575   3.295   2.564   5.104 -1.0077  0.3700  0.8768
10333SOL     OW31576   3.873   8.855   5.069  0.1841 -0.8298 -0.4583
10333SOL    HW131577   3.869   8.928   5.130 -0.4094 -0.1537 -1.2814
10333SOL    HW231578   3.954   8.809   5.090  0.1592 -0.4003  0.5902
10334SOL     OW31579   8.565   9.473   5.628  0.3816  0.2808 -0.1303
10334SOL    HW131580   8.536   9.395   5.676 -0.1913  0.2693 -0.4922
10334SOL    HW231581   8.491   9.496   5.572  1.2518 -0.0613 -1.4578
10335SOL     OW31582   8.016   7.028   8.569  0.4231 -0.5396  1.0229
10335SOL    HW131583   8.074   7.062   8.637 -1.2270  1.1504  1.6716
10335SOL    HW231584   7.990   6.941   8.600  1.2609 -0.6160  1.5381
10336SOL     OW31585   2.522   7.862   3.106 -0.2213 -0.1386  0.0722
10336SOL    HW131586   2.478   7.804   3.169  1.2776 -0.5347  0.8041
10336SOL    HW231587   2.605   7.884   3.149 -0.6061  2.3068 -0.3302
10337SOL     OW31588   7.468   2.995   1.496 -0.0943 -0.3344  0.2657
10337SOL    HW131589   7.437   2.912   1.459 -1.3339  0.0507  0.3874
10337SOL    HW231590   7.452   2.987   1.590 -1.1532  0.4000  0.1702
10338SOL     OW31591   6.460   7.677   7.646  0.2062  0.2982  0.2049
10338SOL    HW131592   6.498   7.763   7.657 -0.3925  0.7030 -0.7542
10338SOL    HW231593   6.534   7.619   7.630  0.6403  0.5636  1.2233
10339SOL     OW31594   4.609   9.920   7.758 -0.5626 -0.1882  0.5005
10339SOL    HW131595   4.572   9.999   7.797  0.7797  1.2759 -1.0693
10339SOL    HW231596   4.630   9.864   7.833  0.4194  1.8156  1.8013
10340SOL     OW31597   4.466   2.290   4.126  0.1644  0.1028 -0.2381
10340SOL    HW131598   4.508   2.212   4.161  0.5083  0.8471  1.0791
10340SOL    HW231599   4.533   2.332   4.072  0.6257  0.4804  0.6124
10341SOL     OW31600   4.326   7.663   8.580  0.1696  0.2871 -0.2240
10341SOL    HW131601   4.393   7.605   8.543  0.5386  1.2646 -1.1278
10341SOL    HW231602   4.340   7.658   8.675  1.2701  0.1650 -0.3778
10342SOL     OW31603   6.775   7.520   0.653  0.5792  0.4454  0.2428
10342SOL    HW131604   6.733   7.494   0.571  2.2701  1.6886 -1.0823
10342SOL    HW231605   6.821   7.441   0.683 -0.6963 -0.2397  0.4566
10343SOL     OW31606   3.235   0.002   7.975 -0.4013 -0.2862  0.2547
10343SOL    HW131607   3.267  -0.035   7.893  0.9076 -1.0456  1.0502
10343SOL    HW231608   3.193   0.084   7.951  1.1121  0.1612 -1.0462
10344SOL     OW31609   9.474   4.472   1.034 -0.7996 -0.1242  0.1065
10344SOL    HW131610   9.502   4.508   0.950 -0.4959 -0.2890  0.1357
10344SOL    HW231611   9.545   4.413   1.060  0.6746  2.3394  2.0256
10345SOL     OW31612   5.162   5.534   9.826  0.1502  0.5863  0.5196
10345SOL    HW131613   5.169   5.624   9.793 -0.9829  0.5438  0.1133
10345SOL    HW231614   5.070   5.524   9.849 -0.0180 -0.8427 -0.5802
10346SOL     OW31615   9.597   4.720   4.509 -0.1518 -0.0617 -0.0578
10346SOL    HW131616   9.545   4.677   4.576 -0.0268  0.5043  0.4163
10346SOL    HW231617   9.541   4.722   4.431 -0.0910 -1.2266 -0.1522
10347SOL     OW31618   0.316   1.776   0.744 -0.0623  0.0236 -0.3594
10347SOL    HW131619   0.231   1.733   0.735  0.2021 -0.5772 -0.0807
10347SOL    HW231620   0.299   1.868   0.725 -1.1681  0.2824  1.6299
10348SOL     OW31621   5.720   5.534   2.359  0.7371 -0.0240 -0.4848
10348SOL    HW131622   5.771   5.505   2.435 -1.5191 -0.0075  1.1088
10348SOL    HW231623   5.708   5.627   2.373  0.4424  0.0103 -0.9625
10349SOL     OW31624   6.764   4.052   0.802  0.1008 -0.1299 -0.5909
10349SOL    HW131625   6.726   4.026   0.718  1.3378  0.5674 -1.3938
10349SOL    HW231626   6.740   4.143   0.813 -2.2488 -0.8543  1.1042
10350SOL     OW31627   4.708   7.930   5.611 -0.4669  0.1918 -0.1909
10350SOL    HW131628   4.776   7.871   5.644 -0.6565 -0.1536 -0.4116
10350SOL    HW231629   4.637   7.871   5.586 -0.9938  0.5780  0.3890
10351SOL     OW31630   7.525   5.290   2.779  0.1411  0.1467  0.2515
10351SOL    HW131631   7.480   5.206   2.786  0.9017 -0.3437 -0.5096
10351SOL    HW231632   7.549   5.313   2.869 -1.3304  0.2761  0.6348
10352SOL     OW31633   4.521   6.042   1.983  0.4287  0.0735 -0.0204
10352SOL    HW131634   4.427   6.023   1.972  0.4106  0.4643 -0.5452
10352SOL    HW231635   4.564   5.959   1.960  0.2604  0.1705 -0.7071
10353SOL     OW31636   4.316   4.450   8.287 -0.0089  0.4267  0.0887
10353SOL    HW131637   4.266   4.498   8.222 -0.4779  1.0504  0.8845
10353SOL    HW231638   4.364   4.385   8.237 -1.2726  0.0982 -0.7579
10354SOL     OW31639   4.331   8.011   1.030 -0.5471 -0.5340 -0.3896
10354SOL    HW131640   4.352   8.081   0.968  1.6553  0.7718  1.6337
10354SOL    HW231641   4.257   8.045   1.081  1.1961  0.9388  1.3059
10355SOL     OW31642   9.885   7.582   4.767  0.2347 -0.4820 -1.4100
10355SOL    HW131643   9.972   7.597   4.803 -0.7560 -0.8942  1.4675
10355SOL    HW231644   9.826   7.595   4.842 -2.1912 -0.0860 -3.2734
10356SOL     OW31645   0.068   4.735   9.297  0.2839  0.1908  0.0595
10356SOL    HW131646   0.136   4.786   9.342  1.2699 -1.6488  0.7461
10356SOL    HW231647   0.051   4.661   9.354 -1.8069  0.2066 -0.4654
10357SOL     OW31648   8.058   0.190   1.986  0.1697 -0.2419  0.2000
10357SOL    HW131649   8.094   0.240   2.059  0.3058 -0.4634  0.2846
10357SOL    HW231650   7.994   0.249   1.946  0.7849  0.2433 -0.0895
10358SOL     OW31651   7.016   3.717   9.678  0.3627  0.4040  0.2202
10358SOL    HW131652   6.938   3.694   9.729 -0.7962  1.6472 -0.9038
10358SOL    HW231653   6.998   3.806   9.648  1.8785  0.4073 -0.7351
10359SOL     OW31654   7.085   9.114   4.402  0.5891  0.3135 -0.4587
10359SOL    HW131655   7.174   9.087   4.428  0.3899 -0.9361 -0.9666
10359SOL    HW231656   7.095   9.144   4.312  0.6309  0.9400 -0.2445
10360SOL     OW31657   3.281   7.134   1.660  0.4982  0.0495  0.3677
10360SOL    HW131658   3.360   7.181   1.635  1.2644 -0.4389  1.7563
10360SOL    HW231659   3.278   7.141   1.756 -0.6047 -0.7765  0.4113
10361SOL     OW31660   9.018   5.285   3.444  0.4059  0.8582  0.0231
10361SOL    HW131661   9.038   5.378   3.433  2.1791  0.3488 -1.5733
10361SOL    HW231662   9.038   5.266   3.536 -0.2113  2.0836  0.4242
10362SOL     OW31663   9.125   2.747   8.997 -0.0423 -0.0909  0.3391
10362SOL    HW131664   9.089   2.708   8.917  1.1031  0.2642 -0.3678
10362SOL    HW231665   9.200   2.693   9.019  0.6505  0.7945  0.2133
10363SOL     OW31666   8.617   4.455   7.441 -0.4727  0.3799 -0.3269
10363SOL    HW131667   8.605   4.374   7.491  0.8358  0.5566  0.3039
10363SOL    HW231668   8.579   4.435   7.355 -0.7515 -0.6835  0.0256
10364SOL     OW31669   8.278   2.922   9.386  0.5605 -0.2412 -0.9142
10364SOL    HW131670   8.350   2.944   9.445  1.2751 -1.6185 -1.2056
10364SOL    HW231671   8.209   2.888   9.443  0.4212  0.4185 -0.6908
10365SOL     OW31672   4.310   9.278   0.654  0.5446  0.2285 -0.3457
10365SOL    HW131673   4.372   9.248   0.588 -0.8783 -1.5005 -0.9747
10365SOL    HW231674   4.239   9.319   0.604 -1.0477 -2.0229 -0.0464
10366SOL     OW31675   5.834   2.970   0.201 -0.1836  0.4406  0.3019
10366SOL    HW131676   5.779   2.945   0.127  0.6953 -0.0980 -0.1927
10366SOL    HW231677   5.832   2.895   0.259 -0.2851  0.5773  0.4774
10367SOL     OW31678   6.660   6.804   4.193 -0.3229  0.2770 -0.2381
10367SOL    HW131679   6.640   6.883   4.142 -1.6961  0.2188  0.1598
10367SOL    HW231680   6.574   6.770   4.218  0.2832 -0.7841  0.4585
10368SOL     OW31681   3.766   1.037   4.135 -0.3214  0.8231 -0.0416
10368SOL    HW131682   3.722   0.991   4.064  0.1308  1.1848 -0.5658
10368SOL    HW231683   3.787   1.122   4.098 -0.8856  1.3494  0.8247
10369SOL     OW31684   2.698   2.835   6.064  0.9236 -0.7107  0.2012
10369SOL    HW131685   2.758   2.780   6.115 -0.3412 -1.7993  0.5475
10369SOL    HW231686   2.658   2.775   6.001  0.0302 -0.0330  0.1112
10370SOL     OW31687   4.608   3.338   1.329  0.2060  0.4148 -0.3266
10370SOL    HW131688   4.545   3.371   1.265  0.2948 -1.0061 -1.1941
10370SOL    HW231689   4.660   3.415   1.353  0.1200  1.0129 -1.9149
10371SOL     OW31690   3.082   8.715   4.420 -0.1530  0.6807 -0.1104
10371SOL    HW131691   3.152   8.775   4.448 -0.8684  1.3408  0.3005
10371SOL    HW231692   3.128   8.642   4.379  0.8599  0.4606  1.3402
10372SOL     OW31693   8.227   6.547   8.433  0.5617 -0.2750  0.1376
10372SOL    HW131694   8.190   6.607   8.498  0.7253 -0.9715  0.8943
10372SOL    HW231695   8.227   6.596   8.351  2.6909  1.5735  1.1322
10373SOL     OW31696   8.101   9.560   3.245  0.1845 -0.0695  1.1112
10373SOL    HW131697   8.069   9.624   3.308  0.7989 -0.2014  1.5683
10373SOL    HW231698   8.193   9.584   3.231  1.1973 -2.2875  3.1814
10374SOL     OW31699   9.843   4.586   7.475  0.0783  0.1169  0.1355
10374SOL    HW131700   9.790   4.638   7.536 -0.0235  0.7931 -0.5117
10374SOL    HW231701   9.822   4.495   7.496 -1.4027  0.3605 -0.1530
10375SOL     OW31702   0.968   0.177   7.835 -0.5256  1.0829  0.1322
10375SOL    HW131703   0.923   0.098   7.804  0.6315  0.7435 -0.7341
10375SOL    HW231704   1.061   0.158   7.825 -0.1148  1.5588  2.4238
10376SOL     OW31705   9.922   2.694   9.827  0.6249  0.0297  0.1751
10376SOL    HW131706  10.016   2.681   9.838  0.5468  0.8014  2.2149
10376SOL    HW231707   9.895   2.744   9.905 -1.8407 -2.0808  0.8161
10377SOL     OW31708   4.018   8.322   2.274 -0.4331  0.2759 -0.4324
10377SOL    HW131709   3.961   8.388   2.233 -0.9996 -0.2062 -0.4407
10377SOL    HW231710   3.957   8.255   2.305  0.1166 -0.0994 -0.1621
10378SOL     OW31711   9.611   9.834   5.526  0.3666  0.1072  0.1600
10378SOL    HW131712   9.672   9.760   5.523  2.0461  1.4103  0.5177
10378SOL    HW231713   9.525   9.793   5.533  1.1088 -1.8258 -1.1291
10379SOL     OW31714   4.341   1.300   6.363  0.8459 -0.2106 -0.4885
10379SOL    HW131715   4.348   1.215   6.405  1.4279 -1.0949 -2.2477
10379SOL    HW231716   4.382   1.287   6.277  0.8689  1.8218 -0.8345
10380SOL     OW31717   0.745   8.272   0.730 -0.1200  0.1811  0.2210
10380SOL    HW131718   0.786   8.333   0.791 -0.0417 -0.7823  1.1568
10380SOL    HW231719   0.813   8.208   0.710 -0.3120  0.1864 -0.4533
10381SOL     OW31720   0.722   0.898   9.993 -0.5924 -0.1488  0.3749
10381SOL    HW131721   0.636   0.929  10.020 -0.7740 -0.3968  0.0802
10381SOL    HW231722   0.729   0.924   9.901 -0.6131 -0.6915  0.2177
10382SOL     OW31723   2.089   8.316   6.899 -0.5251 -0.1243 -0.1038
10382SOL    HW131724   2.096   8.390   6.959  1.9665  1.3776 -2.0294
10382SOL    HW231725   2.171   8.268   6.911 -1.9984 -2.5178  0.9357
10383SOL     OW31726   0.634   1.936   8.159 -0.0229 -0.0023  0.3050
10383SOL    HW131727   0.608   2.012   8.108 -0.4272  1.6560  2.8181
10383SOL    HW231728   0.552   1.894   8.185  0.1728 -0.7682 -0.2722
10384SOL     OW31729   7.175   7.629   8.515  0.0771  0.3202 -0.1026
10384SOL    HW131730   7.191   7.675   8.597 -3.0008  2.4417 -0.4831
10384SOL    HW231731   7.178   7.698   8.448 -2.2065 -0.4064 -1.0679
10385SOL     OW31732   3.659   0.807   8.104 -0.9798 -0.1659 -0.2599
10385SOL    HW131733   3.636   0.767   8.187 -2.1201  0.8098 -0.0911
10385SOL    HW231734   3.739   0.761   8.077  0.0670  0.2830  1.9060
10386SOL     OW31735   7.143   6.285   6.860 -0.3600  0.1759 -0.0734
10386SOL    HW131736   7.189   6.233   6.926 -2.5487  0.2924  1.6450
10386SOL    HW231737   7.096   6.352   6.910 -0.3553  1.6893 -1.9587
10387SOL     OW31738   5.915   3.341   4.472 -0.0246  0.3263  0.2698
10387SOL    HW131739   5.927   3.248   4.454 -0.1479  0.1975  0.8178
10387SOL    HW231740   5.845   3.343   4.537 -0.5251  0.8488 -0.2777
10388SOL     OW31741   4.487   4.207   5.791 -0.2589  0.4515  0.1525
10388SOL    HW131742   4.503   4.300   5.778  1.8430  0.2237  0.7969
10388SOL    HW231743   4.558   4.178   5.848 -0.8390 -1.5553 -0.0755
10389SOL     OW31744   2.214   0.430   6.596 -0.0674  0.1267 -0.6311
10389SOL    HW131745   2.152   0.445   6.525  1.7828  1.9305 -1.9752
10389SOL    HW231746   2.197   0.501   6.658  1.2565  1.2468 -1.5007
10390SOL     OW31747   8.749   6.315   5.427  0.6225  0.7338  0.1248
10390SOL    HW131748   8.770   6.349   5.340 -0.9358 -2.1497 -1.5253
10390SOL    HW231749   8.769   6.222   5.422 -0.5172  0.2880  2.5085
10391SOL     OW31750   4.011   8.478   6.352  0.1177 -0.7212  0.0914
10391SOL    HW131751   4.067   8.527   6.293  0.0498 -1.6508 -0.7893
10391SOL    HW231752   3.973   8.409   6.296 -0.5907 -1.1200  1.0399
10392SOL     OW31753   8.553   7.704   8.526  0.4900  0.6436  0.1427
10392SOL    HW131754   8.504   7.693   8.607  2.8322 -0.9120  1.4602
10392SOL    HW231755   8.576   7.615   8.499  0.9020  1.2085 -1.5058
10393SOL     OW31756   7.747   5.537   1.604 -0.4093  0.4859  0.4016
10393SOL    HW131757   7.731   5.627   1.630 -0.0097  0.6787 -0.0100
10393SOL    HW231758   7.832   5.515   1.641 -0.6350  0.1797  0.7460
10394SOL     OW31759   9.787   3.485   9.544  0.0144 -0.4651  0.0036
10394SOL    HW131760   9.760   3.397   9.569  1.2146 -0.3714  1.8441
10394SOL    HW231761   9.762   3.540   9.619  1.1332  0.3934 -0.2236
10395SOL     OW31762   6.246   1.022   7.135 -0.3517  0.3777 -0.3961
10395SOL    HW131763   6.202   1.042   7.218  0.0344  0.0739 -0.1093
10395SOL    HW231764   6.213   1.087   7.073 -1.0738  0.2490 -0.1472
10396SOL     OW31765   2.773   8.190   7.423 -0.0342  0.1595 -0.5306
10396SOL    HW131766   2.831   8.128   7.467 -0.1704  0.4142  0.0259
10396SOL    HW231767   2.685   8.157   7.442 -0.0919  0.2182 -0.6950
10397SOL     OW31768   6.265   3.665   0.553  0.7291  0.2635 -0.0306
10397SOL    HW131769   6.247   3.581   0.594  0.7853 -0.0523 -0.6299
10397SOL    HW231770   6.300   3.642   0.466  0.0784  0.9020 -0.4783
10398SOL     OW31771   0.283   3.709   4.099 -0.6331  0.2352  0.1849
10398SOL    HW131772   0.358   3.653   4.075 -0.3029  0.4040  0.8013
10398SOL    HW231773   0.211   3.675   4.047 -0.2728 -0.3314  0.0372
10399SOL     OW31774   0.141   3.546   9.425  0.2120 -0.1951  0.0623
10399SOL    HW131775   0.191   3.578   9.500  0.6916  0.6667 -0.6127
10399SOL    HW231776   0.203   3.544   9.353 -1.2110  3.6374 -1.5598
10400SOL     OW31777   0.545   3.240   7.021  0.2395  0.1675  0.0382
10400SOL    HW131778   0.482   3.197   6.963  0.6935  2.1686 -2.0851
10400SOL    HW231779   0.493   3.264   7.098 -1.7244  1.8487 -1.6706
10401SOL     OW31780   8.289   3.639   2.103 -0.2382 -0.1254 -0.4995
10401SOL    HW131781   8.202   3.637   2.140 -0.5396  1.4849 -1.0096
10401SOL    HW231782   8.320   3.729   2.119 -0.0699  0.4259 -3.2932
10402SOL     OW31783   7.975   8.604   6.555 -0.4020  0.5948  0.3063
10402SOL    HW131784   7.905   8.643   6.608  0.0932 -0.0057  1.4296
10402SOL    HW231785   8.031   8.678   6.532 -1.5650  1.1451 -0.9116
10403SOL     OW31786   2.211   3.279   9.588  0.0281 -0.4046  0.4515
10403SOL    HW131787   2.153   3.265   9.663 -0.1666  0.3905  0.4606
10403SOL    HW231788   2.240   3.192   9.563 -1.3730 -0.8505  0.2935
10404SOL     OW31789   8.652   9.010   0.491  0.1708 -0.0951 -0.1781
10404SOL    HW131790   8.579   8.952   0.469 -1.0469  1.9732 -2.0184
10404SOL    HW231791   8.722   8.982   0.432  0.4805 -1.2363  0.6825
10405SOL     OW31792   1.055   9.431   1.275 -0.2490  0.7380  0.0194
10405SOL    HW131793   0.994   9.459   1.206 -0.4081  0.7040  0.1454
10405SOL    HW231794   1.009   9.450   1.357 -1.4959 -2.2207  0.1389
10406SOL     OW31795   5.456   8.391   1.993 -0.4582 -0.2136  0.5575
10406SOL    HW131796   5.450   8.395   2.089 -0.6520  0.1770  0.5302
10406SOL    HW231797   5.501   8.472   1.968  0.5737 -0.8222  0.3919
10407SOL     OW31798   3.109   2.970   5.298 -0.0597 -0.0366 -0.3128
10407SOL    HW131799   3.184   2.945   5.245  0.2197 -0.9551  0.4809
10407SOL    HW231800   3.078   2.888   5.337 -0.6320  0.5163  0.4486
10408SOL     OW31801   8.970   2.457   5.003 -0.6167 -0.3860  0.4238
10408SOL    HW131802   8.980   2.538   5.052  0.5135 -0.5727  0.5279
10408SOL    HW231803   9.050   2.450   4.951 -0.4223 -1.7198  0.8538
10409SOL     OW31804   1.213   4.588   0.756 -0.3583 -0.0302  0.2930
10409SOL    HW131805   1.161   4.545   0.687 -2.0793  2.5027 -0.1221
10409SOL    HW231806   1.149   4.637   0.807  1.1334 -0.3964  2.6371
10410SOL     OW31807   2.308   4.447   3.761  0.5091  0.5329  0.0649
10410SOL    HW131808   2.343   4.535   3.777  0.4577  0.3319  1.4139
10410SOL    HW231809   2.386   4.392   3.749  0.5450  0.7066 -0.5717
10411SOL     OW31810   8.247   5.832   5.230  0.0705  0.1666  0.8034
10411SOL    HW131811   8.186   5.905   5.217 -0.0231 -0.0292  0.1036
10411SOL    HW231812   8.212   5.785   5.306 -0.6280  0.0838  0.4438
10412SOL     OW31813   1.528   0.604   4.558 -0.1251 -0.5906 -0.0818
10412SOL    HW131814   1.598   0.655   4.599 -0.1411  1.2841 -2.2499
10412SOL    HW231815   1.450   0.625   4.609  0.2661 -0.1606  0.3533
10413SOL     OW31816   9.976   0.527   0.251  0.4646 -0.4006 -0.2579
10413SOL    HW131817   9.996   0.478   0.171  2.7559  1.2834 -0.8178
10413SOL    HW231818   9.944   0.612   0.220 -0.6148 -0.4328  0.6767
10414SOL     OW31819   7.104   6.697   6.382  0.0608  0.1329  0.3117
10414SOL    HW131820   7.174   6.698   6.447 -1.0756 -0.3852  1.5874
10414SOL    HW231821   7.085   6.604   6.369 -1.4563  0.2831  1.2063
10415SOL     OW31822   6.965   6.551   0.497  0.2874  0.6739 -0.8488
10415SOL    HW131823   6.883   6.505   0.482  0.0082  1.3581 -1.4727
10415SOL    HW231824   7.031   6.482   0.504 -0.6514 -0.0404  2.1536
10416SOL     OW31825   1.226   3.178   4.897  0.0024  0.5046 -0.2176
10416SOL    HW131826   1.208   3.253   4.954  1.7119  0.7975 -0.0021
10416SOL    HW231827   1.309   3.142   4.929 -0.0023 -0.5413 -1.2791
10417SOL     OW31828   5.171   1.947   4.855  0.9931 -0.1579 -0.4560
10417SOL    HW131829   5.185   1.859   4.889 -0.5374  0.0122  0.7666
10417SOL    HW231830   5.178   2.004   4.932  0.9625  0.6687 -1.0493
10418SOL     OW31831   4.241   5.735   5.981 -0.0560 -0.4859  0.3876
10418SOL    HW131832   4.207   5.647   5.963  0.2139 -0.4424 -0.4185
10418SOL    HW231833   4.320   5.741   5.926 -0.4977  0.5357 -0.1618
10419SOL     OW31834   5.017   1.423   6.178  0.1284  0.2888  0.0559
10419SOL    HW131835   5.103   1.387   6.198  0.6684  0.6388 -1.5079
10419SOL    HW231836   5.031   1.480   6.103 -1.6107 -0.3550 -0.8310
10420SOL     OW31837   8.541   2.903   0.938 -0.2248 -0.1949  0.2777
10420SOL    HW131838   8.568   2.927   0.849  2.2410 -0.2412  0.9390
10420SOL    HW231839   8.535   2.807   0.935 -0.4567 -0.1753  0.0815
10421SOL     OW31840   6.011   0.614   8.204 -0.1255  0.4489  0.3343
10421SOL    HW131841   6.087   0.656   8.244  0.4607 -1.1140  0.9375
10421SOL    HW231842   6.046   0.534   8.166 -1.2212  0.4622 -0.7405
10422SOL     OW31843   2.001   5.139   0.305  0.4017 -0.0018 -0.2174
10422SOL    HW131844   2.036   5.062   0.261  0.0699 -1.2663  1.5993
10422SOL    HW231845   1.906   5.125   0.307  0.3886  0.1164  0.6649
10423SOL     OW31846   2.922   2.868   1.248  0.6547  0.2623  0.0193
10423SOL    HW131847   2.970   2.876   1.165  0.8616 -0.7632  0.0228
10423SOL    HW231848   2.987   2.834   1.309 -0.1055 -1.3525 -0.0265
10424SOL     OW31849   5.274   4.323   6.005 -0.3668 -0.3354  0.1786
10424SOL    HW131850   5.349   4.381   5.993 -1.5036  0.9168 -1.0487
10424SOL    HW231851   5.310   4.235   5.991  1.4461 -0.0573  2.3769
10425SOL     OW31852   5.518   1.234   8.713 -0.1322 -0.2415 -0.5176
10425SOL    HW131853   5.611   1.224   8.731 -0.2641 -0.0782  0.2849
10425SOL    HW231854   5.513   1.241   8.618  0.6030 -0.9658 -0.6241
10426SOL     OW31855   7.192   7.259   6.742  0.0532 -0.1443  1.3456
10426SOL    HW131856   7.239   7.224   6.818  1.4887  0.4073  0.7420
10426SOL    HW231857   7.229   7.212   6.667  0.0930  0.7359  0.7937
10427SOL     OW31858   6.376   5.768   8.158  0.2516 -0.1954  0.4028
10427SOL    HW131859   6.311   5.791   8.091 -0.2851 -0.8897  0.6652
10427SOL    HW231860   6.428   5.698   8.117  0.1402 -0.3873  0.5900
10428SOL     OW31861   0.352   6.501   8.982  0.4433 -0.0145 -0.0989
10428SOL    HW131862   0.297   6.570   8.944 -0.0870 -0.1402  0.4249
10428SOL    HW231863   0.389   6.456   8.906  1.0103  1.0149 -0.4510
10429SOL     OW31864   4.362   3.277   5.771 -0.2788  0.5138  0.0550
10429SOL    HW131865   4.290   3.218   5.751 -0.2161  0.5023 -0.1384
10429SOL    HW231866   4.320   3.356   5.805 -0.3470  0.2294  0.6408
10430SOL     OW31867   6.549   4.906   0.746  0.0424  0.0865 -0.4571
10430SOL    HW131868   6.629   4.957   0.737  0.7223 -0.5906  1.2599
10430SOL    HW231869   6.579   4.818   0.771 -1.1417 -0.8581 -2.1624
10431SOL     OW31870   8.589   9.812   5.057  0.0968 -0.5001 -0.3377
10431SOL    HW131871   8.580   9.747   5.126  1.8946 -0.9733 -0.5057
10431SOL    HW231872   8.560   9.768   4.978 -1.8751  0.0125  0.0378
10432SOL     OW31873   6.827   7.161   5.342 -0.1249 -0.3025 -0.1175
10432SOL    HW131874   6.823   7.221   5.268 -1.6093 -0.8789 -0.5422
10432SOL    HW231875   6.851   7.217   5.417  0.5657  0.4307 -0.8674
10433SOL     OW31876   4.186   8.002   6.013 -0.1763  0.1503  0.1715
10433SOL    HW131877   4.143   7.926   6.052 -1.0257  0.4166 -0.2371
10433SOL    HW231878   4.117   8.048   5.966  0.5170  0.6821 -0.3541
10434SOL     OW31879   4.626   6.119   1.697 -0.3465  0.2361 -0.2356
10434SOL    HW131880   4.621   6.205   1.739  1.2690 -0.0182  0.5421
10434SOL    HW231881   4.585   6.059   1.759 -1.7264  0.4476 -0.8992
10435SOL     OW31882   7.898   0.200   7.599  0.1685 -0.2468 -0.3756
10435SOL    HW131883   7.934   0.289   7.607  0.8369 -0.4691 -0.8931
10435SOL    HW231884   7.844   0.203   7.520 -3.2550  0.8461  1.7518
10436SOL     OW31885   8.030   4.241   3.068 -0.6765 -0.4085 -0.5263
10436SOL    HW131886   8.057   4.201   2.986 -0.4822  0.1361 -0.7360
10436SOL    HW231887   7.967   4.308   3.042 -0.2639  0.0878 -0.2798
10437SOL     OW31888   5.578   3.326   0.698 -0.6596  0.2991  0.3025
10437SOL    HW131889   5.494   3.336   0.654  0.1770 -0.1282 -1.4608
10437SOL    HW231890   5.643   3.359   0.636  0.5149  0.4801  1.5541
10438SOL     OW31891   6.425   4.673   2.772 -0.4849  0.8857 -0.1129
10438SOL    HW131892   6.406   4.629   2.855  1.4267 -1.2479 -0.6992
10438SOL    HW231893   6.382   4.618   2.706 -1.3332  2.1296 -0.6361
10439SOL     OW31894   5.554   0.848   2.220  0.5028  0.3391  0.3727
10439SOL    HW131895   5.632   0.809   2.181  0.4946  0.1643  0.5281
10439SOL    HW231896   5.587   0.922   2.270  0.3342  1.6331 -1.3589
10440SOL     OW31897   9.163   7.512   2.206  0.4051  0.1026 -0.3363
10440SOL    HW131898   9.232   7.456   2.242  0.4711 -0.2437 -0.9763
10440SOL    HW231899   9.205   7.555   2.131 -0.2076 -0.4491 -0.9980
10441SOL     OW31900   7.955   3.425   1.319 -0.2953 -0.1527 -0.2293
10441SOL    HW131901   8.021   3.397   1.256 -0.2220 -0.7625  0.1056
10441SOL    HW231902   7.872   3.407   1.275 -0.2476 -0.8735 -0.0352
10442SOL     OW31903   7.682   6.910   4.810  0.0723 -0.1339 -0.3869
10442SOL    HW131904   7.665   6.856   4.888 -0.2550  0.6633  0.1074
10442SOL    HW231905   7.685   6.999   4.843 -0.1681  0.2270 -1.3179
10443SOL     OW31906   7.862   0.720   5.982  0.1178 -0.1849  0.3076
10443SOL    HW131907   7.843   0.630   5.955  0.7347 -0.3698  0.4675
10443SOL    HW231908   7.845   0.722   6.076 -0.2538 -0.0337  0.2378
10444SOL     OW31909   4.488   1.753   4.480  0.4473  0.1350 -0.1846
10444SOL    HW131910   4.560   1.785   4.534 -0.2309  0.7271  0.4057
10444SOL    HW231911   4.525   1.682   4.428  0.9634 -0.9209  1.5668
10445SOL     OW31912   3.440   0.437   2.905 -0.0223 -0.4652  0.0062
10445SOL    HW131913   3.516   0.409   2.955 -0.1601 -0.8601 -0.0013
10445SOL    HW231914   3.475   0.498   2.840  0.0525  0.6850  1.0900
10446SOL     OW31915   8.916   3.715   9.783  0.2553  0.1561  0.4728
10446SOL    HW131916   8.940   3.807   9.790  1.9942 -0.2984  0.8789
10446SOL    HW231917   8.826   3.716   9.751  0.6260  1.9774 -0.6246
10447SOL     OW31918   3.943   7.879   6.292  0.7439 -0.0780  0.4561
10447SOL    HW131919   3.922   7.970   6.270  1.4194  0.0397  0.2870
10447SOL    HW231920   4.022   7.885   6.346  0.8933 -0.5790  0.2950
10448SOL     OW31921   1.164   1.365   9.856  0.4595 -0.3011  0.6918
10448SOL    HW131922   1.147   1.403   9.941  3.6735  0.2774  1.2058
10448SOL    HW231923   1.092   1.303   9.842 -0.7716  0.4379  3.2407
10449SOL     OW31924   5.612   2.116   7.511  0.1292  0.3972 -0.2886
10449SOL    HW131925   5.603   2.118   7.416  0.3665  1.8547 -0.3084
10449SOL    HW231926   5.606   2.023   7.534  1.2302 -0.1011 -1.8325
10450SOL     OW31927   2.198   9.737   9.281  0.9354 -0.3469 -0.5641
10450SOL    HW131928   2.282   9.697   9.305  0.6298 -0.3758  0.4943
10450SOL    HW231929   2.190   9.812   9.339  0.0418 -0.5716 -0.3931
10451SOL     OW31930   7.319   2.397   7.025  0.5483  0.1527  0.8735
10451SOL    HW131931   7.275   2.453   6.961  2.4504  0.1389 -0.5388
10451SOL    HW231932   7.274   2.313   7.019 -0.7927  0.8264  1.2766
10452SOL     OW31933   1.209   9.437   0.915  0.1836  0.1453 -0.3939
10452SOL    HW131934   1.207   9.375   0.843  1.2174  0.8362 -1.0392
10452SOL    HW231935   1.234   9.385   0.991 -0.2264 -0.4583 -0.6720
10453SOL     OW31936   8.861   6.566   1.740  0.0684  0.0840  0.3444
10453SOL    HW131937   8.889   6.570   1.831  0.2082  0.6543  0.2801
10453SOL    HW231938   8.837   6.474   1.726  1.8543 -0.4162  0.4052
10454SOL     OW31939   9.695   4.469   6.345 -0.8859 -0.2456 -0.1263
10454SOL    HW131940   9.711   4.391   6.398  0.3869 -0.1131 -0.2858
10454SOL    HW231941   9.640   4.525   6.400  0.9986  0.2186  1.3938
10455SOL     OW31942   1.995   0.940   5.077 -0.0640 -0.1568 -0.2099
10455SOL    HW131943   2.050   0.862   5.075  1.7240  1.0745 -1.2675
10455SOL    HW231944   1.924   0.921   5.016  1.2717 -0.3540 -1.7597
10456SOL     OW31945   3.347   1.616   6.679 -0.3831 -0.0568 -0.4430
10456SOL    HW131946   3.329   1.596   6.587 -0.7087 -2.2362  0.0294
10456SOL    HW231947   3.274   1.671   6.707 -2.0697 -2.0197 -0.7092
10457SOL     OW31948   9.095   7.253   5.303 -0.5195 -0.0286 -0.5667
10457SOL    HW131949   9.023   7.193   5.289  1.5411 -2.5204 -1.2240
10457SOL    HW231950   9.148   7.246   5.224  0.6406  1.4482  0.0294
10458SOL     OW31951   0.587   8.966   4.157 -0.1780  0.3369 -0.3052
10458SOL    HW131952   0.591   8.873   4.182 -0.3240 -0.4611 -2.9426
10458SOL    HW231953   0.566   8.964   4.063  2.5116  2.9856 -1.1049
10459SOL     OW31954   9.286   8.075   8.581 -0.1635  0.2360 -0.0220
10459SOL    HW131955   9.251   7.986   8.571 -1.9001  0.9351 -0.4816
10459SOL    HW231956   9.247   8.107   8.662  1.9234 -0.0243  1.1584
10460SOL     OW31957   6.970   5.899   3.611  0.5283 -0.3732  0.0190
10460SOL    HW131958   7.040   5.861   3.664  0.1147  0.3329  1.1082
10460SOL    HW231959   6.893   5.896   3.667  0.1319  0.6312 -0.4376
10461SOL     OW31960   5.192   0.451   8.791  0.0343 -0.6795 -0.2516
10461SOL    HW131961   5.144   0.526   8.757 -1.2232 -0.7015  1.3420
10461SOL    HW231962   5.148   0.375   8.753  0.3832 -0.6529 -0.7182
10462SOL     OW31963   8.241   9.379   0.804 -0.1255 -0.0329 -0.1343
10462SOL    HW131964   8.290   9.395   0.884 -1.0676 -0.8511  0.6398
10462SOL    HW231965   8.297   9.320   0.753  1.0282  1.4551 -0.6805
10463SOL     OW31966   7.019   8.349   1.187  0.0132 -0.0833  0.4721
10463SOL    HW131967   6.996   8.366   1.096 -0.5020 -2.2124  0.1397
10463SOL    HW231968   6.955   8.285   1.217 -0.7716  1.6739  2.8631
10464SOL     OW31969   8.210   3.806   3.358 -0.0792  0.2540 -0.2285
10464SOL    HW131970   8.218   3.899   3.380 -1.4292  0.0295  1.4051
10464SOL    HW231971   8.269   3.761   3.419 -2.5880 -0.2353  2.0363
10465SOL     OW31972   7.781   4.847   8.781  0.7694  0.1156 -0.1423
10465SOL    HW131973   7.806   4.899   8.857  0.3007 -0.9491  0.7659
10465SOL    HW231974   7.736   4.771   8.817  0.5801 -0.4474 -1.4843
10466SOL     OW31975   7.393   9.315   2.500 -0.1294  0.8104  0.1619
10466SOL    HW131976   7.415   9.347   2.588 -1.9854  0.2104  0.8954
10466SOL    HW231977   7.322   9.372   2.471  0.2623  0.8041 -0.8526
10467SOL     OW31978   9.429   4.441   7.753  0.1578 -0.1886 -0.4876
10467SOL    HW131979   9.382   4.413   7.674 -0.3617 -1.2147  0.1599
10467SOL    HW231980   9.509   4.390   7.753 -0.6067 -1.4682  0.4858
10468SOL     OW31981   1.032   2.673   2.124  0.0306 -0.0438 -0.5785
10468SOL    HW131982   1.048   2.741   2.059  0.7280 -0.8079 -1.2294
10468SOL    HW231983   1.085   2.599   2.095 -0.1266 -0.6141  0.5273
10469SOL     OW31984   0.889   0.688   3.155 -0.0424  0.3480 -0.3886
10469SOL    HW131985   0.893   0.764   3.097 -1.2833  0.1800 -0.7258
10469SOL    HW231986   0.808   0.701   3.205  0.2449 -0.2656  0.2537
10470SOL     OW31987   2.483   1.689   2.890 -0.9378  0.0170 -0.1330
10470SOL    HW131988   2.452   1.602   2.916  1.1481 -0.5601  0.5857
10470SOL    HW231989   2.492   1.736   2.973  0.5463 -0.0195 -0.2474
10471SOL     OW31990   4.399   1.573   3.260 -0.5923 -0.0638 -0.4274
10471SOL    HW131991   4.308   1.589   3.283 -0.1592  1.3896  0.4115
10471SOL    HW231992   4.397   1.552   3.167 -1.7130  0.6460 -0.5829
10472SOL     OW31993   6.881   1.665   6.780 -0.0376 -0.0074  0.5465
10472SOL    HW131994   6.823   1.600   6.741 -0.8625  1.9686 -1.6756
10472SOL    HW231995   6.828   1.708   6.847 -0.0199 -0.4574  0.8567
10473SOL     OW31996   1.141   4.577   6.392 -0.1859  0.0658 -0.5338
10473SOL    HW131997   1.092   4.497   6.410 -0.5167  0.6881  1.5617
10473SOL    HW231998   1.206   4.550   6.327  1.2660 -2.5436  1.7457
10474SOL     OW31999   4.740   9.309   9.231 -0.4110 -0.2925 -0.4044
10474SOL    HW132000   4.668   9.368   9.209 -1.2488 -0.9188  0.5679
10474SOL    HW232001   4.768   9.273   9.147  0.0320  1.3655 -0.9955
10475SOL     OW32002   6.458   3.578   7.993  0.0409  0.0205 -0.1794
10475SOL    HW132003   6.411   3.625   7.925  0.1476 -0.1279 -0.3561
10475SOL    HW232004   6.424   3.614   8.075  0.9917  1.2877 -0.3019
10476SOL     OW32005   7.355   5.119   9.029  0.0409 -0.0595 -0.7262
10476SOL    HW132006   7.449   5.116   9.014  0.3304 -0.1142  0.9227
10476SOL    HW232007   7.326   5.028   9.018  0.5144 -0.3900  0.6285
10477SOL     OW32008   7.047   3.586   1.449  0.0354  0.2269  0.6445
10477SOL    HW132009   7.025   3.514   1.390 -0.4320 -0.6411  1.8143
10477SOL    HW232010   7.060   3.662   1.392 -2.0147 -0.1726 -0.4454
10478SOL     OW32011   7.945   9.146   1.410  0.1979  0.1969 -0.0566
10478SOL    HW132012   8.030   9.183   1.434  0.4872 -1.9760  2.8857
10478SOL    HW232013   7.882   9.213   1.436  0.9037  1.0346 -0.4273
10479SOL     OW32014   4.927   2.691   9.744  0.5953 -0.3666 -0.4855
10479SOL    HW132015   5.020   2.712   9.752  0.5714 -0.0726 -1.0105
10479SOL    HW232016   4.919   2.645   9.661  0.3123 -0.6424 -0.3105
10480SOL     OW32017   1.498   5.022   0.687  0.0738 -0.3206 -0.6460
10480SOL    HW132018   1.564   4.962   0.652 -0.4720 -0.3077 -1.7473
10480SOL    HW232019   1.505   5.012   0.782  3.5623  1.7252 -0.5033
10481SOL     OW32020   5.970   3.455   6.959  0.6752 -0.2149 -0.3617
10481SOL    HW132021   6.005   3.520   7.020  0.4711  0.4244 -0.9062
10481SOL    HW232022   6.048   3.409   6.926  0.8247 -0.2130 -0.0193
10482SOL     OW32023   7.592   3.454   4.975 -0.2866  0.2823  0.2958
10482SOL    HW132024   7.642   3.374   4.959  2.0547  1.4677  1.2314
10482SOL    HW232025   7.525   3.429   5.038  1.2670 -0.7006  1.6323
10483SOL     OW32026   9.703   9.002   4.009  0.2591 -0.9082  0.1517
10483SOL    HW132027   9.723   8.955   4.090 -0.7382 -0.7282  0.5140
10483SOL    HW232028   9.658   8.937   3.954 -2.8214  0.0324  1.3716
10484SOL     OW32029   1.805   4.661   0.791  0.3834  0.0417 -0.2695
10484SOL    HW132030   1.838   4.700   0.709 -0.2762 -0.0552 -0.5903
10484SOL    HW232031   1.733   4.605   0.763  1.0913 -1.1466  0.2337
10485SOL     OW32032   2.783   9.528   4.235 -0.6509 -0.0209 -0.1496
10485SOL    HW132033   2.707   9.473   4.250  0.5227 -1.1670  2.2311
10485SOL    HW232034   2.857   9.467   4.231  0.6068  1.2259  1.8622
10486SOL     OW32035   0.271   0.506   9.654 -0.7582  0.0649 -0.0287
10486SOL    HW132036   0.198   0.444   9.659 -1.2243  0.2779 -2.6554
10486SOL    HW232037   0.343   0.456   9.616 -1.0168  0.9642 -1.8099
10487SOL     OW32038   0.821   2.123   7.508 -0.1211 -0.3168  0.3344
10487SOL    HW132039   0.835   2.211   7.472  0.2749 -0.8809 -0.9421
10487SOL    HW232040   0.876   2.066   7.454 -1.2640 -1.5055  0.3748
10488SOL     OW32041   3.513   8.568   0.715  0.0851  0.5231  0.1938
10488SOL    HW132042   3.505   8.474   0.734 -0.6847  1.0896  3.1036
10488SOL    HW232043   3.423   8.601   0.722  0.3197  1.4753 -1.0365
10489SOL     OW32044   6.372   0.838   3.607 -0.4565 -0.0650 -0.6711
10489SOL    HW132045   6.437   0.884   3.554  0.5329 -0.5226  0.1227
10489SOL    HW232046   6.293   0.838   3.553 -0.1461  1.5067 -1.1808
10490SOL     OW32047   0.434   2.162   3.876 -0.6298  0.0123 -0.3378
10490SOL    HW132048   0.351   2.116   3.877 -1.4813  1.4656 -1.1101
10490SOL    HW232049   0.411   2.255   3.880  0.9120  0.4794 -1.1786
10491SOL     OW32050   7.146   6.445   5.635 -0.1734 -0.1903 -0.3192
10491SOL    HW132051   7.241   6.446   5.625 -0.2653  0.9259 -1.3397
10491SOL    HW232052   7.131   6.435   5.729  0.9374 -1.0371 -0.2174
10492SOL     OW32053   0.443   2.611   5.631 -0.5726  0.6348  0.3592
10492SOL    HW132054   0.352   2.640   5.622 -1.7132 -2.6612 -0.3575
10492SOL    HW232055   0.468   2.583   5.543  0.6466  0.2194  0.8168
10493SOL     OW32056   5.606   6.717   8.349  0.0344  0.4005 -0.3132
10493SOL    HW132057   5.580   6.639   8.397 -1.8892  2.1580  1.7018
10493SOL    HW232058   5.524   6.753   8.316  0.9226  1.4390 -1.4859
10494SOL     OW32059   9.355   0.556   8.550 -0.0252  0.3064  0.3373
10494SOL    HW132060   9.431   0.596   8.590  0.1073  0.5110 -0.1044
10494SOL    HW232061   9.293   0.628   8.538 -0.7502 -0.0480  1.7151
10495SOL     OW32062   1.548   5.755   7.415  0.1059 -0.2900  0.2312
10495SOL    HW132063   1.484   5.774   7.346  1.6944  1.6931 -0.8154
10495SOL    HW232064   1.608   5.692   7.376  0.1040 -0.3762  0.3677
10496SOL     OW32065   4.666   8.919   7.429  0.5966  0.8895  0.4077
10496SOL    HW132066   4.717   8.849   7.389  0.6432  0.5850  0.9932
10496SOL    HW232067   4.691   8.918   7.521 -0.9321  0.2810  0.8636
10497SOL     OW32068   9.807   7.425   3.965 -0.2840 -0.4701 -0.8671
10497SOL    HW132069   9.867   7.375   4.020  0.7102 -1.2584 -2.6083
10497SOL    HW232070   9.815   7.386   3.878 -2.5233  0.1162 -1.4005
10498SOL     OW32071   6.277   3.056   0.357 -0.4590 -0.4805 -1.0039
10498SOL    HW132072   6.257   3.150   0.366 -0.4546 -0.3285 -2.3877
10498SOL    HW232073   6.191   3.014   0.357 -0.7392 -0.0948 -4.0740
10499SOL     OW32074   1.880   5.780   6.031  0.1052 -0.9728 -0.3068
10499SOL    HW132075   1.837   5.789   5.946  1.3426 -0.6355 -0.9198
10499SOL    HW232076   1.813   5.805   6.095 -1.3192 -2.6442 -1.0554
10500SOL     OW32077   4.739   5.059   1.058  0.3051 -0.2796 -0.2932
10500SOL    HW132078   4.810   5.123   1.062  0.0710 -0.0856  1.7774
10500SOL    HW232079   4.779   4.977   1.087 -0.3194 -0.1151  1.1340
10501SOL     OW32080   8.604   9.485   1.686 -0.3946 -0.1198  0.2972
10501SOL    HW132081   8.569   9.572   1.665  0.5169 -0.2448 -2.1048
10501SOL    HW232082   8.687   9.502   1.730 -0.0013  0.2618 -0.5707
10502SOL     OW32083   2.157   1.858   1.473 -0.5287  0.5716  0.7993
10502SOL    HW132084   2.067   1.833   1.492 -0.6272  1.6175  1.8670
10502SOL    HW232085   2.150   1.925   1.405 -0.3026 -1.6635 -1.5901
10503SOL     OW32086   2.740   5.961   3.619 -0.6376 -0.2612  0.2104
10503SOL    HW132087   2.799   5.958   3.543  0.9880 -2.3582  1.4143
10503SOL    HW232088   2.684   5.884   3.608 -0.7609 -0.2617  0.8231
10504SOL     OW32089   9.669   4.778   9.619 -0.4937  0.0902  0.5366
10504SOL    HW132090   9.676   4.815   9.707  0.8031  1.1157  0.0429
10504SOL    HW232091   9.588   4.816   9.583 -0.5299  0.4150  0.9559
10505SOL     OW32092   3.899   1.891   3.245  0.5713 -0.1839  0.7645
10505SOL    HW132093   3.966   1.929   3.301  1.7358 -1.2566  0.1275
10505SOL    HW232094   3.835   1.854   3.305  1.5453 -0.8725  1.3932
10506SOL     OW32095   8.484   2.244   0.332 -1.1086 -0.0385 -0.5487
10506SOL    HW132096   8.475   2.159   0.289 -0.7949 -0.2677 -0.1704
10506SOL    HW232097   8.479   2.225   0.425  1.0000  0.0679 -0.3584
10507SOL     OW32098   0.175   1.977   2.917 -0.2249  0.2766 -0.0969
10507SOL    HW132099   0.164   2.072   2.906  3.7632  0.9323  0.0615
10507SOL    HW232100   0.268   1.963   2.904 -0.4561 -3.4934  1.3111
10508SOL     OW32101   2.470   4.398   5.260 -1.0775  0.4928 -0.3676
10508SOL    HW132102   2.531   4.335   5.221 -3.6250 -0.6791 -2.7535
10508SOL    HW232103   2.526   4.472   5.285  1.7086 -1.6719  0.3971
10509SOL     OW32104   4.089   4.826   6.177 -0.3138 -0.4032 -0.0138
10509SOL    HW132105   4.109   4.918   6.159 -0.6421 -0.1337  0.9636
10509SOL    HW232106   4.145   4.804   6.252 -2.0530 -0.2515  1.3994
10510SOL     OW32107   5.438   3.545   8.486 -0.3066 -0.4090  0.2375
10510SOL    HW132108   5.518   3.588   8.516  0.5687 -1.4673 -0.5148
10510SOL    HW232109   5.369   3.610   8.500  0.3354 -0.1547  2.7331
10511SOL     OW32110   4.172   0.400   3.110  0.3485 -0.6648 -0.2908
10511SOL    HW132111   4.106   0.429   3.173  1.5235 -0.3911  0.8742
10511SOL    HW232112   4.142   0.313   3.082 -0.1923 -0.8118  0.6874
10512SOL     OW32113   3.380   3.635   9.321 -0.2536 -0.1769  0.1798
10512SOL    HW132114   3.367   3.726   9.347 -0.8187 -0.1386 -0.2236
10512SOL    HW232115   3.447   3.602   9.381 -1.5886 -0.1133  1.7793
10513SOL     OW32116   0.953   9.141   3.572 -0.0540 -0.2714 -0.1973
10513SOL    HW132117   0.869   9.105   3.541  0.5407 -0.7363 -1.3459
10513SOL    HW232118   1.004   9.065   3.598  0.9280 -0.2572 -1.9155
10514SOL     OW32119   9.301   3.032   1.020 -0.2316 -0.4503 -0.0935
10514SOL    HW132120   9.212   3.004   1.001  0.0067 -0.8797 -0.5867
10514SOL    HW232121   9.292   3.122   1.051 -0.6970  0.0210 -1.5449
10515SOL     OW32122   3.919   8.427   4.267  0.2914  0.2109 -0.3951
10515SOL    HW132123   3.896   8.354   4.210  0.8663 -1.1016  0.9832
10515SOL    HW232124   3.837   8.452   4.309  0.2794 -0.4738  0.0177
10516SOL     OW32125   7.199   7.609   7.849  0.0485 -0.2206 -0.5147
10516SOL    HW132126   7.149   7.566   7.918  1.6269 -0.0032  0.8279
10516SOL    HW232127   7.287   7.619   7.885  0.8404  0.2515 -2.4287
10517SOL     OW32128   1.813   7.617   9.501 -0.0079  0.3458  0.2916
10517SOL    HW132129   1.850   7.533   9.474 -0.5000 -0.5472  2.2540
10517SOL    HW232130   1.876   7.682   9.469 -0.3200 -0.5955 -2.5188
10518SOL     OW32131   1.875   0.346   6.629 -0.0445  0.2519  0.1205
10518SOL    HW132132   1.900   0.340   6.722  0.8864 -0.7989 -0.1847
10518SOL    HW232133   1.875   0.440   6.612  0.9748  0.4209  0.8900
10519SOL     OW32134   0.720   9.280   5.673 -0.0782 -0.3466  0.0766
10519SOL    HW132135   0.704   9.355   5.615 -1.9688  0.1154  1.1135
10519SOL    HW232136   0.800   9.304   5.721 -0.4512  0.8595  0.1340
10520SOL     OW32137   7.753   1.655   6.397 -0.1889  0.2218  0.0684
10520SOL    HW132138   7.720   1.605   6.323 -2.1803  0.9527  0.4078
10520SOL    HW232139   7.765   1.591   6.467 -2.5361  0.1273  0.4454
10521SOL     OW32140   5.509   1.932   0.735 -0.0584 -0.0341 -0.2499
10521SOL    HW132141   5.414   1.925   0.746 -0.0660  0.8612  0.4155
10521SOL    HW232142   5.531   2.015   0.778  1.0761 -0.4205 -0.0667
10522SOL     OW32143   0.584   8.453   1.891 -0.1111 -0.3916  0.7339
10522SOL    HW132144   0.538   8.533   1.914 -1.9433 -0.3374 -2.4759
10522SOL    HW232145   0.516   8.385   1.892  0.5267 -1.0882 -0.3886
10523SOL     OW32146   0.274   7.228   1.502  0.0618  0.6072 -0.0051
10523SOL    HW132147   0.320   7.223   1.418  0.5623  0.4308  0.2741
10523SOL    HW232148   0.184   7.203   1.482  0.3293 -0.0968 -0.3694
10524SOL     OW32149   6.488   9.789   2.791 -0.4861 -0.8708  0.2744
10524SOL    HW132150   6.457   9.856   2.851  0.9770 -0.7118  0.9000
10524SOL    HW232151   6.454   9.815   2.706 -4.1919 -2.1026  1.2105
10525SOL     OW32152   2.659   4.864   7.543 -0.7217 -0.5296  0.5488
10525SOL    HW132153   2.750   4.836   7.534 -0.6542  0.0813 -1.0206
10525SOL    HW232154   2.642   4.860   7.637  1.6479  1.5847  1.1833
10526SOL     OW32155   1.396   3.585   1.324  0.0619  0.0981 -0.2307
10526SOL    HW132156   1.328   3.523   1.350  0.4533 -0.7669 -1.2278
10526SOL    HW232157   1.404   3.574   1.229 -0.3822  2.2082 -0.5788
10527SOL     OW32158   9.356   5.065   3.153 -0.4134  0.3653  0.0837
10527SOL    HW132159   9.364   5.120   3.231 -2.3490  2.6632 -1.1987
10527SOL    HW232160   9.390   4.980   3.180 -1.7518  0.8063  3.7061
10528SOL     OW32161   2.043   2.009   1.038 -0.2539 -0.3090 -0.4833
10528SOL    HW132162   2.106   1.946   1.003  0.9777  0.9047 -0.5316
10528SOL    HW232163   2.079   2.035   1.122 -1.3970 -0.5745  0.1062
10529SOL     OW32164   0.647   6.282   6.134  0.4010  0.4425 -0.0765
10529SOL    HW132165   0.633   6.193   6.165  1.5639 -0.3574 -1.6869
10529SOL    HW232166   0.615   6.338   6.205 -0.2817 -1.2407  0.9982
10530SOL     OW32167   0.372   6.568   7.399 -0.5550 -0.4536  0.3460
10530SOL    HW132168   0.427   6.636   7.360  0.0669 -0.8355  0.5461
10530SOL    HW232169   0.309   6.616   7.453  1.2898 -0.1188  2.2883
10531SOL     OW32170   2.790   2.697   7.896  0.0213 -0.1928  0.2143
10531SOL    HW132171   2.816   2.785   7.869  1.0542 -0.0575  1.5389
10531SOL    HW232172   2.768   2.706   7.988  0.8436 -1.4449  0.5553
10532SOL     OW32173   8.409   1.294   5.174 -0.5620  0.3521 -0.2618
10532SOL    HW132174   8.377   1.346   5.100 -0.2228  2.0634  0.7629
10532SOL    HW232175   8.347   1.311   5.245  0.6253  0.9159  0.6737
10533SOL     OW32176   6.105   1.888   4.589 -0.8388 -0.4769  0.3082
10533SOL    HW132177   6.035   1.936   4.544 -1.2708 -1.5624 -0.2267
10533SOL    HW232178   6.155   1.847   4.519 -0.4267 -0.7355  0.7477
10534SOL     OW32179   0.587   5.194   6.203  0.9266  0.0070  0.3428
10534SOL    HW132180   0.574   5.113   6.252 -1.8351  0.1028 -0.0634
10534SOL    HW232181   0.613   5.258   6.268  1.8339 -0.8999  0.8917
10535SOL     OW32182   6.662   4.316   7.083 -0.5866 -0.5270  0.6045
10535SOL    HW132183   6.721   4.255   7.038  0.1043  0.4011  0.2029
10535SOL    HW232184   6.680   4.302   7.176  2.2604  1.5067  0.5036
10536SOL     OW32185   5.867   1.804   2.066  0.0805 -0.7350  0.3760
10536SOL    HW132186   5.956   1.812   2.032 -0.0104 -1.1229  0.0306
10536SOL    HW232187   5.855   1.882   2.120  0.4926 -0.4804  0.1101
10537SOL     OW32188   3.400   6.370   6.198  0.2373 -0.0621  0.1647
10537SOL    HW132189   3.467   6.435   6.176  0.2574 -0.3763 -0.7477
10537SOL    HW232190   3.449   6.295   6.231  0.1184  1.3582  4.1376
10538SOL     OW32191   4.945   9.196   2.524 -0.0409  0.1752  0.1407
10538SOL    HW132192   4.949   9.283   2.564 -0.6197 -0.0194  0.6428
10538SOL    HW232193   4.867   9.198   2.469 -0.1138 -0.0566  0.2341
10539SOL     OW32194   1.791   9.036   0.744  0.6742 -0.0859  0.3404
10539SOL    HW132195   1.882   9.033   0.774  0.2123  0.3158  1.8889
10539SOL    HW232196   1.739   9.034   0.825 -0.6666  0.7722 -0.4579
10540SOL     OW32197   3.160   7.853   9.598  0.5965  0.6517  0.3393
10540SOL    HW132198   3.141   7.857   9.691 -2.4052  1.9180 -0.2171
10540SOL    HW232199   3.178   7.761   9.581  0.8952  0.3530  2.0771
10541SOL     OW32200   2.087   1.766   4.090 -0.1993  0.3632 -0.5307
10541SOL    HW132201   2.123   1.756   4.178 -0.2109 -2.9173 -0.7639
10541SOL    HW232202   2.014   1.827   4.101  1.0491  1.6214  1.3035
10542SOL     OW32203   0.846   4.526   2.758 -0.6394 -0.4942 -0.3154
10542SOL    HW132204   0.878   4.585   2.690 -2.0198 -2.0058 -2.3902
10542SOL    HW232205   0.913   4.457   2.763  1.3992  1.4491  2.6906
10543SOL     OW32206   8.651   4.906   8.176 -0.3066  0.1437  0.4166
10543SOL    HW132207   8.736   4.920   8.133 -1.3997  2.1376 -1.2629
10543SOL    HW232208   8.587   4.935   8.111 -2.1837  1.0060  2.5505
10544SOL     OW32209   0.100   3.295   5.580 -0.4136  0.3851  0.2723
10544SOL    HW132210   0.053   3.364   5.535  0.1900  1.1688  0.8153
10544SOL    HW232211   0.135   3.336   5.659  1.3470 -0.0902 -0.1995
10545SOL     OW32212   5.417   4.450   7.748  0.0576  0.4349  0.2631
10545SOL    HW132213   5.467   4.486   7.674  1.9701 -0.6527  0.9795
10545SOL    HW232214   5.398   4.526   7.803 -2.5819  1.5231 -1.8831
10546SOL     OW32215   8.007   8.537   4.575 -0.9804  0.2082  0.0660
10546SOL    HW132216   8.100   8.557   4.563  0.0321 -1.7483  3.1733
10546SOL    HW232217   7.962   8.620   4.560  1.1929  1.1752 -1.7552
10547SOL     OW32218   4.006   3.724   9.427  0.1485  0.0921 -0.3895
10547SOL    HW132219   4.062   3.741   9.350  2.8507  0.8559  1.5962
10547SOL    HW232220   3.933   3.785   9.415 -0.0038 -0.4321 -2.7661
10548SOL     OW32221   6.665   1.141   2.528  0.1423  0.2443  0.3609
10548SOL    HW132222   6.591   1.173   2.579 -0.1571  0.7961 -0.4040
10548SOL    HW232223   6.713   1.084   2.588  0.2624  1.5152  1.5199
10549SOL     OW32224   1.756   5.479   9.285 -0.0922  0.2768 -0.1201
10549SOL    HW132225   1.663   5.461   9.275  0.2403 -0.7568 -1.7507
10549SOL    HW232226   1.782   5.429   9.362 -1.1388  1.7193  1.2152
10550SOL     OW32227   1.788   1.080   6.140 -0.2858  0.0218 -0.1951
10550SOL    HW132228   1.783   1.133   6.061  2.0228  1.6426  0.6579
10550SOL    HW232229   1.804   0.991   6.108 -0.4434  0.4590 -1.5516
10551SOL     OW32230   8.626   9.122   3.042  0.0719 -0.7383  0.0078
10551SOL    HW132231   8.555   9.169   2.997 -0.3087 -0.9841  0.3525
10551SOL    HW232232   8.636   9.041   2.992 -0.3264 -0.9950  0.3322
10552SOL     OW32233   2.150   2.060   1.311  0.3982 -0.5410  0.2208
10552SOL    HW132234   2.064   2.099   1.325 -0.0615 -1.6153  0.5225
10552SOL    HW232235   2.211   2.119   1.355  0.0581  1.2096 -1.5049
10553SOL     OW32236   5.483   8.789   5.420  0.3413 -0.6780 -0.1076
10553SOL    HW132237   5.544   8.827   5.357 -0.8675  1.2272 -0.2315
10553SOL    HW232238   5.524   8.806   5.505  1.4548 -2.2801 -0.2847
10554SOL     OW32239   8.702   3.849   1.358  0.4668 -0.0070  0.2951
10554SOL    HW132240   8.613   3.815   1.347  0.5128 -0.0760  0.1234
10554SOL    HW232241   8.701   3.891   1.444 -0.1208  1.1815 -0.2689
10555SOL     OW32242   5.807   8.677   7.652 -0.3621  0.1908 -0.3523
10555SOL    HW132243   5.762   8.593   7.662 -0.1209 -0.0044 -0.8757
10555SOL    HW232244   5.739   8.737   7.624 -0.1649 -0.2842 -1.9407
10556SOL     OW32245   6.025   7.813   9.195  0.1305 -0.2367  0.4214
10556SOL    HW132246   5.971   7.866   9.136  1.8817  0.1944 -0.8927
10556SOL    HW232247   5.999   7.840   9.283 -1.9715 -0.2872 -0.1342
10557SOL     OW32248   3.554   1.272   6.380  0.7630  0.2120  0.1763
10557SOL    HW132249   3.503   1.238   6.454  0.0406  0.0937 -0.3728
10557SOL    HW232250   3.504   1.247   6.303  1.1463  0.9665 -0.3211
10558SOL     OW32251   3.237   5.193   8.299  0.2821 -0.6000  0.4153
10558SOL    HW132252   3.237   5.214   8.205  2.0246 -0.6949  0.3641
10558SOL    HW232253   3.320   5.148   8.313 -0.5874 -1.8858  1.7514
10559SOL     OW32254   3.261   8.749   5.642  1.0018 -0.3343  0.3382
10559SOL    HW132255   3.303   8.682   5.695  1.8089  0.5710  0.8694
10559SOL    HW232256   3.281   8.831   5.686 -0.5716  0.2131  0.0981
10560SOL     OW32257   8.167   2.036   0.837  0.1881 -0.6454  0.2977
10560SOL    HW132258   8.095   2.097   0.852  0.8345  0.0140  0.7680
10560SOL    HW232259   8.220   2.041   0.916  0.4098 -1.6106  0.2236
10561SOL     OW32260   8.035   4.596   2.123 -0.4934 -0.0719  0.1689
10561SOL    HW132261   7.972   4.540   2.078 -0.6874 -0.0130  0.3684
10561SOL    HW232262   8.119   4.551   2.110 -0.1412  1.1183 -2.2519
10562SOL     OW32263   2.158   3.692   7.843 -0.6432 -0.4432  0.4456
10562SOL    HW132264   2.250   3.668   7.847 -0.4928  0.0320  0.0634
10562SOL    HW232265   2.124   3.675   7.930 -0.7162 -2.6402  0.0297
10563SOL     OW32266   5.135   2.020   5.273 -0.1665  0.0771 -0.1474
10563SOL    HW132267   5.144   2.083   5.344 -0.0153  1.0298 -0.9878
10563SOL    HW232268   5.211   1.962   5.283  0.0806  0.4590  0.2110
10564SOL     OW32269   2.494   3.083   4.832  0.5232  0.6652 -0.9640
10564SOL    HW132270   2.549   3.005   4.821 -1.1939 -0.8691  0.5763
10564SOL    HW232271   2.481   3.090   4.926 -1.7553  1.0365 -1.2485
10565SOL     OW32272   8.408   6.472   1.218  0.4209 -0.0531 -0.2762
10565SOL    HW132273   8.479   6.471   1.283  0.0790 -1.1090  0.1021
10565SOL    HW232274   8.350   6.400   1.245 -1.3470  1.4191  0.0176
10566SOL     OW32275   3.324   9.091   2.440  0.4367 -0.1987 -0.0350
10566SOL    HW132276   3.385   9.022   2.414  0.5773  0.0939 -0.5040
10566SOL    HW232277   3.380   9.165   2.463  0.3894 -0.8715  2.4960
10567SOL     OW32278   6.467   5.703   1.318 -0.4132  0.1472 -0.1369
10567SOL    HW132279   6.490   5.631   1.376 -1.1992  0.7777  1.0000
10567SOL    HW232280   6.550   5.736   1.284  0.0315 -0.4420  0.3779
10568SOL     OW32281   2.588   4.368   1.073 -0.3751  0.3552 -0.4202
10568SOL    HW132282   2.632   4.451   1.056 -2.2272  1.2270 -1.2299
10568SOL    HW232283   2.617   4.343   1.161  0.5809  1.6107 -0.3490
10569SOL     OW32284   6.217   3.876   1.233  0.5729 -0.2497  0.1282
10569SOL    HW132285   6.201   3.897   1.325  0.8666 -0.8482  0.3188
10569SOL    HW232286   6.312   3.865   1.227  0.4723 -1.1541 -0.0329
10570SOL     OW32287   2.043   8.054   6.768 -0.3101  0.0121  0.4390
10570SOL    HW132288   1.992   8.036   6.847  0.3996  2.0568  1.4242
10570SOL    HW232289   2.120   7.996   6.776 -1.0095 -0.9522  0.3995
10571SOL     OW32290   9.818   8.833   8.472 -0.3338 -0.6574 -0.4229
10571SOL    HW132291   9.893   8.774   8.477 -1.5629 -2.2190  0.6751
10571SOL    HW232292   9.841   8.895   8.402  1.0659 -2.3763 -1.5814
10572SOL     OW32293   6.687   2.582   4.484  0.1674  0.0044 -0.0936
10572SOL    HW132294   6.593   2.576   4.502  0.1063 -0.5554 -0.5771
10572SOL    HW232295   6.694   2.577   4.389  0.6782  0.2029 -0.0686
10573SOL     OW32296   2.045   1.142   8.565 -0.2312  0.4812 -0.2430
10573SOL    HW132297   2.133   1.143   8.527 -1.0021  1.7058 -2.1705
10573SOL    HW232298   2.020   1.234   8.569 -0.8711  0.2720  1.7602
10574SOL     OW32299   6.035   7.443   0.350 -0.3920 -0.2412 -0.4241
10574SOL    HW132300   6.026   7.351   0.377  1.3494 -0.6151 -1.0279
10574SOL    HW232301   6.122   7.468   0.380 -1.5690  1.8933  1.5551
10575SOL     OW32302   5.000   5.308   8.789  0.9083  0.0926  0.6740
10575SOL    HW132303   5.082   5.269   8.760 -0.6331 -1.8704 -1.4251
10575SOL    HW232304   5.019   5.402   8.795  3.0722 -0.1969 -0.5913
10576SOL     OW32305   7.229   1.206   7.151 -0.0838 -0.5368  0.0678
10576SOL    HW132306   7.269   1.135   7.201 -1.4228 -1.2102  0.2329
10576SOL    HW232307   7.217   1.169   7.063  1.8440  0.4849 -0.6827
10577SOL     OW32308   3.945   3.292   2.887  0.4928 -0.1614 -0.2071
10577SOL    HW132309   3.889   3.368   2.898 -1.0267 -1.1885 -0.4927
10577SOL    HW232310   3.972   3.295   2.795  0.1891 -0.1226 -0.2957
10578SOL     OW32311   4.335   1.539   4.159 -0.6696  0.1928  0.0190
10578SOL    HW132312   4.359   1.629   4.138  2.0919 -0.4797 -0.0594
10578SOL    HW232313   4.315   1.499   4.073  0.0582  0.2311 -0.1734
10579SOL     OW32314   0.071   8.564   6.234  0.0931 -0.1665  0.3018
10579SOL    HW132315   0.102   8.609   6.313  0.1880 -0.0142  0.1795
10579SOL    HW232316   0.123   8.603   6.163 -0.3654  0.0783  0.0986
10580SOL     OW32317   7.783   3.724   2.209 -0.5561  0.1556  0.2569
10580SOL    HW132318   7.829   3.807   2.219  0.7012 -0.4430 -0.3656
10580SOL    HW232319   7.715   3.727   2.276 -0.1349  1.4188  0.6632
10581SOL     OW32320   9.156   5.639   0.186  0.9970  0.3321 -0.0837
10581SOL    HW132321   9.190   5.565   0.136  0.6743 -1.0017  1.6150
10581SOL    HW232322   9.081   5.671   0.134  0.5871 -1.0865 -0.3936
10582SOL     OW32323   3.073   9.446   1.450 -0.1523 -0.0445 -0.1357
10582SOL    HW132324   3.016   9.370   1.448 -0.6788  0.3424 -0.1626
10582SOL    HW232325   3.013   9.521   1.459  0.2544  0.4731 -1.5264
10583SOL     OW32326   0.900   0.927   6.132 -0.6152  0.1972 -0.6062
10583SOL    HW132327   0.859   0.894   6.052 -0.3165 -0.1366 -0.6238
10583SOL    HW232328   0.943   0.851   6.170 -0.1273  0.5169 -0.5137
10584SOL     OW32329   1.329   6.476   8.735 -0.0995  0.0024  0.3086
10584SOL    HW132330   1.395   6.437   8.677  2.3589  3.2796  0.5974
10584SOL    HW232331   1.350   6.442   8.822  0.7290  0.3996  0.2711
10585SOL     OW32332   7.337   7.501   2.484 -0.4382  0.4755 -0.1333
10585SOL    HW132333   7.403   7.501   2.553 -0.0722 -1.4792 -0.4168
10585SOL    HW232334   7.254   7.491   2.531 -0.2069 -0.6405  0.0757
10586SOL     OW32335   1.003   4.481   5.179  0.7082 -0.6320  0.5059
10586SOL    HW132336   1.096   4.499   5.197  0.6619  2.4174 -1.5508
10586SOL    HW232337   0.955   4.547   5.229 -0.2749 -1.3210  0.4988
10587SOL     OW32338   1.458   3.090   5.042  0.2719 -0.5387  0.0817
10587SOL    HW132339   1.522   3.102   4.972  1.4981  0.4352  1.3145
10587SOL    HW232340   1.503   3.120   5.121 -0.9679 -1.8432  1.3441
10588SOL     OW32341   3.022   3.240   4.139 -0.6295  0.4472 -0.1843
10588SOL    HW132342   3.064   3.157   4.116  0.4072  0.9390 -0.1215
10588SOL    HW232343   3.095   3.300   4.156 -1.3687  0.9327  1.3990
10589SOL     OW32344   4.639   6.820   6.518  0.3611 -0.1410  0.4449
10589SOL    HW132345   4.644   6.771   6.600  1.1330 -1.3273 -0.2870
10589SOL    HW232346   4.558   6.790   6.476  0.5228 -0.3337  0.2727
10590SOL     OW32347   4.665   5.382   9.450 -0.2403 -0.9329  0.2835
10590SOL    HW132348   4.692   5.299   9.410 -0.9990 -1.1984  0.3029
10590SOL    HW232349   4.650   5.440   9.375  1.1898 -0.5100  0.2970
10591SOL     OW32350   3.644   9.517   2.479 -0.6271 -0.4441 -0.0384
10591SOL    HW132351   3.680   9.578   2.543 -0.1838 -0.6417 -0.1005
10591SOL    HW232352   3.617   9.573   2.406  1.5606 -0.4719 -0.9363
10592SOL     OW32353   2.713   0.313   2.012  0.0594  0.2076 -0.2605
10592SOL    HW132354   2.760   0.307   1.930  2.3769  2.7904  0.7345
10592SOL    HW232355   2.666   0.396   2.007 -0.2834  0.0964  0.7994
10593SOL     OW32356   7.760   7.354   9.361  0.0814  1.0388 -0.1807
10593SOL    HW132357   7.800   7.367   9.447 -0.3944  0.2857  0.1663
10593SOL    HW232358   7.707   7.434   9.348 -0.3540  0.8815  0.5227
10594SOL     OW32359   1.477   9.566   7.088  0.1879 -0.1680  0.2078
10594SOL    HW132360   1.546   9.526   7.140  2.3576  1.5918 -1.1779
10594SOL    HW232361   1.495   9.660   7.090 -1.1187  0.1920 -1.6591
10595SOL     OW32362   7.880   0.097   1.608  0.8336  0.5806 -0.2643
10595SOL    HW132363   7.843   0.012   1.585  2.0160 -0.6626  2.0212
10595SOL    HW232364   7.851   0.156   1.539 -1.0678 -1.3965 -1.2634
10596SOL     OW32365   8.409   0.386   5.242 -0.0660  0.0257 -0.3629
10596SOL    HW132366   8.417   0.306   5.190 -0.8170  0.5200 -1.2600
10596SOL    HW232367   8.317   0.412   5.233  0.2965  1.3097 -0.5638
10597SOL     OW32368   9.311   4.688   7.735 -0.7615 -0.1584 -0.3303
10597SOL    HW132369   9.356   4.604   7.747 -0.6220 -0.0851 -0.3451
10597SOL    HW232370   9.298   4.722   7.823  0.4966  0.5022 -0.3766
10598SOL     OW32371   6.188   4.321   7.501  0.0056  0.1688  0.1234
10598SOL    HW132372   6.126   4.366   7.443 -0.5120  1.8721  1.8609
10598SOL    HW232373   6.249   4.277   7.442 -1.4515  0.4271 -1.6717
10599SOL     OW32374   3.726   3.348   9.383  0.1352 -0.1843  0.2323
10599SOL    HW132375   3.765   3.298   9.312 -0.5174 -1.0560  0.4671
10599SOL    HW232376   3.797   3.402   9.417  0.7573 -0.6731 -0.2764
10600SOL     OW32377   3.240   7.864   1.806 -0.4030 -0.2489  0.1145
10600SOL    HW132378   3.329   7.828   1.796  0.0884  0.6776  1.0045
10600SOL    HW232379   3.185   7.787   1.816  0.4478 -0.8179  0.6073
10601SOL     OW32380   4.124   6.059   2.932  0.4040 -0.1310  0.5942
10601SOL    HW132381   4.206   6.033   2.974  0.2850 -2.4400 -0.4076
10601SOL    HW232382   4.066   5.984   2.947 -0.8645  0.6282 -0.3930
10602SOL     OW32383   2.848   5.218   5.518 -0.0342 -0.2916  0.2675
10602SOL    HW132384   2.855   5.301   5.472 -0.2806 -0.2490  0.3085
10602SOL    HW232385   2.769   5.177   5.483 -0.9381  0.2982  1.5455
10603SOL     OW32386   6.434   5.225   1.415  0.1936  0.6763 -0.3187
10603SOL    HW132387   6.501   5.179   1.466 -1.7829 -1.2286  0.7331
10603SOL    HW232388   6.353   5.211   1.464 -1.1941  1.9100 -2.1332
10604SOL     OW32389   6.498   7.560   5.050 -0.0206 -0.3119 -0.3093
10604SOL    HW132390   6.508   7.555   5.146 -1.8011  1.0087  0.0107
10604SOL    HW232391   6.566   7.502   5.016  1.2347 -0.1553  1.7255
10605SOL     OW32392   1.759   1.668   6.308 -0.1629  0.2126 -0.3530
10605SOL    HW132393   1.822   1.736   6.280  0.8205 -0.2144  0.7207
10605SOL    HW232394   1.715   1.707   6.383  1.1491 -0.6760  0.9343
10606SOL     OW32395   7.176   3.799   6.854  0.5846 -0.0397 -0.4974
10606SOL    HW132396   7.154   3.780   6.763  0.9956  2.2734 -1.1336
10606SOL    HW232397   7.270   3.779   6.861  0.9307  1.2794 -1.0624
10607SOL     OW32398   9.167   5.222   5.414  0.2123  0.7363 -0.2004
10607SOL    HW132399   9.216   5.209   5.495  0.9946  0.5084 -0.6982
10607SOL    HW232400   9.151   5.317   5.411 -0.0080  0.7200  0.3176
10608SOL     OW32401   9.872   1.772   1.040  0.6705 -0.1866  0.4229
10608SOL    HW132402   9.954   1.805   1.002  0.3242  1.0747  0.7162
10608SOL    HW232403   9.808   1.841   1.022 -0.5610 -1.5124 -0.5697
10609SOL     OW32404   1.214   1.596   2.871 -0.0173 -0.3782  0.0379
10609SOL    HW132405   1.282   1.629   2.929  0.7133  3.8895 -2.7478
10609SOL    HW232406   1.260   1.537   2.811  0.7528  0.4752 -0.2408
10610SOL     OW32407   1.831   3.571   5.521  0.3805 -0.3756 -0.4112
10610SOL    HW132408   1.824   3.583   5.426  0.8911  3.4257 -0.1592
10610SOL    HW232409   1.924   3.585   5.540  0.5071 -2.3297  0.5852
10611SOL     OW32410   7.592   6.102   2.431  0.2552  0.9432 -0.0714
10611SOL    HW132411   7.501   6.073   2.444 -0.1043  0.6966 -2.5187
10611SOL    HW232412   7.616   6.065   2.346  2.2626  1.9819 -0.0085
10612SOL     OW32413   8.514   4.738   1.124 -0.1301  0.6017  0.0987
10612SOL    HW132414   8.520   4.686   1.044  2.3619 -0.6820  0.9822
10612SOL    HW232415   8.505   4.829   1.094  2.2701  0.3332 -1.7569
10613SOL     OW32416   8.988   1.319   6.880 -0.2541 -0.3772  0.1485
10613SOL    HW132417   9.021   1.366   6.804  0.9588 -2.7686 -0.9259
10613SOL    HW232418   8.984   1.384   6.950 -0.2108  1.6035 -1.6155
10614SOL     OW32419   3.926   8.121   3.193  0.7661 -0.2616  0.3876
10614SOL    HW132420   4.011   8.080   3.208  0.9069  0.8387  3.1666
10614SOL    HW232421   3.863   8.057   3.227  0.8614  0.8489  2.8311
10615SOL     OW32422   6.752   1.581   5.714  0.0572  0.1745  0.0657
10615SOL    HW132423   6.665   1.543   5.720  0.0915 -0.1193 -0.9500
10615SOL    HW232424   6.738   1.675   5.716 -0.0661  0.1418  2.2363
10616SOL     OW32425   4.622   5.015   5.691 -0.0009 -0.5247 -0.2354
10616SOL    HW132426   4.561   5.076   5.648  0.7454  0.4162  0.0027
10616SOL    HW232427   4.672   4.976   5.618 -0.9746 -1.4202 -0.4425
10617SOL     OW32428   7.913   2.101   9.373  0.2120  0.1712 -0.1483
10617SOL    HW132429   7.831   2.118   9.418  0.4479  2.0577 -0.3759
10617SOL    HW232430   7.981   2.133   9.432  0.8006 -1.0358 -0.1248
10618SOL     OW32431   9.987   1.580   1.925 -0.1292  0.5277 -0.0505
10618SOL    HW132432   9.968   1.634   2.001 -1.5287  0.7633 -0.5441
10618SOL    HW232433   9.903   1.567   1.883  0.7579  1.3834 -2.2379
10619SOL     OW32434   8.506   3.508   2.441  0.4256  0.8967  0.0976
10619SOL    HW132435   8.418   3.491   2.474  0.6439  0.3834  0.4282
10619SOL    HW232436   8.503   3.479   2.350 -0.3715  2.9423 -0.5773
10620SOL     OW32437   5.546   0.465   3.599  0.0493  0.3349 -0.4245
10620SOL    HW132438   5.610   0.507   3.542  1.1925 -0.0799  0.5168
10620SOL    HW232439   5.516   0.535   3.657  0.9740  0.1748  0.2770
10621SOL     OW32440   3.820   1.908   0.098 -0.2098 -0.2781  0.1214
10621SOL    HW132441   3.884   1.909   0.028 -0.8195  1.2423 -0.4684
10621SOL    HW232442   3.735   1.901   0.053 -0.5912  0.4042  0.7104
10622SOL     OW32443   8.951   5.924   2.145 -0.5419 -0.1126 -0.1841
10622SOL    HW132444   8.864   5.966   2.147  0.4886  2.1663 -0.0724
10622SOL    HW232445   9.007   5.987   2.099  1.3766 -0.8965  0.9624
10623SOL     OW32446   5.975   7.929   3.753 -0.4405  0.3491  0.2569
10623SOL    HW132447   6.010   7.887   3.832 -3.3800 -2.5901  0.2651
10623SOL    HW232448   6.024   7.890   3.681 -0.4843 -0.1262  0.4776
10624SOL     OW32449   0.391   2.648   8.685  0.0304 -0.2855 -0.0439
10624SOL    HW132450   0.386   2.743   8.697 -0.0785  0.2102 -3.1208
10624SOL    HW232451   0.304   2.623   8.654  0.9455 -0.7273 -2.5029
10625SOL     OW32452   2.411   4.111   0.055 -0.0611 -0.2889  0.3784
10625SOL    HW132453   2.450   4.195   0.030 -0.6298  0.0034  0.4482
10625SOL    HW232454   2.381   4.125   0.145 -2.9099  0.4796 -0.5905
10626SOL     OW32455   3.089   1.162   5.858  0.2308  0.0340 -0.5954
10626SOL    HW132456   3.136   1.168   5.775  0.9198  0.0010 -0.2149
10626SOL    HW232457   3.024   1.232   5.854  1.8453  1.6274 -0.1807
10627SOL     OW32458   2.889   5.864   7.854 -0.2471  0.3173 -0.5144
10627SOL    HW132459   2.836   5.855   7.774 -0.1378  4.0203 -1.1826
10627SOL    HW232460   2.830   5.906   7.917  0.0824 -1.3544  0.9749
10628SOL     OW32461   3.496   7.368   9.044 -0.4315  0.3337 -0.4814
10628SOL    HW132462   3.498   7.433   8.974 -1.0278  0.8925 -0.0042
10628SOL    HW232463   3.485   7.284   8.999  1.3633  0.4391 -1.1624
10629SOL     OW32464   7.265   7.749   8.735  1.0444 -0.0524  0.9320
10629SOL    HW132465   7.346   7.706   8.707  0.4808 -0.3237 -0.3572
10629SOL    HW232466   7.290   7.840   8.748  1.0338  0.5126 -2.2242
10630SOL     OW32467   1.163   2.606   0.890  0.3219  1.0993  0.2506
10630SOL    HW132468   1.074   2.640   0.894  0.2261  0.9792 -0.6445
10630SOL    HW232469   1.172   2.553   0.969 -1.1747 -0.6950 -0.6974
10631SOL     OW32470   8.762   6.257   2.692 -0.5561 -0.1842  0.0748
10631SOL    HW132471   8.779   6.189   2.627 -0.7673  0.2184 -0.4085
10631SOL    HW232472   8.671   6.282   2.678 -0.5477  0.0350  0.4031
10632SOL     OW32473   5.758   5.127   6.320 -0.3265  0.4859  0.1233
10632SOL    HW132474   5.815   5.124   6.243  0.3276  1.1464  0.5553
10632SOL    HW232475   5.780   5.210   6.362 -1.2226  0.4874  0.6081
10633SOL     OW32476   0.525   4.498   4.828 -0.3574  0.1857 -0.3588
10633SOL    HW132477   0.442   4.546   4.825 -1.5709 -1.2534  3.5737
10633SOL    HW232478   0.500   4.409   4.852  2.2690 -0.5660 -0.1441
10634SOL     OW32479   1.132   3.464   8.399  0.1296 -0.0618 -0.5506
10634SOL    HW132480   1.057   3.520   8.383 -0.7548 -0.3899  1.9539
10634SOL    HW232481   1.174   3.501   8.476  1.5896 -0.8521 -0.9230
10635SOL     OW32482   4.599   2.063   9.356  0.3734  0.0176  0.3077
10635SOL    HW132483   4.560   2.114   9.285 -0.1758 -1.5125 -0.5418
10635SOL    HW232484   4.661   2.123   9.397 -0.0856  1.2917 -0.7628
10636SOL     OW32485   0.179   8.278   6.267  0.1355 -0.7377 -0.0976
10636SOL    HW132486   0.217   8.229   6.193  0.9358  0.5963 -0.5981
10636SOL    HW232487   0.118   8.339   6.226  1.2461  0.6359  0.2386
10637SOL     OW32488   0.084   4.083   7.595 -0.3583  0.3002 -0.1469
10637SOL    HW132489   0.114   4.173   7.583  3.4844 -0.8342 -0.4360
10637SOL    HW232490   0.002   4.078   7.547 -0.6715  3.6044 -0.1616
10638SOL     OW32491   1.874   7.153   3.304  0.1635 -0.2989 -0.4744
10638SOL    HW132492   1.882   7.243   3.336 -2.7171  0.3822 -1.3412
10638SOL    HW232493   1.957   7.111   3.328  1.4761  2.4695  0.2418
10639SOL     OW32494   1.893   4.273   2.663 -0.5433 -0.1862  0.4307
10639SOL    HW132495   1.967   4.225   2.625  0.1601 -0.2664  1.8456
10639SOL    HW232496   1.892   4.357   2.617  0.0363 -0.4341 -0.0434
10640SOL     OW32497   8.849   6.488   0.685 -0.2074 -0.7834 -0.1670
10640SOL    HW132498   8.875   6.410   0.635 -0.2136 -1.7778  1.3191
10640SOL    HW232499   8.876   6.469   0.775  2.1716  2.0149 -0.1396
10641SOL     OW32500   0.584   6.789   8.472  0.1686 -0.4999  0.1237
10641SOL    HW132501   0.550   6.796   8.383 -1.8096 -0.3192  0.8400
10641SOL    HW232502   0.679   6.785   8.461 -0.0546 -1.4192 -2.0383
10642SOL     OW32503   3.605   6.166   3.382 -0.1486  0.1941 -0.0959
10642SOL    HW132504   3.534   6.230   3.375  0.2347  0.6372  0.0736
10642SOL    HW232505   3.685   6.218   3.382  0.2551 -0.3730 -1.6142
10643SOL     OW32506   1.823   4.161   1.335 -0.0968 -0.0834  0.1663
10643SOL    HW132507   1.887   4.107   1.381 -0.4255 -2.1046 -1.5887
10643SOL    HW232508   1.869   4.243   1.316  1.2673 -0.6865  0.7517
10644SOL     OW32509   5.899   2.923   9.481  0.5316 -0.2259 -0.6235
10644SOL    HW132510   5.954   2.961   9.549 -0.9141 -2.9320  2.3287
10644SOL    HW232511   5.920   2.829   9.484 -1.2205 -0.7336 -2.3537
10645SOL     OW32512   4.850   5.584   0.571 -0.2560  0.7218  0.1213
10645SOL    HW132513   4.937   5.579   0.531  1.3666 -2.6731  3.4783
10645SOL    HW232514   4.864   5.626   0.656 -1.7660 -0.2730  0.9160
10646SOL     OW32515   5.943   7.396   7.166 -0.0010  0.1401 -0.1793
10646SOL    HW132516   5.878   7.463   7.145 -0.5760 -0.1411  0.6627
10646SOL    HW232517   6.021   7.422   7.115 -0.0238  1.7559  0.5411
10647SOL     OW32518   5.549   8.395   2.335  0.1965  0.0226  0.5833
10647SOL    HW132519   5.465   8.374   2.376  0.6817  1.5679  2.4989
10647SOL    HW232520   5.611   8.336   2.378  0.7261  1.7295  2.2922
10648SOL     OW32521   0.819   4.359   0.274  0.1674  0.3365  0.0701
10648SOL    HW132522   0.886   4.298   0.305  1.5508  0.9333 -1.5933
10648SOL    HW232523   0.837   4.440   0.321  0.0437  0.2464  0.2751
10649SOL     OW32524   2.149   7.291   2.850  0.1249  0.1695  0.4971
10649SOL    HW132525   2.163   7.200   2.825 -0.9638  0.4463 -1.3374
10649SOL    HW232526   2.079   7.321   2.793  1.4821  2.6034 -0.0443
10650SOL     OW32527   8.790   1.440   0.893 -0.1005  0.7987  0.3141
10650SOL    HW132528   8.801   1.383   0.969 -2.1913 -0.0807  0.0262
10650SOL    HW232529   8.759   1.523   0.929 -1.6121  0.2139  0.4324
10651SOL     OW32530   6.511   6.409   8.172  0.2932 -0.0241 -0.1075
10651SOL    HW132531   6.468   6.449   8.096 -0.6388  0.1618  0.4962
10651SOL    HW232532   6.439   6.389   8.232  0.8648 -1.4602  0.1477
10652SOL     OW32533   4.152   5.601   2.890  0.2728 -0.6901  0.0764
10652SOL    HW132534   4.191   5.531   2.944 -0.3001 -0.7964  0.3556
10652SOL    HW232535   4.127   5.557   2.809 -0.0773 -0.8098  0.2478
10653SOL     OW32536   8.604   6.562   7.890 -0.0888  0.2281  0.5517
10653SOL    HW132537   8.625   6.480   7.935 -1.0918  0.8745  2.2788
10653SOL    HW232538   8.579   6.535   7.802 -0.8910 -1.3833  1.2382
10654SOL     OW32539   2.662   3.446   0.366  0.4131 -0.1563  0.1117
10654SOL    HW132540   2.756   3.444   0.381  0.1032  0.1390  2.6484
10654SOL    HW232541   2.641   3.539   0.355  0.4147 -0.2268 -0.5136
10655SOL     OW32542   2.565   4.636   3.343  0.2241  0.0486  0.4747
10655SOL    HW132543   2.541   4.691   3.268  0.2786 -1.8244 -0.9962
10655SOL    HW232544   2.653   4.603   3.322  0.8816  0.6639  2.1014
10656SOL     OW32545   3.162   7.138   4.922  0.2776 -0.3945 -0.4117
10656SOL    HW132546   3.223   7.204   4.887 -0.7871 -0.6321 -2.8543
10656SOL    HW232547   3.194   7.055   4.887  0.1462 -0.8975  0.6171
10657SOL     OW32548   9.647   2.926   8.607 -0.4546 -0.0364  0.4244
10657SOL    HW132549   9.580   2.865   8.638 -0.6243  0.1927  0.5145
10657SOL    HW232550   9.663   2.899   8.516 -1.7960  0.8432 -0.1174
10658SOL     OW32551   7.981   8.276   1.235 -0.7498 -0.2345  0.3180
10658SOL    HW132552   7.886   8.286   1.229 -0.7065  0.2423  0.4316
10658SOL    HW232553   7.999   8.193   1.190 -1.1117  0.1725 -0.6014
10659SOL     OW32554   2.773   5.187   2.778 -0.5094 -0.4402 -0.0511
10659SOL    HW132555   2.810   5.150   2.698 -1.1101 -0.8835 -0.1333
10659SOL    HW232556   2.685   5.150   2.783 -1.2776  1.2662 -0.3264
10660SOL     OW32557   1.805   3.842   6.079  0.7306  0.4415 -0.3793
10660SOL    HW132558   1.765   3.918   6.122  0.0679 -0.3377  0.4364
10660SOL    HW232559   1.879   3.819   6.134 -0.2941 -0.7400  0.5699
10661SOL     OW32560   3.621   2.990   4.890  0.8820 -0.1224  0.1225
10661SOL    HW132561   3.571   2.908   4.893  2.7778 -1.3298  0.2192
10661SOL    HW232562   3.571   3.046   4.831 -2.8497  0.3957  3.3729
10662SOL     OW32563   3.710   7.360   6.599 -0.3048 -0.3902 -0.3891
10662SOL    HW132564   3.722   7.274   6.640 -0.4867  0.2519  1.1093
10662SOL    HW232565   3.632   7.350   6.545  0.2239 -1.4169 -0.9837
10663SOL     OW32566   2.226   2.553   6.506 -0.5063  0.1059 -0.1692
10663SOL    HW132567   2.218   2.457   6.507 -0.6884  0.1219 -0.1437
10663SOL    HW232568   2.244   2.576   6.597 -2.1699  0.2421  0.1621
10664SOL     OW32569   2.893   1.499   4.086  0.5176  0.3570 -0.1218
10664SOL    HW132570   2.933   1.422   4.046 -3.0239 -2.2503  0.9584
10664SOL    HW232571   2.837   1.535   4.017 -0.5536 -0.1994  0.4459
10665SOL     OW32572   4.863   4.580   5.962 -0.3019  0.6598  0.0060
10665SOL    HW132573   4.894   4.657   5.914 -1.5675  0.4171 -1.2815
10665SOL    HW232574   4.768   4.584   5.954 -0.3908 -1.1360 -0.2480
10666SOL     OW32575   5.336   8.090   0.473  0.9076 -0.2511 -0.2477
10666SOL    HW132576   5.289   8.019   0.429  0.0161 -0.6481  1.2724
10666SOL    HW232577   5.379   8.048   0.548 -0.5651  0.9250  1.3502
10667SOL     OW32578   3.517   9.682   9.839 -0.3129 -0.7687 -0.0898
10667SOL    HW132579   3.602   9.677   9.882 -0.0606  1.0314 -0.3149
10667SOL    HW232580   3.453   9.669   9.910  0.1248 -0.8641  0.2911
10668SOL     OW32581   1.308   3.792   8.095  0.5104  0.1409  0.2090
10668SOL    HW132582   1.334   3.707   8.131 -1.7108 -0.6277  0.1776
10668SOL    HW232583   1.291   3.775   8.002  0.3966  0.7117  0.1205
10669SOL     OW32584   0.972   4.159   6.264 -0.0159 -0.0004 -0.7271
10669SOL    HW132585   1.007   4.214   6.335 -0.8319 -1.3953  0.8346
10669SOL    HW232586   0.877   4.175   6.266  0.1063  1.2978 -2.7499
10670SOL     OW32587   8.759   9.078   9.909 -0.0519 -0.4787 -0.1151
10670SOL    HW132588   8.823   9.143   9.937 -1.6185  0.3218  1.8418
10670SOL    HW232589   8.715   9.118   9.834 -1.5252  1.1510  1.5290
10671SOL     OW32590   5.886   7.766   1.364  0.3644 -0.4948 -0.0289
10671SOL    HW132591   5.800   7.741   1.398  1.1236 -0.1740  2.2931
10671SOL    HW232592   5.883   7.743   1.271 -2.4541  0.1541 -0.1709
10672SOL     OW32593   0.177   5.782   2.856  0.8619 -0.1539 -0.6079
10672SOL    HW132594   0.167   5.876   2.838  1.0252  0.1861  0.9681
10672SOL    HW232595   0.212   5.778   2.945 -1.0968 -1.7568  0.1491
10673SOL     OW32596   5.987   9.127   6.573 -0.3494 -0.8222 -0.0913
10673SOL    HW132597   6.076   9.160   6.563 -0.1856 -1.0380  0.6200
10673SOL    HW232598   5.944   9.191   6.629 -0.1781 -1.5257  0.8700
10674SOL     OW32599   4.756   3.467   5.180 -0.0922  0.1624 -0.2915
10674SOL    HW132600   4.791   3.506   5.260  0.5482  2.8994 -1.7730
10674SOL    HW232601   4.828   3.413   5.147 -0.1038 -0.3990  0.5562
10675SOL     OW32602   8.286   0.769   9.612 -0.8048  0.0484 -0.6521
10675SOL    HW132603   8.341   0.692   9.620  1.1426  1.4834  0.9370
10675SOL    HW232604   8.348   0.841   9.595 -2.6563  1.1069 -3.9247
10676SOL     OW32605   4.727   7.989   2.539  0.6715  0.0124  0.2197
10676SOL    HW132606   4.755   8.065   2.487  3.2150 -2.0319 -1.6750
10676SOL    HW232607   4.642   7.965   2.502 -0.5533  2.2158  1.3357
10677SOL     OW32608   4.714   8.124   6.641  0.0842 -0.3439  0.4723
10677SOL    HW132609   4.632   8.137   6.689 -0.0781 -1.1865  0.4484
10677SOL    HW232610   4.744   8.037   6.669  0.4721 -0.4431 -0.2377
10678SOL     OW32611   8.942   7.888   2.159  0.2426 -0.0736  0.5454
10678SOL    HW132612   9.038   7.881   2.153  0.2414 -0.0086  0.4514
10678SOL    HW232613   8.927   7.977   2.189  0.2194 -0.1553  0.7806
10679SOL     OW32614   1.045   5.826   6.716  0.7514 -0.6998  0.5522
10679SOL    HW132615   0.971   5.775   6.749 -0.6731 -0.9842 -2.6955
10679SOL    HW232616   1.093   5.765   6.661  1.2296  0.4551 -0.3527
10680SOL     OW32617   1.694   3.864   9.141 -0.1650 -0.0003 -0.1287
10680SOL    HW132618   1.608   3.870   9.101 -0.5904  2.0507  0.9508
10680SOL    HW232619   1.725   3.777   9.119 -1.4935  0.0543 -2.5551
10681SOL     OW32620   6.426   9.742   0.633 -0.1193 -0.6003 -0.8256
10681SOL    HW132621   6.484   9.809   0.597  0.5028 -0.2792  0.7333
10681SOL    HW232622   6.390   9.781   0.712  0.0591 -2.0140 -0.0199
10682SOL     OW32623   5.695   8.223   7.252  0.0356  0.1022  0.3645
10682SOL    HW132624   5.667   8.168   7.325  0.2994  1.8399  1.8499
10682SOL    HW232625   5.677   8.312   7.281  2.6641  1.0328 -0.5899
10683SOL     OW32626   1.436   2.542   5.572  0.2008 -0.2049 -0.7818
10683SOL    HW132627   1.415   2.497   5.653 -0.5259  1.0908 -0.2204
10683SOL    HW232628   1.393   2.627   5.580  3.5075  1.6393 -0.6732
10684SOL     OW32629   3.749   1.013   8.778  0.5705  0.4473  0.4074
10684SOL    HW132630   3.708   1.004   8.864  0.0798  0.0643  0.1390
10684SOL    HW232631   3.729   1.103   8.751 -0.1066  0.2577  0.2714
10685SOL     OW32632   0.471   9.811   9.481  0.1133 -0.2474 -0.3047
10685SOL    HW132633   0.513   9.884   9.525 -1.7773  0.8181 -0.1625
10685SOL    HW232634   0.539   9.774   9.424  1.0966  1.6455 -0.4286
10686SOL     OW32635   3.221   6.525   5.754 -0.7565  0.3515 -0.1640
10686SOL    HW132636   3.251   6.435   5.764 -0.8665 -0.0770 -2.9124
10686SOL    HW232637   3.132   6.517   5.719 -0.5311  1.4869 -1.0598
10687SOL     OW32638   6.585   2.790   2.008 -0.0715  0.2498  0.3642
10687SOL    HW132639   6.571   2.784   1.914  0.8122  0.5649  0.2030
10687SOL    HW232640   6.602   2.883   2.024  0.5484  0.0780  0.7191
10688SOL     OW32641   3.451   9.944   0.931 -0.2495  0.3247  0.5755
10688SOL    HW132642   3.441  10.009   1.001  0.2616 -0.4079  1.3345
10688SOL    HW232643   3.545   9.929   0.924 -0.0183  2.1896 -1.9678
10689SOL     OW32644   5.094   0.451   1.636  0.0358  0.5368 -0.2683
10689SOL    HW132645   5.067   0.519   1.698 -0.5249  0.4661 -0.4342
10689SOL    HW232646   5.137   0.385   1.691 -1.3257  0.0090  0.1900
10690SOL     OW32647   0.816   6.815   2.814 -0.0818  0.0114 -0.4468
10690SOL    HW132648   0.760   6.777   2.747  0.3856 -1.3227 -0.1168
10690SOL    HW232649   0.829   6.906   2.786 -0.8115 -0.2065 -1.5488
10691SOL     OW32650   4.864   9.018   3.715 -0.2682  0.8341  0.0749
10691SOL    HW132651   4.896   8.979   3.797  1.3499  2.1745  0.1299
10691SOL    HW232652   4.911   8.970   3.646  0.7701  1.7685  0.0962
10692SOL     OW32653   9.272   2.908   2.753 -0.5756  0.0887 -0.1473
10692SOL    HW132654   9.303   2.859   2.829 -0.5903 -0.0203 -0.2113
10692SOL    HW232655   9.327   2.987   2.751 -1.2606  0.5996  0.5794
10693SOL     OW32656   9.524   7.410   5.046  0.8068  0.4964  0.4031
10693SOL    HW132657   9.533   7.341   5.112 -0.4112 -0.3184 -0.2364
10693SOL    HW232658   9.440   7.452   5.066 -0.0058 -0.3237 -1.0846
10694SOL     OW32659   1.372   6.698   3.667  0.2992  0.7326 -0.2652
10694SOL    HW132660   1.311   6.739   3.606 -1.8077 -0.8577  0.6675
10694SOL    HW232661   1.431   6.647   3.611 -0.5612  0.6031 -1.0761
10695SOL     OW32662   7.640   0.875   8.636 -0.1313 -0.3103  0.2563
10695SOL    HW132663   7.569   0.922   8.681 -0.0604  0.9928 -0.9135
10695SOL    HW232664   7.693   0.838   8.706 -0.6920  0.6419  1.2165
10696SOL     OW32665   0.660   3.472   9.278  0.1895  0.2832  0.2999
10696SOL    HW132666   0.753   3.493   9.268 -0.3364  2.1274 -1.3584
10696SOL    HW232667   0.657   3.412   9.353  2.6586  0.4391  0.6119
10697SOL     OW32668   5.098   9.227   6.477 -0.4118  0.0696 -0.4658
10697SOL    HW132669   5.141   9.312   6.483 -1.0141  0.2874  1.9661
10697SOL    HW232670   5.122   9.193   6.391  0.5777  2.2903 -1.1249
10698SOL     OW32671   1.345   4.725   0.079 -0.1653  0.0748  0.0322
10698SOL    HW132672   1.427   4.680   0.101  0.4550  0.5462 -1.1920
10698SOL    HW232673   1.373   4.814   0.058 -0.8623 -0.0047 -1.3053
10699SOL     OW32674   2.199   5.797   6.964  0.3092 -0.3347  0.4823
10699SOL    HW132675   2.169   5.710   6.988 -0.9674  0.0807  0.4442
10699SOL    HW232676   2.131   5.832   6.907 -0.2884  1.4814  2.1552
10700SOL     OW32677   0.778   1.439   2.095  0.0764 -0.2769  0.0951
10700SOL    HW132678   0.803   1.488   2.173  0.3183  0.0316 -0.1764
10700SOL    HW232679   0.806   1.349   2.113 -0.9950 -0.4763  0.8881
10701SOL     OW32680   0.666   9.470   9.609 -0.6247 -0.0036  0.4234
10701SOL    HW132681   0.658   9.413   9.532 -0.5844  0.0368  0.3890
10701SOL    HW232682   0.696   9.412   9.679  1.0607  0.2616 -0.0146
10702SOL     OW32683   7.044   1.600   8.484 -0.2926  0.3158  0.1335
10702SOL    HW132684   7.050   1.647   8.401 -1.6083  0.4292  0.0872
10702SOL    HW232685   7.116   1.635   8.536  0.2242  0.6279 -0.7604
10703SOL     OW32686   2.758   0.446   6.589  0.5195 -0.0262  0.2939
10703SOL    HW132687   2.790   0.533   6.611 -0.6043  0.1640  1.2472
10703SOL    HW232688   2.666   0.458   6.567  0.7576 -0.7391 -1.2727
10704SOL     OW32689   7.866   1.014   8.225  0.5303 -0.4295 -0.1503
10704SOL    HW132690   7.836   0.946   8.286 -0.1315 -0.2328 -0.2448
10704SOL    HW232691   7.960   1.001   8.219  0.5826 -0.5362  0.8133
10705SOL     OW32692   3.979   4.220   6.946 -0.1935  0.0196 -0.0012
10705SOL    HW132693   3.932   4.193   6.868  1.3294  0.6297 -1.1823
10705SOL    HW232694   4.028   4.142   6.972  0.1576  0.1281 -0.3262
10706SOL     OW32695   2.456   6.345   7.066 -0.4021 -0.2445  0.1843
10706SOL    HW132696   2.401   6.303   7.000  0.3853  1.6611 -1.8354
10706SOL    HW232697   2.415   6.430   7.082  0.3342 -0.0026  0.8845
10707SOL     OW32698   5.770   9.491   0.680  0.8839 -0.2259  0.4297
10707SOL    HW132699   5.702   9.482   0.747  0.2203  1.6433  0.1003
10707SOL    HW232700   5.842   9.534   0.725  0.8675  0.0229  0.2242
10708SOL     OW32701   2.851   0.033   6.572  0.5042  0.6504 -0.8233
10708SOL    HW132702   2.899   0.006   6.494  0.0760  2.4387 -1.7488
10708SOL    HW232703   2.759   0.015   6.551  0.5832 -2.3312  0.7632
10709SOL     OW32704   1.358   5.534   2.234 -0.1598 -0.5431 -0.1157
10709SOL    HW132705   1.270   5.539   2.197 -0.1579  3.4047 -0.0747
10709SOL    HW232706   1.409   5.488   2.167 -2.0945 -2.4712 -0.3582
10710SOL     OW32707   6.341   4.703   9.215 -0.1958 -0.7583  0.6117
10710SOL    HW132708   6.435   4.699   9.194  0.0110 -0.7967  1.5122
10710SOL    HW232709   6.321   4.797   9.214 -0.4892 -0.8053 -0.9651
10711SOL     OW32710   8.833   5.903   3.641 -0.4296 -0.1765  0.5671
10711SOL    HW132711   8.832   5.869   3.551 -0.2024  0.3631  0.3540
10711SOL    HW232712   8.856   5.828   3.695 -1.9977 -0.8474  0.3274
10712SOL     OW32713   1.891   3.291   2.239 -0.4924 -0.0133 -0.9116
10712SOL    HW132714   1.881   3.198   2.258 -0.7597 -0.1141 -1.5275
10712SOL    HW232715   1.803   3.328   2.248 -0.1123  0.5365  1.0826
10713SOL     OW32716   8.764   7.655   9.279 -0.0176 -0.6286 -0.2030
10713SOL    HW132717   8.674   7.688   9.279  0.6537  1.3630 -1.4210
10713SOL    HW232718   8.765   7.588   9.347 -2.0655  0.2871  0.8196
10714SOL     OW32719   7.035   2.304   6.471 -0.1583 -0.3360 -0.1567
10714SOL    HW132720   6.978   2.233   6.501  0.8210 -1.5521 -1.0576
10714SOL    HW232721   7.111   2.259   6.434  0.6530  1.2067 -0.4269
10715SOL     OW32722   2.726   6.192   2.001  0.4701  0.1165  0.4546
10715SOL    HW132723   2.786   6.259   1.970 -1.4941  0.8017 -2.2802
10715SOL    HW232724   2.755   6.112   1.958 -0.0601  0.2811 -0.2266
10716SOL     OW32725   9.932   5.631   7.587  0.1203 -0.6288 -0.5197
10716SOL    HW132726   9.848   5.666   7.617  1.1772  0.7618  0.9283
10716SOL    HW232727   9.980   5.707   7.554  1.6474 -1.0189  0.6975
10717SOL     OW32728   6.481   2.201   6.216 -0.4086  0.7881  0.1292
10717SOL    HW132729   6.427   2.126   6.192 -0.1914  0.4775  0.6121
10717SOL    HW232730   6.513   2.181   6.304  0.1303  1.1711  0.0250
10718SOL     OW32731   1.136   8.641   0.571 -0.1566  0.2831 -0.6377
10718SOL    HW132732   1.126   8.633   0.666 -1.6519  0.6857 -0.7301
10718SOL    HW232733   1.177   8.726   0.557  2.1600 -0.7133 -0.2879
10719SOL     OW32734   9.963   9.007   3.952 -0.0702 -0.0619 -0.5838
10719SOL    HW132735  10.010   9.000   4.035 -0.7180  1.4239 -0.0512
10719SOL    HW232736   9.872   9.019   3.977 -0.0905  1.8607 -1.4267
10720SOL     OW32737   2.472   0.779   7.403 -0.1149  0.6545 -0.1218
10720SOL    HW132738   2.425   0.829   7.470  0.0716 -0.3376  0.7694
10720SOL    HW232739   2.542   0.838   7.374 -0.6144  1.3504  0.0499
10721SOL     OW32740   1.012   3.397   2.359 -0.1556  0.1802 -0.3009
10721SOL    HW132741   0.939   3.446   2.321  0.2157  0.9812 -0.0064
10721SOL    HW232742   1.068   3.464   2.398  1.4519 -0.2467 -1.7242
10722SOL     OW32743   5.878   9.302   7.512 -1.0438  0.0569 -0.1546
10722SOL    HW132744   5.840   9.218   7.538 -0.6032  0.5695  2.3970
10722SOL    HW232745   5.805   9.364   7.517 -1.1375  0.0301 -1.0213
10723SOL     OW32746   6.380   4.388   5.084 -0.7619  0.3183 -0.2098
10723SOL    HW132747   6.388   4.475   5.123 -0.5942 -0.0920  0.7197
10723SOL    HW232748   6.339   4.403   4.999  2.1323  1.6615 -1.5232
10724SOL     OW32749   8.771   8.249   2.812  0.1532 -0.4638 -0.1230
10724SOL    HW132750   8.703   8.205   2.762 -0.7019  0.3631  0.2982
10724SOL    HW232751   8.727   8.281   2.891  1.3380 -1.1858  0.8737
10725SOL     OW32752   6.672   9.336   8.640 -0.3592  0.1372  0.0534
10725SOL    HW132753   6.637   9.312   8.554  2.0298 -2.4527 -0.3281
10725SOL    HW232754   6.738   9.403   8.621 -0.5949  0.3560  0.0060
10726SOL     OW32755   1.632   2.068   0.646  0.2357  0.1782 -0.3665
10726SOL    HW132756   1.635   2.154   0.603  1.4340  0.1783 -0.3225
10726SOL    HW232757   1.689   2.078   0.722  0.4313 -0.6738 -0.3951
10727SOL     OW32758   7.145   4.719   6.643 -0.3014 -0.1132 -0.0443
10727SOL    HW132759   7.098   4.677   6.715  0.4476  0.3205  0.7213
10727SOL    HW232760   7.235   4.726   6.675  1.0861 -3.6279 -2.5950
10728SOL     OW32761   0.963   9.507   0.876  0.0533  0.1532  0.7328
10728SOL    HW132762   0.907   9.510   0.954 -1.4921 -0.6525 -0.2878
10728SOL    HW232763   1.051   9.493   0.910 -0.6566 -0.7837  2.3184
10729SOL     OW32764   4.773   1.518   8.674  0.5406 -0.7939  0.1122
10729SOL    HW132765   4.694   1.471   8.646 -1.4818  1.5912  1.4120
10729SOL    HW232766   4.792   1.483   8.761  0.0003 -0.3679  0.4088
10730SOL     OW32767   7.689   8.025   0.783  0.3915  0.1544  0.1159
10730SOL    HW132768   7.727   8.030   0.696 -1.5085  0.8970 -0.7189
10730SOL    HW232769   7.731   8.096   0.832  0.2103  0.8661 -0.7372
10731SOL     OW32770   1.724   4.502   9.016 -0.9295  0.1465 -0.3816
10731SOL    HW132771   1.801   4.469   9.061  0.2702  2.2786 -0.7359
10731SOL    HW232772   1.664   4.528   9.085 -1.5077 -1.7193 -0.1023
10732SOL     OW32773   8.921   5.225   2.467 -0.5611 -0.2411  0.4601
10732SOL    HW132774   8.988   5.156   2.466 -0.2558  0.0259 -1.1245
10732SOL    HW232775   8.964   5.300   2.506 -0.9355 -0.9524  2.3293
10733SOL     OW32776   1.439   9.851   3.921 -0.4168  0.4504  0.0809
10733SOL    HW132777   1.501   9.862   3.994 -0.5769  1.1151  0.1275
10733SOL    HW232778   1.355   9.879   3.957 -0.2090  2.3698 -0.8038
10734SOL     OW32779   7.830   0.275   8.433 -0.3041  0.1078 -0.1529
10734SOL    HW132780   7.913   0.248   8.393  1.3147 -1.1907  3.6144
10734SOL    HW232781   7.847   0.362   8.468 -0.3542 -0.2970  0.9222
10735SOL     OW32782   5.299   1.971   9.304  0.0077  0.1947 -0.4091
10735SOL    HW132783   5.226   2.033   9.300  0.3533  0.5498 -1.6238
10735SOL    HW232784   5.262   1.889   9.272 -0.5627 -0.3965  1.5944
10736SOL     OW32785   0.550   2.177   3.621 -0.1383 -0.6281 -0.4703
10736SOL    HW132786   0.570   2.270   3.629 -0.2699 -0.5574 -0.9677
10736SOL    HW232787   0.475   2.164   3.680 -0.0511 -0.4400 -0.3183
10737SOL     OW32788   9.878   7.705   3.833 -0.1885  0.2842 -0.6720
10737SOL    HW132789   9.871   7.616   3.867  2.0476  0.4837  0.5316
10737SOL    HW232790   9.789   7.728   3.807 -1.2055 -1.5557  0.9226
10738SOL     OW32791   2.219   1.926   4.999  1.0802  0.3052  0.1102
10738SOL    HW132792   2.273   1.961   5.070 -1.8593  0.6183  2.4404
10738SOL    HW232793   2.252   1.838   4.984  2.5831  0.6895  0.9873
10739SOL     OW32794   9.925   2.138   3.971  0.3486 -0.2596  0.0313
10739SOL    HW132795   9.988   2.193   4.017  0.8486 -0.6507 -0.1803
10739SOL    HW232796   9.857   2.199   3.942  0.2185  0.0474  0.9449
10740SOL     OW32797   4.575   2.971   4.683  0.7322  0.2070  0.5055
10740SOL    HW132798   4.614   3.021   4.755  1.1724  0.7320 -0.0890
10740SOL    HW232799   4.506   3.027   4.650 -0.4214 -0.6296  1.4128
10741SOL     OW32800   1.398   7.248   6.994 -0.3472 -0.7027 -0.6143
10741SOL    HW132801   1.370   7.193   7.067  1.6713 -2.7632 -1.2667
10741SOL    HW232802   1.323   7.251   6.935 -1.0784 -1.2952  0.2643
10742SOL     OW32803   8.244   0.698   9.314  0.1011 -0.4196  0.1614
10742SOL    HW132804   8.238   0.743   9.398  0.6277  0.6073 -0.3291
10742SOL    HW232805   8.153   0.691   9.284 -0.0708 -0.6266  0.7320
10743SOL     OW32806   3.747   9.541   5.912 -0.4921 -0.1633 -0.0358
10743SOL    HW132807   3.776   9.450   5.913 -2.3421 -0.8143 -0.7206
10743SOL    HW232808   3.655   9.537   5.939 -0.1835  1.6995  1.4579
10744SOL     OW32809   4.358   9.578   1.841 -0.1417  0.0265 -0.1707
10744SOL    HW132810   4.416   9.641   1.798  1.1547 -1.3853 -0.5953
10744SOL    HW232811   4.415   9.532   1.903 -1.4251  0.3485  1.3064
10745SOL     OW32812   5.211   2.897   7.113  0.0502  0.9570  0.0396
10745SOL    HW132813   5.302   2.883   7.088  0.4040  1.8257  0.8004
10745SOL    HW232814   5.169   2.812   7.097  1.4396 -0.1126  1.6824
10746SOL     OW32815   4.927   6.965   9.260  0.2739 -0.0846 -0.0030
10746SOL    HW132816   4.839   6.939   9.233  0.2857 -1.9043  1.4717
10746SOL    HW232817   4.933   7.058   9.239 -1.5291 -0.2225 -1.2881
10747SOL     OW32818   7.909   9.090   8.908 -0.1917  0.5115  0.6362
10747SOL    HW132819   7.854   9.063   8.981 -0.5477  1.5724  0.7820
10747SOL    HW232820   7.974   9.020   8.900 -2.4901 -1.6631 -0.6004
10748SOL     OW32821   1.706   8.201   8.434 -0.1292 -0.0096  0.0037
10748SOL    HW132822   1.616   8.219   8.462  0.1308  1.2577  0.0998
10748SOL    HW232823   1.699   8.176   8.342 -0.6648 -0.9137  0.2794
10749SOL     OW32824   3.458   5.937   3.382  0.3344 -0.2131 -0.0125
10749SOL    HW132825   3.520   6.010   3.388 -0.6925  0.8524 -1.5760
10749SOL    HW232826   3.413   5.938   3.467  0.4334  0.9044  0.0485
10750SOL     OW32827   6.493   8.100   2.176 -0.1853  0.0918 -0.4572
10750SOL    HW132828   6.564   8.116   2.238 -0.1963 -0.0952 -0.3944
10750SOL    HW232829   6.441   8.181   2.177  0.5975  0.6127 -1.2712
10751SOL     OW32830   7.627   9.814   4.985  0.1450  0.1656  0.6559
10751SOL    HW132831   7.682   9.886   5.016  0.1862  0.3855  0.0809
10751SOL    HW232832   7.571   9.853   4.918 -0.0098 -0.2798  0.5182
10752SOL     OW32833   8.809   2.470   1.975 -0.6005  0.4533  0.0103
10752SOL    HW132834   8.748   2.419   2.030 -0.3661 -0.5076 -0.6012
10752SOL    HW232835   8.764   2.554   1.963 -0.9814  0.4243  1.0704
10753SOL     OW32836   9.129   0.034   6.549 -0.2706 -0.1849  0.6507
10753SOL    HW132837   9.188   0.075   6.486 -2.3879  0.9815 -0.6393
10753SOL    HW232838   9.083   0.107   6.591 -1.7376 -1.0959  0.6925
10754SOL     OW32839   1.631   9.140   0.500  0.2304 -0.4674 -0.4734
10754SOL    HW132840   1.582   9.179   0.572 -0.0360  1.3873 -1.5821
10754SOL    HW232841   1.717   9.120   0.537  0.5911  1.7945  0.0488
10755SOL     OW32842   4.054   4.664   0.142 -0.1357  0.2793  0.0195
10755SOL    HW132843   4.117   4.623   0.082 -2.0696 -1.4533 -0.9594
10755SOL    HW232844   4.102   4.673   0.224  0.8302 -3.0413 -0.0158
10756SOL     OW32845   4.496   5.774   3.078 -0.0318  0.5882  0.1239
10756SOL    HW132846   4.502   5.866   3.104  0.4916  1.0291 -1.4157
10756SOL    HW232847   4.578   5.758   3.031  1.0514 -1.4113  2.4651
10757SOL     OW32848   1.138   5.820   8.949 -0.3897  0.4246 -0.2423
10757SOL    HW132849   1.204   5.888   8.944 -0.2478  0.3971  0.8736
10757SOL    HW232850   1.104   5.826   9.038 -1.3336 -0.0798 -0.5493
10758SOL     OW32851   7.342   2.049   9.223  0.0955 -0.5434  0.1370
10758SOL    HW132852   7.372   1.972   9.272 -0.3129 -1.4624 -0.9920
10758SOL    HW232853   7.397   2.121   9.254  0.1095 -1.1678  1.6311
10759SOL     OW32854   0.593   7.661   2.852 -0.0575  0.2437  0.1163
10759SOL    HW132855   0.552   7.730   2.905  1.9851  0.4960  1.5327
10759SOL    HW232856   0.646   7.612   2.915  0.6772 -0.9122 -1.3421
10760SOL     OW32857   8.579   0.788   6.330  0.2074  1.0524  0.2048
10760SOL    HW132858   8.500   0.784   6.385  0.1359  2.3679  0.2270
10760SOL    HW232859   8.636   0.720   6.366 -0.7181  0.4046  0.4953
10761SOL     OW32860   4.026   5.372   9.032  0.0512  0.1427  0.1175
10761SOL    HW132861   4.017   5.284   9.067 -0.3034  0.2906  0.4102
10761SOL    HW232862   4.114   5.400   9.059 -0.2813  0.3182  1.0476
10762SOL     OW32863   3.053   2.357   3.282 -0.5085 -0.1479 -0.0347
10762SOL    HW132864   2.984   2.324   3.225 -0.8115 -0.4137  0.4829
10762SOL    HW232865   3.008   2.413   3.345 -0.1376  0.3839 -0.2293
10763SOL     OW32866   6.523   8.902   4.356  0.0864 -0.4376 -0.3019
10763SOL    HW132867   6.547   8.947   4.437  0.6673 -1.8299  0.3241
10763SOL    HW232868   6.478   8.969   4.304 -0.1744  0.5150  1.1020
10764SOL     OW32869   4.298   7.892   2.728 -0.4013 -0.0205 -0.0697
10764SOL    HW132870   4.259   7.823   2.675 -0.2488  0.2111 -0.4884
10764SOL    HW232871   4.353   7.941   2.667 -1.5716  1.3136 -0.1013
10765SOL     OW32872   3.101   3.397   3.461  0.6308 -0.2215 -0.0744
10765SOL    HW132873   3.073   3.451   3.534  1.5003 -2.4146  2.0264
10765SOL    HW232874   3.094   3.454   3.384 -1.2502  1.8870  1.5419
10766SOL     OW32875   8.544   2.606   3.561 -0.0478  0.0507  0.0902
10766SOL    HW132876   8.640   2.609   3.568 -0.1752  2.5502  2.1400
10766SOL    HW232877   8.523   2.667   3.491 -0.1516 -0.6625 -0.5069
10767SOL     OW32878   8.389   8.615   2.430  0.2667 -0.2413 -0.3405
10767SOL    HW132879   8.359   8.664   2.353  0.2239 -2.0783 -1.5395
10767SOL    HW232880   8.444   8.546   2.394 -0.1575 -1.4522  1.2543
10768SOL     OW32881   5.294   4.109   8.136 -0.0184  0.2963 -0.3286
10768SOL    HW132882   5.239   4.166   8.189 -1.1065  0.4638 -1.5878
10768SOL    HW232883   5.233   4.058   8.083  1.0094 -0.2269 -1.0565
10769SOL     OW32884   2.986   1.357   9.312 -0.1845  0.1968  0.1320
10769SOL    HW132885   2.902   1.403   9.315 -0.8518 -0.4359 -3.9148
10769SOL    HW232886   2.979   1.290   9.381 -1.7828  1.9154  1.7566
10770SOL     OW32887   5.458   6.860   3.493 -0.6932 -0.2885  0.4359
10770SOL    HW132888   5.425   6.885   3.579  0.3578  0.2837  0.6913
10770SOL    HW232889   5.552   6.845   3.506 -0.6599 -0.9724 -0.4514
10771SOL     OW32890   4.473   8.985   2.918  0.3540 -0.8270  0.1345
10771SOL    HW132891   4.414   8.941   2.856  0.1498 -0.4719  0.0677
10771SOL    HW232892   4.489   9.070   2.877 -0.3963 -0.2817  0.9287
10772SOL     OW32893   3.038   1.660   4.267 -0.1047 -0.2537  0.0850
10772SOL    HW132894   3.114   1.604   4.282  1.0843  0.9884 -1.0008
10772SOL    HW232895   2.980   1.609   4.211  1.5170 -0.0002 -1.9238
10773SOL     OW32896   2.445   6.950   4.294 -0.4479 -0.6553 -0.4311
10773SOL    HW132897   2.413   6.922   4.379 -0.1740 -1.1995 -0.4982
10773SOL    HW232898   2.463   7.043   4.303 -1.0568 -0.5720 -0.0939
10774SOL     OW32899   3.856   3.715   2.429  0.0485  0.3069 -0.3353
10774SOL    HW132900   3.775   3.706   2.479  0.3064 -0.1666  0.0007
10774SOL    HW232901   3.924   3.686   2.488  0.3310 -0.5689 -1.0730
10775SOL     OW32902   5.101   6.354   1.553  1.0799 -0.0534  1.1119
10775SOL    HW132903   5.091   6.402   1.636 -0.2348  0.3064  0.7669
10775SOL    HW232904   5.116   6.423   1.488 -0.4346 -0.0939  0.6725
10776SOL     OW32905   2.641   5.911   6.161  0.3002  0.1583  0.2966
10776SOL    HW132906   2.731   5.918   6.193  0.2164 -2.4797  1.3928
10776SOL    HW232907   2.593   5.873   6.234 -1.2253 -0.5192 -0.9999
10777SOL     OW32908   1.346   9.893   7.424  0.4271  0.1163 -0.0002
10777SOL    HW132909   1.267   9.879   7.372  1.6274 -2.0359 -1.3910
10777SOL    HW232910   1.386   9.971   7.386 -0.9681  1.2492  0.7420
10778SOL     OW32911   2.440   3.104   0.933 -0.3457 -0.3050  0.1352
10778SOL    HW132912   2.422   3.198   0.935  0.3013 -0.1804  1.1575
10778SOL    HW232913   2.461   3.086   0.842  0.6660  0.7943  0.1228
10779SOL     OW32914   6.377   8.838   2.991  0.0203  0.0052 -0.5574
10779SOL    HW132915   6.331   8.919   2.969 -0.7897 -0.5077 -0.7980
10779SOL    HW232916   6.308   8.773   3.002  0.6555 -0.6490 -0.3174
10780SOL     OW32917   8.512   6.124   4.601  0.1223  0.7444 -0.1534
10780SOL    HW132918   8.505   6.210   4.642  1.6140  1.4623 -1.3049
10780SOL    HW232919   8.566   6.073   4.661  0.8853  1.2561 -0.3905
10781SOL     OW32920   5.127   0.291   1.906 -0.3029 -0.1414 -0.1104
10781SOL    HW132921   5.060   0.302   1.973 -1.1486 -2.2188 -0.5477
10781SOL    HW232922   5.209   0.313   1.950 -1.0259  0.3080  1.0650
10782SOL     OW32923   6.245   3.153   7.944 -0.1124  0.1388 -0.3259
10782SOL    HW132924   6.281   3.067   7.965 -1.0576 -0.0983  0.4336
10782SOL    HW232925   6.267   3.207   8.020 -1.4748 -0.0655  0.2519
10783SOL     OW32926   8.221   5.477   0.164 -0.6582 -0.1095 -0.0355
10783SOL    HW132927   8.254   5.565   0.143  1.8359  0.1603  3.9025
10783SOL    HW232928   8.275   5.418   0.111 -0.9481  0.6399 -1.2003
10784SOL     OW32929   6.895   3.309   6.399 -0.2023  0.6908 -0.1162
10784SOL    HW132930   6.836   3.241   6.431  0.0323 -0.1160 -1.3129
10784SOL    HW232931   6.959   3.321   6.469  0.1191 -0.7926 -0.1236
10785SOL     OW32932   1.892   8.414   2.218  0.1206  0.6345  0.7766
10785SOL    HW132933   1.892   8.348   2.287 -0.2420  1.2538  1.3747
10785SOL    HW232934   1.818   8.391   2.163  1.5711 -1.0604 -0.5979
10786SOL     OW32935   0.407   2.741   1.256  0.0388  0.0297  0.2754
10786SOL    HW132936   0.444   2.652   1.259  0.5225  0.2444  1.6225
10786SOL    HW232937   0.461   2.787   1.192 -0.7618 -0.8583 -1.0792
10787SOL     OW32938   6.124   1.843   6.490 -0.1177  0.2856 -0.3799
10787SOL    HW132939   6.182   1.919   6.491 -0.6504  0.7022 -0.4767
10787SOL    HW232940   6.043   1.874   6.531 -1.2313  0.5357 -2.6096
10788SOL     OW32941   9.922   0.597   2.137 -0.0117 -0.2865 -0.3873
10788SOL    HW132942   9.854   0.534   2.115 -0.0505 -0.3652 -0.0345
10788SOL    HW232943   9.967   0.613   2.054  0.4105 -1.2654 -0.3570
10789SOL     OW32944   6.266   2.748   3.115  0.5341  0.4124  0.1376
10789SOL    HW132945   6.236   2.813   3.178 -0.2694  0.2536 -0.0568
10789SOL    HW232946   6.195   2.743   3.051  0.3556 -0.9780  0.3985
10790SOL     OW32947   4.727   5.957   4.937 -0.1736 -0.0650 -0.4018
10790SOL    HW132948   4.783   6.011   4.993 -0.0157 -0.5202 -0.1120
10790SOL    HW232949   4.664   6.019   4.899 -0.8481  0.1343  0.9729
10791SOL     OW32950   6.543   6.526   4.334 -0.6546 -0.0398  0.3436
10791SOL    HW132951   6.595   6.503   4.257 -1.1101  0.1242 -0.0104
10791SOL    HW232952   6.466   6.469   4.330 -1.6110  1.2520 -0.3332
10792SOL     OW32953   4.034   4.822   4.890 -0.0741 -0.2312 -0.2354
10792SOL    HW132954   3.977   4.803   4.965  1.6814 -0.4043  1.1380
10792SOL    HW232955   3.993   4.778   4.816  0.3599 -3.9739  1.5106
10793SOL     OW32956   5.235   3.289   5.203  0.0018 -0.3115 -0.6070
10793SOL    HW132957   5.276   3.358   5.254  1.0471 -1.3691  0.0564
10793SOL    HW232958   5.307   3.250   5.153 -0.3781 -1.4632 -0.3015
10794SOL     OW32959   0.284   2.322   2.596 -0.0059  0.8201 -0.4596
10794SOL    HW132960   0.312   2.359   2.679 -0.0384 -0.2291  0.0370
10794SOL    HW232961   0.348   2.252   2.579 -1.7129 -0.9633  0.1890
10795SOL     OW32962   7.352   8.063   1.764  0.1289 -0.3464  0.1175
10795SOL    HW132963   7.295   8.060   1.687  1.5166 -0.2592 -0.9525
10795SOL    HW232964   7.409   8.138   1.748 -0.9537  1.0447  2.2946
10796SOL     OW32965   8.594   3.573   6.689 -0.1370  0.2086 -0.3195
10796SOL    HW132966   8.606   3.590   6.596 -1.0102  4.2062  0.1107
10796SOL    HW232967   8.499   3.568   6.700 -0.0391 -0.3015  0.3314
10797SOL     OW32968   3.637   5.828   9.239  0.4023  0.0647  0.1227
10797SOL    HW132969   3.610   5.813   9.330  0.6196  0.2302  0.2130
10797SOL    HW232970   3.706   5.763   9.224  1.5967  1.1788  0.6255
10798SOL     OW32971   1.045   2.152   5.096  0.3270  0.1581 -0.1938
10798SOL    HW132972   1.034   2.219   5.164 -0.5148  0.4090 -0.5569
10798SOL    HW232973   1.125   2.105   5.121  0.4583  0.7459  0.5370
10799SOL     OW32974   5.343   5.339   1.036  0.4425 -0.3719  0.2797
10799SOL    HW132975   5.388   5.422   1.024 -0.4395  0.3465  1.6412
10799SOL    HW232976   5.250   5.362   1.043  0.0277 -1.6269 -0.6764
10800SOL     OW32977   3.717   6.513   8.190  0.3744  0.4630  0.0452
10800SOL    HW132978   3.676   6.597   8.210 -0.9352  0.4196 -2.1023
10800SOL    HW232979   3.684   6.453   8.257  0.5184  1.4109  0.9891
10801SOL     OW32980   7.583   3.019   7.904 -0.0089  0.5799  0.1443
10801SOL    HW132981   7.605   3.049   7.816 -1.3290  0.0858 -0.3760
10801SOL    HW232982   7.582   3.098   7.957  0.9628  0.8605 -0.2296
10802SOL     OW32983   8.377   8.950   2.258  0.7350  0.7310 -0.0894
10802SOL    HW132984   8.315   9.023   2.259  1.3020  1.2154  0.4907
10802SOL    HW232985   8.369   8.913   2.170 -1.2026  0.0664  0.3049
10803SOL     OW32986   0.269   2.017   1.692 -0.5710 -0.1262  0.3901
10803SOL    HW132987   0.248   2.076   1.620 -0.5583 -2.0716 -1.3369
10803SOL    HW232988   0.186   1.977   1.716 -0.2739 -1.0643 -0.0761
10804SOL     OW32989   1.436   6.485   0.083 -0.3415 -0.2134 -0.7609
10804SOL    HW132990   1.428   6.436   0.165  0.0731  0.9326  0.0015
10804SOL    HW232991   1.411   6.423   0.015 -0.3427 -1.3080  0.2020
10805SOL     OW32992   4.822   8.780   7.640 -0.1044  0.8479  0.4960
10805SOL    HW132993   4.912   8.814   7.636 -0.0385  0.8598  1.8996
10805SOL    HW232994   4.819   8.728   7.720 -1.0171 -0.1655 -0.1663
10806SOL     OW32995   0.141   5.725   3.300  0.2013 -0.0982 -0.4044
10806SOL    HW132996   0.118   5.636   3.327 -1.5706  0.6690  0.8363
10806SOL    HW232997   0.167   5.768   3.382 -0.5590  0.9718 -0.7147
10807SOL     OW32998   4.973   8.456   4.606 -0.2823 -0.6948 -0.4147
10807SOL    HW132999   4.912   8.409   4.663  1.6623 -0.9159  1.5725
10807SOL    HW233000   5.024   8.388   4.563  1.9514 -0.5448  1.8116
10808SOL     OW33001   9.053   2.355   8.231  0.3664  0.1554  0.1102
10808SOL    HW133002   9.098   2.354   8.316 -1.5385 -0.3390  1.1665
10808SOL    HW233003   9.124   2.350   8.167  1.7648 -3.1435  1.6905
10809SOL     OW33004   0.734   5.065   8.487 -0.4541 -0.1408 -0.1770
10809SOL    HW133005   0.699   5.026   8.567 -0.6372 -0.6304 -0.4950
10809SOL    HW233006   0.760   5.153   8.513 -1.4374  0.0497  0.1797
10810SOL     OW33007   5.696   1.775   3.045 -0.3350 -0.9377  0.0300
10810SOL    HW133008   5.657   1.735   3.122 -1.0346  0.6988  0.5661
10810SOL    HW233009   5.695   1.707   2.979 -0.8810 -1.9806  1.0909
10811SOL     OW33010   5.123   1.299   1.976 -0.0904 -0.2829  0.0769
10811SOL    HW133011   5.081   1.290   2.062 -0.5753 -1.9638 -0.2991
10811SOL    HW233012   5.063   1.356   1.926 -1.1025 -1.2882  0.0927
10812SOL     OW33013   7.155   1.692   7.032  0.2612  0.3154 -0.0591
10812SOL    HW133014   7.113   1.614   6.996 -0.9182  0.7994  0.2355
10812SOL    HW233015   7.242   1.693   6.990  0.6962 -1.6726  0.6713
10813SOL     OW33016   7.997   2.253   1.478  0.7488 -0.2517 -0.1217
10813SOL    HW133017   7.944   2.331   1.464  1.5024  0.1131 -1.0858
10813SOL    HW233018   8.061   2.278   1.545  1.6696  0.3233 -1.1908
10814SOL     OW33019   8.230   8.238   0.185  0.0004 -0.0615 -0.1144
10814SOL    HW133020   8.248   8.320   0.231 -0.7473 -0.1948  0.4480
10814SOL    HW233021   8.142   8.213   0.215 -1.5710  1.0303 -3.3045
10815SOL     OW33022   1.146   5.256   9.964 -0.0699  0.0595 -0.3446
10815SOL    HW133023   1.063   5.303   9.969 -0.3973 -0.3658 -1.4579
10815SOL    HW233024   1.211   5.324   9.946 -0.4877  0.1619 -1.5735
10816SOL     OW33025   7.504   1.573   2.447 -0.5525 -0.4937  0.3520
10816SOL    HW133026   7.527   1.515   2.375  1.2084  0.0916  0.3850
10816SOL    HW233027   7.543   1.533   2.524  2.6341  1.6603  0.0734
10817SOL     OW33028   8.549   4.622   7.618 -0.3162 -0.1592 -0.0885
10817SOL    HW133029   8.580   4.554   7.559 -0.4285 -0.7402  0.5052
10817SOL    HW233030   8.472   4.659   7.576  0.1798  0.1223 -0.7698
10818SOL     OW33031   5.587   6.173   0.123  0.4176  0.0919  0.3771
10818SOL    HW133032   5.660   6.173   0.185 -0.5257  1.2230  1.5577
10818SOL    HW233033   5.546   6.087   0.134  0.7801 -0.0430  0.7046
10819SOL     OW33034   5.858   7.799   3.495 -0.1298 -0.0483  0.0631
10819SOL    HW133035   5.937   7.755   3.524 -0.5960 -0.1801  1.1963
10819SOL    HW233036   5.887   7.886   3.467  0.8248 -1.0678 -2.3530
10820SOL     OW33037   9.088   9.497   4.071  0.0368  0.1526  0.0147
10820SOL    HW133038   9.047   9.531   4.150  0.0435  0.6213 -0.1795
10820SOL    HW233039   9.061   9.557   4.002 -1.4216 -1.2241 -0.6914
10821SOL     OW33040   3.219   3.566   9.813 -0.1702  0.4017 -0.8867
10821SOL    HW133041   3.127   3.547   9.832 -0.2586  2.1103  0.6078
10821SOL    HW233042   3.217   3.620   9.735 -0.4287  0.3656 -0.9056
10822SOL     OW33043   5.910   4.928   7.477  0.4782 -0.2289 -0.4739
10822SOL    HW133044   5.908   4.863   7.407 -1.4797 -0.5830 -0.1390
10822SOL    HW233045   5.844   4.993   7.451 -0.5356 -0.5535  1.1952
10823SOL     OW33046   8.486   3.277   9.454 -0.1211  0.1068  0.7869
10823SOL    HW133047   8.574   3.295   9.489  0.5857 -0.2369 -0.7547
10823SOL    HW233048   8.481   3.182   9.450 -0.6387  0.1213  1.0289
10824SOL     OW33049   4.686   6.766   2.188 -0.3512  0.2252  0.0652
10824SOL    HW133050   4.696   6.811   2.272 -0.9431  0.5117 -0.0158
10824SOL    HW233051   4.612   6.810   2.146 -0.4728 -0.3478 -0.3253
10825SOL     OW33052   8.469   5.741   5.608  0.6411  0.0706 -0.2520
10825SOL    HW133053   8.490   5.711   5.519  0.3308  0.1719 -0.3607
10825SOL    HW233054   8.481   5.836   5.604 -0.2766  0.1846 -0.4414
10826SOL     OW33055   0.395   3.006   8.328  0.1915  0.1758 -0.2536
10826SOL    HW133056   0.457   3.010   8.255  1.3641 -0.2503  0.6947
10826SOL    HW233057   0.387   2.913   8.348 -0.7285  0.2299 -0.3302
10827SOL     OW33058   4.593   9.505   9.690 -0.0316 -0.3350  0.4031
10827SOL    HW133059   4.595   9.422   9.735 -0.4006  0.3757  1.7765
10827SOL    HW233060   4.611   9.483   9.598 -3.5366 -2.4086 -0.0048
10828SOL     OW33061   6.631   3.647   3.857  0.2977  0.3319  0.7001
10828SOL    HW133062   6.628   3.706   3.932 -0.8024 -0.0814  1.0091
10828SOL    HW233063   6.637   3.705   3.781 -0.8974  0.8744  0.9912
10829SOL     OW33064   2.481   9.186   5.922 -0.2339  0.4676 -0.3804
10829SOL    HW133065   2.465   9.230   6.005  1.0144 -0.5133  0.4025
10829SOL    HW233066   2.457   9.095   5.937  0.1449  0.2481 -1.0557
10830SOL     OW33067   5.332   6.832   1.195  0.1039  0.0814 -0.3233
10830SOL    HW133068   5.397   6.896   1.223  1.6554 -1.9386  0.9593
10830SOL    HW233069   5.252   6.856   1.242  1.2879 -0.2140  1.9652
10831SOL     OW33070   5.334   7.094   1.390 -0.3781 -0.1727 -0.7849
10831SOL    HW133071   5.422   7.112   1.357 -1.4079  4.8068 -1.6108
10831SOL    HW233072   5.336   7.123   1.481 -0.8970 -1.3372 -0.3817
10832SOL     OW33073   1.384   8.426   0.771 -0.6147 -0.1114 -0.6088
10832SOL    HW133074   1.294   8.397   0.784 -0.3439 -0.9124 -0.5055
10832SOL    HW233075   1.422   8.361   0.712  0.2805 -0.5349  0.4015
10833SOL     OW33076   4.695   0.933   9.271  0.2545  0.0116  0.0012
10833SOL    HW133077   4.612   0.972   9.300 -0.8037 -1.4290 -0.9584
10833SOL    HW233078   4.706   0.964   9.181 -0.3247 -1.4038 -0.5838
10834SOL     OW33079   0.197   9.433   5.234 -0.3967  0.1901  0.0603
10834SOL    HW133080   0.209   9.371   5.162 -0.9795  0.2477 -0.0902
10834SOL    HW233081   0.105   9.425   5.258  0.2849 -1.6851  2.5114
10835SOL     OW33082   6.418   4.434   6.476 -0.7053 -0.0588  0.4937
10835SOL    HW133083   6.353   4.466   6.539 -3.9116 -2.1229 -1.4680
10835SOL    HW233084   6.401   4.485   6.397  1.7921  0.9768  0.5293
10836SOL     OW33085   5.867   8.093   8.366  0.7166  0.5434 -0.2690
10836SOL    HW133086   5.940   8.152   8.346  0.9422  0.5015  0.4011
10836SOL    HW233087   5.810   8.143   8.424  0.4415  0.4158 -0.4252
10837SOL     OW33088   0.286   7.432   2.617 -0.4764 -0.3430 -0.8495
10837SOL    HW133089   0.236   7.405   2.540 -0.5370 -1.0158 -0.5761
10837SOL    HW233090   0.258   7.372   2.686  0.0114 -0.1139 -0.4485
10838SOL     OW33091   7.418   0.671   7.867  0.7791 -0.5328  0.3346
10838SOL    HW133092   7.357   0.725   7.817  1.8793  0.1683 -0.2985
10838SOL    HW233093   7.364   0.629   7.934 -0.4886 -0.4008 -0.5693
10839SOL     OW33094   5.319   4.153   7.433  0.1717 -0.1811 -1.0485
10839SOL    HW133095   5.320   4.218   7.504 -0.5792  0.3073 -1.4722
10839SOL    HW233096   5.240   4.102   7.449  0.7554 -0.9914 -0.7253
10840SOL     OW33097   6.463   2.684   1.741  0.7364  0.4543  0.3655
10840SOL    HW133098   6.387   2.676   1.798  2.0930 -1.6020  2.0307
10840SOL    HW233099   6.435   2.643   1.658 -0.2372  0.5385  0.6391
10841SOL     OW33100   7.644   7.177   6.802  0.2588 -0.1108 -0.0130
10841SOL    HW133101   7.637   7.231   6.880  0.7186 -1.0981  0.7361
10841SOL    HW233102   7.639   7.239   6.729 -3.5068  0.5518  0.6212
10842SOL     OW33103   7.887   5.920   2.139  0.0299 -0.2579 -0.1104
10842SOL    HW133104   7.883   5.853   2.070 -0.5126 -0.2446 -0.0911
10842SOL    HW233105   7.829   5.887   2.208 -0.0711  0.1323 -0.0089
10843SOL     OW33106   7.638   2.147   9.482 -0.2378  0.6569 -0.0585
10843SOL    HW133107   7.644   2.052   9.491 -2.1393  0.6388  2.1093
10843SOL    HW233108   7.560   2.170   9.533  1.2706  3.5746  1.1445
10844SOL     OW33109   7.323   1.124   5.501  0.1956 -0.7504  0.4997
10844SOL    HW133110   7.240   1.122   5.550 -0.7309 -1.0707 -1.0148
10844SOL    HW233111   7.296   1.118   5.410  1.8607  0.1425 -0.0802
10845SOL     OW33112   1.365   6.739   4.934  0.0443 -0.0386  0.1375
10845SOL    HW133113   1.374   6.708   5.024  3.0725 -0.7936 -0.3315
10845SOL    HW233114   1.353   6.659   4.882  0.6565  0.1925 -0.3650
10846SOL     OW33115   1.549   5.024   8.736 -0.1287  0.3517  0.5263
10846SOL    HW133116   1.534   5.116   8.716 -1.7128 -0.0611 -0.3706
10846SOL    HW233117   1.518   5.014   8.826  0.1419  0.7082  0.6609
10847SOL     OW33118   8.845   5.004   7.277  0.0187  0.4155 -0.2782
10847SOL    HW133119   8.779   5.057   7.322  1.9458  1.2849  1.7338
10847SOL    HW233120   8.861   5.050   7.195 -0.8784  0.9695 -0.1593
10848SOL     OW33121   0.178   8.532   3.662 -0.5282 -0.1320  0.3178
10848SOL    HW133122   0.124   8.506   3.587 -0.2331 -1.6369  0.5883
10848SOL    HW233123   0.145   8.478   3.734 -0.2377  0.6762  1.0609
10849SOL     OW33124   8.839   0.139   5.931  0.3109  0.2877  0.3252
10849SOL    HW133125   8.761   0.193   5.942  0.9696  1.1733  0.7588
10849SOL    HW233126   8.812   0.051   5.956 -0.2780  0.7914  1.5043
10850SOL     OW33127   6.439   8.294   5.092  0.5668  0.3353 -0.6275
10850SOL    HW133128   6.481   8.242   5.024  0.9066  0.5322 -0.5741
10850SOL    HW233129   6.512   8.333   5.141  0.3392 -0.1526  0.1205
10851SOL     OW33130   7.832   9.561   1.660  0.7778  0.7514 -0.5309
10851SOL    HW133131   7.838   9.479   1.709  2.2669  0.7966 -0.5937
10851SOL    HW233132   7.747   9.598   1.685  0.2717 -0.5855 -0.1727
10852SOL     OW33133   1.262   3.592   5.431  0.0335  0.0668  0.6619
10852SOL    HW133134   1.181   3.639   5.452  0.1766 -0.8940  3.9968
10852SOL    HW233135   1.329   3.660   5.429 -0.4109  0.5226  1.0358
10853SOL     OW33136   6.984   0.000   0.045 -0.1252  0.1282 -0.1064
10853SOL    HW133137   7.042   0.076   0.035 -0.1369  0.2066  0.4054
10853SOL    HW233138   6.897   0.034   0.022 -0.1279  0.2707  0.1026
10854SOL     OW33139   1.930   5.762   0.100  0.3937  0.2868 -0.6652
10854SOL    HW133140   1.854   5.814   0.073  1.0542  0.5388 -2.1604
10854SOL    HW233141   2.004   5.806   0.059  1.7237  1.4631  2.6821
10855SOL     OW33142   3.928   9.059   6.698 -0.4970  0.5024  0.0461
10855SOL    HW133143   3.899   8.996   6.631  0.0417  1.3800 -1.0508
10855SOL    HW233144   3.913   9.145   6.658  2.5741  1.0313 -0.2027
10856SOL     OW33145   3.301   5.797   9.445  0.2736  0.1194 -0.2216
10856SOL    HW133146   3.362   5.735   9.483 -0.2365 -1.7956 -2.2863
10856SOL    HW233147   3.228   5.800   9.506  0.8250 -0.4320  0.4789
10857SOL     OW33148   8.113   4.641   4.376  0.8274 -1.2160 -0.2403
10857SOL    HW133149   8.032   4.688   4.359  0.9793 -0.4236  1.0946
10857SOL    HW233150   8.177   4.678   4.315  0.7129 -0.3094  0.1734
10858SOL     OW33151   5.700   0.778   8.778 -0.1556 -0.0166  0.0660
10858SOL    HW133152   5.768   0.825   8.826  0.8715 -0.4046 -0.9771
10858SOL    HW233153   5.618   0.822   8.803  0.6392  1.5064  0.0666
10859SOL     OW33154   0.261   0.737   6.299  0.3883 -0.0271  0.2383
10859SOL    HW133155   0.275   0.662   6.357 -1.5766 -0.1254  0.6658
10859SOL    HW233156   0.228   0.805   6.357  2.3395  1.3027 -0.1052
10860SOL     OW33157   2.986   1.359   3.877  0.3755  0.1181  0.0484
10860SOL    HW133158   3.001   1.282   3.822  0.1489  0.1816 -0.1064
10860SOL    HW233159   3.001   1.433   3.819 -1.6984  0.2001 -0.4867
10861SOL     OW33160   7.034   5.214   0.994  0.2065  0.4107  0.0461
10861SOL    HW133161   7.004   5.162   1.068 -2.1827  0.6974 -0.6429
10861SOL    HW233162   7.051   5.151   0.925  0.5780  0.3040  0.2303
10862SOL     OW33163   0.527   3.810   5.219  0.1213 -0.6135 -0.0320
10862SOL    HW133164   0.562   3.798   5.131  0.1894 -1.8853  0.1598
10862SOL    HW233165   0.590   3.769   5.277 -0.6134 -1.0256  0.4963
10863SOL     OW33166   3.525   1.793   1.647  0.4326 -0.0948  0.2624
10863SOL    HW133167   3.521   1.795   1.743 -0.3294  1.4942  0.2358
10863SOL    HW233168   3.458   1.729   1.622  0.1745 -0.0315  0.7753
10864SOL     OW33169   9.610   8.430   5.287 -0.0062  0.3684 -0.2844
10864SOL    HW133170   9.687   8.412   5.340 -0.0053  3.5092  0.9814
10864SOL    HW233171   9.538   8.440   5.350 -0.9728 -0.1718 -1.2511
10865SOL     OW33172   2.667   1.347   0.580 -0.0699 -0.5385 -0.3318
10865SOL    HW133173   2.636   1.302   0.658 -2.3425  0.8474 -0.3698
10865SOL    HW233174   2.736   1.405   0.612 -0.9997  0.0462  0.6777
10866SOL     OW33175   9.706   2.362   8.443 -0.2932  0.3074 -0.5698
10866SOL    HW133176   9.754   2.398   8.518 -0.5996 -0.1942 -0.1255
10866SOL    HW233177   9.767   2.371   8.369  0.7885 -0.9632  0.1224
10867SOL     OW33178   9.000   8.432   9.698  0.0898  0.0653 -0.1655
10867SOL    HW133179   8.949   8.352   9.704 -0.5462  0.4990  0.2665
10867SOL    HW233180   9.087   8.408   9.731 -0.0210 -0.5089 -0.2932
10868SOL     OW33181   0.798   8.270   5.215 -0.1154  0.0691  0.0925
10868SOL    HW133182   0.793   8.260   5.310  1.4841  0.0279  0.1923
10868SOL    HW233183   0.868   8.333   5.201  0.4056 -0.7395 -1.0983
10869SOL     OW33184   1.471   9.222   2.186  0.0628  0.1555  0.2395
10869SOL    HW133185   1.509   9.275   2.117  2.0132  1.7821  2.4279
10869SOL    HW233186   1.543   9.168   2.218 -1.3247 -2.2392 -0.3540
10870SOL     OW33187   6.294   7.020  -0.015 -0.3440  0.2574  0.5247
10870SOL    HW133188   6.326   6.930  -0.017  1.3971  0.8487 -0.6618
10870SOL    HW233189   6.224   7.019   0.051  0.8850 -1.5406  1.9244
10871SOL     OW33190   4.701   5.297   2.801  0.3207  0.2184 -0.4490
10871SOL    HW133191   4.757   5.220   2.813  0.9675  0.5052 -1.4701
10871SOL    HW233192   4.752   5.355   2.744 -0.2725  1.2845  0.0815
10872SOL     OW33193   1.577   9.417   0.803 -0.0736  0.9438 -0.5044
10872SOL    HW133194   1.625   9.401   0.885  2.0496  0.7853 -1.6973
10872SOL    HW233195   1.570   9.512   0.797 -1.3302  0.9328  0.4176
10873SOL     OW33196   2.686   6.293   9.952  0.1977  0.1541  0.0123
10873SOL    HW133197   2.651   6.274  10.039  1.2154 -1.1159  0.1721
10873SOL    HW233198   2.632   6.242   9.892 -1.0941  1.7272 -0.2492
10874SOL     OW33199   9.903   2.946   7.141  0.2743  0.3091  0.3801
10874SOL    HW133200   9.941   2.963   7.055  0.2213  0.5226  0.3995
10874SOL    HW233201   9.843   3.019   7.156 -1.5117 -0.9279 -0.4391
10875SOL     OW33202   6.258   0.409   8.981 -0.0043  0.3252  0.2928
10875SOL    HW133203   6.248   0.315   8.996  0.6317  0.2238  0.0845
10875SOL    HW233204   6.189   0.430   8.917  0.0816 -0.0743  0.0641
10876SOL     OW33205   8.725   5.415   9.619  0.7762 -0.3550 -0.5027
10876SOL    HW133206   8.722   5.436   9.525 -2.0442 -0.8790 -0.6279
10876SOL    HW233207   8.684   5.329   9.625 -2.7011  1.2327  1.4706
10877SOL     OW33208   8.044   6.275   2.092 -0.0432 -0.2945  0.0620
10877SOL    HW133209   8.023   6.214   2.022  0.9027 -0.5550 -0.0045
10877SOL    HW233210   8.000   6.240   2.169 -0.3570 -0.4873 -0.2045
10878SOL     OW33211   1.502   4.667   2.809  0.2660  0.0566 -0.1669
10878SOL    HW133212   1.561   4.736   2.842  0.4994 -0.0919 -0.2702
10878SOL    HW233213   1.561   4.596   2.783  0.3306  1.1215 -3.3004
10879SOL     OW33214   7.055   2.923   3.020  0.3749  0.2339 -0.0185
10879SOL    HW133215   6.973   2.966   2.995 -0.0961 -0.0395  1.0233
10879SOL    HW233216   7.042   2.832   2.995  1.0535  0.4890 -1.4517
10880SOL     OW33217   7.461   3.705   7.409  0.1142  0.3043 -0.5467
10880SOL    HW133218   7.490   3.690   7.319 -0.3683 -1.9538 -0.3792
10880SOL    HW233219   7.437   3.798   7.411 -0.3977  0.2902 -2.8961
10881SOL     OW33220   2.059   2.914   8.624 -0.4335 -0.0483 -0.3016
10881SOL    HW133221   2.153   2.917   8.605 -0.4608  1.9376 -0.3411
10881SOL    HW233222   2.050   2.955   8.710 -1.3082  0.4418 -0.6063
10882SOL     OW33223   6.339   7.121   1.510  0.1646  0.0668 -0.1410
10882SOL    HW133224   6.343   7.201   1.563 -1.3777 -0.2672  0.5066
10882SOL    HW233225   6.266   7.135   1.450 -0.6745 -1.1908  0.5555
10883SOL     OW33226   6.876   9.361   2.433 -0.6698  0.6259  0.4454
10883SOL    HW133227   6.814   9.381   2.363  0.9815  1.9510 -0.7368
10883SOL    HW233228   6.890   9.267   2.427 -0.7858  0.6713 -0.8183
10884SOL     OW33229   6.013   3.516   7.753 -0.1643 -0.4239  0.1875
10884SOL    HW133230   5.928   3.472   7.759 -0.7373  0.6405  0.1610
10884SOL    HW233231   6.013   3.557   7.666  0.4264 -0.5074  0.1430
10885SOL     OW33232   8.048   6.796   2.087 -0.0785  0.4965  0.2179
10885SOL    HW133233   8.001   6.721   2.123 -3.2239  1.5012 -1.4191
10885SOL    HW233234   8.105   6.758   2.020 -2.1003 -0.4975 -1.0538
10886SOL     OW33235   4.084   4.625   0.931  0.0140  0.4722  0.2841
10886SOL    HW133236   4.139   4.555   0.896 -0.8582  0.7173 -1.7107
10886SOL    HW233237   4.039   4.585   1.004  1.2584 -0.3483  0.6453
10887SOL     OW33238   0.979   8.077   5.557 -0.1260  0.3390  0.4318
10887SOL    HW133239   0.939   7.990   5.547  0.0888  0.3840 -1.1874
10887SOL    HW233240   1.073   8.060   5.556 -0.0889  0.5202  0.9251
10888SOL     OW33241   8.529   1.884   3.669 -0.2908 -0.4666  0.2252
10888SOL    HW133242   8.568   1.968   3.691 -1.5231  0.5199 -1.2082
10888SOL    HW233243   8.479   1.900   3.589 -2.2628 -2.0325  1.0456
10889SOL     OW33244   9.023   5.175   9.558 -0.5194  0.2510 -0.0503
10889SOL    HW133245   9.031   5.193   9.464 -1.2619  1.4558  0.0958
10889SOL    HW233246   8.964   5.100   9.562  0.6092 -0.6949 -0.5831
10890SOL     OW33247   2.495   4.729   8.301 -0.0642 -0.8587  0.2027
10890SOL    HW133248   2.497   4.634   8.311  1.2689 -1.1156 -1.8847
10890SOL    HW233249   2.588   4.755   8.299 -0.3621  0.2387 -0.8719
10891SOL     OW33250   5.972   9.486   9.448  0.9753 -0.0298  0.1319
10891SOL    HW133251   5.938   9.526   9.368  0.9584  1.0064  0.6395
10891SOL    HW233252   5.901   9.496   9.512  2.2948  2.5614  1.3368
10892SOL     OW33253   8.747   1.841   7.488  0.2121  0.5374 -0.2090
10892SOL    HW133254   8.706   1.897   7.554 -1.6199 -0.2447 -0.6393
10892SOL    HW233255   8.691   1.850   7.411  0.8377 -0.6051 -0.8170
10893SOL     OW33256   4.882   8.450   3.993 -0.1830 -0.2625  0.1608
10893SOL    HW133257   4.834   8.451   4.076  0.3587 -1.7136  0.5158
10893SOL    HW233258   4.847   8.526   3.945  0.1556  1.1884  2.0549
10894SOL     OW33259   1.979   8.133   8.734 -0.1788 -0.5743 -0.5584
10894SOL    HW133260   2.057   8.100   8.779 -0.2712  0.6077  0.5214
10894SOL    HW233261   1.925   8.055   8.718  1.4851 -1.5204 -1.9328
10895SOL     OW33262   4.645   2.281   9.801 -0.3315 -0.6292 -0.2710
10895SOL    HW133263   4.682   2.195   9.819  3.2975  0.8482  0.4083
10895SOL    HW233264   4.624   2.280   9.708  2.0372 -1.5677 -0.8660
10896SOL     OW33265   3.516   9.425   6.472  0.0127  0.1864  0.6052
10896SOL    HW133266   3.600   9.444   6.431 -0.6670 -0.2710 -1.0744
10896SOL    HW233267   3.494   9.504   6.521  1.4396  0.2759  1.1461
10897SOL     OW33268   4.460   5.463   5.783 -0.6870 -0.0459 -0.2503
10897SOL    HW133269   4.544   5.440   5.823 -1.4458 -0.0680  1.4090
10897SOL    HW233270   4.446   5.396   5.716  0.1161 -0.6713  0.1993
10898SOL     OW33271   3.179   4.261   4.585 -0.7130 -0.1535 -0.0249
10898SOL    HW133272   3.087   4.237   4.582 -0.8898  0.3178  1.1030
10898SOL    HW233273   3.195   4.284   4.677  0.7483 -1.1028  0.0082
10899SOL     OW33274   2.162   0.315   0.420  0.3472  0.1951  0.4739
10899SOL    HW133275   2.081   0.283   0.461 -0.1675  1.1171  0.1932
10899SOL    HW233276   2.221   0.332   0.494  0.9657 -2.1644  0.6123
10900SOL     OW33277   4.997   3.683   9.855  0.0985  0.6457  0.3703
10900SOL    HW133278   5.049   3.705   9.778  0.6114  0.4279  0.6472
10900SOL    HW233279   4.906   3.685   9.825  0.3915 -2.2145 -0.9913
10901SOL     OW33280   8.333   3.752   0.213  0.2111 -0.1225  0.0734
10901SOL    HW133281   8.388   3.771   0.289 -0.7590 -0.8251  0.9651
10901SOL    HW233282   8.244   3.749   0.247 -0.7155  3.0877 -1.6822
10902SOL     OW33283   8.958   7.903   7.561  0.0840 -0.3158  0.0337
10902SOL    HW133284   8.962   7.939   7.649 -0.0907  1.1856 -0.5362
10902SOL    HW233285   9.028   7.837   7.559  0.1367 -0.3182  1.2593
10903SOL     OW33286   0.811   1.067   5.347 -0.0117 -0.2703 -0.6647
10903SOL    HW133287   0.738   1.125   5.325  0.6333  0.0008 -2.2024
10903SOL    HW233288   0.888   1.124   5.349  0.5958 -0.9869 -1.9673
10904SOL     OW33289   9.704   5.912   6.724 -0.1715  0.3858 -0.7315
10904SOL    HW133290   9.616   5.932   6.758  0.7959  1.1840  1.4917
10904SOL    HW233291   9.714   5.970   6.649 -1.2187  0.9844 -0.4307
10905SOL     OW33292   6.042   0.859   1.176  0.0272 -0.4801 -0.4020
10905SOL    HW133293   6.023   0.836   1.085 -0.6050  1.9659 -0.9585
10905SOL    HW233294   5.981   0.930   1.196  0.8236 -0.2994  1.6301
10906SOL     OW33295   4.552   6.183   7.860 -0.0009  0.2931 -0.4706
10906SOL    HW133296   4.498   6.178   7.939 -0.3865 -0.3174 -0.7654
10906SOL    HW233297   4.506   6.246   7.804 -1.6735 -1.8356 -1.6394
10907SOL     OW33298   5.724   4.001   2.970  0.2261 -0.5785  0.0086
10907SOL    HW133299   5.648   4.045   2.932 -0.4365 -1.7118 -0.0283
10907SOL    HW233300   5.698   3.982   3.060  1.0904  0.4590  0.4903
10908SOL     OW33301   9.542   4.657   5.758 -0.6835  0.4541 -0.0292
10908SOL    HW133302   9.472   4.592   5.758 -0.3014  0.0319 -1.2092
10908SOL    HW233303   9.510   4.725   5.817 -1.7488 -0.0979  0.0572
10909SOL     OW33304   3.269   8.304   7.969  0.5498  0.1138 -0.5346
10909SOL    HW133305   3.290   8.389   8.005 -0.0171 -0.6037  1.6251
10909SOL    HW233306   3.351   8.254   7.975  0.2705 -0.2448  0.5681
10910SOL     OW33307   6.863   7.457   1.644 -0.1925  0.1179  0.5669
10910SOL    HW133308   6.939   7.513   1.626  0.0487 -0.7211 -1.1702
10910SOL    HW233309   6.901   7.373   1.671 -0.5513  0.6519  2.9846
10911SOL     OW33310   0.285   6.854   9.265 -0.3801  0.3736 -0.1110
10911SOL    HW133311   0.289   6.767   9.303  1.2103  1.0570  1.4151
10911SOL    HW233312   0.371   6.866   9.223 -0.3700  1.3951  0.1660
10912SOL     OW33313   7.100   2.870   4.208  0.2868 -0.5280 -0.5904
10912SOL    HW133314   7.106   2.852   4.114  1.1249 -0.1861 -0.6089
10912SOL    HW233315   7.099   2.965   4.214  0.4462 -0.5476 -0.2420
10913SOL     OW33316   8.507   5.637   0.816  0.1723  0.0964  0.0532
10913SOL    HW133317   8.540   5.547   0.821 -0.4949 -0.2105 -0.7786
10913SOL    HW233318   8.431   5.638   0.873  1.7474  0.9168  2.3104
10914SOL     OW33319   9.379   7.178   3.460 -0.0120  0.1584  0.1922
10914SOL    HW133320   9.469   7.178   3.427 -0.2471 -2.7662 -0.7614
10914SOL    HW233321   9.388   7.197   3.553  1.3744  1.7258 -0.2094
10915SOL     OW33322   1.111   6.495   9.675  0.0219  0.0110  0.0083
10915SOL    HW133323   1.028   6.541   9.687  0.9983  1.6028  0.9302
10915SOL    HW233324   1.125   6.448   9.757  0.7141  0.9093  0.4153
10916SOL     OW33325   5.965   8.210   2.726 -0.1354 -0.1973 -0.1812
10916SOL    HW133326   6.004   8.213   2.638 -2.7800  0.2556 -1.4451
10916SOL    HW233327   5.907   8.286   2.728 -1.4575 -1.1928  1.2992
10917SOL     OW33328   7.691   8.306   1.120  0.5757  0.1974 -0.3416
10917SOL    HW133329   7.611   8.255   1.133 -0.3068  1.1498 -1.6904
10917SOL    HW233330   7.717   8.333   1.208 -0.8216  0.1663  0.1085
10918SOL     OW33331   3.803   0.984   5.677 -0.0441  1.0662  0.0638
10918SOL    HW133332   3.763   0.910   5.724  0.9782  1.6820  2.0236
10918SOL    HW233333   3.881   0.946   5.636  0.8549  1.1377  1.6278
10919SOL     OW33334   7.303   3.335   7.924  0.5707 -0.0357  0.0815
10919SOL    HW133335   7.352   3.408   7.961  0.9586 -0.8334  1.2063
10919SOL    HW233336   7.370   3.274   7.894  0.2506  0.2311 -1.2175
10920SOL     OW33337   3.655   9.592   3.918 -0.2543  0.5532 -0.1965
10920SOL    HW133338   3.577   9.537   3.929 -0.9196  1.3609 -0.7226
10920SOL    HW233339   3.654   9.616   3.825 -0.4431  2.1098  0.1815
10921SOL     OW33340   2.949   3.526   9.829 -0.5179  0.0567  0.6568
10921SOL    HW133341   2.903   3.530   9.745  0.6037  0.0554  0.0181
10921SOL    HW233342   2.880   3.535   9.895 -1.1776  2.4370 -0.2824
10922SOL     OW33343   2.273   7.870   4.644  0.4400 -0.3855 -0.8743
10922SOL    HW133344   2.214   7.821   4.586 -1.4707  1.3463 -0.4902
10922SOL    HW233345   2.232   7.955   4.654  1.4965 -0.0949  1.8037
10923SOL     OW33346   9.264   2.704   9.758  0.3726  0.4848 -0.1626
10923SOL    HW133347   9.360   2.696   9.751  0.7156  0.1858  3.0725
10923SOL    HW233348   9.250   2.795   9.787 -0.4409  0.8314 -1.5886
10924SOL     OW33349   3.313   3.622   4.070  0.2485  0.3528  0.3611
10924SOL    HW133350   3.231   3.594   4.111 -0.1713 -1.1271 -1.3846
10924SOL    HW233351   3.290   3.640   3.979  2.3143 -3.0888 -1.0210
10925SOL     OW33352   3.965   0.315   8.463  0.2313 -0.6466 -0.3159
10925SOL    HW133353   3.939   0.241   8.517 -1.9274 -0.9823 -1.6924
10925SOL    HW233354   3.887   0.335   8.410  1.1258  1.8424 -0.8365
10926SOL     OW33355   7.015   6.066   7.393 -0.5164 -0.4859 -0.5528
10926SOL    HW133356   7.102   6.094   7.362  0.4372 -1.4394  1.0996
10926SOL    HW233357   7.007   6.106   7.479 -1.2125 -1.3511 -0.2033
10927SOL     OW33358   0.934   7.454   8.614  0.8914 -0.3678 -0.2394
10927SOL    HW133359   0.901   7.490   8.696  0.6507  1.3303 -1.0338
10927SOL    HW233360   0.864   7.397   8.582  0.9474 -0.9543  0.6663
10928SOL     OW33361   9.562   2.786   9.002 -0.3455 -0.2011  0.1772
10928SOL    HW133362   9.584   2.704   9.047  0.3063 -0.2119 -0.1496
10928SOL    HW233363   9.641   2.839   9.007 -0.4172 -0.0088 -0.5189
10929SOL     OW33364   0.191   5.420   0.451  0.1132 -0.0391  0.3922
10929SOL    HW133365   0.167   5.508   0.423  0.5205  0.0740  0.3890
10929SOL    HW233366   0.266   5.433   0.509  0.5635 -0.4240 -0.0838
10930SOL     OW33367   5.699   9.232   3.620  0.0733  0.3617 -0.2857
10930SOL    HW133368   5.760   9.295   3.658  0.6274 -1.2343  1.6416
10930SOL    HW233369   5.650   9.198   3.695  2.3088 -4.1143 -0.5203
10931SOL     OW33370   3.131   4.334   5.153 -0.0063  0.6460  0.1577
10931SOL    HW133371   3.094   4.251   5.185  1.8559 -0.0783  0.5760
10931SOL    HW233372   3.069   4.401   5.182 -1.0421 -0.5069  0.6977
10932SOL     OW33373   6.943   5.428   5.700 -0.0974  0.0814 -0.1941
10932SOL    HW133374   6.856   5.395   5.721 -0.1510  0.7362  0.6570
10932SOL    HW233375   7.002   5.359   5.731 -0.2171  0.6348  1.3460
10933SOL     OW33376   5.726   9.318   4.099  0.0451  0.1650  0.2557
10933SOL    HW133377   5.681   9.388   4.146  0.4709  2.4151 -2.3593
10933SOL    HW233378   5.656   9.265   4.061 -0.3202  0.3808  0.6301
10934SOL     OW33379   0.817   1.857   9.819 -0.1151 -0.1069  0.6299
10934SOL    HW133380   0.766   1.777   9.829  1.1274 -0.7944  1.8993
10934SOL    HW233381   0.907   1.827   9.806  0.3777  1.0653  1.1338
10935SOL     OW33382   0.822   0.165   7.494 -0.5542  0.3158 -0.2421
10935SOL    HW133383   0.727   0.158   7.509 -0.5435  0.9557  0.1980
10935SOL    HW233384   0.848   0.241   7.546  0.0398  0.7270 -1.1323
10936SOL     OW33385   0.726   0.071   2.593  0.6634 -0.0676 -0.2798
10936SOL    HW133386   0.786   0.004   2.560 -0.0837 -0.5975 -0.6130
10936SOL    HW233387   0.679   0.101   2.515  0.4372  0.2770 -0.0151
10937SOL     OW33388   4.481   5.920   0.424 -0.3076 -0.1872 -0.8430
10937SOL    HW133389   4.559   5.918   0.480 -1.2994  3.1652  0.9643
10937SOL    HW233390   4.516   5.921   0.335  1.7487  0.7164 -0.0982
10938SOL     OW33391   0.741   6.921   4.583 -0.5926  0.5310  0.5193
10938SOL    HW133392   0.834   6.929   4.602 -0.9503  1.9524  1.9147
10938SOL    HW233393   0.717   7.006   4.546 -1.5231  0.5474  1.1331
10939SOL     OW33394   1.527   4.276   7.030 -0.3884 -0.2816  0.1415
10939SOL    HW133395   1.603   4.235   6.988  1.6762  2.4086  0.8922
10939SOL    HW233396   1.488   4.330   6.961 -1.4993 -1.4574 -0.1708
10940SOL     OW33397   8.068   3.735   0.876 -0.1244  0.3673  0.2632
10940SOL    HW133398   8.030   3.711   0.961  0.3552 -0.1239  0.3472
10940SOL    HW233399   8.122   3.812   0.896 -0.9405  0.9770  0.1698
10941SOL     OW33400   9.489   7.791   6.712 -0.1837 -0.1489  0.7146
10941SOL    HW133401   9.435   7.843   6.653 -0.2457 -0.4388  0.5137
10941SOL    HW233402   9.449   7.803   6.798  0.7262  1.3987  0.9553
10942SOL     OW33403   1.359   5.040   6.614  0.2548  0.2199  0.3836
10942SOL    HW133404   1.287   5.102   6.625 -0.7149 -0.5254 -1.3032
10942SOL    HW233405   1.357   5.018   6.521  4.1267  1.8980 -0.2808
10943SOL     OW33406   7.813   1.700   8.382  0.3007 -0.2687  0.3380
10943SOL    HW133407   7.867   1.658   8.315 -0.3561 -1.3601  0.4532
10943SOL    HW233408   7.855   1.784   8.399  1.1789 -0.5175 -0.5413
10944SOL     OW33409   3.692   7.295   1.686 -0.0638  0.1237  0.5751
10944SOL    HW133410   3.758   7.360   1.663  0.8889 -0.7280  0.7919
10944SOL    HW233411   3.609   7.340   1.675  0.5327  1.1111 -0.1082
10945SOL     OW33412   2.240   9.024   0.650  0.1060  0.4377 -0.1643
10945SOL    HW133413   2.336   9.018   0.656  0.1674  2.2313  2.4016
10945SOL    HW233414   2.212   8.934   0.634  2.2237  0.0640 -2.5525
10946SOL     OW33415   6.723   6.323   2.001  0.7642 -0.1863  0.0885
10946SOL    HW133416   6.674   6.393   1.959  0.2539 -0.6732 -0.1371
10946SOL    HW233417   6.771   6.366   2.072  0.1429  0.3192  0.2040
10947SOL     OW33418   5.542   2.036   3.818  0.1488 -0.2570  0.0837
10947SOL    HW133419   5.570   2.100   3.884  1.5128 -1.1327  0.4024
10947SOL    HW233420   5.535   1.953   3.867  0.3225 -0.7357 -0.6898
10948SOL     OW33421   5.842   2.155   2.421 -0.3656  0.1296 -0.3127
10948SOL    HW133422   5.852   2.075   2.473 -2.9055 -0.4693 -0.6076
10948SOL    HW233423   5.824   2.224   2.485  1.5709  0.4873 -0.0797
10949SOL     OW33424   3.961   9.940   7.515 -0.2292  0.2545  0.2486
10949SOL    HW133425   3.897   9.960   7.447 -0.8498 -0.3951  0.6270
10949SOL    HW233426   4.006   9.862   7.484  0.3131  0.6520  0.0305
10950SOL     OW33427   8.206   0.390   2.094 -0.0789 -0.0055 -0.3344
10950SOL    HW133428   8.265   0.348   2.156  1.0064 -1.6244 -2.3312
10950SOL    HW233429   8.243   0.477   2.079  0.4979 -0.1687  0.1492
10951SOL     OW33430   1.550   6.707   0.349 -0.1021 -0.5375  0.2081
10951SOL    HW133431   1.575   6.743   0.435  0.3768 -1.2230  0.3609
10951SOL    HW233432   1.623   6.651   0.325 -0.9413 -1.5885  0.0633
10952SOL     OW33433   0.485   8.919   3.882  0.3107 -0.7973  0.3408
10952SOL    HW133434   0.401   8.959   3.860  0.5588 -0.8474 -0.7564
10952SOL    HW233435   0.462   8.835   3.921 -0.1704 -0.3187  1.1075
10953SOL     OW33436   2.011   1.491   3.690 -0.6686 -0.5671  0.7837
10953SOL    HW133437   2.093   1.537   3.708 -1.4221  0.6379  1.2329
10953SOL    HW233438   2.015   1.471   3.596 -0.0053 -0.2173  0.7330
10954SOL     OW33439   6.910   2.508   8.297  0.2610 -0.0241  0.0813
10954SOL    HW133440   6.987   2.529   8.349  0.9018  0.2921 -0.9643
10954SOL    HW233441   6.891   2.588   8.249 -0.0370 -0.4451 -0.5141
10955SOL     OW33442   8.894   9.868   9.027 -0.2180 -0.2080  0.2786
10955SOL    HW133443   8.884   9.923   9.105 -3.7530 -1.8199  1.1579
10955SOL    HW233444   8.829   9.902   8.965  0.0191 -1.1814 -0.5367
10956SOL     OW33445   5.594   7.610   8.719 -0.1574  0.4512  0.2915
10956SOL    HW133446   5.658   7.635   8.652  0.0204 -0.9811 -0.1072
10956SOL    HW233447   5.630   7.530   8.758 -2.7851 -1.8869 -1.6372
10957SOL     OW33448   5.003   5.782   8.169  0.3193  0.3487  0.1281
10957SOL    HW133449   4.971   5.855   8.223  1.8179  0.8622  0.3645
10957SOL    HW233450   4.927   5.755   8.118 -0.4982  1.4920  0.6917
10958SOL     OW33451   5.637   0.580   9.878 -0.1460 -0.2897  0.3033
10958SOL    HW133452   5.570   0.648   9.883  1.1366  1.4562 -2.9133
10958SOL    HW233453   5.686   0.588   9.960 -1.3480  1.1890  0.9189
10959SOL     OW33454   8.975   6.002   9.825  0.6296 -0.4516 -0.1667
10959SOL    HW133455   9.020   6.068   9.773 -2.6381  0.1536 -2.5709
10959SOL    HW233456   8.994   6.026   9.916  3.0479  1.1220 -0.9886
10960SOL     OW33457   9.531   5.872   4.376 -0.2110  0.1496  0.7720
10960SOL    HW133458   9.594   5.801   4.382  0.1232  0.3914  0.2587
10960SOL    HW233459   9.478   5.865   4.455  1.5466  0.9798  2.0961
10961SOL     OW33460   6.314   3.043   9.345  0.1567 -0.4213  0.0767
10961SOL    HW133461   6.310   3.137   9.360 -0.1099 -0.5568  0.9477
10961SOL    HW233462   6.238   3.024   9.289 -0.1609 -0.2024  0.4266
10962SOL     OW33463   0.762   8.995   8.771  0.9445 -0.0978 -0.6020
10962SOL    HW133464   0.838   8.937   8.765  0.7000 -0.6410  1.0199
10962SOL    HW233465   0.688   8.939   8.747  0.8732 -0.0356 -0.5271
10963SOL     OW33466   2.767   6.772   6.694 -0.0904 -0.2427  0.1521
10963SOL    HW133467   2.768   6.867   6.691 -0.3205 -0.2381 -2.9782
10963SOL    HW233468   2.840   6.745   6.639 -1.7685 -1.8011 -1.4664
10964SOL     OW33469   8.655   1.691   1.392 -0.0734 -0.2210  0.0503
10964SOL    HW133470   8.722   1.672   1.458 -0.3408 -0.2726  0.3050
10964SOL    HW233471   8.667   1.623   1.326  0.1437 -0.2128  0.0791
10965SOL     OW33472   2.379   1.967   2.986  0.0395  0.6988  0.2183
10965SOL    HW133473   2.409   1.983   3.076  0.0546 -0.6325  0.4728
10965SOL    HW233474   2.458   1.974   2.933  0.5772 -1.1566  0.6780
10966SOL     OW33475   9.038   7.000   6.619 -0.1164 -0.0271 -0.1855
10966SOL    HW133476   9.099   6.996   6.694  0.7769 -3.7700 -0.8963
10966SOL    HW233477   8.962   7.046   6.653  0.5269 -0.9494  2.8666
10967SOL     OW33478   1.210   6.376   1.664  0.6896 -0.7508 -0.7182
10967SOL    HW133479   1.272   6.450   1.667  0.2528 -0.3616 -1.1206
10967SOL    HW233480   1.265   6.301   1.641  1.3421 -0.7926  0.8385
10968SOL     OW33481   2.526   2.252   4.990 -0.2699 -0.1781  0.0172
10968SOL    HW133482   2.620   2.254   5.008 -0.1403  1.9081 -0.6554
10968SOL    HW233483   2.490   2.200   5.062  1.4440 -1.6394 -0.0987
10969SOL     OW33484   8.330   5.791   9.120 -0.2537  1.0775 -0.4119
10969SOL    HW133485   8.261   5.751   9.174  0.2245 -1.5777 -1.5943
10969SOL    HW233486   8.406   5.734   9.133  0.5583  1.7266 -2.0707
10970SOL     OW33487   2.662   3.631   6.616 -0.2968  0.0271  0.1537
10970SOL    HW133488   2.676   3.705   6.557 -1.8887  0.6715  0.5148
10970SOL    HW233489   2.663   3.554   6.560 -2.8683  0.7090 -0.9843
10971SOL     OW33490   6.247   7.528   5.467 -0.0861  0.4522  0.4373
10971SOL    HW133491   6.282   7.609   5.429 -0.8101 -0.4611 -2.4103
10971SOL    HW233492   6.316   7.463   5.451 -0.6875 -0.1059  0.1055
10972SOL     OW33493   3.469   9.445   8.255  0.2965  0.0003  0.2198
10972SOL    HW133494   3.403   9.379   8.238  0.4488 -0.5796  1.6892
10972SOL    HW233495   3.420   9.522   8.284  0.2342 -0.3775  1.1548
10973SOL     OW33496   1.343   7.489   2.573  0.2559 -0.1213  0.1601
10973SOL    HW133497   1.307   7.505   2.661  0.2100  0.2022  0.0835
10973SOL    HW233498   1.270   7.509   2.514  0.6400  0.7922 -0.0105
10974SOL     OW33499   8.991   6.018   6.500 -0.8099  0.2222  0.1254
10974SOL    HW133500   9.026   6.081   6.437 -0.2035 -0.1296  0.1127
10974SOL    HW233501   9.015   5.932   6.466 -1.3747 -0.0135  0.3006
10975SOL     OW33502   4.448   1.813   2.881 -0.3036  0.8409 -0.0172
10975SOL    HW133503   4.354   1.798   2.886 -0.3539  1.0848 -0.2589
10975SOL    HW233504   4.460   1.902   2.914  0.0038  0.2744  1.4899
10976SOL     OW33505   5.372   1.826   4.106  0.5647  0.2920  0.5468
10976SOL    HW133506   5.425   1.782   4.040  1.9762  1.5010  0.8376
10976SOL    HW233507   5.329   1.898   4.058 -2.6866 -1.9115 -0.2112
10977SOL     OW33508   9.789   7.263   4.712 -0.5867 -0.3442 -0.6149
10977SOL    HW133509   9.790   7.344   4.662  2.5958  0.5443  0.6273
10977SOL    HW233510   9.792   7.291   4.804 -0.1526 -1.8276 -0.1370
10978SOL     OW33511   4.491   6.492   8.346 -0.0564 -0.0677  0.6731
10978SOL    HW133512   4.423   6.475   8.280  0.4987 -0.3261  0.1531
10978SOL    HW233513   4.460   6.447   8.424  0.4422 -1.9327 -0.1304
10979SOL     OW33514   6.427   6.505   6.661 -0.1057 -0.3162  0.7321
10979SOL    HW133515   6.348   6.525   6.711  0.4610  1.2038  1.0531
10979SOL    HW233516   6.427   6.569   6.590  1.5246  0.5816  1.5103
10980SOL     OW33517   2.483   6.270   1.735 -0.1530  0.5070  0.3643
10980SOL    HW133518   2.452   6.344   1.788 -1.3223 -0.4741  1.1020
10980SOL    HW233519   2.449   6.287   1.647 -1.0344  0.5046  0.6954
10981SOL     OW33520   7.759   9.463   0.218  0.3412 -0.4221 -0.4974
10981SOL    HW133521   7.766   9.557   0.199 -2.6243 -0.2642 -1.2593
10981SOL    HW233522   7.746   9.422   0.133  2.0275 -1.6539 -0.2188
10982SOL     OW33523   5.331   6.709   9.030 -0.3114 -0.2741  0.1561
10982SOL    HW133524   5.291   6.770   8.966 -0.8353 -0.7288  0.0407
10982SOL    HW233525   5.406   6.672   8.984  1.0414  1.5036  0.7931
10983SOL     OW33526   4.520   2.259   5.479 -0.0266  0.1909  0.0731
10983SOL    HW133527   4.529   2.277   5.573 -0.7351 -0.0408  0.1846
10983SOL    HW233528   4.517   2.164   5.473 -1.3929  0.2321 -0.0535
10984SOL     OW33529   1.959   0.316   2.769 -0.1663 -0.3231  0.6253
10984SOL    HW133530   1.962   0.281   2.858 -0.7686 -1.3516  0.2617
10984SOL    HW233531   1.884   0.376   2.769 -0.0217 -0.1430  0.8722
10985SOL     OW33532   3.917   7.244   1.304 -0.2176  0.0316 -0.6140
10985SOL    HW133533   3.907   7.151   1.325  0.7429  0.3447  1.4083
10985SOL    HW233534   3.937   7.286   1.387  0.4688  1.9043 -1.6600
10986SOL     OW33535   4.310   4.647   8.818  0.0193 -0.2899 -0.3948
10986SOL    HW133536   4.394   4.653   8.863 -0.0745 -1.5652  0.0098
10986SOL    HW233537   4.333   4.643   8.725  0.2463  1.7835 -0.4707
10987SOL     OW33538   5.215   1.214  -0.016 -0.6170  0.3165  0.4757
10987SOL    HW133539   5.265   1.283   0.028 -1.8496  1.8645 -0.4823
10987SOL    HW233540   5.145   1.192   0.046 -1.6155  1.6228 -0.1461
10988SOL     OW33541   5.360   5.362   4.385 -0.2410 -0.2645 -0.1034
10988SOL    HW133542   5.380   5.450   4.417  0.3249 -1.2325  2.4810
10988SOL    HW233543   5.264   5.356   4.389 -0.3382  0.4784 -1.0738
10989SOL     OW33544   5.162   2.956   3.229  0.1811  0.1639 -0.0766
10989SOL    HW133545   5.227   2.977   3.163  0.8214 -0.2519  0.4046
10989SOL    HW233546   5.078   2.983   3.191  0.7275  1.5269 -0.3382
10990SOL     OW33547   6.790   0.563   8.853 -0.1537  0.0040  0.0349
10990SOL    HW133548   6.766   0.520   8.771  1.0538 -0.7961  0.0715
10990SOL    HW233549   6.857   0.627   8.827 -0.2922  0.2527  0.2913
10991SOL     OW33550   2.091   6.996   0.438  0.2544  0.0491 -0.0583
10991SOL    HW133551   2.014   6.950   0.406  1.2431 -1.8241  0.1171
10991SOL    HW233552   2.114   7.056   0.367 -0.1581 -0.8676 -0.9992
10992SOL     OW33553   6.760   7.719   7.468  0.2641  0.4638  0.2043
10992SOL    HW133554   6.684   7.678   7.510 -0.6148  1.0872 -0.6994
10992SOL    HW233555   6.793   7.782   7.533  1.8329 -1.8001  1.7312
10993SOL     OW33556   9.169   6.697   3.525 -0.3434  0.2864  0.3014
10993SOL    HW133557   9.250   6.744   3.509  0.7600 -1.2563  1.0431
10993SOL    HW233558   9.137   6.672   3.439  1.0524 -0.7986  0.0772
10994SOL     OW33559   6.366   9.666   6.714  0.4945 -0.4619  0.3650
10994SOL    HW133560   6.322   9.674   6.629  0.2928 -1.3426  0.3842
10994SOL    HW233561   6.446   9.719   6.704 -1.8539  3.7041  1.2870
10995SOL     OW33562   2.565   2.966   8.888  0.5129 -0.2610  0.5116
10995SOL    HW133563   2.570   2.898   8.820 -0.6379  0.4506 -0.3244
10995SOL    HW233564   2.597   2.923   8.967  1.2525 -1.3184 -0.3312
10996SOL     OW33565   1.854   6.130   2.652 -0.0834  0.2798 -0.3205
10996SOL    HW133566   1.871   6.192   2.581 -1.0366 -1.9426 -2.6512
10996SOL    HW233567   1.759   6.118   2.652 -0.1618  0.4755  1.6416
10997SOL     OW33568   0.488   4.265   8.098 -0.2369 -0.0024  0.1273
10997SOL    HW133569   0.447   4.208   8.163  0.5599  0.3156  0.9254
10997SOL    HW233570   0.484   4.353   8.138  1.5607 -0.0175  0.4178
10998SOL     OW33571   1.652   5.568   3.040  0.0219  0.3863  0.1647
10998SOL    HW133572   1.581   5.567   3.104  0.6190  1.9118  0.9156
10998SOL    HW233573   1.657   5.659   3.011  2.0551  0.4582  0.6060
10999SOL     OW33574   8.406   5.676   4.786 -0.8077 -0.3213  0.2390
10999SOL    HW133575   8.375   5.758   4.749  0.5823  0.2079  0.1798
10999SOL    HW233576   8.368   5.673   4.874  0.8449  1.5093  1.1149
11000SOL     OW33577   3.440   6.139   9.162  0.1989 -0.0462  0.3533
11000SOL    HW133578   3.506   6.162   9.228  1.4422  1.9711 -1.4695
11000SOL    HW233579   3.488   6.088   9.097 -0.4688 -0.0572 -0.1407
11001SOL     OW33580   0.165   0.451   1.371 -0.2907  0.3935  0.3445
11001SOL    HW133581   0.189   0.408   1.453 -0.1722 -0.1950  0.0143
11001SOL    HW233582   0.143   0.378   1.312 -0.8268  0.8271 -0.0024
11002SOL     OW33583   0.978   2.060   3.118 -0.5808  0.0430 -0.2770
11002SOL    HW133584   1.033   2.138   3.115 -2.4601  1.4193 -2.3962
11002SOL    HW233585   1.024   1.996   3.064  1.1211 -0.5026  1.7105
11003SOL     OW33586   0.883   8.629   4.501 -0.1409  0.3437 -0.3604
11003SOL    HW133587   0.870   8.634   4.596  1.9716  1.9347 -0.0866
11003SOL    HW233588   0.936   8.551   4.489 -0.2828  0.2260 -0.2370
11004SOL     OW33589   1.516   9.117   4.234  0.3224 -0.1515 -0.1812
11004SOL    HW133590   1.478   9.047   4.181 -1.7927  2.0596 -1.8423
11004SOL    HW233591   1.472   9.110   4.318  0.0704 -0.7658 -0.3565
11005SOL     OW33592   3.740   7.958   6.056  0.3782  0.1231  0.4563
11005SOL    HW133593   3.805   7.887   6.052  1.1471  0.8123  0.4049
11005SOL    HW233594   3.661   7.916   6.090  1.0412 -0.6035  1.1393
11006SOL     OW33595   2.855   1.356   6.837  0.0478 -0.2749  0.2047
11006SOL    HW133596   2.892   1.308   6.912 -1.3014 -0.1991  0.9568
11006SOL    HW233597   2.778   1.304   6.812 -0.4821  0.6083 -0.0256
11007SOL     OW33598   8.177   2.904   8.084 -0.3728 -0.1962  0.5697
11007SOL    HW133599   8.247   2.855   8.040  0.2697 -1.0025  2.3555
11007SOL    HW233600   8.108   2.912   8.019  0.1711 -2.1065 -0.3146
11008SOL     OW33601   8.899   4.999   1.609  0.1860 -0.6188  0.1712
11008SOL    HW133602   8.834   4.929   1.604 -0.5764  0.0730  0.1871
11008SOL    HW233603   8.854   5.070   1.655  0.1489  0.7175 -1.7782
11009SOL     OW33604   2.154   0.188   5.449 -0.5437 -0.4901 -0.3150
11009SOL    HW133605   2.099   0.243   5.394 -1.1289 -1.0550 -0.3128
11009SOL    HW233606   2.233   0.173   5.398 -0.0129  1.0162  0.0191
11010SOL     OW33607   4.255   4.124   7.226  0.4921  0.3495  0.2813
11010SOL    HW133608   4.296   4.189   7.282  0.6409  2.0599 -1.6778
11010SOL    HW233609   4.293   4.040   7.254  0.1547  1.0164  2.9923
11011SOL     OW33610   9.942   0.392   4.716  0.3633 -0.0485  0.0673
11011SOL    HW133611  10.003   0.465   4.722  0.7914 -0.4618  0.7859
11011SOL    HW233612   9.922   0.369   4.806  0.9714 -1.4279 -0.1248
11012SOL     OW33613   6.917   0.344   7.768  0.3434  0.2783  0.2192
11012SOL    HW133614   6.945   0.435   7.778 -0.9116  0.8568 -1.1506
11012SOL    HW233615   6.845   0.348   7.705  1.1925 -1.8331 -0.9655
11013SOL     OW33616   7.977   8.990   7.908 -0.3421  0.1018 -0.0226
11013SOL    HW133617   7.998   8.913   7.854  1.9220  2.7627 -3.4027
11013SOL    HW233618   7.921   9.043   7.851 -1.2428  1.3042  1.9216
11014SOL     OW33619   6.965   1.314   1.384  0.7469 -0.0730 -0.5319
11014SOL    HW133620   6.935   1.227   1.411  0.2429 -0.0722 -1.0936
11014SOL    HW233621   7.048   1.325   1.431  0.2106 -0.3409  0.5223
11015SOL     OW33622   0.164   5.112   6.059  0.1352  0.5670  0.3504
11015SOL    HW133623   0.146   5.196   6.017 -1.0357 -0.0365 -0.3988
11015SOL    HW233624   0.217   5.064   5.995 -1.0942 -0.0988 -0.2117
11016SOL     OW33625   2.710   3.274   4.672 -0.0839 -0.0388  0.1685
11016SOL    HW133626   2.729   3.203   4.733 -0.8938 -0.8378 -0.4739
11016SOL    HW233627   2.629   3.246   4.628  1.2238 -0.2033 -2.2785
11017SOL     OW33628   4.026   9.814   0.691  0.1058 -0.0955 -0.3691
11017SOL    HW133629   4.120   9.830   0.701 -0.0779  0.3796  0.7079
11017SOL    HW233630   4.005   9.752   0.761 -0.4767  0.1690 -0.3056
11018SOL     OW33631   4.241   8.380   2.438 -0.0548  0.0898  0.5278
11018SOL    HW133632   4.210   8.306   2.490 -0.4960  0.1497  0.3577
11018SOL    HW233633   4.162   8.412   2.394  0.0307  0.9679  0.9836
11019SOL     OW33634   3.234   2.613   2.193 -0.0381 -0.0589  0.1192
11019SOL    HW133635   3.250   2.707   2.205 -1.0862  0.0928  0.4337
11019SOL    HW233636   3.288   2.589   2.118  0.7036  0.6643  0.4040
11020SOL     OW33637   4.248   5.344   7.917  0.3089 -0.2006  0.1137
11020SOL    HW133638   4.251   5.248   7.921 -0.1525 -0.2218 -0.0190
11020SOL    HW233639   4.333   5.369   7.880 -1.1790 -0.8278 -4.3833
11021SOL     OW33640   1.119   1.842   2.990 -0.4586  0.2942 -0.2069
11021SOL    HW133641   1.201   1.793   2.986 -0.2153  0.5521  1.0781
11021SOL    HW233642   1.054   1.778   3.018 -0.6043  0.2132 -0.7109
11022SOL     OW33643   8.970   9.322   2.846 -0.2935  0.2147  0.2130
11022SOL    HW133644   8.902   9.270   2.803 -0.8563  0.6148  0.6049
11022SOL    HW233645   8.964   9.408   2.803  1.0807 -0.2179 -0.9050
11023SOL     OW33646   4.949   4.631   2.795  0.4185  0.2734  0.9683
11023SOL    HW133647   4.886   4.692   2.755  0.5026 -0.9182 -1.0860
11023SOL    HW233648   5.022   4.687   2.823 -0.3729  1.3372  0.9846
11024SOL     OW33649   5.379   3.273   1.259 -0.1086 -0.3164 -0.5372
11024SOL    HW133650   5.405   3.230   1.177  0.3627 -0.3542 -0.3666
11024SOL    HW233651   5.436   3.349   1.265  1.5954 -1.6234  0.9869
11025SOL     OW33652   9.713   5.650   0.360  0.1263 -0.1624  0.3438
11025SOL    HW133653   9.700   5.557   0.343 -0.0514  0.1461 -1.3353
11025SOL    HW233654   9.631   5.678   0.401  0.1903 -0.7274  0.8886
11026SOL     OW33655   2.174   8.247   7.210 -0.1984 -0.2072  0.0205
11026SOL    HW133656   2.209   8.221   7.295 -1.1914 -0.7099  0.2925
11026SOL    HW233657   2.225   8.197   7.146 -0.6349 -1.1639  0.4202
11027SOL     OW33658   8.801   5.501   5.089  0.6876 -0.0684 -0.1971
11027SOL    HW133659   8.808   5.552   5.008 -2.9265 -1.7697 -1.8271
11027SOL    HW233660   8.858   5.426   5.075  0.5962 -0.0213 -0.8727
11028SOL     OW33661   2.592   5.149   7.920  0.7561 -0.1362 -0.0660
11028SOL    HW133662   2.649   5.085   7.963  0.4403 -0.0235  0.5372
11028SOL    HW233663   2.639   5.232   7.928  1.1283 -0.2736 -0.7762
11029SOL     OW33664   9.939   3.277   6.554 -0.0037  0.0977  0.3539
11029SOL    HW133665   9.906   3.299   6.467 -0.9382 -0.0509  0.6623
11029SOL    HW233666   9.864   3.291   6.613  0.2741 -0.9166  0.9760
11030SOL     OW33667   2.300   8.611   9.710 -0.2498  0.0005  0.1588
11030SOL    HW133668   2.301   8.695   9.665  1.1977 -0.8408 -1.5249
11030SOL    HW233669   2.342   8.629   9.795 -1.0511  1.1870  0.3239
11031SOL     OW33670   5.452   0.683   4.295  0.2159  0.1456  0.3104
11031SOL    HW133671   5.446   0.682   4.200  0.2607  2.3308  0.2274
11031SOL    HW233672   5.362   0.667   4.325 -0.1561  1.2098 -0.1732
11032SOL     OW33673   4.521   1.674   5.978 -0.0418 -0.4313  0.2545
11032SOL    HW133674   4.592   1.609   5.979  0.8017  0.4703  0.5379
11032SOL    HW233675   4.487   1.672   5.889  0.5723 -0.6359  0.0218
11033SOL     OW33676   2.233   6.274   4.991 -0.5968 -0.2207 -0.1057
11033SOL    HW133677   2.261   6.352   4.944 -0.5212 -0.6989 -0.8740
11033SOL    HW233678   2.205   6.213   4.922  0.5930 -1.3578  0.3657
11034SOL     OW33679   7.766   8.810   0.210  0.6886  0.1927  0.0119
11034SOL    HW133680   7.738   8.762   0.288  0.0901  0.7153  0.1262
11034SOL    HW233681   7.807   8.744   0.154  1.6766 -0.0856  1.0175
11035SOL     OW33682   8.012   7.892   7.326  0.2944  0.0329 -0.1215
11035SOL    HW133683   7.948   7.950   7.285 -0.2145  0.3642  1.0934
11035SOL    HW233684   8.057   7.948   7.389 -0.0943 -0.8483  0.9603
11036SOL     OW33685   6.449   5.884   2.631 -0.0301  0.1623 -0.2916
11036SOL    HW133686   6.391   5.950   2.593  0.9743  0.7709 -0.8119
11036SOL    HW233687   6.534   5.926   2.634  0.4375 -0.7932  0.2599
11037SOL     OW33688   5.427   6.081   5.889 -0.0201 -0.2130  0.0203
11037SOL    HW133689   5.442   6.081   5.984 -0.0888  0.0503  0.0306
11037SOL    HW233690   5.504   6.038   5.853  1.4201  2.2300 -0.0261
11038SOL     OW33691   0.980   0.659   4.604 -0.0690  0.6949 -0.1760
11038SOL    HW133692   0.933   0.733   4.565  1.3170  0.9064 -1.5245
11038SOL    HW233693   0.911   0.605   4.643 -1.1621  2.4648  0.4758
11039SOL     OW33694   0.846   3.673   7.540  0.6410  0.0878 -0.0704
11039SOL    HW133695   0.880   3.601   7.487  0.1814  0.5078 -0.9468
11039SOL    HW233696   0.822   3.632   7.623  1.5448 -0.5458 -0.1005
11040SOL     OW33697   2.998   1.561   7.091 -0.1931 -0.0757  0.2208
11040SOL    HW133698   2.995   1.554   7.187 -0.9930 -1.9974  0.1002
11040SOL    HW233699   2.917   1.607   7.068 -0.1187  0.1712  0.4410
11041SOL     OW33700   2.197   1.587   9.222 -0.3674  0.3706  0.0635
11041SOL    HW133701   2.128   1.569   9.158 -0.6193 -0.5676  0.5805
11041SOL    HW233702   2.240   1.665   9.189  0.0472 -0.5587 -1.7118
11042SOL     OW33703   3.136   5.430   5.299  0.5693 -0.0328 -0.0567
11042SOL    HW133704   3.119   5.352   5.351  0.1758 -0.8061 -1.3095
11042SOL    HW233705   3.099   5.502   5.351 -0.0075 -0.8016  0.6176
11043SOL     OW33706   0.860   0.096   6.768 -0.1644  0.1936 -0.3957
11043SOL    HW133707   0.915   0.037   6.716  2.0012  1.4459  0.3445
11043SOL    HW233708   0.864   0.179   6.722 -0.0448  0.7365  0.5707
11044SOL     OW33709   7.920   1.342   3.173  0.7387  0.1023  0.2872
11044SOL    HW133710   7.874   1.412   3.220  1.2435  0.6411 -0.0192
11044SOL    HW233711   7.995   1.385   3.133  0.2565 -0.3350 -1.1251
11045SOL     OW33712   6.329   1.694   2.179 -0.0456 -0.0954  0.3835
11045SOL    HW133713   6.283   1.759   2.232  1.7979  0.6921  1.1192
11045SOL    HW233714   6.269   1.620   2.174 -1.4131  0.9177  1.1887
11046SOL     OW33715   9.872   8.820   7.615 -0.6372 -0.3091 -0.0366
11046SOL    HW133716   9.930   8.798   7.542  0.6379  0.4402  0.7062
11046SOL    HW233717   9.835   8.905   7.591  0.0688  0.1126  0.3364
11047SOL     OW33718   4.520   8.244   5.354  0.0241  0.3679  0.2549
11047SOL    HW133719   4.501   8.338   5.349  0.0697  0.3452 -0.3159
11047SOL    HW233720   4.461   8.212   5.423  0.0986  0.8356  0.5371
11048SOL     OW33721   6.475   6.615   3.125  0.3609 -0.2763  0.1171
11048SOL    HW133722   6.427   6.588   3.203  1.9018 -2.1489  0.5046
11048SOL    HW233723   6.454   6.548   3.059  1.3589 -0.3709 -0.1248
11049SOL     OW33724   6.267   4.241   9.860  0.5090  0.0165  0.5352
11049SOL    HW133725   6.246   4.185   9.785  1.6437  0.4929 -0.1622
11049SOL    HW233726   6.182   4.259   9.901 -0.3140  0.9041 -1.4588
11050SOL     OW33727   1.059   1.281   3.488 -0.1916 -0.1116  0.2282
11050SOL    HW133728   1.093   1.362   3.525 -1.0889 -0.1083  1.0886
11050SOL    HW233729   1.029   1.231   3.564 -2.5840  0.1267 -0.4715
11051SOL     OW33730   9.643   7.377   6.349 -0.1107  0.0537  0.1621
11051SOL    HW133731   9.737   7.392   6.344 -0.0392 -0.5714 -0.5438
11051SOL    HW233732   9.609   7.452   6.397  0.9094 -0.3721  1.6288
11052SOL     OW33733   6.710   1.653   7.745 -0.0353  0.3613  0.6433
11052SOL    HW133734   6.686   1.727   7.801  0.1557  0.2154  0.9201
11052SOL    HW233735   6.789   1.682   7.700 -0.4877  0.6860  0.0368
11053SOL     OW33736   2.243   2.773   3.097 -0.3899 -0.2096  0.2078
11053SOL    HW133737   2.271   2.853   3.141 -1.2154 -0.3682  1.0608
11053SOL    HW233738   2.226   2.799   3.007 -0.0205  0.4315  0.3212
11054SOL     OW33739   1.141   6.163   0.996  0.4226 -0.2665  0.2765
11054SOL    HW133740   1.232   6.141   1.017  0.0810 -0.9922  1.0667
11054SOL    HW233741   1.089   6.116   1.062 -0.3961  2.6887  1.9266
11055SOL     OW33742   2.352   9.708   1.656  0.1459 -0.9358  0.0386
11055SOL    HW133743   2.296   9.646   1.610 -2.4051  1.5667 -0.5936
11055SOL    HW233744   2.317   9.710   1.745 -0.6399  0.3608 -0.2593
11056SOL     OW33745   5.269   7.059   8.219  0.1473 -0.3938  0.7443
11056SOL    HW133746   5.297   7.132   8.274  1.6869 -0.7630  0.4928
11056SOL    HW233747   5.297   6.981   8.266  0.9417 -0.7321 -0.2579
11057SOL     OW33748   4.971   2.667   8.184  0.0663  0.2625 -0.0431
11057SOL    HW133749   4.886   2.664   8.140  0.1654 -1.0657 -0.1841
11057SOL    HW233750   4.971   2.590   8.241  0.5608  1.1011  1.1404
11058SOL     OW33751   0.949   5.739   2.013  0.8859  0.5999  1.1039
11058SOL    HW133752   0.980   5.775   1.930  2.6116  1.0982  1.9113
11058SOL    HW233753   0.861   5.774   2.023  1.5147  2.4616  0.5691
11059SOL     OW33754   9.921   7.435   7.323  0.4695 -0.6296 -0.2022
11059SOL    HW133755   9.940   7.388   7.404  2.4498  2.4182  1.2866
11059SOL    HW233756   9.831   7.467   7.334  1.4960  1.8849  2.1303
11060SOL     OW33757   4.911   0.258   7.640 -0.0261 -0.3339 -0.0944
11060SOL    HW133758   4.856   0.265   7.718 -1.1244  0.0070 -0.8710
11060SOL    HW233759   4.853   0.219   7.574  1.0736 -1.2138 -0.5634
11061SOL     OW33760   4.306   0.110   4.532  0.1662  0.0885  0.0299
11061SOL    HW133761   4.289   0.021   4.561  0.1907  0.0934  0.0594
11061SOL    HW233762   4.391   0.132   4.570 -0.6082  0.7414  1.4768
11062SOL     OW33763   2.914   9.354   0.517 -0.1246 -0.2654 -0.5582
11062SOL    HW133764   2.835   9.396   0.551  0.1908 -0.5904  0.5957
11062SOL    HW233765   2.945   9.415   0.450 -0.8062  0.3422 -0.3384
11063SOL     OW33766   8.668   0.674   4.214 -0.1353 -0.2417  0.2886
11063SOL    HW133767   8.745   0.617   4.220 -2.7356 -3.9987  0.5605
11063SOL    HW233768   8.653   0.685   4.120  0.5963  0.4730  0.2332
11064SOL     OW33769   7.445   8.115   2.947 -0.2320 -0.4775  0.5556
11064SOL    HW133770   7.375   8.052   2.961 -0.2245 -0.6216 -0.0152
11064SOL    HW233771   7.495   8.115   3.029 -0.9147 -0.3430  0.9770
11065SOL     OW33772   9.179   8.941   7.523  0.4731 -0.5634  0.0313
11065SOL    HW133773   9.243   8.983   7.465  1.1370 -1.2253  0.2686
11065SOL    HW233774   9.222   8.861   7.553 -0.1004 -0.5435  0.9580
11066SOL     OW33775   9.988   8.202   8.775  0.5561 -0.0327 -0.0728
11066SOL    HW133776   9.936   8.163   8.705 -1.4502  1.3431  0.5537
11066SOL    HW233777   9.998   8.294   8.749  2.0424 -0.0789  0.2227
11067SOL     OW33778   7.779   4.508   8.570  0.2348  0.2525  0.1478
11067SOL    HW133779   7.842   4.581   8.570  0.7591 -0.1339 -1.7999
11067SOL    HW233780   7.834   4.429   8.577  0.0645 -0.1028 -1.8492
11068SOL     OW33781   0.392   1.304   1.810  0.2372  0.1217 -0.4000
11068SOL    HW133782   0.428   1.340   1.891 -1.1867 -3.0506  1.8405
11068SOL    HW233783   0.326   1.367   1.783  1.0126  1.4426  0.6586
11069SOL     OW33784   1.069   7.402   7.698 -0.2843  0.5519  0.3359
11069SOL    HW133785   1.071   7.465   7.771  0.7288 -0.6626  1.4123
11069SOL    HW233786   1.128   7.439   7.633 -2.6766  2.6395 -0.8090
11070SOL     OW33787   7.839   6.546   1.105  0.3830 -0.2549 -0.1447
11070SOL    HW133788   7.891   6.517   1.030 -0.8220 -0.3900 -0.9541
11070SOL    HW233789   7.843   6.642   1.101 -0.9153 -0.2179 -1.3181
11071SOL     OW33790   7.781   5.287   0.590 -0.1382  0.0196  0.8821
11071SOL    HW133791   7.788   5.366   0.644 -0.1163  1.7234 -1.4481
11071SOL    HW233792   7.825   5.310   0.508 -2.3850 -1.4416 -0.8882
11072SOL     OW33793   1.267   8.289   4.098  0.4530  0.4000 -0.2118
11072SOL    HW133794   1.226   8.369   4.065  0.2613  0.7685  0.8719
11072SOL    HW233795   1.215   8.265   4.174  1.2798 -0.0303  0.2377
11073SOL     OW33796   6.312   5.127   0.074 -0.6616 -0.3020  0.1636
11073SOL    HW133797   6.230   5.101   0.032 -0.8783 -0.9586  0.9585
11073SOL    HW233798   6.284   5.188   0.143 -0.3331  0.6036 -0.4876
11074SOL     OW33799   2.114   5.739   8.729  0.1056  0.0491  0.0107
11074SOL    HW133800   2.042   5.686   8.763 -0.7561  0.6056 -0.8877
11074SOL    HW233801   2.071   5.816   8.690  1.2845  1.1861  0.8670
11075SOL     OW33802   3.154   7.521   4.394  0.0501 -0.9958  0.0306
11075SOL    HW133803   3.221   7.587   4.415  1.5242 -2.3218 -0.3369
11075SOL    HW233804   3.126   7.544   4.305 -0.8285  0.2098  0.5776
11076SOL     OW33805   7.815   6.173   4.308  0.2052  0.2257  0.5295
11076SOL    HW133806   7.748   6.113   4.277 -0.9141  0.9604  1.4515
11076SOL    HW233807   7.793   6.188   4.400  1.4787  0.7025  0.7799
11077SOL     OW33808   5.762   6.026   3.939 -0.2491 -0.7081 -0.0783
11077SOL    HW133809   5.810   6.109   3.939  0.6834 -1.2296 -0.1549
11077SOL    HW233810   5.798   5.978   3.864 -0.7484 -1.2015 -0.0050
11078SOL     OW33811   7.966   8.621   9.873  0.2591  0.2387 -0.0639
11078SOL    HW133812   7.940   8.610   9.964 -1.6314 -1.7143 -0.7678
11078SOL    HW233813   7.936   8.709   9.851 -0.9469  0.0589  0.7178
11079SOL     OW33814   9.499   4.489   0.415  0.5950 -0.8185 -0.2165
11079SOL    HW133815   9.410   4.523   0.421  0.7904 -0.4305  0.6855
11079SOL    HW233816   9.516   4.483   0.321  0.2475  0.8170 -0.4298
11080SOL     OW33817   8.730   7.948   9.564 -0.3512 -0.2985  0.1512
11080SOL    HW133818   8.732   8.011   9.636 -0.0064 -0.3162  0.1627
11080SOL    HW233819   8.813   7.963   9.517  0.1496 -1.3366  0.6758
11081SOL     OW33820   6.618   9.650   6.963  0.0823  0.0369  0.3822
11081SOL    HW133821   6.697   9.653   6.909 -0.2752 -0.8155 -0.2063
11081SOL    HW233822   6.650   9.629   7.051  0.5347  0.0057  0.2126
11082SOL     OW33823   1.758   8.814   2.659 -0.1671 -0.0430 -0.6051
11082SOL    HW133824   1.761   8.719   2.670 -1.0975 -0.2705 -2.0613
11082SOL    HW233825   1.792   8.848   2.741 -0.9973 -1.6156  0.4500
11083SOL     OW33826   2.638   7.228   3.974 -0.4450 -0.4850  0.0363
11083SOL    HW133827   2.579   7.272   3.913  0.9900  0.8640 -0.4567
11083SOL    HW233828   2.707   7.292   3.991 -1.7378  0.1002  4.7338
11084SOL     OW33829   5.782   7.548   1.691 -0.3637 -0.4144  0.5173
11084SOL    HW133830   5.838   7.471   1.684  0.5427  0.1156  1.7372
11084SOL    HW233831   5.810   7.592   1.771 -2.3934 -0.0157  1.0775
11085SOL     OW33832   1.723   7.022   6.643 -0.8609 -0.0898 -0.1064
11085SOL    HW133833   1.631   7.050   6.642 -0.2893  1.9906  0.0138
11085SOL    HW233834   1.768   7.087   6.588  0.1218 -2.9124 -2.9260
11086SOL     OW33835   3.724   7.305   9.788  0.1273  0.4107 -0.2460
11086SOL    HW133836   3.732   7.304   9.693 -0.5632  1.5077 -0.3427
11086SOL    HW233837   3.722   7.213   9.814 -0.2640  0.1012 -1.3433
11087SOL     OW33838   3.608   1.322   4.009 -0.3731 -0.6039 -0.2310
11087SOL    HW133839   3.570   1.235   3.993  0.6286 -0.7891 -1.8897
11087SOL    HW233840   3.546   1.383   3.970 -1.4296 -0.4723  1.5519
11088SOL     OW33841   4.975   5.292   1.471 -0.2128 -0.0175  0.2768
11088SOL    HW133842   4.891   5.307   1.427  0.8792  2.8827 -1.0662
11088SOL    HW233843   5.024   5.239   1.409 -0.3784 -0.0536  0.1740
11089SOL     OW33844   3.030   5.677   2.677 -0.0267 -0.3176  0.0750
11089SOL    HW133845   2.943   5.665   2.715  0.6060 -1.2021  1.3203
11089SOL    HW233846   3.014   5.692   2.584 -1.4656 -1.1786  0.1597
11090SOL     OW33847   9.516   9.240   0.185 -0.7448 -0.4507 -0.7542
11090SOL    HW133848   9.446   9.241   0.250 -0.4143 -0.0714 -0.4031
11090SOL    HW233849   9.550   9.151   0.187 -0.3321 -0.2748  0.0196
11091SOL     OW33850   2.553   9.902   3.776 -0.5810  0.1554  0.4827
11091SOL    HW133851   2.478   9.911   3.836 -0.3832 -0.5600  0.8509
11091SOL    HW233852   2.623   9.867   3.831  0.6385  2.6188  0.5988
11092SOL     OW33853   1.469   8.531   7.103  0.3927  0.4392 -0.2473
11092SOL    HW133854   1.526   8.588   7.155  0.4914  0.1410 -0.0285
11092SOL    HW233855   1.494   8.550   7.012  2.4312 -1.2811 -0.1175
11093SOL     OW33856   4.980   7.896   4.814 -0.4930 -0.3189 -0.0035
11093SOL    HW133857   4.984   7.817   4.761 -0.5122  1.2850 -2.5437
11093SOL    HW233858   4.953   7.965   4.754  1.0706  1.9718  1.7109
11094SOL     OW33859   4.142   3.624   1.098 -0.4312  0.3955  0.1952
11094SOL    HW133860   4.117   3.687   1.165  0.1449  0.9410 -0.0972
11094SOL    HW233861   4.118   3.666   1.015  1.2320  0.8679 -0.0920
11095SOL     OW33862   8.552   5.711   2.760 -0.2267 -0.5617 -0.5497
11095SOL    HW133863   8.458   5.721   2.769 -0.0695  0.1822  0.3916
11095SOL    HW233864   8.565   5.681   2.670 -1.4529 -2.0094 -0.2790
11096SOL     OW33865   1.783   3.076   1.552 -0.0656  0.0175 -0.4259
11096SOL    HW133866   1.848   3.110   1.614  1.0355 -0.0343 -1.5244
11096SOL    HW233867   1.809   2.984   1.540  0.0946  0.1867 -1.4119
11097SOL     OW33868   7.580   4.085   9.317  0.2360 -0.0819  0.0847
11097SOL    HW133869   7.652   4.077   9.254  0.2188 -1.2760  0.1786
11097SOL    HW233870   7.570   3.996   9.352 -1.0522  0.1418  0.3246
11098SOL     OW33871   9.729   7.393   9.027 -0.0361  0.8177  0.5852
11098SOL    HW133872   9.648   7.343   9.025  0.7750 -0.5871 -2.2121
11098SOL    HW233873   9.729   7.443   8.946  0.6347  3.0932  1.8776
11099SOL     OW33874   3.626   4.856   7.260 -0.1103  0.0803 -0.6200
11099SOL    HW133875   3.644   4.855   7.355 -0.8630 -0.5150 -0.4746
11099SOL    HW233876   3.686   4.923   7.226  0.2495  0.2333  0.2590
11100SOL     OW33877   2.673   3.669   2.737  0.2477 -0.3107 -0.0110
11100SOL    HW133878   2.671   3.574   2.738 -2.0416 -0.3383 -1.0001
11100SOL    HW233879   2.581   3.695   2.746  0.9337  1.8560  1.7666
11101SOL     OW33880   9.630   4.730   5.200  0.0196 -0.0875  0.6713
11101SOL    HW133881   9.679   4.652   5.175  0.8177  0.6651 -0.2143
11101SOL    HW233882   9.584   4.756   5.120  0.9155  1.1488  0.5200
11102SOL     OW33883   1.892   3.196   5.466  0.2348 -0.1294 -0.1285
11102SOL    HW133884   1.979   3.237   5.465 -0.7809  2.2055  0.3578
11102SOL    HW233885   1.903   3.118   5.519  2.1211 -0.0717 -0.3737
11103SOL     OW33886   5.323   8.764   2.269 -0.1909  0.0994  0.2393
11103SOL    HW133887   5.353   8.847   2.231  1.2556 -0.6410 -0.3241
11103SOL    HW233888   5.387   8.745   2.338 -1.3428  0.1513  1.3475
11104SOL     OW33889   7.784   2.728   4.342 -0.2967 -0.6567  0.8249
11104SOL    HW133890   7.823   2.799   4.394  1.2462 -0.6785 -0.2072
11104SOL    HW233891   7.791   2.651   4.397  1.0894 -0.6357  0.7215
11105SOL     OW33892   7.396   7.993   0.841  0.2240  0.1850  0.4743
11105SOL    HW133893   7.341   8.024   0.769 -0.7990 -1.5781  0.4478
11105SOL    HW233894   7.482   7.978   0.801  0.5158  2.1075  0.3222
11106SOL     OW33895   6.590   2.366   7.555 -0.8871 -0.0285 -0.2563
11106SOL    HW133896   6.654   2.329   7.495 -1.4267 -0.0080 -0.8504
11106SOL    HW233897   6.505   2.345   7.517 -1.2235  1.3982 -0.3811
11107SOL     OW33898   2.290   6.153   4.716  0.2193  0.2327  0.0053
11107SOL    HW133899   2.354   6.212   4.756  1.1015 -1.4643  1.2257
11107SOL    HW233900   2.335   6.118   4.639  1.1311 -1.5399  1.2821
11108SOL     OW33901   8.939   7.567   0.350  0.1866 -0.5882  0.2583
11108SOL    HW133902   8.859   7.546   0.303 -0.8423 -1.3724  2.2263
11108SOL    HW233903   9.008   7.569   0.283 -1.4197 -0.0926 -1.4394
11109SOL     OW33904   1.562   8.492   6.853 -0.0928 -0.5073  0.7520
11109SOL    HW133905   1.614   8.429   6.903 -0.3407 -0.8923  0.5269
11109SOL    HW233906   1.533   8.444   6.776  2.0595  0.6363 -0.9123
11110SOL     OW33907   4.097   8.885   6.164  0.4694  0.2901  0.0785
11110SOL    HW133908   4.026   8.930   6.209 -0.7088 -2.0931  0.7740
11110SOL    HW233909   4.107   8.932   6.082 -2.1678  0.5222 -0.1931
11111SOL     OW33910   8.768   9.325   6.013  0.6197  0.5315 -0.5456
11111SOL    HW133911   8.818   9.383   6.071 -0.5544  0.4746  0.5392
11111SOL    HW233912   8.680   9.363   6.010  0.1804 -0.4831 -0.8525
11112SOL     OW33913   9.600   9.063   6.434 -0.4581  0.3416 -0.2450
11112SOL    HW133914   9.514   9.104   6.428 -0.2945  0.8298  0.4846
11112SOL    HW233915   9.583   8.969   6.439 -0.9884  0.4685  0.4674
11113SOL     OW33916   2.215   4.996   3.123 -0.4507  0.1976 -0.1261
11113SOL    HW133917   2.217   4.928   3.190  2.4888  0.8594  0.5965
11113SOL    HW233918   2.233   5.077   3.171 -0.6489  1.0473 -1.4243
11114SOL     OW33919   0.616   4.077   3.957 -0.0907 -0.1374 -0.1217
11114SOL    HW133920   0.623   4.145   3.890  1.8026 -0.2420 -0.0756
11114SOL    HW233921   0.545   4.020   3.926  1.8574 -1.1941 -3.0360
11115SOL     OW33922   5.928   6.862   8.850  0.3944  0.3323  0.3295
11115SOL    HW133923   6.009   6.843   8.897  1.1663  1.5060 -0.4792
11115SOL    HW233924   5.865   6.798   8.884  2.1959 -2.0392 -0.5699
11116SOL     OW33925   6.326   0.592   5.559  0.3599  0.2946 -1.0447
11116SOL    HW133926   6.345   0.670   5.508 -0.1533  1.5115  0.5275
11116SOL    HW233927   6.236   0.606   5.591  0.9195 -0.0101  0.7934
11117SOL     OW33928   4.844   0.875   4.333  0.0408 -0.2346 -0.4864
11117SOL    HW133929   4.928   0.874   4.288 -0.5883 -1.0440 -1.7264
11117SOL    HW233930   4.821   0.782   4.343  0.8445 -0.1910  2.9673
11118SOL     OW33931   3.463   3.036   0.108 -0.5643 -0.3842  0.1932
11118SOL    HW133932   3.489   2.975   0.039  0.5264 -0.2251  0.4310
11118SOL    HW233933   3.505   3.001   0.187  1.4725  1.4998  0.0461
11119SOL     OW33934   6.107   0.036   1.820 -0.0312  0.0819 -0.1238
11119SOL    HW133935   6.166   0.112   1.827  0.7823 -0.6141  1.0629
11119SOL    HW233936   6.096   0.023   1.726 -0.1222  1.6097 -0.3614
11120SOL     OW33937   6.396   3.274   5.815 -0.1071  0.2112  0.5456
11120SOL    HW133938   6.368   3.322   5.737  2.0089  1.5298  0.5315
11120SOL    HW233939   6.373   3.183   5.796  3.1083 -0.1192 -3.1588
11121SOL     OW33940   3.536   4.298  -0.002 -0.3829  0.1123 -0.5285
11121SOL    HW133941   3.568   4.280   0.087  1.0387  1.2455 -0.7593
11121SOL    HW233942   3.584   4.377  -0.029  2.5867 -2.4727 -3.8925
11122SOL     OW33943   8.767   1.977   6.192  0.3397  0.2975 -0.1963
11122SOL    HW133944   8.814   1.895   6.177  2.4000  1.0804  1.4337
11122SOL    HW233945   8.699   1.954   6.256 -1.4641 -0.7803 -2.3475
11123SOL     OW33946   5.031   1.499   8.303  0.0141  0.1515 -0.4625
11123SOL    HW133947   5.027   1.544   8.387 -2.2664  1.2994 -1.0894
11123SOL    HW233948   4.985   1.416   8.319  2.0886 -0.9637  0.0761
11124SOL     OW33949   2.411   8.411   8.824  0.0794  0.2013 -0.1377
11124SOL    HW133950   2.440   8.456   8.904 -0.5340  0.2598  0.0630
11124SOL    HW233951   2.485   8.417   8.764 -0.2466  2.1971 -0.4170
11125SOL     OW33952   8.303   1.483   7.001 -0.1125 -0.1440 -0.2506
11125SOL    HW133953   8.330   1.575   7.002  0.8531 -0.3789  2.2002
11125SOL    HW233954   8.243   1.475   7.075 -0.3784 -1.4457 -0.5821
11126SOL     OW33955   5.869   3.185   6.926  0.2627  0.4687  0.0089
11126SOL    HW133956   5.940   3.238   6.889 -0.3012  0.7782 -0.6687
11126SOL    HW233957   5.789   3.234   6.904 -0.2326 -0.3708 -0.1140
11127SOL     OW33958   2.243   1.668   3.712 -0.3524  0.2589 -0.6132
11127SOL    HW133959   2.238   1.732   3.783  0.1922 -2.1379  1.7366
11127SOL    HW233960   2.336   1.654   3.699 -0.2515 -3.5903  2.5355
11128SOL     OW33961   9.188   0.209   5.208  0.5179  0.0292 -0.7007
11128SOL    HW133962   9.208   0.292   5.164  1.3803  0.2629  0.1141
11128SOL    HW233963   9.202   0.226   5.301  0.8341 -1.0634 -0.5316
11129SOL     OW33964   8.177   6.734   3.975  0.3316  0.0985 -0.1102
11129SOL    HW133965   8.199   6.683   4.053  0.6160 -0.1589 -0.3551
11129SOL    HW233966   8.113   6.798   4.005  2.7327  2.1206  1.0697
11130SOL     OW33967   1.028   0.040   8.633 -0.0361  0.2978 -0.1953
11130SOL    HW133968   1.098   0.015   8.694 -1.1176  0.9462  1.3899
11130SOL    HW233969   1.006  -0.041   8.587  1.2106 -0.0841 -0.1522
11131SOL     OW33970   2.185   9.669   6.143 -0.4934 -0.8996 -0.1859
11131SOL    HW133971   2.211   9.657   6.234 -0.0215 -1.8300 -0.4390
11131SOL    HW233972   2.265   9.656   6.093 -0.3231  1.4725 -0.6418
11132SOL     OW33973   5.486   1.345   1.301  0.1587 -0.3743 -0.1373
11132SOL    HW133974   5.465   1.403   1.374  0.6827  0.4264 -0.5983
11132SOL    HW233975   5.414   1.357   1.239  0.7683  0.5760 -0.6806
11133SOL     OW33976   8.474   8.403   9.624  0.1593 -0.1777  0.1874
11133SOL    HW133977   8.445   8.451   9.702  1.5031 -0.9087  1.1757
11133SOL    HW233978   8.546   8.348   9.655  0.7103 -0.5106 -1.5833
11134SOL     OW33979   1.515   6.410   9.219 -0.3587  0.2882 -0.1750
11134SOL    HW133980   1.525   6.493   9.265  1.1667  0.1541 -0.2179
11134SOL    HW233981   1.428   6.416   9.178 -0.9538  1.1747  1.1412
11135SOL     OW33982   2.999   8.214   2.053  0.7908 -0.0150 -0.1445
11135SOL    HW133983   3.007   8.129   2.011 -0.0098  0.0206 -0.3956
11135SOL    HW233984   2.904   8.227   2.063  0.8405  1.3230 -1.1100
11136SOL     OW33985   1.889   3.443   7.113  0.5910 -0.1256 -0.5145
11136SOL    HW133986   1.895   3.444   7.017  0.9232 -0.0211 -0.4930
11136SOL    HW233987   1.834   3.366   7.132 -0.1539  0.3165 -0.8172
11137SOL     OW33988   4.735   4.056   1.887 -0.0245  0.2333  0.1695
11137SOL    HW133989   4.753   4.115   1.814 -1.4950 -1.0985 -1.3656
11137SOL    HW233990   4.783   3.976   1.866 -1.5928 -0.6751 -0.1516
11138SOL     OW33991   4.954   8.868   3.059  0.1145 -0.1042 -0.1013
11138SOL    HW133992   4.876   8.839   3.010 -0.2177  1.5613 -0.5975
11138SOL    HW233993   4.987   8.943   3.010  0.3486  1.0271  1.6999
11139SOL     OW33994   2.909   1.180   1.426  0.1186 -0.3646  0.1302
11139SOL    HW133995   2.959   1.218   1.353 -0.4090  1.6540  0.7716
11139SOL    HW233996   2.821   1.171   1.391 -0.0723  0.3496  0.4045
11140SOL     OW33997   2.590   6.410   7.721  0.3872  0.9707  0.6482
11140SOL    HW133998   2.601   6.348   7.648 -0.3846  0.7874  0.6853
11140SOL    HW233999   2.604   6.357   7.800  1.6954  1.2644  0.6448
11141SOL     OW34000   4.658   8.191   3.461  0.6378  0.3328  0.0298
11141SOL    HW134001   4.736   8.163   3.412  2.1161  0.5529  2.1058
11141SOL    HW234002   4.690   8.264   3.515 -1.2426  0.9606  0.3515
11142SOL     OW34003   7.475   9.201   8.438  0.2193 -0.2399 -0.6929
11142SOL    HW134004   7.456   9.285   8.396 -2.0940 -1.1048 -1.4911
11142SOL    HW234005   7.570   9.202   8.450  0.3869  2.0172 -1.6748
11143SOL     OW34006   4.041   1.966   3.480  0.7511  0.0147  0.0788
11143SOL    HW134007   4.117   2.007   3.520  1.0766  0.9212 -1.3767
11143SOL    HW234008   4.059   1.872   3.484  0.8760  0.0934  1.7682
11144SOL     OW34009   3.470   5.531   2.124 -0.7447  0.6343  0.0865
11144SOL    HW134010   3.408   5.484   2.068  0.2214  0.8051 -1.1564
11144SOL    HW234011   3.546   5.473   2.129 -0.2454  1.2814  0.0079
11145SOL     OW34012   6.883   4.384   5.360 -0.3375 -0.0952  0.3916
11145SOL    HW134013   6.789   4.400   5.357 -0.0909  1.3156 -1.0687
11145SOL    HW234014   6.892   4.307   5.417 -2.3059  0.0451  0.9835
11146SOL     OW34015   0.002   9.536   0.793  0.6198  0.3389 -0.5075
11146SOL    HW134016  -0.019   9.625   0.820  1.9827  0.9269 -1.3020
11146SOL    HW234017   0.065   9.546   0.722  0.3259 -1.2501 -1.0516
11147SOL     OW34018   4.256   2.162   0.621  0.4017  0.0207 -0.3736
11147SOL    HW134019   4.165   2.144   0.642  0.6055 -1.0340 -0.3396
11147SOL    HW234020   4.281   2.091   0.562  0.8293  1.0253 -1.4325
11148SOL     OW34021   7.958   1.843   0.803  0.0322  0.0450 -0.6078
11148SOL    HW134022   7.975   1.757   0.841  1.3062  0.8875  0.8627
11148SOL    HW234023   8.028   1.898   0.838 -1.0524  1.7975 -1.1062
11149SOL     OW34024   9.296   0.273   8.635  0.2646 -0.2137  0.0160
11149SOL    HW134025   9.351   0.333   8.583 -0.7497  1.7758  1.1264
11149SOL    HW234026   9.211   0.316   8.638  0.0358 -0.7219  2.5235
11150SOL     OW34027   8.091   2.501   6.567  0.1363  0.6718 -0.6091
11150SOL    HW134028   8.035   2.527   6.641 -1.5328  0.0385 -1.6071
11150SOL    HW234029   8.140   2.580   6.546  0.0758  1.0829  0.6635
11151SOL     OW34030   2.215   0.599   2.228  0.4027  0.0977 -0.3482
11151SOL    HW134031   2.150   0.541   2.188  0.0204  1.0487 -1.1312
11151SOL    HW234032   2.193   0.686   2.196  0.5015  0.8156  1.4036
11152SOL     OW34033   0.953   8.920   0.093  0.3067  0.2516 -0.2388
11152SOL    HW134034   0.945   8.828   0.067  0.1440  0.2859 -0.3151
11152SOL    HW234035   0.908   8.968   0.023 -0.4454  0.3215  0.2889
11153SOL     OW34036   2.419   6.556   1.759  0.4579  0.0737 -0.4778
11153SOL    HW134037   2.384   6.585   1.675  2.3193 -0.2676 -1.4432
11153SOL    HW234038   2.380   6.615   1.824 -0.6493  0.6474 -1.6261
11154SOL     OW34039   2.638   1.964   3.443  0.2581 -0.4316 -0.1675
11154SOL    HW134040   2.621   1.882   3.490  0.0259  0.4884  1.4355
11154SOL    HW234041   2.728   1.987   3.466  0.1247  0.0614 -0.1245
11155SOL     OW34042   0.208   7.566   0.644  0.4177  0.3201 -0.5332
11155SOL    HW134043   0.297   7.601   0.641  0.6642 -0.0289  1.4486
11155SOL    HW234044   0.211   7.499   0.712 -0.6254 -1.9423 -2.5495
11156SOL     OW34045   7.314   8.484   1.059 -0.6787  0.1247  0.5762
11156SOL    HW134046   7.220   8.488   1.078 -0.9402 -0.5801 -0.4827
11156SOL    HW234047   7.356   8.513   1.140 -1.8457  2.5530  0.3874
11157SOL     OW34048   3.181   5.008   5.742  0.7636  0.2187  0.2160
11157SOL    HW134049   3.196   4.930   5.795  0.0958 -0.5063 -0.6259
11157SOL    HW234050   3.113   4.982   5.679  2.3001  0.6815 -1.7402
11158SOL     OW34051   3.709   9.651   8.925  0.0362 -0.0803 -0.9356
11158SOL    HW134052   3.691   9.656   8.831  0.1768 -0.8607 -1.0122
11158SOL    HW234053   3.623   9.643   8.966 -0.1780  2.1467 -0.8305
11159SOL     OW34054   2.445   5.214   5.488 -0.3501 -0.0293  0.1661
11159SOL    HW134055   2.480   5.295   5.525  0.4662 -0.2501 -0.0986
11159SOL    HW234056   2.410   5.240   5.403 -0.2917  0.0888  0.1779
11160SOL     OW34057   4.122   0.591   2.918 -0.4032  0.2463  0.5645
11160SOL    HW134058   4.163   0.542   2.989  1.2532 -0.0618 -0.5389
11160SOL    HW234059   4.108   0.678   2.955  1.8185  0.5498  0.8890
11161SOL     OW34060   2.499   3.416   9.285  0.6638 -0.1857  0.1025
11161SOL    HW134061   2.466   3.458   9.205 -1.4750 -0.9003  0.5476
11161SOL    HW234062   2.578   3.370   9.257  0.5960  0.5352 -1.3538
11162SOL     OW34063   2.098   9.865   1.669  0.3767 -0.0140  0.1047
11162SOL    HW134064   2.036   9.800   1.702  1.3764 -0.5223  1.0471
11162SOL    HW234065   2.122   9.916   1.747  0.6057  0.6401 -0.3884
11163SOL     OW34066   7.463   4.488   4.039 -0.2357 -0.4157 -0.2750
11163SOL    HW134067   7.485   4.396   4.022 -0.7368 -0.2001 -2.4727
11163SOL    HW234068   7.530   4.518   4.100  0.5834 -1.9535 -0.3539
11164SOL     OW34069   8.291   0.242   8.691  0.2250 -0.5097  0.0634
11164SOL    HW134070   8.328   0.246   8.602 -0.8380 -4.0850 -0.7108
11164SOL    HW234071   8.204   0.281   8.682  0.5738  0.2332 -0.1624
11165SOL     OW34072   6.382   5.805   9.093  0.1234 -0.2096  0.2846
11165SOL    HW134073   6.335   5.803   9.176 -1.2803 -0.3887 -0.4900
11165SOL    HW234074   6.347   5.882   9.047  1.2257  0.1684  0.0287
11166SOL     OW34075   6.798   4.879   0.519 -0.0970  0.2225  0.2215
11166SOL    HW134076   6.774   4.927   0.439  0.9453  0.1190 -0.1699
11166SOL    HW234077   6.787   4.942   0.589 -2.9480 -0.2210  0.3120
11167SOL     OW34078   5.514   5.069   7.544  0.0561 -0.1459  0.0851
11167SOL    HW134079   5.459   5.141   7.512  0.7642  0.1412 -0.5258
11167SOL    HW234080   5.544   5.025   7.464  1.0837 -0.0095  0.3795
11168SOL     OW34081   3.588   3.953   3.556 -0.0165 -0.4246  0.7141
11168SOL    HW134082   3.498   3.977   3.534  0.3012 -0.0111 -0.1742
11168SOL    HW234083   3.621   3.907   3.479  0.7146 -0.0753  0.8052
11169SOL     OW34084   8.738   7.296   5.429  0.3051  0.1434  0.1097
11169SOL    HW134085   8.667   7.309   5.366  0.2791 -0.5506 -0.0097
11169SOL    HW234086   8.771   7.385   5.446 -1.2631  0.6192  0.9631
11170SOL     OW34087   7.198   0.836   3.532  0.8450  0.2308 -0.2290
11170SOL    HW134088   7.155   0.777   3.594  1.8140 -1.3966 -1.0367
11170SOL    HW234089   7.259   0.886   3.586 -1.8407  2.5082  0.9154
11171SOL     OW34090   1.090   1.836   3.854 -0.2983  0.2252 -0.0105
11171SOL    HW134091   1.158   1.834   3.922  0.3713 -0.3987 -0.6829
11171SOL    HW234092   1.134   1.871   3.777 -0.4693 -1.0681 -0.7177
11172SOL     OW34093   5.026   4.146   0.672 -0.6836 -0.2465  0.4217
11172SOL    HW134094   4.997   4.217   0.615  0.9024 -0.3854 -0.6507
11172SOL    HW234095   5.118   4.166   0.691 -0.9737 -0.6051  2.3578
11173SOL     OW34096   3.744   7.525   8.314 -0.1739  0.1176 -0.1851
11173SOL    HW134097   3.771   7.549   8.403  0.4570  0.1536 -0.3814
11173SOL    HW234098   3.803   7.575   8.257 -1.5228  1.2246 -0.6510
11174SOL     OW34099   4.688   5.977   9.626 -0.2803  0.0096 -0.7703
11174SOL    HW134100   4.606   6.026   9.624 -0.3539 -0.0603  0.1371
11174SOL    HW234101   4.753   6.038   9.591 -0.2625  0.9958  0.8816
11175SOL     OW34102   2.786   3.259   1.223 -0.0090 -0.3351 -0.2382
11175SOL    HW134103   2.837   3.296   1.295 -1.3734 -0.2329  0.7169
11175SOL    HW234104   2.825   3.297   1.145 -1.0857  2.9402  0.6453
11176SOL     OW34105   1.112   0.346   1.727 -0.3884  0.3040  0.4085
11176SOL    HW134106   1.160   0.315   1.804 -1.1030  0.2710  0.8506
11176SOL    HW234107   1.142   0.289   1.656 -0.1284 -0.0261  0.7773
11177SOL     OW34108   2.076   4.777   7.270  0.0613  0.4831 -0.3962
11177SOL    HW134109   2.017   4.852   7.269  0.0785  0.4994 -0.2309
11177SOL    HW234110   2.070   4.740   7.182 -1.2415 -0.3327 -0.0021
11178SOL     OW34111   2.823   2.695   3.231 -0.2427 -0.2661 -0.0750
11178SOL    HW134112   2.849   2.608   3.263  1.1939  0.3672  0.6010
11178SOL    HW234113   2.789   2.679   3.143  0.8590 -1.4211 -0.3306
11179SOL     OW34114   3.757   5.908   0.927  0.1050 -0.1681  0.1514
11179SOL    HW134115   3.802   5.831   0.962 -1.7419 -0.5195  1.9859
11179SOL    HW234116   3.674   5.873   0.893 -0.6086  0.9294  0.6976
11180SOL     OW34117   2.244   8.130   9.318  0.3311  0.6334 -0.4638
11180SOL    HW134118   2.198   8.135   9.234 -2.4966  0.1958  0.9407
11180SOL    HW234119   2.311   8.199   9.312 -0.6958  1.5627 -2.5266
11181SOL     OW34120   6.709   4.873   4.230 -0.1330  0.5215 -0.0083
11181SOL    HW134121   6.691   4.797   4.175  0.8550 -0.9663  1.6560
11181SOL    HW234122   6.796   4.903   4.202  0.6422 -0.6121  1.0975
11182SOL     OW34123   3.411   2.049   1.206 -0.0827  0.5745  0.3834
11182SOL    HW134124   3.342   2.057   1.140 -0.5979  0.6426  0.9240
11182SOL    HW234125   3.379   1.983   1.268  0.3188  0.6325  0.6606
11183SOL     OW34126   2.848   8.442   5.288  0.1045  0.2100 -0.4520
11183SOL    HW134127   2.941   8.455   5.267  0.1438  0.2474 -0.2532
11183SOL    HW234128   2.849   8.401   5.374 -0.1675  3.9010  1.5068
11184SOL     OW34129   4.985   2.283   4.585 -0.4044  0.6870  0.8831
11184SOL    HW134130   4.952   2.326   4.506  1.6983  1.9584  0.6138
11184SOL    HW234131   4.930   2.316   4.656  0.1851  2.7158  0.4567
11185SOL     OW34132   6.172   8.271   6.138  0.2280 -0.3700  0.2119
11185SOL    HW134133   6.159   8.187   6.095 -1.5222 -0.5156  0.9202
11185SOL    HW234134   6.250   8.259   6.192  1.3248 -0.7732 -1.3931
11186SOL     OW34135   6.734   5.366   4.487 -0.4040 -0.2116 -0.1451
11186SOL    HW134136   6.762   5.279   4.518 -3.6204 -0.9324  1.1418
11186SOL    HW234137   6.669   5.348   4.420 -2.1159  1.1140  1.0692
11187SOL     OW34138   7.092   6.253   3.821  0.6086  0.5742 -0.5025
11187SOL    HW134139   7.070   6.233   3.730  0.8223  0.5062 -0.5393
11187SOL    HW234140   7.112   6.346   3.821 -2.0629  1.2375 -0.0169
11188SOL     OW34141   5.122   9.789   3.914 -0.1759  0.7143  0.1416
11188SOL    HW134142   5.090   9.740   3.990  1.4335  0.8913  0.9810
11188SOL    HW234143   5.177   9.858   3.951 -0.4829  1.6837 -1.1347
11189SOL     OW34144   1.891   7.531   6.089  0.3744 -0.0065 -0.0743
11189SOL    HW134145   1.957   7.585   6.047  0.9116  0.0480  0.8260
11189SOL    HW234146   1.933   7.498   6.168 -1.1988  1.4073  1.4219
11190SOL     OW34147   4.475   2.801   8.720 -0.0733 -0.3543 -0.0853
11190SOL    HW134148   4.547   2.805   8.656 -0.1226 -1.7441 -0.2633
11190SOL    HW234149   4.396   2.811   8.667 -0.0655 -0.2819 -0.0837
11191SOL     OW34150   7.136   6.289   4.454 -0.2990  0.0966 -0.2560
11191SOL    HW134151   7.159   6.363   4.509  1.5693  0.4916 -1.4708
11191SOL    HW234152   7.143   6.212   4.511 -2.0077  0.7883  0.9482
11192SOL     OW34153   8.531   0.932   8.186  0.0750  0.1599 -0.0016
11192SOL    HW134154   8.612   0.945   8.236  0.3557 -1.4336  0.0272
11192SOL    HW234155   8.517   1.015   8.140  1.2222  0.7755  0.7102
11193SOL     OW34156   2.991   6.246   5.598 -0.6258 -0.5759  0.1708
11193SOL    HW134157   2.974   6.305   5.671  1.2325 -1.0549  1.0510
11193SOL    HW234158   3.052   6.293   5.542 -3.8963  0.8429 -2.5594
11194SOL     OW34159   2.656   8.240   1.753 -0.0923  0.0791  1.2860
11194SOL    HW134160   2.631   8.149   1.734  0.1243  0.4465 -1.1071
11194SOL    HW234161   2.611   8.291   1.685  3.6977  1.1901 -0.6464
11195SOL     OW34162   0.702   1.626   9.895  0.5262 -0.1996 -0.2285
11195SOL    HW134163   0.653   1.615   9.976 -0.4580 -0.1893 -0.8065
11195SOL    HW234164   0.723   1.536   9.867 -1.9203 -0.4055 -1.6040
11196SOL     OW34165   3.927   1.015   1.596 -0.6600 -0.3070 -0.7016
11196SOL    HW134166   3.946   1.009   1.690  0.8927 -1.9132 -1.0600
11196SOL    HW234167   3.839   1.052   1.592 -0.3680  0.7661  1.3514
11197SOL     OW34168   0.095   0.091   4.526 -0.1343 -0.1574 -0.4696
11197SOL    HW134169   0.182   0.129   4.523 -0.6576  1.1829  0.3302
11197SOL    HW234170   0.093   0.028   4.454  0.3890  2.2506 -2.7575
11198SOL     OW34171   5.506   7.522   5.857 -0.3580  0.1636  0.2001
11198SOL    HW134172   5.596   7.551   5.868 -0.2850 -0.4324  1.4180
11198SOL    HW234173   5.514   7.428   5.839 -0.7526 -0.1015  1.3275
11199SOL     OW34174   6.990   9.408   3.075  0.2795 -0.6434 -0.1125
11199SOL    HW134175   6.920   9.355   3.115  0.2812 -1.8836 -1.6595
11199SOL    HW234176   7.066   9.392   3.131  0.3076 -2.4063 -0.6008
11200SOL     OW34177   5.332   2.967   2.581 -0.0457  0.1034 -0.3992
11200SOL    HW134178   5.356   2.961   2.674 -0.3350  1.5178 -0.2169
11200SOL    HW234179   5.324   2.876   2.553  1.4872 -0.3753  0.5736
11201SOL     OW34180   2.358   1.844   5.976 -0.3145 -0.1064  0.1447
11201SOL    HW134181   2.382   1.773   5.916  0.5413  0.2833  0.0233
11201SOL    HW234182   2.281   1.885   5.935 -1.0066 -1.1428  0.3669
11202SOL     OW34183   6.555   6.369   4.647  0.1857  0.2009 -0.0156
11202SOL    HW134184   6.534   6.449   4.695  1.6310 -0.1346  1.2650
11202SOL    HW234185   6.583   6.400   4.561 -1.1355  0.9097 -0.2296
11203SOL     OW34186   6.928   4.488   8.591  0.2904  0.6614  0.4876
11203SOL    HW134187   6.944   4.524   8.504  0.4209  1.6360  0.9048
11203SOL    HW234188   6.941   4.394   8.581  0.1826  0.7511 -0.5696
11204SOL     OW34189   5.962   0.498   5.930  0.4717 -0.0912  0.1575
11204SOL    HW134190   6.019   0.553   5.984 -0.6442  2.0542 -0.7267
11204SOL    HW234191   5.877   0.504   5.972  0.1015 -0.2850 -0.5525
11205SOL     OW34192   7.810   0.116   4.790 -0.1006  0.2624  0.3047
11205SOL    HW134193   7.782   0.105   4.881  0.5849  0.8829  0.6005
11205SOL    HW234194   7.900   0.084   4.789  0.2439  1.1986  0.0873
11206SOL     OW34195   0.717   5.170   3.782 -0.3955 -0.6982  0.1304
11206SOL    HW134196   0.636   5.149   3.738  0.0446 -1.7297 -0.2072
11206SOL    HW234197   0.723   5.108   3.855  0.1669 -0.7569  0.0455
11207SOL     OW34198   4.074   9.716   4.204 -0.6367  0.2898  0.1280
11207SOL    HW134199   4.062   9.806   4.174  0.4177  1.2708  2.3919
11207SOL    HW234200   4.146   9.721   4.267 -0.8851 -2.0677  0.7053
11208SOL     OW34201   0.132   5.798   2.376  0.0103 -0.1913  0.0428
11208SOL    HW134202   0.103   5.887   2.355  1.8072  0.8874  1.7600
11208SOL    HW234203   0.053   5.752   2.402 -0.6969  1.5395  1.1121
11209SOL     OW34204   0.884   8.466   3.994 -0.6541  0.3022  0.1823
11209SOL    HW134205   0.899   8.536   4.058 -0.5298  0.8763 -0.4693
11209SOL    HW234206   0.949   8.399   4.017  0.3127  1.0924 -0.1843
11210SOL     OW34207   3.795   8.161   0.791 -0.6053 -0.0493 -0.3470
11210SOL    HW134208   3.835   8.240   0.754 -1.4884 -0.7772 -3.1042
11210SOL    HW234209   3.869   8.113   0.829  0.2841  1.1355 -0.5280
11211SOL     OW34210   7.587   6.914   6.728  0.3198 -0.1553  0.2733
11211SOL    HW134211   7.621   7.001   6.752 -0.4964  0.5994 -1.2152
11211SOL    HW234212   7.493   6.920   6.743  0.2014 -0.6460 -0.2686
11212SOL     OW34213   6.620   1.703   7.189 -0.0978 -0.1123 -0.3013
11212SOL    HW134214   6.591   1.794   7.189 -2.3835 -0.7774  0.2392
11212SOL    HW234215   6.660   1.691   7.275  0.6600  0.4953 -0.5620
11213SOL     OW34216   7.557   8.002   3.193 -1.0472  0.1869 -0.2044
11213SOL    HW134217   7.471   7.983   3.230 -0.8445  1.6688  1.1453
11213SOL    HW234218   7.616   7.942   3.239 -1.4383 -1.4467 -1.7631
11214SOL     OW34219   1.886   1.788   4.393  1.0028 -0.6210 -0.1070
11214SOL    HW134220   1.852   1.859   4.448 -1.2078 -1.1404 -0.7101
11214SOL    HW234221   1.921   1.831   4.315  0.2389 -0.1573 -0.1926
11215SOL     OW34222   5.226   4.668   7.785 -0.2141  0.0814 -0.4274
11215SOL    HW134223   5.144   4.623   7.762  0.5615 -1.4025 -0.3357
11215SOL    HW234224   5.197   4.746   7.834 -1.5441 -0.8503  0.3330
11216SOL     OW34225   5.293   8.695   1.393 -0.3744 -0.3311  0.7230
11216SOL    HW134226   5.307   8.695   1.298  1.5489 -0.8595  0.9501
11216SOL    HW234227   5.203   8.665   1.404 -1.1144  1.0541 -0.9537
11217SOL     OW34228   8.339   9.552   6.094 -0.0503  0.7255  0.2917
11217SOL    HW134229   8.258   9.543   6.144 -1.4217  0.5580 -1.8485
11217SOL    HW234230   8.320   9.619   6.029 -0.0724 -2.3053 -3.1197
11218SOL     OW34231   4.784   7.490   0.549 -0.0687  0.2582 -0.1462
11218SOL    HW134232   4.841   7.413   0.552 -0.4851 -0.0357  2.8912
11218SOL    HW234233   4.799   7.535   0.632 -4.0622  0.2552  0.7937
11219SOL     OW34234   5.216   9.466   6.526  0.0451  0.6903  0.2075
11219SOL    HW134235   5.279   9.491   6.593  2.2334 -0.0195 -1.4790
11219SOL    HW234236   5.256   9.494   6.443 -1.6531 -0.1970 -0.9855
11220SOL     OW34237   7.176   5.228   4.674 -0.2458  0.0820 -0.2792
11220SOL    HW134238   7.265   5.232   4.641 -0.7194 -0.6087 -1.7002
11220SOL    HW234239   7.163   5.136   4.696 -0.2145  0.3874  1.1298
11221SOL     OW34240   2.889   2.457   1.306  0.3416  0.3601  0.3485
11221SOL    HW134241   2.867   2.548   1.323 -1.9245 -0.1093  0.1884
11221SOL    HW234242   2.838   2.408   1.370 -1.9273 -0.9987 -2.3144
11222SOL     OW34243   1.096   5.617   9.593  0.2979  0.3725 -0.0184
11222SOL    HW134244   1.156   5.692   9.589 -0.4420  0.9476 -0.4251
11222SOL    HW234245   1.075   5.598   9.502  0.5084 -0.3641  0.0810
11223SOL     OW34246   3.032   6.300   4.386  0.7045  0.1324 -0.0776
11223SOL    HW134247   3.125   6.319   4.388  0.7034  0.3826 -1.5228
11223SOL    HW234248   3.025   6.217   4.340  0.1254  0.9385 -1.5175
11224SOL     OW34249   6.091   4.345   6.457 -0.1601  0.7989  0.0580
11224SOL    HW134250   6.000   4.349   6.427 -0.1358 -1.0369 -0.4278
11224SOL    HW234251   6.142   4.339   6.376  0.2801  0.5264  0.3527
11225SOL     OW34252   4.517   1.882   5.445  0.0067  0.7257  0.0178
11225SOL    HW134253   4.592   1.902   5.500 -0.2882  2.0152 -0.0105
11225SOL    HW234254   4.442   1.920   5.492 -0.4166  0.7481 -0.6518
11226SOL     OW34255   1.333   3.961   1.915 -0.1599 -0.1899  0.2595
11226SOL    HW134256   1.357   3.881   1.961 -0.8658  0.2909  1.5343
11226SOL    HW234257   1.241   3.974   1.936 -0.1998  0.6783 -0.3693
11227SOL     OW34258   1.713   1.858   9.444 -0.1847 -0.5129 -0.9274
11227SOL    HW134259   1.633   1.910   9.451 -0.2647 -0.7223 -0.1595
11227SOL    HW234260   1.782   1.917   9.474 -0.7993 -2.1199  4.9370
11228SOL     OW34261   3.773   8.855   4.131  0.7584 -0.0983  0.0557
11228SOL    HW134262   3.799   8.880   4.220  0.2295 -0.4237  0.3070
11228SOL    HW234263   3.722   8.929   4.099 -0.6056 -0.7217  0.7115
11229SOL     OW34264   8.554   7.095   0.900 -0.3053  0.1637  0.0953
11229SOL    HW134265   8.649   7.095   0.889 -0.4877 -0.7250 -1.9949
11229SOL    HW234266   8.535   7.015   0.948 -0.0435 -0.1051 -0.2417
11230SOL     OW34267   9.095   8.332   8.160 -0.8133 -0.1104 -0.3228
11230SOL    HW134268   9.133   8.259   8.207  0.6222  0.6553 -0.2539
11230SOL    HW234269   9.001   8.313   8.158 -0.6884 -1.0492  1.2509
11231SOL     OW34270   0.456   6.417   5.897  0.0859  0.4860  0.1910
11231SOL    HW134271   0.526   6.354   5.913 -0.2845 -0.0755 -0.3279
11231SOL    HW234272   0.389   6.395   5.963  1.0611  2.1107  1.8111
11232SOL     OW34273   2.918   1.606   6.740 -0.1893  0.4626  0.1774
11232SOL    HW134274   2.896   1.653   6.820 -0.5082 -1.2334  1.1416
11232SOL    HW234275   2.913   1.513   6.765 -1.2914 -0.1514 -2.0352
11233SOL     OW34276   3.479   9.130   8.388 -0.2910 -0.0529  0.2350
11233SOL    HW134277   3.566   9.142   8.351 -0.3010 -0.8811 -0.0649
11233SOL    HW234278   3.449   9.219   8.409  0.8755  0.1883  0.9423
11234SOL     OW34279   8.190   3.047   2.138 -0.0612  0.2848 -0.4400
11234SOL    HW134280   8.121   2.995   2.096 -1.0295  0.9751  0.2425
11234SOL    HW234281   8.255   2.983   2.166 -0.8379 -0.4850 -0.3382
11235SOL     OW34282   0.468   3.518   7.658  0.0930 -0.0402 -0.2809
11235SOL    HW134283   0.512   3.499   7.575  0.1602  1.7155 -0.6861
11235SOL    HW234284   0.395   3.456   7.662  1.3416 -1.6092 -0.5855
11236SOL     OW34285   9.672   7.025   6.182 -0.3329 -0.3048 -0.7305
11236SOL    HW134286   9.597   7.047   6.237 -0.4988 -1.0641 -0.6361
11236SOL    HW234287   9.741   7.086   6.210 -0.4409 -0.6149  0.2822
11237SOL     OW34288   4.553   5.447   4.610  0.2036 -0.7964 -0.0980
11237SOL    HW134289   4.640   5.408   4.612  0.4379 -0.3031 -0.4232
11237SOL    HW234290   4.567   5.539   4.632  0.0573 -0.2343 -2.1364
11238SOL     OW34291   1.654   1.289   3.016  0.1113 -0.4464  0.0802
11238SOL    HW134292   1.714   1.300   3.090 -0.1444 -1.4096  0.4387
11238SOL    HW234293   1.699   1.230   2.956 -0.1762 -0.6004  0.0143
11239SOL     OW34294   1.533   2.331   0.390 -0.5081  0.5115  0.1102
11239SOL    HW134295   1.504   2.325   0.299 -4.2201  0.0235  1.1563
11239SOL    HW234296   1.497   2.413   0.422 -1.0199 -0.2580  1.6294
11240SOL     OW34297   8.139   7.939   4.726 -0.5277  0.4551 -0.1165
11240SOL    HW134298   8.127   7.850   4.758 -0.7575  0.3051 -0.6028
11240SOL    HW234299   8.123   7.994   4.802  0.7784  0.0465  0.4826
11241SOL     OW34300   3.807   9.380   9.849  0.7426  0.0427  0.0884
11241SOL    HW134301   3.773   9.453   9.900 -0.3072  0.9542 -1.8020
11241SOL    HW234302   3.740   9.313   9.853 -0.2051  0.8386 -1.5334
11242SOL     OW34303   1.972   4.326   1.854  0.3008  0.0060 -0.1931
11242SOL    HW134304   1.971   4.370   1.769 -0.3082  0.9478  0.2887
11242SOL    HW234305   2.063   4.329   1.882  0.1322  1.7979  0.2468
11243SOL     OW34306   4.171   7.198   6.041 -0.2597 -0.0368 -0.2987
11243SOL    HW134307   4.099   7.135   6.040 -0.8416  0.6288 -1.2657
11243SOL    HW234308   4.167   7.237   6.129 -1.2250  0.1544 -0.4144
11244SOL     OW34309   6.593   0.125   7.514  0.2617 -0.1161  0.3045
11244SOL    HW134310   6.580   0.037   7.548 -1.2579  0.3506  1.0270
11244SOL    HW234311   6.581   0.117   7.420  1.8615 -0.9588  0.1386
11245SOL     OW34312   4.474   6.535   2.880  0.5194 -0.8264 -0.3502
11245SOL    HW134313   4.442   6.584   2.956  2.5099 -0.8450  0.5850
11245SOL    HW234314   4.419   6.457   2.876  1.4917 -1.7562  2.2734
11246SOL     OW34315   4.826   7.627   5.713 -0.4562 -0.9342 -0.1454
11246SOL    HW134316   4.813   7.533   5.705 -0.5659 -0.9742  0.4296
11246SOL    HW234317   4.798   7.647   5.803  0.3984 -0.4969  0.0292
11247SOL     OW34318   1.567   7.982   1.886  0.1730 -0.5760 -0.7972
11247SOL    HW134319   1.558   7.926   1.963 -0.0980 -0.5963 -0.8415
11247SOL    HW234320   1.510   8.056   1.904 -0.2532 -0.8069 -1.1824
11248SOL     OW34321   7.548   3.388   2.147  0.0198 -0.0970 -0.4523
11248SOL    HW134322   7.481   3.432   2.201 -1.9771 -1.6887 -1.4765
11248SOL    HW234323   7.521   3.405   2.057  0.2176 -1.8652 -0.8789
11249SOL     OW34324   3.940   8.469   5.765  0.4773  0.0037 -0.4329
11249SOL    HW134325   3.991   8.518   5.829  0.8926 -0.3674 -0.4681
11249SOL    HW234326   3.861   8.521   5.751  1.5599  1.4308 -1.5658
11250SOL     OW34327   5.794   8.411   2.800 -0.6575 -0.4264 -0.8442
11250SOL    HW134328   5.707   8.379   2.773 -2.6402  1.6527  2.3874
11250SOL    HW234329   5.778   8.456   2.883  3.0474  2.6243 -1.5339
11251SOL     OW34330   5.314   4.480   6.456 -0.3280  0.1248  0.3116
11251SOL    HW134331   5.400   4.522   6.459  0.3853 -1.1119 -1.2630
11251SOL    HW234332   5.333   4.387   6.442 -1.8858 -0.5808  2.2485
11252SOL     OW34333   4.084   6.985   5.240 -0.1211 -0.0463 -0.1976
11252SOL    HW134334   4.142   6.996   5.164  0.6687  1.8558  0.6168
11252SOL    HW234335   4.141   6.997   5.316 -1.5048  1.6295  0.6449
11253SOL     OW34336   2.522   1.039   6.272 -0.0943  0.1346 -0.0896
11253SOL    HW134337   2.602   1.012   6.225 -0.2327 -3.1556  1.2653
11253SOL    HW234338   2.550   1.050   6.362 -1.0387 -0.5827  0.3085
11254SOL     OW34339   5.225   1.885   7.062 -0.5705  0.3279 -0.1799
11254SOL    HW134340   5.148   1.937   7.087 -2.2465 -3.3260  3.3626
11254SOL    HW234341   5.287   1.897   7.134  0.9955  0.8428 -1.5423
11255SOL     OW34342   5.372   1.949   4.648  0.2485  0.3820  1.0402
11255SOL    HW134343   5.323   2.019   4.605 -1.1981 -0.1254  1.8337
11255SOL    HW234344   5.308   1.880   4.663  1.5268 -0.8960  0.7967
11256SOL     OW34345   9.643   0.433   0.097 -0.0042  0.0209  0.3669
11256SOL    HW134346   9.673   0.509   0.146  0.6681 -0.4653  0.7209
11256SOL    HW234347   9.721   0.399   0.055 -0.1470 -0.9088  0.8232
11257SOL     OW34348   4.451   9.650   5.613 -0.5800  0.5723 -0.4408
11257SOL    HW134349   4.465   9.657   5.519  0.8442  0.9857 -0.2221
11257SOL    HW234350   4.537   9.668   5.652 -1.2865  1.1007  0.9627
11258SOL     OW34351   3.328   4.184   1.956 -0.2690  0.4061 -0.2812
11258SOL    HW134352   3.362   4.210   2.041 -0.9173 -0.0133  0.1127
11258SOL    HW234353   3.357   4.094   1.944 -0.2748  0.4261 -0.4518
11259SOL     OW34354   1.551   7.652   7.291 -0.7938 -0.5498  0.3716
11259SOL    HW134355   1.510   7.600   7.222 -0.8511  0.5315 -0.4329
11259SOL    HW234356   1.644   7.655   7.267 -1.0111  0.9197 -0.4254
11260SOL     OW34357   2.372   9.136   0.374  0.5289 -0.1988  0.0448
11260SOL    HW134358   2.308   9.116   0.442  0.5646 -2.0555 -0.4040
11260SOL    HW234359   2.431   9.061   0.374  2.3518  1.1770  0.0034
11261SOL     OW34360   9.147   0.945   5.131  0.4201  0.2116  0.0372
11261SOL    HW134361   9.166   0.935   5.037  0.2490  2.2720 -0.2597
11261SOL    HW234362   9.229   0.979   5.168  0.3117 -0.0716  0.5406
11262SOL     OW34363   6.556   8.832   1.734  0.1230 -0.1219 -0.3513
11262SOL    HW134364   6.627   8.896   1.723  0.6489 -0.9635 -2.3926
11262SOL    HW234365   6.487   8.864   1.675 -0.0602 -0.8041 -0.5116
11263SOL     OW34366   0.440   8.238   9.493  0.5939  0.6357 -0.1003
11263SOL    HW134367   0.506   8.183   9.537  0.5036 -1.9346 -2.8523
11263SOL    HW234368   0.365   8.238   9.552  0.6815 -2.1563  0.1377
11264SOL     OW34369   2.984   4.736   8.245  0.1508  0.5637 -0.2135
11264SOL    HW134370   3.020   4.711   8.330 -0.3731 -0.5259 -0.2896
11264SOL    HW234371   2.924   4.807   8.265  0.6431  0.8641  0.2153
11265SOL     OW34372   5.734   8.293   5.412 -0.0698 -0.5610 -0.2327
11265SOL    HW134373   5.798   8.354   5.376 -1.7086  1.5500  0.2136
11265SOL    HW234374   5.734   8.219   5.351  1.7045  0.0381 -1.0260
11266SOL     OW34375   9.662   8.183   2.269 -0.5099  0.0204 -0.1918
11266SOL    HW134376   9.741   8.224   2.235 -0.3534 -0.1985 -0.0935
11266SOL    HW234377   9.689   8.093   2.291 -0.5517  0.2333  0.7426
11267SOL     OW34378   7.970   9.811   1.767  0.5198  0.1043  0.3506
11267SOL    HW134379   7.958   9.739   1.829  2.1346  0.0174  0.6117
11267SOL    HW234380   7.901   9.800   1.702  0.6609 -1.6133  0.4566
11268SOL     OW34381   3.897   5.380   9.495  0.4626  0.8865 -0.1044
11268SOL    HW134382   3.868   5.291   9.515 -0.7845  1.6115  1.5458
11268SOL    HW234383   3.990   5.371   9.472  0.2268 -0.8819 -0.4838
11269SOL     OW34384   6.573   3.707   2.896 -0.2843 -0.5752 -0.2117
11269SOL    HW134385   6.594   3.619   2.928  0.5951 -0.3187 -0.0530
11269SOL    HW234386   6.556   3.758   2.975 -0.3082 -0.4858 -0.2741
11270SOL     OW34387   8.511   0.294   4.391 -0.5178  0.3451 -0.8846
11270SOL    HW134388   8.504   0.383   4.426  0.3325  0.4820 -1.0591
11270SOL    HW234389   8.545   0.305   4.302 -0.9959 -0.1197 -1.1376
11271SOL     OW34390   8.900   8.730   3.745 -0.8665  0.0424 -0.2668
11271SOL    HW134391   8.845   8.797   3.704 -0.1625  1.4887  1.0404
11271SOL    HW234392   8.855   8.709   3.827  1.3044  2.6857  1.8166
11272SOL     OW34393   6.324   7.446   9.694 -0.1653 -0.7176  0.1987
11272SOL    HW134394   6.300   7.406   9.611  1.4698  0.1543 -0.7644
11272SOL    HW234395   6.266   7.406   9.759 -1.8525 -1.0304 -1.4318
11273SOL     OW34396   1.858   8.781   3.641  0.2839  0.3335  0.2170
11273SOL    HW134397   1.916   8.809   3.571 -0.6036  1.9243  0.0652
11273SOL    HW234398   1.832   8.692   3.617  1.1573  0.3021 -0.6784
11274SOL     OW34399   3.118   3.758   4.740 -0.1308  0.7549  0.5759
11274SOL    HW134400   3.040   3.799   4.776 -1.5247 -0.7115 -0.6014
11274SOL    HW234401   3.187   3.777   4.803 -1.4752  1.9097  1.7631
11275SOL     OW34402   1.226   2.724   8.264 -0.0825  0.4953  0.1926
11275SOL    HW134403   1.283   2.693   8.334 -1.6894  0.3159  1.4756
11275SOL    HW234404   1.260   2.811   8.241  2.2275 -0.6127 -0.9022
11276SOL     OW34405   4.669   5.043   8.996 -0.6279  0.7143  0.4785
11276SOL    HW134406   4.713   5.100   9.059 -1.1122  1.1504  0.4292
11276SOL    HW234407   4.578   5.074   8.994 -1.0500 -0.4347  0.8808
11277SOL     OW34408   4.291   9.723   5.140  0.0361 -0.4658  1.1230
11277SOL    HW134409   4.288   9.805   5.091  0.4724 -0.4712  1.0824
11277SOL    HW234410   4.200   9.704   5.161 -0.1188 -0.2644  0.6428
11278SOL     OW34411   7.680   6.517   0.130 -0.0581 -0.7278 -0.3400
11278SOL    HW134412   7.617   6.589   0.131  1.1232  0.3584  0.0803
11278SOL    HW234413   7.765   6.561   0.129  0.7048 -2.1289 -1.6881
11279SOL     OW34414   8.161   7.707   2.351 -0.0347 -0.2774  0.4000
11279SOL    HW134415   8.225   7.655   2.400 -0.7639 -0.9277  0.6861
11279SOL    HW234416   8.078   7.660   2.363 -0.6469  0.7710  0.3845
11280SOL     OW34417   5.785   7.332   4.646  0.0413 -0.5244 -0.5310
11280SOL    HW134418   5.735   7.274   4.703 -0.1026  0.1544  0.0458
11280SOL    HW234419   5.841   7.273   4.595  0.0467 -1.1528  0.1826
11281SOL     OW34420   0.737   6.267   4.290 -0.2128  0.1555 -0.6624
11281SOL    HW134421   0.673   6.326   4.330 -2.0070 -1.7146 -0.5792
11281SOL    HW234422   0.809   6.263   4.352 -0.3787  1.6686 -0.3463
11282SOL     OW34423   5.121   0.021   0.925 -0.0096  0.2749  0.1012
11282SOL    HW134424   5.081   0.060   0.847  0.2791 -0.3739 -0.3880
11282SOL    HW234425   5.068  -0.057   0.943  1.7120 -1.3587 -1.3520
11283SOL     OW34426   2.866   2.905   0.742  0.1367  0.4628 -0.1423
11283SOL    HW134427   2.782   2.905   0.695 -0.5074  0.1617  0.9686
11283SOL    HW234428   2.899   2.995   0.732 -0.9364  0.9492  0.4433
11284SOL     OW34429   8.933   3.330   0.171  0.9184 -0.3327 -0.3126
11284SOL    HW134430   8.858   3.272   0.181 -0.0740  0.6313 -1.7343
11284SOL    HW234431   8.898   3.406   0.125  2.7867  0.1289 -1.0558
11285SOL     OW34432   0.398   6.473   4.930  0.0884 -0.0431 -0.1991
11285SOL    HW134433   0.460   6.494   4.860 -0.1925  1.7391  0.0479
11285SOL    HW234434   0.452   6.446   5.004  0.5141  0.2896 -0.3846
11286SOL     OW34435   6.202   8.974   5.932  0.0726  0.4334  0.5872
11286SOL    HW134436   6.135   8.930   5.879  0.5958  1.0001 -0.5654
11286SOL    HW234437   6.238   8.904   5.987  1.1870 -0.7333 -1.5122
11287SOL     OW34438   5.351   5.944   0.329 -0.4498 -0.2790  0.6226
11287SOL    HW134439   5.408   5.887   0.380  1.3500  0.9084  0.0415
11287SOL    HW234440   5.356   6.029   0.372  0.5596  0.5760 -1.0531
11288SOL     OW34441   9.724   1.419   0.866 -0.5039 -0.2454 -0.0143
11288SOL    HW134442   9.739   1.325   0.881  0.3504 -0.5041 -2.1173
11288SOL    HW234443   9.647   1.439   0.918 -1.8320 -2.5709 -0.8942
11289SOL     OW34444   0.835   0.391   6.681  0.4617  0.4513 -0.2448
11289SOL    HW134445   0.886   0.414   6.758 -1.1493  0.7207  0.7981
11289SOL    HW234446   0.751   0.437   6.694 -0.0270  0.0830 -1.9007
11290SOL     OW34447   4.715   4.405   1.553  0.4255 -0.6516 -0.0606
11290SOL    HW134448   4.716   4.499   1.566  2.1197 -0.5794 -0.4568
11290SOL    HW234449   4.661   4.392   1.474  2.1513  0.2424 -1.4461
11291SOL     OW34450   4.762   5.492   0.835  0.4288  0.5164 -0.0802
11291SOL    HW134451   4.803   5.577   0.850  0.2872  0.3291  1.5343
11291SOL    HW234452   4.674   5.500   0.873  0.1709 -0.1311 -0.5255
11292SOL     OW34453   9.240   8.341   3.681 -0.2458  0.1668 -0.3145
11292SOL    HW134454   9.160   8.297   3.654  0.0710  0.3244 -1.5395
11292SOL    HW234455   9.231   8.430   3.649  0.2676  0.2771 -0.1552
11293SOL     OW34456   4.549   1.696   3.447  0.5533 -0.5399 -0.2169
11293SOL    HW134457   4.498   1.637   3.391 -0.2435 -1.1814  1.1206
11293SOL    HW234458   4.573   1.768   3.390  0.3544 -1.4829 -1.5522
11294SOL     OW34459   2.551   9.118   8.881 -0.1090  0.1683  0.2303
11294SOL    HW134460   2.491   9.106   8.807 -0.2942  1.8635  0.0669
11294SOL    HW234461   2.495   9.148   8.952  0.0086 -1.7815  1.2243
11295SOL     OW34462   8.087   3.606   5.851 -0.0972 -0.2064 -0.1247
11295SOL    HW134463   8.091   3.670   5.922  1.3234 -1.8280  1.3567
11295SOL    HW234464   7.994   3.592   5.836 -0.5350 -1.4727  3.0589
11296SOL     OW34465   1.292   6.797   3.419 -0.1576 -0.2124 -0.4554
11296SOL    HW134466   1.349   6.859   3.373  3.4522 -2.7315  0.2508
11296SOL    HW234467   1.291   6.719   3.363 -1.4456 -0.8855  0.4539
11297SOL     OW34468   3.514   3.701   0.638  0.3185 -0.6073 -0.4344
11297SOL    HW134469   3.505   3.655   0.554  0.4581 -1.2260 -0.1125
11297SOL    HW234470   3.606   3.694   0.660  0.2674 -0.5173 -0.1839
11298SOL     OW34471   1.707   6.911   8.479 -0.3185 -0.0640 -0.7726
11298SOL    HW134472   1.711   7.003   8.504 -1.3413  0.3285 -1.9594
11298SOL    HW234473   1.614   6.896   8.458 -0.4419 -1.7405  0.7466
11299SOL     OW34474   3.752   1.502   2.398  0.3217 -0.1757 -0.3026
11299SOL    HW134475   3.750   1.497   2.303  1.7825 -1.1009 -0.3184
11299SOL    HW234476   3.697   1.578   2.420  0.8371  0.7102 -1.9370
11300SOL     OW34477   9.454   5.812   2.204 -0.1828 -0.2810  0.0868
11300SOL    HW134478   9.362   5.797   2.223  0.0052 -0.1367  1.1764
11300SOL    HW234479   9.501   5.751   2.261  0.4586  1.5486  1.6269
11301SOL     OW34480   2.096   8.933   4.332  0.2964  0.2159 -0.1787
11301SOL    HW134481   2.022   8.951   4.275  0.6797  1.0876 -0.4156
11301SOL    HW234482   2.083   8.990   4.408  0.0225 -0.6134  0.4126
11302SOL     OW34483   5.117   9.955   6.352 -0.0274 -0.3749 -0.7691
11302SOL    HW134484   5.036   9.983   6.394  0.9759  0.6194  0.5784
11302SOL    HW234485   5.178   9.941   6.424  0.9831 -1.1995 -1.7505
11303SOL     OW34486   3.849   0.552   2.761 -0.4414  0.4713 -0.0286
11303SOL    HW134487   3.810   0.542   2.674  0.4913  0.2086 -0.4274
11303SOL    HW234488   3.942   0.535   2.748 -0.3909 -0.3106  1.1459
11304SOL     OW34489   9.399   7.032   1.747 -0.0220  0.0538  0.0977
11304SOL    HW134490   9.307   7.025   1.721  0.6172 -1.8839 -1.9588
11304SOL    HW234491   9.421   6.946   1.782  1.1861  0.2345 -0.1701
11305SOL     OW34492   3.022   3.652   1.543  0.1618  0.1082  0.3577
11305SOL    HW134493   2.944   3.688   1.586  0.2451  0.3701  0.2954
11305SOL    HW234494   3.084   3.636   1.615  0.7899  1.7664  0.2406
11306SOL     OW34495   9.746   7.146   1.714 -0.0033  0.5308 -0.2520
11306SOL    HW134496   9.702   7.061   1.705 -1.3835  1.2834 -0.9415
11306SOL    HW234497   9.838   7.124   1.727 -0.6410 -1.1353  2.0175
11307SOL     OW34498   2.571   2.348   3.774 -0.2321 -0.2387  0.6527
11307SOL    HW134499   2.525   2.272   3.810 -2.0425  0.3491 -0.3217
11307SOL    HW234500   2.506   2.417   3.772  0.1964  0.1959 -2.2447
11308SOL     OW34501   9.098   0.046   0.675 -0.3609  0.1063  0.1144
11308SOL    HW134502   9.097   0.081   0.764  0.3858 -0.0070  0.1762
11308SOL    HW234503   9.170  -0.018   0.675 -0.8800 -0.4911 -0.3457
11309SOL     OW34504   6.567   7.090   7.310 -0.3372 -0.5710  0.1733
11309SOL    HW134505   6.650   7.127   7.340 -0.0280 -0.9791 -0.1557
11309SOL    HW234506   6.521   7.066   7.391  0.0397 -0.7127  0.3503
11310SOL     OW34507   7.019   8.037   0.456  0.0301 -0.2650  0.0129
11310SOL    HW134508   7.042   8.130   0.449 -1.2056  0.0589  0.0030
11310SOL    HW234509   6.988   8.027   0.546 -3.8462  0.3630 -1.0526
11311SOL     OW34510   4.815   9.430   5.319  0.1879  0.4102  0.6849
11311SOL    HW134511   4.795   9.351   5.269 -1.7230  1.1710  0.1584
11311SOL    HW234512   4.844   9.397   5.405 -1.0037 -0.8638  0.6348
11312SOL     OW34513   3.027   0.467   2.065 -0.3929 -0.4331  0.5353
11312SOL    HW134514   2.947   0.483   2.115 -0.0108 -0.6221  1.2198
11312SOL    HW234515   3.081   0.414   2.123 -0.1299 -1.0609 -0.2650
11313SOL     OW34516   1.861   3.095   9.220 -0.1599  0.7828 -0.0665
11313SOL    HW134517   1.797   3.101   9.149  0.3049 -2.3600 -0.9061
11313SOL    HW234518   1.945   3.081   9.175  0.2805 -0.4004  1.0612
11314SOL     OW34519   4.380   5.992   4.690 -0.1509 -0.2520 -0.0549
11314SOL    HW134520   4.420   5.973   4.605 -0.1869 -2.3996  0.3438
11314SOL    HW234521   4.286   5.987   4.674 -0.1643 -0.2441  0.0188
11315SOL     OW34522   2.934   4.390   7.363 -0.4442  0.4794  0.6436
11315SOL    HW134523   2.877   4.318   7.335  1.1743 -0.3333 -0.6854
11315SOL    HW234524   3.009   4.347   7.403 -0.0780  1.5047  1.0985
11316SOL     OW34525   2.870   8.890   6.181  0.1582  0.1704  0.1687
11316SOL    HW134526   2.778   8.891   6.155 -0.0047 -2.1514  0.4237
11316SOL    HW234527   2.884   8.802   6.217  2.4851  0.4516  0.1205
11317SOL     OW34528   7.139   2.211   7.489 -0.4663  0.4842  0.0480
11317SOL    HW134529   7.131   2.116   7.478 -2.2343  0.4474  1.2259
11317SOL    HW234530   7.222   2.223   7.534  1.1740 -0.2211 -2.5377
11318SOL     OW34531   1.323   5.471   0.575  0.4076  0.0005  0.1243
11318SOL    HW134532   1.352   5.384   0.547 -0.4610 -0.6082  1.0252
11318SOL    HW234533   1.347   5.475   0.667 -0.4824  0.2885  0.3558
11319SOL     OW34534   5.988   1.882   3.486 -0.0266  0.0409 -0.1053
11319SOL    HW134535   5.993   1.955   3.548  0.0399  1.5100 -1.7618
11319SOL    HW234536   5.894   1.869   3.471 -0.0317  0.0002 -0.0356
11320SOL     OW34537   5.640   0.662   0.184  0.5050  0.3521  0.2405
11320SOL    HW134538   5.610   0.576   0.216 -0.5104  1.0506  1.2572
11320SOL    HW234539   5.728   0.671   0.221  0.4210 -0.0425  0.5544
11321SOL     OW34540   3.940   5.152   5.234 -0.4783  0.2594 -0.5366
11321SOL    HW134541   3.906   5.241   5.222 -0.2302  0.3113 -0.8466
11321SOL    HW234542   4.022   5.151   5.186 -0.8364 -0.3552 -1.1532
11322SOL     OW34543   8.874   7.986   2.523  0.0070  0.1434 -0.2468
11322SOL    HW134544   8.798   7.933   2.501  0.0949 -0.0091 -0.1818
11322SOL    HW234545   8.907   7.948   2.605 -1.3042  1.7282  1.0837
11323SOL     OW34546   4.445   6.924   2.666 -0.2291  0.3891 -0.2016
11323SOL    HW134547   4.366   6.977   2.662 -0.3548  0.2499  0.3419
11323SOL    HW234548   4.487   6.950   2.748  1.3866  1.9965 -1.4673
11324SOL     OW34549   4.764   5.264   1.296  0.4098  0.0405  0.5587
11324SOL    HW134550   4.829   5.256   1.226 -0.4044 -1.6543 -0.0576
11324SOL    HW234551   4.680   5.260   1.251 -0.1287 -0.0261  1.5374
11325SOL     OW34552   3.690   4.371   1.348  0.4109  0.4590  0.5109
11325SOL    HW134553   3.697   4.423   1.268  1.0311  2.4368  1.7905
11325SOL    HW234554   3.602   4.389   1.380  0.5613  0.5671  0.8632
11326SOL     OW34555   9.184   3.351   7.003 -0.3277  0.5855  0.3937
11326SOL    HW134556   9.147   3.439   6.988 -1.5162 -0.0699 -0.7897
11326SOL    HW234557   9.135   3.317   7.077  1.3605  1.5464  2.0254
11327SOL     OW34558   1.307   4.233   0.416  0.5010 -0.4581 -0.0314
11327SOL    HW134559   1.366   4.247   0.341 -0.4718 -0.6795 -0.8688
11327SOL    HW234560   1.286   4.140   0.411 -0.5226 -0.2269 -0.2227
11328SOL     OW34561   0.094   9.599   6.687  0.3310  0.0104  0.6253
11328SOL    HW134562   0.164   9.574   6.748  1.1595  1.6895  0.4226
11328SOL    HW234563   0.140   9.638   6.613 -0.8143  3.1048  1.4097
11329SOL     OW34564   3.782   1.316   5.673  0.0768 -0.7335 -0.5391
11329SOL    HW134565   3.710   1.348   5.728  2.0528  0.8336  1.3227
11329SOL    HW234566   3.818   1.394   5.633  1.0333 -1.4235 -1.0611
11330SOL     OW34567   7.365   5.316   5.359  0.5346 -0.3465  0.1410
11330SOL    HW134568   7.412   5.400   5.352 -1.0256  0.4872 -0.8205
11330SOL    HW234569   7.359   5.284   5.270 -1.0097 -0.2354  0.1707
11331SOL     OW34570   6.146   0.966   3.871 -0.2709 -0.2131  0.5929
11331SOL    HW134571   6.072   0.917   3.835 -0.5009  0.0377  0.7202
11331SOL    HW234572   6.154   0.934   3.961 -0.2458 -0.2180  0.5888
11332SOL     OW34573   8.637   7.088   6.488  0.4713  0.1394  0.6803
11332SOL    HW134574   8.681   7.159   6.442  0.8938 -0.0155  0.8406
11332SOL    HW234575   8.700   7.058   6.553  0.4266 -0.5944  0.4042
11333SOL     OW34576   4.286   3.242   7.349  0.2499  0.1645 -0.1292
11333SOL    HW134577   4.296   3.275   7.259  0.0520  0.9323  0.1298
11333SOL    HW234578   4.301   3.318   7.405 -0.0057 -0.2269  0.4801
11334SOL     OW34579   3.551   5.314   5.574 -0.3209  0.2475 -0.3283
11334SOL    HW134580   3.455   5.310   5.579 -0.2732 -0.1494  0.5149
11334SOL    HW234581   3.579   5.314   5.665  0.4756  0.7306 -0.5656
11335SOL     OW34582   6.348   9.112   8.992  0.0798  0.3121 -0.1031
11335SOL    HW134583   6.406   9.151   8.927  0.7650 -0.0973  0.2581
11335SOL    HW234584   6.321   9.028   8.955  0.5169  0.0524  0.1650
11336SOL     OW34585   7.060   7.216   3.804 -0.1307 -0.7698  0.2262
11336SOL    HW134586   7.144   7.261   3.796 -0.7712  0.4349  0.0263
11336SOL    HW234587   6.996   7.286   3.819 -1.5693 -1.2973 -2.7160
11337SOL     OW34588   8.417   5.164   6.561  0.1807  0.1333 -0.2070
11337SOL    HW134589   8.420   5.239   6.502 -0.8661 -0.5622 -1.1812
11337SOL    HW234590   8.466   5.095   6.516 -0.3885 -0.3192 -0.1484
11338SOL     OW34591   8.095   7.134   3.208 -0.2234 -0.2111 -0.0528
11338SOL    HW134592   8.108   7.104   3.298 -0.5911 -0.3177 -0.0314
11338SOL    HW234593   8.001   7.124   3.193 -0.8138  3.0943  0.7273
11339SOL     OW34594   5.947   3.745   4.193 -0.2616 -0.0367 -0.1271
11339SOL    HW134595   5.979   3.774   4.279  0.4131  0.6808 -0.6125
11339SOL    HW234596   5.879   3.681   4.214 -0.7502  0.8031  0.9508
11340SOL     OW34597   0.081   4.742   7.133 -0.4365  0.1770 -0.0647
11340SOL    HW134598   0.095   4.671   7.071  0.2044 -0.6598  0.9844
11340SOL    HW234599   0.005   4.790   7.100 -1.7344 -1.7986 -0.0922
11341SOL     OW34600   4.975   5.929   6.008  0.6094 -0.1772  0.1187
11341SOL    HW134601   4.923   5.852   6.031  1.7752 -1.1871 -0.4954
11341SOL    HW234602   4.983   5.978   6.089  1.0544 -1.4569  0.8678
11342SOL     OW34603   4.391   0.818   6.575  0.6272  0.1377 -0.1113
11342SOL    HW134604   4.315   0.812   6.517 -0.4075  1.4081  1.0313
11342SOL    HW234605   4.392   0.735   6.622  1.1805 -0.6963 -1.5514
11343SOL     OW34606   1.230   8.310   3.063 -0.2370  0.1327  0.1892
11343SOL    HW134607   1.142   8.337   3.036  0.7605  3.0793 -0.4858
11343SOL    HW234608   1.247   8.359   3.143  0.7563 -0.4832  0.3737
11344SOL     OW34609   9.201   4.240   2.281  0.4055 -0.1954  0.0699
11344SOL    HW134610   9.155   4.196   2.353 -0.1099 -1.4029 -0.9702
11344SOL    HW234611   9.292   4.240   2.308 -0.0383  1.3964  1.7412
11345SOL     OW34612   1.459   8.699   9.341 -0.4763 -0.3703 -0.3905
11345SOL    HW134613   1.421   8.733   9.260 -1.5936 -1.8755 -0.5379
11345SOL    HW234614   1.385   8.691   9.401  0.3058  0.5289  0.7354
11346SOL     OW34615   7.337   1.282   6.315 -0.2860  0.1258 -0.1000
11346SOL    HW134616   7.260   1.336   6.332 -0.6002 -0.9920  2.3878
11346SOL    HW234617   7.305   1.211   6.259 -0.8420  0.1911  0.1319
11347SOL     OW34618   6.473   8.803   0.814 -0.2962 -0.2162 -0.0943
11347SOL    HW134619   6.504   8.840   0.731 -1.0661  0.1232 -0.2323
11347SOL    HW234620   6.417   8.871   0.851  0.6201 -0.0683  1.0619
11348SOL     OW34621   5.116   5.931   0.826 -0.1667  0.1451  0.1227
11348SOL    HW134622   5.097   6.007   0.772 -0.2596  0.0293 -0.0077
11348SOL    HW234623   5.174   5.876   0.772 -1.2146 -0.5420 -0.3283
11349SOL     OW34624   9.095   5.486   5.428  0.4531 -0.2520 -0.1783
11349SOL    HW134625   9.133   5.542   5.496  0.3205  1.8758 -1.7394
11349SOL    HW234626   9.117   5.530   5.346 -1.3693 -1.4561 -1.3962
11350SOL     OW34627   4.613   9.398   6.555 -0.1560 -0.3822 -0.0220
11350SOL    HW134628   4.609   9.355   6.469 -0.1794  2.2526 -1.4399
11350SOL    HW234629   4.696   9.370   6.592 -0.2331 -1.7246 -0.8009
11351SOL     OW34630   3.456   5.605   1.769 -0.4552 -0.1319  0.0373
11351SOL    HW134631   3.538   5.582   1.812 -0.2159 -0.3515 -0.5352
11351SOL    HW234632   3.395   5.537   1.798 -0.2013 -0.4874 -0.2539
11352SOL     OW34633   2.388   3.510   9.548 -0.2368 -0.3994 -0.2383
11352SOL    HW134634   2.428   3.480   9.467 -0.7403 -0.8219 -0.3354
11352SOL    HW234635   2.322   3.444   9.568 -0.7479  0.1792  0.0207
11353SOL     OW34636   5.193   5.447   2.432  0.0939 -0.3200 -0.1796
11353SOL    HW134637   5.251   5.491   2.370  1.9496  0.0042  1.6751
11353SOL    HW234638   5.240   5.367   2.457 -0.6453 -0.5061  0.6976
11354SOL     OW34639   3.866   8.450   7.529 -0.3987 -0.0556 -0.5090
11354SOL    HW134640   3.899   8.406   7.450 -1.2536 -1.7986  0.0391
11354SOL    HW234641   3.782   8.486   7.502  0.4008  1.5258 -1.0195
11355SOL     OW34642   6.692   1.683   4.374 -0.6225  0.3314  0.1671
11355SOL    HW134643   6.610   1.732   4.366  0.7136  2.6935 -0.1488
11355SOL    HW234644   6.669   1.594   4.347 -2.8837  1.0989 -0.7599
11356SOL     OW34645   9.108   5.527   1.134  0.5137 -0.1108 -0.0710
11356SOL    HW134646   9.163   5.572   1.197  0.6671 -0.8503  0.3431
11356SOL    HW234647   9.086   5.444   1.177 -1.6846  0.5388  0.1643
11357SOL     OW34648   1.137   9.804   7.765 -0.3024  0.0298  0.5509
11357SOL    HW134649   1.152   9.716   7.731 -0.4019 -0.2624  1.2514
11357SOL    HW234650   1.047   9.825   7.737 -0.9183 -0.7821  1.8359
11358SOL     OW34651   2.983   5.692   9.806 -0.4718 -0.5138 -0.1109
11358SOL    HW134652   2.945   5.640   9.877  0.0665 -0.1420  0.4621
11358SOL    HW234653   2.929   5.771   9.803  0.0607 -0.1130  0.5148
11359SOL     OW34654   7.079   0.226   4.022 -0.2738  0.0990 -0.0683
11359SOL    HW134655   7.093   0.280   4.100 -0.8200  0.6557 -0.3414
11359SOL    HW234656   7.165   0.189   4.003 -0.2367 -0.4243  1.0672
11360SOL     OW34657   6.212   0.815   6.863  0.3288  0.0550 -0.4454
11360SOL    HW134658   6.287   0.833   6.920 -0.0826  1.4656 -0.3331
11360SOL    HW234659   6.206   0.719   6.862  2.2160 -0.0929 -0.5820
11361SOL     OW34660   7.316   7.461   6.127 -0.6728  0.5939 -0.1410
11361SOL    HW134661   7.304   7.374   6.165 -0.0842  0.1316 -0.9755
11361SOL    HW234662   7.232   7.505   6.139 -0.7090  0.2231  1.0522
11362SOL     OW34663   5.108   4.417   8.637  0.0670 -0.0348 -0.1349
11362SOL    HW134664   5.134   4.509   8.644  0.8513 -0.1534 -1.1517
11362SOL    HW234665   5.016   4.416   8.663  0.3503  0.8505  0.9586
11363SOL     OW34666   4.772   8.585   2.682  0.5024  0.4999 -0.1584
11363SOL    HW134667   4.820   8.657   2.641 -0.1999 -0.0050 -1.9649
11363SOL    HW234668   4.685   8.589   2.643  0.9841 -2.4757 -1.8126
11364SOL     OW34669   1.725   6.530   7.648 -0.0263  0.1960 -0.1333
11364SOL    HW134670   1.707   6.468   7.577 -0.3427  1.6872 -1.4206
11364SOL    HW234671   1.639   6.561   7.676  0.1242  0.0009  0.5562
11365SOL     OW34672   9.984   7.480   2.702  0.0113 -0.0690  0.2516
11365SOL    HW134673  10.030   7.544   2.757  1.1313 -0.6891  0.0610
11365SOL    HW234674   9.899   7.521   2.684 -0.9780 -0.3566  3.4992
11366SOL     OW34675   9.809   2.936   8.871  0.3087 -0.4279  0.2252
11366SOL    HW134676   9.753   3.001   8.913  1.1193  1.0737 -0.9415
11366SOL    HW234677   9.784   2.938   8.779  1.7356 -0.2708 -0.1800
11367SOL     OW34678   8.328   1.744   0.224 -0.5132  0.5589  0.0506
11367SOL    HW134679   8.376   1.661   0.223 -0.4522  0.5964 -0.5332
11367SOL    HW234680   8.274   1.741   0.144 -0.7307  0.9528  0.1801
11368SOL     OW34681   7.728   6.932   3.762 -0.2442 -0.3902 -0.5936
11368SOL    HW134682   7.784   6.856   3.776 -0.0695 -0.3363 -0.9990
11368SOL    HW234683   7.698   6.956   3.850  1.3938  0.3619 -0.2028
11369SOL     OW34684   0.100   3.287   5.890  0.2125  0.0538 -0.7059
11369SOL    HW134685   0.087   3.382   5.890 -1.0825 -0.0999 -0.2458
11369SOL    HW234686   0.017   3.251   5.922  1.1882 -1.1732  0.5922
11370SOL     OW34687   7.284   4.035   2.291 -0.0378  0.6764 -0.1127
11370SOL    HW134688   7.243   3.995   2.214 -3.0577  1.7877  0.7507
11370SOL    HW234689   7.314   3.962   2.344 -0.1038 -0.1826 -1.2354
11371SOL     OW34690   5.065   9.681   2.436 -0.0088  0.2520 -0.1768
11371SOL    HW134691   5.157   9.688   2.412 -0.1853 -0.5196 -1.1325
11371SOL    HW234692   5.022   9.752   2.389 -0.1010 -0.2540 -0.8838
11372SOL     OW34693   2.894   0.970   6.690  0.2747 -0.1427 -0.3084
11372SOL    HW134694   2.934   0.979   6.777  1.8688  0.1870 -1.0570
11372SOL    HW234695   2.967   0.954   6.631 -0.9863 -3.2960 -1.2504
11373SOL     OW34696   8.297   2.388   5.039 -0.4157 -0.5944 -0.2205
11373SOL    HW134697   8.294   2.429   5.125  2.0727 -2.9626  1.1522
11373SOL    HW234698   8.332   2.456   4.981  0.6002  0.2044  1.2739
11374SOL     OW34699   2.584   5.267   3.880 -0.6322 -0.3979 -0.0185
11374SOL    HW134700   2.561   5.332   3.946 -0.6620  0.5603 -0.9379
11374SOL    HW234701   2.500   5.233   3.849 -0.6845  0.2814 -0.6435
11375SOL     OW34702   3.745   5.444   7.883 -0.2952  0.2312 -0.1533
11375SOL    HW134703   3.793   5.383   7.828  0.2502 -0.2965  0.8698
11375SOL    HW234704   3.754   5.529   7.840  0.7702 -0.0324 -0.4638
11376SOL     OW34705   8.426   0.194   2.642  0.3330 -0.6048 -0.1332
11376SOL    HW134706   8.407   0.157   2.556  0.2283  0.4585 -0.5869
11376SOL    HW234707   8.520   0.212   2.639  0.1182  0.5127 -0.4733
11377SOL     OW34708   8.519   2.462   9.447  0.1779  0.2730 -0.0283
11377SOL    HW134709   8.544   2.377   9.482  0.7213  0.1481 -0.7042
11377SOL    HW234710   8.501   2.515   9.524 -0.3583 -0.5042  0.3998
11378SOL     OW34711   4.829   5.589   1.103 -0.1635 -0.5683 -0.0538
11378SOL    HW134712   4.892   5.557   1.039  0.7044  0.4252  0.2763
11378SOL    HW234713   4.820   5.682   1.083  2.0696  0.4012  2.7710
11379SOL     OW34714   0.232   6.065   7.316 -0.7163 -0.0237 -0.0609
11379SOL    HW134715   0.309   6.111   7.349  0.2296 -0.2889 -1.7781
11379SOL    HW234716   0.169   6.135   7.299 -0.1306  0.4126 -0.4909
11380SOL     OW34717   8.825   2.834   8.525  0.1148  0.0882  0.0213
11380SOL    HW134718   8.771   2.769   8.571  1.2488  0.0357  1.3309
11380SOL    HW234719   8.803   2.822   8.432 -0.8768 -1.0688  0.3818
11381SOL     OW34720   2.706   4.929   2.127  0.4625  0.3541 -0.0890
11381SOL    HW134721   2.746   4.859   2.075  0.1150 -1.2145  1.6666
11381SOL    HW234722   2.697   4.892   2.214 -4.0461  0.8944 -0.1164
11382SOL     OW34723   2.517   9.334   8.166  0.4590 -0.3018 -0.0272
11382SOL    HW134724   2.552   9.423   8.174 -0.4896  0.3136 -2.0231
11382SOL    HW234725   2.426   9.341   8.193  0.1256 -0.4366 -1.0602
11383SOL     OW34726   4.398   9.181   1.042 -0.0744  0.2642  0.2805
11383SOL    HW134727   4.350   9.146   1.117 -0.1403  1.6319  0.9052
11383SOL    HW234728   4.463   9.113   1.021 -0.2383 -0.2596  1.3966
11384SOL     OW34729   7.197   0.485   1.397 -0.3437  0.1503  0.0904
11384SOL    HW134730   7.118   0.528   1.431 -0.8703 -1.6741  1.3009
11384SOL    HW234731   7.230   0.434   1.470  1.0206 -0.4439 -0.9002
11385SOL     OW34732   7.563   5.599   1.231 -0.3438 -0.5226  0.0759
11385SOL    HW134733   7.551   5.555   1.315 -1.4704 -1.5142 -0.5760
11385SOL    HW234734   7.478   5.592   1.188  0.4509 -0.8231 -1.5210
11386SOL     OW34735   4.965   3.119   2.560 -0.0971 -0.4464 -0.1114
11386SOL    HW134736   4.903   3.191   2.555  1.1894  0.6815 -0.4273
11386SOL    HW234737   5.033   3.149   2.621  0.3320 -1.4889 -0.0430
11387SOL     OW34738   8.268   2.072   6.707  0.5965 -0.1940 -0.1323
11387SOL    HW134739   8.268   2.131   6.783 -1.4364 -0.3896  0.0689
11387SOL    HW234740   8.310   1.992   6.739 -0.0473 -0.1971  0.7539
11388SOL     OW34741   0.796   8.629   1.685  0.3269 -0.4047 -0.0650
11388SOL    HW134742   0.822   8.627   1.593  2.5752 -0.5315  0.4925
11388SOL    HW234743   0.828   8.546   1.721  4.5505  1.7365  1.9142
11389SOL     OW34744   8.829   8.764   0.578 -0.4860  0.2119  0.5959
11389SOL    HW134745   8.825   8.695   0.511 -0.8290 -0.2743  1.1086
11389SOL    HW234746   8.749   8.814   0.566 -0.1082  0.7060  0.0435
11390SOL     OW34747   8.386   5.358   3.111 -0.6202  0.2983  0.1607
11390SOL    HW134748   8.470   5.384   3.073 -0.5931 -2.9171 -2.3422
11390SOL    HW234749   8.407   5.333   3.201  0.5020  2.2160  0.4860
11391SOL     OW34750   3.897   7.635   2.254  0.5683  0.5776  0.4950
11391SOL    HW134751   3.841   7.620   2.178  0.6001  0.7397  0.4381
11391SOL    HW234752   3.910   7.730   2.255 -0.1842  0.6872  1.2339
11392SOL     OW34753   4.765   9.853   3.448  0.1468 -0.6713  0.2711
11392SOL    HW134754   4.722   9.804   3.377  1.2087 -3.1547  1.2051
11392SOL    HW234755   4.833   9.904   3.405 -1.6759  0.9532 -0.8720
11393SOL     OW34756   3.875   8.656   0.122  0.1097 -0.4232  0.2219
11393SOL    HW134757   3.805   8.602   0.084  0.8363 -0.2386 -1.4578
11393SOL    HW234758   3.832   8.738   0.145 -0.0840  0.0616 -1.7037
11394SOL     OW34759   6.363   4.968   2.634 -0.2390  0.7106 -0.4102
11394SOL    HW134760   6.300   4.969   2.562 -1.4364  0.0530  0.5866
11394SOL    HW234761   6.353   5.054   2.676 -1.2609  0.2413  0.3651
11395SOL     OW34762   8.500   3.369   9.814 -0.7632 -0.0327 -0.1871
11395SOL    HW134763   8.460   3.440   9.865 -2.0336 -0.4731 -0.5169
11395SOL    HW234764   8.586   3.356   9.854 -1.4903  0.0087  1.5001
11396SOL     OW34765   2.148   6.212   5.250  0.1485  0.0151 -0.6048
11396SOL    HW134766   2.140   6.231   5.157 -0.1924  3.1389 -0.0517
11396SOL    HW234767   2.057   6.204   5.281  0.1592  0.9802 -0.2596
11397SOL     OW34768   0.362   7.403   3.762 -0.0976 -0.0919  0.6636
11397SOL    HW134769   0.364   7.495   3.734 -1.3465 -0.0321  0.7063
11397SOL    HW234770   0.358   7.354   3.680 -1.5281 -0.0008  0.6434
11398SOL     OW34771   9.416   5.202   2.924 -0.2921  0.3892 -0.8051
11398SOL    HW134772   9.430   5.296   2.934  3.6155  0.0145 -1.2418
11398SOL    HW234773   9.407   5.169   3.013 -0.5633  1.0228 -0.5946
11399SOL     OW34774   9.438   3.328   7.131 -0.1982  0.5249  0.3288
11399SOL    HW134775   9.350   3.359   7.107 -0.1471  0.9458  0.6628
11399SOL    HW234776   9.444   3.241   7.092 -0.2452  1.0423 -0.8888
11400SOL     OW34777   1.856   9.272   0.263 -0.0130  0.2406 -0.3807
11400SOL    HW134778   1.853   9.194   0.207  0.9472 -0.9810  1.2000
11400SOL    HW234779   1.777   9.265   0.317  0.5354 -0.1504  0.3888
11401SOL     OW34780   7.655   6.281   7.222 -0.3612 -0.0255  0.2373
11401SOL    HW134781   7.700   6.320   7.297  1.2641  0.0109 -0.6924
11401SOL    HW234782   7.691   6.193   7.215 -0.6247 -0.0926 -0.3817
11402SOL     OW34783   7.305   5.997   7.294  0.3836 -0.0521 -0.0728
11402SOL    HW134784   7.237   5.933   7.274  0.4253 -0.2281  0.3383
11402SOL    HW234785   7.337   5.972   7.381  1.8568 -0.7287 -0.7815
11403SOL     OW34786   5.245   9.318   0.385  0.2410  0.2645 -0.0699
11403SOL    HW134787   5.306   9.243   0.386  1.6223  1.3518 -0.1354
11403SOL    HW234788   5.181   9.297   0.454  1.0520 -0.6260  0.4408
11404SOL     OW34789   0.276   5.566   4.953 -0.7212 -0.7344  0.1291
11404SOL    HW134790   0.230   5.619   5.018 -0.7152 -1.3623  0.6539
11404SOL    HW234791   0.325   5.630   4.901 -0.9606 -0.1946  0.5524
11405SOL     OW34792   2.604   6.256   4.309  0.1126  0.0285 -0.5355
11405SOL    HW134793   2.637   6.312   4.238 -2.4618  2.1460 -0.2091
11405SOL    HW234794   2.676   6.194   4.326  2.1286  1.6080 -2.6575
11406SOL     OW34795   9.296   0.960   3.461  0.0170 -0.4105  0.0513
11406SOL    HW134796   9.304   1.014   3.383  1.3503 -1.5194 -0.6213
11406SOL    HW234797   9.203   0.940   3.467 -0.1485 -0.0313 -1.0544
11407SOL     OW34798   7.792   9.157   7.760  0.1712  0.1287  0.4144
11407SOL    HW134799   7.704   9.133   7.789  0.8631 -2.1520  0.8915
11407SOL    HW234800   7.788   9.151   7.664 -0.5486  1.5832  0.3278
11408SOL     OW34801   1.030   3.695   1.246 -0.1924 -0.1321  0.1103
11408SOL    HW134802   0.976   3.616   1.248  0.3325 -0.5043 -0.0648
11408SOL    HW234803   0.998   3.749   1.318 -1.5028  0.1315 -0.6340
11409SOL     OW34804   7.210   4.158   4.125 -0.1736 -0.3922  0.5296
11409SOL    HW134805   7.190   4.230   4.186  0.3490 -1.5107  2.0953
11409SOL    HW234806   7.137   4.096   4.136  0.7681 -1.4006  1.3380
11410SOL     OW34807   5.414   9.609   6.107 -0.6979  0.2786 -0.2894
11410SOL    HW134808   5.471   9.655   6.045 -0.5357 -0.0546 -0.3886
11410SOL    HW234809   5.401   9.672   6.178  2.0023 -0.5655  1.0773
11411SOL     OW34810   5.213   9.025   7.683  0.2320 -0.0615 -0.6441
11411SOL    HW134811   5.247   9.083   7.751  0.3049 -1.3240  0.4374
11411SOL    HW234812   5.290   8.997   7.634  0.4226 -0.6661 -0.0107
11412SOL     OW34813   6.841   9.370   5.560  0.1139  0.1753 -0.2141
11412SOL    HW134814   6.792   9.402   5.636  0.9257  0.0785  0.3607
11412SOL    HW234815   6.774   9.355   5.493 -0.4533  1.7013 -0.0302
11413SOL     OW34816   5.887   4.460   8.983  0.3033  0.2294 -0.1423
11413SOL    HW134817   5.945   4.508   9.041 -0.7614  0.8741  0.4209
11413SOL    HW234818   5.885   4.513   8.903 -1.1860  1.4196  0.6190
11414SOL     OW34819   5.052   3.403   7.329 -0.1442 -0.3222 -0.4533
11414SOL    HW134820   5.143   3.433   7.329 -0.5544  1.1890  2.0001
11414SOL    HW234821   5.054   3.318   7.373 -0.1146  0.7214  1.6757
11415SOL     OW34822   5.367   9.559   6.719  0.0669  0.6602 -0.1914
11415SOL    HW134823   5.415   9.531   6.796 -0.1196 -1.0181 -0.6590
11415SOL    HW234824   5.359   9.654   6.729  1.8408  0.7502  0.8165
11416SOL     OW34825   9.651   2.750   3.049  0.1806 -0.4735 -0.3883
11416SOL    HW134826   9.716   2.743   2.979 -0.1760  4.5006 -1.5467
11416SOL    HW234827   9.576   2.794   3.009 -0.8591  0.8199  2.6568
11417SOL     OW34828   0.262   8.872   6.101  0.0469 -0.2324 -0.0046
11417SOL    HW134829   0.354   8.862   6.124  0.0626 -2.7652 -0.7929
11417SOL    HW234830   0.219   8.899   6.182  0.8744 -3.5162  1.7061
11418SOL     OW34831   6.451   3.336   7.867 -0.1440 -0.1648 -0.4492
11418SOL    HW134832   6.410   3.275   7.929 -0.7264  0.0975 -0.5700
11418SOL    HW234833   6.446   3.421   7.911  2.5277 -0.4621  0.6499
11419SOL     OW34834   8.615   7.653   3.616  0.7067  0.2281  0.0449
11419SOL    HW134835   8.578   7.587   3.558  0.2007  0.4600  0.1016
11419SOL    HW234836   8.626   7.609   3.700 -2.3437  0.9568  0.9450
11420SOL     OW34837   5.021   8.840   2.131 -0.5164 -0.5835  0.2384
11420SOL    HW134838   5.086   8.889   2.081  0.3887 -1.1545  0.8488
11420SOL    HW234839   5.049   8.749   2.125 -1.0558 -0.7965  0.8217
11421SOL     OW34840   4.032   5.166   7.616  0.4450 -0.0540  0.0412
11421SOL    HW134841   4.008   5.237   7.557  1.6961  1.0610  0.8115
11421SOL    HW234842   4.090   5.110   7.563  1.1804  0.6853  0.0376
11422SOL     OW34843   4.573   6.811   5.806 -0.1044 -0.6828 -0.3914
11422SOL    HW134844   4.506   6.879   5.814  0.6075 -0.0621  0.5509
11422SOL    HW234845   4.578   6.793   5.712 -0.2178  0.6687 -0.6796
11423SOL     OW34846   8.883   7.421   6.146  0.1709  0.3680  0.0526
11423SOL    HW134847   8.963   7.463   6.176 -0.8684  1.9242  0.7931
11423SOL    HW234848   8.879   7.443   6.053  0.7322  0.0373 -0.0560
11424SOL     OW34849   2.951   7.144   3.897 -0.2564  0.4243  0.0429
11424SOL    HW134850   2.871   7.143   3.844  1.0624 -0.0546 -2.0490
11424SOL    HW234851   2.952   7.058   3.939  0.1173 -0.3594 -1.5039
11425SOL     OW34852   7.459   8.092   6.769  0.0425  0.0747 -0.0579
11425SOL    HW134853   7.477   8.091   6.863  1.6638 -0.5667 -0.3381
11425SOL    HW234854   7.374   8.049   6.760  0.0245 -0.1433  1.0894
11426SOL     OW34855   3.723   2.251   3.346  0.1217  0.1795 -0.3858
11426SOL    HW134856   3.773   2.184   3.393 -0.4919  0.7639  1.1525
11426SOL    HW234857   3.632   2.230   3.365 -0.1707  0.2167 -1.6588
11427SOL     OW34858   8.063   3.048   7.308  0.1133 -0.2439  0.1483
11427SOL    HW134859   8.001   2.978   7.287 -0.5686  0.1783  0.7327
11427SOL    HW234860   8.036   3.080   7.394  0.0869  1.1004 -0.3402
11428SOL     OW34861   5.154   3.356   8.269  0.6132  0.0676  1.0038
11428SOL    HW134862   5.231   3.320   8.314  1.9923 -0.8205 -1.8380
11428SOL    HW234863   5.190   3.410   8.199 -1.4378  2.7679  1.8678
11429SOL     OW34864   3.560   2.392   1.548  0.0591  0.2121 -0.0295
11429SOL    HW134865   3.643   2.415   1.507  0.6798 -1.9057 -0.0418
11429SOL    HW234866   3.502   2.369   1.476  0.4676 -1.3544  0.1061
11430SOL     OW34867   1.909   2.763   0.162  0.3517 -0.2671  0.3358
11430SOL    HW134868   1.848   2.784   0.091  1.2125  0.6552 -0.1530
11430SOL    HW234869   1.993   2.798   0.133  1.0207 -1.0939  1.2129
11431SOL     OW34870   2.847   4.132   7.364  0.1365  0.1997  0.0494
11431SOL    HW134871   2.939   4.105   7.376  0.5358  1.2864 -0.4402
11431SOL    HW234872   2.817   4.080   7.290 -0.6421 -2.4695  2.1061
11432SOL     OW34873   0.328   7.859   4.802 -0.2229 -0.0823 -0.2118
11432SOL    HW134874   0.286   7.936   4.764  0.4651  0.7420  0.6717
11432SOL    HW234875   0.256   7.811   4.844 -0.6961 -0.0858 -1.0078
11433SOL     OW34876   0.990   1.069   4.340 -0.5073  0.6436  0.1002
11433SOL    HW134877   0.903   1.028   4.336  1.0347 -3.0502  0.6174
11433SOL    HW234878   0.995   1.106   4.428 -1.1614 -0.1319  0.4794
11434SOL     OW34879   6.685   4.105   1.826  0.1333  0.2846 -0.2505
11434SOL    HW134880   6.609   4.159   1.845  1.1736  1.6223  0.3265
11434SOL    HW234881   6.697   4.111   1.732 -1.5799 -1.5256 -0.6330
11435SOL     OW34882   2.044   0.954   7.781 -0.2936 -0.7345  0.2371
11435SOL    HW134883   2.125   0.980   7.825 -0.2567 -0.6543  0.1234
11435SOL    HW234884   2.072   0.887   7.718  0.2439  1.5119 -2.1005
11436SOL     OW34885   6.018   2.130   0.798  0.5568 -0.8250 -0.2647
11436SOL    HW134886   5.976   2.055   0.841 -0.5804 -0.0929 -0.0615
11436SOL    HW234887   6.040   2.189   0.870 -0.5189 -0.0065 -0.5858
11437SOL     OW34888   0.267   0.662   0.777  0.1112 -0.0006  0.7537
11437SOL    HW134889   0.250   0.745   0.822 -0.4785 -1.0685  2.5807
11437SOL    HW234890   0.194   0.606   0.801  1.1093 -1.4525  0.5334
11438SOL     OW34891   2.507   2.555   1.087 -0.8882 -0.1181  0.7028
11438SOL    HW134892   2.590   2.594   1.115 -1.3532  0.6694  1.0373
11438SOL    HW234893   2.484   2.496   1.158  0.5234 -2.1664 -0.4388
11439SOL     OW34894   6.011   2.800   6.212 -0.1606 -0.2723  0.0821
11439SOL    HW134895   6.010   2.847   6.129 -1.3441  1.2524  0.8928
11439SOL    HW234896   5.935   2.742   6.208 -1.3932  1.2138  0.7967
11440SOL     OW34897   8.145   6.943   5.851 -0.4735 -0.3027  0.4329
11440SOL    HW134898   8.219   6.916   5.797  1.2951  2.1107  1.4523
11440SOL    HW234899   8.073   6.956   5.789  0.5389 -0.7527 -0.8826
11441SOL     OW34900   4.239   5.732   7.199  0.3738  0.0192 -0.3419
11441SOL    HW134901   4.286   5.797   7.250 -0.2877  0.8190 -0.7379
11441SOL    HW234902   4.264   5.750   7.108  0.3729 -0.4372 -0.4389
11442SOL     OW34903   9.957   5.124   8.100 -0.2722 -0.2711  0.4716
11442SOL    HW134904  10.021   5.167   8.044 -0.9201 -0.1185 -0.1677
11442SOL    HW234905   9.949   5.182   8.176 -0.5101  0.3216  0.0062
11443SOL     OW34906   6.309   6.414   7.562  0.5672 -0.0575 -0.0233
11443SOL    HW134907   6.306   6.356   7.638  0.7082  0.0800  0.0874
11443SOL    HW234908   6.223   6.403   7.520 -0.1963  1.2151  1.1555
11444SOL     OW34909   7.221   0.308   6.711  0.0776 -0.3728  0.0425
11444SOL    HW134910   7.133   0.278   6.733 -0.4058  0.8845 -0.0698
11444SOL    HW234911   7.261   0.331   6.795 -0.2783  0.5160 -0.0158
11445SOL     OW34912   4.126   9.819   1.337 -0.5207 -0.0829  0.0008
11445SOL    HW134913   4.056   9.774   1.290 -0.7127  0.7498 -0.5214
11445SOL    HW234914   4.101   9.812   1.429 -1.8269  1.0738 -0.2434
11446SOL     OW34915   1.775   4.088   9.531 -0.3030  0.3702 -0.1539
11446SOL    HW134916   1.697   4.140   9.550 -1.0013 -0.9951  0.8442
11446SOL    HW234917   1.834   4.108   9.604 -1.2712 -1.5160  1.2378
11447SOL     OW34918   2.395   2.613   7.987  0.7711  0.0405  0.3504
11447SOL    HW134919   2.397   2.518   8.000  1.5083 -0.0406 -0.2768
11447SOL    HW234920   2.479   2.643   8.020  1.3579  0.2215 -1.2386
11448SOL     OW34921   8.149   8.203   7.895 -0.0705 -0.1706  0.1342
11448SOL    HW134922   8.081   8.149   7.854  0.6073 -0.3599 -0.7746
11448SOL    HW234923   8.190   8.145   7.959  0.1111 -0.4730 -0.2546
11449SOL     OW34924   5.230   0.291   4.505  0.2204  0.3927 -0.6521
11449SOL    HW134925   5.305   0.336   4.466  0.8538  1.9436  2.0971
11449SOL    HW234926   5.160   0.356   4.506 -0.9199 -0.7473 -2.3352
11450SOL     OW34927   9.585   7.527   4.709 -0.3396  0.0324 -0.2147
11450SOL    HW134928   9.546   7.533   4.622  1.0172 -1.6377 -1.0078
11450SOL    HW234929   9.545   7.449   4.748 -0.6856  0.5755  0.5267
11451SOL     OW34930   0.368   7.628   5.112  0.5204  0.0641 -0.0203
11451SOL    HW134931   0.308   7.669   5.174  1.4593  0.0373  0.9582
11451SOL    HW234932   0.431   7.697   5.090  1.0252 -0.3118  0.1972
11452SOL     OW34933   4.831   7.389   9.909  0.1893 -0.7691  0.5111
11452SOL    HW134934   4.853   7.470   9.863 -1.8318 -0.7437 -0.5064
11452SOL    HW234935   4.738   7.397   9.929  0.2757 -2.2388  1.6997
11453SOL     OW34936   6.466   2.912   7.625 -0.1031  0.1294 -0.2101
11453SOL    HW134937   6.550   2.876   7.597  0.7216  1.3106  0.6274
11453SOL    HW234938   6.451   2.987   7.568 -0.7091 -0.2151 -0.5090
11454SOL     OW34939   0.788   8.217   8.871  0.2114  0.6786  0.3365
11454SOL    HW134940   0.798   8.196   8.963 -1.4786  2.3386  0.9646
11454SOL    HW234941   0.719   8.158   8.839  0.3284  0.5603  0.3015
11455SOL     OW34942   9.926   9.785   3.771  0.0257  0.1274  0.2264
11455SOL    HW134943   9.841   9.775   3.815  1.2078 -2.1609  2.2233
11455SOL    HW234944   9.967   9.859   3.816 -1.7112  2.8803 -2.3702
11456SOL     OW34945   4.278   3.401   1.469  0.0437  0.0655 -0.0200
11456SOL    HW134946   4.266   3.364   1.556 -0.1440  1.0105  0.3693
11456SOL    HW234947   4.291   3.494   1.484 -1.4051  0.4803 -1.0866
11457SOL     OW34948   6.706   4.905   4.831 -0.2961 -0.4686  0.0789
11457SOL    HW134949   6.665   4.932   4.914 -0.5062  0.6982 -0.3852
11457SOL    HW234950   6.749   4.984   4.799 -0.7575 -0.7321 -1.2424
11458SOL     OW34951   3.890   3.017   3.875  0.8485 -0.2841  0.4640
11458SOL    HW134952   3.937   3.004   3.958  1.6470 -1.7115 -0.1689
11458SOL    HW234953   3.959   3.019   3.809  0.1243 -0.6355 -0.3153
11459SOL     OW34954   8.241   9.638   7.512 -0.2703  0.0459 -0.0640
11459SOL    HW134955   8.166   9.597   7.555 -0.4602 -0.4054 -0.7910
11459SOL    HW234956   8.215   9.644   7.420  1.0448 -1.2187 -0.5605
11460SOL     OW34957   2.290   5.276   3.178  0.3475 -0.0732 -0.2307
11460SOL    HW134958   2.371   5.284   3.126  1.4173 -0.4956  1.2905
11460SOL    HW234959   2.288   5.356   3.230 -0.4456  0.1137 -0.5355
11461SOL     OW34960   5.303   9.175   7.163  0.1434  0.1684 -0.4321
11461SOL    HW134961   5.212   9.147   7.152  0.1387  0.5349 -1.4191
11461SOL    HW234962   5.313   9.248   7.103  1.2036 -0.1183 -0.6280
11462SOL     OW34963   4.443   2.028   7.718  0.4065  0.0661  0.0402
11462SOL    HW134964   4.383   1.985   7.658  3.4944 -3.2559 -1.0823
11462SOL    HW234965   4.491   2.091   7.664 -0.8201  1.4567  0.5281
11463SOL     OW34966   8.035   0.469   8.275  0.0494 -0.3608  0.0770
11463SOL    HW134967   7.990   0.507   8.350 -2.9028 -2.3735 -0.5184
11463SOL    HW234968   8.061   0.381   8.304 -1.2316 -1.2110 -1.2155
11464SOL     OW34969   4.588   8.658   3.343  0.1027  0.5550 -0.2029
11464SOL    HW134970   4.606   8.725   3.277 -1.7356  0.2022 -1.1439
11464SOL    HW234971   4.590   8.576   3.295 -1.1464  0.2809  0.1762
11465SOL     OW34972   1.375   2.746   5.227 -0.2089  0.4713 -0.0034
11465SOL    HW134973   1.467   2.736   5.251 -0.1336  0.6593 -0.2048
11465SOL    HW234974   1.377   2.786   5.140 -0.4491 -1.5085 -0.9758
11466SOL     OW34975   6.418   7.319   4.745  0.0623 -0.9673  0.0732
11466SOL    HW134976   6.346   7.269   4.785 -1.1824 -0.6280 -1.6220
11466SOL    HW234977   6.391   7.331   4.654  1.1731  1.2409 -0.0295
11467SOL     OW34978   8.159   7.021   4.287  0.0633  0.2197  0.0073
11467SOL    HW134979   8.181   6.928   4.289  0.3075  0.2776 -0.0017
11467SOL    HW234980   8.066   7.023   4.264  0.7110  0.0530 -3.1202
11468SOL     OW34981   4.399   2.397   6.443  0.3938 -0.9597  0.5607
11468SOL    HW134982   4.494   2.395   6.439  0.4166 -1.4766  1.1771
11468SOL    HW234983   4.371   2.326   6.385  0.3455 -0.2835 -0.2760
11469SOL     OW34984   2.348   9.373   3.968  0.2730 -0.1217  0.7558
11469SOL    HW134985   2.438   9.404   3.955  0.5113 -0.9718  0.2800
11469SOL    HW234986   2.294   9.430   3.914  0.0978  2.4099  3.3525
11470SOL     OW34987   6.909   3.084   4.937 -0.6528 -0.4293 -0.4476
11470SOL    HW134988   6.917   3.108   4.845 -0.1679  0.1919 -0.2515
11470SOL    HW234989   6.989   3.035   4.956 -0.8289 -0.7007 -0.3981
11471SOL     OW34990   7.500   9.558   0.843 -0.1314 -0.3092  0.0209
11471SOL    HW134991   7.462   9.499   0.778  0.7360 -0.8023 -0.0460
11471SOL    HW234992   7.592   9.567   0.818  0.3978 -1.0577  1.5531
11472SOL     OW34993   0.861   1.924   2.163 -0.6323 -0.7274  0.0060
11472SOL    HW134994   0.906   1.891   2.085 -1.7430 -0.2807 -0.8414
11472SOL    HW234995   0.781   1.964   2.130 -0.0680  1.5167  1.1403
11473SOL     OW34996   0.642   6.914   5.648 -0.3739 -0.1289 -0.5515
11473SOL    HW134997   0.573   6.941   5.588 -0.8142 -0.7848 -0.3519
11473SOL    HW234998   0.632   6.819   5.654 -0.5687 -0.0333  0.8352
11474SOL     OW34999   0.127   4.097   6.729  0.6612  0.7783  0.2279
11474SOL    HW135000   0.155   4.005   6.728  2.0894  1.1836  0.8992
11474SOL    HW235001   0.067   4.102   6.804  1.0197  0.5120  0.5354
11475SOL     OW35002   8.416   2.011   0.209 -0.8037 -0.5666 -0.0726
11475SOL    HW135003   8.397   2.050   0.124  2.3918 -1.1788 -1.1662
11475SOL    HW235004   8.344   1.950   0.224 -2.6880  1.2512 -1.1415
11476SOL     OW35005   6.674   4.678   7.745 -0.7595  0.1256 -0.2534
11476SOL    HW135006   6.622   4.689   7.666 -0.5323  0.7448 -0.3242
11476SOL    HW235007   6.649   4.752   7.801 -0.3176  0.1508 -0.0864
11477SOL     OW35008   9.866   0.546   4.181  0.0049 -0.3720  0.0890
11477SOL    HW135009   9.851   0.475   4.243 -1.5379  0.9591  1.3381
11477SOL    HW235010   9.796   0.537   4.116  0.1634 -0.3471 -0.0852
11478SOL     OW35011   3.164   8.380   2.963 -0.7898 -0.2979 -0.7290
11478SOL    HW135012   3.144   8.389   2.870 -0.9113 -1.5823 -0.8425
11478SOL    HW235013   3.111   8.307   2.992 -0.3773 -0.2295  0.2430
11479SOL     OW35014   1.520   1.208   2.068 -0.1609 -0.7266 -0.5207
11479SOL    HW135015   1.532   1.180   1.977 -2.4364 -1.2439 -0.7092
11479SOL    HW235016   1.451   1.152   2.101 -0.6793  0.7212  0.9644
11480SOL     OW35017   8.417   7.057   5.557  0.3271 -0.8904 -0.0722
11480SOL    HW135018   8.421   6.985   5.619 -1.1261  0.2289  1.4126
11480SOL    HW235019   8.324   7.071   5.542  0.5236  1.0940  0.2384
11481SOL     OW35020   4.002   9.593   2.706 -0.8094  0.0557 -0.4847
11481SOL    HW135021   4.039   9.638   2.782 -2.3892 -1.6781  1.4320
11481SOL    HW235022   3.916   9.633   2.694 -0.3916  0.6334 -1.7110
11482SOL     OW35023   8.096   6.556   2.951  0.4337  0.4022 -1.0237
11482SOL    HW135024   8.180   6.547   2.905  1.0282  1.0893 -0.1044
11482SOL    HW235025   8.119   6.558   3.044 -0.7536 -1.0409 -0.6569
11483SOL     OW35026   7.712   8.242   9.357 -0.1844  0.2408 -0.7137
11483SOL    HW135027   7.676   8.158   9.386  0.3247 -0.5394 -2.2514
11483SOL    HW235028   7.731   8.230   9.264 -0.0732  2.0632 -0.9686
11484SOL     OW35029   9.698   9.577   7.091  0.5773  0.3284 -0.4349
11484SOL    HW135030   9.652   9.531   7.161  0.8660  0.4001 -0.1933
11484SOL    HW235031   9.759   9.511   7.056  1.2598  0.6296  0.1643
11485SOL     OW35032   9.714   4.669   2.729 -0.1797 -0.2204  0.1140
11485SOL    HW135033   9.746   4.582   2.756  2.1203  0.0434 -1.4842
11485SOL    HW235034   9.635   4.650   2.680 -1.7133 -1.0719  2.7191
11486SOL     OW35035   5.577   0.310   3.139 -0.4702 -0.3843 -0.3618
11486SOL    HW135036   5.606   0.250   3.070 -0.6805 -0.0337 -0.7532
11486SOL    HW235037   5.485   0.326   3.120  0.0192  1.5391 -1.3676
11487SOL     OW35038   4.794   3.302   2.625 -0.7628  0.1045  0.0597
11487SOL    HW135039   4.839   3.383   2.600  0.6529 -1.1259 -1.6492
11487SOL    HW235040   4.801   3.300   2.720  1.3516  0.8381 -0.0177
11488SOL     OW35041   7.984   1.126   4.544 -0.3179 -0.0402 -0.2894
11488SOL    HW135042   7.929   1.048   4.551  0.4742 -0.5774  0.0743
11488SOL    HW235043   8.058   1.108   4.601 -0.7718  1.5574  0.8359
11489SOL     OW35044   2.429   9.682   8.203 -0.1754  0.0786  0.1101
11489SOL    HW135045   2.389   9.656   8.286  2.7421 -2.3461  0.9547
11489SOL    HW235046   2.479   9.761   8.225 -1.1045  0.6822  0.0943
11490SOL     OW35047   6.408   7.258   2.021  0.1541 -0.0318 -0.1449
11490SOL    HW135048   6.489   7.270   1.971 -0.1622  1.3016 -0.3640
11490SOL    HW235049   6.397   7.339   2.070 -1.2367 -0.0366 -0.3980
11491SOL     OW35050   9.001   9.293   4.993  0.0008  0.0750 -0.5840
11491SOL    HW135051   9.064   9.231   5.029 -0.1413  0.5617  0.5551
11491SOL    HW235052   8.950   9.243   4.930 -1.2647 -1.4602  1.5488
11492SOL     OW35053   4.661   8.347   9.565  0.2099  0.4991 -0.0530
11492SOL    HW135054   4.741   8.393   9.589  0.2895  0.1921  0.2848
11492SOL    HW235055   4.677   8.256   9.590  0.1604  0.2283 -0.9631
11493SOL     OW35056   2.089   3.739   9.582  0.0849  0.3987 -0.4379
11493SOL    HW135057   2.013   3.704   9.536 -0.4412  2.3016 -1.1022
11493SOL    HW235058   2.163   3.717   9.526 -0.0842 -0.5641 -0.3004
11494SOL     OW35059   3.658   1.193   3.285  0.1982 -0.1658 -0.2834
11494SOL    HW135060   3.644   1.115   3.338  0.2915 -0.0040 -0.0125
11494SOL    HW235061   3.673   1.161   3.197  0.9821 -0.4986 -0.0355
11495SOL     OW35062   9.946   9.859   6.633  0.1475 -0.3510 -0.5632
11495SOL    HW135063   9.964   9.814   6.715 -1.7892  0.0715  0.1403
11495SOL    HW235064   9.879   9.806   6.590 -1.8014  1.5088  0.0419
11496SOL     OW35065   9.284   9.011   1.890  0.5118 -0.4860  0.1138
11496SOL    HW135066   9.337   8.948   1.940  1.0356 -0.9802 -1.0302
11496SOL    HW235067   9.196   8.971   1.887  0.5569 -0.6050  0.3638
11497SOL     OW35068   7.638   0.528   1.621  0.0270 -0.2101  0.1476
11497SOL    HW135069   7.714   0.568   1.579  0.0002  0.1429  0.4340
11497SOL    HW235070   7.621   0.582   1.698 -0.4212 -0.3754  0.1697
11498SOL     OW35071   8.080   8.468   5.828  0.7412  0.5043 -0.9209
11498SOL    HW135072   8.146   8.532   5.800 -1.1034  2.9267 -0.0548
11498SOL    HW235073   8.003   8.489   5.775 -0.3537 -0.0067  0.4132
11499SOL     OW35074   0.619   5.970   1.878 -0.4289  0.4782  0.5763
11499SOL    HW135075   0.666   6.031   1.822 -1.6763 -1.6334 -3.1421
11499SOL    HW235076   0.547   6.022   1.915  0.2563  1.9106 -0.0191
11500SOL     OW35077   1.795   5.859   1.333  0.0782  0.3927 -0.5485
11500SOL    HW135078   1.775   5.882   1.242  0.6981  3.6878  0.0380
11500SOL    HW235079   1.890   5.847   1.334  0.3056  1.9869 -0.0956
11501SOL     OW35080   7.911   6.501   8.737 -0.1638 -0.1369 -0.3960
11501SOL    HW135081   7.891   6.423   8.684 -2.1653 -0.6997  1.0533
11501SOL    HW235082   7.825   6.537   8.759  0.7077  2.2768 -0.6730
11502SOL     OW35083   0.979   2.572   3.587  0.6846  0.4243 -0.5059
11502SOL    HW135084   0.997   2.534   3.500  0.8511 -0.9641  0.1115
11502SOL    HW235085   0.948   2.499   3.639 -2.6406  1.8384 -0.2395
11503SOL     OW35086   6.692   6.698   1.381  0.2344 -0.5864  0.6891
11503SOL    HW135087   6.613   6.753   1.378  0.2478 -0.5796  0.4220
11503SOL    HW235088   6.662   6.612   1.350 -0.2999 -1.3751  3.1673
11504SOL     OW35089   7.554   6.900   7.555 -0.0669  0.1522  0.0852
11504SOL    HW135090   7.555   6.913   7.460 -1.4180  0.2016  0.0586
11504SOL    HW235091   7.592   6.814   7.568 -0.5721 -0.1785 -0.5724
11505SOL     OW35092   5.342   1.110   2.284  0.3612 -0.8116  0.1298
11505SOL    HW135093   5.319   1.201   2.301 -0.3867 -0.8379 -0.6333
11505SOL    HW235094   5.435   1.103   2.305  0.2107 -0.1102  1.0854
11506SOL     OW35095   1.868   9.147   3.346  0.1235 -0.0458 -0.0285
11506SOL    HW135096   1.835   9.235   3.332  0.5704 -0.0026 -0.8579
11506SOL    HW235097   1.956   9.159   3.381  0.0597 -0.1657  0.1766
11507SOL     OW35098   9.724   4.977   8.811 -0.0507  0.3095  0.1112
11507SOL    HW135099   9.789   5.041   8.842 -0.9020  1.7983 -1.0426
11507SOL    HW235100   9.736   4.976   8.716 -1.1289 -0.0563 -0.0267
11508SOL     OW35101   3.975   9.090   8.551 -0.7292 -0.1309  0.1563
11508SOL    HW135102   3.893   9.129   8.522  0.4595  2.6008  0.1908
11508SOL    HW235103   3.992   9.130   8.637  0.6161 -0.6358  0.1551
11509SOL     OW35104   4.243   2.829   0.805  0.8584  0.3486  0.0360
11509SOL    HW135105   4.164   2.861   0.850  0.2224 -0.3314 -0.5535
11509SOL    HW235106   4.297   2.793   0.876 -0.3272 -1.1229  0.2671
11510SOL     OW35107   7.753   8.912   3.523  0.0047 -0.1422  0.1088
11510SOL    HW135108   7.826   8.850   3.527 -0.6601 -0.9660 -0.1767
11510SOL    HW235109   7.675   8.858   3.535 -0.5629  0.7236  0.4003
11511SOL     OW35110   9.186   2.224   7.293  0.0430 -0.7828 -0.5530
11511SOL    HW135111   9.188   2.304   7.242  1.8347 -0.4858 -0.1084
11511SOL    HW235112   9.220   2.250   7.379 -1.3472 -1.6011  0.2854
11512SOL     OW35113   1.632   6.297   2.293  0.3517 -0.3041  0.3039
11512SOL    HW135114   1.632   6.230   2.225 -0.7006  0.1357 -0.1469
11512SOL    HW235115   1.683   6.369   2.257 -1.2142  0.4186 -0.5451
11513SOL     OW35116   5.998   4.367   4.700  0.6731  0.3114 -0.6285
11513SOL    HW135117   5.914   4.336   4.666 -0.1018  2.8910 -1.3436
11513SOL    HW235118   5.977   4.405   4.785  1.0847  1.0581 -0.8516
11514SOL     OW35119   6.634   5.223   8.306  0.1607 -0.1496 -0.0216
11514SOL    HW135120   6.548   5.184   8.324 -0.2850 -0.3287 -2.1939
11514SOL    HW235121   6.628   5.311   8.342 -0.6660 -0.3969  0.4912
11515SOL     OW35122   9.703   3.693   3.763  0.2470 -0.3737 -0.3707
11515SOL    HW135123   9.766   3.709   3.692  0.5534  0.8469  0.1540
11515SOL    HW235124   9.756   3.697   3.843 -0.3016 -0.5315  0.0019
11516SOL     OW35125   0.766   7.873   5.918 -0.0820 -0.4657  0.5334
11516SOL    HW135126   0.819   7.855   5.840 -1.3636  0.7037 -0.6722
11516SOL    HW235127   0.817   7.936   5.968  0.4584 -0.7103  0.2925
11517SOL     OW35128   9.741   1.372   5.202  0.3072  0.1770 -0.3415
11517SOL    HW135129   9.658   1.349   5.160 -0.1409  2.8791 -1.1288
11517SOL    HW235130   9.803   1.383   5.130 -0.1123  3.4315 -0.3911
11518SOL     OW35131   8.907   5.913   2.866 -0.1061  0.6824 -0.2420
11518SOL    HW135132   8.952   5.992   2.897  2.1049 -0.1364 -1.1547
11518SOL    HW235133   8.923   5.912   2.771 -2.4950  0.5547 -0.7137
11519SOL     OW35134   1.934   0.871   1.152  0.4027  0.6065  0.2329
11519SOL    HW135135   1.871   0.937   1.179  1.3031  2.2256 -1.3683
11519SOL    HW235136   2.019   0.910   1.171  1.1953  2.2058 -4.8739
11520SOL     OW35137   3.724   4.241   7.525 -0.1889  0.2042  0.4162
11520SOL    HW135138   3.750   4.266   7.614 -0.0975  0.6766  0.2592
11520SOL    HW235139   3.667   4.165   7.537  1.3650 -0.9591  0.7678
11521SOL     OW35140   7.692   6.245   4.533 -0.2814  0.3018 -0.0743
11521SOL    HW135141   7.751   6.304   4.580  0.0470  1.2346 -1.5806
11521SOL    HW235142   7.605   6.280   4.548 -0.2068  0.4401  0.0346
11522SOL     OW35143   6.746   3.911   3.906  0.4906  0.4029  0.1130
11522SOL    HW135144   6.736   3.979   3.839 -2.2904 -0.2537 -0.2615
11522SOL    HW235145   6.705   3.948   3.984  0.2006 -0.3286  0.3149
11523SOL     OW35146   4.272   1.131   9.085 -0.2527 -0.4479  0.3464
11523SOL    HW135147   4.320   1.107   9.164  0.7952  1.2586  0.2874
11523SOL    HW235148   4.299   1.067   9.019  0.4003 -0.6976  0.8530
11524SOL     OW35149   5.569   9.594   1.768 -0.1898 -0.3893  0.1512
11524SOL    HW135150   5.483   9.627   1.795 -0.9031 -2.7663  1.1012
11524SOL    HW235151   5.610   9.564   1.849  0.4288 -1.6457 -0.5945
11525SOL     OW35152   3.271   6.548   6.371  0.3306  0.2779  0.4590
11525SOL    HW135153   3.301   6.514   6.456  0.6113 -1.0976 -0.1774
11525SOL    HW235154   3.311   6.491   6.306 -0.6269  0.7484 -0.5817
11526SOL     OW35155   4.694   6.123   8.159 -0.1390  0.0512  0.0460
11526SOL    HW135156   4.610   6.106   8.117  0.7427 -1.6226 -1.1553
11526SOL    HW235157   4.721   6.038   8.195  0.4416  0.8426  1.5887
11527SOL     OW35158   8.096   4.249   5.785 -0.0425 -0.7930  0.4448
11527SOL    HW135159   8.069   4.174   5.732  3.3365 -0.3925 -2.1938
11527SOL    HW235160   8.191   4.252   5.774  0.4473  1.4447  3.9043
11528SOL     OW35161   7.182   5.705   6.928  0.5352 -0.6700 -0.1224
11528SOL    HW135162   7.141   5.786   6.898 -0.4374 -1.4853 -1.0887
11528SOL    HW235163   7.269   5.732   6.957  1.1082  0.4164 -2.5345
11529SOL     OW35164   2.857   9.474   5.585 -0.2679 -0.1063  0.4042
11529SOL    HW135165   2.909   9.541   5.629  0.3005 -0.4778  0.2995
11529SOL    HW235166   2.766   9.503   5.597 -0.0116  1.1046 -0.3061
11530SOL     OW35167   2.580   3.480   8.836  0.5892  0.0144 -0.1242
11530SOL    HW135168   2.585   3.513   8.746 -2.0146 -1.1931 -0.8268
11530SOL    HW235169   2.592   3.386   8.827  0.8789 -0.0447  0.8661
11531SOL     OW35170   5.904   1.497   2.729  0.4621  0.0074  0.2310
11531SOL    HW135171   5.812   1.512   2.751  0.3325  1.6654 -1.2348
11531SOL    HW235172   5.909   1.404   2.711 -1.2332  0.0874 -0.9032
11532SOL     OW35173   5.292   7.402   0.105 -0.0148 -0.0608 -0.2621
11532SOL    HW135174   5.264   7.493   0.089 -0.4302 -0.1812 -0.2395
11532SOL    HW235175   5.280   7.358   0.021 -0.5746 -0.2854 -0.0675
11533SOL     OW35176   8.692   1.470   8.436 -0.2268  0.2550 -0.3572
11533SOL    HW135177   8.772   1.418   8.434  0.7485  1.6790  0.3639
11533SOL    HW235178   8.654   1.458   8.349  0.0606 -1.4750 -0.2779
11534SOL     OW35179   4.526   2.537   5.416  0.2254 -0.4045  0.5418
11534SOL    HW135180   4.570   2.600   5.474 -0.8153  1.5600 -0.6944
11534SOL    HW235181   4.528   2.455   5.465 -1.0358  1.2128  3.6406
11535SOL     OW35182   3.790   2.680   3.194  0.0389  0.6678 -0.2281
11535SOL    HW135183   3.769   2.636   3.113 -1.2938  0.3051  0.2962
11535SOL    HW235184   3.804   2.772   3.169 -1.1957  0.7247 -0.7580
11536SOL     OW35185   1.302   5.171   5.292 -0.4663  0.0207  0.7983
11536SOL    HW135186   1.344   5.138   5.212 -0.0639  1.6900  0.2934
11536SOL    HW235187   1.287   5.092   5.345  0.2750 -0.9882 -0.4350
11537SOL     OW35188   1.228   0.452   3.434 -0.5810 -0.5421  0.2273
11537SOL    HW135189   1.225   0.519   3.366  0.7469 -0.2603  0.4288
11537SOL    HW235190   1.158   0.477   3.495  1.8821  2.6154  2.0634
11538SOL     OW35191   7.732   2.699   2.454  0.0164  0.3050 -0.2037
11538SOL    HW135192   7.763   2.609   2.465 -1.8824 -0.3848 -0.0062
11538SOL    HW235193   7.665   2.693   2.385  1.2139  1.9404 -1.6037
11539SOL     OW35194   7.141   4.223   6.800 -0.5278  0.1732  0.4443
11539SOL    HW135195   7.111   4.150   6.745  0.7397  0.2245 -0.3519
11539SOL    HW235196   7.171   4.289   6.738  2.2185 -0.3067  1.1309
11540SOL     OW35197   4.853   0.068   4.972 -0.1581  0.0321  0.3019
11540SOL    HW135198   4.936   0.092   4.931 -0.7900  0.4850 -0.7642
11540SOL    HW235199   4.837  -0.022   4.943  1.1204 -0.9728  2.4918
11541SOL     OW35200   0.304   9.953   2.269 -0.3258 -0.0320 -0.4176
11541SOL    HW135201   0.277   9.866   2.240  1.2727 -0.5849 -0.3213
11541SOL    HW235202   0.260   9.965   2.353 -0.5428 -0.7476 -0.4222
11542SOL     OW35203   3.135   3.329   8.824 -0.1585 -0.1445  0.6122
11542SOL    HW135204   3.178   3.378   8.754 -0.1789 -1.5878 -0.4641
11542SOL    HW235205   3.197   3.332   8.897  0.5309  0.1214  0.0296
11543SOL     OW35206   3.278   9.839   4.267  0.1787  0.7110  0.1845
11543SOL    HW135207   3.244   9.764   4.316  0.7833 -0.4500 -1.1388
11543SOL    HW235208   3.276   9.812   4.176 -2.2660  3.3255 -0.7139
11544SOL     OW35209   0.389   1.732   5.756  0.8618  0.2709 -0.2575
11544SOL    HW135210   0.406   1.639   5.769  1.2553  0.4381  0.4832
11544SOL    HW235211   0.380   1.742   5.661 -2.7887 -1.1024 -0.1844
11545SOL     OW35212   0.056   4.153   3.584  0.2289 -0.4733 -0.5065
11545SOL    HW135213   0.092   4.104   3.510 -2.0892 -0.4590 -1.7114
11545SOL    HW235214   0.078   4.100   3.661  1.1030 -1.4072 -1.3682
11546SOL     OW35215   8.970   4.778   0.254 -0.5793 -0.0509 -0.3226
11546SOL    HW135216   9.030   4.851   0.270 -0.7806 -0.3503  2.2303
11546SOL    HW235217   8.885   4.809   0.285 -0.3486 -1.8174  2.4479
11547SOL     OW35218   9.582   5.849   3.203  0.0152  0.2557 -0.4041
11547SOL    HW135219   9.672   5.879   3.213 -0.1940  1.2517 -1.2737
11547SOL    HW235220   9.568   5.788   3.276  1.8179 -1.0192 -1.0461
11548SOL     OW35221   6.081   1.208   0.217 -0.3988 -0.3702  0.1932
11548SOL    HW135222   6.004   1.174   0.171 -2.6055  1.0726  2.5155
11548SOL    HW235223   6.055   1.296   0.244  1.8163 -0.0970  1.6964
11549SOL     OW35224   2.548   5.497   0.777  0.1622 -0.2559  0.0802
11549SOL    HW135225   2.538   5.588   0.747  1.6128  0.0869  0.5442
11549SOL    HW235226   2.488   5.447   0.722 -0.3626  0.9287 -0.4682
11550SOL     OW35227   4.003   6.012   5.786 -0.2299  0.0848 -0.3269
11550SOL    HW135228   3.962   5.940   5.834  0.8067  0.1588  0.7205
11550SOL    HW235229   3.944   6.086   5.799 -0.1836 -0.0083  0.4889
11551SOL     OW35230   5.613   6.646   3.298  0.4609 -0.4629 -0.2197
11551SOL    HW135231   5.559   6.714   3.257 -0.5565 -0.6939  0.6795
11551SOL    HW235232   5.639   6.685   3.382 -0.7683 -1.4395  0.6440
11552SOL     OW35233   9.350   6.789   5.547 -0.0081 -0.1742 -0.2583
11552SOL    HW135234   9.420   6.787   5.611 -1.2690 -0.2103  1.1672
11552SOL    HW235235   9.271   6.809   5.597 -1.0690 -0.3260 -1.7734
11553SOL     OW35236   3.383   0.339   9.704  0.0123  0.7612 -0.0619
11553SOL    HW135237   3.436   0.297   9.771  0.6839 -0.8328 -1.4986
11553SOL    HW235238   3.424   0.312   9.621 -1.5420  1.5705 -1.1463
11554SOL     OW35239   6.162   7.801   8.682 -0.1853  0.1966  0.7007
11554SOL    HW135240   6.108   7.817   8.604  0.4231  1.5944  0.5320
11554SOL    HW235241   6.149   7.879   8.736 -0.3209 -0.6088  1.8478
11555SOL     OW35242   3.662   1.007   1.954  0.0547 -0.6882  0.3854
11555SOL    HW135243   3.658   0.911   1.950  1.0961 -0.7807  1.2563
11555SOL    HW235244   3.612   1.030   2.032  1.6665 -0.7083  1.4821
11556SOL     OW35245   0.540   7.900   9.311 -0.0862 -0.0296 -0.2938
11556SOL    HW135246   0.506   7.886   9.399 -3.2074  0.0185 -1.3795
11556SOL    HW235247   0.615   7.841   9.305 -1.8611 -2.6548  1.2644
11557SOL     OW35248   2.451   8.267   4.650  0.3425  0.5254 -0.3571
11557SOL    HW135249   2.453   8.335   4.717 -0.0167 -0.9257  1.2049
11557SOL    HW235250   2.372   8.287   4.599  0.5088  1.5394 -0.2470
11558SOL     OW35251   8.097   2.046   7.639 -0.4999  0.1938  0.4484
11558SOL    HW135252   8.108   1.957   7.671 -1.4681 -0.4235 -0.8157
11558SOL    HW235253   8.167   2.057   7.574 -1.2409 -0.1972 -0.4466
11559SOL     OW35254   6.037   1.852   3.800  0.0960  0.1229 -0.0680
11559SOL    HW135255   5.964   1.886   3.749  0.3206 -0.0553 -0.5077
11559SOL    HW235256   5.996   1.816   3.879 -0.1816  1.0993  0.2605
11560SOL     OW35257   4.189   5.249   3.354 -0.0077  0.2000 -0.0487
11560SOL    HW135258   4.204   5.190   3.427 -1.1787 -0.5470 -0.3969
11560SOL    HW235259   4.175   5.335   3.395  0.7739  0.0706  0.5088
11561SOL     OW35260   2.301   4.299   2.807 -0.2874  0.0205 -0.3743
11561SOL    HW135261   2.274   4.383   2.845 -1.0699 -0.6234  0.5383
11561SOL    HW235262   2.236   4.236   2.839  0.3166 -0.9494 -1.0004
11562SOL     OW35263   0.919   2.175   9.235  0.1688 -0.0069  0.6347
11562SOL    HW135264   0.846   2.149   9.291  0.3832 -0.1068  0.8690
11562SOL    HW235265   0.981   2.216   9.295  0.1849  0.3312  0.3940
11563SOL     OW35266   9.863   2.928   9.306 -0.5422  0.0387 -0.5631
11563SOL    HW135267   9.916   2.892   9.235  0.4755 -0.5324  0.4495
11563SOL    HW235268   9.886   2.875   9.383 -0.2179  1.7884  0.6104
11564SOL     OW35269   7.062   3.530   6.179  0.1930 -0.0823  0.1067
11564SOL    HW135270   6.997   3.582   6.227  0.5530  0.1699  0.3346
11564SOL    HW235271   7.014   3.454   6.148 -0.8012  1.2131 -1.7494
11565SOL     OW35272   2.093   7.471   9.262 -0.6073  0.4705  0.4449
11565SOL    HW135273   2.146   7.500   9.187 -0.7517 -0.6103 -0.1002
11565SOL    HW235274   2.154   7.422   9.317 -0.8161  0.0274  0.2913
11566SOL     OW35275   3.180   3.876   7.929 -0.3801 -0.0690 -0.6631
11566SOL    HW135276   3.172   3.854   8.022  1.1894  4.2425  0.7634
11566SOL    HW235277   3.095   3.913   7.906 -0.1828  0.5965 -0.3422
11567SOL     OW35278   6.101   4.380   8.244  0.0331  0.3417 -0.5576
11567SOL    HW135279   6.107   4.285   8.228  1.0079  0.1106  0.9999
11567SOL    HW235280   6.035   4.389   8.312 -2.1296  1.0867 -2.6101
11568SOL     OW35281   6.895   0.201   9.171  0.1605  0.3411  0.8835
11568SOL    HW135282   6.861   0.137   9.109  0.2680  0.9022  0.2330
11568SOL    HW235283   6.978   0.164   9.201 -0.6719 -0.7061  1.9587
11569SOL     OW35284   2.671   2.026   8.013  0.6287 -0.0441  0.1453
11569SOL    HW135285   2.585   2.068   8.014 -0.0832 -1.3773 -0.9807
11569SOL    HW235286   2.733   2.096   8.036 -0.8177  0.7413  1.8445
11570SOL     OW35287   9.491   8.441   5.866  0.1133 -0.1353 -0.6506
11570SOL    HW135288   9.513   8.533   5.856 -0.6860  0.0458 -0.7521
11570SOL    HW235289   9.427   8.438   5.936  1.1129 -0.7639  0.2672
11571SOL     OW35290   6.940   4.477   9.726  0.0581 -0.7842  0.1442
11571SOL    HW135291   6.856   4.435   9.744  0.8605 -2.3464  0.4248
11571SOL    HW235292   6.953   4.466   9.632  0.5022 -1.6785  0.2958
11572SOL     OW35293   7.043   5.886   7.925  0.1617  0.1262  0.0437
11572SOL    HW135294   6.971   5.858   7.868  0.3414 -1.3945  0.5156
11572SOL    HW235295   7.028   5.839   8.007  2.8468 -2.0061 -0.5480
11573SOL     OW35296   1.853   6.802   9.360 -0.3875  0.5984 -0.0752
11573SOL    HW135297   1.944   6.828   9.347 -0.5330  1.0286 -0.2513
11573SOL    HW235298   1.852   6.761   9.446 -0.4511  2.7418  1.0282
11574SOL     OW35299   8.583   3.599   0.768  0.5543  0.4087 -0.1634
11574SOL    HW135300   8.650   3.638   0.713 -0.1771 -0.8390 -2.0435
11574SOL    HW235301   8.500   3.632   0.732  0.0923  1.0364  1.4005
11575SOL     OW35302   8.873   3.398   7.107  0.1012  0.5673  0.3067
11575SOL    HW135303   8.917   3.460   7.050  0.3467 -1.7347 -2.2286
11575SOL    HW235304   8.817   3.452   7.163  1.0086  3.0857 -1.0586
11576SOL     OW35305   6.086   7.083   5.865 -0.2451 -0.4547 -0.7970
11576SOL    HW135306   6.057   7.111   5.952  0.1613  0.3090 -0.9022
11576SOL    HW235307   6.142   7.008   5.882  1.1849  0.6991 -0.2491
11577SOL     OW35308   9.324   5.808   3.272 -0.4888 -0.3602  0.0415
11577SOL    HW135309   9.413   5.827   3.242 -0.8837 -1.8876 -2.3701
11577SOL    HW235310   9.275   5.889   3.255  0.3233  0.4149  1.1854
11578SOL     OW35311   8.679   0.112   3.177  0.3659 -0.0532  0.3541
11578SOL    HW135312   8.695   0.206   3.173  1.7412 -0.2927 -0.0756
11578SOL    HW235313   8.755   0.072   3.134 -0.8555 -1.3136 -0.7362
11579SOL     OW35314   5.848   3.264   8.507  0.1633 -0.0347 -0.2706
11579SOL    HW135315   5.881   3.326   8.442 -0.0241  0.7059  0.3309
11579SOL    HW235316   5.766   3.302   8.537  0.3514 -0.2557  0.5535
11580SOL     OW35317   2.579   8.488   2.551 -0.4889 -0.1244  0.0351
11580SOL    HW135318   2.638   8.560   2.572  0.0081 -1.2871  3.1909
11580SOL    HW235319   2.633   8.427   2.501  0.0452  0.1921  0.2178
11581SOL     OW35320   3.309   9.853   8.925  0.5322  0.1537 -0.5309
11581SOL    HW135321   3.334   9.854   9.017 -0.0263  2.5494 -0.3239
11581SOL    HW235322   3.351   9.775   8.889  3.3332  0.7505  1.0903
11582SOL     OW35323   8.931   8.535   9.437  0.0404  0.4756  0.2329
11582SOL    HW135324   8.859   8.581   9.481 -0.1748 -0.5840  1.0503
11582SOL    HW235325   8.974   8.487   9.507 -0.2596 -1.2131 -0.6825
11583SOL     OW35326   3.585   1.531   5.483  0.0204  0.3964 -0.0155
11583SOL    HW135327   3.637   1.607   5.509  1.0607 -0.8265  1.6805
11583SOL    HW235328   3.649   1.462   5.468 -0.9229 -0.2451 -1.3596
11584SOL     OW35329   5.290   6.071   8.868  0.0820  0.3074 -0.6758
11584SOL    HW135330   5.304   5.976   8.863  0.5443  0.3723 -0.6670
11584SOL    HW235331   5.370   6.105   8.906 -0.1551  0.6874 -0.5120
11585SOL     OW35332   1.381   1.689   3.058  0.1099  0.2885 -0.0710
11585SOL    HW135333   1.472   1.717   3.056  0.5799 -1.0439  1.2523
11585SOL    HW235334   1.379   1.616   3.119 -1.8574  0.2819 -0.0708
11586SOL     OW35335   1.231   5.508   9.828 -0.7146 -0.4531  0.5995
11586SOL    HW135336   1.193   5.496   9.741  0.5693 -4.8537  0.4123
11586SOL    HW235337   1.310   5.560   9.812 -1.6576  0.7413 -0.4290
11587SOL     OW35338   2.144   8.957   4.813  0.2547  0.4179 -0.3688
11587SOL    HW135339   2.204   9.010   4.761 -1.1030  1.5447 -0.8592
11587SOL    HW235340   2.088   8.914   4.748 -0.1801  0.2687  0.0940
11588SOL     OW35341   1.581   5.058   5.859  0.8111 -0.4980 -0.0005
11588SOL    HW135342   1.642   4.989   5.884  1.2140 -0.1240  0.0560
11588SOL    HW235343   1.631   5.113   5.799  0.2016 -0.7789 -0.7982
11589SOL     OW35344   1.198   6.496   3.713  0.6124 -0.5849 -0.3019
11589SOL    HW135345   1.125   6.521   3.656 -1.3955 -0.3458  2.2368
11589SOL    HW235346   1.265   6.562   3.695  0.4910 -1.0653 -3.0172
11590SOL     OW35347   7.561   5.235   6.110 -0.5358 -0.0026 -0.0101
11590SOL    HW135348   7.637   5.205   6.061 -1.5504 -0.2521 -1.4983
11590SOL    HW235349   7.504   5.276   6.044 -2.1492 -0.7365  0.8571
11591SOL     OW35350   6.952   6.135   2.846 -0.2914 -0.2198 -0.3474
11591SOL    HW135351   6.907   6.211   2.808 -0.4062  0.1382  0.4821
11591SOL    HW235352   6.882   6.079   2.878 -0.1776 -0.0948  0.1273
11592SOL     OW35353   0.365   0.514   5.156  0.3348  1.0765  0.0327
11592SOL    HW135354   0.364   0.543   5.065 -1.2567  0.6648 -0.0958
11592SOL    HW235355   0.365   0.419   5.152  2.8236  0.9726  0.4865
11593SOL     OW35356   2.375   5.800   8.227 -0.0750  0.1632  0.3018
11593SOL    HW135357   2.336   5.718   8.198 -1.2972  0.4330  1.0851
11593SOL    HW235358   2.337   5.866   8.169  1.6003  0.0969 -0.9186
11594SOL     OW35359   7.177   5.546   8.101  0.0503  0.4571 -0.0104
11594SOL    HW135360   7.118   5.533   8.026  0.0472  2.1938 -0.3619
11594SOL    HW235361   7.118   5.566   8.174  0.1338  0.5934  0.0194
11595SOL     OW35362   6.537   6.268   8.684 -0.8615  0.4349  0.1820
11595SOL    HW135363   6.510   6.335   8.622 -0.9289  1.5029  1.3235
11595SOL    HW235364   6.456   6.222   8.706 -0.7766 -0.2188 -0.7901
11596SOL     OW35365   2.969   0.516   5.924  0.0141 -0.3988 -0.1919
11596SOL    HW135366   2.975   0.433   5.878  0.4700  0.0748 -1.0082
11596SOL    HW235367   2.920   0.496   6.004  1.2422 -1.7342  0.2675
11597SOL     OW35368   7.572   1.287   8.930  0.1707  0.0808 -0.0283
11597SOL    HW135369   7.633   1.232   8.978  1.4174  0.5408 -1.0153
11597SOL    HW235370   7.589   1.376   8.962 -0.4251  0.1432  0.1300
11598SOL     OW35371   2.298   0.331   4.653  0.3196  0.0111  0.1750
11598SOL    HW135372   2.386   0.359   4.676  0.9585  0.0873 -2.1496
11598SOL    HW235373   2.282   0.255   4.710  2.0273 -0.2357  0.3801
11599SOL     OW35374   1.816   9.437   5.800 -0.1183 -0.4035  0.2346
11599SOL    HW135375   1.734   9.484   5.807  0.9178  1.2523  2.1578
11599SOL    HW235376   1.843   9.448   5.709 -0.9739  0.8506  0.1208
11600SOL     OW35377   4.256   4.223   5.933 -0.1564 -0.7335  0.1360
11600SOL    HW135378   4.261   4.319   5.925 -1.9072 -0.7401 -1.5900
11600SOL    HW235379   4.333   4.191   5.885 -0.5866 -0.2107 -0.9371
11601SOL     OW35380   9.156   7.606   0.130  0.1383 -0.7116 -0.3789
11601SOL    HW135381   9.217   7.540   0.162  0.7153 -0.7644 -1.5244
11601SOL    HW235382   9.134   7.577   0.041 -1.9070 -0.9281  0.1339
11602SOL     OW35383   5.331   8.612   0.547  0.3952  0.6369  0.4096
11602SOL    HW135384   5.410   8.566   0.575  0.2473  1.0933  1.6386
11602SOL    HW235385   5.336   8.611   0.452  1.4066 -0.1559  0.4458
11603SOL     OW35386   7.189   4.599   7.355  0.1275 -0.1524  0.5188
11603SOL    HW135387   7.174   4.580   7.448 -0.8716 -0.6750  0.2607
11603SOL    HW235388   7.275   4.560   7.336 -1.1928 -3.2832  0.3626
11604SOL     OW35389   7.721   3.336   1.169 -0.4270 -0.2623 -0.7422
11604SOL    HW135390   7.695   3.257   1.218  0.8539  0.0427  0.5046
11604SOL    HW235391   7.721   3.308   1.078 -0.3176 -1.6303 -0.3509
11605SOL     OW35392   6.505   9.060   9.195  0.4544  0.1744 -0.4252
11605SOL    HW135393   6.563   9.135   9.208 -0.3142  0.6835  0.2497
11605SOL    HW235394   6.451   9.084   9.120 -0.0482  0.4748  0.0255
11606SOL     OW35395   0.797   1.782   8.955 -0.9264 -0.1844  0.8004
11606SOL    HW135396   0.735   1.793   9.027 -0.2702 -0.7044  1.4766
11606SOL    HW235397   0.868   1.843   8.975 -1.8963  1.5723 -0.8032
11607SOL     OW35398   9.406   7.261   5.524  0.2764  0.0210  0.1602
11607SOL    HW135399   9.501   7.275   5.518  0.6748 -2.2631  0.3163
11607SOL    HW235400   9.394   7.170   5.500 -1.4850 -0.7854  3.5114
11608SOL     OW35401   3.318   1.533   8.081  0.0162 -0.1411 -0.2875
11608SOL    HW135402   3.401   1.497   8.111 -0.2886 -1.4136 -0.8918
11608SOL    HW235403   3.290   1.592   8.151  1.6001  0.6063 -0.2531
11609SOL     OW35404   0.996   6.426   5.614 -0.1352 -0.5432  0.5559
11609SOL    HW135405   0.969   6.508   5.655 -0.4266 -0.5693  0.4163
11609SOL    HW235406   1.032   6.452   5.529  0.8745 -0.4450  0.9980
11610SOL     OW35407   1.040   7.671   9.799  0.3564  0.2675 -0.5547
11610SOL    HW135408   1.076   7.672   9.887  1.0358  1.0437 -0.8337
11610SOL    HW235409   1.087   7.600   9.754  1.0140  0.7789 -0.6927
11611SOL     OW35410   6.205   5.110   2.131 -0.5041 -0.2013 -0.2642
11611SOL    HW135411   6.216   5.183   2.070 -2.8859  0.1096 -0.4407
11611SOL    HW235412   6.207   5.032   2.076 -0.0748 -0.1097 -0.3771
11612SOL     OW35413   4.556   4.971   1.724  0.2254 -0.0440 -0.4466
11612SOL    HW135414   4.568   5.062   1.750 -0.3540 -0.0416 -0.1651
11612SOL    HW235415   4.634   4.926   1.757  0.0929  0.1917  0.2129
11613SOL     OW35416   6.096   3.815   4.410 -0.3574  0.4507  0.3500
11613SOL    HW135417   6.118   3.905   4.388 -0.1258  0.8878  2.2322
11613SOL    HW235418   6.137   3.800   4.495 -1.6333 -0.9419  0.7627
11614SOL     OW35419   3.837   8.088   4.903 -0.1010  0.4237 -0.1649
11614SOL    HW135420   3.841   8.079   4.999  0.1358 -0.7939 -0.2732
11614SOL    HW235421   3.884   8.169   4.885  0.2063  0.4577  0.7224
11615SOL     OW35422   7.795   4.154   5.059  0.1809  0.2595 -0.3993
11615SOL    HW135423   7.751   4.068   5.060  0.0923  0.2957 -1.0055
11615SOL    HW235424   7.863   4.145   4.993  0.0441  0.7249 -0.5988
11616SOL     OW35425   8.667   7.335   5.927  0.5592 -0.4325  0.0071
11616SOL    HW135426   8.708   7.413   5.966  2.0983 -1.8432  1.3392
11616SOL    HW235427   8.665   7.354   5.833  1.0020  1.1654  0.2880
11617SOL     OW35428   3.576   7.371   6.992  0.4429 -0.2353  0.6099
11617SOL    HW135429   3.661   7.392   6.952  0.6788  0.5106  1.4646
11617SOL    HW235430   3.516   7.366   6.918  0.8821  1.0443  0.1230
11618SOL     OW35431   5.953   1.644   3.309  0.3751  0.1691 -0.4315
11618SOL    HW135432   5.981   1.643   3.400 -1.3180 -1.0276  0.1451
11618SOL    HW235433   5.883   1.710   3.306 -0.3930 -0.6260 -0.5512
11619SOL     OW35434   6.616   6.969   9.288 -0.1220  0.3583 -0.6669
11619SOL    HW135435   6.684   7.010   9.234 -1.1746  1.1251 -1.4322
11619SOL    HW235436   6.641   6.991   9.378  0.8399  0.3041 -0.9022
11620SOL     OW35437   3.763   1.271   0.801  0.1133 -0.2596  0.5772
11620SOL    HW135438   3.674   1.301   0.785  0.2341 -0.5931 -0.8932
11620SOL    HW235439   3.793   1.323   0.876 -1.3269 -0.1959  1.1318
11621SOL     OW35440   4.103   6.792   6.817 -0.3849  0.4673 -0.0930
11621SOL    HW135441   4.046   6.769   6.890 -0.0039  0.9490  0.3692
11621SOL    HW235442   4.044   6.797   6.742 -0.9152  0.6978  0.3234
11622SOL     OW35443   2.575   1.674   3.526 -0.0951  0.0362 -0.1531
11622SOL    HW135444   2.601   1.642   3.612  0.5796  0.3278 -0.2368
11622SOL    HW235445   2.592   1.600   3.467 -1.9553 -0.6789  0.1578
11623SOL     OW35446   3.330   8.073   3.210 -0.0585 -0.0745 -0.3922
11623SOL    HW135447   3.395   8.003   3.220  1.1562  1.1951  0.9396
11623SOL    HW235448   3.381   8.154   3.209 -1.5965  0.9630  0.5872
11624SOL     OW35449   5.931   7.559   0.143  0.1845  0.2575  0.1864
11624SOL    HW135450   5.971   7.502   0.209  2.1978  0.8385 -0.4586
11624SOL    HW235451   5.899   7.634   0.193  0.9573  0.3170  0.6069
11625SOL     OW35452   0.708   2.242   6.562  0.4593  0.3896 -0.5208
11625SOL    HW135453   0.636   2.302   6.544 -0.9404 -1.1447 -0.2907
11625SOL    HW235454   0.707   2.181   6.489 -0.0657 -1.0760  0.6607
11626SOL     OW35455   4.144   2.302   9.583  0.1367  0.9340  0.5984
11626SOL    HW135456   4.190   2.320   9.501 -0.1278  1.0450  0.4749
11626SOL    HW235457   4.175   2.215   9.609 -1.4291 -0.0911 -0.7633
11627SOL     OW35458   9.406   3.101   0.743  0.9173  0.1177 -0.3329
11627SOL    HW135459   9.416   3.192   0.770 -1.0998  0.5155 -0.7533
11627SOL    HW235460   9.370   3.057   0.821  0.3627  0.0533 -0.6201
11628SOL     OW35461   2.026   8.302   3.223  0.0078 -0.6809 -0.3372
11628SOL    HW135462   2.077   8.323   3.301 -0.9112 -0.0637  0.1072
11628SOL    HW235463   1.956   8.367   3.221  0.7758  0.1509 -2.4221
11629SOL     OW35464   5.579   8.614   6.524  0.1075  0.0701  0.3348
11629SOL    HW135465   5.498   8.626   6.573 -1.3194  0.7424 -2.0374
11629SOL    HW235466   5.627   8.696   6.538 -1.0138  0.9193 -0.6172
11630SOL     OW35467   1.269   2.131   4.687 -0.1237  0.5796  0.4033
11630SOL    HW135468   1.283   2.224   4.666 -0.3433  0.3623 -0.8027
11630SOL    HW235469   1.174   2.124   4.702 -0.3391  0.3010 -0.9618
11631SOL     OW35470   8.000   8.896   3.174  0.0610 -0.6852  0.2066
11631SOL    HW135471   8.013   8.972   3.230 -0.8564 -0.5950  0.3173
11631SOL    HW235472   7.920   8.855   3.208 -0.1536 -0.9841 -0.6413
11632SOL     OW35473   6.048   5.669   7.155 -0.1338  0.0486  1.0337
11632SOL    HW135474   6.081   5.674   7.245  1.2535  1.2322  0.5000
11632SOL    HW235475   6.116   5.622   7.107 -0.9269 -0.6917  0.6087
11633SOL     OW35476   9.461   0.644   5.142 -0.0025 -1.1460 -0.2180
11633SOL    HW135477   9.488   0.721   5.092  0.2785 -0.0941  1.4549
11633SOL    HW235478   9.513   0.572   5.107  1.9086  0.0181  0.1269
11634SOL     OW35479   8.522   8.910   5.380 -0.2230 -0.5942  0.3598
11634SOL    HW135480   8.508   8.825   5.339  4.1890 -0.5627 -1.7851
11634SOL    HW235481   8.590   8.894   5.445  1.0051  1.2985 -0.3789
11635SOL     OW35482   8.623   5.522   2.995  0.3870  0.0111  0.3515
11635SOL    HW135483   8.584   5.568   2.921 -1.8517 -0.1971  1.3092
11635SOL    HW235484   8.700   5.574   3.019 -0.4745  1.6604 -0.3395
11636SOL     OW35485   7.473   6.717   1.422 -0.5190  0.0473  0.2654
11636SOL    HW135486   7.555   6.726   1.470  0.9870 -0.3147 -2.0659
11636SOL    HW235487   7.500   6.693   1.333 -3.1636 -0.0519 -0.5964
11637SOL     OW35488   5.760   5.390   2.137 -0.0761 -0.6538  0.4796
11637SOL    HW135489   5.762   5.432   2.223 -0.1754 -2.0782  1.2065
11637SOL    HW235490   5.688   5.434   2.091  1.9813  2.3860 -0.1537
11638SOL     OW35491   4.939   2.018   3.399  0.1596  0.0814  0.1488
11638SOL    HW135492   5.031   2.021   3.372  0.8567 -2.2192  1.9475
11638SOL    HW235493   4.898   1.955   3.340 -0.4210  1.4283 -0.9344
11639SOL     OW35494   0.557   1.683   0.142 -0.1251 -0.0013 -0.4718
11639SOL    HW135495   0.550   1.589   0.158 -3.0160 -0.3861 -3.0807
11639SOL    HW235496   0.528   1.723   0.224  0.4628 -1.3853  0.4475
11640SOL     OW35497   4.200   2.309   0.323  0.1746 -0.0992  0.2534
11640SOL    HW135498   4.209   2.377   0.256 -3.3138  0.3368  0.0840
11640SOL    HW235499   4.164   2.355   0.399  0.4409 -1.2789  1.1216
11641SOL     OW35500   2.403   3.055   9.870  0.2637 -1.0246  0.1193
11641SOL    HW135501   2.479   3.100   9.833 -0.6104 -1.1120 -1.9221
11641SOL    HW235502   2.389   2.979   9.812 -2.3864 -0.0602 -0.6805
11642SOL     OW35503   0.572   3.898   1.816  0.1712  0.2701 -0.2981
11642SOL    HW135504   0.581   3.820   1.761  0.6518  1.1039 -1.4615
11642SOL    HW235505   0.589   3.868   1.905 -2.0330 -1.4260 -0.3737
11643SOL     OW35506   3.156   9.711   6.924 -0.0048  0.4128 -0.7944
11643SOL    HW135507   3.101   9.758   6.861 -2.9372 -0.3346  1.0096
11643SOL    HW235508   3.233   9.766   6.935 -0.1439  1.3585 -3.7312
11644SOL     OW35509   5.030   7.440   6.486  0.3665 -0.2829  0.7248
11644SOL    HW135510   4.997   7.370   6.542  0.0799 -0.3984  0.4139
11644SOL    HW235511   5.049   7.513   6.546 -0.9030 -0.0400  0.8540
11645SOL     OW35512   6.369   8.565   9.563 -0.2013 -0.4189  0.2531
11645SOL    HW135513   6.363   8.610   9.478  1.3702 -0.0109  0.3346
11645SOL    HW235514   6.302   8.497   9.558 -1.2114  0.5913 -0.6939
11646SOL     OW35515   0.402   5.468   0.609  0.2202 -0.2050 -0.5496
11646SOL    HW135516   0.451   5.549   0.627  0.1390 -0.3995  0.5578
11646SOL    HW235517   0.409   5.417   0.689 -0.5970 -0.8640 -0.8867
11647SOL     OW35518   0.992   1.927   9.478  0.8054  0.2562 -0.3807
11647SOL    HW135519   1.003   1.872   9.556 -2.5407 -0.9436 -0.5897
11647SOL    HW235520   0.929   1.994   9.505  0.2606  0.3463 -1.7807
11648SOL     OW35521   1.443   8.792   2.689  0.1382 -0.1965  0.1095
11648SOL    HW135522   1.437   8.738   2.768  1.3336 -1.7752 -0.8244
11648SOL    HW235523   1.396   8.743   2.622  0.3282  0.4501 -0.5107
11649SOL     OW35524   1.101   2.560   3.944 -0.3408  0.1823  0.4672
11649SOL    HW135525   1.070   2.544   3.855  2.2020  0.0068 -0.4906
11649SOL    HW235526   1.141   2.477   3.971  4.9621  1.8279 -1.0399
11650SOL     OW35527   3.059   1.026   3.308 -0.0286 -0.5997  0.1917
11650SOL    HW135528   2.994   1.075   3.358 -0.0912  0.5466 -0.9472
11650SOL    HW235529   3.066   1.074   3.225  0.0064 -2.4480 -0.9429
11651SOL     OW35530   7.650   6.741   9.376 -0.3927  0.3972 -0.0967
11651SOL    HW135531   7.592   6.666   9.389 -1.5392  1.1756 -0.5428
11651SOL    HW235532   7.738   6.703   9.375 -0.9617 -0.9960 -0.7194
11652SOL     OW35533   1.900   4.535   2.564  0.0672 -0.1428  0.5357
11652SOL    HW135534   1.864   4.622   2.545  0.8271 -0.2913 -1.9695
11652SOL    HW235535   1.995   4.547   2.561  0.2119 -1.2882 -1.5576
11653SOL     OW35536   5.717   2.193   3.427 -0.0451  0.2550  0.2083
11653SOL    HW135537   5.706   2.283   3.395  1.3313 -0.2268 -1.7489
11653SOL    HW235538   5.658   2.141   3.372  0.4582 -0.2619  0.1503
11654SOL     OW35539   1.207   9.426   9.538 -0.3261  0.2294 -0.0359
11654SOL    HW135540   1.172   9.478   9.611  0.9068  0.6417  0.2881
11654SOL    HW235541   1.155   9.346   9.539 -0.0796  0.0489  1.5893
11655SOL     OW35542   7.754   6.022   8.116  0.1896  0.4065  0.3361
11655SOL    HW135543   7.781   5.945   8.066 -2.4246 -1.8045  2.0403
11655SOL    HW235544   7.677   6.055   8.069 -0.4465  0.1832  1.2179
11656SOL     OW35545   4.975   6.440   3.085  0.1354  0.4211 -0.1828
11656SOL    HW135546   4.932   6.391   3.155 -0.9757  0.1514 -1.0332
11656SOL    HW235547   5.068   6.420   3.096 -0.1851 -1.0024  0.1862
11657SOL     OW35548   5.019   4.756   4.266 -0.2173 -0.6896 -0.0627
11657SOL    HW135549   5.065   4.673   4.253  1.3876 -0.2833  2.3473
11657SOL    HW235550   4.961   4.740   4.340 -0.0804  0.2653  0.2659
11658SOL     OW35551   9.290   3.786   6.691 -0.0240 -0.4873 -0.5356
11658SOL    HW135552   9.260   3.843   6.620  3.7334  1.1427 -1.0433
11658SOL    HW235553   9.316   3.705   6.646  1.5789  0.2415 -1.0024
11659SOL     OW35554   8.970   1.460   4.172 -0.1474  0.2491  0.0317
11659SOL    HW135555   8.885   1.454   4.216 -0.1582 -0.4381 -0.0613
11659SOL    HW235556   8.953   1.434   4.082  0.3392 -0.9904  0.2716
11660SOL     OW35557   9.810   0.973   2.651 -0.1370  0.0598  0.2846
11660SOL    HW135558   9.728   1.015   2.679  1.2631  0.1466  5.1867
11660SOL    HW235559   9.783   0.913   2.582 -3.6708  2.6114 -0.8721
11661SOL     OW35560   2.850   7.596   9.738  0.7188  0.0077  0.2472
11661SOL    HW135561   2.873   7.506   9.759  0.7699  0.0773  0.4858
11661SOL    HW235562   2.762   7.608   9.775 -0.1598 -0.5744 -1.5177
11662SOL     OW35563   4.486   3.968   1.361  0.1446  0.4905  0.2815
11662SOL    HW135564   4.550   3.923   1.415  0.7046  1.3036  0.3160
11662SOL    HW235565   4.447   4.033   1.420 -1.1731 -0.4079  0.4376
11663SOL     OW35566   5.757   1.610   0.828 -0.0821  0.0529  0.0660
11663SOL    HW135567   5.757   1.538   0.766  0.0215  0.1178 -0.0116
11663SOL    HW235568   5.828   1.667   0.798 -0.8326  0.7113 -0.4837
11664SOL     OW35569   7.674   1.036   1.249 -0.1453  0.0524  0.1765
11664SOL    HW135570   7.580   1.027   1.231  0.2307 -0.0063 -2.0247
11664SOL    HW235571   7.679   1.053   1.343 -2.3529  0.0522  0.3430
11665SOL     OW35572   5.940   9.867   0.581 -0.5561  0.0776 -0.5291
11665SOL    HW135573   5.871   9.930   0.561 -1.7394 -0.9764  0.0938
11665SOL    HW235574   5.914   9.830   0.666  0.2943 -0.9911 -0.7164
11666SOL     OW35575   7.907   5.062   7.010  0.1955 -0.0666 -0.2337
11666SOL    HW135576   7.999   5.041   6.993  0.2099  1.5230 -2.5819
11666SOL    HW235577   7.860   5.024   6.936 -1.0079 -0.5314  0.7442
11667SOL     OW35578   6.010   9.315   4.432  0.0489  0.7340  0.5678
11667SOL    HW135579   5.924   9.318   4.474  0.3684 -0.9772  1.4281
11667SOL    HW235580   6.065   9.371   4.485 -0.1429  0.5122  1.0055
11668SOL     OW35581   0.074   4.716   3.333 -0.2640  0.3791 -0.2393
11668SOL    HW135582   0.148   4.747   3.281 -1.2235  2.1667 -0.5994
11668SOL    HW235583   0.112   4.694   3.418  0.6527  1.5659 -0.3200
11669SOL     OW35584   7.526   6.855   3.508  0.1575 -0.2627  0.6601
11669SOL    HW135585   7.597   6.858   3.572 -0.0365 -0.4628  0.8898
11669SOL    HW235586   7.471   6.930   3.532  1.6247  1.4767 -1.1156
11670SOL     OW35587   2.866   0.682   6.757 -0.2246 -0.8030 -0.2837
11670SOL    HW135588   2.837   0.766   6.791 -3.4804 -0.9133 -2.2977
11670SOL    HW235589   2.943   0.702   6.704  0.4292  0.4758  1.1007
11671SOL     OW35590   5.683   9.497   7.589  0.1737 -0.0618 -0.4477
11671SOL    HW135591   5.606   9.551   7.607  0.2231 -0.2359  0.3067
11671SOL    HW235592   5.755   9.560   7.586  0.2928 -0.1106  0.8385
11672SOL     OW35593   7.538   0.735   3.021  0.0260  0.2944  0.8302
11672SOL    HW135594   7.460   0.778   3.057 -0.6651 -1.6559  1.8088
11672SOL    HW235595   7.577   0.689   3.096  0.1563 -1.5851 -0.3276
11673SOL     OW35596   6.315   5.566   9.571 -0.7525 -0.4900  0.3241
11673SOL    HW135597   6.406   5.581   9.599 -1.0245 -2.2079  2.2766
11673SOL    HW235598   6.263   5.579   9.650 -1.8771 -2.5069 -0.0280
11674SOL     OW35599   2.325   3.253   6.866  0.1934 -0.5817  0.6343
11674SOL    HW135600   2.334   3.341   6.904 -1.3674 -0.1882  0.1998
11674SOL    HW235601   2.364   3.195   6.931  2.4400  0.5124  0.3447
11675SOL     OW35602   1.186   1.399   9.475  0.0847  0.0599  0.3603
11675SOL    HW135603   1.249   1.357   9.534 -1.4578 -1.5656  0.9168
11675SOL    HW235604   1.203   1.359   9.390  0.3276  0.2124  0.3366
11676SOL     OW35605   7.787   3.781   0.489 -0.1512 -0.4411 -0.2615
11676SOL    HW135606   7.767   3.866   0.450 -0.0914 -0.6907 -0.8338
11676SOL    HW235607   7.741   3.718   0.434 -0.3574 -0.7693  0.2793
11677SOL     OW35608   5.796   4.076   8.062  0.4740  0.8194 -0.4705
11677SOL    HW135609   5.702   4.065   8.049  0.8878 -1.2799 -2.5036
11677SOL    HW235610   5.816   4.022   8.138  0.0349  1.2461 -0.0500
11678SOL     OW35611   4.364   0.898   5.707  0.4779  0.1474  0.2453
11678SOL    HW135612   4.379   0.955   5.631 -0.1343  0.3046  0.2282
11678SOL    HW235613   4.330   0.817   5.670 -1.8716  0.9500  0.4151
11679SOL     OW35614   6.196   9.815   6.199 -0.1155  0.5822  0.8234
11679SOL    HW135615   6.131   9.748   6.178  2.3486 -2.0392  0.8458
11679SOL    HW235616   6.257   9.813   6.125  0.5724  2.1382  1.3056
11680SOL     OW35617   3.079   8.240   6.276 -0.0193 -0.2457  0.0404
11680SOL    HW135618   3.059   8.285   6.358 -1.4436 -1.2754  0.2949
11680SOL    HW235619   3.153   8.289   6.239 -0.4940  1.3180  1.0523
11681SOL     OW35620   9.941   5.529   9.416 -0.3381  0.2415  0.4878
11681SOL    HW135621  10.018   5.575   9.450  0.8493 -0.4917 -1.0711
11681SOL    HW235622   9.882   5.599   9.387  0.8330  0.8320 -0.5658
11682SOL     OW35623   9.356   9.713   1.486  0.3082 -0.1457 -0.4712
11682SOL    HW135624   9.446   9.698   1.516  1.1915  2.2223 -1.6719
11682SOL    HW235625   9.364   9.724   1.391 -0.9009  2.0285 -0.3973
11683SOL     OW35626   5.764   5.300   4.595  1.0030  0.3299 -0.1070
11683SOL    HW135627   5.724   5.387   4.585  0.8156  0.2132 -0.3739
11683SOL    HW235628   5.817   5.289   4.516 -0.8861 -0.8063 -1.3016
11684SOL     OW35629   0.573   6.872   9.148 -0.5110 -0.5862 -0.4467
11684SOL    HW135630   0.650   6.817   9.136 -0.8942 -1.0222 -0.9596
11684SOL    HW235631   0.603   6.944   9.203  0.0643 -1.1583 -0.0043
11685SOL     OW35632   2.905   5.662   6.291 -0.2879  0.4710  0.1058
11685SOL    HW135633   2.851   5.584   6.301  1.8572 -1.0287  0.9503
11685SOL    HW235634   2.903   5.704   6.378 -0.0409  0.3513  0.1715
11686SOL     OW35635   2.585   5.756   5.597 -0.2060  0.1123  0.0933
11686SOL    HW135636   2.610   5.685   5.656  1.3329 -0.0069 -0.6585
11686SOL    HW235637   2.508   5.722   5.550  0.4377 -1.0209 -0.1726
11687SOL     OW35638   9.762   6.032   3.857  0.1449  0.4166 -0.3293
11687SOL    HW135639   9.707   6.016   3.935  0.9855  0.0253  0.1952
11687SOL    HW235640   9.762   5.949   3.811 -0.3182  0.6376 -0.7320
11688SOL     OW35641   9.622   7.973   1.910 -0.1510  0.6018 -0.3768
11688SOL    HW135642   9.641   7.881   1.896  0.3166  0.7158 -0.4916
11688SOL    HW235643   9.612   8.009   1.821  0.8463  0.9088 -0.3689
11689SOL     OW35644   2.182   4.772   3.254 -0.5059  0.2434  0.1805
11689SOL    HW135645   2.129   4.695   3.237 -0.6623  0.6121 -1.1321
11689SOL    HW235646   2.174   4.787   3.348 -1.9747 -0.2563  0.1588
11690SOL     OW35647   0.682   1.376   7.572  0.4631  0.1359 -0.3435
11690SOL    HW135648   0.743   1.304   7.589 -0.8296 -0.6251  1.4161
11690SOL    HW235649   0.676   1.422   7.655 -1.2251  0.2720 -0.5031
11691SOL     OW35650   2.516   5.291   7.263  0.6358 -0.2234 -0.6149
11691SOL    HW135651   2.514   5.273   7.169 -0.1305 -0.6798 -0.5241
11691SOL    HW235652   2.548   5.210   7.302  0.3276 -0.2651 -0.4420
11692SOL     OW35653   9.124   3.869   7.893  0.5757  0.6095 -0.8562
11692SOL    HW135654   9.108   3.841   7.803 -2.1752  0.5522 -0.4627
11692SOL    HW235655   9.153   3.791   7.938 -0.1099  0.0984 -1.2779
11693SOL     OW35656   3.274   9.124   5.232  0.2698 -0.0291 -0.7832
11693SOL    HW135657   3.287   9.064   5.159 -0.0083 -0.9455 -0.0990
11693SOL    HW235658   3.226   9.073   5.297 -0.2084  1.0222 -0.2888
11694SOL     OW35659   9.412   5.979   5.166 -0.4028  0.1753  0.0473
11694SOL    HW135660   9.494   6.026   5.152 -0.7595  0.9062  0.3630
11694SOL    HW235661   9.350   6.047   5.193 -0.2351 -0.8443  3.3865
11695SOL     OW35662   2.022   6.559   3.092  0.1802  0.7464  0.3089
11695SOL    HW135663   2.064   6.479   3.062  1.2339  1.9943 -1.7555
11695SOL    HW235664   1.935   6.558   3.052 -0.1240  0.2746  0.9612
11696SOL     OW35665   9.482   2.624   2.127 -0.3544  0.3259 -0.1476
11696SOL    HW135666   9.539   2.677   2.183 -0.7501 -0.5049  1.0647
11696SOL    HW235667   9.531   2.616   2.045  0.4655  1.1422  0.2462
11697SOL     OW35668   4.095   0.281   4.510 -0.3309 -0.2371  0.0486
11697SOL    HW135669   4.174   0.237   4.540  0.2536  1.0687  0.5019
11697SOL    HW235670   4.124   0.369   4.485 -1.7231  0.4471  0.7079
11698SOL     OW35671   6.547   5.772   2.013  0.0216 -0.1185  0.2442
11698SOL    HW135672   6.575   5.681   2.019 -0.1280 -0.2418 -0.7837
11698SOL    HW235673   6.600   5.818   2.078 -0.6457 -1.1003  1.5140
11699SOL     OW35674   3.274   3.194   2.210  0.2269  0.1025 -0.1903
11699SOL    HW135675   3.275   3.280   2.170 -0.0915 -0.3703 -1.2466
11699SOL    HW235676   3.229   3.207   2.294 -0.2455  0.8775 -0.5544
11700SOL     OW35677   3.944   8.728   3.620 -0.0154 -0.2894  0.3642
11700SOL    HW135678   3.856   8.702   3.649  0.0142  0.1808  0.9005
11700SOL    HW235679   3.989   8.752   3.701 -0.0706  1.5110 -0.1145
11701SOL     OW35680   3.953   9.222   3.898  0.1669  0.1977 -0.1281
11701SOL    HW135681   3.926   9.226   3.989 -1.8300 -3.0688 -0.3940
11701SOL    HW235682   4.034   9.274   3.893  1.0695 -0.5769  3.7467
11702SOL     OW35683   2.363   8.747   6.684 -0.1150  0.3656 -0.0153
11702SOL    HW135684   2.278   8.709   6.706  0.4029 -0.4819  0.5918
11702SOL    HW235685   2.388   8.703   6.602  0.5378 -0.7392  0.7490
11703SOL     OW35686   3.599   8.698   9.777 -0.1985  0.4410 -0.3002
11703SOL    HW135687   3.560   8.619   9.741 -0.6940  1.4148 -2.0075
11703SOL    HW235688   3.568   8.701   9.868 -0.3848 -1.1529 -0.2907
11704SOL     OW35689   1.291   0.686   3.987  0.0758  0.2971 -0.4711
11704SOL    HW135690   1.317   0.663   4.076 -0.4018  2.9925  0.4628
11704SOL    HW235691   1.198   0.708   3.994  0.2181  1.3163 -1.4243
11705SOL     OW35692   9.311   2.720   7.750  0.1910 -0.3330 -0.2010
11705SOL    HW135693   9.336   2.706   7.841 -0.3888 -0.2918 -0.0308
11705SOL    HW235694   9.276   2.635   7.721 -0.2239 -0.1684 -0.1877
11706SOL     OW35695   0.047   1.636   8.619  0.1842 -0.3884 -0.0143
11706SOL    HW135696   0.017   1.628   8.528 -0.2554 -1.8352  0.2376
11706SOL    HW235697   0.114   1.704   8.616 -1.9602  1.8098 -0.8654
11707SOL     OW35698   8.391   8.201   3.527 -0.6869 -0.2301  0.1764
11707SOL    HW135699   8.461   8.267   3.526 -0.3080 -0.6053 -1.8378
11707SOL    HW235700   8.423   8.133   3.586  0.4994 -0.2366 -0.4506
11708SOL     OW35701   1.859   0.865   2.401 -0.1196  0.2945 -0.4780
11708SOL    HW135702   1.866   0.769   2.395 -0.4287  0.2393 -0.0013
11708SOL    HW235703   1.886   0.896   2.315 -0.0670 -0.2270 -0.6549
11709SOL     OW35704   1.943   1.848   1.772 -0.3289 -0.3281 -0.0587
11709SOL    HW135705   2.036   1.824   1.776 -0.2741 -0.2657 -0.7770
11709SOL    HW235706   1.915   1.818   1.686 -0.7445  0.4867 -0.2118
11710SOL     OW35707   9.889   4.379   7.657 -0.0751  0.1715 -0.0041
11710SOL    HW135708   9.959   4.414   7.602 -0.7921  0.8161 -0.5271
11710SOL    HW235709   9.886   4.438   7.732 -1.2617  1.2614 -0.8694
11711SOL     OW35710   7.667   4.447   9.444  0.0608  0.1317 -0.9473
11711SOL    HW135711   7.627   4.364   9.418  0.1324  0.4126 -1.9857
11711SOL    HW235712   7.629   4.465   9.530 -1.5941  0.0762 -1.6295
11712SOL     OW35713   3.366   7.567   5.850 -0.2633 -0.2423  0.2642
11712SOL    HW135714   3.316   7.593   5.773  2.2671 -0.6344 -1.6670
11712SOL    HW235715   3.346   7.475   5.862 -0.5102 -0.2356 -0.0758
11713SOL     OW35716   7.640   5.318   3.033  0.2411  0.0397  0.2830
11713SOL    HW135717   7.603   5.400   3.065  0.5417  0.9228 -1.5229
11713SOL    HW235718   7.731   5.339   3.012  1.0958 -1.4445  2.2295
11714SOL     OW35719   2.995   0.578   2.469 -0.4286  0.1456  0.4480
11714SOL    HW135720   2.960   0.562   2.382 -2.6467 -1.1858  1.5153
11714SOL    HW235721   3.033   0.666   2.464  1.8814 -0.8482 -2.5146
11715SOL     OW35722   7.644   3.758   3.442 -0.6611  0.8666  0.1568
11715SOL    HW135723   7.705   3.810   3.495  0.2058  0.5544 -0.5107
11715SOL    HW235724   7.681   3.760   3.354 -1.7640  0.8796 -0.3190
11716SOL     OW35725   0.535   3.571   4.397 -0.3332  0.1083  0.0728
11716SOL    HW135726   0.628   3.547   4.401 -0.8527 -2.3315 -0.7213
11716SOL    HW235727   0.507   3.544   4.310 -1.4981  2.1864 -0.2679
11717SOL     OW35728   0.358   4.480   0.408 -0.0865  0.5007  0.4192
11717SOL    HW135729   0.337   4.504   0.498  0.9077 -0.1122  0.8353
11717SOL    HW235730   0.427   4.542   0.382  1.9788 -1.3231  1.2520
11718SOL     OW35731   1.575   1.610   9.405  0.1294  0.0732 -0.5540
11718SOL    HW135732   1.549   1.568   9.487 -0.5098  0.9532 -0.2937
11718SOL    HW235733   1.624   1.688   9.432  1.5626 -0.6172 -1.0333
11719SOL     OW35734   1.881   3.623   1.613  0.7284  0.3790 -0.2025
11719SOL    HW135735   1.908   3.532   1.624  0.8685  0.3221 -0.9414
11719SOL    HW235736   1.912   3.668   1.691 -1.1659 -0.6005  1.2077
11720SOL     OW35737   7.073   6.572   5.397 -0.1528 -0.2314 -0.3621
11720SOL    HW135738   7.092   6.538   5.485 -0.2056 -0.0856 -0.2943
11720SOL    HW235739   7.143   6.636   5.381 -0.9957  0.8720  0.1959
11721SOL     OW35740   7.967   4.599   7.934 -0.1641  0.8378  0.3524
11721SOL    HW135741   8.043   4.656   7.920  0.9341 -0.3609  1.1890
11721SOL    HW235742   7.946   4.609   8.027  1.6085 -1.8595  1.1672
11722SOL     OW35743   2.513   9.117   6.534  0.3469 -0.0764 -0.2679
11722SOL    HW135744   2.431   9.067   6.539  0.6350 -0.8315 -1.9926
11722SOL    HW235745   2.567   9.067   6.472  1.8236  0.8067  0.2609
11723SOL     OW35746   1.333   4.983   2.937  0.3499  0.7328  0.0304
11723SOL    HW135747   1.378   5.039   2.874  2.4508 -0.0598  0.7400
11723SOL    HW235748   1.386   4.990   3.017  0.0379 -1.3532  0.4729
11724SOL     OW35749   2.462   9.746   9.871  0.0490 -0.1007  0.7287
11724SOL    HW135750   2.433   9.820   9.923  1.6871  1.4810 -0.4781
11724SOL    HW235751   2.416   9.755   9.787 -0.0040 -0.6518  0.6938
11725SOL     OW35752   2.220   0.054   0.686  0.0414  0.0688  0.0496
11725SOL    HW135753   2.225  -0.011   0.616  3.4098  0.1600  0.0651
11725SOL    HW235754   2.218   0.003   0.767  0.6756 -0.0411  0.0002
11726SOL     OW35755   6.448   0.890   5.859  0.1317  0.1754  0.1701
11726SOL    HW135756   6.449   0.890   5.955 -0.1685  4.3756  0.3270
11726SOL    HW235757   6.404   0.808   5.836  2.3542 -2.2003  3.4492
11727SOL     OW35758   5.340   9.373   8.357  0.3721 -0.4823 -0.1609
11727SOL    HW135759   5.309   9.356   8.268 -0.3751  0.3146 -0.0729
11727SOL    HW235760   5.286   9.317   8.413  0.2684 -0.3651 -0.1434
11728SOL     OW35761   0.876   7.877   8.012 -0.1520  0.1155  0.3145
11728SOL    HW135762   0.970   7.861   8.002  0.2086  0.2613  2.6951
11728SOL    HW235763   0.835   7.794   7.992  0.8667 -1.1078  2.7912
11729SOL     OW35764   5.873   3.316   9.692 -0.4251 -0.0871  0.6015
11729SOL    HW135765   5.953   3.276   9.724 -0.8268  0.0487  1.8171
11729SOL    HW235766   5.818   3.242   9.666  0.9225 -0.1461 -2.4532
11730SOL     OW35767   9.128   2.091   0.477 -0.7008  0.2285 -0.4716
11730SOL    HW135768   9.043   2.074   0.517 -0.1678 -0.9091  0.2084
11730SOL    HW235769   9.118   2.179   0.439 -1.1067  1.6278  2.5338
11731SOL     OW35770   9.004   7.829   0.917  0.2275 -0.2712  0.0232
11731SOL    HW135771   8.989   7.893   0.986  2.3338  0.7240 -0.3613
11731SOL    HW235772   8.977   7.874   0.836 -0.1295 -0.5963 -0.0386
11732SOL     OW35773   8.847   0.962   2.388  0.6573 -0.0863 -0.0313
11732SOL    HW135774   8.855   1.049   2.426 -1.4221  0.6638 -1.1285
11732SOL    HW235775   8.807   0.909   2.456  2.1258 -0.2723  0.7149
11733SOL     OW35776   0.042   1.170   2.432 -0.3539 -0.3356 -0.0688
11733SOL    HW135777   0.093   1.246   2.462 -2.6552  2.1659 -2.0332
11733SOL    HW235778   0.020   1.123   2.512  1.0308  1.1415  1.2470
11734SOL     OW35779   2.570   0.893   2.562  0.3096 -0.4155  0.2055
11734SOL    HW135780   2.603   0.878   2.473 -0.3540 -0.7112  0.0039
11734SOL    HW235781   2.600   0.817   2.612  0.8728 -0.1413  0.2954
11735SOL     OW35782   4.140   7.260   9.593 -0.0156 -0.0527  0.3532
11735SOL    HW135783   4.102   7.194   9.535  1.9015 -1.1596  0.2764
11735SOL    HW235784   4.122   7.229   9.681  0.1964 -0.2613  0.3227
11736SOL     OW35785   3.874   4.212   0.083 -0.3289 -0.2081  0.2967
11736SOL    HW135786   3.871   4.302   0.051 -2.5164 -0.2577  0.2634
11736SOL    HW235787   3.951   4.211   0.141  2.9014  0.2583 -3.5448
11737SOL     OW35788   1.304   1.746   1.976  0.2905  0.4119 -0.4170
11737SOL    HW135789   1.249   1.674   1.945  0.1905 -0.6265  2.0270
11737SOL    HW235790   1.376   1.704   2.022 -0.7858  1.7812  2.7932
11738SOL     OW35791   5.169   8.466   9.788 -0.1892  0.2050  0.5392
11738SOL    HW135792   5.163   8.543   9.844 -2.0711  0.2858  0.3059
11738SOL    HW235793   5.167   8.392   9.849 -1.6555  0.3059  0.6607
11739SOL     OW35794   5.083   1.377   1.623 -0.2622  0.7393  0.7722
11739SOL    HW135795   5.168   1.373   1.579  0.2132  1.7909  1.5623
11739SOL    HW235796   5.025   1.417   1.558  0.5106  2.5702  1.1457
11740SOL     OW35797   4.729   8.440   5.065  0.1387 -0.1355 -0.1678
11740SOL    HW135798   4.700   8.351   5.085  3.1638 -0.7244  2.2202
11740SOL    HW235799   4.739   8.482   5.150 -2.0637  2.9162 -1.2479
11741SOL     OW35800   2.844   0.244   2.441 -0.4693 -0.4400  0.4253
11741SOL    HW135801   2.760   0.273   2.405  0.0292 -0.3989 -0.7444
11741SOL    HW235802   2.863   0.307   2.510 -2.2020 -1.4316  1.8716
11742SOL     OW35803   1.476   6.000   6.256  0.0803 -0.0261  0.1095
11742SOL    HW135804   1.513   6.021   6.171 -0.3605 -2.0394 -0.6317
11742SOL    HW235805   1.507   6.070   6.314 -0.0134  1.6495 -1.7788
11743SOL     OW35806   1.426   3.298   3.099  0.4896 -0.2727  0.2873
11743SOL    HW135807   1.458   3.211   3.124 -1.3969 -1.3020 -0.7043
11743SOL    HW235808   1.351   3.314   3.156 -0.1335  0.0131 -0.5924
11744SOL     OW35809   6.065   6.957   8.359 -0.3021  0.0659  0.2283
11744SOL    HW135810   5.971   6.938   8.353 -0.5539  0.5495  2.0949
11744SOL    HW235811   6.098   6.895   8.423  0.5254  0.3408  0.0769
11745SOL     OW35812   3.285   0.550   7.258 -0.8465  0.1117  0.1330
11745SOL    HW135813   3.267   0.458   7.279  1.6772 -0.4025  0.2917
11745SOL    HW235814   3.360   0.573   7.312 -1.2521  2.2142 -0.1288
11746SOL     OW35815   2.192   9.516   1.513 -0.2336  0.0599 -0.7446
11746SOL    HW135816   2.102   9.544   1.495 -0.0831  1.0909  0.0032
11746SOL    HW235817   2.192   9.422   1.494 -1.5224  0.0027 -0.5832
11747SOL     OW35818   9.977   9.202   6.150  0.2072  0.6997 -0.3776
11747SOL    HW135819  10.053   9.238   6.195 -0.6965  3.2199 -0.6492
11747SOL    HW235820   9.905   9.213   6.212 -0.1994 -0.3059 -0.6520
11748SOL     OW35821   9.106   1.152   1.868 -0.3536  0.0719 -0.5345
11748SOL    HW135822   9.072   1.185   1.785  1.3351  0.2168 -1.1928
11748SOL    HW235823   9.088   1.222   1.931  1.2132  1.3718 -1.4573
11749SOL     OW35824   0.341   9.338   7.756 -0.4386 -0.4737  0.5552
11749SOL    HW135825   0.336   9.373   7.667  1.4690  0.9102  0.9363
11749SOL    HW235826   0.420   9.376   7.793 -1.8832  0.0831  3.3507
11750SOL     OW35827   1.562   0.231   3.802 -0.4957 -0.3131 -0.0036
11750SOL    HW135828   1.530   0.252   3.714  0.0530 -0.7715 -0.3183
11750SOL    HW235829   1.547   0.311   3.853 -2.1571 -0.4997 -0.1216
11751SOL     OW35830   9.268   1.066   4.531  0.0592 -0.0103 -0.3322
11751SOL    HW135831   9.188   1.024   4.562 -0.4551  0.9255 -0.3678
11751SOL    HW235832   9.240   1.127   4.463  0.7116  0.7886  0.0838
11752SOL     OW35833   6.763   9.154   9.023 -0.1272  0.2791 -0.0374
11752SOL    HW135834   6.693   9.184   8.965 -0.9746 -1.4450  0.0370
11752SOL    HW235835   6.788   9.233   9.072 -0.2397  1.4906 -1.8413
11753SOL     OW35836   4.941   2.582   8.774  0.6808 -0.2609  0.0747
11753SOL    HW135837   4.861   2.535   8.797 -0.1005 -0.2566 -2.3104
11753SOL    HW235838   4.928   2.670   8.809 -0.1522 -0.3967  0.1264
11754SOL     OW35839   7.542   6.445   9.711 -0.1254 -0.2381  0.2994
11754SOL    HW135840   7.637   6.437   9.710  0.0230  1.2731  0.0959
11754SOL    HW235841   7.525   6.539   9.698 -1.6753 -0.6582 -1.1010
11755SOL     OW35842   7.900   1.692   4.693 -0.4170  0.1115  0.1634
11755SOL    HW135843   7.873   1.633   4.622  1.9031 -0.5191 -0.2654
11755SOL    HW235844   7.842   1.668   4.766  0.7461 -3.1910  0.1892
11756SOL     OW35845   1.011   3.407   4.697  0.2771 -0.3184 -0.6309
11756SOL    HW135846   1.034   3.367   4.781  1.1621 -1.0647 -1.2204
11756SOL    HW235847   0.932   3.362   4.670 -1.3513  1.4570  0.8415
11757SOL     OW35848   7.315   6.719   5.337  0.1662  0.5847  0.2547
11757SOL    HW135849   7.292   6.807   5.366  0.2401  0.8264 -0.4147
11757SOL    HW235850   7.394   6.697   5.386  0.7510  1.3044 -0.3482
11758SOL     OW35851   4.994   3.037   2.029 -0.0847  0.0613  0.7468
11758SOL    HW135852   4.952   2.976   2.089  0.3271 -0.5271  0.4435
11758SOL    HW235853   4.927   3.103   2.010 -0.8623 -0.8600  0.2672
11759SOL     OW35854   2.309   9.914   8.445  0.6497 -0.7012  0.3894
11759SOL    HW135855   2.380   9.961   8.488  1.3325 -1.4963  0.1313
11759SOL    HW235856   2.316   9.824   8.476 -0.9349 -0.5698  1.2304
11760SOL     OW35857   4.329   7.113   4.282 -0.8174  0.0293  0.0234
11760SOL    HW135858   4.327   7.018   4.270 -1.4336  0.1390 -0.7693
11760SOL    HW235859   4.243   7.143   4.255 -0.5015  0.8601 -0.0926
11761SOL     OW35860   0.775   4.492   3.328  0.0909  0.0402 -0.2196
11761SOL    HW135861   0.860   4.470   3.289  0.5667  0.9697  0.2650
11761SOL    HW235862   0.775   4.445   3.412 -0.6906 -1.4885 -1.0227
11762SOL     OW35863   0.277   1.070   1.962 -0.4335  0.6204  0.9398
11762SOL    HW135864   0.190   1.100   1.989 -0.4475  0.7583  0.7479
11762SOL    HW235865   0.322   1.150   1.934  0.0079  0.6553  1.7162
11763SOL     OW35866   9.248   2.829   5.272  0.3305 -0.0479  0.0268
11763SOL    HW135867   9.241   2.924   5.275 -0.9001 -0.0626 -1.2666
11763SOL    HW235868   9.158   2.798   5.270  0.6905 -1.1359 -1.5803
11764SOL     OW35869   6.614   5.838   0.497  0.3486  0.3421  0.8220
11764SOL    HW135870   6.669   5.796   0.431  1.2307  0.9058  1.1854
11764SOL    HW235871   6.674   5.891   0.549 -0.1009 -1.0408  2.8862
11765SOL     OW35872   0.733   3.761   9.456 -0.2189 -0.5770 -0.0617
11765SOL    HW135873   0.699   3.720   9.377 -0.1487 -0.4069 -0.1784
11765SOL    HW235874   0.698   3.707   9.527  0.4425 -1.2601 -0.2387
11766SOL     OW35875   5.126   2.808   2.281  0.2025 -0.1459 -0.6961
11766SOL    HW135876   5.140   2.901   2.297  0.1616 -0.3196  0.4170
11766SOL    HW235877   5.212   2.768   2.291  0.4953 -0.0808 -2.5209
11767SOL     OW35878   6.845   4.639   6.419 -0.1887  0.1587  0.7067
11767SOL    HW135879   6.924   4.654   6.367  0.9861 -1.9154  1.7892
11767SOL    HW235880   6.787   4.589   6.361  0.2850 -0.3788  0.6884
11768SOL     OW35881   6.092   4.972   4.936 -0.5577  0.0095  0.1914
11768SOL    HW135882   6.026   5.030   4.897 -0.5303  0.3578  0.6550
11768SOL    HW235883   6.161   4.966   4.869 -1.5673 -1.3018 -0.7937
11769SOL     OW35884   9.428   9.730   2.559  0.5479 -0.0424 -0.6361
11769SOL    HW135885   9.466   9.804   2.512  0.7559 -0.2204 -0.7463
11769SOL    HW235886   9.493   9.660   2.552  1.9402  0.7890  2.3861
11770SOL     OW35887   6.615   6.402   3.866 -0.4143  0.5317  0.0541
11770SOL    HW135888   6.601   6.310   3.891  0.3420  0.2328 -0.5955
11770SOL    HW235889   6.650   6.442   3.945 -3.1428  0.9145  1.2007
11771SOL     OW35890   6.519   3.082   6.421 -0.5479  0.3237  0.0908
11771SOL    HW135891   6.481   2.997   6.439  0.3136 -0.2456 -0.6716
11771SOL    HW235892   6.515   3.091   6.326  0.1225  0.7628  0.0900
11772SOL     OW35893   0.092   0.441   8.921 -0.2974 -0.6269  0.3181
11772SOL    HW135894   0.180   0.470   8.946 -0.1428  0.0540 -0.9084
11772SOL    HW235895   0.107   0.380   8.848 -0.8771  0.7327 -0.9989
11773SOL     OW35896   9.699   3.162   3.530  0.1826  0.5411 -0.6795
11773SOL    HW135897   9.618   3.126   3.495 -0.1223  1.3320 -0.8241
11773SOL    HW235898   9.672   3.241   3.578  0.8408  0.7083 -0.5620
11774SOL     OW35899   8.307   1.063   2.172  0.2420  0.4540 -0.0248
11774SOL    HW135900   8.272   0.974   2.178  2.1395 -0.3515 -0.1328
11774SOL    HW235901   8.266   1.099   2.093 -0.8073 -0.1779  0.2055
11775SOL     OW35902   1.624   2.021   2.980  0.2124  0.4903 -0.1637
11775SOL    HW135903   1.617   1.926   2.980 -0.4941  0.4576 -2.7058
11775SOL    HW235904   1.703   2.039   2.928 -1.4015  1.2293 -2.5488
11776SOL     OW35905   8.702   7.017   2.968  0.5573  0.3233  0.0294
11776SOL    HW135906   8.673   6.985   2.882  1.7018 -1.3983  0.2463
11776SOL    HW235907   8.755   7.094   2.948  0.5735  0.1140 -0.7818
11777SOL     OW35908   5.999   6.459   1.426 -0.0368  0.5708  0.0674
11777SOL    HW135909   5.981   6.404   1.502  2.2191 -2.6685 -1.5135
11777SOL    HW235910   5.936   6.430   1.360 -2.2688  3.6482  0.6523
11778SOL     OW35911   1.294   4.012   2.253 -0.1609  0.0201  0.6866
11778SOL    HW135912   1.368   3.955   2.273 -0.1723  0.3100  1.5848
11778SOL    HW235913   1.331   4.082   2.199 -0.2964 -1.2415 -1.1250
11779SOL     OW35914   3.647   8.544   4.334  0.0197 -0.1514 -0.0036
11779SOL    HW135915   3.578   8.517   4.394  0.2548  0.5721  0.6003
11779SOL    HW235916   3.662   8.637   4.354  2.6922 -0.7764  1.4328
11780SOL     OW35917   6.835   1.823   5.468  0.0493  0.3891  0.3022
11780SOL    HW135918   6.898   1.896   5.472  0.0747  0.4256 -0.6528
11780SOL    HW235919   6.754   1.860   5.503  0.3068  0.6059  0.6865
11781SOL     OW35920   6.641   5.086   1.832 -0.2153  0.2445 -0.7758
11781SOL    HW135921   6.686   5.011   1.871  1.0600  0.3782 -1.9122
11781SOL    HW235922   6.594   5.050   1.757 -0.3225  0.4313 -0.7997
11782SOL     OW35923   1.328   2.221   0.895  0.0227  0.1822 -0.3934
11782SOL    HW135924   1.393   2.264   0.840  0.7758 -0.7823 -0.2897
11782SOL    HW235925   1.378   2.160   0.948 -0.3781  2.3193  2.7414
11783SOL     OW35926   5.781   4.642   7.699  0.1586  0.0934 -0.0788
11783SOL    HW135927   5.696   4.676   7.671  0.1623 -0.1208 -0.3608
11783SOL    HW235928   5.830   4.632   7.618  0.1242 -0.6612 -0.0159
11784SOL     OW35929   0.539   4.865   2.212  0.5285 -0.4429 -0.2103
11784SOL    HW135930   0.498   4.951   2.218 -0.0158 -0.7292  0.2154
11784SOL    HW235931   0.623   4.876   2.256  0.5761 -0.0612 -0.3927
11785SOL     OW35932   5.420   0.566   9.647  0.0563  0.5621 -0.1391
11785SOL    HW135933   5.427   0.475   9.620  1.4213  0.2076  1.2511
11785SOL    HW235934   5.460   0.616   9.576  2.1117 -0.2137  0.4031
11786SOL     OW35935   6.862   3.649   6.309 -0.0337  0.9035 -0.2018
11786SOL    HW135936   6.832   3.739   6.319 -1.7236  0.6011 -1.9967
11786SOL    HW235937   6.792   3.595   6.347 -0.3877  0.2870 -1.6421
11787SOL     OW35938   7.132   3.675   6.404  0.1982  0.1415 -0.6324
11787SOL    HW135939   7.044   3.708   6.424  0.3652 -0.3013  0.9746
11787SOL    HW235940   7.119   3.619   6.327 -1.1949 -0.9618  0.3307
11788SOL     OW35941   9.628   7.705   6.362  0.0322 -0.2448 -0.2171
11788SOL    HW135942   9.623   7.782   6.305  0.8123 -0.4427 -0.5769
11788SOL    HW235943   9.721   7.700   6.386  0.3783 -2.1493 -1.7198
11789SOL     OW35944   6.957   8.800   6.366 -0.0689  0.6652  0.0334
11789SOL    HW135945   7.039   8.846   6.346 -0.2287  1.2273  0.6578
11789SOL    HW235946   6.910   8.859   6.424  0.0988 -0.6463  1.5673
11790SOL     OW35947   5.057   5.589   0.392 -0.2030 -0.9115  0.5015
11790SOL    HW135948   5.143   5.569   0.429 -0.7830 -2.0230  1.3002
11790SOL    HW235949   5.043   5.523   0.324 -0.4703 -0.8024  0.4472
11791SOL     OW35950   9.928   4.172   0.905 -0.7319 -0.3199  0.3313
11791SOL    HW135951   9.944   4.100   0.844 -0.4345 -0.3434  0.4342
11791SOL    HW235952   9.935   4.251   0.851  1.0499 -0.2485  0.6010
11792SOL     OW35953   3.573   6.606   2.621 -0.0007 -0.2810  0.0672
11792SOL    HW135954   3.659   6.585   2.656  0.1128  0.5908  0.3386
11792SOL    HW235955   3.516   6.610   2.698 -0.0653  0.1463  0.0029
11793SOL     OW35956   9.982   0.026   3.934 -0.2105  0.1216  0.2553
11793SOL    HW135957   9.909   0.047   3.992  0.5929  0.3211  1.2240
11793SOL    HW235958  10.038   0.104   3.937  0.5150 -0.3887  0.2793
11794SOL     OW35959   5.429   6.704   0.995 -0.1197  0.2606  0.3210
11794SOL    HW135960   5.398   6.746   1.075 -1.9818 -0.1624 -0.1490
11794SOL    HW235961   5.456   6.776   0.938 -1.8676  0.7633  0.0978
11795SOL     OW35962   4.437   2.202   3.745 -0.4246  0.1906  0.7071
11795SOL    HW135963   4.436   2.219   3.651 -0.4233  1.5818  0.9484
11795SOL    HW235964   4.350   2.165   3.763 -0.1380 -0.8435  0.0403
11796SOL     OW35965   9.970   4.546   9.478 -0.5177  0.4064  0.3521
11796SOL    HW135966   9.876   4.529   9.488 -0.3754 -0.7955 -0.1723
11796SOL    HW235967  10.008   4.460   9.462  0.6618  0.9041  0.3966
11797SOL     OW35968   7.689   2.918   6.093  0.6156  0.3409  0.0190
11797SOL    HW135969   7.596   2.939   6.097  0.0248 -1.9547 -0.3063
11797SOL    HW235970   7.715   2.941   6.003 -0.0262 -0.4080 -0.3689
11798SOL     OW35971   3.411   4.316   7.382 -0.1379  0.0436  0.3373
11798SOL    HW135972   3.447   4.347   7.298 -1.5436 -0.6934 -0.5777
11798SOL    HW235973   3.456   4.369   7.448  1.6694  0.0273 -0.8120
11799SOL     OW35974   3.971   1.862   3.825 -0.0282 -0.1584 -0.4549
11799SOL    HW135975   4.052   1.908   3.804  0.5719 -1.2386 -0.5586
11799SOL    HW235976   3.958   1.878   3.919 -0.5197  1.2505 -0.7254
11800SOL     OW35977   7.312   1.406   6.659  0.4590 -0.2418 -0.0209
11800SOL    HW135978   7.324   1.375   6.569 -0.4491  0.6774 -0.4927
11800SOL    HW235979   7.254   1.482   6.650 -1.5760 -1.4849  1.5506
11801SOL     OW35980   2.334   5.267   5.248  0.1686 -0.1608  0.2892
11801SOL    HW135981   2.247   5.265   5.209 -0.3812 -3.6106  1.3627
11801SOL    HW235982   2.380   5.337   5.201 -2.8812  1.2867 -0.8091
11802SOL     OW35983   6.229   8.031   1.054  0.3114 -0.0869 -0.5988
11802SOL    HW135984   6.183   7.990   1.127  2.0263  0.1130  0.6879
11802SOL    HW235985   6.302   8.078   1.096  0.0542  1.9201 -2.2588
11803SOL     OW35986   1.177   8.189   0.297  0.5164 -0.0769  0.7357
11803SOL    HW135987   1.203   8.249   0.227 -0.4266  0.5273  0.8824
11803SOL    HW235988   1.174   8.244   0.376  0.7961 -0.5783  1.1023
11804SOL     OW35989   1.149   6.915   9.336  0.8196 -0.2748 -0.1332
11804SOL    HW135990   1.073   6.923   9.393  1.8522 -0.2674  1.3024
11804SOL    HW235991   1.153   6.822   9.314 -0.5830 -0.0108 -1.6761
11805SOL     OW35992   3.527   5.161   7.642  0.2666 -0.1241 -0.4901
11805SOL    HW135993   3.506   5.254   7.646  1.3945  0.1419 -0.2400
11805SOL    HW235994   3.607   5.153   7.694  0.7714 -1.0510 -1.3741
11806SOL     OW35995   4.169   9.350   5.534 -0.3815 -0.3060  0.2074
11806SOL    HW135996   4.230   9.326   5.464 -1.4500  0.2136 -0.9239
11806SOL    HW235997   4.124   9.268   5.555  1.2312 -0.8942  1.6449
11807SOL     OW35998   8.216   3.549   4.353 -0.0067 -0.3643 -0.2824
11807SOL    HW135999   8.147   3.604   4.389  0.6755  1.4455 -1.5389
11807SOL    HW236000   8.172   3.496   4.286 -0.2403  0.6912 -0.9959
11808SOL     OW36001   5.184   2.919   7.380  0.1927  0.5576  0.2830
11808SOL    HW136002   5.258   2.862   7.402 -0.9712 -1.5470 -0.9777
11808SOL    HW236003   5.189   2.929   7.285 -0.2725  1.6971  0.3617
11809SOL     OW36004   5.217   7.212   6.863 -0.1487  0.1475  0.5117
11809SOL    HW136005   5.295   7.264   6.885 -0.0485  0.1801  0.0871
11809SOL    HW236006   5.234   7.180   6.774 -1.0426  0.9503  0.0418
11810SOL     OW36007   5.299   7.782   9.543 -0.7261 -0.4584  0.7169
11810SOL    HW136008   5.394   7.789   9.538 -0.5832 -2.5599 -1.7934
11810SOL    HW236009   5.279   7.789   9.636  1.7018  1.4906  1.1796
11811SOL     OW36010   5.684   5.837   8.585  0.1159  0.4652 -0.2162
11811SOL    HW136011   5.653   5.764   8.531 -1.9942  0.7405  0.5248
11811SOL    HW236012   5.693   5.910   8.524  1.0114 -0.0747 -0.7468
11812SOL     OW36013   5.253   4.927   7.086  0.1518 -0.0948  0.1257
11812SOL    HW136014   5.276   4.939   6.994 -1.0832 -0.5747 -0.2695
11812SOL    HW236015   5.180   4.987   7.101 -2.1605 -2.6180 -0.2720
11813SOL     OW36016   7.396   2.656   3.437  0.2955  0.1169 -0.1368
11813SOL    HW136017   7.311   2.657   3.481 -1.3273  3.3593 -2.8822
11813SOL    HW236018   7.458   2.678   3.507 -1.3934 -0.1343  1.5361
11814SOL     OW36019   9.250   3.332   5.481  0.0507  0.3389  0.0115
11814SOL    HW136020   9.158   3.358   5.477  0.2155  0.8638 -0.5729
11814SOL    HW236021   9.250   3.246   5.524 -0.6559  0.5856  0.5091
11815SOL     OW36022   2.541   2.479   4.254 -0.0803 -0.2792 -0.6546
11815SOL    HW136023   2.466   2.506   4.200 -0.1735  0.7457 -0.0272
11815SOL    HW236024   2.615   2.530   4.221 -0.1894  0.5456  0.3346
11816SOL     OW36025   1.720   7.037   7.251 -0.2746  0.1896  0.8817
11816SOL    HW136026   1.775   7.099   7.202  1.9804 -2.1443  0.1830
11816SOL    HW236027   1.722   6.957   7.198 -1.9949 -0.8942  2.3427
11817SOL     OW36028   4.800   7.553   2.855  0.2609 -0.3448 -0.0623
11817SOL    HW136029   4.775   7.551   2.947 -0.9160 -2.4842 -0.3599
11817SOL    HW236030   4.893   7.533   2.855  0.3359 -0.0167  0.6619
11818SOL     OW36031   8.656   1.028   6.774  0.0687  0.3944  0.1692
11818SOL    HW136032   8.668   1.082   6.852 -1.2843  2.3706 -0.8958
11818SOL    HW236033   8.729   1.051   6.716 -0.0743  0.4968  0.0270
11819SOL     OW36034   0.349   9.501   6.017  0.2233 -0.1658  0.2993
11819SOL    HW136035   0.397   9.551   6.083 -0.7037 -1.6623  2.2146
11819SOL    HW236036   0.260   9.535   6.020  0.3463  0.2800 -0.7684
11820SOL     OW36037   5.092   8.429   8.659 -0.8326 -0.2573  0.8832
11820SOL    HW136038   5.075   8.365   8.729  0.2597 -0.4806  0.9643
11820SOL    HW236039   5.084   8.378   8.578  1.2433 -0.8558  0.9820
11821SOL     OW36040   1.497   1.511   9.654 -0.4887  0.2648  0.5954
11821SOL    HW136041   1.478   1.427   9.698 -2.4263  0.8536  0.9713
11821SOL    HW236042   1.432   1.571   9.690 -1.0340  1.2170 -1.8186
11822SOL     OW36043   4.996   9.546   8.635  0.0204 -0.0084 -0.8756
11822SOL    HW136044   5.069   9.498   8.673 -0.7512 -1.5854 -1.2651
11822SOL    HW236045   4.955   9.591   8.709 -0.2338 -1.3374 -0.1874
11823SOL     OW36046   0.259   9.082   3.847 -0.0871 -0.1470  0.3827
11823SOL    HW136047   0.183   9.077   3.904  1.6598  1.1201  2.9964
11823SOL    HW236048   0.261   9.172   3.816  0.3794 -0.1681  0.3428
11824SOL     OW36049   6.742   6.104   2.423 -0.7468  0.6341 -0.8181
11824SOL    HW136050   6.818   6.159   2.441  0.4681 -1.7526  2.2412
11824SOL    HW236051   6.779   6.021   2.393 -2.1490 -0.3966  0.1606
11825SOL     OW36052   0.181   4.250   8.685 -0.3330 -0.1402 -0.5246
11825SOL    HW136053   0.185   4.345   8.676  1.3513 -0.1982 -0.7664
11825SOL    HW236054   0.201   4.216   8.598 -1.1121 -0.7257 -0.4853
11826SOL     OW36055   8.570   9.288   7.110 -0.2564 -0.1822  0.3215
11826SOL    HW136056   8.507   9.293   7.182 -1.1954  1.5455 -0.5468
11826SOL    HW236057   8.643   9.343   7.140  0.0043 -0.6514  0.5500
11827SOL     OW36058   0.376   4.988   4.894  0.4131 -0.2620  0.4240
11827SOL    HW136059   0.313   5.018   4.959 -0.3517  0.5940 -0.6657
11827SOL    HW236060   0.457   4.974   4.943  0.5363  2.6173  1.1915
11828SOL     OW36061   8.711   2.552   1.274 -0.3148 -0.4447  0.5466
11828SOL    HW136062   8.805   2.559   1.289 -0.4109  1.7230  0.4535
11828SOL    HW236063   8.672   2.559   1.362 -0.4289  0.1578  0.4529
11829SOL     OW36064   3.613   3.065   2.949 -0.0031 -0.0466  0.4666
11829SOL    HW136065   3.640   3.154   2.929  1.3212 -0.2185  1.3769
11829SOL    HW236066   3.608   3.062   3.045  0.9971 -1.2242  0.5071
11830SOL     OW36067   6.171   9.933   5.371 -0.1667 -0.4861  0.4735
11830SOL    HW136068   6.155  10.023   5.400 -0.3284  0.8681 -3.2246
11830SOL    HW236069   6.265   9.920   5.384  0.0211  0.5863  0.3011
11831SOL     OW36070   9.592   1.058   6.475  0.0787  0.2329 -0.3284
11831SOL    HW136071   9.667   1.060   6.416  0.4691  1.6699  0.1755
11831SOL    HW236072   9.516   1.053   6.417  0.5038  0.5217 -0.9199
11832SOL     OW36073   5.557   3.276   4.145 -0.0501  0.6640  0.3972
11832SOL    HW136074   5.518   3.232   4.070 -0.1564  1.7858 -0.2275
11832SOL    HW236075   5.648   3.246   4.146  0.6483  2.4363 -1.6723
11833SOL     OW36076   5.450   0.082   4.241 -0.1535 -0.3945  0.0848
11833SOL    HW136077   5.412   0.163   4.276  1.4574 -0.2856  1.7606
11833SOL    HW236078   5.523   0.111   4.187 -0.3075 -0.7058 -0.2966
11834SOL     OW36079   9.598   8.452   7.685  0.1098 -0.1297 -0.1651
11834SOL    HW136080   9.684   8.493   7.671  0.2187 -0.2770  0.0767
11834SOL    HW236081   9.605   8.410   7.770 -1.3996  2.9250  1.6351
11835SOL     OW36082   4.028   0.783   2.611 -0.2237 -0.1018  0.1572
11835SOL    HW136083   4.117   0.816   2.625  0.1586 -1.1056  0.1832
11835SOL    HW236084   4.025   0.760   2.518 -1.3918  2.5631 -0.5649
11836SOL     OW36085   2.470   7.649   8.188  0.6283  0.3726 -0.3828
11836SOL    HW136086   2.434   7.700   8.260  0.3115  0.1185 -0.3558
11836SOL    HW236087   2.527   7.585   8.231 -0.7229 -0.7630 -0.2143
11837SOL     OW36088   3.399   0.688   0.379 -0.1409  0.0023 -0.5248
11837SOL    HW136089   3.347   0.768   0.386 -1.1624 -0.6027 -1.0283
11837SOL    HW236090   3.338   0.622   0.349  0.5665 -1.1072  0.3743
11838SOL     OW36091   8.936   3.020   8.737 -0.2195  0.8626  0.0677
11838SOL    HW136092   8.975   3.099   8.699 -2.2463  1.5454 -0.7417
11838SOL    HW236093   8.902   2.972   8.662 -0.0530 -0.2078  0.6573
11839SOL     OW36094   3.518   0.201   9.232 -0.3421 -0.6253  0.0164
11839SOL    HW136095   3.609   0.184   9.208 -0.0743  0.9172 -0.1787
11839SOL    HW236096   3.468   0.185   9.152  0.1288  1.2174 -0.6813
11840SOL     OW36097   9.299   9.154   3.379  0.2570 -0.2765 -0.0697
11840SOL    HW136098   9.284   9.179   3.288  0.7110 -0.8457 -0.3109
11840SOL    HW236099   9.253   9.221   3.431  2.3740  1.7907 -0.6463
11841SOL     OW36100   0.856   5.006   8.949 -0.1136  0.4080 -0.1745
11841SOL    HW136101   0.820   5.090   8.976 -0.2074 -0.2373  1.8927
11841SOL    HW236102   0.783   4.944   8.962 -0.4202  0.1226 -2.7488
11842SOL     OW36103   4.880   0.551   4.455  0.3009  0.0076 -0.1469
11842SOL    HW136104   4.825   0.588   4.386  0.4450  1.4956  0.4969
11842SOL    HW236105   4.944   0.498   4.408 -2.5483 -3.1811 -0.8714
11843SOL     OW36106   1.468   2.014   0.260  0.5960 -0.7673 -0.1807
11843SOL    HW136107   1.535   2.003   0.192 -0.3741 -0.2288 -1.2465
11843SOL    HW236108   1.508   2.076   0.322  0.2818  1.4025 -1.9902
11844SOL     OW36109   0.906   9.046   6.037 -0.2834 -0.6048  0.3939
11844SOL    HW136110   0.867   8.995   5.966  3.6100 -2.7434 -0.5037
11844SOL    HW236111   0.901   8.988   6.114  0.5161 -0.7045  0.3864
11845SOL     OW36112   4.754   5.737   8.064 -0.6908 -0.0601  0.4231
11845SOL    HW136113   4.728   5.646   8.051 -0.7627  0.2187 -1.5735
11845SOL    HW236114   4.700   5.787   8.003 -2.2588  1.6464  2.9756
11846SOL     OW36115   9.662   2.899   3.277  0.2864 -0.8020  0.1960
11846SOL    HW136116   9.681   2.983   3.235  0.3567 -0.9573 -0.0844
11846SOL    HW236117   9.657   2.836   3.205  0.4715 -1.0811  0.4226
11847SOL     OW36118   3.664   2.722   6.358 -0.3451 -0.1206  0.2038
11847SOL    HW136119   3.633   2.812   6.372  1.0293  0.4403 -0.1765
11847SOL    HW236120   3.603   2.686   6.293  0.1004  1.1562 -0.9944
11848SOL     OW36121   4.438   7.080   8.075  0.5876  0.1997  0.3208
11848SOL    HW136122   4.480   7.167   8.081  0.6199  0.3318 -1.4177
11848SOL    HW236123   4.491   7.033   8.011  2.3929 -2.2310  3.3136
11849SOL     OW36124   5.691   0.109   8.052 -0.3820 -0.4566 -0.0871
11849SOL    HW136125   5.658   0.198   8.066 -1.5537 -0.8416 -0.2961
11849SOL    HW236126   5.785   0.116   8.068 -0.4449  0.8305 -0.1444
11850SOL     OW36127   4.817   3.837   3.416 -0.2667  0.5072 -0.1990
11850SOL    HW136128   4.739   3.888   3.394  0.7199  2.2431  0.1286
11850SOL    HW236129   4.850   3.808   3.331 -0.8508  0.4021 -0.3982
11851SOL     OW36130   2.642   7.198   7.483  0.8703 -0.0820  0.1949
11851SOL    HW136131   2.554   7.235   7.494  1.0123  0.5309 -0.6555
11851SOL    HW236132   2.626   7.114   7.439  0.6190 -0.6152  1.2773
11852SOL     OW36133   3.031   3.832   8.183 -0.3937 -0.8726  0.4235
11852SOL    HW136134   3.103   3.779   8.215  3.1635  1.7677 -2.3909
11852SOL    HW236135   3.025   3.905   8.244 -1.6385 -1.7000  1.3369
11853SOL     OW36136   9.080   7.668   5.746  0.4708  0.2281  0.3165
11853SOL    HW136137   9.075   7.664   5.651  0.4684  2.9991  0.1039
11853SOL    HW236138   9.164   7.628   5.768  1.1845  0.9120 -1.0152
11854SOL     OW36139   0.911   3.277   0.435  0.3425 -0.2202  0.7350
11854SOL    HW136140   0.991   3.319   0.404 -1.5482  2.7089 -0.6647
11854SOL    HW236141   0.898   3.313   0.523  0.1379  0.0087  0.6134
11855SOL     OW36142   7.575   4.792   6.396 -0.0577 -0.3400 -0.0706
11855SOL    HW136143   7.499   4.750   6.355 -1.0986  1.7054 -0.3946
11855SOL    HW236144   7.594   4.867   6.340 -0.5378  1.6699  2.2724
11856SOL     OW36145   4.990   0.862   9.960 -0.0639 -0.1008 -0.0549
11856SOL    HW136146   5.030   0.949   9.967  0.7894 -0.2968 -1.9156
11856SOL    HW236147   4.909   0.878   9.911  1.0630 -0.5415 -2.2081
11857SOL     OW36148   7.797   2.496   1.502 -0.1355 -0.0522  0.2750
11857SOL    HW136149   7.705   2.508   1.524 -0.1512 -0.0729  0.2200
11857SOL    HW236150   7.801   2.507   1.407  0.0447  0.7966  0.3650
11858SOL     OW36151   3.326   5.585   7.650 -0.3296 -0.0287 -0.5916
11858SOL    HW136152   3.239   5.622   7.649 -1.0075 -1.5185 -0.3192
11858SOL    HW236153   3.335   5.548   7.738  0.4706 -0.1240 -0.7027
11859SOL     OW36154   7.477   8.841   8.011  0.3169 -0.6348  0.1713
11859SOL    HW136155   7.443   8.886   8.088  1.4220 -0.7258  0.7404
11859SOL    HW236156   7.435   8.755   8.012  1.0517 -1.0106  1.2625
11860SOL     OW36157   3.031   8.818   0.610 -0.0511  0.8180  0.0929
11860SOL    HW136158   3.035   8.910   0.634  2.3247  0.5854  0.8457
11860SOL    HW236159   3.008   8.818   0.517  1.3866  2.2751 -0.3111
11861SOL     OW36160   8.326   4.355   9.257  0.0736 -0.6172  0.3738
11861SOL    HW136161   8.355   4.337   9.346  0.4165 -0.2572  0.3372
11861SOL    HW236162   8.401   4.396   9.214 -0.2229 -0.4099  0.0412
11862SOL     OW36163   8.262   6.479   7.492  0.3810 -0.0811 -0.6498
11862SOL    HW136164   8.201   6.553   7.486 -1.8432 -1.8639 -1.1552
11862SOL    HW236165   8.346   6.520   7.515 -1.0150  2.4701  0.4102
11863SOL     OW36166   6.386   6.173   1.767  0.1619 -0.2460 -0.4015
11863SOL    HW136167   6.476   6.148   1.786  0.1453 -1.6549 -1.8640
11863SOL    HW236168   6.388   6.202   1.676 -0.7482  0.2979 -0.2594
11864SOL     OW36169   7.548   0.297   1.474  1.3703  0.1834  0.0929
11864SOL    HW136170   7.609   0.294   1.400  1.7677  1.7742  0.3105
11864SOL    HW236171   7.585   0.364   1.532  0.1552  0.1844  0.9032
11865SOL     OW36172   3.210   3.216   3.716 -0.7807  0.0569  0.2533
11865SOL    HW136173   3.216   3.303   3.676 -1.7457  1.0449  2.1099
11865SOL    HW236174   3.297   3.200   3.753 -0.6871  0.3825  0.1762
11866SOL     OW36175   3.099   0.192   0.300 -0.4793  0.5636  0.5090
11866SOL    HW136176   3.027   0.164   0.356 -0.3600  2.0177  1.4554
11866SOL    HW236177   3.167   0.220   0.361 -0.4679  2.5036 -0.3128
11867SOL     OW36178   6.664   4.594   6.998  0.1471 -0.0497 -0.6777
11867SOL    HW136179   6.587   4.591   6.942 -0.5205 -0.5908  0.2402
11867SOL    HW236180   6.662   4.513   7.048  1.4824 -0.2139 -0.8363
11868SOL     OW36181   6.762   2.580   2.511 -0.0646 -0.0818 -0.8500
11868SOL    HW136182   6.821   2.569   2.436 -0.2582 -0.5762 -0.9321
11868SOL    HW236183   6.763   2.674   2.528  0.1422  0.0109 -1.3459
11869SOL     OW36184   9.340   0.204   5.840  0.0173  0.3990  0.1436
11869SOL    HW136185   9.275   0.144   5.877  2.0585 -1.7152  0.5282
11869SOL    HW236186   9.355   0.172   5.751  2.4113 -0.8544  0.9345
11870SOL     OW36187   6.128   4.619   0.276 -0.0955  0.4067 -0.2130
11870SOL    HW136188   6.164   4.705   0.298  0.7703  0.2228 -0.8547
11870SOL    HW236189   6.078   4.594   0.354 -0.7908  1.7044 -0.2179
11871SOL     OW36190   9.099   8.316   2.291 -0.0350 -0.3912  0.5130
11871SOL    HW136191   9.175   8.259   2.307  0.4387 -0.1037 -0.5924
11871SOL    HW236192   9.100   8.378   2.363  1.9182  0.7732 -0.4141
11872SOL     OW36193   3.582   1.905   3.666  0.7646 -0.1300 -0.2142
11872SOL    HW136194   3.514   1.919   3.600 -2.2160 -1.3765  2.3097
11872SOL    HW236195   3.626   1.825   3.638 -1.8632 -1.8579  0.1879
11873SOL     OW36196   3.043   4.117   9.670 -0.3750 -0.4004  0.4158
11873SOL    HW136197   3.098   4.194   9.686  1.0248 -0.4928 -3.0324
11873SOL    HW236198   3.090   4.044   9.710  0.4183 -0.0201  0.1950
11874SOL     OW36199   8.967   6.863   3.614 -0.2929 -0.5671 -0.1943
11874SOL    HW136200   9.039   6.812   3.579  0.2026 -0.1063  0.1397
11874SOL    HW236201   8.901   6.798   3.639 -0.1440 -0.9670 -0.8133
11875SOL     OW36202   1.695   2.014   2.274  0.6161 -0.0284 -0.6423
11875SOL    HW136203   1.693   2.090   2.332 -0.1408 -0.9972  0.6516
11875SOL    HW236204   1.613   2.020   2.225 -1.0104 -1.6180  1.6922
11876SOL     OW36205   2.485   8.680   8.706 -0.0109 -0.3299  0.1508
11876SOL    HW136206   2.510   8.739   8.634 -1.6815  1.6235  1.0573
11876SOL    HW236207   2.389   8.681   8.705 -0.1138 -3.2247  0.1414
11877SOL     OW36208   1.034   8.102   6.323  0.1652 -0.1144  0.3306
11877SOL    HW136209   1.050   8.008   6.326 -0.3237 -0.2352 -0.5103
11877SOL    HW236210   1.057   8.134   6.410 -0.9437 -1.2184  1.0537
11878SOL     OW36211   2.889   8.492   6.790  0.3929 -0.4536 -0.3055
11878SOL    HW136212   2.890   8.580   6.752 -1.4314 -1.4575 -2.9999
11878SOL    HW236213   2.978   8.459   6.776  0.7257  0.5005 -0.4830
11879SOL     OW36214   5.908   6.438   5.202 -0.0421 -0.0357  0.1426
11879SOL    HW136215   5.880   6.466   5.289  2.1593 -0.8085  1.1604
11879SOL    HW236216   5.900   6.342   5.203  1.0855 -0.1479 -0.0719
11880SOL     OW36217   4.453   4.787   7.078  0.1363  0.1269  0.1202
11880SOL    HW136218   4.515   4.855   7.105  0.2118  0.1607 -0.1415
11880SOL    HW236219   4.439   4.735   7.158 -0.6751  1.0217  0.5772
11881SOL     OW36220   1.387   4.095   5.006  0.0601 -0.5695  0.4241
11881SOL    HW136221   1.325   4.139   4.947 -0.3510 -0.6724  0.7760
11881SOL    HW236222   1.422   4.165   5.060  1.2498 -0.2959 -0.6356
11882SOL     OW36223   0.976   2.375   8.514  0.2349 -0.3545 -0.4819
11882SOL    HW136224   0.995   2.415   8.430 -1.0783  1.4899  0.0389
11882SOL    HW236225   0.911   2.432   8.554 -0.4822 -2.1377  1.0525
11883SOL     OW36226   5.849   5.803   2.263 -0.3222  0.5970 -0.0961
11883SOL    HW136227   5.795   5.834   2.336 -0.9563  0.1792 -0.3851
11883SOL    HW236228   5.787   5.786   2.192  0.2930  1.0669 -0.7709
11884SOL     OW36229   4.284   3.604   7.295 -0.2773 -0.5215  0.6117
11884SOL    HW136230   4.235   3.599   7.213 -1.6962  0.7342  1.3436
11884SOL    HW236231   4.327   3.689   7.293  0.5185 -0.9053  0.7476
11885SOL     OW36232   7.466   0.955   6.528  0.2643 -0.1909 -0.1837
11885SOL    HW136233   7.397   0.963   6.594 -0.6991  0.2307 -1.2119
11885SOL    HW236234   7.548   0.956   6.578 -0.4623 -0.4035  1.0328
11886SOL     OW36235   6.067   7.919   1.769 -0.2654 -0.8462 -0.4769
11886SOL    HW136236   6.067   7.872   1.686 -1.4229 -1.9773  0.1369
11886SOL    HW236237   5.981   7.901   1.807 -1.0622  2.3259 -0.4977
11887SOL     OW36238   5.963   4.109   2.332 -0.4398 -0.0318  0.1262
11887SOL    HW136239   5.888   4.144   2.283 -0.9363  1.2160  1.6817
11887SOL    HW236240   5.924   4.057   2.402  0.1436  0.3403  0.7421
11888SOL     OW36241   2.980   3.998   2.128  0.1457 -0.3717 -0.6761
11888SOL    HW136242   3.052   4.056   2.104  0.6651 -0.8334 -0.2744
11888SOL    HW236243   2.903   4.054   2.133  0.9180  0.6042  1.2833
11889SOL     OW36244   2.921   1.187   4.282  0.1748  0.3374  0.1184
11889SOL    HW136245   2.830   1.213   4.274 -0.3530 -1.4411 -0.1961
11889SOL    HW236246   2.951   1.177   4.192 -0.1768 -1.6917  0.1754
11890SOL     OW36247   0.893   4.215   0.880  0.1962 -0.0981  0.1145
11890SOL    HW136248   0.903   4.175   0.966  1.9554 -3.4624 -1.4445
11890SOL    HW236249   0.981   4.245   0.857  0.0970 -0.6977 -1.1233
11891SOL     OW36250   8.567   2.643   4.285  0.0833  0.7458  0.3164
11891SOL    HW136251   8.498   2.607   4.230  1.8451 -2.4468 -0.0661
11891SOL    HW236252   8.560   2.737   4.274 -3.5965  0.5298 -0.3522
11892SOL     OW36253   5.273   7.175   0.747  1.1799 -0.0368 -0.8712
11892SOL    HW136254   5.351   7.157   0.695  0.9923  0.9389 -1.5351
11892SOL    HW236255   5.227   7.092   0.751  1.9733 -0.4921 -0.9473
11893SOL     OW36256   8.795   7.984   1.849  0.5381  0.2752  0.2889
11893SOL    HW136257   8.766   7.974   1.758 -2.2103  1.3340  0.9547
11893SOL    HW236258   8.786   7.897   1.887 -0.9683  0.3776  0.2127
11894SOL     OW36259   5.609   3.656   0.593  0.0004 -0.7157  0.0719
11894SOL    HW136260   5.524   3.630   0.629 -1.0820  2.8772  0.5048
11894SOL    HW236261   5.588   3.685   0.504  0.6910  0.4353  0.2687
11895SOL     OW36262   6.626   4.532   1.212 -0.0984  0.0151  0.0189
11895SOL    HW136263   6.597   4.523   1.302 -1.9446 -1.3676 -0.6453
11895SOL    HW236264   6.604   4.622   1.188  1.3472  0.7308  1.2046
11896SOL     OW36265   1.487   5.648   7.038 -0.2933  0.1060 -0.5614
11896SOL    HW136266   1.516   5.689   6.957  0.9446 -0.7594 -0.5777
11896SOL    HW236267   1.430   5.714   7.079 -0.5723  0.7249 -1.8943
11897SOL     OW36268   6.055   3.980   4.127 -0.0683 -0.0310  0.1028
11897SOL    HW136269   6.042   3.988   4.032 -2.3739  0.8084  0.4260
11897SOL    HW236270   6.028   3.890   4.147  1.8514 -0.7099 -0.1949
11898SOL     OW36271   0.834   8.816   6.575 -0.0377 -0.0523  0.1695
11898SOL    HW136272   0.861   8.731   6.540 -0.6131  0.2360 -1.0333
11898SOL    HW236273   0.877   8.822   6.660  1.3512 -0.8259 -0.4459
11899SOL     OW36274   7.529   8.027   5.266  0.2218  0.4287  0.5217
11899SOL    HW136275   7.529   7.944   5.315  0.5911  1.2957  2.0414
11899SOL    HW236276   7.557   8.002   5.178  0.7497 -1.0058  1.0586
11900SOL     OW36277   9.652   2.794   9.460 -0.2857 -0.8194  0.1553
11900SOL    HW136278   9.663   2.701   9.441 -3.0212 -1.3657  0.8851
11900SOL    HW236279   9.718   2.837   9.405 -0.7020 -3.0077 -2.2521
11901SOL     OW36280   5.510   9.148   5.643  0.5854  0.0300 -0.0013
11901SOL    HW136281   5.538   9.150   5.552 -0.5481  1.0283 -0.3444
11901SOL    HW236282   5.415   9.144   5.639  0.5090  0.3353  1.1402
11902SOL     OW36283   6.198   0.169   7.524  0.4081 -0.2269 -0.4248
11902SOL    HW136284   6.205   0.109   7.450  1.7938  0.6965 -1.0963
11902SOL    HW236285   6.197   0.112   7.601 -2.8445 -1.3195 -1.1106
11903SOL     OW36286   2.711   3.850   6.441  0.1114 -0.0126  0.6511
11903SOL    HW136287   2.693   3.936   6.403  1.2111  0.3733  0.9597
11903SOL    HW236288   2.771   3.868   6.513 -1.0884 -0.8443  1.9050
11904SOL     OW36289   6.486   7.031   5.827  0.4802 -0.2742 -0.5908
11904SOL    HW136290   6.444   7.101   5.778  1.3576 -0.4385 -1.6088
11904SOL    HW236291   6.534   7.076   5.896 -1.1997 -0.0738  0.5239
11905SOL     OW36292   3.771   5.973   1.677  0.8309  0.4050 -0.3261
11905SOL    HW136293   3.749   5.884   1.651  1.2096  0.4253 -0.7392
11905SOL    HW236294   3.714   6.028   1.623  0.4887  0.4143  0.0378
11906SOL     OW36295   3.175   4.176   5.528 -0.0942  0.0331 -0.1524
11906SOL    HW136296   3.241   4.245   5.519 -0.3617  0.0369 -2.7584
11906SOL    HW236297   3.215   4.113   5.587  2.7250 -0.4008 -2.3104
11907SOL     OW36298   6.223   4.964   8.404 -0.1115 -0.0164  0.1665
11907SOL    HW136299   6.141   4.975   8.453  0.3419  0.6048  0.7964
11907SOL    HW236300   6.291   4.966   8.471  0.4498 -0.1532 -0.3980
11908SOL     OW36301   9.585   8.808   6.537  0.3736 -0.2943  0.2673
11908SOL    HW136302   9.512   8.798   6.599 -0.2094 -2.4953 -0.6847
11908SOL    HW236303   9.662   8.782   6.587  0.0076 -1.3485  0.3113
11909SOL     OW36304   7.968   7.017   0.877 -0.7188  0.0160 -0.8818
11909SOL    HW136305   7.926   7.098   0.847 -0.1824  0.7710  0.2841
11909SOL    HW236306   8.026   7.046   0.948 -1.4492 -1.5417  0.4238
11910SOL     OW36307   4.117   5.944   9.106 -0.2127 -0.4450 -0.5781
11910SOL    HW136308   4.105   5.864   9.156 -1.2106  0.7980  1.2524
11910SOL    HW236309   4.093   5.920   9.016  0.2038 -2.3453 -0.2223
11911SOL     OW36310   9.487   0.183   6.504  0.5770 -0.4754  0.1840
11911SOL    HW136311   9.542   0.143   6.436  1.8253  0.0521  0.8544
11911SOL    HW236312   9.419   0.229   6.455  1.9994  0.6895 -0.7887
11912SOL     OW36313   2.464   2.423   0.392 -0.0719  0.4418 -0.4230
11912SOL    HW136314   2.547   2.430   0.345  0.1833  1.1912  0.1161
11912SOL    HW236315   2.425   2.510   0.383 -0.3664  0.3658  0.1053
11913SOL     OW36316   9.953   6.083   4.078 -0.1742  0.3786 -0.7184
11913SOL    HW136317   9.912   6.051   3.998 -0.5513  0.8861 -0.7344
11913SOL    HW236318   9.956   6.178   4.067 -0.2327  0.4525 -0.1288
11914SOL     OW36319   3.497   5.641   9.817 -0.2542  0.5103 -0.2559
11914SOL    HW136320   3.463   5.603   9.736  1.4115  0.2375 -0.8485
11914SOL    HW236321   3.446   5.722   9.828 -1.1692  0.0578 -1.0400
11915SOL     OW36322   8.012   0.420   4.598 -0.2568  0.4416  0.7622
11915SOL    HW136323   8.022   0.326   4.584 -0.3443  0.6167 -0.5304
11915SOL    HW236324   8.098   0.449   4.630 -0.2107 -0.0508  1.0955
11916SOL     OW36325   5.778   0.067   2.645  0.4613 -0.2420 -0.1239
11916SOL    HW136326   5.854   0.011   2.660  0.9823  0.0335 -1.5610
11916SOL    HW236327   5.738   0.033   2.565  0.3875  0.9726 -0.6336
11917SOL     OW36328   6.858   2.819   2.388  0.2933  0.2732  0.3997
11917SOL    HW136329   6.798   2.888   2.415  0.6059  1.1006 -0.8939
11917SOL    HW236330   6.861   2.826   2.292  1.7662 -0.3243  0.3685
11918SOL     OW36331   4.217   6.553   1.145  0.2745  0.3658 -0.1290
11918SOL    HW136332   4.256   6.489   1.204 -0.1570 -1.2110 -1.4654
11918SOL    HW236333   4.269   6.546   1.065 -1.1744  0.0259 -1.0751
11919SOL     OW36334   6.446   1.539   8.672 -0.2575 -0.1622  0.3250
11919SOL    HW136335   6.415   1.613   8.724 -4.1576 -0.6412 -1.0592
11919SOL    HW236336   6.502   1.579   8.605  1.4512  0.8989  2.2681
11920SOL     OW36337   5.197   1.591   6.631  0.0516 -0.4089  0.2187
11920SOL    HW136338   5.159   1.637   6.706  0.4214 -1.2626  0.9447
11920SOL    HW236339   5.199   1.499   6.658  1.1177 -0.5933 -0.4350
11921SOL     OW36340   6.070   5.293   7.467  0.1924  0.5541  0.3240
11921SOL    HW136341   6.037   5.206   7.446  0.3988  0.5754 -0.0990
11921SOL    HW236342   6.029   5.351   7.403 -1.5499  1.1052  1.8402
11922SOL     OW36343   3.621   8.382   1.971 -0.3247 -0.1704  0.1191
11922SOL    HW136344   3.641   8.347   1.884  2.6819 -0.2783  0.7130
11922SOL    HW236345   3.659   8.317   2.032  0.0613  1.1969  1.4008
11923SOL     OW36346   9.510   1.153   5.638 -0.3118  0.2822 -0.1973
11923SOL    HW136347   9.505   1.143   5.733  1.5782  0.2093 -0.0719
11923SOL    HW236348   9.427   1.193   5.614 -0.2308  1.7172  1.6757
11924SOL     OW36349   9.243   3.211   7.841 -0.4361  0.5818  0.1895
11924SOL    HW136350   9.337   3.218   7.823 -0.4401 -0.3688 -0.2603
11924SOL    HW236351   9.201   3.238   7.759 -0.5400  0.2818  0.1436
11925SOL     OW36352   8.008   4.525   0.671 -0.1315 -0.3692  0.7307
11925SOL    HW136353   8.003   4.559   0.582 -1.4359 -1.2462  0.4420
11925SOL    HW236354   8.061   4.589   0.718 -1.0093  1.1228 -0.2085
11926SOL     OW36355   9.187   5.012   5.030  0.0676 -0.1591  0.2966
11926SOL    HW136356   9.094   5.004   5.011  0.3479 -0.0008 -1.3178
11926SOL    HW236357   9.215   4.924   5.056  0.0667 -1.0274 -2.3353
11927SOL     OW36358   4.066   7.263   5.156 -0.1208 -0.1241  0.6107
11927SOL    HW136359   3.997   7.223   5.103  0.4695 -0.0568 -0.2252
11927SOL    HW236360   4.044   7.239   5.246  0.1140 -2.2055  0.1648
11928SOL     OW36361   2.594   6.710   7.672  0.3418 -0.1412 -0.3506
11928SOL    HW136362   2.564   6.644   7.734  2.4717 -0.2141  0.7235
11928SOL    HW236363   2.561   6.793   7.707  0.6608 -0.2976  0.3504
11929SOL     OW36364   7.301   8.316   6.160  0.0773  0.0806 -0.2195
11929SOL    HW136365   7.274   8.407   6.166 -0.7692 -0.2012  0.4114
11929SOL    HW236366   7.289   8.294   6.067 -1.0699  0.2219 -0.1222
11930SOL     OW36367   3.034   3.514   2.256  0.7414 -0.3164  0.0962
11930SOL    HW136368   3.117   3.503   2.208  0.2183 -1.5947 -0.5524
11930SOL    HW236369   3.059   3.560   2.336  1.4617  3.3436 -1.9679
11931SOL     OW36370   2.144   1.907   0.292  0.3877 -0.1243  0.3473
11931SOL    HW136371   2.185   1.825   0.263 -0.5020 -0.3235 -0.3792
11931SOL    HW236372   2.094   1.883   0.370 -0.0043 -0.3109  0.0406
11932SOL     OW36373   7.660   8.538   8.207 -0.5190  0.3043  0.4410
11932SOL    HW136374   7.741   8.500   8.242 -0.5300  1.0026  1.2747
11932SOL    HW236375   7.688   8.589   8.131 -0.5507 -1.5970 -0.8991
11933SOL     OW36376   5.282   2.402   8.399 -0.3905  0.5429 -0.6043
11933SOL    HW136377   5.224   2.416   8.474 -0.2646 -0.5919 -0.2773
11933SOL    HW236378   5.364   2.446   8.424 -0.5068  0.5746 -0.2734
11934SOL     OW36379   4.147   6.655   2.895 -0.3762 -0.4486 -0.0653
11934SOL    HW136380   4.211   6.724   2.915  0.0533 -0.8065 -0.1763
11934SOL    HW236381   4.171   6.627   2.806 -0.4522 -0.8464  0.0410
11935SOL     OW36382   2.752   1.421   0.166 -0.3547 -0.2479  0.0988
11935SOL    HW136383   2.672   1.418   0.113 -0.2628  1.6783 -0.1985
11935SOL    HW236384   2.817   1.375   0.113 -0.9721 -0.8500 -0.1555
11936SOL     OW36385   1.869   2.300   9.956  0.5763 -0.2276 -0.3347
11936SOL    HW136386   1.866   2.312  10.051 -0.3390 -0.4424 -0.3312
11936SOL    HW236387   1.841   2.383   9.919 -1.4044 -0.8721 -0.3690
11937SOL     OW36388   8.145   8.273   9.878 -0.7019 -0.4005  0.7411
11937SOL    HW136389   8.161   8.269   9.973  2.0209 -2.5113  0.3184
11937SOL    HW236390   8.196   8.349   9.849  0.4085 -1.1264  0.7207
11938SOL     OW36391   7.454   3.183   0.884 -0.1901 -0.0346  0.3920
11938SOL    HW136392   7.515   3.255   0.871 -0.1676 -0.2469 -0.7686
11938SOL    HW236393   7.500   3.106   0.850 -0.2781 -0.5829  1.4525
11939SOL     OW36394   4.641   9.773   0.399  0.9019 -0.2221 -0.3046
11939SOL    HW136395   4.712   9.759   0.337  1.5029 -1.0435  0.5380
11939SOL    HW236396   4.573   9.711   0.372  0.5821  0.4167 -0.9838
11940SOL     OW36397   6.264   6.578   5.088 -0.6217 -0.0370 -0.4662
11940SOL    HW136398   6.315   6.608   5.163 -0.3191 -0.6870 -0.4023
11940SOL    HW236399   6.274   6.482   5.089 -1.4203 -0.1331 -0.7590
11941SOL     OW36400   7.175   6.247   2.654 -0.0807  0.0278 -0.3495
11941SOL    HW136401   7.126   6.291   2.724 -0.1664  2.1379 -1.6470
11941SOL    HW236402   7.145   6.156   2.656 -2.0612  0.6664  0.6164
11942SOL     OW36403   4.323   2.860   7.844  0.1043 -0.4048 -0.2491
11942SOL    HW136404   4.285   2.814   7.918 -2.3236  1.8420  0.0730
11942SOL    HW236405   4.262   2.932   7.826  2.0452  0.8411 -2.6317
11943SOL     OW36406   9.888   4.429   0.305 -0.6861  0.8648 -0.2064
11943SOL    HW136407   9.827   4.420   0.233 -0.2659 -3.6940 -0.3305
11943SOL    HW236408   9.967   4.466   0.266 -0.4624 -1.5038 -2.2348
11944SOL     OW36409   6.942   7.533   1.309  0.0997 -0.2770 -0.7322
11944SOL    HW136410   7.014   7.540   1.371 -0.2441  3.3748 -0.5237
11944SOL    HW236411   6.871   7.493   1.360  0.3947  0.9588  0.7438
11945SOL     OW36412   4.421   2.947   1.991  0.1116  1.2540 -0.2939
11945SOL    HW136413   4.389   2.958   1.901  1.6614  0.1425 -1.0279
11945SOL    HW236414   4.412   2.854   2.008  1.3214  1.1963  0.1031
11946SOL     OW36415   6.153   7.186   4.795  0.1856 -0.2154 -0.4704
11946SOL    HW136416   6.125   7.277   4.799  1.8727  0.3446 -0.4346
11946SOL    HW236417   6.080   7.136   4.832  0.6230  1.4578  3.1615
11947SOL     OW36418   3.545   1.257   7.607  0.4183  0.1940  0.0693
11947SOL    HW136419   3.534   1.220   7.520  0.8787 -0.5061  0.3043
11947SOL    HW236420   3.470   1.316   7.618 -0.0475 -0.2928 -0.5002
11948SOL     OW36421   2.836   7.079   7.647  0.1423 -0.3659  0.2420
11948SOL    HW136422   2.879   7.161   7.625 -0.0881 -0.3534 -0.1659
11948SOL    HW236423   2.742   7.098   7.640  0.0464 -0.3021  1.4470
11949SOL     OW36424   0.756   5.143   7.773  0.0137  0.0969  0.1077
11949SOL    HW136425   0.789   5.077   7.712  0.2410  0.5173 -0.2260
11949SOL    HW236426   0.795   5.225   7.744 -1.6317  0.6890 -0.5577
11950SOL     OW36427   2.800   3.479   2.467  0.0116 -0.1445 -0.1552
11950SOL    HW136428   2.766   3.567   2.452 -0.8164 -0.4270  0.0298
11950SOL    HW236429   2.891   3.484   2.439  0.5192  1.2661  1.5440
11951SOL     OW36430   3.482   9.416   1.729 -0.0468 -0.1347  0.4677
11951SOL    HW136431   3.478   9.511   1.739 -1.5957 -0.1867  0.6191
11951SOL    HW236432   3.544   9.387   1.797  0.1600  0.7330  0.6549
11952SOL     OW36433   1.316   9.861   0.144  0.1173 -0.3931 -0.1746
11952SOL    HW136434   1.278   9.835   0.060  0.8547 -0.1239 -0.5964
11952SOL    HW236435   1.242   9.899   0.193 -0.5572 -1.5584 -0.2624
11953SOL     OW36436   4.627   9.470   1.651 -0.0329  0.5460 -0.0018
11953SOL    HW136437   4.569   9.413   1.599  1.1495 -1.8773  1.1469
11953SOL    HW236438   4.714   9.457   1.614  0.1826  2.1885 -0.1288
11954SOL     OW36439   7.127   6.449   8.028  0.1882  0.4104 -0.3990
11954SOL    HW136440   7.200   6.504   8.056  0.4442  0.0411 -0.3368
11954SOL    HW236441   7.080   6.503   7.964 -0.5231  1.3466  0.8673
11955SOL     OW36442   8.908   3.058   1.507  0.2729  1.0054 -0.1871
11955SOL    HW136443   8.822   3.057   1.465 -0.9129  2.4490  2.0107
11955SOL    HW236444   8.899   2.997   1.580  0.6110  2.2542  0.9279
11956SOL     OW36445   6.355   7.442   0.377  0.3697 -0.2850  0.8623
11956SOL    HW136446   6.322   7.357   0.406  2.2657 -0.8042  1.6346
11956SOL    HW236447   6.437   7.453   0.424  0.7256  1.4678 -0.0952
11957SOL     OW36448   8.343   8.943   3.007 -0.1722 -0.5045 -0.5059
11957SOL    HW136449   8.319   8.924   2.916 -0.6717  0.0373 -0.4985
11957SOL    HW236450   8.354   9.038   3.009 -0.3924 -0.4888  0.0548
11958SOL     OW36451   5.662   8.917   3.086  0.0407 -0.2579 -0.5443
11958SOL    HW136452   5.650   8.868   3.005 -0.8371 -1.7004  0.4107
11958SOL    HW236453   5.732   8.869   3.132  2.1982  1.8807 -1.3926
11959SOL     OW36454   3.011   3.522   3.702 -0.2608  0.4557  0.3906
11959SOL    HW136455   3.058   3.581   3.761 -1.9217  2.2084  0.0545
11959SOL    HW236456   2.968   3.460   3.761  2.3813 -1.2686  0.7057
11960SOL     OW36457   0.375   9.755   7.392  0.2545 -0.3386  0.2966
11960SOL    HW136458   0.298   9.706   7.420 -0.2814 -1.4506 -2.7000
11960SOL    HW236459   0.341   9.840   7.366  0.2244 -0.4059  0.1117
11961SOL     OW36460   9.787   9.550   9.324  0.0492  0.2139  0.0268
11961SOL    HW136461   9.865   9.543   9.378  1.1880  0.6218 -1.4773
11961SOL    HW236462   9.738   9.470   9.340  0.5797  0.1292  1.2874
11962SOL     OW36463   5.891   0.024   6.863 -0.0955  0.9995  0.2440
11962SOL    HW136464   5.947  -0.042   6.823 -0.8655  1.4587 -1.6981
11962SOL    HW236465   5.944   0.104   6.862 -0.2126  1.0743 -0.1376
11963SOL     OW36466   2.110   0.135   6.706  0.3625  0.5436  0.5372
11963SOL    HW136467   2.171   0.207   6.690 -0.4911  1.5543  1.6907
11963SOL    HW236468   2.035   0.153   6.649  0.7458 -0.2153 -0.2216
11964SOL     OW36469   8.642   8.933   1.050 -0.0241 -0.0516 -0.2078
11964SOL    HW136470   8.688   8.852   1.027  0.0126  0.0832 -0.6176
11964SOL    HW236471   8.631   8.978   0.966  0.5731  0.6896  0.1058
11965SOL     OW36472   8.417   7.133   1.610 -0.2154  0.3550  0.0448
11965SOL    HW136473   8.397   7.050   1.568  1.1203 -0.2226  0.5049
11965SOL    HW236474   8.337   7.156   1.657 -1.0904  0.0700 -1.2439
11966SOL     OW36475   9.069   0.584   1.545 -0.7976 -0.0317  0.4600
11966SOL    HW136476   9.143   0.524   1.535 -0.3715  0.2691  1.6830
11966SOL    HW236477   8.998   0.542   1.496  0.4575  0.2152 -1.6634
11967SOL     OW36478   3.366   7.505   5.035  0.2842 -0.3467  0.0273
11967SOL    HW136479   3.376   7.510   5.130  0.5436  1.0991 -0.0500
11967SOL    HW236480   3.453   7.525   5.000 -0.0280  0.0885 -0.5226
11968SOL     OW36481   2.367   5.486   8.055  0.0180  0.3384 -0.0655
11968SOL    HW136482   2.449   5.463   8.011 -0.1132  0.7830 -0.5575
11968SOL    HW236483   2.345   5.573   8.021 -1.0908 -0.1158 -0.5786
11969SOL     OW36484   4.196   1.168   0.946 -0.5440  0.0443 -0.3059
11969SOL    HW136485   4.136   1.156   0.872 -0.0456 -0.0987 -0.6975
11969SOL    HW236486   4.166   1.248   0.989 -1.1562 -0.1549 -0.3548
11970SOL     OW36487   5.499   6.828   3.986  0.3065 -0.1379  0.4641
11970SOL    HW136488   5.483   6.871   4.069  0.1695  1.1055 -0.1887
11970SOL    HW236489   5.417   6.781   3.968  1.1300 -2.4255  2.1322
11971SOL     OW36490   5.250   2.789   4.185  0.0480  0.2383 -0.2537
11971SOL    HW136491   5.243   2.884   4.176  0.9455  0.3343 -0.0579
11971SOL    HW236492   5.173   2.755   4.140  0.6094  1.0008 -1.8774
11972SOL     OW36493   1.397   4.129   4.339 -0.3636  0.5592 -0.7241
11972SOL    HW136494   1.307   4.154   4.320 -0.7145 -0.0633  0.0354
11972SOL    HW236495   1.397   4.106   4.432  0.2016 -0.9732 -1.0603
11973SOL     OW36496   8.397   6.577   5.558  0.7649  0.0746 -0.4086
11973SOL    HW136497   8.376   6.658   5.605  0.2297 -0.3712  0.1428
11973SOL    HW236498   8.480   6.548   5.597  0.0577 -0.5783  0.6884
11974SOL     OW36499   7.960   7.760   3.635  0.4092  0.4626  0.0405
11974SOL    HW136500   7.901   7.686   3.649  0.3024  0.4491 -0.4444
11974SOL    HW236501   8.033   7.745   3.694  0.9522 -0.6390 -0.8684
11975SOL     OW36502   0.693   5.020   5.763  0.2499 -0.2413  0.2978
11975SOL    HW136503   0.614   4.969   5.747  0.9287 -1.2923  0.1925
11975SOL    HW236504   0.762   4.972   5.716  1.2859 -0.3605  1.8646
11976SOL     OW36505   7.894   7.159   6.937  0.3835  0.4375 -0.5422
11976SOL    HW136506   7.822   7.130   6.880  0.4159  1.4502 -1.1185
11976SOL    HW236507   7.853   7.176   7.021 -0.2597  1.9740 -1.1404
11977SOL     OW36508   2.065   6.514   0.257  0.0256 -0.0019  0.5217
11977SOL    HW136509   1.978   6.521   0.296 -1.4329 -0.4750 -2.3568
11977SOL    HW236510   2.107   6.598   0.277 -0.4613 -0.2943  3.1843
11978SOL     OW36511   7.227   6.977   1.896  0.2212 -0.4513  0.1006
11978SOL    HW136512   7.270   6.919   1.834 -0.4568 -0.1283 -0.6948
11978SOL    HW236513   7.136   6.948   1.897 -0.3772  1.2222 -1.1244
11979SOL     OW36514   3.759   6.741   1.808 -0.4143 -0.2007  0.9895
11979SOL    HW136515   3.835   6.734   1.750 -0.5727  1.1038  0.5861
11979SOL    HW236516   3.749   6.835   1.823 -1.7780 -0.3671  1.2708
11980SOL     OW36517   0.608   2.458   3.589  0.6209  0.2522 -0.0564
11980SOL    HW136518   0.653   2.524   3.641 -0.1817 -0.3303  1.4289
11980SOL    HW236519   0.537   2.506   3.546 -0.4374  0.2659  1.6217
11981SOL     OW36520   8.912   7.610   5.212  0.1492  0.2778  0.3593
11981SOL    HW136521   8.858   7.532   5.201  1.1516 -0.4975  0.7147
11981SOL    HW236522   8.853   7.684   5.195 -1.0515 -0.5200  0.9430
11982SOL     OW36523   3.863   4.147   1.180 -0.0703 -0.0152  0.5379
11982SOL    HW136524   3.828   4.076   1.126  1.1014 -0.1510 -0.0735
11982SOL    HW236525   3.879   4.219   1.119  0.5512  0.0951  0.8209
11983SOL     OW36526   3.880   8.554   2.193  0.6702  0.5907  0.2999
11983SOL    HW136527   3.832   8.637   2.192  0.7600  0.6638 -1.2893
11983SOL    HW236528   3.964   8.575   2.152  1.0438 -0.0889  0.7161
11984SOL     OW36529   0.215   8.156   7.719  0.0814 -0.8466  0.3373
11984SOL    HW136530   0.236   8.064   7.699 -0.5615 -0.7381 -0.9548
11984SOL    HW236531   0.174   8.189   7.639  2.5653  1.3110 -0.1661
11985SOL     OW36532   1.277   6.065   8.520  0.3494  0.1008  0.3049
11985SOL    HW136533   1.204   6.111   8.478  1.8031  2.3918  0.1088
11985SOL    HW236534   1.257   5.972   8.509 -1.3568  0.6467 -1.8350
11986SOL     OW36535   1.653   1.808   5.030 -0.7296  0.0241  0.1352
11986SOL    HW136536   1.571   1.836   4.989 -0.9813 -0.2478  0.4453
11986SOL    HW236537   1.628   1.786   5.120 -0.3855 -0.3874  0.1336
11987SOL     OW36538   1.897   3.313   7.794  0.1413  0.2687 -0.3144
11987SOL    HW136539   1.848   3.394   7.806 -0.9556 -0.6165  1.4785
11987SOL    HW236540   1.884   3.291   7.701 -1.1613  1.1191 -0.3608
11988SOL     OW36541   2.735   3.967   2.745  0.3278 -0.2854 -0.0105
11988SOL    HW136542   2.648   4.005   2.758  0.2574 -0.7733  1.1011
11988SOL    HW236543   2.718   3.876   2.719  0.4961 -0.3217  0.0035
11989SOL     OW36544   8.216   3.987   0.082 -0.0698 -0.1729 -0.1213
11989SOL    HW136545   8.249   3.912   0.131 -0.3168 -0.8380 -0.9468
11989SOL    HW236546   8.220   4.060   0.144  2.7515 -0.2439 -0.1153
11990SOL     OW36547   6.632   2.988   5.033 -0.1990 -0.3738 -0.1475
11990SOL    HW136548   6.667   3.044   4.964 -0.4025  0.5057  0.4441
11990SOL    HW236549   6.704   2.929   5.055  0.0091 -0.3673 -0.8125
11991SOL     OW36550   2.186   7.834   8.362 -0.1584  0.0191 -0.0632
11991SOL    HW136551   2.158   7.786   8.440 -1.0835  0.5871 -0.0320
11991SOL    HW236552   2.281   7.829   8.364 -0.1963 -2.7891 -0.6577
11992SOL     OW36553   3.801   9.829   2.248  0.3623  0.1091  0.6212
11992SOL    HW136554   3.841   9.840   2.162  0.4987  1.8671  0.8704
11992SOL    HW236555   3.874   9.832   2.309  0.3839 -2.1215  0.8017
11993SOL     OW36556   8.100   1.099   3.350 -0.3533 -0.0437  0.1964
11993SOL    HW136557   8.100   1.021   3.405  0.2667 -0.2374 -0.0643
11993SOL    HW236558   8.174   1.086   3.291  0.5931  1.3444  1.0214
11994SOL     OW36559   0.568   2.015   5.447 -0.0466  0.5448  0.2415
11994SOL    HW136560   0.552   2.000   5.354  1.1465  0.6134  0.0178
11994SOL    HW236561   0.661   2.034   5.453  0.3045 -1.3168  1.6817
11995SOL     OW36562   2.069   4.233   0.517 -0.2445  0.1836 -0.1886
11995SOL    HW136563   2.023   4.172   0.460 -0.2386  0.0546 -0.0569
11995SOL    HW236564   2.037   4.213   0.605  0.9649 -0.7622  0.0777
11996SOL     OW36565   4.121   6.337   7.636  0.2022  0.0999  0.4006
11996SOL    HW136566   4.027   6.352   7.643 -0.1040 -0.9393 -1.0863
11996SOL    HW236567   4.161   6.421   7.657 -1.0027  0.3283  1.9234
11997SOL     OW36568   1.244   4.554   9.848 -0.4620  0.3585  0.0026
11997SOL    HW136569   1.281   4.619   9.907 -1.0914 -0.7209  1.6794
11997SOL    HW236570   1.236   4.475   9.902  0.1785 -1.0872 -1.9146
11998SOL     OW36571   9.610   2.478   0.421  0.1697  0.2719 -0.0583
11998SOL    HW136572   9.617   2.490   0.326 -1.8790  0.2279 -0.2732
11998SOL    HW236573   9.609   2.567   0.456  0.7246  0.2930 -0.0862
11999SOL     OW36574   0.480   5.712   8.239  0.2753 -0.7453  0.3949
11999SOL    HW136575   0.545   5.766   8.194 -0.0918 -1.6609 -1.3247
11999SOL    HW236576   0.532   5.653   8.294  0.9854 -1.7597 -1.2852
12000SOL     OW36577   8.036   8.906   1.532  0.3384  0.6318 -0.0217
12000SOL    HW136578   8.046   8.986   1.479  0.2130  1.8471  1.7183
12000SOL    HW236579   7.942   8.886   1.526  0.1798  1.2368  0.3999
12001SOL     OW36580   8.205   8.494   7.096 -0.0647 -0.2511 -0.5016
12001SOL    HW136581   8.239   8.423   7.041 -0.1062 -0.1035 -0.7202
12001SOL    HW236582   8.283   8.536   7.132  0.0924  1.0798 -2.2438
12002SOL     OW36583   7.018   1.436   3.109  0.0890 -0.1781 -0.0231
12002SOL    HW136584   6.989   1.442   3.200 -1.7169 -0.0411 -0.5781
12002SOL    HW236585   7.095   1.379   3.112  1.1136  1.1972  1.7902
12003SOL     OW36586   6.496   8.155   1.175  0.4357  0.1613  0.1257
12003SOL    HW136587   6.483   8.245   1.205  0.1591 -0.4063  1.8426
12003SOL    HW236588   6.469   8.101   1.250 -0.4216 -1.3828 -1.2312
12004SOL     OW36589   1.993   6.614   4.135 -0.2281 -0.2347  0.2551
12004SOL    HW136590   2.041   6.539   4.098 -0.9945 -0.0499 -1.1585
12004SOL    HW236591   2.055   6.687   4.129 -0.0266 -0.4099  0.1834
12005SOL     OW36592   2.313   7.675   0.240  0.0036  0.3575 -0.0075
12005SOL    HW136593   2.240   7.662   0.301 -0.0712  0.7378 -0.0138
12005SOL    HW236594   2.281   7.639   0.157 -0.1132  0.3660  0.0336
12006SOL     OW36595   3.601   3.239   1.061  0.5489  0.0500  0.1614
12006SOL    HW136596   3.662   3.246   1.134  1.7107  0.2679 -0.7905
12006SOL    HW236597   3.657   3.218   0.986 -0.7244 -1.1127 -0.4852
12007SOL     OW36598   0.323   1.643   4.883 -0.0824  0.7430  0.0455
12007SOL    HW136599   0.284   1.700   4.817  0.0948 -0.4130 -1.0820
12007SOL    HW236600   0.343   1.562   4.837 -0.3433 -0.2613  1.6076
12008SOL     OW36601   9.050   3.502   0.375  0.1746  0.6067 -0.4515
12008SOL    HW136602   9.137   3.538   0.362 -0.3152  1.4573 -1.6453
12008SOL    HW236603   9.022   3.474   0.287 -0.1809 -1.0277  0.1572
12009SOL     OW36604   9.820   2.752   3.746  0.2947 -0.1174 -0.2443
12009SOL    HW136605   9.753   2.814   3.774 -1.2024 -2.1293  0.8838
12009SOL    HW236606   9.807   2.744   3.651 -1.6639 -1.0531  0.0562
12010SOL     OW36607   3.361   2.028   8.916 -0.4279  0.2078  0.0995
12010SOL    HW136608   3.327   1.938   8.912 -2.9670  1.0697  0.8861
12010SOL    HW236609   3.420   2.034   8.841 -0.8921 -1.8399 -0.4967
12011SOL     OW36610   1.089   1.285   0.932 -1.0520  0.3572  0.0388
12011SOL    HW136611   1.029   1.284   0.858 -0.0001  1.5195 -0.8744
12011SOL    HW236612   1.123   1.196   0.937 -1.1737  0.2523 -0.8682
12012SOL     OW36613   2.461   9.137   1.912 -0.2524 -0.0275 -0.5651
12012SOL    HW136614   2.520   9.132   1.837  0.9214 -0.2188  0.3471
12012SOL    HW236615   2.518   9.151   1.987 -1.4284  0.4723  0.2679
12013SOL     OW36616   0.669   9.911   8.378 -0.0695  0.2109 -0.1719
12013SOL    HW136617   0.683   9.873   8.465  0.2955  1.8717  0.5261
12013SOL    HW236618   0.589   9.868   8.346  0.4180 -1.2539  0.4747
12014SOL     OW36619   2.485   1.490   5.521  0.2579 -0.0750 -0.2111
12014SOL    HW136620   2.526   1.576   5.511 -1.5290  0.7314 -1.1191
12014SOL    HW236621   2.391   1.508   5.515 -0.1977 -1.9799  0.6124
12015SOL     OW36622   5.611   4.636   0.783 -0.5258  0.3065 -0.1364
12015SOL    HW136623   5.652   4.689   0.714  2.3814  0.6172  1.6511
12015SOL    HW236624   5.640   4.547   0.765 -2.0433 -0.0818 -0.8103
12016SOL     OW36625   7.472   6.045   0.269 -0.0039 -0.3632 -0.2230
12016SOL    HW136626   7.514   6.005   0.193  1.5619  0.3196  0.2544
12016SOL    HW236627   7.449   6.133   0.240 -0.7223 -0.5785 -0.3333
12017SOL     OW36628   7.647   1.415   9.528 -0.1415  0.2721  0.0511
12017SOL    HW136629   7.713   1.482   9.509 -0.0377  0.0681 -0.3214
12017SOL    HW236630   7.578   1.462   9.575 -0.7343  0.9480 -1.4546
12018SOL     OW36631   7.901   5.873   6.139 -0.6020 -0.6792 -0.2352
12018SOL    HW136632   7.877   5.955   6.096  1.5584  1.6984  2.6154
12018SOL    HW236633   7.817   5.833   6.163 -1.7819  1.6868 -0.1080
12019SOL     OW36634   0.968   3.608   2.980  0.4901 -0.5479  0.2218
12019SOL    HW136635   0.970   3.566   3.067  1.8458  0.5026  0.7363
12019SOL    HW236636   1.025   3.684   2.989 -2.5005  1.9886 -0.4018
12020SOL     OW36637   6.911   8.275   5.815 -0.1445 -0.1891 -0.1987
12020SOL    HW136638   6.993   8.225   5.823 -0.7372 -0.8395  2.7507
12020SOL    HW236639   6.846   8.210   5.791 -0.8593 -0.9971  3.3622
12021SOL     OW36640   4.009   4.720   3.945 -0.0624 -0.2217  0.8575
12021SOL    HW136641   4.002   4.678   3.859  2.2217  2.2224 -0.7176
12021SOL    HW236642   4.078   4.671   3.990  0.2633 -0.1962  0.3956
12022SOL     OW36643   5.009   0.120   1.716  0.4393  0.1182  0.6111
12022SOL    HW136644   4.940   0.163   1.665 -0.6290  0.0444  1.9218
12022SOL    HW236645   5.057   0.191   1.757  0.7984  0.1518  0.1389
12023SOL     OW36646   1.579   3.735   9.907  0.2894  0.1206 -0.1721
12023SOL    HW136647   1.604   3.812   9.855  2.6922 -0.5684 -0.1373
12023SOL    HW236648   1.488   3.719   9.882  0.3539  1.7407 -1.7206
12024SOL     OW36649   5.388   8.083   9.620 -0.3452  0.0076  0.0231
12024SOL    HW136650   5.368   8.049   9.707  0.3824  1.4949  0.8079
12024SOL    HW236651   5.483   8.078   9.613 -0.3283  0.6552 -0.3381
12025SOL     OW36652   8.612   3.682   6.450  0.1178  0.0618  0.1549
12025SOL    HW136653   8.537   3.740   6.452 -0.4120 -0.5831 -0.4130
12025SOL    HW236654   8.622   3.658   6.357  0.2841 -0.7893  0.3769
12026SOL     OW36655   0.519   4.881   0.845  0.5767  0.7051  0.1290
12026SOL    HW136656   0.495   4.939   0.917 -0.0777 -3.0673  3.2728
12026SOL    HW236657   0.614   4.880   0.845  0.6934  3.2035 -1.4205
12027SOL     OW36658   7.221   0.508   8.626 -0.5872 -0.1612  0.0799
12027SOL    HW136659   7.224   0.555   8.543  1.8683 -1.1634 -0.4779
12027SOL    HW236660   7.291   0.547   8.679 -2.4983  0.8820  1.9822
12028SOL     OW36661   0.207   3.260   2.389 -0.1540  0.8442 -0.4371
12028SOL    HW136662   0.288   3.267   2.440  0.0020  2.5531 -0.8307
12028SOL    HW236663   0.233   3.218   2.307 -0.1353 -0.6590  0.3135
12029SOL     OW36664   6.214   4.910   0.240 -0.0629 -0.3950  0.0942
12029SOL    HW136665   6.282   4.936   0.178 -0.7563  1.3955  0.0215
12029SOL    HW236666   6.206   4.985   0.299 -1.9595 -0.5516  0.1006
12030SOL     OW36667   0.124   6.929   2.410  0.0139  0.1676  0.3827
12030SOL    HW136668   0.158   6.891   2.491  2.0401  0.8583 -0.0874
12030SOL    HW236669   0.191   6.909   2.344 -0.1844  2.1214 -0.4709
12031SOL     OW36670   9.243   7.370   9.129  0.8385  0.1049 -0.3859
12031SOL    HW136671   9.233   7.397   9.037  1.6595 -0.4306 -0.6410
12031SOL    HW236672   9.233   7.451   9.178  2.3620  0.7628 -1.0854
12032SOL     OW36673   6.328   7.095   2.300  0.5768 -0.2687  0.0250
12032SOL    HW136674   6.269   7.170   2.292  0.1143 -0.7910 -1.8789
12032SOL    HW236675   6.346   7.069   2.210  1.7602 -1.6549  0.6284
12033SOL     OW36676   8.486   6.191   5.331 -0.3488 -0.1961  0.1639
12033SOL    HW136677   8.575   6.210   5.360 -0.7844  1.1738  0.6992
12033SOL    HW236678   8.448   6.277   5.314 -0.4716 -0.7953 -3.6135
12034SOL     OW36679   6.738   6.174   3.558  0.0004  0.3865  0.3874
12034SOL    HW136680   6.676   6.151   3.628 -0.5076 -1.7051 -0.6578
12034SOL    HW236681   6.736   6.270   3.555 -1.6169  0.4522  1.7775
12035SOL     OW36682   1.180   5.019   7.438  0.4116  0.3463  0.2344
12035SOL    HW136683   1.183   4.958   7.365  0.7599  0.3784  0.2197
12035SOL    HW236684   1.215   5.101   7.403 -0.9349  0.8417 -0.0085
12036SOL     OW36685   6.642   1.378   8.323  0.6739  0.1260 -0.0192
12036SOL    HW136686   6.647   1.384   8.227 -1.1369 -2.6622 -0.4060
12036SOL    HW236687   6.733   1.364   8.350  0.8843 -3.3077 -1.8879
12037SOL     OW36688   2.423   8.136   0.636 -0.5602 -0.4564 -0.4528
12037SOL    HW136689   2.469   8.053   0.623 -0.1718 -0.4423  0.6794
12037SOL    HW236690   2.493   8.200   0.646 -0.8189 -0.2790  0.3258
12038SOL     OW36691   0.443   3.270   7.282  0.2473 -0.2506 -0.7657
12038SOL    HW136692   0.511   3.213   7.317  1.6187  0.7972 -1.6095
12038SOL    HW236693   0.460   3.355   7.323 -1.6663 -0.3484  0.3613
12039SOL     OW36694   8.845   1.918   5.000 -0.4143  0.4989 -0.3470
12039SOL    HW136695   8.871   2.003   4.964 -0.4184  0.9234  0.6309
12039SOL    HW236696   8.798   1.939   5.080  0.6794 -0.4608  0.5916
12040SOL     OW36697   3.439   0.794   5.329  0.2131  0.3883 -0.1234
12040SOL    HW136698   3.471   0.729   5.266  2.0975 -0.7256  1.8746
12040SOL    HW236699   3.472   0.878   5.295  1.3643 -0.2119 -0.5543
12041SOL     OW36700   5.887   9.125   0.435  0.0264  0.0927  0.0646
12041SOL    HW136701   5.875   9.056   0.500  0.3221 -0.2427 -0.2351
12041SOL    HW236702   5.943   9.189   0.479 -1.5615  0.9531  0.9393
12042SOL     OW36703   0.166   3.959   1.721  0.6478 -0.2170 -0.0857
12042SOL    HW136704   0.238   3.904   1.690  0.5581 -0.3390 -0.0798
12042SOL    HW236705   0.167   4.035   1.663 -1.1596 -1.6369 -2.1512
12043SOL     OW36706   5.524   4.649   1.423 -0.7719  0.7481 -0.3485
12043SOL    HW136707   5.539   4.706   1.347  2.5355 -1.0799 -1.2822
12043SOL    HW236708   5.517   4.561   1.386  0.4772 -0.1380  1.3764
12044SOL     OW36709   2.965   8.448   3.869  0.5900 -0.0096  0.2429
12044SOL    HW136710   2.957   8.521   3.930 -1.0004  0.0091  0.0481
12044SOL    HW236711   3.040   8.398   3.901 -0.3166 -0.1163  2.3415
12045SOL     OW36712   0.366   8.914   4.414  0.0299  0.2648  0.2379
12045SOL    HW136713   0.288   8.954   4.377 -0.5548 -0.6077  0.4938
12045SOL    HW236714   0.351   8.913   4.508  0.2801 -0.0508  0.2774
12046SOL     OW36715   2.013   2.475   2.623 -0.1190  0.2125  0.0369
12046SOL    HW136716   1.943   2.539   2.614  0.8374  1.0222 -2.2330
12046SOL    HW236717   2.046   2.488   2.712 -2.2543  0.3641  0.8651
12047SOL     OW36718   1.965   5.041   7.266  0.0505 -0.3242 -0.4120
12047SOL    HW136719   1.884   5.014   7.309  0.6215 -1.7367 -0.1718
12047SOL    HW236720   1.991   5.121   7.312 -0.6989 -0.3857  0.1436
12048SOL     OW36721   7.103   0.484   9.434 -0.1129  0.1876  0.5735
12048SOL    HW136722   7.073   0.471   9.344 -0.5901 -0.9715  0.8875
12048SOL    HW236723   7.118   0.579   9.441 -1.3877  0.4698 -0.3138
12049SOL     OW36724   4.524   0.273   9.156 -0.7423 -0.0709  0.7656
12049SOL    HW136725   4.521   0.359   9.197 -1.0720  0.1226  0.3473
12049SOL    HW236726   4.480   0.215   9.219 -0.0130 -0.0514  1.3038
12050SOL     OW36727   3.607   0.745   4.528 -0.2472  0.2034  0.1632
12050SOL    HW136728   3.627   0.823   4.478 -0.0612  0.0968  0.0729
12050SOL    HW236729   3.547   0.695   4.473  1.6181 -0.9609 -0.9182
12051SOL     OW36730   1.771   4.041   0.041 -0.2918  1.1827  0.0559
12051SOL    HW136731   1.766   3.968   0.103 -2.9955  1.2980  0.0982
12051SOL    HW236732   1.862   4.040   0.010  0.1199 -1.2914  1.1087
12052SOL     OW36733   7.173   3.762   0.653  0.6778 -0.3533 -0.2790
12052SOL    HW136734   7.109   3.692   0.640  1.2561 -1.1243  0.8687
12052SOL    HW236735   7.215   3.741   0.736  0.7730  1.4556  0.1664
12053SOL     OW36736   3.452   1.194   3.013 -0.3635 -0.6555  0.0422
12053SOL    HW136737   3.449   1.253   3.089 -1.5954 -1.4870  0.6735
12053SOL    HW236738   3.439   1.107   3.050 -2.9799 -0.9167 -1.2744
12054SOL     OW36739   2.375   1.161   0.108  0.4382  0.2999  0.1001
12054SOL    HW136740   2.356   1.102   0.035 -0.7611  0.1648  0.4984
12054SOL    HW236741   2.351   1.112   0.186 -0.7239  1.3486  0.4310
12055SOL     OW36742   0.545   9.680   3.340  0.2516 -0.4061  0.4249
12055SOL    HW136743   0.638   9.699   3.348  0.1189 -0.0303  1.1006
12055SOL    HW236744   0.511   9.752   3.286 -0.0863  0.8798  2.2423
12056SOL     OW36745   3.809   6.077   0.688 -0.4112 -0.0219  0.1366
12056SOL    HW136746   3.758   6.155   0.709  0.0419  0.1352  0.6894
12056SOL    HW236747   3.814   6.029   0.771  0.3061 -0.0465  0.0850
12057SOL     OW36748   8.851   2.785   3.846 -0.2400 -0.0452  0.0012
12057SOL    HW136749   8.911   2.794   3.920 -0.9019 -0.4734  0.6066
12057SOL    HW236750   8.901   2.739   3.779  0.6028  0.9879 -0.1105
12058SOL     OW36751   9.163   3.570   3.033  0.3902 -0.0761  0.7066
12058SOL    HW136752   9.125   3.609   3.112 -0.7286 -1.1015  0.7159
12058SOL    HW236753   9.185   3.644   2.977  0.5725  0.6416  1.7000
12059SOL     OW36754   7.585   5.175   1.299 -0.1307 -0.1397  0.0217
12059SOL    HW136755   7.648   5.103   1.307  0.2606  0.2549  0.5886
12059SOL    HW236756   7.511   5.137   1.252  0.5467 -0.5943 -0.6995
12060SOL     OW36757   4.866   0.751   2.798 -0.3671 -0.0911 -0.2976
12060SOL    HW136758   4.894   0.798   2.720 -1.2926  0.0750 -0.5457
12060SOL    HW236759   4.884   0.659   2.778  0.8084  0.0845 -0.0871
12061SOL     OW36760   4.797   1.108   4.145 -0.3405 -0.0773  0.0833
12061SOL    HW136761   4.806   1.036   4.208  0.7701  0.0126  0.0559
12061SOL    HW236762   4.842   1.182   4.187  1.0174 -0.2061 -1.0753
12062SOL     OW36763   6.345   4.809   4.872 -0.1296  0.3463 -0.3373
12062SOL    HW136764   6.395   4.735   4.836 -2.1836 -0.8109 -0.9322
12062SOL    HW236765   6.313   4.856   4.795 -0.1162  0.9764  0.0366
12063SOL     OW36766   6.051   3.783   2.534 -0.3512  0.1334  0.0715
12063SOL    HW136767   6.137   3.821   2.514  1.6779 -3.8602  0.1422
12063SOL    HW236768   6.034   3.808   2.625  0.8774  0.7617  0.1489
12064SOL     OW36769   7.814   4.325   4.730  0.1213  0.2972 -0.4790
12064SOL    HW136770   7.825   4.234   4.702 -0.1487 -0.2320  1.0183
12064SOL    HW236771   7.722   4.331   4.754  0.3439  0.6867  0.3168
12065SOL     OW36772   2.423   0.128   7.105  0.1844  0.4509  0.0202
12065SOL    HW136773   2.467   0.181   7.039  1.6208  0.2827  0.8041
12065SOL    HW236774   2.485   0.122   7.178  0.7365 -3.4310 -0.5375
12066SOL     OW36775   7.145   1.139   0.360 -0.0814  0.0845 -0.5417
12066SOL    HW136776   7.226   1.179   0.391  0.3576 -1.1997  0.0569
12066SOL    HW236777   7.099   1.112   0.440 -0.3307 -0.6361 -0.9171
12067SOL     OW36778   0.643   2.929   8.781 -0.1699  0.0943 -0.7984
12067SOL    HW136779   0.634   2.867   8.854  0.6702 -0.7153 -1.3665
12067SOL    HW236780   0.722   2.979   8.802  1.1102 -1.3438 -1.9940
12068SOL     OW36781   8.530   9.377   8.813  0.1231 -0.4817 -0.1971
12068SOL    HW136782   8.506   9.346   8.901  1.5784  0.1761  0.4720
12068SOL    HW236783   8.614   9.335   8.796 -0.7560 -1.6750 -1.8981
12069SOL     OW36784   3.208   4.727   1.584 -0.5552 -0.3954 -0.1495
12069SOL    HW136785   3.301   4.735   1.563 -0.0089 -0.5776  1.9362
12069SOL    HW236786   3.163   4.744   1.501  1.2694  1.0915 -0.9202
12070SOL     OW36787   6.035   1.229   7.638 -0.7510 -0.3789 -0.3939
12070SOL    HW136788   5.997   1.142   7.655 -1.6310 -0.1075 -0.9181
12070SOL    HW236789   5.960   1.286   7.624 -0.1561  0.1546 -1.5980
12071SOL     OW36790   3.813   2.415   8.339 -0.1245 -0.4583  0.0260
12071SOL    HW136791   3.880   2.438   8.274  0.6437 -0.2284  0.8803
12071SOL    HW236792   3.858   2.356   8.400 -0.9851 -1.1087  0.0532
12072SOL     OW36793   6.502   3.684   5.974 -0.8656  0.3611 -0.2977
12072SOL    HW136794   6.491   3.745   5.901  0.5906 -0.1947 -1.0232
12072SOL    HW236795   6.556   3.732   6.037 -2.0818  0.8231  0.4349
12073SOL     OW36796   4.706   1.814   0.095 -0.2256 -0.2420 -0.0316
12073SOL    HW136797   4.763   1.818   0.172 -0.9975 -1.2948  0.6204
12073SOL    HW236798   4.766   1.805   0.021  0.4718 -0.9681  0.6015
12074SOL     OW36799   0.993   0.396   1.453 -0.9111 -0.4758 -0.7240
12074SOL    HW136800   1.031   0.332   1.514  0.0050 -1.4363 -2.2252
12074SOL    HW236801   0.899   0.376   1.452 -0.9077 -0.5505  0.2381
12075SOL     OW36802   8.202   8.490   3.765  0.4029  0.2483  0.1860
12075SOL    HW136803   8.128   8.467   3.821 -0.4500 -0.5994 -1.2379
12075SOL    HW236804   8.194   8.585   3.753 -1.9394 -0.0943 -1.8581
12076SOL     OW36805   2.573   9.682   5.493 -0.7263  0.4357  0.1997
12076SOL    HW136806   2.479   9.666   5.495 -0.8407  0.8728 -0.9063
12076SOL    HW236807   2.606   9.620   5.428 -0.4010  0.9853 -0.1654
12077SOL     OW36808   9.336   3.812   3.424 -0.1989  0.4342  0.0949
12077SOL    HW136809   9.414   3.790   3.373 -0.2130 -0.2282  0.3552
12077SOL    HW236810   9.366   3.812   3.515 -0.2550  1.2639  0.1218
12078SOL     OW36811   1.663   9.948   9.783 -0.4535 -0.7297  0.0669
12078SOL    HW136812   1.596  10.014   9.803  1.9269  1.3353  1.9537
12078SOL    HW236813   1.699   9.975   9.699 -1.7510 -1.7464 -0.8683
12079SOL     OW36814   2.046   0.171   4.063  0.1509 -0.5952  0.4862
12079SOL    HW136815   2.076   0.249   4.018  0.2043 -1.5282 -1.1878
12079SOL    HW236816   1.972   0.140   4.011  1.2146 -2.6079  0.0373
12080SOL     OW36817   3.258   6.301   9.710  0.2038  0.7820  0.0604
12080SOL    HW136818   3.217   6.265   9.631  0.8194  1.6015 -0.6493
12080SOL    HW236819   3.209   6.381   9.728  1.3560  1.6764 -0.6954
12081SOL     OW36820   9.873   8.020   2.019 -0.2904  0.1513  0.7120
12081SOL    HW136821   9.791   7.972   2.003  0.0903 -0.4833  0.6333
12081SOL    HW236822   9.861   8.103   1.971 -0.5547 -0.2835 -0.0005
12082SOL     OW36823   8.379   9.323   4.775  0.3070  0.1035 -0.0549
12082SOL    HW136824   8.289   9.290   4.771  0.1953  0.2070  1.2458
12082SOL    HW236825   8.377   9.390   4.843  1.1092  0.9940 -0.8715
12083SOL     OW36826   9.125   5.308   2.724  0.2643 -0.2011  0.0709
12083SOL    HW136827   9.178   5.377   2.684 -0.6339  1.0934  1.0379
12083SOL    HW236828   9.144   5.230   2.672  1.6085  0.6736 -0.8092
12084SOL     OW36829   8.006   4.532   7.159 -0.0201  0.3126 -0.6037
12084SOL    HW136830   8.056   4.613   7.167 -1.1634  1.1037 -1.3193
12084SOL    HW236831   8.067   4.470   7.118  1.2764  0.3906  1.0881
12085SOL     OW36832   4.922   6.640   2.087 -0.2544 -0.0280 -0.1552
12085SOL    HW136833   4.854   6.699   2.117 -0.9185 -0.9831  0.2844
12085SOL    HW236834   4.874   6.565   2.051  0.5626 -0.4010 -0.4929
12086SOL     OW36835   6.889   7.545   2.410 -0.4761  0.5924 -0.1763
12086SOL    HW136836   6.908   7.469   2.355  1.1005  0.2374  0.8125
12086SOL    HW236837   6.812   7.520   2.461  0.3561 -0.5860  0.5371
12087SOL     OW36838   1.895   6.927   0.742  0.8769 -0.2833  0.6687
12087SOL    HW136839   1.937   6.973   0.669  0.2403 -1.5606 -0.5321
12087SOL    HW236840   1.806   6.961   0.744  1.1764  0.4944  1.5322
12088SOL     OW36841   7.104   5.718   5.814  0.2008 -0.2892 -0.1101
12088SOL    HW136842   7.023   5.715   5.763  0.1314  1.2649 -0.1459
12088SOL    HW236843   7.128   5.626   5.827 -2.9463 -0.9995  2.0666
12089SOL     OW36844   0.824   8.259   0.344  0.1848 -0.3835  0.0883
12089SOL    HW136845   0.917   8.272   0.328 -0.0909  0.2246 -1.1620
12089SOL    HW236846   0.800   8.331   0.403  0.2395  0.2935 -0.6929
12090SOL     OW36847   9.940   4.944   9.113  0.0032  0.0095  0.2754
12090SOL    HW136848  10.002   4.871   9.114 -1.2226 -1.1237  2.5203
12090SOL    HW236849   9.966   4.998   9.188 -2.1212 -0.9481  1.7981
12091SOL     OW36850   9.071   9.754   6.667 -0.7530  0.1993  0.1167
12091SOL    HW136851   9.083   9.848   6.649  2.0647  0.0106  0.5873
12091SOL    HW236852   9.019   9.751   6.747 -0.7287  1.3550  0.1935
12092SOL     OW36853   9.179   2.942   9.415 -0.3914 -0.0692  0.8346
12092SOL    HW136854   9.208   3.020   9.463 -0.4600  0.1511  0.5190
12092SOL    HW236855   9.259   2.906   9.376 -0.5237  0.5017  0.0175
12093SOL     OW36856   6.328   7.804   5.697 -0.0437 -0.3241  0.2245
12093SOL    HW136857   6.296   7.716   5.719  0.3402 -0.2650  1.0368
12093SOL    HW236858   6.364   7.838   5.778  1.0229  0.0800 -0.4007
12094SOL     OW36859   1.099   6.927   9.823  0.0101  0.4957  0.6928
12094SOL    HW136860   1.181   6.901   9.782 -0.9019 -0.0452 -0.8755
12094SOL    HW236861   1.117   6.926   9.917  1.2206 -1.6599  0.4862
12095SOL     OW36862   5.882   0.607   7.036  0.3502 -0.3878  0.3043
12095SOL    HW136863   5.924   0.565   6.962 -0.3971  0.3307 -0.5463
12095SOL    HW236864   5.792   0.573   7.036  0.1479  0.1314  0.4604
12096SOL     OW36865   0.932   3.517   9.375 -0.2876  0.4134 -0.3761
12096SOL    HW136866   1.014   3.522   9.326 -0.8070  1.2095 -1.2001
12096SOL    HW236867   0.948   3.568   9.454  0.7338 -1.3197  0.6099
12097SOL     OW36868   0.191   5.346   6.431  0.1088 -0.1044 -0.3488
12097SOL    HW136869   0.243   5.277   6.473  0.0530  1.4007  2.4615
12097SOL    HW236870   0.109   5.303   6.407  0.3347 -1.1959  0.7223
12098SOL     OW36871   7.840   9.849   7.704  0.5946  0.1728  0.2527
12098SOL    HW136872   7.875   9.899   7.630 -0.2342 -2.5557 -2.1672
12098SOL    HW236873   7.758   9.892   7.725  0.3641  0.4571 -1.1152
12099SOL     OW36874   6.473   3.149   4.474 -0.1151 -0.0992  0.6324
12099SOL    HW136875   6.407   3.216   4.455 -0.4273 -0.5423  0.1512
12099SOL    HW236876   6.478   3.149   4.570 -0.6539  0.0916  0.6684
12100SOL     OW36877   5.659   8.443   3.837  0.3472  0.5660 -0.4531
12100SOL    HW136878   5.575   8.458   3.794 -0.6229  1.4449  1.6060
12100SOL    HW236879   5.654   8.352   3.867  1.8092 -0.6921 -3.6810
12101SOL     OW36880   5.258   3.862   5.144 -0.5180 -0.0322 -0.1977
12101SOL    HW136881   5.199   3.909   5.085 -1.3099  0.7333  1.1386
12101SOL    HW236882   5.265   3.919   5.221  1.9206 -0.1417 -0.2585
12102SOL     OW36883   1.141   5.121   5.025 -0.0878  0.1895 -0.5820
12102SOL    HW136884   1.172   5.087   4.941 -0.8652  0.2193 -0.8894
12102SOL    HW236885   1.131   5.043   5.081  1.0219  0.2260 -0.2973
12103SOL     OW36886   7.505   2.983   4.144 -0.1574  0.1959 -0.3684
12103SOL    HW136887   7.494   2.888   4.156  0.6984 -0.0667 -1.5126
12103SOL    HW236888   7.416   3.018   4.153 -0.5645 -0.7711 -0.4576
12104SOL     OW36889   2.297   1.496   1.482 -0.3739  0.1015 -0.2587
12104SOL    HW136890   2.387   1.509   1.454 -0.0307 -2.2406 -0.4575
12104SOL    HW236891   2.292   1.540   1.567 -0.2075  3.5349 -1.8594
12105SOL     OW36892   3.251   8.631   6.627 -0.6042  0.1292 -0.3976
12105SOL    HW136893   3.316   8.569   6.594  0.1682 -0.2450  1.6754
12105SOL    HW236894   3.292   8.717   6.615  0.3404 -0.1063  0.9485
12106SOL     OW36895   9.106   5.568   3.553 -0.2093 -0.3537  0.0243
12106SOL    HW136896   9.186   5.535   3.594 -1.4273 -1.9317  1.3004
12106SOL    HW236897   9.046   5.583   3.627 -1.6151 -0.7988 -0.9852
12107SOL     OW36898   3.570   7.229   2.421 -0.2454 -0.6670  0.0529
12107SOL    HW136899   3.652   7.184   2.439 -0.2079 -0.0170  1.7034
12107SOL    HW236900   3.502   7.164   2.440 -0.1535 -1.0870 -0.9584
12108SOL     OW36901   6.365   5.566   6.742  0.3969  0.1121  0.3589
12108SOL    HW136902   6.375   5.657   6.714  2.2087 -0.5305 -1.3045
12108SOL    HW236903   6.394   5.565   6.833  0.7313  1.1382  0.2749
12109SOL     OW36904   1.444   2.968   1.400  0.6969 -0.0353  0.0468
12109SOL    HW136905   1.494   2.995   1.477 -2.0381  3.5332  0.8363
12109SOL    HW236906   1.428   2.874   1.414  2.2224 -0.0043  2.6225
12110SOL     OW36907   7.462   6.516   2.294  0.0443  0.3973 -0.3293
12110SOL    HW136908   7.388   6.470   2.333  0.5955 -0.1784  0.0533
12110SOL    HW236909   7.456   6.605   2.328 -0.4685  0.3617 -0.3089
12111SOL     OW36910   6.203   2.962   3.289 -0.0325  0.6651 -0.0088
12111SOL    HW136911   6.161   2.918   3.363  0.8993 -0.9985 -0.4335
12111SOL    HW236912   6.265   3.023   3.329  0.8403 -0.5877  0.6206
12112SOL     OW36913   7.420   6.597   0.224 -0.6300  0.6524 -0.0874
12112SOL    HW136914   7.408   6.620   0.132 -1.4172  2.1677  0.3596
12112SOL    HW236915   7.409   6.679   0.271 -1.0208 -0.2233  1.4304
12113SOL     OW36916   3.611   0.536   0.415  0.1305 -0.0207 -0.2377
12113SOL    HW136917   3.535   0.594   0.427  0.8854  1.9503 -3.6380
12113SOL    HW236918   3.594   0.491   0.333  1.6472 -1.2899  0.1012
12114SOL     OW36919   9.316   7.685   4.118 -0.1717  0.0662 -0.1536
12114SOL    HW136920   9.325   7.617   4.051  1.1432 -0.1248  0.1789
12114SOL    HW236921   9.354   7.645   4.197  1.6395  1.5466 -0.2247
12115SOL     OW36922   8.005   0.083   3.708  0.2507 -0.5659 -0.3646
12115SOL    HW136923   8.008   0.077   3.612  0.5299  2.6630 -0.6626
12115SOL    HW236924   8.087   0.126   3.732  0.2366 -1.4209  1.3783
12116SOL     OW36925   8.100   3.810   9.055  0.0193  0.5525 -0.1650
12116SOL    HW136926   8.083   3.749   9.127  2.6611 -1.4527 -1.0790
12116SOL    HW236927   8.185   3.849   9.077  1.3222 -0.7717 -2.5032
12117SOL     OW36928   5.509   3.747   0.323 -0.1672  0.9957 -0.2475
12117SOL    HW136929   5.516   3.824   0.267 -3.0263  0.0869 -2.0769
12117SOL    HW236930   5.498   3.674   0.262  1.4129 -0.8005  1.4524
12118SOL     OW36931   1.163   5.533   0.373 -0.0070 -0.6900  0.6933
12118SOL    HW136932   1.211   5.506   0.295  0.8105  0.0016  0.9376
12118SOL    HW236933   1.214   5.498   0.446 -0.3650 -0.7141  0.9340
12119SOL     OW36934   6.551   9.863   3.172 -0.0692 -0.0626 -0.5740
12119SOL    HW136935   6.492   9.886   3.244  0.7349  0.6331 -0.1170
12119SOL    HW236936   6.548   9.768   3.168  1.5790 -0.3151  1.8888
12120SOL     OW36937   5.250   3.954   2.871  0.1235 -0.3249  0.1535
12120SOL    HW136938   5.269   3.901   2.949  1.3465 -0.6876 -0.3575
12120SOL    HW236939   5.226   3.890   2.804 -3.1164  0.1196  0.7574
12121SOL     OW36940   6.298   3.107   1.628  0.5275  0.5034  0.2905
12121SOL    HW136941   6.289   3.183   1.571  0.3937  1.6176  1.7264
12121SOL    HW236942   6.304   3.144   1.716  2.1941 -1.0693  0.9040
12122SOL     OW36943   3.930   7.609   3.683  0.1351  0.4534  0.1511
12122SOL    HW136944   3.925   7.534   3.624 -0.5439 -0.4667  1.3088
12122SOL    HW236945   3.901   7.683   3.631  1.6770  0.0916 -1.2800
12123SOL     OW36946   7.397   6.381   0.514 -0.2790 -0.5581 -0.6032
12123SOL    HW136947   7.383   6.455   0.573  0.7096 -1.9731  1.5414
12123SOL    HW236948   7.379   6.416   0.427 -1.3591  1.7663  0.4635
12124SOL     OW36949   9.129   1.870   0.063 -0.6463  0.5003 -0.0477
12124SOL    HW136950   9.129   1.870   0.159 -2.7023  1.6942  0.0277
12124SOL    HW236951   9.116   1.779   0.039 -1.0275  0.2964  0.8690
12125SOL     OW36952   3.601   1.558   6.786 -0.0625  0.6205 -0.0401
12125SOL    HW136953   3.628   1.525   6.700 -2.6355 -1.1157 -0.2905
12125SOL    HW236954   3.514   1.593   6.772 -1.0754 -0.8390  2.0365
12126SOL     OW36955   5.790   2.853   8.447 -0.0553 -0.3920  0.3311
12126SOL    HW136956   5.772   2.921   8.511  0.7809  2.1433 -1.9156
12126SOL    HW236957   5.880   2.825   8.465  0.5788  1.1087 -0.3248
12127SOL     OW36958   1.418   5.325   0.869  0.7980 -0.3463 -0.1355
12127SOL    HW136959   1.504   5.342   0.908  1.3712  0.6284 -1.7401
12127SOL    HW236960   1.427   5.239   0.829  1.1117 -0.1357 -0.5222
12128SOL     OW36961   8.344   3.097   4.142 -0.0446  0.0890  0.8822
12128SOL    HW136962   8.265   3.110   4.089  0.1476 -0.3179  0.4906
12128SOL    HW236963   8.401   3.170   4.118  0.5978 -0.8109 -0.5140
12129SOL     OW36964   4.375   6.864   0.538  0.4222  0.5188  0.1285
12129SOL    HW136965   4.391   6.948   0.495 -0.3663  0.2366 -0.7235
12129SOL    HW236966   4.358   6.803   0.467  0.0671 -0.1676  0.7932
12130SOL     OW36967   1.792   0.182   5.862 -0.3352 -0.0253 -0.7561
12130SOL    HW136968   1.708   0.195   5.819 -0.3118  0.1103 -0.7613
12130SOL    HW236969   1.856   0.188   5.792 -0.3412 -0.4171 -0.7973
12131SOL     OW36970   9.263   2.309   8.055  0.2076  0.3227 -0.7827
12131SOL    HW136971   9.319   2.242   8.016  0.1358  0.5083 -1.2038
12131SOL    HW236972   9.324   2.379   8.080  0.6412 -0.9085  1.9365
12132SOL     OW36973   6.168   0.670   8.834 -0.3837  0.0902 -0.1068
12132SOL    HW136974   6.128   0.614   8.900  0.3640 -1.7131 -1.0998
12132SOL    HW236975   6.235   0.719   8.882  0.6242 -1.6920  0.4012
12133SOL     OW36976   0.054   2.124   8.683  0.0704 -0.5060 -0.0104
12133SOL    HW136977   0.087   2.038   8.706 -0.9536 -1.1522 -0.8843
12133SOL    HW236978   0.118   2.158   8.619  0.5701 -0.5245  0.4733
12134SOL     OW36979   9.504   8.390   5.018 -0.5262 -0.3348  0.1837
12134SOL    HW136980   9.565   8.445   4.968  0.6683 -1.8896 -0.1265
12134SOL    HW236981   9.516   8.418   5.109 -0.7125  0.6263 -0.0714
12135SOL     OW36982   8.914   5.952   5.895  0.5564 -0.7221  0.1352
12135SOL    HW136983   8.850   5.956   5.824 -0.5391 -0.4850  1.0959
12135SOL    HW236984   8.977   6.022   5.875 -0.1981 -0.1118 -0.1778
12136SOL     OW36985   9.561   9.429   7.264 -0.3980  0.3005  0.4288
12136SOL    HW136986   9.598   9.366   7.327  0.7033  0.3720 -0.1130
12136SOL    HW236987   9.547   9.508   7.315  1.6004  0.7441  0.3983
12137SOL     OW36988   5.811   4.529   6.957 -0.2724  0.0259  0.5068
12137SOL    HW136989   5.780   4.601   7.011 -0.7522 -0.1747  0.5042
12137SOL    HW236990   5.743   4.517   6.891 -1.5358 -2.1856  2.1071
12138SOL     OW36991   5.163   2.057   9.625  0.5346 -0.0121 -0.1532
12138SOL    HW136992   5.089   2.057   9.564 -1.1450  0.3654  1.7746
12138SOL    HW236993   5.192   1.966   9.627  0.1837 -0.1533 -0.9940
12139SOL     OW36994   2.248   6.882   7.795  0.2363 -0.3920  0.5935
12139SOL    HW136995   2.318   6.824   7.826  0.1398 -0.0356  1.5019
12139SOL    HW236996   2.168   6.843   7.830 -0.1254 -1.2485 -1.1097
12140SOL     OW36997   3.197   8.192   5.507 -0.0317 -0.3804 -0.2258
12140SOL    HW136998   3.229   8.134   5.576 -0.4668  0.5968  0.8406
12140SOL    HW236999   3.276   8.223   5.463  0.2220 -1.4152 -0.5130
12141SOL     OW37000   9.954   3.219   2.867  0.3928  0.0694  0.2744
12141SOL    HW137001   9.941   3.216   2.962  3.9901  2.0271  1.0018
12141SOL    HW237002  10.033   3.167   2.851  0.7767  1.0781 -1.3922
12142SOL     OW37003   3.557   7.278   3.186 -0.3592 -0.2386 -0.5882
12142SOL    HW137004   3.555   7.225   3.266 -0.7028  0.2665 -0.2567
12142SOL    HW237005   3.650   7.280   3.161 -0.4589 -1.8653 -1.1990
12143SOL     OW37006   3.107   1.148   1.845 -0.0689 -0.4880 -0.1401
12143SOL    HW137007   3.185   1.185   1.886 -0.1531 -0.8417  0.3491
12143SOL    HW237008   3.141   1.091   1.776  0.0825 -0.1591 -0.3412
12144SOL     OW37009   4.473   5.193   5.998 -0.5294  0.2121 -0.2705
12144SOL    HW137010   4.505   5.106   6.022 -0.9100  0.4945  1.3148
12144SOL    HW237011   4.397   5.175   5.942 -1.3897 -0.5095  1.0724
12145SOL     OW37012   9.755   4.329   6.768 -0.0986 -0.3711 -0.2762
12145SOL    HW137013   9.745   4.235   6.782 -0.4179 -0.2802  0.1311
12145SOL    HW237014   9.666   4.363   6.775 -0.1372 -0.1736 -1.4742
12146SOL     OW37015   3.111   2.199   7.110 -0.1207 -0.2357  0.5581
12146SOL    HW137016   3.091   2.202   7.203 -0.3617 -1.3006  0.5518
12146SOL    HW237017   3.202   2.227   7.104  0.3818 -1.6277  1.2877
12147SOL     OW37018   8.421   9.327   1.047  0.1739 -0.0720  0.3704
12147SOL    HW137019   8.476   9.303   1.122 -0.2461  0.1638  0.7590
12147SOL    HW237020   8.390   9.243   1.013 -0.9060 -0.1413  1.4416
12148SOL     OW37021   5.838   3.176   2.354  0.1947 -0.3681 -0.1595
12148SOL    HW137022   5.821   3.112   2.286  0.0659 -0.2287 -0.2577
12148SOL    HW237023   5.839   3.125   2.435 -1.0365 -0.3394 -0.1028
12149SOL     OW37024   6.453   0.733   4.763  0.0864  0.7512  0.0475
12149SOL    HW137025   6.459   0.824   4.793  1.6044  1.2153 -1.5075
12149SOL    HW237026   6.426   0.739   4.671 -1.0795 -0.4601  0.2784
12150SOL     OW37027   4.421   9.402   6.756  0.1479  0.2508  0.5128
12150SOL    HW137028   4.459   9.403   6.668  0.8671  1.8243  0.8181
12150SOL    HW237029   4.474   9.463   6.806 -1.0230  0.3155  1.7229
12151SOL     OW37030   8.417   3.174   2.049 -0.2089  0.0334 -0.0648
12151SOL    HW137031   8.339   3.133   2.084  0.1493 -0.2007  0.4746
12151SOL    HW237032   8.440   3.120   1.973 -0.6567  0.2009 -0.3243
12152SOL     OW37033   6.537   0.046   5.012 -0.1359  0.2808 -0.3684
12152SOL    HW137034   6.443   0.055   5.028 -0.9836 -0.9976 -3.8479
12152SOL    HW237035   6.567  -0.013   5.081 -2.2013 -0.4510 -0.0262
12153SOL     OW37036   3.715   7.086   8.105  0.0009 -0.3851  0.2878
12153SOL    HW137037   3.684   7.163   8.153 -0.6493 -0.1470 -0.4951
12153SOL    HW237038   3.636   7.049   8.066  0.5195 -0.5396 -0.6425
12154SOL     OW37039   7.665   3.640   7.906 -0.1442 -0.7350 -0.5862
12154SOL    HW137040   7.647   3.639   7.812 -1.5346  0.2091 -0.3576
12154SOL    HW237041   7.679   3.732   7.927 -1.7294 -0.7057  0.4531
12155SOL     OW37042   3.900   9.298   5.971  0.1868  0.1042 -0.4257
12155SOL    HW137043   3.933   9.212   5.998  0.0431  0.5246  1.1716
12155SOL    HW237044   3.978   9.354   5.970 -0.1642  0.6800  1.6257
12156SOL     OW37045   3.833   7.830   2.058 -0.6446  0.1618  0.7460
12156SOL    HW137046   3.749   7.856   2.098 -1.7813 -3.6247  1.1676
12156SOL    HW237047   3.812   7.817   1.966 -0.3240 -0.0768  0.7089
12157SOL     OW37048   2.318   5.399   6.074  0.2368 -0.4390 -0.5962
12157SOL    HW137049   2.260   5.330   6.039  0.8259  0.4074 -3.4638
12157SOL    HW237050   2.259   5.472   6.093  0.1549 -0.0059 -2.3645
12158SOL     OW37051   6.518   2.298   7.824 -0.0723  0.0606 -0.7326
12158SOL    HW137052   6.515   2.324   7.732  0.6066  0.1277 -0.7366
12158SOL    HW237053   6.611   2.295   7.846 -0.1474 -1.7402 -0.5518
12159SOL     OW37054   3.168   9.063   9.710 -0.3887  0.4575  0.6215
12159SOL    HW137055   3.201   8.991   9.657 -0.4482  0.1824  0.9526
12159SOL    HW237056   3.240   9.126   9.713 -0.1706  0.2040  0.7110
12160SOL     OW37057   5.410   1.543   7.926 -0.1026 -0.3435  0.2196
12160SOL    HW137058   5.346   1.534   7.997 -0.4071  0.2313  0.0205
12160SOL    HW237059   5.372   1.607   7.867  0.8756  0.3691  0.3404
12161SOL     OW37060   9.821   4.789   8.352 -0.0829  0.2909  0.1059
12161SOL    HW137061   9.763   4.858   8.321  0.2367  1.0962  1.2187
12161SOL    HW237062   9.890   4.784   8.286 -0.1158  1.0386  0.0033
12162SOL     OW37063   3.575   8.903   6.304  0.9751 -0.4278 -0.1936
12162SOL    HW137064   3.551   8.946   6.386  3.1514  0.4899  0.0284
12162SOL    HW237065   3.528   8.952   6.237  0.5255 -0.0817  0.3596
12163SOL     OW37066   3.355   8.027   5.169 -0.2634  0.4534 -0.3120
12163SOL    HW137067   3.377   7.953   5.112 -0.1362 -0.3193  0.7172
12163SOL    HW237068   3.263   8.046   5.150 -0.1488  0.3883 -0.9621
12164SOL     OW37069   1.915   9.094   7.540 -0.0880  0.1403 -0.4020
12164SOL    HW137070   1.906   9.175   7.590  0.9717 -0.3725  0.6543
12164SOL    HW237071   1.825   9.068   7.520 -0.4862  0.8708  0.3820
12165SOL     OW37072   9.408   6.133   1.033 -0.3137  0.4023 -0.0510
12165SOL    HW137073   9.436   6.141   0.942  2.0099  1.1358  0.6639
12165SOL    HW237074   9.418   6.039   1.053 -0.2485  0.3403 -0.3738
12166SOL     OW37075   4.266   4.081   8.076  0.0001  0.1113  0.5252
12166SOL    HW137076   4.325   4.148   8.112 -0.8964  1.1571  0.1200
12166SOL    HW237077   4.314   4.044   8.002 -0.8457  2.9644 -1.6401
12167SOL     OW37078   5.076   9.603   7.886  0.1040  0.7081 -0.3759
12167SOL    HW137079   5.065   9.695   7.861 -0.6457  1.1526  1.4341
12167SOL    HW237080   5.170   9.593   7.902  0.1962  1.1408 -0.6376
12168SOL     OW37081   0.835   2.961   1.684  0.5929 -0.6233 -0.0023
12168SOL    HW137082   0.770   2.965   1.754  0.6268  1.5198 -0.0212
12168SOL    HW237083   0.844   2.868   1.664  0.3308 -1.2723  2.5923
12169SOL     OW37084   7.043   5.403   7.551  0.4244 -0.0526 -0.6516
12169SOL    HW137085   7.060   5.490   7.589  0.5307 -0.5699  0.5380
12169SOL    HW237086   7.004   5.421   7.466  0.3481  1.1691 -0.3782
12170SOL     OW37087   7.059   4.952   5.357 -0.4291  1.0120  0.1167
12170SOL    HW137088   6.969   4.925   5.373 -0.5743  1.1047 -0.5230
12170SOL    HW237089   7.100   4.951   5.444 -1.6477  3.2052  0.7898
12171SOL     OW37090   3.958   4.393   2.440  0.0808 -0.3518 -0.4210
12171SOL    HW137091   3.883   4.335   2.451 -0.9119  1.3846  4.0623
12171SOL    HW237092   3.926   4.464   2.384 -2.0224  0.6630  1.8920
12172SOL     OW37093   3.591   1.409   9.348  0.1217 -0.0924  0.1843
12172SOL    HW137094   3.611   1.471   9.279  0.8531 -1.5484 -0.9521
12172SOL    HW237095   3.505   1.373   9.324  0.0661 -0.1113  0.4051
12173SOL     OW37096   8.309   1.690   1.222  0.6230 -0.3404  0.1276
12173SOL    HW137097   8.313   1.712   1.315 -1.5661  0.1480  0.1558
12173SOL    HW237098   8.338   1.769   1.177  1.0377 -0.3476  0.3834
12174SOL     OW37099   4.950   6.976   5.794 -0.2801 -0.3094  0.1814
12174SOL    HW137100   4.919   6.940   5.876  1.5600  0.2834  1.1985
12174SOL    HW237101   5.011   7.045   5.820  1.2110 -0.8533 -1.6625
12175SOL     OW37102   7.370   1.476   7.105 -0.0220  0.3691  0.4729
12175SOL    HW137103   7.415   1.397   7.073  0.7467  0.6727  0.7817
12175SOL    HW237104   7.281   1.446   7.125 -0.2122 -0.0688 -0.8907
12176SOL     OW37105   5.149   0.589   4.549 -0.1948 -0.1443  0.7011
12176SOL    HW137106   5.243   0.595   4.565  0.1436 -0.7598 -0.8446
12176SOL    HW237107   5.124   0.676   4.517  0.2090 -0.4413 -0.4730
12177SOL     OW37108   3.119   3.680   2.468 -0.3965 -0.7663  0.5254
12177SOL    HW137109   3.209   3.662   2.495 -0.0166  1.3446  0.8399
12177SOL    HW237110   3.066   3.653   2.543  0.1414 -0.4455  1.0363
12178SOL     OW37111   8.287   6.176   4.389 -0.0238  0.2068 -0.2646
12178SOL    HW137112   8.226   6.103   4.379  1.6000 -1.2782  0.0073
12178SOL    HW237113   8.370   6.134   4.413  1.2645  2.0608 -1.2232
12179SOL     OW37114   1.905   8.774   2.144  0.5906 -0.1492  0.6315
12179SOL    HW137115   1.810   8.778   2.154  0.5500  1.1662 -0.1504
12179SOL    HW237116   1.932   8.865   2.133  1.7713 -0.6307 -0.6630
12180SOL     OW37117   9.450   0.313   7.088 -0.5927 -0.0698 -0.1544
12180SOL    HW137118   9.492   0.389   7.128  0.6008 -0.5178 -0.5104
12180SOL    HW237119   9.410   0.267   7.162 -0.3607  0.3161  0.2156
12181SOL     OW37120   8.402   2.630   0.378 -0.0260 -0.4928  0.0265
12181SOL    HW137121   8.473   2.600   0.436 -2.0727 -2.2912  1.7982
12181SOL    HW237122   8.324   2.629   0.434 -1.5853  0.8049 -1.9889
12182SOL     OW37123   5.750   2.631   4.810 -0.1495 -0.1184 -0.1536
12182SOL    HW137124   5.736   2.701   4.746 -1.3205 -0.4184 -0.2444
12182SOL    HW237125   5.724   2.551   4.764 -0.9305 -0.3479  0.6590
12183SOL     OW37126   5.607   1.415   4.970 -0.0011  0.7558 -0.1517
12183SOL    HW137127   5.532   1.373   5.012 -0.1486  2.1852  1.1095
12183SOL    HW237128   5.572   1.450   4.888 -0.7462  1.4502  0.4457
12184SOL     OW37129   3.228   8.382   1.279  0.2911 -0.1495  0.0580
12184SOL    HW137130   3.166   8.397   1.208  0.8097  0.1146 -0.3443
12184SOL    HW237131   3.218   8.459   1.336 -1.9400 -1.4946  1.6693
12185SOL     OW37132   5.757   0.304   1.332 -0.0290 -0.1213  0.3353
12185SOL    HW137133   5.731   0.212   1.324  1.0489 -0.4246  0.0917
12185SOL    HW237134   5.851   0.304   1.312  0.7499  0.5314  3.3663
12186SOL     OW37135   6.365   4.407   0.234  0.2224  0.7311 -0.0778
12186SOL    HW137136   6.285   4.431   0.188  0.2418  1.5186  0.2932
12186SOL    HW237137   6.420   4.485   0.231 -0.0925  1.0838  1.9662
12187SOL     OW37138   1.733   9.188   1.918  0.1716 -0.0756 -0.1805
12187SOL    HW137139   1.645   9.225   1.910 -0.3821 -1.3103  0.0318
12187SOL    HW237140   1.733   9.114   1.858  0.2336 -1.6054  1.6442
12188SOL     OW37141   1.582   8.207   5.441  0.4377  0.8983 -0.3333
12188SOL    HW137142   1.607   8.274   5.378 -1.1179  1.8352 -0.0141
12188SOL    HW237143   1.652   8.206   5.505  1.4790  0.7521 -1.4442
12189SOL     OW37144   4.271   2.236   9.305  0.4812 -0.0361  0.0507
12189SOL    HW137145   4.344   2.196   9.258  0.1445  0.2771 -0.7473
12189SOL    HW237146   4.229   2.294   9.241  0.4698  0.9798  0.9533
12190SOL     OW37147   6.750   0.340   9.777 -0.4970 -0.1583 -0.2184
12190SOL    HW137148   6.684   0.342   9.846 -0.4186  0.2543 -0.1563
12190SOL    HW237149   6.799   0.421   9.788  0.5983 -0.8550  0.3040
12191SOL     OW37150   9.560   7.462   0.962  0.5418 -0.0837  0.1059
12191SOL    HW137151   9.475   7.477   0.919  1.2414  0.9923 -0.9983
12191SOL    HW237152   9.598   7.550   0.968  1.1142 -0.4099  1.6317
12192SOL     OW37153   2.692   5.953   8.018  0.0119 -0.3909  0.5266
12192SOL    HW137154   2.622   6.003   7.977  0.2984 -1.2022 -1.0338
12192SOL    HW237155   2.679   5.966   8.112 -2.1552 -0.4283  0.2797
12193SOL     OW37156   8.453   0.779   8.498 -0.3475 -0.1885 -0.0284
12193SOL    HW137157   8.374   0.756   8.450 -2.0137  0.9006  1.9987
12193SOL    HW237158   8.465   0.872   8.480  0.3008 -0.2763 -0.0700
12194SOL     OW37159   4.053   9.395   9.210 -0.0501  0.0381  0.0196
12194SOL    HW137160   4.012   9.310   9.226  0.6804 -0.3193  0.0474
12194SOL    HW237161   3.984   9.448   9.169 -0.6753 -0.3878  0.5062
12195SOL     OW37162   8.321   9.135   6.052  0.1475 -0.3574 -0.1065
12195SOL    HW137163   8.369   9.191   6.113  0.0932  0.2107 -0.5786
12195SOL    HW237164   8.378   9.059   6.039  0.0719 -0.5801  0.7980
12196SOL     OW37165   5.714   6.523   3.675 -0.1771  0.2297 -0.0953
12196SOL    HW137166   5.749   6.578   3.606  0.4433 -0.1987 -0.1331
12196SOL    HW237167   5.625   6.503   3.648 -0.0535  0.3569 -0.5973
12197SOL     OW37168   5.784   4.960   0.028 -0.3798  0.2694  0.3641
12197SOL    HW137169   5.822   5.042   0.061 -1.5778  0.1877  2.0949
12197SOL    HW237170   5.789   4.900   0.103 -1.8402 -0.4217 -0.0593
12198SOL     OW37171   2.641   0.080   0.986  0.3002  0.6308  0.6203
12198SOL    HW137172   2.619   0.019   0.916 -0.9363  0.4883  1.0973
12198SOL    HW237173   2.699   0.144   0.946  1.6945 -0.9008  0.1285
12199SOL     OW37174   3.338   1.136   1.286 -0.0969 -0.1785  0.1049
12199SOL    HW137175   3.341   1.084   1.366  0.7446  1.4950  1.1905
12199SOL    HW237176   3.414   1.106   1.236 -0.5903 -1.1830 -0.0679
12200SOL     OW37177   8.104   1.966   3.993 -0.2729  0.1876 -0.2152
12200SOL    HW137178   8.179   1.910   4.013 -0.9665 -1.3913 -1.7573
12200SOL    HW237179   8.094   2.022   4.070  1.9117 -0.1632  0.3979
12201SOL     OW37180   3.693   3.875   7.682  0.9672 -0.1977  0.3291
12201SOL    HW137181   3.707   3.804   7.619  0.2065  1.2510 -1.5872
12201SOL    HW237182   3.781   3.904   7.705  1.3125  0.5228 -1.6684
12202SOL     OW37183   4.779   8.440   1.434 -0.7896 -0.1223  0.2886
12202SOL    HW137184   4.775   8.404   1.523  0.6839 -1.4648 -0.1395
12202SOL    HW237185   4.753   8.532   1.444 -2.1093 -0.6119  1.8522
12203SOL     OW37186   5.029   0.661   5.324 -0.3687 -0.0265  0.1914
12203SOL    HW137187   5.100   0.679   5.385 -1.4546  0.4922  1.3641
12203SOL    HW237188   5.044   0.721   5.252  0.8936 -0.5895 -0.0467
12204SOL     OW37189   8.651   9.028   2.088  0.0832 -0.1755 -0.3279
12204SOL    HW137190   8.695   9.044   2.172 -0.1527 -2.7929  0.3773
12204SOL    HW237191   8.562   9.002   2.112  0.3144 -1.9849 -1.3028
12205SOL     OW37192   5.962   8.722   7.890  0.1332  0.9132  0.1441
12205SOL    HW137193   6.057   8.710   7.892 -0.0702 -0.8842  1.4576
12205SOL    HW237194   5.942   8.735   7.797  1.3894 -1.7048 -0.5869
12206SOL     OW37195   8.914   2.393   9.294  0.5153 -0.6459  0.0079
12206SOL    HW137196   8.856   2.347   9.233  0.8382 -0.7337 -0.2392
12206SOL    HW237197   8.889   2.360   9.380  0.1993 -0.6840 -0.0981
12207SOL     OW37198   2.947   0.754   2.966 -0.1663  1.2142  0.0484
12207SOL    HW137199   2.918   0.801   2.888 -0.8940  0.3840 -0.1960
12207SOL    HW237200   3.039   0.780   2.977  0.8423 -0.6966 -2.6814
12208SOL     OW37201   8.810   2.675   6.716 -0.3197  0.7327 -0.0234
12208SOL    HW137202   8.826   2.612   6.646 -1.7612 -0.3619  0.5719
12208SOL    HW237203   8.856   2.638   6.792 -2.2257 -0.3716  0.6712
12209SOL     OW37204   1.934   5.165   5.850 -0.0446 -0.2089  0.3444
12209SOL    HW137205   1.901   5.238   5.903 -2.4428 -1.2791  0.4522
12209SOL    HW237206   2.029   5.168   5.862 -0.3553  0.5188  3.4752
12210SOL     OW37207   1.741   7.554   1.774 -0.2415  0.9895  0.3379
12210SOL    HW137208   1.792   7.602   1.839  0.9893  2.9740 -1.9014
12210SOL    HW237209   1.806   7.528   1.708 -1.6751  0.8136 -1.0711
12211SOL     OW37210   9.626   3.337   4.751 -0.1427  0.5069 -0.2588
12211SOL    HW137211   9.717   3.348   4.779  0.0698 -1.9187  0.2347
12211SOL    HW237212   9.633   3.303   4.661 -0.4817 -0.8129  0.1928
12212SOL     OW37213   8.105   4.551   6.798 -0.0218 -0.2102  0.2408
12212SOL    HW137214   8.125   4.498   6.875  1.3327 -0.4853 -0.2628
12212SOL    HW237215   8.191   4.577   6.765 -0.6085  0.5633 -0.7206
12213SOL     OW37216   2.891   9.239   7.906 -0.1165 -0.1109  0.1798
12213SOL    HW137217   2.869   9.220   7.815  1.0445 -0.1611 -0.1025
12213SOL    HW237218   2.817   9.291   7.938 -0.9540 -0.8290 -0.5224
12214SOL     OW37219   4.257   8.521   8.534 -0.0531 -0.0523 -0.1089
12214SOL    HW137220   4.204   8.561   8.603  1.2710  0.7665  0.4658
12214SOL    HW237221   4.304   8.594   8.494 -0.1864 -0.6222 -1.3504
12215SOL     OW37222   2.048   2.372   3.686  0.3693 -0.2438  0.1676
12215SOL    HW137223   1.989   2.444   3.708  2.0512  1.6201 -0.9708
12215SOL    HW237224   1.999   2.318   3.625 -0.3135  1.0688 -0.4982
12216SOL     OW37225   3.799   1.197   6.689 -0.1194  0.6354  0.1193
12216SOL    HW137226   3.832   1.188   6.599 -0.4108  2.2349 -0.1625
12216SOL    HW237227   3.738   1.270   6.685  0.1860  0.9971  1.7250
12217SOL     OW37228   9.356   0.586   1.880 -0.2753 -0.3215 -0.3804
12217SOL    HW137229   9.435   0.625   1.916 -0.6874 -0.9944  1.3518
12217SOL    HW237230   9.387   0.518   1.820  0.4279  0.8187 -1.3481
12218SOL     OW37231   0.779   8.767   9.770  0.6487 -0.1704  0.4398
12218SOL    HW137232   0.734   8.744   9.689 -0.2272 -0.0129  0.8727
12218SOL    HW237233   0.868   8.732   9.759  0.2466 -1.0319 -0.1659
12219SOL     OW37234   9.579   4.452   2.438 -0.5088  0.1411  0.4286
12219SOL    HW137235   9.575   4.417   2.349  0.0128 -0.8806  0.7896
12219SOL    HW237236   9.642   4.523   2.433  0.0033 -0.3250  0.1016
12220SOL     OW37237   2.517   0.528   6.466 -0.1512  0.1797  0.4179
12220SOL    HW137238   2.425   0.501   6.471  0.3520 -1.7096  0.4141
12220SOL    HW237239   2.540   0.517   6.374 -0.1989  1.7653  0.1894
12221SOL     OW37240   4.952   1.218   8.314  0.7237 -0.0536  0.4092
12221SOL    HW137241   4.934   1.193   8.223 -0.9085  1.1020  0.3659
12221SOL    HW237242   5.002   1.144   8.350 -1.3557 -2.0333 -0.5085
12222SOL     OW37243   4.628   6.131   3.758 -0.6333 -0.3157 -0.2940
12222SOL    HW137244   4.543   6.090   3.776 -0.5759 -0.0452  0.6128
12222SOL    HW237245   4.692   6.074   3.800 -0.3016 -0.8195 -1.4439
12223SOL     OW37246   9.552   5.837   9.431 -0.2740 -0.2326  0.2203
12223SOL    HW137247   9.549   5.902   9.501 -0.4509 -0.9673  0.9117
12223SOL    HW237248   9.461   5.810   9.418 -0.1707 -0.5628  0.1574
12224SOL     OW37249   6.864   2.823   6.396  0.3849 -0.5182  0.1246
12224SOL    HW137250   6.875   2.772   6.477  1.7526 -2.3551 -1.1329
12224SOL    HW237251   6.789   2.782   6.353  0.0756  0.0210  0.1528
12225SOL     OW37252   2.865   5.639   6.021  0.7391 -0.1448  0.5636
12225SOL    HW137253   2.868   5.667   6.113 -0.3087 -0.1616  0.6115
12225SOL    HW237254   2.870   5.544   6.024  0.0765 -0.1778  0.6402
12226SOL     OW37255   0.410   6.513   4.242  0.4029  0.4773 -0.3054
12226SOL    HW137256   0.374   6.596   4.274 -0.4499  0.6290 -1.5693
12226SOL    HW237257   0.474   6.540   4.175  0.5036  0.1282 -0.3504
12227SOL     OW37258   7.315   3.711   9.037 -0.0515  0.9232  0.7311
12227SOL    HW137259   7.409   3.719   9.023 -0.3106  2.4308 -0.3325
12227SOL    HW237260   7.295   3.621   9.012  1.0813  0.5936  0.9434
12228SOL     OW37261   1.542   5.344   0.085 -0.3403 -0.0564 -0.1248
12228SOL    HW137262   1.590   5.264   0.105  0.3062  0.5398  0.8050
12228SOL    HW237263   1.522   5.338  -0.008  1.1513 -0.5338 -0.4343
12229SOL     OW37264   1.390   7.798   1.198 -0.3691  0.0192 -0.1887
12229SOL    HW137265   1.338   7.739   1.145 -0.6186  0.8471 -0.8954
12229SOL    HW237266   1.350   7.795   1.285 -1.7124  0.7400 -0.7481
12230SOL     OW37267   1.956   1.566   7.402 -0.0666 -0.0729 -0.0656
12230SOL    HW137268   1.947   1.564   7.497 -0.6579 -0.9427 -0.1372
12230SOL    HW237269   1.892   1.503   7.370 -0.2974  0.6459 -1.0759
12231SOL     OW37270   5.896   6.121   0.735  0.0162 -0.3313  0.4037
12231SOL    HW137271   5.918   6.101   0.644 -2.0584 -1.7906  0.1667
12231SOL    HW237272   5.866   6.212   0.732  0.3745 -0.2240 -0.2866
12232SOL     OW37273   8.569   1.605   7.638 -0.0454 -0.2532  0.0037
12232SOL    HW137274   8.477   1.617   7.614  0.1110 -1.9670 -1.6127
12232SOL    HW237275   8.617   1.620   7.557  1.1760  0.9198  0.8907
12233SOL     OW37276   4.146   0.819   4.076 -0.1066  0.3975 -0.2527
12233SOL    HW137277   4.204   0.846   4.005  3.2274 -2.1883  1.2251
12233SOL    HW237278   4.193   0.842   4.156 -1.5812 -0.8922  1.0644
12234SOL     OW37279   9.625   7.717   3.712 -0.5365  0.0569 -0.1749
12234SOL    HW137280   9.652   7.727   3.620  0.6045  0.0832  0.1530
12234SOL    HW237281   9.560   7.647   3.710 -1.0693  0.5530 -1.0972
12235SOL     OW37282   7.393   8.408   2.961 -0.1152  0.2512 -0.2181
12235SOL    HW137283   7.334   8.462   2.909  0.2927  0.1846 -0.7603
12235SOL    HW237284   7.385   8.320   2.925  1.6769  0.5702 -1.5644
12236SOL     OW37285   1.762   6.615   3.023 -0.1229 -0.1753  0.7511
12236SOL    HW137286   1.705   6.559   2.970 -0.7189  2.3859 -1.5275
12236SOL    HW237287   1.731   6.603   3.113 -1.5626 -1.8913  0.0846
12237SOL     OW37288   7.105   3.234   5.962 -0.2782  0.0480  0.3088
12237SOL    HW137289   7.033   3.279   6.005 -0.3710 -1.0847  1.3873
12237SOL    HW237290   7.184   3.279   5.993 -0.4762  0.9666 -0.4815
12238SOL     OW37291   6.031   8.193   3.167 -0.4902 -0.0165  0.4807
12238SOL    HW137292   5.996   8.146   3.242 -0.9590 -0.6894 -0.1480
12238SOL    HW237293   5.957   8.201   3.106  0.3184 -1.0991 -0.6861
12239SOL     OW37294   1.448   8.669   0.905  0.8448 -0.0650 -0.5818
12239SOL    HW137295   1.432   8.590   0.855 -1.5847  0.3054 -0.5082
12239SOL    HW237296   1.459   8.738   0.839  1.8973 -0.2611 -0.6271
12240SOL     OW37297   3.414   8.224   4.120 -0.1954 -0.0420 -0.2965
12240SOL    HW137298   3.474   8.296   4.103  0.1523 -0.5428 -1.2962
12240SOL    HW237299   3.336   8.244   4.068  0.2189 -0.7621 -1.2282
12241SOL     OW37300   7.737   3.958   6.337 -0.3425 -0.3340 -0.0396
12241SOL    HW137301   7.668   3.955   6.403 -0.1015 -0.1776  0.2187
12241SOL    HW237302   7.690   3.979   6.256 -0.7070 -1.0414 -0.0220
12242SOL     OW37303   6.404   4.245   8.003 -0.6882 -0.2718  0.5890
12242SOL    HW137304   6.342   4.174   8.021 -0.2893 -0.7778  0.0149
12242SOL    HW237305   6.384   4.271   7.913 -2.2568  1.8080  1.4619
12243SOL     OW37306   2.995   4.097   5.206 -0.0192 -0.3498  0.0364
12243SOL    HW137307   2.970   4.023   5.262  0.6391 -0.1592  0.5980
12243SOL    HW237308   2.912   4.135   5.177 -0.3800 -1.5648 -0.6200
12244SOL     OW37309   6.735   7.827   5.094  0.2159  0.2805 -0.3879
12244SOL    HW137310   6.827   7.833   5.118  0.1425  1.1513 -0.2837
12244SOL    HW237311   6.694   7.903   5.135 -0.7671 -0.6739  0.4970
12245SOL     OW37312   5.083   3.806   5.632 -0.1270  0.2637 -0.9215
12245SOL    HW137313   4.991   3.800   5.655 -0.0450  1.9969 -0.0346
12245SOL    HW237314   5.086   3.864   5.556  0.4027  2.4516  0.6760
12246SOL     OW37315   4.124   7.917   2.948  0.2519 -0.5091 -0.4206
12246SOL    HW137316   4.073   7.842   2.978 -1.1508  0.6583  0.2822
12246SOL    HW237317   4.139   7.901   2.855 -1.1779 -1.0612 -0.5883
12247SOL     OW37318   7.585   9.816   1.202  0.5851  0.0030  0.2149
12247SOL    HW137319   7.660   9.861   1.241  0.2149 -0.9152  2.0625
12247SOL    HW237320   7.546   9.882   1.144  1.9317  0.9786  0.3543
12248SOL     OW37321   3.726   9.955   2.513  0.3806 -0.2329  0.5569
12248SOL    HW137322   3.728   9.964   2.418  0.4580 -2.4820  0.2937
12248SOL    HW237323   3.633   9.954   2.535  0.2032 -3.0668  0.0414
12249SOL     OW37324   6.892   4.115   5.494  0.0160 -0.3792 -0.1572
12249SOL    HW137325   6.848   4.072   5.567 -1.3103  1.6669  0.3376
12249SOL    HW237326   6.985   4.099   5.509 -0.3192 -1.2434  1.1431
12250SOL     OW37327   6.744   2.599   7.578  0.6682  0.2289  0.3935
12250SOL    HW137328   6.819   2.542   7.592 -0.6068 -1.6165  0.2106
12250SOL    HW237329   6.668   2.540   7.583 -0.7981  2.0545  0.9143
12251SOL     OW37330   3.792   0.233   2.312  0.4097 -0.2176  0.3580
12251SOL    HW137331   3.725   0.258   2.375 -0.3060 -1.0129 -0.0752
12251SOL    HW237332   3.748   0.174   2.251  0.9370  0.9627 -1.2377
12252SOL     OW37333   6.847   8.986   6.831  0.0367 -0.2559 -0.2573
12252SOL    HW137334   6.794   9.031   6.765 -0.0467 -1.0942 -0.7728
12252SOL    HW237335   6.866   8.901   6.793  0.5382 -0.5112  0.5374
12253SOL     OW37336   7.106   2.154   4.899  0.4886  0.3989 -0.7528
12253SOL    HW137337   7.107   2.108   4.815  0.0028 -1.3491  0.1511
12253SOL    HW237338   7.074   2.089   4.961 -0.5158  2.0799  0.5530
12254SOL     OW37339   7.910   3.203   0.330 -0.3996  0.5124 -0.1393
12254SOL    HW137340   7.884   3.197   0.422  1.2292  1.3894  0.4144
12254SOL    HW237341   8.004   3.187   0.331 -0.3596  0.5537 -1.6587
12255SOL     OW37342   8.759   8.463   8.485  0.7036 -0.1604 -0.8223
12255SOL    HW137343   8.709   8.383   8.501  2.2833 -1.6067 -2.5406
12255SOL    HW237344   8.786   8.492   8.572 -2.5715  0.4179  0.1134
12256SOL     OW37345   3.005   3.723   8.694  0.0125  0.9410  0.1487
12256SOL    HW137346   3.054   3.771   8.627  0.3045  1.5049  0.7534
12256SOL    HW237347   2.965   3.650   8.646  3.2879 -0.9679 -0.0536
12257SOL     OW37348   0.757   5.320   0.248 -0.4276 -0.5163 -0.1333
12257SOL    HW137349   0.816   5.285   0.181 -1.4428 -1.7655 -0.4081
12257SOL    HW237350   0.693   5.250   0.262 -2.1248  0.9678 -0.1922
12258SOL     OW37351   8.973   5.888   1.331 -0.3714 -0.2020  0.4502
12258SOL    HW137352   8.979   5.845   1.416  0.8295  0.1572  0.5676
12258SOL    HW237353   8.892   5.938   1.335 -0.0336  0.2737  1.6160
12259SOL     OW37354   6.131   6.881   6.826  0.2848  0.0975 -0.3747
12259SOL    HW137355   6.039   6.902   6.843  0.0075 -0.5229 -1.0695
12259SOL    HW237356   6.136   6.867   6.732  1.5426  2.2368 -0.6919
12260SOL     OW37357   7.200   2.917   3.256  0.5768 -0.2450 -0.3805
12260SOL    HW137358   7.151   2.911   3.175  2.4857 -0.5109 -1.5883
12260SOL    HW237359   7.212   2.827   3.285 -0.9708 -0.1189  0.8243
12261SOL     OW37360   0.208   4.011   2.527 -0.3677 -0.1151 -0.0062
12261SOL    HW137361   0.283   3.953   2.519 -0.8574 -0.7082 -0.3443
12261SOL    HW237362   0.177   4.024   2.437  0.2719  1.3949 -0.0401
12262SOL     OW37363   1.881   4.081   0.372 -0.1908 -0.4796  0.0444
12262SOL    HW137364   1.912   3.992   0.391  0.6195 -0.2942 -0.3701
12262SOL    HW237365   1.942   4.114   0.306 -1.1907 -0.0432 -0.6747
12263SOL     OW37366   3.680   7.134   5.417  0.0858 -0.3642  0.2113
12263SOL    HW137367   3.622   7.193   5.467 -1.0239 -0.5047 -0.8534
12263SOL    HW237368   3.647   7.046   5.436 -0.8986 -0.3818 -1.3505
12264SOL     OW37369   1.805   7.250   0.344  0.5401  0.6670  0.0522
12264SOL    HW137370   1.775   7.184   0.406  0.4849 -0.1909 -0.8654
12264SOL    HW237371   1.725   7.296   0.317  0.0626 -1.0936 -1.7895
12265SOL     OW37372   1.419   2.275   7.249 -0.0117 -0.0973 -0.0845
12265SOL    HW137373   1.449   2.219   7.321  0.8530  0.4155 -0.0262
12265SOL    HW237374   1.373   2.347   7.292 -1.5938 -1.0151 -0.1872
12266SOL     OW37375   3.378   0.940   1.482  0.2337 -0.1364  1.4017
12266SOL    HW137376   3.466   0.905   1.497  0.2186 -0.8238  0.0859
12266SOL    HW237377   3.328   0.865   1.449 -0.7799  0.3167  1.8632
12267SOL     OW37378   8.596   6.972   9.445  0.1157  0.3729  0.2987
12267SOL    HW137379   8.615   6.884   9.477 -0.9272  0.5899  1.6200
12267SOL    HW237380   8.551   6.958   9.362  0.6322 -0.3166  0.1316
12268SOL     OW37381   9.101   8.802   1.413 -0.1275  0.4391 -0.5826
12268SOL    HW137382   9.161   8.809   1.488 -0.8227 -0.0280  0.0266
12268SOL    HW237383   9.089   8.708   1.401 -3.0151  0.4668  1.1870
12269SOL     OW37384   3.402   0.079   1.582 -0.2783  0.6820 -0.1595
12269SOL    HW137385   3.397   0.161   1.632  0.5303  0.4257  0.3543
12269SOL    HW237386   3.380   0.011   1.645 -1.2213  0.5022 -0.6505
12270SOL     OW37387   6.490   8.836   5.050  0.4685  0.1973  0.1230
12270SOL    HW137388   6.438   8.758   5.067  0.9324 -0.8520 -2.7942
12270SOL    HW237389   6.448   8.904   5.102 -1.2111 -1.5156  1.1439
12271SOL     OW37390   3.138   4.957   8.824 -0.5459  0.4297 -0.2330
12271SOL    HW137391   3.063   5.014   8.807 -0.3395  0.7404 -0.1195
12271SOL    HW237392   3.205   4.985   8.762 -0.1606  0.8608  0.3577
12272SOL     OW37393   4.368   7.247   6.583  0.4783 -0.3061  0.0533
12272SOL    HW137394   4.322   7.301   6.647 -1.7952 -1.2515 -0.6988
12272SOL    HW237395   4.315   7.167   6.576  1.4750 -0.8576 -1.9065
12273SOL     OW37396   3.434   1.844   3.914  0.5851  0.5127  0.1597
12273SOL    HW137397   3.479   1.839   3.830  0.0835 -3.1054 -0.0239
12273SOL    HW237398   3.502   1.823   3.979  0.4660  1.0825  0.4783
12274SOL     OW37399   4.245   9.879   4.889  0.8467  0.2597 -0.5116
12274SOL    HW137400   4.213   9.957   4.934 -2.2579 -1.3697  0.3592
12274SOL    HW237401   4.226   9.895   4.797 -1.9297 -0.2610 -0.1170
12275SOL     OW37402   9.744   7.769   8.496 -0.0604  0.5039  0.0540
12275SOL    HW137403   9.808   7.840   8.495 -0.6957  1.0931  0.3122
12275SOL    HW237404   9.664   7.808   8.461 -0.6904  0.1981  1.1159
12276SOL     OW37405   1.082   3.128   8.676  0.4473 -0.6991 -0.7588
12276SOL    HW137406   1.172   3.129   8.644  0.9474 -0.3988  0.5974
12276SOL    HW237407   1.068   3.216   8.711 -0.0703 -1.0116 -0.1626
12277SOL     OW37408   8.272   0.689   8.341  0.0464  0.3210 -0.1956
12277SOL    HW137409   8.269   0.677   8.246  1.4610 -2.4321 -0.0020
12277SOL    HW237410   8.221   0.616   8.376 -1.3702  1.8952  1.2174
12278SOL     OW37411   1.188   5.237   8.040  0.2327  0.0051  0.0802
12278SOL    HW137412   1.266   5.260   8.091  0.8500 -2.7034  0.5069
12278SOL    HW237413   1.222   5.193   7.963 -0.8491 -0.1374 -0.3242
12279SOL     OW37414   7.464   4.201   9.527 -0.0710  0.1929  0.4473
12279SOL    HW137415   7.483   4.175   9.436  0.7338 -0.0898  0.6844
12279SOL    HW237416   7.482   4.122   9.578  2.0546  1.0541  1.1486
12280SOL     OW37417   9.676   4.254   7.791  0.0812 -0.5026 -0.2185
12280SOL    HW137418   9.754   4.291   7.750  0.5300 -0.4937  0.6161
12280SOL    HW237419   9.710   4.191   7.855 -0.6253 -1.1445 -0.4671
12281SOL     OW37420   5.225   5.514   0.781 -0.5057  0.0574  0.3080
12281SOL    HW137421   5.268   5.577   0.723 -3.0690 -0.0692 -1.9257
12281SOL    HW237422   5.216   5.435   0.727 -2.0963 -0.4060  1.1884
12282SOL     OW37423   1.169   9.119   3.779  0.0156  0.4779 -0.1966
12282SOL    HW137424   1.228   9.051   3.745  1.5520  2.0308 -0.7845
12282SOL    HW237425   1.162   9.100   3.872  0.8399 -0.1885 -0.2515
12283SOL     OW37426   6.310   8.987   8.271 -0.2914 -0.1167  0.1457
12283SOL    HW137427   6.378   8.920   8.271 -0.2362 -0.0701 -0.5769
12283SOL    HW237428   6.239   8.948   8.218 -0.3482  0.3054 -0.0901
12284SOL     OW37429   5.403   9.268   9.475 -0.2440 -0.2662 -0.0339
12284SOL    HW137430   5.330   9.218   9.510  0.6806 -0.5934  1.5189
12284SOL    HW237431   5.434   9.216   9.401 -1.6045 -0.0764 -0.7779
12285SOL     OW37432   6.223   4.090   8.651  0.0272 -0.8599  0.2390
12285SOL    HW137433   6.266   4.174   8.630  1.6731 -1.4067  1.2612
12285SOL    HW237434   6.132   4.103   8.625  0.2281  1.2721  0.4059
12286SOL     OW37435   7.881   2.494   5.035 -0.1300  0.3276 -0.3844
12286SOL    HW137436   7.904   2.493   5.128 -0.8380 -1.4836 -0.1795
12286SOL    HW237437   7.903   2.406   5.004 -3.4405 -0.4448 -0.9572
12287SOL     OW37438   2.728   1.667   0.337 -0.1658  0.1718 -0.1324
12287SOL    HW137439   2.734   1.587   0.284 -2.5175  0.8859 -1.6229
12287SOL    HW237440   2.636   1.669   0.366  0.7851  0.3124  3.2818
12288SOL     OW37441   0.526   7.830   6.038 -0.2927  0.4157  0.0620
12288SOL    HW137442   0.461   7.835   5.968  0.3251 -1.4884 -0.7156
12288SOL    HW237443   0.607   7.862   5.999  0.3203 -1.7060 -0.5029
12289SOL     OW37444   7.666   7.682   2.780  0.6171 -0.4076 -0.4742
12289SOL    HW137445   7.573   7.699   2.795  0.1789 -1.2210 -2.0267
12289SOL    HW237446   7.674   7.587   2.782  1.2467 -0.3853 -1.1528
12290SOL     OW37447   7.800   0.252   7.988  0.8849 -0.6503 -0.1408
12290SOL    HW137448   7.756   0.209   8.061  0.9874 -2.6945 -1.2071
12290SOL    HW237449   7.745   0.233   7.912  1.4477  0.3318 -0.8086
12291SOL     OW37450   0.844   3.998   9.333 -0.1005  0.0820 -0.5858
12291SOL    HW137451   0.931   3.981   9.369 -0.0850 -1.2408 -1.1971
12291SOL    HW237452   0.790   3.925   9.366 -1.3220  1.5244  0.8297
12292SOL     OW37453   0.476   1.779   2.144 -0.2860  0.0249  0.0998
12292SOL    HW137454   0.498   1.762   2.052  2.8389 -1.3935  0.9699
12292SOL    HW237455   0.405   1.719   2.164 -0.6145 -0.0540 -1.2138
12293SOL     OW37456   1.595   0.284   4.551  0.1000  0.1935  0.3205
12293SOL    HW137457   1.544   0.317   4.625  0.0454  0.9390 -0.0466
12293SOL    HW237458   1.584   0.349   4.482 -2.8265 -2.1240 -1.6774
12294SOL     OW37459   9.816   0.951   4.524  0.1664 -0.1815 -0.9826
12294SOL    HW137460   9.809   0.869   4.574  1.9515 -0.3638 -0.9486
12294SOL    HW237461   9.835   0.923   4.435 -1.4469  0.1746 -1.4530
12295SOL     OW37462   5.727   4.815   1.656  0.8948 -0.4748 -0.0277
12295SOL    HW137463   5.668   4.802   1.731 -0.3731 -1.4675 -1.1634
12295SOL    HW237464   5.691   4.891   1.611  0.9985 -0.5554 -0.2456
12296SOL     OW37465   6.577   9.236   1.787 -0.4281 -0.0529 -0.1398
12296SOL    HW137466   6.522   9.202   1.858 -0.2678  0.0424  0.0324
12296SOL    HW237467   6.571   9.171   1.718 -0.8773  0.0301 -0.1782
12297SOL     OW37468   3.237   4.958   9.447 -0.3959 -0.4603 -0.1886
12297SOL    HW137469   3.217   5.049   9.425  4.2036  0.3899 -1.9459
12297SOL    HW237470   3.256   4.960   9.541  2.4205  1.1655 -0.6946
12298SOL     OW37471   7.370   4.645   6.270 -0.1876  0.3852  0.2790
12298SOL    HW137472   7.341   4.667   6.182  0.5322  0.9100  0.1687
12298SOL    HW237473   7.296   4.599   6.309 -0.6669  0.5334 -0.4500
12299SOL     OW37474   5.534   8.203   2.687 -0.2218 -0.0154 -0.5077
12299SOL    HW137475   5.572   8.157   2.612  1.8621  1.7500 -0.6498
12299SOL    HW237476   5.457   8.247   2.651 -1.4425 -2.1586 -0.6753
12300SOL     OW37477   9.670   3.100   6.656  0.0036 -0.2809  0.0924
12300SOL    HW137478   9.697   3.135   6.741 -0.3119 -0.4171  0.2499
12300SOL    HW237479   9.579   3.129   6.645 -0.0303 -0.4525 -0.0943
12301SOL     OW37480   1.903   0.217   1.495  0.1463 -0.1563  0.0072
12301SOL    HW137481   1.957   0.273   1.551  1.2205  0.6664 -1.7633
12301SOL    HW237482   1.896   0.134   1.543  1.2117  0.4288  1.2268
12302SOL     OW37483   7.237   9.765   9.642  0.7364  0.3377  0.2958
12302SOL    HW137484   7.191   9.751   9.725  1.0796  0.3734  0.4923
12302SOL    HW237485   7.311   9.820   9.664  1.2324 -0.2410  0.0942
12303SOL     OW37486   4.543   9.515   0.040 -0.3045 -0.0430 -0.0758
12303SOL    HW137487   4.533   9.583  -0.027 -0.6569 -1.0827 -1.1198
12303SOL    HW237488   4.629   9.477   0.021 -1.2082 -1.6201 -1.1993
12304SOL     OW37489   0.057   7.227   3.715 -0.1846 -0.8919  0.2854
12304SOL    HW137490   0.086   7.250   3.803  0.8461 -0.9095 -0.0304
12304SOL    HW237491  -0.037   7.244   3.715  0.3837  3.1099  0.1705
12305SOL     OW37492   6.432   7.293   4.462 -0.6266 -0.5033  0.1075
12305SOL    HW137493   6.457   7.201   4.455 -0.5603 -0.3728 -1.6868
12305SOL    HW237494   6.503   7.341   4.420  0.2864  0.5727  2.6568
12306SOL     OW37495   9.716   4.348   3.065  0.4480 -0.1306  0.1618
12306SOL    HW137496   9.645   4.355   3.000  0.0153  1.1582  0.7388
12306SOL    HW237497   9.696   4.415   3.130  1.5751 -0.5384  0.9691
12307SOL     OW37498   3.518   0.791   4.759  0.1473  0.1684  0.2618
12307SOL    HW137499   3.512   0.886   4.759  0.3508  0.2201  2.1729
12307SOL    HW237500   3.553   0.769   4.673 -2.2921  1.6211 -1.2255
12308SOL     OW37501   0.405   9.024   8.912  0.1461 -0.1689 -0.0617
12308SOL    HW137502   0.350   8.984   8.979  0.1224 -0.9173 -0.5090
12308SOL    HW237503   0.467   9.078   8.960  0.3299 -0.9420  0.5812
12309SOL     OW37504   5.619   0.991   3.265  0.0337 -0.0842  0.0994
12309SOL    HW137505   5.647   1.062   3.208  1.6285 -0.6255  0.1700
12309SOL    HW237506   5.526   1.009   3.282 -0.0361  0.9990 -1.2813
12310SOL     OW37507   4.743   4.367   6.466  0.0869 -0.2329  0.1415
12310SOL    HW137508   4.793   4.438   6.427  1.5737 -1.6056 -0.5678
12310SOL    HW237509   4.803   4.292   6.465 -1.0404 -1.2142  1.8895
12311SOL     OW37510   8.397   6.806   8.241 -0.7035 -0.1663 -0.3922
12311SOL    HW137511   8.410   6.899   8.223 -0.4640  0.2027  1.4407
12311SOL    HW237512   8.469   6.762   8.197  0.7636  0.8089  0.9236
12312SOL     OW37513   6.262   3.815   9.780 -0.4782 -0.5032  0.1215
12312SOL    HW137514   6.198   3.885   9.766 -1.0225 -0.7840  1.0572
12312SOL    HW237515   6.347   3.855   9.760 -1.0210 -0.5908 -2.7936
12313SOL     OW37516   1.907   0.948   9.789  0.2834  0.0703 -0.0802
12313SOL    HW137517   1.878   0.956   9.699 -0.5509 -1.1671  0.0451
12313SOL    HW237518   1.845   0.886   9.829  0.9097  0.2292  1.2087
12314SOL     OW37519   5.527   0.276   0.709 -0.0498  0.1876  0.1053
12314SOL    HW137520   5.512   0.183   0.695  1.4265 -0.3426  1.7484
12314SOL    HW237521   5.497   0.292   0.798  2.4054  0.5942  0.9180
12315SOL     OW37522   2.023   6.808   2.934  0.4815 -0.2265  0.3228
12315SOL    HW137523   1.937   6.768   2.949  0.4354  0.0142  0.7099
12315SOL    HW237524   2.067   6.748   2.873  0.4620 -0.9301  0.9870
12316SOL     OW37525   3.632   8.193   3.874 -0.2496 -0.0662 -0.6705
12316SOL    HW137526   3.542   8.163   3.860 -0.4585 -0.1668  0.8071
12316SOL    HW237527   3.686   8.129   3.827 -0.9626  0.5162 -2.3598
12317SOL     OW37528   3.740   8.864   7.056  0.6301  0.5177  0.3020
12317SOL    HW137529   3.787   8.946   7.040  0.4752  0.6533  0.5260
12317SOL    HW237530   3.665   8.868   6.996  0.9211  0.2877 -0.0764
12318SOL     OW37531   8.941   9.146   6.250  0.0290  0.1572  0.4026
12318SOL    HW137532   8.920   9.115   6.162 -1.6333  1.4578  0.2866
12318SOL    HW237533   8.858   9.142   6.298  0.7283  0.2567  1.6669
12319SOL     OW37534   6.259   2.718   5.161 -0.4362  0.0661 -0.3971
12319SOL    HW137535   6.261   2.677   5.074 -1.0770  0.1693 -0.4592
12319SOL    HW237536   6.195   2.666   5.211  0.6862 -0.6579  0.3487
12320SOL     OW37537   2.745   1.591   4.353 -0.2565  0.4966  0.2532
12320SOL    HW137538   2.794   1.525   4.402  0.8580  1.6878  0.8088
12320SOL    HW237539   2.780   1.586   4.264 -0.6976 -0.1450  0.1103
12321SOL     OW37540   0.230   3.754   7.660 -0.3988 -0.5604 -0.0989
12321SOL    HW137541   0.270   3.745   7.747 -0.9590 -0.1856  0.2011
12321SOL    HW237542   0.235   3.666   7.623 -1.0697 -0.9660  0.7181
12322SOL     OW37543   5.105   0.207   3.123  0.2086  0.2782 -0.0625
12322SOL    HW137544   5.023   0.241   3.087 -0.1102  0.8797  1.1646
12322SOL    HW237545   5.130   0.136   3.064 -0.0293  1.5100 -1.7099
12323SOL     OW37546   5.264   9.256   4.021  0.5913  0.4132 -0.2865
12323SOL    HW137547   5.341   9.215   4.060 -0.4400  0.8117  2.3634
12323SOL    HW237548   5.238   9.324   4.084 -0.4873  2.0008 -2.3100
12324SOL     OW37549   3.571   6.856   1.430  0.5701  0.0037  0.3583
12324SOL    HW137550   3.584   6.763   1.451  3.0165  0.6306  2.1171
12324SOL    HW237551   3.477   6.870   1.445  0.0733 -2.2014 -0.2192
12325SOL     OW37552   8.878   2.643   4.833 -0.0601  0.4730  0.0118
12325SOL    HW137553   8.940   2.663   4.762 -0.7460  1.1418 -0.4182
12325SOL    HW237554   8.913   2.564   4.874  0.6200  0.3603 -0.7559
12326SOL     OW37555   6.653   4.204   4.340  0.3113  0.6928 -0.3565
12326SOL    HW137556   6.591   4.252   4.284 -1.1109  1.1319  1.4899
12326SOL    HW237557   6.739   4.222   4.301 -0.3520  3.2065 -0.8856
12327SOL     OW37558   0.413   7.604   1.800  0.4338  0.1383 -0.7178
12327SOL    HW137559   0.390   7.521   1.841  0.6899 -1.0751 -2.9178
12327SOL    HW237560   0.328   7.646   1.783  0.3332  1.4863  2.4502
12328SOL     OW37561   5.661   8.412   0.570 -0.0604 -0.6108 -0.2216
12328SOL    HW137562   5.663   8.378   0.659 -3.1582 -0.0513  0.2007
12328SOL    HW237563   5.750   8.441   0.552  0.5878 -0.4444  2.8087
12329SOL     OW37564   7.531   9.112   5.712  0.2742 -0.3700 -0.6964
12329SOL    HW137565   7.578   9.035   5.681  0.5269 -0.6952  0.4567
12329SOL    HW237566   7.439   9.091   5.697  0.3736 -0.6596 -0.9101
12330SOL     OW37567   4.224   1.636   8.171  0.6406 -0.5004  0.0572
12330SOL    HW137568   4.252   1.583   8.096 -0.3395  0.5668 -1.1352
12330SOL    HW237569   4.178   1.710   8.131  0.2130  0.1848  1.7335
12331SOL     OW37570   4.714   1.641   0.500  0.5544 -0.1199 -0.3501
12331SOL    HW137571   4.648   1.710   0.497 -0.4423 -0.9634  1.0859
12331SOL    HW237572   4.770   1.664   0.574  1.0451 -0.1417 -0.7081
12332SOL     OW37573   7.599   5.607   7.193 -0.0314  0.6233  0.8175
12332SOL    HW137574   7.568   5.697   7.185 -0.7835  0.5041  2.1248
12332SOL    HW237575   7.695   5.615   7.194 -0.0812  1.3728  0.5579
12333SOL     OW37576   0.591   6.732   7.657  0.2717 -0.3587  0.2498
12333SOL    HW137577   0.496   6.740   7.668  0.1294 -0.0601 -1.0177
12333SOL    HW237578   0.606   6.638   7.647  0.2277 -0.4902  1.3000
12334SOL     OW37579   7.231   8.457   8.214  0.2451 -0.7119 -0.8870
12334SOL    HW137580   7.187   8.504   8.285  0.2801 -0.0448 -1.2924
12334SOL    HW237581   7.168   8.391   8.186 -0.0268 -0.5462 -0.6763
12335SOL     OW37582   5.448   4.392   8.162 -0.3963 -0.7837  0.1322
12335SOL    HW137583   5.501   4.353   8.232  0.5035  0.1452 -0.0024
12335SOL    HW237584   5.411   4.317   8.116  0.1516 -1.4475  0.7360
12336SOL     OW37585   8.392   6.686   2.084 -0.2576 -0.1697  0.3656
12336SOL    HW137586   8.385   6.599   2.125  1.9366 -0.9297 -0.7186
12336SOL    HW237587   8.404   6.746   2.157 -0.5644 -0.9349  1.0688
12337SOL     OW37588   1.302   5.615   5.544 -0.7140  0.3964 -0.6960
12337SOL    HW137589   1.267   5.545   5.489 -0.5280  1.2200 -1.8999
12337SOL    HW237590   1.274   5.591   5.633 -1.7446 -0.5344 -1.2381
12338SOL     OW37591   3.480   5.006   5.236 -0.0689 -0.2321  0.3812
12338SOL    HW137592   3.469   5.101   5.244  0.1132 -0.3707  4.6314
12338SOL    HW237593   3.564   4.988   5.277  0.0751 -2.2530 -0.6745
12339SOL     OW37594   8.407   2.205   4.664  0.4843  0.9734 -0.0651
12339SOL    HW137595   8.414   2.240   4.575 -0.5266  0.0674 -0.5242
12339SOL    HW237596   8.329   2.245   4.700 -1.8061 -2.0409 -1.2633
12340SOL     OW37597   1.520   8.701   4.603  0.6146  0.4325  0.1625
12340SOL    HW137598   1.611   8.725   4.587  0.7614 -0.9991 -1.3657
12340SOL    HW237599   1.475   8.721   4.521 -0.0953 -0.4470  0.3172
12341SOL     OW37600   6.888   4.724   5.161 -0.2290  0.4960  0.2535
12341SOL    HW137601   6.928   4.691   5.241  0.7793  0.6476 -0.1727
12341SOL    HW237602   6.937   4.804   5.142 -2.5160  2.2727  1.2122
12342SOL     OW37603   2.292   9.974   7.738  0.1858 -0.2908 -0.4564
12342SOL    HW137604   2.286   9.920   7.817 -2.5844  0.5715  0.0280
12342SOL    HW237605   2.386   9.986   7.724  0.8104 -0.0784  3.0114
12343SOL     OW37606   3.654   9.031   1.269 -0.3152 -0.6150  0.7742
12343SOL    HW137607   3.744   9.039   1.237 -1.0582  0.2791 -1.3218
12343SOL    HW237608   3.660   9.041   1.363  1.7679 -0.4447  0.6554
12344SOL     OW37609   3.118   1.368   4.638  0.0253  1.0584 -0.2003
12344SOL    HW137610   3.070   1.286   4.624  0.9819  0.7362 -1.7512
12344SOL    HW237611   3.200   1.357   4.591  0.8130  2.3671  0.7871
12345SOL     OW37612   6.846   7.888   8.453 -0.0877  0.3366  0.0373
12345SOL    HW137613   6.758   7.926   8.453  0.5382  1.8639 -0.3307
12345SOL    HW237614   6.837   7.805   8.500 -1.2011  1.7596  2.5614
12346SOL     OW37615   7.591   9.611   4.049 -0.3651  0.0868 -0.2201
12346SOL    HW137616   7.567   9.663   4.125  1.0679  0.8528 -0.2600
12346SOL    HW237617   7.669   9.562   4.077 -2.0663 -2.6766  0.0756
12347SOL     OW37618   0.062   3.486   4.010  0.1916  0.1115 -0.3030
12347SOL    HW137619  -0.015   3.526   4.049  0.0318 -0.6714  0.2048
12347SOL    HW237620   0.041   3.393   4.002  0.7312  0.0349 -1.0239
12348SOL     OW37621   3.882   8.750   7.272 -0.1803  0.8244 -0.1492
12348SOL    HW137622   3.829   8.773   7.195  1.1379 -0.6868 -1.6029
12348SOL    HW237623   3.823   8.699   7.327 -1.0461  1.6225 -0.3111
12349SOL     OW37624   1.511   7.816   2.138  0.2041 -0.3314  0.2860
12349SOL    HW137625   1.469   7.897   2.166 -0.4294 -0.3679 -0.5171
12349SOL    HW237626   1.487   7.752   2.205  0.0090 -0.0602  0.4782
12350SOL     OW37627   8.580   0.695   1.846 -0.3310  0.5335 -0.9104
12350SOL    HW137628   8.613   0.781   1.873 -0.1843 -0.2796  1.8488
12350SOL    HW237629   8.658   0.640   1.839 -0.5798  0.1136 -0.4828
12351SOL     OW37630   0.084   8.579   0.239  0.4776  0.0808  0.0892
12351SOL    HW137631   0.007   8.532   0.205 -0.1739  1.3133 -0.1829
12351SOL    HW237632   0.153   8.513   0.241  0.0767 -0.4755 -2.0331
12352SOL     OW37633   7.789   0.162   7.353 -0.3150  0.8282 -0.5199
12352SOL    HW137634   7.762   0.158   7.262  0.3026  0.8721 -0.7100
12352SOL    HW237635   7.866   0.104   7.358 -1.0192 -0.0833  0.2167
12353SOL     OW37636   4.352   8.733   9.299 -0.1409  0.0492 -0.3800
12353SOL    HW137637   4.377   8.642   9.315  0.9135  0.3686 -0.1153
12353SOL    HW237638   4.368   8.746   9.205 -0.7648 -0.1766 -0.5186
12354SOL     OW37639   9.446   7.080   1.221  0.5297  0.3216  0.0693
12354SOL    HW137640   9.510   7.116   1.159 -0.7051  2.6814  0.0358
12354SOL    HW237641   9.451   7.138   1.297  0.4292 -1.1920  1.2914
12355SOL     OW37642   1.838   7.869   8.767  0.1289 -0.1217  0.2413
12355SOL    HW137643   1.820   7.855   8.860  0.0332 -0.2743  0.2006
12355SOL    HW237644   1.756   7.905   8.732  0.2960  0.3205  0.2977
12356SOL     OW37645   4.203   5.680   8.460  0.1915  0.7794 -0.3034
12356SOL    HW137646   4.242   5.700   8.375 -1.0902  1.0829 -0.8490
12356SOL    HW237647   4.213   5.586   8.470  0.9728  0.8452 -0.4713
12357SOL     OW37648   6.475   4.225   3.920 -0.0004  0.1906 -0.0127
12357SOL    HW137649   6.526   4.187   3.849  0.0248  2.3930 -1.2531
12357SOL    HW237650   6.516   4.310   3.937 -0.4680  0.0404  2.1545
12358SOL     OW37651   6.564   0.417   3.168  0.1367 -0.2639  0.2214
12358SOL    HW137652   6.537   0.358   3.238  1.3125  0.1389  1.0558
12358SOL    HW237653   6.554   0.505   3.205  1.1698 -0.0617  0.0546
12359SOL     OW37654   4.842   5.958   6.283 -0.2838  0.1219  0.2740
12359SOL    HW137655   4.822   5.868   6.308 -0.5693  0.0323 -0.2584
12359SOL    HW237656   4.861   6.002   6.366 -0.5563 -0.3257  0.5805
12360SOL     OW37657   6.909   2.266   8.653  0.0783 -0.4594  0.3185
12360SOL    HW137658   6.856   2.188   8.671  1.6913 -2.1401 -1.6816
12360SOL    HW237659   6.847   2.329   8.617 -0.9043 -1.7327 -0.3258
12361SOL     OW37660   8.126   6.561   0.395  0.0421 -0.1113  0.0372
12361SOL    HW137661   8.158   6.652   0.400 -0.2930  0.1588 -1.9240
12361SOL    HW237662   8.043   6.563   0.442 -0.3990  0.8435 -0.7307
12362SOL     OW37663   2.403   1.927   8.873 -0.0787  0.4296 -0.1341
12362SOL    HW137664   2.486   1.938   8.919  0.0980  0.3140 -0.4237
12362SOL    HW237665   2.427   1.921   8.781 -0.3545 -0.2265 -0.1676
12363SOL     OW37666   1.826   3.379   3.533 -0.0577  0.0389  0.1866
12363SOL    HW137667   1.797   3.459   3.489  0.0206  0.9555  1.7297
12363SOL    HW237668   1.912   3.360   3.495 -0.9024 -0.4752 -1.5996
12364SOL     OW37669   3.283   7.989   1.106 -0.3757 -0.0723 -0.0942
12364SOL    HW137670   3.339   7.980   1.029  2.3932  0.0852  1.7621
12364SOL    HW237671   3.252   8.079   1.104  0.8025  0.3349 -0.3159
12365SOL     OW37672   5.458   5.696   9.835  0.2201  0.6389 -0.0161
12365SOL    HW137673   5.367   5.675   9.815 -0.8418  3.8767  0.9016
12365SOL    HW237674   5.504   5.689   9.751 -0.7822 -1.1669 -0.4577
12366SOL     OW37675   6.174   2.026   4.269 -0.1258  0.0926  0.2751
12366SOL    HW137676   6.172   2.121   4.277  0.6049  0.1661 -0.3784
12366SOL    HW237677   6.093   1.997   4.311  0.0839  0.9342  1.3051
12367SOL     OW37678   3.403   5.887   9.744  0.5215 -0.1097 -0.1694
12367SOL    HW137679   3.308   5.884   9.736  0.3774  1.6946  0.4768
12367SOL    HW237680   3.430   5.956   9.683  1.2777  0.3712  0.6953
12368SOL     OW37681   9.107   5.409   1.549 -0.2411  0.3441 -0.1989
12368SOL    HW137682   9.072   5.375   1.467  0.5806  1.0787 -0.8745
12368SOL    HW237683   9.119   5.331   1.604 -2.3693  0.0126 -0.1262
12369SOL     OW37684   3.337   4.868   7.018  0.0695  0.3137  0.5051
12369SOL    HW137685   3.290   4.930   7.074 -1.5323 -1.5289  1.3227
12369SOL    HW237686   3.412   4.918   6.984  0.0047  2.0727  2.7149
12370SOL     OW37687   7.681   6.961   4.034  0.5205  0.2004 -0.5333
12370SOL    HW137688   7.650   7.009   4.111  0.8921  0.7860 -0.7462
12370SOL    HW237689   7.656   6.870   4.051  1.1223  0.2252  0.5621
12371SOL     OW37690   1.010   7.162   6.981  0.7233 -0.8055  0.5862
12371SOL    HW137691   0.970   7.185   7.065  1.0095 -0.9473  0.7626
12371SOL    HW237692   1.046   7.074   6.994  0.6446 -0.8856  0.2718
12372SOL     OW37693   2.091   0.136   8.881  0.3074  0.3631  0.3269
12372SOL    HW137694   2.044   0.102   8.804 -2.1378  0.3598  1.7373
12372SOL    HW237695   2.070   0.074   8.951  2.4677  0.3827  1.0754
12373SOL     OW37696   9.923   7.063   0.828 -0.3572  0.1777  0.4541
12373SOL    HW137697  10.004   7.104   0.796 -0.3925  0.2885  0.5055
12373SOL    HW237698   9.948   7.022   0.911 -0.2566 -0.1405  0.2690
12374SOL     OW37699   7.364   4.735   3.979 -0.0086 -0.0338  0.2630
12374SOL    HW137700   7.392   4.644   3.983  1.1624  0.2223 -1.0714
12374SOL    HW237701   7.431   4.778   3.925 -0.7972  1.5137  0.4548
12375SOL     OW37702   1.337   3.881   6.761 -0.1393 -0.2277  0.2547
12375SOL    HW137703   1.397   3.929   6.819  0.8254 -0.0479 -0.8371
12375SOL    HW237704   1.283   3.950   6.721  0.0041 -0.2252  0.0617
12376SOL     OW37705   0.897   1.836   7.059 -0.5351  0.0947  0.3539
12376SOL    HW137706   0.888   1.931   7.060 -0.4893  0.1481 -1.3250
12376SOL    HW237707   0.806   1.804   7.060 -0.5551  0.1562  0.6354
12377SOL     OW37708   1.641   7.992   7.529 -0.0432 -0.1953  0.4724
12377SOL    HW137709   1.644   8.042   7.447  0.5681 -1.3080 -0.2210
12377SOL    HW237710   1.711   8.029   7.583 -0.0065  0.1097  0.2179
12378SOL     OW37711   2.402   8.325   7.746 -0.3029  0.0193 -0.1253
12378SOL    HW137712   2.423   8.238   7.779  0.6398  0.6836  1.1636
12378SOL    HW237713   2.372   8.311   7.657  0.8827 -1.5252 -0.3263
12379SOL     OW37714   8.235   7.807   1.775  0.3470  0.0659  0.0116
12379SOL    HW137715   8.223   7.729   1.830  0.5757  0.3479  0.4712
12379SOL    HW237716   8.203   7.880   1.829 -2.8754 -0.0041 -1.5637
12380SOL     OW37717   5.515   7.291   1.169  0.6529  0.4031  0.0720
12380SOL    HW137718   5.595   7.344   1.168 -1.5349  4.1336  1.7742
12380SOL    HW237719   5.474   7.307   1.084  0.3953  0.8141  0.2693
12381SOL     OW37720   9.414   9.396  -0.020  0.2210 -0.5906 -0.3238
12381SOL    HW137721   9.452   9.345   0.052 -1.1221  0.4144  1.1578
12381SOL    HW237722   9.418   9.487   0.011  2.0779  0.2549 -2.6697
12382SOL     OW37723   2.477   6.849   1.664  0.2186  0.0347  0.0584
12382SOL    HW137724   2.481   6.930   1.612  0.9765  0.5316  0.8653
12382SOL    HW237725   2.422   6.790   1.612  0.4707  0.7195 -1.0212
12383SOL     OW37726   9.329   6.288   5.868 -0.0127 -0.1884  0.1891
12383SOL    HW137727   9.248   6.339   5.865 -0.2753 -0.6589 -1.8625
12383SOL    HW237728   9.346   6.264   5.777  2.2531 -0.4190  0.6227
12384SOL     OW37729   9.684   0.467   5.115 -0.3725 -0.2737  0.4339
12384SOL    HW137730   9.740   0.409   5.064 -0.1470  0.7625 -0.5510
12384SOL    HW237731   9.644   0.411   5.181  1.5275 -1.1152  0.9256
12385SOL     OW37732   5.086   9.427   6.882  0.2399  0.2944 -0.0779
12385SOL    HW137733   4.993   9.402   6.885  0.4352 -0.7465 -1.3062
12385SOL    HW237734   5.085   9.522   6.886 -0.8409  0.2809  0.5523
12386SOL     OW37735   5.360   4.320   8.716 -0.6503  0.0608 -0.0913
12386SOL    HW137736   5.390   4.280   8.798  0.7800 -0.7094 -0.9522
12386SOL    HW237737   5.268   4.342   8.733 -0.9365 -1.8091  1.1032
12387SOL     OW37738   0.189   5.604   9.761 -0.2168 -0.2134  0.7981
12387SOL    HW137739   0.261   5.661   9.787  0.8547 -1.4441  0.6615
12387SOL    HW237740   0.168   5.555   9.841 -0.2856 -0.4923  0.6112
12388SOL     OW37741   6.156   9.104   0.770 -0.4390 -0.0836  0.3731
12388SOL    HW137742   6.081   9.047   0.754 -0.2212 -0.3298  0.2324
12388SOL    HW237743   6.224   9.046   0.804  1.0612 -0.6606 -3.1669
12389SOL     OW37744   3.848   3.583   0.451 -0.3844 -0.2850 -0.0273
12389SOL    HW137745   3.754   3.587   0.434 -0.9024 -1.8895  2.0766
12389SOL    HW237746   3.871   3.491   0.435  0.9411  0.1747 -0.9043
12390SOL     OW37747   2.425   5.932   4.568 -0.0505 -0.3103 -0.0562
12390SOL    HW137748   2.356   5.938   4.502 -0.7296  0.3586  0.6960
12390SOL    HW237749   2.386   5.883   4.640 -0.6594  2.2204  1.4447
12391SOL     OW37750   8.108   2.344   4.471  0.7107  0.0599  0.6704
12391SOL    HW137751   8.113   2.314   4.562  1.4567 -1.4089  0.1787
12391SOL    HW237752   8.176   2.411   4.465  1.9261 -1.0972  0.7841
12392SOL     OW37753   7.219   1.683   5.944  0.2122  0.3104  0.0869
12392SOL    HW137754   7.164   1.759   5.925  1.6733  1.9315  1.9771
12392SOL    HW237755   7.172   1.636   6.013  0.1882  0.5264  0.2178
12393SOL     OW37756   6.930   2.994   6.148 -0.3781  0.5085  0.6846
12393SOL    HW137757   6.935   2.951   6.233  1.2025 -0.5986  0.0660
12393SOL    HW237758   6.936   3.088   6.169 -1.0507  0.3175  1.8388
12394SOL     OW37759   7.807   0.755   6.242 -0.2493  0.2416  0.8238
12394SOL    HW137760   7.794   0.755   6.337  0.5182  0.6902  0.9361
12394SOL    HW237761   7.745   0.820   6.209 -1.2047 -0.6030  0.9043
12395SOL     OW37762   6.611   9.584   0.191 -0.3071 -0.1062 -0.3939
12395SOL    HW137763   6.605   9.565   0.098 -1.3542 -0.0252 -0.3574
12395SOL    HW237764   6.570   9.670   0.201  1.2597  0.6238 -0.0729
12396SOL     OW37765   0.409   9.076   6.524 -0.3037  0.6200  0.1495
12396SOL    HW137766   0.433   9.127   6.601 -1.0923 -0.3887  1.1015
12396SOL    HW237767   0.320   9.105   6.503 -0.5840 -0.0361  0.4212
12397SOL     OW37768   9.337   1.454   0.195 -0.2427 -0.1913 -0.4817
12397SOL    HW137769   9.271   1.415   0.252 -1.9687 -0.9413 -2.8362
12397SOL    HW237770   9.413   1.396   0.201 -0.9927 -1.1447 -0.1701
12398SOL     OW37771   0.356   3.969   4.123  0.0514  0.4629  1.0414
12398SOL    HW137772   0.442   3.980   4.163  0.9828 -0.6535 -0.5169
12398SOL    HW237773   0.340   3.874   4.124  0.0907  0.3773 -1.0380
12399SOL     OW37774   4.121   8.339   4.109  0.6238  0.1240 -0.2504
12399SOL    HW137775   4.115   8.406   4.177  1.3884  0.7546 -0.7801
12399SOL    HW237776   4.062   8.368   4.040 -1.3752 -1.3225  0.7578
12400SOL     OW37777   4.732   2.954   4.455  0.0129 -0.4243  0.6911
12400SOL    HW137778   4.663   2.964   4.521  0.2484 -0.1626  0.8966
12400SOL    HW237779   4.736   2.860   4.440 -1.4365 -0.3458 -0.4310
12401SOL     OW37780   3.891   3.774   1.222 -0.0948 -0.1052  0.6393
12401SOL    HW137781   3.829   3.714   1.264  0.2507 -0.2155  0.9854
12401SOL    HW237782   3.935   3.818   1.294 -0.0548  0.2687  0.3871
12402SOL     OW37783   4.099   7.707   8.439  0.1973 -0.1862 -0.3583
12402SOL    HW137784   4.073   7.639   8.377 -2.8425 -2.0387  2.6245
12402SOL    HW237785   4.171   7.668   8.488  0.8873  0.2671 -0.9843
12403SOL     OW37786   8.147   4.147   2.835  0.2580  0.2929  0.2965
12403SOL    HW137787   8.238   4.155   2.805  0.3706  1.0525  0.7955
12403SOL    HW237788   8.127   4.054   2.828  0.0248  0.4606 -2.8258
12404SOL     OW37789   2.921   7.820   3.760 -0.0108  0.2552  0.3137
12404SOL    HW137790   2.918   7.746   3.821 -0.2484  1.4789  1.8270
12404SOL    HW237791   3.008   7.814   3.720  0.1668 -0.5470  0.7895
12405SOL     OW37792   1.279   4.545   8.053 -0.1040  0.0312 -0.2810
12405SOL    HW137793   1.239   4.458   8.050  0.3603 -0.2020  0.1535
12405SOL    HW237794   1.204   4.606   8.052 -0.4691 -0.3937  0.3209
12406SOL     OW37795   9.108   2.252   8.911 -0.0846  0.1501  0.0469
12406SOL    HW137796   9.153   2.331   8.940  0.3261 -0.2279  0.4489
12406SOL    HW237797   9.165   2.180   8.939 -1.1804 -0.3694  1.0257
12407SOL     OW37798   8.847   9.404   9.164 -0.1137  0.2047  0.1872
12407SOL    HW137799   8.873   9.494   9.145  0.0814 -0.0549 -0.8103
12407SOL    HW237800   8.926   9.353   9.151 -0.6421 -0.3416 -1.0434
12408SOL     OW37801   6.078   4.669   5.021  0.2808  0.3144 -0.0027
12408SOL    HW137802   6.019   4.605   4.981 -0.1136  1.8245 -2.0179
12408SOL    HW237803   6.130   4.702   4.947  1.7292  1.0326  1.2832
12409SOL     OW37804   2.871   5.594   7.474  0.1145  0.1970  0.0150
12409SOL    HW137805   2.777   5.605   7.464  0.3271  2.2954 -0.1717
12409SOL    HW237806   2.895   5.526   7.411 -1.3252 -0.7990  0.4893
12410SOL     OW37807   0.318   3.724   8.452 -0.6260  0.4146 -0.3494
12410SOL    HW137808   0.356   3.670   8.383  0.7514  0.4259  0.3507
12410SOL    HW237809   0.274   3.662   8.510  1.5391 -0.1385  0.8318
12411SOL     OW37810   6.607   6.677   8.298  0.6821  0.0959  0.9233
12411SOL    HW137811   6.607   6.626   8.217  2.2440  0.6027  0.5652
12411SOL    HW237812   6.520   6.716   8.303 -0.0429 -1.4073  0.4508
12412SOL     OW37813   4.115   1.173   5.103  0.4691  0.0406 -0.1494
12412SOL    HW137814   4.048   1.108   5.082 -0.4721  0.6449  0.9130
12412SOL    HW237815   4.075   1.257   5.079  1.8156  0.2491 -1.8784
12413SOL     OW37816   7.463   8.811   3.538  0.2379 -0.3829  0.7514
12413SOL    HW137817   7.419   8.731   3.566 -0.3295 -0.9889 -1.6889
12413SOL    HW237818   7.452   8.813   3.443  1.5930  1.8015  0.5731
12414SOL     OW37819   1.759   6.423   8.540 -0.4405 -0.2076  0.1719
12414SOL    HW137820   1.806   6.396   8.619  2.4989 -0.6051 -1.5932
12414SOL    HW237821   1.788   6.513   8.525 -0.3182 -0.4217 -0.9061
12415SOL     OW37822   4.073   5.867   8.843 -0.3762  0.1885 -0.0376
12415SOL    HW137823   4.027   5.786   8.820  1.3187 -0.6229 -0.7053
12415SOL    HW237824   4.097   5.906   8.759  1.6193 -0.3012  0.2456
12416SOL     OW37825   1.053   1.559   8.703  0.4995 -0.5141  0.0835
12416SOL    HW137826   1.062   1.472   8.741  1.2350  0.1379  1.4664
12416SOL    HW237827   1.117   1.613   8.750  0.6549  0.5911 -1.3314
12417SOL     OW37828   4.816   8.721   0.860  0.5573 -0.0771 -0.5784
12417SOL    HW137829   4.727   8.687   0.854  0.3634  0.0976  0.7872
12417SOL    HW237830   4.825   8.782   0.787 -0.9672  1.0024  0.0723
12418SOL     OW37831   5.893   1.972   5.139  0.1771  0.0386 -0.3705
12418SOL    HW137832   5.881   1.881   5.110 -1.2648  0.0878 -0.0005
12418SOL    HW237833   5.864   2.025   5.064  0.5916  0.1907 -0.4227
12419SOL     OW37834   1.026   5.814   6.280 -0.5576 -0.4560  0.1793
12419SOL    HW137835   0.975   5.780   6.206 -0.5754 -1.4525  0.6272
12419SOL    HW237836   1.117   5.796   6.257 -0.5725 -0.9372  0.4565
12420SOL     OW37837   9.139   5.185   1.712 -0.2915 -0.6994  0.2107
12420SOL    HW137838   9.205   5.116   1.713  2.0426  1.3728  1.3693
12420SOL    HW237839   9.117   5.199   1.804 -0.3146  0.4200  0.0521
12421SOL     OW37840   9.617   9.498   8.695  0.3066 -0.1153 -0.4673
12421SOL    HW137841   9.619   9.557   8.770 -0.2029 -0.6689 -0.0148
12421SOL    HW237842   9.607   9.411   8.733 -2.4379 -0.2093 -1.2336
12422SOL     OW37843   8.627   8.883   4.689 -0.4640  0.0100 -0.2441
12422SOL    HW137844   8.601   8.863   4.599  0.5801 -0.0214 -0.5549
12422SOL    HW237845   8.680   8.962   4.682 -0.1277 -0.1615  0.3045
12423SOL     OW37846   7.045   1.255   8.648 -0.0014 -0.2504 -0.3608
12423SOL    HW137847   7.029   1.339   8.691  1.4027 -1.9196  3.9431
12423SOL    HW237848   7.134   1.262   8.615 -0.8321  0.7891 -2.5522
12424SOL     OW37849   6.350   4.611   4.663 -0.0090 -0.1173  0.2817
12424SOL    HW137850   6.355   4.609   4.567  1.6866  1.6635  0.2851
12424SOL    HW237851   6.431   4.571   4.692  0.3028  0.9420  0.9271
12425SOL     OW37852   3.997   4.164   7.277  0.1743  0.3562 -0.0401
12425SOL    HW137853   4.079   4.157   7.228 -0.3525 -0.5195 -0.8198
12425SOL    HW237854   3.990   4.081   7.324 -0.8813 -0.1177 -0.9895
12426SOL     OW37855   3.333   3.586   1.453 -0.0462  0.2790  0.2706
12426SOL    HW137856   3.289   3.563   1.372  0.3321  0.6387 -0.0476
12426SOL    HW237857   3.277   3.653   1.493 -0.2703  0.0476  0.3400
12427SOL     OW37858   5.793   3.014   5.473  0.5580 -0.7424  0.2656
12427SOL    HW137859   5.766   3.077   5.406  0.4631 -0.8753  0.1799
12427SOL    HW237860   5.884   3.038   5.493  1.1335 -1.7146 -1.0804
12428SOL     OW37861   9.108   9.171   2.136  0.3322  0.6013 -0.1919
12428SOL    HW137862   9.126   9.125   2.218 -1.2802  2.3734  1.2590
12428SOL    HW237863   9.052   9.110   2.087 -0.2189  0.2420  0.8521
12429SOL     OW37864   0.549   0.411   1.346  0.1427 -0.2946 -0.0016
12429SOL    HW137865   0.506   0.489   1.312  1.1199  0.9161  1.4011
12429SOL    HW237866   0.515   0.339   1.292 -2.8146  0.6862  0.3722
12430SOL     OW37867   7.226   1.417   4.998 -0.0175  0.0186 -0.5405
12430SOL    HW137868   7.214   1.409   5.093 -0.7845  0.3119 -0.6056
12430SOL    HW237869   7.138   1.431   4.964  0.3139  0.4208 -1.2473
12431SOL     OW37870   2.807   1.562   1.154  0.0169 -0.1611  0.3343
12431SOL    HW137871   2.883   1.611   1.126  0.1674 -0.7458 -0.3192
12431SOL    HW237872   2.771   1.612   1.227 -0.7474  1.7507 -1.2800
12432SOL     OW37873   2.316   3.521   8.417  0.0448  0.5730  0.1754
12432SOL    HW137874   2.328   3.554   8.328  0.1598  1.3838  0.4764
12432SOL    HW237875   2.262   3.443   8.407  0.2306  0.5324 -0.6198
12433SOL     OW37876   2.686   4.239   1.320  0.6719  0.5258 -0.2547
12433SOL    HW137877   2.654   4.180   1.389 -1.7002  0.1801 -1.5663
12433SOL    HW237878   2.728   4.181   1.257 -0.0924  0.4370 -0.6875
12434SOL     OW37879   7.975   0.794   4.492 -0.0536  0.4474  0.7821
12434SOL    HW137880   7.984   0.703   4.462 -1.8469  0.3858  0.3001
12434SOL    HW237881   8.063   0.819   4.519  0.5221 -1.3698  0.7376
12435SOL     OW37882   5.231   9.743   9.144 -0.4365  0.2326 -0.0382
12435SOL    HW137883   5.230   9.708   9.233  1.4686 -1.6186 -0.6545
12435SOL    HW237884   5.294   9.816   9.148  0.2908 -0.3843 -0.0209
12436SOL     OW37885   7.025   9.219   5.966  0.0613 -0.2553  0.3622
12436SOL    HW137886   6.996   9.239   5.877  3.2144 -0.6975 -0.8936
12436SOL    HW237887   6.997   9.129   5.982 -1.2750  0.1157  0.2022
12437SOL     OW37888   8.255   9.555   2.959 -0.4951 -0.1820 -0.4004
12437SOL    HW137889   8.219   9.613   2.891 -1.6077 -0.1460  0.2015
12437SOL    HW237890   8.193   9.561   3.031  0.5066 -0.4730  0.5084
12438SOL     OW37891   0.140   5.346   7.075  0.6194 -0.3499 -0.2468
12438SOL    HW137892   0.108   5.322   7.162 -0.0693 -1.5010 -0.7973
12438SOL    HW237893   0.065   5.385   7.032  1.5363  2.3052  0.3846
12439SOL     OW37894   2.178   7.361   3.585 -0.5276 -0.1431 -0.2212
12439SOL    HW137895   2.223   7.445   3.597  0.2901 -0.8067  1.7034
12439SOL    HW237896   2.110   7.360   3.652 -0.9644 -0.7639 -0.6594
12440SOL     OW37897   3.534   0.204   2.705  0.4784  0.6091  0.8107
12440SOL    HW137898   3.514   0.284   2.754 -0.9535 -0.3347  1.8320
12440SOL    HW237899   3.605   0.163   2.754 -0.5589 -0.0417  1.7876
12441SOL     OW37900   3.673   5.344   9.782 -0.1241 -0.3642 -0.2980
12441SOL    HW137901   3.720   5.264   9.806 -0.6242 -0.1444  1.5562
12441SOL    HW237902   3.583   5.316   9.768 -0.1326 -0.2434 -0.4961
12442SOL     OW37903   8.259   5.403   6.932  0.4368 -0.0450 -0.1406
12442SOL    HW137904   8.346   5.436   6.953  0.2878  1.2912 -1.4879
12442SOL    HW237905   8.248   5.328   6.991  0.7211  2.3107  3.2147
12443SOL     OW37906   2.003   3.795   1.264  0.2481  0.1156  0.1956
12443SOL    HW137907   1.976   3.704   1.276 -0.2482  0.3938  1.2425
12443SOL    HW237908   2.004   3.807   1.169 -0.1082 -0.8567  0.0603
12444SOL     OW37909   3.420   4.279   7.728  0.2736 -0.2582  0.2663
12444SOL    HW137910   3.438   4.360   7.681 -0.8250  0.0143  0.2875
12444SOL    HW237911   3.454   4.210   7.671  1.2089  0.2032  0.2491
12445SOL     OW37912   0.566   3.993   9.130  0.1719 -0.0149 -0.1706
12445SOL    HW137913   0.512   4.067   9.101 -1.0488 -0.1994  1.5075
12445SOL    HW237914   0.645   4.033   9.164  0.6460  0.3322 -1.6140
12446SOL     OW37915   1.857   5.354   0.771 -0.1765 -0.1716 -0.8260
12446SOL    HW137916   1.850   5.290   0.701  0.5314  1.7026 -2.7047
12446SOL    HW237917   1.951   5.368   0.782 -0.3243  1.1226 -1.0428
12447SOL     OW37918   1.139   8.016   1.742 -0.1323  0.0790 -0.8231
12447SOL    HW137919   1.223   8.023   1.696  0.3601  1.0445  0.1873
12447SOL    HW237920   1.160   7.969   1.823 -0.7695 -0.5372 -1.0000
12448SOL     OW37921   7.322   4.321   7.001  0.5712 -0.3836  0.4648
12448SOL    HW137922   7.313   4.279   7.086 -0.4875  0.8468  0.9894
12448SOL    HW237923   7.264   4.271   6.943 -0.3876  0.0902  0.9938
12449SOL     OW37924   0.509   3.234   9.485 -0.4588 -0.4078  0.2070
12449SOL    HW137925   0.602   3.235   9.509 -0.8546  2.0891  2.0250
12449SOL    HW237926   0.463   3.238   9.569 -2.1229  1.3943 -0.7178
12450SOL     OW37927   4.165   5.664   9.120  0.1453 -0.2668  0.0677
12450SOL    HW137928   4.197   5.654   9.030  0.2016  2.3007 -0.2769
12450SOL    HW237929   4.233   5.623   9.174  0.5947 -0.9818 -0.9913
12451SOL     OW37930   5.931   8.061   9.640 -0.0795  0.2039  0.4271
12451SOL    HW137931   5.927   8.091   9.731 -0.2270 -0.5885  0.6933
12451SOL    HW237932   5.930   8.141   9.588 -0.8301  0.6405  1.0963
12452SOL     OW37933   9.346   0.329   8.277  0.3875  0.5552  0.0237
12452SOL    HW137934   9.309   0.281   8.203  0.4469  1.1392 -0.3910
12452SOL    HW237935   9.279   0.393   8.301  0.6069  0.7562  0.1030
12453SOL     OW37936   9.351   5.571   6.978 -0.4901 -0.0100  0.5849
12453SOL    HW137937   9.435   5.567   7.024 -0.4618 -1.0220  0.4706
12453SOL    HW237938   9.368   5.529   6.894 -1.3995 -1.3640  1.0422
12454SOL     OW37939   7.813   5.779   1.145  0.4830 -0.0946  0.3385
12454SOL    HW137940   7.731   5.752   1.185  1.1944 -0.7698  1.3994
12454SOL    HW237941   7.839   5.703   1.092  0.5218  0.0405  0.1635
12455SOL     OW37942   5.376   9.269   3.393 -0.4572 -0.1416 -0.1859
12455SOL    HW137943   5.351   9.289   3.483  0.2655 -1.1299  0.2494
12455SOL    HW237944   5.471   9.283   3.391 -0.2833 -1.2393 -0.4595
12456SOL     OW37945   4.330   1.250   1.626  0.4709  0.5532  0.1632
12456SOL    HW137946   4.350   1.220   1.715  0.4112  1.1688  0.3932
12456SOL    HW237947   4.407   1.226   1.574 -1.0247 -3.3573 -0.5383
12457SOL     OW37948   4.468   9.653   3.418 -0.6594 -0.7159 -0.8326
12457SOL    HW137949   4.417   9.733   3.405  0.3416  0.3976  1.5676
12457SOL    HW237950   4.461   9.636   3.512  1.0430 -2.1546 -0.9306
12458SOL     OW37951   3.215   0.681   9.118  0.1347 -0.5385  0.5983
12458SOL    HW137952   3.304   0.716   9.116 -0.0685  0.1638  2.2800
12458SOL    HW237953   3.227   0.588   9.136  0.5312 -0.3760  1.2221
12459SOL     OW37954   6.042   4.708   1.763  0.5391  0.0941 -0.2783
12459SOL    HW137955   6.032   4.802   1.744 -2.8570 -0.2383 -0.5816
12459SOL    HW237956   6.020   4.700   1.855  1.0747 -0.4132 -0.1895
12460SOL     OW37957   2.260   0.904   8.159 -0.1044 -0.0220 -0.0330
12460SOL    HW137958   2.257   0.984   8.212  0.1864  0.0733 -0.1542
12460SOL    HW237959   2.335   0.918   8.100 -0.6976  0.0646 -0.7758
12461SOL     OW37960   3.791   0.411   7.590 -0.7584 -0.2996  0.0709
12461SOL    HW137961   3.806   0.332   7.643 -1.4473  0.6877  1.8244
12461SOL    HW237962   3.766   0.478   7.654 -0.6522  1.2272 -1.4258
12462SOL     OW37963   2.623   4.656   7.173  0.2272 -0.0006  0.5504
12462SOL    HW137964   2.650   4.584   7.116 -0.0122  0.5264 -0.2409
12462SOL    HW237965   2.528   4.662   7.163  0.3294  0.9105  0.0123
12463SOL     OW37966   3.150   0.223   4.993  0.1171  0.1077  0.3260
12463SOL    HW137967   3.224   0.244   4.936  0.3686  0.8290  0.9022
12463SOL    HW237968   3.120   0.308   5.026  0.2126 -0.3147  1.5473
12464SOL     OW37969   8.793   7.781   6.577  0.1749 -0.1808  0.2103
12464SOL    HW137970   8.830   7.695   6.563 -0.9146 -0.8456  1.2505
12464SOL    HW237971   8.701   7.772   6.553  0.1766  0.8678 -0.2797
12465SOL     OW37972   2.551   1.310   8.703 -0.5023 -0.6884 -0.1805
12465SOL    HW137973   2.643   1.288   8.692  0.0002  0.5644  1.1715
12465SOL    HW237974   2.524   1.261   8.781 -0.5370  0.0963  0.3182
12466SOL     OW37975   6.177   4.767   6.708 -0.4446 -0.0324  0.0807
12466SOL    HW137976   6.087   4.795   6.692 -1.1520 -1.4616  1.2601
12466SOL    HW237977   6.172   4.671   6.715  1.0113 -0.0854  1.0125
12467SOL     OW37978   8.140   7.095   2.615 -0.5907  0.1863  0.7280
12467SOL    HW137979   8.115   7.105   2.707 -0.4055 -1.5885  1.0118
12467SOL    HW237980   8.223   7.141   2.607 -0.2162 -0.3148  1.6518
12468SOL     OW37981   2.604   9.097   2.510 -0.1031 -0.4020  0.0728
12468SOL    HW137982   2.651   9.029   2.463 -0.1950  0.6261 -1.5705
12468SOL    HW237983   2.613   9.073   2.602  1.6604 -1.4690 -0.3350
12469SOL     OW37984   8.711   0.769   1.230 -0.2038  0.7859 -0.1763
12469SOL    HW137985   8.669   0.684   1.232  0.3136  0.5472  0.8366
12469SOL    HW237986   8.688   0.810   1.313  0.7346  1.0490 -0.0327
12470SOL     OW37987   8.878   0.380   2.252  0.2944  0.2523  0.1057
12470SOL    HW137988   8.904   0.288   2.247 -0.5879  0.0350 -1.0640
12470SOL    HW237989   8.937   0.418   2.317  1.0087 -1.0243  0.2480
12471SOL     OW37990   3.470   7.787   5.080 -0.3445  0.0624  0.3054
12471SOL    HW137991   3.533   7.715   5.077 -0.1397  0.2444  0.2090
12471SOL    HW237992   3.410   7.763   5.151  0.7127  0.6081  1.4147
12472SOL     OW37993   3.072   1.593   5.079  0.2255  0.5020 -0.3621
12472SOL    HW137994   3.055   1.685   5.060  2.8986  1.1603  0.1336
12472SOL    HW237995   3.167   1.587   5.089  0.2582 -2.5320 -1.4946
12473SOL     OW37996   8.647   0.832   2.266  0.4967 -0.1458  0.1282
12473SOL    HW137997   8.576   0.833   2.331  1.1520 -1.0169  0.8930
12473SOL    HW237998   8.718   0.881   2.306  0.4023  0.5607 -0.5552
12474SOL     OW37999   6.152   2.605   6.000  0.2390  0.2874  0.1618
12474SOL    HW138000   6.216   2.548   6.043  0.1112  0.2992  0.3668
12474SOL    HW238001   6.081   2.546   5.974  0.0549  0.3715  0.4749
12475SOL     OW38002   0.127   9.684   1.329 -0.5442 -0.1832  0.1612
12475SOL    HW138003   0.144   9.599   1.371 -2.4708 -0.2718  0.8644
12475SOL    HW238004   0.045   9.714   1.368 -0.8765  1.1406 -1.4372
12476SOL     OW38005   5.147   6.679   6.660 -0.3104  0.1265  0.1371
12476SOL    HW138006   5.195   6.756   6.691  0.4044  0.4622 -1.6697
12476SOL    HW238007   5.193   6.604   6.699  1.3392  0.4756 -1.0052
12477SOL     OW38008   8.864   6.828   3.997 -0.0186  0.3597  0.5752
12477SOL    HW138009   8.843   6.784   4.079 -0.3190  3.0559  2.0779
12477SOL    HW238010   8.957   6.810   3.984  0.0882  0.0716  1.6352
12478SOL     OW38011   5.211   8.257   1.166  0.2194  0.5711 -0.2973
12478SOL    HW138012   5.254   8.343   1.164 -1.0346  1.2051 -0.8428
12478SOL    HW238013   5.118   8.277   1.158  0.0326 -0.9547 -2.9085
12479SOL     OW38014   9.935   2.562   0.529  0.1110 -0.1283  0.3332
12479SOL    HW138015   9.888   2.581   0.611  0.2187 -1.3742  0.7002
12479SOL    HW238016   9.990   2.487   0.550  0.6052 -0.0742 -0.7238
12480SOL     OW38017   1.616   4.914   7.888  0.7680 -0.2878  0.4117
12480SOL    HW138018   1.690   4.854   7.890  0.5486 -0.5534  0.6551
12480SOL    HW238019   1.572   4.902   7.973  1.2429  0.8682  0.8496
12481SOL     OW38020   1.908   7.150   5.414  0.1251 -0.0133  0.0789
12481SOL    HW138021   1.840   7.184   5.357  1.6639  0.8186 -1.3703
12481SOL    HW238022   1.914   7.213   5.486 -0.3935  0.0768  0.0447
12482SOL     OW38023   7.860   2.080   3.888  0.1160  0.3310 -0.0929
12482SOL    HW138024   7.792   2.031   3.935 -0.1717 -0.2633 -1.1026
12482SOL    HW238025   7.940   2.030   3.902  0.1197  0.3930  0.1166
12483SOL     OW38026   4.656   5.618   7.451  0.0198 -0.2395 -0.5843
12483SOL    HW138027   4.573   5.581   7.422 -0.2277 -0.2043  0.0555
12483SOL    HW238028   4.637   5.652   7.538  0.6026  0.1389 -0.6029
12484SOL     OW38029   9.026   3.647   4.294 -0.1763  0.1763  0.0030
12484SOL    HW138030   9.013   3.562   4.337  0.5732 -0.0600 -0.2288
12484SOL    HW238031   8.937   3.683   4.286 -0.5729 -0.8432 -0.4272
12485SOL     OW38032   8.766   4.535   7.776 -0.4291 -0.4130 -0.0139
12485SOL    HW138033   8.764   4.443   7.747  1.6966  0.5652 -4.0817
12485SOL    HW238034   8.713   4.581   7.711  0.1044  1.4954  0.8546
12486SOL     OW38035   9.537   9.567   3.337 -0.0795  0.1304  0.8904
12486SOL    HW138036   9.564   9.635   3.275 -0.2539 -0.5228  0.0684
12486SOL    HW238037   9.442   9.560   3.325 -0.2838  0.7351  2.0171
12487SOL     OW38038   0.014   5.127   2.492 -0.2091 -0.1818  0.5053
12487SOL    HW138039   0.079   5.195   2.472 -1.5155  0.6790 -1.0897
12487SOL    HW238040   0.066   5.047   2.501  1.0741  0.3323 -1.4427
12488SOL     OW38041   3.402   1.954   0.488 -0.4374 -0.2059  0.3404
12488SOL    HW138042   3.339   2.020   0.516 -1.2914 -1.8558  2.5614
12488SOL    HW238043   3.367   1.920   0.406 -2.1715 -0.6561  1.2187
12489SOL     OW38044   2.891   0.342   8.154 -1.0200  0.1150 -0.4050
12489SOL    HW138045   2.947   0.392   8.095  0.9189 -1.3810  0.0273
12489SOL    HW238046   2.827   0.300   8.097 -0.1555 -0.0748 -1.2697
12490SOL     OW38047   5.262   2.320   5.214  0.1726  0.1480  0.2371
12490SOL    HW138048   5.212   2.402   5.213  0.3628  0.2794  0.9156
12490SOL    HW238049   5.209   2.260   5.162 -0.5762  0.3685  0.7139
12491SOL     OW38050   5.670   8.835   5.204  0.1344 -0.1498 -0.1539
12491SOL    HW138051   5.631   8.865   5.122 -2.4691  0.5599  1.2349
12491SOL    HW238052   5.643   8.743   5.212 -0.6952  0.1412  0.4838
12492SOL     OW38053   9.077   0.296   1.406 -0.6017  0.1303 -0.0423
12492SOL    HW138054   9.129   0.277   1.328 -1.5966 -0.9621 -0.4769
12492SOL    HW238055   9.008   0.355   1.375 -0.1320  0.9070  0.3535
12493SOL     OW38056   8.246   5.919   7.628 -0.4431  0.4435 -0.1538
12493SOL    HW138057   8.219   5.916   7.536  0.3177  2.5074 -0.4783
12493SOL    HW238058   8.211   6.001   7.661  1.5961  1.0619  0.6242
12494SOL     OW38059   0.166   5.199   7.942  0.4578 -0.6712  0.5649
12494SOL    HW138060   0.239   5.151   7.982  2.0621  0.9742 -0.2275
12494SOL    HW238061   0.204   5.238   7.863 -1.3984 -0.0597 -0.0634
12495SOL     OW38062   9.154   0.612   4.823  0.3251 -0.7602  0.0561
12495SOL    HW138063   9.177   0.698   4.858  2.3721 -0.7316 -1.1915
12495SOL    HW238064   9.081   0.629   4.763  1.4493  0.3222 -1.0495
12496SOL     OW38065   1.816   2.481   9.580  0.3770  0.8425  0.0172
12496SOL    HW138066   1.791   2.476   9.672 -1.7744  2.2082 -0.3971
12496SOL    HW238067   1.792   2.570   9.554 -1.9065 -0.3617 -2.5502
12497SOL     OW38068   3.166   6.527   2.557 -0.3344  0.0373 -0.5825
12497SOL    HW138069   3.172   6.533   2.652  1.0118  1.0792 -0.7041
12497SOL    HW238070   3.236   6.468   2.532  0.8974  1.6436 -1.0736
12498SOL     OW38071   2.568   1.925   0.722  0.0219 -0.1201  0.2715
12498SOL    HW138072   2.553   1.900   0.631  1.7181 -1.5127  0.3223
12498SOL    HW238073   2.533   1.852   0.773  1.0454 -0.3923  0.6187
12499SOL     OW38074   0.558   3.567   8.290  0.0063  0.2813 -0.3405
12499SOL    HW138075   0.546   3.473   8.275 -0.8234  0.1255  1.1435
12499SOL    HW238076   0.653   3.579   8.291  0.3243 -1.2517  3.1664
12500SOL     OW38077   5.542   9.442   8.023 -0.6197 -0.0729 -0.6085
12500SOL    HW138078   5.621   9.497   8.028  0.0731 -1.1165  0.4568
12500SOL    HW238079   5.550   9.396   7.940  0.3187 -0.7607 -0.1523
12501SOL     OW38080   3.826   0.205   5.743  0.3057  0.4404 -0.1861
12501SOL    HW138081   3.810   0.165   5.829  1.0401  0.3630 -0.0727
12501SOL    HW238082   3.893   0.149   5.703  0.4190  0.8305 -0.5530
12502SOL     OW38083   1.933   9.540   1.435  0.3295  0.3185  0.1112
12502SOL    HW138084   1.912   9.472   1.498 -1.2431  0.4694 -0.2232
12502SOL    HW238085   1.860   9.602   1.440  0.1037  0.2940 -1.8945
12503SOL     OW38086   1.841   4.796   4.990  0.0434 -0.1467  0.2061
12503SOL    HW138087   1.849   4.888   4.965  1.9610 -0.7783 -1.8181
12503SOL    HW238088   1.798   4.754   4.915 -0.4295 -0.9893  0.9255
12504SOL     OW38089   7.011   4.047   6.644 -0.1030  0.2363  0.3022
12504SOL    HW138090   6.939   4.079   6.590  0.1405 -1.4825 -1.1329
12504SOL    HW238091   7.006   3.952   6.638  1.6452  0.0546  1.0508
12505SOL     OW38092   2.692   0.992   6.494  0.3681 -0.3614  0.5890
12505SOL    HW138093   2.769   0.977   6.549  0.6689  0.7663  0.4956
12505SOL    HW238094   2.633   0.919   6.514  0.5638 -0.0910  2.2536
12506SOL     OW38095   2.763   1.057   5.320 -0.0691  0.7236  0.8014
12506SOL    HW138096   2.696   0.991   5.338 -2.4303  2.1144 -2.0568
12506SOL    HW238097   2.726   1.138   5.354  0.3790  1.4314 -0.3483
12507SOL     OW38098   7.836   2.948   7.192  0.4299  0.2189 -0.4276
12507SOL    HW138099   7.837   3.032   7.146 -1.4129  0.7174  0.3551
12507SOL    HW238100   7.798   2.886   7.130  1.1890  0.0927 -0.7766
12508SOL     OW38101   9.029   3.074   0.716 -0.3266  0.3988  0.1089
12508SOL    HW138102   9.045   3.128   0.794  0.4070 -0.7485  0.7808
12508SOL    HW238103   9.023   3.137   0.644  1.6349  1.3133  0.6967
12509SOL     OW38104   6.641   2.050   2.771 -0.0828  0.3684  0.4873
12509SOL    HW138105   6.687   2.099   2.839 -0.4876 -0.4136  1.3429
12509SOL    HW238106   6.659   2.098   2.690  1.2775  0.7342  0.9807
12510SOL     OW38107   6.878   3.178   3.131  0.2987 -0.4647 -0.1274
12510SOL    HW138108   6.930   3.208   3.205  0.7882 -0.5270 -0.4426
12510SOL    HW238109   6.832   3.100   3.163  0.6406 -0.5884  0.0569
12511SOL     OW38110   0.644   6.614   5.256  0.3861  0.0812 -0.4289
12511SOL    HW138111   0.723   6.623   5.309  0.2138 -0.0731 -0.1469
12511SOL    HW238112   0.667   6.655   5.173  0.7958 -0.0432 -0.3817
12512SOL     OW38113   1.882   6.651   0.655 -0.1281  0.3758  0.0591
12512SOL    HW138114   1.836   6.732   0.676  0.1918  0.5871 -0.0530
12512SOL    HW238115   1.964   6.679   0.616 -0.0788 -0.0046 -0.1166
12513SOL     OW38116   6.326   7.786   0.216  0.3324  0.2737  0.0249
12513SOL    HW138117   6.308   7.784   0.122 -1.2810 -0.0102  0.3127
12513SOL    HW238118   6.376   7.705   0.232 -1.4463 -0.9324 -0.2422
12514SOL     OW38119   0.479   5.223   7.837 -0.4675  0.1017 -0.0718
12514SOL    HW138120   0.432   5.157   7.887  0.7570  0.6990  2.0031
12514SOL    HW238121   0.564   5.182   7.817 -1.0887 -0.2919 -2.1391
12515SOL     OW38122   7.494   9.169   4.901 -0.5134  0.1318 -0.6112
12515SOL    HW138123   7.460   9.088   4.940  0.0410  0.3903  0.4469
12515SOL    HW238124   7.561   9.198   4.962  2.0590 -0.6472 -2.8816
12516SOL     OW38125   0.983   1.828   1.934 -0.2768 -0.3098 -0.1401
12516SOL    HW138126   1.031   1.750   1.905 -0.4776  0.2030 -1.9336
12516SOL    HW238127   0.985   1.887   1.859 -0.8441  1.0931  0.9099
12517SOL     OW38128   5.399   8.164   0.195  0.1728  0.7052  0.1419
12517SOL    HW138129   5.440   8.250   0.202  1.7877 -0.1293  1.6827
12517SOL    HW238130   5.415   8.122   0.279 -1.9540 -0.5505 -0.0007
12518SOL     OW38131   9.342   5.213   6.783  0.2417 -0.3907  0.4927
12518SOL    HW138132   9.253   5.177   6.776 -1.0211  2.5466 -0.0510
12518SOL    HW238133   9.372   5.221   6.693  0.2880  0.2889  0.5614
12519SOL     OW38134   6.306   1.590   6.529  0.2143 -0.6028  0.4073
12519SOL    HW138135   6.222   1.546   6.541  1.3201 -2.7509  0.7738
12519SOL    HW238136   6.289   1.681   6.556 -1.6625 -1.2702  1.7178
12520SOL     OW38137   9.881   8.307   1.540  1.1941 -0.3229 -0.0544
12520SOL    HW138138   9.893   8.382   1.598 -0.7638 -1.1631  1.5997
12520SOL    HW238139   9.962   8.301   1.490  0.9488  3.6433 -1.2289
12521SOL     OW38140   1.254   4.567   5.754  0.6414 -0.2507 -0.3583
12521SOL    HW138141   1.265   4.490   5.698  1.2083 -0.6253  0.2556
12521SOL    HW238142   1.189   4.540   5.819  1.2802 -0.4204  0.2177
12522SOL     OW38143   5.795   3.232   7.229  0.1021  0.1154  0.4172
12522SOL    HW138144   5.839   3.241   7.145  0.6736 -0.4090  0.6577
12522SOL    HW238145   5.703   3.255   7.210 -0.0368 -1.1878 -0.6132
12523SOL     OW38146   4.642   9.697   0.660 -0.7300 -0.0683  0.0780
12523SOL    HW138147   4.675   9.696   0.570 -3.2161 -0.2570 -0.9266
12523SOL    HW238148   4.563   9.643   0.657 -0.6675 -0.4182  2.5040
12524SOL     OW38149   6.335   6.205   3.820  0.3920  0.1197 -0.7307
12524SOL    HW138150   6.276   6.230   3.890  0.9539 -1.7697  0.4764
12524SOL    HW238151   6.284   6.218   3.740 -1.5686 -1.1802  0.2418
12525SOL     OW38152   4.832   9.604   6.219 -0.3578 -0.1790 -0.1381
12525SOL    HW138153   4.767   9.614   6.288  0.3367  1.4224  0.3232
12525SOL    HW238154   4.854   9.511   6.220 -1.4098 -0.4399  0.8136
12526SOL     OW38155   2.990   5.673   7.196 -0.4627  0.1495 -0.7348
12526SOL    HW138156   2.943   5.753   7.173 -1.1167 -0.1500 -0.4474
12526SOL    HW238157   2.964   5.654   7.286 -0.1206 -0.2533 -0.7146
12527SOL     OW38158   3.350   8.248   2.114  0.0589  0.4315 -0.7551
12527SOL    HW138159   3.400   8.270   2.193 -0.4560 -1.2193  0.0884
12527SOL    HW238160   3.259   8.250   2.142 -0.0853 -0.9627 -1.0610
12528SOL     OW38161   2.163   9.430   3.082 -0.2333  0.3131  0.7181
12528SOL    HW138162   2.186   9.457   2.993 -1.6852  1.1471  0.5563
12528SOL    HW238163   2.241   9.387   3.115  0.6831  0.8928 -0.5968
12529SOL     OW38164   8.027   2.452   3.924 -0.0019  0.1065 -0.5333
12529SOL    HW138165   8.058   2.534   3.886 -0.5747  0.5687 -0.0320
12529SOL    HW238166   8.089   2.386   3.894  0.0029  0.5847 -1.6066
12530SOL     OW38167   8.801   9.931   4.412 -0.3035 -0.3314 -0.2587
12530SOL    HW138168   8.785   9.996   4.343  0.6644 -0.1572 -0.3365
12530SOL    HW238169   8.764   9.850   4.377  2.4981 -0.9126 -2.2571
12531SOL     OW38170   1.128   8.401   9.007 -0.5415 -0.3515  0.0091
12531SOL    HW138171   1.212   8.427   9.043 -0.8940 -1.0207  1.3599
12531SOL    HW238172   1.130   8.433   8.916  1.1071 -0.2846  0.0452
12532SOL     OW38173   3.100   8.048   5.037 -0.6881 -0.2446  0.9338
12532SOL    HW138174   3.064   7.962   5.018  1.4713 -0.9346 -0.3523
12532SOL    HW238175   3.034   8.110   5.004 -0.1259 -1.4198 -2.8860
12533SOL     OW38176   4.945   8.579   4.265 -0.3876  0.0196 -0.0234
12533SOL    HW138177   5.007   8.509   4.248  0.8300  0.1304  3.3160
12533SOL    HW238178   4.883   8.542   4.328  0.0969  1.7406  1.5584
12534SOL     OW38179   7.983   4.047   0.371  0.4072 -0.5657  0.0791
12534SOL    HW138180   8.018   4.009   0.452 -0.4183  0.9505  1.1923
12534SOL    HW238181   8.052   4.106   0.341  1.2327 -2.0390 -1.0531
12535SOL     OW38182   2.974   8.724   6.718 -0.0153 -1.0169  0.8462
12535SOL    HW138183   2.948   8.813   6.741 -1.2303 -1.7655  2.5555
12535SOL    HW238184   3.069   8.728   6.708 -0.1014  0.5590  0.3474
12536SOL     OW38185   6.195   7.264   0.876 -0.3040 -0.5041 -0.2560
12536SOL    HW138186   6.223   7.207   0.804  0.1241 -0.7097  0.0741
12536SOL    HW238187   6.276   7.297   0.914 -0.5390  0.1012 -0.2588
12537SOL     OW38188   9.127   1.679   8.760 -0.0479 -0.2223  0.0471
12537SOL    HW138189   9.182   1.624   8.703  0.4949  0.6762 -0.3204
12537SOL    HW238190   9.186   1.709   8.828  0.2993  1.8172 -1.0736
12538SOL     OW38191   9.927   1.357   9.090  0.4080  0.4778  0.1616
12538SOL    HW138192   9.882   1.274   9.102  1.2316  0.0935  0.7253
12538SOL    HW238193   9.927   1.372   8.996 -0.6736  0.3713  0.1387
12539SOL     OW38194   5.406   4.935   9.058  0.0549  0.1910 -0.0734
12539SOL    HW138195   5.500   4.949   9.070 -0.1969 -0.2700  3.5420
12539SOL    HW238196   5.366   5.019   9.079 -0.4388 -0.4048  1.5144
12540SOL     OW38197   9.317   3.932   1.228  0.4250  0.7433  0.1038
12540SOL    HW138198   9.285   3.844   1.250  1.6552  0.4993  1.0282
12540SOL    HW238199   9.410   3.929   1.248  0.8656  1.7208 -1.6151
12541SOL     OW38200   5.086   8.890   2.417  0.4625 -0.2019 -0.0021
12541SOL    HW138201   5.021   8.900   2.348  0.1383 -3.4957 -0.3427
12541SOL    HW238202   5.142   8.818   2.387  1.7075 -0.2181  2.1435
12542SOL     OW38203   1.467   4.206   7.675 -0.2798 -0.0822  0.2886
12542SOL    HW138204   1.462   4.299   7.653 -1.6125  0.2376  1.7369
12542SOL    HW238205   1.525   4.202   7.751  0.4682 -0.5739 -0.2843
12543SOL     OW38206   7.797   3.573   5.128  0.0741  0.2554  0.2415
12543SOL    HW138207   7.745   3.580   5.207 -0.2863  1.1288 -0.0563
12543SOL    HW238208   7.734   3.582   5.056  0.3125 -1.0956 -0.1672
12544SOL     OW38209   9.286   1.395   9.038 -0.1147  0.2853  0.6039
12544SOL    HW138210   9.337   1.421   9.115  0.5395  1.2325 -0.1215
12544SOL    HW238211   9.227   1.469   9.022  0.1904  0.3786 -0.1584
12545SOL     OW38212   0.090   0.788   7.626  0.6167 -0.2546 -0.1793
12545SOL    HW138213   0.091   0.714   7.688  2.9121 -0.4972 -0.4255
12545SOL    HW238214   0.115   0.863   7.679 -0.0951  0.0675 -0.2842
12546SOL     OW38215   8.651   1.491   7.101  0.2297  0.3022  0.1919
12546SOL    HW138216   8.594   1.564   7.077 -0.1483 -0.7051 -2.3257
12546SOL    HW238217   8.740   1.526   7.091  0.0605  0.8688  0.6381
12547SOL     OW38218   6.080   5.498   3.739 -0.9362  0.3286 -0.7149
12547SOL    HW138219   6.054   5.572   3.685 -0.2296  0.9507 -0.2144
12547SOL    HW238220   6.174   5.509   3.752 -0.6363 -1.1610 -1.3879
12548SOL     OW38221   2.956   8.405   9.312 -0.2606 -0.6623  0.4844
12548SOL    HW138222   2.885   8.465   9.333 -0.8575 -0.6632 -1.3688
12548SOL    HW238223   2.924   8.355   9.236  1.0300 -1.8795  0.6912
12549SOL     OW38224   2.817   6.491   1.123  0.1789 -0.1393 -0.3137
12549SOL    HW138225   2.737   6.458   1.165  0.1538  0.9531  0.5359
12549SOL    HW238226   2.887   6.440   1.162 -0.0342 -0.5467 -0.4608
12550SOL     OW38227   2.298   4.036   0.592 -0.1137  0.2236 -0.0742
12550SOL    HW138228   2.245   4.059   0.668 -0.8168  1.9312 -1.0270
12550SOL    HW238229   2.235   4.006   0.527 -0.1287  2.9474 -1.4744
12551SOL     OW38230   8.718   7.478   9.833  0.1314  0.1462  0.0453
12551SOL    HW138231   8.676   7.404   9.789 -1.2493  0.4931  0.7112
12551SOL    HW238232   8.705   7.551   9.773  3.6285 -0.5191 -1.7847
12552SOL     OW38233   6.065   0.822   9.453 -0.6210 -0.4781  0.3091
12552SOL    HW138234   6.116   0.881   9.509 -1.7268 -0.1104  0.9426
12552SOL    HW238235   6.065   0.865   9.367 -1.0270  0.2108  0.6519
12553SOL     OW38236   0.258   8.293   5.316 -0.4569  0.2831  0.1825
12553SOL    HW138237   0.312   8.261   5.389 -1.7424 -0.2052  0.9659
12553SOL    HW238238   0.314   8.355   5.269  0.9388 -0.5841  0.6559
12554SOL     OW38239   7.441   3.857   1.388  0.7853 -1.1645 -0.5335
12554SOL    HW138240   7.415   3.919   1.456  2.2073 -0.0350 -0.9672
12554SOL    HW238241   7.359   3.822   1.354  0.0188 -1.4439  1.4434
12555SOL     OW38242   7.288   9.062   1.432  0.0620  0.2733  0.6660
12555SOL    HW138243   7.347   9.032   1.363 -0.3070  0.6675  0.1619
12555SOL    HW238244   7.249   8.982   1.467 -2.1757  0.1327 -1.7881
12556SOL     OW38245   0.128   2.315   7.416  0.0861 -0.0757  0.6850
12556SOL    HW138246   0.144   2.362   7.497  1.7327  1.1913 -0.3129
12556SOL    HW238247   0.078   2.377   7.362  0.9552 -0.0231 -0.0820
12557SOL     OW38248   6.703   5.679   8.248  0.1810 -0.4944  0.1681
12557SOL    HW138249   6.689   5.719   8.162  2.2516 -1.5970 -0.7675
12557SOL    HW238250   6.666   5.741   8.310  0.9381  1.6132 -1.3699
12558SOL     OW38251   8.501   7.401   6.133  0.1352 -0.1915  0.7330
12558SOL    HW138252   8.450   7.465   6.084  1.4105  0.6951  0.5025
12558SOL    HW238253   8.511   7.327   6.074  0.7251  0.4158  0.0548
12559SOL     OW38254   5.487   2.039   4.906 -0.5002 -0.6325  0.3563
12559SOL    HW138255   5.417   2.009   4.849  1.4291 -2.2273 -1.2937
12559SOL    HW238256   5.526   2.114   4.860  1.7349 -2.5598 -1.1274
12560SOL     OW38257   6.328   2.661   7.353  0.2246  0.2078  0.2740
12560SOL    HW138258   6.307   2.753   7.338 -0.3151 -0.2320 -2.0125
12560SOL    HW238259   6.410   2.647   7.307 -0.6697 -0.8609 -1.0834
12561SOL     OW38260   2.913   9.529   0.257 -0.5636 -0.0819 -0.3425
12561SOL    HW138261   2.928   9.588   0.330  0.2463 -1.9441  1.0597
12561SOL    HW238262   2.819   9.537   0.239 -0.8370  0.1695  1.1038
12562SOL     OW38263   9.094   4.026   5.296  0.1661  0.4566 -0.1045
12562SOL    HW138264   9.170   4.006   5.350  0.0901  0.6336  0.0688
12562SOL    HW238265   9.050   4.098   5.341  0.0518  0.5467 -0.3526
12563SOL     OW38266   0.660   0.878   5.233  0.2885 -0.1105 -0.1525
12563SOL    HW138267   0.599   0.847   5.300 -1.4291  1.4053 -0.9295
12563SOL    HW238268   0.699   0.957   5.270 -0.4285  0.5537 -0.7660
12564SOL     OW38269   5.655   7.007   6.298 -0.6139 -0.2012  0.3975
12564SOL    HW138270   5.614   6.925   6.326 -1.0333 -0.2533 -0.3453
12564SOL    HW238271   5.677   6.992   6.206 -0.9767  0.6421  0.1682
12565SOL     OW38272   5.354   4.484   3.540 -0.2428  0.6790 -0.8115
12565SOL    HW138273   5.431   4.517   3.494 -1.5187  3.0242 -1.4783
12565SOL    HW238274   5.345   4.542   3.616  0.0878 -1.2308  0.7692
12566SOL     OW38275   8.075   9.929   9.417  0.3759  0.2353  0.1215
12566SOL    HW138276   7.982   9.928   9.441 -0.1414  2.0607 -1.6368
12566SOL    HW238277   8.120   9.924   9.501 -1.2720 -0.7858  1.0204
12567SOL     OW38278   2.853   8.130   1.032 -0.0215  0.3258  0.3414
12567SOL    HW138279   2.770   8.167   1.060 -0.2743  1.7252 -2.0167
12567SOL    HW238280   2.912   8.205   1.027  0.3201 -0.0091 -1.5574
12568SOL     OW38281   0.065   0.566   8.230 -0.2925 -0.2682  0.2086
12568SOL    HW138282   0.026   0.478   8.237  2.3621 -1.7607 -1.7535
12568SOL    HW238283   0.058   0.602   8.318 -1.4873 -2.4421  1.0947
12569SOL     OW38284   9.200   5.133   2.379 -0.4444 -0.3745 -0.0431
12569SOL    HW138285   9.199   5.081   2.298  0.1222 -0.4186 -0.0215
12569SOL    HW238286   9.187   5.068   2.449 -0.9217 -0.3379 -0.0918
12570SOL     OW38287   9.282   3.533   3.339  0.1145 -0.1734  0.1935
12570SOL    HW138288   9.249   3.493   3.420  0.6106 -1.5346 -0.2487
12570SOL    HW238289   9.377   3.536   3.351  0.0883  0.9716  0.2373
12571SOL     OW38290   7.881   5.261   1.937 -0.2231  0.0476  0.1330
12571SOL    HW138291   7.849   5.179   1.899  1.0347 -1.4716  2.1320
12571SOL    HW238292   7.807   5.295   1.987 -0.9183  0.4428 -1.1227
12572SOL     OW38293   8.254   2.832   8.942  0.3018 -0.0207  0.0708
12572SOL    HW138294   8.176   2.858   8.892  0.2236  1.1103  0.7332
12572SOL    HW238295   8.317   2.806   8.876 -0.6070 -0.8903 -0.4866
12573SOL     OW38296  -0.028   1.002   3.045 -0.4182 -0.0932  0.2924
12573SOL    HW138297   0.009   1.060   2.978 -0.1024  0.3676  0.8498
12573SOL    HW238298   0.042   0.940   3.064  0.6176  1.5226  2.2305
12574SOL     OW38299   6.155   3.554   8.921  0.0409 -0.3204 -0.0818
12574SOL    HW138300   6.077   3.500   8.926 -1.8359  2.2392  0.4221
12574SOL    HW238301   6.187   3.542   8.831 -0.7785 -1.6176 -0.2154
12575SOL     OW38302   5.400   2.370   3.420  0.3336 -0.0269  0.2746
12575SOL    HW138303   5.430   2.290   3.464  0.7815  0.0074  0.0421
12575SOL    HW238304   5.476   2.428   3.424  0.6474 -0.3003 -1.2225
12576SOL     OW38305   9.478   4.876   2.598  0.1102  0.3395 -0.0924
12576SOL    HW138306   9.519   4.868   2.684 -0.5535 -1.8425  0.0794
12576SOL    HW238307   9.425   4.956   2.603  0.2464  0.3467  1.4408
12577SOL     OW38308   9.687   1.605   8.343 -0.0814  0.5573  0.0623
12577SOL    HW138309   9.636   1.566   8.272  0.0848  0.9826 -0.2936
12577SOL    HW238310   9.623   1.656   8.392 -1.3346 -3.4190  3.1315
12578SOL     OW38311   1.918   1.025   7.441 -0.5631  0.4664  0.1962
12578SOL    HW138312   1.893   1.038   7.533  0.1664  0.4505  0.4050
12578SOL    HW238313   1.903   1.111   7.400 -0.4741  0.5983  0.4345
12579SOL     OW38314   3.049   7.887   4.199 -0.3141 -0.4703 -0.0102
12579SOL    HW138315   3.036   7.848   4.285  0.6611  1.5759  1.1387
12579SOL    HW238316   3.117   7.953   4.212 -0.1520 -0.0766 -2.3603
12580SOL     OW38317   9.940   8.841   0.532 -0.6493  0.1824  0.0365
12580SOL    HW138318  10.033   8.818   0.527 -0.3896  1.1221  0.3971
12580SOL    HW238319   9.896   8.757   0.550  0.3620  0.0304  2.2032
12581SOL     OW38320   3.683   6.985   6.111 -0.4996  0.1395 -0.9451
12581SOL    HW138321   3.662   6.940   6.029 -0.2643 -1.5242 -0.1491
12581SOL    HW238322   3.645   6.929   6.179 -0.5336  1.3856  0.0999
12582SOL     OW38323   8.748   9.154   7.871  0.4093 -0.4441  0.5784
12582SOL    HW138324   8.689   9.080   7.857  2.4039 -1.7764 -1.5709
12582SOL    HW238325   8.729   9.213   7.798  0.4707  0.0456  0.9530
12583SOL     OW38326   5.444   1.170   4.646  0.9372 -0.1791 -0.4405
12583SOL    HW138327   5.471   1.136   4.561  1.0106 -0.1585 -0.4262
12583SOL    HW238328   5.359   1.130   4.662  0.8196 -0.0042 -0.6268
12584SOL     OW38329   8.528   4.710   0.482  0.1762 -0.2480  0.2659
12584SOL    HW138330   8.526   4.705   0.387  0.1847  0.5516  0.2223
12584SOL    HW238331   8.619   4.693   0.505  0.5858  1.3996  0.0085
12585SOL     OW38332   6.397   0.635   3.999 -0.1420  0.1376 -0.0387
12585SOL    HW138333   6.426   0.724   3.976 -1.4852  0.4020 -0.8296
12585SOL    HW238334   6.472   0.580   3.980  0.2414  0.9353 -0.9400
12586SOL     OW38335   2.841   0.130   0.416  0.0850 -0.3695  0.6941
12586SOL    HW138336   2.793   0.207   0.447 -1.2909 -1.1874  0.6503
12586SOL    HW238337   2.810   0.115   0.327  0.2449 -1.0508  0.7430
12587SOL     OW38338   8.065   4.839   5.646  0.6142  0.8278  0.4669
12587SOL    HW138339   8.058   4.748   5.674 -0.2378  0.8761  0.4486
12587SOL    HW238340   7.976   4.862   5.616  0.6635  1.8406  1.0515
12588SOL     OW38341   0.724   3.444   4.593 -0.2071 -0.1322  0.4095
12588SOL    HW138342   0.792   3.493   4.547  0.3318  0.2318  1.5420
12588SOL    HW238343   0.679   3.510   4.646 -0.2667 -0.6639  1.0357
12589SOL     OW38344   3.596   3.782   6.209  0.4737  0.3090 -0.0180
12589SOL    HW138345   3.512   3.742   6.189  0.3437 -0.1963  1.4348
12589SOL    HW238346   3.575   3.868   6.245  0.6564  0.7976 -1.0523
12590SOL     OW38347   3.289   7.821   6.329  0.9340 -0.0694  0.5632
12590SOL    HW138348   3.326   7.853   6.412  0.3578 -1.1312  1.2593
12590SOL    HW238349   3.194   7.824   6.343  0.8550 -1.2694  0.3569
12591SOL     OW38350   7.549   2.525   9.738  0.4793 -0.4198 -0.3582
12591SOL    HW138351   7.550   2.619   9.724 -0.6806 -0.1110  1.3023
12591SOL    HW238352   7.593   2.512   9.822 -0.7827 -1.1465  0.2401
12592SOL     OW38353   2.839   6.188   5.328 -0.1475  0.4826  0.0757
12592SOL    HW138354   2.756   6.161   5.368  0.0779 -0.8672 -0.3213
12592SOL    HW238355   2.903   6.124   5.359  0.7407  1.4714  0.3237
12593SOL     OW38356   1.261   2.979   6.429  0.2824  0.0652  0.0212
12593SOL    HW138357   1.177   2.940   6.451 -0.1406  0.2078 -1.2708
12593SOL    HW238358   1.312   2.907   6.392  0.6777  0.0223  0.6256
12594SOL     OW38359   5.626   1.457   6.295  0.0006  0.4908 -0.3125
12594SOL    HW138360   5.685   1.446   6.221 -1.7628 -1.5594 -1.5452
12594SOL    HW238361   5.539   1.444   6.258 -1.0546  0.8661  1.8835
12595SOL     OW38362   4.291   9.554   9.381  0.3793  0.4603  0.0890
12595SOL    HW138363   4.298   9.608   9.303  1.3420  1.4540  0.8309
12595SOL    HW238364   4.253   9.472   9.350 -3.4061  2.2793 -0.7548
12596SOL     OW38365   2.629   6.528   2.859 -0.3266  0.5819  0.0776
12596SOL    HW138366   2.611   6.609   2.811 -0.6703  0.3047 -0.2654
12596SOL    HW238367   2.545   6.483   2.864 -0.0629  0.0584 -0.0726
12597SOL     OW38368   5.874   6.279   7.340  0.3555 -0.1668  0.2560
12597SOL    HW138369   5.875   6.237   7.254 -0.7892 -1.1058  0.6804
12597SOL    HW238370   5.785   6.266   7.372  0.2912  1.6303  0.8961
12598SOL     OW38371   5.354   6.656   8.628 -0.4790 -0.0360  0.2903
12598SOL    HW138372   5.413   6.619   8.694 -0.6916  0.3749  0.7198
12598SOL    HW238373   5.319   6.735   8.669 -0.1762  0.5462 -0.5314
12599SOL     OW38374   7.999   8.716   7.210 -0.6239 -0.2588 -0.2960
12599SOL    HW138375   7.916   8.672   7.227  0.5683 -2.4532  0.2744
12599SOL    HW238376   8.057   8.646   7.181  0.5947  1.4830 -2.3910
12600SOL     OW38377   9.900   2.174   6.497 -0.4017 -0.3229  0.1124
12600SOL    HW138378   9.959   2.162   6.422 -0.4758  0.4717 -0.0834
12600SOL    HW238379   9.882   2.085   6.528  1.0258 -0.5704  0.2763
12601SOL     OW38380   2.327   1.643   3.350  0.4473 -0.3502 -0.1258
12601SOL    HW138381   2.351   1.584   3.422 -2.4185 -1.8691 -0.2639
12601SOL    HW238382   2.266   1.705   3.389 -1.1872 -1.2233 -1.1670
12602SOL     OW38383   9.445   8.621   6.949 -0.9211 -0.1107  0.2979
12602SOL    HW138384   9.390   8.657   6.880  0.0423  0.1892 -0.3203
12602SOL    HW238385   9.463   8.695   7.007  0.6561  0.3224 -0.7093
12603SOL     OW38386   2.068   0.725   7.639  0.4691  0.0309 -0.1310
12603SOL    HW138387   2.106   0.637   7.646 -1.1487 -0.6538  0.7518
12603SOL    HW238388   2.069   0.744   7.545  1.7723 -0.4783 -0.2429
12604SOL     OW38389   5.896   4.730   7.935  0.0819  0.7183 -0.4799
12604SOL    HW138390   5.842   4.724   7.856 -3.0482  0.1822  1.4885
12604SOL    HW238391   5.927   4.641   7.949 -2.5608 -0.1182  0.7872
12605SOL     OW38392   0.220   4.159   0.046 -0.2330  0.0101 -0.2764
12605SOL    HW138393   0.223   4.178   0.140  2.2287  1.0368 -0.5012
12605SOL    HW238394   0.143   4.207   0.015 -2.1661 -1.7680  1.4173
12606SOL     OW38395   1.902   7.093   6.324 -0.0680  0.0074  0.1540
12606SOL    HW138396   1.938   7.079   6.411 -0.4931  2.3344  0.7656
12606SOL    HW238397   1.809   7.075   6.332 -0.3271  1.4364  0.5245
12607SOL     OW38398   3.097   1.301   9.074 -0.0654 -1.0012 -0.5152
12607SOL    HW138399   3.069   1.330   9.161 -1.9535 -0.1299 -1.3732
12607SOL    HW238400   3.145   1.220   9.091  2.5279  0.7623  1.6467
12608SOL     OW38401   9.364   0.093   5.037 -0.5650 -0.3176  1.0758
12608SOL    HW138402   9.297   0.112   5.102 -0.5804  1.2925  0.6364
12608SOL    HW238403   9.447   0.099   5.085 -0.6229 -0.1706  1.1544
12609SOL     OW38404   7.547   4.247   3.542  0.3216  0.3861  0.7932
12609SOL    HW138405   7.485   4.178   3.565  1.3842 -1.1145 -0.6137
12609SOL    HW238406   7.492   4.321   3.514 -0.8278 -0.0658  1.7823
12610SOL     OW38407   1.198   4.560   2.032 -0.4368 -0.3027  0.8138
12610SOL    HW138408   1.255   4.529   1.961  1.2934 -1.6344  2.6691
12610SOL    HW238409   1.110   4.558   1.994  0.4881 -0.2090 -1.5127
12611SOL     OW38410   2.078   6.566   1.731  0.1232 -0.3274  0.5637
12611SOL    HW138411   2.067   6.472   1.715  0.4151 -0.5755  1.7046
12611SOL    HW238412   1.989   6.599   1.742  0.0013 -0.4013 -0.1110
12612SOL     OW38413   4.319   8.148   8.916  0.3305  0.2970  0.1753
12612SOL    HW138414   4.235   8.137   8.961 -0.3818 -0.1585 -1.1985
12612SOL    HW238415   4.366   8.212   8.968 -0.3061 -0.4569  1.7559
12613SOL     OW38416   1.000   9.494   7.861 -0.8031  0.6848 -0.1934
12613SOL    HW138417   0.995   9.403   7.890 -0.3283  0.8385  0.3732
12613SOL    HW238418   0.950   9.495   7.779  1.2384 -0.6350 -1.5701
12614SOL     OW38419   0.874   4.285   4.880 -0.2398 -0.3453  0.1070
12614SOL    HW138420   0.804   4.347   4.901 -0.2789 -0.4107  0.1697
12614SOL    HW238421   0.834   4.223   4.818 -0.2858 -0.4816  0.2729
12615SOL     OW38422   3.857   2.881   9.551  0.1186  0.4749 -0.2627
12615SOL    HW138423   3.862   2.831   9.469  0.1168  1.4548 -0.8719
12615SOL    HW238424   3.794   2.950   9.534  0.9368  1.3586  0.2027
12616SOL     OW38425   7.912   6.258   7.849  0.3181 -0.0252  0.1892
12616SOL    HW138426   7.845   6.204   7.806  0.3843  0.9097 -1.1492
12616SOL    HW238427   7.909   6.231   7.940 -1.9330 -0.0004  0.1938
12617SOL     OW38428   1.866   0.105   0.071  0.5531 -0.4569  0.0547
12617SOL    HW138429   1.785   0.130   0.116  1.0237  0.3734  0.4539
12617SOL    HW238430   1.849   0.015   0.041  0.0456 -0.8760  1.4828
12618SOL     OW38431   2.701   7.051   2.631 -0.2813 -0.5138  0.0245
12618SOL    HW138432   2.783   7.031   2.586  0.1955 -1.8622  1.4090
12618SOL    HW238433   2.721   7.126   2.687 -0.2777 -0.2118 -0.3792
12619SOL     OW38434   7.137   8.293   2.270  0.0223 -0.0116 -0.4116
12619SOL    HW138435   7.186   8.274   2.191 -0.9594  0.2894 -1.1099
12619SOL    HW238436   7.090   8.374   2.251 -1.0855 -0.5180  0.0675
12620SOL     OW38437   9.292   8.877   4.514 -0.1148  0.1163 -0.2631
12620SOL    HW138438   9.240   8.810   4.469  0.6376 -0.5196 -0.2038
12620SOL    HW238439   9.288   8.852   4.607  1.6832 -0.9515 -0.4240
12621SOL     OW38440   9.375   1.176   3.273  0.1232 -0.6609  0.1697
12621SOL    HW138441   9.366   1.172   3.177 -0.9731  2.6625  0.0046
12621SOL    HW238442   9.464   1.209   3.287  0.3842 -1.4133  0.3512
12622SOL     OW38443   5.290   1.731   4.932  0.2761  0.1594 -0.5775
12622SOL    HW138444   5.276   1.706   5.023 -1.2037  2.8766  0.0683
12622SOL    HW238445   5.385   1.729   4.921  0.4123 -1.6678  0.5050
12623SOL     OW38446   3.747   4.192   7.816 -0.2819  0.2475 -0.9092
12623SOL    HW138447   3.696   4.187   7.897 -2.8317 -0.5056 -2.4547
12623SOL    HW238448   3.770   4.102   7.797 -0.2435  0.3478 -1.3378
12624SOL     OW38449   6.994   1.917   5.016 -0.0836 -0.3417 -0.2746
12624SOL    HW138450   7.078   1.874   5.003  0.0140 -0.4853  0.7367
12624SOL    HW238451   6.999   1.952   5.105 -0.5526  0.8861 -0.7132
12625SOL     OW38452   9.664   7.004   4.259 -0.3025  0.2602  0.2760
12625SOL    HW138453   9.641   6.974   4.346 -1.7584  0.4368 -0.0155
12625SOL    HW238454   9.751   6.968   4.242  0.0648  0.3545  1.8435
12626SOL     OW38455   5.302   3.385   0.187 -0.3233  0.6444  0.0185
12626SOL    HW138456   5.380   3.332   0.167 -1.3198 -0.8953  0.0537
12626SOL    HW238457   5.280   3.428   0.105 -1.5365 -1.8146 -1.0571
12627SOL     OW38458   0.411   3.380   5.484  0.2241 -0.3402  0.3359
12627SOL    HW138459   0.374   3.445   5.425  1.1248 -0.5237 -0.4436
12627SOL    HW238460   0.359   3.301   5.470  0.2349 -0.2895  0.0046
12628SOL     OW38461   3.259   2.337   1.841  0.6996  0.6149  0.2195
12628SOL    HW138462   3.239   2.374   1.755  0.9590  1.6472  0.5774
12628SOL    HW238463   3.321   2.400   1.880  1.1997 -0.2376  0.8500
12629SOL     OW38464   4.238   5.571   7.425  0.0447 -0.0748 -0.3433
12629SOL    HW138465   4.185   5.493   7.410  0.7694 -0.5878 -0.3096
12629SOL    HW238466   4.228   5.623   7.345  0.6790 -0.8768 -0.9511
12630SOL     OW38467   5.453   0.979   5.217 -0.3170 -0.1058  0.0889
12630SOL    HW138468   5.478   1.002   5.127  0.3804 -0.5971  0.1504
12630SOL    HW238469   5.487   0.890   5.229  0.4247  0.3073  1.1663
12631SOL     OW38470   6.220   2.619   4.876  0.2092 -0.1479  0.2250
12631SOL    HW138471   6.247   2.537   4.835  1.5238  0.2541  0.2471
12631SOL    HW238472   6.235   2.686   4.808  0.5867  0.2710  0.7184
12632SOL     OW38473   2.757   4.102   9.377 -0.4626 -0.3431 -0.3447
12632SOL    HW138474   2.765   4.117   9.283  1.5123  2.9504  0.1821
12632SOL    HW238475   2.841   4.062   9.402  0.9446  2.8377  0.4946
12633SOL     OW38476   2.371   1.265   5.682  0.2858  0.6402  0.3078
12633SOL    HW138477   2.418   1.242   5.601 -0.9737 -0.4395 -0.1587
12633SOL    HW238478   2.439   1.295   5.742  1.2650  1.3127 -1.1032
12634SOL     OW38479   6.725   8.095   5.470  0.2244  0.1266  0.8413
12634SOL    HW138480   6.667   8.042   5.415  3.2426 -1.9066 -0.7392
12634SOL    HW238481   6.684   8.096   5.556 -2.8454  0.2076 -0.5197
12635SOL     OW38482   2.588   4.378   6.888  0.2839 -0.5103  0.3374
12635SOL    HW138483   2.553   4.463   6.863  0.8395 -0.3929 -0.0430
12635SOL    HW238484   2.560   4.318   6.819  1.6351 -0.2272 -0.4907
12636SOL     OW38485   5.585   8.047   4.872 -0.2278  0.3838 -0.0760
12636SOL    HW138486   5.559   8.138   4.857 -0.0173  0.3947 -0.3852
12636SOL    HW238487   5.612   8.015   4.786  0.0487  0.1374  0.0993
12637SOL     OW38488   0.826   2.090   5.422 -0.7559  0.0299 -0.3900
12637SOL    HW138489   0.839   2.150   5.495  0.4311 -0.5935 -0.0651
12637SOL    HW238490   0.849   2.142   5.345  0.8548 -0.1450 -0.0629
12638SOL     OW38491   0.048   0.354   5.267  0.4870  0.4382 -0.2838
12638SOL    HW138492   0.050   0.449   5.254 -0.9264  0.3540 -1.3785
12638SOL    HW238493   0.131   0.323   5.230  0.0399  1.0563 -1.9144
12639SOL     OW38494   7.136   2.393   8.702  0.2353  0.8974  0.0614
12639SOL    HW138495   7.191   2.317   8.684  0.6906  0.8928  1.3996
12639SOL    HW238496   7.047   2.365   8.678  0.3793 -0.0974  0.6351
12640SOL     OW38497   6.179   9.302   6.583 -0.9590 -0.6625  0.4067
12640SOL    HW138498   6.272   9.316   6.566 -0.8744 -0.9794  0.5898
12640SOL    HW238499   6.157   9.367   6.649 -1.1898  0.2908 -0.5852
12641SOL     OW38500   4.687   0.457   7.592  0.2579  0.0886  0.1713
12641SOL    HW138501   4.740   0.483   7.667  0.2893 -1.2836  0.6509
12641SOL    HW238502   4.696   0.530   7.530  1.9560  0.3035  0.6175
12642SOL     OW38503   7.194   2.450   4.664 -0.0649  0.3605  0.1215
12642SOL    HW138504   7.257   2.415   4.601  0.7549 -1.6154  1.9227
12642SOL    HW238505   7.110   2.411   4.638  0.1430  0.0754 -0.1291
12643SOL     OW38506   6.808   5.303   9.299  0.3653  0.2102  0.0060
12643SOL    HW138507   6.723   5.285   9.260 -0.5446  0.1230  1.9452
12643SOL    HW238508   6.812   5.247   9.376  2.4379 -0.1991 -0.3306
12644SOL     OW38509   9.756   9.696   5.000  0.0800  1.2919  0.2531
12644SOL    HW138510   9.721   9.765   4.944  0.2761  2.4733  1.5518
12644SOL    HW238511   9.747   9.729   5.089 -1.3159 -1.0238  1.0705
12645SOL     OW38512   0.126   6.507   0.643  0.4609 -0.4757  0.2391
12645SOL    HW138513   0.052   6.453   0.671  0.8916 -1.5125 -0.5525
12645SOL    HW238514   0.203   6.455   0.664  0.9763  0.5197  0.8924
12646SOL     OW38515   1.912   7.026   6.861  0.4107 -0.2198 -0.7493
12646SOL    HW138516   1.879   7.045   6.948  1.1910  2.6150 -0.9702
12646SOL    HW238517   1.837   7.037   6.803  0.3693  0.0870 -0.6376
12647SOL     OW38518   3.234   4.977   9.734  0.0488 -0.6493 -0.0690
12647SOL    HW138519   3.191   4.908   9.784  0.9753  0.3363  2.1749
12647SOL    HW238520   3.176   5.053   9.742  0.9666 -0.0204  0.9379
12648SOL     OW38521   7.749   3.345   6.215  0.2139  0.1913  0.0768
12648SOL    HW138522   7.834   3.378   6.184  1.6149 -1.5903  1.7771
12648SOL    HW238523   7.711   3.418   6.263  2.2727  0.1013  1.9849
12649SOL     OW38524   0.155   9.358   1.356  0.1775 -0.1341 -0.0370
12649SOL    HW138525   0.123   9.286   1.301 -1.1037  0.2860  0.1170
12649SOL    HW238526   0.127   9.335   1.444 -2.1579  1.5058 -0.2538
12650SOL     OW38527   5.430   4.628   3.237 -0.0467  0.0140 -0.0696
12650SOL    HW138528   5.475   4.708   3.209  0.0488 -0.1420 -0.3643
12650SOL    HW238529   5.448   4.622   3.331 -1.2020  1.0823  0.2624
12651SOL     OW38530   4.338   8.977   7.080 -0.4430 -0.1022  0.5492
12651SOL    HW138531   4.338   8.911   7.149  1.0158  0.2938  0.9535
12651SOL    HW238532   4.359   8.928   7.001 -1.8102 -0.5057  0.4067
12652SOL     OW38533   1.181   5.239   6.043  0.4305  0.0386  0.1197
12652SOL    HW138534   1.136   5.156   6.059  0.1045  0.1195 -0.3768
12652SOL    HW238535   1.272   5.222   6.069 -0.0987  0.2198  2.2255
12653SOL     OW38536   3.871   9.093   6.971  0.3171  0.0959  0.3418
12653SOL    HW138537   3.946   9.052   7.014  0.8734  0.8230  0.0732
12653SOL    HW238538   3.895   9.097   6.878 -0.3215 -0.2409  0.1523
12654SOL     OW38539   2.122   0.254   0.102  0.3671 -0.1062 -0.0012
12654SOL    HW138540   2.039   0.209   0.082 -0.1911  1.2475 -0.8999
12654SOL    HW238541   2.124   0.259   0.197  0.9610 -2.9000  0.2286
12655SOL     OW38542   9.818   2.385   5.944 -0.5070  0.1488  0.1322
12655SOL    HW138543   9.756   2.372   5.873 -0.4525 -1.1485  0.3092
12655SOL    HW238544   9.778   2.341   6.019  0.2550 -0.0077  0.4530
12656SOL     OW38545   6.744   7.757   0.788 -0.1283  0.2420 -0.4696
12656SOL    HW138546   6.762   7.692   0.720  0.7174  0.7088 -0.7138
12656SOL    HW238547   6.818   7.818   0.782  0.2747 -0.0295  1.2525
12657SOL     OW38548   3.879   1.014   5.976  0.2696  0.3692  0.4539
12657SOL    HW138549   3.954   1.030   5.919 -0.2576  1.8959  0.1520
12657SOL    HW238550   3.812   0.979   5.918  0.6659 -0.8145  0.6889
12658SOL     OW38551   0.975   6.528   1.577 -0.2787  0.6924 -0.0931
12658SOL    HW138552   1.047   6.484   1.623  0.3514  0.6897 -1.0580
12658SOL    HW238553   0.917   6.457   1.550  1.0730  0.3045 -2.2367
12659SOL     OW38554   9.468   7.594   1.736  1.0267  0.0384 -0.4794
12659SOL    HW138555   9.435   7.637   1.658 -0.2508 -0.8465 -0.4550
12659SOL    HW238556   9.496   7.507   1.706  1.8846  0.2107 -0.2102
12660SOL     OW38557   0.637   5.508   2.598  0.7081 -0.3071 -0.0121
12660SOL    HW138558   0.622   5.507   2.504 -0.0723  1.2789  0.0608
12660SOL    HW238559   0.574   5.446   2.634 -0.2351  0.3939 -0.4119
12661SOL     OW38560   8.435   3.403   7.324 -0.4463 -0.1008  0.3036
12661SOL    HW138561   8.361   3.353   7.290 -0.8025  0.3691  0.3729
12661SOL    HW238562   8.475   3.443   7.247 -0.7324  0.2672  0.3450
12662SOL     OW38563   4.204   3.111   3.473 -0.1465 -0.2731 -0.1208
12662SOL    HW138564   4.115   3.081   3.493 -0.2427 -0.2003 -0.4300
12662SOL    HW238565   4.191   3.196   3.430  0.1470  0.5135  1.2850
12663SOL     OW38566   1.165   0.624   3.216 -0.0503  0.4105 -0.0808
12663SOL    HW138567   1.168   0.695   3.153  0.0892  1.2795  0.8845
12663SOL    HW238568   1.083   0.637   3.264 -0.5550 -0.7084 -0.5908
12664SOL     OW38569   3.830   5.024   5.869 -0.3355  0.1474 -0.4469
12664SOL    HW138570   3.849   5.037   5.962 -0.9884  0.1593 -0.3096
12664SOL    HW238571   3.874   5.096   5.825 -0.2853  0.3208 -0.1164
12665SOL     OW38572   5.901   9.403   3.750 -0.0927  0.4066 -0.0309
12665SOL    HW138573   5.950   9.433   3.827 -1.0770  1.0755  0.3463
12665SOL    HW238574   5.955   9.430   3.676  0.2994  0.7877  0.3861
12666SOL     OW38575   4.122   0.152   1.970  0.5321  0.1278  0.8546
12666SOL    HW138576   4.057   0.082   1.970  0.6894 -0.0598 -0.5097
12666SOL    HW238577   4.203   0.110   1.998  0.1818  0.2613  2.1160
12667SOL     OW38578   1.823   8.562   7.295  0.4587  0.2115 -0.0847
12667SOL    HW138579   1.913   8.594   7.308  0.4303 -0.5187  2.3410
12667SOL    HW238580   1.820   8.480   7.343 -1.5231  0.2263 -0.1227
12668SOL     OW38581   1.312   6.277   5.171  0.3011 -0.4214  0.5719
12668SOL    HW138582   1.244   6.337   5.203 -0.4300 -0.9405  0.0370
12668SOL    HW238583   1.320   6.212   5.240 -2.6602 -2.6476 -0.9631
12669SOL     OW38584   1.601   0.457   2.586  0.5696 -0.5985  0.2285
12669SOL    HW138585   1.537   0.404   2.538  3.5352 -1.7665 -2.8583
12669SOL    HW238586   1.566   0.546   2.581 -1.4657 -1.3711 -0.1133
12670SOL     OW38587   2.160   8.109   0.629  0.3835 -0.2402  0.2957
12670SOL    HW138588   2.252   8.131   0.646  0.7402 -1.5327  0.1140
12670SOL    HW238589   2.162   8.018   0.600 -1.2020 -1.2470  2.9318
12671SOL     OW38590   2.501   1.668   3.967 -0.0423  0.0851 -0.2014
12671SOL    HW138591   2.460   1.585   3.991 -0.7008  0.2084 -0.8417
12671SOL    HW238592   2.468   1.730   4.031 -1.4177  0.3160 -1.0641
12672SOL     OW38593   6.282   0.485   3.206 -1.1209 -0.3402  0.3591
12672SOL    HW138594   6.325   0.457   3.125  0.7288  1.2306  0.7239
12672SOL    HW238595   6.207   0.538   3.176 -0.9344 -0.4397 -0.3147
12673SOL     OW38596   2.730   7.329   3.030  0.0145 -0.3613  0.0062
12673SOL    HW138597   2.654   7.272   3.045  1.1042 -1.4088  1.8702
12673SOL    HW238598   2.805   7.271   3.034  0.9290  0.3651 -3.5574
12674SOL     OW38599   2.533   5.081   3.362 -0.1532 -0.0460  0.0963
12674SOL    HW138600   2.616   5.047   3.394  0.2290  2.6575  2.3592
12674SOL    HW238601   2.556   5.128   3.282  0.4732  0.3674  0.5051
12675SOL     OW38602   1.113   7.350   9.319  0.2818  0.1886  0.1554
12675SOL    HW138603   1.170   7.317   9.249 -1.5198 -0.7293 -0.9653
12675SOL    HW238604   1.172   7.395   9.379  2.0843 -0.1672 -1.2581
12676SOL     OW38605   7.145   2.976   4.796 -0.1410 -0.5360 -0.0356
12676SOL    HW138606   7.086   3.014   4.731  0.1991  1.2622  0.6393
12676SOL    HW238607   7.217   2.938   4.744 -1.1500 -1.4872 -0.7899
12677SOL     OW38608   7.914   2.051   2.928 -0.5794  0.1551  0.3170
12677SOL    HW138609   7.878   2.037   2.841  0.4583  2.1531 -0.4963
12677SOL    HW238610   7.838   2.070   2.983 -1.1498 -0.0599 -0.3826
12678SOL     OW38611   8.357   6.845   6.983 -0.2290 -0.3813 -0.2585
12678SOL    HW138612   8.431   6.842   7.044  1.3617 -2.0249 -2.1352
12678SOL    HW238613   8.309   6.764   7.000 -2.1256  0.9955  1.4299
12679SOL     OW38614   1.524   5.708   9.123 -0.7438  0.2071  0.5102
12679SOL    HW138615   1.464   5.643   9.160 -0.1092 -0.1399  0.9548
12679SOL    HW238616   1.567   5.747   9.199  1.9348 -1.8142  0.1825
12680SOL     OW38617   7.351   3.152   0.028  0.0930 -0.2943  0.0244
12680SOL    HW138618   7.341   3.147  -0.067 -1.6690 -0.6173  0.1903
12680SOL    HW238619   7.330   3.243   0.049  0.6526 -0.1802  0.0841
12681SOL     OW38620   6.728   7.795   3.110 -0.3639  0.6516  0.0680
12681SOL    HW138621   6.668   7.794   3.036 -0.6662  3.8463  0.1229
12681SOL    HW238622   6.807   7.752   3.078 -1.9530 -1.9536 -0.6148
12682SOL     OW38623   3.987   5.290   6.975  0.5099  0.0054  0.1577
12682SOL    HW138624   4.004   5.267   7.066  1.4578 -0.9235 -0.2251
12682SOL    HW238625   4.058   5.248   6.926 -1.0864 -1.2655 -1.2215
12683SOL     OW38626   7.350   7.674   4.563 -0.5525 -0.3484  0.1825
12683SOL    HW138627   7.398   7.591   4.555 -0.1160 -0.0225 -0.7530
12683SOL    HW238628   7.260   7.648   4.581 -0.6369 -1.0868 -1.1480
12684SOL     OW38629   3.400   0.176   9.005 -0.1231  0.1536 -0.2767
12684SOL    HW138630   3.412   0.098   8.952  1.4011  0.7825 -0.9214
12684SOL    HW238631   3.312   0.168   9.040 -0.2914 -1.4448 -0.9839
12685SOL     OW38632   3.756   8.524   8.466  0.4674  0.4411 -0.1516
12685SOL    HW138633   3.815   8.451   8.483 -1.0060 -0.9184 -0.6474
12685SOL    HW238634   3.688   8.516   8.532 -0.7675  0.1462 -1.4094
12686SOL     OW38635   6.014   1.265   3.441  0.3653 -0.6053 -0.2213
12686SOL    HW138636   6.066   1.346   3.439 -0.8048  0.1606 -0.2650
12686SOL    HW238637   6.079   1.196   3.456  1.4498  0.2764 -0.6895
12687SOL     OW38638   3.928   1.360   6.086 -0.0018 -0.3649 -0.1199
12687SOL    HW138639   4.013   1.317   6.086 -0.2329 -0.8241 -0.4471
12687SOL    HW238640   3.864   1.289   6.078 -0.4970 -0.1514  1.6232
12688SOL     OW38641   7.059   0.513   0.696  0.2547  0.5539  0.4308
12688SOL    HW138642   7.066   0.419   0.716 -0.6371  0.6832  1.4571
12688SOL    HW238643   7.033   0.553   0.779 -0.0348  1.6292 -0.1597
12689SOL     OW38644   1.116   7.850   6.346 -0.1627 -0.2793 -0.8724
12689SOL    HW138645   1.115   7.762   6.385  0.3645 -0.3382 -0.9832
12689SOL    HW238646   1.188   7.847   6.284  0.7171  0.6462  0.0773
12690SOL     OW38647   2.423   5.038   2.055  0.2830  0.2394 -0.1425
12690SOL    HW138648   2.503   4.986   2.068 -0.1057 -0.3663 -0.1044
12690SOL    HW238649   2.444   5.098   1.984 -0.1526 -1.9404 -2.2680
12691SOL     OW38650   6.576   3.353   5.049 -0.6847 -0.0609 -0.1700
12691SOL    HW138651   6.511   3.283   5.056  0.1907 -1.0111 -1.1486
12691SOL    HW238652   6.613   3.343   4.961 -0.0908  1.2475 -0.0998
12692SOL     OW38653   5.225   9.870   8.251  0.3757  0.7783  0.5631
12692SOL    HW138654   5.263   9.847   8.336 -0.8731 -1.4417  0.6113
12692SOL    HW238655   5.166   9.943   8.270  1.7114  1.7461  1.1617
12693SOL     OW38656   2.714   2.828   1.453 -0.1261 -0.1923 -0.1103
12693SOL    HW138657   2.744   2.739   1.469  1.2098  0.3388  0.4864
12693SOL    HW238658   2.782   2.867   1.398 -0.4447  0.6126  0.0523
12694SOL     OW38659   3.099   1.835   5.886  0.2290  0.0122 -0.1007
12694SOL    HW138660   3.147   1.793   5.814  0.7316  0.5642 -0.0971
12694SOL    HW238661   3.140   1.800   5.965  0.1836 -0.0186 -0.0910
12695SOL     OW38662   9.659   0.784   8.221  0.4401  0.2370  0.6373
12695SOL    HW138663   9.707   0.789   8.139  2.4281 -2.1807  1.5196
12695SOL    HW238664   9.592   0.717   8.206  0.0612  0.6070  0.6623
12696SOL     OW38665   4.961   8.235   5.616  0.1726  0.2075 -0.1869
12696SOL    HW138666   5.020   8.250   5.690 -0.7878 -0.4868  0.7407
12696SOL    HW238667   4.998   8.159   5.572  0.2601  0.0905  0.0851
12697SOL     OW38668   7.591   0.596   4.589  0.3327 -0.1882  0.2016
12697SOL    HW138669   7.628   0.676   4.551 -1.6123  0.4902 -0.3645
12697SOL    HW238670   7.516   0.625   4.640 -0.3271 -1.6408  0.1148
12698SOL     OW38671   2.791   5.357   7.962 -0.0396 -0.3526 -0.5166
12698SOL    HW138672   2.820   5.382   7.874  1.0388 -0.2284 -0.1454
12698SOL    HW238673   2.872   5.353   8.013 -0.5709 -1.1910  0.2823
12699SOL     OW38674   0.569   6.178   6.596  0.2005  0.4707  0.4847
12699SOL    HW138675   0.597   6.131   6.674 -1.5684  0.9022  1.4507
12699SOL    HW238676   0.473   6.174   6.599  0.0625  1.7380 -0.8915
12700SOL     OW38677   1.703   4.634   6.141  0.3893 -0.2321 -0.1059
12700SOL    HW138678   1.656   4.715   6.158  0.4171 -0.1381 -0.4787
12700SOL    HW238679   1.738   4.608   6.227  1.2468  0.6858 -0.1542
12701SOL     OW38680   4.615   4.606   2.598 -0.0928  0.0070  0.2785
12701SOL    HW138681   4.598   4.625   2.506 -2.8510 -1.0148  0.4620
12701SOL    HW238682   4.670   4.678   2.628 -0.6922  1.3988 -1.7232
12702SOL     OW38683   0.709   4.317   9.034 -0.2723  0.1719  0.0310
12702SOL    HW138684   0.758   4.238   9.009  1.1260  1.1665 -0.5052
12702SOL    HW238685   0.774   4.373   9.075 -0.8124  1.7999 -1.2493
12703SOL     OW38686   2.085  10.000   7.235  0.0426  0.7262 -0.0952
12703SOL    HW138687   2.088   9.928   7.173 -1.5493 -0.4724  1.1314
12703SOL    HW238688   2.147   9.975   7.303 -1.1041  0.0518  0.7431
12704SOL     OW38689   1.244   1.846   1.259  0.2080  0.0276 -0.0750
12704SOL    HW138690   1.280   1.768   1.300  0.4913 -0.2736 -0.8932
12704SOL    HW238691   1.302   1.917   1.287  0.0479 -0.0717  0.5297
12705SOL     OW38692   3.658   8.347   0.350  0.0886 -0.1112 -0.1441
12705SOL    HW138693   3.639   8.411   0.419 -1.0146 -1.5379  0.9258
12705SOL    HW238694   3.753   8.333   0.356  0.1892  0.6850  0.2649
12706SOL     OW38695   2.355   6.510   2.781  0.2113 -0.3442  0.3415
12706SOL    HW138696   2.274   6.550   2.751  0.7744  0.5559 -0.0108
12706SOL    HW238697   2.335   6.479   2.869 -0.1417  1.0390  0.7693
12707SOL     OW38698   0.908   9.790   1.084 -0.3504 -0.4168  0.0418
12707SOL    HW138699   0.966   9.783   1.160  0.0538 -0.9541 -0.3026
12707SOL    HW238700   0.820   9.791   1.121 -0.1720 -1.0232  0.5086
12708SOL     OW38701   5.441   9.488   8.594  0.1739  0.4019  0.0184
12708SOL    HW138702   5.440   9.439   8.512 -1.7074  1.0563 -0.4006
12708SOL    HW238703   5.360   9.463   8.638 -0.4985  2.5284  0.1112
12709SOL     OW38704   5.671   3.028   8.622  0.1643  0.3092 -0.3886
12709SOL    HW138705   5.591   3.036   8.569  0.2328  0.4076 -0.4772
12709SOL    HW238706   5.708   3.116   8.623  0.8988  0.0133 -1.3224
12710SOL     OW38707   7.362   1.585   3.753 -0.4454 -0.1929 -0.3762
12710SOL    HW138708   7.277   1.629   3.749 -0.0732  0.4941 -1.1217
12710SOL    HW238709   7.352   1.519   3.821 -1.7242 -0.4410 -0.7719
12711SOL     OW38710   4.765   1.550   6.157 -0.3074  0.5536  0.4409
12711SOL    HW138711   4.855   1.532   6.131 -0.1719  1.1502  0.5002
12711SOL    HW238712   4.772   1.605   6.235 -0.7218 -0.1530  0.9915
12712SOL     OW38713   8.935   4.755   4.488  0.0858  0.0396  0.1527
12712SOL    HW138714   8.901   4.704   4.561 -0.6748 -0.7334 -0.7080
12712SOL    HW238715   8.882   4.728   4.413  2.2315 -0.8456 -1.1636
12713SOL     OW38716   0.706   8.819   8.473  0.4102  0.3444 -0.4678
12713SOL    HW138717   0.621   8.798   8.435  1.0391 -0.4189 -1.5070
12713SOL    HW238718   0.728   8.742   8.525  0.4607  0.5495 -0.1836
12714SOL     OW38719   1.715   2.042   8.304 -0.3209 -0.4670 -0.1743
12714SOL    HW138720   1.684   2.015   8.218 -1.1386  0.3733 -0.1600
12714SOL    HW238721   1.808   2.061   8.292  0.3679 -3.3389 -0.1509
12715SOL     OW38722   1.870   6.677   8.490  0.6874  0.6263 -0.3560
12715SOL    HW138723   1.826   6.762   8.495  1.2277  0.9321 -0.7203
12715SOL    HW238724   1.952   6.689   8.538  0.7918  0.3260 -0.4549
12716SOL     OW38725   8.180   0.202   9.436 -0.5717  0.5191 -0.3238
12716SOL    HW138726   8.170   0.108   9.427  0.8531  0.2268  0.8906
12716SOL    HW238727   8.240   0.228   9.366  0.1292  0.2951  0.1855
12717SOL     OW38728   5.182   6.639   5.456  0.0005  0.9470  0.0275
12717SOL    HW138729   5.203   6.585   5.532 -1.0941 -0.8761 -0.8967
12717SOL    HW238730   5.136   6.715   5.492 -1.4419 -0.3849  1.1657
12718SOL     OW38731   5.988   6.915   2.587  0.0394  0.6802 -0.0952
12718SOL    HW138732   5.925   6.968   2.538 -0.6278  0.1969  0.2203
12718SOL    HW238733   6.020   6.851   2.522 -1.3785 -0.4191  0.2419
12719SOL     OW38734   0.230   2.338   2.147  0.4767  0.3835  0.2378
12719SOL    HW138735   0.234   2.288   2.066  1.3325 -0.0289  0.5212
12719SOL    HW238736   0.308   2.311   2.196  1.5647  2.7889 -0.0481
12720SOL     OW38737   4.621   2.777   0.948 -0.4529  0.2559 -0.1755
12720SOL    HW138738   4.586   2.765   0.859 -2.6939  0.2943  0.6193
12720SOL    HW238739   4.584   2.704   0.998 -0.4132  1.0282  1.0199
12721SOL     OW38740   6.265   9.499   2.613 -0.4455  0.3724  0.1278
12721SOL    HW138741   6.219   9.517   2.695 -0.1196  1.5932  0.0665
12721SOL    HW238742   6.358   9.513   2.634 -0.1745 -1.0507 -0.0147
12722SOL     OW38743   2.916   1.851   1.747 -1.2533  0.6348  0.4469
12722SOL    HW138744   2.902   1.937   1.787 -0.7805  0.8463  0.1651
12722SOL    HW238745   2.831   1.807   1.755 -1.1068  0.5620  1.9198
12723SOL     OW38746   1.110   1.254   7.163 -0.1805 -0.5211 -0.1035
12723SOL    HW138747   1.120   1.278   7.256  1.5020 -1.0699 -0.1228
12723SOL    HW238748   1.080   1.335   7.121  0.7355  0.2292  0.6344
12724SOL     OW38749   8.552   6.483   7.637 -0.4366 -0.0737 -0.3238
12724SOL    HW138750   8.505   6.399   7.631 -1.1180  0.3234 -0.6698
12724SOL    HW238751   8.613   6.482   7.563  0.2733 -0.6845  0.2509
12725SOL     OW38752   1.955   7.957   6.102 -0.4913  0.2550 -0.2320
12725SOL    HW138753   1.922   7.975   6.190  0.8324 -0.0597  0.3527
12725SOL    HW238754   2.017   8.029   6.085  1.5136 -1.2499  0.3359
12726SOL     OW38755   3.030   2.616   4.022  0.3704 -0.3942  0.6365
12726SOL    HW138756   3.071   2.530   4.007  0.8611  0.1408 -1.4744
12726SOL    HW238757   3.061   2.669   3.949 -1.2924  1.0960  0.9692
12727SOL     OW38758   7.040   3.978   5.798 -0.8008 -0.1195  0.3268
12727SOL    HW138759   6.993   3.920   5.858 -1.5357  1.8579  1.7763
12727SOL    HW238760   6.973   4.038   5.765  0.2901  1.4163  0.7658
12728SOL     OW38761   2.538   4.683   5.244  0.3991 -0.1520  0.4895
12728SOL    HW138762   2.547   4.734   5.324 -0.3995 -0.8925  1.0647
12728SOL    HW238763   2.627   4.678   5.209  0.6289  0.8877  0.8713
12729SOL     OW38764   3.330   1.385   5.891  0.1303  0.1322  0.3527
12729SOL    HW138765   3.387   1.391   5.968  1.2147 -0.7592 -0.3576
12729SOL    HW238766   3.390   1.378   5.817 -0.8970  0.7845 -0.5828
12730SOL     OW38767   0.095   7.227   2.720  0.0137  0.0206 -0.4775
12730SOL    HW138768   0.057   7.315   2.714  0.9484  0.3699 -2.0133
12730SOL    HW238769   0.070   7.195   2.806  0.1231  2.0101  0.3311
12731SOL     OW38770   9.515   2.584   3.355 -0.5054  0.2389 -0.1153
12731SOL    HW138771   9.546   2.583   3.265 -1.5306  0.3057 -0.4775
12731SOL    HW238772   9.579   2.531   3.403 -0.9942 -1.4380 -1.2361
12732SOL     OW38773   9.669   1.951   4.890  0.3227  0.0857 -0.4620
12732SOL    HW138774   9.727   2.014   4.848  1.6161 -0.5140  0.3844
12732SOL    HW238775   9.595   1.943   4.829 -0.5832  3.3965  0.0052
12733SOL     OW38776   5.315   5.118   9.789  0.6760 -0.1711  0.4962
12733SOL    HW138777   5.289   5.203   9.823  0.5211 -0.0264  0.0208
12733SOL    HW238778   5.409   5.112   9.808  1.0820  0.8656 -1.0259
12734SOL     OW38779   1.628   1.228   5.946 -0.1448 -0.5120  0.8364
12734SOL    HW138780   1.629   1.279   6.027 -0.6673 -0.6203  0.9181
12734SOL    HW238781   1.590   1.288   5.881  2.0599  0.2747  0.1665
12735SOL     OW38782   1.290   6.700   6.834  0.1908  0.2088 -0.5911
12735SOL    HW138783   1.240   6.645   6.894 -0.6893 -0.5840 -1.9990
12735SOL    HW238784   1.304   6.645   6.757 -0.5347  1.8744 -1.9640
12736SOL     OW38785   2.403   1.042   9.521 -0.6685 -0.1656  0.2443
12736SOL    HW138786   2.385   0.957   9.561 -1.8291 -1.2363 -2.3158
12736SOL    HW238787   2.318   1.086   9.520 -0.2186  0.7461  0.8880
12737SOL     OW38788   2.070   2.792   4.470  0.2201 -0.1988 -0.2308
12737SOL    HW138789   2.027   2.854   4.529  0.6135 -0.4659  0.3386
12737SOL    HW238790   2.010   2.784   4.396 -1.2525 -1.3803  1.0256
12738SOL     OW38791   8.634   3.698   9.806 -0.6505 -0.4543  0.2743
12738SOL    HW138792   8.606   3.773   9.755  0.8634  0.7502  1.1170
12738SOL    HW238793   8.568   3.689   9.875  0.2080  1.4865  1.4346
12739SOL     OW38794   8.808   1.863   9.079 -0.0184  0.3843  0.9030
12739SOL    HW138795   8.787   1.846   8.987 -0.4830 -0.4584  1.1512
12739SOL    HW238796   8.730   1.906   9.113 -0.9866 -1.7667  1.5580
12740SOL     OW38797   0.447   2.613   4.780 -0.3135 -0.4078 -0.1091
12740SOL    HW138798   0.442   2.687   4.719  0.7263  0.0148  0.2935
12740SOL    HW238799   0.529   2.569   4.759 -0.6473 -1.1163  0.0335
12741SOL     OW38800   8.356   6.080   8.005 -0.2741  0.4919 -0.1947
12741SOL    HW138801   8.333   6.081   8.098  2.0255  1.1962  0.4357
12741SOL    HW238802   8.412   6.003   7.995  0.1516  0.8742 -0.8187
12742SOL     OW38803   2.240   7.896   7.758  0.6785 -0.3238 -0.7135
12742SOL    HW138804   2.150   7.894   7.791  0.8438  3.5287  0.4519
12742SOL    HW238805   2.259   7.805   7.737 -2.7391 -1.6388  0.9916
12743SOL     OW38806   7.809   4.729   7.604  0.1622  0.0675 -0.2019
12743SOL    HW138807   7.869   4.679   7.548  0.0336 -0.5631  0.2137
12743SOL    HW238808   7.722   4.701   7.577  0.1164 -1.0595  1.0269
12744SOL     OW38809   1.438   6.466   7.104  0.5231  0.2743  0.0619
12744SOL    HW138810   1.366   6.521   7.073 -0.0938 -0.8405 -0.5293
12744SOL    HW238811   1.402   6.422   7.181  0.1677 -1.1145 -0.8628
12745SOL     OW38812   8.363   9.857   8.044 -0.4448  0.7434  0.3247
12745SOL    HW138813   8.389   9.783   8.099 -1.6146  0.1364  0.0784
12745SOL    HW238814   8.277   9.834   8.010  0.5638  0.7029 -2.4619
12746SOL     OW38815   7.057   3.424   0.891  0.4136  0.4978 -0.1137
12746SOL    HW138816   6.981   3.393   0.941 -0.3755  0.0666 -1.5280
12746SOL    HW238817   7.023   3.441   0.804  1.5449  2.1990 -0.2771
12747SOL     OW38818   5.607   5.535   4.510 -0.1808 -0.6186  0.3317
12747SOL    HW138819   5.662   5.537   4.432  0.3820  0.7781  0.7300
12747SOL    HW238820   5.565   5.621   4.511 -3.4092 -2.0205 -0.6364
12748SOL     OW38821   6.617   5.246   9.524 -0.1132 -0.7950 -0.0703
12748SOL    HW138822   6.603   5.163   9.569 -0.3121 -0.8773 -0.2792
12748SOL    HW238823   6.607   5.225   9.431  0.6554 -0.6972 -0.1774
12749SOL     OW38824   8.310   1.489   8.179 -0.0789 -0.6575  0.3701
12749SOL    HW138825   8.292   1.577   8.213 -1.4166  0.9469 -3.8823
12749SOL    HW238826   8.246   1.433   8.222 -0.3260  0.7395  1.9279
12750SOL     OW38827   6.708   4.326   9.902  0.4119 -0.1063 -0.0874
12750SOL    HW138828   6.758   4.272   9.841  0.5346 -0.0308 -0.0548
12750SOL    HW238829   6.637   4.269   9.932 -0.0435  0.0735 -0.8097
12751SOL     OW38830   6.357   3.914   9.157 -0.6044 -0.4312  0.3315
12751SOL    HW138831   6.338   3.949   9.070 -0.0428  0.8264  0.6971
12751SOL    HW238832   6.399   3.830   9.141 -2.6028 -1.3184 -0.5580
12752SOL     OW38833   4.155   3.314   4.584  0.6487 -0.3596 -0.5156
12752SOL    HW138834   4.129   3.285   4.671 -1.1330 -0.9695 -1.2106
12752SOL    HW238835   4.250   3.326   4.590  0.5440 -0.1683  1.5540
12753SOL     OW38836   0.082   4.771   0.473  0.8227 -0.3436 -0.6884
12753SOL    HW138837   0.093   4.730   0.559  1.6086 -0.2239 -0.7245
12753SOL    HW238838   0.109   4.704   0.411 -0.2617 -0.6199 -0.8821
12754SOL     OW38839   7.974   8.163   9.321 -0.6928 -0.1196  0.6419
12754SOL    HW138840   7.917   8.176   9.396  0.8630  2.1797  1.5383
12754SOL    HW238841   7.992   8.069   9.320 -1.3964 -0.3140  2.6251
12755SOL     OW38842   2.847   5.216   3.900 -0.0315 -0.6257  0.2965
12755SOL    HW138843   2.889   5.138   3.937  2.0452  0.3990  0.2305
12755SOL    HW238844   2.753   5.197   3.904  0.3898 -2.9216  0.7167
12756SOL     OW38845   4.930   6.805   4.295  0.2372  0.3005  0.5424
12756SOL    HW138846   4.970   6.824   4.210 -1.6265  1.6739 -0.0844
12756SOL    HW238847   4.934   6.710   4.303 -1.0062 -0.0167 -1.8494
12757SOL     OW38848   5.253   2.506   9.606  0.3173  0.3873 -0.0060
12757SOL    HW138849   5.342   2.472   9.611  0.5877  1.1970  1.2403
12757SOL    HW238850   5.241   2.555   9.688 -0.5701  1.9643 -1.0078
12758SOL     OW38851   7.055   7.395   8.630  0.2008  0.2902  0.1507
12758SOL    HW138852   7.001   7.344   8.569  0.0758  0.5018  0.0839
12758SOL    HW238853   7.076   7.475   8.582  0.2570  0.3754  0.3181
12759SOL     OW38854   1.552   7.811   8.593 -0.3440  0.2958 -1.1005
12759SOL    HW138855   1.512   7.871   8.530  0.2962  1.2266 -0.6566
12759SOL    HW238856   1.496   7.816   8.670 -0.6195 -0.1315 -1.2757
12760SOL     OW38857   3.544   8.046   0.857 -0.0105 -0.5660  0.0884
12760SOL    HW138858   3.476   8.046   0.789  0.1899 -0.1466 -0.1127
12760SOL    HW238859   3.617   8.094   0.818 -1.1653  2.9742  1.8405
12761SOL     OW38860   7.384   4.738   6.745 -0.3267 -0.2979  0.7251
12761SOL    HW138861   7.409   4.707   6.832 -0.5438  0.3365  1.0149
12761SOL    HW238862   7.450   4.803   6.722 -0.9364  0.4156  0.9327
12762SOL     OW38863   1.146   3.278   6.520  0.2622  0.1198  0.0353
12762SOL    HW138864   1.095   3.264   6.440 -0.6816  1.9649  0.2530
12762SOL    HW238865   1.133   3.198   6.571 -1.7902  0.2057 -0.2753
12763SOL     OW38866   7.571   2.137   1.265 -0.0850  0.2019  0.3183
12763SOL    HW138867   7.656   2.096   1.277 -0.3237 -0.0539  1.1855
12763SOL    HW238868   7.561   2.145   1.170  0.8851  0.2074  0.2158
12764SOL     OW38869   6.880   7.759   5.929 -0.3901 -0.1007 -0.6402
12764SOL    HW138870   6.929   7.680   5.955 -1.1645 -1.4153 -2.8820
12764SOL    HW238871   6.804   7.725   5.882 -1.1627  2.0040 -1.0001
12765SOL     OW38872   0.244   1.437   0.060  0.3051 -0.5023  0.1072
12765SOL    HW138873   0.168   1.382   0.044  0.4997 -0.9425  0.6569
12765SOL    HW238874   0.308   1.411  -0.006  0.0402 -0.2433 -0.2543
12766SOL     OW38875   2.613   6.791   0.055 -0.1730 -0.0965 -0.2328
12766SOL    HW138876   2.525   6.828   0.045  0.0248  0.8270  1.1630
12766SOL    HW238877   2.607   6.703   0.017 -2.5328 -1.2257  2.4057
12767SOL     OW38878   0.062   0.492   6.243  0.0479 -0.3513  0.5237
12767SOL    HW138879  -0.024   0.450   6.233 -0.2897  0.1239  1.3092
12767SOL    HW238880   0.101   0.448   6.319  0.4690 -0.5132  0.2143
12768SOL     OW38881   4.815   3.765   8.494  0.8792 -0.4225 -0.4243
12768SOL    HW138882   4.839   3.834   8.556  3.4807  0.9431 -2.7465
12768SOL    HW238883   4.849   3.684   8.533  0.9189  0.1171  0.6931
12769SOL     OW38884   0.393   3.753   5.610  0.0746 -0.3738  0.0267
12769SOL    HW138885   0.378   3.825   5.671 -2.1916 -1.3613  0.7440
12769SOL    HW238886   0.487   3.739   5.611  0.5145  2.1549  0.3210
12770SOL     OW38887   0.972   5.173   8.176 -0.4468 -0.3660  0.0093
12770SOL    HW138888   1.050   5.198   8.126 -0.9838  1.1460 -0.1112
12770SOL    HW238889   1.000   5.097   8.228  0.8798 -0.3021 -0.5799
12771SOL     OW38890   3.753   3.801   9.407 -0.1849 -0.3027  0.0463
12771SOL    HW138891   3.694   3.738   9.449 -0.9845  0.4516  0.0721
12771SOL    HW238892   3.741   3.787   9.313 -0.7539  0.1614  0.0467
12772SOL     OW38893   9.952   2.866   4.534  0.6508 -0.1344  0.0331
12772SOL    HW138894   9.896   2.834   4.604  0.9931 -0.9488 -0.0598
12772SOL    HW238895  10.012   2.926   4.577  1.6746 -1.5732  0.6852
12773SOL     OW38896   2.599   6.057   5.403  0.4849 -0.6292 -0.6573
12773SOL    HW138897   2.648   6.050   5.485 -0.8365 -1.0705  0.1207
12773SOL    HW238898   2.509   6.075   5.430  0.4826  2.1843 -2.0768
12774SOL     OW38899   3.938   5.709   0.960 -0.4229  0.3316  0.0160
12774SOL    HW138900   3.926   5.724   0.866 -2.0262 -0.2407  0.0945
12774SOL    HW238901   3.989   5.627   0.964  1.2317  1.2903 -0.3289
12775SOL     OW38902   0.046   5.185   6.724 -0.4271 -0.5013  0.1756
12775SOL    HW138903   0.013   5.107   6.681 -0.7114 -0.1699 -0.2066
12775SOL    HW238904   0.086   5.152   6.805 -0.2567 -1.0742 -0.1378
12776SOL     OW38905   7.635   4.771   5.760 -0.4658 -0.2092  0.3262
12776SOL    HW138906   7.589   4.706   5.707 -1.2069 -0.2964  1.0494
12776SOL    HW238907   7.653   4.727   5.843 -0.0642  0.1876  0.4556
12777SOL     OW38908   9.782   7.543   0.528 -0.1954  0.0355 -0.2229
12777SOL    HW138909   9.723   7.490   0.583 -0.2907 -0.5148 -0.8407
12777SOL    HW238910   9.852   7.482   0.503 -1.7965 -0.7485 -3.3548
12778SOL     OW38911   4.420   0.819   2.114 -0.7997 -0.3585  0.4804
12778SOL    HW138912   4.445   0.888   2.053 -2.2522 -0.8725 -0.7647
12778SOL    HW238913   4.434   0.738   2.065 -0.5355 -0.8873  1.3982
12779SOL     OW38914   5.805   9.029   2.601 -0.0270  0.3410 -0.2254
12779SOL    HW138915   5.742   9.073   2.657  0.6398 -0.9189  1.5977
12779SOL    HW238916   5.888   9.072   2.618  0.3170 -0.5146  0.3362
12780SOL     OW38917   5.871   1.015   2.546 -0.6108  0.0931  0.4830
12780SOL    HW138918   5.803   1.002   2.613 -1.0398  0.3765  0.1107
12780SOL    HW238919   5.888   0.927   2.512 -0.5459 -0.0238  0.8196
12781SOL     OW38920   5.675   6.868   9.557  0.1653 -0.2691  0.1554
12781SOL    HW138921   5.644   6.950   9.519 -2.7022 -0.6310  1.4318
12781SOL    HW238922   5.682   6.808   9.482 -0.9709  0.2426 -0.3839
12782SOL     OW38923   0.146   1.321   9.781 -0.4251  0.3046 -0.1906
12782SOL    HW138924   0.068   1.375   9.773  0.5442  1.5983 -1.3146
12782SOL    HW238925   0.219   1.381   9.768  0.7737 -0.9092  0.6100
12783SOL     OW38926   5.293   1.940   5.961 -0.0790 -0.2434  0.3039
12783SOL    HW138927   5.308   1.980   5.875 -3.7349 -0.1636 -0.4290
12783SOL    HW238928   5.311   1.847   5.948 -0.7983 -0.2632 -0.6400
12784SOL     OW38929   9.269   0.572   9.738  0.3748 -0.4876  0.0491
12784SOL    HW138930   9.206   0.527   9.795 -0.3628  1.7305  1.1268
12784SOL    HW238931   9.355   0.547   9.773 -0.0165 -0.9804  0.6806
12785SOL     OW38932   6.381   0.081   3.350 -0.2058  0.1854 -0.4288
12785SOL    HW138933   6.317   0.152   3.351  0.5946  0.9298  0.1934
12785SOL    HW238934   6.454   0.115   3.402  0.9337 -0.4032 -1.5849
12786SOL     OW38935   0.374   4.293   6.714 -0.3124 -0.3514 -0.1646
12786SOL    HW138936   0.329   4.336   6.641 -0.1552 -2.0946 -1.3390
12786SOL    HW238937   0.332   4.208   6.720  0.9973 -0.9682  0.5155
12787SOL     OW38938   4.531   2.562   3.702  0.3735  0.5120 -0.3375
12787SOL    HW138939   4.521   2.524   3.615 -0.7128  1.4438 -0.6340
12787SOL    HW238940   4.626   2.567   3.715  0.5444  0.1705 -1.3670
12788SOL     OW38941   1.402   2.526   7.377 -0.1257  0.0136 -0.1252
12788SOL    HW138942   1.348   2.589   7.425 -0.8887 -0.8910  0.2167
12788SOL    HW238943   1.455   2.580   7.318 -1.3780  0.9221 -0.4509
12789SOL     OW38944   4.757   1.972   6.623 -0.1029 -0.1470  0.0465
12789SOL    HW138945   4.704   2.051   6.631  0.6896  0.3126  1.0144
12789SOL    HW238946   4.697   1.906   6.588 -1.2783  0.3922  0.9696
12790SOL     OW38947   1.398   0.446   1.470 -0.6314 -0.1767 -0.0297
12790SOL    HW138948   1.425   0.531   1.435 -0.2215 -0.5708 -0.6849
12790SOL    HW238949   1.336   0.467   1.540 -0.6926  0.6512 -0.3298
12791SOL     OW38950   8.634   6.412   2.344 -0.8536  0.1997 -0.2142
12791SOL    HW138951   8.578   6.342   2.379 -1.3325  0.4245 -0.5221
12791SOL    HW238952   8.641   6.392   2.250 -0.5816  0.2835 -0.2104
12792SOL     OW38953   8.187   4.702   2.501 -0.6184  0.3503 -0.2001
12792SOL    HW138954   8.149   4.640   2.439 -1.6108  1.4056 -0.6912
12792SOL    HW238955   8.150   4.677   2.586  1.3125 -1.5609  0.1776
12793SOL     OW38956   9.911   4.093   5.222  0.2141  0.3391  0.3997
12793SOL    HW138957   9.865   4.021   5.179  0.5690  0.6907 -0.6132
12793SOL    HW238958   9.876   4.172   5.180 -0.2946  0.7821  1.6084
12794SOL     OW38959   6.296   3.718   2.130  0.6437 -0.0922  0.1036
12794SOL    HW138960   6.257   3.644   2.175  0.2753 -1.4581 -2.2999
12794SOL    HW238961   6.234   3.790   2.143  0.4599 -0.4739  1.5298
12795SOL     OW38962   8.022   6.182   2.769  0.6458  0.2961 -0.3155
12795SOL    HW138963   7.969   6.258   2.746 -0.6157 -0.3537  0.3298
12795SOL    HW238964   7.972   6.139   2.839  1.4195 -1.0146 -0.5442
12796SOL     OW38965   9.480   5.806   0.957 -0.3257 -0.4133  0.3660
12796SOL    HW138966   9.556   5.796   0.900 -0.3776 -1.4293  0.4579
12796SOL    HW238967   9.515   5.797   1.046 -0.7063 -2.1218  0.3757
12797SOL     OW38968   6.777   4.144   3.686  0.7634 -0.0683  0.0792
12797SOL    HW138969   6.831   4.170   3.612  1.4576 -1.0043  0.2387
12797SOL    HW238970   6.694   4.116   3.647  0.1808  1.7946 -0.1371
12798SOL     OW38971   3.115   0.339   9.638 -0.3769  0.2973 -0.1008
12798SOL    HW138972   3.096   0.264   9.695  1.5496 -1.4609 -1.6048
12798SOL    HW238973   3.210   0.344   9.636 -0.4607  2.2869 -0.7146
12799SOL     OW38974   2.022   5.949   2.767  0.3669 -0.4689 -0.7477
12799SOL    HW138975   1.959   6.008   2.726  0.7593  0.1469 -0.4796
12799SOL    HW238976   1.973   5.869   2.783 -0.0372 -0.4003 -1.5817
12800SOL     OW38977   9.109   2.229   6.548  0.2655  0.2972 -0.4348
12800SOL    HW138978   9.044   2.283   6.593  1.1241  0.6321  0.4185
12800SOL    HW238979   9.065   2.201   6.468 -0.5638  1.3709 -0.3710
12801SOL     OW38980   1.288   2.297   1.882  0.1959  0.0270  0.0736
12801SOL    HW138981   1.233   2.324   1.809  1.1693 -1.6932 -1.3669
12801SOL    HW238982   1.259   2.207   1.902  2.9340 -1.2958 -1.3275
12802SOL     OW38983   0.080   6.865   9.591  0.1872  0.0287  0.5356
12802SOL    HW138984   0.049   6.883   9.679 -1.5774  1.5118 -0.3216
12802SOL    HW238985   0.112   6.948   9.558 -0.1661 -0.2517 -0.5767
12803SOL     OW38986   2.825   0.765   4.087  0.4082  0.3964 -0.1957
12803SOL    HW138987   2.913   0.767   4.049 -0.4268  0.8034 -2.2032
12803SOL    HW238988   2.835   0.809   4.172  2.0948  0.5917 -0.4608
12804SOL     OW38989   3.876   8.578   4.829  0.0810 -0.3069 -0.1212
12804SOL    HW138990   3.870   8.561   4.735  0.9450 -2.3637  0.1467
12804SOL    HW238991   3.964   8.612   4.841  1.1101 -2.9214  0.2702
12805SOL     OW38992   4.922   2.687   5.476  0.1888 -0.2752  0.3136
12805SOL    HW138993   4.985   2.759   5.484  1.6386 -1.3359 -0.8697
12805SOL    HW238994   4.897   2.687   5.384 -1.0126 -0.3390  0.6208
12806SOL     OW38995   9.193   4.736   1.923  0.6230  0.0056  0.5618
12806SOL    HW138996   9.151   4.818   1.896  3.3566  1.2624 -0.2873
12806SOL    HW238997   9.177   4.676   1.850 -0.9254 -0.0746  0.9367
12807SOL     OW38998   8.808   6.471   8.874  0.1165  0.3340  0.3368
12807SOL    HW138999   8.892   6.515   8.869 -0.4894  1.7306  1.4656
12807SOL    HW239000   8.829   6.380   8.897  1.3411  0.3624 -0.6106
12808SOL     OW39001   3.015   7.595   7.313 -0.2488 -0.1477  0.4335
12808SOL    HW139002   3.006   7.502   7.292  1.8693 -0.4421  0.5886
12808SOL    HW239003   3.046   7.635   7.232 -1.2978  0.4823  0.3230
12809SOL     OW39004   8.139   3.099   1.465  0.0200 -0.0893  0.6031
12809SOL    HW139005   8.210   3.161   1.478  2.6911 -2.4006 -1.5299
12809SOL    HW239006   8.152   3.033   1.533  1.4722 -1.6905 -1.1185
12810SOL     OW39007   2.514   8.325   1.219 -0.2705  0.5814  0.1859
12810SOL    HW139008   2.420   8.309   1.225 -0.5272  2.1428  0.8888
12810SOL    HW239009   2.554   8.254   1.269 -1.0665 -0.0865 -0.1102
12811SOL     OW39010   8.675   2.461   3.262  0.0082  0.1093  0.1315
12811SOL    HW139011   8.771   2.461   3.261  0.0468  1.4575  0.8165
12811SOL    HW239012   8.651   2.369   3.268  1.1367 -0.6586 -3.8987
12812SOL     OW39013   2.424   4.337   2.550  0.4232  0.0185  0.2553
12812SOL    HW139014   2.363   4.353   2.477  0.9690  1.3957  0.0668
12812SOL    HW239015   2.369   4.301   2.619 -0.2262 -0.7225 -0.6179
12813SOL     OW39016   1.446   8.601   2.902  0.4462  0.1520  0.2704
12813SOL    HW139017   1.433   8.518   2.855 -0.4933  0.5077 -0.1214
12813SOL    HW239018   1.495   8.577   2.980 -0.2074 -0.8509  0.3905
12814SOL     OW39019   1.109   0.820   1.226 -0.7765  0.2132 -0.3855
12814SOL    HW139020   1.058   0.777   1.295  0.0701 -0.6296 -0.2553
12814SOL    HW239021   1.048   0.880   1.184 -1.3238  0.6662  1.0373
12815SOL     OW39022   4.095   7.915   6.705  0.3207 -0.1826  0.0407
12815SOL    HW139023   4.102   7.823   6.680 -1.1894 -0.5783  0.9138
12815SOL    HW239024   4.183   7.938   6.736  1.2267 -0.7354 -1.9916
12816SOL     OW39025   8.025   6.628   8.935 -0.2779  0.2366 -0.5653
12816SOL    HW139026   7.984   6.571   8.870  0.6286 -0.1588 -0.8029
12816SOL    HW239027   7.952   6.659   8.989 -0.9011 -0.3499 -1.0558
12817SOL     OW39028   4.560   4.310   1.358  0.2796 -0.1466  0.3827
12817SOL    HW139029   4.538   4.243   1.422  0.3002 -1.2318 -0.7124
12817SOL    HW239030   4.600   4.262   1.286  0.9113  1.1295 -0.1460
12818SOL     OW39031   0.602   9.739   7.904 -0.1332 -0.3805 -0.1585
12818SOL    HW139032   0.638   9.656   7.935  0.6695 -0.0931 -0.2865
12818SOL    HW239033   0.537   9.763   7.970  0.9447 -0.2026  0.8879
12819SOL     OW39034   3.367   0.938   5.717  0.0941 -0.5040 -0.1006
12819SOL    HW139035   3.335   0.926   5.628 -1.9284 -1.1259  0.6480
12819SOL    HW239036   3.391   0.849   5.746 -1.3839 -0.6786  0.6863
12820SOL     OW39037   0.823   2.393   2.634  0.4503  0.0950 -0.0200
12820SOL    HW139038   0.750   2.383   2.573  1.7369 -0.6327 -1.5005
12820SOL    HW239039   0.785   2.441   2.708 -0.9235  2.0551 -1.8459
12821SOL     OW39040   3.282   4.655   7.608  0.6924 -0.2113 -0.2419
12821SOL    HW139041   3.270   4.688   7.697  0.6545 -0.8551  0.0014
12821SOL    HW239042   3.295   4.733   7.554 -0.0277  0.2321  0.2070
12822SOL     OW39043   8.721   6.979   2.389 -0.1012  0.4488 -0.8838
12822SOL    HW139044   8.636   6.941   2.413 -0.1773  0.3805 -1.2639
12822SOL    HW239045   8.742   6.939   2.305 -0.2465  1.3513 -1.3558
12823SOL     OW39046   6.711   4.105   0.152  0.4991 -0.0984 -0.8084
12823SOL    HW139047   6.644   4.165   0.118  2.1658  0.8388 -2.6324
12823SOL    HW239048   6.759   4.156   0.216  0.2075 -0.4119 -0.3295
12824SOL     OW39049   9.539   5.090   5.337  0.5510  0.7410  0.1522
12824SOL    HW139050   9.464   5.069   5.392  0.6677 -0.1499 -0.0196
12824SOL    HW239051   9.551   5.184   5.348 -0.9168  0.9873 -0.2440
12825SOL     OW39052   7.593   6.228   6.259 -0.0580 -0.5020  0.1432
12825SOL    HW139053   7.563   6.138   6.270  1.7586 -1.2372 -0.4303
12825SOL    HW239054   7.576   6.248   6.167  0.7475 -0.7768 -0.0797
12826SOL     OW39055   2.459   9.534   3.051  0.2575 -0.0708 -0.2887
12826SOL    HW139056   2.547   9.573   3.047  0.2018  0.0500 -0.3339
12826SOL    HW239057   2.406   9.601   3.094  0.5905 -0.8578  1.4265
12827SOL     OW39058   7.975   9.485   2.327 -0.5917 -0.2236 -0.3624
12827SOL    HW139059   7.982   9.435   2.409 -1.5124  0.9504  0.4842
12827SOL    HW239060   7.943   9.571   2.355  0.2202  0.5957 -1.8444
12828SOL     OW39061   1.002   4.214   5.974  0.1270 -0.1010  0.1620
12828SOL    HW139062   0.983   4.195   6.066  2.8265 -1.4931  0.5351
12828SOL    HW239063   0.974   4.136   5.927  1.9549 -0.9295  0.3461
12829SOL     OW39064   8.085   1.643   2.642 -0.4889 -0.5301  0.1223
12829SOL    HW139065   8.166   1.681   2.676  0.4564 -1.9484 -0.4571
12829SOL    HW239066   8.053   1.709   2.580 -0.6697  0.7588  1.5390
12830SOL     OW39067   3.566   4.746   2.901 -0.7525 -0.1033  0.2047
12830SOL    HW139068   3.530   4.699   2.976  0.3038  1.6228  1.8979
12830SOL    HW239069   3.554   4.838   2.922 -0.5924  0.4461 -1.8744
12831SOL     OW39070   2.288   8.892   9.632  0.3818  0.4598 -0.2359
12831SOL    HW139071   2.368   8.895   9.579  1.2660 -0.5180  0.9778
12831SOL    HW239072   2.218   8.915   9.571  1.3607 -0.4894 -1.7833
12832SOL     OW39073   1.905   1.038   5.620  0.2192  0.2010 -0.0869
12832SOL    HW139074   1.951   1.116   5.591 -0.8983  2.3156  3.1986
12832SOL    HW239075   1.818   1.046   5.581 -0.1534  1.1236  0.8696
12833SOL     OW39076   4.357   5.041   9.491 -0.4015  0.3835 -0.1243
12833SOL    HW139077   4.434   5.009   9.443  0.9207  0.3715  1.8947
12833SOL    HW239078   4.292   4.973   9.480  0.7799 -0.8427  0.2305
12834SOL     OW39079   0.679   3.245   6.479  0.4270  0.2031  0.0777
12834SOL    HW139080   0.590   3.210   6.486  0.8886 -1.7381 -2.3811
12834SOL    HW239081   0.708   3.255   6.570 -0.9735 -2.7581  0.9766
12835SOL     OW39082   4.472   3.855   4.298 -0.1679 -0.2437  0.0933
12835SOL    HW139083   4.518   3.852   4.382  1.2311  0.3247 -0.6173
12835SOL    HW239084   4.434   3.943   4.295 -1.7392 -0.8621  0.8730
12836SOL     OW39085   3.543   6.536   0.396  0.2172  0.3135  0.1692
12836SOL    HW139086   3.580   6.624   0.404  0.7101  0.0154  1.4620
12836SOL    HW239087   3.616   6.478   0.419 -0.5797 -0.3475  1.1041
12837SOL     OW39088   2.749   1.787   4.907 -0.1052 -0.4910  0.2169
12837SOL    HW139089   2.827   1.804   4.959 -0.4880  0.5323  0.4742
12837SOL    HW239090   2.774   1.811   4.818 -0.0093 -0.5248  0.2345
12838SOL     OW39091   1.278   6.150   0.461 -0.1306 -0.4834 -0.1822
12838SOL    HW139092   1.271   6.191   0.547 -1.5133 -2.2791  0.6241
12838SOL    HW239093   1.199   6.179   0.414  0.5172  0.3282 -0.8016
12839SOL     OW39094   4.978   6.966   3.285  0.3659 -0.5227 -0.2593
12839SOL    HW139095   5.047   7.022   3.320  0.6597 -1.9855  1.6760
12839SOL    HW239096   5.019   6.880   3.275 -0.6924 -0.9828 -0.8160
12840SOL     OW39097   1.025   4.541   7.259  0.0434  0.1436 -0.1331
12840SOL    HW139098   0.937   4.533   7.294  0.0402  0.1870 -0.1304
12840SOL    HW239099   1.041   4.636   7.256  0.5433  0.1135  1.0166
12841SOL     OW39100   3.909   8.764   1.583  0.1546  0.1787  0.1220
12841SOL    HW139101   3.881   8.822   1.512  0.7163 -0.4877 -0.6617
12841SOL    HW239102   3.984   8.717   1.548 -1.0817 -2.0110  0.2218
12842SOL     OW39103   1.355   1.372   6.153  0.2456  0.5189  0.5129
12842SOL    HW139104   1.441   1.378   6.193  1.1579  0.4751 -1.3595
12842SOL    HW239105   1.302   1.437   6.200  1.2850  0.5792  1.6526
12843SOL     OW39106   5.700   0.809   1.141 -0.4599 -0.3543 -0.0421
12843SOL    HW139107   5.745   0.729   1.168 -0.2818 -0.0251  0.6495
12843SOL    HW239108   5.760   0.879   1.164 -1.1289  0.0630  0.4807
12844SOL     OW39109   8.352   4.953   7.195 -0.1961 -0.5777  0.3001
12844SOL    HW139110   8.418   4.990   7.136 -2.8631  1.9449 -1.3733
12844SOL    HW239111   8.310   5.030   7.234 -1.5125 -2.1219  2.0782
12845SOL     OW39112   0.797   2.081   9.657 -0.6391 -0.1336  0.6716
12845SOL    HW139113   0.804   2.160   9.711  1.2634 -1.0499  1.8868
12845SOL    HW239114   0.809   2.009   9.719  0.6714 -1.2602 -0.8285
12846SOL     OW39115   3.523   2.853   0.324 -0.4934  0.1587 -0.0252
12846SOL    HW139116   3.600   2.859   0.382 -0.2062 -0.7442 -0.3045
12846SOL    HW239117   3.491   2.764   0.336 -0.2687 -0.1295 -1.4492
12847SOL     OW39118   4.842   6.438   1.920  0.1171 -0.2019 -0.4533
12847SOL    HW139119   4.763   6.407   1.964  1.3985 -1.0362  1.3684
12847SOL    HW239120   4.897   6.361   1.911  3.3408  1.1070  4.0997
12848SOL     OW39121   3.654   5.236   5.144  0.3146 -0.0048  0.1939
12848SOL    HW139122   3.571   5.260   5.103  0.0350  0.2011  0.8632
12848SOL    HW239123   3.695   5.175   5.083  0.3087  0.9558 -0.8083
12849SOL     OW39124   1.639   0.019   1.027 -0.7986 -0.1967 -0.2700
12849SOL    HW139125   1.599   0.002   0.941 -0.7558 -0.0214 -0.3259
12849SOL    HW239126   1.684   0.103   1.016  0.7834 -1.0429 -0.6316
12850SOL     OW39127   7.434   2.921   1.743  0.5997  0.4297  0.6093
12850SOL    HW139128   7.495   2.962   1.804  0.4432 -0.1628  1.1793
12850SOL    HW239129   7.348   2.955   1.767  0.4284 -0.4511  1.2928
12851SOL     OW39130   2.405   8.414   6.740 -0.4763  0.4056  0.1904
12851SOL    HW139131   2.444   8.327   6.743 -0.7724  0.2166 -1.0639
12851SOL    HW239132   2.475   8.473   6.767 -0.2043 -0.1842  0.8078
12852SOL     OW39133   1.616   8.605   4.069  0.2830  0.5582 -1.1767
12852SOL    HW139134   1.619   8.594   3.974  1.2592 -1.4191 -0.9658
12852SOL    HW239135   1.550   8.542   4.098  0.5040  0.6404 -0.4877
12853SOL     OW39136   3.570   5.068   6.079  0.2312 -0.1283 -0.3821
12853SOL    HW139137   3.652   5.033   6.044  2.0294  1.6034  1.8149
12853SOL    HW239138   3.503   5.011   6.042  2.4749 -2.3256 -1.4058
12854SOL     OW39139   7.900   7.708   8.388  0.1253 -0.4057 -0.2055
12854SOL    HW139140   7.979   7.737   8.342  0.4674 -2.8567 -1.3262
12854SOL    HW239141   7.832   7.707   8.321 -0.5646  0.3851  0.4510
12855SOL     OW39142   5.318   3.531   5.347 -0.1963 -0.0123  0.2142
12855SOL    HW139143   5.241   3.576   5.311  0.2753  0.5874 -0.0792
12855SOL    HW239144   5.391   3.591   5.327  0.2252 -0.1736  1.2378
12856SOL     OW39145   9.720   6.012   2.533  0.7902  0.2879 -0.5106
12856SOL    HW139146   9.646   6.070   2.514  0.2945  0.4451  1.6295
12856SOL    HW239147   9.719   6.003   2.629  1.4255 -2.5063 -0.6931
12857SOL     OW39148   4.103   8.957   9.197 -0.7590 -0.2636 -0.0529
12857SOL    HW139149   4.171   8.983   9.258  0.0255 -0.2760 -0.9002
12857SOL    HW239150   4.021   8.987   9.237 -0.1433  0.8867  0.3747
12858SOL     OW39151   9.955   7.535   5.128  0.0750 -0.2870 -0.1814
12858SOL    HW139152   9.944   7.446   5.161 -2.9893 -0.6458 -1.7719
12858SOL    HW239153   9.903   7.590   5.187  2.7753  0.7413  1.4213
12859SOL     OW39154   3.152   4.036   3.267 -0.4192  0.2495  0.1572
12859SOL    HW139155   3.060   4.049   3.288 -0.7690 -0.3254 -0.9802
12859SOL    HW239156   3.184   4.122   3.240 -0.3704  0.6460  1.3883
12860SOL     OW39157   0.087   3.606   1.824 -0.2474  0.6411 -0.8124
12860SOL    HW139158   0.049   3.634   1.740 -1.3447  1.4639 -0.0782
12860SOL    HW239159   0.048   3.519   1.840 -1.0491  1.0355 -0.5622
12861SOL     OW39160   7.799   1.455   5.799  0.0721  0.0287  0.1208
12861SOL    HW139161   7.824   1.459   5.891 -1.4506  0.9896  0.5485
12861SOL    HW239162   7.879   1.478   5.751  0.0705  3.2472  1.3932
12862SOL     OW39163   1.184   8.699   7.962 -0.0885  0.6550  0.0453
12862SOL    HW139164   1.211   8.729   7.875  0.4296  1.6462  0.5347
12862SOL    HW239165   1.231   8.617   7.974 -0.0299  0.5963 -0.5432
12863SOL     OW39166   7.245   0.760   7.318  0.2286  0.3035 -0.5176
12863SOL    HW139167   7.154   0.731   7.323 -0.8286  3.1192 -1.0488
12863SOL    HW239168   7.290   0.711   7.386 -2.2464  0.5031  1.4266
12864SOL     OW39169   2.220   1.581   7.299 -0.1623 -0.1915 -0.0293
12864SOL    HW139170   2.218   1.675   7.283  0.6653 -0.0835  0.4196
12864SOL    HW239171   2.130   1.558   7.323 -0.3087  0.5367  0.1354
12865SOL     OW39172   2.690   7.228   1.110  0.1155 -0.4712 -0.5305
12865SOL    HW139173   2.717   7.192   1.025  1.9223  1.7783 -1.0131
12865SOL    HW239174   2.596   7.213   1.113  0.2505 -2.1023 -2.1651
12866SOL     OW39175   6.567   7.911   8.704  0.3552 -0.3976 -0.3051
12866SOL    HW139176   6.568   7.960   8.786 -0.6761  0.0684 -0.5530
12866SOL    HW239177   6.615   7.830   8.724 -0.4044 -0.5792  0.9461
12867SOL     OW39178   0.406   9.122   1.892 -0.6746  0.1821 -0.1575
12867SOL    HW139179   0.358   9.141   1.973 -1.6490 -1.4125 -0.3157
12867SOL    HW239180   0.354   9.054   1.849  1.2819 -1.0219 -0.7579
12868SOL     OW39181   2.980   1.545   6.203 -0.4784  0.1585 -0.0796
12868SOL    HW139182   2.946   1.537   6.292 -1.1918  1.3574 -0.2292
12868SOL    HW239183   2.927   1.484   6.152 -3.5012  2.9238 -0.5704
12869SOL     OW39184   6.307   5.112   5.076  0.3814 -0.3437  0.1150
12869SOL    HW139185   6.335   5.041   5.134  0.5000 -1.0497 -0.7861
12869SOL    HW239186   6.317   5.076   4.988 -2.0211 -0.1398 -0.3044
12870SOL     OW39187   7.493   1.988   8.852  0.1908 -0.7113  0.0562
12870SOL    HW139188   7.558   2.008   8.920 -0.3625 -1.2529  0.7527
12870SOL    HW239189   7.427   1.934   8.896 -0.6752 -0.2756 -0.6684
12871SOL     OW39190   1.505   0.553   1.057 -1.0210 -0.0407 -0.3624
12871SOL    HW139191   1.508   0.620   0.988  1.6281 -0.7916 -1.1130
12871SOL    HW239192   1.578   0.575   1.115  0.3076 -2.4824 -0.9388
12872SOL     OW39193   3.465   9.138   1.765 -0.8422  0.5490  0.3791
12872SOL    HW139194   3.392   9.191   1.735  0.2000  1.4149 -0.7405
12872SOL    HW239195   3.531   9.201   1.794 -0.4745 -0.2087  1.2641
12873SOL     OW39196   6.321   7.203   5.691 -0.6887 -0.3569 -0.0996
12873SOL    HW139197   6.238   7.176   5.731 -0.9154 -0.0082 -0.3337
12873SOL    HW239198   6.297   7.241   5.607 -0.3496  0.3157  0.1015
12874SOL     OW39199   5.794   3.866   1.038 -0.0378  0.1158 -0.4173
12874SOL    HW139200   5.885   3.852   1.014  0.4558  1.9579  0.2216
12874SOL    HW239201   5.798   3.902   1.127 -1.2924  1.3313 -0.8158
12875SOL     OW39202   4.000   0.989   3.933  0.2203 -0.0757 -0.1375
12875SOL    HW139203   3.985   1.065   3.989  1.1499  0.4382 -0.5515
12875SOL    HW239204   4.050   0.929   3.988  0.4481  0.0930 -0.1568
12876SOL     OW39205   4.128   8.174   2.586  0.2201 -1.0276  0.1372
12876SOL    HW139206   4.207   8.124   2.566 -0.1364 -1.6683  0.2903
12876SOL    HW239207   4.074   8.114   2.638  0.1036 -0.2257  0.9798
12877SOL     OW39208   7.283   1.664   4.096  0.2029 -0.0699  0.0524
12877SOL    HW139209   7.309   1.671   4.187  0.2065  1.8213 -0.0549
12877SOL    HW239210   7.298   1.752   4.060  1.8681 -1.1747 -2.2194
12878SOL     OW39211   4.879   3.950   4.430 -0.2326 -1.0252 -0.0871
12878SOL    HW139212   4.961   3.977   4.470  0.3278 -1.4610 -0.9252
12878SOL    HW239213   4.902   3.877   4.373 -1.2068 -1.1860 -0.3052
12879SOL     OW39214   1.529   4.231   9.106 -0.2263 -0.0844 -0.3651
12879SOL    HW139215   1.516   4.326   9.106  0.6352  0.0818 -2.6348
12879SOL    HW239216   1.459   4.198   9.162 -0.9844  1.8332 -0.0986
12880SOL     OW39217   0.635   9.587   0.757 -0.1742  0.4931  0.5427
12880SOL    HW139218   0.618   9.497   0.731 -1.2737  1.4264 -2.2999
12880SOL    HW239219   0.728   9.600   0.736 -0.0470  0.0715  0.8294
12881SOL     OW39220   7.144   8.193   4.320  0.3651 -0.2777  0.3645
12881SOL    HW139221   7.098   8.258   4.267  0.0952 -1.4224 -0.8729
12881SOL    HW239222   7.235   8.199   4.291  0.6336  0.5905  1.3555
12882SOL     OW39223   4.500   4.810   2.985  0.1644  0.0503 -0.6176
12882SOL    HW139224   4.523   4.728   3.030 -3.5035  0.0212  1.5746
12882SOL    HW239225   4.506   4.877   3.053 -1.6510  0.7120 -1.0674
12883SOL     OW39226   2.826   5.114   7.687  0.0691 -0.5997  0.4183
12883SOL    HW139227   2.894   5.058   7.724  2.1084  1.2490 -0.3455
12883SOL    HW239228   2.837   5.198   7.731 -1.1730 -0.0140 -0.3372
12884SOL     OW39229   9.126   7.117   9.126 -0.0477 -0.0244 -0.0742
12884SOL    HW139230   9.170   7.202   9.123  1.0591 -0.5897 -0.6294
12884SOL    HW239231   9.102   7.100   9.035  0.0999 -0.4865 -0.0283
12885SOL     OW39232   2.813   4.104   8.483  0.6186  0.2216 -0.2871
12885SOL    HW139233   2.761   4.181   8.508  0.9774  0.3144  0.1722
12885SOL    HW239234   2.885   4.102   8.545 -0.0304 -1.1706  0.4818
12886SOL     OW39235   1.944   0.827   6.701 -0.0485  0.0902  0.4898
12886SOL    HW139236   1.867   0.863   6.658  0.9146  2.6959  0.7715
12886SOL    HW239237   1.917   0.809   6.791 -0.4844  0.3470  0.4068
12887SOL     OW39238   1.449   6.649   9.336  0.7033  0.0138  0.2571
12887SOL    HW139239   1.463   6.717   9.269  2.4076 -1.0436 -0.5434
12887SOL    HW239240   1.354   6.636   9.337  0.6331 -0.3562 -2.4533
12888SOL     OW39241   0.294   1.608   6.341  0.5687  0.2153 -0.7812
12888SOL    HW139242   0.323   1.655   6.419 -1.0364 -2.1479  1.3938
12888SOL    HW239243   0.334   1.656   6.268  1.4847  3.0231  1.3896
12889SOL     OW39244   9.455   1.125   5.908  0.0546  0.3485 -0.1377
12889SOL    HW139245   9.410   1.056   5.955 -0.0717  1.0876  0.8599
12889SOL    HW239246   9.546   1.120   5.939  0.0263  0.6737  0.0034
12890SOL     OW39247   9.154   5.924   9.150 -0.2666  0.0016 -0.2465
12890SOL    HW139248   9.168   5.886   9.063 -0.2829 -0.3868 -0.0832
12890SOL    HW239249   9.089   5.993   9.136 -0.7377 -0.4752 -0.4424
12891SOL     OW39250   5.189   9.156   2.437  0.3069 -0.3082  0.3140
12891SOL    HW139251   5.182   9.066   2.406 -1.0967  0.3836 -1.6401
12891SOL    HW239252   5.100   9.178   2.466  0.5871  0.4934  0.5819
12892SOL     OW39253   7.629   1.004   5.285  0.1410 -0.3877 -0.3462
12892SOL    HW139254   7.566   0.933   5.274 -0.7031  0.0822  1.1987
12892SOL    HW239255   7.663   0.994   5.374 -1.2713  2.0806  0.5800
12893SOL     OW39256   3.359   6.768   2.193  0.4501  0.3130 -0.0038
12893SOL    HW139257   3.373   6.842   2.135  1.1138  0.3663  0.2194
12893SOL    HW239258   3.434   6.710   2.177  0.4752  0.1809  0.5645
12894SOL     OW39259   4.236   7.570   0.446 -0.1813 -0.4966  0.1720
12894SOL    HW139260   4.179   7.643   0.420  1.9814  1.4762  0.6279
12894SOL    HW239261   4.196   7.535   0.525 -0.5367  1.1348  0.7465
12895SOL     OW39262   5.883   3.680   3.758 -0.3778  0.3655  0.1015
12895SOL    HW139263   5.873   3.743   3.830 -0.3478  0.2654  0.1941
12895SOL    HW239264   5.963   3.633   3.779  0.2881  1.1499 -0.6303
12896SOL     OW39265   5.239   2.901   1.240 -0.6595  0.2462  0.1037
12896SOL    HW139266   5.247   2.899   1.145 -0.1241  1.3459  0.1042
12896SOL    HW239267   5.304   2.838   1.271 -0.8515 -0.1343 -0.2533
12897SOL     OW39268   6.271   8.257   9.391  0.0945  0.5441  0.7650
12897SOL    HW139269   6.282   8.239   9.298  1.5375  0.7283  0.8897
12897SOL    HW239270   6.195   8.316   9.395 -0.2238  0.2244 -0.2467
12898SOL     OW39271   6.225   2.730   1.138  0.2283 -0.1434  0.7271
12898SOL    HW139272   6.131   2.746   1.143 -0.0362 -1.6796  1.1827
12898SOL    HW239273   6.261   2.810   1.099 -1.3428  0.1829 -0.1314
12899SOL     OW39274   2.829   8.499   8.445 -0.0711  0.0504  0.2204
12899SOL    HW139275   2.879   8.435   8.494  0.7853  1.9942  2.0395
12899SOL    HW239276   2.750   8.514   8.497  0.2987  1.3002  0.4627
12900SOL     OW39277   7.168   8.146   6.346 -0.7526  0.0596 -0.1880
12900SOL    HW139278   7.179   8.202   6.423 -4.0514  0.1619  0.3818
12900SOL    HW239279   7.220   8.188   6.278  0.8203  0.9775  1.5006
12901SOL     OW39280   4.140   8.312   0.225 -0.2993 -0.1838  0.0285
12901SOL    HW139281   4.080   8.291   0.153  0.9053  0.9032 -1.3604
12901SOL    HW239282   4.223   8.274   0.198  0.6205  1.7760 -0.0560
12902SOL     OW39283   1.015   0.824   2.494 -0.0773 -0.1368 -0.1578
12902SOL    HW139284   0.921   0.808   2.493  0.3186 -2.8697 -1.0434
12902SOL    HW239285   1.027   0.893   2.559 -2.6325  0.0438  0.2180
12903SOL     OW39286   7.755   9.957   5.352 -0.6682 -0.0533 -0.0589
12903SOL    HW139287   7.768   9.979   5.444 -3.1375 -0.0941  0.3743
12903SOL    HW239288   7.828   9.899   5.330  0.4771  0.7210  1.5806
12904SOL     OW39289   4.889   2.899   5.822  0.1004  0.3619 -0.2761
12904SOL    HW139290   4.964   2.923   5.767  0.8419  1.0745  0.9955
12904SOL    HW239291   4.819   2.959   5.795 -0.4138 -1.0288 -2.2355
12905SOL     OW39292   2.444   5.979   5.707  0.6522  0.7950  0.4349
12905SOL    HW139293   2.495   5.904   5.677  0.9584  0.5617  1.5110
12905SOL    HW239294   2.409   6.018   5.626  1.5625  0.2725 -0.2254
12906SOL     OW39295   8.047   5.456   4.715  0.3293  0.0517  0.0852
12906SOL    HW139296   8.083   5.428   4.630  0.1442 -1.8837  0.6067
12906SOL    HW239297   8.108   5.421   4.779 -0.4490  0.0155  0.8195
12907SOL     OW39298   6.709   8.306   2.175 -0.4117 -0.1539  0.2461
12907SOL    HW139299   6.725   8.298   2.269 -0.3815 -2.0144  0.1206
12907SOL    HW239300   6.639   8.371   2.168  0.1185  0.5809  1.4911
12908SOL     OW39301   3.085   7.020   4.273  0.3816 -0.4448  0.4327
12908SOL    HW139302   3.137   6.979   4.204  0.2606  0.5456 -0.2544
12908SOL    HW239303   3.102   7.113   4.264 -2.0882 -0.0010 -0.2977
12909SOL     OW39304   5.144   3.255   4.633 -0.2805 -0.3885 -0.5832
12909SOL    HW139305   5.238   3.270   4.629 -0.0892 -0.5905  1.7037
12909SOL    HW239306   5.134   3.185   4.698 -2.0478  0.2454 -0.1064
12910SOL     OW39307   2.035   5.163   6.624 -0.2853 -0.5115 -0.0836
12910SOL    HW139308   2.017   5.219   6.699  1.3361 -0.7217  0.5067
12910SOL    HW239309   2.091   5.216   6.568 -1.2431 -0.4664 -1.0229
12911SOL     OW39310   6.864   7.361   5.570  0.6976  0.2693  0.3002
12911SOL    HW139311   6.924   7.434   5.581  1.3036 -0.0823 -0.6013
12911SOL    HW239312   6.784   7.401   5.535  0.2946  0.7712  1.7428
12912SOL     OW39313   4.597   0.742   2.503 -0.1443  0.4879 -0.5252
12912SOL    HW139314   4.509   0.780   2.507  0.2602  1.3522  0.8818
12912SOL    HW239315   4.643   0.795   2.438 -0.3583  0.6732 -0.5280
12913SOL     OW39316   4.593   8.420   2.029  0.4267  0.0372  0.3182
12913SOL    HW139317   4.577   8.327   2.041  0.3233 -0.0034 -0.1194
12913SOL    HW239318   4.554   8.441   1.944  1.0462  0.3290  0.0958
12914SOL     OW39319   2.504   0.780   4.354 -0.2450 -0.1895  0.1885
12914SOL    HW139320   2.530   0.768   4.263 -1.8102 -1.0627 -0.1914
12914SOL    HW239321   2.510   0.874   4.368  2.0113 -0.2377 -0.1438
12915SOL     OW39322   2.604   3.074   6.629 -0.1282 -0.0862  0.2020
12915SOL    HW139323   2.667   3.009   6.598  1.5711  1.8053 -0.5135
12915SOL    HW239324   2.605   3.065   6.724 -0.8186 -1.8254  0.1005
12916SOL     OW39325   5.445   7.352   4.616 -0.5290  0.6166  0.0782
12916SOL    HW139326   5.373   7.326   4.673 -0.4387  1.0288  0.3832
12916SOL    HW239327   5.475   7.270   4.576 -1.3246  0.4775 -0.2434
12917SOL     OW39328   0.870   5.929   9.259 -0.4406 -0.0040  0.0087
12917SOL    HW139329   0.791   5.929   9.313 -0.0730 -0.4758  0.5558
12917SOL    HW239330   0.871   6.016   9.218  0.0633  0.9794  1.9381
12918SOL     OW39331   2.956   1.016   6.947 -0.1062 -0.4975  0.4976
12918SOL    HW139332   2.992   1.094   6.989 -1.7963  0.2223  0.7217
12918SOL    HW239333   2.919   0.965   7.020  1.0025 -1.5347  0.3542
12919SOL     OW39334   7.011   9.535   5.440 -0.0343 -0.4684  0.5588
12919SOL    HW139335   7.053   9.493   5.365 -1.8090  1.8134 -1.8775
12919SOL    HW239336   6.950   9.468   5.473  0.5477 -1.4076 -0.1949
12920SOL     OW39337   9.184   0.457   5.085 -0.4051 -0.1997 -0.0231
12920SOL    HW139338   9.186   0.529   5.148 -0.2317  0.0850 -0.3488
12920SOL    HW239339   9.184   0.500   4.999 -2.7207 -0.5134 -0.2476
12921SOL     OW39340   5.549   6.470   0.298  0.3451  0.3126 -0.6872
12921SOL    HW139341   5.582   6.519   0.374  1.0857 -2.1656  0.6943
12921SOL    HW239342   5.464   6.437   0.325  1.1590 -1.6782 -0.3307
12922SOL     OW39343   8.317   3.451   5.765 -0.2177 -0.2231 -0.1560
12922SOL    HW139344   8.364   3.516   5.714 -0.0400 -0.0016  0.2939
12922SOL    HW239345   8.235   3.494   5.790 -0.5555 -0.5160 -0.7065
12923SOL     OW39346   4.734   9.172   7.508 -0.2615  0.2030 -0.0895
12923SOL    HW139347   4.688   9.096   7.472 -0.0127 -0.0550  0.1322
12923SOL    HW239348   4.790   9.136   7.577 -1.0294  0.7300  0.8377
12924SOL     OW39349   1.844   2.999   1.008 -0.8424  0.0795 -0.1529
12924SOL    HW139350   1.931   2.960   0.999 -1.4614 -1.7320  1.1067
12924SOL    HW239351   1.846   3.043   1.093 -1.4799 -1.0055  0.4553
12925SOL     OW39352   8.776   8.205   5.220 -0.1359  0.2629 -0.2427
12925SOL    HW139353   8.682   8.225   5.216 -0.2789 -0.5852 -2.9518
12925SOL    HW239354   8.818   8.288   5.196 -0.1553  0.6055  0.8390
12926SOL     OW39355   4.973   7.564   9.758 -0.1380 -0.3718  0.5160
12926SOL    HW139356   5.064   7.570   9.787 -0.2535  0.3019  0.7732
12926SOL    HW239357   4.977   7.571   9.663  0.1091 -0.7654  0.4960
12927SOL     OW39358   7.547   0.589   2.804 -0.6554 -0.3867  0.1639
12927SOL    HW139359   7.540   0.644   2.882  1.2479  0.0920  0.0495
12927SOL    HW239360   7.541   0.651   2.731  1.3985 -0.2771  0.0337
12928SOL     OW39361   7.681   7.998   7.186 -0.2046 -0.8289  0.3194
12928SOL    HW139362   7.626   8.074   7.205  1.4794 -0.1579  3.0197
12928SOL    HW239363   7.692   8.000   7.091 -1.1132  1.6419  0.1897
12929SOL     OW39364   7.042   5.894   4.475  0.5943 -0.0237 -0.0463
12929SOL    HW139365   6.972   5.879   4.538  0.4816  0.7037  0.0097
12929SOL    HW239366   7.090   5.969   4.510 -0.4191  1.4527 -1.6103
12930SOL     OW39367   9.222   4.711   5.124  0.7931 -0.0011  0.1946
12930SOL    HW139368   9.148   4.662   5.089  0.7463  0.6996 -0.7389
12930SOL    HW239369   9.189   4.752   5.204  0.6765 -1.0243  0.6800
12931SOL     OW39370   5.172   1.134   1.320  0.0414  0.2008  0.4464
12931SOL    HW139371   5.262   1.130   1.286  0.1771  2.5297  0.3461
12931SOL    HW239372   5.126   1.191   1.258 -1.7226 -1.4237  0.1608
12932SOL     OW39373   4.928   2.328   6.007 -0.0554  0.3679 -0.3156
12932SOL    HW139374   4.946   2.417   5.975  1.9373  0.4629  0.8638
12932SOL    HW239375   5.004   2.308   6.062 -0.1279 -2.3335 -1.0784
12933SOL     OW39376   4.764   1.116   6.794  0.0987 -0.6195 -0.2434
12933SOL    HW139377   4.833   1.148   6.852 -0.5592  0.6612 -0.1257
12933SOL    HW239378   4.779   1.162   6.711  0.4905 -1.7567 -0.8325
12934SOL     OW39379   4.527   1.920   8.525 -0.1313 -0.3466 -0.2025
12934SOL    HW139380   4.442   1.963   8.522  0.4189  0.7317 -1.1657
12934SOL    HW239381   4.563   1.932   8.437  1.0592 -0.6811  0.2157
12935SOL     OW39382   1.531   5.565   8.222  0.1504  0.4429 -0.1553
12935SOL    HW139383   1.478   5.645   8.224 -0.7143 -0.1143  0.2171
12935SOL    HW239384   1.620   5.595   8.206 -0.1505  1.4867  0.0454
12936SOL     OW39385   7.188   2.550   6.309 -0.3942  0.5125 -0.3340
12936SOL    HW139386   7.204   2.642   6.288  1.6252  0.1231 -0.6711
12936SOL    HW239387   7.217   2.502   6.232  1.3294 -0.5629  0.9102
12937SOL     OW39388   1.248   0.818   9.713 -0.3019 -0.3710 -0.4820
12937SOL    HW139389   1.266   0.732   9.677  0.1845 -1.5568  2.3017
12937SOL    HW239390   1.334   0.859   9.721 -0.4191 -0.0620 -0.7760
12938SOL     OW39391   1.951   0.169   4.837 -0.3586 -0.2951 -0.1088
12938SOL    HW139392   2.045   0.154   4.822 -0.4772 -0.5540 -0.6049
12938SOL    HW239393   1.945   0.193   4.930  0.0094 -1.8672  0.3401
12939SOL     OW39394   6.440   4.847   6.642 -0.5082 -0.1267  0.2868
12939SOL    HW139395   6.457   4.879   6.553  0.3084 -0.9828  0.1210
12939SOL    HW239396   6.345   4.835   6.646 -0.5211 -0.3790 -0.5811
12940SOL     OW39397   2.431   0.034   2.417  0.4539  0.0043  0.4240
12940SOL    HW139398   2.344  -0.003   2.432  0.2021  0.4856  0.1876
12940SOL    HW239399   2.424   0.078   2.333  1.1458 -0.5842  0.0471
12941SOL     OW39400   2.567   6.007   0.286  0.2492 -0.7262  0.0650
12941SOL    HW139401   2.567   6.103   0.283 -0.9925 -0.5622  2.6519
12941SOL    HW239402   2.594   5.980   0.198  0.9303  1.9790 -0.6423
12942SOL     OW39403   0.504   6.673   0.649  0.1467  0.0775  0.5321
12942SOL    HW139404   0.485   6.766   0.637 -1.0544 -0.2299 -0.0464
12942SOL    HW239405   0.576   6.672   0.712  1.4152  1.4563 -0.8081
12943SOL     OW39406   2.863   5.098   4.746 -0.2979 -0.0738 -0.2155
12943SOL    HW139407   2.786   5.108   4.689 -1.2727 -0.0109  1.0617
12943SOL    HW239408   2.937   5.112   4.688 -1.2944  2.0397 -1.1069
12944SOL     OW39409   1.612   9.316   4.391  0.7139 -0.0802 -0.6810
12944SOL    HW139410   1.590   9.252   4.323  0.2097 -0.7707  0.1226
12944SOL    HW239411   1.651   9.389   4.343 -0.1395 -0.3170 -1.7731
12945SOL     OW39412   6.043   7.842   2.190  0.2884 -0.2971 -0.2372
12945SOL    HW139413   6.049   7.751   2.221 -1.1419 -0.0740  0.8301
12945SOL    HW239414   5.999   7.888   2.261 -2.9969  0.3023 -2.4397
12946SOL     OW39415   5.719   4.674   8.231 -0.5612 -0.3057 -0.4998
12946SOL    HW139416   5.808   4.665   8.264  0.3643  0.1964 -2.6890
12946SOL    HW239417   5.729   4.679   8.136 -2.5904  2.9592 -0.6927
12947SOL     OW39418   3.117   2.084   3.389 -0.2835 -0.0215 -0.2081
12947SOL    HW139419   3.193   2.095   3.333  0.0772  1.3910  0.5013
12947SOL    HW239420   3.071   2.168   3.384 -0.2009  0.1820  1.6222
12948SOL     OW39421   2.918   3.987   5.783  0.6774 -0.6064 -0.2392
12948SOL    HW139422   2.998   3.981   5.731  0.6414 -0.6659 -0.2879
12948SOL    HW239423   2.924   3.915   5.845  1.0125 -0.1689  0.2481
12949SOL     OW39424   2.159   3.695   2.381  0.3402  0.1253  0.6180
12949SOL    HW139425   2.163   3.617   2.326 -2.7886 -0.1646  0.5779
12949SOL    HW239426   2.162   3.768   2.320  0.2226 -0.0879  0.3570
12950SOL     OW39427   2.619   8.642   4.984  0.0760 -0.0820  0.1159
12950SOL    HW139428   2.595   8.731   5.009  0.4733  0.0453  0.0595
12950SOL    HW239429   2.704   8.652   4.941 -0.7091 -0.2661 -1.5317
12951SOL     OW39430   0.425   5.331   2.578 -0.1916  0.0896  0.4713
12951SOL    HW139431   0.369   5.337   2.501  0.4923  0.0239 -0.0396
12951SOL    HW239432   0.380   5.270   2.636 -0.5446 -0.1148 -0.0172
12952SOL     OW39433   2.954   6.095   6.658 -0.3637  0.1496 -0.0708
12952SOL    HW139434   2.874   6.058   6.622  0.1153 -0.9227 -0.0635
12952SOL    HW239435   2.976   6.167   6.599 -0.1786 -0.9015 -1.3313
12953SOL     OW39436   0.812   6.114   8.913 -0.3050 -0.0829  0.1870
12953SOL    HW139437   0.902   6.117   8.878  0.6365  0.0706  2.4600
12953SOL    HW239438   0.794   6.021   8.922 -0.3911 -0.1151 -0.2775
12954SOL     OW39439   7.202   5.878   1.650 -0.2903 -0.0788  0.0558
12954SOL    HW139440   7.168   5.966   1.633 -0.8585 -0.0104  1.3737
12954SOL    HW239441   7.156   5.850   1.729  0.0349 -1.4891 -0.2257
12955SOL     OW39442   2.079   8.690   5.713  0.5014 -0.0381 -0.3088
12955SOL    HW139443   2.045   8.779   5.717  0.8482  0.2254 -2.1307
12955SOL    HW239444   2.168   8.699   5.680 -0.1145 -1.1050 -2.5422
12956SOL     OW39445   7.941   5.521   0.715  0.4045  0.4128 -0.2474
12956SOL    HW139446   7.983   5.521   0.628  1.4593 -0.2556  0.2365
12956SOL    HW239447   7.980   5.596   0.760 -0.7753  1.2828 -0.6108
12957SOL     OW39448   8.469   7.719   6.572 -0.0440 -0.2555 -0.7035
12957SOL    HW139449   8.418   7.692   6.495 -0.2176 -2.0261 -0.0176
12957SOL    HW239450   8.483   7.637   6.621 -0.4699  0.9055  1.4681
12958SOL     OW39451   9.113   7.602   6.661 -0.0513 -0.0561  0.2668
12958SOL    HW139452   9.161   7.584   6.742  0.4151  0.0724  0.0203
12958SOL    HW239453   9.060   7.679   6.681  1.0946  0.8202  0.0389
12959SOL     OW39454   6.667   3.812   0.998  0.1627 -0.0850 -0.2358
12959SOL    HW139455   6.742   3.870   1.014  0.3076  0.0139 -1.2125
12959SOL    HW239456   6.608   3.864   0.944 -0.2075 -0.4645 -0.1970
12960SOL     OW39457   9.627   7.490   1.259 -0.2160  0.0533 -0.1664
12960SOL    HW139458   9.716   7.477   1.291 -0.5133  0.7146  0.9664
12960SOL    HW239459   9.639   7.510   1.166  1.0050  2.1891  0.3832
12961SOL     OW39460   3.248   9.258   8.204 -0.1322  0.4815 -0.6915
12961SOL    HW139461   3.156   9.240   8.189  0.5639 -2.7882 -1.9238
12961SOL    HW239462   3.276   9.190   8.266  1.2371  2.1428  0.6291
12962SOL     OW39463   5.397   7.956   5.044  0.3601  0.1688 -0.5893
12962SOL    HW139464   5.310   7.960   5.004  0.1884 -0.5491 -0.3046
12962SOL    HW239465   5.454   8.000   4.981 -0.3033  1.2270 -0.4876
12963SOL     OW39466   0.178   5.495   3.000 -0.6025 -0.3735 -0.4218
12963SOL    HW139467   0.250   5.435   3.015 -1.2212 -0.9642  0.2307
12963SOL    HW239468   0.220   5.575   2.968  0.3824 -0.5260  0.4381
12964SOL     OW39469   2.884   7.361   4.045  0.4068  0.1251 -0.2486
12964SOL    HW139470   2.938   7.377   4.122 -0.7243 -1.0620  0.8350
12964SOL    HW239471   2.942   7.315   3.984  1.1317  0.4998  0.1520
12965SOL     OW39472   3.909   5.409   7.563 -0.0337 -0.5850 -0.3673
12965SOL    HW139473   3.975   5.416   7.494 -0.2403  0.6737 -0.4600
12965SOL    HW239474   3.945   5.459   7.636 -1.6611  1.8631 -1.0819
12966SOL     OW39475   0.938   2.308   0.283  0.4983 -0.3958 -0.6605
12966SOL    HW139476   0.891   2.253   0.221 -2.2356  0.2104  0.7040
12966SOL    HW239477   0.982   2.246   0.342  0.3803 -1.0165 -1.2107
12967SOL     OW39478   6.829   6.659   9.578  0.1331  0.2389  0.0457
12967SOL    HW139479   6.878   6.707   9.511  2.4610 -0.9067  0.8133
12967SOL    HW239480   6.780   6.592   9.529 -0.7759  1.4479 -0.7482
12968SOL     OW39481   5.717   1.563   9.861  0.0686 -0.0461  0.0315
12968SOL    HW139482   5.668   1.485   9.836  1.3777 -0.7458 -0.4360
12968SOL    HW239483   5.681   1.632   9.805 -1.4848 -0.1533  0.8409
12969SOL     OW39484   4.818   5.736   7.252  0.3386 -0.2179  0.2248
12969SOL    HW139485   4.744   5.780   7.211  0.1938 -1.1367 -0.5189
12969SOL    HW239486   4.780   5.690   7.327  0.6802  1.8578  1.7510
12970SOL     OW39487   3.494   0.011   5.308 -0.0676 -0.5559  0.1836
12970SOL    HW139488   3.495   0.071   5.383  1.9300  0.0267 -0.2277
12970SOL    HW239489   3.407   0.021   5.270 -0.1862  1.2205  0.8351
12971SOL     OW39490   9.152   7.529   8.880  0.2704  0.1350 -0.6667
12971SOL    HW139491   9.069   7.526   8.927  0.5115 -0.5218 -0.2624
12971SOL    HW239492   9.183   7.619   8.891  0.2984  0.0054  0.3933
12972SOL     OW39493   8.208   0.936   2.709  0.0447 -0.2962  0.4311
12972SOL    HW139494   8.300   0.921   2.731  0.0106  0.1046  0.8728
12972SOL    HW239495   8.197   0.896   2.623  0.2600 -1.6457  1.0121
12973SOL     OW39496   2.497   3.036   7.813 -0.5056  0.1706  0.0846
12973SOL    HW139497   2.484   2.950   7.773  0.4060  0.6008 -1.1916
12973SOL    HW239498   2.435   3.093   7.769 -0.2430  0.4265  0.0419
12974SOL     OW39499   9.285   8.422   7.078  0.9010 -0.1310 -0.3361
12974SOL    HW139500   9.358   8.364   7.102  1.1446  0.6235  0.8234
12974SOL    HW239501   9.325   8.508   7.067  0.4041  0.0014 -1.1501
12975SOL     OW39502   8.485   8.712   8.680 -0.2880  0.1141  0.5057
12975SOL    HW139503   8.572   8.735   8.646 -0.9630  1.4992 -0.3745
12975SOL    HW239504   8.478   8.618   8.663  0.1934  0.3802 -1.4546
12976SOL     OW39505   6.877   6.776   7.339 -0.2012  0.6976 -0.1655
12976SOL    HW139506   6.812   6.795   7.407 -0.6859  1.3333 -0.7981
12976SOL    HW239507   6.960   6.774   7.386 -0.6690 -0.3047  0.6922
12977SOL     OW39508   2.228   5.072   8.158  0.0915  0.1348  0.5006
12977SOL    HW139509   2.199   5.026   8.237 -0.3232  1.2819  1.0505
12977SOL    HW239510   2.230   5.164   8.184 -0.3793  0.5770 -0.9223
12978SOL     OW39511   3.832   0.397   0.546  0.2491 -0.1107  0.2151
12978SOL    HW139512   3.752   0.445   0.525  0.7574  0.7198  0.0935
12978SOL    HW239513   3.818   0.309   0.511 -0.3851  0.1838 -0.2940
12979SOL     OW39514   9.430   7.245   8.765 -0.3396 -0.1530  0.0008
12979SOL    HW139515   9.525   7.239   8.750 -0.1597 -0.1991  1.0734
12979SOL    HW239516   9.407   7.332   8.733  0.2117  0.1613  0.4402
12980SOL     OW39517   2.625   9.272   9.565 -0.1390 -0.2452 -0.1423
12980SOL    HW139518   2.574   9.353   9.564 -1.4616 -1.0594 -0.8492
12980SOL    HW239519   2.642   9.256   9.658  0.7633  1.1871 -0.0222
12981SOL     OW39520   4.902   9.093   4.677  0.3506 -0.1128 -0.0214
12981SOL    HW139521   4.874   9.028   4.613 -2.4023  1.3635 -0.4970
12981SOL    HW239522   4.996   9.100   4.665  0.2371 -1.5445 -2.2949
12982SOL     OW39523   1.389   3.130   6.613 -0.1656 -0.2252 -0.0739
12982SOL    HW139524   1.355   3.078   6.540 -3.5889  0.0392  1.1435
12982SOL    HW239525   1.357   3.218   6.597 -0.9693 -0.1515  1.6627
12983SOL     OW39526   5.713   0.439   0.616 -0.9650  0.3849  0.0547
12983SOL    HW139527   5.648   0.381   0.658 -0.9061  1.0527  1.0922
12983SOL    HW239528   5.664   0.518   0.595 -0.9769  0.0970 -1.1250
12984SOL     OW39529   5.719   5.510   7.982 -0.4174  0.1233  0.0421
12984SOL    HW139530   5.717   5.571   7.908 -0.3255 -0.9423 -0.8576
12984SOL    HW239531   5.731   5.424   7.943 -1.8971 -0.6619  1.1692
12985SOL     OW39532   0.854   2.811   7.361  0.3759  0.2974  0.2169
12985SOL    HW139533   0.929   2.860   7.326 -0.3843  0.9600 -0.5242
12985SOL    HW239534   0.779   2.868   7.347 -0.3090 -0.4495  0.7497
12986SOL     OW39535   3.680   6.627   2.393 -0.2690 -0.2865 -0.2250
12986SOL    HW139536   3.619   6.631   2.466 -0.2180  1.3545 -0.2237
12986SOL    HW239537   3.757   6.581   2.428 -1.1108 -1.5220  0.0520
12987SOL     OW39538   8.969   9.233   4.073 -0.2087  0.2193 -0.3139
12987SOL    HW139539   8.999   9.324   4.075 -1.2581  0.6082 -1.2206
12987SOL    HW239540   9.041   9.185   4.032 -0.6191  1.0812 -2.1699
12988SOL     OW39541   2.171   4.059   8.673  0.5272 -0.0548 -0.2321
12988SOL    HW139542   2.090   4.085   8.631  0.3443  2.6479  1.5282
12988SOL    HW239543   2.146   4.037   8.763  1.3103 -2.7839 -0.5735
12989SOL     OW39544   5.778   6.488   0.104 -0.3928 -0.0088 -0.1619
12989SOL    HW139545   5.785   6.578   0.072 -1.0490  0.6334  1.3774
12989SOL    HW239546   5.705   6.491   0.166  1.7460 -0.7802  2.5564
12990SOL     OW39547   1.651   8.139   8.847  0.3054  0.1691 -0.1551
12990SOL    HW139548   1.591   8.169   8.779 -1.1399 -1.6125  0.2500
12990SOL    HW239549   1.635   8.198   8.921 -1.6266 -0.7707  0.2364
12991SOL     OW39550   9.638   4.251   2.048  0.1165 -0.3744  0.4906
12991SOL    HW139551   9.660   4.270   2.139  1.3794  0.2760  0.0673
12991SOL    HW239552   9.694   4.309   1.997 -0.8656 -0.4378 -0.7039
12992SOL     OW39553   9.977   9.415   2.755  0.4348 -0.6497 -0.5908
12992SOL    HW139554   9.988   9.507   2.781 -0.0557 -0.8695  0.4292
12992SOL    HW239555   9.897   9.387   2.798 -1.7711 -0.4149 -4.1937
12993SOL     OW39556   3.368   8.682   9.044 -0.0638  0.0832 -0.8255
12993SOL    HW139557   3.300   8.689   8.976  0.1652 -0.3406 -1.0988
12993SOL    HW239558   3.325   8.636   9.116 -0.1099 -0.0643 -0.9458
12994SOL     OW39559   0.165   7.638   5.823  0.2185 -0.2081  0.0949
12994SOL    HW139560   0.128   7.699   5.888 -1.4121 -0.6052 -0.4250
12994SOL    HW239561   0.126   7.665   5.740 -0.3399 -1.8048 -0.1836
12995SOL     OW39562   8.127   9.536   6.290  0.4024  0.8410 -0.0415
12995SOL    HW139563   8.117   9.488   6.372 -1.2603  1.3366  0.0945
12995SOL    HW239564   8.046   9.517   6.241 -0.0579  3.0181 -0.2106
12996SOL     OW39565   2.739   8.527   6.494 -0.2923  0.1554 -0.3772
12996SOL    HW139566   2.710   8.554   6.582  0.8477 -1.1371  0.4430
12996SOL    HW239567   2.767   8.436   6.505  1.6326  0.5300 -1.6535
12997SOL     OW39568   1.887   2.042   9.527  0.2350 -0.5640  0.0249
12997SOL    HW139569   1.910   2.135   9.517  1.9805 -0.9013  0.6509
12997SOL    HW239570   1.872   2.031   9.620 -2.1953 -0.4762 -0.2832
12998SOL     OW39571   5.954   7.132   1.908  0.2127 -0.2903 -0.0891
12998SOL    HW139572   5.968   7.121   1.814  0.4718 -0.5215 -0.0244
12998SOL    HW239573   6.015   7.201   1.934 -0.7811  0.6972 -0.3285
12999SOL     OW39574   8.517   9.558   5.237 -0.1321 -0.1723  0.3481
12999SOL    HW139575   8.543   9.535   5.148  0.5501  0.8130  0.2862
12999SOL    HW239576   8.590   9.529   5.292 -0.8354 -1.3893  0.6892
13000SOL     OW39577   6.139   4.337   2.362  0.0012 -0.2990  0.3400
13000SOL    HW139578   6.106   4.256   2.324  0.0455  0.2926 -1.0318
13000SOL    HW239579   6.159   4.393   2.286 -0.8500  1.3219  1.2447
13001SOL     OW39580   7.992   1.179   2.123 -0.0636 -0.1021  0.1820
13001SOL    HW139581   8.066   1.220   2.077  1.1957 -2.0394  0.3753
13001SOL    HW239582   7.954   1.119   2.058 -0.1790 -0.6131  0.7136
13002SOL     OW39583   1.409   7.662   0.911  0.3408 -0.2504 -0.3557
13002SOL    HW139584   1.331   7.617   0.944 -0.1449  1.1978  0.6308
13002SOL    HW239585   1.393   7.754   0.932  2.6502  0.0085  0.5850
13003SOL     OW39586   8.584   2.969   3.253  0.3104  0.5990 -0.3921
13003SOL    HW139587   8.604   3.039   3.314 -0.3689 -0.1933  0.7673
13003SOL    HW239588   8.659   2.967   3.193  1.0105  1.3528  0.4478
13004SOL     OW39589   7.697   8.215   8.430  0.0358 -0.2828  0.2046
13004SOL    HW139590   7.678   8.217   8.524 -0.2406 -0.9934  0.1669
13004SOL    HW239591   7.777   8.267   8.421 -0.9909  1.4653  0.5775
13005SOL     OW39592   5.247   6.662   0.069 -0.0082  0.0304  0.3288
13005SOL    HW139593   5.201   6.691  -0.010 -0.5476 -1.0650  0.2313
13005SOL    HW239594   5.192   6.694   0.141  0.1092  0.4034  0.2588
13006SOL     OW39595   4.997   9.626   6.610 -0.4293  0.0962 -0.2862
13006SOL    HW139596   4.923   9.570   6.633 -0.3615 -0.4581 -1.3314
13006SOL    HW239597   5.071   9.566   6.603 -0.3230  0.3288 -1.2827
13007SOL     OW39598   0.260   9.791   0.580  0.4265 -0.2888 -0.4100
13007SOL    HW139599   0.352   9.788   0.609  0.3167  1.0907  0.1565
13007SOL    HW239600   0.227   9.874   0.614 -2.1313 -2.3091  2.6354
13008SOL     OW39601   5.582   2.784   5.242 -0.3360  0.0574  0.2761
13008SOL    HW139602   5.636   2.761   5.317 -1.2700 -0.2185  0.8926
13008SOL    HW239603   5.494   2.753   5.266 -0.6403 -0.0743 -0.9512
13009SOL     OW39604   5.131   4.365   3.343  0.1498  0.1082  0.2541
13009SOL    HW139605   5.053   4.334   3.298  0.1197  0.8568 -0.2280
13009SOL    HW239606   5.109   4.454   3.370  0.8782  0.3720  0.0019
13010SOL     OW39607   0.570   3.291   8.125 -0.0514  0.0788 -0.2662
13010SOL    HW139608   0.626   3.243   8.186 -0.8988 -1.4830 -0.6721
13010SOL    HW239609   0.482   3.257   8.141 -0.6077  1.1480 -0.9378
13011SOL     OW39610   1.053   2.865   2.528 -0.0338  0.5710  0.5864
13011SOL    HW139611   1.040   2.850   2.435  1.1625  0.2460  0.4542
13011SOL    HW239612   0.968   2.850   2.568 -0.1885 -0.9430 -0.2485
13012SOL     OW39613   7.111   4.141   2.856  0.4437 -0.2090 -0.1247
13012SOL    HW139614   7.194   4.160   2.900  0.4414  0.5509 -0.4382
13012SOL    HW239615   7.045   4.186   2.908  0.1503 -1.2651  0.4405
13013SOL     OW39616   8.987   0.135   2.191 -0.0226 -0.4023  0.5934
13013SOL    HW139617   8.962   0.049   2.225  1.4757 -0.1457  2.5359
13013SOL    HW239618   8.962   0.132   2.099  0.1917 -3.0252  0.5345
13014SOL     OW39619   9.133   3.319   9.071 -0.2922  1.3113 -0.1987
13014SOL    HW139620   9.053   3.284   9.110 -0.1166 -0.2963 -1.2001
13014SOL    HW239621   9.119   3.414   9.068 -1.4030  1.2136  1.2605
13015SOL     OW39622   2.720   7.280   4.376 -0.6256  0.6009 -0.0095
13015SOL    HW139623   2.752   7.206   4.325  0.7914  2.0641 -1.3870
13015SOL    HW239624   2.734   7.255   4.467 -0.3568 -0.8734 -0.4373
13016SOL     OW39625   4.696   0.292   6.057  0.8702  0.0776  0.2406
13016SOL    HW139626   4.612   0.281   6.102 -0.3236 -0.1587 -1.9189
13016SOL    HW239627   4.716   0.385   6.067 -0.3867  0.4455 -0.4088
13017SOL     OW39628   4.238   2.353   5.911  0.2025 -0.5303  0.2692
13017SOL    HW139629   4.267   2.432   5.865  0.9104  0.3652  2.1476
13017SOL    HW239630   4.298   2.345   5.985 -1.2441 -1.5465  1.3929
13018SOL     OW39631   1.201   5.915   5.998 -0.6058  0.3090  0.0515
13018SOL    HW139632   1.202   6.010   5.992  0.5806  0.2587 -0.9788
13018SOL    HW239633   1.114   5.889   5.967 -1.0461  1.0577  0.6370
13019SOL     OW39634   6.985   7.464   4.948  0.3019 -0.5794 -0.3453
13019SOL    HW139635   7.007   7.536   5.006  0.9977 -0.8487 -0.2644
13019SOL    HW239636   6.917   7.499   4.889  0.2767 -0.0261  0.0177
13020SOL     OW39637   3.924   0.686   1.697 -0.6354 -0.4452  0.1300
13020SOL    HW139638   3.913   0.629   1.773 -0.4890  1.9595  2.1035
13020SOL    HW239639   3.934   0.774   1.735 -2.8047  1.2175 -2.7469
13021SOL     OW39640   5.992   8.199   8.076  0.0130  0.1919  0.3485
13021SOL    HW139641   6.055   8.185   8.005 -1.0855 -2.1159 -0.2700
13021SOL    HW239642   5.934   8.267   8.044 -0.2774 -0.6045 -0.8881
13022SOL     OW39643   2.076   8.564   6.087  0.0929  0.2400 -0.1412
13022SOL    HW139644   2.016   8.490   6.092  0.0788  0.1959 -0.8870
13022SOL    HW239645   2.116   8.558   6.000 -0.9214  1.8604 -0.7825
13023SOL     OW39646   0.627   6.551   4.490  0.1995  0.5189 -0.2594
13023SOL    HW139647   0.715   6.532   4.458  0.0357  0.9351 -1.0035
13023SOL    HW239648   0.592   6.613   4.426 -0.6038  0.4193  0.0740
13024SOL     OW39649   9.208   6.540   3.822 -0.1921  0.2071  0.0060
13024SOL    HW139650   9.139   6.482   3.856  0.4441 -0.4675  0.1736
13024SOL    HW239651   9.164   6.591   3.754 -0.9630  0.0870  0.3955
13025SOL     OW39652   7.870   5.572   3.193 -0.7875 -0.0160 -0.0936
13025SOL    HW139653   7.892   5.658   3.228 -0.9579 -0.0669  0.1339
13025SOL    HW239654   7.955   5.533   3.171 -0.6354 -0.2394  0.8466
13026SOL     OW39655   0.958   0.711   1.443 -0.0858  0.2073 -0.1673
13026SOL    HW139656   1.017   0.636   1.454 -0.3272 -0.0581 -0.6446
13026SOL    HW239657   0.880   0.674   1.401  1.4447  1.3747 -4.5842
13027SOL     OW39658   2.609   0.310   2.320  0.4211  0.5577  0.1176
13027SOL    HW139659   2.632   0.298   2.228  0.2450  0.8788  0.0298
13027SOL    HW239660   2.517   0.285   2.326  0.4562  0.4522  0.2234
13028SOL     OW39661   3.733   7.824   2.940  0.2912 -0.3788  0.2820
13028SOL    HW139662   3.729   7.866   3.026 -0.2348  0.4101 -0.1230
13028SOL    HW239663   3.643   7.828   2.907  1.0590  2.5611 -1.8197
13029SOL     OW39664   3.076   1.516   8.809 -0.3815 -0.0674  0.2143
13029SOL    HW139665   3.007   1.468   8.854 -0.0780 -1.9294 -1.1726
13029SOL    HW239666   3.150   1.514   8.870 -0.8236 -0.0899  0.7596
13030SOL     OW39667   1.074   1.575   7.644 -0.5687  0.3478  0.0206
13030SOL    HW139668   1.122   1.618   7.715 -1.8825  1.2376  0.3988
13030SOL    HW239669   1.130   1.501   7.619  1.3168  1.7054 -0.0164
13031SOL     OW39670   0.332   1.626   8.896 -0.0306  0.5504 -0.8922
13031SOL    HW139671   0.237   1.617   8.890  0.0612 -0.7175 -0.6318
13031SOL    HW239672   0.362   1.625   8.805 -0.1967  0.1014 -0.9437
13032SOL     OW39673   9.898   7.703   6.440  0.2673 -0.2426  0.0160
13032SOL    HW139674   9.972   7.749   6.400  0.1854 -1.2753 -1.4089
13032SOL    HW239675   9.938   7.638   6.497  0.5389 -1.6477 -1.7096
13033SOL     OW39676   4.703   0.501   6.362  0.2077  0.1740 -1.0411
13033SOL    HW139677   4.612   0.524   6.343 -0.7692 -0.3055  2.4181
13033SOL    HW239678   4.754   0.562   6.308 -2.1938  2.6314 -0.7839
13034SOL     OW39679   5.217   0.851   7.708  0.0756  0.4584  0.4523
13034SOL    HW139680   5.165   0.781   7.669  0.7711  0.0861  0.1655
13034SOL    HW239681   5.255   0.898   7.633  0.7792  0.2334  0.6615
13035SOL     OW39682   5.195   2.056   2.619  0.8466  0.3952  0.1641
13035SOL    HW139683   5.168   2.131   2.566  0.0845 -0.0782 -0.1355
13035SOL    HW239684   5.291   2.062   2.622  0.7615  1.7164  0.6600
13036SOL     OW39685   5.001   7.856   0.151 -1.0279 -0.5812  0.5420
13036SOL    HW139686   5.049   7.936   0.129  0.3066 -1.7755 -1.1639
13036SOL    HW239687   4.918   7.864   0.105 -0.6399 -0.4377 -0.1462
13037SOL     OW39688   6.371   7.970   4.440 -0.4089  0.1946 -0.2397
13037SOL    HW139689   6.345   8.021   4.517  3.4246 -1.2084  2.2853
13037SOL    HW239690   6.384   7.881   4.473 -2.6997 -1.6286 -3.5873
13038SOL     OW39691   3.706   3.378   5.053 -0.3906 -0.1228 -0.2806
13038SOL    HW139692   3.766   3.339   5.116 -1.1241  0.7707  1.0371
13038SOL    HW239693   3.753   3.455   5.020 -0.3951 -0.0141 -0.0376
13039SOL     OW39694   4.303   9.822   0.689  0.1400  0.4411 -0.0578
13039SOL    HW139695   4.330   9.738   0.725  0.1799  0.4157 -0.1470
13039SOL    HW239696   4.333   9.820   0.598 -0.2188  0.3913 -0.1737
13040SOL     OW39697   5.496   6.815   9.797  0.1234  0.0514  0.0650
13040SOL    HW139698   5.410   6.812   9.753 -0.1362  0.0645  0.5660
13040SOL    HW239699   5.537   6.894   9.762  0.1792 -0.2696 -0.6236
13041SOL     OW39700   3.496   0.617   8.848  0.4706 -0.3073  0.0527
13041SOL    HW139701   3.462   0.528   8.861 -1.7757  0.3324 -1.1034
13041SOL    HW239702   3.524   0.645   8.935  0.4517 -1.8281  0.5738
13042SOL     OW39703   8.194   0.585   8.931 -0.1785 -0.0718 -0.0476
13042SOL    HW139704   8.272   0.639   8.947 -0.2983  1.0054 -2.6613
13042SOL    HW239705   8.229   0.497   8.920  0.8169  0.4692 -1.6700
13043SOL     OW39706   2.064   2.280   1.865 -0.0273  0.3810  0.0609
13043SOL    HW139707   2.139   2.334   1.889 -0.5245  1.5831 -0.9745
13043SOL    HW239708   2.102   2.200   1.830  0.7177 -0.1878  2.0386
13044SOL     OW39709   7.504   4.385   5.140 -0.0828 -0.5562  0.1502
13044SOL    HW139710   7.525   4.399   5.048 -0.1549 -0.1020  0.2022
13044SOL    HW239711   7.589   4.392   5.185  0.0045 -1.1132  0.0846
13045SOL     OW39712   0.828   1.434   8.477 -0.0789  0.0993 -0.0048
13045SOL    HW139713   0.781   1.420   8.395  0.8025 -1.1502 -0.3196
13045SOL    HW239714   0.891   1.504   8.457 -0.9682  0.9461  0.0889
13046SOL     OW39715   2.380   9.087   1.264 -0.1511 -0.5253 -0.0302
13046SOL    HW139716   2.366   9.088   1.359  2.7762  0.9365  0.5079
13046SOL    HW239717   2.426   9.005   1.248  1.4710  0.2696  0.2863
13047SOL     OW39718   4.902   1.782   1.382 -0.2624 -0.1721  0.2158
13047SOL    HW139719   4.990   1.818   1.395 -0.5326  0.1024  1.4075
13047SOL    HW239720   4.843   1.848   1.420 -0.9015 -0.8588  0.4398
13048SOL     OW39721   0.198   4.685   4.116  0.3522 -0.1738 -0.6939
13048SOL    HW139722   0.125   4.629   4.141  0.2578  0.2382 -0.0073
13048SOL    HW239723   0.274   4.648   4.162 -0.2925  2.1841  2.7041
13049SOL     OW39724   8.385   0.455   3.616 -0.0343  0.0418 -0.2262
13049SOL    HW139725   8.300   0.444   3.661 -0.1203  1.7681  0.1274
13049SOL    HW239726   8.446   0.402   3.667 -0.7299 -0.5161  0.0496
13050SOL     OW39727   5.725   6.855   4.241  0.2938  0.0038 -0.5220
13050SOL    HW139728   5.678   6.772   4.230 -0.2072  0.2767 -0.4604
13050SOL    HW239729   5.801   6.832   4.295 -0.2757 -0.2697  0.1771
13051SOL     OW39730   2.157   9.177   2.812  0.0230  0.1227  0.1507
13051SOL    HW139731   2.247   9.208   2.822  0.0212  0.4957 -0.9168
13051SOL    HW239732   2.102   9.253   2.831 -0.1427 -0.4877  2.3478
13052SOL     OW39733   7.000   1.808   7.870 -0.3894  0.5299  0.5850
13052SOL    HW139734   6.937   1.838   7.935 -0.1404  1.7963  0.2743
13052SOL    HW239735   7.062   1.755   7.920 -0.4717  1.0863  1.3059
13053SOL     OW39736   5.726   6.066   9.086 -0.5214 -0.3718 -0.2853
13053SOL    HW139737   5.725   6.018   9.169 -0.5201 -0.0204 -0.0794
13053SOL    HW239738   5.735   5.998   9.019 -1.4509 -0.7368 -0.0542
13054SOL     OW39739   4.185   4.120   3.418  0.3019 -0.3544 -0.1495
13054SOL    HW139740   4.106   4.112   3.364  0.5814  1.8436 -0.9847
13054SOL    HW239741   4.251   4.155   3.359  0.9900  0.8895  1.2870
13055SOL     OW39742   0.443   9.256   5.947 -0.4869  0.0138 -0.0402
13055SOL    HW139743   0.367   9.233   5.894 -1.1332 -0.8381  1.2070
13055SOL    HW239744   0.425   9.344   5.979  0.3787  0.9713 -1.9893
13056SOL     OW39745   2.215   8.004   8.836  0.3954 -0.4810 -0.0735
13056SOL    HW139746   2.263   8.086   8.823  0.3019 -0.5190 -0.6918
13056SOL    HW239747   2.273   7.950   8.890  0.6844 -0.2076 -0.1073
13057SOL     OW39748   8.516   5.548   9.176  0.1441  0.8289 -0.3479
13057SOL    HW139749   8.577   5.531   9.247 -0.5211  1.8580  0.4885
13057SOL    HW239750   8.443   5.488   9.193  0.7644 -0.2106 -1.1998
13058SOL     OW39751   3.325   9.594   4.803 -0.3751  0.7919  0.1749
13058SOL    HW139752   3.365   9.599   4.717 -0.5084  0.1897  0.0712
13058SOL    HW239753   3.299   9.684   4.824 -2.3806  0.6433 -1.3883
13059SOL     OW39754   7.709   8.288   7.599 -0.0170 -0.0887  0.1267
13059SOL    HW139755   7.748   8.324   7.679 -0.1014 -1.2234  0.6868
13059SOL    HW239756   7.700   8.364   7.541 -1.3636  1.0471  1.7374
13060SOL     OW39757   4.677   9.629   5.203 -0.0662  0.0717 -0.0464
13060SOL    HW139758   4.731   9.561   5.242 -1.3690 -0.5223  0.8047
13060SOL    HW239759   4.599   9.633   5.259 -0.8420  0.9902 -1.1406
13061SOL     OW39760   1.402   9.327   5.447 -0.0651 -0.2022 -0.1441
13061SOL    HW139761   1.450   9.407   5.427 -3.0292  1.3006 -1.8149
13061SOL    HW239762   1.367   9.341   5.535  0.5036 -0.2886  0.1046
13062SOL     OW39763   2.840   4.603   5.717  0.3132 -0.2210 -0.1620
13062SOL    HW139764   2.905   4.565   5.778 -0.1411 -0.4006  0.2175
13062SOL    HW239765   2.891   4.661   5.661  0.6600  0.4037  0.7729
13063SOL     OW39766   2.762   8.814   0.826  0.1388 -0.2873 -0.1746
13063SOL    HW139767   2.802   8.868   0.758 -0.4506 -0.1952 -0.4527
13063SOL    HW239768   2.836   8.765   0.863  0.5137 -0.1155 -0.6687
13064SOL     OW39769   1.730   2.928   8.740 -0.2123 -0.4541  0.5207
13064SOL    HW139770   1.791   2.938   8.812 -0.2682 -1.6362  0.7596
13064SOL    HW239771   1.767   2.980   8.669 -0.2138  0.8040  1.4127
13065SOL     OW39772   9.943   2.782   2.369 -0.4233 -0.6570  0.7054
13065SOL    HW139773   9.957   2.796   2.463 -1.8409  1.5192  0.6409
13065SOL    HW239774   9.959   2.867   2.329 -2.5968 -0.8328 -0.6786
13066SOL     OW39775   4.716   1.582   1.808  0.3115  0.2041 -0.0459
13066SOL    HW139776   4.776   1.656   1.804 -0.6394  0.9757 -0.4001
13066SOL    HW239777   4.696   1.562   1.716 -0.0310  0.0068  0.0691
13067SOL     OW39778   6.517   2.087   2.200  0.5689 -0.3715  0.0874
13067SOL    HW139779   6.565   2.169   2.192  2.1741 -1.2584  0.2897
13067SOL    HW239780   6.436   2.111   2.244  1.6833  0.8695  1.5369
13068SOL     OW39781   2.647   8.378   5.056  0.5163 -0.1862 -0.1311
13068SOL    HW139782   2.716   8.392   5.122  1.9337 -1.4555 -1.2686
13068SOL    HW239783   2.608   8.465   5.043 -0.6069 -0.0407  3.1344
13069SOL     OW39784   3.306   9.411   6.226 -0.0702 -0.2642 -0.1618
13069SOL    HW139785   3.401   9.396   6.222 -0.1002 -1.2388  1.6018
13069SOL    HW239786   3.298   9.504   6.247  0.6202 -0.5494  1.6296
13070SOL     OW39787   8.512   6.986   0.509  0.2980 -0.0429 -0.1291
13070SOL    HW139788   8.513   7.065   0.456  1.2169 -0.1119 -0.2378
13070SOL    HW239789   8.438   6.997   0.569  0.6987  1.1123  0.1701
13071SOL     OW39790   5.614   2.304   6.017  0.1158  0.6411  0.8252
13071SOL    HW139791   5.655   2.285   6.101 -1.4115 -1.5071  1.1462
13071SOL    HW239792   5.674   2.266   5.952 -0.0626 -0.1654  1.1256
13072SOL     OW39793   8.847   2.906   6.602 -0.2897 -0.7283 -0.0015
13072SOL    HW139794   8.861   2.955   6.683 -0.6447 -0.0777 -0.3269
13072SOL    HW239795   8.838   2.815   6.630  3.5893 -1.1469  0.3419
13073SOL     OW39796   4.125   0.241   4.054  0.1073  0.2256 -0.1598
13073SOL    HW139797   4.132   0.320   4.107 -1.7317  1.0452 -1.0571
13073SOL    HW239798   4.150   0.170   4.113  2.7636  1.5036  0.3850
13074SOL     OW39799   6.669   6.308   2.761  0.1230  0.3593 -0.2677
13074SOL    HW139800   6.650   6.282   2.851  0.7117  1.8776  0.3285
13074SOL    HW239801   6.658   6.228   2.710 -0.7834 -0.4031  1.0633
13075SOL     OW39802   0.536   1.401   0.232 -0.6078  0.1533 -0.0922
13075SOL    HW139803   0.524   1.368   0.143 -0.3324  1.5163 -0.6474
13075SOL    HW239804   0.474   1.350   0.285  0.4020 -1.8652 -0.7406
13076SOL     OW39805   3.423   6.402   2.498 -0.3249  0.3743  0.1082
13076SOL    HW139806   3.440   6.486   2.542 -1.2585  0.2441  0.7467
13076SOL    HW239807   3.501   6.350   2.515 -0.5269  0.4511  1.3476
13077SOL     OW39808   6.474   5.867   9.636 -0.4289  0.3253  0.3920
13077SOL    HW139809   6.529   5.935   9.596 -1.1579 -0.1922 -1.6594
13077SOL    HW239810   6.415   5.914   9.695 -1.5053  1.6744 -1.6230
13078SOL     OW39811   2.684   3.223   8.796  0.3602  0.0426 -0.1336
13078SOL    HW139812   2.677   3.128   8.809  2.3609 -0.0807  0.4510
13078SOL    HW239813   2.731   3.232   8.713  1.9824  0.4367  0.7897
13079SOL     OW39814   7.794   3.155   4.091  0.3523  0.3631  0.1365
13079SOL    HW139815   7.718   3.100   4.111  0.7474 -0.0186  0.6006
13079SOL    HW239816   7.791   3.224   4.158 -0.6846  1.4756 -1.0101
13080SOL     OW39817   1.288   9.477   1.829  0.3928  0.1387  0.2566
13080SOL    HW139818   1.371   9.494   1.873 -0.0738 -0.5400  1.4542
13080SOL    HW239819   1.222   9.496   1.896 -0.2761 -3.3539  0.7731
13081SOL     OW39820   5.879   1.107   9.268  0.0574 -0.2931  0.4347
13081SOL    HW139821   5.813   1.096   9.336 -1.4254  0.3863 -0.8391
13081SOL    HW239822   5.838   1.164   9.203  2.8892  2.5733  0.9100
13082SOL     OW39823   3.587   2.060   6.918  0.6268 -0.1097 -0.4061
13082SOL    HW139824   3.568   1.996   6.849 -1.4412  0.1635 -0.1573
13082SOL    HW239825   3.642   2.126   6.876  1.5026 -1.2246 -1.0798
13083SOL     OW39826   6.388   8.629   3.885  0.7129  0.2293  0.1149
13083SOL    HW139827   6.367   8.606   3.794  0.6310 -1.1848  0.4637
13083SOL    HW239828   6.447   8.558   3.914  1.2334  0.9985  0.9750
13084SOL     OW39829   3.070   5.894   0.462 -0.1513 -0.2368  0.0252
13084SOL    HW139830   2.977   5.912   0.471  0.0944  1.7330 -0.9337
13084SOL    HW239831   3.075   5.821   0.400 -1.0185  0.6056 -1.0730
13085SOL     OW39832   7.426   4.890   6.053 -0.4419  0.1150 -0.2979
13085SOL    HW139833   7.391   4.802   6.037 -1.2279  0.4496 -0.4694
13085SOL    HW239834   7.434   4.929   5.966 -1.4674  0.7125 -0.1531
13086SOL     OW39835   5.042   9.263   0.568 -0.5300  0.0263 -0.8110
13086SOL    HW139836   5.069   9.246   0.658 -1.6011 -1.9523 -0.8104
13086SOL    HW239837   4.978   9.194   0.548 -0.6541  0.6692 -2.9417
13087SOL     OW39838   1.395   9.072   9.427  0.1112  0.0636 -0.1435
13087SOL    HW139839   1.418   9.155   9.386  2.3913  0.5929  1.9780
13087SOL    HW239840   1.302   9.081   9.449 -0.0621  1.4101 -1.2911
13088SOL     OW39841   6.953   5.161   1.476 -0.2314  0.2029  0.1590
13088SOL    HW139842   7.045   5.185   1.487 -0.2899  0.6871 -0.3804
13088SOL    HW239843   6.940   5.088   1.537  0.7759 -0.5495 -0.4764
13089SOL     OW39844   5.226   2.812   0.593 -0.0295 -0.7674  0.4240
13089SOL    HW139845   5.263   2.724   0.588  0.7496 -0.4197 -0.1557
13089SOL    HW239846   5.173   2.820   0.514  2.9154  0.5772 -1.5961
13090SOL     OW39847   0.113   6.633   5.696 -0.1966  0.5179  0.5233
13090SOL    HW139848   0.155   6.718   5.685  0.6749  0.1315  0.8425
13090SOL    HW239849   0.174   6.570   5.658 -1.1747  0.0930 -0.4094
13091SOL     OW39850   1.941   7.864   5.324 -0.5595  0.2689 -0.2257
13091SOL    HW139851   1.850   7.882   5.300 -0.9489 -0.9596  0.2400
13091SOL    HW239852   1.976   7.815   5.250 -0.1016  1.1615 -0.6242
13092SOL     OW39853   8.207   6.151   2.377 -0.1801 -0.5379 -0.2809
13092SOL    HW139854   8.198   6.191   2.463  0.0654 -0.2791 -0.3724
13092SOL    HW239855   8.153   6.072   2.381  0.3819 -0.9083  0.3415
13093SOL     OW39856   0.854   9.038   0.699 -0.0042 -0.6045 -0.1208
13093SOL    HW139857   0.769   8.998   0.718 -0.6435 -0.2751 -2.0482
13093SOL    HW239858   0.889   8.985   0.627  0.3085  0.7393 -0.9768
13094SOL     OW39859   1.828   8.078   4.607  0.5646  0.1490 -0.5379
13094SOL    HW139860   1.796   8.001   4.561 -0.1107  1.1624 -1.8312
13094SOL    HW239861   1.865   8.044   4.688 -0.0273 -1.4878 -0.9205
13095SOL     OW39862   1.929   6.283   4.584 -0.3746  0.2745  0.2299
13095SOL    HW139863   2.008   6.312   4.538  0.5766 -1.5028  0.6408
13095SOL    HW239864   1.960   6.218   4.647 -1.8431  1.4891  2.3169
13096SOL     OW39865   0.352   4.788   2.412  0.1973 -0.1043 -0.3400
13096SOL    HW139866   0.420   4.822   2.470  1.8174  0.3052 -2.3462
13096SOL    HW239867   0.397   4.774   2.329 -1.7826 -1.6389 -1.2232
13097SOL     OW39868   3.362   7.081   7.263  0.3866 -0.3737 -0.7586
13097SOL    HW139869   3.382   7.171   7.236 -0.9262 -0.1008 -0.8446
13097SOL    HW239870   3.424   7.064   7.334 -0.0964  0.9997  0.0262
13098SOL     OW39871   9.505   3.441   5.590 -0.4909 -0.4702 -0.0872
13098SOL    HW139872   9.493   3.528   5.630  0.4193 -0.7037  0.7386
13098SOL    HW239873   9.417   3.415   5.564 -0.7846  0.7082 -0.3610
13099SOL     OW39874   7.032   0.189   1.373 -0.3912 -0.6692 -0.1547
13099SOL    HW139875   7.108   0.247   1.369 -0.7394 -0.0468  1.3943
13099SOL    HW239876   7.031   0.144   1.289  1.9289 -0.9867 -0.0794
13100SOL     OW39877   3.842   6.325   1.908 -0.1668 -0.2497  0.4344
13100SOL    HW139878   3.777   6.336   1.838 -1.0324 -1.5078  1.0078
13100SOL    HW239879   3.923   6.301   1.863 -0.2151  0.8092 -0.2542
13101SOL     OW39880   8.168   2.326   4.745 -0.2622  0.6281 -0.5190
13101SOL    HW139881   8.114   2.305   4.821  0.9052  1.3173  0.5338
13101SOL    HW239882   8.210   2.409   4.767 -0.4305  1.2209 -2.2217
13102SOL     OW39883   9.311   7.999   2.967  0.3913 -0.1182 -0.5318
13102SOL    HW139884   9.248   7.939   3.007 -0.0698  0.0098 -1.0563
13102SOL    HW239885   9.341   7.953   2.889 -1.4306  1.0964 -2.0350
13103SOL     OW39886   6.740   7.107   9.882 -0.0041  0.5204 -0.4983
13103SOL    HW139887   6.672   7.159   9.839  0.7363  2.1086  0.1668
13103SOL    HW239888   6.810   7.100   9.816 -0.6961 -0.9650 -1.1203
13104SOL     OW39889   6.785   0.031   2.661  0.1785 -0.0826 -0.0621
13104SOL    HW139890   6.753   0.041   2.750 -0.8115 -1.3573 -0.2466
13104SOL    HW239891   6.766  -0.060   2.638  2.1067 -0.3319 -0.9290
13105SOL     OW39892   0.092   2.391   9.468  0.1085 -0.3611 -0.2008
13105SOL    HW139893   0.029   2.429   9.530 -1.2018 -3.2633  0.3878
13105SOL    HW239894   0.152   2.340   9.523  0.1149 -1.4122 -1.1543
13106SOL     OW39895   5.100   9.927   8.912 -0.4771 -0.0458 -0.5226
13106SOL    HW139896   5.141   9.908   8.828  1.2788 -1.7859  0.6626
13106SOL    HW239897   5.080   9.842   8.950 -2.8366  0.7182  0.1278
13107SOL     OW39898   6.936   5.714   9.035 -0.0625  0.6361 -0.4171
13107SOL    HW139899   6.947   5.740   9.126 -1.7114  1.0934 -0.3271
13107SOL    HW239900   6.849   5.746   9.010 -1.4434 -3.0544 -0.9297
13108SOL     OW39901   4.018   9.462   7.502 -0.0019  0.3565 -0.0798
13108SOL    HW139902   4.067   9.392   7.460 -1.0791 -1.9482  2.2392
13108SOL    HW239903   3.941   9.419   7.539 -1.6652  3.1119 -0.0798
13109SOL     OW39904   8.738   6.087   3.124 -0.1735 -0.3082 -0.1453
13109SOL    HW139905   8.652   6.126   3.141 -0.2899 -1.0630  1.0908
13109SOL    HW239906   8.727   6.042   3.040 -0.4912  0.9563 -0.8078
13110SOL     OW39907   2.973   7.456   6.079 -0.0215  0.4326  0.1864
13110SOL    HW139908   2.994   7.365   6.056 -0.0362  0.6411 -0.6912
13110SOL    HW239909   2.914   7.485   6.009  1.5917  1.7554 -0.6918
13111SOL     OW39910   7.403   8.269   8.328  0.3074 -0.1404 -0.1404
13111SOL    HW139911   7.347   8.330   8.279  0.4794  0.1707  0.0456
13111SOL    HW239912   7.490   8.307   8.323  0.1618  0.4464  1.2639
13112SOL     OW39913   4.380   9.242   9.098 -0.1267  0.1389  0.0777
13112SOL    HW139914   4.383   9.158   9.054 -1.0726  1.2485 -2.2623
13112SOL    HW239915   4.344   9.223   9.185  3.0108 -2.3068  1.0259
13113SOL     OW39916   3.266   7.259   6.389 -0.0705  0.0366 -0.0352
13113SOL    HW139917   3.299   7.262   6.299 -0.4036  2.8029 -0.1579
13113SOL    HW239918   3.323   7.318   6.438 -0.7717 -0.2988  1.2481
13114SOL     OW39919   1.400   4.274   2.106 -0.2539 -0.1119  0.2145
13114SOL    HW139920   1.467   4.218   2.067 -0.6444 -0.6436  0.3102
13114SOL    HW239921   1.448   4.354   2.130  0.5789 -0.8686  1.2044
13115SOL     OW39922   1.335   7.463   0.393  0.4047  0.1028 -0.1569
13115SOL    HW139923   1.396   7.537   0.403 -0.3833  0.5512  1.9124
13115SOL    HW239924   1.372   7.395   0.450 -0.1982 -0.1867 -0.1091
13116SOL     OW39925   1.617   0.443   5.387 -0.3915 -0.3800 -0.1852
13116SOL    HW139926   1.552   0.500   5.430 -0.6597 -0.9834  0.2269
13116SOL    HW239927   1.565   0.372   5.350  0.0641 -1.0785  0.4851
13117SOL     OW39928   1.193   3.280   8.076  0.6283 -0.0240  0.2390
13117SOL    HW139929   1.124   3.214   8.063  1.1284 -0.2827 -1.3452
13117SOL    HW239930   1.269   3.229   8.103  1.0684 -0.1488 -1.1733
13118SOL     OW39931   7.780   8.649   2.656  0.1056 -0.6971 -0.0206
13118SOL    HW139932   7.787   8.697   2.738 -0.0787  0.4112 -0.6340
13118SOL    HW239933   7.791   8.716   2.588 -3.2313 -0.9523 -0.9661
13119SOL     OW39934   2.533   1.728   3.168  0.4500 -0.2282  1.1221
13119SOL    HW139935   2.461   1.680   3.211  0.7905 -1.0397  0.8101
13119SOL    HW239936   2.509   1.820   3.177 -0.9006 -0.4940  0.5738
13120SOL     OW39937   6.225   1.491   4.707  0.3241  0.1285 -0.3564
13120SOL    HW139938   6.220   1.462   4.616  0.9671 -1.2287  0.0114
13120SOL    HW239939   6.318   1.505   4.723  0.0674  2.3213 -0.4460
13121SOL     OW39940   4.192   6.588   7.695 -0.2703 -0.0876 -0.1074
13121SOL    HW139941   4.179   6.670   7.648 -0.7637 -0.8609 -1.3698
13121SOL    HW239942   4.281   6.594   7.730  1.3160 -0.6306 -3.6128
13122SOL     OW39943   8.267   7.425   1.378  0.0861 -0.2645 -0.2135
13122SOL    HW139944   8.269   7.489   1.449  0.6607 -0.6671  0.1304
13122SOL    HW239945   8.348   7.376   1.386  0.9548  0.7375 -2.1239
13123SOL     OW39946   5.940   9.332   2.782 -0.7787 -0.3657  0.3222
13123SOL    HW139947   5.954   9.369   2.694  2.2311 -1.1078  0.3900
13123SOL    HW239948   6.003   9.378   2.838 -0.4379 -2.0875  1.4164
13124SOL     OW39949   4.717   2.841   1.951  0.0551  0.3956  0.2474
13124SOL    HW139950   4.785   2.875   2.010 -0.2529  1.6613 -0.1080
13124SOL    HW239951   4.635   2.878   1.985 -0.8345 -2.6497  1.8838
13125SOL     OW39952   2.445   6.122   7.734  0.1712 -1.2602  0.3162
13125SOL    HW139953   2.530   6.147   7.768 -0.6080  1.6092  0.3832
13125SOL    HW239954   2.462   6.095   7.644  1.0968 -0.0189  0.0960
13126SOL     OW39955   7.495   4.692   7.154 -0.1716  0.0699 -0.2114
13126SOL    HW139956   7.581   4.676   7.115  0.0211  0.5158  0.0295
13126SOL    HW239957   7.433   4.667   7.085  0.1635  0.4021 -0.6401
13127SOL     OW39958   1.428   9.912   1.439  0.2186 -0.0104 -0.2355
13127SOL    HW139959   1.508   9.917   1.387  0.5954  1.7579  0.4495
13127SOL    HW239960   1.369   9.976   1.398 -0.0910  0.1782  0.4903
13128SOL     OW39961   3.134   4.833   4.148  0.2318 -0.0591  0.3344
13128SOL    HW139962   3.197   4.769   4.115 -0.8453 -0.0460 -1.9257
13128SOL    HW239963   3.182   4.882   4.214  2.1219 -0.9866 -0.2859
13129SOL     OW39964   2.256   1.836   7.138 -0.2331  0.1071 -0.0080
13129SOL    HW139965   2.254   1.876   7.225  1.2499  1.7368 -0.6656
13129SOL    HW239966   2.166   1.809   7.122 -1.3694  3.2242  0.4935
13130SOL     OW39967   8.731   4.205   4.199  0.1335  0.2330  0.0744
13130SOL    HW139968   8.781   4.124   4.213  0.5156  0.7347  1.9341
13130SOL    HW239969   8.672   4.210   4.274  0.2842  1.7774  0.1239
13131SOL     OW39970   2.470   8.048   7.801  0.1559  0.2363 -0.1858
13131SOL    HW139971   2.484   8.001   7.883  0.3579  0.4510 -0.0981
13131SOL    HW239972   2.384   8.018   7.771 -0.3006  0.7985  0.5335
13132SOL     OW39973   5.901   0.736   0.254  0.7476  0.7499 -0.4862
13132SOL    HW139974   5.878   0.693   0.336  0.4036 -0.1954 -1.0544
13132SOL    HW239975   5.952   0.813   0.280 -1.1080  1.6370  0.7054
13133SOL     OW39976   3.281   5.324   1.354  0.0939  0.0983  0.4987
13133SOL    HW139977   3.326   5.330   1.269 -0.2935  0.0375  0.2874
13133SOL    HW239978   3.206   5.267   1.337  0.4027 -0.4780  1.0558
13134SOL     OW39979   7.980   7.291   8.716  0.1067 -0.5978  0.0556
13134SOL    HW139980   7.927   7.228   8.764 -0.0511  0.1863  0.9357
13134SOL    HW239981   7.922   7.321   8.645 -0.6295  0.2272  0.9856
13135SOL     OW39982   4.020   6.285   2.475 -0.6159  0.2886  0.5286
13135SOL    HW139983   4.019   6.267   2.569  0.9003 -0.9626  0.3307
13135SOL    HW239984   4.016   6.381   2.469 -1.0550  0.3648  1.8485
13136SOL     OW39985   1.673   6.853   7.011 -0.0665  0.1094  0.0367
13136SOL    HW139986   1.723   6.809   6.943  0.6256  0.5304  0.2673
13136SOL    HW239987   1.598   6.890   6.965  1.3346  1.9730 -0.8800
13137SOL     OW39988   3.204   2.407   8.993 -0.0897  0.6349 -0.0273
13137SOL    HW139989   3.283   2.415   8.939 -0.0599  1.5221  0.1268
13137SOL    HW239990   3.208   2.318   9.029 -0.4060 -0.1673 -1.9021
13138SOL     OW39991   4.909   1.402   3.427  0.7089  0.1896 -0.3502
13138SOL    HW139992   4.855   1.363   3.358 -1.3079 -0.6142  1.5561
13138SOL    HW239993   4.959   1.328   3.463 -0.4982 -0.0386  0.9554
13139SOL     OW39994   5.638   9.536   2.009 -0.4162  0.3990  0.0195
13139SOL    HW139995   5.643   9.456   2.062  0.8830  0.7928  0.5386
13139SOL    HW239996   5.585   9.596   2.061 -0.3924  0.2783  0.1846
13140SOL     OW39997   5.494   6.678   7.738 -0.0186  0.4127 -0.5282
13140SOL    HW139998   5.413   6.719   7.768  0.5746  0.7722  0.6489
13140SOL    HW239999   5.523   6.626   7.813  0.4427 -0.3386 -1.2103
13141SOL     OW40000   3.889   3.563   6.659  0.2237 -0.7608  0.5965
13141SOL    HW140001   3.825   3.503   6.623 -0.8780  0.7942 -0.1634
13141SOL    HW240002   3.930   3.604   6.583  0.0528  0.3289  1.0582
13142SOL     OW40003   3.799   1.064   4.825 -0.4747  0.6350 -0.7004
13142SOL    HW140004   3.810   1.041   4.917  1.4655  3.8221  0.0616
13142SOL    HW240005   3.877   1.029   4.782 -0.9409 -0.0982 -0.9500
13143SOL     OW40006   1.731   1.912   1.296  0.7826  0.6559 -0.2470
13143SOL    HW140007   1.673   1.838   1.313  1.9427  0.2939  2.7638
13143SOL    HW240008   1.740   1.915   1.201 -1.6993 -1.1463 -0.6171
13144SOL     OW40009   2.420   6.165   8.938 -0.0678 -0.5041 -0.2484
13144SOL    HW140010   2.495   6.146   8.995 -1.9485 -1.2418  2.1623
13144SOL    HW240011   2.415   6.090   8.879  0.9243 -0.5760 -0.2526
13145SOL     OW40012   4.422   2.828   1.433  0.5069 -0.7656 -0.3924
13145SOL    HW140013   4.462   2.832   1.520 -1.6452  1.7693  0.6367
13145SOL    HW240014   4.469   2.893   1.381 -0.5305  0.3656  0.0422
13146SOL     OW40015   0.290   7.203   6.799  0.1420 -0.0165 -0.1781
13146SOL    HW140016   0.260   7.174   6.713  0.9096  0.3745 -0.5910
13146SOL    HW240017   0.210   7.221   6.848 -0.3114 -0.8658 -0.5923
13147SOL     OW40018   0.939   7.400   3.909 -0.2100  0.2933 -0.0597
13147SOL    HW140019   0.920   7.382   4.001  1.4924 -0.1298  0.2346
13147SOL    HW240020   0.978   7.319   3.876  2.9495  1.6429 -0.0368
13148SOL     OW40021   3.246   8.981   3.580 -0.2335 -0.0821 -0.1598
13148SOL    HW140022   3.315   8.987   3.514  1.8538 -3.3396  1.4082
13148SOL    HW240023   3.237   9.070   3.613  3.0124  0.6218 -0.7415
13149SOL     OW40024   0.501   4.264   5.260 -0.5747  0.1228  0.4476
13149SOL    HW140025   0.508   4.254   5.355 -0.3936 -0.2006  0.4003
13149SOL    HW240026   0.563   4.333   5.238  1.7492 -1.9372  0.1710
13150SOL     OW40027   5.680   3.646   5.994 -0.3304  0.0055  0.0890
13150SOL    HW140028   5.725   3.724   5.960 -0.6773 -0.3791 -1.3081
13150SOL    HW240029   5.594   3.648   5.951 -0.0903 -1.5165 -0.4929
13151SOL     OW40030   0.283   6.072   4.394  0.0081 -0.5865 -0.0935
13151SOL    HW140031   0.284   6.084   4.489 -0.4318  3.0512 -0.4072
13151SOL    HW240032   0.192   6.051   4.374 -0.7854  2.2457  0.1024
13152SOL     OW40033   3.584   4.257   1.742 -0.5796 -0.3589  0.3981
13152SOL    HW140034   3.677   4.241   1.726 -1.0110 -1.2936 -1.5101
13152SOL    HW240035   3.540   4.181   1.703 -2.2297  0.9506 -0.3949
13153SOL     OW40036   6.975   3.740   0.134  0.1072 -0.3786 -0.0415
13153SOL    HW140037   7.069   3.737   0.116  0.1895  0.5847  0.1362
13153SOL    HW240038   6.968   3.783   0.219 -0.4684 -1.1264  0.3042
13154SOL     OW40039   8.738   9.885   7.059  0.2343  0.5901 -0.1696
13154SOL    HW140040   8.706   9.886   7.150  0.5534  0.8347 -0.0586
13154SOL    HW240041   8.659   9.895   7.006  0.1113  1.0987  0.1006
13155SOL     OW40042   2.345   0.319   0.643 -0.3659  0.1454  0.0625
13155SOL    HW140043   2.313   0.233   0.669 -2.2179 -0.7332 -4.1928
13155SOL    HW240044   2.288   0.381   0.687 -0.2903 -0.8380  1.6280
13156SOL     OW40045   1.227   3.034   0.032  0.3554 -0.0167 -0.0245
13156SOL    HW140046   1.206   3.033   0.125  1.9239 -0.1978  0.3624
13156SOL    HW240047   1.217   2.942   0.004  1.6354 -0.3201  0.4279
13157SOL     OW40048   2.327   7.347   9.359  0.5440  0.1618  0.0339
13157SOL    HW140049   2.406   7.396   9.335 -0.1405  0.3086 -2.1165
13157SOL    HW240050   2.325   7.274   9.298 -0.0263 -0.9185  1.2964
13158SOL     OW40051   5.826   7.966   4.056 -0.1286 -0.7772 -0.2691
13158SOL    HW140052   5.752   8.011   4.096  0.9979  0.7590  0.1601
13158SOL    HW240053   5.799   7.874   4.053 -1.9152 -0.3046  0.1539
13159SOL     OW40054   7.342   0.779   3.198  0.1660 -0.2086 -0.0477
13159SOL    HW140055   7.271   0.730   3.158 -1.4221  2.0999 -0.2352
13159SOL    HW240056   7.303   0.819   3.276  1.5732  0.2401  0.4665
13160SOL     OW40057   6.702   2.061   1.511 -0.2304 -0.0810 -0.1725
13160SOL    HW140058   6.669   1.971   1.511  0.5972 -0.3969 -0.6139
13160SOL    HW240059   6.721   2.080   1.419 -2.8284  1.4916 -0.4705
13161SOL     OW40060   4.103   1.559   3.291  0.3005  0.1111  0.5153
13161SOL    HW140061   4.061   1.577   3.206  0.3491  0.0490  0.4781
13161SOL    HW240062   4.077   1.469   3.312  0.8526 -0.1215  0.2334
13162SOL     OW40063   0.792   9.031   9.825  0.0519 -0.3019  0.1399
13162SOL    HW140064   0.803   8.944   9.786  1.7784 -0.4769  0.9074
13162SOL    HW240065   0.697   9.040   9.837 -0.1887 -1.9675 -0.2052
13163SOL     OW40066   5.269   1.794   0.217  0.1688  0.2134 -0.1528
13163SOL    HW140067   5.220   1.863   0.261  0.8512  2.1479 -2.2130
13163SOL    HW240068   5.361   1.816   0.231  0.5009 -1.9466  1.5374
13164SOL     OW40069   9.242   6.109   1.826  0.7910  0.2310 -0.4023
13164SOL    HW140070   9.254   6.166   1.750 -1.9307  0.2876 -0.8749
13164SOL    HW240071   9.232   6.022   1.790 -2.3699  0.4839 -0.3947
13165SOL     OW40072   0.587   5.911   5.938  0.2537  0.3252 -0.2995
13165SOL    HW140073   0.609   5.996   5.899 -0.4322  0.7620  0.2283
13165SOL    HW240074   0.538   5.933   6.018 -0.8123 -0.5624 -0.6741
13166SOL     OW40075   0.783   7.637   4.407  0.0562 -0.1592 -0.3549
13166SOL    HW140076   0.733   7.688   4.343 -0.2713  1.1098  0.8835
13166SOL    HW240077   0.801   7.697   4.479  1.9743 -1.0448 -0.0140
13167SOL     OW40078   9.714   6.188   9.573 -0.3044 -0.1539  0.5120
13167SOL    HW140079   9.661   6.115   9.602  0.7010 -1.8652 -1.6395
13167SOL    HW240080   9.788   6.190   9.634 -0.0700 -1.3101  0.2891
13168SOL     OW40081   8.109   0.402   2.819  0.0083 -0.4282 -0.0867
13168SOL    HW140082   8.115   0.471   2.886 -0.8439 -0.9551  0.5472
13168SOL    HW240083   8.015   0.386   2.810  0.1407 -0.6567 -1.1251
13169SOL     OW40084   7.963   0.545   4.985 -0.3194 -0.4574  0.2715
13169SOL    HW140085   8.013   0.626   4.979 -1.2036 -0.0222 -2.1569
13169SOL    HW240086   7.908   0.544   4.907 -2.5312 -1.9633  1.7293
13170SOL     OW40087   6.100   0.237   3.735  0.1691 -0.1778 -0.0619
13170SOL    HW140088   6.091   0.219   3.642  0.1855  0.2784 -0.1512
13170SOL    HW240089   6.013   0.218   3.771 -0.2408  0.9775 -0.3943
13171SOL     OW40090   5.802   6.768   8.092 -0.1273 -0.3916 -0.1930
13171SOL    HW140091   5.710   6.767   8.120  0.1014  1.9679  0.8322
13171SOL    HW240092   5.797   6.788   7.998 -0.6540 -1.2262 -0.3629
13172SOL     OW40093   0.576   7.295   5.590  0.2712  0.5274  0.2937
13172SOL    HW140094   0.616   7.210   5.572 -0.1214  0.0021  1.7505
13172SOL    HW240095   0.648   7.350   5.620  0.0256 -0.3796  2.7919
13173SOL     OW40096   6.461   0.176   0.358  0.1649 -0.2522 -0.3573
13173SOL    HW140097   6.466   0.099   0.414  1.6160  0.6264  0.8087
13173SOL    HW240098   6.545   0.178   0.312 -0.2702  0.0742 -1.1669
13174SOL     OW40099   4.345   0.348   6.363  0.3954  0.3088 -0.3616
13174SOL    HW140100   4.263   0.300   6.370  0.7713 -0.2525  0.3819
13174SOL    HW240101   4.394   0.302   6.294  0.6695 -0.2650  0.2045
13175SOL     OW40102   2.314   4.429   9.720  0.1786  0.0481  0.0017
13175SOL    HW140103   2.325   4.396   9.631 -1.6628  1.0893 -0.6824
13175SOL    HW240104   2.222   4.456   9.724  0.2681  0.1874  2.1732
13176SOL     OW40105   7.618   5.520   3.536 -0.5765  0.2385 -0.0915
13176SOL    HW140106   7.669   5.469   3.473 -2.1377 -1.3461 -0.1725
13176SOL    HW240107   7.617   5.467   3.615 -2.0516  0.2231 -0.0909
13177SOL     OW40108   4.468   3.665   9.719 -1.0981 -0.4068 -0.2516
13177SOL    HW140109   4.409   3.670   9.644 -2.4903 -0.7154  0.7784
13177SOL    HW240110   4.416   3.698   9.793 -0.6709 -2.5209  1.0771
13178SOL     OW40111   4.549   9.205   9.761 -0.3055 -0.6392  0.0838
13178SOL    HW140112   4.588   9.138   9.705  0.1832 -0.7888  0.5998
13178SOL    HW240113   4.536   9.162   9.845 -1.6024 -0.5899 -0.0817
13179SOL     OW40114   3.399   3.931   6.697 -0.1378  0.7012  0.0679
13179SOL    HW140115   3.412   4.020   6.665  0.0818  0.0413 -1.8296
13179SOL    HW240116   3.399   3.877   6.618  1.6932 -1.2276  1.2615
13180SOL     OW40117   2.712   0.146   6.039 -0.1526  0.5718 -0.2422
13180SOL    HW140118   2.739   0.212   5.976  0.2379  1.3239  0.6796
13180SOL    HW240119   2.622   0.169   6.061 -0.3129  0.2675 -0.5670
13181SOL     OW40120   5.002   8.701   3.258 -0.1745 -0.2353 -0.0783
13181SOL    HW140121   4.992   8.748   3.175  0.0077  0.2412  0.1681
13181SOL    HW240122   4.916   8.659   3.272  0.2192 -1.4963 -1.2081
13182SOL     OW40123   7.616   5.091   4.621 -0.1524  0.0497  0.0442
13182SOL    HW140124   7.687   5.098   4.685  0.3384  0.0973 -0.4905
13182SOL    HW240125   7.570   5.175   4.627  0.2373  0.2743 -0.0632
13183SOL     OW40126   4.128   2.052   5.456  0.3680 -0.6120  0.2628
13183SOL    HW140127   4.170   1.967   5.442 -0.0299 -0.6436 -0.9124
13183SOL    HW240128   4.139   2.098   5.373 -1.3836 -0.4015  0.0928
13184SOL     OW40129   0.634   5.402   2.005 -0.2291  0.7763  0.0353
13184SOL    HW140130   0.620   5.479   1.949 -0.4197 -0.3343 -1.5042
13184SOL    HW240131   0.695   5.348   1.956  0.7028  0.3979  1.5773
13185SOL     OW40132   1.837   6.425   2.164 -0.5747 -0.3114 -0.0898
13185SOL    HW140133   1.923   6.466   2.152 -1.2813  0.6735 -2.3859
13185SOL    HW240134   1.847   6.337   2.126 -1.0581  0.5166 -2.2678
13186SOL     OW40135   5.957   1.464   3.749  0.4671 -0.0148  0.3089
13186SOL    HW140136   5.972   1.372   3.769 -0.2414 -0.4774 -1.1531
13186SOL    HW240137   6.043   1.498   3.726  0.6978 -0.3442  0.6623
13187SOL     OW40138   4.454   4.804   6.310 -0.3525 -0.5692  0.5149
13187SOL    HW140139   4.390   4.734   6.325 -1.8556  0.8767  1.1871
13187SOL    HW240140   4.522   4.789   6.375 -0.5092 -1.5564  0.4635
13188SOL     OW40141   0.022   8.544   8.729  0.0085  0.0214 -0.0670
13188SOL    HW140142  -0.053   8.595   8.758  0.0532  0.5757 -0.8855
13188SOL    HW240143   0.047   8.584   8.646  0.7241 -0.6513 -0.1851
13189SOL     OW40144   2.288   5.294   9.362  0.2117 -0.4508  0.0389
13189SOL    HW140145   2.269   5.371   9.416 -1.7261 -0.2053 -0.9095
13189SOL    HW240146   2.225   5.229   9.391  1.3347 -1.4416  0.3036
13190SOL     OW40147   4.847   1.051   6.278 -0.0292 -0.0814  0.1407
13190SOL    HW140148   4.885   1.102   6.349  0.7235  1.8129 -1.5304
13190SOL    HW240149   4.775   1.004   6.319  0.7168  0.4922  2.2602
13191SOL     OW40150   9.720   6.722   4.401  0.3703 -0.1664  0.3182
13191SOL    HW140151   9.789   6.749   4.340  1.0634 -1.2256  0.6027
13191SOL    HW240152   9.662   6.798   4.406  2.0479  1.1596  0.8639
13192SOL     OW40153   3.353   6.768   6.150 -0.0415 -0.3233  0.2538
13192SOL    HW140154   3.320   6.710   6.218 -1.9422 -1.2894 -1.3921
13192SOL    HW240155   3.437   6.799   6.183 -0.6818 -1.0937  2.8053
13193SOL     OW40156   7.822   8.307   5.623  0.2898  0.2715  0.0108
13193SOL    HW140157   7.881   8.279   5.693 -0.0809 -2.5044 -0.6650
13193SOL    HW240158   7.787   8.225   5.588 -3.3319  1.7380 -0.1943
13194SOL     OW40159   9.647   6.651   9.296  0.0726  0.3004  0.2653
13194SOL    HW140160   9.644   6.561   9.327 -1.2516 -0.0431 -0.7623
13194SOL    HW240161   9.623   6.704   9.373 -1.1903 -0.3819  0.3621
13195SOL     OW40162   3.980   8.383   7.299 -0.5456 -0.5075 -0.2326
13195SOL    HW140163   3.977   8.303   7.247  0.6303 -0.2744 -0.6840
13195SOL    HW240164   3.953   8.452   7.238 -0.1411 -0.3652 -0.2481
13196SOL     OW40165   8.854   3.779   5.283  0.3349  0.2853  0.1335
13196SOL    HW140166   8.810   3.696   5.303 -1.4483  1.1252 -0.1136
13196SOL    HW240167   8.869   3.819   5.369  1.1911 -0.2718  0.2523
13197SOL     OW40168   6.220   1.741   7.285  0.0653  0.1778  0.4524
13197SOL    HW140169   6.194   1.686   7.359 -3.3564  0.8696 -0.0684
13197SOL    HW240170   6.261   1.681   7.223  0.7965 -0.8324  1.8613
13198SOL     OW40171   4.869   6.763   5.363  0.5390 -0.4056 -0.1463
13198SOL    HW140172   4.910   6.729   5.443  0.5902 -0.8530 -0.3596
13198SOL    HW240173   4.931   6.828   5.330 -0.3230  1.1356  1.1654
13199SOL     OW40174   0.302   4.205   1.564  0.6838 -0.7320 -0.0497
13199SOL    HW140175   0.314   4.129   1.506  0.2634 -1.4003  0.7188
13199SOL    HW240176   0.357   4.186   1.640  1.1756  0.1094 -0.1842
13200SOL     OW40177   9.538   3.971   6.311 -0.4447  0.3304 -0.7567
13200SOL    HW140178   9.629   3.978   6.282 -0.6601  0.9588 -1.3292
13200SOL    HW240179   9.491   3.940   6.234 -0.7682  0.3384 -0.5648
13201SOL     OW40180   0.087   9.572   1.755 -0.3956  0.3734 -0.1125
13201SOL    HW140181   0.176   9.582   1.721 -0.9950 -1.4443 -2.5172
13201SOL    HW240182   0.099   9.529   1.840  1.0390 -2.0034 -1.4009
13202SOL     OW40183   2.807   0.688   1.022 -0.1782  0.2101  0.5458
13202SOL    HW140184   2.729   0.704   1.075 -0.7577  3.3533 -1.0293
13202SOL    HW240185   2.863   0.763   1.038  0.5896  0.1700 -1.6080
13203SOL     OW40186   7.608   2.702   5.575 -0.3300 -0.2872  0.4311
13203SOL    HW140187   7.560   2.648   5.513 -0.2457  0.6742 -0.4941
13203SOL    HW240188   7.571   2.679   5.660 -1.1319 -0.9179 -0.0730
13204SOL     OW40189   0.376   8.661   7.549  0.0604 -0.0125  0.0345
13204SOL    HW140190   0.451   8.610   7.518  0.3404  0.8739 -0.7976
13204SOL    HW240191   0.411   8.715   7.620  0.4238  0.9549 -0.8480
13205SOL     OW40192   2.099   6.874   1.727 -0.0117  0.3702 -0.2035
13205SOL    HW140193   2.122   6.785   1.753  1.0520  0.8169  0.4601
13205SOL    HW240194   2.122   6.928   1.802 -1.9000  1.0716 -0.0763
13206SOL     OW40195   8.155   2.182   2.852  0.4041  0.3289 -0.1645
13206SOL    HW140196   8.081   2.132   2.888 -0.1279  1.4308  0.3342
13206SOL    HW240197   8.191   2.126   2.784  2.2543 -2.4574  2.8541
13207SOL     OW40198   9.776   6.784   8.703  0.4286  0.2211  0.2686
13207SOL    HW140199   9.773   6.875   8.673  1.9494 -0.0132 -0.6955
13207SOL    HW240200   9.724   6.784   8.784  1.1103  2.1356  0.7677
13208SOL     OW40201   2.659   1.588   8.745  0.9347 -0.9814 -0.3007
13208SOL    HW140202   2.717   1.606   8.672  0.8088  0.9098  0.0072
13208SOL    HW240203   2.615   1.507   8.722  0.7243 -0.3117 -2.4347
13209SOL     OW40204   0.508   4.635   7.038  0.0965  0.5586 -0.0989
13209SOL    HW140205   0.453   4.655   7.114  0.1343  0.4566 -0.0440
13209SOL    HW240206   0.493   4.708   6.978  1.8117  1.8523  0.9605
13210SOL     OW40207   1.515   8.349   9.680  0.3903  0.9515 -0.2505
13210SOL    HW140208   1.515   8.444   9.697  1.4422  1.2033 -1.5550
13210SOL    HW240209   1.517   8.342   9.585  0.3651 -0.3958 -0.1603
13211SOL     OW40210   9.474   7.135   6.349  0.8018 -1.4658  0.0566
13211SOL    HW140211   9.381   7.145   6.373  0.6850  0.6705 -1.1284
13211SOL    HW240212   9.514   7.219   6.371  2.0863 -1.7451 -1.1015
13212SOL     OW40213   8.287   0.867   3.613  0.0988  0.1693 -0.5506
13212SOL    HW140214   8.259   0.948   3.656 -1.5981 -1.0776  0.8224
13212SOL    HW240215   8.213   0.842   3.557  1.0674  0.1402 -1.8687
13213SOL     OW40216   3.052   9.414   3.003 -0.0065  0.3754 -0.0950
13213SOL    HW140217   3.072   9.388   2.913 -0.3533 -0.1519 -0.0246
13213SOL    HW240218   2.989   9.485   2.994  1.7560  1.9967 -0.3203
13214SOL     OW40219   0.192   1.871   9.745  0.2173 -0.6889 -0.7465
13214SOL    HW140220   0.276   1.914   9.727 -0.1014  0.6396  0.6813
13214SOL    HW240221   0.204   1.831   9.831 -0.5293 -0.7291 -0.6605
13215SOL     OW40222   1.661   9.403   8.997 -0.0177  0.7740 -0.1467
13215SOL    HW140223   1.602   9.343   9.042  1.5948 -1.1687 -0.4806
13215SOL    HW240224   1.619   9.489   9.005 -3.0222 -0.5271 -0.6797
13216SOL     OW40225   9.741   8.347   5.917  0.2645  0.7953  0.0752
13216SOL    HW140226   9.661   8.380   5.876 -0.9914 -2.2250 -0.1903
13216SOL    HW240227   9.737   8.380   6.007 -1.6012  0.3026  0.2161
13217SOL     OW40228   7.279   5.649   5.444 -0.0983  0.4159 -0.2381
13217SOL    HW140229   7.188   5.643   5.473 -0.1377  0.9122 -0.2476
13217SOL    HW240230   7.316   5.720   5.497 -0.3886  1.9130 -1.9620
13218SOL     OW40231   2.866   5.566   4.629 -0.2363 -0.3195 -0.2136
13218SOL    HW140232   2.806   5.594   4.699 -1.0748  0.4245 -1.1905
13218SOL    HW240233   2.821   5.493   4.587  0.4150 -0.9758  0.2026
13219SOL     OW40234   4.777   1.160   9.773 -0.0309 -0.4168  0.1326
13219SOL    HW140235   4.777   1.121   9.685  0.9645  1.4688 -0.7735
13219SOL    HW240236   4.734   1.245   9.762 -0.1523 -0.2706  1.5443
13220SOL     OW40237   0.853   2.081   4.502  0.0741  0.5129 -0.4920
13220SOL    HW140238   0.897   2.022   4.563  1.3895 -0.6662 -2.4542
13220SOL    HW240239   0.801   2.023   4.446  1.6898  1.0624 -2.7102
13221SOL     OW40240   4.017   9.322   3.467  0.3393  0.1068 -0.2834
13221SOL    HW140241   3.927   9.351   3.462  0.4877  0.4721 -0.9900
13221SOL    HW240242   4.021   9.268   3.546 -0.7044 -0.6499 -0.7187
13222SOL     OW40243   6.073   7.633   9.672 -0.1646  0.7021 -0.1162
13222SOL    HW140244   6.060   7.540   9.654  0.3474  0.5481  0.2998
13222SOL    HW240245   6.106   7.636   9.762  1.5369  1.1515 -0.7267
13223SOL     OW40246   2.026   5.663   7.247  0.0064 -0.1212  0.0606
13223SOL    HW140247   2.018   5.758   7.241 -0.4034  0.0090  1.9820
13223SOL    HW240248   1.958   5.630   7.189 -0.4121  0.7761  0.0185
13224SOL     OW40249   9.954   0.606   9.837  0.3056 -0.4781  0.2994
13224SOL    HW140250   9.956   0.514   9.864 -1.2941 -0.4836  0.5318
13224SOL    HW240251   9.993   0.606   9.750  3.4377 -0.8081  1.5765
13225SOL     OW40252   8.193   2.830   2.363 -0.0017  0.5309 -0.9833
13225SOL    HW140253   8.129   2.898   2.384  1.0135  1.9180 -2.1737
13225SOL    HW240254   8.179   2.762   2.429 -0.9733  1.9531  0.3303
13226SOL     OW40255   0.546   0.080   4.930  0.3845 -0.3409 -0.4850
13226SOL    HW140256   0.509   0.125   4.854 -1.9537  0.4145  0.9977
13226SOL    HW240257   0.519  -0.011   4.920  2.7124 -0.9538 -2.0355
13227SOL     OW40258   5.164   4.331   7.209  0.3854  0.2637  0.1677
13227SOL    HW140259   5.229   4.275   7.251 -0.2077 -0.6632 -0.1159
13227SOL    HW240260   5.184   4.326   7.116 -0.6685 -0.8258 -0.0243
13228SOL     OW40261   2.356   9.929   9.463  0.0165  0.3375 -0.0383
13228SOL    HW140262   2.365   9.988   9.537 -1.2248  0.0121  0.3821
13228SOL    HW240263   2.437   9.942   9.413  1.6258 -0.5688  2.1709
13229SOL     OW40264   9.223   6.850   8.001 -0.5378 -0.3122 -0.2052
13229SOL    HW140265   9.225   6.755   7.984 -2.4608 -0.4461  0.0326
13229SOL    HW240266   9.182   6.857   8.087 -2.3265  0.7759 -1.0849
13230SOL     OW40267   6.977   1.423   5.675 -0.0737 -0.1795  0.3279
13230SOL    HW140268   6.930   1.352   5.718  0.1881 -0.5723 -0.0198
13230SOL    HW240269   6.914   1.495   5.671 -0.5313 -0.5858  0.1700
13231SOL     OW40270   2.854   3.329   3.829 -0.2443  0.0891 -0.6442
13231SOL    HW140271   2.788   3.260   3.829 -1.5928  1.2091  2.1386
13231SOL    HW240272   2.877   3.340   3.921 -1.6041  4.6108 -0.5851
13232SOL     OW40273   9.456   2.139   5.455 -0.4122  0.6252 -0.0430
13232SOL    HW140274   9.420   2.168   5.371 -0.6708 -0.1932 -0.2282
13232SOL    HW240275   9.551   2.141   5.443 -0.4491  0.4830 -0.3726
13233SOL     OW40276   0.321   4.905   1.882  0.4819 -0.1523 -0.3753
13233SOL    HW140277   0.303   4.963   1.808  1.7990  0.3383 -0.3367
13233SOL    HW240278   0.235   4.871   1.907 -0.0925  0.3806 -1.5426
13234SOL     OW40279   8.427   5.083   1.709  0.2274  0.8524 -0.2628
13234SOL    HW140280   8.439   5.051   1.798 -2.0225 -2.1898 -0.8841
13234SOL    HW240281   8.344   5.132   1.712 -0.0809  0.3777 -0.7177
13235SOL     OW40282   3.480   1.300   9.968  0.0979  0.4361  0.1521
13235SOL    HW140283   3.537   1.228   9.995 -0.6782  0.2638  1.4647
13235SOL    HW240284   3.537   1.360   9.921  1.2342 -0.0296  0.8875
13236SOL     OW40285   5.410   8.235   3.414  0.2813  0.1880  0.6166
13236SOL    HW140286   5.471   8.193   3.475 -0.2838  0.7209  1.5703
13236SOL    HW240287   5.426   8.329   3.425  0.5898  0.2847 -0.5128
13237SOL     OW40288   3.716   6.892   2.942  0.1242  0.5875  0.6030
13237SOL    HW140289   3.630   6.878   2.903  0.0951  1.0584  0.5011
13237SOL    HW240290   3.752   6.803   2.953  0.1827  0.4449 -0.5963
13238SOL     OW40291   8.095   5.705   2.923 -0.5998  0.0752  0.3387
13238SOL    HW140292   8.100   5.786   2.974  2.3119  0.6067 -0.6028
13238SOL    HW240293   8.116   5.636   2.986 -0.9340  0.2759  0.6779
13239SOL     OW40294   9.281   5.942   1.394  0.2990  0.0228  0.4839
13239SOL    HW140295   9.282   6.034   1.370  0.5988 -0.0428  0.2387
13239SOL    HW240296   9.283   5.942   1.490  0.3567  0.2673  0.4822
13240SOL     OW40297   5.192   8.074   7.269  0.2987 -0.3618 -0.2537
13240SOL    HW140298   5.102   8.073   7.239  0.3267  3.1419 -0.7702
13240SOL    HW240299   5.245   8.066   7.190  0.4766 -1.0607 -0.0781
13241SOL     OW40300   1.844   1.176   3.471 -0.0603  0.1293 -0.2454
13241SOL    HW140301   1.930   1.216   3.486  0.0957 -0.0753 -0.5727
13241SOL    HW240302   1.802   1.178   3.557 -0.3497  1.6601 -0.4008
13242SOL     OW40303   7.860   0.916   3.792 -0.4669 -0.0434  0.0159
13242SOL    HW140304   7.852   1.006   3.760  1.7339  1.0732  2.2789
13242SOL    HW240305   7.770   0.887   3.806 -1.2265  2.5402  1.0585
13243SOL     OW40306   1.935   3.907   1.502  0.0991 -0.2169  0.3385
13243SOL    HW140307   1.944   3.858   1.421 -2.4095 -2.2909  1.1731
13243SOL    HW240308   1.960   3.845   1.571  0.8568  1.0543  1.2588
13244SOL     OW40309   7.495   9.241   9.034  0.3925 -0.6752 -0.3967
13244SOL    HW140310   7.479   9.231   8.940 -0.3554  0.1509 -0.3664
13244SOL    HW240311   7.409   9.230   9.074  0.6671 -0.7574  0.1807
13245SOL     OW40312   4.820   7.002   6.442 -0.6443 -0.0181 -0.5160
13245SOL    HW140313   4.762   6.944   6.491  0.1646 -0.1611  0.3018
13245SOL    HW240314   4.781   7.006   6.355 -2.4814  0.7734  0.2899
13246SOL     OW40315   0.033   1.551   6.432 -0.3059 -0.1355 -0.2825
13246SOL    HW140316  -0.007   1.636   6.414 -0.8241 -0.5394 -1.0625
13246SOL    HW240317   0.127   1.565   6.420 -0.2444  0.6464  0.8972
13247SOL     OW40318   0.523   0.790   0.779 -0.4085  0.1960 -0.0159
13247SOL    HW140319   0.487   0.858   0.722 -0.1027  0.1400 -0.2791
13247SOL    HW240320   0.456   0.722   0.782 -0.2131 -0.0371 -0.7344
13248SOL     OW40321   8.659   8.627   3.104  0.5779 -0.2226 -0.6011
13248SOL    HW140322   8.746   8.655   3.131  0.5097 -1.9132  1.6486
13248SOL    HW240323   8.600   8.693   3.139  0.7357 -0.7550  0.6910
13249SOL     OW40324   6.050   6.387   3.753 -0.4777  0.0797 -0.2595
13249SOL    HW140325   5.971   6.400   3.701  0.0957 -1.3978 -1.5811
13249SOL    HW240326   6.118   6.367   3.689  1.2209  2.2341  0.7668
13250SOL     OW40327   8.234   3.215   9.164 -0.1126  0.0875 -0.6462
13250SOL    HW140328   8.234   3.240   9.256 -2.1622  1.2537 -0.8978
13250SOL    HW240329   8.172   3.142   9.159  2.5188 -2.3616 -0.6478
13251SOL     OW40330   1.685   4.811   8.199  0.5728 -0.6569  0.1236
13251SOL    HW140331   1.651   4.784   8.284 -2.0416  0.9924 -0.2895
13251SOL    HW240332   1.678   4.906   8.198 -0.1660 -0.6629 -2.1635
13252SOL     OW40333   5.892   9.108   3.891  0.0160 -0.3764  0.5465
13252SOL    HW140334   5.982   9.132   3.871  1.2081 -3.2010  1.9420
13252SOL    HW240335   5.868   9.164   3.965 -0.0407  1.4915 -0.7950
13253SOL     OW40336   6.923   9.289   0.964 -0.3159  0.0339  0.3653
13253SOL    HW140337   6.988   9.321   1.026  2.1050 -2.5018 -0.6397
13253SOL    HW240338   6.917   9.195   0.982 -1.0297 -0.4188 -1.8834
13254SOL     OW40339   0.267   3.673   2.441 -1.1226  1.0468  0.5832
13254SOL    HW140340   0.248   3.579   2.438 -0.1052  0.8516 -1.5180
13254SOL    HW240341   0.271   3.693   2.535  0.0492 -1.3308  1.1316
13255SOL     OW40342   0.061   3.084   8.310 -0.3284 -0.1437 -0.0760
13255SOL    HW140343   0.042   3.176   8.331 -0.3400 -0.5140  1.7219
13255SOL    HW240344   0.009   3.066   8.231  0.0131  1.4923 -0.7076
13256SOL     OW40345   8.109   8.089   7.457  0.2151  0.0481  0.4783
13256SOL    HW140346   8.073   8.178   7.462  2.1640  0.8224  1.8268
13256SOL    HW240347   8.165   8.082   7.534  0.5247 -2.1893  0.0944
13257SOL     OW40348   1.641   6.617   7.175 -0.4925  0.2854  0.2263
13257SOL    HW140349   1.576   6.561   7.131 -1.2665  0.7242  0.7947
13257SOL    HW240350   1.649   6.694   7.118  0.4358 -0.2929 -0.4607
13258SOL     OW40351   0.667   6.992   7.416 -0.4341 -0.4036 -0.2611
13258SOL    HW140352   0.742   6.943   7.381  0.4854  0.6071  0.2068
13258SOL    HW240353   0.696   7.020   7.503 -1.7441 -0.8079  0.3167
13259SOL     OW40354   9.008   2.631   6.989  0.0461 -0.3954 -0.4653
13259SOL    HW140355   8.984   2.664   7.076 -0.3709 -0.6238 -0.4929
13259SOL    HW240356   9.052   2.705   6.947 -1.3675  0.3355 -0.7317
13260SOL     OW40357   6.818   1.554   7.386  0.3498 -0.2706 -0.5368
13260SOL    HW140358   6.894   1.577   7.332  0.8784 -0.6397  0.0340
13260SOL    HW240359   6.837   1.593   7.471 -0.7629  0.8394 -0.7592
13261SOL     OW40360   4.846   2.559   5.697  0.1804  0.2171 -0.3567
13261SOL    HW140361   4.869   2.612   5.620  0.2259  0.6920 -0.0235
13261SOL    HW240362   4.930   2.544   5.741  0.2008 -0.3472 -0.5765
13262SOL     OW40363   1.796   9.912   6.368 -0.5225 -0.7181  0.5214
13262SOL    HW140364   1.851   9.858   6.311  0.5073  2.2851 -1.5782
13262SOL    HW240365   1.762   9.981   6.310 -1.2055  1.2677  3.0991
13263SOL     OW40366   1.537   6.745   5.196  0.2295 -0.5873  0.9091
13263SOL    HW140367   1.556   6.815   5.134 -0.6792 -0.7726  0.4040
13263SOL    HW240368   1.484   6.788   5.264 -0.7598 -0.8857  0.3356
13264SOL     OW40369   5.308   9.930   8.704  0.2811  0.1579 -0.5261
13264SOL    HW140370   5.307   9.861   8.638 -1.1457  0.4610 -0.8338
13264SOL    HW240371   5.322  10.010   8.655 -1.3364  0.4505 -0.5492
13265SOL     OW40372   2.250   4.204   6.374 -0.3146  0.4745  0.5451
13265SOL    HW140373   2.261   4.274   6.310 -0.9296  0.9562  0.9524
13265SOL    HW240374   2.222   4.128   6.322  2.6091 -0.2000 -0.2320
13266SOL     OW40375   4.895   0.667   1.823  0.0339  0.3818 -0.1349
13266SOL    HW140376   4.845   0.643   1.902  0.5349 -1.6360 -0.3807
13266SOL    HW240377   4.951   0.739   1.852 -0.7600  0.5924  0.9798
13267SOL     OW40378   4.381   0.482   4.679  0.2660  0.5860 -0.1834
13267SOL    HW140379   4.467   0.453   4.649  0.1162  0.9622 -0.9966
13267SOL    HW240380   4.401   0.547   4.747  0.6211  0.4864 -0.1884
13268SOL     OW40381   8.089   8.946   4.720 -0.7275  0.7282  0.0444
13268SOL    HW140382   8.118   8.955   4.629  1.1725 -2.5790  0.1537
13268SOL    HW240383   8.004   8.902   4.714 -0.7796  0.8531 -0.1373
13269SOL     OW40384   2.776   2.740   0.009 -0.0666  0.4783 -0.0037
13269SOL    HW140385   2.722   2.817   0.028  2.1686  1.8935  1.1251
13269SOL    HW240386   2.863   2.776  -0.010  0.9546 -1.7617  0.1018
13270SOL     OW40387   4.730   7.612   5.987 -0.3106  0.0209  0.4716
13270SOL    HW140388   4.751   7.696   6.027 -1.8450  0.1766  1.0202
13270SOL    HW240389   4.797   7.552   6.019  0.2891  0.8402  0.7626
13271SOL     OW40390   6.123   9.551   1.006 -0.0066  0.7051  0.0711
13271SOL    HW140391   6.101   9.595   1.088 -0.4794  2.9106 -1.1619
13271SOL    HW240392   6.129   9.459   1.030  0.4862  1.3214  2.6942
13272SOL     OW40393   0.442   2.556   2.483 -0.5769  0.4020 -0.1366
13272SOL    HW140394   0.353   2.574   2.453 -0.9094  1.1820  1.2452
13272SOL    HW240395   0.496   2.620   2.436 -0.8982  0.6993 -0.1040
13273SOL     OW40396   3.031   0.966   5.322  0.0102 -0.1946 -0.1174
13273SOL    HW140397   3.047   1.042   5.267 -0.0360 -2.3616 -3.3912
13273SOL    HW240398   2.939   0.974   5.349 -1.1443 -0.7554 -3.4691
13274SOL     OW40399   1.681   8.979   7.442 -0.0338 -0.0886  0.0778
13274SOL    HW140400   1.619   8.917   7.481  0.8932 -1.3897 -0.4597
13274SOL    HW240401   1.625   9.045   7.400 -1.0439 -0.4295  0.8453
13275SOL     OW40402   4.037   1.411   4.905  0.1233 -0.3031  0.1063
13275SOL    HW140403   4.074   1.496   4.880 -0.6553  0.4547  1.4318
13275SOL    HW240404   3.950   1.432   4.939 -0.7219 -1.8168 -0.9973
13276SOL     OW40405   1.492   9.059   6.387 -0.3220  0.5384 -0.3240
13276SOL    HW140406   1.548   9.090   6.316 -1.6347  1.1638 -1.1191
13276SOL    HW240407   1.475   8.967   6.366  0.3193  0.3606 -0.1089
13277SOL     OW40408   0.391   3.305   9.246 -0.7362 -0.0239  0.1233
13277SOL    HW140409   0.423   3.276   9.331 -1.3463 -1.2439 -0.0287
13277SOL    HW240410   0.462   3.359   9.210  0.7869 -1.8633  0.1786
13278SOL     OW40411   8.321   1.356   1.531 -0.0270  0.2913  0.1748
13278SOL    HW140412   8.257   1.292   1.560 -0.8683  1.4531  0.9911
13278SOL    HW240413   8.269   1.423   1.486  0.8748  0.2076 -1.0345
13279SOL     OW40414   0.507   1.259   9.995  0.2193 -0.1795  0.1518
13279SOL    HW140415   0.511   1.165  10.016  1.3550 -0.7068 -2.0902
13279SOL    HW240416   0.506   1.262   9.899 -3.6479  2.0230  0.0819
13280SOL     OW40417   0.848   0.596   8.316 -0.0292 -0.1163  0.3425
13280SOL    HW140418   0.859   0.523   8.377 -2.8227 -1.4849 -0.6133
13280SOL    HW240419   0.928   0.596   8.263  1.3148 -0.5185  2.2695
13281SOL     OW40420   2.136   3.065   1.310 -0.0505 -0.6838  0.1844
13281SOL    HW140421   2.192   3.065   1.232  1.2159 -1.6727  1.0399
13281SOL    HW240422   2.050   3.091   1.278  0.6786 -0.0276 -1.3560
13282SOL     OW40423   8.261   0.709   4.448  0.0196 -0.3092  0.6801
13282SOL    HW140424   8.229   0.710   4.358  1.0524 -0.7516  0.2993
13282SOL    HW240425   8.327   0.778   4.452  0.4394 -0.7111  0.9155
13283SOL     OW40426   1.134   2.507   2.839 -0.0890  0.1970 -0.5793
13283SOL    HW140427   1.117   2.442   2.771 -1.6816  1.1004 -1.0836
13283SOL    HW240428   1.163   2.584   2.790  2.5029 -0.2772  0.0560
13284SOL     OW40429   2.402   7.239   2.528  0.0034  0.0261  0.1818
13284SOL    HW140430   2.466   7.185   2.482  0.9227  0.2282  1.1897
13284SOL    HW240431   2.446   7.323   2.541 -0.5167  0.2119  0.7753
13285SOL     OW40432   7.354   2.670   4.737  0.1449 -0.2375  0.2679
13285SOL    HW140433   7.435   2.633   4.702 -0.5563 -0.2038 -1.4981
13285SOL    HW240434   7.292   2.598   4.734  0.7510 -1.1425  4.3837
13286SOL     OW40435   9.922   0.589   7.355  0.2754  0.0430 -0.1086
13286SOL    HW140436  10.017   0.591   7.344  0.3527 -0.0590  0.4650
13286SOL    HW240437   9.888   0.562   7.270  0.8116 -0.7329 -0.0850
13287SOL     OW40438   7.124   8.311   2.550 -0.1902 -0.6872  0.0234
13287SOL    HW140439   7.029   8.301   2.547 -0.3018  0.4142 -0.7851
13287SOL    HW240440   7.150   8.323   2.458  0.1908  3.0315  0.4363
13288SOL     OW40441   5.889   6.796   5.777  0.1336 -0.7604  0.0088
13288SOL    HW140442   5.957   6.732   5.756  1.0270  0.3446 -0.6192
13288SOL    HW240443   5.927   6.880   5.751 -1.6327 -0.1455 -0.7309
13289SOL     OW40444   6.449   8.180   3.549 -0.0004 -0.8396  0.2085
13289SOL    HW140445   6.402   8.221   3.477  1.1693  0.3268  0.0850
13289SOL    HW240446   6.526   8.140   3.509  1.7414  1.5228  0.9767
13290SOL     OW40447   4.811   1.818   2.549  0.1079  0.6284 -0.0737
13290SOL    HW140448   4.716   1.828   2.545  0.4146  4.8913 -0.8227
13290SOL    HW240449   4.831   1.818   2.643 -0.5334  0.5493  0.0684
13291SOL     OW40450   9.941   7.370   9.976 -0.4100  0.3546 -0.1195
13291SOL    HW140451   9.910   7.432   9.910 -2.3936 -0.7935 -0.3396
13291SOL    HW240452   9.868   7.362  10.038  1.0994  0.8198  1.8384
13292SOL     OW40453   0.426   4.007   2.910 -0.1259 -0.2921  0.1139
13292SOL    HW140454   0.427   4.074   2.842 -1.0468  0.0251  0.3925
13292SOL    HW240455   0.412   4.056   2.992 -0.9086 -0.8121  0.3090
13293SOL     OW40456   8.982   5.974   8.024  0.2976 -0.4293  0.0402
13293SOL    HW140457   9.068   6.015   8.020  0.0151  0.0481 -1.6861
13293SOL    HW240458   8.961   5.974   8.118  1.2202  1.4707  0.3138
13294SOL     OW40459   3.957   2.198   8.466  0.1597  0.5361  0.6881
13294SOL    HW140460   4.046   2.230   8.474  0.5138 -0.3918  0.5616
13294SOL    HW240461   3.912   2.233   8.543  0.3269  1.9336  0.1720
13295SOL     OW40462   8.410   7.891   9.404 -0.6375  0.1836  0.9599
13295SOL    HW140463   8.450   7.846   9.329 -1.1465 -0.5978  1.1457
13295SOL    HW240464   8.481   7.897   9.468 -0.3552  0.3385  0.6370
13296SOL     OW40465   7.472   9.518   4.839  0.3048  0.3916  0.0586
13296SOL    HW140466   7.501   9.605   4.812  0.3724 -0.2983 -2.3106
13296SOL    HW240467   7.396   9.500   4.785 -0.0929 -0.7981  0.9681
13297SOL     OW40468   2.146   7.381   3.905 -0.1279  0.1839  0.3200
13297SOL    HW140469   2.191   7.465   3.914 -0.9368  0.6602  0.0184
13297SOL    HW240470   2.190   7.323   3.967 -0.0369  1.0333  1.0580
13298SOL     OW40471   9.005   8.894   0.716 -0.0621  0.3339 -0.6395
13298SOL    HW140472   9.003   8.983   0.682 -0.7383  0.2835 -0.7546
13298SOL    HW240473   8.939   8.848   0.663  1.8165 -0.7937 -2.1294
13299SOL     OW40474   6.391   3.661   7.159  0.0026  0.5643  0.0451
13299SOL    HW140475   6.393   3.622   7.246 -2.2544  2.2322  0.9411
13299SOL    HW240476   6.412   3.753   7.174  1.2104  0.5775 -1.4450
13300SOL     OW40477   2.072   0.598   9.944  0.0188  0.0000 -0.2633
13300SOL    HW140478   2.055   0.692   9.943  0.6783  0.1270 -1.0434
13300SOL    HW240479   2.139   0.587  10.011 -2.1740 -0.3549  2.0166
13301SOL     OW40480   4.416   7.035   8.930  0.3713  0.4299 -0.5153
13301SOL    HW140481   4.378   6.949   8.913 -0.2545  0.1812  1.8068
13301SOL    HW240482   4.412   7.045   9.026  1.6136  2.4995 -0.6107
13302SOL     OW40483   6.248   2.629   1.881  0.6913 -0.1279 -0.1606
13302SOL    HW140484   6.160   2.593   1.893  0.3256  0.6426 -0.4308
13302SOL    HW240485   6.245   2.713   1.928  1.9823 -1.0997  1.7707
13303SOL     OW40486   6.127   6.879   5.595  0.0617  0.2116  0.0607
13303SOL    HW140487   6.124   6.801   5.651  0.6410 -0.1414 -0.3878
13303SOL    HW240488   6.220   6.894   5.581 -0.0382  1.1745  0.4000
13304SOL     OW40489   2.541   9.025   7.295  0.3140  0.4097 -0.0093
13304SOL    HW140490   2.482   9.096   7.321  0.4420  0.3839  0.3543
13304SOL    HW240491   2.504   8.992   7.213  0.7007  1.4267 -0.6136
13305SOL     OW40492   3.147   9.787   5.725 -0.1158  0.6036 -0.0818
13305SOL    HW140493   3.060   9.827   5.730 -0.2409  0.5827 -1.5939
13305SOL    HW240494   3.159   9.743   5.810 -0.7782  2.1923  0.8762
13306SOL     OW40495   1.594   8.754   2.435 -0.3493  0.6389 -0.0445
13306SOL    HW140496   1.598   8.659   2.431  2.9011  0.6931 -0.8331
13306SOL    HW240497   1.628   8.776   2.521 -3.6951  1.1542  1.3046
13307SOL     OW40498   7.738   8.662   6.228 -0.0612  0.2676 -0.1716
13307SOL    HW140499   7.773   8.581   6.191  0.5805  0.3970  0.1355
13307SOL    HW240500   7.806   8.727   6.213 -0.6473  0.7958 -0.5703
13308SOL     OW40501   0.459   3.269   5.720  0.4511 -0.4388 -0.2255
13308SOL    HW140502   0.456   3.327   5.645  1.0358 -0.0554  0.0399
13308SOL    HW240503   0.385   3.210   5.708 -0.0209  0.2220 -0.6062
13309SOL     OW40504   5.249   0.955   7.129  0.0458 -0.4748 -0.0972
13309SOL    HW140505   5.301   0.877   7.149  0.6292  0.1317  0.8521
13309SOL    HW240506   5.290   0.992   7.051  0.8853 -0.1645  0.4758
13310SOL     OW40507   6.138   1.283   5.112 -0.6318 -0.1662 -0.6111
13310SOL    HW140508   6.184   1.287   5.197 -1.7475 -0.2682  0.0127
13310SOL    HW240509   6.182   1.212   5.065 -1.1733 -1.3465  0.6052
13311SOL     OW40510   2.503   7.214   4.242 -0.4228  0.5555 -1.1072
13311SOL    HW140511   2.566   7.272   4.285  3.0297 -3.7447  0.3426
13311SOL    HW240512   2.531   7.211   4.151  1.3269 -0.9402 -0.5752
13312SOL     OW40513   7.753   0.193   4.296  0.6468 -0.3166 -0.1875
13312SOL    HW140514   7.731   0.252   4.368 -0.7088 -1.7708  0.6472
13312SOL    HW240515   7.720   0.237   4.217  0.1421  0.2770  0.3474
13313SOL     OW40516   3.084   8.489   2.720  0.0218 -0.0653 -0.5761
13313SOL    HW140517   3.010   8.533   2.761  0.7791  0.6479  0.0732
13313SOL    HW240518   3.098   8.537   2.638 -0.5725 -0.5541 -0.9684
13314SOL     OW40519   2.610   7.365   6.377 -0.4628  0.3348 -0.5609
13314SOL    HW140520   2.544   7.418   6.334 -0.5927  0.5225 -0.1353
13314SOL    HW240521   2.561   7.304   6.432 -0.3823 -1.1676 -2.0646
13315SOL     OW40522   8.163   7.739   4.910  0.1105  0.1683  0.2549
13315SOL    HW140523   8.209   7.726   4.993  2.2390  1.4302 -0.6565
13315SOL    HW240524   8.203   7.676   4.850 -0.7707 -0.1023 -0.0671
13316SOL     OW40525   0.296   1.288   6.478  0.4189 -0.6059  0.6553
13316SOL    HW140526   0.343   1.259   6.557  2.5515  1.9635  0.4752
13316SOL    HW240527   0.365   1.301   6.413 -0.9140  0.3956 -0.6189
13317SOL     OW40528   9.373   2.126   9.837 -0.6410  0.1833 -0.7443
13317SOL    HW140529   9.379   2.154   9.928 -1.7672  0.7560 -0.8305
13317SOL    HW240530   9.420   2.193   9.788 -0.5444  0.1860 -0.6486
13318SOL     OW40531   4.358   0.149   3.760  1.1304  0.2447  0.6549
13318SOL    HW140532   4.424   0.151   3.830 -0.2405  0.2139  1.9878
13318SOL    HW240533   4.298   0.079   3.785  0.8096 -0.0224 -0.7757
13319SOL     OW40534   1.164   4.261   0.844  0.6722 -0.5402 -0.9058
13319SOL    HW140535   1.158   4.349   0.808  1.1235 -0.9986 -2.1523
13319SOL    HW240536   1.243   4.264   0.899  0.6440 -0.1490 -0.8797
13320SOL     OW40537   3.192   9.157   3.187 -0.3560  0.5233 -0.0765
13320SOL    HW140538   3.215   9.237   3.142 -0.0297  0.6481  0.3030
13320SOL    HW240539   3.138   9.185   3.261 -1.0406  0.3059 -0.4892
13321SOL     OW40540   0.471   1.679   3.552 -0.3612  0.2379 -0.4389
13321SOL    HW140541   0.536   1.639   3.610  1.0112 -0.3749 -2.2944
13321SOL    HW240542   0.484   1.773   3.563 -0.4904  0.1510  0.6041
13322SOL     OW40543   7.210   5.731   4.614 -0.3172  0.2020 -0.1103
13322SOL    HW140544   7.175   5.763   4.697 -0.4713  1.0658 -0.4959
13322SOL    HW240545   7.169   5.787   4.548  2.0326  1.5143 -0.5633
13323SOL     OW40546   5.832   9.428   6.086  0.5885 -0.6656 -0.1645
13323SOL    HW140547   5.877   9.361   6.035  2.7054  0.5746 -0.0464
13323SOL    HW240548   5.854   9.407   6.177  0.3286 -0.4500 -0.0506
13324SOL     OW40549   3.952   7.106   5.775  0.1411 -1.0716 -0.7309
13324SOL    HW140550   3.968   7.028   5.721 -1.3970 -0.6232 -1.9145
13324SOL    HW240551   3.947   7.072   5.865  1.9564 -1.9493 -0.9278
13325SOL     OW40552   6.057   5.983   1.389  0.2225 -0.2589  0.0230
13325SOL    HW140553   6.127   5.918   1.400 -0.9423 -1.5174  0.1595
13325SOL    HW240554   6.072   6.020   1.301  1.1504 -0.3907  0.1183
13326SOL     OW40555   9.327   3.897   3.817  0.4472  0.2501  0.3726
13326SOL    HW140556   9.352   3.828   3.878 -0.7394 -0.7494 -0.2226
13326SOL    HW240557   9.395   3.895   3.750  0.9699  0.3664  0.8870
13327SOL     OW40558   9.262   3.216   5.887 -0.2596  0.3351  0.2456
13327SOL    HW140559   9.274   3.270   5.966  0.9906  0.3359  0.0785
13327SOL    HW240560   9.351   3.201   5.855 -0.5057 -2.2468  0.5473
13328SOL     OW40561   5.827   1.010   5.336 -0.0353 -0.5959  0.8009
13328SOL    HW140562   5.747   1.051   5.370 -0.1353 -1.0732  1.1525
13328SOL    HW240563   5.895   1.036   5.397  0.5839  1.7583 -0.7564
13329SOL     OW40564   2.388   5.395   0.196 -0.1834  0.4093  0.1798
13329SOL    HW140565   2.328   5.417   0.124  2.1068  0.6847 -1.7822
13329SOL    HW240566   2.439   5.475   0.210  0.2487 -0.0392  1.2285
13330SOL     OW40567   2.522   5.373   2.483 -0.1542 -0.0439 -0.5619
13330SOL    HW140568   2.446   5.335   2.528 -0.3738 -0.2725 -1.1202
13330SOL    HW240569   2.563   5.429   2.549 -0.2475 -0.6800  0.0489
13331SOL     OW40570   4.806   7.599   6.868  0.5131  0.3847  0.2861
13331SOL    HW140571   4.897   7.570   6.882  0.7305  0.1866 -1.2686
13331SOL    HW240572   4.753   7.521   6.884  0.5685  0.5959  1.5680
13332SOL     OW40573   5.716   1.301   5.205 -0.3557  0.0602  0.8412
13332SOL    HW140574   5.789   1.362   5.211 -1.0483  0.8242  2.1840
13332SOL    HW240575   5.663   1.334   5.132 -0.6705  1.0502  1.4873
13333SOL     OW40576   0.413   0.862   8.699  0.1561  0.1732 -1.0630
13333SOL    HW140577   0.427   0.805   8.775  0.6113 -0.4942 -1.6350
13333SOL    HW240578   0.497   0.906   8.687  0.0158  0.4472 -1.0496
13334SOL     OW40579   4.862   8.903   6.386  0.2980  0.3802  0.6798
13334SOL    HW140580   4.843   8.849   6.463 -0.0550 -0.9596 -0.3230
13334SOL    HW240581   4.785   8.894   6.330  0.8515  0.7523 -0.1572
13335SOL     OW40582   6.627   1.227   7.728  0.0932  0.1740 -0.3927
13335SOL    HW140583   6.612   1.309   7.775 -0.5298 -0.4248  0.4850
13335SOL    HW240584   6.640   1.254   7.637 -1.8607  1.1231 -0.4444
13336SOL     OW40585   8.054   8.108   4.465  0.7466 -0.2899 -0.0986
13336SOL    HW140586   8.098   8.191   4.449  0.1417  0.2836  1.0359
13336SOL    HW240587   8.097   8.073   4.543 -0.7384  0.2932  1.0461
13337SOL     OW40588   3.653   8.525   3.728 -0.5904  0.0808  0.2900
13337SOL    HW140589   3.581   8.462   3.732 -2.3814  1.8550 -1.6167
13337SOL    HW240590   3.640   8.581   3.805 -2.9684  1.9789 -1.3425
13338SOL     OW40591   4.807   6.566   7.967 -0.3834  0.1587  0.2184
13338SOL    HW140592   4.785   6.637   8.028 -0.7758 -0.3649  0.6919
13338SOL    HW240593   4.782   6.486   8.013  1.2528 -0.3877  0.2385
13339SOL     OW40594   1.940   7.461   2.043  0.3358  0.1667  0.1498
13339SOL    HW140595   1.876   7.528   2.066 -0.1933 -0.2632 -0.0483
13339SOL    HW240596   1.965   7.421   2.126 -1.2015 -1.0523  0.0524
13340SOL     OW40597   3.277   2.690   8.977 -0.3567 -0.6428 -0.2284
13340SOL    HW140598   3.243   2.750   9.043 -0.7059 -0.7097 -0.3412
13340SOL    HW240599   3.334   2.631   9.025  1.1412  0.6475 -0.3303
13341SOL     OW40600   9.596   2.220   1.334 -0.6717 -0.2077  1.1957
13341SOL    HW140601   9.536   2.187   1.401 -1.1402 -3.2299 -0.5047
13341SOL    HW240602   9.545   2.216   1.253  0.6760  0.8417  0.2538
13342SOL     OW40603   0.195   6.217   5.687  0.3947  0.2377  0.3104
13342SOL    HW140604   0.223   6.308   5.671 -0.2391  0.6200  1.3348
13342SOL    HW240605   0.115   6.208   5.635 -0.2128  0.6579  1.1523
13343SOL     OW40606   6.388   4.552   6.219 -0.1822  0.2118 -0.1419
13343SOL    HW140607   6.347   4.468   6.200 -1.3949  0.6712  0.3489
13343SOL    HW240608   6.332   4.617   6.177  0.3511  0.8318  0.0749
13344SOL     OW40609   7.519   5.271   8.690 -0.0541 -0.1333 -0.2982
13344SOL    HW140610   7.569   5.267   8.772 -0.7091 -1.8056  0.0831
13344SOL    HW240611   7.580   5.304   8.625  1.1548 -0.8957  0.4200
13345SOL     OW40612   3.331   1.077   6.462  0.0377 -0.2618 -0.1117
13345SOL    HW140613   3.333   1.134   6.539  1.2237 -0.3125 -0.0937
13345SOL    HW240614   3.276   1.123   6.399  1.1125  1.0000 -0.1631
13346SOL     OW40615   9.361   0.990   9.728  0.3186 -0.2183 -0.1139
13346SOL    HW140616   9.279   0.992   9.679  0.6686  0.8391 -0.6877
13346SOL    HW240617   9.351   1.057   9.795  0.0496 -1.2960  0.9655
13347SOL     OW40618   5.012   1.883   5.935  0.8451  0.0598  0.4868
13347SOL    HW140619   5.100   1.921   5.926  0.9688 -0.4774 -0.6592
13347SOL    HW240620   4.960   1.926   5.868  0.3700 -0.0453  0.7868
13348SOL     OW40621  -0.011   2.630   6.748  0.4380  0.1909 -0.7524
13348SOL    HW140622   0.072   2.585   6.767 -1.1415 -2.4811  0.4183
13348SOL    HW240623  -0.016   2.631   6.653  2.2021  1.2852 -0.8926
13349SOL     OW40624   4.210   4.904   9.071 -0.0471  0.7426 -0.2312
13349SOL    HW140625   4.157   4.859   9.005  0.5908 -1.5181  0.6656
13349SOL    HW240626   4.223   4.838   9.139  1.4014  2.1902  0.9695
13350SOL     OW40627   8.209   9.817   6.486  0.4655  0.0731 -0.0721
13350SOL    HW140628   8.279   9.865   6.530  0.0650  0.5802  0.0280
13350SOL    HW240629   8.249   9.735   6.458  0.6782 -0.3420  1.3929
13351SOL     OW40630   6.397   9.795   1.774 -0.0209 -0.3155 -0.0293
13351SOL    HW140631   6.459   9.817   1.704 -1.7107  0.1723 -1.4541
13351SOL    HW240632   6.393   9.874   1.828 -0.1423  0.0107 -0.5100
13352SOL     OW40633   3.060   2.815   8.361 -0.0291 -0.6250 -0.3438
13352SOL    HW140634   3.010   2.765   8.297 -0.8832 -0.3394  0.0871
13352SOL    HW240635   2.994   2.859   8.415  0.5694 -2.0486  1.7132
13353SOL     OW40636   5.488   6.004   5.133 -1.1384  0.4511  0.0268
13353SOL    HW140637   5.525   5.922   5.101 -3.0610 -1.0419  1.3716
13353SOL    HW240638   5.485   6.061   5.056 -1.1055 -1.2533 -1.3015
13354SOL     OW40639   2.818   2.137   9.565 -0.4405  1.1037 -0.1673
13354SOL    HW140640   2.768   2.153   9.486  1.0911  0.2131 -1.3724
13354SOL    HW240641   2.892   2.197   9.560  1.6869 -1.4205 -1.3590
13355SOL     OW40642   3.123   9.450   9.830 -0.6493 -0.5815  0.0821
13355SOL    HW140643   3.171   9.504   9.768 -0.0935 -1.3326 -0.1543
13355SOL    HW240644   3.035   9.443   9.793 -0.4933 -0.5138 -0.3029
13356SOL     OW40645   7.563   3.993   8.869 -0.3359 -0.4081 -0.9323
13356SOL    HW140646   7.506   4.001   8.792 -1.8164 -0.9537  0.0755
13356SOL    HW240647   7.567   3.899   8.886 -0.4648 -0.2587 -0.0299
13357SOL     OW40648   3.066   9.895   3.941  0.5596 -0.3963 -0.2757
13357SOL    HW140649   3.047   9.852   4.024  0.7751 -0.0256 -0.0342
13357SOL    HW240650   3.092   9.823   3.883  0.5209 -0.6408  0.0065
13358SOL     OW40651   6.125   7.677   6.434 -0.0068 -0.4609 -0.4280
13358SOL    HW140652   6.156   7.672   6.343  0.2127  1.1133 -0.4809
13358SOL    HW240653   6.202   7.707   6.483 -0.7354  1.0915 -0.1583
13359SOL     OW40654   9.661   6.023   9.099 -0.4741  0.3918 -0.0556
13359SOL    HW140655   9.715   6.100   9.118 -0.6851  0.5300 -0.0247
13359SOL    HW240656   9.574   6.046   9.130 -0.6284  0.2903 -0.4166
13360SOL     OW40657   6.207   4.996   1.462 -0.2889  0.3181 -0.1105
13360SOL    HW140658   6.270   4.942   1.414 -0.6279 -2.8368  2.5988
13360SOL    HW240659   6.122   4.963   1.434 -0.5829  0.9422  0.0298
13361SOL     OW40660   3.030   6.355   0.454  0.3357  0.0405  0.0974
13361SOL    HW140661   2.966   6.304   0.404 -0.2140  0.0954  0.7254
13361SOL    HW240662   3.115   6.317   0.430 -0.0918 -1.6898  1.0881
13362SOL     OW40663   5.854   5.577   6.397 -0.1256  0.4016 -0.0305
13362SOL    HW140664   5.769   5.609   6.425  0.6542  1.9602  0.6847
13362SOL    HW240665   5.915   5.606   6.466  0.8689 -1.4320 -0.0658
13363SOL     OW40666   3.300   3.668   0.821 -0.1973  0.2112  0.2817
13363SOL    HW140667   3.247   3.614   0.763  0.1668 -0.4483  0.5487
13363SOL    HW240668   3.389   3.661   0.785  0.3187 -1.4016  1.7083
13364SOL     OW40669   7.901   1.021   6.779  0.4583 -0.0394  0.6586
13364SOL    HW140670   7.990   1.043   6.752  0.2071 -0.7486 -0.8323
13364SOL    HW240671   7.912   0.949   6.842  0.9651  0.4907  1.1923
13365SOL     OW40672   5.880   7.135   6.094 -0.3593 -0.8372  0.9226
13365SOL    HW140673   5.850   7.065   6.035 -1.3002 -0.0337  0.4155
13365SOL    HW240674   5.843   7.112   6.179 -0.0353 -1.3520  0.9256
13366SOL     OW40675   2.527   7.535   4.179 -0.3320  0.1841 -0.0579
13366SOL    HW140676   2.472   7.607   4.149 -0.4300 -0.1239 -0.6356
13366SOL    HW240677   2.615   7.572   4.183 -0.4951  0.5355  0.3641
13367SOL     OW40678   1.094   1.193   6.757 -0.1626 -0.2695  0.0932
13367SOL    HW140679   1.100   1.155   6.845 -1.5057  0.5927  0.5960
13367SOL    HW240680   1.032   1.137   6.711 -1.2491  0.5854  0.4649
13368SOL     OW40681   8.203   9.500   2.510 -0.2241 -0.0094  0.2409
13368SOL    HW140682   8.218   9.406   2.514  0.5070  0.1362  1.3553
13368SOL    HW240683   8.181   9.517   2.418  1.2735 -1.0385 -0.3565
13369SOL     OW40684   5.123   0.396   7.821 -0.6764 -0.4005 -0.0318
13369SOL    HW140685   5.033   0.426   7.812 -0.7325 -0.0984  1.2994
13369SOL    HW240686   5.122   0.304   7.794 -1.3576 -0.3726 -0.1019
13370SOL     OW40687   0.736   9.473   6.726 -0.1766  0.3352  0.2774
13370SOL    HW140688   0.725   9.380   6.743  0.6340 -0.0813 -1.2361
13370SOL    HW240689   0.664   9.496   6.667  0.9971  0.0292 -1.3587
13371SOL     OW40690   6.581   8.142   4.423  1.1004  0.2804  0.1243
13371SOL    HW140691   6.570   8.168   4.331  2.1682  0.4377  0.0183
13371SOL    HW240692   6.539   8.056   4.429  2.6271 -0.6018 -1.0033
13372SOL     OW40693   1.719   5.981   8.917 -0.6140 -0.2526 -0.2139
13372SOL    HW140694   1.753   6.039   8.848  0.3543 -0.2664  0.2373
13372SOL    HW240695   1.791   5.973   8.979 -0.9559 -1.4247  0.0599
13373SOL     OW40696   1.026   5.934   0.195 -0.1631 -0.6520  0.0091
13373SOL    HW140697   0.937   5.903   0.210  0.0804 -1.3190  0.1411
13373SOL    HW240698   1.081   5.874   0.247  0.2632  0.6329  1.1138
13374SOL     OW40699   6.875   7.969   7.615  0.0532  0.1409 -0.6169
13374SOL    HW140700   6.962   7.929   7.617  0.9536  2.0114  0.8947
13374SOL    HW240701   6.872   8.016   7.531  0.7730  0.6106 -0.3866
13375SOL     OW40702   7.422   8.796   9.540  0.2221 -0.4102 -0.1681
13375SOL    HW140703   7.503   8.807   9.590 -0.0183  0.7352 -0.0038
13375SOL    HW240704   7.451   8.790   9.449  0.5658 -1.0886 -0.0149
13376SOL     OW40705   6.468   9.313   9.915 -0.1155 -0.2297  0.0250
13376SOL    HW140706   6.462   9.313   9.820  1.6204  0.2594 -0.1175
13376SOL    HW240707   6.469   9.406   9.939  1.1577 -0.3041  0.3566
13377SOL     OW40708   4.828   7.110   7.839  0.2299 -0.5582 -0.0188
13377SOL    HW140709   4.819   7.062   7.756  0.1781 -1.2861  0.3975
13377SOL    HW240710   4.769   7.185   7.830  2.1764  0.9119 -1.7078
13378SOL     OW40711   9.075   6.573   9.893  0.2143 -0.2474 -1.3530
13378SOL    HW140712   9.020   6.517   9.948  1.0930 -1.1615 -1.3736
13378SOL    HW240713   9.161   6.572   9.936  0.2537  1.1195 -1.3456
13379SOL     OW40714   1.448   2.305   5.329  0.1935 -0.3710  0.2637
13379SOL    HW140715   1.445   2.328   5.236 -0.9206  0.3168  0.4472
13379SOL    HW240716   1.460   2.210   5.330 -1.4863 -0.6337 -0.6312
13380SOL     OW40717   8.671   3.822   7.012 -0.9111 -0.4559  0.0274
13380SOL    HW140718   8.739   3.880   6.977  1.2054 -2.8497 -0.0862
13380SOL    HW240719   8.608   3.812   6.941 -1.0538  1.2290 -0.1182
13381SOL     OW40720   6.263   6.425   0.232 -0.6036  0.0294  0.2239
13381SOL    HW140721   6.174   6.394   0.250 -0.0257 -1.4265  0.7645
13381SOL    HW240722   6.266   6.513   0.269 -1.6609 -0.1150  0.6849
13382SOL     OW40723   6.582   0.546   6.673 -0.2995  0.6343 -0.0246
13382SOL    HW140724   6.556   0.512   6.588 -0.0074  0.9079 -0.2253
13382SOL    HW240725   6.500   0.570   6.716 -0.7180 -2.2908  0.9877
13383SOL     OW40726   9.685   8.932   0.594 -0.0932  0.1724 -0.8306
13383SOL    HW140727   9.778   8.947   0.577  0.9260 -2.5718  1.4938
13383SOL    HW240728   9.659   9.006   0.649  1.4937 -0.2852  0.6546
13384SOL     OW40729   0.048   3.475   9.808  0.1525 -0.5408 -0.5648
13384SOL    HW140730   0.033   3.396   9.756  0.2830 -1.2315  0.4093
13384SOL    HW240731   0.142   3.474   9.826 -0.3516 -2.4309  2.8429
13385SOL     OW40732   4.957   9.052   2.822  0.3590  0.2341 -0.2219
13385SOL    HW140733   5.036   9.102   2.840  1.2894 -0.8393 -1.1589
13385SOL    HW240734   4.904   9.111   2.768 -0.4348  1.7181  2.0133
13386SOL     OW40735   9.976   2.739   1.134  0.1442  0.3053 -0.0736
13386SOL    HW140736  10.009   2.669   1.078 -0.9602 -0.9857  0.8171
13386SOL    HW240737   9.906   2.780   1.083  1.2618  1.2413 -0.8766
13387SOL     OW40738   6.129   2.902   1.706 -0.0990  0.3869  0.8000
13387SOL    HW140739   6.220   2.932   1.699 -0.0669  0.8834  2.7862
13387SOL    HW240740   6.130   2.813   1.669  1.4613 -0.0590  1.8142
13388SOL     OW40741   4.007   4.230   8.963 -0.6809  0.6649  0.2758
13388SOL    HW140742   3.923   4.236   8.917  1.1411 -0.1635 -3.6518
13388SOL    HW240743   4.056   4.306   8.932  1.1496 -0.7095 -0.3716
13389SOL     OW40744   1.220   0.214   1.516 -0.4026  0.2525 -0.0965
13389SOL    HW140745   1.208   0.141   1.454 -1.3654  0.1174  0.2468
13389SOL    HW240746   1.288   0.268   1.475 -0.0624 -0.5454 -0.6199
13390SOL     OW40747   3.213   5.114   7.455 -0.0480  0.6329  0.5640
13390SOL    HW140748   3.245   5.111   7.545  2.6120  0.1457 -0.3132
13390SOL    HW240749   3.251   5.036   7.414 -0.4718  1.3120 -1.1989
13391SOL     OW40750   5.364   1.175   7.680  0.5934  0.2455  0.1028
13391SOL    HW140751   5.422   1.227   7.735 -0.3689  2.5646 -0.9471
13391SOL    HW240752   5.278   1.183   7.721  0.6253 -1.5946  0.6000
13392SOL     OW40753   8.899   7.552   5.909  0.5667  0.0167  0.3642
13392SOL    HW140754   8.810   7.588   5.903 -0.8383 -2.7889  2.1062
13392SOL    HW240755   8.952   7.610   5.854 -2.2178  2.0898 -0.3862
13393SOL     OW40756   5.640   9.142   7.178 -0.0609 -0.0449 -0.5368
13393SOL    HW140757   5.629   9.196   7.257  0.8229  0.7649 -0.9502
13393SOL    HW240758   5.732   9.154   7.153  0.5195 -2.6800  0.0138
13394SOL     OW40759   7.680   4.956   8.506  0.7772  0.4635  0.2929
13394SOL    HW140760   7.593   4.988   8.483  0.2383 -0.7271  0.5747
13394SOL    HW240761   7.687   4.971   8.600  0.5837 -0.0733  0.3978
13395SOL     OW40762   3.540   2.858   9.898 -0.1086  0.8508 -0.1585
13395SOL    HW140763   3.450   2.859   9.864 -0.0010  0.9198 -0.4412
13395SOL    HW240764   3.559   2.765   9.912 -0.3889  0.8664  0.3413
13396SOL     OW40765   4.558   4.716   6.757  0.1384 -0.5143  0.0782
13396SOL    HW140766   4.514   4.673   6.831 -2.9709  2.0901 -0.0086
13396SOL    HW240767   4.612   4.783   6.798 -0.4385 -0.0297  0.0582
13397SOL     OW40768   0.865   1.421   9.193 -0.0103  0.0217 -0.7500
13397SOL    HW140769   0.882   1.327   9.186 -0.6781 -0.3311  1.5639
13397SOL    HW240770   0.951   1.461   9.198  0.2927 -0.7332  0.5860
13398SOL     OW40771   1.226   8.186   9.572  0.1333 -0.2772 -0.0636
13398SOL    HW140772   1.261   8.259   9.521 -0.6286  0.9501  1.1173
13398SOL    HW240773   1.292   8.117   9.562  0.8209  0.5139 -1.2992
13399SOL     OW40774   0.620   2.192   8.059  0.0416  0.6553 -0.0554
13399SOL    HW140775   0.698   2.164   8.012 -0.4373 -1.0711  0.1279
13399SOL    HW240776   0.653   2.250   8.128  1.4225 -1.3785  1.1074
13400SOL     OW40777   5.178   3.426   3.974  0.4565  0.2257  0.7605
13400SOL    HW140778   5.174   3.423   4.069  1.3117  0.0394  0.7924
13400SOL    HW240779   5.213   3.512   3.954  2.5355 -0.5718  0.7090
13401SOL     OW40780   6.781   9.997   9.029 -0.1934 -0.3647 -0.2646
13401SOL    HW140781   6.818   9.931   8.970 -0.4594  1.1496 -2.1997
13401SOL    HW240782   6.686   9.982   9.025 -0.1813 -0.6110  0.2462
13402SOL     OW40783   1.087   7.206   8.731  0.1472  0.0437 -0.3088
13402SOL    HW140784   1.155   7.265   8.698 -0.7636  1.4675  0.2917
13402SOL    HW240785   1.111   7.120   8.695  2.3765  0.4482  0.0620
13403SOL     OW40786   0.430   2.733   6.074 -0.0073  0.3917  0.8356
13403SOL    HW140787   0.480   2.700   6.000  0.6029 -0.3968  1.5726
13403SOL    HW240788   0.391   2.656   6.113 -2.1900  1.0353  0.0477
13404SOL     OW40789   8.512   8.813   6.528 -0.0188 -0.0657  0.0686
13404SOL    HW140790   8.531   8.719   6.521 -0.9552 -0.3008  0.5119
13404SOL    HW240791   8.522   8.832   6.622 -0.7487  0.0674  0.1224
13405SOL     OW40792   8.823   1.785   3.849  0.1725 -0.4874 -0.0793
13405SOL    HW140793   8.905   1.765   3.894  0.4690  1.5201  0.3560
13405SOL    HW240794   8.850   1.818   3.763 -0.2086 -0.5505 -0.2259
13406SOL     OW40795   1.176   2.461   9.193 -0.5937  0.7188 -0.0374
13406SOL    HW140796   1.249   2.418   9.237 -0.4375  1.9078  0.9038
13406SOL    HW240797   1.150   2.399   9.125  1.5115  0.4065 -0.6433
13407SOL     OW40798   8.236   9.567   5.252 -0.0524 -0.2154  0.5344
13407SOL    HW140799   8.228   9.475   5.228 -1.1690  0.1718 -0.6355
13407SOL    HW240800   8.331   9.583   5.251  0.2293 -1.5733  1.7255
13408SOL     OW40801   7.874   0.650   7.815 -0.2392  0.3318 -0.2374
13408SOL    HW140802   7.884   0.580   7.878  0.2059 -1.5886 -2.3222
13408SOL    HW240803   7.783   0.643   7.786 -0.8970  2.1650  1.1668
13409SOL     OW40804   0.838   3.513   6.718  0.3624  0.1908  0.0968
13409SOL    HW140805   0.848   3.418   6.710  0.3797  0.1382  0.7326
13409SOL    HW240806   0.885   3.548   6.643 -0.9998 -0.3635 -1.0796
13410SOL     OW40807   5.527   4.424   9.629  0.5247 -0.3115  0.6804
13410SOL    HW140808   5.510   4.480   9.552  3.4071 -1.2731 -0.7984
13410SOL    HW240809   5.615   4.449   9.657  1.0292 -2.5981  1.2917
13411SOL     OW40810   7.959   9.113   6.558 -0.0203  0.8934  0.5028
13411SOL    HW140811   7.958   9.158   6.473  1.4538  1.5295  0.7865
13411SOL    HW240812   8.012   9.035   6.543 -1.0673  0.1771  0.4638
13412SOL     OW40813   2.731   7.091   0.884  0.2877  0.0632 -0.4417
13412SOL    HW140814   2.798   7.033   0.921  2.7754  0.8116 -3.3777
13412SOL    HW240815   2.684   7.036   0.822  0.6254  0.4277 -1.0241
13413SOL     OW40816   6.930   5.321   9.837  0.0322  0.4345  0.2751
13413SOL    HW140817   6.974   5.385   9.892  0.3915  0.4216  0.0003
13413SOL    HW240818   6.858   5.370   9.795 -1.9200 -0.1185  2.7352
13414SOL     OW40819   2.420   4.187   2.130 -0.3300  0.6476 -0.4143
13414SOL    HW140820   2.461   4.258   2.179 -2.6739  0.4051  2.1843
13414SOL    HW240821   2.459   4.107   2.165 -1.7789  0.4910  0.9982
13415SOL     OW40822   0.132   1.681   8.046 -0.1226  0.4924  0.3022
13415SOL    HW140823   0.042   1.702   8.072  0.1095  2.1120 -0.1101
13415SOL    HW240824   0.153   1.745   7.977  1.6295  0.6724  0.9509
13416SOL     OW40825   3.571   0.187   3.067  0.1997 -0.2067 -0.3106
13416SOL    HW140826   3.646   0.242   3.044 -0.3732 -0.1035 -2.0953
13416SOL    HW240827   3.538   0.225   3.148  1.9652 -0.1622  0.4370
13417SOL     OW40828   1.030   3.728   2.580 -0.4280 -0.0029  0.3312
13417SOL    HW140829   1.028   3.796   2.512  0.1428 -0.4100 -0.1043
13417SOL    HW240830   1.108   3.676   2.559 -1.5687 -1.5999 -0.1378
13418SOL     OW40831   0.932   9.036   2.771 -0.2526 -0.4065 -0.0684
13418SOL    HW140832   0.960   9.046   2.680  1.8002  0.1611  0.5669
13418SOL    HW240833   0.838   9.053   2.770 -0.5724 -1.8688 -2.2904
13419SOL     OW40834   2.471   2.374   8.576  0.2326  0.5377  0.0087
13419SOL    HW140835   2.539   2.394   8.641  1.0662  1.1500 -1.0274
13419SOL    HW240836   2.519   2.354   8.496 -0.7437 -1.3522 -0.1542
13420SOL     OW40837   3.866   5.426   5.567 -0.1733  0.0406 -0.0975
13420SOL    HW140838   3.808   5.426   5.491 -1.0500  0.2770  0.5494
13420SOL    HW240839   3.846   5.508   5.612  1.0810  0.3993 -0.1546
13421SOL     OW40840   8.937   4.285   0.884  0.3544  0.7351  0.2570
13421SOL    HW140841   8.853   4.311   0.846  1.5859  2.5373 -1.4351
13421SOL    HW240842   8.983   4.368   0.899  2.0608 -0.2289  0.5848
13422SOL     OW40843   8.655   9.054   8.851 -0.1108 -0.0921 -0.0433
13422SOL    HW140844   8.581   9.054   8.912 -0.2186 -0.9043 -0.1625
13422SOL    HW240845   8.615   9.072   8.765 -0.3073 -1.3582 -0.2407
13423SOL     OW40846   6.263   3.296   4.487 -0.1836  0.0871 -0.7117
13423SOL    HW140847   6.225   3.248   4.413 -1.4887 -1.1621  0.7018
13423SOL    HW240848   6.198   3.287   4.557  1.2703  0.7319  0.7808
13424SOL     OW40849   4.101   5.311   2.822  0.2902 -0.5930 -0.0783
13424SOL    HW140850   4.028   5.255   2.846  0.4108 -0.1183  1.5152
13424SOL    HW240851   4.178   5.267   2.859  0.4819  0.1926  0.4879
13425SOL     OW40852   9.188   9.768   2.252  0.7669 -0.1757 -0.1632
13425SOL    HW140853   9.244   9.839   2.283  2.0984 -1.1710 -0.2128
13425SOL    HW240854   9.248   9.706   2.210 -0.6941  0.0476 -2.8126
13426SOL     OW40855   2.417   7.928   6.454 -0.1217 -0.3301  0.1729
13426SOL    HW140856   2.411   8.021   6.434 -1.1831 -0.2890  0.6422
13426SOL    HW240857   2.329   7.894   6.441 -0.7333 -0.4760  3.6867
13427SOL     OW40858   0.644   6.572   7.313  0.2544  0.3062  0.7324
13427SOL    HW140859   0.580   6.505   7.288  0.1293  0.2168  1.2854
13427SOL    HW240860   0.658   6.559   7.406  2.5205 -0.9247  0.3006
13428SOL     OW40861   5.416   8.303   4.850  0.0128  0.1418  0.1487
13428SOL    HW140862   5.388   8.389   4.817  0.9301 -0.0336 -1.1664
13428SOL    HW240863   5.343   8.245   4.831 -0.3179  0.4798  0.3738
13429SOL     OW40864   2.160   7.380   3.149 -0.3698 -0.0831 -0.1450
13429SOL    HW140865   2.123   7.467   3.135  1.7322  0.5782 -2.4094
13429SOL    HW240866   2.165   7.342   3.061  1.6329 -1.1911  0.3844
13430SOL     OW40867   2.234   6.643   8.935  0.3280  0.6097 -0.4084
13430SOL    HW140868   2.307   6.624   8.876  1.0788  0.1090  0.6390
13430SOL    HW240869   2.222   6.562   8.985 -0.9752  0.6687 -0.5692
13431SOL     OW40870   0.295   2.575   7.360 -0.1202 -0.2782  0.9776
13431SOL    HW140871   0.286   2.480   7.354 -0.8464 -0.2733  1.8658
13431SOL    HW240872   0.351   2.589   7.436  0.4398  0.0014  0.5272
13432SOL     OW40873   6.933   1.076   4.673 -0.3237  0.2070  0.3642
13432SOL    HW140874   6.873   1.144   4.644 -0.1702  0.0700 -0.2800
13432SOL    HW240875   7.020   1.108   4.649 -0.3142 -0.6068 -0.7451
13433SOL     OW40876   8.068   3.762   8.350  0.0718 -0.1618  0.0364
13433SOL    HW140877   8.133   3.698   8.380  0.6306 -0.1828 -1.1934
13433SOL    HW240878   8.109   3.847   8.365  0.7011 -0.1900 -1.3876
13434SOL     OW40879   5.024   0.450   4.803  0.7268  0.2308 -0.5871
13434SOL    HW140880   5.099   0.391   4.795  0.9978  0.6533 -1.2439
13434SOL    HW240881   5.037   0.514   4.733  0.2354  0.8449 -0.1197
13435SOL     OW40882   7.752   3.931   7.610 -0.0057 -0.2889 -0.0913
13435SOL    HW140883   7.758   3.969   7.522  0.3149 -0.4591 -0.1433
13435SOL    HW240884   7.772   4.004   7.669 -1.7769  0.2338 -0.0775
13436SOL     OW40885   3.664   5.224   0.971 -0.0496 -0.1634  0.2499
13436SOL    HW140886   3.648   5.317   0.984 -0.0379 -0.0866 -0.2566
13436SOL    HW240887   3.757   5.212   0.987 -0.1597 -0.1915  0.8817
13437SOL     OW40888   0.326   2.353   3.334  0.0479 -0.6332 -0.3029
13437SOL    HW140889   0.387   2.378   3.404 -0.0168 -1.4716  0.0611
13437SOL    HW240890   0.239   2.368   3.371  0.0136 -0.3027 -0.5044
13438SOL     OW40891   5.404   5.643   9.285  0.5225 -0.3613 -0.8143
13438SOL    HW140892   5.441   5.559   9.312  1.3075  0.0523 -0.5765
13438SOL    HW240893   5.316   5.644   9.324  0.5297 -1.0331 -0.7607
13439SOL     OW40894   6.052   6.389   4.223 -0.2466  0.0593 -0.3523
13439SOL    HW140895   6.072   6.313   4.169 -1.1927  0.2748 -1.0236
13439SOL    HW240896   6.083   6.365   4.311 -0.2858 -0.9838 -0.6143
13440SOL     OW40897   5.939   7.341   6.653  0.5201  0.2479  0.4295
13440SOL    HW140898   5.986   7.282   6.711 -0.1778 -1.6112 -0.7951
13440SOL    HW240899   5.972   7.320   6.566 -1.2171  0.1629 -0.2506
13441SOL     OW40900   1.088   3.645   0.885  0.3771  0.2676  0.6175
13441SOL    HW140901   1.128   3.560   0.903  2.0645  0.8952  0.0309
13441SOL    HW240902   1.158   3.696   0.845 -0.2863  2.2969  1.9212
13442SOL     OW40903   9.942   2.416   1.920 -0.7150 -0.0389  0.3332
13442SOL    HW140904   9.892   2.375   1.990  0.7956 -0.6731  1.0961
13442SOL    HW240905   9.931   2.510   1.935 -0.1510 -0.1550  1.6653
13443SOL     OW40906   5.520   3.665   3.947 -0.1749 -0.0733  0.2776
13443SOL    HW140907   5.440   3.677   3.895 -0.8477 -1.5027  0.9446
13443SOL    HW240908   5.553   3.754   3.960 -1.4211  0.5092 -0.3779
13444SOL     OW40909   8.938   3.717   5.030 -0.1816 -0.2774  1.1965
13444SOL    HW140910   9.023   3.758   5.048 -0.5976  1.4676 -0.4244
13444SOL    HW240911   8.886   3.735   5.109  0.3389  0.4284  1.3950
13445SOL     OW40912   2.588   7.207   2.200 -0.0525 -0.2904 -0.2575
13445SOL    HW140913   2.573   7.139   2.265  0.6448  0.4459  0.6867
13445SOL    HW240914   2.652   7.169   2.139  2.5311  0.4594  1.8272
13446SOL     OW40915   6.624   7.916   7.637 -0.2115  0.5323 -0.1317
13446SOL    HW140916   6.588   7.999   7.605  0.1456  0.6183 -0.3057
13446SOL    HW240917   6.718   7.932   7.647 -0.1670  0.2006 -0.0030
13447SOL     OW40918   8.577   2.192   9.614  0.1096 -0.3623 -0.1615
13447SOL    HW140919   8.661   2.193   9.569  0.1841  1.2634 -0.0387
13447SOL    HW240920   8.600   2.181   9.707  0.0745 -1.5217 -0.2733
13448SOL     OW40921   7.212   7.355   0.316 -0.2860  0.5724 -0.0608
13448SOL    HW140922   7.284   7.319   0.265  1.9540  0.4444  2.9460
13448SOL    HW240923   7.232   7.448   0.325  1.1429  0.1061  2.9857
13449SOL     OW40924   2.687   1.472   4.903 -0.4729 -0.3290  0.1495
13449SOL    HW140925   2.750   1.487   4.832 -0.0242  3.4654  1.1313
13449SOL    HW240926   2.739   1.430   4.971 -0.1561 -1.2221 -0.6098
13450SOL     OW40927   0.476   2.201   1.388 -0.2020  0.1553 -0.5451
13450SOL    HW140928   0.469   2.170   1.478  0.9055 -1.5526 -0.9977
13450SOL    HW240929   0.427   2.137   1.337  0.0853  0.4917 -1.2561
13451SOL     OW40930   4.457   3.384   1.106 -0.3563 -0.2683 -0.0995
13451SOL    HW140931   4.380   3.362   1.158 -0.1387  0.2263  0.4375
13451SOL    HW240932   4.443   3.476   1.081 -1.8055 -1.1823 -3.2475
13452SOL     OW40933   0.632   8.630   6.679  0.1713  0.2905  0.2966
13452SOL    HW140934   0.565   8.561   6.674 -0.4648  0.9640 -1.5834
13452SOL    HW240935   0.710   8.585   6.711 -0.9379 -0.6879  1.7675
13453SOL     OW40936   4.255   0.693   9.633  0.6027 -0.3257  0.0081
13453SOL    HW140937   4.197   0.760   9.669 -0.1139 -1.5602  1.2484
13453SOL    HW240938   4.341   0.715   9.668  0.2206 -0.5000  1.1217
13454SOL     OW40939   0.247   0.123   0.705  0.2638  0.2068  0.1809
13454SOL    HW140940   0.256   0.216   0.728  1.2095  0.4577 -1.1071
13454SOL    HW240941   0.202   0.124   0.621  1.4778 -0.4174 -0.5029
13455SOL     OW40942   7.735   7.618   6.734 -0.6018 -0.1877  0.5169
13455SOL    HW140943   7.658   7.671   6.755  0.5393  0.8522  2.3404
13455SOL    HW240944   7.758   7.575   6.816  1.2277  0.1768  0.2480
13456SOL     OW40945   6.361   3.018   2.458  0.2023  0.0803 -0.1971
13456SOL    HW140946   6.318   2.937   2.485 -0.9195  0.5802 -0.4324
13456SOL    HW240947   6.385   3.061   2.540  1.1986 -0.6631 -0.0661
13457SOL     OW40948   5.964   9.704   0.296 -0.6242 -0.2304  0.3010
13457SOL    HW140949   5.922   9.765   0.236 -0.4110 -0.0131  0.3676
13457SOL    HW240950   6.030   9.757   0.341  0.5774 -0.8222 -0.6733
13458SOL     OW40951   0.937   7.141   7.931  0.2211  0.5489 -0.2187
13458SOL    HW140952   1.006   7.112   7.871  0.3278  1.0413 -0.3338
13458SOL    HW240953   0.979   7.205   7.988  0.3527 -0.5376  0.9691
13459SOL     OW40954   3.692   5.597   4.701 -0.8603  0.0302 -0.4742
13459SOL    HW140955   3.723   5.558   4.620 -2.0825  0.9402 -1.4271
13459SOL    HW240956   3.654   5.524   4.751 -1.8002 -0.2576 -1.5726
13460SOL     OW40957   5.761   8.291   3.193  0.3882 -0.7431 -0.2042
13460SOL    HW140958   5.768   8.385   3.177  0.3026 -0.7490 -0.2753
13460SOL    HW240959   5.717   8.256   3.115  0.6561 -0.8780 -0.2961
13461SOL     OW40960   0.357   3.101   3.652 -0.3834  0.4039  0.3983
13461SOL    HW140961   0.286   3.088   3.590 -1.1908  0.9076  1.1977
13461SOL    HW240962   0.437   3.089   3.601 -1.0396  0.4102 -0.6378
13462SOL     OW40963   3.702   8.611   6.948 -0.0138 -0.1267 -0.2530
13462SOL    HW140964   3.729   8.694   6.985  2.1642 -0.2195 -1.4695
13462SOL    HW240965   3.609   8.604   6.970  0.4799  1.0817  2.6427
13463SOL     OW40966   2.898   1.958   3.499  0.0708  0.3317 -0.1859
13463SOL    HW140967   2.883   1.876   3.452 -0.2377  1.0763 -1.4162
13463SOL    HW240968   2.985   1.987   3.470 -0.0058  0.6632 -0.0858
13464SOL     OW40969   6.296   8.993   4.666  0.0792  0.4573 -0.3286
13464SOL    HW140970   6.375   9.047   4.659 -0.3069  1.2651  1.1681
13464SOL    HW240971   6.245   9.017   4.589  0.8317  0.6993 -0.7658
13465SOL     OW40972   7.636   3.227   8.851 -0.2132  0.0640 -1.0348
13465SOL    HW140973   7.605   3.151   8.900  0.4630  1.4968  1.8961
13465SOL    HW240974   7.731   3.217   8.849 -0.2312  0.0301 -2.1200
13466SOL     OW40975   8.451   8.464   8.414  0.1168 -0.5297  0.5911
13466SOL    HW140976   8.360   8.495   8.407  0.1530 -0.6728 -1.0342
13466SOL    HW240977   8.458   8.429   8.502 -1.1223  0.3871  1.0860
13467SOL     OW40978   1.208   6.613   9.006 -0.0578  0.3502 -0.1253
13467SOL    HW140979   1.268   6.659   8.948  1.5166 -0.9295  0.4187
13467SOL    HW240980   1.123   6.620   8.963  0.0168  3.8102 -0.0338
13468SOL     OW40981   6.432   6.338   5.795 -0.0684 -0.1801  0.1083
13468SOL    HW140982   6.427   6.243   5.788 -2.8998 -0.3539  2.4485
13468SOL    HW240983   6.512   6.355   5.843  0.4837 -1.3488 -0.3679
13469SOL     OW40984   9.156   0.030   4.575 -0.2850 -0.4925 -0.1523
13469SOL    HW140985   9.228   0.049   4.635 -0.2152  1.3100 -0.7491
13469SOL    HW240986   9.081   0.073   4.614 -0.5882 -0.6200 -0.5880
13470SOL     OW40987   7.895   4.537   6.146  0.2002 -0.0206 -0.0688
13470SOL    HW140988   7.987   4.555   6.131  0.1260 -0.3244 -0.9309
13470SOL    HW240989   7.848   4.603   6.094 -0.0693 -0.0117  0.1792
13471SOL     OW40990   7.141   0.371   2.055 -0.4022  0.2423 -0.1418
13471SOL    HW140991   7.095   0.443   2.011 -0.3166 -0.3109 -1.1529
13471SOL    HW240992   7.080   0.340   2.122 -0.8465  0.5681 -0.3946
13472SOL     OW40993   6.720   1.524   4.878 -0.1207 -0.0862  0.6607
13472SOL    HW140994   6.734   1.561   4.965  0.9261  0.7861  0.1440
13472SOL    HW240995   6.685   1.596   4.826  1.3654  0.0417 -0.2007
13473SOL     OW40996   2.769  10.000   1.550  0.0386  0.0619  0.3125
13473SOL    HW140997   2.849   9.958   1.582 -0.5242 -0.1870  1.4624
13473SOL    HW240998   2.700   9.936   1.569 -0.3832  0.0587 -1.1332
13474SOL     OW40999   3.255   0.289   0.533 -0.0902  0.1148 -0.0239
13474SOL    HW141000   3.321   0.221   0.517 -1.2009 -0.9405 -0.2963
13474SOL    HW241001   3.224   0.270   0.622  0.3385  0.9400  0.3102
13475SOL     OW41002   0.232   2.034   0.686 -0.0192  0.0378  0.3564
13475SOL    HW141003   0.267   2.103   0.630 -0.5205 -0.1315 -0.1806
13475SOL    HW241004   0.141   2.025   0.658  0.3770 -1.7488 -0.5183
13476SOL     OW41005   1.322   2.908   4.465  0.4634 -0.3217 -0.0722
13476SOL    HW141006   1.284   2.990   4.498 -0.8883 -0.8626 -0.2221
13476SOL    HW241007   1.294   2.841   4.528  1.1177 -0.7502 -0.2309
13477SOL     OW41008   7.248   1.580   2.503  0.3924  0.5994  0.6037
13477SOL    HW141009   7.342   1.577   2.491  0.1938  0.7215 -1.2910
13477SOL    HW241010   7.223   1.669   2.476 -0.0979  1.2164  2.8361
13478SOL     OW41011   5.361   0.874   0.773  0.6883 -0.6219 -0.2163
13478SOL    HW141012   5.455   0.892   0.777  0.4920  0.3314  1.9408
13478SOL    HW241013   5.332   0.880   0.864 -1.7811  1.0479 -0.9932
13479SOL     OW41014   2.868   3.559   5.530  0.2950 -0.3765 -0.3675
13479SOL    HW141015   2.937   3.533   5.591  0.2131  0.5573  0.1499
13479SOL    HW241016   2.908   3.550   5.443  2.4082  3.4535 -0.0466
13480SOL     OW41017   8.887   8.739   3.216  0.0800 -0.4837 -0.3357
13480SOL    HW141018   8.877   8.800   3.289 -0.8252 -1.7859  0.6663
13480SOL    HW241019   8.920   8.659   3.256 -1.9105 -1.7403 -1.0743
13481SOL     OW41020   4.464   7.894   3.118  0.0330  0.1621 -0.4570
13481SOL    HW141021   4.421   7.868   3.036  1.6684 -0.1710 -1.2500
13481SOL    HW241022   4.485   7.986   3.106 -0.7325  0.4069  0.0587
13482SOL     OW41023   5.273   0.862   3.953  0.2726  0.3462  0.1110
13482SOL    HW141024   5.182   0.888   3.937 -0.2308 -0.0471  2.1462
13482SOL    HW241025   5.312   0.937   3.997  0.7601  0.2437 -0.1350
13483SOL     OW41026   7.184   5.784   2.055 -0.1201 -0.8170 -0.0310
13483SOL    HW141027   7.125   5.729   2.107 -2.1436  1.5051  0.3008
13483SOL    HW241028   7.245   5.820   2.119  0.2481 -1.4438 -0.0168
13484SOL     OW41029   2.539   2.099   9.636  0.2623 -0.2188 -0.4579
13484SOL    HW141030   2.489   2.044   9.696 -0.3775  0.5685 -0.2420
13484SOL    HW241031   2.631   2.081   9.657  0.0561 -0.9590 -0.1821
13485SOL     OW41032   0.566   5.805   4.040  0.4190 -0.0470  0.4803
13485SOL    HW141033   0.634   5.831   4.102 -1.0006 -0.0480  2.1369
13485SOL    HW241034   0.498   5.872   4.049  0.7950  0.8366 -2.2795
13486SOL     OW41035   2.961   6.425   4.832 -0.1579 -0.1044  0.1441
13486SOL    HW141036   2.938   6.398   4.921 -0.7055 -0.0670  0.0221
13486SOL    HW241037   2.954   6.345   4.780 -1.2429  0.1329 -0.1159
13487SOL     OW41038   4.382   1.748   2.365 -0.1494 -0.4359 -0.2956
13487SOL    HW141039   4.292   1.755   2.397  0.4046 -0.3866  1.3268
13487SOL    HW241040   4.401   1.654   2.368 -0.1930 -0.4660 -0.8181
13488SOL     OW41041   5.411   1.351   7.177  0.2563 -0.2488  0.0976
13488SOL    HW141042   5.450   1.428   7.137  1.5625 -0.2930  1.2267
13488SOL    HW241043   5.431   1.280   7.116  0.1086  0.0840 -0.3452
13489SOL     OW41044   8.435   7.801   5.034  0.1408 -0.0081 -0.2539
13489SOL    HW141045   8.420   7.712   5.004  0.0522  0.2034 -0.8616
13489SOL    HW241046   8.476   7.845   4.959  0.6291  0.3344  0.2038
13490SOL     OW41047   9.016   1.611   5.825 -0.7034 -0.1519  0.2965
13490SOL    HW141048   9.107   1.597   5.802 -0.5723 -1.4871  1.4996
13490SOL    HW241049   9.018   1.682   5.890 -0.5278 -0.2368  0.3830
13491SOL     OW41050   4.780   9.951   8.755 -0.1116 -0.0157 -0.2214
13491SOL    HW141051   4.753  10.013   8.822  1.0788  1.8025 -1.3328
13491SOL    HW241052   4.825   9.881   8.803 -0.6698  0.4234  0.9825
13492SOL     OW41053   7.988   7.985   0.544 -0.2809  0.4892 -0.5942
13492SOL    HW141054   8.029   7.999   0.630  1.7974  0.9282 -1.5961
13492SOL    HW241055   7.944   7.901   0.552 -1.3674  1.1667  1.3290
13493SOL     OW41056   9.762   3.444   2.483  0.2570  0.5909 -0.4102
13493SOL    HW141057   9.760   3.378   2.552 -0.1650  0.0296 -0.9482
13493SOL    HW241058   9.849   3.435   2.445  0.0697  0.0681 -0.7329
13494SOL     OW41059   2.131   5.465   5.489 -0.3846  0.0056 -0.3153
13494SOL    HW141060   2.146   5.371   5.503  0.6316 -0.0636 -1.7148
13494SOL    HW241061   2.219   5.503   5.488 -0.7555  0.8653 -0.5207
13495SOL     OW41062   8.369   2.303   1.016  0.1702  0.0393 -0.0583
13495SOL    HW141063   8.393   2.213   0.992  0.8979  0.1915  0.0760
13495SOL    HW241064   8.451   2.342   1.046 -0.3743  0.4007  0.9819
13496SOL     OW41065   6.078   5.246   2.344  0.0091  0.1201  0.2976
13496SOL    HW141066   6.101   5.201   2.262 -1.1361  0.3769 -0.1818
13496SOL    HW241067   6.012   5.310   2.319 -0.5072  0.0691  1.4675
13497SOL     OW41068   6.360   9.359   7.724 -0.4587  0.3301 -0.1649
13497SOL    HW141069   6.341   9.380   7.633 -0.2066 -1.4549 -0.6617
13497SOL    HW241070   6.455   9.351   7.728 -0.3443  1.6430  0.5808
13498SOL     OW41071   1.786   1.285   3.750 -0.1985 -0.0585 -0.1580
13498SOL    HW141072   1.759   1.284   3.841 -0.1228 -0.8843 -0.1335
13498SOL    HW241073   1.854   1.352   3.745 -0.2250  0.0096  0.3851
13499SOL     OW41074   9.940   8.325   2.841 -0.5048 -0.0661  0.2081
13499SOL    HW141075   9.992   8.396   2.805  1.2537 -0.7505  1.2393
13499SOL    HW241076   9.908   8.277   2.765  0.0462  0.6092 -0.4656
13500SOL     OW41077   4.281   8.875   2.762  0.0300 -0.0268 -0.1959
13500SOL    HW141078   4.202   8.919   2.728 -1.6969 -1.4447  1.7329
13500SOL    HW241079   4.271   8.784   2.734  0.9067 -0.2616  0.2327
13501SOL     OW41080   5.049   0.482   6.091  0.3919 -0.2852  0.5838
13501SOL    HW141081   4.984   0.419   6.121 -0.2216  0.6547  1.2934
13501SOL    HW241082   5.038   0.557   6.149  1.4741  0.2687  0.1066
13502SOL     OW41083   0.578   8.590   2.835  0.1805  0.0566  0.5324
13502SOL    HW141084   0.661   8.577   2.790  0.7207 -0.9517  1.7532
13502SOL    HW241085   0.568   8.512   2.889 -1.0874  0.6192  1.1526
13503SOL     OW41086   6.040   9.756   8.323 -0.1383 -0.2860 -0.0398
13503SOL    HW141087   6.058   9.708   8.242 -1.0306 -1.3940  0.3837
13503SOL    HW241088   5.946   9.775   8.318  0.2023  1.5286 -0.2231
13504SOL     OW41089   9.243   7.709   3.511  0.9966 -0.5331 -0.0459
13504SOL    HW141090   9.210   7.755   3.433  3.1400 -0.9394 -1.2546
13504SOL    HW241091   9.202   7.755   3.584  0.0948  0.8323 -1.3417
13505SOL     OW41092   6.964   0.795   4.101 -0.4669 -0.4189 -0.2122
13505SOL    HW141093   7.009   0.831   4.178  0.0860 -0.5018 -0.4918
13505SOL    HW241094   7.022   0.816   4.028 -1.2676  0.1743 -0.6970
13506SOL     OW41095   3.004   4.269   1.183 -0.3706 -0.1850  0.1720
13506SOL    HW141096   3.056   4.327   1.126  2.5160 -0.4213  2.3470
13506SOL    HW241097   2.972   4.201   1.124  0.9615  0.5619 -1.5127
13507SOL     OW41098   4.947   6.898   1.959 -0.4036  0.2124  0.0761
13507SOL    HW141099   4.918   6.808   1.973  0.7842 -0.2074  0.0057
13507SOL    HW241100   4.924   6.944   2.040  0.1846 -0.4923  0.6616
13508SOL     OW41101   4.424   2.890   6.209  0.1238 -0.2886 -0.1525
13508SOL    HW141102   4.425   2.958   6.277 -0.1900 -0.3220 -0.1126
13508SOL    HW241103   4.346   2.909   6.157 -0.5539 -1.2274  0.4800
13509SOL     OW41104   9.506   6.189   2.497 -0.1453  0.0291  0.4710
13509SOL    HW141105   9.514   6.239   2.579 -0.7943 -0.8172  1.0664
13509SOL    HW241106   9.422   6.216   2.461 -0.7272 -0.9696  1.0433
13510SOL     OW41107   4.763   7.832   9.049 -0.0800 -0.0974  0.0020
13510SOL    HW141108   4.772   7.924   9.026  2.1137 -0.2042  0.2403
13510SOL    HW241109   4.803   7.785   8.976 -1.5932 -0.9180 -0.3402
13511SOL     OW41110   8.927   7.574   0.952 -0.0051 -0.3832 -0.0276
13511SOL    HW141111   8.973   7.657   0.960 -0.5842 -0.0358 -0.2329
13511SOL    HW241112   8.995   7.508   0.964  0.1676  0.0977  1.9563
13512SOL     OW41113   9.510   1.713   8.516  0.4070  0.0154  0.2788
13512SOL    HW141114   9.533   1.804   8.534  0.2934  0.0514  0.2409
13512SOL    HW241115   9.531   1.667   8.598  1.4895 -0.1185 -0.0580
13513SOL     OW41116   6.134   0.874   8.095  0.3401  0.6182  0.6243
13513SOL    HW141117   6.131   0.790   8.049  1.9376  1.1109 -0.4920
13513SOL    HW241118   6.050   0.915   8.076 -0.3392 -0.5878  0.9426
13514SOL     OW41119   7.053   0.857   4.354 -0.1212 -0.1922 -0.0481
13514SOL    HW141120   6.960   0.836   4.367 -0.3605  0.6637 -0.3013
13514SOL    HW241121   7.075   0.913   4.428 -0.1188  0.5365 -0.5900
13515SOL     OW41122   1.257   9.764   3.497 -0.5376  0.0742  0.6386
13515SOL    HW141123   1.252   9.857   3.517 -0.1042  0.1009  0.6309
13515SOL    HW241124   1.301   9.760   3.412  2.0723 -0.2435  1.8853
13516SOL     OW41125   7.636   7.369   6.611 -0.3719 -0.1646 -0.1691
13516SOL    HW141126   7.670   7.451   6.648 -0.3213  0.9498 -2.4840
13516SOL    HW241127   7.702   7.344   6.546 -2.1228  0.0138 -2.1199
13517SOL     OW41128   7.269   6.439   2.979 -0.1001  0.4195  0.2520
13517SOL    HW141129   7.358   6.415   2.956 -0.1369 -0.7416  1.2199
13517SOL    HW241130   7.279   6.505   3.048  0.0145 -0.1491  0.7814
13518SOL     OW41131   9.704   3.971   8.725 -0.3984  0.1909  0.2492
13518SOL    HW141132   9.780   4.029   8.717 -1.0972  1.7576  3.4435
13518SOL    HW241133   9.736   3.898   8.779 -0.4849 -0.6275 -0.7644
13519SOL     OW41134   3.934   8.898   1.927 -0.1950 -1.1743 -0.7720
13519SOL    HW141135   3.977   8.845   1.859  0.9632 -0.8498 -0.3127
13519SOL    HW241136   3.883   8.835   1.978  0.1897 -1.6592 -0.9806
13520SOL     OW41137   3.084   4.305   9.091  0.3825  0.1614  0.8710
13520SOL    HW141138   3.096   4.400   9.096 -0.4326  0.3375 -0.1195
13520SOL    HW241139   3.012   4.287   9.152 -1.7765  0.7043 -1.3274
13521SOL     OW41140   9.816   7.983   6.577 -0.2826  0.2361 -0.2173
13521SOL    HW141141   9.884   7.981   6.509  1.1897  0.6835  1.1887
13521SOL    HW241142   9.864   7.990   6.659 -2.0369  0.1246  0.8685
13522SOL     OW41143   2.380   2.845   4.172  1.0317  0.0924 -0.4923
13522SOL    HW141144   2.391   2.794   4.253  0.8620 -0.7127 -0.9683
13522SOL    HW241145   2.460   2.898   4.167 -0.0833  2.1378  1.5644
13523SOL     OW41146   8.748   2.435   1.702 -0.3763  0.8109  0.0402
13523SOL    HW141147   8.742   2.449   1.796 -0.8233 -4.1251  1.0301
13523SOL    HW241148   8.838   2.457   1.680  0.9751 -1.4895  2.5947
13524SOL     OW41149   4.559   2.316   9.548  0.0497  0.0355  0.4493
13524SOL    HW141150   4.472   2.350   9.527  0.7710  0.9256 -1.3097
13524SOL    HW241151   4.612   2.337   9.471  1.8860 -0.2799  1.5745
13525SOL     OW41152   8.750   5.337   3.512  0.3306  0.0441  0.2815
13525SOL    HW141153   8.831   5.328   3.460 -0.0290 -0.3210 -0.2286
13525SOL    HW241154   8.739   5.252   3.554  0.1306  0.0457  0.2321
13526SOL     OW41155   2.216   6.367   0.427  0.3526 -0.1094 -0.0413
13526SOL    HW141156   2.151   6.369   0.498 -0.2136  1.6134 -0.5602
13526SOL    HW241157   2.175   6.417   0.356  1.7978  0.0505 -0.7948
13527SOL     OW41158   4.294   8.418   1.129 -0.0022 -0.6667 -0.2450
13527SOL    HW141159   4.371   8.444   1.179  0.1642  0.1690 -0.9072
13527SOL    HW241160   4.293   8.477   1.053 -0.6354 -1.4365 -0.8608
13528SOL     OW41161   9.072   5.520   3.164 -0.4084 -0.0575  0.1486
13528SOL    HW141162   9.099   5.450   3.105 -1.5509  0.2553 -0.7808
13528SOL    HW241163   9.113   5.599   3.127 -0.3632  0.0039  0.3267
13529SOL     OW41164   2.280   1.844   7.429  0.7676  0.6110  0.8150
13529SOL    HW141165   2.235   1.924   7.455 -1.4182 -0.8730  1.8944
13529SOL    HW241166   2.315   1.808   7.510  1.8271  0.4893  0.3233
13530SOL     OW41167   2.832   8.979   5.302  0.2241 -0.8768 -0.6845
13530SOL    HW141168   2.874   8.921   5.239 -0.4953 -2.5420  0.3005
13530SOL    HW241169   2.877   8.961   5.385 -1.3051 -1.4901  0.0382
13531SOL     OW41170   8.977   7.281   2.120 -0.1031 -0.5479 -0.1329
13531SOL    HW141171   9.008   7.370   2.103  0.7933 -1.0214 -1.0968
13531SOL    HW241172   8.900   7.293   2.176  0.4576  0.7886  0.4009
13532SOL     OW41173   3.255   5.841   2.002 -0.1023  0.0578 -0.2619
13532SOL    HW141174   3.211   5.816   1.921 -0.9750  0.9768 -0.0807
13532SOL    HW241175   3.242   5.766   2.061 -0.5613 -0.0838 -0.5422
13533SOL     OW41176   2.884   9.930   9.185  0.0996 -0.6420  0.2591
13533SOL    HW141177   2.875   9.962   9.095  2.0655  1.5343  0.7414
13533SOL    HW241178   2.847   9.842   9.183 -1.9506  0.1489 -2.1441
13534SOL     OW41179   6.100   4.673   3.614  0.0222 -0.2437  0.0093
13534SOL    HW141180   6.192   4.689   3.632 -0.2392  1.3764  0.0080
13534SOL    HW241181   6.096   4.662   3.518 -0.1090  2.3283 -0.3362
13535SOL     OW41182   3.029   2.612   6.951 -0.1891 -0.2434 -0.4314
13535SOL    HW141183   3.071   2.698   6.958  0.8538 -0.7595 -0.0579
13535SOL    HW241184   3.046   2.584   6.861 -1.1185  0.2153 -0.7655
13536SOL     OW41185   8.644   4.156   9.436 -0.1932 -0.3236 -0.0100
13536SOL    HW141186   8.656   4.062   9.420  2.5646 -0.0113 -0.2870
13536SOL    HW241187   8.634   4.163   9.531  2.1155 -0.7626  0.3215
13537SOL     OW41188   6.191   9.438   2.871 -0.3812 -0.1423 -0.2360
13537SOL    HW141189   6.199   9.479   2.957  0.0476 -0.6111 -0.0444
13537SOL    HW241190   6.272   9.387   2.862 -0.3629  0.0111 -0.9722
13538SOL     OW41191   2.269   3.962   5.826 -0.0533 -0.1949 -0.2128
13538SOL    HW141192   2.299   3.877   5.861  2.4686  1.1009  1.1025
13538SOL    HW241193   2.177   3.949   5.807 -0.5120 -2.4141  2.7325
13539SOL     OW41194   3.407   3.522   3.165  0.3507 -0.4910  0.6226
13539SOL    HW141195   3.375   3.612   3.157  2.4954  0.2120 -0.8497
13539SOL    HW241196   3.343   3.470   3.117  0.7985  0.7232 -1.3816
13540SOL     OW41197   4.444   7.279   0.889  0.1347 -0.9074  0.0996
13540SOL    HW141198   4.423   7.274   0.796  0.9424 -0.8355 -0.1021
13540SOL    HW241199   4.360   7.275   0.933 -0.4750  1.3165 -0.7161
13541SOL     OW41200   5.271   4.343   0.944 -0.0906 -0.1370  0.3865
13541SOL    HW141201   5.362   4.333   0.915  0.0342  1.2128  0.2554
13541SOL    HW241202   5.273   4.420   1.001 -0.9637 -0.7421  1.2609
13542SOL     OW41203   9.553   1.264   7.070 -0.0528 -0.2859 -0.2758
13542SOL    HW141204   9.468   1.271   7.027 -0.7508 -0.1205  1.0787
13542SOL    HW241205   9.550   1.181   7.117 -0.7056  1.0829  2.2742
13543SOL     OW41206   6.046   6.164   9.797  0.0138  0.1126  0.3505
13543SOL    HW141207   6.016   6.230   9.859  0.8205  0.2058  0.6448
13543SOL    HW241208   6.053   6.211   9.714  0.4548  0.3661  0.5301
13544SOL     OW41209   2.446   3.706   0.635  0.1880  0.2726  0.6007
13544SOL    HW141210   2.442   3.789   0.587  0.2428  0.0643  0.2292
13544SOL    HW241211   2.539   3.688   0.643  0.1786 -0.8004 -1.1848
13545SOL     OW41212   7.605   3.982   3.868  0.7301 -0.3808  0.1605
13545SOL    HW141213   7.673   4.037   3.830  0.8435 -0.0847  0.7688
13545SOL    HW241214   7.543   3.967   3.797 -0.0276  1.6875  0.3194
13546SOL     OW41215   7.568   4.494   2.993 -0.0014  0.1257  0.6643
13546SOL    HW141216   7.510   4.553   3.042  0.2060 -0.4382  1.6155
13546SOL    HW241217   7.511   4.422   2.966 -0.0488  0.2872  0.3198
13547SOL     OW41218   9.795   8.586   2.746  0.6379  0.0809  0.5916
13547SOL    HW141219   9.719   8.637   2.773 -0.6696 -1.4811  0.0374
13547SOL    HW241220   9.779   8.498   2.781  2.4830 -0.1640  0.9455
13548SOL     OW41221   6.600   6.141   5.647  0.1177 -0.0129 -0.1838
13548SOL    HW141222   6.571   6.169   5.561  0.3329  0.8408  0.0120
13548SOL    HW241223   6.678   6.194   5.665 -0.0748  0.0089  0.6440
13549SOL     OW41224   4.663   2.636   7.807  0.2840  0.1537  0.3947
13549SOL    HW141225   4.730   2.615   7.871 -0.9138  0.7581  1.9211
13549SOL    HW241226   4.582   2.600   7.844 -0.6458  1.5634 -0.1778
13550SOL     OW41227   4.475   2.593   6.169 -0.5461  0.0394 -0.1560
13550SOL    HW141228   4.424   2.669   6.196 -1.4205 -0.6450  0.1901
13550SOL    HW241229   4.540   2.627   6.108 -1.0344  1.0343 -0.1318
13551SOL     OW41230   0.657   6.118   3.396 -0.5275  0.4108  0.2373
13551SOL    HW141231   0.726   6.068   3.352  1.3320  1.5641  1.6999
13551SOL    HW241232   0.626   6.179   3.329 -0.7970 -0.6972 -0.6934
13552SOL     OW41233   0.809   7.290   0.718 -0.4446  0.2458 -0.2937
13552SOL    HW141234   0.886   7.300   0.662 -0.2897  0.4900 -0.0430
13552SOL    HW241235   0.744   7.348   0.680 -0.2744  0.5614 -0.1116
13553SOL     OW41236   0.975   4.208   7.455 -0.5390 -0.0504 -0.5928
13553SOL    HW141237   0.953   4.116   7.440  0.3228 -0.1279 -1.5217
13553SOL    HW241238   1.069   4.207   7.475 -0.2798  0.7058 -1.6502
13554SOL     OW41239   0.405   7.246   3.532 -0.0817  0.1813 -0.0574
13554SOL    HW141240   0.498   7.221   3.527 -0.1951 -0.0140 -1.5400
13554SOL    HW241241   0.359   7.162   3.540 -0.2514  0.1184 -1.5397
13555SOL     OW41242   3.547   3.576   0.399  0.3436  0.3930 -0.3339
13555SOL    HW141243   3.531   3.649   0.338 -0.4411  0.4975 -0.0205
13555SOL    HW241244   3.548   3.498   0.343  1.1235  0.6294 -0.6636
13556SOL     OW41245   5.690   7.216   0.647  0.1467  0.3695  0.1207
13556SOL    HW141246   5.699   7.300   0.603 -0.2795  0.4276  0.1425
13556SOL    HW241247   5.620   7.171   0.600  1.3080 -0.5460 -0.7722
13557SOL     OW41248   1.860   8.814   1.214 -0.6813  0.3274  0.2004
13557SOL    HW141249   1.945   8.814   1.259 -1.0979 -1.3713  1.0403
13557SOL    HW241250   1.859   8.733   1.164 -1.4790  0.7551 -0.5052
13558SOL     OW41251   2.291   8.977   6.521 -0.2301 -0.1437 -0.1344
13558SOL    HW141252   2.294   8.884   6.542 -2.1701 -0.4638 -1.1406
13558SOL    HW241253   2.219   9.011   6.574  0.7933  0.9300  0.6274
13559SOL     OW41254   3.166   1.427   3.223  0.2526  0.0816 -0.4928
13559SOL    HW141255   3.201   1.516   3.216 -3.7825  2.2289  2.3684
13559SOL    HW241256   3.216   1.387   3.294 -0.2112  1.4837  0.6709
13560SOL     OW41257   2.359   1.121   0.426  0.0781 -0.0023  0.0624
13560SOL    HW141258   2.304   1.061   0.476  0.4746 -0.5006 -0.0909
13560SOL    HW241259   2.438   1.071   0.407  0.4638  0.6094  0.0280
13561SOL     OW41260   5.047   8.134   0.734  0.2970  0.2819  0.0534
13561SOL    HW141261   4.990   8.115   0.660  1.7166 -0.4594 -0.8944
13561SOL    HW241262   4.987   8.155   0.806 -1.1306  0.1594 -1.0583
13562SOL     OW41263   4.487   8.571   7.854 -0.2760  0.5538  0.0130
13562SOL    HW141264   4.549   8.604   7.788 -0.5431  0.2528 -0.3913
13562SOL    HW241265   4.453   8.650   7.896 -0.0940  0.7478 -0.2010
13563SOL     OW41266   2.903   4.417   9.422  0.0551 -0.0912 -0.2552
13563SOL    HW141267   2.977   4.358   9.404  0.6497  0.5132  0.1576
13563SOL    HW241268   2.922   4.454   9.509 -0.5239  0.3915 -0.3266
13564SOL     OW41269   8.891   5.510   5.926 -0.0273  0.2151  0.2802
13564SOL    HW141270   8.870   5.536   5.836  0.2765  0.3690  0.2522
13564SOL    HW241271   8.903   5.416   5.922  2.6927  0.5022 -0.4077
13565SOL     OW41272   4.431   5.318   2.921 -0.1912  0.0948  0.1160
13565SOL    HW141273   4.517   5.286   2.894  0.5722  2.0843  0.0101
13565SOL    HW241274   4.448   5.405   2.956 -2.0897  0.2495  0.7585
13566SOL     OW41275   2.015   6.071   4.735  0.4697  0.0593 -0.1569
13566SOL    HW141276   2.110   6.077   4.744  0.2602  2.1970  1.2999
13566SOL    HW241277   1.997   5.977   4.739  2.4466 -0.3405  0.6095
13567SOL     OW41278   3.756   6.375   5.372 -0.4883  0.6492 -0.0527
13567SOL    HW141279   3.755   6.295   5.319  0.5108  2.1357 -2.5082
13567SOL    HW241280   3.837   6.370   5.422 -1.0926 -0.4394  0.8821
13568SOL     OW41281   5.194   9.759   0.626  0.3221  0.4490 -0.3303
13568SOL    HW141282   5.129   9.691   0.641  1.1876 -0.0645  1.4071
13568SOL    HW241283   5.270   9.732   0.678  0.7642  2.6359  0.2860
13569SOL     OW41284   5.509   9.682   7.649 -0.4702 -0.0521 -0.3721
13569SOL    HW141285   5.563   9.730   7.712  0.6803 -1.6803 -0.0633
13569SOL    HW241286   5.473   9.750   7.592  0.5856  1.2358  0.4346
13570SOL     OW41287   8.202   6.629   2.531 -0.8263 -0.2202  0.3054
13570SOL    HW141288   8.157   6.713   2.533  0.6541  0.6169  0.2460
13570SOL    HW241289   8.132   6.563   2.537 -1.9278  1.0137  1.5697
13571SOL     OW41290   9.495   3.009   7.500  0.0216  0.1536 -0.1257
13571SOL    HW141291   9.511   2.916   7.517  0.3471  0.6410  2.7613
13571SOL    HW241292   9.404   3.013   7.472 -0.6082 -0.9051  1.6012
13572SOL     OW41293   9.224   1.046   2.546 -0.3699  0.4259  0.1417
13572SOL    HW141294   9.241   1.080   2.634  0.1843  0.0581  0.1872
13572SOL    HW241295   9.270   1.107   2.488 -1.5425  1.2209  0.0278
13573SOL     OW41296   6.460   3.600   5.140  0.3069 -0.1019 -0.1075
13573SOL    HW141297   6.447   3.519   5.091 -2.5905 -0.2775  0.7905
13573SOL    HW241298   6.548   3.629   5.114  0.7049 -2.5240 -1.8639
13574SOL     OW41299   7.468   5.883   1.731  0.5685  0.1801  0.2343
13574SOL    HW141300   7.383   5.871   1.688  0.5974  1.4368 -0.2154
13574SOL    HW241301   7.468   5.974   1.760  2.2038  0.5470 -0.7818
13575SOL     OW41302   2.141   6.619   4.529  0.4305 -0.1193  0.2657
13575SOL    HW141303   2.123   6.537   4.484 -1.0876  0.8720 -1.0696
13575SOL    HW241304   2.220   6.653   4.487  0.3483 -0.3107 -0.0438
13576SOL     OW41305   9.039   2.996   5.104  0.1801  0.3212 -0.2413
13576SOL    HW141306   9.090   3.039   5.173  0.6291 -1.2539  0.4605
13576SOL    HW241307   9.090   3.011   5.025  0.4672  0.8433  0.0333
13577SOL     OW41308   7.991   0.900   0.102 -0.2705  0.3505  1.3521
13577SOL    HW141309   8.079   0.912   0.136 -0.1597  0.3777  1.0586
13577SOL    HW241310   8.002   0.893   0.007 -0.5920  0.4708  1.3018
13578SOL     OW41311   1.353   0.321   0.411 -0.0146  0.2899  0.0298
13578SOL    HW141312   1.389   0.260   0.347 -0.9731 -1.0929  0.7554
13578SOL    HW241313   1.408   0.399   0.404  1.9331 -1.0471 -0.1718
13579SOL     OW41314   4.981   3.886   1.299  0.1090  0.4412  0.5289
13579SOL    HW141315   5.048   3.917   1.238 -0.8220 -0.1538 -0.8372
13579SOL    HW241316   5.026   3.821   1.353  0.5156 -0.3556 -0.7329
13580SOL     OW41317   2.434   6.848   9.130 -0.0194 -0.4298  0.0884
13580SOL    HW141318   2.341   6.843   9.111 -0.2178 -1.7232  1.2720
13580SOL    HW241319   2.463   6.757   9.131  1.4420 -0.0223 -1.0341
13581SOL     OW41320   8.316   6.338   3.370 -0.0944  0.9416 -0.1134
13581SOL    HW141321   8.317   6.246   3.341 -2.0818  0.7902  0.1127
13581SOL    HW241322   8.405   6.355   3.401  1.1008 -0.0602 -2.6775
13582SOL     OW41323   5.113   9.872   1.580  0.2248 -0.3368  0.1565
13582SOL    HW141324   5.077   9.941   1.636  1.8697  0.6486  0.0570
13582SOL    HW241325   5.052   9.865   1.507 -0.9509 -0.3280  1.0984
13583SOL     OW41326   3.983   7.006   6.050 -0.6859 -0.3117  0.0377
13583SOL    HW141327   3.899   6.974   6.084 -0.9311  0.8701  0.6117
13583SOL    HW241328   4.042   6.931   6.055 -1.1363 -0.5862  1.6605
13584SOL     OW41329   0.556   4.003   8.814  0.1680 -0.0930 -0.0175
13584SOL    HW141330   0.550   3.936   8.747 -0.2809 -0.1973  0.1228
13584SOL    HW241331   0.470   4.002   8.857  1.0772 -1.4319  1.9104
13585SOL     OW41332   5.570   0.332   9.812  0.1856  0.4450 -0.1132
13585SOL    HW141333   5.575   0.426   9.826 -0.6678  0.4446  0.2458
13585SOL    HW241334   5.514   0.321   9.735  1.1344  0.2625 -0.7939
13586SOL     OW41335   6.666   2.821   7.440  0.6343  0.3627 -0.0997
13586SOL    HW141336   6.714   2.747   7.477  1.0471 -1.3142 -3.5194
13586SOL    HW241337   6.613   2.782   7.370 -0.5386  3.0815 -0.8543
13587SOL     OW41338   5.878   7.087   8.114 -0.2240  0.3587 -0.1310
13587SOL    HW141339   5.885   7.007   8.166 -2.0031  0.6521  0.6286
13587SOL    HW241340   5.964   7.129   8.123 -0.6506  0.7625  3.2186
13588SOL     OW41341   3.328   3.400   5.636 -0.8871  0.5121  0.5212
13588SOL    HW141342   3.303   3.342   5.564  0.4044  0.6601 -0.0793
13588SOL    HW241343   3.388   3.463   5.596 -1.8766  1.9681  1.2710
13589SOL     OW41344   4.264   8.155   6.347 -0.0907 -0.1671 -0.6536
13589SOL    HW141345   4.183   8.113   6.375 -1.4979  1.3112 -2.1851
13589SOL    HW241346   4.275   8.229   6.407  1.0448 -1.2619  0.5364
13590SOL     OW41347   3.242   9.649   0.030 -0.2130 -0.6407  0.6411
13590SOL    HW141348   3.176   9.611  -0.027 -1.9486 -0.1916  2.2352
13590SOL    HW241349   3.198   9.723   0.072  1.8993  0.8196  0.4280
13591SOL     OW41350   9.356   9.003   8.733  0.4010  0.3463 -0.7825
13591SOL    HW141351   9.283   8.981   8.675 -1.2183 -4.2605  2.3924
13591SOL    HW241352   9.431   8.958   8.695 -0.2207 -1.0570 -0.4380
13592SOL     OW41353   8.059   1.653   1.889  0.6382 -0.2782  0.4805
13592SOL    HW141354   8.062   1.747   1.909  1.4577 -0.4401  1.1559
13592SOL    HW241355   7.971   1.639   1.854  0.5339  0.7560  0.2965
13593SOL     OW41356   6.351   5.478   0.128  0.1813  0.2579 -0.5750
13593SOL    HW141357   6.446   5.476   0.114  0.4291  2.4911  0.2903
13593SOL    HW241358   6.321   5.553   0.076 -1.2199 -0.7061 -1.2190
13594SOL     OW41359   2.008   9.691   4.813  0.0992 -0.2360 -0.3055
13594SOL    HW141360   1.912   9.687   4.815  0.1043 -0.2757  0.1740
13594SOL    HW241361   2.030   9.769   4.864  0.3136  0.0359 -0.8068
13595SOL     OW41362   2.920   0.386   0.223 -0.2945 -0.2981  0.1162
13595SOL    HW141363   2.988   0.320   0.239  0.8484 -0.1980 -3.4612
13595SOL    HW241364   2.855   0.370   0.291  1.2196 -3.3350  1.0358
13596SOL     OW41365   3.365   8.800   4.456  0.0611  0.1133  0.2510
13596SOL    HW141366   3.454   8.793   4.422  0.4925  1.2150  1.0921
13596SOL    HW241367   3.361   8.733   4.525 -0.0962 -0.5979 -0.4264
13597SOL     OW41368   8.861   3.786   6.522  0.0661 -0.4052 -0.4202
13597SOL    HW141369   8.882   3.809   6.431 -0.6384 -0.3864 -0.5839
13597SOL    HW241370   8.780   3.735   6.516  1.2317 -2.4415 -0.0221
13598SOL     OW41371   3.289   5.301   5.622 -0.1577  0.2735  0.5385
13598SOL    HW141372   3.277   5.256   5.706 -1.0491  1.0207  0.8355
13598SOL    HW241373   3.257   5.390   5.638 -3.4917 -0.4029 -1.4358
13599SOL     OW41374   9.947   8.305   7.264 -0.6232  0.3471 -0.0004
13599SOL    HW141375   9.872   8.249   7.240  0.6364 -0.0741 -3.4712
13599SOL    HW241376   9.965   8.356   7.185  3.5126 -0.5083  0.1728
13600SOL     OW41377   3.397   1.501   3.921 -0.3034 -0.2853  0.3284
13600SOL    HW141378   3.370   1.586   3.956  0.0380 -0.4702  1.0548
13600SOL    HW241379   3.416   1.519   3.829  2.1128  0.9967  0.9935
13601SOL     OW41380   2.461   7.305   8.728 -0.7171  0.1247 -1.0460
13601SOL    HW141381   2.392   7.315   8.795  0.0045 -0.4659 -0.1870
13601SOL    HW241382   2.506   7.225   8.753  2.3603  2.0893  0.3833
13602SOL     OW41383   9.756   9.880   7.431 -0.7213 -0.0646  0.1395
13602SOL    HW141384   9.669   9.891   7.393 -0.5663 -1.1654 -0.5841
13602SOL    HW241385   9.772   9.961   7.479 -1.4933  0.7974 -1.0147
13603SOL     OW41386   0.148   3.947   8.376 -0.0791 -0.6735 -0.1600
13603SOL    HW141387   0.142   3.922   8.284  0.1866  0.1412 -0.4086
13603SOL    HW241388   0.210   3.884   8.413  0.4548 -0.4995 -0.7329
13604SOL     OW41389   9.271   9.535   3.239 -0.5619 -0.0776  0.1318
13604SOL    HW141390   9.213   9.607   3.263 -0.8921  0.0886 -1.1183
13604SOL    HW241391   9.221   9.484   3.175  1.2751  1.0803 -2.4238
13605SOL     OW41392   8.563   2.857   6.639 -0.5984  0.8016 -0.3085
13605SOL    HW141393   8.655   2.873   6.619 -0.2227 -1.8216 -0.9840
13605SOL    HW241394   8.518   2.866   6.555 -1.4823  4.5626  0.3907
13606SOL     OW41395   5.019   6.225   4.420 -0.5627 -0.7933  0.1902
13606SOL    HW141396   5.014   6.266   4.333  2.3414  1.2575  0.8585
13606SOL    HW241397   5.098   6.170   4.416 -2.2896 -3.5103  0.5567
13607SOL     OW41398   6.578   1.411   2.031 -0.2190  0.5862 -0.0244
13607SOL    HW141399   6.526   1.354   2.087  1.0356 -0.0420  0.5387
13607SOL    HW241400   6.669   1.390   2.052  0.3332  0.0521 -2.5343
13608SOL     OW41401   3.238   8.619   9.534  0.1332 -0.3774  0.8023
13608SOL    HW141402   3.210   8.703   9.497  1.5508 -0.6935 -1.1519
13608SOL    HW241403   3.159   8.584   9.576 -1.0574  0.9546 -0.2297
13609SOL     OW41404   1.332   5.215   9.625 -0.2977 -0.5338  0.4967
13609SOL    HW141405   1.269   5.146   9.646 -0.4197 -0.5816 -0.0184
13609SOL    HW241406   1.297   5.257   9.547  0.0814 -0.2684  0.4664
13610SOL     OW41407   8.419   0.483   4.858 -0.0930 -0.1051 -0.2647
13610SOL    HW141408   8.427   0.526   4.943  1.6002  0.0199 -0.4466
13610SOL    HW241409   8.504   0.440   4.846 -0.9813 -1.7053 -1.0549
13611SOL     OW41410   1.545   1.463   3.640  0.0221  0.5271  0.4394
13611SOL    HW141411   1.494   1.543   3.651 -1.5514 -0.3473 -0.1350
13611SOL    HW241412   1.585   1.471   3.554  1.6335  1.6062  1.2473
13612SOL     OW41413   0.602   7.459   1.636  0.2348  0.5103  0.4530
13612SOL    HW141414   0.577   7.471   1.544  1.4570  0.2072  0.0578
13612SOL    HW241415   0.541   7.514   1.685 -1.3877 -0.4557 -0.4114
13613SOL     OW41416   9.572   4.561   9.002 -0.3486  0.3790  0.2912
13613SOL    HW141417   9.579   4.620   8.926 -2.1457 -0.8679 -0.9257
13613SOL    HW241418   9.636   4.492   8.984  0.2039  0.7980  0.6205
13614SOL     OW41419   2.006   4.367   2.325 -0.4847 -0.1023 -0.1611
13614SOL    HW141420   2.055   4.432   2.376 -0.0886 -1.5920  1.4817
13614SOL    HW241421   1.991   4.409   2.241  2.1088  1.1021 -0.1255
13615SOL     OW41422   2.644   9.617   8.861  0.1899  0.3423  0.0660
13615SOL    HW141423   2.647   9.576   8.948 -0.6998  0.0946 -0.0000
13615SOL    HW241424   2.697   9.560   8.806 -1.3651 -1.0244 -0.1142
13616SOL     OW41425   2.854   5.149   2.127  0.0206 -0.2697 -0.1446
13616SOL    HW141426   2.794   5.076   2.112 -0.7049  0.4617 -0.8814
13616SOL    HW241427   2.878   5.142   2.219 -0.3889 -1.1674 -0.0975
13617SOL     OW41428   2.212   2.023   5.754  0.1295 -0.0341  0.0833
13617SOL    HW141429   2.209   2.028   5.658 -0.8538  0.4363  0.1253
13617SOL    HW241430   2.120   2.021   5.781  0.3652 -2.4856  0.9287
13618SOL     OW41431   7.257   2.494   0.085  0.2395  0.4179  0.0288
13618SOL    HW141432   7.189   2.427   0.075  0.7577  0.0482 -1.2897
13618SOL    HW241433   7.332   2.459   0.036  0.3991  2.1089 -1.0067
13619SOL     OW41434   1.905   0.199   7.364  0.0444  0.1132  0.1842
13619SOL    HW141435   1.878   0.265   7.300 -0.2721 -0.1096  0.0834
13619SOL    HW241436   1.955   0.136   7.312  2.5689  1.5642  0.7134
13620SOL     OW41437   4.351   8.257   7.000 -0.6696 -0.4172  0.7373
13620SOL    HW141438   4.280   8.284   6.942 -1.2019 -0.5300  1.3295
13620SOL    HW241439   4.318   8.272   7.088 -1.0064 -2.9455  1.1302
13621SOL     OW41440   8.649   9.676   5.775 -0.1234 -0.0651  0.4770
13621SOL    HW141441   8.618   9.601   5.724 -2.1264 -0.1483  1.6996
13621SOL    HW241442   8.724   9.710   5.726 -0.0240 -2.0157 -0.8302
13622SOL     OW41443   9.235   8.800   7.245 -0.3689 -0.3505 -0.5323
13622SOL    HW141444   9.311   8.809   7.303 -0.4151  0.3078 -0.5679
13622SOL    HW241445   9.163   8.774   7.303 -0.4469  0.4415 -0.2624
13623SOL     OW41446   0.126   5.173   5.319 -0.3517 -0.3825 -0.5912
13623SOL    HW141447   0.056   5.189   5.383  0.4448  1.7839 -0.1689
13623SOL    HW241448   0.200   5.142   5.371 -0.0932  0.1746 -0.6199
13624SOL     OW41449   2.543   7.924   4.623 -0.1968  0.6531 -0.1019
13624SOL    HW141450   2.574   7.997   4.677  1.4939 -0.9517  1.2450
13624SOL    HW241451   2.455   7.906   4.655  0.4706  0.2502  1.6437
13625SOL     OW41452   2.307   9.717   5.552 -0.1087  0.1444  0.0147
13625SOL    HW141453   2.234   9.655   5.542  0.6185 -0.8691  0.7785
13625SOL    HW241454   2.276   9.798   5.510 -1.3273 -0.5344 -0.4388
13626SOL     OW41455   0.543   0.496   1.633 -0.1199  0.8036 -0.1082
13626SOL    HW141456   0.529   0.590   1.634 -0.9436  0.6875  0.7825
13626SOL    HW241457   0.522   0.470   1.543 -0.7724  1.3488 -0.1244
13627SOL     OW41458   8.459   1.672   8.763 -0.2360  0.4420 -0.2643
13627SOL    HW141459   8.435   1.760   8.794 -0.6304 -0.0784  0.9957
13627SOL    HW241460   8.524   1.687   8.695  0.0086  1.7060  0.2211
13628SOL     OW41461   0.573   7.528   0.994 -0.5846 -0.0474  0.0071
13628SOL    HW141462   0.646   7.556   0.939 -1.2918  1.3468 -0.2695
13628SOL    HW241463   0.614   7.479   1.065  0.3193 -2.2760 -1.9308
13629SOL     OW41464   0.152   6.464   2.909 -0.2843 -0.9316 -0.1397
13629SOL    HW141465   0.127   6.547   2.869  0.7853  0.2075  1.4132
13629SOL    HW241466   0.241   6.479   2.942 -0.4067 -2.3908  0.9700
13630SOL     OW41467   7.350   5.094   9.399  0.4211  0.3595 -0.4093
13630SOL    HW141468   7.344   5.186   9.370  1.1905  0.4778 -0.2166
13630SOL    HW241469   7.268   5.054   9.369  0.0518  1.1238 -0.4455
13631SOL     OW41470   9.563   8.701   5.015  0.0359  0.3317  0.8634
13631SOL    HW141471   9.564   8.668   4.925 -1.3398  1.9390  0.2079
13631SOL    HW241472   9.650   8.679   5.049  0.6858 -0.1062 -0.9404
13632SOL     OW41473   2.686   5.498   1.457 -0.3691  0.0558  0.3141
13632SOL    HW141474   2.754   5.456   1.509  2.7494  1.5337 -2.2172
13632SOL    HW241475   2.690   5.590   1.483 -1.9697  0.0625  0.6158
13633SOL     OW41476   0.141   8.071   2.930  0.2121  0.6747  0.1967
13633SOL    HW141477   0.099   8.022   2.858 -0.9694 -0.2022  1.4254
13633SOL    HW241478   0.120   8.020   3.008  1.9815  1.2904  1.1116
13634SOL     OW41479   4.837   6.535   3.615  0.1428 -0.0261  0.3535
13634SOL    HW141480   4.787   6.588   3.554  0.6443  0.9451  0.7602
13634SOL    HW241481   4.824   6.445   3.585  0.9630  0.4621 -1.6338
13635SOL     OW41482   7.516   3.391   5.681  0.6681  0.5730  0.2592
13635SOL    HW141483   7.456   3.452   5.724 -0.0563  0.9128 -1.1527
13635SOL    HW241484   7.493   3.305   5.716 -0.4213  0.7500  0.0127
13636SOL     OW41485   7.860   3.438   2.707 -0.0777  0.1981  0.2049
13636SOL    HW141486   7.765   3.436   2.697  0.0051  2.5259 -1.8915
13636SOL    HW241487   7.885   3.528   2.686  2.7091 -0.6980 -0.8070
13637SOL     OW41488   2.877  -0.031   3.530  0.7845 -0.1614  0.2308
13637SOL    HW141489   2.838   0.056   3.541  0.2745 -0.5716  1.8654
13637SOL    HW241490   2.940  -0.019   3.458 -0.2682  1.2040 -0.5238
13638SOL     OW41491   4.082   1.165   6.283 -0.0697  0.6024 -0.0316
13638SOL    HW141492   4.079   1.094   6.219  0.0537  0.5440  0.0275
13638SOL    HW241493   4.132   1.129   6.356  0.7723  1.0511 -0.3707
13639SOL     OW41494   4.585   3.328   9.683  0.5141  0.4608 -0.0600
13639SOL    HW141495   4.502   3.333   9.731  0.1109  0.8614 -0.7756
13639SOL    HW241496   4.559   3.327   9.590  1.2651 -0.5066 -0.2730
13640SOL     OW41497   8.350   9.236   3.206  0.4296 -0.0583 -0.0324
13640SOL    HW141498   8.371   9.244   3.114  0.6973  1.7811  0.1531
13640SOL    HW241499   8.255   9.223   3.208  0.3389  0.5084 -0.5408
13641SOL     OW41500   7.801   7.593   2.137  0.0090 -0.1125  0.0130
13641SOL    HW141501   7.823   7.658   2.071 -0.1163 -0.5120 -0.4216
13641SOL    HW241502   7.836   7.510   2.103  2.3264  0.1002  1.6615
13642SOL     OW41503   3.035   1.637   7.386 -0.1850 -0.1830 -0.0568
13642SOL    HW141504   3.036   1.731   7.364 -1.1943  0.3292  1.8352
13642SOL    HW241505   2.945   1.610   7.366  0.9841 -1.7697 -4.1128
13643SOL     OW41506   9.544   7.232   6.606  0.0234 -0.3451 -0.2467
13643SOL    HW141507   9.544   7.314   6.656 -0.3062 -0.6460  0.2614
13643SOL    HW241508   9.587   7.254   6.523 -0.4553  0.4453 -0.2944
13644SOL     OW41509   7.739   0.446   5.892 -0.1616  0.7356 -0.5307
13644SOL    HW141510   7.675   0.374   5.897 -1.2993  1.7667  0.6339
13644SOL    HW241511   7.788   0.440   5.974  0.4571  0.6454 -0.9080
13645SOL     OW41512   3.485   4.682   5.747  0.0926 -0.6304 -0.2436
13645SOL    HW141513   3.563   4.737   5.737 -0.4988  0.2946  0.0377
13645SOL    HW241514   3.467   4.650   5.659  0.1917  0.0029 -0.4999
13646SOL     OW41515   4.683   5.731   9.494  0.2592  0.1389  0.0293
13646SOL    HW141516   4.688   5.817   9.536 -0.3620  1.2997 -2.1249
13646SOL    HW241517   4.597   5.731   9.451  0.5249 -1.2911 -0.5544
13647SOL     OW41518   8.968   0.162   3.792 -0.1991  0.2157 -0.3571
13647SOL    HW141519   9.030   0.212   3.739  1.4921 -0.1184  1.1697
13647SOL    HW241520   9.022   0.127   3.864 -2.0304 -0.7729  0.6006
13648SOL     OW41521   6.999   2.238   4.344  0.0048  0.1833  0.0372
13648SOL    HW141522   6.969   2.180   4.414 -1.5125  1.2281  0.3094
13648SOL    HW241523   6.939   2.219   4.271  1.7788 -1.1425 -1.1493
13649SOL     OW41524   3.594   8.227   8.465 -0.0405  0.2657  0.6863
13649SOL    HW141525   3.599   8.311   8.420  1.4739 -0.6365 -0.9684
13649SOL    HW241526   3.510   8.228   8.511 -1.0783  1.7545 -1.1411
13650SOL     OW41527   5.892   8.946   0.650 -0.1235 -0.0425  0.1383
13650SOL    HW141528   5.851   8.860   0.659 -0.1150 -0.0175  0.4159
13650SOL    HW241529   5.848   9.001   0.714  0.2983 -0.0001  0.3973
13651SOL     OW41530   0.675   1.227   2.655  0.7765 -0.2544  0.3510
13651SOL    HW141531   0.706   1.140   2.630 -0.1187 -0.1217 -1.3953
13651SOL    HW241532   0.731   1.287   2.606  0.2117  0.0761  0.1016
13652SOL     OW41533   9.136   1.138   1.404  0.3568 -0.5292  0.2636
13652SOL    HW141534   9.125   1.046   1.427  1.4358 -0.5667  0.6719
13652SOL    HW241535   9.230   1.148   1.389  0.2506  0.5076  0.2203
13653SOL     OW41536   8.819   5.830   4.256 -0.5646  0.0502 -0.3323
13653SOL    HW141537   8.775   5.812   4.339  0.8252  0.9102  0.6338
13653SOL    HW241538   8.890   5.767   4.252 -0.6798 -0.0485 -0.9215
13654SOL     OW41539   9.540   2.967   8.315 -0.2207  0.7164  0.0071
13654SOL    HW141540   9.472   3.015   8.267 -0.7414  0.9230  0.9300
13654SOL    HW241541   9.553   3.017   8.395 -1.5725 -1.2131  1.5395
13655SOL     OW41542   3.848   5.116   1.457 -0.0358 -0.0532  0.2323
13655SOL    HW141543   3.861   5.186   1.394  0.4952 -0.3374  0.0214
13655SOL    HW241544   3.859   5.158   1.542 -2.3678  0.6925  0.2435
13656SOL     OW41545   7.325   0.087   9.939 -0.0655  0.3076 -0.2292
13656SOL    HW141546   7.317   0.003   9.983 -1.5927  0.4342 -0.1958
13656SOL    HW241547   7.365   0.066   9.854  0.3229 -0.3253  0.1075
13657SOL     OW41548   5.131   3.171   0.866  0.5013 -0.0354  0.0392
13657SOL    HW141549   5.041   3.163   0.899  0.2797 -0.8613 -0.7425
13657SOL    HW241550   5.122   3.167   0.771  1.2036  1.6087 -0.1364
13658SOL     OW41551   6.816   2.968   4.222  0.9319  0.4209  0.6405
13658SOL    HW141552   6.906   2.954   4.193  0.7399 -0.8223  0.5568
13658SOL    HW241553   6.820   3.046   4.277  1.5842  1.9087 -1.3899
13659SOL     OW41554   1.149   4.396   0.095  0.1015 -0.2755 -0.1812
13659SOL    HW141555   1.195   4.313   0.098 -0.7512 -0.7202  1.2681
13659SOL    HW241556   1.065   4.376   0.055  0.1642  0.0437 -0.4854
13660SOL     OW41557   0.836   7.749   1.495  0.4445  0.4323  0.1472
13660SOL    HW141558   0.804   7.658   1.497 -0.3861  0.5474 -2.9653
13660SOL    HW241559   0.777   7.794   1.435  1.3028  2.8871  1.0315
13661SOL     OW41560   1.153   8.152   7.152  0.4940  0.3451 -0.2432
13661SOL    HW141561   1.077   8.101   7.179 -0.3062  1.0078 -1.1972
13661SOL    HW241562   1.213   8.147   7.227 -0.0775 -0.9637  0.1480
13662SOL     OW41563   8.400   3.878   6.445  0.0982 -0.1183 -0.5129
13662SOL    HW141564   8.373   3.953   6.392 -1.8321  0.0838  0.6328
13662SOL    HW241565   8.325   3.818   6.441 -0.1753 -0.0391  2.0343
13663SOL     OW41566   8.036   7.893   6.493 -0.2492  0.7862  0.0076
13663SOL    HW141567   8.028   7.815   6.548 -0.1690 -0.4594 -1.6770
13663SOL    HW241568   8.098   7.949   6.540 -1.0572  0.3044  1.7320
13664SOL     OW41569   2.934   1.970   1.275 -0.0475 -0.1772 -0.2316
13664SOL    HW141570   2.978   2.050   1.247 -0.9903  0.8567  1.1081
13664SOL    HW241571   2.884   1.995   1.353 -0.1951 -2.1293  0.3746
13665SOL     OW41572   2.928   9.100   9.613  0.1814 -0.4017  0.0374
13665SOL    HW141573   2.861   9.132   9.674 -0.2345  0.3508 -0.7937
13665SOL    HW241574   3.009   9.104   9.663 -0.2883 -0.7530  0.8644
13666SOL     OW41575   6.106   1.797   2.322  0.3492 -0.4065  0.3536
13666SOL    HW141576   6.039   1.747   2.276  1.5366 -1.1350 -0.6785
13666SOL    HW241577   6.125   1.745   2.401  0.9077 -1.1187 -0.2357
13667SOL     OW41578   9.314   5.195   4.881 -0.0692  0.0068  0.0632
13667SOL    HW141579   9.272   5.125   4.930 -0.8524 -0.8208 -1.6951
13667SOL    HW241580   9.399   5.158   4.856 -0.0992  0.0258 -0.0690
13668SOL     OW41581   3.959   2.270   5.402 -0.0075  0.2524 -0.0119
13668SOL    HW141582   4.028   2.327   5.368 -0.3648  1.5713  1.3694
13668SOL    HW241583   4.006   2.200   5.448  0.4261 -0.5421 -1.5600
13669SOL     OW41584   1.854   3.457   4.412 -0.0539  0.0881 -0.0010
13669SOL    HW141585   1.936   3.464   4.460  1.0414  1.1919 -1.8923
13669SOL    HW241586   1.807   3.537   4.434 -0.1332 -0.0237  0.2366
13670SOL     OW41587   9.751   2.896   9.692 -0.1209  0.0850 -0.2420
13670SOL    HW141588   9.841   2.869   9.710  0.3861  0.4480 -2.0520
13670SOL    HW241589   9.732   2.863   9.604 -0.8209  2.2165 -0.9719
13671SOL     OW41590   6.009   7.067   2.838  0.1553 -0.5773 -0.4244
13671SOL    HW141591   6.007   6.985   2.790 -0.7309 -0.7476 -0.1227
13671SOL    HW241592   5.919   7.079   2.868  1.0554 -1.7933  3.3445
13672SOL     OW41593   1.775   8.858   5.161  0.1856  0.1125 -0.1309
13672SOL    HW141594   1.840   8.846   5.230  0.2714  1.1288 -0.0167
13672SOL    HW241595   1.817   8.918   5.099 -1.6188  3.2167  1.3789
13673SOL     OW41596   8.296   4.734   7.534 -0.9255 -0.2573 -0.7007
13673SOL    HW141597   8.248   4.661   7.495 -0.7049 -0.0044 -1.4575
13673SOL    HW241598   8.231   4.804   7.543 -1.7236 -1.2111  2.0919
13674SOL     OW41599   8.556   9.395   7.384 -0.4047  0.0445 -0.3446
13674SOL    HW141600   8.480   9.365   7.434 -1.3794  0.3883 -1.5615
13674SOL    HW241601   8.625   9.332   7.404 -2.1350 -2.6460 -2.2297
13675SOL     OW41602   9.013   7.388   0.552 -0.7137  0.0952  0.2112
13675SOL    HW141603   9.055   7.427   0.628 -1.4109  1.7131 -0.1822
13675SOL    HW241604   8.993   7.462   0.494 -0.8919 -1.0000 -1.2061
13676SOL     OW41605   7.553   0.702   1.840  0.0031  0.3146  0.1499
13676SOL    HW141606   7.489   0.638   1.870  0.3788 -0.1058  0.0544
13676SOL    HW241607   7.501   0.782   1.825 -0.0416  1.0473  3.3245
13677SOL     OW41608   2.157   0.133   2.989 -0.1771 -0.2828  0.2100
13677SOL    HW141609   2.106   0.173   3.059 -0.1137  0.7444 -0.3231
13677SOL    HW241610   2.241   0.113   3.030  0.0127  0.7073  0.3260
13678SOL     OW41611   2.618   6.047   4.886 -0.1476  0.5122  0.3541
13678SOL    HW141612   2.700   6.007   4.914  0.1360  1.1269  0.3980
13678SOL    HW241613   2.562   6.043   4.964 -0.6365 -1.0994 -0.0334
13679SOL     OW41614   9.848   8.278   4.453 -0.3759  0.0753  0.1487
13679SOL    HW141615   9.929   8.253   4.409  0.0677  1.4077  0.1654
13679SOL    HW241616   9.782   8.280   4.383 -0.6523 -1.9775  0.2984
13680SOL     OW41617   4.714   4.982   5.957  0.0528  0.2412 -0.2955
13680SOL    HW141618   4.636   4.947   6.000  1.3870  0.1078  2.1605
13680SOL    HW241619   4.699   4.965   5.864 -3.4900  1.5754 -0.1107
13681SOL     OW41620   6.164   7.464   3.660  0.3013 -0.1384  0.0160
13681SOL    HW141621   6.136   7.392   3.603 -0.4784 -0.5884  0.9379
13681SOL    HW241622   6.259   7.450   3.670  0.2821 -0.6115 -0.3880
13682SOL     OW41623   5.155   5.522   7.709  0.4066  0.1241 -0.9047
13682SOL    HW141624   5.078   5.542   7.763  1.0355  0.3193 -0.0667
13682SOL    HW241625   5.124   5.532   7.619 -0.4401  0.6105 -0.5698
13683SOL     OW41626   5.795   3.605   9.284 -0.1814 -0.0627 -0.0144
13683SOL    HW141627   5.825   3.577   9.370  1.1899  1.3206  0.0069
13683SOL    HW241628   5.740   3.681   9.301  0.3620  0.4200 -0.3537
13684SOL     OW41629   4.492   9.961   7.171  0.0412 -0.0777  0.6368
13684SOL    HW141630   4.404   9.979   7.205 -0.2587  1.6870 -0.8737
13684SOL    HW241631   4.517   9.878   7.211 -2.6509 -1.0629  0.4780
13685SOL     OW41632   7.170   3.540   0.315  0.0727  0.1974 -0.2004
13685SOL    HW141633   7.207   3.614   0.363  0.3029  0.0607 -0.1627
13685SOL    HW241634   7.202   3.552   0.225  0.1090  0.1460 -0.1946
13686SOL     OW41635   3.186   0.158   1.940 -0.2836  0.1125  0.5297
13686SOL    HW141636   3.190   0.130   2.031  2.3033  1.0773  0.8147
13686SOL    HW241637   3.237   0.239   1.938 -0.2517  0.1068 -1.7738
13687SOL     OW41638   6.714   9.644   0.700  0.0893  0.0175  0.1320
13687SOL    HW141639   6.779   9.574   0.716  1.0213  0.6652 -0.7029
13687SOL    HW241640   6.749   9.693   0.626  0.0413  2.0602  1.3695
13688SOL     OW41641   8.093   2.438   8.880 -0.3389 -0.3595  0.1949
13688SOL    HW141642   8.137   2.364   8.921 -1.8932 -0.8953  0.9932
13688SOL    HW241643   8.162   2.502   8.865  0.4429 -0.2856  3.3091
13689SOL     OW41644   2.217   2.084   4.146  0.0125 -0.6056  0.5110
13689SOL    HW141645   2.280   2.016   4.126  0.5051  0.1377 -0.5721
13689SOL    HW241646   2.262   2.142   4.207  0.4605  0.0124 -0.3857
13690SOL     OW41647   2.585   5.445   5.495  0.0944  0.4486  0.2149
13690SOL    HW141648   2.631   5.477   5.573 -0.6072  2.0506  0.0122
13690SOL    HW241649   2.652   5.446   5.426  0.7303 -1.0179  0.7544
13691SOL     OW41650   5.006   2.382   9.016 -0.0089  0.4230  0.3106
13691SOL    HW141651   4.954   2.461   9.027 -0.1468  0.3989 -0.1418
13691SOL    HW241652   5.067   2.403   8.945 -0.4979 -0.1056 -0.2759
13692SOL     OW41653   7.916   4.865   6.291  0.2704 -0.0447 -0.2071
13692SOL    HW141654   7.980   4.927   6.326  0.6511 -0.6969  0.2733
13692SOL    HW241655   7.831   4.900   6.318  0.5560 -0.4856  1.3030
13693SOL     OW41656   2.564   9.051   5.364 -0.2011  0.1954 -0.4247
13693SOL    HW141657   2.658   9.037   5.349 -0.5076  0.1933 -2.6890
13693SOL    HW241658   2.556   9.144   5.384  0.3527  0.0216  0.7000
13694SOL     OW41659   6.650   1.946   7.552  0.1815 -0.2466 -0.3280
13694SOL    HW141660   6.601   1.865   7.562 -1.4777  0.6987 -0.4439
13694SOL    HW241661   6.659   1.980   7.641  0.4423 -0.3082 -0.3296
13695SOL     OW41662   5.850   6.755   6.396 -0.2607 -0.1383  0.3782
13695SOL    HW141663   5.784   6.707   6.346  1.6078 -1.1391 -1.2848
13695SOL    HW241664   5.886   6.691   6.457  0.9964 -0.3928 -0.5975
13696SOL     OW41665   9.715   0.431   2.081 -0.2703  0.2694 -0.2370
13696SOL    HW141666   9.661   0.395   2.010 -0.2677  0.7760 -0.5012
13696SOL    HW241667   9.727   0.358   2.141 -2.2455  0.4551  0.4481
13697SOL     OW41668   5.382   7.533   4.439 -0.1239  0.2901  0.2595
13697SOL    HW141669   5.462   7.546   4.388  0.4845 -0.2844  1.0413
13697SOL    HW241670   5.411   7.485   4.517 -0.7396  2.4760  1.9361
13698SOL     OW41671   0.301   9.514   3.187  0.2074  0.1790 -0.7417
13698SOL    HW141672   0.272   9.425   3.168  1.7735 -0.8231  1.2220
13698SOL    HW241673   0.385   9.522   3.142 -1.1897  1.7855 -3.3394
13699SOL     OW41674   1.390   2.144   4.272 -0.0489 -0.0257 -0.1828
13699SOL    HW141675   1.394   2.239   4.257 -0.0885 -0.1947 -1.3832
13699SOL    HW241676   1.440   2.107   4.199  0.6127 -0.8997  0.7057
13700SOL     OW41677   4.271   3.341   7.095 -0.1806 -0.6326 -0.0629
13700SOL    HW141678   4.291   3.262   7.044  0.8643 -0.4421  0.0358
13700SOL    HW241679   4.242   3.404   7.029  0.1298 -0.7255 -0.2946
13701SOL     OW41680   9.105   9.389   6.694  0.5438 -0.2531  0.2456
13701SOL    HW141681   9.160   9.467   6.688  2.5617 -1.6564 -0.6364
13701SOL    HW241682   9.112   9.349   6.607 -1.6663 -0.6881  0.2002
13702SOL     OW41683   2.452   1.662   5.800  0.4971  0.4312  0.5959
13702SOL    HW141684   2.542   1.681   5.775  0.4395 -0.9885 -0.8400
13702SOL    HW241685   2.431   1.581   5.755 -2.3671  2.0601 -1.3655
13703SOL     OW41686   6.339   9.461   3.296 -0.8672 -0.0922  0.1051
13703SOL    HW141687   6.253   9.481   3.258  0.1209  1.5530 -1.4305
13703SOL    HW241688   6.354   9.530   3.360 -0.1613  0.4068 -0.5803
13704SOL     OW41689   9.498   9.966   4.537 -0.1966  0.2204 -0.4180
13704SOL    HW141690   9.467   9.904   4.602  0.3985 -0.6910 -0.9893
13704SOL    HW241691   9.523  10.044   4.587  1.4468 -0.9109  0.6169
13705SOL     OW41692   4.497   7.555   9.220 -0.0222  0.3331  0.4365
13705SOL    HW141693   4.473   7.615   9.291 -0.7053  1.2654 -0.5385
13705SOL    HW241694   4.424   7.493   9.216 -0.9161  1.3926 -0.6072
13706SOL     OW41695   1.536   7.491   1.391  0.1582  0.1870 -0.2490
13706SOL    HW141696   1.499   7.574   1.361  2.8972  1.6168  0.1084
13706SOL    HW241697   1.503   7.481   1.480 -0.4031  0.7146 -0.3863
13707SOL     OW41698   4.536   1.985   0.974  0.4980  0.4277 -0.0625
13707SOL    HW141699   4.447   2.008   1.003  0.6317 -0.3516  1.0171
13707SOL    HW241700   4.585   2.066   0.981  0.3531  0.4193  1.2996
13708SOL     OW41701   4.982   8.580   6.690 -0.5212 -0.1838 -0.2858
13708SOL    HW141702   4.960   8.512   6.627  2.0188  0.5186 -2.0826
13708SOL    HW241703   5.021   8.650   6.638 -0.0329  1.2470  1.8634
13709SOL     OW41704   6.821   8.267   5.035  0.0722  0.0041  0.2073
13709SOL    HW141705   6.778   8.351   5.021  1.1897  0.4013 -1.1409
13709SOL    HW241706   6.777   8.207   4.974 -0.5198 -0.3205  0.9472
13710SOL     OW41707   3.627   3.350   7.065 -0.5418  0.5810  0.1544
13710SOL    HW141708   3.675   3.431   7.082  0.5135 -0.4486  2.4729
13710SOL    HW241709   3.614   3.311   7.151  0.6942 -2.6735 -0.9759
13711SOL     OW41710   8.274   9.352   7.456  0.3246 -0.4515 -1.1380
13711SOL    HW141711   8.266   9.435   7.504 -1.4043 -1.5431  0.5780
13711SOL    HW241712   8.205   9.356   7.390  1.6661  0.3560 -2.5634
13712SOL     OW41713   6.315   7.835   9.934 -0.3166 -0.0214 -0.4143
13712SOL    HW141714   6.245   7.899   9.926 -0.6156 -0.1898  0.6626
13712SOL    HW241715   6.356   7.832   9.847 -1.7456 -0.0563 -1.1100
13713SOL     OW41716   9.232   4.898   6.602 -0.3026  0.2965  0.0479
13713SOL    HW141717   9.175   4.974   6.611  1.0155  1.2981  0.2271
13713SOL    HW241718   9.297   4.908   6.672 -0.1636 -1.0450  0.1323
13714SOL     OW41719   0.538   3.012   2.577  0.3825  0.2458 -0.8108
13714SOL    HW141720   0.607   3.018   2.511  1.7729 -1.0207  0.4476
13714SOL    HW241721   0.581   3.037   2.659 -0.6879 -0.4534 -0.0114
13715SOL     OW41722   5.438   0.537   7.499 -0.3217 -0.0117 -0.3624
13715SOL    HW141723   5.456   0.599   7.570  0.3462 -1.2436  0.5918
13715SOL    HW241724   5.523   0.518   7.461 -0.5186 -0.3509 -0.6378
13716SOL     OW41725   8.197   7.473   3.374 -0.1043  0.0220  0.6585
13716SOL    HW141726   8.214   7.439   3.461  3.6342 -2.1981 -0.6858
13716SOL    HW241727   8.261   7.544   3.363  2.5295 -2.4098 -1.4651
13717SOL     OW41728   0.958   5.127   0.830  0.3600  0.1555  0.2145
13717SOL    HW141729   0.944   5.200   0.890 -0.5946  1.4268 -1.4694
13717SOL    HW241730   0.925   5.158   0.746  0.0509 -2.1666 -0.6074
13718SOL     OW41731   9.931   7.909   2.766 -0.5153  0.1008  0.0879
13718SOL    HW141732   9.857   7.967   2.746 -0.7507 -0.4173 -0.5922
13718SOL    HW241733   9.892   7.836   2.814 -0.5673 -0.4817 -0.8071
13719SOL     OW41734   2.140   0.969   3.268 -0.1359 -0.4746 -0.0691
13719SOL    HW141735   2.234   0.959   3.282  0.0063 -1.3806 -1.5396
13719SOL    HW241736   2.132   1.039   3.204 -0.4291 -0.8504 -0.4497
13720SOL     OW41737   4.367   9.836   4.241  0.3281 -0.1879 -0.5005
13720SOL    HW141738   4.439   9.895   4.262  0.6825 -0.4164 -1.0459
13720SOL    HW241739   4.400   9.749   4.264 -0.9089 -0.0395  2.2192
13721SOL     OW41740   0.931   6.621   1.099  0.3646  0.4757 -0.2251
13721SOL    HW141741   0.875   6.543   1.103 -1.3558  1.5993 -1.4052
13721SOL    HW241742   0.870   6.695   1.099  1.9126  1.8072 -0.2379
13722SOL     OW41743   9.678   4.914   0.027 -0.1602  0.6249  0.6962
13722SOL    HW141744   9.729   4.834   0.018  1.0446  1.3966  0.4323
13722SOL    HW241745   9.609   4.892   0.089  1.0453 -0.1918  1.7867
13723SOL     OW41746   7.597   0.286   7.766 -0.0095  0.4494 -0.3036
13723SOL    HW141747   7.503   0.271   7.755 -0.2245  0.9800  0.7294
13723SOL    HW241748   7.638   0.222   7.708 -0.9674 -1.6512  1.1906
13724SOL     OW41749   5.294   7.590   1.104  0.1759  0.2105  0.1977
13724SOL    HW141750   5.324   7.663   1.051  0.0920  1.5680  1.9041
13724SOL    HW241751   5.351   7.591   1.181  0.1752 -1.5424  0.2511
13725SOL     OW41752   7.345   2.159   7.706  0.3493 -0.0263 -0.1339
13725SOL    HW141753   7.366   2.066   7.693  1.6713  0.2341 -0.0397
13725SOL    HW241754   7.412   2.190   7.767 -0.7025  0.7603  0.6340
13726SOL     OW41755   7.489   3.268   2.482  0.2574  0.3668  0.7934
13726SOL    HW141756   7.410   3.278   2.535 -0.1887 -0.3184  0.2881
13726SOL    HW241757   7.460   3.217   2.406  1.2248 -0.0345  0.6801
13727SOL     OW41758   9.526   4.441   6.053  0.1478  0.0141 -0.0515
13727SOL    HW141759   9.433   4.421   6.044  0.4519 -1.1190 -0.9968
13727SOL    HW241760   9.569   4.355   6.047  1.2275  0.4681  0.8563
13728SOL     OW41761   0.651   4.020   3.389 -0.3122 -0.5036 -0.4406
13728SOL    HW141762   0.635   4.074   3.466 -0.2885 -2.0027  0.6662
13728SOL    HW241763   0.705   4.075   3.331 -1.6916  1.2468 -0.1542
13729SOL     OW41764   8.986   9.579   7.820  0.9187 -0.3371  0.1279
13729SOL    HW141765   8.946   9.592   7.734  1.4840 -0.2011 -0.1149
13729SOL    HW241766   8.926   9.519   7.865  0.4859 -0.2022 -0.2649
13730SOL     OW41767   1.807   0.896   4.899  0.8796 -0.3821 -0.2150
13730SOL    HW141768   1.781   0.821   4.845  0.4730  0.0756 -0.6665
13730SOL    HW241769   1.868   0.945   4.843  0.1922  0.2773 -0.3962
13731SOL     OW41770   9.291   3.523   8.395  0.1375 -0.2516  0.4199
13731SOL    HW141771   9.363   3.550   8.338  0.1707  1.8197  1.3452
13731SOL    HW241772   9.233   3.472   8.339  1.8706 -1.2538 -0.5566
13732SOL     OW41773   0.463   4.485   2.392  0.8883  0.4062 -0.0981
13732SOL    HW141774   0.505   4.477   2.477 -1.8355 -2.5142  1.1632
13732SOL    HW241775   0.384   4.537   2.408  1.1311  1.1654 -1.2182
13733SOL     OW41776   3.848   7.950   1.253 -0.1439 -0.1007  0.0898
13733SOL    HW141777   3.779   7.984   1.194  0.4907 -0.2992 -0.7937
13733SOL    HW241778   3.884   8.029   1.294  0.4959  0.2229 -1.0309
13734SOL     OW41779   8.458   6.627   6.670  0.0441 -0.0358  0.5207
13734SOL    HW141780   8.456   6.534   6.691 -0.3495 -0.5125 -1.4117
13734SOL    HW241781   8.366   6.654   6.674  0.0081 -0.0451 -0.1306
13735SOL     OW41782   0.105   6.261   2.466 -0.1190  0.4479 -0.0477
13735SOL    HW141783   0.189   6.218   2.481 -0.4910 -0.7506 -1.2661
13735SOL    HW241784   0.062   6.260   2.552  0.4114 -0.4672  0.2199
13736SOL     OW41785   6.041   2.751   9.245 -0.0608  0.8652  0.1543
13736SOL    HW141786   6.087   2.739   9.328  0.7165 -0.2726 -0.4127
13736SOL    HW241787   5.948   2.738   9.266  0.1743  0.1605  0.7631
13737SOL     OW41788   5.778   7.549   2.220 -0.5616 -0.0190 -0.0608
13737SOL    HW141789   5.696   7.502   2.211 -1.2153  0.8601  0.9686
13737SOL    HW241790   5.811   7.524   2.307  0.1238 -0.1520 -0.3490
13738SOL     OW41791   0.211   2.948   2.754  0.6726 -0.4480  0.1267
13738SOL    HW141792   0.250   2.933   2.668 -1.7754  0.5583 -1.2680
13738SOL    HW241793   0.126   2.905   2.750 -0.5357  1.6744  1.0798
13739SOL     OW41794   2.407   0.166   5.284 -0.4785  0.5181  0.0311
13739SOL    HW141795   2.495   0.127   5.284 -0.9608 -1.1726  4.4480
13739SOL    HW241796   2.417   0.246   5.335 -1.1520  1.5373 -1.4000
13740SOL     OW41797   2.045   2.491   4.662 -0.4196 -0.4824 -0.4252
13740SOL    HW141798   2.006   2.404   4.652 -0.5792 -0.6434  1.2913
13740SOL    HW241799   2.057   2.501   4.756 -1.1747  1.7047 -0.5090
13741SOL     OW41800   8.829   5.641   5.705 -0.3658 -0.2452  0.1594
13741SOL    HW141801   8.820   5.639   5.609  2.4863  1.8000 -0.2847
13741SOL    HW241802   8.794   5.726   5.731 -1.1257 -0.7904  0.9761
13742SOL     OW41803   5.239   2.122   8.965  0.1892  0.2273  0.2355
13742SOL    HW141804   5.326   2.084   8.978  1.6187  1.8441 -3.3408
13742SOL    HW241805   5.182   2.047   8.951  1.8392 -0.8297 -1.2505
13743SOL     OW41806   9.347   4.895   8.157 -0.3553 -0.6744 -0.2645
13743SOL    HW141807   9.427   4.890   8.105 -0.7510 -0.6158 -0.9005
13743SOL    HW241808   9.307   4.978   8.130 -0.2535 -0.3328  0.6132
13744SOL     OW41809   6.376   3.717   0.279  0.4514  0.2200  0.4240
13744SOL    HW141810   6.439   3.647   0.295 -0.8001 -1.1998 -0.5470
13744SOL    HW241811   6.418   3.774   0.216  1.6011  0.5317  1.4314
13745SOL     OW41812   4.547   0.946   4.413 -0.2336  0.2075  0.3009
13745SOL    HW141813   4.641   0.943   4.395 -0.3897  1.3192 -0.8901
13745SOL    HW241814   4.531   1.036   4.441 -0.9062 -0.0398  0.7222
13746SOL     OW41815   1.104   8.786   4.497  0.0074 -0.4134 -0.0822
13746SOL    HW141816   1.066   8.846   4.561  1.4532 -1.8225  2.2566
13746SOL    HW241817   1.031   8.732   4.468 -0.9649  1.2620 -0.8847
13747SOL     OW41818   3.697   1.876   2.198 -0.8428 -0.2332  0.7501
13747SOL    HW141819   3.718   1.784   2.217 -1.5352 -0.2354  1.5546
13747SOL    HW241820   3.779   1.913   2.165 -1.2674 -1.8969 -2.5615
13748SOL     OW41821   2.057   4.162   1.520 -0.2972 -0.1684  0.0802
13748SOL    HW141822   2.152   4.155   1.512 -0.1171  0.8658  0.9717
13748SOL    HW241823   2.026   4.072   1.523  0.6730 -0.5188 -0.0516
13749SOL     OW41824   4.377   8.100   3.592 -0.6094  0.1517 -0.2563
13749SOL    HW141825   4.356   8.161   3.663 -2.1957  0.0570 -0.6044
13749SOL    HW241826   4.465   8.124   3.564 -0.8774  1.7268  0.1824
13750SOL     OW41827   3.730   0.160   0.427 -0.0047 -0.4662  0.5540
13750SOL    HW141828   3.701   0.070   0.436 -1.5101 -0.2511 -1.4313
13750SOL    HW241829   3.767   0.165   0.339  1.2387  0.5670  1.1030
13751SOL     OW41830   6.466   9.812   9.814  0.1071  0.1793 -0.1377
13751SOL    HW141831   6.456   9.903   9.841 -0.5264 -0.5039  2.1424
13751SOL    HW241832   6.491   9.817   9.722  2.5755  2.7525  0.5246
13752SOL     OW41833   4.315   6.589   5.092 -0.1287  0.1434  0.1121
13752SOL    HW141834   4.333   6.680   5.116  0.2980  0.3444 -0.9456
13752SOL    HW241835   4.396   6.542   5.112 -0.3613 -0.0183  0.6922
13753SOL     OW41836   5.867   1.679   5.118  0.4220  0.1448 -0.1621
13753SOL    HW141837   5.953   1.666   5.078 -0.7376 -3.0468 -2.0130
13753SOL    HW241838   5.882   1.669   5.212  2.2952  1.5831 -0.2562
13754SOL     OW41839   8.230   0.224   6.712  0.1107  0.2978  0.3298
13754SOL    HW141840   8.205   0.228   6.805  1.5946 -0.6906  0.8023
13754SOL    HW241841   8.160   0.174   6.671  0.7847 -1.6594  1.4588
13755SOL     OW41842   2.679   9.144   9.180 -0.7591 -0.0588 -0.0302
13755SOL    HW141843   2.656   9.142   9.087 -0.1049  0.1298 -0.2054
13755SOL    HW241844   2.634   9.220   9.216  0.8314  1.2759 -0.7193
13756SOL     OW41845   4.588   3.056   7.107  0.1574 -0.6417 -0.2174
13756SOL    HW141846   4.589   3.115   7.182  0.7495 -1.4195  0.4042
13756SOL    HW241847   4.651   3.095   7.045 -1.9609  1.2453 -1.3587
13757SOL     OW41848   9.402   1.091   1.453 -0.5655 -0.1759  0.2794
13757SOL    HW141849   9.496   1.080   1.442 -0.6292 -0.3678 -0.0795
13757SOL    HW241850   9.392   1.122   1.543 -0.0992  0.6143  0.0656
13758SOL     OW41851   8.468   7.789   8.831 -0.1966  0.1790  0.0170
13758SOL    HW141852   8.464   7.736   8.911  0.8030  0.8872  0.5611
13758SOL    HW241853   8.377   7.815   8.815 -0.6017 -1.1123  0.1217
13759SOL     OW41854   2.295   1.369   7.937 -0.1914  0.1464 -0.2788
13759SOL    HW141855   2.373   1.392   7.987 -0.4712  1.2055 -0.3032
13759SOL    HW241856   2.237   1.444   7.947 -1.1027 -0.5071 -0.4871
13760SOL     OW41857   0.070   0.705   6.050  0.2772  0.0479 -0.0797
13760SOL    HW141858   0.050   0.639   6.116  0.1936  0.0596 -0.0927
13760SOL    HW241859   0.120   0.772   6.097 -1.2574  0.9085  0.3844
13761SOL     OW41860   6.345   7.938   2.628  0.7287  0.2830  0.4149
13761SOL    HW141861   6.331   7.900   2.541  3.8711 -0.1666 -0.0122
13761SOL    HW241862   6.295   7.882   2.687 -0.1382 -0.4073 -0.9112
13762SOL     OW41863   2.804   4.717   9.462 -0.1161  0.1828  0.4494
13762SOL    HW141864   2.856   4.788   9.425 -2.2359  0.8206 -1.5760
13762SOL    HW241865   2.837   4.638   9.421  1.0632  0.1809  1.3467
13763SOL     OW41866   2.933   5.763   3.791 -0.5833  0.5107  0.0431
13763SOL    HW141867   3.026   5.753   3.768 -0.5832 -0.2886  0.3677
13763SOL    HW241868   2.899   5.823   3.725  0.0999  0.5943 -0.2497
13764SOL     OW41869   6.823   9.938   3.380 -0.1861 -0.2500 -0.3013
13764SOL    HW141870   6.824   9.971   3.290  1.1179 -0.9302 -0.5616
13764SOL    HW241871   6.789  10.011   3.432  0.2653  0.6129 -1.1809
13765SOL     OW41872   0.700   6.760   5.039 -0.0485 -0.4170 -0.2872
13765SOL    HW141873   0.754   6.685   5.016  0.5675  0.3023 -1.2449
13765SOL    HW241874   0.731   6.830   4.983  1.0182  1.2514  2.2401
13766SOL     OW41875   3.806   0.651   3.835  0.8657  0.0681 -0.2565
13766SOL    HW141876   3.783   0.596   3.760  1.2496 -2.1832  1.1791
13766SOL    HW241877   3.885   0.611   3.871  0.8299  1.2270  1.2169
13767SOL     OW41878   3.787   2.524   1.770 -0.8484  0.3819 -0.1838
13767SOL    HW141879   3.879   2.499   1.768 -0.4948  1.4260  1.1264
13767SOL    HW241880   3.757   2.514   1.680  0.5261 -0.0336 -0.6207
13768SOL     OW41881   7.299   8.904   5.905  1.4569 -0.2956 -0.4828
13768SOL    HW141882   7.222   8.863   5.945  1.1434  0.3635 -0.3991
13768SOL    HW241883   7.373   8.866   5.952  1.0603  1.3727  1.6330
13769SOL     OW41884   3.849   5.685   9.151  0.0065 -0.5701  0.3245
13769SOL    HW141885   3.811   5.684   9.063  1.5710  0.3305 -0.3994
13769SOL    HW241886   3.943   5.678   9.137  0.3840  0.7817  1.8487
13770SOL     OW41887   1.251   4.463   6.650  0.3029 -0.1505 -0.5478
13770SOL    HW141888   1.165   4.462   6.693  0.6315 -0.4706  0.1154
13770SOL    HW241889   1.254   4.547   6.604  0.4159  0.7305  1.0239
13771SOL     OW41890   0.560   9.135   4.587 -0.1422  0.0460 -0.2631
13771SOL    HW141891   0.577   9.121   4.680  0.7992  0.2655 -0.3989
13771SOL    HW241892   0.553   9.230   4.578 -0.9183 -0.0052 -0.3108
13772SOL     OW41893   3.515   6.927   0.815  0.6092  0.8392  0.3184
13772SOL    HW141894   3.599   6.881   0.828  0.1955  0.0884  0.3703
13772SOL    HW241895   3.456   6.860   0.780  0.2639  1.5862 -0.5583
13773SOL     OW41896   0.579   8.534   0.815 -0.2210  0.5370 -0.1003
13773SOL    HW141897   0.645   8.514   0.749  1.0755 -1.0228  1.5629
13773SOL    HW241898   0.629   8.542   0.897 -2.0542 -0.5752  1.2133
13774SOL     OW41899   6.571   6.162   4.078  0.7623 -0.0085 -0.0161
13774SOL    HW141900   6.510   6.218   4.124 -1.0830 -1.0273 -1.0930
13774SOL    HW241901   6.641   6.144   4.142 -0.5039  0.4800  1.5639
13775SOL     OW41902   7.289   7.882   6.414  0.3746  0.0919  0.3915
13775SOL    HW141903   7.383   7.890   6.396  0.7152 -1.7306  1.1070
13775SOL    HW241904   7.252   7.964   6.383  2.3526  1.3331  1.0678
13776SOL     OW41905   2.237   3.862   3.708 -0.4635 -0.6340 -0.6365
13776SOL    HW141906   2.202   3.928   3.648 -0.6160 -0.2436 -0.1347
13776SOL    HW241907   2.320   3.899   3.738 -0.0613 -1.1370 -1.1226
13777SOL     OW41908   3.909   1.285   7.368  0.0975 -0.4911  0.1580
13777SOL    HW141909   3.821   1.319   7.354  0.1550 -0.0005  0.9489
13777SOL    HW241910   3.934   1.248   7.283 -0.7647 -0.4083 -0.1413
13778SOL     OW41911   6.266   1.198   8.116 -0.3553 -0.2642 -0.1770
13778SOL    HW141912   6.353   1.226   8.087  0.2461 -0.9077  0.9226
13778SOL    HW241913   6.254   1.113   8.075 -0.5211 -0.1191 -0.4290
13779SOL     OW41914   0.634   6.468   7.612 -0.3541 -0.7418  0.3753
13779SOL    HW141915   0.712   6.451   7.665  0.0146  0.8964  0.3996
13779SOL    HW241916   0.568   6.408   7.647 -0.1996  0.4085  2.8687
13780SOL     OW41917   1.421   4.420   9.679 -0.5164 -0.2981  0.1626
13780SOL    HW141918   1.357   4.469   9.731  0.4869  0.3627  0.8159
13780SOL    HW241919   1.392   4.431   9.588 -1.2028  0.1739  0.4341
13781SOL     OW41920   8.479   7.449   1.853  0.5094  0.0513  0.1819
13781SOL    HW141921   8.507   7.358   1.844  1.3261  0.3137  0.0370
13781SOL    HW241922   8.483   7.484   1.764  2.0790  0.7613  0.4924
13782SOL     OW41923   0.485   9.101   8.310  0.1601 -0.0355  0.2610
13782SOL    HW141924   0.406   9.104   8.364 -0.0783 -0.6398 -0.0415
13782SOL    HW241925   0.557   9.114   8.371 -0.0983 -0.7886  0.7420
13783SOL     OW41926   3.476   7.779   2.940 -0.0350  0.8462 -0.0418
13783SOL    HW141927   3.406   7.780   2.875 -1.1347  1.7915  1.0870
13783SOL    HW241928   3.464   7.697   2.987 -0.5041  1.0860  0.2612
13784SOL     OW41929   7.678   0.789   4.267  0.2261  0.0688 -0.3071
13784SOL    HW141930   7.732   0.854   4.313 -0.9982  1.6273 -0.9870
13784SOL    HW241931   7.591   0.829   4.263 -0.7772 -1.9712 -0.0787
13785SOL     OW41932   2.602   3.748   8.923  0.2849  0.1259 -0.0082
13785SOL    HW141933   2.680   3.790   8.886  1.4242 -0.4060  1.6718
13785SOL    HW241934   2.602   3.661   8.884  1.4398 -0.4090  1.1124
13786SOL     OW41935   2.751   9.636   9.176  0.0885  0.0581  0.5924
13786SOL    HW141936   2.791   9.565   9.125  0.4417 -0.5854  1.7219
13786SOL    HW241937   2.660   9.610   9.187  0.0124  0.1971  0.2904
13787SOL     OW41938   7.039   1.898   5.858  0.3792 -0.4392 -0.4914
13787SOL    HW141939   7.002   1.832   5.916 -1.4353  0.6505 -0.3473
13787SOL    HW241940   7.029   1.861   5.770 -0.9515 -0.2363 -0.4421
13788SOL     OW41941   9.132   4.596   6.652  0.2150 -0.0211  0.4097
13788SOL    HW141942   9.145   4.505   6.681  0.0281  0.0778  0.8044
13788SOL    HW241943   9.218   4.636   6.660  0.1802 -0.0149  0.7558
13789SOL     OW41944   5.243   0.440   2.523 -0.5131 -0.1373  0.1697
13789SOL    HW141945   5.267   0.531   2.507 -1.2699 -0.2316 -1.8297
13789SOL    HW241946   5.283   0.418   2.607  1.2071  1.4803 -0.1824
13790SOL     OW41947   4.359   4.316   6.209 -0.2999  0.1810 -0.4963
13790SOL    HW141948   4.392   4.298   6.297  0.1408  0.0697 -0.6815
13790SOL    HW241949   4.365   4.232   6.163 -2.2386 -0.2126 -0.1082
13791SOL     OW41950   4.001   5.957   3.391 -0.3590  0.3679  0.0155
13791SOL    HW141951   4.073   5.948   3.454 -0.0802 -1.7705 -0.5346
13791SOL    HW241952   4.036   5.923   3.309 -2.1999 -1.6129 -0.0564
13792SOL     OW41953   1.552   7.344   0.250  0.0100 -0.4057  0.5606
13792SOL    HW141954   1.574   7.345   0.157 -1.0640  2.8113  0.2256
13792SOL    HW241955   1.464   7.307   0.254 -0.8861  1.5036 -0.0746
13793SOL     OW41956   4.038   6.855   8.979  0.6682 -0.5441 -0.5188
13793SOL    HW141957   4.059   6.769   9.016  0.2552 -0.5513 -0.2988
13793SOL    HW241958   3.964   6.886   9.031 -0.7644 -1.1085 -2.1333
13794SOL     OW41959   4.999   5.809   5.758  0.1894  0.1207  0.1676
13794SOL    HW141960   4.917   5.851   5.734  0.1031  0.3488  0.8476
13794SOL    HW241961   5.038   5.866   5.824  1.0498  0.1775 -0.3708
13795SOL     OW41962   1.045   7.460   5.560 -0.1445  0.1719  0.2745
13795SOL    HW141963   1.090   7.385   5.519  0.0290  1.5301 -2.2423
13795SOL    HW241964   1.100   7.535   5.540 -1.2685  1.2541  1.0701
13796SOL     OW41965   1.470   7.256   3.808  0.3216  0.0883 -0.3469
13796SOL    HW141966   1.449   7.222   3.895 -0.9019 -1.6207 -1.2555
13796SOL    HW241967   1.449   7.184   3.749  0.0926  1.5793 -2.1595
13797SOL     OW41968   7.578   3.193   0.623 -0.6654 -0.3543  0.3205
13797SOL    HW141969   7.653   3.250   0.610 -1.1031  0.6351  1.8386
13797SOL    HW241970   7.529   3.198   0.541  1.0772 -1.3371 -0.8450
13798SOL     OW41971   0.204   2.607   2.799  0.4234 -0.9572  0.5225
13798SOL    HW141972   0.266   2.676   2.822  0.6461 -1.0283  0.1446
13798SOL    HW241973   0.256   2.527   2.801  0.7100 -0.8570 -1.1933
13799SOL     OW41974   3.793   3.561   2.897  0.6610 -0.3054  0.1770
13799SOL    HW141975   3.741   3.636   2.868  0.5697 -0.1725  0.6790
13799SOL    HW241976   3.855   3.597   2.960 -1.1218 -1.0427  2.4835
13800SOL     OW41977   2.419   6.795   8.719  0.0586 -0.7447 -0.0171
13800SOL    HW141978   2.353   6.841   8.666  0.2963 -0.2548  0.1058
13800SOL    HW241979   2.455   6.862   8.776  2.3735 -0.4257 -1.7342
13801SOL     OW41980   0.332   8.565   1.972  0.0532  0.4800  0.2033
13801SOL    HW141981   0.322   8.471   1.960  0.7930  0.2436  1.2395
13801SOL    HW241982   0.257   8.604   1.927  0.8703 -0.4607 -2.1060
13802SOL     OW41983   9.155   0.977   9.576 -0.1948 -0.2432  0.0044
13802SOL    HW141984   9.067   0.989   9.542  0.1054  0.2599 -0.6180
13802SOL    HW241985   9.167   0.882   9.579 -1.3704 -0.3945  1.7591
13803SOL     OW41986   1.358   8.543   8.083  0.1909  0.0092  0.3069
13803SOL    HW141987   1.335   8.478   8.150  0.5878  0.5937  1.0168
13803SOL    HW241988   1.451   8.528   8.066 -0.6846 -2.7904 -3.0347
13804SOL     OW41989   5.819   5.623   1.672  0.1745  0.4637  0.7424
13804SOL    HW141990   5.848   5.595   1.585 -0.0428 -1.6407  1.2934
13804SOL    HW241991   5.862   5.707   1.685 -0.3705  1.2072 -1.6867
13805SOL     OW41992   0.863   2.797   5.073  0.1724 -0.6102 -0.1873
13805SOL    HW141993   0.787   2.808   5.129  0.4457 -0.0460  0.0813
13805SOL    HW241994   0.935   2.839   5.121  0.2632  0.5550 -1.2730
13806SOL     OW41995   1.461   0.621   5.526  1.0211 -0.0759  0.4707
13806SOL    HW141996   1.379   0.638   5.572  0.7018  0.9440 -0.4177
13806SOL    HW241997   1.529   0.647   5.588  0.5970  1.4017  0.3682
13807SOL     OW41998   9.428   3.842   3.177 -0.7081 -0.0360  0.5599
13807SOL    HW141999   9.337   3.868   3.192 -1.2533 -1.9398  0.8512
13807SOL    HW242000   9.441   3.853   3.083 -0.3743  2.6612  0.8304
13808SOL     OW42001   0.970   0.548   5.811  0.1156  0.8498 -0.3525
13808SOL    HW142002   0.892   0.493   5.824  0.2135  0.5020 -1.2010
13808SOL    HW242003   1.041   0.499   5.852 -0.2366  1.5518  1.1640
13809SOL     OW42004   1.464   5.996   5.237 -0.0817 -0.2923  0.6964
13809SOL    HW142005   1.476   5.911   5.278  1.5571  0.2400  1.4085
13809SOL    HW242006   1.439   5.977   5.147  1.9163 -1.5534  0.3623
13810SOL     OW42007   2.304   5.397   0.687 -0.3500  0.3715 -0.7735
13810SOL    HW142008   2.233   5.379   0.749  0.3670 -2.5598 -0.6601
13810SOL    HW242009   2.269   5.367   0.603  0.7279 -1.2568 -0.6865
13811SOL     OW42010   1.081   9.541   1.995 -0.6952 -0.4776  0.0312
13811SOL    HW142011   1.039   9.624   1.970 -1.3173 -0.9358 -0.4834
13811SOL    HW242012   1.008   9.480   2.004 -0.3095 -0.7858  1.1813
13812SOL     OW42013   6.320   8.276   6.395 -0.6409  0.2276 -0.0234
13812SOL    HW142014   6.401   8.256   6.443 -1.2364  1.2267  1.4638
13812SOL    HW242015   6.257   8.211   6.425 -0.8583  0.5079  0.1400
13813SOL     OW42016   0.357   7.358   1.923 -0.7810 -0.5767  0.6328
13813SOL    HW142017   0.402   7.297   1.865 -1.1318 -1.1889  0.9941
13813SOL    HW242018   0.303   7.302   1.979 -1.9997  0.1243  0.2062
13814SOL     OW42019   2.665   3.615   3.773 -0.0752  0.3053  0.5450
13814SOL    HW142020   2.598   3.623   3.705  1.6330  1.4717 -1.0905
13814SOL    HW242021   2.685   3.521   3.776 -1.8477 -0.1007  1.2205
13815SOL     OW42022   0.958   3.469   5.664  0.1536  0.4405 -0.1893
13815SOL    HW142023   0.921   3.445   5.749  0.8159  1.1898  0.3217
13815SOL    HW242024   1.047   3.435   5.666  0.4613  1.2294 -0.2305
13816SOL     OW42025   1.375   4.021   7.050 -0.2214  0.6495  0.5043
13816SOL    HW142026   1.290   3.989   7.079  0.1180  0.5205  1.3915
13816SOL    HW242027   1.398   4.090   7.113 -0.1564  1.4277 -0.3635
13817SOL     OW42028   5.176   2.028   3.239 -0.3455 -0.6925  0.5559
13817SOL    HW142029   5.249   2.027   3.300 -0.4633 -1.2888  0.6975
13817SOL    HW242030   5.177   1.941   3.198 -0.4880 -0.4285 -0.0276
13818SOL     OW42031   9.832   0.504   3.842 -0.3283 -0.2335 -0.0916
13818SOL    HW142032   9.784   0.525   3.762 -1.0798 -1.1256  0.1096
13818SOL    HW242033   9.789   0.553   3.911  0.5124  0.7772 -0.2682
13819SOL     OW42034   1.957   2.194   3.518 -0.8959 -0.4393 -0.0183
13819SOL    HW142035   1.929   2.134   3.448 -0.3857 -0.3862 -0.2724
13819SOL    HW242036   2.045   2.164   3.542 -0.6521  0.1825 -0.1196
13820SOL     OW42037   8.326   7.089   6.209  0.2541 -0.2004 -0.1256
13820SOL    HW142038   8.271   7.058   6.280 -1.3250  0.1543 -1.1397
13820SOL    HW242039   8.409   7.042   6.220 -0.1768 -0.6306  1.5312
13821SOL     OW42040   6.480   8.910   3.661 -0.1725 -0.8020 -0.6045
13821SOL    HW142041   6.508   8.937   3.574 -0.3381  0.8269 -0.1880
13821SOL    HW242042   6.385   8.908   3.656 -0.1570 -1.4841 -0.6707
13822SOL     OW42043   4.305  -0.000   3.090  0.1066 -0.3998  0.5192
13822SOL    HW142044   4.217   0.026   3.063  0.6881  0.0198 -1.0969
13822SOL    HW242045   4.344   0.078   3.128  0.7200  0.2787 -1.3639
13823SOL     OW42046   6.980   4.944   5.030 -0.3740 -0.0048  0.5638
13823SOL    HW142047   6.942   5.012   5.087 -0.0114 -0.6112  1.5455
13823SOL    HW242048   7.065   4.925   5.069  0.7436  0.9044 -1.2764
13824SOL     OW42049   5.732   8.411   2.115  0.1344 -0.3603 -0.0328
13824SOL    HW142050   5.682   8.331   2.097  0.0374 -0.6956  1.5504
13824SOL    HW242051   5.668   8.473   2.150  0.3082  0.2290 -0.7424
13825SOL     OW42052   6.639   2.138   9.300  0.2923 -0.0005 -0.0746
13825SOL    HW142053   6.733   2.120   9.299  0.6257  0.9369  3.1734
13825SOL    HW242054   6.600   2.057   9.334  0.0865  0.0852 -0.1037
13826SOL     OW42055   8.422   0.154   5.680 -0.6243 -0.0594 -0.0018
13826SOL    HW142056   8.340   0.120   5.643 -0.6609 -0.3238  0.3160
13826SOL    HW242057   8.455   0.215   5.614 -1.3046  0.3929  0.0692
13827SOL     OW42058   0.206   1.307   2.248 -0.2228  0.5622  0.1710
13827SOL    HW142059   0.293   1.300   2.288 -0.2701 -0.0431  0.1898
13827SOL    HW242060   0.158   1.231   2.282  0.1461 -0.7234 -1.9732
13828SOL     OW42061   8.739   6.705   4.406  0.5993  0.7354  0.5231
13828SOL    HW142062   8.769   6.668   4.323  1.8305  1.3691  0.6628
13828SOL    HW242063   8.801   6.672   4.471  0.4655  1.3386  0.9724
13829SOL     OW42064   1.572   1.256   0.379 -0.3904  1.1174  0.1798
13829SOL    HW142065   1.577   1.283   0.471  0.3763 -1.3923  0.9636
13829SOL    HW242066   1.563   1.338   0.331  0.3837  2.6251  2.3998
13830SOL     OW42067   7.622   0.657   2.364  0.0342 -0.2708  0.1897
13830SOL    HW142068   7.560   0.682   2.433 -1.0185 -1.1115 -0.4258
13830SOL    HW242069   7.656   0.740   2.330 -1.1882  0.2226  0.1463
13831SOL     OW42070   8.512   4.370   7.211 -0.4953 -0.0188 -0.0340
13831SOL    HW142071   8.451   4.407   7.148 -0.1947  0.8443  0.1652
13831SOL    HW242072   8.582   4.331   7.158  0.2796  1.5927 -0.2545
13832SOL     OW42073   4.627   4.746   6.490 -0.3718 -0.5146  0.0735
13832SOL    HW142074   4.719   4.754   6.465 -0.2359  2.5885  1.0580
13832SOL    HW242075   4.628   4.740   6.586 -1.1941 -0.2461  0.1119
13833SOL     OW42076   4.443   0.163   6.173 -0.2858 -0.0074  0.1527
13833SOL    HW142077   4.456   0.076   6.135  1.6885  0.8527 -1.3336
13833SOL    HW242078   4.368   0.199   6.125  1.5107  0.6523 -2.4205
13834SOL     OW42079   7.888   1.020   9.799 -0.1414 -0.2265  0.4785
13834SOL    HW142080   7.967   0.967   9.802 -1.3426 -2.0603  1.2710
13834SOL    HW242081   7.844   1.003   9.882 -0.7492  1.7855  0.6238
13835SOL     OW42082   0.920   4.944   4.418 -0.2592 -0.3124  0.6179
13835SOL    HW142083   0.826   4.954   4.408 -0.0078  1.3275 -0.5337
13835SOL    HW242084   0.948   5.024   4.462  0.8362  0.1800 -0.9143
13836SOL     OW42085   6.583   1.412   5.293  0.2934 -0.5393 -0.1140
13836SOL    HW142086   6.542   1.358   5.226  0.8900 -0.1581 -0.8132
13836SOL    HW242087   6.566   1.367   5.375 -1.2693 -0.5290 -0.4112
13837SOL     OW42088   4.311   9.135   8.703 -0.2076 -0.2980 -0.3607
13837SOL    HW142089   4.252   9.183   8.762  1.2596 -0.5874  1.3938
13837SOL    HW242090   4.357   9.204   8.655 -1.7228 -0.0645 -1.6015
13838SOL     OW42091   4.948   1.049   0.945 -0.2770  0.4826 -0.3490
13838SOL    HW142092   5.009   1.022   0.877 -0.5705 -0.7396 -0.1497
13838SOL    HW242093   4.865   1.009   0.920 -0.0734 -1.2522  1.4626
13839SOL     OW42094   8.035   7.746   5.593  0.0496  0.5220 -0.6497
13839SOL    HW142095   8.069   7.754   5.682 -0.3989  2.0355 -0.5831
13839SOL    HW242096   7.999   7.832   5.573  0.7256  0.4209 -2.5491
13840SOL     OW42097   4.890   4.604   6.384 -0.1105  0.1968  0.5557
13840SOL    HW142098   4.931   4.627   6.301 -1.5992  2.2183  0.3162
13840SOL    HW242099   4.960   4.610   6.448 -0.0285  4.6044  0.3406
13841SOL     OW42100   7.119   0.284   9.928  0.4972  0.3382  0.7180
13841SOL    HW142101   7.209   0.254   9.938  0.9726  1.5625  0.2747
13841SOL    HW242102   7.113   0.312   9.837 -0.9769 -1.6987  0.1240
13842SOL     OW42103   6.889   8.964   5.989 -0.2948 -0.2852 -0.3472
13842SOL    HW142104   6.838   8.921   5.920 -1.0189 -0.1190  0.0678
13842SOL    HW242105   6.830   9.031   6.023  1.0066  1.4140 -1.3260
13843SOL     OW42106   8.103   2.907   5.973  0.0719  0.2004 -0.2948
13843SOL    HW142107   8.137   2.931   5.887  0.8778 -1.1748 -0.3839
13843SOL    HW242108   8.166   2.844   6.007 -2.3085 -2.4842 -0.4735
13844SOL     OW42109   8.253   5.958   1.126 -0.1434  0.4751  0.1403
13844SOL    HW142110   8.249   6.024   1.195 -1.1189 -2.5172  3.2238
13844SOL    HW242111   8.177   5.976   1.071 -1.7747  0.6738  2.2894
13845SOL     OW42112   1.331   9.443   3.356 -0.0496 -0.2229  0.7098
13845SOL    HW142113   1.373   9.362   3.327 -0.6080  0.5346 -2.6366
13845SOL    HW242114   1.255   9.414   3.407  0.2538 -1.7772  0.3381
13846SOL     OW42115   3.652   8.158   1.491  0.0142 -0.3009 -0.1250
13846SOL    HW142116   3.704   8.236   1.513 -1.6756  1.2152 -1.2236
13846SOL    HW242117   3.710   8.106   1.435  1.2848 -0.0238  0.8802
13847SOL     OW42118   4.344   8.527   2.167  0.0351  0.0870 -0.0079
13847SOL    HW142119   4.319   8.455   2.224  0.4589  1.1638  1.6328
13847SOL    HW242120   4.428   8.500   2.129 -0.0782 -0.4983  0.1542
13848SOL     OW42121   2.700   5.420   6.621  0.3673 -0.1288  0.4850
13848SOL    HW142122   2.748   5.346   6.658  0.8426  1.1959  2.7110
13848SOL    HW242123   2.618   5.422   6.670 -0.0698  0.2377 -0.2508
13849SOL     OW42124   7.949   4.763   8.578 -0.0611 -0.0245  0.2064
13849SOL    HW142125   7.897   4.792   8.653  0.8569 -2.4706  1.9371
13849SOL    HW242126   7.906   4.801   8.502 -3.3716 -0.5611  1.6475
13850SOL     OW42127   9.627   7.750   2.628  0.0044  0.5331  0.2322
13850SOL    HW142128   9.708   7.749   2.578 -0.9522  1.1435 -1.4165
13850SOL    HW242129   9.562   7.711   2.569 -1.5014  2.7312  0.2901
13851SOL     OW42130   2.733   3.239   4.102  0.7629 -0.0744 -0.4655
13851SOL    HW142131   2.724   3.332   4.123  0.2248 -0.7465  2.8810
13851SOL    HW242132   2.826   3.221   4.109  0.6304 -0.2050  1.2756
13852SOL     OW42133   3.304   0.609   5.478  0.0391  1.2641  0.0538
13852SOL    HW142134   3.378   0.567   5.522 -0.9024  0.4734  0.9445
13852SOL    HW242135   3.344   0.680   5.427  1.2676  1.8752  1.7356
13853SOL     OW42136   2.853   6.635   8.738 -0.0456 -0.3912 -0.4022
13853SOL    HW142137   2.861   6.730   8.728 -0.1253 -0.4266 -0.8221
13853SOL    HW242138   2.760   6.617   8.724  0.0222 -0.5672 -0.6320
13854SOL     OW42139   3.866   4.977   1.956 -0.4377  0.3612  0.1903
13854SOL    HW142140   3.855   4.894   1.909 -0.7434  0.9885 -0.8741
13854SOL    HW242141   3.882   5.041   1.887  0.8554  1.0240  1.0744
13855SOL     OW42142   5.973   8.415   4.170 -0.0656 -0.3985  0.1030
13855SOL    HW142143   5.985   8.321   4.185 -1.8461 -1.0205 -1.8702
13855SOL    HW242144   6.012   8.431   4.085 -1.3926  0.2362 -0.4143
13856SOL     OW42145   3.718   6.037   9.101 -0.4199  0.2687 -0.3582
13856SOL    HW142146   3.698   6.106   9.164  0.5788 -0.7738  1.1845
13856SOL    HW242147   3.724   5.958   9.154  2.0988 -0.3968 -1.5031
13857SOL     OW42148   6.923   5.623   5.230  0.7601  0.3831  0.3295
13857SOL    HW142149   6.977   5.702   5.226 -0.8149  1.5202  0.7438
13857SOL    HW242150   6.840   5.652   5.268 -1.6521 -0.4521 -3.7034
13858SOL     OW42151   3.738   0.213   1.262 -0.0977  0.3780  0.4104
13858SOL    HW142152   3.759   0.270   1.337 -0.8941 -0.0450  0.9702
13858SOL    HW242153   3.741   0.271   1.186 -0.8442  1.1657  0.9628
13859SOL     OW42154   8.693   6.562   7.432  0.0959  0.1228  0.7271
13859SOL    HW142155   8.622   6.612   7.392 -0.2823 -1.5685 -0.8708
13859SOL    HW242156   8.773   6.604   7.402 -0.2203  0.5222  0.4422
13860SOL     OW42157   1.161   4.827   1.514  0.1438 -0.4872  0.2152
13860SOL    HW142158   1.163   4.739   1.475 -1.1540 -0.7233  0.6074
13860SOL    HW242159   1.069   4.839   1.538  0.3681  0.8761  0.4258
13861SOL     OW42160   2.060   1.343   5.333 -0.1867  0.2612 -0.8417
13861SOL    HW142161   2.094   1.356   5.244  0.8878  1.0994 -0.3407
13861SOL    HW242162   2.003   1.267   5.326  0.4017 -0.0959 -2.1124
13862SOL     OW42163   4.211   8.981   0.983  0.0230 -0.1024 -0.1980
13862SOL    HW142164   4.243   8.953   0.897  1.4254 -1.6858  0.7732
13862SOL    HW242165   4.259   9.061   1.001  2.2227 -1.4562  0.4199
13863SOL     OW42166   1.981   2.670   6.507  0.2249 -0.1307  0.6220
13863SOL    HW142167   1.919   2.675   6.435 -1.9073 -0.3530  2.3508
13863SOL    HW242168   2.065   2.651   6.465 -0.8408  0.1742 -1.8026
13864SOL     OW42169   6.451   7.568   4.220  0.1598 -0.2230  0.2483
13864SOL    HW142170   6.499   7.636   4.173 -2.4980  0.5673 -1.5219
13864SOL    HW242171   6.419   7.610   4.299 -1.3481  0.6159 -0.7685
13865SOL     OW42172   4.837   3.175   9.391 -0.1472  0.2699  0.2354
13865SOL    HW142173   4.903   3.174   9.460 -0.0930 -0.4378  0.1758
13865SOL    HW242174   4.885   3.154   9.311 -0.0176  2.0561 -0.2178
13866SOL     OW42175   1.771   5.670   8.145 -0.5517 -0.0632 -0.7488
13866SOL    HW142176   1.767   5.679   8.050  1.7645 -0.4226 -0.9310
13866SOL    HW242177   1.846   5.612   8.160 -1.3098 -0.5873  1.2786
13867SOL     OW42178   6.540   2.683   5.726  0.4179  0.7994 -0.0670
13867SOL    HW142179   6.526   2.763   5.776  0.7096  0.4993  0.5028
13867SOL    HW242180   6.581   2.622   5.788  1.0722  0.5256 -0.7448
13868SOL     OW42181   6.902   4.958   7.896 -0.0378 -0.5029 -0.4639
13868SOL    HW142182   6.893   4.873   7.939  1.7665 -0.0341  0.9558
13868SOL    HW242183   6.916   5.020   7.967  0.6535  0.6942 -1.5898
13869SOL     OW42184   7.910   8.561   0.151  0.0256  0.0987 -0.5103
13869SOL    HW142185   7.859   8.490   0.190  1.0698 -1.1983 -1.4551
13869SOL    HW242186   7.957   8.600   0.225 -0.1195 -0.5462 -0.0734
13870SOL     OW42187   1.035   3.796   4.218  0.0737  0.4479 -0.1805
13870SOL    HW142188   0.963   3.858   4.208 -0.2714  0.1039  0.1016
13870SOL    HW242189   1.034   3.773   4.311  0.9527  0.9097 -0.0513
13871SOL     OW42190   5.720   0.931   2.781  0.3778 -0.1943 -0.0494
13871SOL    HW142191   5.636   0.924   2.826 -0.1030  1.4182 -0.6015
13871SOL    HW242192   5.726   0.851   2.729  0.3949 -1.5224  1.8823
13872SOL     OW42193   5.185   2.502   7.275  0.2534  0.2969 -0.2777
13872SOL    HW142194   5.143   2.554   7.207  0.4462  0.3954 -0.3218
13872SOL    HW242195   5.272   2.539   7.283  0.7428 -0.6527 -1.0013
13873SOL     OW42196   3.313   4.641   6.371  0.2412 -0.0091  0.9239
13873SOL    HW142197   3.335   4.734   6.363  2.0432 -0.5543 -2.0671
13873SOL    HW242198   3.218   4.638   6.360  0.2229  1.4095  0.4075
13874SOL     OW42199   1.695   0.813   1.726 -0.5803  0.4862 -0.3177
13874SOL    HW142200   1.615   0.865   1.716 -0.0352  1.1771 -1.3754
13874SOL    HW242201   1.665   0.723   1.734 -1.4826  0.7860 -0.2131
13875SOL     OW42202   0.246   1.286   8.876  0.0858  0.7410  0.0945
13875SOL    HW142203   0.337   1.262   8.860  0.1030  1.6482 -1.3469
13875SOL    HW242204   0.200   1.202   8.883  0.7420  0.2659 -1.0697
13876SOL     OW42205   9.433   6.547   4.003 -0.5723  0.1687  0.2364
13876SOL    HW142206   9.465   6.475   4.058 -1.4531  0.8081  1.6326
13876SOL    HW242207   9.367   6.506   3.946 -0.0687 -0.3901  0.0484
13877SOL     OW42208   2.236   1.729   1.050 -0.1699 -0.2271 -0.5125
13877SOL    HW142209   2.204   1.735   0.960 -0.9347 -0.3104 -0.2466
13877SOL    HW242210   2.182   1.661   1.090 -0.2415  0.2391  0.1857
13878SOL     OW42211   4.937   7.391   8.379 -0.4725  0.0283  0.3185
13878SOL    HW142212   4.910   7.363   8.467  1.9190  0.2896  1.2277
13878SOL    HW242213   4.948   7.485   8.387 -0.0816  0.0297 -0.2039
13879SOL     OW42214   8.199   0.171   5.431  0.0851  0.0819 -0.2689
13879SOL    HW142215   8.199   0.261   5.462 -1.4749  0.5106 -1.3535
13879SOL    HW242216   8.172   0.177   5.339  0.1645 -1.4759 -0.4330
13880SOL     OW42217   2.970   7.326   7.639  0.4487  0.4317  0.1984
13880SOL    HW142218   3.061   7.356   7.635  0.9572 -1.0269  0.3808
13880SOL    HW242219   2.953   7.290   7.552 -0.2366  1.4075 -0.0946
13881SOL     OW42220   3.646   5.118   2.025 -0.4103  0.7332 -0.5089
13881SOL    HW142221   3.724   5.063   2.026 -1.7958 -1.3133  0.1542
13881SOL    HW242222   3.589   5.078   1.959 -0.8054  2.4070 -1.2478
13882SOL     OW42223   0.960   5.392   0.446  0.7597 -0.3828 -0.4064
13882SOL    HW142224   1.032   5.446   0.414  1.9908 -1.5257  0.3041
13882SOL    HW242225   0.913   5.366   0.367  0.7597  0.8704 -0.8310
13883SOL     OW42226   4.003   4.074   8.034 -0.3403 -0.2544 -0.2249
13883SOL    HW142227   4.006   4.151   7.976 -0.0505 -1.0511 -1.3045
13883SOL    HW242228   4.095   4.051   8.048 -0.4241 -1.9034 -2.0094
13884SOL     OW42229   9.324   1.880   4.831  0.1714  0.1940 -0.1071
13884SOL    HW142230   9.325   1.795   4.787  0.5998 -0.3103  0.8547
13884SOL    HW242231   9.277   1.864   4.913  0.5096  0.8211  0.2120
13885SOL     OW42232   9.283   0.226   4.345 -0.0806  0.2206  0.3560
13885SOL    HW142233   9.369   0.253   4.377  0.2804 -1.0840  0.5411
13885SOL    HW242234   9.258   0.152   4.401  0.0534 -1.3979 -1.5963
13886SOL     OW42235   9.051   0.946   4.604  0.1274 -0.7789  0.2157
13886SOL    HW142236   9.023   0.858   4.579 -1.0867 -0.1334 -0.8395
13886SOL    HW242237   8.977   1.002   4.580  1.4280  0.7135 -0.4301
13887SOL     OW42238   3.155   2.334   6.541  0.0737  0.3585 -0.2998
13887SOL    HW142239   3.197   2.266   6.593 -1.0857 -0.6669 -0.6549
13887SOL    HW242240   3.074   2.294   6.510 -1.2998  2.3334  0.5572
13888SOL     OW42241   1.220   7.086   2.685 -0.3966 -0.0250  0.4270
13888SOL    HW142242   1.151   7.134   2.639  0.3779 -0.0598 -0.8168
13888SOL    HW242243   1.209   6.995   2.655  1.5106  0.3119 -1.5620
13889SOL     OW42244   5.317   7.848   1.380 -0.0258  0.1208  0.1944
13889SOL    HW142245   5.400   7.852   1.426  0.4870  1.9250 -0.7747
13889SOL    HW242246   5.329   7.779   1.314  0.4936 -0.0096  0.4198
13890SOL     OW42247   5.063   0.603   1.103  0.2353 -0.0983 -0.0036
13890SOL    HW142248   4.993   0.558   1.056  0.1682  0.2097 -0.1956
13890SOL    HW242249   5.047   0.581   1.195 -0.8374  0.9537  0.0894
13891SOL     OW42250   0.104   6.366   8.211 -0.1084 -0.1347 -1.2254
13891SOL    HW142251   0.061   6.390   8.293  1.9597 -0.4354  0.0326
13891SOL    HW242252   0.121   6.450   8.167  2.0223  0.4263  0.4628
13892SOL     OW42253   8.143   2.987   8.714  0.6584 -0.0185 -0.4156
13892SOL    HW142254   8.053   2.972   8.683  0.6616  1.4949 -1.2348
13892SOL    HW242255   8.143   3.078   8.743  1.6900 -0.2928  0.4860
13893SOL     OW42256   0.420   2.580   4.047 -0.1485  0.1954 -0.2687
13893SOL    HW142257   0.401   2.649   4.111 -1.1976  0.4128 -0.8003
13893SOL    HW242258   0.515   2.586   4.034 -0.3046  2.0094 -0.8190
13894SOL     OW42259   8.394   3.063   2.503 -0.4403 -0.6312  0.2201
13894SOL    HW142260   8.403   3.111   2.586 -0.6603  1.2423 -0.7691
13894SOL    HW242261   8.301   3.041   2.499 -0.5369 -0.2504  0.2582
13895SOL     OW42262   5.536   7.387   1.442 -0.0984 -0.1930 -0.0870
13895SOL    HW142263   5.524   7.388   1.347  1.5679 -0.6674 -0.3253
13895SOL    HW242264   5.447   7.392   1.477 -0.7877 -0.7660 -1.6670
13896SOL     OW42265   2.595   8.889   8.516  0.0242  0.3918  0.5393
13896SOL    HW142266   2.615   8.977   8.549  0.1978  0.9292 -0.9537
13896SOL    HW242267   2.673   8.837   8.537  0.4103  0.8910  0.3497
13897SOL     OW42268   8.253   5.627   5.695  0.6493  0.1237 -0.3252
13897SOL    HW142269   8.331   5.676   5.667 -0.1781  0.1412 -2.8988
13897SOL    HW242270   8.265   5.540   5.659 -0.9181  0.4015 -1.6588
13898SOL     OW42271   4.293   7.057   6.318  0.0611  0.0672  0.4808
13898SOL    HW142272   4.251   7.061   6.404 -3.1091  0.6659 -0.9415
13898SOL    HW242273   4.329   6.969   6.312 -3.6173 -1.5972  0.8142
13899SOL     OW42274   9.121   1.605   0.080 -0.1282 -0.8799 -0.6845
13899SOL    HW142275   9.180   1.567   0.145 -1.8582 -0.1159  1.4709
13899SOL    HW242276   9.033   1.588   0.114 -1.0462  2.4798 -1.0360
13900SOL     OW42277   8.449   3.985   1.853 -0.1880 -0.1264 -0.1606
13900SOL    HW142278   8.519   4.047   1.832 -0.5346 -0.3240 -2.0402
13900SOL    HW242279   8.477   3.903   1.812 -0.9423 -0.5438  0.1368
13901SOL     OW42280   3.812   5.819   5.515  0.1443 -0.0466 -0.0867
13901SOL    HW142281   3.811   5.914   5.501 -1.2469 -0.3053 -2.1770
13901SOL    HW242282   3.896   5.790   5.480  0.9275  0.4483  1.2843
13902SOL     OW42283   6.416   6.552   3.548 -0.0161  0.4694  0.4522
13902SOL    HW142284   6.366   6.475   3.574  1.6069 -0.2030  1.7494
13902SOL    HW242285   6.363   6.626   3.580 -2.3350  0.0847 -2.1066
13903SOL     OW42286   9.227   8.103   4.273  0.4811 -0.2742  0.6235
13903SOL    HW142287   9.173   8.170   4.230 -0.3400  0.2468  2.3887
13903SOL    HW242288   9.268   8.056   4.200 -1.1235  0.3269 -0.7510
13904SOL     OW42289   6.521   1.211   7.139  0.4383 -0.8238 -0.0193
13904SOL    HW142290   6.469   1.205   7.058 -0.5097  0.9958  0.3923
13904SOL    HW242291   6.549   1.303   7.142  2.4487 -1.4209  0.5540
13905SOL     OW42292   2.349   4.698   7.160 -0.1230 -0.3362 -0.0732
13905SOL    HW142293   2.340   4.786   7.196  1.0355 -0.4045  0.4356
13905SOL    HW242294   2.271   4.685   7.107  0.2559  1.4481 -1.1130
13906SOL     OW42295   6.621   6.648   3.742  0.5480  0.0317  0.8018
13906SOL    HW142296   6.634   6.557   3.767 -0.8833 -0.3982  0.1180
13906SOL    HW242297   6.578   6.644   3.656  1.3072  1.3731  0.3324
13907SOL     OW42298   6.182   0.217   5.468 -0.4344  0.0300 -0.2305
13907SOL    HW142299   6.184   0.265   5.385 -0.7456 -1.1172 -0.9244
13907SOL    HW242300   6.234   0.270   5.528  1.0609  0.1474 -1.5694
13908SOL     OW42301   7.708   6.315   4.056 -0.4542  0.1294  0.4130
13908SOL    HW142302   7.766   6.386   4.029  0.0992 -1.0049 -1.6017
13908SOL    HW242303   7.682   6.273   3.974  0.8450 -3.2142  1.5473
13909SOL     OW42304   9.249   2.219   5.303 -0.2895 -0.9494  0.2604
13909SOL    HW142305   9.182   2.283   5.326  0.1465 -0.6713  0.7521
13909SOL    HW242306   9.240   2.209   5.208  1.0960  1.5349 -0.2244
13910SOL     OW42307   8.585   8.186   5.837 -0.4124 -0.2423  0.0521
13910SOL    HW142308   8.602   8.098   5.806 -1.5145 -0.1864 -0.8146
13910SOL    HW242309   8.670   8.219   5.866  0.3404 -0.9689 -1.2398
13911SOL     OW42310   6.930   1.078   7.092 -0.1754 -0.2280 -0.0272
13911SOL    HW142311   6.841   1.088   7.058  0.0450 -0.2047 -0.6083
13911SOL    HW242312   6.968   1.166   7.085  0.1261 -0.3926 -0.4495
13912SOL     OW42313   6.857   5.399   1.068 -0.3111 -0.3086 -0.7568
13912SOL    HW142314   6.905   5.324   1.031  0.7579 -0.7895  1.4470
13912SOL    HW242315   6.839   5.373   1.159 -1.4568  1.4329 -0.4434
13913SOL     OW42316   4.048   4.683   2.590  0.5005  0.2121 -0.2926
13913SOL    HW142317   4.128   4.725   2.620  0.1747  1.0830 -0.6066
13913SOL    HW242318   3.978   4.726   2.639  0.1096  0.4426 -1.0315
13914SOL     OW42319   1.058   4.298   1.232 -0.3196 -0.4243 -0.1197
13914SOL    HW142320   1.109   4.219   1.252 -0.3319 -0.7094 -1.1322
13914SOL    HW242321   0.998   4.271   1.163  0.8774  0.8737 -1.7760
13915SOL     OW42322   6.072   7.511   3.036 -0.3697  0.0339  0.0923
13915SOL    HW142323   6.009   7.512   3.109 -0.8269 -1.4365 -0.2508
13915SOL    HW242324   6.039   7.577   2.975  0.2163  1.5607  1.3264
13916SOL     OW42325   4.852   9.101   1.512  0.7495  0.1203 -0.2467
13916SOL    HW142326   4.889   9.025   1.467  0.3139  0.0004 -0.4078
13916SOL    HW242327   4.781   9.130   1.455 -0.4958 -0.6695  0.8442
13917SOL     OW42328   4.803   4.046   2.464  0.9541  0.1779 -0.2620
13917SOL    HW142329   4.848   4.009   2.389  2.2524  0.0954  0.5255
13917SOL    HW242330   4.828   4.138   2.465  1.3140  0.0816  0.3110
13918SOL     OW42331   5.480   6.144   5.572  0.2397 -0.1565 -0.1811
13918SOL    HW142332   5.396   6.186   5.590 -0.4206 -1.7496  0.7101
13918SOL    HW242333   5.546   6.209   5.595 -0.7375  0.9059 -0.3182
13919SOL     OW42334   5.956   8.939   1.798 -0.2603 -0.5006 -0.2150
13919SOL    HW142335   5.873   8.934   1.846 -0.2802  0.5014 -0.1233
13919SOL    HW242336   5.988   9.028   1.815 -1.5444  0.9000 -4.1484
13920SOL     OW42337   4.567   0.295   8.284 -0.0968 -0.6531 -0.4776
13920SOL    HW142338   4.477   0.306   8.313 -1.1906 -2.2867 -2.9535
13920SOL    HW242339   4.615   0.269   8.363 -2.5943 -3.6308  0.2281
13921SOL     OW42340   2.849   8.824   8.624  0.1955  0.8978  0.0223
13921SOL    HW142341   2.918   8.812   8.689 -0.7405  0.9566  1.0703
13921SOL    HW242342   2.892   8.867   8.550  1.7342 -1.0301 -0.2810
13922SOL     OW42343   1.157   5.882   4.654  0.1651 -0.3114 -0.1689
13922SOL    HW142344   1.240   5.840   4.676 -1.0897 -1.1381  3.6827
13922SOL    HW242345   1.109   5.815   4.605  1.2852 -0.1938 -1.5019
13923SOL     OW42346   1.110   6.141   3.152 -0.2023  0.2017 -0.3713
13923SOL    HW142347   1.109   6.236   3.142 -2.0529  0.3806  0.9614
13923SOL    HW242348   1.132   6.127   3.244  0.1546 -0.6682 -0.5807
13924SOL     OW42349   8.939   1.165   5.515 -0.3902  0.2509  0.0505
13924SOL    HW142350   8.862   1.134   5.564  0.9041 -0.9237  1.4890
13924SOL    HW242351   8.956   1.252   5.551 -1.6036  0.9501 -0.9999
13925SOL     OW42352   4.823   6.523   5.226 -0.3873 -0.9819 -0.5458
13925SOL    HW142353   4.767   6.482   5.292  0.2053 -2.2435 -0.7896
13925SOL    HW242354   4.859   6.600   5.268  0.8182 -2.3246  1.0264
13926SOL     OW42355   5.745   2.970   8.203 -0.7691 -0.3313 -0.3056
13926SOL    HW142356   5.775   2.906   8.138  2.8786  1.7968 -1.0272
13926SOL    HW242357   5.767   2.930   8.287 -0.0031 -0.7307 -0.6747
13927SOL     OW42358   8.617   2.036   5.209  0.5622 -0.4973  0.2202
13927SOL    HW142359   8.574   2.035   5.124  0.3937 -2.7723  0.2640
13927SOL    HW242360   8.556   1.991   5.267  0.5673  1.2362  1.6425
13928SOL     OW42361   1.789   9.397   3.323 -0.5223 -0.4016  0.2207
13928SOL    HW142362   1.854   9.466   3.336  0.0171 -1.1317  1.6397
13928SOL    HW242363   1.712   9.429   3.371 -0.7858 -0.1241 -0.3764
13929SOL     OW42364   2.126   4.795   9.761  0.5376  0.0758  0.1323
13929SOL    HW142365   2.172   4.783   9.845  0.4267  1.1732  0.3627
13929SOL    HW242366   2.177   4.744   9.699  1.5152  0.4904  0.5771
13930SOL     OW42367   0.078   3.416   0.632  0.7545 -0.0135 -0.5043
13930SOL    HW142368  -0.000   3.464   0.658 -0.1600 -1.5053 -0.3625
13930SOL    HW242369   0.101   3.451   0.546 -0.6470 -0.2030 -0.9746
13931SOL     OW42370   0.557   4.558   9.681 -0.3550  0.0677 -0.2211
13931SOL    HW142371   0.570   4.653   9.692 -0.1837  0.0256 -0.0721
13931SOL    HW242372   0.618   4.533   9.612 -0.9302  0.2009 -0.7917
13932SOL     OW42373   3.116   9.708   3.738 -0.1583  0.4962 -0.0159
13932SOL    HW142374   3.182   9.638   3.742  0.4267  0.9804 -0.8846
13932SOL    HW242375   3.099   9.718   3.644  1.9278  3.4887 -0.2112
13933SOL     OW42376   6.812   9.048   0.806 -0.1744 -0.0243  0.3509
13933SOL    HW142377   6.776   9.021   0.891  1.4323  1.2146  1.4813
13933SOL    HW242378   6.767   9.130   0.786 -1.5440 -0.9875 -0.7171
13934SOL     OW42379   1.493   7.876   7.079 -0.0570 -0.1887 -0.0724
13934SOL    HW142380   1.477   7.831   7.162  0.4564 -0.1863  0.0310
13934SOL    HW242381   1.552   7.818   7.031  1.8370  1.0335  0.6748
13935SOL     OW42382   3.497   7.563   9.521 -0.3596  0.3926  0.0074
13935SOL    HW142383   3.474   7.518   9.440 -1.1683 -0.4064  0.6577
13935SOL    HW242384   3.479   7.655   9.504 -0.4256  0.2407 -0.7524
13936SOL     OW42385   2.226   1.042   7.510 -0.6378  0.4040  1.0372
13936SOL    HW142386   2.132   1.047   7.498 -0.9613 -2.1984  1.8023
13936SOL    HW242387   2.262   1.036   7.422 -1.3129  0.1051  0.7789
13937SOL     OW42388   9.206   4.795   6.346 -0.5755  0.3425  0.8192
13937SOL    HW142389   9.234   4.837   6.427 -0.5879 -0.2384  1.1310
13937SOL    HW242390   9.238   4.705   6.353  0.1939  0.5221 -0.2244
13938SOL     OW42391   9.793   3.905   1.593  0.1460 -0.7315  0.2713
13938SOL    HW142392   9.811   3.997   1.572  0.2763 -0.6834  0.5912
13938SOL    HW242393   9.710   3.907   1.640  0.5852 -0.6809  1.0578
13939SOL     OW42394   0.306   1.512   9.693 -0.0546  0.0796  0.4440
13939SOL    HW142395   0.384   1.498   9.640  0.2408 -1.1298  1.1672
13939SOL    HW242396   0.263   1.588   9.654  1.2949  0.5404 -0.1721
13940SOL     OW42397   5.240   7.963   1.722 -1.2100  0.2507  0.3676
13940SOL    HW142398   5.316   7.910   1.699 -2.8027 -0.8194 -3.0047
13940SOL    HW242399   5.275   8.052   1.733  0.5536 -0.2112 -1.0821
13941SOL     OW42400   6.373   4.275   7.754  0.1868 -0.1937  0.1257
13941SOL    HW142401   6.331   4.360   7.743 -0.7953 -0.7556 -0.6087
13941SOL    HW242402   6.358   4.230   7.671  3.8656  0.2253 -0.9590
13942SOL     OW42403   6.066   5.762   4.914  0.4061 -0.2778  0.1776
13942SOL    HW142404   6.113   5.793   4.992  0.8864  0.3584 -0.3476
13942SOL    HW242405   6.024   5.681   4.941 -1.6699  1.2390  1.9328
13943SOL     OW42406   7.450   5.620   4.559  0.6144  0.6837  0.1235
13943SOL    HW142407   7.418   5.654   4.476 -4.1734  1.4183  1.9515
13943SOL    HW242408   7.405   5.672   4.626  3.2175 -0.6771  3.2161
13944SOL     OW42409   3.008   1.672   2.058 -0.4060  0.1966  0.2553
13944SOL    HW142410   3.032   1.591   2.104 -0.8787 -0.2056 -0.1932
13944SOL    HW242411   3.069   1.676   1.984  2.3029  2.3226  2.3916
13945SOL     OW42412   6.514   3.722   2.484  0.6954 -0.5039 -0.0451
13945SOL    HW142413   6.429   3.749   2.519  0.2906 -0.8598 -0.7271
13945SOL    HW242414   6.576   3.740   2.554  0.0929  0.0016  0.3649
13946SOL     OW42415   9.386   2.444   5.142  0.1912 -0.1744  0.0543
13946SOL    HW142416   9.345   2.375   5.195 -0.9626 -0.1884 -0.8305
13946SOL    HW242417   9.345   2.436   5.056  0.7293  1.0159 -0.3340
13947SOL     OW42418   2.285   7.268   6.146  0.1121  0.3587 -0.2806
13947SOL    HW142419   2.253   7.197   6.202 -2.3282  0.5527 -1.2922
13947SOL    HW242420   2.219   7.337   6.155  2.7317  2.8850  1.2012
13948SOL     OW42421   5.591   3.454   8.010 -0.3706 -0.2470 -0.0013
13948SOL    HW142422   5.643   3.434   7.932 -0.6020 -1.1588  0.0636
13948SOL    HW242423   5.629   3.399   8.079  0.2805  1.0668  0.7186
13949SOL     OW42424   0.319   4.985   5.879 -1.3507 -0.4431  0.3508
13949SOL    HW142425   0.270   4.920   5.828 -2.2936  1.4472 -1.2784
13949SOL    HW242426   0.331   5.058   5.820  1.5020  0.1111  1.4665
13950SOL     OW42427   0.607   5.181   0.477 -0.3700 -0.2459 -0.0770
13950SOL    HW142428   0.571   5.224   0.400 -1.1099 -1.9820 -0.7305
13950SOL    HW242429   0.535   5.129   0.513  0.4725 -0.9279  0.6998
13951SOL     OW42430   1.007   1.182   6.113 -0.3723 -0.4636  0.3255
13951SOL    HW142431   0.982   1.090   6.123 -1.3308 -0.6506 -2.8811
13951SOL    HW242432   1.094   1.180   6.074 -1.3461 -0.1447 -2.0053
13952SOL     OW42433   4.600   3.977   4.813 -0.3296  0.8871 -0.1312
13952SOL    HW142434   4.575   4.041   4.746  0.8105  2.2164  0.6481
13952SOL    HW242435   4.555   4.007   4.892 -1.9025 -0.8352 -0.3073
13953SOL     OW42436   3.334   0.902   2.282 -0.0128  0.5815  0.1711
13953SOL    HW142437   3.341   0.994   2.258 -1.0309  1.0091  1.4318
13953SOL    HW242438   3.394   0.892   2.356  0.1452  0.1970 -0.0021
13954SOL     OW42439   7.869   4.394   6.566  0.8090 -0.1604 -0.0909
13954SOL    HW142440   7.827   4.463   6.514  1.3703 -0.0169 -0.3585
13954SOL    HW242441   7.955   4.429   6.588 -0.0550  0.5290  2.4712
13955SOL     OW42442   1.966   3.874   5.844  0.3802 -0.6039  0.2653
13955SOL    HW142443   1.951   3.965   5.816  0.8149 -1.0143 -1.4482
13955SOL    HW242444   1.919   3.866   5.927  1.6262  1.6230  1.2941
13956SOL     OW42445   9.103   0.501   8.297 -0.1042 -0.4602  0.0529
13956SOL    HW142446   9.116   0.589   8.333  0.4208 -0.8288  0.7845
13956SOL    HW242447   9.026   0.468   8.344 -0.2757 -0.4150 -0.1929
13957SOL     OW42448   6.722   8.007   9.195  0.4958  0.0388  0.3198
13957SOL    HW142449   6.681   8.027   9.111 -0.4446  0.8062  0.9398
13957SOL    HW242450   6.656   8.030   9.260  0.8978 -1.3341  1.2518
13958SOL     OW42451   9.764   7.679   5.298 -0.1393  0.1327 -0.3945
13958SOL    HW142452   9.696   7.628   5.342  0.7548 -0.2485  0.6164
13958SOL    HW242453   9.718   7.730   5.232 -1.4087 -0.0527  0.3199
13959SOL     OW42454   3.163   9.298   8.585 -0.5803 -0.5850  0.7118
13959SOL    HW142455   3.165   9.379   8.534 -0.8017 -1.0528 -0.0771
13959SOL    HW242456   3.086   9.251   8.551  2.1004 -3.3195 -2.4384
13960SOL     OW42457   6.113   8.515   1.903 -0.2939  0.2842  0.0160
13960SOL    HW142458   6.085   8.458   1.975 -0.0461  0.0272 -0.0906
13960SOL    HW242459   6.100   8.603   1.936  2.3711  0.2425  1.4152
13961SOL     OW42460   7.360   5.095   4.481  0.3229 -0.0609 -0.3817
13961SOL    HW142461   7.437   5.091   4.538 -0.8072 -0.1382  1.1895
13961SOL    HW242462   7.298   5.034   4.520 -1.2231  1.3488 -0.5336
13962SOL     OW42463   2.043   8.746   5.289  0.7485  0.4925  0.0797
13962SOL    HW142464   2.071   8.808   5.222  0.5310 -0.2944 -0.7673
13962SOL    HW242465   2.010   8.801   5.361 -2.0524  1.4015 -1.7320
13963SOL     OW42466   4.317   0.568   8.647 -0.2506 -0.4572 -0.6479
13963SOL    HW142467   4.333   0.663   8.647 -1.7906 -0.1331  1.1265
13963SOL    HW242468   4.256   0.553   8.576 -2.9787  0.5634  1.3157
13964SOL     OW42469   5.900   0.915   5.088 -0.0206  0.0437 -0.6283
13964SOL    HW142470   5.919   0.992   5.035 -1.8106  1.4865  0.6851
13964SOL    HW242471   5.848   0.948   5.161 -0.0046 -2.2755  0.5362
13965SOL     OW42472   7.651   7.267   2.281 -0.2428  0.0981  0.3951
13965SOL    HW142473   7.661   7.354   2.319  0.2419 -0.2140  1.0134
13965SOL    HW242474   7.722   7.260   2.217  0.4432 -0.2650  1.1826
13966SOL     OW42475   7.249   1.691   9.339  0.1740 -0.2228 -0.8419
13966SOL    HW142476   7.234   1.719   9.430 -2.4401  0.0125 -1.2428
13966SOL    HW242477   7.179   1.628   9.323 -0.3714  0.8704 -3.1324
13967SOL     OW42478   4.671   6.439   6.620  0.3849  0.1215 -0.0538
13967SOL    HW142479   4.756   6.425   6.578  0.4750 -0.4624  0.3185
13967SOL    HW242480   4.607   6.413   6.553  0.5391 -1.3584  0.3581
13968SOL     OW42481   8.196   6.181   5.481 -0.3746 -0.0046 -0.2130
13968SOL    HW142482   8.158   6.142   5.403 -2.7318  1.8388 -0.0990
13968SOL    HW242483   8.244   6.257   5.448 -1.1064  0.5923  0.0723
13969SOL     OW42484   5.064   1.738   2.716 -0.6848 -0.5608 -0.1111
13969SOL    HW142485   5.030   1.828   2.720 -0.6994 -0.5809  0.2588
13969SOL    HW242486   4.988   1.683   2.737 -0.8413 -0.7000 -0.9945
13970SOL     OW42487   4.899   4.310   3.187  0.5161  0.0397 -0.4239
13970SOL    HW142488   4.908   4.354   3.102  4.0922 -0.2234 -0.3084
13970SOL    HW242489   4.923   4.219   3.171 -1.0341 -0.5889  0.5095
13971SOL     OW42490   5.714   8.561   4.606  0.1105  0.1614 -0.0550
13971SOL    HW142491   5.753   8.646   4.624  0.2631  0.0284  0.2459
13971SOL    HW242492   5.745   8.539   4.518 -0.3574  0.6527 -0.3513
13972SOL     OW42493   0.313   0.976   9.606  0.4116 -0.1417 -0.3159
13972SOL    HW142494   0.305   0.943   9.517 -1.4808  1.3204 -0.7450
13972SOL    HW242495   0.295   1.070   9.599  1.2025  0.1841  1.4724
13973SOL     OW42496   5.009   7.709   5.342  0.5962 -0.2466  0.3088
13973SOL    HW142497   5.092   7.737   5.303  0.4909 -1.2812 -0.6936
13973SOL    HW242498   5.014   7.740   5.432  0.9133  2.0939 -0.4374
13974SOL     OW42499   9.800   4.614   0.054  0.2357 -0.2191  0.7467
13974SOL    HW142500   9.791   4.575  -0.033 -0.0257  1.2321  0.0926
13974SOL    HW242501   9.880   4.666   0.049 -1.0475  1.8681  0.5207
13975SOL     OW42502   5.458   3.216   6.263  0.0714  0.2132  0.3583
13975SOL    HW142503   5.553   3.207   6.267  0.1135 -1.1209 -1.7360
13975SOL    HW242504   5.442   3.253   6.176 -1.3418  0.3849  0.6677
13976SOL     OW42505   5.423   6.417   3.271  0.0268 -0.0585 -0.1948
13976SOL    HW142506   5.490   6.485   3.276 -0.4620  0.3183  2.3602
13976SOL    HW242507   5.457   6.345   3.323 -1.4853  0.1474  1.1829
13977SOL     OW42508   2.020   4.957   6.192 -0.3857 -0.6691 -0.2387
13977SOL    HW142509   1.965   5.030   6.167  0.2534 -0.6682 -1.7592
13977SOL    HW242510   1.960   4.892   6.228 -1.1488 -0.0290 -0.3380
13978SOL     OW42511   6.453   1.616   4.852 -0.0658  0.2583  0.3057
13978SOL    HW142512   6.445   1.632   4.946 -2.8439 -0.3749  0.2903
13978SOL    HW242513   6.416   1.694   4.811  2.2328  1.0599 -0.3597
13979SOL     OW42514   2.714   5.578   4.303 -0.1502  0.4444 -0.5146
13979SOL    HW142515   2.755   5.529   4.232  1.1423  1.4163 -0.4521
13979SOL    HW242516   2.714   5.517   4.377  0.9272  0.3366 -0.5948
13980SOL     OW42517   0.282   7.175   8.311 -0.3522 -0.4255 -0.5585
13980SOL    HW142518   0.240   7.091   8.330  1.3283 -0.8722  1.6760
13980SOL    HW242519   0.370   7.166   8.349 -0.3310  2.5731  0.3583
13981SOL     OW42520   5.591   5.449   9.921  1.0205  0.0263 -0.1465
13981SOL    HW142521   5.577   5.543   9.931 -2.7054 -0.4931  0.8703
13981SOL    HW242522   5.604   5.417  10.011 -0.0171 -0.6718 -0.2264
13982SOL     OW42523   7.507   5.159   0.862 -0.1932  0.2855 -0.5018
13982SOL    HW142524   7.502   5.253   0.875 -0.8145  0.2160 -0.2041
13982SOL    HW242525   7.495   5.147   0.767 -1.6301  0.4195 -0.3600
13983SOL     OW42526   7.464   2.720   6.238 -0.0516  0.1414 -0.4731
13983SOL    HW142527   7.461   2.756   6.327  2.4100  0.2923 -0.3655
13983SOL    HW242528   7.505   2.635   6.249  1.3274  0.6270 -1.5402
13984SOL     OW42529   1.691   9.788   5.386  0.2227 -0.1482  0.1365
13984SOL    HW142530   1.759   9.763   5.323 -0.0702 -0.9115  0.1145
13984SOL    HW242531   1.735   9.847   5.447  0.8997 -0.6318  0.1197
13985SOL     OW42532   1.714   7.457   7.989 -0.6154  0.4830 -0.4658
13985SOL    HW142533   1.619   7.465   8.005 -0.2134  3.4139  1.4313
13985SOL    HW242534   1.742   7.390   8.051 -1.0875  2.0679  1.6305
13986SOL     OW42535   8.200   6.927   1.203  0.3344 -0.4304  0.5691
13986SOL    HW142536   8.173   6.896   1.290  2.0700 -1.4820  0.7741
13986SOL    HW242537   8.251   6.854   1.166  0.0529  0.1838 -1.1483
13987SOL     OW42538   5.700   6.024   8.320  0.0560  0.2408 -0.2694
13987SOL    HW142539   5.762   5.999   8.252 -0.8797 -0.6515 -0.8341
13987SOL    HW242540   5.614   6.021   8.276 -0.3094  2.5986  0.1620
13988SOL     OW42541   0.241   8.104   5.896 -0.0390  0.3754 -0.2550
13988SOL    HW142542   0.272   8.033   5.952 -0.1221  2.4106  2.5786
13988SOL    HW242543   0.215   8.173   5.957 -2.3013  1.9365 -2.7806
13989SOL     OW42544   4.755   5.927   5.736  0.0420  0.1310 -0.2274
13989SOL    HW142545   4.667   5.945   5.704 -1.9728 -3.0173  2.9138
13989SOL    HW242546   4.760   5.971   5.820  1.6084  0.4144 -0.4320
13990SOL     OW42547   6.143   9.092   4.466 -0.1087  0.3057 -0.8867
13990SOL    HW142548   6.096   9.174   4.455 -1.0195  0.1250  1.2497
13990SOL    HW242549   6.108   9.035   4.398 -2.8313  0.2827  0.3922
13991SOL     OW42550   5.732   8.974   8.084  0.1113 -0.0150 -0.3317
13991SOL    HW142551   5.669   9.044   8.104 -1.6622 -1.4964 -0.4625
13991SOL    HW242552   5.797   9.017   8.029 -0.6300  1.6547  0.0036
13992SOL     OW42553   9.597   1.783   7.507 -0.1645  0.0454 -0.2609
13992SOL    HW142554   9.677   1.831   7.528 -0.7763  0.0143  2.4806
13992SOL    HW242555   9.628   1.700   7.469  0.9858  0.9363 -1.3694
13993SOL     OW42556   3.816   5.799   5.925  0.0041  0.0717  0.7300
13993SOL    HW142557   3.842   5.728   5.868 -1.5144  1.1994 -1.5194
13993SOL    HW242558   3.721   5.807   5.912 -0.1190  1.4498  2.1647
13994SOL     OW42559   7.769   2.967   4.656  0.1728 -0.3598  0.2056
13994SOL    HW142560   7.774   2.988   4.562  0.9492 -0.4314  0.2307
13994SOL    HW242561   7.786   2.873   4.660 -1.3160 -0.6542  0.2895
13995SOL     OW42562   4.457   8.326   2.728 -0.3744  0.3625 -0.1931
13995SOL    HW142563   4.445   8.381   2.651 -0.9235 -0.9013 -1.0477
13995SOL    HW242564   4.404   8.367   2.796  0.6991  1.9072 -0.2473
13996SOL     OW42565   4.711   8.469   7.108  0.4130  0.0659  0.1513
13996SOL    HW142566   4.797   8.512   7.110  1.1772 -1.3036 -1.1892
13996SOL    HW242567   4.689   8.464   7.015 -0.7950 -0.2288  0.4436
13997SOL     OW42568   0.072   7.877   0.061 -0.1319  0.3511  0.1951
13997SOL    HW142569  -0.022   7.893   0.059 -0.0063  1.0661 -1.5775
13997SOL    HW242570   0.112   7.958   0.030  1.0349 -0.2129  0.1492
13998SOL     OW42571   5.090   1.610   3.830  0.2959 -0.3273  0.6097
13998SOL    HW142572   5.069   1.619   3.737  2.2209 -0.0266  0.1730
13998SOL    HW242573   5.028   1.669   3.873  0.1806  0.4803 -0.5910
13999SOL     OW42574   4.710   1.558   7.232 -0.0292  0.3855  0.1449
13999SOL    HW142575   4.748   1.482   7.275  0.0011 -1.2505 -2.5385
13999SOL    HW242576   4.649   1.594   7.296 -0.1627 -1.9909  1.4620
14000SOL     OW42577   6.363   6.330   9.093  0.8215 -0.2036  0.8716
14000SOL    HW142578   6.361   6.244   9.053  0.0528  0.1701  0.0828
14000SOL    HW242579   6.277   6.340   9.134  0.1533  0.9258 -0.6866
14001SOL     OW42580   6.145   5.874   3.687 -0.6411 -0.3361  0.4945
14001SOL    HW142581   6.238   5.854   3.675 -0.4676  0.7111 -0.0527
14001SOL    HW242582   6.121   5.921   3.607 -1.2535  0.7230  1.2844
14002SOL     OW42583   2.194   4.006   4.819 -0.0327  0.2830  0.4521
14002SOL    HW142584   2.210   3.924   4.865  0.7663 -0.2130 -0.6542
14002SOL    HW242585   2.268   4.062   4.844 -0.8617  0.8887  1.6366
14003SOL     OW42586   1.849   7.060   1.232  0.0097  0.5781 -0.1663
14003SOL    HW142587   1.826   7.128   1.168 -0.4000  0.4102 -0.2013
14003SOL    HW242588   1.918   7.099   1.285 -0.4740  1.1572  0.0488
14004SOL     OW42589   0.578   8.087   3.497 -0.3629 -0.1609  0.1533
14004SOL    HW142590   0.485   8.077   3.477 -0.7170  4.2761 -1.5157
14004SOL    HW242591   0.580   8.141   3.576  0.7588  0.3989 -0.2322
14005SOL     OW42592   2.121   9.323   8.000 -0.3448 -0.3596  0.2626
14005SOL    HW142593   2.128   9.235   7.963  0.0072  0.2787 -1.3131
14005SOL    HW242594   2.028   9.334   8.019 -0.3199 -1.2450  0.9816
14006SOL     OW42595   2.991   1.609   2.753  0.1039 -0.5194  0.4509
14006SOL    HW142596   2.911   1.651   2.783  0.6287  0.7632  0.1274
14006SOL    HW242597   2.965   1.560   2.676 -0.0995  1.2496 -0.6630
14007SOL     OW42598   1.860   8.293   4.297 -0.0274  0.9212 -0.7723
14007SOL    HW142599   1.865   8.246   4.380 -0.5518 -1.0793 -1.8081
14007SOL    HW242600   1.783   8.349   4.306 -1.0638 -0.4845 -0.4407
14008SOL     OW42601   8.756   1.501   1.220 -0.4533  0.3393  0.1699
14008SOL    HW142602   8.730   1.411   1.241  0.5681  0.0330  0.1831
14008SOL    HW242603   8.834   1.516   1.273 -0.4390  1.1330 -0.0623
14009SOL     OW42604   5.743   3.799   6.944  0.0271 -0.2946  0.0690
14009SOL    HW142605   5.753   3.800   6.849 -0.9606 -1.3227 -0.0746
14009SOL    HW242606   5.710   3.711   6.964 -1.4292  0.4428  1.1625
14010SOL     OW42607   1.668   6.719   9.744  0.2222  0.1685 -0.3905
14010SOL    HW142608   1.684   6.762   9.828 -1.6935  0.4423 -0.1214
14010SOL    HW242609   1.718   6.638   9.750 -0.3162 -0.0976  1.2865
14011SOL     OW42610   8.858   6.868   7.963 -0.1126 -0.1011  0.5886
14011SOL    HW142611   8.869   6.854   7.868 -2.9284 -0.0397  0.1797
14011SOL    HW242612   8.873   6.962   7.975  2.3873 -0.4237  0.6434
14012SOL     OW42613   0.565   3.344   9.840 -0.1126 -0.1916 -0.6906
14012SOL    HW142614   0.585   3.353   9.933  0.2120 -2.2126 -0.5267
14012SOL    HW242615   0.633   3.287   9.806 -1.1208 -0.7665 -1.8304
14013SOL     OW42616   9.708   9.044   0.083 -0.1300  0.1744 -0.2594
14013SOL    HW142617   9.623   9.021   0.046 -0.8666  0.3014  1.2798
14013SOL    HW242618   9.735   8.966   0.133 -0.3437  0.8428  0.9510
14014SOL     OW42619   1.119   7.029   3.376  0.5548 -0.2413  0.7105
14014SOL    HW142620   1.201   7.076   3.382 -0.1457  1.4426 -1.5386
14014SOL    HW242621   1.144   6.937   3.379  2.3296  0.2246  1.6231
14015SOL     OW42622   7.864   7.599   1.180 -0.4718 -0.6682 -0.5952
14015SOL    HW142623   7.796   7.532   1.190 -0.5769 -0.5549 -0.5500
14015SOL    HW242624   7.825   7.664   1.121 -1.5675  0.9349  1.7373
14016SOL     OW42625   4.304   4.427   5.542  0.0121  0.3938  0.3928
14016SOL    HW142626   4.236   4.419   5.609  0.3032  0.1624  0.6622
14016SOL    HW242627   4.383   4.448   5.591  0.1218  0.7540  0.0723
14017SOL     OW42628   3.920   4.135   0.467 -0.3101  1.1219  0.3689
14017SOL    HW142629   3.938   4.195   0.540 -0.4867  1.0596  0.4651
14017SOL    HW242630   3.880   4.059   0.508  2.5353 -0.3597  0.6439
14018SOL     OW42631   3.457   1.819   9.192  0.1338  0.2487  0.4319
14018SOL    HW142632   3.474   1.897   9.140 -0.3190  0.3915  0.4849
14018SOL    HW242633   3.394   1.848   9.258  1.9607  0.5115  2.1578
14019SOL     OW42634   6.744   7.748   0.332 -0.5937  0.1362  0.2401
14019SOL    HW142635   6.803   7.742   0.408 -0.3537 -1.4377 -0.0386
14019SOL    HW242636   6.792   7.705   0.261 -0.9789  1.2451 -0.7296
14020SOL     OW42637   1.276   1.261   2.817  0.1739 -0.1024  0.0692
14020SOL    HW142638   1.335   1.335   2.827  0.7364 -0.3860 -0.9794
14020SOL    HW242639   1.327   1.185   2.844  0.1894 -0.3133 -0.5458
14021SOL     OW42640   6.331   9.654   7.360  0.1444 -0.0195  0.4025
14021SOL    HW142641   6.319   9.566   7.396 -2.4048  0.3506  0.6417
14021SOL    HW242642   6.255   9.667   7.303  2.5085  0.5598 -2.8577
14022SOL     OW42643   3.250   5.798   5.102 -0.1060 -0.1010 -0.3401
14022SOL    HW142644   3.292   5.736   5.161 -0.5335  0.9389  1.1274
14022SOL    HW242645   3.322   5.834   5.050  0.6618  0.5425  1.0874
14023SOL     OW42646   2.133   1.887   8.267  0.2188  0.1222 -0.7296
14023SOL    HW142647   2.228   1.904   8.267  0.3546 -0.6058 -0.5365
14023SOL    HW242648   2.101   1.932   8.345  0.5560 -0.3627 -0.2950
14024SOL     OW42649   3.428   0.364   5.543  0.0805 -0.4662 -0.4823
14024SOL    HW142650   3.408   0.353   5.450  0.8578 -1.8786 -0.5154
14024SOL    HW242651   3.489   0.293   5.563 -2.1704 -1.9811  1.7551
14025SOL     OW42652   1.765   8.493   9.080 -0.4624  0.0195 -0.1362
14025SOL    HW142653   1.837   8.435   9.057 -0.8647 -0.8325  0.6566
14025SOL    HW242654   1.794   8.580   9.053  1.7362  0.0449  1.9516
14026SOL     OW42655   8.842   5.049   5.743  0.1519 -0.4084  0.6027
14026SOL    HW142656   8.839   5.048   5.838 -1.1968  1.1400  0.6193
14026SOL    HW242657   8.833   5.141   5.719  0.2947 -0.7815 -1.0327
14027SOL     OW42658   6.605   8.257   4.673 -0.2147  0.0467 -0.0970
14027SOL    HW142659   6.574   8.347   4.678  3.5972  1.6129 -1.0115
14027SOL    HW242660   6.606   8.237   4.579  1.5884  0.2052 -0.1543
14028SOL     OW42661   5.966   2.510   1.074  0.2057  0.1840 -0.8412
14028SOL    HW142662   5.967   2.600   1.040  1.3898  0.9375  1.0239
14028SOL    HW242663   6.024   2.462   1.016  0.7111  0.9885 -1.0295
14029SOL     OW42664   0.394   0.850   7.895 -1.1996 -0.0250 -0.3157
14029SOL    HW142665   0.449   0.775   7.870 -2.8663 -0.9458 -1.3773
14029SOL    HW242666   0.450   0.901   7.954  0.6984 -1.0277 -1.1402
14030SOL     OW42667   6.558   5.134   3.036 -0.1156  0.2855  0.3114
14030SOL    HW142668   6.580   5.059   2.980 -0.1919  0.6130 -0.1595
14030SOL    HW242669   6.463   5.141   3.030  0.0350  1.4591 -0.9924
14031SOL     OW42670   0.146   6.405   7.897  0.2500 -0.2533 -0.1136
14031SOL    HW142671   0.193   6.488   7.885 -2.6528  1.2268 -2.8475
14031SOL    HW242672   0.102   6.415   7.981  0.1165  0.9345 -0.3022
14032SOL     OW42673   6.119   6.848   6.561 -0.0912  0.1620  0.3365
14032SOL    HW142674   6.097   6.912   6.493  0.5831 -1.4001 -1.4672
14032SOL    HW242675   6.049   6.782   6.555  1.1456 -1.1390 -0.4593
14033SOL     OW42676   9.899   0.289   3.231 -0.1469  0.0379 -0.1435
14033SOL    HW142677   9.880   0.196   3.217 -0.4212  0.4395 -2.7823
14033SOL    HW242678   9.814   0.332   3.224 -0.3380  0.4201  2.8907
14034SOL     OW42679   8.621   2.237   1.916  0.1168  1.1359  0.6843
14034SOL    HW142680   8.714   2.216   1.911 -0.1385 -0.5124  2.1882
14034SOL    HW242681   8.614   2.296   1.991 -0.1436  0.5779  1.1067
14035SOL     OW42682   5.037   4.063   5.463 -0.6273 -0.1284  0.5386
14035SOL    HW142683   5.127   4.039   5.439 -0.7249  0.0011  0.0273
14035SOL    HW242684   5.046   4.112   5.544 -0.4830 -2.5718  2.1185
14036SOL     OW42685   0.937   4.201   2.354 -1.0381  0.1940 -0.5980
14036SOL    HW142686   1.002   4.224   2.287 -1.9919  3.6298 -0.5134
14036SOL    HW242687   0.989   4.180   2.431  0.0045 -1.2781 -1.6294
14037SOL     OW42688   8.326   2.958   3.167  0.1638 -0.2148 -0.2662
14037SOL    HW142689   8.418   2.946   3.190  0.0762  0.1929  0.3118
14037SOL    HW242690   8.306   3.048   3.193 -0.2517 -0.1173 -0.8929
14038SOL     OW42691   1.216   3.616   9.383  0.0412 -0.4560 -0.2835
14038SOL    HW142692   1.225   3.660   9.468 -0.5843 -1.8504  0.5317
14038SOL    HW242693   1.243   3.526   9.399  0.1791 -0.6837 -1.6467
14039SOL     OW42694   8.629   8.440   9.356  0.1759 -0.3498 -0.1555
14039SOL    HW142695   8.628   8.519   9.302  1.1115 -1.0077 -1.1795
14039SOL    HW242696   8.608   8.471   9.444  0.8008  1.0800 -0.4831
14040SOL     OW42697   8.574   7.417   4.088 -0.4514 -0.5262 -0.4360
14040SOL    HW142698   8.534   7.330   4.093 -0.3536 -0.5194  1.6305
14040SOL    HW242699   8.648   7.413   4.148 -0.0243  0.7788 -0.8399
14041SOL     OW42700   1.007   6.308   6.212  0.4445 -0.0089 -0.1664
14041SOL    HW142701   1.072   6.240   6.232  0.8214  0.7718  1.4599
14041SOL    HW242702   1.042   6.353   6.135  1.8218  0.3098  0.5982
14042SOL     OW42703   4.380   3.864   7.856  0.6931 -0.0875 -0.1677
14042SOL    HW142704   4.427   3.783   7.873 -0.7287 -0.5785  1.7930
14042SOL    HW242705   4.436   3.932   7.894 -0.7069 -0.8143  3.6280
14043SOL     OW42706   5.362   6.979   3.751 -0.2992 -0.0124 -0.4253
14043SOL    HW142707   5.323   6.950   3.834  0.3691  0.2099 -0.0246
14043SOL    HW242708   5.339   7.071   3.744 -0.1628  0.0245 -0.3789
14044SOL     OW42709   7.653   4.870   4.452  0.1019 -0.2749  0.0289
14044SOL    HW142710   7.640   4.941   4.515 -1.2662 -1.8319  1.6405
14044SOL    HW242711   7.573   4.869   4.400  0.1144 -0.6186  0.0133
14045SOL     OW42712   4.716   1.174   5.292  0.0414  0.0575  0.4291
14045SOL    HW142713   4.677   1.161   5.379 -1.2937  0.9636 -0.0087
14045SOL    HW242714   4.742   1.087   5.264 -0.5331 -0.4000  1.2784
14046SOL     OW42715   9.778   8.154   9.564 -0.3338  0.6412  0.5616
14046SOL    HW142716   9.823   8.071   9.553 -1.0832  0.4167 -1.1083
14046SOL    HW242717   9.719   8.141   9.638 -0.4744 -0.3399  0.2810
14047SOL     OW42718   1.679   4.834   2.912  0.3537  0.2515 -0.6708
14047SOL    HW142719   1.761   4.835   2.961 -0.0254 -0.4915  0.0093
14047SOL    HW242720   1.683   4.911   2.856 -0.0442  2.2920  1.9326
14048SOL     OW42721   4.955   6.053   1.058 -0.0724 -0.3597 -0.4225
14048SOL    HW142722   5.011   5.999   1.003 -0.0733 -0.0057 -0.7722
14048SOL    HW242723   5.013   6.121   1.092 -0.1242 -0.4349 -0.1821
14049SOL     OW42724   9.332   1.794   7.460  0.1047 -0.1593  0.2114
14049SOL    HW142725   9.301   1.858   7.397  1.1242 -0.6915 -0.8824
14049SOL    HW242726   9.417   1.827   7.489 -0.3666  0.0994  1.3652
14050SOL     OW42727   2.223   3.275   1.541  0.6971  0.5728  0.0485
14050SOL    HW142728   2.298   3.228   1.504  0.6268  0.2282  0.3377
14050SOL    HW242729   2.188   3.325   1.468 -1.4089 -2.5410 -1.3085
14051SOL     OW42730   7.826   8.708   9.039 -0.1612 -0.1082 -0.1089
14051SOL    HW142731   7.808   8.658   9.119  0.6678 -0.5669 -0.1982
14051SOL    HW242732   7.845   8.797   9.071  2.3857 -0.7609  0.4818
14052SOL     OW42733   5.039   8.847   2.686  0.3679 -0.0829 -0.3204
14052SOL    HW142734   5.053   8.893   2.603 -2.8360 -1.3533 -1.7594
14052SOL    HW242735   5.005   8.915   2.745  0.4505  0.3951 -0.8111
14053SOL     OW42736   4.238   0.567   3.714 -0.1747 -0.0180  0.2571
14053SOL    HW142737   4.325   0.551   3.749 -0.1941 -0.5298  0.0778
14053SOL    HW242738   4.186   0.492   3.742 -0.4943  0.1579  0.1507
14054SOL     OW42739   6.566   0.303   4.762 -0.6617  0.0482  0.1500
14054SOL    HW142740   6.607   0.232   4.812 -0.8257 -0.0806  0.1070
14054SOL    HW242741   6.534   0.260   4.683 -1.5840 -0.0211  0.5438
14055SOL     OW42742   3.112   6.667   9.479  0.4886 -0.4785 -0.1101
14055SOL    HW142743   3.055   6.742   9.493  1.4896  0.6739 -1.8681
14055SOL    HW242744   3.054   6.599   9.444 -0.1709 -0.0688  0.1687
14056SOL     OW42745   8.173   7.150   9.878  0.4384 -0.2981 -0.6636
14056SOL    HW142746   8.153   7.187   9.792  1.1273 -1.0327 -1.1438
14056SOL    HW242747   8.221   7.220   9.923 -1.1529  0.6378 -0.3140
14057SOL     OW42748   9.513   7.623   7.125 -0.0171  0.1979 -0.1849
14057SOL    HW142749   9.515   7.697   7.064  1.1635 -0.2469 -0.7209
14057SOL    HW242750   9.522   7.663   7.211 -1.5310  0.8253 -0.2860
14058SOL     OW42751   7.949   5.731   9.921  0.2912  0.9194 -0.2925
14058SOL    HW142752   7.892   5.744   9.846  0.9396  1.3465 -0.7260
14058SOL    HW242753   8.027   5.689   9.884  0.2830  0.3859  0.2780
14059SOL     OW42754   8.290   8.614   5.010 -0.6024 -0.5680  0.2480
14059SOL    HW142755   8.214   8.580   4.963 -1.4118  2.3369 -0.7348
14059SOL    HW242756   8.352   8.639   4.941 -0.1195  0.0688  0.8950
14060SOL     OW42757   2.896   4.769   9.731 -0.9591  0.1701  0.0393
14060SOL    HW142758   2.892   4.689   9.678 -0.3547  0.7915 -0.9762
14060SOL    HW242759   2.896   4.840   9.667 -0.9221  0.9677  0.9101
14061SOL     OW42760   5.026   8.459   2.294  0.1447 -0.3257  0.2775
14061SOL    HW142761   5.031   8.512   2.373 -0.4647 -0.1799  0.2238
14061SOL    HW242762   4.935   8.467   2.266  0.5239  0.2335 -0.8577
14062SOL     OW42763   6.319   4.821   0.889  0.0849  0.1903 -0.0117
14062SOL    HW142764   6.397   4.876   0.885 -0.2304  0.5979 -1.1399
14062SOL    HW242765   6.246   4.883   0.896 -0.1330 -0.2042  1.6593
14063SOL     OW42766   4.037   7.513   9.185 -0.4492  0.2328 -0.9133
14063SOL    HW142767   3.996   7.438   9.142 -0.3892 -0.9354  0.9499
14063SOL    HW242768   3.983   7.530   9.262  0.9825  0.4287  0.0991
14064SOL     OW42769   2.116   2.437   7.092  0.2157  0.0770 -0.1828
14064SOL    HW142770   2.046   2.486   7.135  0.0125  0.6684 -1.1765
14064SOL    HW242771   2.197   2.477   7.125  0.0948 -0.3103  0.6137
14065SOL     OW42772   0.654   1.047   1.935 -0.3790  0.0469 -0.0941
14065SOL    HW142773   0.736   1.019   1.895  0.4345  0.1025  1.4280
14065SOL    HW242774   0.590   0.980   1.911  0.5697 -0.9937  0.2082
14066SOL     OW42775   1.164   6.406   2.804  0.2172  0.1128  0.1932
14066SOL    HW142776   1.198   6.466   2.737 -0.0696  1.1423  0.9498
14066SOL    HW242777   1.128   6.333   2.754  0.6194  0.5416 -0.7520
14067SOL     OW42778   0.153  -0.020   5.845 -0.5165 -0.7305  0.2697
14067SOL    HW142779   0.082  -0.019   5.780  0.2394 -0.6715 -0.5749
14067SOL    HW242780   0.140   0.061   5.895 -0.8837 -0.5813 -0.0545
14068SOL     OW42781   3.335   9.970   5.762 -0.3163  0.0228 -0.2542
14068SOL    HW142782   3.370   9.936   5.679 -0.2732 -0.1990 -0.1440
14068SOL    HW242783   3.249   9.929   5.771 -0.7638  0.8422 -0.7020
14069SOL     OW42784   8.131   3.018   6.951 -0.4365  0.1723  0.5078
14069SOL    HW142785   8.175   3.014   7.035 -0.1668 -0.0804  0.3579
14069SOL    HW242786   8.113   3.111   6.937  1.8043  0.5524 -0.3291
14070SOL     OW42787   8.896   4.816   7.529  0.6690 -0.1694  0.6881
14070SOL    HW142788   8.932   4.904   7.535 -1.2162  0.6100  1.5658
14070SOL    HW242789   8.909   4.778   7.615  0.6945 -0.4079  0.5798
14071SOL     OW42790   7.581   5.345   9.308  0.1994  0.1619  0.0420
14071SOL    HW142791   7.640   5.350   9.234  0.9504 -0.0304  0.6147
14071SOL    HW242792   7.495   5.328   9.270  0.4908  0.5695 -0.8069
14072SOL     OW42793   8.594   9.000   0.776 -0.0529  0.2191 -0.2707
14072SOL    HW142794   8.594   8.918   0.727 -1.2238  0.2485 -0.3359
14072SOL    HW242795   8.543   9.061   0.722 -1.4277  0.2329  0.9715
14073SOL     OW42796   3.844   3.050   8.472 -0.2013  0.4823  0.1015
14073SOL    HW142797   3.832   3.069   8.378 -0.8238  1.7081  0.4001
14073SOL    HW242798   3.758   3.068   8.510  0.1927  0.5116  0.9884
14074SOL     OW42799   4.164   8.708   1.466 -0.9430  0.6359 -0.4354
14074SOL    HW142800   4.251   8.689   1.430 -1.4382 -2.6268 -0.2121
14074SOL    HW242801   4.176   8.787   1.519  1.7351  0.5973 -0.8723
14075SOL     OW42802   2.159   4.687   4.829  0.7072 -0.5159  0.3706
14075SOL    HW142803   2.138   4.735   4.749 -1.8657 -0.8096  0.7740
14075SOL    HW242804   2.190   4.754   4.890  1.8967 -0.1704 -0.5842
14076SOL     OW42805   1.566   8.759   6.406 -0.3440  0.3550 -0.3120
14076SOL    HW142806   1.607   8.804   6.334  1.3848 -0.0034  0.4030
14076SOL    HW242807   1.615   8.786   6.484  0.2919 -2.1165  0.2336
14077SOL     OW42808   4.486   8.436   6.626 -0.1849  0.2719  0.4277
14077SOL    HW142809   4.446   8.510   6.580 -1.3335 -1.0583 -0.8422
14077SOL    HW242810   4.549   8.400   6.564 -1.8258 -1.6155 -0.2629
14078SOL     OW42811   8.945   7.485   3.830  0.2048  0.2173 -0.6402
14078SOL    HW142812   9.001   7.461   3.904 -2.2023 -2.4124  0.5048
14078SOL    HW242813   8.981   7.437   3.756  1.3654  1.2055 -0.7602
14079SOL     OW42814   7.896   4.841   1.608 -0.3277  1.0364 -0.0074
14079SOL    HW142815   7.898   4.759   1.657  1.9538  0.3023 -1.1994
14079SOL    HW242816   7.845   4.820   1.529 -1.2840  1.3167  0.5176
14080SOL     OW42817   5.318   1.497   8.860 -0.6224  0.0446  0.2629
14080SOL    HW142818   5.401   1.468   8.896 -0.0719  0.7472 -0.4074
14080SOL    HW242819   5.266   1.416   8.852 -0.5883 -0.2022  2.0937
14081SOL     OW42820   0.153   5.398   8.817 -0.3391  0.0170 -0.8154
14081SOL    HW142821   0.215   5.466   8.845  0.6236 -0.2660 -2.1563
14081SOL    HW242822   0.186   5.318   8.857 -0.1844 -0.0291 -1.0327
14082SOL     OW42823   8.058   8.841   5.065  0.1286 -0.0833  0.1100
14082SOL    HW142824   7.989   8.791   5.108  1.2558  0.2616  2.4658
14082SOL    HW242825   8.136   8.785   5.071  0.8204  0.8818  0.5160
14083SOL     OW42826   8.637   6.012   9.216 -0.0337  0.3167 -0.7594
14083SOL    HW142827   8.717   6.063   9.231  0.0267  0.3541 -1.1894
14083SOL    HW242828   8.627   5.959   9.294 -0.3845  1.3718 -0.0617
14084SOL     OW42829   5.904   3.632   2.977 -0.1586  0.0446 -0.6076
14084SOL    HW142830   5.951   3.673   2.904 -1.1225 -1.6443 -2.2819
14084SOL    HW242831   5.965   3.567   3.011  0.3841  1.0017  0.2940
14085SOL     OW42832   8.544   8.409   2.323 -0.5138  0.6847 -0.0773
14085SOL    HW142833   8.551   8.330   2.376 -2.0419  0.6660  0.1373
14085SOL    HW242834   8.635   8.439   2.313 -0.0426 -0.2654  1.0766
14086SOL     OW42835   7.819   9.006   4.866  0.3923  0.1331  0.0354
14086SOL    HW142836   7.880   9.077   4.842 -0.4183  1.1976  0.9930
14086SOL    HW242837   7.817   9.008   4.962 -1.7140  0.6726  0.0366
14087SOL     OW42838   8.639   9.721   0.480  0.4533  0.1928  0.0378
14087SOL    HW142839   8.692   9.675   0.545  1.4066 -1.4810 -1.8000
14087SOL    HW242840   8.572   9.657   0.455 -0.1313  0.9485 -0.3589
14088SOL     OW42841   7.583   8.594   8.951 -0.1779 -0.4405 -0.2196
14088SOL    HW142842   7.664   8.643   8.968 -0.9343  0.3492  1.2982
14088SOL    HW242843   7.514   8.659   8.956 -1.1966 -1.5586  1.6743
14089SOL     OW42844   8.397   1.965   2.940  0.3127  0.3742 -0.6755
14089SOL    HW142845   8.432   2.025   3.006 -0.4769  1.1175 -0.9237
14089SOL    HW242846   8.475   1.927   2.899  0.9295 -2.0724  2.3408
14090SOL     OW42847   3.814   2.600   4.918 -0.3915  0.0297 -0.0450
14090SOL    HW142848   3.731   2.594   4.966 -1.1611 -1.3577 -1.4781
14090SOL    HW242849   3.875   2.549   4.970 -1.5107 -2.4651 -1.0134
14091SOL     OW42850   6.500   7.826   6.863 -0.0053 -0.0353 -0.0822
14091SOL    HW142851   6.430   7.893   6.860  1.4411  1.5703  0.2475
14091SOL    HW242852   6.495   7.791   6.952 -1.1474 -0.8192 -0.4333
14092SOL     OW42853   7.783   9.926   9.850  0.1610 -0.3174  0.1566
14092SOL    HW142854   7.830  10.007   9.831  0.9203 -0.5787  0.8676
14092SOL    HW242855   7.752   9.937   9.940  1.3904 -1.3151  0.7390
14093SOL     OW42856   6.457   5.452   5.802 -0.1747 -0.1366  0.3150
14093SOL    HW142857   6.473   5.493   5.887 -0.4303 -0.5884  0.5886
14093SOL    HW242858   6.374   5.405   5.814 -0.2852 -0.0861 -0.2291
14094SOL     OW42859   4.629   0.482   9.329 -0.4322  0.5069  0.5891
14094SOL    HW142860   4.698   0.420   9.352 -1.2984 -0.5485  0.4382
14094SOL    HW242861   4.673   0.550   9.278  0.5461  0.0140  0.7658
14095SOL     OW42862   4.778   8.343   4.775 -0.1522 -0.2248  0.6818
14095SOL    HW142863   4.686   8.332   4.752  0.2389 -0.3515 -0.9162
14095SOL    HW242864   4.783   8.314   4.867 -1.8760  0.8026  1.1356
14096SOL     OW42865   6.951   3.167   7.972 -0.4376 -0.0187  0.2658
14096SOL    HW142866   6.977   3.248   7.927  1.9624 -0.5130  0.6393
14096SOL    HW242867   7.015   3.157   8.042 -0.9549 -2.0132  0.5070
14097SOL     OW42868   6.316   6.487   0.800 -0.2460  0.2204 -0.2341
14097SOL    HW142869   6.318   6.392   0.815 -0.0039  0.5007  1.7091
14097SOL    HW242870   6.231   6.515   0.831 -1.2430  0.3998 -2.8503
14098SOL     OW42871   5.124   8.089   0.121 -0.3258  0.6940 -0.7547
14098SOL    HW142872   5.211   8.123   0.138  0.1141 -1.0961  0.8194
14098SOL    HW242873   5.065   8.150   0.165  0.2674  0.8501 -0.1680
14099SOL     OW42874   9.984   6.575   5.947  0.2255 -0.3503 -0.1260
14099SOL    HW142875  10.004   6.582   5.854 -1.3642  0.0777 -0.4515
14099SOL    HW242876   9.904   6.626   5.959 -0.8544 -2.1957  1.0510
14100SOL     OW42877   4.124   2.565   0.164 -0.2121  0.5781  0.2803
14100SOL    HW142878   4.135   2.476   0.131 -1.0636 -0.4844  2.6530
14100SOL    HW242879   4.060   2.605   0.105 -1.9127 -1.3230  0.7735
14101SOL     OW42880   6.049   4.685   4.261 -0.0338  0.0609 -0.1512
14101SOL    HW142881   6.037   4.601   4.217 -0.4333 -0.4217  0.8291
14101SOL    HW242882   5.972   4.737   4.236 -0.2680 -0.2157 -0.0167
14102SOL     OW42883   3.404   4.985   3.017  0.3472 -0.2620 -0.1069
14102SOL    HW142884   3.412   5.080   3.013  0.0556 -0.2664 -1.1504
14102SOL    HW242885   3.362   4.968   3.101  1.5371  0.4383  0.6656
14103SOL     OW42886   9.590   2.774   4.455 -0.5008  0.3573  0.1923
14103SOL    HW142887   9.670   2.818   4.485  0.7072 -0.0305 -2.1637
14103SOL    HW242888   9.588   2.791   4.361 -2.8008 -0.3313  0.0589
14104SOL     OW42889   8.693   1.474   2.397  0.0001  0.2526  0.5480
14104SOL    HW142890   8.616   1.440   2.442 -0.4222 -1.6811 -1.4640
14104SOL    HW242891   8.658   1.517   2.319  0.8742  0.6131  0.3450
14105SOL     OW42892   0.934   0.496   3.939  0.1135 -0.0719 -0.2700
14105SOL    HW142893   0.938   0.531   4.027 -0.1287 -0.9344  0.1028
14105SOL    HW242894   0.850   0.448   3.936  0.7592 -1.2391 -0.4892
14106SOL     OW42895   1.122   6.686   4.346  0.4302  0.1446  0.8203
14106SOL    HW142896   1.044   6.738   4.323 -0.2408 -1.5474 -1.0106
14106SOL    HW242897   1.184   6.704   4.276  0.3066 -1.2187  0.3303
14107SOL     OW42898   2.395   1.444   2.979  0.1892 -0.2341 -0.4809
14107SOL    HW142899   2.406   1.402   3.064 -0.3468  0.2841 -0.1491
14107SOL    HW242900   2.305   1.422   2.954 -0.2760  1.1363 -0.0655
14108SOL     OW42901   4.200   9.418   8.943 -0.7412 -0.4665 -0.4976
14108SOL    HW142902   4.236   9.362   9.012 -0.3374  0.9855  0.5030
14108SOL    HW242903   4.105   9.414   8.957 -0.6351  0.2589  0.5155
14109SOL     OW42904   2.673   5.095   2.424 -0.7105 -0.4815  0.2056
14109SOL    HW142905   2.699   5.186   2.440  0.6543 -0.8808  0.4398
14109SOL    HW242906   2.739   5.043   2.470 -1.9301 -1.6004  0.7841
14110SOL     OW42907   5.888   2.097   3.994  0.0794  0.6205  0.2599
14110SOL    HW142908   5.904   2.005   4.015  0.2303  0.2732 -1.2513
14110SOL    HW242909   5.879   2.140   4.079 -0.3049 -0.8395  0.9859
14111SOL     OW42910   1.286   2.689   1.643 -0.1601  0.5256 -0.8658
14111SOL    HW142911   1.229   2.617   1.619 -1.9206  1.3194  0.6857
14111SOL    HW242912   1.317   2.668   1.731  1.6744  0.3257 -1.4984
14112SOL     OW42913   8.115   4.422   9.073  0.3657 -0.7505 -0.1607
14112SOL    HW142914   8.184   4.413   9.138 -0.5637 -0.3306  0.9237
14112SOL    HW242915   8.034   4.401   9.120 -0.3409 -0.3261 -1.1412
14113SOL     OW42916   4.996   9.187   9.871 -0.2190  0.4709 -0.1215
14113SOL    HW142917   4.932   9.232   9.815 -1.5356  2.5128  2.7577
14113SOL    HW242918   5.058   9.256   9.895  0.5793 -0.4695  0.5530
14114SOL     OW42919   7.523   5.038   2.292 -0.2104  0.0501 -0.0354
14114SOL    HW142920   7.614   5.056   2.270 -0.0911 -0.3020  0.1535
14114SOL    HW242921   7.479   5.030   2.208 -0.4109  1.8260 -0.1372
14115SOL     OW42922   3.912   3.321   0.348  0.3775 -0.0791  0.1105
14115SOL    HW142923   3.960   3.252   0.393  2.5963  1.2353 -0.1128
14115SOL    HW242924   3.971   3.350   0.278  0.8345  3.9108  1.8770
14116SOL     OW42925   2.776   5.851   2.995 -0.0253 -0.1500  0.3086
14116SOL    HW142926   2.681   5.855   3.008  0.1278 -0.6131  1.7437
14116SOL    HW242927   2.809   5.809   3.075  1.3876 -0.0107 -0.1836
14117SOL     OW42928   8.470   8.666   2.116 -0.5287  0.0950  0.2345
14117SOL    HW142929   8.558   8.631   2.129  0.1387  1.2772 -0.8291
14117SOL    HW242930   8.414   8.589   2.107  0.3853 -0.6752  0.9492
14118SOL     OW42931   5.981   7.208   9.138  0.0718  0.4500  0.7866
14118SOL    HW142932   6.001   7.302   9.146 -0.8920  0.5237  3.6606
14118SOL    HW242933   6.067   7.166   9.139  0.4826  1.2574  0.4684
14119SOL     OW42934   9.123   3.263   0.931  0.1233  0.0043 -0.7906
14119SOL    HW142935   9.180   3.321   0.882  1.7038  0.5569  1.5346
14119SOL    HW242936   9.101   3.311   1.011  0.2905 -1.9786  0.5476
14120SOL     OW42937   6.463   2.881   0.274  0.1271 -0.9256  0.0266
14120SOL    HW142938   6.399   2.941   0.314 -0.7200  0.3144 -2.9258
14120SOL    HW242939   6.542   2.933   0.265  0.8492 -1.7095  1.4311
14121SOL     OW42940   3.672   4.467   9.618  0.2935 -0.5818 -0.4563
14121SOL    HW142941   3.627   4.387   9.589 -0.4130 -0.7120  0.8944
14121SOL    HW242942   3.672   4.460   9.714  0.1832  1.0517 -0.3180
14122SOL     OW42943   3.978   2.905   7.044  0.1140 -0.0878 -0.1790
14122SOL    HW142944   3.946   2.948   7.123  1.6163 -1.4083  1.2354
14122SOL    HW242945   3.926   2.824   7.039 -0.5497  0.3830 -1.0351
14123SOL     OW42946   8.331   8.959   6.284  0.9422 -0.6210  0.6727
14123SOL    HW142947   8.289   8.908   6.353 -0.2555 -1.8099 -0.8687
14123SOL    HW242948   8.316   9.050   6.310 -2.0502 -0.9868  0.5941
14124SOL     OW42949   8.377   1.789   7.535  0.3704  0.0769  0.0315
14124SOL    HW142950   8.447   1.831   7.586 -0.1923 -0.3604  1.2178
14124SOL    HW242951   8.296   1.814   7.581 -0.0494 -1.5009  0.2067
14125SOL     OW42952   8.864   6.886   8.254  0.0555  0.2970 -0.0446
14125SOL    HW142953   8.891   6.811   8.200 -1.1915 -1.1006  1.1838
14125SOL    HW242954   8.771   6.897   8.233 -1.0231 -1.5349  3.0722
14126SOL     OW42955   3.001   3.690   7.222  0.3046  1.2137 -0.6315
14126SOL    HW142956   3.018   3.768   7.275 -2.0701  2.1525 -1.1131
14126SOL    HW242957   2.933   3.643   7.270  1.6280 -0.5577 -0.4110
14127SOL     OW42958   9.873   7.230   4.210 -0.1632  0.4836 -0.2845
14127SOL    HW142959   9.885   7.212   4.303  2.2883 -0.2073 -0.6426
14127SOL    HW242960   9.850   7.145   4.172  0.1226  0.4777 -0.4526
14128SOL     OW42961   9.942   3.146   9.906 -0.3517  0.2303  0.2600
14128SOL    HW142962  10.019   3.170   9.957 -0.8510 -2.1120  2.3103
14128SOL    HW242963   9.976   3.100   9.829  0.3962 -1.8105  1.7138
14129SOL     OW42964   2.261   0.308   5.936  0.3031 -0.1523 -0.7008
14129SOL    HW142965   2.176   0.340   5.904 -0.1623 -2.1452 -1.6422
14129SOL    HW242966   2.326   0.353   5.882 -0.2178  0.5031 -0.7966
14130SOL     OW42967   5.277   2.361   5.637  0.0167  0.6561  0.1095
14130SOL    HW142968   5.318   2.343   5.722  1.3716  1.7905 -0.2505
14130SOL    HW242969   5.324   2.304   5.576 -0.2714  0.5733 -0.0370
14131SOL     OW42970   6.865   7.276   8.431 -0.0194 -0.4106 -0.3327
14131SOL    HW142971   6.775   7.265   8.401 -0.6645 -1.9641  1.8974
14131SOL    HW242972   6.915   7.209   8.384  0.1691  0.8779 -2.0617
14132SOL     OW42973   7.425   5.319   3.380 -0.0171 -0.3920  0.1149
14132SOL    HW142974   7.462   5.406   3.400 -2.4295  1.0508 -1.2447
14132SOL    HW242975   7.361   5.304   3.450 -1.5111  0.2099 -1.0723
14133SOL     OW42976   3.722   1.501   3.672  0.2780  0.8306  0.0519
14133SOL    HW142977   3.743   1.411   3.648 -0.5616  0.4872  0.5653
14133SOL    HW242978   3.798   1.552   3.642  0.6609 -0.0057 -0.4472
14134SOL     OW42979   7.646   2.376   5.170 -0.4397  0.3822 -0.1218
14134SOL    HW142980   7.599   2.445   5.124  0.6673  1.6571  0.5899
14134SOL    HW242981   7.719   2.353   5.112 -1.6601 -1.3505 -1.0700
14135SOL     OW42982   6.743   0.253   9.390  0.2989 -0.0276 -0.9011
14135SOL    HW142983   6.807   0.246   9.460 -0.1837 -1.1261 -0.5533
14135SOL    HW242984   6.785   0.213   9.314  0.3817  0.1181 -0.9331
14136SOL     OW42985   0.004   5.460   2.469  0.3559 -0.3146  0.7500
14136SOL    HW142986   0.056   5.476   2.548  0.5467  1.1904  0.3412
14136SOL    HW242987  -0.049   5.539   2.459  1.6124  0.3035 -1.6130
14137SOL     OW42988   0.706   8.195   4.677  0.3531  0.5923  0.0266
14137SOL    HW142989   0.730   8.251   4.751 -0.7048  0.8009  0.2273
14137SOL    HW242990   0.656   8.124   4.717  0.0272  0.5505 -0.4573
14138SOL     OW42991   6.209   1.706   4.422 -0.1521 -0.5107  0.1071
14138SOL    HW142992   6.220   1.612   4.439  0.8570 -0.4810 -0.3391
14138SOL    HW242993   6.121   1.713   4.384 -1.0853 -0.9985  2.0639
14139SOL     OW42994   8.884   4.109   4.810 -0.1492  0.3481 -0.1398
14139SOL    HW142995   8.978   4.097   4.816  0.1341  0.4593 -2.9057
14139SOL    HW242996   8.872   4.203   4.798 -0.4320  0.1593 -1.5049
14140SOL     OW42997   2.089   8.895   9.089 -0.1139  0.2729 -0.1483
14140SOL    HW142998   2.049   8.809   9.081 -0.6275  0.3528  1.2655
14140SOL    HW242999   2.182   8.878   9.106 -0.5066 -0.1027  1.9254
14141SOL     OW43000   0.983   0.471   6.903 -0.2423  0.1639  0.1798
14141SOL    HW143001   0.951   0.557   6.930 -1.8367 -0.5159  0.5903
14141SOL    HW243002   0.984   0.420   6.984  1.0556 -0.1053  0.0007
14142SOL     OW43003   5.110   6.430   5.647  0.2359 -0.2997 -0.4799
14142SOL    HW143004   5.171   6.382   5.703  1.0283 -0.4013 -1.4099
14142SOL    HW243005   5.065   6.362   5.596 -0.3265 -0.1929 -0.1443
14143SOL     OW43006   8.353   1.361   7.637 -0.1444  0.0883 -0.1104
14143SOL    HW143007   8.263   1.388   7.618  0.0409 -1.1689 -3.2127
14143SOL    HW243008   8.354   1.267   7.621  1.8126  0.1400 -0.4570
14144SOL     OW43009   5.756   8.898   8.502 -0.2883  0.3968 -0.1927
14144SOL    HW143010   5.765   8.914   8.596 -2.4048  2.8630 -0.3131
14144SOL    HW243011   5.723   8.808   8.496 -0.3163  0.2710  1.4074
14145SOL     OW43012   0.095   2.918   3.556  0.2757  0.0226  0.2535
14145SOL    HW143013   0.103   2.853   3.626  0.8201 -0.5013 -0.2859
14145SOL    HW243014   0.040   2.987   3.593  2.3375  0.8323  2.0097
14146SOL     OW43015   8.660   2.663   1.864  0.1003  0.1348 -0.2645
14146SOL    HW143016   8.610   2.634   1.788 -1.2810  0.7924  0.3674
14146SOL    HW243017   8.615   2.742   1.894  0.9545  0.2070  0.8960
14147SOL     OW43018   7.118   5.694   8.509 -0.2368 -0.1587 -0.5150
14147SOL    HW143019   7.102   5.607   8.544 -1.1448 -0.1323 -0.8435
14147SOL    HW243020   7.213   5.707   8.518 -0.2500 -0.7315  0.5556
14148SOL     OW43021   4.889   5.828   4.177 -0.0805  0.1276  0.1355
14148SOL    HW143022   4.807   5.841   4.129 -0.3213 -0.5561  0.3459
14148SOL    HW243023   4.870   5.755   4.237  0.6819 -0.0432  0.1778
14149SOL     OW43024   2.954   9.012   9.225 -0.0933  0.3241  0.8008
14149SOL    HW143025   3.027   9.070   9.246  0.0563  0.3585  0.2065
14149SOL    HW243026   2.879   9.071   9.215  0.1720  0.4908 -0.3532
14150SOL     OW43027   1.237   5.008   7.118  0.1623 -0.2110  0.6897
14150SOL    HW143028   1.213   4.917   7.135 -0.5907 -0.2917 -0.6268
14150SOL    HW243029   1.153   5.052   7.102  0.6342  0.3410 -0.3445
14151SOL     OW43030   0.227   3.361   0.193  0.4513 -0.5165 -0.2112
14151SOL    HW143031   0.245   3.372   0.286  1.9194 -1.1380 -0.3952
14151SOL    HW243032   0.177   3.440   0.169  3.3433  1.6390  0.3079
14152SOL     OW43033   9.818   4.149   3.249  0.4523  0.3974  0.2226
14152SOL    HW143034   9.896   4.197   3.275 -0.7099  1.2241  2.4610
14152SOL    HW243035   9.776   4.204   3.184  0.4128  1.2518  0.9482
14153SOL     OW43036   4.458   7.739   9.406  0.0973  0.1004  0.0488
14153SOL    HW143037   4.402   7.734   9.483  0.5820 -0.9471  0.3564
14153SOL    HW243038   4.514   7.815   9.420  0.3882 -0.2615  0.8764
14154SOL     OW43039   6.219   1.920   8.854  0.3880 -0.1689 -0.2026
14154SOL    HW143040   6.134   1.878   8.842  0.3877  0.2303 -1.8475
14154SOL    HW243041   6.283   1.849   8.844  0.3467  0.0085 -2.0214
14155SOL     OW43042   9.368   8.160   2.319  0.0830 -0.1437  0.0652
14155SOL    HW143043   9.460   8.174   2.340 -0.2596  2.0280  0.3590
14155SOL    HW243044   9.368   8.123   2.231  1.2100  0.1135 -0.0488
14156SOL     OW43045   5.894   1.235   2.745  0.4385 -0.4297 -0.6288
14156SOL    HW143046   5.966   1.190   2.791  0.5820  0.3255 -0.0964
14156SOL    HW243047   5.882   1.185   2.665  0.3345 -1.6535  0.1248
14157SOL     OW43048   7.436   4.793   0.237 -0.1772  0.1651 -0.2591
14157SOL    HW143049   7.411   4.700   0.236 -0.1094  0.1307  0.6866
14157SOL    HW243050   7.357   4.838   0.266 -0.4026  0.4750 -1.3223
14158SOL     OW43051   2.187   5.553   7.709 -0.1201 -0.2032 -0.8109
14158SOL    HW143052   2.161   5.465   7.737 -2.2946  1.0113  1.3054
14158SOL    HW243053   2.119   5.580   7.648 -0.3300  0.5893 -0.2370
14159SOL     OW43054   9.620   3.676   6.464 -0.3280  0.1273  0.5019
14159SOL    HW143055   9.532   3.676   6.427 -1.1801 -0.8792  2.3577
14159SOL    HW243056   9.659   3.594   6.435  0.4005  1.0096 -1.1135
14160SOL     OW43057   1.939   5.841   3.744 -0.0471  0.8478 -0.0307
14160SOL    HW143058   1.915   5.864   3.834 -0.2031  2.1546 -0.3876
14160SOL    HW243059   1.919   5.920   3.693  0.9961  0.4853 -1.0432
14161SOL     OW43060   5.530   3.925   1.904 -0.3314 -0.0616 -0.0130
14161SOL    HW143061   5.566   4.010   1.928 -0.2036 -0.2865  0.6083
14161SOL    HW243062   5.584   3.861   1.951 -1.5459 -0.4098  0.9727
14162SOL     OW43063   0.555   7.591   5.395 -0.2103 -0.6782  0.0733
14162SOL    HW143064   0.542   7.582   5.490 -0.3192 -0.4106  0.0836
14162SOL    HW243065   0.473   7.629   5.363 -0.0371 -0.4304 -0.0780
14163SOL     OW43066   1.104   3.818   5.352 -0.7165  0.2599  0.1836
14163SOL    HW143067   1.031   3.865   5.312 -0.3610  0.2786 -0.4545
14163SOL    HW243068   1.111   3.855   5.440 -1.0693  0.7084  0.0287
14164SOL     OW43069   4.183   1.678   3.518 -0.1374 -0.1226 -0.5138
14164SOL    HW143070   4.156   1.652   3.430  1.0640  0.9810 -1.2535
14164SOL    HW243071   4.250   1.746   3.503 -0.6779  0.8617  1.2628
14165SOL     OW43072   4.348   8.283   8.672 -0.1504  0.6692  0.6346
14165SOL    HW143073   4.312   8.371   8.660 -1.3355  0.0844 -0.2545
14165SOL    HW243074   4.313   8.254   8.757 -1.2001  0.3926  0.1199
14166SOL     OW43075   6.045   7.929   8.028  0.0142 -0.2981  0.2476
14166SOL    HW143076   5.974   7.959   8.084 -0.8828 -0.3589 -0.8234
14166SOL    HW243077   6.016   7.951   7.939  1.7035  0.4221 -0.1618
14167SOL     OW43078   8.547   4.935   3.699 -0.3144 -0.3224  0.3046
14167SOL    HW143079   8.558   4.842   3.718 -0.7029 -0.2867  0.7163
14167SOL    HW243080   8.457   4.942   3.666 -0.2459 -0.1102  0.1608
14168SOL     OW43081   6.272   4.398   2.581 -0.0630 -0.5884 -0.4062
14168SOL    HW143082   6.326   4.477   2.574 -1.3592  0.2864 -1.1015
14168SOL    HW243083   6.243   4.382   2.491 -3.0039  0.5231  0.2252
14169SOL     OW43084   4.155   1.149   0.438 -0.1282 -0.1841  0.3232
14169SOL    HW143085   4.228   1.158   0.377  0.0873  2.0191  0.8294
14169SOL    HW243086   4.196   1.117   0.519  0.3541  1.2576  0.6748
14170SOL     OW43087   7.205   0.769   8.906 -0.4131  0.4439 -0.3787
14170SOL    HW143088   7.183   0.852   8.949 -1.3021 -0.7223  1.5734
14170SOL    HW243089   7.293   0.749   8.937  0.5390  1.4578 -2.2578
14171SOL     OW43090   0.118   9.124   1.151  0.0471  0.1493 -0.1193
14171SOL    HW143091   0.155   9.166   1.074 -1.2205 -0.6480 -1.2146
14171SOL    HW243092   0.069   9.050   1.117 -1.0544  0.1174  1.4025
14172SOL     OW43093   7.522   3.840   5.646  0.2408  0.9428 -0.3965
14172SOL    HW143094   7.442   3.866   5.692  1.2030 -0.2582  2.1305
14172SOL    HW243095   7.592   3.854   5.709  1.4850 -2.0497 -0.9403
14173SOL     OW43096   8.052   5.415   3.468 -0.1007  0.1644  0.1673
14173SOL    HW143097   7.975   5.389   3.417 -1.7156  3.2081  0.7950
14173SOL    HW243098   8.019   5.480   3.530  3.1499  2.7583 -0.4915
14174SOL     OW43099   0.062   4.856   5.510  0.1876 -0.2532 -0.1099
14174SOL    HW143100   0.141   4.909   5.516  0.1461  0.2237 -2.6826
14174SOL    HW243101   0.031   4.869   5.420 -2.1985 -1.3096  0.4811
14175SOL     OW43102   5.224   5.683   4.113  0.8606  0.5043  0.7515
14175SOL    HW143103   5.237   5.611   4.051 -1.3118  1.6346 -1.1844
14175SOL    HW243104   5.179   5.643   4.187  1.2125 -0.4232  0.4818
14176SOL     OW43105   3.771   5.327   7.164  0.1331  0.3709 -0.7591
14176SOL    HW143106   3.816   5.338   7.081  0.3514 -1.3834 -0.9189
14176SOL    HW243107   3.832   5.278   7.219 -0.8591 -0.5012 -0.3775
14177SOL     OW43108   8.066   5.419   8.287 -0.0613 -0.1258  0.4942
14177SOL    HW143109   7.995   5.386   8.232 -0.0557 -2.5258  1.8198
14177SOL    HW243110   8.069   5.359   8.362  4.3341 -1.0513 -0.1867
14178SOL     OW43111   2.930   8.795   7.393 -0.4355  0.2020  0.5050
14178SOL    HW143112   2.982   8.846   7.455  0.2596 -1.6179  1.4934
14178SOL    HW243113   2.931   8.706   7.428  1.0011 -1.2045 -2.7133
14179SOL     OW43114   7.687   1.819   7.420  0.2995  0.5175 -0.3949
14179SOL    HW143115   7.608   1.808   7.367 -1.3919 -2.5423  2.3889
14179SOL    HW243116   7.743   1.746   7.396  0.5588  0.4597  0.3502
14180SOL     OW43117   6.884   7.959   9.553  1.0320  0.0600 -0.0697
14180SOL    HW143118   6.869   8.032   9.613 -0.2891  0.2898 -0.6406
14180SOL    HW243119   6.808   7.961   9.493  0.1396 -2.6867  0.8191
14181SOL     OW43120   8.798   0.534   1.879 -0.6587  0.0111 -0.1532
14181SOL    HW143121   8.818   0.589   1.954  0.5280  0.6261 -0.8876
14181SOL    HW243122   8.863   0.464   1.882  1.3780  1.6641 -2.1982
14182SOL     OW43123   5.554   9.532   8.937  0.1861  0.0041 -0.2045
14182SOL    HW143124   5.560   9.576   8.852  0.9715 -0.8895 -0.6278
14182SOL    HW243125   5.639   9.491   8.949 -0.3424 -0.9606  0.4137
14183SOL     OW43126   5.495   1.772   6.533 -0.4854  0.1936 -0.1152
14183SOL    HW143127   5.471   1.720   6.609 -1.2389 -2.4013 -1.9807
14183SOL    HW243128   5.429   1.751   6.467  0.7416  1.4509 -1.8708
14184SOL     OW43129   1.884   6.426   1.200  0.0096  0.1720 -0.3009
14184SOL    HW143130   1.928   6.401   1.281 -1.3833  0.1780  0.4925
14184SOL    HW243131   1.799   6.382   1.204 -0.6152  1.2533 -1.1075
14185SOL     OW43132   3.506   8.364   7.601  0.1576  0.2419 -0.6461
14185SOL    HW143133   3.568   8.396   7.536  0.3985  0.2017 -0.4432
14185SOL    HW243134   3.425   8.411   7.584  0.7419  1.6001  0.1849
14186SOL     OW43135   7.538   6.662   6.077  0.0309 -0.1679 -0.4677
14186SOL    HW143136   7.467   6.657   6.013 -0.0855 -0.2618 -0.3312
14186SOL    HW243137   7.617   6.638   6.027 -0.3435 -2.4149 -0.1029
14187SOL     OW43138   4.052   8.799   0.458 -0.2441 -0.2766 -0.0873
14187SOL    HW143139   4.052   8.753   0.374 -0.7559  0.3395 -0.4330
14187SOL    HW243140   3.965   8.839   0.463  0.7686  2.1149 -0.5918
14188SOL     OW43141   7.961   2.473   9.596 -0.2891  0.4542  0.0889
14188SOL    HW143142   7.874   2.509   9.580  0.4516  2.2052 -0.2704
14188SOL    HW243143   8.007   2.486   9.513  0.9392  1.4819  0.9048
14189SOL     OW43144   1.592   8.084   3.468  0.7294  1.0445  0.7480
14189SOL    HW143145   1.648   8.094   3.392 -0.6758  1.8170 -0.2275
14189SOL    HW243146   1.566   7.991   3.466  0.5247  1.1126  0.1576
14190SOL     OW43147   2.942   6.283   7.882 -0.5232 -0.1831  0.0875
14190SOL    HW143148   2.992   6.202   7.873 -0.8790 -0.1844 -4.2946
14190SOL    HW243149   2.854   6.255   7.907 -0.4553 -1.0988 -0.6714
14191SOL     OW43150   3.620   0.513   5.665 -0.0435  0.1448 -0.2380
14191SOL    HW143151   3.586   0.482   5.748  0.4752 -0.3499 -0.2064
14191SOL    HW243152   3.557   0.481   5.600 -0.2663  0.2403 -0.0708
14192SOL     OW43153   6.110   3.618   7.105 -0.0918 -0.3115 -0.0591
14192SOL    HW143154   6.202   3.644   7.103  0.0754 -0.8593  0.2990
14192SOL    HW243155   6.063   3.698   7.131  0.1267  0.3440 -1.5637
14193SOL     OW43156   9.890   2.100   4.756  0.1916  0.5291  0.3270
14193SOL    HW143157   9.981   2.122   4.738  0.1738  0.4222  0.0991
14193SOL    HW243158   9.845   2.117   4.673 -0.0511  0.8799  0.5313
14194SOL     OW43159   1.155   9.567   5.288 -0.5568 -0.1793  0.4692
14194SOL    HW143160   1.078   9.582   5.344 -0.3561  1.5935  0.3406
14194SOL    HW243161   1.145   9.631   5.217  0.6332 -0.4723  0.0185
14195SOL     OW43162   4.218   0.515   4.455  0.4084 -0.1751  0.1494
14195SOL    HW143163   4.143   0.569   4.479  0.9737  0.1343  1.2779
14195SOL    HW243164   4.262   0.496   4.538  2.8652  1.5560 -0.6409
14196SOL     OW43165   7.862   3.548   1.717 -0.4422  0.3474 -0.0209
14196SOL    HW143166   7.925   3.572   1.785 -0.2837  1.0084 -0.3911
14196SOL    HW243167   7.779   3.586   1.746 -0.4917  0.1798  0.0593
14197SOL     OW43168   3.824   2.413   2.633  0.1348  0.2971 -0.2193
14197SOL    HW143169   3.731   2.396   2.616  0.1378  0.6165 -0.5720
14197SOL    HW243170   3.829   2.427   2.727 -0.1426  0.0592 -0.1688
14198SOL     OW43171   2.834   7.629   3.942  0.3054 -0.4442  0.8190
14198SOL    HW143172   2.865   7.554   3.993 -1.7176 -1.0236  1.2821
14198SOL    HW243173   2.784   7.591   3.870 -2.7890  0.3269  2.3586
14199SOL     OW43174   4.980   2.006   9.427 -0.0607  0.0777  0.2783
14199SOL    HW143175   4.931   2.080   9.391 -1.4743 -1.4361 -1.0638
14199SOL    HW243176   5.008   1.956   9.350 -0.2783 -1.4760  1.1580
14200SOL     OW43177   9.423   0.507   3.023  0.0718 -0.0100 -0.0392
14200SOL    HW143178   9.506   0.537   2.984 -0.5079  1.2627 -0.3442
14200SOL    HW243179   9.449   0.439   3.085  1.3685  0.4719 -0.0239
14201SOL     OW43180   1.004   0.891   7.705  0.0161  0.2119  0.1256
14201SOL    HW143181   0.955   0.809   7.714  1.5622 -0.6856  0.8659
14201SOL    HW243182   1.018   0.900   7.611  0.5982 -0.8819  0.0851
14202SOL     OW43183   9.985   4.398   7.283 -0.3779  0.3304  0.0796
14202SOL    HW143184   9.898   4.396   7.244 -0.1809 -0.7134 -0.3548
14202SOL    HW243185  10.044   4.391   7.207  0.0236 -1.3195  0.4990
14203SOL     OW43186   9.511   0.810   0.343  0.2382  0.0928  0.4311
14203SOL    HW143187   9.495   0.745   0.411 -0.6472  0.8866  0.9964
14203SOL    HW243188   9.428   0.818   0.297  0.6972 -0.0921 -0.4597
14204SOL     OW43189   8.004   9.498   0.672  0.1375  0.2239 -0.2920
14204SOL    HW143190   8.001   9.404   0.655  2.1638  0.5165 -2.8463
14204SOL    HW243191   8.091   9.514   0.708 -0.1170  1.1787 -0.0528
14205SOL     OW43192   4.781   7.306   6.867 -0.1999 -0.4860  0.3033
14205SOL    HW143193   4.832   7.337   6.792 -0.7743 -0.3038 -0.0182
14205SOL    HW243194   4.843   7.255   6.919  0.4222  0.0880  0.1415
14206SOL     OW43195   0.786   9.138   4.398 -0.0616 -0.2729 -0.0939
14206SOL    HW143196   0.862   9.135   4.457  1.8344 -0.3672 -2.4121
14206SOL    HW243197   0.778   9.230   4.373 -2.3496  0.2042  2.0033
14207SOL     OW43198   4.658   7.347   9.319  0.0902  0.0655  0.2597
14207SOL    HW143199   4.606   7.424   9.297  0.2295  0.7126  2.0378
14207SOL    HW243200   4.725   7.342   9.251  0.1713  1.6017  0.1964
14208SOL     OW43201   0.754   2.570   9.519 -0.7059  0.5354  0.0923
14208SOL    HW143202   0.805   2.613   9.586 -2.1114  1.3277  0.6918
14208SOL    HW243203   0.798   2.592   9.437 -0.2650  1.4451  0.5649
14209SOL     OW43204   9.419   1.319   5.035 -1.1148 -0.3587 -0.3912
14209SOL    HW143205   9.324   1.312   5.046 -1.0631  1.6271  2.1622
14209SOL    HW243206   9.431   1.387   4.969 -1.4342 -0.6681 -0.7760
14210SOL     OW43207   2.579   4.887   4.266 -0.2685  0.0805 -0.5194
14210SOL    HW143208   2.525   4.836   4.326  0.2655 -0.4982 -0.5206
14210SOL    HW243209   2.517   4.926   4.205 -0.6334 -1.1102 -0.9291
14211SOL     OW43210   5.546   5.093   6.968 -0.0635 -0.0822  0.1627
14211SOL    HW143211   5.566   5.147   7.045  1.8249  2.4378 -1.9189
14211SOL    HW243212   5.457   5.120   6.943 -0.2137 -0.0220  0.7527
14212SOL     OW43213   3.681   4.146   5.644  0.0870 -0.4895  0.1010
14212SOL    HW143214   3.702   4.173   5.554 -0.7362 -0.9600 -0.2411
14212SOL    HW243215   3.763   4.156   5.692  0.9886 -1.8867 -1.0901
14213SOL     OW43216   1.274   3.471   4.144  0.0317 -0.0104 -0.4401
14213SOL    HW143217   1.291   3.553   4.098  2.1173 -0.3065 -0.2803
14213SOL    HW243218   1.246   3.410   4.076  1.1830  0.0976 -1.0407
14214SOL     OW43219   3.799   2.083   2.675 -0.1529  0.4300 -0.1492
14214SOL    HW143220   3.876   2.135   2.652 -0.6799  0.7909 -1.1182
14214SOL    HW243221   3.774   2.040   2.594 -0.5004 -0.3262  0.3487
14215SOL     OW43222   8.723   1.447   1.629 -0.2419 -0.1436  0.8315
14215SOL    HW143223   8.639   1.492   1.622  0.2711  0.8964  1.1282
14215SOL    HW243224   8.711   1.366   1.579 -0.8506  0.8323 -0.6947
14216SOL     OW43225   4.597   8.889   1.325 -0.2074  0.0051  0.7610
14216SOL    HW143226   4.566   8.959   1.383 -0.0839 -1.0193  2.1222
14216SOL    HW243227   4.539   8.894   1.249 -1.4110  0.3875  1.6714
14217SOL     OW43228   9.045   4.392   1.586  0.5890 -0.1334 -0.1184
14217SOL    HW143229   9.125   4.410   1.636  0.1969  0.4710  0.3030
14217SOL    HW243230   9.076   4.377   1.496  1.1774  0.0223  0.0524
14218SOL     OW43231   2.140   5.555   2.816  0.3891  0.1545  0.4070
14218SOL    HW143232   2.048   5.555   2.791  0.7340  0.5700 -0.9514
14218SOL    HW243233   2.182   5.616   2.755  1.1348  2.0595  2.7095
14219SOL     OW43234   7.789   0.868   1.071 -0.0222 -0.4452 -0.2850
14219SOL    HW143235   7.875   0.911   1.073 -0.2148  0.0428 -1.5075
14219SOL    HW243236   7.732   0.928   1.120  0.4109 -0.9930  0.9217
14220SOL     OW43237   0.750   8.745   5.432 -0.0884 -0.4127  0.3657
14220SOL    HW143238   0.798   8.707   5.505 -1.8548 -0.6436  1.4759
14220SOL    HW243239   0.817   8.791   5.380  1.1401  0.3508  2.4927
14221SOL     OW43240   4.869   6.084   4.614 -0.2063  0.0471  0.5029
14221SOL    HW143241   4.883   6.092   4.708 -0.0460 -1.8818  0.6792
14221SOL    HW243242   4.946   6.126   4.574 -0.3386  0.9864  1.2035
14222SOL     OW43243   0.129   2.621   3.239  0.0388 -0.4565  0.4985
14222SOL    HW143244   0.079   2.623   3.157 -0.0957  0.1049  0.5877
14222SOL    HW243245   0.087   2.552   3.291  0.5827 -1.3168 -0.1813
14223SOL     OW43246   5.491   2.306   4.835 -0.1241  0.0805 -0.3139
14223SOL    HW143247   5.502   2.353   4.752 -1.3025  0.2382 -0.3998
14223SOL    HW243248   5.396   2.297   4.844  0.0515 -2.0074 -0.1351
14224SOL     OW43249   7.952   5.225   4.474  0.2047  0.4518  0.1095
14224SOL    HW143250   7.946   5.130   4.462 -0.6141  0.1481  2.4943
14224SOL    HW243251   8.045   5.241   4.488  0.5430  0.2362 -1.6182
14225SOL     OW43252   6.615   7.533   6.186 -0.1122 -0.1381 -0.6275
14225SOL    HW143253   6.699   7.491   6.207  0.0115  0.5191  0.2536
14225SOL    HW243254   6.603   7.598   6.255 -1.8566 -0.9206 -0.1297
14226SOL     OW43255   7.825   4.564   9.267 -0.0255  0.0695  0.3372
14226SOL    HW143256   7.850   4.483   9.223  1.2402  0.0891  0.9572
14226SOL    HW243257   7.764   4.536   9.335 -0.8457 -0.1453 -0.4731
14227SOL     OW43258   1.507   9.147   7.083  0.2951  0.0936  0.4359
14227SOL    HW143259   1.529   9.233   7.047  1.1133 -0.1383  0.3519
14227SOL    HW243260   1.511   9.088   7.007  0.6279 -0.1645  0.6514
14228SOL     OW43261   6.720   1.316   7.493 -0.0731  0.6503 -0.5519
14228SOL    HW143262   6.738   1.390   7.435  0.7441  0.4236 -0.5897
14228SOL    HW243263   6.799   1.306   7.545 -1.0543  1.3443  1.1645
14229SOL     OW43264   1.440   4.967   0.081  0.3008 -0.3194 -0.8002
14229SOL    HW143265   1.398   5.049   0.053 -0.1534 -0.3043 -0.0929
14229SOL    HW243266   1.417   4.959   0.173  0.8602 -0.9360 -0.7125
14230SOL     OW43267   5.115   4.279   2.430 -0.5136  0.0518  0.7265
14230SOL    HW143268   5.095   4.331   2.508 -1.0430 -0.6309  1.0520
14230SOL    HW243269   5.207   4.298   2.412 -0.8302  1.5010  0.5219
14231SOL     OW43270   0.210   4.851   6.190 -0.6580 -0.0594 -0.3359
14231SOL    HW143271   0.204   4.877   6.283  1.6846  0.6965 -0.3103
14231SOL    HW243272   0.142   4.902   6.147  1.1370  3.2307  0.3605
14232SOL     OW43273   2.599   8.887   4.213 -0.1048  0.6745  0.1713
14232SOL    HW143274   2.569   8.825   4.146  0.6162  1.9620 -1.4184
14232SOL    HW243275   2.694   8.878   4.213  0.0881  2.3001 -0.6802
14233SOL     OW43276   7.441   2.682   3.166 -0.5986 -0.0318  0.2862
14233SOL    HW143277   7.346   2.684   3.161 -0.5510  0.7104 -0.6363
14233SOL    HW243278   7.460   2.671   3.259 -1.5755  0.2187  0.5273
14234SOL     OW43279   5.391   7.423   2.608  0.5445 -0.2950  0.2086
14234SOL    HW143280   5.371   7.415   2.514 -0.8912 -0.0787  0.4856
14234SOL    HW243281   5.486   7.437   2.610  0.2201  3.0084 -1.4106
14235SOL     OW43282   7.254   2.782   9.893 -0.4941  0.4252 -0.4192
14235SOL    HW143283   7.346   2.806   9.900 -0.6418  0.9369 -0.0992
14235SOL    HW243284   7.245   2.703   9.946 -0.0170 -0.3097 -1.3925
14236SOL     OW43285   9.471   6.192   0.776  0.1075 -0.0681  0.1382
14236SOL    HW143286   9.391   6.171   0.727 -0.3876 -0.6559  1.1827
14236SOL    HW243287   9.490   6.283   0.752  0.3395 -0.5598 -1.7636
14237SOL     OW43288   0.317   5.336   5.161  0.0019 -0.1054 -0.1750
14237SOL    HW143289   0.277   5.417   5.131  1.1597  1.3828  2.0688
14237SOL    HW243290   0.245   5.287   5.202 -0.4363  0.4313 -0.3049
14238SOL     OW43291   5.599   3.228   6.911  0.1103  0.4427 -0.4885
14238SOL    HW143292   5.562   3.255   6.995 -0.0946  3.2103 -1.3675
14238SOL    HW243293   5.524   3.198   6.860  0.0251  0.1311 -0.1820
14239SOL     OW43294   0.142   9.308   0.952  0.9180 -0.1636 -0.4943
14239SOL    HW143295   0.150   9.305   0.857  0.0113 -0.9663 -0.5509
14239SOL    HW243296   0.137   9.402   0.973  0.1832 -0.0133 -1.3144
14240SOL     OW43297   2.106   9.973   9.736  0.3944  0.1636  0.5217
14240SOL    HW143298   2.195   9.949   9.713  0.1368  0.1092 -0.4621
14240SOL    HW243299   2.054   9.946   9.661 -0.1258  2.4369  0.0126
14241SOL     OW43300   8.455   5.657   6.550  0.0627 -0.0424 -0.2431
14241SOL    HW143301   8.459   5.597   6.624  0.0199  0.2551 -0.0011
14241SOL    HW243302   8.487   5.605   6.476 -0.4677 -0.5295 -0.1386
14242SOL     OW43303   4.424   9.354   3.420  0.6685 -0.0051  0.3159
14242SOL    HW143304   4.456   9.333   3.508  0.9256  1.3062  0.5534
14242SOL    HW243305   4.434   9.448   3.412 -0.4607  0.0619 -0.6938
14243SOL     OW43306   5.306   4.067   5.909  0.0782  0.0967 -0.0623
14243SOL    HW143307   5.381   4.042   5.857  0.7341 -1.5533  1.5693
14243SOL    HW243308   5.230   4.031   5.863  0.1787  2.0011 -1.8578
14244SOL     OW43309   7.864   7.241   7.201  0.3384 -0.1068  0.0204
14244SOL    HW143310   7.918   7.292   7.262  0.7035 -0.9861  0.4494
14244SOL    HW243311   7.877   7.150   7.228  0.7682 -0.5495 -1.5716
14245SOL     OW43312   6.286   0.246   2.985 -0.7029 -0.0354 -0.1528
14245SOL    HW143313   6.322   0.159   3.003  1.1607  0.3489 -1.5920
14245SOL    HW243314   6.205   0.229   2.937  0.2369 -1.0389 -1.4876
14246SOL     OW43315   9.541   2.763   7.586 -0.4582 -0.2195 -0.4661
14246SOL    HW143316   9.607   2.696   7.604 -1.3878 -0.7967  0.9528
14246SOL    HW243317   9.471   2.745   7.649 -1.0297  1.6825 -0.4999
14247SOL     OW43318   6.503   8.055   0.898 -0.1549 -0.2733  0.4914
14247SOL    HW143319   6.544   8.068   0.983 -0.6623  1.6906  0.4661
14247SOL    HW243320   6.409   8.053   0.916 -0.2315 -0.6825  0.0728
14248SOL     OW43321   1.930   4.861   8.420 -0.4749  0.3273 -0.3579
14248SOL    HW143322   2.005   4.921   8.415 -1.4229  1.6031  0.1395
14248SOL    HW243323   1.863   4.910   8.468 -2.4288  0.1088 -2.6620
14249SOL     OW43324   7.315   2.091   6.996  0.5220 -0.2869  0.2708
14249SOL    HW143325   7.325   2.098   7.091 -1.3731 -0.9617  0.5620
14249SOL    HW243326   7.391   2.041   6.967 -0.1859 -2.3496  1.8072
14250SOL     OW43327   4.327   2.977   8.496 -0.5778 -0.5314 -0.1726
14250SOL    HW143328   4.288   2.925   8.426 -1.0778 -2.0110  1.1619
14250SOL    HW243329   4.290   3.065   8.484  0.1580 -0.4537 -2.3541
14251SOL     OW43330   0.350   8.586   2.306 -0.1553  0.0742  0.0530
14251SOL    HW143331   0.425   8.643   2.322 -1.6425  2.4601 -0.7824
14251SOL    HW243332   0.316   8.615   2.221 -2.4662 -0.3124  0.7756
14252SOL     OW43333   6.713   2.496   0.470 -0.9669 -0.2389 -0.3701
14252SOL    HW143334   6.686   2.530   0.385  0.2549 -0.9551 -1.0656
14252SOL    HW243335   6.808   2.486   0.464 -0.7110  0.5970  1.4158
14253SOL     OW43336   7.237   4.377   5.793 -0.1494 -0.1372  0.5807
14253SOL    HW143337   7.217   4.454   5.740 -0.9741 -0.6201  0.1544
14253SOL    HW243338   7.271   4.313   5.730 -2.8942 -1.3842  0.1957
14254SOL     OW43339   3.008   7.283   2.050 -0.2496  0.0876  0.4801
14254SOL    HW143340   2.943   7.338   2.006 -1.7523 -2.7284 -1.0844
14254SOL    HW243341   3.087   7.337   2.052 -1.7956  2.5534 -0.2615
14255SOL     OW43342   1.016   3.524   6.488  0.6950 -0.1361 -0.0817
14255SOL    HW143343   1.065   3.443   6.479  0.6189 -0.3409  1.1408
14255SOL    HW243344   1.006   3.557   6.399  0.9871 -1.3124 -0.5591
14256SOL     OW43345   3.243   8.915   7.533 -0.3166 -0.1292  0.4542
14256SOL    HW143346   3.167   8.963   7.500  0.5875  0.2628 -1.2006
14256SOL    HW243347   3.296   8.982   7.577 -0.0770 -0.0237  0.0137
14257SOL     OW43348   1.193   0.900   1.517 -0.1420  0.1381 -0.0905
14257SOL    HW143349   1.127   0.830   1.515 -0.4848  0.4420 -2.6838
14257SOL    HW243350   1.142   0.980   1.525  0.1970  0.2106  1.8214
14258SOL     OW43351   3.741   3.274   2.080  0.1212 -0.2343  0.0024
14258SOL    HW143352   3.782   3.279   1.993 -0.4571  3.7213 -0.2300
14258SOL    HW243353   3.814   3.261   2.140  0.5836 -2.5197 -0.9480
14259SOL     OW43354   4.716   7.269   2.672  0.6510 -0.4904 -0.4539
14259SOL    HW143355   4.760   7.184   2.679  2.9114  0.5422 -1.0482
14259SOL    HW243356   4.788   7.331   2.660 -0.9791  1.4487 -0.5808
14260SOL     OW43357   1.995   2.593   9.342 -0.3005  0.4402 -0.3420
14260SOL    HW143358   1.975   2.550   9.426  1.1823 -0.6725 -0.4968
14260SOL    HW243359   2.044   2.671   9.367  1.6398 -0.7683 -0.1546
14261SOL     OW43360   6.496   5.964   0.922 -0.4650  0.2499 -0.1714
14261SOL    HW143361   6.498   5.984   1.015  1.0619  1.4958 -0.4142
14261SOL    HW243362   6.535   6.041   0.880 -0.9205 -0.3606 -1.8229
14262SOL     OW43363   5.504   2.203   4.023 -0.0919  0.0640 -0.0651
14262SOL    HW143364   5.440   2.173   4.087 -0.0220 -0.9722 -0.4563
14262SOL    HW243365   5.485   2.296   4.011 -0.6106  0.0884  0.8605
14263SOL     OW43366   5.611   9.379   1.216 -0.4898  0.3475 -0.0050
14263SOL    HW143367   5.675   9.434   1.260 -0.9007  0.7294  0.1257
14263SOL    HW243368   5.532   9.433   1.210 -1.0522 -0.3726  0.5496
14264SOL     OW43369   8.232   2.299   3.860  0.1379  0.0434 -0.1284
14264SOL    HW143370   8.309   2.352   3.839 -1.0480  2.0501  0.2816
14264SOL    HW243371   8.229   2.232   3.792  3.4541 -1.5381  1.0916
14265SOL     OW43372   5.453   2.637   0.633  0.0067  0.0437  1.0105
14265SOL    HW143373   5.384   2.576   0.660 -0.8250  0.0382 -0.9710
14265SOL    HW243374   5.522   2.581   0.598 -1.7894  0.1070 -3.2085
14266SOL     OW43375   6.519   0.914   0.994  0.3368 -0.0190  0.0294
14266SOL    HW143376   6.526   0.819   0.986  0.7669  0.0853 -1.0037
14266SOL    HW243377   6.573   0.936   1.070  1.7917 -0.4264 -0.8563
14267SOL     OW43378   6.423   2.796   9.057 -0.0372  0.0976 -0.1215
14267SOL    HW143379   6.356   2.853   9.094 -1.6791 -2.9864  2.1828
14267SOL    HW243380   6.494   2.797   9.122 -0.3541 -0.8872  0.2576
14268SOL     OW43381   5.310   5.214   4.011  0.2171  0.4258  0.8349
14268SOL    HW143382   5.299   5.150   4.082 -0.3784  0.1710  0.5172
14268SOL    HW243383   5.227   5.213   3.964  0.3837  1.0604  0.5101
14269SOL     OW43384   2.472   0.125   6.762  0.1570 -0.1596  0.1143
14269SOL    HW143385   2.529   0.070   6.708  0.5126 -0.5106  0.8362
14269SOL    HW243386   2.390   0.077   6.768  0.5000 -0.6705  0.8262
14270SOL     OW43387   2.626   1.386   1.325  0.0158  0.8222  0.0064
14270SOL    HW143388   2.627   1.291   1.335  0.2441  0.8959  0.8214
14270SOL    HW243389   2.656   1.402   1.236 -1.1409  0.0953 -0.5247
14271SOL     OW43390   9.026   9.908   6.291  0.1834 -0.1616  0.0079
14271SOL    HW143391   9.070   9.987   6.323 -1.1279  0.9038 -0.7139
14271SOL    HW243392   8.941   9.909   6.335 -0.6760 -0.0069 -1.6067
14272SOL     OW43393   3.057   1.889   7.660 -0.6123 -0.1765  0.0941
14272SOL    HW143394   3.135   1.869   7.609  1.1475  2.0403  1.7292
14272SOL    HW243395   3.065   1.837   7.739 -0.9292 -0.1212  0.1650
14273SOL     OW43396   4.204   0.465   0.646 -0.0631 -0.2269 -0.2451
14273SOL    HW143397   4.198   0.378   0.607 -0.6271  0.3672 -1.5457
14273SOL    HW243398   4.230   0.522   0.574 -0.0470  0.7541  0.5083
14274SOL     OW43399   5.263   5.105   7.977  0.2605 -0.2616  0.1004
14274SOL    HW143400   5.352   5.134   7.998  0.4430  0.1224 -1.1699
14274SOL    HW243401   5.241   5.149   7.896 -1.1027 -0.3676  0.3878
14275SOL     OW43402   0.166   8.588   4.318  0.0305 -0.2961 -0.1253
14275SOL    HW143403   0.249   8.630   4.296  0.1267 -0.0434  0.6615
14275SOL    HW243404   0.148   8.529   4.245  1.0623 -0.5797 -0.1734
14276SOL     OW43405   5.241   5.145   9.145  0.0803  0.0377  0.0838
14276SOL    HW143406   5.202   5.165   9.230 -3.4092 -0.1702 -1.2777
14276SOL    HW243407   5.275   5.228   9.113  0.9749  0.2110  1.4106
14277SOL     OW43408   8.962   1.688   8.524 -0.2053  0.0919 -0.5243
14277SOL    HW143409   9.027   1.644   8.469  0.7190 -0.7122  1.1354
14277SOL    HW243410   9.006   1.698   8.609 -1.7852  0.7630  0.2467
14278SOL     OW43411   5.425   0.781   8.917  0.2711 -0.3824 -0.1540
14278SOL    HW143412   5.422   0.877   8.909 -2.4277 -0.4725 -1.0255
14278SOL    HW243413   5.350   0.750   8.867 -0.6546 -2.7894  2.4223
14279SOL     OW43414   6.273   2.702   6.281  0.2143  0.2173  0.2768
14279SOL    HW143415   6.178   2.715   6.283 -0.2100 -2.2311  3.1894
14279SOL    HW243416   6.287   2.640   6.209 -0.4110  0.5176 -0.1074
14280SOL     OW43417   1.808   0.539   0.321  0.2171 -0.7638  0.7603
14280SOL    HW143418   1.855   0.621   0.337  0.5453 -1.0584  1.3424
14280SOL    HW243419   1.798   0.535   0.226  0.0293  0.0422  0.7407
14281SOL     OW43420   0.116   1.328   2.001  0.3703 -0.1101 -0.0008
14281SOL    HW143421   0.134   1.317   2.095 -1.0145 -1.5531  0.1464
14281SOL    HW243422   0.103   1.422   1.990  1.5288  0.2037  1.0483
14282SOL     OW43423  -0.019   1.142   4.802  0.5822  0.2044  0.8394
14282SOL    HW143424  -0.009   1.081   4.729  0.3522 -0.4974  1.3735
14282SOL    HW243425   0.067   1.181   4.813 -0.0777  2.7032 -1.7950
14283SOL     OW43426   1.213   3.644   2.064  0.6740 -0.6588  0.3737
14283SOL    HW143427   1.268   3.642   1.985  0.7271 -3.0413  0.3853
14283SOL    HW243428   1.179   3.554   2.071 -0.5414 -0.1060  2.2432
14284SOL     OW43429   8.978   2.032   7.356 -0.3068 -0.3345  0.3196
14284SOL    HW143430   9.050   2.092   7.338 -0.8411  0.0954 -0.4390
14284SOL    HW243431   8.902   2.089   7.370 -0.7846 -0.8272 -0.2144
14285SOL     OW43432   2.961   3.491   7.026  0.1259  0.7516 -0.3976
14285SOL    HW143433   2.926   3.571   7.065  2.2904  0.3665  2.6571
14285SOL    HW243434   2.894   3.425   7.045 -1.0046  1.4790 -1.6551
14286SOL     OW43435   0.954   4.724   6.043  0.1251  0.2580 -0.0754
14286SOL    HW143436   0.909   4.755   5.964 -1.9554 -0.7121  0.6726
14286SOL    HW243437   0.992   4.640   6.017 -1.0538 -0.3430  0.0776
14287SOL     OW43438   0.603   0.557   6.682 -0.3118  0.2309  0.4834
14287SOL    HW143439   0.514   0.541   6.712  0.1771 -0.4378  1.6007
14287SOL    HW243440   0.593   0.624   6.613 -1.7887 -0.7817 -0.3286
14288SOL     OW43441   0.702   2.365   8.270  0.0768 -0.0554 -0.4169
14288SOL    HW143442   0.703   2.435   8.204  1.2485  1.2745  0.9271
14288SOL    HW243443   0.655   2.404   8.344  1.0387 -0.5478  0.4788
14289SOL     OW43444   2.031   0.418   3.438  0.8211 -0.3958 -0.0013
14289SOL    HW143445   1.962   0.388   3.497  1.3247  0.7696  1.2214
14289SOL    HW243446   2.100   0.353   3.447  0.6271 -0.5797  0.1747
14290SOL     OW43447   2.704   1.223   8.406 -0.3764  0.7509  0.1890
14290SOL    HW143448   2.768   1.216   8.477  0.4934  0.6963 -0.5834
14290SOL    HW243449   2.633   1.165   8.433  0.2202  0.2448  0.7195
14291SOL     OW43450   0.978   1.457   8.181 -0.0972 -0.3740  0.3222
14291SOL    HW143451   0.971   1.362   8.173 -4.6505 -0.4396  2.0708
14291SOL    HW243452   0.949   1.491   8.096 -0.4958 -0.5862  0.3707
14292SOL     OW43453   6.110   9.955   7.161  0.7758  0.3909  0.4086
14292SOL    HW143454   6.171   9.974   7.232  1.3936 -0.5203  0.1389
14292SOL    HW243455   6.161   9.972   7.081  0.8673 -0.8847  0.1798
14293SOL     OW43456   8.825   5.680   3.109  0.4588 -0.3687 -0.3727
14293SOL    HW143457   8.861   5.748   3.051 -0.8010  0.0868 -0.6722
14293SOL    HW243458   8.901   5.638   3.148  1.2919  1.7258  0.4039
14294SOL     OW43459   7.512   4.679   0.539  0.1792 -0.0093  0.2068
14294SOL    HW143460   7.468   4.704   0.458  0.6259  0.4841  0.1042
14294SOL    HW243461   7.551   4.593   0.520  1.8087  0.8846 -0.7404
14295SOL     OW43462   1.952   9.196   8.731 -0.2110  0.4096 -1.2471
14295SOL    HW143463   1.989   9.227   8.813  0.2745 -0.2838 -1.1954
14295SOL    HW243464   1.857   9.205   8.741 -0.2615 -1.1023 -0.0047
14296SOL     OW43465   0.628   7.878   2.182 -0.2165 -0.7253  0.0316
14296SOL    HW143466   0.575   7.818   2.236  2.2790 -1.6857  1.5928
14296SOL    HW243467   0.593   7.867   2.093 -2.4482 -1.4428  0.9221
14297SOL     OW43468   0.542   8.740   1.705  0.2105  0.4993 -0.1701
14297SOL    HW143469   0.626   8.696   1.714  0.2613  0.9435  2.3856
14297SOL    HW243470   0.558   8.829   1.738 -0.7094  1.3665 -1.9413
14298SOL     OW43471   1.261   0.724   6.958 -0.6443  0.4621  0.7107
14298SOL    HW143472   1.187   0.755   6.906  1.5594  1.1579 -2.3045
14298SOL    HW243473   1.329   0.790   6.946  1.0176 -0.8827  2.0709
14299SOL     OW43474   3.680   2.222   4.997 -0.4367  0.5885  0.3246
14299SOL    HW143475   3.671   2.310   5.033 -0.0393 -0.2288  2.6141
14299SOL    HW243476   3.751   2.182   5.047 -0.9402 -1.1951 -0.2921
14300SOL     OW43477   6.746   6.886   3.844 -0.3175 -0.5435  0.5833
14300SOL    HW143478   6.689   6.816   3.813 -0.2965  1.1915 -4.0675
14300SOL    HW243479   6.687   6.960   3.859  0.2296  0.0937 -0.3088
14301SOL     OW43480   2.465   2.907   6.997  0.0570  0.0868 -0.2836
14301SOL    HW143481   2.440   2.842   6.931  0.1459 -1.4327  1.1253
14301SOL    HW243482   2.548   2.942   6.966  0.7786 -1.5811 -0.3455
14302SOL     OW43483   5.466   2.906   6.838 -0.2235 -0.0981 -0.0199
14302SOL    HW143484   5.545   2.906   6.893  0.2210  0.7411 -0.6261
14302SOL    HW243485   5.472   2.988   6.788 -0.7874 -0.6732 -1.0562
14303SOL     OW43486   1.426   7.581   8.905 -0.3924  0.7391 -0.4862
14303SOL    HW143487   1.458   7.639   8.975  0.1731  1.7599 -1.5622
14303SOL    HW243488   1.416   7.496   8.948  0.5660  1.1847  0.6852
14304SOL     OW43489   2.638   7.386   9.366 -0.0862  0.4925 -0.4757
14304SOL    HW143490   2.717   7.391   9.420  1.5908 -0.2772 -2.7068
14304SOL    HW243491   2.660   7.322   9.298 -2.6330  0.3149 -1.2154
14305SOL     OW43492   0.915   0.286   5.022  0.2656 -0.0870 -0.1102
14305SOL    HW143493   0.865   0.226   4.966  0.4044  0.1885 -0.5330
14305SOL    HW243494   0.850   0.324   5.080 -0.0389  0.3320 -0.7137
14306SOL     OW43495   1.457   2.047   2.133  0.6465  0.0318  0.4499
14306SOL    HW143496   1.424   2.123   2.180  0.3275  0.1441  0.0494
14306SOL    HW243497   1.447   2.070   2.040  3.5646  0.8548  0.2348
14307SOL     OW43498   6.135   1.104   2.853  0.2886 -0.4017  0.4576
14307SOL    HW143499   6.180   1.062   2.779  2.4111  0.0366  1.4323
14307SOL    HW243500   6.181   1.073   2.930 -2.6796 -1.8661  1.8064
14308SOL     OW43501   8.633   5.448   0.133 -0.5726 -0.0202  0.7251
14308SOL    HW143502   8.616   5.542   0.132 -0.3265  0.0232  0.4819
14308SOL    HW243503   8.550   5.408   0.106 -0.6288  0.1336  0.6721
14309SOL     OW43504   0.689   7.102   0.891  0.2183 -0.0829 -0.1930
14309SOL    HW143505   0.733   7.171   0.842  1.9821  0.0210  1.4273
14309SOL    HW243506   0.721   7.113   0.981 -1.5987 -1.2955  0.6615
14310SOL     OW43507   9.373   6.501   1.258 -0.1519  0.2738 -0.7758
14310SOL    HW143508   9.353   6.407   1.258 -0.5357  0.3543 -1.5546
14310SOL    HW243509   9.437   6.512   1.189  0.4738  0.4753 -0.1733
14311SOL     OW43510   4.893   8.586   2.967 -0.0026  0.4007  0.6371
14311SOL    HW143511   4.828   8.517   2.957  1.9734 -1.5346  0.4982
14311SOL    HW243512   4.848   8.665   2.935 -2.5659 -0.6099  1.4402
14312SOL     OW43513   3.404   0.121   2.280 -0.3206 -0.3598 -0.2619
14312SOL    HW143514   3.449   0.075   2.209  0.0907 -0.3759  0.0081
14312SOL    HW243515   3.311   0.110   2.260 -0.2295  1.0243 -1.7030
14313SOL     OW43516   9.143   1.206   4.363  0.1185  0.1549 -0.3788
14313SOL    HW143517   9.077   1.257   4.410  0.8987  0.3097  0.5633
14313SOL    HW243518   9.092   1.150   4.304 -0.8605  0.1163  0.4826
14314SOL     OW43519   3.261   5.327   2.121 -0.2418  0.3345  0.1433
14314SOL    HW143520   3.270   5.365   2.209 -0.0267 -0.7356  0.5987
14314SOL    HW243521   3.197   5.383   2.078  0.9345  1.9338  0.3646
14315SOL     OW43522   2.309   5.465   3.894  0.6086  0.1297 -0.2998
14315SOL    HW143523   2.221   5.496   3.876 -0.8801 -2.0950  2.3698
14315SOL    HW243524   2.319   5.387   3.839  1.0937  0.5731 -0.8576
14316SOL     OW43525   9.906   4.073   6.940 -0.5746  0.4724 -0.4704
14316SOL    HW143526   9.813   4.089   6.919 -0.2738  0.3760 -2.0258
14316SOL    HW243527   9.904   4.019   7.018 -1.9626 -2.1342 -2.1633
14317SOL     OW43528   8.519   4.242   3.311 -0.1010  0.0977 -0.1222
14317SOL    HW143529   8.461   4.188   3.258 -0.9143 -0.4302  1.2306
14317SOL    HW243530   8.471   4.324   3.325  1.0909  1.1973 -2.0875
14318SOL     OW43531   3.726   6.952   8.345  0.9892 -0.2623  0.1041
14318SOL    HW143532   3.739   7.001   8.264  1.5228 -0.2449  0.1961
14318SOL    HW243533   3.676   6.874   8.319 -2.9764  1.8676  0.4375
14319SOL     OW43534   4.731   6.443   7.143  0.5826 -0.4906  0.9290
14319SOL    HW143535   4.705   6.404   7.059  1.6336  0.3706  0.1608
14319SOL    HW243536   4.749   6.368   7.199  1.5222 -1.1274 -0.1687
14320SOL     OW43537   0.381   5.588   9.091 -0.2778  0.1842  0.8745
14320SOL    HW143538   0.464   5.542   9.078 -0.2983  0.4520 -0.4230
14320SOL    HW243539   0.407   5.678   9.113 -0.2343 -0.0294  1.7151
14321SOL     OW43540   0.491   0.916   3.725  0.1619  0.1521 -0.6758
14321SOL    HW143541   0.553   0.984   3.751 -0.3041  0.0598  0.7484
14321SOL    HW243542   0.448   0.950   3.646  0.8654  0.9130 -0.7365
14322SOL     OW43543   7.572   7.891   6.317 -0.0138  0.5637 -0.2096
14322SOL    HW143544   7.578   7.807   6.363 -0.7779  0.3980 -0.4147
14322SOL    HW243545   7.659   7.930   6.329 -0.2751  0.6824  1.6832
14323SOL     OW43546   8.867   7.708   6.256 -0.0966 -0.4311 -0.2695
14323SOL    HW143547   8.806   7.634   6.254  0.5042 -1.0731  2.0348
14323SOL    HW243548   8.953   7.667   6.242  0.0611  0.0973 -0.8475
14324SOL     OW43549   8.511   6.028   0.258  0.0687  0.2217 -0.2992
14324SOL    HW143550   8.524   6.010   0.352  0.2408 -1.2728 -0.5859
14324SOL    HW243551   8.417   6.012   0.244 -0.0989  1.1230 -0.2570
14325SOL     OW43552   6.159   9.942  -0.010 -0.2457  0.5827  0.2681
14325SOL    HW143553   6.179   9.928   0.083  1.0205 -0.4002 -0.1214
14325SOL    HW243554   6.166   9.855  -0.049  1.7480  1.3052 -1.1706
14326SOL     OW43555   8.940   3.470   8.712 -0.3816  0.3974  0.2136
14326SOL    HW143556   9.021   3.509   8.678  0.8598 -1.7225  0.5981
14326SOL    HW243557   8.923   3.396   8.654 -0.6214 -0.6967  1.6227
14327SOL     OW43558   3.786   9.810   9.343  0.2923  0.5397 -0.1884
14327SOL    HW143559   3.846   9.772   9.408 -1.2649 -0.6891  0.6105
14327SOL    HW243560   3.832   9.803   9.260  0.9496 -1.1052  0.2819
14328SOL     OW43561   0.858   8.420   1.945 -0.4867 -0.0466  0.3509
14328SOL    HW143562   0.763   8.432   1.946 -0.3000  1.5954  0.8468
14328SOL    HW243563   0.871   8.339   1.896 -2.1240 -0.1319  0.0002
14329SOL     OW43564   7.250   5.492   3.945 -0.3720  0.1730 -0.0870
14329SOL    HW143565   7.161   5.525   3.929 -0.4598 -0.9394 -2.2590
14329SOL    HW243566   7.305   5.571   3.946 -1.2155  0.7775  0.0421
14330SOL     OW43567   9.699   4.495   8.264 -0.0053 -0.1896  0.4079
14330SOL    HW143568   9.691   4.542   8.347 -0.0422 -0.0254  0.3125
14330SOL    HW243569   9.625   4.527   8.212  1.0505  1.1036 -0.3759
14331SOL     OW43570   6.162   9.159   3.466  0.0140  0.0413 -0.5765
14331SOL    HW143571   6.129   9.236   3.512  0.1022 -0.5624  0.5206
14331SOL    HW243572   6.255   9.155   3.489  0.3864  0.4736 -1.8840
14332SOL     OW43573   2.743   7.101   9.961 -0.2219 -0.2925 -0.0852
14332SOL    HW143574   2.831   7.075   9.985 -0.1322  1.0021  1.0767
14332SOL    HW243575   2.690   7.022   9.971  0.5264 -0.6974  0.7145
14333SOL     OW43576   1.798   9.788   4.425 -0.0426  0.4020  0.3290
14333SOL    HW143577   1.876   9.836   4.398  0.3539 -0.6987 -0.5691
14333SOL    HW243578   1.726   9.832   4.381  0.0871  1.2504  0.9379
14334SOL     OW43579   3.692   1.879   9.710  0.0443  0.1388 -0.0106
14334SOL    HW143580   3.757   1.814   9.736 -0.4399 -0.3254  0.0569
14334SOL    HW243581   3.740   1.938   9.652  0.5067 -0.2516 -0.0366
14335SOL     OW43582   8.075   6.116   1.444  0.5589  0.6280  0.4643
14335SOL    HW143583   8.006   6.065   1.404  2.3704 -0.2478 -1.7670
14335SOL    HW243584   8.030   6.191   1.484 -1.6152  0.2154 -1.0569
14336SOL     OW43585   4.312   3.995   2.499  0.7226 -0.2607  0.9958
14336SOL    HW143586   4.262   3.925   2.457 -0.2742  0.1009  1.5362
14336SOL    HW243587   4.297   3.981   2.593  2.6190 -0.8489  1.2546
14337SOL     OW43588   3.094   3.651   8.955 -0.2546 -0.5006  0.1178
14337SOL    HW143589   3.038   3.586   8.998  0.4309 -1.0151  0.2436
14337SOL    HW243590   3.037   3.692   8.890 -0.9809 -0.5118  0.7328
14338SOL     OW43591   1.354   3.018   3.724  0.0079  0.3481  0.5283
14338SOL    HW143592   1.429   2.968   3.691 -1.2577 -0.8096 -0.7113
14338SOL    HW243593   1.393   3.094   3.766  1.9174 -0.5931  0.5917
14339SOL     OW43594   8.897   2.381   0.292 -0.4731  0.0672 -0.8705
14339SOL    HW143595   8.824   2.355   0.236 -0.1521  0.3051 -1.4060
14339SOL    HW243596   8.855   2.411   0.372 -1.0764  1.6005 -1.7085
14340SOL     OW43597   0.793   3.304   2.098 -0.4371  1.0839  0.2894
14340SOL    HW143598   0.833   3.217   2.092  2.7176  2.4183 -0.1535
14340SOL    HW243599   0.705   3.288   2.131 -0.5593 -2.3906 -1.3013
14341SOL     OW43600   3.651   6.207   6.368  0.3019  0.0512  0.2110
14341SOL    HW143601   3.602   6.126   6.354 -0.0353  0.2755  0.1007
14341SOL    HW243602   3.729   6.197   6.313 -0.6178  0.5809 -1.2457
14342SOL     OW43603   8.934   2.929   9.721 -0.3746  0.5694 -0.2536
14342SOL    HW143604   8.877   3.003   9.741  0.8258  1.7545 -1.0854
14342SOL    HW243605   8.886   2.878   9.655 -1.4711  0.2329  0.7710
14343SOL     OW43606   8.174   2.346   3.196  0.1310 -0.5192  0.2501
14343SOL    HW143607   8.092   2.388   3.172 -0.5398 -2.7807 -1.8096
14343SOL    HW243608   8.241   2.414   3.185 -1.2343  0.8772  0.2970
14344SOL     OW43609   8.519   9.610   9.481 -0.3153  0.0631 -0.2419
14344SOL    HW143610   8.608   9.608   9.445 -0.7997  0.0270 -1.4874
14344SOL    HW243611   8.489   9.700   9.468  0.0817  0.5264  1.6509
14345SOL     OW43612   8.069   6.327   5.691 -0.2419 -0.0298  0.7710
14345SOL    HW143613   8.117   6.276   5.626 -0.9588  0.4302 -0.1455
14345SOL    HW243614   8.116   6.313   5.773 -0.4859 -2.2600  0.5843
14346SOL     OW43615   3.577   8.289   4.764  0.5254  0.6505 -0.2092
14346SOL    HW143616   3.634   8.214   4.785  0.7906  0.7218 -0.6689
14346SOL    HW243617   3.509   8.252   4.708  2.5126  1.3272 -3.3058
14347SOL     OW43618   4.254   2.554   7.243 -0.2262 -0.6303 -0.3157
14347SOL    HW143619   4.286   2.615   7.176  1.3024 -2.2805 -1.1638
14347SOL    HW243620   4.201   2.491   7.195 -1.1716 -0.4312  0.4396
14348SOL     OW43621   4.880   5.866   9.813  0.0384  0.6269  0.8754
14348SOL    HW143622   4.837   5.804   9.872 -1.2095  0.6063 -0.0182
14348SOL    HW243623   4.814   5.886   9.746  0.4230  2.8586  1.0763
14349SOL     OW43624   4.625   4.228   6.950  0.0186  0.1630  0.1868
14349SOL    HW143625   4.540   4.191   6.974  0.4161 -0.7995  0.1282
14349SOL    HW243626   4.642   4.196   6.862  0.8600 -0.4147  0.5460
14350SOL     OW43627   8.088   9.120   9.816 -0.3469  0.0139  0.3820
14350SOL    HW143628   8.029   9.083   9.750  0.9730 -1.4216 -0.0745
14350SOL    HW243629   8.081   9.060   9.891  1.3797 -0.9393 -0.1416
14351SOL     OW43630   4.650   9.745   4.179 -0.1512  0.4987  0.0807
14351SOL    HW143631   4.650   9.815   4.113 -2.6407 -0.0689 -0.6122
14351SOL    HW243632   4.712   9.681   4.145  0.0466  1.0935 -0.7205
14352SOL     OW43633   6.862   2.094   2.249  0.1293 -0.1527 -0.1056
14352SOL    HW143634   6.829   2.081   2.160  0.0739  1.0646 -0.2776
14352SOL    HW243635   6.783   2.103   2.303  0.1389  1.2232 -0.2803
14353SOL     OW43636   1.917   4.494   7.323  0.5729 -0.8683  0.4892
14353SOL    HW143637   1.909   4.585   7.351  1.9575 -0.6975  0.4338
14353SOL    HW243638   1.831   4.455   7.339  0.3466  0.1051  1.7497
14354SOL     OW43639   7.298   1.045   4.977 -0.7412  0.1920  0.5274
14354SOL    HW143640   7.339   1.084   5.054 -1.0508  0.0501  0.7665
14354SOL    HW243641   7.217   1.094   4.965  0.7551  2.4049 -1.6259
14355SOL     OW43642   1.045   2.384   1.364  0.0284  0.0816  0.5972
14355SOL    HW143643   1.084   2.302   1.334 -0.3661 -0.2219  0.9040
14355SOL    HW243644   1.117   2.447   1.360  0.5447 -0.4551  1.0888
14356SOL     OW43645   6.128   6.300   1.054  0.1781  0.0942  0.1322
14356SOL    HW143646   6.203   6.263   1.007 -1.2061 -0.9926 -1.3123
14356SOL    HW243647   6.063   6.230   1.055 -1.8220  1.8339 -1.0192
14357SOL     OW43648   5.501   5.213   7.221 -0.5154 -0.1846  0.4284
14357SOL    HW143649   5.407   5.198   7.237 -1.8132  0.9810 -4.4860
14357SOL    HW243650   5.513   5.307   7.235  0.4988 -0.5976  2.7975
14358SOL     OW43651   7.033   8.984   7.377 -0.3488 -0.2331 -0.0261
14358SOL    HW143652   7.079   8.919   7.430  0.2506  1.5955  1.8101
14358SOL    HW243653   7.009   9.053   7.438 -0.8888  1.3421 -1.9034
14359SOL     OW43654   3.785   4.558   3.727 -0.2293  0.7600  0.7683
14359SOL    HW143655   3.759   4.637   3.774  2.1113  0.5111  2.7241
14359SOL    HW243656   3.790   4.490   3.794 -0.3388 -0.5868 -0.5250
14360SOL     OW43657   9.073   1.303   8.636  0.5887  0.5009 -0.5524
14360SOL    HW143658   9.025   1.323   8.716  2.3745 -4.0081  1.9989
14360SOL    HW243659   9.151   1.358   8.640  0.7487  0.1911  0.9534
14361SOL     OW43660   3.475   6.692   7.426  0.4933 -0.3359  0.0108
14361SOL    HW143661   3.561   6.683   7.386  0.8191  0.8944  0.4044
14361SOL    HW243662   3.463   6.786   7.438 -0.5566 -0.5393  0.7157
14362SOL     OW43663   8.987   5.853   0.830  0.3135  0.4826 -0.1576
14362SOL    HW143664   9.067   5.804   0.847 -1.1642 -2.7350 -1.7408
14362SOL    HW243665   8.934   5.842   0.909 -0.3122 -1.1914 -0.7866
14363SOL     OW43666   6.091   8.546   9.435 -0.2048  0.1206 -0.1234
14363SOL    HW143667   6.086   8.622   9.494 -0.8424  0.5219 -0.6796
14363SOL    HW243668   6.083   8.584   9.348 -1.8678 -0.7063 -0.3573
14364SOL     OW43669   3.567   9.877   7.713  0.5065  0.2101  0.2087
14364SOL    HW143670   3.591   9.812   7.647  1.6762  0.2394  0.5736
14364SOL    HW243671   3.473   9.864   7.727  1.0912 -3.1855  2.1066
14365SOL     OW43672   3.723   7.545   4.704 -0.0694 -0.3829  0.1493
14365SOL    HW143673   3.764   7.631   4.696 -1.6867  0.3704 -0.2660
14365SOL    HW243674   3.655   7.544   4.637  1.1521 -2.7463 -1.2090
14366SOL     OW43675   4.635   1.552   2.091 -0.5413  0.5230  0.0853
14366SOL    HW143676   4.650   1.646   2.084  0.2010  0.4254  0.2381
14366SOL    HW243677   4.673   1.515   2.011 -1.2206  0.3955 -0.1810
14367SOL     OW43678   8.109   4.717   4.857 -0.4779 -0.3850  0.0472
14367SOL    HW143679   8.039   4.759   4.907  0.6495  0.8245  0.6833
14367SOL    HW243680   8.077   4.628   4.840 -2.1108  0.1052  0.3822
14368SOL     OW43681   9.764   3.458   7.341  0.8000  0.1785 -0.3935
14368SOL    HW143682   9.675   3.487   7.321  0.9198  1.3159  0.6172
14368SOL    HW243683   9.781   3.491   7.429  1.5818 -1.5749  0.1583
14369SOL     OW43684   4.364   9.556   4.899 -0.9621  0.5161  0.3730
14369SOL    HW143685   4.348   9.622   4.966 -1.5063  1.0576 -0.2814
14369SOL    HW243686   4.298   9.572   4.832 -0.7600 -0.3486 -0.0568
14370SOL     OW43687   7.706   7.455   9.978 -0.5999  0.3358  0.4729
14370SOL    HW143688   7.766   7.392  10.017 -0.8437  0.3800  0.9284
14370SOL    HW243689   7.700   7.429   9.886  0.2805  0.4632  0.3666
14371SOL     OW43690   7.048   9.880   8.501 -0.2520  0.0973 -0.2196
14371SOL    HW143691   7.109   9.806   8.500  1.1689  1.0720  2.4809
14371SOL    HW243692   7.094   9.949   8.451 -0.4316 -0.0502 -0.5902
14372SOL     OW43693   6.958   5.479   9.511 -0.3102  0.1095  0.3171
14372SOL    HW143694   6.914   5.433   9.582  0.8667 -3.4487 -1.0548
14372SOL    HW243695   6.916   5.446   9.432  2.3775 -0.7606 -0.8572
14373SOL     OW43696   5.992   2.775   1.004 -0.2643  0.1434 -0.0823
14373SOL    HW143697   5.912   2.826   1.018  0.6997  2.4449 -2.2068
14373SOL    HW243698   6.051   2.835   0.959  2.0626 -2.0156 -0.1271
14374SOL     OW43699   0.046   1.917   2.334  0.2738 -0.1026  0.1492
14374SOL    HW143700   0.090   1.906   2.418  0.4846 -0.1942  0.0257
14374SOL    HW243701   0.034   1.828   2.301 -0.2420 -0.0990  0.3029
14375SOL     OW43702   3.224   4.609   6.810  0.0562 -0.4563  0.4618
14375SOL    HW143703   3.314   4.594   6.778  0.6582  1.2005  1.2844
14375SOL    HW243704   3.169   4.587   6.735  1.2665  0.3508 -0.7218
14376SOL     OW43705   1.486   9.052   1.609 -0.1782 -0.0349 -0.4443
14376SOL    HW143706   1.459   9.137   1.573 -0.4077  0.2279  0.3311
14376SOL    HW243707   1.514   9.001   1.532  1.6859  1.3544 -0.7573
14377SOL     OW43708   3.109   8.469   4.892  0.2634 -0.0597  0.2458
14377SOL    HW143709   3.176   8.400   4.893 -0.6155 -0.9340  0.0654
14377SOL    HW243710   3.151   8.543   4.934  1.4061 -0.5443  0.0076
14378SOL     OW43711   1.627   4.185   4.189 -0.1921  0.1681 -0.1341
14378SOL    HW143712   1.540   4.163   4.223 -0.0100  0.8007  0.7630
14378SOL    HW243713   1.633   4.137   4.106 -1.8295  0.9762 -0.7592
14379SOL     OW43714   9.848   9.392   8.552 -0.1339  0.4001 -0.1800
14379SOL    HW143715   9.784   9.322   8.537 -1.6883  1.6441  0.3599
14379SOL    HW243716   9.803   9.454   8.609  0.7567  2.4129 -1.5245
14380SOL     OW43717   4.828   8.711   5.667 -0.3477 -0.5180  0.7429
14380SOL    HW143718   4.920   8.735   5.661 -0.1033 -0.7876  2.7009
14380SOL    HW243719   4.819   8.633   5.613  0.0830  0.6791 -1.1453
14381SOL     OW43720   9.485   2.059   8.981 -0.4041  0.2217 -0.1642
14381SOL    HW143721   9.510   1.973   8.946 -0.1593  1.1251 -2.3914
14381SOL    HW243722   9.390   2.055   8.987 -0.5806  0.4162 -2.1860
14382SOL     OW43723   6.365   9.124   7.885 -0.1510  0.3662 -0.2157
14382SOL    HW143724   6.372   9.214   7.854  0.8272  0.5194  0.3890
14382SOL    HW243725   6.362   9.070   7.806 -0.6257  0.9140 -0.5777
14383SOL     OW43726   1.238   1.476   6.559 -0.4061  0.1342 -0.2323
14383SOL    HW143727   1.149   1.506   6.580 -1.5577 -0.7846 -3.1854
14383SOL    HW243728   1.231   1.381   6.560  0.9401  0.0342  0.8255
14384SOL     OW43729   1.691   2.259   8.978 -0.3817 -0.1454 -0.5403
14384SOL    HW143730   1.782   2.241   8.956 -0.6237 -1.7530 -0.3622
14384SOL    HW243731   1.658   2.312   8.905  0.6805  0.4534 -0.5982
14385SOL     OW43732   7.958   8.290   6.509 -0.3834 -0.0266  0.3909
14385SOL    HW143733   7.869   8.274   6.477 -0.4371 -0.3330  0.6940
14385SOL    HW243734   7.975   8.382   6.488 -0.2068 -0.3641 -1.0322
14386SOL     OW43735   8.606   9.590   4.085  0.3228 -0.1936  0.0193
14386SOL    HW143736   8.662   9.568   4.011 -0.6413 -0.2764 -0.7171
14386SOL    HW243737   8.523   9.616   4.045  0.5843  2.3448  0.9681
14387SOL     OW43738   3.853   0.092   1.601 -0.1998  0.3847 -0.1458
14387SOL    HW143739   3.922   0.049   1.551 -1.5975 -1.3046 -0.7099
14387SOL    HW243740   3.847   0.179   1.562  1.2151  0.3921 -0.4355
14388SOL     OW43741   0.181   5.521   2.671  0.3241  0.0798  0.4930
14388SOL    HW143742   0.260   5.491   2.717  0.1716  0.0142  0.7133
14388SOL    HW243743   0.142   5.586   2.730 -0.4889 -0.8331  0.9753
14389SOL     OW43744   7.963   1.668   4.122  0.5376  0.1591  0.4668
14389SOL    HW143745   7.911   1.684   4.201  1.4910 -1.0168  1.3620
14389SOL    HW243746   8.052   1.653   4.154  0.8599 -0.7828 -0.7940
14390SOL     OW43747   7.001   8.321   8.068  0.0972 -0.5322  0.1880
14390SOL    HW143748   7.012   8.304   7.974 -0.7734  1.7736 -0.4073
14390SOL    HW243749   6.969   8.238   8.104 -1.6273 -0.9018 -1.9670
14391SOL     OW43750   6.549   1.160   1.627  0.1541 -0.6556 -0.5680
14391SOL    HW143751   6.572   1.068   1.643 -0.5108 -0.6407  0.6556
14391SOL    HW243752   6.488   1.156   1.553  0.3088 -1.1879 -0.6733
14392SOL     OW43753   7.465   7.850   2.159 -1.4165 -0.5262  0.2854
14392SOL    HW143754   7.404   7.779   2.175  1.4042 -2.8514  1.7231
14392SOL    HW243755   7.476   7.894   2.243 -2.4075  1.0983 -0.3740
14393SOL     OW43756   7.187   1.749   0.106  0.9135 -0.0320 -0.1458
14393SOL    HW143757   7.148   1.667   0.077 -2.3579  1.5471 -0.7108
14393SOL    HW243758   7.185   1.743   0.202  0.5769 -0.5716 -0.1797
14394SOL     OW43759   6.670   3.505  -0.031 -0.0641  0.2590 -0.6593
14394SOL    HW143760   6.699   3.500   0.060 -0.9382 -0.8897 -0.4145
14394SOL    HW243761   6.577   3.483  -0.028  0.2017 -1.2610 -1.9659
14395SOL     OW43762   4.134   1.112   2.071  0.0620  0.4978  0.1702
14395SOL    HW143763   4.106   1.024   2.047 -1.6243  0.9429  0.3736
14395SOL    HW243764   4.198   1.137   2.004 -2.4712  0.6679 -2.3713
14396SOL     OW43765   8.027   0.909   6.458  0.3803 -0.2197  0.3869
14396SOL    HW143766   8.072   0.990   6.484 -0.3614  0.0285  0.9549
14396SOL    HW243767   8.056   0.893   6.369  1.9441 -0.3224  0.8867
14397SOL     OW43768   7.796   3.216   5.040  0.2335 -0.3224 -0.0563
14397SOL    HW143769   7.784   3.242   5.132  1.6160 -2.5910  0.8425
14397SOL    HW243770   7.887   3.239   5.021  0.0676 -0.2247 -0.7435
14398SOL     OW43771   1.459   3.275   5.475  0.0146  0.0425  0.3515
14398SOL    HW143772   1.404   3.202   5.504 -1.0627  0.9733  0.7437
14398SOL    HW243773   1.507   3.240   5.399 -0.8724 -0.9097  0.2005
14399SOL     OW43774   9.441   2.127   6.998  0.0557 -0.2354  0.3461
14399SOL    HW143775   9.508   2.166   7.055 -0.8169  1.3632  0.3340
14399SOL    HW243776   9.491   2.085   6.928  1.1050 -1.1936  1.6131
14400SOL     OW43777   8.760   0.491   4.497  0.4573 -0.1252  0.3456
14400SOL    HW143778   8.683   0.545   4.480  0.9736  0.1581 -1.1951
14400SOL    HW243779   8.798   0.474   4.411  2.0735 -0.3282  1.0511
14401SOL     OW43780   0.475   0.408   9.017  0.3589 -0.0616 -0.0899
14401SOL    HW143781   0.505   0.351   9.087  1.3437  0.2399 -0.2459
14401SOL    HW243782   0.538   0.394   8.946  1.1140  1.7806  0.1591
14402SOL     OW43783   9.371   3.588   0.038  0.3260  0.2423  0.4903
14402SOL    HW143784   9.316   3.613   0.112 -1.0946 -0.6986 -0.2163
14402SOL    HW243785   9.360   3.658  -0.026 -0.0647  0.0588  0.3525
14403SOL     OW43786   0.949   4.450   7.915  0.0037 -0.1940 -0.4505
14403SOL    HW143787   0.910   4.404   7.840 -0.4542  0.3386 -0.5443
14403SOL    HW243788   0.972   4.380   7.976  0.5050 -0.6504 -1.1378
14404SOL     OW43789   7.069   5.372   0.166 -0.0330 -0.0600  0.3579
14404SOL    HW143790   7.122   5.413   0.098 -1.1610 -1.1110 -1.2233
14404SOL    HW243791   6.997   5.434   0.181 -0.5181 -0.4149 -0.4158
14405SOL     OW43792   7.005   1.643   2.597  0.4247 -0.0290  0.0700
14405SOL    HW143793   6.989   1.626   2.689 -1.0178  2.3019  0.3388
14405SOL    HW243794   7.071   1.579   2.571 -0.3823 -1.8592  2.2625
14406SOL     OW43795   6.746   8.921   5.177  0.1191 -0.5408 -0.5554
14406SOL    HW143796   6.816   8.907   5.113 -1.7485 -1.4262 -2.5200
14406SOL    HW243797   6.673   8.869   5.145 -1.6252  0.6896  1.1732
14407SOL     OW43798   8.872   0.952   2.819 -0.2858 -0.1330 -0.3449
14407SOL    HW143799   8.889   1.006   2.896 -2.0988  0.2960 -0.2027
14407SOL    HW243800   8.898   1.006   2.744  3.4494 -1.2875 -0.0970
14408SOL     OW43801   6.989   3.369   8.783 -0.4835  0.2712 -0.5945
14408SOL    HW143802   6.906   3.392   8.824  0.7202  1.6684  1.2646
14408SOL    HW243803   7.010   3.282   8.817 -0.6952  0.3552 -0.2466
14409SOL     OW43804   6.927   4.365   6.284  0.2720  0.5907  0.5802
14409SOL    HW143805   6.854   4.305   6.270  0.9761 -0.2278  0.2960
14409SOL    HW243806   7.005   4.313   6.260  0.9564  1.3700  1.0792
14410SOL     OW43807   4.219   5.391   0.146 -0.1307  0.2373 -0.3667
14410SOL    HW143808   4.145   5.330   0.142 -0.7260  0.9288 -0.3360
14410SOL    HW243809   4.190   5.465   0.092  1.0697 -0.0200 -1.4148
14411SOL     OW43810   6.933   6.466   4.339 -0.6658 -0.3152  0.1561
14411SOL    HW143811   6.976   6.551   4.332 -1.0076 -0.0541  1.0509
14411SOL    HW243812   6.984   6.419   4.404  0.9592 -1.7260 -1.9982
14412SOL     OW43813   3.359   1.772   9.867 -0.3446 -0.8492 -0.2355
14412SOL    HW143814   3.296   1.763   9.938  0.0602 -2.3254 -0.0185
14412SOL    HW243815   3.306   1.800   9.792 -0.7877  0.6039  0.5877
14413SOL     OW43816   3.671   9.432   1.065  0.5748 -0.2623  0.0872
14413SOL    HW143817   3.645   9.348   1.103  2.7251 -0.5779  1.0007
14413SOL    HW243818   3.752   9.454   1.109  0.3591  2.0560 -0.5464
14414SOL     OW43819   3.539   3.445   1.348 -0.4311 -0.5640  0.1547
14414SOL    HW143820   3.460   3.479   1.390 -1.5365  0.4269 -2.4923
14414SOL    HW243821   3.520   3.353   1.331 -0.0557 -0.9200  1.5285
14415SOL     OW43822   6.171   1.389   0.831 -0.1258 -0.4886 -0.4911
14415SOL    HW143823   6.234   1.452   0.796 -0.2052 -0.5550 -0.7602
14415SOL    HW243824   6.221   1.307   0.837 -0.1411 -0.5019 -0.5469
14416SOL     OW43825   7.239   1.817   5.065 -0.8947  0.0008  0.0935
14416SOL    HW143826   7.292   1.883   5.109 -0.2051 -1.4315  1.5501
14416SOL    HW243827   7.250   1.738   5.119 -1.8084 -1.2570 -1.4626
14417SOL     OW43828   7.442   0.014   8.943  0.6398  0.0473  0.4793
14417SOL    HW143829   7.370   0.077   8.952 -0.1090 -0.6429 -0.5190
14417SOL    HW243830   7.521   0.068   8.944  0.0221  0.9923 -0.1301
14418SOL     OW43831   0.489   0.723   8.928 -0.4403  0.3643 -0.8474
14418SOL    HW143832   0.501   0.636   8.890 -0.2012 -0.4114  0.8850
14418SOL    HW243833   0.571   0.741   8.973 -1.2126  0.5357  0.5611
14419SOL     OW43834   6.806   5.916   6.721 -0.1849  0.0754 -0.3568
14419SOL    HW143835   6.724   5.952   6.755 -0.3004  1.0537 -1.5948
14419SOL    HW243836   6.778   5.840   6.669 -0.3372  0.4362 -0.8179
14420SOL     OW43837   7.873   0.573   8.467  0.0293 -0.8842 -0.1350
14420SOL    HW143838   7.856   0.656   8.422  1.7801 -0.7635 -0.6416
14420SOL    HW243839   7.938   0.595   8.534 -1.2558 -1.4074  1.3227
14421SOL     OW43840   6.084   9.662   7.137 -0.1323  0.1239 -0.4594
14421SOL    HW143841   6.063   9.755   7.135 -0.1372  0.1255 -0.3338
14421SOL    HW243842   6.000   9.619   7.149 -0.0160  0.1526  0.5339
14422SOL     OW43843   7.693   3.129   1.366 -0.2583 -0.4157  0.0711
14422SOL    HW143844   7.758   3.128   1.436 -1.8387  1.4515  1.7010
14422SOL    HW243845   7.609   3.117   1.412 -1.1836 -1.9358 -1.8530
14423SOL     OW43846   9.763   3.686   2.089  0.3370  0.1080  0.2640
14423SOL    HW143847   9.859   3.689   2.087  0.5779 -3.3642  1.1331
14423SOL    HW243848   9.736   3.771   2.054  3.6872  0.7080 -1.2317
14424SOL     OW43849   6.087   5.954   2.258  0.5627 -0.8102  1.0302
14424SOL    HW143850   6.034   5.888   2.214  1.5609 -0.9162 -0.0537
14424SOL    HW243851   6.024   6.022   2.283 -0.1671 -1.2095  0.3236
14425SOL     OW43852   5.216   9.093   6.261 -0.1847 -0.3867 -0.3657
14425SOL    HW143853   5.219   9.116   6.168 -0.7261 -1.5037 -0.6749
14425SOL    HW243854   5.170   9.009   6.264 -1.1262  0.1403  1.0186
14426SOL     OW43855   7.363   8.253   3.966  0.1340  0.3027  0.4661
14426SOL    HW143856   7.364   8.161   3.938  1.0175 -0.0534  1.5802
14426SOL    HW243857   7.407   8.300   3.895 -1.0917  0.0118 -0.5133
14427SOL     OW43858   7.112   0.614   3.718  0.1506 -0.4285 -0.3223
14427SOL    HW143859   7.112   0.523   3.745 -0.4652 -0.0613  0.9990
14427SOL    HW243860   7.059   0.616   3.638  0.7832 -1.3169 -0.7785
14428SOL     OW43861   0.550   1.108   7.728 -0.3266  0.0053 -0.1073
14428SOL    HW143862   0.489   1.181   7.736  2.1627  2.0672  2.2869
14428SOL    HW243863   0.555   1.071   7.817  0.8473 -1.0005 -0.5627
14429SOL     OW43864   9.940   8.466   3.514  0.5615 -0.3792  0.1095
14429SOL    HW143865   9.902   8.380   3.533  1.7189 -1.3388 -1.7005
14429SOL    HW243866   9.912   8.484   3.424  1.5422  0.4671 -0.0287
14430SOL     OW43867   0.782   9.212   2.298 -1.0059 -0.6130  0.7231
14430SOL    HW143868   0.826   9.173   2.374  1.1779  3.2263  1.6936
14430SOL    HW243869   0.697   9.240   2.332 -0.9398 -0.8798  1.1140
14431SOL     OW43870   6.396   8.072   0.542 -0.0003 -0.4347 -0.3018
14431SOL    HW143871   6.443   8.029   0.471  2.1947  1.3757 -0.0500
14431SOL    HW243872   6.408   8.166   0.526 -0.9097  0.0429  1.5198
14432SOL     OW43873   0.462   9.983   7.242  0.1727 -0.1736 -0.1622
14432SOL    HW143874   0.406   9.943   7.175 -1.0209  1.3330 -0.1295
14432SOL    HW243875   0.551   9.969   7.210 -0.3523  0.1694 -1.8960
14433SOL     OW43876   2.278   6.520   8.585 -0.1015  0.4734 -0.2098
14433SOL    HW143877   2.294   6.587   8.518  0.7133  1.0744  0.5579
14433SOL    HW243878   2.207   6.556   8.638 -0.3510  0.2603 -0.3954
14434SOL     OW43879   2.822   3.828   8.004 -0.1462 -0.4890  0.1579
14434SOL    HW143880   2.897   3.823   8.064  1.3893  1.7124 -1.4417
14434SOL    HW243881   2.849   3.890   7.937 -3.8059  1.1351 -0.0093
14435SOL     OW43882   2.821   3.165   6.148 -0.0500  0.3784  0.1080
14435SOL    HW143883   2.746   3.117   6.184  0.4183 -0.2864  0.2130
14435SOL    HW243884   2.876   3.185   6.223  0.0108  0.6287 -0.0030
14436SOL     OW43885   3.505   9.294   5.190  0.5301  0.5454 -0.2268
14436SOL    HW143886   3.451   9.225   5.228  0.9001  0.5272  0.2799
14436SOL    HW243887   3.448   9.338   5.126  0.1584  0.0571 -0.2308
14437SOL     OW43888   6.312   2.171   4.538  0.0966  0.8257  0.3158
14437SOL    HW143889   6.330   2.208   4.452 -1.1915 -0.4874 -0.5441
14437SOL    HW243890   6.383   2.108   4.552  0.8250  1.6886  0.6553
14438SOL     OW43891   8.595   6.561   5.998  0.0803  0.0085 -0.2332
14438SOL    HW143892   8.660   6.541   5.931  0.3709  1.1699 -0.3251
14438SOL    HW243893   8.606   6.655   6.015 -0.7910 -0.0177  0.5849
14439SOL     OW43894   6.566   8.863   8.019 -0.0102 -0.6448  0.2046
14439SOL    HW143895   6.640   8.837   8.075  0.1015  1.7612  1.3062
14439SOL    HW243896   6.489   8.824   8.062  0.3028 -0.5190  0.9024
14440SOL     OW43897   8.374   0.622   2.898 -0.1028 -0.4334  0.0172
14440SOL    HW143898   8.284   0.641   2.924  0.0191 -0.9745  0.8882
14440SOL    HW243899   8.390   0.533   2.932  0.6772 -0.4350 -0.3364
14441SOL     OW43900   4.608   5.419   6.356 -0.1861 -0.0151  0.3513
14441SOL    HW143901   4.537   5.429   6.420  0.0727  0.0404  0.6322
14441SOL    HW243902   4.688   5.434   6.407  0.0088  0.2995 -0.0456
14442SOL     OW43903   6.388   9.099   5.125  0.1541 -0.1103  0.2350
14442SOL    HW143904   6.315   9.080   5.066  1.4594 -1.0869 -1.1203
14442SOL    HW243905   6.353   9.081   5.212 -0.9864 -1.3601 -0.4439
14443SOL     OW43906   0.389   2.518   1.610 -0.5068  0.0505 -0.0965
14443SOL    HW143907   0.390   2.535   1.704  0.2154 -0.6829  0.0421
14443SOL    HW243908   0.344   2.593   1.572 -0.3756  0.5887  0.7878
14444SOL     OW43909   9.429   9.030   4.866  0.6444  0.5323 -0.1464
14444SOL    HW143910   9.433   9.019   4.961  0.4196 -2.3460 -0.3627
14444SOL    HW243911   9.359   8.971   4.839  0.2734  1.7802 -2.0815
14445SOL     OW43912   5.837   0.055   6.235  0.2158  0.4903  0.0903
14445SOL    HW143913   5.790   0.136   6.215 -0.7616 -0.0493  0.1550
14445SOL    HW243914   5.815   0.037   6.326  2.4201  1.4435  0.8929
14446SOL     OW43915   2.782   7.021   3.325  0.0253  0.0994  0.1325
14446SOL    HW143916   2.802   6.928   3.318  2.5930  0.6488 -1.1218
14446SOL    HW243917   2.687   7.026   3.320 -0.1788 -2.4469  0.3737
14447SOL     OW43918   8.474   2.765   4.733 -0.1815  0.2819 -0.0851
14447SOL    HW143919   8.550   2.816   4.761 -0.0000  0.0160 -0.0892
14447SOL    HW243920   8.425   2.825   4.677  0.2593  0.3068 -0.4525
14448SOL     OW43921   0.388   3.071   3.005 -0.3842 -0.2844 -0.2217
14448SOL    HW143922   0.310   3.024   2.977 -0.6019 -0.0619  0.0020
14448SOL    HW243923   0.355   3.151   3.046 -0.2575 -1.7421  3.0271
14449SOL     OW43924   9.293   9.339   8.493 -0.5077  0.0575  0.1638
14449SOL    HW143925   9.213   9.323   8.543 -1.1864  0.6927 -0.6906
14449SOL    HW243926   9.328   9.251   8.476 -0.3862 -0.1756  1.5191
14450SOL     OW43927   8.672   9.876   9.805  0.1658 -0.0867 -0.1194
14450SOL    HW143928   8.595   9.906   9.854  1.1523  1.3363  0.6504
14450SOL    HW243929   8.719   9.820   9.866  0.7779  0.7044  0.1436
14451SOL     OW43930   3.161   5.728   0.685 -0.1617  0.4935  0.3688
14451SOL    HW143931   3.200   5.815   0.693 -1.0994  1.0453 -0.7942
14451SOL    HW243932   3.104   5.734   0.608 -0.6625 -0.9894  0.5930
14452SOL     OW43933   6.263   8.450   4.947 -0.7194 -0.2679  0.4663
14452SOL    HW143934   6.295   8.361   4.958  0.0254  0.0301  0.7750
14452SOL    HW243935   6.341   8.501   4.923 -0.8940  0.5370  1.5399
14453SOL     OW43936   4.339   8.914   0.769 -0.1756  0.1439  0.3291
14453SOL    HW143937   4.407   8.917   0.702  0.6600 -1.2349  1.0647
14453SOL    HW243938   4.293   8.832   0.753 -1.9861  1.2375 -0.4057
14454SOL     OW43939   1.105   2.886   3.851  0.6287  0.3871  0.5394
14454SOL    HW143940   1.142   2.815   3.905 -0.3059 -2.5599 -2.3632
14454SOL    HW243941   1.175   2.911   3.792 -0.4206 -1.9303 -1.8717
14455SOL     OW43942   7.851   0.845   8.452 -0.3359  0.3446  0.5516
14455SOL    HW143943   7.926   0.890   8.491  0.2998 -1.9609  2.2147
14455SOL    HW243944   7.776   0.877   8.502 -0.4658  2.2746 -0.7800
14456SOL     OW43945   4.756   6.254   2.313  0.2039  0.4334  0.6690
14456SOL    HW143946   4.724   6.337   2.278  0.5762  0.5509  0.6036
14456SOL    HW243947   4.744   6.191   2.242 -0.2092  0.3988  0.7669
14457SOL     OW43948   3.265   5.881   9.191  0.2979  0.1616 -0.2564
14457SOL    HW143949   3.276   5.836   9.275 -3.1010  1.4985  1.0767
14457SOL    HW243950   3.333   5.948   9.190  1.4643 -0.9670  0.5937
14458SOL     OW43951   6.342   0.049   2.091 -0.2237 -0.2374  0.2328
14458SOL    HW143952   6.416   0.086   2.139  0.1572 -1.0067  0.2444
14458SOL    HW243953   6.313   0.119   2.033  0.8706 -0.1186 -0.1823
14459SOL     OW43954   1.433   5.804   5.905  0.5131  0.1564 -0.4495
14459SOL    HW143955   1.418   5.716   5.939 -1.2681 -0.5813 -2.8717
14459SOL    HW243956   1.361   5.856   5.941  2.2779  1.0854  2.0537
14460SOL     OW43957   7.209   9.118   3.569  0.3027  0.0699 -0.2856
14460SOL    HW143958   7.211   9.035   3.522 -1.0724  0.5249 -1.2082
14460SOL    HW243959   7.295   9.125   3.610 -0.1237 -2.6582  1.3243
14461SOL     OW43960   6.727   5.559   2.009 -0.3741 -0.3317 -0.7024
14461SOL    HW143961   6.791   5.522   1.947 -1.0517  2.0501 -3.0019
14461SOL    HW243962   6.652   5.500   2.004 -0.4381 -0.1696 -2.2857
14462SOL     OW43963   2.203   2.334   7.427 -0.2655 -0.3967 -0.1804
14462SOL    HW143964   2.247   2.266   7.478 -0.1391 -1.3753 -1.5422
14462SOL    HW243965   2.259   2.348   7.351 -1.4578 -0.4995 -1.1232
14463SOL     OW43966   7.403   6.164   3.221  0.2305 -0.0885  0.0366
14463SOL    HW143967   7.479   6.220   3.242 -0.2717  0.2229  1.1032
14463SOL    HW243968   7.402   6.160   3.126  1.8519 -0.4540 -0.0018
14464SOL     OW43969   1.591   6.967   5.584  0.0187  0.0309  0.3971
14464SOL    HW143970   1.618   7.057   5.564 -1.3006  0.4916  0.5751
14464SOL    HW243971   1.619   6.954   5.675  1.8508 -0.4263 -0.1735
14465SOL     OW43972   4.482   3.403   2.099  1.0472 -0.0028  0.0593
14465SOL    HW143973   4.560   3.454   2.079  0.3263  0.6345 -1.2646
14465SOL    HW243974   4.515   3.316   2.121  2.3214  1.0671  2.7833
14466SOL     OW43975   7.269   5.043   6.289  0.9231  0.0896 -0.2618
14466SOL    HW143976   7.303   4.992   6.216  1.0550 -0.4867  0.1966
14466SOL    HW243977   7.201   4.988   6.327  0.5997  0.5447 -0.1729
14467SOL     OW43978   3.060   6.655   1.313 -0.7253  0.3483 -0.3161
14467SOL    HW143979   3.103   6.737   1.338 -0.7866 -0.3827  2.5377
14467SOL    HW243980   2.988   6.683   1.256  0.1096  2.1162 -0.5840
14468SOL     OW43981   5.795   7.570   5.791  0.5365  0.6367  0.2387
14468SOL    HW143982   5.849   7.493   5.808  0.9589  1.3600  2.6037
14468SOL    HW243983   5.853   7.630   5.743  0.4388 -0.1941 -0.9575
14469SOL     OW43984   4.957   4.775   7.193 -0.1736  0.1870 -1.1145
14469SOL    HW143985   5.048   4.747   7.201  0.1405  1.4800  0.1799
14469SOL    HW243986   4.912   4.697   7.160  1.0331 -1.1862  0.2608
14470SOL     OW43987   0.372   8.195   9.830 -0.0351 -0.1471 -0.1419
14470SOL    HW143988   0.340   8.170   9.744  0.4867 -0.8189 -0.1555
14470SOL    HW243989   0.463   8.165   9.831 -0.6217 -2.1582  1.3837
14471SOL     OW43990   9.328   5.958   7.864 -0.7467  0.3048  0.0512
14471SOL    HW143991   9.390   5.899   7.906 -1.3063  1.4721  2.7275
14471SOL    HW243992   9.260   5.902   7.828 -1.2245 -0.7196  2.4430
14472SOL     OW43993   7.914   9.360   5.037 -0.1462 -0.0203  0.5536
14472SOL    HW143994   7.972   9.387   4.966  0.3674  4.1085  2.2380
14472SOL    HW243995   7.827   9.392   5.012 -0.3594 -0.2946  0.9184
14473SOL     OW43996   9.971   6.310   2.235 -0.3859 -0.4762  0.1175
14473SOL    HW143997   9.886   6.346   2.259 -0.4225  1.0569 -1.9596
14473SOL    HW243998  10.019   6.303   2.317 -2.1134 -0.2696  1.1809
14474SOL     OW43999   1.172   2.239   7.986 -0.4613 -0.1405  0.4880
14474SOL    HW144000   1.129   2.324   8.001 -0.7155  0.1947 -1.8636
14474SOL    HW244001   1.141   2.185   8.059 -2.8498  0.8683  0.3299
14475SOL     OW44002   8.703   7.012   6.970 -0.6955 -0.0358  0.4139
14475SOL    HW144003   8.659   6.928   6.984 -0.9505 -0.1806 -1.0758
14475SOL    HW244004   8.796   6.992   6.976 -0.6815 -0.7981 -1.4851
14476SOL     OW44005   4.657   0.996   8.433  0.1793 -0.1331  0.2077
14476SOL    HW144006   4.727   0.975   8.371  0.3393 -0.0201  0.3487
14476SOL    HW244007   4.577   0.993   8.381  0.2083 -0.9516  0.1905
14477SOL     OW44008   6.566   5.948   6.109  0.7267 -0.3338 -0.1310
14477SOL    HW144009   6.511   5.984   6.039 -0.0480 -3.4468 -1.3077
14477SOL    HW244010   6.640   6.009   6.115 -2.0333  3.2946  0.5868
14478SOL     OW44011   3.815   7.604   1.212  0.0634  0.4931  0.3050
14478SOL    HW144012   3.793   7.676   1.153  0.4698 -0.6720 -1.3233
14478SOL    HW244013   3.782   7.526   1.169  0.1093 -0.3904  1.7833
14479SOL     OW44014   2.852   4.977   8.230  0.3622 -0.2971  0.4016
14479SOL    HW144015   2.817   5.065   8.239  0.7541 -0.1148  0.1929
14479SOL    HW244016   2.876   4.971   8.137  1.4254 -0.2001  0.6552
14480SOL     OW44017   9.310   3.513   6.409  0.4572 -0.6882 -0.4845
14480SOL    HW144018   9.342   3.486   6.495 -1.2252 -1.3782 -0.0313
14480SOL    HW244019   9.230   3.562   6.427  0.9742  0.6155 -1.5867
14481SOL     OW44020   4.542   2.226   0.455 -0.3965 -0.2356  0.1709
14481SOL    HW144021   4.453   2.248   0.428 -0.8443 -1.4233  0.6379
14481SOL    HW244022   4.574   2.165   0.389  0.4844  0.9719 -0.5744
14482SOL     OW44023   5.585   7.256   8.972 -0.1662  0.1167  0.4217
14482SOL    HW144024   5.551   7.327   9.026  0.4844 -0.1309  1.1763
14482SOL    HW244025   5.517   7.190   8.972  0.1367 -0.2071  1.5804
14483SOL     OW44026   3.581   8.470   1.548  0.4480 -0.3789  0.1752
14483SOL    HW144027   3.649   8.479   1.615 -0.4213 -0.0827  1.0360
14483SOL    HW244028   3.513   8.417   1.589 -0.6136  0.7690 -0.0530
14484SOL     OW44029   1.003   8.454   7.995 -0.6381 -0.2119 -0.9202
14484SOL    HW144030   1.032   8.531   7.946  0.1448 -0.0813 -0.2834
14484SOL    HW244031   0.982   8.389   7.928 -1.0351  0.4589 -1.4572
14485SOL     OW44032   1.663   1.395   6.628  0.1390  0.0197 -0.2896
14485SOL    HW144033   1.648   1.468   6.568  0.2729 -0.0489 -0.4062
14485SOL    HW244034   1.690   1.438   6.710  1.4785  0.0664 -0.7246
14486SOL     OW44035   9.366   1.093   8.387 -0.4318 -0.4231  0.1444
14486SOL    HW144036   9.378   1.009   8.341 -0.6160 -0.2724 -0.1814
14486SOL    HW244037   9.391   1.074   8.478 -0.7792 -0.9133  0.1425
14487SOL     OW44038   8.096   4.288   5.136 -0.0100  0.7734 -0.2658
14487SOL    HW144039   8.190   4.271   5.137 -0.1388 -0.1606  2.3638
14487SOL    HW244040   8.089   4.382   5.153  0.4473  0.9139 -0.8364
14488SOL     OW44041   6.472   6.551   9.765  0.1256  0.4046 -0.4885
14488SOL    HW144042   6.469   6.496   9.686  0.8020  1.2088 -1.0939
14488SOL    HW244043   6.408   6.511   9.824  1.0013 -1.3855 -0.6674
14489SOL     OW44044   1.638   3.028   0.598 -0.7978 -0.0684  0.1402
14489SOL    HW144045   1.663   2.989   0.682  1.1423  0.4752 -0.1499
14489SOL    HW244046   1.576   2.965   0.560 -2.5806  0.1649  2.4070
14490SOL     OW44047   7.313   1.461   1.942  0.8669  0.0005  0.2634
14490SOL    HW144048   7.357   1.542   1.968  2.6937 -0.6248 -0.6701
14490SOL    HW244049   7.231   1.490   1.903  1.3755  1.3840  0.1563
14491SOL     OW44050   5.034   9.062   7.153 -0.4726  0.1730 -0.0137
14491SOL    HW144051   5.020   9.149   7.190  0.6928  2.1338 -3.6603
14491SOL    HW244052   4.946   9.028   7.136 -0.9293  1.0951  0.4425
14492SOL     OW44053   4.488   0.972   2.613  0.1853 -0.5388 -0.5060
14492SOL    HW144054   4.568   1.005   2.574  0.3868 -0.9285 -0.4330
14492SOL    HW244055   4.518   0.914   2.683 -0.1362  1.5740  1.5135
14493SOL     OW44056   2.584   6.757   2.278 -0.1293 -0.1867 -0.0140
14493SOL    HW144057   2.648   6.692   2.247  3.1929  1.7782  2.0523
14493SOL    HW244058   2.547   6.717   2.357 -0.0061 -0.5703 -0.1462
14494SOL     OW44059   1.862   3.545   8.589 -0.1007 -0.1606  0.3645
14494SOL    HW144060   1.841   3.506   8.504  0.9238  0.4547 -0.1842
14494SOL    HW244061   1.946   3.589   8.576  1.1030 -1.7334  2.2264
14495SOL     OW44062   9.382   2.339   0.480 -0.3103 -0.9115 -0.1228
14495SOL    HW144063   9.465   2.386   0.477 -1.8534  2.2051  1.1464
14495SOL    HW244064   9.325   2.387   0.420 -1.9235 -1.3076  1.0208
14496SOL     OW44065   3.581   8.591   2.593 -0.0910  0.4040 -0.2277
14496SOL    HW144066   3.594   8.543   2.511 -1.8986 -0.0453 -0.2879
14496SOL    HW244067   3.599   8.682   2.570 -0.1828  0.2323 -1.0306
14497SOL     OW44068   7.839   0.453   0.030  0.4365  0.1898  0.2410
14497SOL    HW144069   7.792   0.388  -0.023  0.0773  1.4611 -1.0452
14497SOL    HW244070   7.802   0.537   0.004  3.0658  1.2166 -0.4817
14498SOL     OW44071   7.496   0.714   6.914 -0.2409 -0.3921  0.3159
14498SOL    HW144072   7.533   0.767   6.985  0.7584 -0.3674 -0.1954
14498SOL    HW244073   7.550   0.635   6.913 -0.6008 -0.6355 -0.0559
14499SOL     OW44074   7.572   1.665   5.665 -0.4278 -0.1452  0.2116
14499SOL    HW144075   7.542   1.670   5.755 -0.2227 -1.5479  0.3819
14499SOL    HW244076   7.497   1.632   5.615 -0.5151  0.5411 -0.1222
14500SOL     OW44077   3.136   0.176   6.063 -0.0565 -0.2914 -0.6132
14500SOL    HW144078   3.064   0.161   6.125  0.4566  0.3509  0.1568
14500SOL    HW244079   3.092   0.185   5.979 -0.9635  0.8220 -0.0546
14501SOL     OW44080   0.741   4.017   2.993 -0.1925  0.3207  0.0901
14501SOL    HW144081   0.832   4.002   2.966 -0.8218  0.1007 -2.1095
14501SOL    HW244082   0.747   4.078   3.066  1.7169  0.5343 -0.1973
14502SOL     OW44083   7.537   7.431   4.526 -0.5046  0.6828 -0.0595
14502SOL    HW144084   7.514   7.357   4.470  0.8660 -0.1449  0.4277
14502SOL    HW244085   7.627   7.452   4.501 -0.1028  0.7232  1.3823
14503SOL     OW44086   3.502   8.156   7.992 -0.1961 -0.0772  0.4001
14503SOL    HW144087   3.517   8.096   7.919 -0.3648 -1.6814  1.6228
14503SOL    HW244088   3.589   8.187   8.017  0.0634 -1.0930  0.7803
14504SOL     OW44089   1.280   2.734   6.272  0.6420  0.1638 -0.6924
14504SOL    HW144090   1.359   2.729   6.218  1.3122 -1.3342  0.3329
14504SOL    HW244091   1.228   2.659   6.244  0.0128  0.6085 -0.7216
14505SOL     OW44092   1.973   1.611   2.039 -0.0621 -0.0602  0.1269
14505SOL    HW144093   1.884   1.626   2.071  0.1142  2.6966 -0.3886
14505SOL    HW244094   1.962   1.584   1.948 -0.4068  0.9626 -0.1522
14506SOL     OW44095   7.875   7.504   6.316  0.1198 -0.5738  0.3618
14506SOL    HW144096   7.953   7.459   6.349 -0.2394 -2.0641 -0.7253
14506SOL    HW244097   7.813   7.434   6.299 -1.8393  0.6235  2.0473
14507SOL     OW44098   7.775   1.560   8.809  0.3307 -0.3089  0.4137
14507SOL    HW144099   7.801   1.652   8.814  0.9873 -0.1116 -3.6041
14507SOL    HW244100   7.734   1.551   8.723  1.5860 -4.0739  0.0261
14508SOL     OW44101   2.859   8.668   4.870 -0.3901 -0.4213 -0.2765
14508SOL    HW144102   2.930   8.603   4.867 -0.7963 -0.9710  1.3097
14508SOL    HW244103   2.878   8.727   4.797  1.6122 -0.6450  0.0132
14509SOL     OW44104   0.483   0.381   7.981  0.1600  0.3793 -0.1240
14509SOL    HW144105   0.532   0.315   8.030  0.8504  0.4371 -0.7098
14509SOL    HW244106   0.391   0.360   7.996  0.3325 -1.4622 -1.2670
14510SOL     OW44107   6.581   4.785   1.122  0.2043 -0.7235 -0.0255
14510SOL    HW144108   6.608   4.870   1.088 -0.0212 -0.2704  0.9103
14510SOL    HW244109   6.499   4.802   1.169 -0.0161 -1.5133 -0.1054
14511SOL     OW44110   1.548   7.477   3.412  0.9501 -0.0889 -0.5421
14511SOL    HW144111   1.620   7.491   3.474  0.2886  0.3491  0.1490
14511SOL    HW244112   1.475   7.446   3.465  0.9557 -1.6562 -1.4032
14512SOL     OW44113   7.862   9.122   2.216 -0.4948 -0.2266 -0.1570
14512SOL    HW144114   7.916   9.087   2.145 -1.0739 -1.4061 -0.0395
14512SOL    HW244115   7.858   9.051   2.280 -0.3622  0.6552  0.8632
14513SOL     OW44116   4.816   3.208   7.824 -0.2254  0.3218 -0.0390
14513SOL    HW144117   4.853   3.121   7.807  0.3314  0.7445 -1.0466
14513SOL    HW244118   4.877   3.269   7.783 -1.3132  1.1201 -0.5362
14514SOL     OW44119   0.046   4.325   3.938  0.3116 -0.4181 -0.1938
14514SOL    HW144120   0.076   4.348   4.026  0.5993  0.0798 -0.4204
14514SOL    HW244121  -0.046   4.348   3.936 -0.1468 -2.0340  0.5372
14515SOL     OW44122   7.799   6.993   0.399  0.0575  0.1058  0.4140
14515SOL    HW144123   7.725   7.009   0.458  0.6111 -0.1678  1.2044
14515SOL    HW244124   7.846   6.920   0.439  1.3687  0.9723  0.5393
14516SOL     OW44125   9.448   1.202   9.269 -0.5936  0.0682 -0.0605
14516SOL    HW144126   9.362   1.170   9.298 -0.6598  0.8670  0.6735
14516SOL    HW244127   9.432   1.293   9.244  0.2493  0.6105  1.2304
14517SOL     OW44128   7.758   0.563   5.283 -0.2081  0.4274 -0.1871
14517SOL    HW144129   7.806   0.509   5.219  1.3826 -1.9912  2.7975
14517SOL    HW244130   7.806   0.553   5.364 -3.0191  2.0101  1.8594
14518SOL     OW44131   0.545   0.813   2.460  0.0748  0.2901 -0.1792
14518SOL    HW144132   0.599   0.833   2.384 -0.5881  0.1732 -0.6866
14518SOL    HW244133   0.455   0.819   2.428 -0.2038 -1.7035  0.0740
14519SOL     OW44134   4.509   8.249   4.778 -0.0107  0.7270  0.0583
14519SOL    HW144135   4.420   8.214   4.780  0.2564 -0.0661 -1.0386
14519SOL    HW244136   4.558   8.192   4.837  0.1414  0.0263 -0.7232
14520SOL     OW44137   3.126   3.144   7.610 -0.0560  0.9795 -0.0294
14520SOL    HW144138   3.193   3.149   7.542  0.2355 -0.1492  0.1568
14520SOL    HW244139   3.162   3.192   7.684 -0.2739  2.0124 -0.5733
14521SOL     OW44140   6.835   7.196   0.158  0.4288 -0.2464  0.0807
14521SOL    HW144141   6.771   7.182   0.228  0.8132  0.1874  0.5299
14521SOL    HW244142   6.793   7.162   0.080 -0.0938 -0.5525  0.4871
14522SOL     OW44143   7.732   3.122   5.917 -0.0723  0.6883 -0.0033
14522SOL    HW144144   7.796   3.111   5.988  0.6488  1.0790 -0.5795
14522SOL    HW244145   7.784   3.113   5.837 -0.8754  0.2645 -0.4901
14523SOL     OW44146   0.539   2.746   0.911  0.2504 -0.0105 -0.1434
14523SOL    HW144147   0.510   2.829   0.949  1.5744 -0.3259  1.6606
14523SOL    HW244148   0.602   2.711   0.974 -0.1733 -2.3462 -0.9176
14524SOL     OW44149   0.135   1.253   7.672 -0.1194  0.0403 -0.1494
14524SOL    HW144150   0.213   1.278   7.721  0.1041  0.4694 -0.7031
14524SOL    HW244151   0.136   1.157   7.671  1.1585  0.0359 -1.2987
14525SOL     OW44152   4.042   9.292   2.747 -0.1571  0.6122 -0.1295
14525SOL    HW144153   4.116   9.287   2.807  1.2636 -0.6523 -1.8855
14525SOL    HW244154   4.012   9.383   2.753 -1.4258  0.1379  3.9293
14526SOL     OW44155   8.204   1.222   1.941  0.8792 -0.3261 -0.0286
14526SOL    HW144156   8.242   1.196   1.857 -0.2501  1.9871 -1.3324
14526SOL    HW244157   8.272   1.276   1.982  0.6237  0.3032 -0.4299
14527SOL     OW44158   2.902   5.731   2.438  0.0408  0.7735 -0.2521
14527SOL    HW144159   2.911   5.813   2.390 -0.0349  0.6144 -0.5438
14527SOL    HW244160   2.812   5.702   2.420 -0.2009  1.0458  0.5267
14528SOL     OW44161   6.346   0.822   0.305 -0.5637  0.0877  0.1477
14528SOL    HW144162   6.264   0.871   0.309 -0.9096 -0.5040  0.3444
14528SOL    HW244163   6.349   0.786   0.216 -0.8162 -0.3956  0.3309
14529SOL     OW44164   3.260   2.197   4.293 -0.5443 -0.7111  0.5549
14529SOL    HW144165   3.330   2.215   4.230  1.0252  0.0301  2.4179
14529SOL    HW244166   3.183   2.179   4.238  0.3867  1.2211 -1.5545
14530SOL     OW44167   2.955   7.045   0.400 -0.3469  0.2127  0.0096
14530SOL    HW144168   2.952   7.121   0.459  0.6060  0.3660 -0.1254
14530SOL    HW244169   2.918   6.973   0.452  1.2965  0.1365  1.1538
14531SOL     OW44170   9.569   8.844   8.852 -0.0437 -0.2346  0.1840
14531SOL    HW144171   9.631   8.913   8.876 -0.7875  0.7907 -0.6982
14531SOL    HW244172   9.528   8.818   8.934 -1.1712  1.8301  0.3485
14532SOL     OW44173   1.288   0.702   5.036 -0.0494 -0.5930  0.4730
14532SOL    HW144174   1.371   0.750   5.035  0.1469 -0.9349 -0.0943
14532SOL    HW244175   1.280   0.668   5.125  0.8283 -1.2630  0.3056
14533SOL     OW44176   2.600   6.791   1.367 -0.1209  0.6918  0.0955
14533SOL    HW144177   2.508   6.815   1.357 -0.2066 -0.0786 -1.1760
14533SOL    HW244178   2.622   6.744   1.286  1.0523 -0.2083  0.8972
14534SOL     OW44179   3.804   9.096   3.334  0.3797 -0.2730 -0.3858
14534SOL    HW144180   3.812   9.191   3.333 -0.3997 -0.2076 -1.2042
14534SOL    HW244181   3.855   9.068   3.411 -1.5725  1.0006  1.4783
14535SOL     OW44182   3.277   8.309   5.824 -0.4363 -0.3632 -0.3025
14535SOL    HW144183   3.306   8.274   5.908 -1.5756 -1.0038 -0.1538
14535SOL    HW244184   3.305   8.245   5.759 -1.2618 -0.8671 -0.1827
14536SOL     OW44185   3.619   3.103   3.233  0.1445  0.1209 -0.2478
14536SOL    HW144186   3.526   3.125   3.234  0.3517  1.0484 -0.1390
14536SOL    HW244187   3.636   3.066   3.319  0.0037  0.5245 -0.0458
14537SOL     OW44188   0.430   0.858   5.693 -0.0987 -0.2894  0.6027
14537SOL    HW144189   0.345   0.836   5.732 -1.4473  2.1926 -0.7459
14537SOL    HW244190   0.460   0.935   5.741  0.1644  0.3442 -0.5306
14538SOL     OW44191   9.368   8.342   1.471  0.4768  0.1635  0.0041
14538SOL    HW144192   9.461   8.320   1.469  0.5251  0.3153  0.4220
14538SOL    HW244193   9.324   8.259   1.486  0.5148  0.0284 -0.6199
14539SOL     OW44194   7.601   6.760   2.168 -0.3388  0.2397  0.1775
14539SOL    HW144195   7.635   6.717   2.246 -2.5646 -1.4893  0.3260
14539SOL    HW244196   7.583   6.850   2.195  1.0042  0.2904  0.9649
14540SOL     OW44197   2.759   8.637   9.157 -0.1253 -0.1977 -0.5833
14540SOL    HW144198   2.845   8.652   9.118 -0.6527  3.1605 -0.8153
14540SOL    HW244199   2.709   8.594   9.088  0.9989 -1.1283 -0.8585
14541SOL     OW44200   0.051   3.172   0.437  0.3696  0.2413 -0.2135
14541SOL    HW144201  -0.032   3.219   0.429 -1.2828 -2.1556  1.6460
14541SOL    HW244202   0.089   3.203   0.519 -0.5844 -1.3258  0.8697
14542SOL     OW44203   3.406   0.989   0.011 -0.4685  0.0886  0.0612
14542SOL    HW144204   3.465   0.920   0.040  1.7870  1.2698 -1.3396
14542SOL    HW244205   3.334   0.943  -0.033 -0.2294 -1.4002  1.1716
14543SOL     OW44206   8.010   5.467   7.409  0.6959 -0.5308 -0.2420
14543SOL    HW144207   7.953   5.541   7.388  1.9780  0.1502 -1.4346
14543SOL    HW244208   7.962   5.390   7.375 -0.9202 -0.3930  1.5393
14544SOL     OW44209   3.326   2.520   4.122 -0.1717  0.1853 -0.6646
14544SOL    HW144210   3.252   2.466   4.093 -0.1436  0.2349 -0.8308
14544SOL    HW244211   3.382   2.527   4.045 -0.6425  1.2363 -0.9236
14545SOL     OW44212   7.164   5.191   2.164 -0.5110 -0.4103  0.5200
14545SOL    HW144213   7.109   5.146   2.098 -2.0009  1.4501  0.4151
14545SOL    HW244214   7.104   5.253   2.206  1.5773  1.9610  0.1834
14546SOL     OW44215   0.157   8.206   7.447  0.0744 -0.4670  0.2063
14546SOL    HW144216   0.095   8.254   7.392  0.1159 -2.7806 -2.0649
14546SOL    HW244217   0.241   8.250   7.431 -0.2369  0.0172 -0.1525
14547SOL     OW44218   0.981   3.761   2.096 -0.8337 -0.5150 -0.2454
14547SOL    HW144219   0.931   3.691   2.138 -0.3832 -1.3136 -0.9864
14547SOL    HW244220   1.072   3.729   2.098 -0.7232 -0.2989 -1.2471
14548SOL     OW44221   3.535   0.856   0.952 -0.2605  0.6354  0.1870
14548SOL    HW144222   3.517   0.766   0.978 -1.1682  1.1860  1.5443
14548SOL    HW244223   3.526   0.855   0.856 -1.0843 -0.5446  0.2517
14549SOL     OW44224   7.754   3.102   5.310 -0.0843  0.0992 -0.2181
14549SOL    HW144225   7.784   3.025   5.263 -0.9154  0.0411 -0.6796
14549SOL    HW244226   7.693   3.067   5.376  0.0612  0.3014  0.0273
14550SOL     OW44227   6.749   3.739   8.821  0.1019 -0.5429 -0.0097
14550SOL    HW144228   6.792   3.700   8.745  1.0416 -0.2312  0.3461
14550SOL    HW244229   6.658   3.751   8.794  0.9238  2.0266 -2.0958
14551SOL     OW44230   2.988   9.772   5.444  0.2316 -0.0282 -0.5542
14551SOL    HW144231   2.955   9.786   5.533 -0.1866  1.4832 -0.9178
14551SOL    HW244232   3.033   9.854   5.422 -0.3223 -0.0926 -2.0057
14552SOL     OW44233   3.923   4.516   5.426 -0.0517  0.1557  0.2544
14552SOL    HW144234   3.874   4.479   5.352  1.0866  0.7979 -0.8643
14552SOL    HW244235   3.871   4.494   5.503 -0.9192 -1.1586 -0.6628
14553SOL     OW44236   9.718   0.737   9.842 -0.2403 -0.5556 -0.3403
14553SOL    HW144237   9.811   0.715   9.840  0.3377  1.6378 -1.0917
14553SOL    HW244238   9.685   0.706   9.758  0.1185 -0.2113 -0.6138
14554SOL     OW44239   5.436   2.825   2.858  0.0970  0.0466  0.3323
14554SOL    HW144240   5.503   2.765   2.825 -0.0457  0.4402 -0.6985
14554SOL    HW244241   5.377   2.769   2.910  0.1364 -0.6499 -0.3530
14555SOL     OW44242   5.332   0.700   6.769 -0.4277  0.3059  0.5726
14555SOL    HW144243   5.375   0.687   6.853 -0.3224 -0.0662  0.4638
14555SOL    HW244244   5.356   0.789   6.744  2.1645 -0.5905 -0.5326
14556SOL     OW44245   6.941   3.376   4.700  0.1233  0.1051  0.1532
14556SOL    HW144246   7.007   3.314   4.732 -2.0816 -1.6044  1.7665
14556SOL    HW244247   6.959   3.385   4.607  1.4391 -1.8273  0.1581
14557SOL     OW44248   5.262   7.726   5.307  0.0898 -0.4788 -0.0920
14557SOL    HW144249   5.326   7.798   5.308  0.7544 -1.0640  0.0008
14557SOL    HW244250   5.294   7.664   5.372 -0.8734 -0.5363  0.3536
14558SOL     OW44251   0.580   5.415   4.669  0.1159 -0.5890  0.4391
14558SOL    HW144252   0.489   5.427   4.640 -0.1161 -1.8649  0.5874
14558SOL    HW244253   0.633   5.444   4.595 -0.4349 -1.0496 -0.1478
14559SOL     OW44254   0.451   4.763   9.947 -0.8955  0.2895 -0.0168
14559SOL    HW144255   0.435   4.780   9.854 -1.2722  1.2849  0.2250
14559SOL    HW244256   0.434   4.846   9.990 -1.5473 -0.3833  1.0578
14560SOL     OW44257   3.787   1.065   0.192  0.7297 -0.0683  0.3446
14560SOL    HW144258   3.698   1.098   0.188  0.7311 -0.1389 -0.4283
14560SOL    HW244259   3.842   1.138   0.161  0.9832  0.1026  1.1604
14561SOL     OW44260   9.175   4.431   4.376 -0.0301  0.2789  0.4133
14561SOL    HW144261   9.183   4.517   4.335  0.9101 -0.1137 -0.2762
14561SOL    HW244262   9.087   4.401   4.350  0.5937 -0.0321 -1.5538
14562SOL     OW44263   3.890   6.951   1.380  0.8775  0.1000  0.1808
14562SOL    HW144264   3.985   6.942   1.380  1.2233  2.9356  0.2910
14562SOL    HW244265   3.861   6.906   1.459  2.2610  0.2973  0.8194
14563SOL     OW44266   0.852   5.760   3.252 -0.1707  0.1697  0.5152
14563SOL    HW144267   0.801   5.755   3.333 -1.4681  0.9713 -0.2185
14563SOL    HW244268   0.942   5.767   3.282 -0.6319  0.6950  1.9089
14564SOL     OW44269   2.597   3.416   1.964  0.3956  0.1876  0.0826
14564SOL    HW144270   2.606   3.359   2.041 -0.0975 -1.9766 -1.3884
14564SOL    HW244271   2.684   3.451   1.950  0.4575  0.7700  1.7192
14565SOL     OW44272   7.061   0.721   0.897 -0.2286  0.4106  0.3339
14565SOL    HW144273   7.096   0.739   0.984  1.8605 -0.1869 -0.3099
14565SOL    HW244274   7.009   0.798   0.875  1.4750  1.8372  1.0439
14566SOL     OW44275   4.208   5.814   3.597  0.1128 -0.0258  0.1785
14566SOL    HW144276   4.129   5.785   3.643 -0.0735 -0.1106 -0.1964
14566SOL    HW244277   4.280   5.784   3.653 -0.1319  1.9238  1.6466
14567SOL     OW44278   4.995   2.582   3.485  0.3867  0.1601  0.3044
14567SOL    HW144279   5.034   2.512   3.433 -0.3581 -0.6623  0.8295
14567SOL    HW244280   5.047   2.659   3.464  1.2030 -0.5404 -0.3114
14568SOL     OW44281   5.415   7.788   7.472  0.2794 -0.2470 -0.4224
14568SOL    HW144282   5.348   7.854   7.489  0.8853 -0.1093  1.5809
14568SOL    HW244283   5.380   7.708   7.511  0.2943 -0.7403 -1.3856
14569SOL     OW44284   4.291   7.720   9.614 -0.1751 -1.0216  0.5386
14569SOL    HW144285   4.213   7.753   9.658 -0.7122  2.0410 -2.3057
14569SOL    HW244286   4.261   7.642   9.567 -0.9369 -1.1119  1.1511
14570SOL     OW44287   8.686   6.251   2.093  0.2480  0.0022  0.4132
14570SOL    HW144288   8.639   6.284   2.017 -0.9469 -0.5432  0.9001
14570SOL    HW244289   8.776   6.237   2.061 -0.5707 -1.7156 -1.3401
14571SOL     OW44290   9.397   8.689   7.466 -0.1313 -0.0520  0.0386
14571SOL    HW144291   9.337   8.709   7.538  0.2769 -0.2107  0.4306
14571SOL    HW244292   9.402   8.593   7.465  0.4343 -0.0322  0.2834
14572SOL     OW44293   2.113   8.827   9.430  0.1217 -0.1109 -0.3418
14572SOL    HW144294   2.126   8.824   9.335  1.1482  0.3424 -0.2351
14572SOL    HW244295   2.032   8.780   9.445 -0.9497  1.2485 -1.5997
14573SOL     OW44296   6.912   9.473   9.841 -0.3455 -0.1871 -1.0032
14573SOL    HW144297   7.004   9.467   9.816 -0.0055  1.2160 -0.2174
14573SOL    HW244298   6.890   9.387   9.876  1.2495  0.0389  0.6497
14574SOL     OW44299   8.981   8.170   7.774 -0.3710 -0.0422  0.2242
14574SOL    HW144300   8.998   8.158   7.680  2.4420 -0.5992  0.7095
14574SOL    HW244301   9.047   8.233   7.802 -1.5818  0.6025  1.7551
14575SOL     OW44302   7.531   5.454   2.433  0.4600  0.5102 -0.1896
14575SOL    HW144303   7.606   5.405   2.398  1.1473 -1.0990  3.1615
14575SOL    HW244304   7.458   5.392   2.428  0.2674  0.7204  0.0361
14576SOL     OW44305   7.908   2.719   4.653 -0.0788  0.4048 -0.1127
14576SOL    HW144306   7.884   2.707   4.745  1.8052 -0.2036  0.3548
14576SOL    HW244307   7.896   2.633   4.614 -1.5431  0.8180 -0.6530
14577SOL     OW44308   9.762   6.788   4.664 -0.3394  0.3985 -0.0923
14577SOL    HW144309   9.792   6.876   4.644  2.2120 -0.2851  0.3297
14577SOL    HW244310   9.732   6.753   4.580  0.6623  0.9643 -0.7107
14578SOL     OW44311   2.638   5.630   2.308  0.1141 -1.0686 -0.1690
14578SOL    HW144312   2.595   5.564   2.362 -0.8459  0.0114  0.4381
14578SOL    HW244313   2.566   5.681   2.270  0.8270 -0.1866 -0.3776
14579SOL     OW44314   8.306   0.499   7.345  0.7492  0.6125 -0.1426
14579SOL    HW144315   8.324   0.501   7.251 -0.5214 -0.2864 -0.4423
14579SOL    HW244316   8.369   0.437   7.381 -0.9655 -1.8314 -1.0223
14580SOL     OW44317   0.797   8.196   9.136 -0.0171  0.3220  0.0033
14580SOL    HW144318   0.874   8.250   9.156 -0.1104 -0.1987  1.9778
14580SOL    HW244319   0.726   8.236   9.186 -0.5881 -0.3527 -0.2439
14581SOL     OW44320   5.194   8.002   3.058 -0.2287  0.4437 -0.2366
14581SOL    HW144321   5.257   7.986   3.128 -0.7059 -0.3032  0.0442
14581SOL    HW244322   5.247   8.021   2.981  0.3095  1.1463  0.2937
14582SOL     OW44323   6.623   2.669   5.122 -0.3082  0.7540 -0.6641
14582SOL    HW144324   6.650   2.695   5.034 -2.4294  1.1373 -1.2719
14582SOL    HW244325   6.565   2.594   5.108  0.4868 -0.1034  0.5388
14583SOL     OW44326   0.378   2.878   6.388  0.7717  0.3281  0.5923
14583SOL    HW144327   0.331   2.904   6.309  2.9940  1.2496 -0.5230
14583SOL    HW244328   0.310   2.850   6.448 -1.0495 -0.1166 -1.5267
14584SOL     OW44329   8.572   9.902   0.226 -0.4094  0.1599  0.4537
14584SOL    HW144330   8.664   9.876   0.234 -0.6906 -0.8534  0.5629
14584SOL    HW244331   8.535   9.886   0.313 -0.7933  0.1015  0.2811
14585SOL     OW44332   1.540   5.594   6.241 -0.2767  0.2731  0.2946
14585SOL    HW144333   1.587   5.526   6.287 -0.6534 -0.1238  0.1045
14585SOL    HW244334   1.586   5.675   6.263 -0.0100 -0.0040  0.7614
14586SOL     OW44335   3.904   1.798   0.746  0.2255 -0.4866 -0.1466
14586SOL    HW144336   3.948   1.714   0.730  1.8326  0.6125 -1.9193
14586SOL    HW244337   3.923   1.850   0.668 -1.7540  1.1414  0.3684
14587SOL     OW44338   5.070   5.526   0.980 -0.0014  0.0764  0.0417
14587SOL    HW144339   5.125   5.554   1.054 -1.6704  0.5765  1.1374
14587SOL    HW244340   5.129   5.528   0.905  1.8251 -0.6963  1.3701
14588SOL     OW44341   5.460   7.318   0.292  0.2721  0.1016 -0.2667
14588SOL    HW144342   5.411   7.377   0.348 -0.5199  0.2675 -1.1042
14588SOL    HW244343   5.416   7.324   0.207  3.2826  2.2607 -1.8419
14589SOL     OW44344   4.734   1.835   7.160  0.4116  0.3851 -0.0446
14589SOL    HW144345   4.731   1.740   7.170 -0.2926  0.4029 -0.0197
14589SOL    HW244346   4.722   1.850   7.066  1.4592  0.4218 -0.1844
14590SOL     OW44347   6.495   5.110   0.447 -0.0161  0.0306 -0.3044
14590SOL    HW144348   6.529   5.197   0.469 -1.9640  0.9098 -0.4802
14590SOL    HW244349   6.521   5.097   0.356 -1.3080  1.3274 -0.9050
14591SOL     OW44350   4.581   3.420   6.618 -0.1981  0.5720 -0.2113
14591SOL    HW144351   4.534   3.502   6.601  0.3793  1.0313  0.3723
14591SOL    HW244352   4.648   3.416   6.550  0.3167  1.0154  0.2601
14592SOL     OW44353   0.514   9.762   2.658  0.8201  0.0972  0.5623
14592SOL    HW144354   0.472   9.844   2.684  1.7441  0.5367  0.7110
14592SOL    HW244355   0.452   9.721   2.598  0.2843  0.8435  0.5929
14593SOL     OW44356   1.264   3.003   8.289 -0.0411  0.4910  0.3034
14593SOL    HW144357   1.334   2.990   8.353 -0.6251 -1.0920  0.6701
14593SOL    HW244358   1.308   3.042   8.213  1.3436 -0.8096  0.3821
14594SOL     OW44359   2.809   5.968   0.414  0.7764 -0.1884 -0.3455
14594SOL    HW144360   2.775   5.988   0.501  2.0468 -1.0169  0.3651
14594SOL    HW244361   2.732   5.964   0.358 -0.1141 -0.2673  0.8631
14595SOL     OW44362   7.444   0.071   6.719  0.9528  0.0267 -0.2078
14595SOL    HW144363   7.503   0.139   6.751  0.3388 -0.2441  1.5715
14595SOL    HW244364   7.358   0.112   6.719  0.9625  0.1361 -1.9487
14596SOL     OW44365   5.232   1.837   2.305  0.0136  0.1092  0.4533
14596SOL    HW144366   5.230   1.932   2.293 -1.3381 -0.0362 -0.7567
14596SOL    HW244367   5.141   1.810   2.297  0.5172 -1.4246 -0.5606
14597SOL     OW44368   4.732   6.037   7.360 -0.5710 -0.2767  0.0129
14597SOL    HW144369   4.724   6.038   7.265 -1.2384  0.8483  0.0668
14597SOL    HW244370   4.663   6.095   7.391  1.1866  1.3643  1.0612
14598SOL     OW44371   5.149   0.053   6.625  0.3545  0.0780  0.3579
14598SOL    HW144372   5.083   0.003   6.672  0.0491 -1.1282 -1.2637
14598SOL    HW244373   5.112   0.141   6.617 -0.1760 -0.0637  1.1460
14599SOL     OW44374   5.861   8.982   0.203 -0.0562  0.5632 -0.2543
14599SOL    HW144375   5.894   9.046   0.266 -1.6970  0.9828  0.2170
14599SOL    HW244376   5.940   8.940   0.168  0.9189  0.8572  1.5064
14600SOL     OW44377   8.905   1.347   3.591  0.2157  0.3813  0.3140
14600SOL    HW144378   8.875   1.369   3.679 -0.1065  0.8790  0.0863
14600SOL    HW244379   8.930   1.431   3.552 -0.7965  0.3459 -0.4821
14601SOL     OW44380   4.622   1.895   4.958 -0.3943 -0.2395 -0.1111
14601SOL    HW144381   4.637   1.985   4.988 -1.4801 -0.5681  1.5459
14601SOL    HW244382   4.673   1.841   5.018 -0.3684 -0.7890 -0.6147
14602SOL     OW44383   1.757   3.621   9.064 -0.1147 -0.9119 -0.3434
14602SOL    HW144384   1.711   3.568   9.129  1.6016 -0.5043  1.2883
14602SOL    HW244385   1.743   3.575   8.981 -1.1189 -2.2744  0.5357
14603SOL     OW44386   8.227   6.018   3.965  0.3270 -0.0418 -0.1944
14603SOL    HW144387   8.142   6.023   3.921 -0.6825  1.7290  1.7610
14603SOL    HW244388   8.271   6.100   3.943  0.6525 -0.0316  0.4662
14604SOL     OW44389   2.100   9.110   9.881 -0.3442  0.1999  0.0815
14604SOL    HW144390   2.054   9.026   9.875  0.6267 -0.3471  0.0248
14604SOL    HW244391   2.143   9.107   9.967 -0.2874  0.6291  0.0683
14605SOL     OW44392   7.292   8.120   0.054 -0.4787  0.1608 -0.0192
14605SOL    HW144393   7.340   8.187   0.005 -0.9402 -0.1371 -0.8999
14605SOL    HW244394   7.317   8.038   0.013 -0.0458 -0.2039  0.9563
14606SOL     OW44395   7.026   1.069   9.241 -0.4063 -0.5503 -0.0006
14606SOL    HW144396   7.075   1.023   9.309  2.1876 -2.1217 -2.6628
14606SOL    HW244397   7.091   1.127   9.200 -2.1899  1.2802 -0.3809
14607SOL     OW44398   0.959   7.441   3.483 -0.8079  0.3904  0.0963
14607SOL    HW144399   0.967   7.513   3.546 -1.5879  0.9530 -0.4301
14607SOL    HW244400   0.990   7.364   3.530  3.2801  1.5399 -0.3093
14608SOL     OW44401   4.184   8.098   0.404  0.6688 -0.2479 -0.3111
14608SOL    HW144402   4.143   8.178   0.372 -0.0734 -0.5807 -0.2180
14608SOL    HW244403   4.265   8.090   0.354  0.2864  0.0604 -0.9846
14609SOL     OW44404   4.522   6.097   9.882 -0.0749  0.1037  0.1458
14609SOL    HW144405   4.469   6.096   9.802 -0.4776  0.9183  0.3854
14609SOL    HW244406   4.531   6.190   9.903  1.6916 -0.0022 -0.0299
14610SOL     OW44407   4.099   7.845   4.788  0.1623  0.2265  0.5122
14610SOL    HW144408   4.066   7.788   4.858 -1.1636 -1.2752 -1.2388
14610SOL    HW244409   4.036   7.917   4.785 -0.9180 -0.7051 -0.3426
14611SOL     OW44410   2.737   3.261   7.319 -0.0573  0.2897  0.5787
14611SOL    HW144411   2.655   3.232   7.281  0.2389  1.0310 -0.6761
14611SOL    HW244412   2.778   3.181   7.353 -0.6878 -0.2646  0.0416
14612SOL     OW44413   8.945   6.278   1.700  0.5176 -0.2670  0.4710
14612SOL    HW144414   9.038   6.255   1.694  0.3462 -0.6818 -1.3906
14612SOL    HW244415   8.908   6.248   1.617 -0.8459  1.9002  0.2364
14613SOL     OW44416   9.146   4.220   5.113 -0.2071 -0.0149 -0.2792
14613SOL    HW144417   9.105   4.156   5.171 -1.8055  0.9758 -0.2351
14613SOL    HW244418   9.239   4.215   5.132 -0.3068 -2.1564 -0.1292
14614SOL     OW44419   1.307   7.639   4.702 -0.4399  0.1923 -0.3717
14614SOL    HW144420   1.331   7.705   4.768  1.4032 -0.7633 -0.0300
14614SOL    HW244421   1.307   7.687   4.619  0.2680  0.7622 -0.0507
14615SOL     OW44422   9.358   6.980   8.945  0.1863  0.6413  0.1966
14615SOL    HW144423   9.288   7.034   8.908 -0.9066 -1.6697 -1.3494
14615SOL    HW244424   9.388   6.927   8.871  1.4952 -0.5523  1.5363
14616SOL     OW44425   2.165   3.957   2.919 -0.1535 -0.0940 -0.0565
14616SOL    HW144426   2.106   3.985   2.989 -0.6726  0.0641 -0.5517
14616SOL    HW244427   2.126   3.991   2.839  0.5245 -0.1283 -0.4142
14617SOL     OW44428   4.268   2.905   5.760  0.0694  0.2214  0.5989
14617SOL    HW144429   4.281   2.999   5.762 -1.3254  0.4524  0.1975
14617SOL    HW244430   4.216   2.886   5.838  0.4485 -0.2343  0.7448
14618SOL     OW44431   0.212   7.638   8.471 -0.4286 -0.1403 -0.2974
14618SOL    HW144432   0.255   7.716   8.507 -1.4412  0.0673  0.5032
14618SOL    HW244433   0.172   7.596   8.547  0.1824 -1.5061 -0.7066
14619SOL     OW44434   3.666   0.779   5.880 -1.0808 -0.0008 -1.0312
14619SOL    HW144435   3.725   0.777   5.955 -0.4713  0.7060 -1.4754
14619SOL    HW244436   3.605   0.706   5.895 -1.8286  0.9423  0.8355
14620SOL     OW44437   0.102   6.102   9.919  0.6685 -0.2357 -0.1314
14620SOL    HW144438   0.108   6.011   9.948 -1.8105 -0.1946  0.7824
14620SOL    HW244439   0.087   6.152  10.000 -0.4111  0.6523 -0.8478
14621SOL     OW44440   6.105   0.522   9.893 -0.3107  0.5449 -0.2301
14621SOL    HW144441   6.067   0.561   9.972 -3.1086  0.2988 -1.3623
14621SOL    HW244442   6.126   0.432   9.919  1.4124  1.2304  0.9514
14622SOL     OW44443   3.576   3.841   2.604  0.1605  0.2733 -0.2729
14622SOL    HW144444   3.579   3.806   2.693  0.0813 -0.4564 -0.5541
14622SOL    HW244445   3.641   3.912   2.604 -0.7182  1.1135  0.7094
14623SOL     OW44446   9.342   7.961   6.536 -0.1302  0.0034 -0.4353
14623SOL    HW144447   9.303   7.981   6.451 -1.1240  0.5549  0.1367
14623SOL    HW244448   9.269   7.964   6.597  0.3159 -1.7823  0.2550
14624SOL     OW44449   2.529   7.003   7.697 -0.4788  0.2756  0.5007
14624SOL    HW144450   2.503   7.062   7.768 -1.7644 -0.8420  0.9957
14624SOL    HW244451   2.455   7.005   7.636  0.8393  1.6774 -1.1780
14625SOL     OW44452   6.179   1.680   0.024  0.1642 -0.2996 -0.0629
14625SOL    HW144453   6.226   1.684  -0.059  1.5259 -1.5764  0.6023
14625SOL    HW244454   6.187   1.768   0.060  0.8350 -0.1260 -0.6095
14626SOL     OW44455   0.095   0.993   8.889 -0.4089  0.4306  0.3845
14626SOL    HW144456   0.140   0.945   8.958  0.3635 -0.2095 -0.5423
14626SOL    HW244457   0.107   0.940   8.810  0.8797  2.3327 -0.7737
14627SOL     OW44458   2.836   9.665   5.805 -0.5281  0.1055 -0.0563
14627SOL    HW144459   2.831   9.727   5.878 -0.4023 -1.4403  1.3329
14627SOL    HW244460   2.744   9.644   5.786 -0.5459  0.1704 -0.0440
14628SOL     OW44461   8.114   2.388   1.691 -0.4111  0.4657  0.0485
14628SOL    HW144462   8.121   2.483   1.685 -1.6091  0.5334 -0.4577
14628SOL    HW244463   8.101   2.371   1.785 -0.5444  0.8271  0.0962
14629SOL     OW44464   6.176   8.175   0.664  0.2360 -0.0516 -0.3555
14629SOL    HW144465   6.255   8.120   0.658  0.1477 -0.1711 -0.4368
14629SOL    HW244466   6.142   8.176   0.574 -1.0630 -1.7901  0.0628
14630SOL     OW44467   0.039   4.056   0.689  0.3731  0.0901  0.1627
14630SOL    HW144468  -0.026   4.063   0.619 -0.0717 -1.6638  0.3549
14630SOL    HW244469   0.077   3.969   0.677  0.0849 -0.3660  2.2567
14631SOL     OW44470   4.151   2.581   3.214 -0.6194  0.1729 -0.3121
14631SOL    HW144471   4.157   2.663   3.164 -0.2824  1.0391  1.0896
14631SOL    HW244472   4.086   2.601   3.282 -2.0756 -1.4141 -1.1537
14632SOL     OW44473   4.094   0.340   1.066 -0.2098 -0.3716  0.0938
14632SOL    HW144474   4.115   0.279   1.137  2.0964 -1.5313 -1.4583
14632SOL    HW244475   4.164   0.406   1.069 -1.9401  1.5324  0.9145
14633SOL     OW44476   5.433   7.432   9.139  0.2677  0.1662  0.2145
14633SOL    HW144477   5.429   7.519   9.179 -1.7059  0.4851 -0.5572
14633SOL    HW244478   5.395   7.444   9.052 -1.2961 -1.7058  0.5729
14634SOL     OW44479   8.317  -0.015   8.804 -0.3335 -0.2380 -0.5698
14634SOL    HW144480   8.225  -0.035   8.819  0.1109 -1.6908  0.3929
14634SOL    HW244481   8.317   0.077   8.775 -2.1063 -0.3650 -1.1051
14635SOL     OW44482   1.601   5.690   4.324 -0.2734 -0.8086 -0.0547
14635SOL    HW144483   1.631   5.616   4.271 -1.4498 -2.2620  1.2296
14635SOL    HW244484   1.508   5.699   4.303 -0.0690  0.6132 -0.4937
14636SOL     OW44485   6.350   5.723   9.967  0.1073  0.5447  0.1659
14636SOL    HW144486   6.281   5.789   9.963 -0.2795  0.2612  1.5941
14636SOL    HW244487   6.430   5.771   9.946 -0.1167  1.5684  1.4733
14637SOL     OW44488   5.387   9.284   9.745  0.4503  0.6129  0.5851
14637SOL    HW144489   5.405   9.283   9.651 -2.3068  1.2916 -0.0374
14637SOL    HW244490   5.432   9.206   9.778  1.1739  0.1348 -1.3278
14638SOL     OW44491   8.278   9.504   4.974 -0.4268 -0.1237 -0.6102
14638SOL    HW144492   8.332   9.576   4.941 -0.2700 -0.2781 -0.6915
14638SOL    HW244493   8.328   9.467   5.046  0.1394 -1.0255 -1.4427
14639SOL     OW44494   6.899   4.781   8.179 -0.1813 -0.4356 -0.4898
14639SOL    HW144495   6.856   4.696   8.174 -0.0496 -0.5259 -0.1438
14639SOL    HW244496   6.829   4.845   8.169 -0.4430 -0.5793  0.3277
14640SOL     OW44497   8.923   4.098   6.036 -0.3271 -0.1313  0.1604
14640SOL    HW144498   8.938   4.143   6.119  1.4211  2.1224 -1.2374
14640SOL    HW244499   8.828   4.103   6.023 -0.2681  4.0120 -0.1627
14641SOL     OW44500   3.100   0.942   6.504  0.0661 -0.0828 -0.0085
14641SOL    HW144501   3.098   0.887   6.426 -0.0271  0.8866 -0.7059
14641SOL    HW244502   3.187   0.981   6.505  0.0586 -0.0685  0.3591
14642SOL     OW44503   1.132   1.611   7.372 -0.2692 -0.6102  0.0744
14642SOL    HW144504   1.067   1.625   7.441 -1.6289 -0.0275 -1.2419
14642SOL    HW244505   1.079   1.593   7.294  0.8620  3.6925 -1.9891
14643SOL     OW44506   5.166   3.879   4.072  0.3693 -0.3274  0.1186
14643SOL    HW144507   5.119   3.958   4.098  0.1504 -0.9436  1.6846
14643SOL    HW244508   5.234   3.868   4.139  0.3266 -1.5161 -0.0126
14644SOL     OW44509   0.024   9.958   7.007 -0.0383 -0.5262  0.1513
14644SOL    HW144510   0.016   9.863   7.016  0.8462 -0.5556  0.7248
14644SOL    HW244511   0.034   9.973   6.913 -0.4924 -0.9663  0.0278
14645SOL     OW44512   3.463   1.068   4.773  0.5021  0.6588 -0.0971
14645SOL    HW144513   3.379   1.071   4.728 -0.0657 -0.2488  0.8467
14645SOL    HW244514   3.520   1.126   4.722 -0.7347  1.4377 -0.6538
14646SOL     OW44515   0.882   6.670   5.435 -0.3493  0.0006  0.0089
14646SOL    HW144516   0.892   6.758   5.472 -0.8280 -0.0730  0.3276
14646SOL    HW244517   0.849   6.617   5.508 -0.2773 -0.3959 -0.2411
14647SOL     OW44518   1.983   6.773   7.825  0.2227  0.0114 -0.3811
14647SOL    HW144519   1.934   6.790   7.744 -0.2568 -1.0209 -0.3200
14647SOL    HW244520   1.916   6.762   7.892  0.6081  0.4382  0.0832
14648SOL     OW44521   9.500   9.110   6.063 -0.0122 -0.2484  0.0003
14648SOL    HW144522   9.534   9.032   6.107 -0.2865  0.7103  1.9882
14648SOL    HW244523   9.575   9.143   6.013  0.2288 -1.4982 -0.5146
14649SOL     OW44524   1.068   9.190   7.966 -0.2890 -0.3496  0.1121
14649SOL    HW144525   1.000   9.130   7.996 -1.5891  0.8689 -0.2989
14649SOL    HW244526   1.093   9.240   8.044 -0.0363 -0.6140  0.2050
14650SOL     OW44527   5.554   6.452   7.052 -0.1249  0.8965 -0.5465
14650SOL    HW144528   5.460   6.467   7.044 -0.3283 -0.0075  0.0422
14650SOL    HW244529   5.578   6.494   7.135 -0.6318 -1.5840  0.9311
14651SOL     OW44530   2.883   5.970   2.727 -0.1634  0.3326  0.5211
14651SOL    HW144531   2.830   5.995   2.803 -1.1851 -2.1560  0.7151
14651SOL    HW244532   2.858   6.033   2.659 -0.8772  1.2435  1.5965
14652SOL     OW44533   8.052   9.324   4.813  0.2884 -0.0637  0.4577
14652SOL    HW144534   8.020   9.269   4.742  1.8438 -0.8068  0.2816
14652SOL    HW244535   8.085   9.262   4.878 -0.0516  0.6277  1.3095
14653SOL     OW44536   8.870   2.651   7.799  0.1867 -0.0792 -0.1332
14653SOL    HW144537   8.855   2.574   7.853 -0.5084  0.6537  0.7652
14653SOL    HW244538   8.782   2.682   7.776  0.3599  1.5062  1.1230
14654SOL     OW44539   9.533   0.300   1.902 -0.6626  0.7208  0.0557
14654SOL    HW144540   9.448   0.272   1.935 -1.0057  0.2477 -1.1731
14654SOL    HW244541   9.535   0.269   1.811  0.8960  0.5513  0.1175
14655SOL     OW44542   6.743   1.843   5.778 -0.1362  0.4980  0.2610
14655SOL    HW144543   6.695   1.926   5.783 -1.6547 -0.2859 -0.3723
14655SOL    HW244544   6.790   1.837   5.861 -1.6623  1.0385  1.2140
14656SOL     OW44545   4.158   8.398   3.763 -0.4914 -0.2412 -0.3306
14656SOL    HW144546   4.162   8.401   3.667 -0.9664 -0.7781 -0.3688
14656SOL    HW244547   4.067   8.376   3.782 -1.4877  3.6927  0.3183
14657SOL     OW44548   0.705   6.942   2.150 -0.0179  0.6149  0.4132
14657SOL    HW144549   0.741   6.990   2.225 -0.7854  1.3132  0.3524
14657SOL    HW244550   0.613   6.969   2.147  0.1555  1.0951 -1.1849
14658SOL     OW44551   3.182   0.904   4.023  0.0432  0.1115 -0.6337
14658SOL    HW144552   3.143   0.819   4.004  2.2484 -0.8669 -1.1146
14658SOL    HW244553   3.244   0.887   4.093  0.0304  1.4913 -0.2538
14659SOL     OW44554   5.899   5.636   1.398 -0.2083 -0.1466  0.4907
14659SOL    HW144555   5.976   5.686   1.370  0.0843 -1.1809 -0.6093
14659SOL    HW244556   5.916   5.546   1.369 -2.8487 -0.0069 -1.9527
14660SOL     OW44557   4.684   2.503   3.186  0.0693 -0.3516  0.3632
14660SOL    HW144558   4.619   2.563   3.148  0.6500 -0.5451 -0.9755
14660SOL    HW244559   4.767   2.549   3.176  0.2791 -0.5213  1.2151
14661SOL     OW44560   3.765   8.108   9.929 -0.3517 -0.6185 -0.6072
14661SOL    HW144561   3.792   8.042   9.992  0.1953 -0.1240 -0.3126
14661SOL    HW244562   3.670   8.114   9.940 -0.1699  0.0698  0.8010
14662SOL     OW44563   6.371   8.117   8.889  0.1898  0.6518  0.0593
14662SOL    HW144564   6.404   8.037   8.930  0.7079  0.9315  0.1989
14662SOL    HW244565   6.421   8.188   8.931 -0.1296  1.0328 -0.1947
14663SOL     OW44566   6.156   5.985   7.499  0.4565  0.3221 -0.2844
14663SOL    HW144567   6.187   6.043   7.429 -1.4819  1.7331 -0.0520
14663SOL    HW244568   6.073   6.024   7.527 -0.6451 -2.2813  0.2862
14664SOL     OW44569   5.246   5.994   4.473 -0.8035 -0.4004  0.1500
14664SOL    HW144570   5.287   5.986   4.387 -0.4009  0.1909  0.2819
14664SOL    HW244571   5.167   5.940   4.467 -1.7161  1.0108 -1.1726
14665SOL     OW44572   3.548   7.401   0.447  0.0540  0.2352  0.3104
14665SOL    HW144573   3.509   7.342   0.512 -0.5018  0.5926  0.3040
14665SOL    HW244574   3.556   7.485   0.493 -0.0529  0.4091  0.0134
14666SOL     OW44575   5.088   6.151   9.019  0.4956 -0.4089  0.7055
14666SOL    HW144576   5.127   6.233   9.051 -1.2708 -0.0269  1.9889
14666SOL    HW244577   5.157   6.112   8.965  1.9612  1.1430  1.3543
14667SOL     OW44578   0.874   0.229   4.324  0.2488 -0.0322  0.6176
14667SOL    HW144579   0.816   0.281   4.269  0.1507 -0.0343  0.7188
14667SOL    HW244580   0.890   0.149   4.274  2.6624  1.2568 -0.8266
14668SOL     OW44581   9.970   7.956   3.774  0.0896  0.4816  0.0552
14668SOL    HW144582   9.892   8.011   3.762  0.5078  0.8584 -1.1134
14668SOL    HW244583   9.937   7.867   3.777 -0.2256  0.3897 -3.1781
14669SOL     OW44584   7.458   8.976   5.095 -0.3130  0.2714  0.2622
14669SOL    HW144585   7.482   8.993   5.186  0.3012 -1.8950  0.5565
14669SOL    HW244586   7.485   8.885   5.079  1.0171  1.0270 -2.5509
14670SOL     OW44587   1.166   0.270   5.204 -0.0964  0.2198  0.3088
14670SOL    HW144588   1.091   0.288   5.147 -1.5514  0.8011  2.2875
14670SOL    HW244589   1.128   0.229   5.282  1.9442 -1.5928  0.4538
14671SOL     OW44590   5.899   5.688   8.265 -0.3823  0.5801  0.1823
14671SOL    HW144591   5.837   5.621   8.235  0.5171  0.2339 -0.9888
14671SOL    HW244592   5.869   5.769   8.224 -0.9657  0.7402  0.9011
14672SOL     OW44593   6.252   5.143   2.924  0.1456 -0.0286  0.1220
14672SOL    HW144594   6.188   5.149   2.853 -1.1204  0.4151  1.2585
14672SOL    HW244595   6.200   5.153   3.004  1.5326 -0.5146  1.1201
14673SOL     OW44596   0.382   9.696   3.698  0.3378  0.1853  0.4670
14673SOL    HW144597   0.417   9.607   3.698  1.0261  0.4226  1.9052
14673SOL    HW244598   0.371   9.718   3.606  0.4819 -1.2611  0.0862
14674SOL     OW44599   0.139   7.339   3.932 -0.4434  0.2065  0.1357
14674SOL    HW144600   0.119   7.414   3.987 -0.5561 -1.0480  1.8869
14674SOL    HW244601   0.216   7.366   3.882 -0.2220  1.3193  1.0420
14675SOL     OW44602   9.437   6.309   7.479  0.2204 -0.1256 -0.7796
14675SOL    HW144603   9.358   6.264   7.451  0.2944 -1.3348  0.8333
14675SOL    HW244604   9.426   6.322   7.573  0.8845  1.9002 -0.9231
14676SOL     OW44605   6.253   8.713   7.905  0.4454  0.6012 -0.1044
14676SOL    HW144606   6.212   8.666   7.979  1.2272  1.5177  0.9478
14676SOL    HW244607   6.339   8.673   7.896  0.1435  0.1202 -0.9001
14677SOL     OW44608   6.277   6.901   1.664  0.5353  0.1710 -0.1811
14677SOL    HW144609   6.191   6.936   1.687  0.0902 -0.1200 -1.3408
14677SOL    HW244610   6.305   6.955   1.589  1.3713  0.2697  0.1940
14678SOL     OW44611   3.243   6.575   5.265  0.4109  0.5998  0.8605
14678SOL    HW144612   3.314   6.546   5.208 -1.2058 -1.1569 -0.3787
14678SOL    HW244613   3.250   6.671   5.267  0.2460  0.8189 -2.7733
14679SOL     OW44614   5.706   3.385   0.961 -0.2342  0.2786  0.8185
14679SOL    HW144615   5.679   3.367   0.871  0.7966  0.8390  0.3795
14679SOL    HW244616   5.780   3.326   0.976 -0.0888  0.5345  1.1280
14680SOL     OW44617   0.314   3.609   4.820 -0.3929  0.1256  0.7175
14680SOL    HW144618   0.267   3.535   4.781 -0.8249  2.0149 -2.6752
14680SOL    HW244619   0.291   3.605   4.913 -1.2356 -3.3122  0.5005
14681SOL     OW44620   1.342   9.525   9.906 -0.2431 -0.4107  0.1075
14681SOL    HW144621   1.386   9.559   9.984  0.2598 -3.1733  1.1462
14681SOL    HW244622   1.255   9.565   9.909  0.4527  1.1395  0.8993
14682SOL     OW44623   4.067   4.969   8.146  0.1409 -0.1804  0.4245
14682SOL    HW144624   4.097   4.879   8.150  0.3751 -0.0577  3.4163
14682SOL    HW244625   4.117   5.008   8.074 -1.0704 -2.7163 -1.9565
14683SOL     OW44626   3.645   1.282   1.485 -0.4791 -0.0122  0.2415
14683SOL    HW144627   3.597   1.208   1.522 -0.8228  0.4269  0.7025
14683SOL    HW244628   3.698   1.245   1.414  0.0257 -0.8457  1.0312
14684SOL     OW44629   3.257   4.900   2.803 -0.0323 -0.0078  0.5210
14684SOL    HW144630   3.178   4.937   2.841 -0.5586 -1.2581  0.7076
14684SOL    HW244631   3.322   4.903   2.874 -0.0069  0.7009  0.4725
14685SOL     OW44632   3.847   2.292   2.386 -0.1937 -0.0010 -0.2478
14685SOL    HW144633   3.862   2.335   2.470 -0.4069 -1.6720  0.7028
14685SOL    HW244634   3.902   2.214   2.389  0.6674  0.4638 -2.1678
14686SOL     OW44635   1.708   9.442   2.524 -0.4933  0.3163  0.0589
14686SOL    HW144636   1.620   9.428   2.491 -0.8233 -1.7238  1.5986
14686SOL    HW244637   1.697   9.449   2.619  0.9307  0.7559  0.2123
14687SOL     OW44638   3.984   0.144   9.733  0.0653  0.7483 -0.2839
14687SOL    HW144639   3.926   0.216   9.757 -1.3264 -0.7897  1.3170
14687SOL    HW244640   3.947   0.110   9.652 -0.0124  1.0942 -0.3946
14688SOL     OW44641   2.449   6.630   7.155  0.4790 -0.6468 -0.0239
14688SOL    HW144642   2.455   6.642   7.250  1.0193 -0.8469 -0.0295
14688SOL    HW244643   2.356   6.643   7.135  0.7328  2.0534  0.1638
14689SOL     OW44644   7.617   7.598   5.756 -0.0534  0.4945  0.3304
14689SOL    HW144645   7.652   7.671   5.807  1.9994 -1.0855  1.3298
14689SOL    HW244646   7.693   7.558   5.715 -1.2147 -0.6737 -0.8072
14690SOL     OW44647   6.312   3.798   5.228 -0.0342  0.2836 -0.3631
14690SOL    HW144648   6.369   3.867   5.261  0.1303  0.6641 -1.4023
14690SOL    HW244649   6.372   3.729   5.200 -0.1865 -0.1811  0.4405
14691SOL     OW44650   5.996   2.960   0.700 -0.0847 -0.0455 -0.3375
14691SOL    HW144651   6.020   2.993   0.786 -0.7226  0.3849 -0.3159
14691SOL    HW244652   5.921   2.903   0.716  0.4744 -0.8367 -0.4797
14692SOL     OW44653   3.359   1.846   5.105 -0.3042 -0.5117 -0.4363
14692SOL    HW144654   3.432   1.904   5.127 -1.6620  1.4469 -0.8479
14692SOL    HW244655   3.308   1.895   5.041 -2.1078 -1.7275 -0.0016
14693SOL     OW44656   5.405   2.312   3.149  0.0183  0.0465 -0.2789
14693SOL    HW144657   5.418   2.217   3.144 -0.7969 -0.0227 -1.5404
14693SOL    HW244658   5.382   2.328   3.241  2.2371 -0.6716  0.4764
14694SOL     OW44659   3.029   1.308   2.197  0.2298 -0.1463 -0.2808
14694SOL    HW144660   3.032   1.382   2.258  0.7329 -1.7102  1.7158
14694SOL    HW244661   3.106   1.256   2.219 -0.7288 -1.8649 -0.7811
14695SOL     OW44662   8.670   0.376   4.827  0.0495 -0.1208  0.2034
14695SOL    HW144663   8.701   0.322   4.755  1.8753 -1.4037  1.8476
14695SOL    HW244664   8.689   0.325   4.906 -0.4330  1.8603  1.6967
14696SOL     OW44665   8.443   5.832   3.950  0.0218 -0.2554  0.0185
14696SOL    HW144666   8.372   5.891   3.977  0.5314  0.9806 -1.2141
14696SOL    HW244667   8.416   5.801   3.864 -1.0241 -3.2029  1.2906
14697SOL     OW44668   8.254   5.848   0.209  0.1138  0.0720 -0.1415
14697SOL    HW144669   8.182   5.859   0.147 -0.7815  1.5504  1.0816
14697SOL    HW244670   8.238   5.915   0.276  4.3812  2.6900 -1.3931
14698SOL     OW44671   6.114   8.616   5.375  0.2265  0.5924  0.3079
14698SOL    HW144672   6.190   8.591   5.322  0.1764  1.3753 -0.1535
14698SOL    HW244673   6.088   8.701   5.340 -1.9268 -0.3970 -0.7376
14699SOL     OW44674   3.656   9.061   2.641  0.6003  0.5697 -0.9126
14699SOL    HW144675   3.706   9.065   2.723  0.6590 -2.1216 -0.7283
14699SOL    HW244676   3.569   9.093   2.665  0.3139 -1.1181  0.5326
14700SOL     OW44677   7.869   9.707   2.430 -0.6532 -0.5260  0.3369
14700SOL    HW144678   7.827   9.702   2.345  0.1533 -3.0759  0.0213
14700SOL    HW244679   7.922   9.786   2.426 -1.7644  0.1935 -0.9411
14701SOL     OW44680   2.984   6.441   2.982  0.0651 -0.2181  0.4355
14701SOL    HW144681   2.914   6.394   3.028  0.4426 -1.4362 -0.1837
14701SOL    HW244682   3.060   6.432   3.039 -0.1316  0.6278  0.8452
14702SOL     OW44683   7.485   1.552   3.363  0.1037  0.2778 -0.3647
14702SOL    HW144684   7.481   1.615   3.434 -0.4725 -0.5301  0.3313
14702SOL    HW244685   7.567   1.505   3.376  0.4031  0.6892 -0.7286
14703SOL     OW44686   8.124   9.489   4.603  0.5986  0.0839  0.0701
14703SOL    HW144687   8.073   9.480   4.683  1.5947 -0.0945  0.6983
14703SOL    HW244688   8.130   9.584   4.589  2.1165  0.2093  1.3408
14704SOL     OW44689   5.594   4.019   0.944  0.1089 -0.2437 -0.4641
14704SOL    HW144690   5.658   3.955   0.977 -2.6141 -3.7125 -1.2265
14704SOL    HW244691   5.575   4.075   1.019  0.2333 -2.5402  1.4002
14705SOL     OW44692   7.229   1.917   3.991 -0.0784 -0.1561  0.0007
14705SOL    HW144693   7.226   1.959   3.905 -0.8830 -2.1531 -1.0173
14705SOL    HW244694   7.144   1.938   4.030  0.5797  1.3925  0.6815
14706SOL     OW44695   6.238   7.586   7.819 -0.2876 -0.3978 -0.0421
14706SOL    HW144696   6.145   7.583   7.799 -0.4427 -2.5798  0.7465
14706SOL    HW244697   6.280   7.611   7.737 -1.5019 -0.0855 -0.5839
14707SOL     OW44698   7.442   2.186   2.655  0.1151 -0.3326 -0.0612
14707SOL    HW144699   7.451   2.263   2.598  1.9511  0.2194  0.8564
14707SOL    HW244700   7.404   2.119   2.599  0.5845  0.5807 -1.5623
14708SOL     OW44701   7.848   4.515   2.613 -0.8319  0.3677  0.2599
14708SOL    HW144702   7.754   4.526   2.622 -0.7390  2.7596 -1.0159
14708SOL    HW244703   7.863   4.510   2.519  0.0598 -3.7040  0.4113
14709SOL     OW44704   0.594   7.984   2.634  0.8942  0.2319 -0.4564
14709SOL    HW144705   0.543   8.060   2.608 -0.1143  0.1329  1.1534
14709SOL    HW244706   0.616   7.940   2.551 -0.9060  0.7307 -1.2326
14710SOL     OW44707   8.807   6.919   1.765  0.8271 -1.0983  0.6709
14710SOL    HW144708   8.724   6.929   1.812 -0.1405  0.1064 -1.1693
14710SOL    HW244709   8.874   6.938   1.831 -0.4639  0.5451  1.5951
14711SOL     OW44710   8.956   1.085   7.054  0.1631 -0.0583  0.0733
14711SOL    HW144711   8.994   1.160   7.009 -2.4233 -0.2548 -2.7598
14711SOL    HW244712   8.862   1.096   7.044 -0.3847 -2.4507  1.7106
14712SOL     OW44713   5.197   9.410   8.772 -0.5947  0.0189  0.5956
14712SOL    HW144714   5.209   9.484   8.832 -1.4960  0.2321  0.5261
14712SOL    HW244715   5.198   9.333   8.829 -1.7576  0.2420  0.9434
14713SOL     OW44716   6.138   4.281   6.878  0.6243 -0.1587  0.0280
14713SOL    HW144717   6.103   4.345   6.940 -0.5328 -1.1625  0.4545
14713SOL    HW244718   6.225   4.259   6.913 -0.8495 -2.4200  2.7572
14714SOL     OW44719   2.718   9.681   9.950 -0.1834  0.4158 -0.1406
14714SOL    HW144720   2.689   9.628  10.024 -1.8274 -0.5259 -1.3760
14714SOL    HW244721   2.636   9.705   9.906  0.7769  0.4826 -1.9460
14715SOL     OW44722   3.613   5.996   3.109 -0.2785  0.2916  0.3210
14715SOL    HW144723   3.656   6.027   3.188 -2.2689  1.4222  1.0327
14715SOL    HW244724   3.579   5.910   3.132  1.4145 -0.5495 -0.2041
14716SOL     OW44725   2.973   5.504   6.899  0.2293 -0.1705  0.3008
14716SOL    HW144726   2.942   5.580   6.850  0.7750 -0.6573 -0.8393
14716SOL    HW244727   2.953   5.524   6.990 -1.0708  0.6387 -0.1384
14717SOL     OW44728   3.129   0.643   6.635  0.2119 -0.0584 -0.4113
14717SOL    HW144729   3.138   0.575   6.702  1.3994 -1.0354 -1.5155
14717SOL    HW244730   3.212   0.691   6.637 -0.2704  0.7976 -0.2668
14718SOL     OW44731   0.614   4.715   1.669  0.6192  0.1742 -0.3018
14718SOL    HW144732   0.620   4.735   1.763 -0.6562 -1.8378  0.2693
14718SOL    HW244733   0.557   4.784   1.634  0.9887  0.8688  0.4287
14719SOL     OW44734   1.276   0.313   0.012 -0.5024  0.4399 -0.4589
14719SOL    HW144735   1.278   0.390   0.068  1.1141  0.1107 -0.0104
14719SOL    HW244736   1.183   0.290   0.006 -0.7800  0.7122  1.7779
14720SOL     OW44737   4.522   3.548   0.232  0.1626 -0.6072  0.5014
14720SOL    HW144738   4.453   3.551   0.166 -0.2095  0.2457  0.9144
14720SOL    HW244739   4.476   3.554   0.316  0.5434 -2.8262  0.9199
14721SOL     OW44740   9.882   3.609   4.225  0.1930  0.2152 -0.1426
14721SOL    HW144741   9.968   3.602   4.268  0.2407 -0.4126 -0.3343
14721SOL    HW244742   9.820   3.586   4.294  0.2495 -0.4627 -0.3124
14722SOL     OW44743   7.349   2.237   6.508  0.0402 -0.2415 -0.3473
14722SOL    HW144744   7.414   2.299   6.541 -1.0040  0.3658  0.6400
14722SOL    HW244745   7.307   2.202   6.587 -1.7511  0.3970 -0.9614
14723SOL     OW44746   9.355   2.158   6.705 -0.5917  1.0144  0.3060
14723SOL    HW144747   9.265   2.160   6.672 -0.1598  1.1793 -0.9139
14723SOL    HW244748   9.353   2.212   6.785 -1.5820  0.9440  0.3339
14724SOL     OW44749   4.871   0.354   3.404  0.2503 -0.5030  0.4569
14724SOL    HW144750   4.952   0.304   3.398 -0.0746 -1.1721  1.3650
14724SOL    HW244751   4.818   0.306   3.467 -1.7855 -1.3915 -1.7540
14725SOL     OW44752   8.236   4.872   2.304 -0.1704  0.0064  0.1856
14725SOL    HW144753   8.222   4.812   2.377 -0.7296  0.3560  0.3681
14725SOL    HW244754   8.275   4.949   2.344 -1.6719  0.7260  0.3383
14726SOL     OW44755   8.557   1.360   9.892  0.6852  0.7747  0.0432
14726SOL    HW144756   8.560   1.264   9.899 -0.6965  0.7276  0.3126
14726SOL    HW244757   8.493   1.377   9.824  0.3573  1.5176  0.5277
14727SOL     OW44758   3.829   8.291   1.689 -0.4644 -0.1840  0.3435
14727SOL    HW144759   3.923   8.281   1.681 -0.4696  0.8872 -1.5885
14727SOL    HW244760   3.803   8.222   1.751  1.4411 -1.1020  0.1949
14728SOL     OW44761   1.759   8.508   4.681 -0.3846 -0.8419 -0.2921
14728SOL    HW144762   1.802   8.525   4.765  0.0562  0.0689 -0.6801
14728SOL    HW244763   1.814   8.553   4.617 -1.6873  0.0285 -0.8539
14729SOL     OW44764   3.394   7.936   8.360  0.2146 -0.4765  0.2351
14729SOL    HW144765   3.484   7.967   8.370  0.2438 -0.4140 -0.2065
14729SOL    HW244766   3.355   7.996   8.295 -0.7839  0.8414  1.9485
14730SOL     OW44767   4.744   6.557   9.208 -0.2803 -0.8533 -0.2882
14730SOL    HW144768   4.653   6.580   9.227 -0.3090 -1.2058  0.0046
14730SOL    HW244769   4.796   6.611   9.269 -0.2280  0.2233 -1.2503
14731SOL     OW44770   4.276   9.351   0.158  0.2449  0.4741 -0.3574
14731SOL    HW144771   4.197   9.313   0.118  1.0193 -1.0061 -0.5563
14731SOL    HW244772   4.292   9.430   0.107 -0.0058 -0.2450 -1.6219
14732SOL     OW44773   9.949   1.664   5.074 -0.1028 -0.3818 -0.8951
14732SOL    HW144774   9.892   1.714   5.131 -1.8924 -2.3735 -0.8432
14732SOL    HW244775   9.959   1.719   4.996  0.4016  1.2777  0.2776
14733SOL     OW44776   7.182   6.438   5.942 -0.0141  0.1083 -0.2075
14733SOL    HW144777   7.215   6.375   6.006  3.9344  0.9958 -1.0839
14733SOL    HW244778   7.170   6.519   5.991 -2.7392 -0.5673  0.4227
14734SOL     OW44779   0.505   3.502   6.520 -0.1225 -0.5638 -0.1774
14734SOL    HW144780   0.577   3.469   6.467 -0.9536 -1.0403 -1.0269
14734SOL    HW244781   0.542   3.510   6.608  1.6652  1.4626 -1.0209
14735SOL     OW44782   5.719   4.696   5.891 -0.1541 -0.5675 -0.1783
14735SOL    HW144783   5.771   4.672   5.815  0.8975 -1.6534  0.8339
14735SOL    HW244784   5.783   4.733   5.953 -1.0142  0.4793  0.1068
14736SOL     OW44785   6.499   1.434   6.038 -0.3141  0.9576 -0.4895
14736SOL    HW144786   6.519   1.464   5.949 -0.6180 -1.5181 -1.4933
14736SOL    HW244787   6.415   1.473   6.059 -0.3381  1.4147 -1.3942
14737SOL     OW44788   7.028   9.712   7.986  0.3921 -0.0593  0.2019
14737SOL    HW144789   6.981   9.738   8.065 -0.0668 -0.8912  0.2096
14737SOL    HW244790   7.121   9.716   8.011  0.3681  1.8011  0.1137
14738SOL     OW44791   5.396   5.206   5.269  0.2724  0.1252  0.0884
14738SOL    HW144792   5.468   5.216   5.331  0.7298 -2.5748  0.1439
14738SOL    HW244793   5.351   5.126   5.297 -2.5229  1.4282 -0.2353
14739SOL     OW44794   3.244   3.450   6.494 -0.3064 -0.0266  0.0754
14739SOL    HW144795   3.195   3.449   6.577  1.3968 -0.5306  1.1321
14739SOL    HW244796   3.178   3.464   6.427 -1.6130  1.7974  1.6321
14740SOL     OW44797   8.874   1.615   7.506  0.2016 -0.2108  0.1871
14740SOL    HW144798   8.836   1.699   7.482 -1.2359 -0.7616  0.4248
14740SOL    HW244799   8.878   1.617   7.602 -1.0031 -0.8592  0.2763
14741SOL     OW44800   8.929   8.929   6.688 -0.1780  0.0363 -0.1256
14741SOL    HW144801   8.900   8.869   6.620 -0.8753  1.5978 -1.2644
14741SOL    HW244802   8.849   8.973   6.718  0.3656  0.7732  0.3024
14742SOL     OW44803   6.005   5.998   0.507 -0.2148  0.0446 -0.1359
14742SOL    HW144804   6.015   6.011   0.413  0.4791  4.3178  0.3299
14742SOL    HW244805   6.087   5.956   0.534  0.3744  0.4628 -1.2121
14743SOL     OW44806   9.584   4.022   3.343  0.1211 -0.0407 -0.4078
14743SOL    HW144807   9.579   3.941   3.293 -0.6591 -0.6270  0.5751
14743SOL    HW244808   9.671   4.056   3.325  0.2806 -0.8397 -1.2236
14744SOL     OW44809   4.157   2.533   9.037  0.4748  0.2277  0.1078
14744SOL    HW144810   4.158   2.451   8.988 -0.1889  1.3153 -1.8715
14744SOL    HW244811   4.230   2.584   9.001  1.7461  0.0402  2.2705
14745SOL     OW44812   0.095   4.599   3.046  0.5698  0.0866  0.3623
14745SOL    HW144813   0.023   4.650   3.010 -0.3284  0.1181  2.0756
14745SOL    HW244814   0.172   4.655   3.035 -0.0408  0.9431  0.3387
14746SOL     OW44815  -0.015   9.288   8.330 -0.3699 -0.3231  0.1438
14746SOL    HW144816  -0.027   9.315   8.421 -2.3552  0.1786 -0.2216
14746SOL    HW244817   0.080   9.295   8.315 -0.3676  3.0690  1.1082
14747SOL     OW44818   7.735   1.252   9.312 -0.3069 -0.2849 -0.0359
14747SOL    HW144819   7.792   1.187   9.354 -1.7326 -0.7119  1.3315
14747SOL    HW244820   7.702   1.305   9.385 -1.7164 -0.1053 -0.7786
14748SOL     OW44821   4.466   3.571   6.941  0.4042 -0.2361  0.4651
14748SOL    HW144822   4.552   3.577   6.900 -0.2749 -0.9204 -1.1170
14748SOL    HW244823   4.480   3.517   7.019  1.2380 -1.1547 -0.3052
14749SOL     OW44824   9.610   1.499   7.468  0.0967  0.3128  0.4492
14749SOL    HW144825   9.595   1.472   7.559 -0.5023  1.0446  0.5754
14749SOL    HW244826   9.523   1.501   7.429  0.4792 -1.7007 -0.6729
14750SOL     OW44827   9.931   1.120   7.205 -0.5752 -0.1082  0.2967
14750SOL    HW144828   9.891   1.151   7.123  0.3309 -0.1970 -0.1862
14750SOL    HW244829   9.905   1.185   7.270 -2.1108 -0.5409  0.1580
14751SOL     OW44830   2.740   9.662   6.305  0.1740  0.3640  0.0461
14751SOL    HW144831   2.716   9.703   6.389 -1.1346 -0.9874  0.3682
14751SOL    HW244832   2.794   9.587   6.330 -0.6821 -0.3724 -0.2447
14752SOL     OW44833   2.004   0.009   8.630 -0.2431 -0.8191  0.5748
14752SOL    HW144834   2.065  -0.028   8.566 -1.0983 -2.0156  0.4219
14752SOL    HW244835   1.986   0.098   8.597  0.8411 -0.7072  0.2426
14753SOL     OW44836   5.272   0.628   3.800 -0.0907  0.3585 -0.2378
14753SOL    HW144837   5.265   0.704   3.858 -0.5755 -0.9129  1.4149
14753SOL    HW244838   5.326   0.660   3.727  1.4524  1.7338  1.3899
14754SOL     OW44839   9.555   4.893   7.989  0.2989  0.2268  0.3585
14754SOL    HW144840   9.508   4.914   7.908  1.4930 -0.5263 -0.5615
14754SOL    HW244841   9.646   4.916   7.970  0.5527  0.2971  1.5951
14755SOL     OW44842   5.282   5.874   2.007 -0.3376 -0.8504 -0.4311
14755SOL    HW144843   5.349   5.903   1.945  0.2056 -0.0201  0.4978
14755SOL    HW244844   5.259   5.954   2.056 -0.2694 -1.6020  0.8682
14756SOL     OW44845   2.651   3.972   0.150  0.1451  0.5056  0.4813
14756SOL    HW144846   2.569   4.005   0.113  0.2994 -0.7583 -1.1409
14756SOL    HW244847   2.691   4.048   0.191 -0.5150  1.8394 -1.1839
14757SOL     OW44848   4.013   6.412   5.463 -0.2030 -0.4385  0.1830
14757SOL    HW144849   4.053   6.435   5.379 -0.6793  1.0356  0.3405
14757SOL    HW244850   4.039   6.320   5.477 -2.7728 -1.8925 -3.1565
14758SOL     OW44851   7.979   4.359   1.558 -0.2230 -0.4063 -0.3992
14758SOL    HW144852   7.959   4.284   1.614 -0.6049 -1.0730 -1.4082
14758SOL    HW244853   8.066   4.387   1.587 -0.5412 -0.5189  0.7444
14759SOL     OW44854   6.711   2.219   0.459 -0.7119 -0.3939 -0.0722
14759SOL    HW144855   6.796   2.236   0.501 -0.1422  0.5530 -1.5309
14759SOL    HW244856   6.647   2.263   0.515 -0.0247  0.4476  0.0721
14760SOL     OW44857   3.552   4.600   8.138 -0.4711  0.2196  0.0184
14760SOL    HW144858   3.502   4.533   8.092 -1.1565  1.3232 -0.9017
14760SOL    HW244859   3.642   4.588   8.108 -0.1281 -1.7091  1.5998
14761SOL     OW44860   6.197   4.484   6.675  0.0893 -0.5980  0.0517
14761SOL    HW144861   6.159   4.446   6.754 -0.3477 -0.2221  0.0271
14761SOL    HW244862   6.161   4.432   6.604 -1.2233  0.3755 -0.0531
14762SOL     OW44863   6.084   5.193   0.703  0.9246 -0.1028  0.1108
14762SOL    HW144864   6.038   5.274   0.722  0.8850 -0.3351  1.0517
14762SOL    HW244865   6.020   5.124   0.718  0.9928 -0.3210 -0.5611
14763SOL     OW44866   9.763   5.133   6.873  0.3672  0.4020 -0.6895
14763SOL    HW144867   9.744   5.121   6.780 -1.2980  0.3510 -0.3694
14763SOL    HW244868   9.851   5.170   6.875  1.3205 -1.6392 -2.1805
14764SOL     OW44869   8.180   3.201   3.895 -0.1859  0.1296 -0.2981
14764SOL    HW144870   8.179   3.260   3.820  2.0861  0.0509 -0.4497
14764SOL    HW244871   8.196   3.114   3.857 -2.7599 -0.5544 -0.0153
14765SOL     OW44872   4.874   2.873   9.322 -0.0711 -0.1149 -0.3440
14765SOL    HW144873   4.949   2.846   9.269 -2.2755 -2.1592 -2.7268
14765SOL    HW244874   4.843   2.791   9.361 -0.9515  0.7267  0.7582
14766SOL     OW44875   8.969   1.624   2.232 -0.0311  0.4960  0.0016
14766SOL    HW144876   9.046   1.598   2.283  1.5245  2.8752 -0.9457
14766SOL    HW244877   8.923   1.687   2.287 -0.1412  0.6137 -0.2205
14767SOL     OW44878   1.962   3.056   4.543  0.4046  0.0512  0.0197
14767SOL    HW144879   2.043   3.091   4.505  0.1465  0.5778 -0.0559
14767SOL    HW244880   1.894   3.115   4.512 -0.0530 -0.5739 -0.1684
14768SOL     OW44881   8.365   9.664   3.276 -0.5279  0.1511 -0.4381
14768SOL    HW144882   8.433   9.623   3.223 -0.6595 -0.4720 -0.1288
14768SOL    HW244883   8.397   9.753   3.292  0.4196 -0.2657  0.0581
14769SOL     OW44884   7.773   6.575   6.667  0.3909  0.3066 -0.2278
14769SOL    HW144885   7.679   6.567   6.650  0.1333 -0.2174  1.3257
14769SOL    HW244886   7.814   6.512   6.608 -0.3273 -0.2674 -0.1276
14770SOL     OW44887   9.208   9.676   5.011 -0.7234 -0.0381 -0.2175
14770SOL    HW144888   9.177   9.610   4.948 -0.9326 -0.0448 -0.1076
14770SOL    HW244889   9.158   9.754   4.991  0.3698  0.4571 -1.1420
14771SOL     OW44890   4.504   4.214   8.422 -0.0573  0.1063 -0.8007
14771SOL    HW144891   4.411   4.206   8.402  0.4966 -3.6571 -2.8552
14771SOL    HW244892   4.545   4.240   8.340  0.8046  1.4502  0.0096
14772SOL     OW44893   7.357   0.182   3.970  0.0124 -0.2948 -0.7262
14772SOL    HW144894   7.426   0.210   3.910  1.9636 -0.5132  1.2678
14772SOL    HW244895   7.365   0.087   3.974 -1.2978 -0.4560 -1.4315
14773SOL     OW44896   2.234   4.308   1.957  0.0528 -0.5326  0.4122
14773SOL    HW144897   2.280   4.247   2.014 -2.2156 -0.9530  1.9048
14773SOL    HW244898   2.301   4.372   1.931  1.3739 -0.8285  2.8362
14774SOL     OW44899   4.181   8.870   6.508 -0.4103 -0.4541 -0.3695
14774SOL    HW144900   4.200   8.914   6.591  0.5092  1.3420 -1.4528
14774SOL    HW244901   4.086   8.861   6.507 -0.5726  0.8771  0.2545
14775SOL     OW44902   2.355   0.976   1.066 -0.0495 -0.1823 -0.1862
14775SOL    HW144903   2.386   0.995   0.978  0.6883 -0.0888  0.0843
14775SOL    HW244904   2.414   0.909   1.099 -0.9436 -0.9561 -0.1205
14776SOL     OW44905   2.298   1.351   7.133 -0.2687 -0.0351  0.3065
14776SOL    HW144906   2.270   1.429   7.179 -0.7439 -0.2411  0.3761
14776SOL    HW244907   2.262   1.360   7.045 -0.1031 -0.0508  0.2369
14777SOL     OW44908   5.613   8.797   7.900  0.8491  0.0232 -0.1861
14777SOL    HW144909   5.565   8.718   7.924 -0.2247  0.9241  0.7481
14777SOL    HW244910   5.669   8.815   7.976  0.6240  0.4899 -0.1244
14778SOL     OW44911   0.717   0.771   9.054  0.1322  0.4529  0.5732
14778SOL    HW144912   0.686   0.759   9.143 -1.8307 -2.4923 -0.3665
14778SOL    HW244913   0.767   0.692   9.034  0.9142  1.2418 -0.8108
14779SOL     OW44914   8.658   7.579   0.540  0.3433  0.1354  0.3339
14779SOL    HW144915   8.637   7.665   0.577  1.9955  0.6510  0.1586
14779SOL    HW244916   8.701   7.533   0.611  0.9236  0.0630 -0.0595
14780SOL     OW44917   4.685   5.069   1.476 -0.3487  0.2250 -0.1210
14780SOL    HW144918   4.744   5.003   1.513  0.2617 -0.7104 -2.5625
14780SOL    HW244919   4.743   5.127   1.426 -1.2533  0.5770 -0.7783
14781SOL     OW44920   3.498   2.798   5.576  0.3855 -0.8870 -0.0863
14781SOL    HW144921   3.477   2.838   5.492 -1.1859 -0.8500  0.2924
14781SOL    HW244922   3.530   2.870   5.630 -1.9311 -0.1715  0.4300
14782SOL     OW44923   5.464   0.812   0.055 -1.0177  0.0635  1.0680
14782SOL    HW144924   5.418   0.853   0.128 -0.4357 -1.6573  2.4823
14782SOL    HW244925   5.526   0.752   0.096 -2.7859 -3.3247 -0.7555
14783SOL     OW44926   6.175   2.603   4.238 -0.2957  0.0350 -0.3938
14783SOL    HW144927   6.108   2.539   4.259  1.8581 -2.4060 -0.4849
14783SOL    HW244928   6.244   2.589   4.303  1.2085  0.7322 -1.7557
14784SOL     OW44929   7.546   9.770   9.398  0.1745 -0.3943  0.1721
14784SOL    HW144930   7.608   9.789   9.328 -0.0258  0.7133  0.2769
14784SOL    HW244931   7.467   9.742   9.353 -0.2854  1.2487 -0.1359
14785SOL     OW44932   9.876   7.494   8.144  0.5211 -0.6809 -0.3776
14785SOL    HW144933   9.792   7.482   8.099 -0.5174 -0.2825  1.3688
14785SOL    HW244934   9.853   7.501   8.236  2.6239 -2.2042  0.3504
14786SOL     OW44935   9.059   6.860   2.725  0.1716 -0.6341 -0.1867
14786SOL    HW144936   9.037   6.784   2.671 -0.9755 -0.1718 -0.4025
14786SOL    HW244937   9.149   6.882   2.701 -0.3297 -0.4025 -1.9706
14787SOL     OW44938   5.042   3.365   3.428 -0.4165  0.0642 -0.0931
14787SOL    HW144939   4.950   3.393   3.427 -0.2271  0.6887 -0.1137
14787SOL    HW244940   5.045   3.292   3.367 -0.6816  0.7398 -0.9395
14788SOL     OW44941   5.964   2.206   1.121  0.1110  0.6407  0.2056
14788SOL    HW144942   6.019   2.187   1.197 -2.2381  1.3299  2.1813
14788SOL    HW244943   5.968   2.301   1.112 -0.5054  0.6625  0.1704
14789SOL     OW44944   1.947   1.581   4.919  0.1144 -0.4970 -0.5188
14789SOL    HW144945   1.930   1.567   4.826  0.3641 -0.9945 -0.4948
14789SOL    HW244946   1.994   1.664   4.923 -3.1313  1.5167 -0.5010
14790SOL     OW44947   0.583   7.372   2.569 -0.0649 -0.3855 -0.4051
14790SOL    HW144948   0.561   7.337   2.655 -0.7914 -0.0927 -0.4682
14790SOL    HW244949   0.500   7.374   2.522  0.0003  1.1886 -0.4872
14791SOL     OW44950   5.567   9.568   2.416 -0.1786 -0.0025 -0.1033
14791SOL    HW144951   5.489   9.551   2.469 -0.2826 -0.1061 -0.2887
14791SOL    HW244952   5.626   9.496   2.437  0.3195  0.6676  0.8819
14792SOL     OW44953   2.351   8.425   2.686  0.6386 -0.1997 -0.0901
14792SOL    HW144954   2.309   8.397   2.605 -1.8299  0.8489  0.7517
14792SOL    HW244955   2.438   8.456   2.659 -0.2820  0.5140 -2.3937
14793SOL     OW44956   8.136   9.071   9.153 -0.0529  0.2980  0.6747
14793SOL    HW144957   8.116   8.978   9.162 -2.0477  0.4801 -1.1583
14793SOL    HW244958   8.161   9.082   9.061 -3.3532  2.0469 -0.1780
14794SOL     OW44959   4.187   9.464   7.729 -0.0741  0.3170  0.3001
14794SOL    HW144960   4.240   9.487   7.652 -0.5049  3.2138  0.7870
14794SOL    HW244961   4.136   9.388   7.700  0.8329  0.4102 -1.7672
14795SOL     OW44962   8.531   4.490   6.405 -0.3565 -0.0229 -0.1551
14795SOL    HW144963   8.578   4.407   6.414  0.1461  0.3795  1.2914
14795SOL    HW244964   8.453   4.468   6.354 -1.3214 -1.8740  1.9349
14796SOL     OW44965   8.565   7.180   0.330  0.2583 -0.0531 -0.3081
14796SOL    HW144966   8.636   7.205   0.390  2.0305 -2.6203 -1.1529
14796SOL    HW244967   8.599   7.202   0.243  0.9429 -2.9808 -0.8817
14797SOL     OW44968   8.028   6.481   7.296  0.3289  0.5362 -0.2560
14797SOL    HW144969   8.121   6.482   7.321  1.0149 -0.3790 -2.5368
14797SOL    HW244970   8.025   6.425   7.218 -1.7387  2.4960 -1.7064
14798SOL     OW44971   6.027   5.379   1.766  0.0771 -0.2008  0.3420
14798SOL    HW144972   5.962   5.447   1.784  0.8876  1.2404 -1.8050
14798SOL    HW244973   6.060   5.354   1.852 -0.9830  1.3753  1.2551
14799SOL     OW44974   2.151   7.082   5.510  0.2043 -0.1819 -0.3826
14799SOL    HW144975   2.151   7.052   5.600 -1.0361 -0.1292 -0.3453
14799SOL    HW244976   2.058   7.098   5.490  0.5234  0.4592 -1.4415
14800SOL     OW44977   5.610   2.114   5.383  0.0985 -0.3246  0.0148
14800SOL    HW144978   5.700   2.084   5.396 -0.1387 -0.7263  0.7956
14800SOL    HW244979   5.576   2.059   5.314 -0.4465 -2.1616  1.6678
14801SOL     OW44980   4.856   4.830   8.991 -0.1450  0.4980  0.2227
14801SOL    HW144981   4.808   4.909   8.966 -1.0248 -0.3512 -0.9203
14801SOL    HW244982   4.787   4.767   9.014  0.4762 -0.2838 -0.0036
14802SOL     OW44983   3.283   0.515   0.187  0.3469 -0.0730 -0.0069
14802SOL    HW144984   3.360   0.458   0.197 -0.7777 -1.6894 -0.1257
14802SOL    HW244985   3.276   0.530   0.092 -0.7335 -1.8321 -0.2594
14803SOL     OW44986   6.859   4.242   4.845  0.5520  0.1816  0.3430
14803SOL    HW144987   6.791   4.274   4.904  0.7528  2.1089 -0.3772
14803SOL    HW244988   6.819   4.247   4.758  0.8001 -1.0890  0.1345
14804SOL     OW44989   6.146   3.208   2.834 -0.0396  0.5640  0.3333
14804SOL    HW144990   6.063   3.232   2.793 -0.7799  0.5451  1.7711
14804SOL    HW244991   6.122   3.175   2.920  1.5187  1.5535  1.2003
14805SOL     OW44992   3.934   2.946   1.686  0.2133  0.5271 -0.7554
14805SOL    HW144993   3.875   3.001   1.738  1.0022  1.1090 -0.4514
14805SOL    HW244994   4.015   2.997   1.679  1.0875 -0.7229 -0.2040
14806SOL     OW44995   5.386   4.934   0.510  0.4312  0.1473  0.8765
14806SOL    HW144996   5.356   4.895   0.593  2.4223 -0.7943  1.2121
14806SOL    HW244997   5.477   4.957   0.526  0.4008  1.3997 -0.5911
14807SOL     OW44998   4.995   0.506   5.786 -0.3409  0.0612 -0.2487
14807SOL    HW144999   5.020   0.415   5.768  0.6913  0.3907 -0.5805
14807SOL    HW245000   4.901   0.503   5.803 -0.2265 -1.1463  0.2677
14808SOL     OW45001   2.560   9.068   2.927 -0.4555 -0.1311  0.4571
14808SOL    HW145002   2.629   9.076   2.861 -1.4786  0.9826 -0.5217
14808SOL    HW245003   2.606   9.040   3.006  0.7671 -1.6570 -0.7478
14809SOL     OW45004   5.275   1.521   5.438 -0.2978 -0.3064  0.0808
14809SOL    HW145005   5.263   1.459   5.509 -0.4179 -1.1476 -0.6512
14809SOL    HW245006   5.363   1.556   5.450 -0.2050 -0.6666  0.4622
14810SOL     OW45007   5.437   8.821   9.661  0.2291  0.1853  0.6689
14810SOL    HW145008   5.469   8.740   9.699  2.4470  1.2495  1.2635
14810SOL    HW245009   5.485   8.829   9.578 -0.3955  0.6011  0.3392
14811SOL     OW45010   0.803   0.436   2.555  0.4153  0.2052 -0.1377
14811SOL    HW145011   0.844   0.358   2.591  0.5720  0.1805 -0.3705
14811SOL    HW245012   0.763   0.407   2.473 -0.5005  0.1142  0.3301
14812SOL     OW45013   9.160   9.080   9.708  0.6957 -0.1031  0.6422
14812SOL    HW145014   9.182   9.101   9.617 -0.3701  0.5388  0.5239
14812SOL    HW245015   9.228   9.122   9.760 -0.2287  1.9648  0.2885
14813SOL     OW45016   3.944   3.409   7.316 -0.1266  0.3404 -0.1893
14813SOL    HW145017   4.010   3.374   7.255  0.4197  1.1731 -0.0961
14813SOL    HW245018   3.921   3.335   7.372 -0.5228 -0.4035 -1.2974
14814SOL     OW45019   5.322   9.718   8.008  1.1778  0.0011 -0.1283
14814SOL    HW145020   5.415   9.738   8.002  0.9227  2.6328  2.4355
14814SOL    HW245021   5.294   9.757   8.091 -1.7089 -2.9534  0.5350
14815SOL     OW45022   0.257   8.407   8.909 -0.0851  0.1424  0.4743
14815SOL    HW145023   0.265   8.501   8.896  1.2025  0.6894  4.0955
14815SOL    HW245024   0.344   8.372   8.887 -0.4893 -0.2111 -0.6307
14816SOL     OW45025   7.571   1.954   8.313  0.4438 -0.5818  0.3092
14816SOL    HW145026   7.562   1.967   8.407  1.6926  0.3667  0.3208
14816SOL    HW245027   7.490   1.908   8.287 -1.2183  1.5437  1.3772
14817SOL     OW45028   9.438   6.281   2.769 -0.0189 -0.2230  0.8093
14817SOL    HW145029   9.375   6.336   2.815 -1.5367  0.9330 -2.3756
14817SOL    HW245030   9.520   6.332   2.772 -0.7496  1.0422  0.1145
14818SOL     OW45031   6.724   1.609   2.904 -0.6673  0.2580  0.4578
14818SOL    HW145032   6.789   1.556   2.858 -1.5086 -1.3989  1.0795
14818SOL    HW245033   6.682   1.661   2.836  1.4295  1.5754  0.0717
14819SOL     OW45034   7.134   6.041   0.645 -0.2204 -0.3721  0.0734
14819SOL    HW145035   7.179   5.981   0.586 -1.9952 -1.2731 -0.4225
14819SOL    HW245036   7.041   6.032   0.623 -0.7611  0.6901  1.7188
14820SOL     OW45037   5.797   4.702   1.316  0.0775 -1.0016  0.7793
14820SOL    HW145038   5.751   4.675   1.396 -0.3237 -2.0262  0.2255
14820SOL    HW245039   5.728   4.706   1.249 -0.0902  2.3696  0.9632
14821SOL     OW45040   9.143   2.937   9.897  0.7164 -0.2688  0.3852
14821SOL    HW145041   9.183   3.022   9.879  0.3465 -0.2940 -0.5682
14821SOL    HW245042   9.074   2.928   9.832  0.4844 -1.1306  0.7337
14822SOL     OW45043   6.160   8.933   1.223 -0.2553 -0.2904 -0.0578
14822SOL    HW145044   6.243   8.979   1.235  0.0651 -0.9049  0.0821
14822SOL    HW245045   6.159   8.866   1.291 -1.0562 -0.0187  0.2062
14823SOL     OW45046   8.903   0.757   1.646 -0.3737  0.1404  0.5786
14823SOL    HW145047   8.966   0.691   1.615  0.2565  1.4638 -1.1459
14823SOL    HW245048   8.926   0.772   1.737  0.3851 -0.9978  0.5919
14824SOL     OW45049   6.587   0.863   1.718  0.5117  0.1736 -0.2436
14824SOL    HW145050   6.584   0.932   1.785 -0.1783  0.7364 -0.8332
14824SOL    HW245051   6.565   0.783   1.766 -0.2753  0.6158  0.1599
14825SOL     OW45052   3.415   7.186   0.672  0.4404 -0.0108 -0.3876
14825SOL    HW145053   3.414   7.244   0.749  0.0757 -0.2572 -0.2036
14825SOL    HW245054   3.431   7.099   0.708  0.0093 -0.1652 -0.5658
14826SOL     OW45055   0.227   7.200   2.168  0.1097  0.2939 -0.6184
14826SOL    HW145056   0.217   7.108   2.143 -1.2987  0.0841  0.5759
14826SOL    HW245057   0.141   7.239   2.151  0.2879  1.0586  0.1517
14827SOL     OW45058   2.393   8.642   7.200 -0.3845 -0.0332 -0.0482
14827SOL    HW145059   2.399   8.678   7.289 -0.1792  1.2850 -0.5798
14827SOL    HW245060   2.408   8.717   7.143  1.8223 -1.2896 -1.2155
14828SOL     OW45061   3.586   9.690   5.009 -0.1420  0.3789 -0.2654
14828SOL    HW145062   3.497   9.657   4.995 -1.1056  0.8891  3.5253
14828SOL    HW245063   3.638   9.612   5.029  0.0912  0.1802 -1.5689
14829SOL     OW45064   9.063   4.854   3.886  0.1157 -0.0085 -0.3564
14829SOL    HW145065   8.994   4.809   3.934  0.2609  0.2125  0.0615
14829SOL    HW245066   9.030   4.942   3.872  0.0376 -0.0959 -0.7464
14830SOL     OW45067   9.264   7.369   1.228 -0.1358 -0.1752  0.4739
14830SOL    HW145068   9.249   7.448   1.281  1.3555 -0.8813  2.0778
14830SOL    HW245069   9.348   7.335   1.261 -0.4514 -2.1024 -0.5933
14831SOL     OW45070   7.508   4.506   9.670  0.2400  0.1277  0.2321
14831SOL    HW145071   7.428   4.553   9.692  0.3281 -0.0289  0.9134
14831SOL    HW245072   7.520   4.444   9.742  0.4288 -0.5517 -0.3719
14832SOL     OW45073   8.765   9.187   2.772 -0.1327 -0.2808 -0.3157
14832SOL    HW145074   8.688   9.235   2.742 -0.4863  0.0289  1.0336
14832SOL    HW245075   8.730   9.108   2.813  0.3796 -1.0352 -1.2847
14833SOL     OW45076   3.378   0.589   9.469 -0.5312 -0.2061 -0.1689
14833SOL    HW145077   3.353   0.604   9.561 -0.9748  2.7843 -0.6878
14833SOL    HW245078   3.469   0.561   9.473  0.6755  3.3517  1.1437
14834SOL     OW45079   5.162   8.768   6.555 -0.0312  0.9365 -0.2781
14834SOL    HW145080   5.176   8.859   6.579  0.1666  0.9857 -0.5743
14834SOL    HW245081   5.114   8.771   6.472  1.9567  0.8137 -1.5152
14835SOL     OW45082   2.909   5.171   8.895 -0.6000 -0.5997  0.4718
14835SOL    HW145083   2.970   5.229   8.941  1.7459 -1.9840 -0.6982
14835SOL    HW245084   2.848   5.230   8.851  1.2161  0.9874 -0.0408
14836SOL     OW45085   9.783   8.596   5.107 -0.4982 -0.3724  1.2107
14836SOL    HW145086   9.826   8.511   5.103  0.4012 -0.0430  2.8965
14836SOL    HW245087   9.853   8.660   5.095 -0.8259  0.1373  1.8786
14837SOL     OW45088   0.878   7.532   5.918  0.3163  0.0185 -0.0978
14837SOL    HW145089   0.786   7.514   5.935  0.2945  0.7058  0.5646
14837SOL    HW245090   0.922   7.512   6.000  0.5829  0.8223 -0.0291
14838SOL     OW45091   4.333   6.407   9.522 -0.1724 -0.3194 -0.3507
14838SOL    HW145092   4.393   6.372   9.456 -1.0269 -1.1428 -0.7082
14838SOL    HW245093   4.250   6.416   9.477 -0.5381  0.0015  0.3694
14839SOL     OW45094   3.453   2.506   0.806  0.0627 -0.0923 -0.4710
14839SOL    HW145095   3.415   2.439   0.749  1.3379 -1.1967 -0.0802
14839SOL    HW245096   3.548   2.490   0.802  0.3479  1.3064  0.1276
14840SOL     OW45097   5.982   1.166   2.339 -0.5761 -0.3740 -0.1478
14840SOL    HW145098   6.066   1.193   2.376 -0.9280  1.0190 -0.2928
14840SOL    HW245099   5.939   1.118   2.409 -0.5839  0.8731  0.7324
14841SOL     OW45100   5.734   7.352   0.872 -0.7119  0.3218  0.2182
14841SOL    HW145101   5.723   7.305   0.790 -2.3419  1.8506 -0.4987
14841SOL    HW245102   5.741   7.444   0.847 -1.9998  0.9046  1.7937
14842SOL     OW45103   9.516   1.183   0.737  0.1315 -0.1233  0.4557
14842SOL    HW145104   9.424   1.157   0.739  0.2998 -0.7529  0.2293
14842SOL    HW245105   9.530   1.229   0.819  0.3504 -2.5684  1.8645
14843SOL     OW45106   2.829   4.670   6.226  0.4649  0.3195  0.3927
14843SOL    HW145107   2.832   4.695   6.133 -0.1703 -0.0166  0.2801
14843SOL    HW245108   2.760   4.604   6.231  2.2444 -1.6194  0.6501
14844SOL     OW45109   3.055   7.568   3.495  0.2146 -0.5378  0.1310
14844SOL    HW145110   3.124   7.590   3.432  3.0812 -1.9039  2.5628
14844SOL    HW245111   3.078   7.616   3.574 -2.4877  0.0183  0.6799
14845SOL     OW45112   0.157   1.540   4.446 -0.2610  0.4456 -0.2742
14845SOL    HW145113   0.151   1.550   4.541  1.5323 -1.0839  0.0565
14845SOL    HW245114   0.092   1.473   4.425  2.4722 -2.7678  0.6621
14846SOL     OW45115   7.792   2.530   1.242 -0.0413 -0.0333  0.4203
14846SOL    HW145116   7.714   2.528   1.187  0.2524  0.0534 -0.0069
14846SOL    HW245117   7.840   2.451   1.219 -0.6067 -0.7402  1.5930
14847SOL     OW45118   2.352   4.061   2.611  0.2875 -0.5024 -0.0703
14847SOL    HW145119   2.289   4.091   2.546 -0.6181 -2.5771 -0.2255
14847SOL    HW245120   2.389   3.981   2.574  1.5496 -0.4179  0.9135
14848SOL     OW45121   1.263   5.461   7.075 -0.0786  0.0202  0.1559
14848SOL    HW145122   1.349   5.501   7.064  0.8209 -1.7532  0.3273
14848SOL    HW245123   1.265   5.385   7.017 -1.8403  0.3660 -0.4248
14849SOL     OW45124   8.373   3.421   6.395  0.0597 -0.6153  0.1507
14849SOL    HW145125   8.316   3.492   6.366  0.2973 -0.3475  0.3314
14849SOL    HW245126   8.327   3.384   6.471 -0.5767 -1.3386 -0.5643
14850SOL     OW45127   2.273   3.490   3.896 -0.0942  0.2441  0.5033
14850SOL    HW145128   2.337   3.493   3.967 -1.1470 -0.9632  1.5443
14850SOL    HW245129   2.252   3.582   3.880  1.3984  0.6370  0.5615
14851SOL     OW45130   4.172   4.690   3.565  0.0925  0.0052 -0.1005
14851SOL    HW145131   4.253   4.725   3.603 -0.0888 -0.9813  1.2410
14851SOL    HW245132   4.167   4.731   3.478  0.2266  2.8288  1.1080
14852SOL     OW45133   8.204   3.602   8.094  0.4131  0.0689 -0.2805
14852SOL    HW145134   8.257   3.669   8.051  1.3532 -0.1530  0.5087
14852SOL    HW245135   8.173   3.644   8.175 -0.7665  0.2531 -0.8121
14853SOL     OW45136   0.146   1.555   5.248 -0.1338  0.4393 -0.1667
14853SOL    HW145137   0.225   1.584   5.203 -0.0679  2.1734  0.9778
14853SOL    HW245138   0.074   1.599   5.203 -0.1338  1.5222  0.8244
14854SOL     OW45139   2.330   2.050   4.483  0.1119  0.0769 -0.0328
14854SOL    HW145140   2.376   2.131   4.503 -1.1402  0.8163 -0.0367
14854SOL    HW245141   2.248   2.056   4.531  0.1071 -1.3261  0.1932
14855SOL     OW45142   7.233   8.217   1.308  0.5399  0.0315 -0.2697
14855SOL    HW145143   7.279   8.184   1.231  1.7659  1.0824 -0.0252
14855SOL    HW245144   7.167   8.277   1.274 -1.7866 -2.5863 -0.7303
14856SOL     OW45145   1.205   4.105   6.640  0.4204 -0.1277 -0.2791
14856SOL    HW145146   1.206   4.154   6.722 -0.6514 -0.0714 -0.2800
14856SOL    HW245147   1.212   4.172   6.572 -1.7385  0.1406 -0.3022
14857SOL     OW45148   0.019   1.406   4.963 -0.6555  0.1531  0.0836
14857SOL    HW145149   0.072   1.333   4.996 -2.0688 -0.9072  0.1340
14857SOL    HW245150   0.031   1.475   5.027 -1.2048 -0.9173  1.3943
14858SOL     OW45151   5.205   6.241   2.697 -0.3871  0.3156 -0.3282
14858SOL    HW145152   5.270   6.282   2.754  0.1161  0.9813 -1.3552
14858SOL    HW245153   5.174   6.165   2.746  0.5382  0.4814  0.5339
14859SOL     OW45154   5.471   0.393   1.162 -0.4860 -0.2553 -0.2204
14859SOL    HW145155   5.385   0.351   1.167  0.4364 -2.4184 -1.1967
14859SOL    HW245156   5.452   0.481   1.131 -2.4010 -0.4555  0.1975
14860SOL     OW45157   3.366   5.937   6.906 -0.4286  0.6894 -0.1154
14860SOL    HW145158   3.395   6.002   6.841 -1.0668 -1.8682 -3.2173
14860SOL    HW245159   3.270   5.944   6.905 -0.4318  0.8853  0.8891
14861SOL     OW45160   3.777   4.398   3.949 -0.2176 -0.6143 -0.0034
14861SOL    HW145161   3.813   4.313   3.924  0.6412 -0.1789 -0.2986
14861SOL    HW245162   3.769   4.394   4.044  0.8102 -0.6612  0.0923
14862SOL     OW45163   0.426   2.123   2.922 -0.0152  0.3814 -0.0922
14862SOL    HW145164   0.516   2.110   2.892 -0.6656  2.0496 -3.1991
14862SOL    HW245165   0.434   2.140   3.016  3.0723  1.7314 -0.4907
14863SOL     OW45166   1.586   6.880   1.738  0.5494  0.8799 -0.0379
14863SOL    HW145167   1.506   6.903   1.691  0.5624 -1.2393 -1.2339
14863SOL    HW245168   1.656   6.892   1.673  0.8299 -0.0392  0.0818
14864SOL     OW45169   5.392   4.002   9.514 -0.3753 -0.0536  0.1518
14864SOL    HW145170   5.305   4.015   9.477 -0.6447  0.8211  1.0289
14864SOL    HW245171   5.383   4.029   9.606  0.2628 -2.1262  0.8833
14865SOL     OW45172   3.036   8.461   3.467 -0.1275  0.0808  0.0350
14865SOL    HW145173   3.042   8.503   3.381  0.8692  1.6414  0.8206
14865SOL    HW245174   3.096   8.386   3.461 -0.6175 -0.2530 -0.8402
14866SOL     OW45175   7.977   4.340   4.296 -0.1720  0.2248  0.4084
14866SOL    HW145176   7.956   4.418   4.348 -2.6893  0.6995 -1.1420
14866SOL    HW245177   7.948   4.362   4.207  0.3415 -1.9834 -0.3641
14867SOL     OW45178   9.250   3.878   7.413 -0.0340  0.2410 -0.0434
14867SOL    HW145179   9.321   3.814   7.412  0.5782  0.8509 -2.2335
14867SOL    HW245180   9.185   3.844   7.351 -0.7655  0.6161  0.5062
14868SOL     OW45181   2.203   7.293   8.146  0.2609  0.5382  0.4426
14868SOL    HW145182   2.212   7.368   8.088 -0.4322  0.6348  0.4605
14868SOL    HW245183   2.137   7.237   8.104  0.4981  0.1187  0.6199
14869SOL     OW45184   3.923   7.598   4.243  0.2538 -0.1134 -0.5339
14869SOL    HW145185   3.909   7.521   4.298 -1.6581  1.6534  1.6997
14869SOL    HW245186   3.911   7.567   4.154 -1.9733 -2.1780  0.3676
14870SOL     OW45187   8.229   6.240   5.116  0.5249  0.2856  0.8027
14870SOL    HW145188   8.248   6.323   5.159 -0.5979  1.6459 -1.1522
14870SOL    HW245189   8.307   6.222   5.064  0.9289 -0.1239  1.5330
14871SOL     OW45190   0.929   5.632   4.147  0.8027 -0.3766  0.0236
14871SOL    HW145191   0.867   5.663   4.082  1.0892  0.8537  0.3154
14871SOL    HW245192   0.927   5.536   4.138  0.1655 -0.2734 -1.1453
14872SOL     OW45193   2.729   0.821   1.557  0.2833 -0.6260 -0.2096
14872SOL    HW145194   2.746   0.726   1.556  4.3543 -0.1461  2.3017
14872SOL    HW245195   2.805   0.859   1.513 -0.7763  1.5523 -0.2534
14873SOL     OW45196   8.634   1.221   4.736 -0.2288 -0.1614 -0.1972
14873SOL    HW145197   8.720   1.215   4.778  0.1733 -1.4786 -1.1359
14873SOL    HW245198   8.654   1.238   4.644 -1.0502  1.3470 -0.1230
14874SOL     OW45199   0.106   5.856   2.069 -0.1300 -0.0626 -0.4451
14874SOL    HW145200   0.016   5.857   2.102 -0.2540 -1.8909 -0.6274
14874SOL    HW245201   0.144   5.777   2.108  0.8701 -0.2244 -1.7181
14875SOL     OW45202   8.480   1.099   4.010 -0.2342 -0.0986  0.0910
14875SOL    HW145203   8.435   1.083   4.093  1.0809 -0.8688  0.6888
14875SOL    HW245204   8.465   1.192   3.993  1.5550  0.7374  2.5307
14876SOL     OW45205   8.263   6.940   2.278 -0.5657  0.3539 -0.3841
14876SOL    HW145206   8.232   7.030   2.274 -1.7145  0.1363  1.9151
14876SOL    HW245207   8.186   6.887   2.256  0.2041 -0.1055 -2.1400
14877SOL     OW45208   8.571   9.248   1.284  0.0023 -0.0896  0.3108
14877SOL    HW145209   8.598   9.156   1.277  0.5352  0.1818 -2.0104
14877SOL    HW245210   8.537   9.256   1.373 -1.8860 -3.0235  0.0075
14878SOL     OW45211   7.444   5.558   6.042 -0.0689  0.0324 -1.1348
14878SOL    HW145212   7.439   5.472   6.001  1.0980 -0.4709 -0.2851
14878SOL    HW245213   7.355   5.577   6.070 -0.6304 -0.1990 -2.6685
14879SOL     OW45214   1.979   2.348   9.248 -0.1190 -0.1660 -0.4113
14879SOL    HW145215   1.998   2.434   9.284  0.0530 -1.3748  2.6375
14879SOL    HW245216   2.060   2.325   9.201  0.6476  0.5039  0.5199
14880SOL     OW45217   2.754   2.764   9.497 -0.2331  0.1101  0.1952
14880SOL    HW145218   2.756   2.838   9.557  0.1911 -0.2667  0.6542
14880SOL    HW245219   2.782   2.689   9.550  0.4780 -0.1671 -0.5514
14881SOL     OW45220   6.160   2.131   0.294 -0.0329  0.7267 -0.5220
14881SOL    HW145221   6.154   2.223   0.268 -1.1931  0.9637  0.4974
14881SOL    HW245222   6.182   2.134   0.387  0.0386 -0.0406 -0.5116
14882SOL     OW45223   5.185   7.355   5.286  0.6069 -0.5937 -0.3067
14882SOL    HW145224   5.273   7.316   5.288  0.0093 -1.9775  0.4643
14882SOL    HW245225   5.164   7.361   5.193  1.3122 -0.7355 -0.4834
14883SOL     OW45226   9.635   2.331   2.067 -0.2758 -0.0701  0.0172
14883SOL    HW145227   9.667   2.391   2.133  0.2986  1.2241 -1.3783
14883SOL    HW245228   9.595   2.387   2.001  0.3782 -1.1919 -1.3901
14884SOL     OW45229   5.869   5.081   5.185 -0.1916 -0.6216 -0.2244
14884SOL    HW145230   5.875   5.143   5.257 -0.5564 -0.2526 -0.5097
14884SOL    HW245231   5.950   5.030   5.190  0.4371  0.3423 -0.4203
14885SOL     OW45232   2.687   5.561   8.248 -0.4638  0.6001  0.1041
14885SOL    HW145233   2.742   5.618   8.194 -0.6181  0.3645 -0.3074
14885SOL    HW245234   2.676   5.482   8.195  1.1116 -0.5077  1.3214
14886SOL     OW45235   7.301   0.323   5.911  0.3127  0.0221 -0.2380
14886SOL    HW145236   7.218   0.332   5.866 -0.1333 -0.5318  0.4491
14886SOL    HW245237   7.320   0.410   5.945 -1.2280 -0.3322  1.6915
14887SOL     OW45238   7.903   9.745   3.011 -0.3520  0.5036  0.0638
14887SOL    HW145239   7.944   9.689   2.945 -2.0689  0.1339 -0.7187
14887SOL    HW245240   7.810   9.745   2.989 -0.8630  0.9977  2.0290
14888SOL     OW45241   8.358   4.642   5.150 -0.1869 -0.3880 -0.2785
14888SOL    HW145242   8.317   4.581   5.089 -0.2563 -0.9846  0.3626
14888SOL    HW245243   8.300   4.645   5.225 -0.1520  0.4265 -0.2656
14889SOL     OW45244   5.526   1.856   7.622  0.3350 -0.2022  0.0431
14889SOL    HW145245   5.535   1.898   7.708 -1.2639 -0.9180  0.5806
14889SOL    HW245246   5.609   1.810   7.609  0.3552 -0.6057  1.4866
14890SOL     OW45247   3.343   3.041   8.637  0.0329  0.0276  0.1975
14890SOL    HW145248   3.251   3.066   8.646 -0.1899 -0.8680  0.5002
14890SOL    HW245249   3.361   2.986   8.713  0.9685  0.5866  0.4021
14891SOL     OW45250   4.178   9.382   3.274  0.4817  0.2712 -0.5422
14891SOL    HW145251   4.111   9.359   3.338 -0.5191  0.3811 -1.5303
14891SOL    HW245252   4.260   9.383   3.325 -0.2214 -0.0500  0.6375
14892SOL     OW45253   7.605   2.273   1.510 -0.4453  0.6927  0.2624
14892SOL    HW145254   7.594   2.234   1.423 -1.0324 -0.0869  0.6704
14892SOL    HW245255   7.659   2.210   1.557 -2.0330 -0.0376  1.1706
14893SOL     OW45256   6.707   7.568   7.720  0.5960  0.7391 -0.1420
14893SOL    HW145257   6.626   7.568   7.771  0.3714  0.9556 -0.4945
14893SOL    HW245258   6.777   7.576   7.786  0.2450  2.7541  0.0669
14894SOL     OW45259   0.309   2.438   1.134 -0.2992 -0.2121 -0.2116
14894SOL    HW145260   0.261   2.431   1.216  2.0054 -2.6813  1.1103
14894SOL    HW245261   0.401   2.426   1.159  0.9988  3.1229 -2.6968
14895SOL     OW45262   1.857   8.578   8.554  0.6339  0.7982 -0.1418
14895SOL    HW145263   1.928   8.614   8.501  1.6336  1.1645  1.3554
14895SOL    HW245264   1.876   8.485   8.560  0.5599  0.7686 -0.3759
14896SOL     OW45265   1.397   8.911   0.720 -0.5262  0.0128 -0.1364
14896SOL    HW145266   1.416   9.005   0.730  1.2160 -0.1743 -1.2278
14896SOL    HW245267   1.348   8.906   0.638 -0.8958  0.0008  0.0858
14897SOL     OW45268   1.982   6.181   3.419 -0.3055 -0.1391  0.0188
14897SOL    HW145269   1.914   6.120   3.390 -0.7300  0.5119 -0.3929
14897SOL    HW245270   1.934   6.261   3.441  0.1741 -0.1700  1.2068
14898SOL     OW45271   9.464   3.681   2.826  0.1111 -0.2781  0.1882
14898SOL    HW145272   9.479   3.655   2.735 -1.5319  0.4103 -0.3136
14898SOL    HW245273   9.514   3.617   2.877 -0.2548 -1.6855 -1.1262
14899SOL     OW45274   3.612   3.759   1.381 -0.1667  0.1574  0.1487
14899SOL    HW145275   3.606   3.854   1.379 -1.5422  0.0756 -0.6208
14899SOL    HW245276   3.556   3.729   1.310  0.4514 -1.2353  0.2011
14900SOL     OW45277   7.189   5.632   0.437 -0.3176  0.6271 -0.0670
14900SOL    HW145278   7.240   5.578   0.376  0.4718  0.6735  0.5312
14900SOL    HW245279   7.139   5.568   0.489 -0.9398  0.5845 -0.7138
14901SOL     OW45280   1.094   9.013   4.106  0.3222  0.3458  0.0996
14901SOL    HW145281   1.164   9.024   4.170  0.3253 -0.9233  0.3431
14901SOL    HW245282   1.024   8.968   4.153  0.0206  0.0829 -0.5732
14902SOL     OW45283   3.985   2.846   7.931  0.3878  0.1891  0.0856
14902SOL    HW145284   3.890   2.845   7.924  0.3985  0.9120 -0.2408
14902SOL    HW245285   4.010   2.754   7.928 -0.2587  0.0236 -0.3862
14903SOL     OW45286   3.333   2.693   5.767 -0.4115  0.0782 -0.2254
14903SOL    HW145287   3.247   2.705   5.729 -0.8768  1.4296  1.1351
14903SOL    HW245288   3.389   2.756   5.722 -0.8759  1.4017  0.9554
14904SOL     OW45289   7.095   6.847   2.737 -0.3484  0.7791  0.4411
14904SOL    HW145290   7.143   6.930   2.735 -0.9866  1.1520  0.1901
14904SOL    HW245291   7.020   6.861   2.679 -1.4630  0.6486  1.7943
14905SOL     OW45292   0.738   2.666   1.124 -0.2438  0.1548 -0.6876
14905SOL    HW145293   0.717   2.573   1.135 -1.2786  0.6512  2.1941
14905SOL    HW245294   0.766   2.695   1.210  0.6218  2.4260 -1.6578
14906SOL     OW45295   6.455   8.340   0.478  0.0650  0.5711  0.1534
14906SOL    HW145296   6.427   8.426   0.508 -0.1010  0.1839  1.1452
14906SOL    HW245297   6.548   8.335   0.502  0.8261  1.5034 -2.3275
14907SOL     OW45298   2.649   8.248   8.135  0.0520  0.4798 -0.0122
14907SOL    HW145299   2.681   8.178   8.078 -0.2001  0.7061 -0.4392
14907SOL    HW245300   2.726   8.299   8.157  0.4447 -0.6077  1.2776
14908SOL     OW45301   9.386   3.349   4.435  0.1034  0.1165 -0.4775
14908SOL    HW145302   9.399   3.375   4.526  0.4575  0.3010 -0.5807
14908SOL    HW245303   9.295   3.318   4.432 -1.0443  3.2161 -0.7630
14909SOL     OW45304   5.955   6.077   1.013 -0.2259 -0.4206 -0.1230
14909SOL    HW145305   5.918   6.078   0.925 -1.7608 -1.0778  0.4920
14909SOL    HW245306   5.962   5.984   1.035 -0.8300 -0.2473  0.8418
14910SOL     OW45307   0.382   4.242   7.215 -0.3316 -0.0372  0.7452
14910SOL    HW145308   0.411   4.277   7.131 -2.9335  0.6761  0.0418
14910SOL    HW245309   0.406   4.310   7.278  3.2605 -1.3423  1.0059
14911SOL     OW45310   8.725   0.828   3.258 -0.1121 -0.1935  0.0952
14911SOL    HW145311   8.703   0.816   3.351  1.6603 -0.5861  0.5053
14911SOL    HW245312   8.812   0.867   3.260 -0.9905  2.0279 -1.4063
14912SOL     OW45313   6.173   6.350   2.194 -0.7490 -0.1146 -0.2513
14912SOL    HW145314   6.202   6.278   2.138  0.4632 -0.1852  0.4562
14912SOL    HW245315   6.168   6.425   2.135  0.5745 -0.1771 -0.4575
14913SOL     OW45316   5.039   9.932   3.029  0.1194 -0.2611 -0.2678
14913SOL    HW145317   5.011   9.958   2.941  1.5298 -2.7040 -1.5363
14913SOL    HW245318   5.074   9.843   3.018 -0.9189 -1.2304  3.0198
14914SOL     OW45319   9.746   6.230   8.464  0.2089 -0.0128 -0.2623
14914SOL    HW145320   9.705   6.302   8.511 -0.8115 -0.7445 -0.0052
14914SOL    HW245321   9.828   6.214   8.511 -0.8297 -0.7968  1.3680
14915SOL     OW45322   7.843   7.071   8.346  0.7705 -0.0025  0.6211
14915SOL    HW145323   7.886   7.012   8.283 -0.5656 -0.9663  0.5425
14915SOL    HW245324   7.890   7.058   8.428  1.1488 -0.4196  0.3428
14916SOL     OW45325   4.084   1.776   1.533  0.2999  0.2482  0.1510
14916SOL    HW145326   4.149   1.804   1.597  0.7209 -0.3704 -0.0022
14916SOL    HW245327   4.122   1.799   1.448  0.0889  0.3506  0.0830
14917SOL     OW45328   9.088   3.622   6.513 -0.7873 -0.1887 -0.0546
14917SOL    HW145329   9.027   3.696   6.521 -1.9472 -1.2010  0.9207
14917SOL    HW245330   9.069   3.567   6.589 -0.9277 -2.1910 -1.4638
14918SOL     OW45331   5.299   6.364   9.767 -0.1349  0.0828 -0.3489
14918SOL    HW145332   5.335   6.364   9.856 -0.7201  2.5511 -0.0331
14918SOL    HW245333   5.366   6.320   9.714 -0.2877 -2.5202  1.4218
14919SOL     OW45334   1.385   1.264   9.726 -0.7106  0.1169  0.3145
14919SOL    HW145335   1.431   1.223   9.799 -1.2346 -1.8875 -0.4081
14919SOL    HW245336   1.297   1.281   9.760 -0.8037 -0.3478  0.3171
14920SOL     OW45337   2.447   8.935   5.968  0.3196 -0.1392 -0.4035
14920SOL    HW145338   2.494   8.875   6.025 -0.6530  0.3337  0.9465
14920SOL    HW245339   2.354   8.915   5.982  0.0408  0.2205 -1.5836
14921SOL     OW45340   9.548   8.001   9.700 -0.0531  0.2356  0.0453
14921SOL    HW145341   9.592   7.925   9.663 -2.4004 -1.2788  0.1483
14921SOL    HW245342   9.455   7.986   9.682 -0.6237  3.0795  0.0943
14922SOL     OW45343   9.552   4.075   1.658 -0.3286  0.0565  0.2592
14922SOL    HW145344   9.604   4.139   1.706 -0.1963 -1.1906  1.8703
14922SOL    HW245345   9.477   4.124   1.625  0.4460  1.2950  0.2890
14923SOL     OW45346   4.538   0.200   8.701 -0.0495 -0.0982  0.0581
14923SOL    HW145347   4.562   0.287   8.733 -1.0267  0.3250 -0.3320
14923SOL    HW245348   4.572   0.196   8.611 -1.9849  0.7889 -0.7712
14924SOL     OW45349   6.139   9.184   8.765 -0.2410  0.1692 -0.1131
14924SOL    HW145350   6.193   9.193   8.687  0.0516  1.8416  0.2493
14924SOL    HW245351   6.082   9.260   8.765 -1.0493 -0.4072  0.7012
14925SOL     OW45352   9.524   4.767   4.004  0.8462 -0.1967  0.2599
14925SOL    HW145353   9.441   4.763   3.958 -0.1522 -1.7368  2.0628
14925SOL    HW245354   9.589   4.740   3.939 -0.0516  0.8976 -1.1336
14926SOL     OW45355   2.095   4.096   0.780 -0.0276  0.3470 -0.2718
14926SOL    HW145356   2.094   4.092   0.875 -1.4788  2.9505 -0.0699
14926SOL    HW245357   2.038   4.024   0.752 -0.2012  0.0277  0.8532
14927SOL     OW45358   2.973   7.339   8.129  0.3282  0.2699 -0.5454
14927SOL    HW145359   3.037   7.294   8.073  1.7612  0.5120  0.8472
14927SOL    HW245360   2.926   7.268   8.173  0.5333  0.1048 -0.5914
14928SOL     OW45361   1.885   7.792   1.344  0.6762  0.0905 -0.6857
14928SOL    HW145362   1.802   7.823   1.381  0.3943 -2.2486  0.8231
14928SOL    HW245363   1.935   7.760   1.419  1.5380 -1.6038 -1.9095
14929SOL     OW45364   2.859   4.238   8.065  0.0260 -0.3840 -0.1126
14929SOL    HW145365   2.913   4.253   8.143 -1.4441 -0.0092  0.8801
14929SOL    HW245366   2.856   4.143   8.056  0.5655 -0.4178  0.0243
14930SOL     OW45367   1.879   4.738   6.997  0.1121  0.2514  0.8367
14930SOL    HW145368   1.824   4.753   7.075 -2.8027  3.1663 -1.4713
14930SOL    HW245369   1.881   4.823   6.953  1.4582 -1.2850 -2.3806
14931SOL     OW45370   3.618   6.234   0.166  0.6974  0.0356 -0.3192
14931SOL    HW145371   3.661   6.306   0.212 -0.2755 -0.0724  0.7886
14931SOL    HW245372   3.616   6.262   0.075  0.1667  1.5109  0.1166
14932SOL     OW45373   2.917   9.630   2.336 -0.0910  0.2158  0.1125
14932SOL    HW145374   2.851   9.678   2.387 -1.2761 -1.9399  0.7276
14932SOL    HW245375   2.913   9.541   2.370  1.6852 -0.4606 -1.3150
14933SOL     OW45376   2.869   8.368   3.636  0.7210  0.1676  0.6403
14933SOL    HW145377   2.898   8.397   3.722 -1.3085  4.2731  0.1751
14933SOL    HW245378   2.942   8.389   3.577  0.4992  1.4895  0.8079
14934SOL     OW45379   7.758   8.385   1.373  0.3642  0.7813  0.0454
14934SOL    HW145380   7.823   8.425   1.430  1.3488 -0.4752 -0.1536
14934SOL    HW245381   7.688   8.358   1.433  0.4405  1.3165  0.3836
14935SOL     OW45382   2.215   9.265   1.957 -0.0848  0.1050  0.7093
14935SOL    HW145383   2.148   9.202   1.931 -0.7404 -0.6124  3.7366
14935SOL    HW245384   2.297   9.216   1.952 -0.0499  0.2602 -0.6869
14936SOL     OW45385   8.330   5.425   8.305 -0.5363  0.2291 -0.0293
14936SOL    HW145386   8.375   5.367   8.243  0.2301 -0.9768  1.5706
14936SOL    HW245387   8.238   5.420   8.280 -0.1801  0.3664 -1.5032
14937SOL     OW45388   5.808   3.994   9.473 -0.4312 -0.5500  0.3975
14937SOL    HW145389   5.764   3.926   9.422 -2.1966 -0.5068  1.7513
14937SOL    HW245390   5.743   4.064   9.480  0.2338 -0.0310  1.6089
14938SOL     OW45391   2.342   0.408   8.473 -0.2287  0.2253  0.0487
14938SOL    HW145392   2.247   0.418   8.477 -0.6013 -2.0155 -1.4804
14938SOL    HW245393   2.364   0.354   8.550 -0.1390  0.8961  0.5038
14939SOL     OW45394   1.658   7.123   3.492  0.3278  0.4337  0.6074
14939SOL    HW145395   1.697   7.047   3.535  0.2445  0.1172  0.1359
14939SOL    HW245396   1.723   7.150   3.427  0.8966  1.5405  1.6103
14940SOL     OW45397   6.885   2.420   6.724  0.1538  0.7638  0.4025
14940SOL    HW145398   6.928   2.336   6.741 -3.5128 -1.5047 -0.2155
14940SOL    HW245399   6.948   2.470   6.673  2.7356 -1.3767  1.2917
14941SOL     OW45400   7.123   2.614   8.485  0.0934 -0.6746  0.0483
14941SOL    HW145401   7.176   2.692   8.467 -2.6919  1.2375 -0.5726
14941SOL    HW245402   7.162   2.576   8.564  1.5524  1.3839  0.4048
14942SOL     OW45403   6.954   8.421   4.241  0.0678 -0.2571 -0.0018
14942SOL    HW145404   6.934   8.489   4.306 -1.0595 -0.7720  0.2055
14942SOL    HW245405   7.042   8.444   4.210 -0.6652  1.9105 -0.6953
14943SOL     OW45406   7.888   0.989   6.030  0.4440  1.0460 -0.0611
14943SOL    HW145407   7.814   1.019   6.084  0.3298  2.0498 -0.7462
14943SOL    HW245408   7.858   0.905   5.995 -0.9022  1.9891 -1.2971
14944SOL     OW45409   0.359   2.391   2.845 -0.3279  0.4796 -0.5163
14944SOL    HW145410   0.385   2.301   2.864 -1.5813 -0.0582 -1.1778
14944SOL    HW245411   0.364   2.437   2.928 -2.3815 -0.9278  0.4672
14945SOL     OW45412   8.843   2.067   1.488 -0.3648  0.5168 -0.6908
14945SOL    HW145413   8.923   2.119   1.496 -0.6051  0.6338  1.8200
14945SOL    HW245414   8.783   2.104   1.553 -2.2118 -0.0714 -1.9535
14946SOL     OW45415   5.776   0.090   5.272 -0.0362 -0.2863 -0.3555
14946SOL    HW145416   5.813   0.067   5.357  1.0214 -0.6661 -0.8999
14946SOL    HW245417   5.828   0.165   5.243  0.2812 -0.7976 -1.1207
14947SOL     OW45418   9.130   7.090   3.343 -0.6127  0.4443 -0.4049
14947SOL    HW145419   9.175   7.043   3.274 -1.6900 -0.6658 -0.3786
14947SOL    HW245420   9.200   7.121   3.401  0.2012  0.1836 -1.2309
14948SOL     OW45421   4.306   6.494   0.338 -0.0853 -0.7672  0.4432
14948SOL    HW145422   4.376   6.494   0.273 -0.4996 -1.4522 -0.0158
14948SOL    HW245423   4.267   6.582   0.332  0.2025 -0.6618  0.1174
14949SOL     OW45424   1.314   0.087   5.066 -0.0219 -0.1972 -0.6040
14949SOL    HW145425   1.243   0.147   5.091  1.4276  1.8896 -1.1740
14949SOL    HW245426   1.358   0.066   5.149  0.9185  1.5787 -0.5881
14950SOL     OW45427   3.405   1.205   1.614  0.6336 -0.0451  0.3349
14950SOL    HW145428   3.320   1.161   1.619  0.5495 -0.0205 -0.6864
14950SOL    HW245429   3.390   1.291   1.653  0.3813 -0.3152  0.8410
14951SOL     OW45430   3.644   7.125   0.972  0.1226 -0.2449 -0.0563
14951SOL    HW145431   3.612   7.068   0.902  0.0323 -1.9625  1.3080
14951SOL    HW245432   3.613   7.083   1.052  0.7649  1.3155  1.0450
14952SOL     OW45433   7.370   5.785   9.890  0.1770 -0.1764 -0.2754
14952SOL    HW145434   7.398   5.876   9.883 -1.1694  0.3119  0.2146
14952SOL    HW245435   7.416   5.740   9.820  0.0400  1.1152 -1.2384
14953SOL     OW45436   9.568   4.713   9.250  0.3765 -0.0407 -0.2342
14953SOL    HW145437   9.554   4.640   9.190 -2.5242  0.9863 -0.9653
14953SOL    HW245438   9.599   4.784   9.194  0.6393  0.0644  0.0400
14954SOL     OW45439   3.707   7.922   5.406  0.1624 -0.3120 -0.2286
14954SOL    HW145440   3.618   7.956   5.412  0.8711  1.6887 -0.0244
14954SOL    HW245441   3.744   7.938   5.493  1.3365  0.9009 -0.9039
14955SOL     OW45442   5.404   3.218   8.020 -0.5745  0.5065 -0.2361
14955SOL    HW145443   5.496   3.245   8.016 -0.8877  1.6381 -0.1638
14955SOL    HW245444   5.405   3.141   8.077  0.7964 -1.7671 -3.0804
14956SOL     OW45445   8.901   6.350   1.217 -0.1405 -0.1600  0.5829
14956SOL    HW145446   8.860   6.399   1.146 -0.2284 -1.2118 -0.1086
14956SOL    HW245447   8.991   6.336   1.188 -0.9259 -3.2350 -0.8086
14957SOL     OW45448   3.398   2.580   2.000  0.0530 -0.5057  0.3974
14957SOL    HW145449   3.445   2.636   2.062  1.1594 -1.1026  0.1250
14957SOL    HW245450   3.371   2.639   1.929 -0.9942  0.1337  1.2866
14958SOL     OW45451   8.256   8.049   6.614  0.0853 -0.6919 -0.1500
14958SOL    HW145452   8.313   8.111   6.569  2.5149 -3.7814 -1.6153
14958SOL    HW245453   8.226   8.097   6.692  3.8989  1.5027  0.1952
14959SOL     OW45454   9.264   0.464   2.267  0.4068  0.2360  0.1568
14959SOL    HW145455   9.190   0.460   2.328 -0.5438  0.0031 -0.9558
14959SOL    HW245456   9.323   0.395   2.296  0.2459  0.5029  1.1394
14960SOL     OW45457   9.399   8.685   8.366  0.1920  0.0951  0.0749
14960SOL    HW145458   9.399   8.653   8.276  2.6673 -1.2255  0.4447
14960SOL    HW245459   9.318   8.735   8.374 -0.4544 -0.3559 -2.6455
14961SOL     OW45460   7.636   3.786   8.571 -0.2980  0.7341 -0.5122
14961SOL    HW145461   7.658   3.869   8.615  1.7433 -0.2212  0.3855
14961SOL    HW245462   7.687   3.787   8.490  1.0151 -0.2981  0.2633
14962SOL     OW45463   2.399   9.269   6.156  0.0113 -0.4451 -0.4827
14962SOL    HW145464   2.358   9.190   6.189  0.4121  0.0075  1.1654
14962SOL    HW245465   2.403   9.328   6.231  0.4704  0.8349 -1.4663
14963SOL     OW45466   2.577   0.729   3.562  0.1367 -0.0488  0.1541
14963SOL    HW145467   2.544   0.665   3.625 -2.8326  1.1488 -0.0379
14963SOL    HW245468   2.587   0.679   3.481  0.5829 -0.8484  0.6908
14964SOL     OW45469   9.060   2.217   4.459 -0.4977  0.4646 -0.3864
14964SOL    HW145470   8.975   2.228   4.500 -0.0413  0.5628  0.5586
14964SOL    HW245471   9.047   2.244   4.368 -1.9569 -1.4538 -0.7948
14965SOL     OW45472   8.849   0.333   7.120  0.4340 -0.0315 -0.3066
14965SOL    HW145473   8.830   0.299   7.208  1.5308 -0.2999 -0.1628
14965SOL    HW245474   8.916   0.400   7.135  1.0584 -0.4945 -1.0004
14966SOL     OW45475   5.674   9.779   5.878  0.7723  0.0941  0.0237
14966SOL    HW145476   5.596   9.833   5.887 -0.2653 -1.0381 -1.5929
14966SOL    HW245477   5.707   9.770   5.967 -2.1157 -1.0397  1.1035
14967SOL     OW45478   0.076   8.387   8.189  0.4585 -0.0580  0.2899
14967SOL    HW145479   0.169   8.400   8.174  0.4314 -1.8961 -2.0007
14967SOL    HW245480   0.067   8.293   8.203 -1.0554  0.0918  0.4987
14968SOL     OW45481   3.005   0.506   1.797 -0.2493  0.2209  0.0244
14968SOL    HW145482   2.998   0.506   1.892  1.3259  1.9466  0.2110
14968SOL    HW245483   3.030   0.417   1.775  0.1850 -0.0030  1.3195
14969SOL     OW45484   7.803   5.002   1.313 -0.3804 -0.3492  0.1979
14969SOL    HW145485   7.835   5.009   1.223 -0.0027  1.5915  0.4405
14969SOL    HW245486   7.792   4.908   1.328  1.7602 -0.8593 -1.1094
14970SOL     OW45487   4.042   1.699   5.177  0.5684  0.3978 -0.0928
14970SOL    HW145488   3.980   1.674   5.245  0.1021 -1.4096 -1.0921
14970SOL    HW245489   3.996   1.766   5.126 -1.2344 -1.8213 -1.6048
14971SOL     OW45490   7.120   7.148   6.396 -0.2600  0.0161 -0.2462
14971SOL    HW145491   7.035   7.162   6.440 -1.1104 -0.8768 -1.5503
14971SOL    HW245492   7.184   7.176   6.461 -1.5708  3.6943 -0.2730
14972SOL     OW45493   5.778   1.085   5.769 -0.4663 -0.1459  0.1884
14972SOL    HW145494   5.788   1.030   5.848 -0.9903 -0.2004  0.2178
14972SOL    HW245495   5.688   1.070   5.741 -0.1804 -0.3847 -0.6221
14973SOL     OW45496   2.645   9.565   0.208  0.3086  0.3063 -0.5607
14973SOL    HW145497   2.576   9.501   0.195 -0.5790  1.4933 -2.0749
14973SOL    HW245498   2.609   9.627   0.272  0.1413  0.6717 -1.0029
14974SOL     OW45499   4.837   0.933   5.287 -0.1622  0.1568 -0.6133
14974SOL    HW145500   4.785   0.853   5.288  1.0722 -0.6693  0.3248
14974SOL    HW245501   4.904   0.918   5.220  0.8185 -0.1326  0.3979
14975SOL     OW45502   7.004   0.547   5.484  0.5826 -1.4694  0.4222
14975SOL    HW145503   7.029   0.599   5.560 -2.5720  0.1165  0.5171
14975SOL    HW245504   7.085   0.540   5.433  1.6613  1.8107  1.4137
14976SOL     OW45505   1.528   3.843   4.279 -0.0805  0.1500  0.4935
14976SOL    HW145506   1.443   3.874   4.247 -0.8880 -2.5454 -0.2819
14976SOL    HW245507   1.552   3.906   4.347 -2.8087  0.9118  0.9047
14977SOL     OW45508   4.612   7.692   2.708 -0.5306  0.3802 -0.3166
14977SOL    HW145509   4.576   7.755   2.771 -2.3970 -1.5460  0.6485
14977SOL    HW245510   4.672   7.638   2.760  0.3945  0.7650 -0.9512
14978SOL     OW45511   1.318   1.193   1.517  0.1585 -0.3689 -0.5034
14978SOL    HW145512   1.235   1.166   1.477 -0.5462 -0.1740  0.7871
14978SOL    HW245513   1.296   1.269   1.570  0.5863 -1.8327  1.9424
14979SOL     OW45514   1.902   6.653   1.066 -0.2981  0.0302 -0.1310
14979SOL    HW145515   1.896   6.598   1.144 -0.4577  1.0649  0.6083
14979SOL    HW245516   1.956   6.602   1.005 -0.4131 -0.9182  0.5416
14980SOL     OW45517   8.277   8.441   5.244 -0.5652 -0.3375  0.3222
14980SOL    HW145518   8.289   8.517   5.187  1.6125  0.5834  1.8601
14980SOL    HW245519   8.189   8.409   5.224 -0.1249  0.2406 -3.1103
14981SOL     OW45520   2.951   4.984   0.952  0.3931 -0.0857 -0.0447
14981SOL    HW145521   2.984   4.989   0.862  1.1372  0.1093  0.2307
14981SOL    HW245522   3.015   5.033   1.003 -0.8249  1.1078  0.3766
14982SOL     OW45523   3.810   6.308   7.893 -0.1756 -0.4576  0.0976
14982SOL    HW145524   3.823   6.222   7.932  1.1734 -0.2686  0.0965
14982SOL    HW245525   3.781   6.290   7.804  0.6983 -0.9193 -0.0950
14983SOL     OW45526   5.506   9.041   9.831  0.0146 -0.2335 -0.5038
14983SOL    HW145527   5.567   8.987   9.881 -1.2197 -1.2504 -0.0403
14983SOL    HW245528   5.473   8.983   9.762  0.3514  0.6229 -1.4031
14984SOL     OW45529   6.282   9.852   0.825 -0.6100  0.6518 -0.3158
14984SOL    HW145530   6.216   9.917   0.802  0.0891  1.5672  0.2311
14984SOL    HW245531   6.257   9.823   0.913 -0.7671  0.3722 -0.4512
14985SOL     OW45532   1.121   6.202   8.199  0.0478  0.2741 -0.4423
14985SOL    HW145533   1.120   6.270   8.131  0.3300  1.3119  0.5675
14985SOL    HW245534   1.164   6.244   8.274 -0.0154 -0.9416  0.2898
14986SOL     OW45535   5.825   3.034   2.602 -0.2132  0.3797 -0.4467
14986SOL    HW145536   5.779   2.967   2.653  0.5368 -0.6681 -1.1102
14986SOL    HW245537   5.908   2.993   2.577 -0.1718  1.1845 -1.7427
14987SOL     OW45538   7.441   5.733   4.314  0.0645 -0.0579  0.7212
14987SOL    HW145539   7.468   5.815   4.355 -2.2043  1.2630 -0.2503
14987SOL    HW245540   7.364   5.756   4.262 -0.3453 -2.7174 -0.0101
14988SOL     OW45541   7.561   1.430   8.154 -0.0079 -0.1837  0.0518
14988SOL    HW145542   7.651   1.397   8.165  0.1200  0.1652  0.0716
14988SOL    HW245543   7.568   1.524   8.173 -0.5514 -0.3141  0.9320
14989SOL     OW45544   3.538   4.836   6.669  0.4075  0.0430 -0.4347
14989SOL    HW145545   3.453   4.873   6.694  0.6759  0.3451  0.0487
14989SOL    HW245546   3.588   4.910   6.635  1.4326  0.4775  1.7948
14990SOL     OW45547   1.631   6.885   1.305  0.2172 -0.2221 -0.0128
14990SOL    HW145548   1.693   6.958   1.297  0.4294 -0.4251 -0.2452
14990SOL    HW245549   1.548   6.926   1.330  0.4251  0.0601  0.2263
14991SOL     OW45550   1.036   0.566   1.119  0.5652  0.5837  0.0456
14991SOL    HW145551   0.966   0.552   1.184  0.7176 -1.9663 -0.2313
14991SOL    HW245552   1.115   0.574   1.171  0.6598 -1.2639  0.2507
14992SOL     OW45553   9.685   5.328   7.151 -0.7417 -0.1534 -0.9625
14992SOL    HW145554   9.638   5.249   7.124 -1.3859 -1.3315  2.9570
14992SOL    HW245555   9.640   5.357   7.230  0.9769  2.7729 -0.9090
14993SOL     OW45556   0.424   1.215   5.912 -0.1479  0.0746  0.7296
14993SOL    HW145557   0.516   1.191   5.898  0.0425  1.7348 -1.4050
14993SOL    HW245558   0.376   1.160   5.849  0.0065  2.8515 -2.0362
14994SOL     OW45559   4.830   7.414   1.126 -0.5650 -0.4372 -0.4389
14994SOL    HW145560   4.793   7.498   1.099 -0.5962  0.0035  0.9081
14994SOL    HW245561   4.913   7.436   1.167 -0.0881 -1.1701 -0.9848
14995SOL     OW45562   8.729   6.964   1.338 -0.2801  0.5555 -0.0124
14995SOL    HW145563   8.667   6.896   1.311 -1.0343  1.7474 -1.4271
14995SOL    HW245564   8.798   6.960   1.272 -0.2881  1.1035 -0.0573
14996SOL     OW45565   8.545   4.113   9.955  0.0920  0.2708  0.3303
14996SOL    HW145566   8.535   4.191   9.900  0.4504 -0.4373 -0.7689
14996SOL    HW245567   8.456   4.088   9.978 -0.0195  1.1509  0.9372
14997SOL     OW45568   5.164   8.194   9.854  0.0684  0.0272  0.2062
14997SOL    HW145569   5.143   8.151   9.937 -1.0373  1.4786  0.7084
14997SOL    HW245570   5.104   8.154   9.790 -0.4182  0.2648  0.5095
14998SOL     OW45571   2.640   7.156   7.122  0.2842  0.2348 -0.5073
14998SOL    HW145572   2.603   7.068   7.119 -0.0878  0.2486  1.6676
14998SOL    HW245573   2.571   7.209   7.163  1.4287  0.9759  0.5452
14999SOL     OW45574   4.538   8.672   7.568 -0.3081  0.0576  0.0777
14999SOL    HW145575   4.525   8.616   7.492  0.8080 -3.1634  2.0665
14999SOL    HW245576   4.629   8.701   7.562 -0.6524  1.0695 -0.5291
15000SOL     OW45577   5.020   1.584   5.486  0.3449  0.1461  0.1579
15000SOL    HW145578   4.969   1.505   5.467 -1.2429  1.4823 -1.5316
15000SOL    HW245579   5.109   1.562   5.460 -0.3292 -0.6754 -1.6655
15001SOL     OW45580   3.981   4.240   3.265 -0.1719 -0.4593 -0.0959
15001SOL    HW145581   4.018   4.317   3.222 -1.8502  1.2947  1.4020
15001SOL    HW245582   3.887   4.258   3.271 -0.7201 -2.8821 -0.1160
15002SOL     OW45583   3.557   1.117   2.777 -0.2328  0.1070  0.1327
15002SOL    HW145584   3.513   1.132   2.861  0.1591 -1.6688  0.6952
15002SOL    HW245585   3.488   1.122   2.712 -0.4360  2.2868  0.4077
15003SOL     OW45586   5.091   2.990   9.968  0.2851 -0.7390 -0.0190
15003SOL    HW145587   5.061   3.070   9.925  1.6864 -0.0724  0.1820
15003SOL    HW245588   5.016   2.961  10.020 -0.2691  0.4089 -0.1420
15004SOL     OW45589   8.488   2.206   6.904  0.1825 -0.5620  0.0106
15004SOL    HW145590   8.580   2.199   6.879  0.4928  0.6857  0.7134
15004SOL    HW245591   8.446   2.251   6.831  0.3734 -0.1074  0.1763
15005SOL     OW45592   5.933   4.224   1.036  0.0932 -0.6010  0.4426
15005SOL    HW145593   6.026   4.230   1.057  0.1792 -1.4589  0.3636
15005SOL    HW245594   5.930   4.178   0.952 -0.3535  0.6246 -0.2301
15006SOL     OW45595   7.066   8.147   1.966  0.1802  0.2158  0.3688
15006SOL    HW145596   7.109   8.094   2.033  0.3274  0.4247  0.4425
15006SOL    HW245597   7.131   8.214   1.944  0.6634 -0.6402 -0.9421
15007SOL     OW45598   3.375   7.677   6.802  0.4512 -0.0063  0.2604
15007SOL    HW145599   3.281   7.655   6.803  0.5615 -0.5708  2.1404
15007SOL    HW245600   3.419   7.592   6.807  1.0325  0.3323  0.9225
15008SOL     OW45601   8.652   7.885   3.900  0.0070  0.2778 -0.1994
15008SOL    HW145602   8.611   7.813   3.947 -0.0506  0.4671  0.0490
15008SOL    HW245603   8.595   7.901   3.825 -1.5686  1.8784  1.2318
15009SOL     OW45604   3.600   3.328   5.713 -0.2079  0.0503  0.3892
15009SOL    HW145605   3.514   3.348   5.750 -0.2635  1.2720 -0.3395
15009SOL    HW245606   3.617   3.400   5.653  1.7820  0.3764  1.2738
15010SOL     OW45607   8.026   9.328   7.851 -0.0241 -0.2917 -0.3496
15010SOL    HW145608   8.068   9.289   7.774 -0.1221  0.6801 -0.9112
15010SOL    HW245609   7.939   9.288   7.854 -0.7689  1.0562 -1.9175
15011SOL     OW45610   2.146   1.382   2.837 -0.3343  0.1176 -0.3779
15011SOL    HW145611   2.141   1.412   2.746 -2.6901  1.8283  0.2200
15011SOL    HW245612   2.057   1.394   2.871  0.5374 -0.2399  2.2209
15012SOL     OW45613   9.394   1.293   2.558 -0.2436 -0.3974  0.4114
15012SOL    HW145614   9.471   1.313   2.611  1.1495  0.0381 -1.6139
15012SOL    HW245615   9.338   1.370   2.566  1.1111  0.7594 -0.6333
15013SOL     OW45616   8.310   0.433   2.639  0.3683 -0.1342  0.2110
15013SOL    HW145617   8.240   0.427   2.703  0.7907  0.2427  0.7239
15013SOL    HW245618   8.345   0.344   2.633 -0.2289 -0.3509 -0.1462
15014SOL     OW45619   6.338   0.189   3.883  0.0593 -0.5639 -0.2892
15014SOL    HW145620   6.264   0.219   3.831  0.4843 -2.2552 -2.0404
15014SOL    HW245621   6.332   0.093   3.880  0.5678 -0.7306  2.1951
15015SOL     OW45622   4.532   5.572   2.817 -0.3138 -0.2838  0.5809
15015SOL    HW145623   4.449   5.604   2.853 -0.6020 -0.6213  0.2160
15015SOL    HW245624   4.529   5.596   2.724  0.1933  0.0958  0.6557
15016SOL     OW45625   5.478   4.879   1.083 -0.4932  0.2298 -0.0450
15016SOL    HW145626   5.389   4.872   1.048 -0.3929 -0.3757 -0.1848
15016SOL    HW245627   5.477   4.959   1.135 -0.8013  0.8516 -0.9795
15017SOL     OW45628   2.716   4.339   2.865 -0.1686 -0.3811 -0.0456
15017SOL    HW145629   2.629   4.308   2.843 -0.4665 -1.3287  2.1806
15017SOL    HW245630   2.776   4.277   2.824 -0.3994  0.9660 -2.6394
15018SOL     OW45631   9.522   4.761   7.026 -0.1550  0.4530 -0.4366
15018SOL    HW145632   9.514   4.849   6.991 -0.6049  0.6113  0.0381
15018SOL    HW245633   9.532   4.774   7.121  1.1178  0.0466 -0.4945
15019SOL     OW45634   5.584   9.005   4.302  0.3834  0.2215  0.2864
15019SOL    HW145635   5.654   8.949   4.269 -0.9507 -1.4231  0.1058
15019SOL    HW245636   5.569   8.975   4.391 -0.3899  0.2514  0.1738
15020SOL     OW45637   1.320   5.685   6.517  0.2645 -0.2143 -0.1239
15020SOL    HW145638   1.383   5.616   6.498  0.2105 -0.9442  2.0817
15020SOL    HW245639   1.300   5.724   6.432  1.7855 -1.6105 -1.1664
15021SOL     OW45640   6.824   8.135   3.572 -0.0415 -0.2750  0.9094
15021SOL    HW145641   6.919   8.127   3.570  0.2448  1.6384 -3.2671
15021SOL    HW245642   6.792   8.066   3.514 -1.2038 -0.5145  1.7954
15022SOL     OW45643   8.994   9.677   6.110  0.4134  0.0994 -0.3435
15022SOL    HW145644   9.034   9.712   6.189  0.1239 -0.8349  0.2419
15022SOL    HW245645   9.042   9.595   6.093  0.5531  0.3455 -1.2067
15023SOL     OW45646   9.247   0.287   0.474  0.1153 -0.5349 -0.0172
15023SOL    HW145647   9.165   0.246   0.500  0.6503 -1.6556 -0.0561
15023SOL    HW245648   9.221   0.371   0.435 -0.8728 -0.0372  1.6241
15024SOL     OW45649   8.666   0.090   0.720  0.4458 -0.1625  0.0481
15024SOL    HW145650   8.601   0.154   0.691  0.7796  0.0446 -0.2370
15024SOL    HW245651   8.614   0.013   0.744  0.1280 -0.1410 -0.5672
15025SOL     OW45652   3.360   6.774   3.867  0.0366 -0.4214 -0.2610
15025SOL    HW145653   3.368   6.808   3.956 -1.6042 -1.7012  0.4146
15025SOL    HW245654   3.381   6.849   3.811  0.0953  0.6791  1.1771
15026SOL     OW45655   0.508   3.866   3.189  0.5825  0.5563  0.5820
15026SOL    HW145656   0.546   3.887   3.104  0.0296 -0.7351 -0.0208
15026SOL    HW245657   0.570   3.900   3.252  2.3869 -0.7831 -0.3665
15027SOL     OW45658   0.878   2.117   2.360 -0.0870  0.2717  0.1617
15027SOL    HW145659   0.841   2.049   2.304  0.2647  0.6329 -0.5214
15027SOL    HW245660   0.884   2.077   2.447  1.1111 -0.9289 -0.4426
15028SOL     OW45661   9.705   5.335   0.633  0.1034  0.4377 -0.0367
15028SOL    HW145662   9.752   5.329   0.716  0.9923 -2.1957 -0.6394
15028SOL    HW245663   9.773   5.345   0.567 -0.4134  0.0901 -0.6360
15029SOL     OW45664   5.864   9.913   1.333 -0.1078  0.1588  0.3074
15029SOL    HW145665   5.904   9.967   1.265 -0.5367 -0.7683 -0.7089
15029SOL    HW245666   5.771   9.914   1.312 -0.5018  1.2658  1.9152
15030SOL     OW45667   5.085   0.525   0.429  0.2266  0.1140 -0.1276
15030SOL    HW145668   5.081   0.582   0.352  1.1314  1.8476  1.0401
15030SOL    HW245669   5.077   0.585   0.504 -0.0018 -1.4424  1.1527
15031SOL     OW45670   6.258   3.969   2.472  1.1537 -0.1257  0.0075
15031SOL    HW145671   6.304   3.989   2.554 -0.5491 -0.7235  1.1630
15031SOL    HW245672   6.289   4.036   2.411  0.6283  1.9486  1.8451
15032SOL     OW45673   7.212   6.704   1.287  0.1000 -0.3885 -0.3613
15032SOL    HW145674   7.280   6.704   1.354  0.6034  0.3635 -0.8546
15032SOL    HW245675   7.136   6.663   1.329  1.7049 -4.1804 -0.7299
15033SOL     OW45676   1.956   5.463   4.620 -0.8281  0.0976  1.0482
15033SOL    HW145677   1.874   5.476   4.574  0.1210 -0.9000 -1.0780
15033SOL    HW245678   2.020   5.515   4.571  0.4602 -2.0302  0.3276
15034SOL     OW45679   6.489   2.908   0.716 -0.4462  0.3002 -0.0330
15034SOL    HW145680   6.453   2.922   0.628 -0.9741 -0.6843  0.0140
15034SOL    HW245681   6.584   2.919   0.704 -0.3140 -1.5211 -1.1195
15035SOL     OW45682   5.081   2.860   8.482 -0.4891  0.4466  0.0979
15035SOL    HW145683   5.028   2.885   8.558  0.6822  0.1889  1.0086
15035SOL    HW245684   5.033   2.897   8.407  0.3171  4.2730  1.2135
15036SOL     OW45685   0.898   3.568   8.259  0.1806 -0.0135  0.3085
15036SOL    HW145686   0.915   3.659   8.237  1.7165 -0.4794 -0.6601
15036SOL    HW245687   0.914   3.520   8.177 -0.3305 -1.1781  0.8593
15037SOL     OW45688   8.536   0.676   8.079 -0.3675 -0.1879  0.4026
15037SOL    HW145689   8.457   0.640   8.038 -0.3975  1.5489 -1.2197
15037SOL    HW245690   8.510   0.763   8.109  0.8498  0.3285  0.0312
15038SOL     OW45691   3.411   7.951   4.195  0.3429 -0.0577  0.0384
15038SOL    HW145692   3.424   8.045   4.179 -3.3230  0.4708 -0.5648
15038SOL    HW245693   3.417   7.942   4.290 -0.9410  1.1592  0.2742
15039SOL     OW45694   1.645   4.015   4.481 -0.4264 -0.1966 -0.0745
15039SOL    HW145695   1.678   4.054   4.400 -1.4075 -0.1133 -0.4498
15039SOL    HW245696   1.644   4.087   4.544  1.6216 -0.5595  0.4370
15040SOL     OW45697   6.272   7.012   7.533 -0.2172  0.1177  0.1482
15040SOL    HW145698   6.259   6.977   7.445 -1.3799  2.0485 -0.4996
15040SOL    HW245699   6.298   7.103   7.519  1.3959 -0.0148  1.7950
15041SOL     OW45700   9.454   2.449   6.125 -0.0698 -0.4554  0.3176
15041SOL    HW145701   9.532   2.483   6.167 -1.1655  0.9434  1.3303
15041SOL    HW245702   9.395   2.427   6.197 -1.1177 -0.1884 -0.4155
15042SOL     OW45703   4.604   9.148   1.425  0.8206  0.2779 -0.0759
15042SOL    HW145704   4.545   9.188   1.489 -0.4683 -1.4256 -0.1387
15042SOL    HW245705   4.589   9.198   1.344 -0.2301  0.1761  0.0355
15043SOL     OW45706   4.156   2.427   5.336  0.1861  0.0376 -0.3620
15043SOL    HW145707   4.206   2.507   5.350  0.8794 -0.3593 -0.5104
15043SOL    HW245708   4.221   2.363   5.306 -0.2082 -0.8205  0.5764
15044SOL     OW45709   5.569   3.543   9.653  0.9163 -0.2562  0.2156
15044SOL    HW145710   5.654   3.522   9.615 -0.3281 -2.7022 -1.5115
15044SOL    HW245711   5.538   3.459   9.688 -0.8829  0.5229  0.5702
15045SOL     OW45712   3.047   6.157   0.038  0.9011 -0.6163 -0.2658
15045SOL    HW145713   3.125   6.198   0.076  0.3519 -1.8723  2.4556
15045SOL    HW245714   2.978   6.175   0.102 -0.0855 -2.9384 -0.6098
15046SOL     OW45715   9.007   5.237   0.521  0.5126  0.6051 -0.3201
15046SOL    HW145716   9.102   5.236   0.508  0.2873  0.0521 -2.1416
15046SOL    HW245717   8.979   5.149   0.496 -0.3095  0.1660  1.9091
15047SOL     OW45718   9.877   2.135   9.476  0.2035  0.2280  0.3787
15047SOL    HW145719   9.962   2.160   9.439  0.4486 -1.4397 -0.2871
15047SOL    HW245720   9.898   2.066   9.539 -0.7756 -1.8121 -1.3824
15048SOL     OW45721   0.636   4.217   2.797  0.5504  0.0494 -0.4548
15048SOL    HW145722   0.636   4.173   2.882 -0.3190 -0.6213 -0.7872
15048SOL    HW245723   0.648   4.147   2.734  0.6891  0.4839 -0.9116
15049SOL     OW45724   5.392   5.601   2.260  0.0047 -0.0645 -0.6162
15049SOL    HW145725   5.341   5.582   2.181 -1.7985 -0.1837  0.5230
15049SOL    HW245726   5.470   5.546   2.252 -1.0972 -1.5724 -1.3757
15050SOL     OW45727   8.403   9.593   3.837 -0.1782 -0.1315  0.3454
15050SOL    HW145728   8.441   9.654   3.773 -0.1458 -0.9121 -0.4050
15050SOL    HW245729   8.318   9.630   3.858  0.9630  1.6919  2.1034
15051SOL     OW45730   8.191   8.661   7.702 -0.1926 -0.5979  0.2349
15051SOL    HW145731   8.240   8.580   7.714  0.9817 -0.2211 -1.6320
15051SOL    HW245732   8.105   8.633   7.671  0.5095 -1.1684 -1.3349
15052SOL     OW45733   0.641   1.582   3.757  0.0998 -0.2653 -0.2017
15052SOL    HW145734   0.733   1.574   3.732 -0.0520 -1.4710 -0.4323
15052SOL    HW245735   0.643   1.621   3.844  0.8478 -0.6477 -0.0421
15053SOL     OW45736   8.300   2.920   4.388 -0.0739 -0.4023 -0.4363
15053SOL    HW145737   8.285   2.859   4.316 -1.9919 -0.1594 -0.2876
15053SOL    HW245738   8.323   3.003   4.344  2.9325 -1.2468 -0.6295
15054SOL     OW45739   1.217   3.843   7.581 -0.0923  0.6990  0.6172
15054SOL    HW145740   1.141   3.820   7.528 -0.7165  1.8612  0.9637
15054SOL    HW245741   1.282   3.875   7.518 -0.3980  0.9846  0.4453
15055SOL     OW45742   4.088   1.249   9.889  0.3587  0.2197 -0.3752
15055SOL    HW145743   4.025   1.263   9.960 -0.1200 -1.1713 -0.4953
15055SOL    HW245744   4.034   1.250   9.810  0.5062 -0.7524 -0.4986
15056SOL     OW45745   4.282   1.508   0.517  0.6018  0.0825 -0.4639
15056SOL    HW145746   4.300   1.473   0.430  0.8246 -0.2108 -0.2973
15056SOL    HW245747   4.367   1.517   0.558  0.3611 -2.6058  0.8361
15057SOL     OW45748   5.319   0.775   7.388  0.5382 -0.2107  0.3800
15057SOL    HW145749   5.320   0.680   7.403  1.1254 -0.2418  0.1711
15057SOL    HW245750   5.405   0.794   7.352  1.0281  0.6549  1.9355
15058SOL     OW45751   2.814   7.938   7.120  0.0411  0.0879  0.2603
15058SOL    HW145752   2.777   8.022   7.146  0.0718 -0.0923  0.9260
15058SOL    HW245753   2.786   7.925   7.030 -0.1370  0.7149  0.2247
15059SOL     OW45754   6.575   9.000   0.607  0.4512  0.1320 -0.5897
15059SOL    HW145755   6.609   9.080   0.646  1.7190 -0.9102  0.5224
15059SOL    HW245756   6.529   9.029   0.528  0.9094  1.9331 -0.2213
15060SOL     OW45757   8.842   4.103   5.183  0.0317 -0.4630  0.1306
15060SOL    HW145758   8.896   4.025   5.196  0.9529  0.1153 -0.1214
15060SOL    HW245759   8.895   4.175   5.218  0.3896  0.4311 -2.0710
15061SOL     OW45760   6.315   1.846   2.783 -0.6498  0.2572 -0.6549
15061SOL    HW145761   6.220   1.859   2.788 -0.6306  1.0012 -1.7507
15061SOL    HW245762   6.330   1.812   2.694  0.1463  0.6261 -0.6701
15062SOL     OW45763   7.324   4.259   4.733 -0.0253  0.0077  1.0011
15062SOL    HW145764   7.243   4.273   4.782 -0.4844  0.7165  0.0480
15062SOL    HW245765   7.304   4.186   4.674  0.0972  0.0621  0.8928
15063SOL     OW45766   7.103   5.637   0.968 -0.1407  0.1574  0.2598
15063SOL    HW145767   7.165   5.693   0.921 -1.2844 -0.1686 -1.7779
15063SOL    HW245768   7.115   5.551   0.929 -2.5140  0.2900 -0.9635
15064SOL     OW45769   1.244   4.176   3.146 -0.1310  0.1367 -0.0498
15064SOL    HW145770   1.227   4.222   3.063 -0.0285 -2.2614 -1.4854
15064SOL    HW245771   1.260   4.086   3.120 -0.9233 -0.8780  2.7079
15065SOL     OW45772   4.417   6.323   7.682  0.3141 -0.1140  0.1802
15065SOL    HW145773   4.323   6.327   7.699 -0.1913 -1.6514 -1.8463
15065SOL    HW245774   4.434   6.399   7.626  0.4889  0.6960  1.3117
15066SOL     OW45775   5.550   5.547   3.448 -0.3862 -0.9882 -0.5795
15066SOL    HW145776   5.461   5.583   3.448  1.1952  3.6349  0.1910
15066SOL    HW245777   5.575   5.542   3.356 -1.3013 -1.9327 -0.7810
15067SOL     OW45778   8.550   7.954   7.197  0.1727  0.0392  0.2222
15067SOL    HW145779   8.604   7.919   7.126 -0.9014 -0.8635 -0.1800
15067SOL    HW245780   8.611   7.960   7.271  0.8180 -1.0606 -0.1828
15068SOL     OW45781   4.749   7.339   4.544 -0.2811  0.2195 -0.3415
15068SOL    HW145782   4.675   7.343   4.484 -1.8144 -0.3666  1.4229
15068SOL    HW245783   4.728   7.404   4.612  0.5341 -0.3562  0.4830
15069SOL     OW45784   9.578   3.664   0.704  0.6180 -0.1904  0.1628
15069SOL    HW145785   9.627   3.730   0.656  1.3461 -1.2728 -0.6450
15069SOL    HW245786   9.574   3.697   0.794 -1.8984  2.5107 -0.7764
15070SOL     OW45787   2.062   9.856   7.980  0.2786 -0.3633  0.4458
15070SOL    HW145788   2.047   9.902   7.897 -1.0910 -0.3119  0.7076
15070SOL    HW245789   1.974   9.838   8.014  0.7996  0.7530  2.5217
15071SOL     OW45790   5.916   4.974   0.424  0.5312 -0.6250  0.2937
15071SOL    HW145791   6.003   5.011   0.410  1.5843 -2.6921  0.9621
15071SOL    HW245792   5.913   4.956   0.518 -1.4932  1.3863  0.6910
15072SOL     OW45793   7.501   9.881   2.254  0.8032  0.1987 -0.2935
15072SOL    HW145794   7.444   9.923   2.317  0.9245  2.2633 -1.4714
15072SOL    HW245795   7.589   9.914   2.274  0.9967  0.0743 -0.8926
15073SOL     OW45796   3.640   9.123   4.878 -0.0650 -0.5943 -0.6099
15073SOL    HW145797   3.555   9.132   4.835 -0.3692  0.4939  0.1527
15073SOL    HW245798   3.622   9.069   4.955  0.0903 -0.9684 -0.8331
15074SOL     OW45799   3.125   6.756   6.014  0.0573  0.3490  0.2797
15074SOL    HW145800   3.141   6.780   5.923 -1.5297 -2.1496 -0.7528
15074SOL    HW245801   3.212   6.738   6.049  0.5538 -0.9533 -1.4719
15075SOL     OW45802   4.683   7.012   9.769  0.1326 -0.2184 -0.1285
15075SOL    HW145803   4.690   7.105   9.749  0.6993  0.4485  2.7600
15075SOL    HW245804   4.729   6.968   9.697  3.3404  1.9927  0.3803
15076SOL     OW45805   3.812   3.390   3.797 -0.1099 -0.2170  0.5830
15076SOL    HW145806   3.756   3.412   3.723  0.5051 -0.4147  0.0457
15076SOL    HW245807   3.834   3.474   3.837 -0.7063 -0.1333  0.7453
15077SOL     OW45808   0.198   5.210   0.156  0.1373  0.3780  0.4201
15077SOL    HW145809   0.123   5.195   0.214  1.2923  1.4120  2.2858
15077SOL    HW245810   0.161   5.258   0.082 -0.9338  1.6888  1.7250
15078SOL     OW45811   7.564   1.120   7.742 -0.3947 -0.3053  0.5886
15078SOL    HW145812   7.536   1.171   7.818  0.8187  1.8568 -0.3175
15078SOL    HW245813   7.621   1.052   7.778  1.6835  1.8163  1.5668
15079SOL     OW45814   1.399   1.061   0.320 -0.2146  0.3876  0.0509
15079SOL    HW145815   1.327   1.124   0.330 -0.1292  0.5278 -0.2071
15079SOL    HW245816   1.473   1.101   0.366 -0.3435  0.1766  0.4392
15080SOL     OW45817   2.918   8.287   5.542 -0.2812 -0.0022  0.1076
15080SOL    HW145818   3.012   8.270   5.547 -0.0937  0.4121 -1.4117
15080SOL    HW245819   2.893   8.308   5.632  0.9791 -0.5926  0.6219
15081SOL     OW45820   6.048   7.282   3.466 -0.3141  0.2450 -0.0063
15081SOL    HW145821   5.968   7.329   3.442 -1.2877 -1.4085 -0.2088
15081SOL    HW245822   6.091   7.265   3.382 -0.7646 -0.5489 -0.0844
15082SOL     OW45823   7.474   2.399   4.174 -0.8534 -0.3059  0.1553
15082SOL    HW145824   7.526   2.408   4.254 -0.6594  2.1452 -0.1655
15082SOL    HW245825   7.401   2.342   4.199 -0.6144  0.1286  1.9963
15083SOL     OW45826   2.364   0.628   1.689  0.4871  0.0546  0.5097
15083SOL    HW145827   2.282   0.655   1.649  0.8603  1.2735  0.5189
15083SOL    HW245828   2.381   0.694   1.756  1.2282 -0.4574  0.8446
15084SOL     OW45829   6.908   0.755   6.793 -0.5207  0.3071 -0.4795
15084SOL    HW145830   6.980   0.692   6.784 -1.2734 -0.6024 -0.2542
15084SOL    HW245831   6.946   0.839   6.766 -0.0285 -0.5635 -2.6982
15085SOL     OW45832   7.119   5.466   4.523 -0.1186  0.1805 -0.3010
15085SOL    HW145833   7.183   5.531   4.551 -0.1084 -0.5248  1.3991
15085SOL    HW245834   7.125   5.396   4.588 -0.6919 -1.1634 -1.6313
15086SOL     OW45835   0.026   1.110   0.398 -0.6306  0.2833  0.1374
15086SOL    HW145836  -0.033   1.156   0.338 -0.4324 -0.3875 -0.5820
15086SOL    HW245837   0.111   1.153   0.386 -0.3634 -0.4932 -0.7970
15087SOL     OW45838   8.180   2.612   0.515  0.6389 -0.3374  0.1025
15087SOL    HW145839   8.112   2.551   0.488  1.5709 -1.2373 -0.2874
15087SOL    HW245840   8.157   2.636   0.605 -0.6127 -0.0031 -0.2982
15088SOL     OW45841   7.948   4.838   3.050  0.2591  0.3215  0.0820
15088SOL    HW145842   7.859   4.805   3.037  0.1074  0.7196  0.0811
15088SOL    HW245843   7.969   4.815   3.141  0.0809  0.3943  0.1425
15089SOL     OW45844   0.471   2.908   0.404 -0.2291  0.2958 -0.1075
15089SOL    HW145845   0.516   2.831   0.437 -0.6006  0.1130 -0.0148
15089SOL    HW245846   0.528   2.942   0.335  1.0055  1.2151  1.3078
15090SOL     OW45847   6.025   4.905   0.672 -0.5427 -0.1718  0.1281
15090SOL    HW145848   6.017   4.917   0.766 -0.8440  2.4485 -0.1442
15090SOL    HW245849   6.119   4.904   0.655 -0.4912 -0.4808  0.4395
15091SOL     OW45850   0.825   7.112   2.381  0.0083  0.3972  0.7326
15091SOL    HW145851   0.850   7.151   2.297 -0.2510 -0.7778  0.0950
15091SOL    HW245852   0.855   7.175   2.446 -0.1216  1.5130 -0.2521
15092SOL     OW45853   6.002   6.724   3.892 -0.0782 -0.0121 -0.2174
15092SOL    HW145854   5.912   6.694   3.903 -0.1684  0.1423 -0.5195
15092SOL    HW245855   6.032   6.679   3.812  0.1779 -0.2177 -0.0084
15093SOL     OW45856   3.260   0.594   5.130 -0.4678  0.3267 -0.1456
15093SOL    HW145857   3.287   0.600   5.038 -0.0115 -0.1789 -0.0523
15093SOL    HW245858   3.339   0.567   5.176 -1.4353 -3.0020 -0.1143
15094SOL     OW45859   5.657   6.120   2.302  0.1874 -0.4364  0.1219
15094SOL    HW145860   5.627   6.147   2.215  0.1425 -0.7752  0.0310
15094SOL    HW245861   5.612   6.037   2.318  1.7422 -1.4139 -0.3970
15095SOL     OW45862   2.584   7.249   6.836 -0.7199  0.1349  0.1669
15095SOL    HW145863   2.652   7.251   6.769  0.7575  0.3122  1.5937
15095SOL    HW245864   2.608   7.174   6.892 -1.7889  0.1033  0.6081
15096SOL     OW45865   9.430   6.962   8.653  0.2275  0.2465 -1.0362
15096SOL    HW145866   9.415   7.046   8.697  1.1615 -0.8244  1.4921
15096SOL    HW245867   9.507   6.977   8.598  0.6352  0.9479 -0.3008
15097SOL     OW45868   0.646   5.551   3.230 -0.3847 -0.2820  0.8198
15097SOL    HW145869   0.735   5.584   3.232 -0.5021  0.1407 -0.0778
15097SOL    HW245870   0.617   5.552   3.321  1.0211 -1.8477  1.3393
15098SOL     OW45871   3.575   3.825   4.428 -0.1953  0.4158  0.5891
15098SOL    HW145872   3.527   3.897   4.469 -1.3723  0.3831 -0.6689
15098SOL    HW245873   3.640   3.868   4.372 -2.1265  0.6206 -1.6360
15099SOL     OW45874   1.454   4.459   5.928  0.4547  0.6043 -0.4157
15099SOL    HW145875   1.386   4.405   5.888  1.7332 -1.4241  0.0031
15099SOL    HW245876   1.498   4.501   5.855  0.5020 -0.2829 -0.9167
15100SOL     OW45877   6.984   3.357   5.726  0.6895  0.1110  0.0530
15100SOL    HW145878   7.032   3.303   5.789 -0.4619 -1.1160 -0.0706
15100SOL    HW245879   6.982   3.304   5.646 -0.8621  0.1111  0.0655
15101SOL     OW45880   4.981   4.585   6.846 -0.1375  0.1079  0.0774
15101SOL    HW145881   4.893   4.561   6.817 -0.8779  0.5089  1.8622
15101SOL    HW245882   5.039   4.521   6.805 -1.4581 -1.2550  0.2569
15102SOL     OW45883   6.789   5.407   6.384 -0.2212  0.3581  0.2972
15102SOL    HW145884   6.729   5.475   6.353  2.3580  2.5667 -0.2927
15102SOL    HW245885   6.807   5.431   6.475  0.8015  0.6063  0.0455
15103SOL     OW45886   5.787   6.250   3.634  0.7445  0.0519  0.5196
15103SOL    HW145887   5.724   6.188   3.672 -2.4284 -0.5220 -4.5704
15103SOL    HW245888   5.760   6.336   3.667  0.1192 -0.6001  1.7523
15104SOL     OW45889   8.941   6.940   6.920  0.3674  0.2022 -0.3193
15104SOL    HW145890   9.033   6.965   6.917 -0.2424  2.5813 -2.4779
15104SOL    HW245891   8.941   6.846   6.900  2.4019 -0.5380  2.4607
15105SOL     OW45892   8.923   7.675   7.338  0.3118 -0.3695 -0.0100
15105SOL    HW145893   8.892   7.766   7.343  0.9837 -0.1162 -0.3479
15105SOL    HW245894   9.014   7.679   7.367  0.8734 -0.6503 -1.6179
15106SOL     OW45895   4.310   5.843   9.523 -0.1065 -0.3632 -0.1511
15106SOL    HW145896   4.370   5.802   9.461  1.3046 -1.1542  1.6475
15106SOL    HW245897   4.225   5.838   9.480  0.8876 -0.2923 -2.2761
15107SOL     OW45898   9.756   2.799   2.777 -0.5726 -0.4537 -0.0138
15107SOL    HW145899   9.741   2.891   2.753  0.3978 -0.1100  0.6347
15107SOL    HW245900   9.816   2.767   2.710  0.4743 -0.0943  0.7222
15108SOL     OW45901   0.557   1.838   2.735  0.2920  0.7085  0.1016
15108SOL    HW145902   0.631   1.780   2.718 -0.0083  0.7280 -1.3626
15108SOL    HW245903   0.482   1.791   2.699 -0.0224  1.8184 -0.7211
15109SOL     OW45904   7.694   6.195   9.205 -0.1150 -0.4239 -0.1637
15109SOL    HW145905   7.613   6.186   9.156  0.3813  0.7610 -1.2866
15109SOL    HW245906   7.667   6.222   9.293 -0.9880 -1.8161  0.0101
15110SOL     OW45907   3.236   6.943   0.060 -0.2126 -0.2731  0.4254
15110SOL    HW145908   3.249   6.852   0.088 -1.2451 -0.7171 -0.4660
15110SOL    HW245909   3.145   6.963   0.083  0.4839  1.1540  2.2040
15111SOL     OW45910   7.889   7.777   1.947 -0.2666 -0.1314  0.0787
15111SOL    HW145911   7.879   7.839   1.875  0.9003  1.0029  0.8509
15111SOL    HW245912   7.880   7.830   2.026 -0.7648 -1.2175  0.7819
15112SOL     OW45913   7.573   6.923   7.289 -0.3943  0.1840 -0.0320
15112SOL    HW145914   7.499   6.883   7.244 -1.0103  0.1812  0.9402
15112SOL    HW245915   7.647   6.911   7.230 -0.6704 -1.9065 -0.0148
15113SOL     OW45916   6.477   0.457   1.653 -0.0816  0.3997 -0.0917
15113SOL    HW145917   6.461   0.523   1.720  0.2761 -0.5734  0.9876
15113SOL    HW245918   6.424   0.486   1.579 -2.1737  0.4461  1.3078
15114SOL     OW45919   3.749   4.536   7.797 -0.1876 -0.3477 -0.1297
15114SOL    HW145920   3.686   4.467   7.780 -2.7060  1.3875  1.4325
15114SOL    HW245921   3.750   4.589   7.717  1.1339 -1.6508 -1.0225
15115SOL     OW45922   4.572   7.305   7.141 -0.3720  0.0446  0.1696
15115SOL    HW145923   4.613   7.388   7.117 -0.6682  0.2619  0.4085
15115SOL    HW245924   4.642   7.255   7.183 -0.1343  0.0826 -0.1823
15116SOL     OW45925   7.366   7.857   9.922 -0.3895  0.0855 -0.7365
15116SOL    HW145926   7.295   7.891   9.867 -0.8104  2.1232  0.9247
15116SOL    HW245927   7.377   7.766   9.894 -2.3727  0.2651 -2.3217
15117SOL     OW45928   4.320   5.934   7.854 -0.5709  0.4285  0.1767
15117SOL    HW145929   4.411   5.944   7.825 -0.6203 -0.7134 -0.4161
15117SOL    HW245930   4.274   6.008   7.813  0.0136  0.8180  0.2016
15118SOL     OW45931   3.807   0.055   5.362 -0.2332  0.3324  0.5475
15118SOL    HW145932   3.771   0.043   5.274  0.1347  2.5883  0.0459
15118SOL    HW245933   3.893   0.093   5.347  1.5607 -2.8131  1.8132
15119SOL     OW45934   4.169   6.949   1.459 -0.2002  0.0215 -0.0311
15119SOL    HW145935   4.233   6.880   1.444 -0.8486 -0.6330  0.1545
15119SOL    HW245936   4.218   7.030   1.450  0.6781 -0.4715  0.2585
15120SOL     OW45937   9.038   4.496   5.088  0.1274 -0.7753 -0.3806
15120SOL    HW145938   9.016   4.404   5.103 -1.1962 -0.5635 -0.9115
15120SOL    HW245939   9.040   4.506   4.993  0.9170 -0.3947 -0.3327
15121SOL     OW45940   3.678   5.449   6.554  0.4986 -0.2540 -0.0006
15121SOL    HW145941   3.747   5.464   6.490  0.3868  0.6978  0.0880
15121SOL    HW245942   3.708   5.495   6.632 -0.8824  1.4021 -0.3960
15122SOL     OW45943   8.828   7.506   6.548 -0.1236  0.5788 -0.0993
15122SOL    HW145944   8.923   7.498   6.557  0.0667  2.1276 -0.4045
15122SOL    HW245945   8.807   7.454   6.471  0.4874  0.2758 -0.0690
15123SOL     OW45946   2.059   2.566   5.239  0.0865  0.3836 -0.2772
15123SOL    HW145947   2.128   2.624   5.207  2.5749 -2.4870 -0.6773
15123SOL    HW245948   2.088   2.542   5.328 -0.8226 -0.2631 -0.1479
15124SOL     OW45949   8.333   9.462   1.953 -0.3726 -0.2711 -0.3192
15124SOL    HW145950   8.391   9.533   1.925  0.9837  0.3751  3.5158
15124SOL    HW245951   8.384   9.382   1.936  2.2275  0.3139  3.5509
15125SOL     OW45952   8.882   2.559   2.797  0.2155  0.6966  0.0673
15125SOL    HW145953   8.931   2.477   2.803  0.3405  0.8371  0.9746
15125SOL    HW245954   8.940   2.618   2.750  1.2798  1.1093  1.8226
15126SOL     OW45955   8.118   5.950   0.013 -0.1488  0.1240 -0.1664
15126SOL    HW145956   8.075   5.877  -0.033  1.5263 -0.9017 -0.1915
15126SOL    HW245957   8.047   5.993   0.060 -1.9717  1.1983 -3.5525
15127SOL     OW45958   9.664   0.955   2.054  0.2173 -0.9650  0.0439
15127SOL    HW145959   9.626   0.962   2.141  1.4227  2.2747  0.4448
15127SOL    HW245960   9.693   1.044   2.033  1.9898 -2.0651 -2.7476
15128SOL     OW45961   3.122   2.668   1.655  0.1341  0.5049 -0.2834
15128SOL    HW145962   3.087   2.677   1.744  2.1129  2.5943  0.3610
15128SOL    HW245963   3.159   2.579   1.653  0.3152  0.5351  1.0776
15129SOL     OW45964   9.449   3.967   1.913  0.0653  0.1733 -0.0931
15129SOL    HW145965   9.460   3.973   1.818 -0.5142 -0.5757 -0.2185
15129SOL    HW245966   9.538   3.961   1.947  0.3320  1.5449 -0.4883
15130SOL     OW45967   3.838   9.005   6.309  0.0830  0.0554 -0.7236
15130SOL    HW145968   3.854   8.948   6.384  0.6264  1.5876  0.3729
15130SOL    HW245969   3.750   8.982   6.279  0.1436 -1.0745 -0.0881
15131SOL     OW45970   8.633   5.239   0.556 -0.5260  0.3062 -0.0423
15131SOL    HW145971   8.559   5.299   0.557 -0.6043  0.2151 -0.4297
15131SOL    HW245972   8.709   5.295   0.571 -0.4965  0.6422 -1.3494
15132SOL     OW45973   6.311   6.659   8.460  0.6935 -0.0813  0.0746
15132SOL    HW145974   6.305   6.727   8.393  0.1681  0.4877  0.6918
15132SOL    HW245975   6.271   6.697   8.538  0.6416 -0.9975  0.5158
15133SOL     OW45976   1.523   3.882   2.266 -0.0861 -0.7583 -0.3028
15133SOL    HW145977   1.610   3.864   2.230 -0.0717 -0.8353 -0.2293
15133SOL    HW245978   1.490   3.796   2.294  0.3675 -0.5568  0.9124
15134SOL     OW45979   7.758   7.954   9.514 -0.2773 -0.0823  0.3339
15134SOL    HW145980   7.842   7.997   9.528 -0.9395  1.5112 -0.3077
15134SOL    HW245981   7.700   7.993   9.579 -0.6870 -0.6465  0.3115
15135SOL     OW45982   2.018   0.449   5.797  0.3232 -0.4831 -0.3112
15135SOL    HW145983   1.929   0.469   5.766  0.3788  1.0443  0.4214
15135SOL    HW245984   2.049   0.531   5.835  2.4255 -0.7172 -1.4062
15136SOL     OW45985   6.781   7.845   4.605 -0.0465 -0.3204 -0.0001
15136SOL    HW145986   6.854   7.906   4.591 -1.4978  0.8557 -3.5135
15136SOL    HW245987   6.723   7.891   4.665 -0.2637  1.0487 -1.1995
15137SOL     OW45988   7.170   9.495   1.641 -0.3061 -0.0360 -0.4665
15137SOL    HW145989   7.255   9.490   1.597  0.0399  0.4163  0.1243
15137SOL    HW245990   7.183   9.449   1.724 -0.8670 -0.6301 -0.7020
15138SOL     OW45991   2.356   3.021   5.362  0.1268 -0.0773 -0.5625
15138SOL    HW145992   2.398   2.937   5.344  1.4949  0.6154 -0.7655
15138SOL    HW245993   2.423   3.072   5.407 -0.5756  1.0192 -0.7231
15139SOL     OW45994   0.911   9.251   7.415 -0.3980  0.4728  0.3875
15139SOL    HW145995   0.962   9.176   7.386  1.3828  0.9596  2.0672
15139SOL    HW245996   0.882   9.228   7.503 -2.7408  0.4232 -0.3278
15140SOL     OW45997   8.883   8.561   8.255  0.5993  0.0294  0.1887
15140SOL    HW145998   8.840   8.525   8.332  0.6375 -0.3619  0.0283
15140SOL    HW245999   8.846   8.512   8.181  2.8692 -1.8432  0.2020
15141SOL     OW46000   2.521   8.505   1.787  0.0992  0.0454 -0.3295
15141SOL    HW146001   2.464   8.538   1.857  0.5935  0.9424 -0.3263
15141SOL    HW246002   2.609   8.527   1.817  0.2779  1.1405 -1.5785
15142SOL     OW46003   3.029   3.636   4.200  0.0388 -0.0182  0.4994
15142SOL    HW146004   3.059   3.613   4.288  0.0479 -2.4581 -0.0737
15142SOL    HW246005   2.968   3.708   4.214 -0.1121 -0.4692  2.5255
15143SOL     OW46006   8.370   4.293   5.811  0.6505 -0.1274 -0.5441
15143SOL    HW146007   8.381   4.387   5.794  0.9086 -0.0627 -0.0403
15143SOL    HW246008   8.434   4.273   5.879  1.3549 -0.9089 -1.4137
15144SOL     OW46009   9.229   0.067   2.594 -0.3531  0.4033  0.3653
15144SOL    HW146010   9.227   0.162   2.581 -3.4778  0.5688  1.1612
15144SOL    HW246011   9.235   0.032   2.505 -0.4394  1.3506 -0.0345
15145SOL     OW46012   3.775   4.663   4.287 -0.0159  0.0719  0.7923
15145SOL    HW146013   3.724   4.584   4.305  0.5788  0.0203  2.4149
15145SOL    HW246014   3.864   4.631   4.272 -0.2870  0.2120 -1.4283
15146SOL     OW46015   5.570   2.192   8.169  0.3166  0.5104  0.0034
15146SOL    HW146016   5.614   2.243   8.237  0.2657  1.0084 -0.3327
15146SOL    HW246017   5.640   2.138   8.131  0.1529 -0.5045  1.1124
15147SOL     OW46018   5.963   4.013   5.075  0.5503  0.2354  0.0609
15147SOL    HW146019   5.915   3.932   5.058  0.6224  0.2830 -0.3635
15147SOL    HW246020   5.961   4.061   4.992  0.0628  0.9108  0.4475
15148SOL     OW46021   8.035   9.933   4.739  0.2367  0.5515  0.0367
15148SOL    HW146022   8.109   9.954   4.796 -0.2671 -1.2241  1.4396
15148SOL    HW246023   8.010   9.844   4.764 -1.0863  0.3420 -1.8317
15149SOL     OW46024   8.734   0.504   7.808 -0.1833  0.0036  0.5223
15149SOL    HW146025   8.785   0.546   7.877  0.8809  0.4016 -0.4905
15149SOL    HW246026   8.728   0.570   7.739 -1.3454 -0.3426  0.2696
15150SOL     OW46027   6.065   9.576   6.121  0.1753 -0.4675  0.0536
15150SOL    HW146028   5.983   9.540   6.154 -0.4922  0.1532 -0.8586
15150SOL    HW246029   6.049   9.589   6.027  1.6358 -1.1819 -0.3141
15151SOL     OW46030   5.598   5.262   8.689  0.0742  0.4979 -0.1804
15151SOL    HW146031   5.593   5.202   8.615 -0.9573 -0.4795  0.6267
15151SOL    HW246032   5.557   5.343   8.658  0.7370  0.5171 -1.0322
15152SOL     OW46033   5.461   4.522   7.423 -0.1211 -0.4015 -0.7232
15152SOL    HW146034   5.456   4.539   7.329 -0.6956 -0.6481 -0.7452
15152SOL    HW246035   5.526   4.452   7.432 -0.7353 -1.0330 -1.0397
15153SOL     OW46036   2.378   8.574   9.062  0.1620  0.2797 -0.0119
15153SOL    HW146037   2.454   8.627   9.037 -0.4648  1.4801  0.5160
15153SOL    HW246038   2.364   8.595   9.154 -0.3071 -0.5776  0.1225
15154SOL     OW46039   8.842   6.652   3.752  0.8545 -0.0872  0.1557
15154SOL    HW146040   8.807   6.674   3.838 -0.6127  1.2558 -0.7246
15154SOL    HW246041   8.777   6.593   3.714  1.5253 -0.7243 -0.0047
15155SOL     OW46042   6.701   1.522   1.110  0.1892  0.4275  0.2504
15155SOL    HW146043   6.653   1.468   1.173 -0.2313  2.8266  2.1341
15155SOL    HW246044   6.792   1.518   1.139  0.4593 -0.5988 -0.6689
15156SOL     OW46045   0.686   7.349   2.251  0.0110  0.0255 -0.0195
15156SOL    HW146046   0.640   7.428   2.221  2.8666  1.6063 -0.6929
15156SOL    HW246047   0.692   7.359   2.346 -1.4058 -0.4919  0.1530
15157SOL     OW46048   9.437   6.669   7.705 -0.0315  0.4404  0.3419
15157SOL    HW146049   9.448   6.644   7.613 -0.4982 -2.0992  0.9142
15157SOL    HW246050   9.342   6.671   7.717  0.0306 -0.2738  1.0018
15158SOL     OW46051   4.317   7.836   1.406 -0.1145  0.1552  0.1660
15158SOL    HW146052   4.309   7.741   1.416 -1.6352  0.4010  1.5873
15158SOL    HW246053   4.397   7.847   1.355  0.1110 -1.8794 -0.0282
15159SOL     OW46054   3.372   8.096   2.691  0.0683  0.0934  0.1798
15159SOL    HW146055   3.427   8.174   2.684 -0.1224  0.1141 -1.3937
15159SOL    HW246056   3.282   8.131   2.691  0.0069 -0.0488  0.9508
15160SOL     OW46057   2.962   7.941   9.433  0.3219 -0.5403  0.4378
15160SOL    HW146058   3.018   7.886   9.487 -0.5075 -2.2050 -0.3139
15160SOL    HW246059   2.910   7.879   9.381 -2.9659  0.7928  1.8153
15161SOL     OW46060   6.541   6.025   8.034  0.5037 -0.0085  0.2358
15161SOL    HW146061   6.565   5.932   8.035  1.3650  0.1948 -0.2939
15161SOL    HW246062   6.619   6.070   8.065  0.9540  0.6934 -1.7785
15162SOL     OW46063   3.598   5.771   7.583 -0.1498 -0.5232  0.2361
15162SOL    HW146064   3.540   5.749   7.655 -1.1563  0.1936 -0.3261
15162SOL    HW246065   3.686   5.761   7.618 -0.6196 -1.2612  1.2216
15163SOL     OW46066   2.590   0.319   4.935 -0.3562 -0.0242 -0.0019
15163SOL    HW146067   2.542   0.260   4.994 -0.7087 -0.2854 -0.5430
15163SOL    HW246068   2.580   0.406   4.974 -0.7133 -0.1743  0.2436
15164SOL     OW46069   3.786   0.679   1.106  0.0595  0.0045 -0.5147
15164SOL    HW146070   3.735   0.722   1.037  0.2025 -0.2360 -0.7724
15164SOL    HW246071   3.854   0.743   1.128 -0.6156  0.5024  0.1388
15165SOL     OW46072   6.486   7.908   3.261  0.0404  0.0493  0.1350
15165SOL    HW146073   6.503   7.876   3.172 -1.0223 -1.0292  0.2968
15165SOL    HW246074   6.392   7.927   3.262  0.3507  1.6405  0.5501
15166SOL     OW46075   5.051   8.611   0.487 -0.2979 -0.2538  0.0067
15166SOL    HW146076   5.091   8.692   0.519 -2.0593  0.6574  0.0333
15166SOL    HW246077   5.039   8.557   0.565  2.2535 -1.2430 -0.1982
15167SOL     OW46078   3.148   5.439   5.942 -0.1994  0.1856 -0.1381
15167SOL    HW146079   3.054   5.424   5.958 -0.1496  0.2966  0.2615
15167SOL    HW246080   3.187   5.352   5.950 -0.4283 -0.0689 -1.4942
15168SOL     OW46081   9.642   8.690   7.360  0.6255 -0.0329  0.3168
15168SOL    HW146082   9.568   8.704   7.418  0.3015  2.5617 -0.5831
15168SOL    HW246083   9.619   8.737   7.280  2.1317 -1.3757 -0.9915
15169SOL     OW46084   8.921   8.640   1.873  0.2742 -0.8337 -0.2819
15169SOL    HW146085   8.879   8.704   1.815  0.2775  0.9263  1.5639
15169SOL    HW246086   9.015   8.656   1.862  0.3109 -1.2639 -0.6109
15170SOL     OW46087   9.146   4.998   9.889 -0.1124  0.0925  0.7781
15170SOL    HW146088   9.211   5.068   9.895  0.7950 -0.5058 -1.1903
15170SOL    HW246089   9.175   4.945   9.814 -1.2597 -1.8849  1.6604
15171SOL     OW46090   2.754   9.501   3.587  0.2583  0.2201  0.8733
15171SOL    HW146091   2.692   9.449   3.536  0.0648  0.2805  1.0480
15171SOL    HW246092   2.730   9.592   3.570  0.9376  0.2767  0.1361
15172SOL     OW46093   3.204   7.108   1.922 -0.5929  0.0003 -0.1647
15172SOL    HW146094   3.138   7.169   1.955  1.7148  2.2047  0.7079
15172SOL    HW246095   3.237   7.063   1.999  0.8101  0.9622 -0.1636
15173SOL     OW46096   6.518   0.516   3.608  0.1725  0.5434  0.0629
15173SOL    HW146097   6.438   0.544   3.653  0.4051  1.4280 -0.0643
15173SOL    HW246098   6.588   0.533   3.671  0.4934  1.7356 -0.5873
15174SOL     OW46099   5.959   4.567   9.848  0.1368  0.1635  0.5067
15174SOL    HW146100   5.989   4.657   9.852  0.1202  0.2490 -0.8249
15174SOL    HW246101   5.865   4.573   9.836  0.3345  0.0386 -1.3925
15175SOL     OW46102   2.225   0.284   8.081 -0.8684 -0.1639 -0.4012
15175SOL    HW146103   2.245   0.211   8.140  2.1741  0.4360 -0.5152
15175SOL    HW246104   2.276   0.265   8.002  0.7612  2.4264 -0.0932
15176SOL     OW46105   1.621   3.956   9.760  0.4262 -0.5921 -0.0486
15176SOL    HW146106   1.620   4.019   9.832 -2.7902 -2.0618  1.3852
15176SOL    HW246107   1.576   4.001   9.688 -0.8617 -0.7880  0.6000
15177SOL     OW46108   9.518   8.576   6.371  0.4483  0.8884  0.1388
15177SOL    HW146109   9.594   8.547   6.320  0.5968  1.4843  0.0149
15177SOL    HW246110   9.537   8.667   6.392  0.6825  0.4945  1.7929
15178SOL     OW46111   2.115   1.018   6.845 -0.2974  0.1982  0.5548
15178SOL    HW146112   2.081   0.943   6.798  2.1946 -1.2717  0.9196
15178SOL    HW246113   2.111   0.993   6.937  1.7821 -0.1350  0.6080
15179SOL     OW46114   8.868   8.380   1.029 -0.3324  0.0733 -0.2278
15179SOL    HW146115   8.890   8.420   1.113  0.3803  2.3085 -1.3825
15179SOL    HW246116   8.773   8.368   1.031 -0.2421 -0.5169  1.1102
15180SOL     OW46117   8.524   8.833   2.719  0.4464  0.0394  0.0412
15180SOL    HW146118   8.554   8.862   2.632  0.9197 -2.1679 -0.5976
15180SOL    HW246119   8.435   8.866   2.726  0.7933  1.2357 -0.7774
15181SOL     OW46120   8.485   7.524   5.401  0.4332  0.1513 -0.2508
15181SOL    HW146121   8.543   7.598   5.386  1.0533 -0.3039 -0.1410
15181SOL    HW246122   8.407   7.562   5.441 -0.1314  1.0292 -2.1041
15182SOL     OW46123   8.747   4.727   2.707 -0.0619 -0.3237  0.6098
15182SOL    HW146124   8.780   4.758   2.791 -0.1486  1.4554  0.0492
15182SOL    HW246125   8.734   4.807   2.656 -0.0801 -1.3389 -1.0729
15183SOL     OW46126   0.605   3.030   1.241 -0.5392 -0.5610 -0.0975
15183SOL    HW146127   0.689   2.988   1.221 -0.4533 -1.4664  1.8523
15183SOL    HW246128   0.603   3.032   1.337 -2.0282  0.9490 -0.1282
15184SOL     OW46129   3.453   7.331   7.228 -0.1289  0.1872 -0.0739
15184SOL    HW146130   3.505   7.377   7.294 -0.9868 -0.3809  1.0289
15184SOL    HW246131   3.483   7.367   7.145 -0.4854  2.4620  0.7175
15185SOL     OW46132   0.133   4.429   1.632 -0.2721  0.2312 -0.8757
15185SOL    HW146133   0.069   4.386   1.689  1.0444 -0.4564  0.1309
15185SOL    HW246134   0.212   4.375   1.639  1.3171  2.5368  0.0999
15186SOL     OW46135   7.752   6.065   8.746 -0.2317  0.1137 -0.1097
15186SOL    HW146136   7.704   5.988   8.716 -1.0037  0.3479  0.4694
15186SOL    HW246137   7.766   6.049   8.839 -0.1171  0.5235 -0.0570
15187SOL     OW46138   6.222   1.318   6.700  0.2463  0.2815 -0.0926
15187SOL    HW146139   6.177   1.401   6.685  2.3708  1.6643  0.8353
15187SOL    HW246140   6.245   1.287   6.612  0.4142  1.2558 -0.4007
15188SOL     OW46141   3.803   0.816   0.054  0.1778  0.1111  0.0280
15188SOL    HW146142   3.713   0.844   0.073  0.5370  1.3920 -0.1001
15188SOL    HW246143   3.858   0.880   0.098  1.0294 -0.1534 -0.6265
15189SOL     OW46144   2.599   9.833   1.137  0.8143 -0.2274  0.2796
15189SOL    HW146145   2.594   9.921   1.098 -0.5647 -0.9533 -1.3381
15189SOL    HW246146   2.636   9.778   1.067  0.8908 -1.1010  0.9835
15190SOL     OW46147   8.026   2.738   8.312  0.2786 -0.1320  0.6262
15190SOL    HW146148   7.998   2.666   8.256  0.7459 -1.1518  1.6543
15190SOL    HW246149   8.035   2.813   8.253 -0.8467 -0.7447 -0.3579
15191SOL     OW46150   5.976   3.857   7.255 -0.0863 -0.0588 -0.0883
15191SOL    HW146151   6.025   3.895   7.327 -0.4245 -0.7229  0.4988
15191SOL    HW246152   5.966   3.929   7.192  0.8047  0.3325  0.2089
15192SOL     OW46153   9.926   7.249   8.024 -0.0178 -0.6694  0.5649
15192SOL    HW146154  10.012   7.287   8.006  0.0560 -1.8691 -2.1540
15192SOL    HW246155   9.873   7.322   8.055  1.9103  0.1103  2.2380
15193SOL     OW46156   0.703   7.889   8.763  0.2620  0.2034 -0.1495
15193SOL    HW146157   0.640   7.953   8.730 -2.1537 -2.8936 -2.1367
15193SOL    HW246158   0.681   7.879   8.856 -1.3785  0.0641 -0.5322
15194SOL     OW46159   5.535   5.212   4.803 -0.4512 -0.2196 -0.6520
15194SOL    HW146160   5.567   5.211   4.893  0.0632 -0.6265 -0.8264
15194SOL    HW246161   5.582   5.286   4.762  0.5759 -1.0355 -1.0016
15195SOL     OW46162   6.460   7.104   6.604 -0.4651 -0.4141  0.6699
15195SOL    HW146163   6.528   7.171   6.607 -1.8133  1.4407 -3.1531
15195SOL    HW246164   6.493   7.040   6.541 -1.4377 -0.4025  0.1259
15196SOL     OW46165   8.476   7.182   4.760 -0.3246 -0.6100  0.2292
15196SOL    HW146166   8.486   7.197   4.854 -2.4993 -0.0210  0.4223
15196SOL    HW246167   8.514   7.260   4.719  2.6197 -1.7999  0.4158
15197SOL     OW46168   4.612   1.417   8.055  0.3824  0.4343  0.0820
15197SOL    HW146169   4.598   1.445   8.145  0.1212  0.9541 -0.1178
15197SOL    HW246170   4.652   1.493   8.012  1.7012 -0.2333  0.0689
15198SOL     OW46171   8.530   0.258   0.288 -0.2563 -0.2877 -0.1540
15198SOL    HW146172   8.436   0.267   0.307 -0.1895  0.3236 -0.0785
15198SOL    HW246173   8.561   0.194   0.352 -0.9302 -1.7750 -1.2545
15199SOL     OW46174   6.302   0.949   8.318 -0.6063  0.3073 -0.1823
15199SOL    HW146175   6.236   0.940   8.250 -2.0879  2.7542  0.7913
15199SOL    HW246176   6.335   1.039   8.307  2.2483 -0.6660 -0.3187
15200SOL     OW46177   2.532   1.006   2.277 -0.5155  0.0223 -0.4993
15200SOL    HW146178   2.562   1.051   2.356  0.1223  0.4612 -0.9694
15200SOL    HW246179   2.523   1.076   2.212 -1.7856 -0.2240 -0.6098
15201SOL     OW46180   8.217   0.932   0.232 -0.2887 -0.6693 -0.0137
15201SOL    HW146181   8.264   1.012   0.256  0.8496 -1.4372  0.4186
15201SOL    HW246182   8.224   0.876   0.309  0.5293 -1.8877 -0.9401
15202SOL     OW46183   7.900   4.724   0.911  0.1256 -0.6186  0.0541
15202SOL    HW146184   7.957   4.748   0.838 -0.3106 -0.2212 -0.1641
15202SOL    HW246185   7.827   4.678   0.870  0.1634 -0.8972  0.3018
15203SOL     OW46186   6.455   1.262   2.259  0.0918  0.2293  0.4998
15203SOL    HW146187   6.487   1.319   2.329 -0.3908  0.7326  0.3197
15203SOL    HW246188   6.360   1.269   2.265  0.0097 -1.1624  0.9609
15204SOL     OW46189   7.176   6.432   8.490 -0.2680 -0.0945 -0.7412
15204SOL    HW146190   7.216   6.393   8.412  1.8149  1.4972 -0.5436
15204SOL    HW246191   7.211   6.381   8.562  0.8068  0.7581 -0.6305
15205SOL     OW46192   4.414   4.897   2.047 -0.1120  0.1312  0.3176
15205SOL    HW146193   4.505   4.910   2.075 -0.1932 -1.1066  1.2254
15205SOL    HW246194   4.367   4.876   2.128 -1.4465  1.8302  0.0314
15206SOL     OW46195   6.510   5.458   6.374 -0.3713  0.1833 -0.3364
15206SOL    HW146196   6.522   5.394   6.304  0.2792  0.8664 -0.8649
15206SOL    HW246197   6.450   5.415   6.435  1.5761 -1.7445  0.3482
15207SOL     OW46198   0.132   8.140   9.924 -0.4865 -0.0723  0.3030
15207SOL    HW146199   0.075   8.208   9.889 -1.0852 -0.3794  0.6437
15207SOL    HW246200   0.220   8.167   9.901 -0.6061  1.4871  1.5336
15208SOL     OW46201   9.643   8.179   0.210 -0.6132 -0.4455  0.3160
15208SOL    HW146202   9.558   8.145   0.236 -0.6266  0.0666  0.9710
15208SOL    HW246203   9.649   8.161   0.116 -0.9379 -1.5429  0.4989
15209SOL     OW46204   0.749   9.711   6.470 -0.4250  0.3174  0.4873
15209SOL    HW146205   0.665   9.668   6.488 -1.0871  1.6476  0.7177
15209SOL    HW246206   0.751   9.720   6.375 -0.1432 -0.4709  0.4124
15210SOL     OW46207   9.165   1.803   5.049 -0.5601  0.1217 -0.0294
15210SOL    HW146208   9.070   1.799   5.063 -0.8017  2.2406 -0.7444
15210SOL    HW246209   9.202   1.755   5.123 -2.1142  1.2788  1.5887
15211SOL     OW46210   7.372   2.765   7.686  0.5997 -0.1260 -0.3393
15211SOL    HW146211   7.304   2.833   7.690  0.7996  0.4781 -3.9939
15211SOL    HW246212   7.454   2.814   7.681  0.8278 -0.6154 -1.8104
15212SOL     OW46213   2.961   8.315   8.577  0.7729 -0.2172 -0.2760
15212SOL    HW146214   3.047   8.331   8.539  1.7911 -1.1104  1.5166
15212SOL    HW246215   2.963   8.222   8.602 -0.6413 -0.1966  0.0087
15213SOL     OW46216   8.121   5.331   3.939 -0.1554  0.2799 -0.4801
15213SOL    HW146217   8.028   5.325   3.961 -0.0693 -0.9951 -0.3820
15213SOL    HW246218   8.147   5.417   3.972 -0.9300  0.0087  0.9621
15214SOL     OW46219   6.144   8.395   8.787  0.0373  0.1229  0.5322
15214SOL    HW146220   6.222   8.355   8.827  0.9238  0.3470 -0.9032
15214SOL    HW246221   6.166   8.487   8.780 -0.7589  0.3536  0.9695
15215SOL     OW46222   6.235   7.431   6.054  0.1470  0.2097 -0.5063
15215SOL    HW146223   6.206   7.482   5.978 -1.2749 -1.0632 -0.8746
15215SOL    HW246224   6.154   7.401   6.096  0.9178 -0.1365  0.8115
15216SOL     OW46225   2.339   6.327   1.504 -0.2751  0.0875 -0.5171
15216SOL    HW146226   2.294   6.242   1.498 -0.4825  0.1129  0.4985
15216SOL    HW246227   2.387   6.334   1.422  0.2929 -1.3321 -0.3407
15217SOL     OW46228   9.810   9.203   6.379 -0.8415 -0.3793 -0.3619
15217SOL    HW146229   9.877   9.170   6.439  0.3278  0.7297 -1.0019
15217SOL    HW246230   9.730   9.157   6.404  0.0587 -1.4146  0.7194
15218SOL     OW46231   3.021   7.387   0.264  0.2009  0.2186 -0.5138
15218SOL    HW146232   3.111   7.403   0.237  0.4652  0.6775  0.5917
15218SOL    HW246233   3.026   7.375   0.359 -0.6617 -1.5445 -0.6454
15219SOL     OW46234   8.493   9.719   1.591 -0.1199 -0.1567 -0.2934
15219SOL    HW146235   8.521   9.810   1.580 -0.8487  0.3241  1.5369
15219SOL    HW246236   8.397   9.723   1.593 -0.1393 -0.8667  0.5958
15220SOL     OW46237   3.728   6.136   9.630 -0.1840 -0.5994  0.4038
15220SOL    HW146238   3.730   6.062   9.691 -0.5493  0.2260  1.4473
15220SOL    HW246239   3.646   6.181   9.650  0.6484  0.8535  0.7445
15221SOL     OW46240   1.057   8.399   9.596  0.1601  0.3196  0.3194
15221SOL    HW146241   1.138   8.350   9.605  1.4053  2.0724 -0.7624
15221SOL    HW246242   1.069   8.477   9.650 -0.0524  1.4295 -1.1595
15222SOL     OW46243   5.885   3.492   6.009 -0.3573  0.1152 -0.0922
15222SOL    HW146244   5.812   3.554   6.000 -1.7073 -1.1395  1.5380
15222SOL    HW246245   5.870   3.428   5.939  0.9790  1.4689 -1.7107
15223SOL     OW46246   0.261   3.988   7.257 -0.1445 -0.0119  0.0772
15223SOL    HW146247   0.281   4.080   7.236 -0.8306 -0.0103 -0.6238
15223SOL    HW246248   0.291   3.977   7.347 -0.3847  1.0071  0.2952
15224SOL     OW46249   3.914   6.152   4.104 -0.0383  0.0816 -0.5058
15224SOL    HW146250   3.977   6.205   4.154 -0.8930  1.3702 -0.7465
15224SOL    HW246251   3.843   6.134   4.166 -0.6004  0.7848 -0.9288
15225SOL     OW46252   7.510   1.217   7.988  0.0302 -0.5454 -0.1718
15225SOL    HW146253   7.544   1.278   8.054 -0.5148  0.1285 -0.5009
15225SOL    HW246254   7.526   1.130   8.025  0.7876 -0.2077  0.3217
15226SOL     OW46255   5.697   1.454   1.890 -0.2413 -0.2266 -0.3653
15226SOL    HW146256   5.677   1.482   1.800  3.4729  1.0517 -1.0106
15226SOL    HW246257   5.632   1.387   1.910 -2.4592  0.8596 -3.2215
15227SOL     OW46258   8.783   6.882   3.228  0.1581 -0.2658 -0.0432
15227SOL    HW146259   8.707   6.923   3.187  1.2060 -0.7170 -2.6393
15227SOL    HW246260   8.822   6.952   3.280 -0.1182  1.0324 -1.4957
15228SOL     OW46261   7.992   3.840   6.350 -0.0978 -0.1817  0.0886
15228SOL    HW146262   8.046   3.897   6.406 -2.4521  0.3853  1.9232
15228SOL    HW246263   7.934   3.901   6.304  1.1256 -0.7338 -2.3436
15229SOL     OW46264   5.058   5.769   1.560 -0.2274  0.2132  0.1330
15229SOL    HW146265   4.980   5.825   1.560 -0.8575 -0.5821  2.2165
15229SOL    HW246266   5.055   5.725   1.475 -0.0871  2.7396 -1.2783
15230SOL     OW46267   7.598   3.291   1.807 -0.1746  0.1115 -0.0718
15230SOL    HW146268   7.674   3.297   1.749  0.8635 -1.1943  1.0683
15230SOL    HW246269   7.558   3.377   1.804  0.5104  0.4008 -1.8287
15231SOL     OW46270   9.027   3.525   6.008 -0.0139  0.2410 -0.0384
15231SOL    HW146271   9.056   3.444   5.966 -0.0222  0.3758 -0.3060
15231SOL    HW246272   9.033   3.507   6.102  1.1159  0.3225 -0.0841
15232SOL     OW46273   6.398   4.519   5.458  0.3758 -0.1808  0.2517
15232SOL    HW146274   6.348   4.582   5.407  1.2084 -0.0565 -0.4394
15232SOL    HW246275   6.405   4.559   5.545 -1.9567 -0.8805  0.8206
15233SOL     OW46276   9.081   9.956   8.386 -0.3966  0.2757  0.2235
15233SOL    HW146277   9.101   9.915   8.470  0.4833  1.9632  0.8881
15233SOL    HW246278   9.005  10.012   8.405 -0.1062  0.7691 -0.0637
15234SOL     OW46279   4.697   0.211   7.439  0.0051  0.2673  0.1348
15234SOL    HW146280   4.663   0.301   7.432  0.4890  0.3779 -1.1459
15234SOL    HW246281   4.626   0.156   7.407  0.0898  0.2934 -0.1054
15235SOL     OW46282   2.527   9.653   2.657 -0.0092  0.2723  1.0102
15235SOL    HW146283   2.439   9.677   2.684  0.0414 -0.2439  1.6733
15235SOL    HW246284   2.576   9.647   2.739  0.4151 -0.2995  0.7214
15236SOL     OW46285   5.810   5.116   8.792  0.2494 -0.1852  0.0165
15236SOL    HW146286   5.758   5.037   8.808  1.3581 -1.4755 -2.2831
15236SOL    HW246287   5.755   5.169   8.733  0.2937 -0.0991  0.0516
15237SOL     OW46288   8.324   4.839   8.129  0.4949 -0.2194 -0.0314
15237SOL    HW146289   8.393   4.876   8.074 -1.0018  0.4801 -1.5329
15237SOL    HW246290   8.253   4.820   8.068 -1.1562  0.3461  1.6299
15238SOL     OW46291   6.815   1.076   1.022 -0.5622 -0.7500 -0.1824
15238SOL    HW146292   6.757   1.051   1.094 -1.0224 -2.1009 -0.9745
15238SOL    HW246293   6.783   1.161   0.993 -0.2230 -0.0684  1.3279
15239SOL     OW46294   9.081   7.745   0.493  0.2339  0.0532 -0.3535
15239SOL    HW146295   9.019   7.689   0.447  0.4974 -1.7950  1.4021
15239SOL    HW246296   9.119   7.689   0.560  1.6555  1.9462  0.5231
15240SOL     OW46297   8.302   9.687   9.638  0.1065 -0.1023 -0.9011
15240SOL    HW146298   8.226   9.630   9.647  0.3604 -0.1107  2.0803
15240SOL    HW246299   8.377   9.627   9.635  0.1683 -0.0120 -1.2189
15241SOL     OW46300   0.646   6.459   0.557 -0.5821  0.0040 -0.2063
15241SOL    HW146301   0.579   6.524   0.580 -1.3233 -0.0505 -2.0198
15241SOL    HW246302   0.717   6.474   0.619 -1.8867  0.6899  1.1820
15242SOL     OW46303   2.218   8.577   5.433  0.1574  0.0325  0.4225
15242SOL    HW146304   2.146   8.633   5.403  0.6357  1.2528  1.4212
15242SOL    HW246305   2.184   8.488   5.426 -0.5176  0.3937 -1.5501
15243SOL     OW46306   0.797   6.191   9.173 -0.0727 -0.1557  0.2890
15243SOL    HW146307   0.785   6.168   9.081  2.2501  0.9319 -0.3758
15243SOL    HW246308   0.723   6.248   9.194 -1.1645 -1.2195 -0.5854
15244SOL     OW46309   5.315   2.746   5.325 -0.0185  0.3969 -0.1348
15244SOL    HW146310   5.273   2.833   5.326 -0.6153  0.1079  0.1603
15244SOL    HW246311   5.253   2.689   5.370  0.4647 -0.1472 -0.1545
15245SOL     OW46312   9.468   2.911   2.506  0.2578 -0.0362 -0.1981
15245SOL    HW146313   9.544   2.889   2.452 -0.2168 -0.8432 -0.5524
15245SOL    HW246314   9.398   2.930   2.444  0.3610  1.5261  0.1124
15246SOL     OW46315   9.606   5.156   9.338 -0.1025  0.0079 -0.4403
15246SOL    HW146316   9.676   5.126   9.396 -0.3698 -0.2746 -0.2616
15246SOL    HW246317   9.602   5.251   9.353  0.3645  0.0544 -0.5920
15247SOL     OW46318   1.369   1.850   6.231 -0.0036 -0.2824  0.5127
15247SOL    HW146319   1.457   1.817   6.209  1.1093  1.0836  2.6357
15247SOL    HW246320   1.355   1.921   6.169  0.3221 -0.5993  0.0650
15248SOL     OW46321   8.393   9.573   7.932  0.2747  0.0195 -0.3050
15248SOL    HW146322   8.435   9.516   7.869  0.1267  0.0843 -0.4635
15248SOL    HW246323   8.465   9.616   7.979  0.4548  2.1131 -2.3362
15249SOL     OW46324   3.537   8.950   1.945 -0.1061 -0.7763 -0.2630
15249SOL    HW146325   3.572   9.009   2.011  0.2525 -0.9408 -0.3059
15249SOL    HW246326   3.519   9.007   1.870  0.8618 -0.8145 -0.5407
15250SOL     OW46327   4.582   1.656   6.765  0.5205 -0.0018  0.0046
15250SOL    HW146328   4.528   1.625   6.838  2.0275  0.6310  1.4277
15250SOL    HW246329   4.600   1.576   6.714  1.2929 -0.8792  1.5745
15251SOL     OW46330   9.852   1.847   8.074 -0.1348 -0.3367  0.2358
15251SOL    HW146331   9.767   1.858   8.117 -0.0330  0.2140  0.3036
15251SOL    HW246332   9.877   1.936   8.046 -0.6452 -0.7803 -1.8139
15252SOL     OW46333   9.583   7.891   3.925  0.7338  0.3910  0.6866
15252SOL    HW146334   9.587   7.829   3.852  2.0435  0.9390  0.2622
15252SOL    HW246335   9.625   7.846   3.998  0.6572  0.3544  0.7082
15253SOL     OW46336   4.198   3.183   2.347  0.2136  0.1176  0.1955
15253SOL    HW146337   4.260   3.256   2.349 -0.4438  0.7181  3.1086
15253SOL    HW246338   4.254   3.105   2.348  0.8990  0.5536 -1.1423
15254SOL     OW46339   6.975   8.807   9.584  0.3384 -0.1987  0.0961
15254SOL    HW146340   7.017   8.724   9.562  0.7950  0.4264 -1.5400
15254SOL    HW246341   7.048   8.869   9.594  0.2060 -0.3998  3.6931
15255SOL     OW46342   2.865   5.299   1.087  0.2289  0.2357 -0.0848
15255SOL    HW146343   2.789   5.274   1.139  0.0093 -2.6191 -1.5831
15255SOL    HW246344   2.828   5.334   1.006  0.5206 -0.1374 -0.3830
15256SOL     OW46345   1.186   5.858   0.963 -0.1265  0.1452  0.4546
15256SOL    HW146346   1.228   5.823   0.885 -0.2637  1.9334 -0.4824
15256SOL    HW246347   1.095   5.871   0.938 -0.0017  1.4847  0.6105
15257SOL     OW46348   3.237   8.104   0.778 -0.0482 -0.3586  0.2241
15257SOL    HW146349   3.151   8.064   0.773  1.0469 -2.7499 -0.8766
15257SOL    HW246350   3.284   8.071   0.702  2.2511 -0.1595  1.4597
15258SOL     OW46351   3.139   2.878   5.993  0.7592  0.5846  0.4551
15258SOL    HW146352   3.224   2.844   5.963  0.5172  0.1225  0.2831
15258SOL    HW246353   3.119   2.826   6.071 -0.0961 -0.4135 -0.3876
15259SOL     OW46354  10.000   2.846   9.072 -0.0270  0.4153  0.9262
15259SOL    HW146355   9.999   2.765   9.021 -1.2958  0.2758  1.1367
15259SOL    HW246356   9.929   2.899   9.034 -0.1711  0.8174  1.7435
15260SOL     OW46357   8.940   7.253   2.957 -0.9366 -0.1732 -0.6659
15260SOL    HW146358   8.958   7.168   2.918 -0.7349 -0.1325 -0.6636
15260SOL    HW246359   8.861   7.240   3.010 -0.5450 -0.5132 -0.1601
15261SOL     OW46360   6.037   0.095   4.045 -0.4800 -0.0674  0.3680
15261SOL    HW146361   6.117   0.116   4.093 -1.7978  0.4476  2.4873
15261SOL    HW246362   5.987   0.177   4.045 -1.2396 -0.5056 -0.4867
15262SOL     OW46363   3.254   4.921   8.533  0.6433 -0.7690 -0.1647
15262SOL    HW146364   3.274   4.842   8.582 -1.5106 -0.7141  0.9372
15262SOL    HW246365   3.293   4.992   8.583  1.7517 -1.0222 -0.6422
15263SOL     OW46366   4.648   4.504   3.717  0.3180 -0.4988 -0.5176
15263SOL    HW146367   4.650   4.565   3.790 -0.5508 -2.1982  1.0135
15263SOL    HW246368   4.645   4.559   3.639 -0.6600  1.3793  0.7882
15264SOL     OW46369   9.707   7.988   7.877 -0.1248  0.4561  0.3581
15264SOL    HW146370   9.678   8.020   7.792  0.0862  1.3594  0.6132
15264SOL    HW246371   9.704   7.893   7.870 -0.1054  0.5265 -0.6566
15265SOL     OW46372   1.825   1.133   0.399  0.7098 -0.6148  0.8447
15265SOL    HW146373   1.851   1.135   0.491  2.3174  0.7244  0.4194
15265SOL    HW246374   1.747   1.189   0.395  1.2049  0.1320  1.2714
15266SOL     OW46375   2.480   3.983   3.739 -0.4035  0.7875 -0.4634
15266SOL    HW146376   2.466   4.055   3.678  1.2636  0.8058 -0.8734
15266SOL    HW246377   2.493   4.025   3.824  0.8462  1.0299 -0.7485
15267SOL     OW46378   4.869   1.365   5.428 -0.0062 -0.0175  0.0856
15267SOL    HW146379   4.819   1.336   5.352 -2.0012  3.4228 -0.1045
15267SOL    HW246380   4.854   1.297   5.493  0.1602 -2.0996 -1.9191
15268SOL     OW46381   4.116   2.393   7.032  0.2165  0.4090 -0.1800
15268SOL    HW146382   4.035   2.421   6.991  1.2598  2.0919 -1.1977
15268SOL    HW246383   4.170   2.362   6.959  0.0523 -2.0027  0.6254
15269SOL     OW46384   8.069   5.005   2.564 -0.1503 -0.4686 -0.6633
15269SOL    HW146385   8.103   5.080   2.613  0.0469 -0.8403 -0.2269
15269SOL    HW246386   8.037   4.945   2.632 -2.4119  0.2038 -1.0592
15270SOL     OW46387   3.611   9.202   7.306  0.4572 -0.1421  0.1053
15270SOL    HW146388   3.595   9.289   7.343  0.3862 -0.1925  0.1939
15270SOL    HW246389   3.682   9.166   7.359  0.6035 -0.0717 -0.0393
15271SOL     OW46390   2.366   5.590   5.527 -0.4532 -0.6255  0.2341
15271SOL    HW146391   2.372   5.588   5.623 -2.0044 -1.9117  0.3428
15271SOL    HW246392   2.435   5.531   5.497  0.5935  0.4329  0.4980
15272SOL     OW46393   0.963   6.319   5.184  0.0142  0.4732  0.6466
15272SOL    HW146394   0.920   6.310   5.270 -0.9530 -0.5445  0.0809
15272SOL    HW246395   0.976   6.229   5.155 -0.2917  0.8122 -0.5709
15273SOL     OW46396   2.583   7.708   1.695  0.6778  0.3624 -0.2661
15273SOL    HW146397   2.673   7.731   1.716  0.9597  1.0455 -1.9823
15273SOL    HW246398   2.580   7.712   1.599 -1.1025  0.0709 -0.2531
15274SOL     OW46399   9.379   8.004   2.100 -0.0228 -0.2032 -0.4077
15274SOL    HW146400   9.448   7.955   2.145  0.0187 -0.6821 -0.9754
15274SOL    HW246401   9.319   7.936   2.068 -2.2582  0.2846  2.3832
15275SOL     OW46402   1.656   8.047   3.128 -0.3577 -0.5729 -0.0069
15275SOL    HW146403   1.675   7.985   3.058 -0.3875  0.6937 -1.1803
15275SOL    HW246404   1.561   8.052   3.131 -0.3528 -0.0492 -0.4371
15276SOL     OW46405   7.095   5.069   3.734 -0.4106  0.1012 -0.1960
15276SOL    HW146406   7.058   4.983   3.751 -4.0888  1.2466 -1.3684
15276SOL    HW246407   7.048   5.128   3.794  0.3958  1.5981 -0.9589
15277SOL     OW46408   3.925   3.765   6.833 -0.6028  0.3617 -0.5084
15277SOL    HW146409   3.923   3.692   6.771  0.2787  1.5362 -1.9705
15277SOL    HW246410   3.863   3.828   6.798  1.1574  1.7838 -1.1937
15278SOL     OW46411   5.799   3.150   6.571  0.4345  0.8456 -0.1855
15278SOL    HW146412   5.871   3.206   6.600 -0.2167  1.9643 -0.6511
15278SOL    HW246413   5.803   3.074   6.628  0.8378  1.7548  1.0476
15279SOL     OW46414   0.508   0.524   7.334  0.2075 -0.1823  0.4569
15279SOL    HW146415   0.454   0.445   7.330  0.6565 -0.4500 -1.1030
15279SOL    HW246416   0.495   0.558   7.422 -0.7224 -1.4876  0.8509
15280SOL     OW46417   1.332   8.264   3.661  1.3503 -0.3332 -0.1540
15280SOL    HW146418   1.303   8.198   3.724  2.2532 -0.6848 -0.0860
15280SOL    HW246419   1.252   8.296   3.620  0.4304  1.6829  2.8855
15281SOL     OW46420   3.120   1.210   5.249 -0.2417 -0.1725  0.2851
15281SOL    HW146421   3.196   1.173   5.205  0.0457 -1.8886  2.0875
15281SOL    HW246422   3.148   1.298   5.275  0.5326 -0.1829 -0.4712
15282SOL     OW46423   7.832   6.677   0.394  0.3009  0.2095  0.1078
15282SOL    HW146424   7.744   6.639   0.395  0.3927 -0.0118 -0.1597
15282SOL    HW246425   7.847   6.705   0.485 -0.0031  0.1523  0.1770
15283SOL     OW46426   4.095   0.808   0.442  0.1527 -0.5116 -0.0618
15283SOL    HW146427   4.157   0.844   0.506  3.3255 -2.1539 -1.9614
15283SOL    HW246428   4.031   0.878   0.429  1.9579  1.6127  1.5575
15284SOL     OW46429   2.585   3.986   5.218 -0.8723  0.0556 -0.4507
15284SOL    HW146430   2.631   4.068   5.200  1.5022 -1.2283 -0.6247
15284SOL    HW246431   2.515   4.010   5.278 -0.1570  2.1804 -0.3979
15285SOL     OW46432   2.677   2.083   4.341  0.2013  0.0544 -0.0277
15285SOL    HW146433   2.683   2.008   4.400 -0.6908  0.6782  0.8737
15285SOL    HW246434   2.585   2.107   4.341  0.1238 -0.0425 -1.8486
15286SOL     OW46435   2.838   1.824   4.652  0.1212 -0.7538 -0.3039
15286SOL    HW146436   2.911   1.883   4.637  2.2021 -2.6099  1.6621
15286SOL    HW246437   2.780   1.837   4.577  0.5870  3.3929 -0.1490
15287SOL     OW46438   4.686   1.388   3.617  0.1265  0.6212  0.4350
15287SOL    HW146439   4.772   1.429   3.626  0.3550  0.6733 -1.6330
15287SOL    HW246440   4.659   1.407   3.527 -1.5800 -0.3089  0.7094
15288SOL     OW46441   5.635   4.221   1.665 -0.2632  0.0411 -0.0078
15288SOL    HW146442   5.558   4.253   1.713 -0.5562 -0.6015 -0.0395
15288SOL    HW246443   5.702   4.210   1.731 -0.0662  0.9907 -0.0376
15289SOL     OW46444   2.659   3.670   7.114  0.0489  0.1088  0.5829
15289SOL    HW146445   2.622   3.683   7.026  0.7916  1.9340  0.4932
15289SOL    HW246446   2.583   3.668   7.172 -0.3487  2.4478  0.2570
15290SOL     OW46447   2.600   4.899   7.806 -0.3241  0.2494 -0.2136
15290SOL    HW146448   2.530   4.884   7.870 -0.5555  0.4176 -0.4267
15290SOL    HW246449   2.595   4.992   7.786 -1.1781 -0.0551 -1.5363
15291SOL     OW46450   8.506   3.986   2.408  0.6390 -0.1965  0.2234
15291SOL    HW146451   8.584   4.012   2.359  0.3538  3.8090  1.4853
15291SOL    HW246452   8.536   3.916   2.466  3.0299  0.4598 -0.1071
15292SOL     OW46453   1.241   7.447   1.464 -0.1984  0.4813 -0.1151
15292SOL    HW146454   1.251   7.508   1.538  1.4093  0.5786 -0.3749
15292SOL    HW246455   1.214   7.503   1.391  0.4567  0.7775 -0.1440
15293SOL     OW46456   1.106   5.889   4.929  0.2703 -0.0758 -0.6133
15293SOL    HW146457   1.110   5.877   4.834 -0.9339  1.2457 -0.8620
15293SOL    HW246458   1.068   5.807   4.962  1.6563 -0.9632 -1.1345
15294SOL     OW46459   7.381   4.065   8.685  0.5862  0.2334  0.1192
15294SOL    HW146460   7.290   4.079   8.710  0.6701  0.0576  0.5299
15294SOL    HW246461   7.387   4.101   8.597 -0.1115 -0.6125 -0.2898
15295SOL     OW46462   9.881   3.902   1.205  0.6702  0.4013  0.0549
15295SOL    HW146463   9.959   3.865   1.163  0.7298 -0.5086  0.9200
15295SOL    HW246464   9.915   3.947   1.283  0.2581 -0.9806  1.0705
15296SOL     OW46465   5.910   7.672   6.199  0.3950  0.1722  0.3740
15296SOL    HW146466   5.966   7.748   6.211  0.3566  0.0033  1.8060
15296SOL    HW246467   5.972   7.599   6.186  0.5306  0.0497  1.5640
15297SOL     OW46468   6.218   1.161   0.580 -0.1435 -0.6335  0.2567
15297SOL    HW146469   6.233   1.151   0.674  1.6369  0.6416  0.1514
15297SOL    HW246470   6.131   1.201   0.574  0.1605  0.2707  1.4444
15298SOL     OW46471   5.767   0.709   4.181  0.5180  0.2084 -0.2477
15298SOL    HW146472   5.853   0.687   4.218  0.9316  1.2036 -0.5670
15298SOL    HW246473   5.745   0.793   4.221  0.4544  0.7499 -1.3878
15299SOL     OW46474   7.722   4.719   6.054  0.0197  0.3373  0.3468
15299SOL    HW146475   7.658   4.662   6.096 -0.2859  0.0748 -0.4581
15299SOL    HW246476   7.727   4.796   6.111  1.0709 -0.8348  1.9062
15300SOL     OW46477   9.835   6.558   0.733 -0.2728  0.4434 -0.2332
15300SOL    HW146478   9.886   6.556   0.814  1.1057 -2.9729 -1.0317
15300SOL    HW246479   9.895   6.597   0.669  1.1177 -2.5220 -0.9046
15301SOL     OW46480   3.599   1.800   7.424  0.0931  0.4517 -0.1058
15301SOL    HW146481   3.676   1.785   7.370 -0.5419  1.3090 -1.3117
15301SOL    HW246482   3.529   1.816   7.361 -0.8008  0.9382  0.9767
15302SOL     OW46483   6.238   7.999   3.564 -0.6525  0.2811  0.1972
15302SOL    HW146484   6.219   7.975   3.474 -2.6030  2.9965 -0.2688
15302SOL    HW246485   6.314   8.057   3.558  0.7037 -1.3834  0.6511
15303SOL     OW46486   9.614   8.231   1.520 -0.1675 -0.3499 -0.0145
15303SOL    HW146487   9.596   8.141   1.547  1.1388 -1.3986 -2.4030
15303SOL    HW246488   9.709   8.239   1.523 -0.1477  0.3427 -1.5365
15304SOL     OW46489   5.094   6.298   4.168  0.0598 -0.2687 -0.3219
15304SOL    HW146490   5.057   6.330   4.086  1.8245  1.0248 -0.6685
15304SOL    HW246491   5.173   6.251   4.142 -0.0246 -0.9293  0.5595
15305SOL     OW46492   4.402   7.924   7.261 -0.4067  0.2943  0.0176
15305SOL    HW146493   4.354   7.979   7.322  1.1310  0.4424  1.1687
15305SOL    HW246494   4.464   7.875   7.316  0.9538  0.3355 -1.3930
15306SOL     OW46495   5.428   9.343   4.458  0.6282 -0.1270 -0.8150
15306SOL    HW146496   5.364   9.342   4.387 -0.1256 -1.1979 -0.1730
15306SOL    HW246497   5.407   9.421   4.509 -1.0953 -1.1136  0.1228
15307SOL     OW46498   1.532   8.270   9.933  0.4564  0.3323 -0.3895
15307SOL    HW146499   1.461   8.206   9.932 -1.0707  1.9224 -0.1991
15307SOL    HW246500   1.533   8.306   9.845  0.6371  0.7287 -0.2286
15308SOL     OW46501   8.271   2.695   0.135 -0.5393 -0.1874  0.7174
15308SOL    HW146502   8.265   2.790   0.137 -0.2057 -0.1393 -0.2756
15308SOL    HW246503   8.312   2.672   0.219 -1.3243  0.4763  1.3004
15309SOL     OW46504   3.248   9.997   3.105  0.2089 -0.5167  0.6168
15309SOL    HW146505   3.338   9.979   3.077  0.2597  2.4643 -1.6111
15309SOL    HW246506   3.193   9.958   3.036 -0.0759 -0.1321  0.6252
15310SOL     OW46507   3.062   6.887   8.010 -0.4321  0.7158 -0.1786
15310SOL    HW146508   3.144   6.859   8.050 -0.7973  1.4688  1.1328
15310SOL    HW246509   3.086   6.958   7.951  0.0010  0.1218 -0.7384
15311SOL     OW46510   3.804   9.754   9.843  0.4029  0.2911  0.1760
15311SOL    HW146511   3.786   9.678   9.788 -1.4189  0.7433  0.0763
15311SOL    HW246512   3.899   9.759   9.847  0.5591 -1.3061 -0.7573
15312SOL     OW46513   8.396   5.566   4.064  0.7562  0.4469 -0.7401
15312SOL    HW146514   8.321   5.580   4.122  1.9592  1.2994  0.7321
15312SOL    HW246515   8.427   5.655   4.044  0.6240  0.1473 -2.3892
15313SOL     OW46516   2.568   6.950   0.637  0.2664 -0.1842 -0.1879
15313SOL    HW146517   2.606   6.952   0.549  1.5838 -1.8637  0.2734
15313SOL    HW246518   2.482   6.910   0.625  0.2683 -0.0194 -0.7742
15314SOL     OW46519   9.745   3.272   4.517  0.1831 -0.3352  0.3883
15314SOL    HW146520   9.674   3.231   4.469 -1.1261  1.4511  0.6744
15314SOL    HW246521   9.825   3.235   4.480 -0.8264 -0.3415 -1.9009
15315SOL     OW46522   4.380   2.043   6.654  0.6002 -0.4766  0.1706
15315SOL    HW146523   4.426   2.109   6.705 -0.0987  0.2197 -0.0819
15315SOL    HW246524   4.450   1.987   6.620  1.2126  0.1656  0.3352
15316SOL     OW46525   0.653   6.432   5.646  0.4885 -0.0490 -0.3534
15316SOL    HW146526   0.678   6.376   5.720 -0.9798  0.5062  0.5917
15316SOL    HW246527   0.685   6.519   5.670  0.7748 -0.0341 -0.7839
15317SOL     OW46528   4.121   9.018   5.922 -0.4945  0.5361 -0.4998
15317SOL    HW146529   4.190   8.992   5.862 -0.5635  1.9237 -1.2243
15317SOL    HW246530   4.050   9.050   5.866 -0.6794  1.5734  0.2748
15318SOL     OW46531   9.704   0.275   6.917 -0.2173 -0.0613  0.5223
15318SOL    HW146532   9.775   0.333   6.945 -0.4404  0.2981  0.3511
15318SOL    HW246533   9.636   0.288   6.983 -1.4878  2.1756 -1.1025
15319SOL     OW46534   2.247   6.392   6.089 -0.2453 -0.0901 -0.1153
15319SOL    HW146535   2.273   6.301   6.076 -0.5643 -0.0391 -1.2278
15319SOL    HW246536   2.317   6.443   6.049 -0.3878  0.1391 -0.0750
15320SOL     OW46537   9.218   5.836   8.885  0.2020 -0.2197 -0.2029
15320SOL    HW146538   9.257   5.757   8.923  1.1381  0.1786 -0.3216
15320SOL    HW246539   9.189   5.808   8.798 -1.0695 -0.8774  0.3930
15321SOL     OW46540   4.761   1.007   6.008  0.1849 -0.2189  0.1032
15321SOL    HW146541   4.780   0.988   6.100 -0.7574  0.6008  0.4758
15321SOL    HW246542   4.820   1.079   5.986 -1.4116  1.3826  0.8592
15322SOL     OW46543   3.956   2.991   2.247 -0.5799 -0.3636  0.2068
15322SOL    HW146544   3.905   2.922   2.205 -0.5631  0.2789 -0.9044
15322SOL    HW246545   4.013   3.025   2.177  1.5123 -1.1548  1.4098
15323SOL     OW46546   1.772   2.035   7.181  0.5093 -0.1524  0.0375
15323SOL    HW146547   1.744   2.052   7.272  0.1647 -1.2899  0.1562
15323SOL    HW246548   1.867   2.047   7.183  0.2517  2.6385 -0.1159
15324SOL     OW46549   1.007   5.353   7.389  0.5465 -0.4579  0.0937
15324SOL    HW146550   0.955   5.400   7.454  2.0410 -1.5943  2.2168
15324SOL    HW246551   0.968   5.266   7.385 -0.2020 -0.0890 -1.4030
15325SOL     OW46552   6.787   6.570   5.657  0.2568 -0.3355 -0.0458
15325SOL    HW146553   6.859   6.631   5.642  0.7829 -0.6667  1.0919
15325SOL    HW246554   6.717   6.601   5.598  1.0398  0.4435 -0.5891
15326SOL     OW46555   8.953   3.619   6.886 -0.2413 -0.2381  0.2277
15326SOL    HW146556   8.882   3.682   6.889 -0.2749 -0.1908 -1.2483
15326SOL    HW246557   9.022   3.658   6.940 -1.2651 -0.2596  1.6295
15327SOL     OW46558   4.474   1.114   9.301  0.2051  0.1220 -0.6290
15327SOL    HW146559   4.473   1.186   9.364 -0.5840  0.0514 -0.5577
15327SOL    HW246560   4.418   1.047   9.340  2.2680 -1.2582  0.1272
15328SOL     OW46561   2.905   9.354   0.890  0.5671 -0.6149  0.2876
15328SOL    HW146562   2.839   9.364   0.822  1.1058 -1.1014 -0.3076
15328SOL    HW246563   2.984   9.394   0.854  0.4765  0.4749  1.2111
15329SOL     OW46564   2.002   1.070   6.404  0.3441 -0.5488  0.5551
15329SOL    HW146565   1.912   1.047   6.431  0.1829 -1.8512 -0.9500
15329SOL    HW246566   2.056   0.999   6.439  1.0186  0.8532  2.5085
15330SOL     OW46567   4.865   5.308   9.913  0.0231 -0.4717  0.2178
15330SOL    HW146568   4.789   5.309   9.855  0.3871 -2.2250 -0.3516
15330SOL    HW246569   4.911   5.390   9.893 -1.4636  0.4306  0.2856
15331SOL     OW46570   8.388   7.291   1.040  0.1159 -0.2097  0.0882
15331SOL    HW146571   8.454   7.237   0.996 -0.1166  0.8549 -1.6586
15331SOL    HW246572   8.438   7.364   1.077  0.2047 -0.6620  0.8725
15332SOL     OW46573   8.286   8.595   4.541 -0.1687  0.1184  0.1954
15332SOL    HW146574   8.301   8.688   4.523 -1.7579  0.4696  0.5434
15332SOL    HW246575   8.339   8.549   4.476 -0.9223  1.2953 -1.3217
15333SOL     OW46576   8.322   6.136   7.258  0.2014 -0.6351  0.0640
15333SOL    HW146577   8.395   6.113   7.316  0.5241  1.5994  0.6593
15333SOL    HW246578   8.355   6.118   7.170  0.8358 -1.2439  0.4109
15334SOL     OW46579   5.948   6.147   5.451 -0.1860  0.4203 -0.2711
15334SOL    HW146580   5.953   6.095   5.370 -0.1064 -0.6380  0.3902
15334SOL    HW246581   5.870   6.201   5.440 -1.2508 -1.0626 -0.3039
15335SOL     OW46582   0.353   8.507   5.533 -0.2605 -0.0893 -0.0736
15335SOL    HW146583   0.321   8.535   5.448  3.2645  0.6833 -1.2943
15335SOL    HW246584   0.327   8.577   5.593  0.2747  1.1348 -1.2306
15336SOL     OW46585   4.976   3.309   0.046  0.3199 -0.2121 -0.4191
15336SOL    HW146586   5.052   3.342   0.094 -0.9719 -0.8805  2.2852
15336SOL    HW246587   4.900   3.345   0.093 -1.0997 -3.3686 -0.0032
15337SOL     OW46588   1.389   7.883   0.169 -0.2426  0.1989 -0.5751
15337SOL    HW146589   1.321   7.870   0.235  0.0949  0.1333 -0.2370
15337SOL    HW246590   1.470   7.862   0.214 -0.2021 -2.5655 -1.7574
15338SOL     OW46591   7.800   1.296   9.768 -0.1715 -0.0429 -0.0905
15338SOL    HW146592   7.748   1.227   9.726  0.6758  0.7192 -2.5625
15338SOL    HW246593   7.753   1.377   9.748 -1.2919  0.1912  3.0068
15339SOL     OW46594   3.071   9.089   7.424 -0.4622 -0.1655 -0.4782
15339SOL    HW146595   3.073   9.150   7.350 -0.1047  1.3032  0.6925
15339SOL    HW246596   3.051   9.143   7.500  0.9239 -1.3151  0.7874
15340SOL     OW46597   7.671   0.221   6.826 -0.0187  0.0350 -0.2245
15340SOL    HW146598   7.701   0.244   6.738 -1.2196 -0.6464 -0.8368
15340SOL    HW246599   7.717   0.140   6.847 -0.7956 -0.5858 -0.8409
15341SOL     OW46600   9.350   9.825   8.634 -0.3974 -0.0629 -0.2963
15341SOL    HW146601   9.393   9.753   8.588  0.0549 -0.7348  1.1118
15341SOL    HW246602   9.258   9.819   8.608 -0.4926 -1.5888  0.3078
15342SOL     OW46603   0.922   5.144   1.351 -0.0325 -0.5130  0.2987
15342SOL    HW146604   0.849   5.116   1.406 -0.0001 -0.2834  0.4601
15342SOL    HW246605   0.981   5.069   1.349 -0.2696 -0.6972  0.1718
15343SOL     OW46606   7.643   8.042   1.522 -0.2158 -0.2678 -0.3619
15343SOL    HW146607   7.703   7.997   1.463  1.0027  1.1744 -0.2610
15343SOL    HW246608   7.576   7.976   1.542 -0.0252 -1.1482 -2.3995
15344SOL     OW46609   5.391   5.705   3.861  0.7794  0.0638  0.5095
15344SOL    HW146610   5.392   5.630   3.921  0.1442  0.6863  1.3241
15344SOL    HW246611   5.404   5.781   3.917 -1.5997  0.8272  0.1458
15345SOL     OW46612   4.534   8.048   1.795  0.2163  0.2695  0.3003
15345SOL    HW146613   4.563   7.968   1.752 -1.4563 -0.8202  1.0726
15345SOL    HW246614   4.500   8.103   1.724  0.3068 -0.2048 -0.1095
15346SOL     OW46615   1.714   0.300   1.046  0.6983 -0.2462 -0.6771
15346SOL    HW146616   1.784   0.358   1.018  1.7411 -0.6207  1.0100
15346SOL    HW246617   1.637   0.357   1.052  0.9270  0.2569 -2.1173
15347SOL     OW46618   0.713   2.633   7.167 -0.1154 -0.7946 -0.0179
15347SOL    HW146619   0.746   2.651   7.255  1.1324 -2.4486 -0.1073
15347SOL    HW246620   0.618   2.635   7.177 -0.0038 -1.4603  1.4975
15348SOL     OW46621   4.974   7.871   3.255  0.3809  0.4076  0.0869
15348SOL    HW146622   5.031   7.944   3.278  0.7913  0.3532 -0.7087
15348SOL    HW246623   4.895   7.912   3.219 -0.1972  0.4886  1.3733
15349SOL     OW46624   8.093   0.309   3.296  0.0641 -0.3930 -0.1961
15349SOL    HW146625   8.180   0.322   3.332 -0.6864  0.0300  1.6111
15349SOL    HW246626   8.106   0.302   3.202  1.9107  0.8202 -0.0732
15350SOL     OW46627   2.308   4.947   7.355 -0.8150  0.7914 -0.6894
15350SOL    HW146628   2.252   4.884   7.400 -1.6912  1.5118 -0.7572
15350SOL    HW246629   2.291   5.030   7.398  0.6526  0.9362 -0.3157
15351SOL     OW46630   2.008   3.179   1.679 -0.5452  0.5506 -0.0580
15351SOL    HW146631   2.013   3.248   1.745  0.8202  1.7498 -1.3205
15351SOL    HW246632   2.069   3.207   1.610 -0.8594 -1.3245 -1.1925
15352SOL     OW46633   1.970   3.952   7.342  0.1612  0.3136  0.5644
15352SOL    HW146634   1.974   3.857   7.335  2.2178  0.3487  0.5479
15352SOL    HW246635   2.016   3.984   7.264 -0.7795  1.3336  0.4078
15353SOL     OW46636   0.257   1.784   8.593  0.0679 -0.1380 -0.0608
15353SOL    HW146637   0.303   1.830   8.663  0.1021 -0.2807  0.0113
15353SOL    HW246638   0.326   1.751   8.536  0.0180  0.7714 -0.6735
15354SOL     OW46639   3.772   4.099   5.376 -0.2616  0.3357  0.2320
15354SOL    HW146640   3.866   4.080   5.368 -0.3087  0.3912 -0.4788
15354SOL    HW246641   3.747   4.133   5.291 -1.1589 -0.6774  0.0678
15355SOL     OW46642   3.754   8.796   6.083  0.9670  0.0396 -0.3303
15355SOL    HW146643   3.738   8.888   6.101 -2.6546 -0.7472  1.2002
15355SOL    HW246644   3.703   8.778   6.004 -0.6853 -1.1935  0.9599
15356SOL     OW46645   0.509   9.372   8.442  0.0336 -0.3375  0.0401
15356SOL    HW146646   0.570   9.314   8.487 -0.8247 -2.6754 -1.6019
15356SOL    HW246647   0.550   9.388   8.357 -0.3712  0.3804 -0.0294
15357SOL     OW46648   7.712   5.103   4.185  0.0848  0.0398 -0.5606
15357SOL    HW146649   7.664   5.111   4.103 -0.7542 -0.0623 -0.0941
15357SOL    HW246650   7.677   5.173   4.240  0.2027 -0.2693 -0.0888
15358SOL     OW46651   9.444   4.495   3.759  0.1368 -0.2172  0.3141
15358SOL    HW146652   9.424   4.588   3.766 -0.2573 -0.3654  1.2584
15358SOL    HW246653   9.403   4.456   3.836  1.4406 -0.9706  0.6510
15359SOL     OW46654   3.087   8.041   3.447  0.1617  0.5809  0.1964
15359SOL    HW146655   3.083   7.953   3.484 -0.3314  0.8854  0.8997
15359SOL    HW246656   3.179   8.065   3.450  0.6687 -0.7530 -2.0863
15360SOL     OW46657   2.416   5.048   4.079  0.0875  0.6923 -0.2010
15360SOL    HW146658   2.380   5.011   3.998  0.2069 -0.6176  0.3075
15360SOL    HW246659   2.368   5.130   4.092 -0.1695  0.7540 -1.4080
15361SOL     OW46660   4.628   1.431   0.341 -0.6290  0.3563  0.0423
15361SOL    HW146661   4.667   1.506   0.385  1.9648 -0.6836 -0.2734
15361SOL    HW246662   4.639   1.450   0.247 -1.4868  0.3153 -0.0718
15362SOL     OW46663   5.699   7.263   5.146 -0.0187 -0.1447 -0.5211
15362SOL    HW146664   5.766   7.207   5.106  0.1534 -0.1501 -0.2298
15362SOL    HW246665   5.710   7.347   5.102  0.2922 -0.0980 -0.3620
15363SOL     OW46666   2.657   6.178   9.122  0.3772 -0.4069  0.2047
15363SOL    HW146667   2.715   6.235   9.071 -0.2259  0.9411  0.9685
15363SOL    HW246668   2.649   6.222   9.207 -0.7354 -1.2267  0.5491
15364SOL     OW46669   0.362   9.823   1.423 -0.8265 -0.4171 -0.1127
15364SOL    HW146670   0.370   9.777   1.507 -0.7871 -0.3739 -0.0926
15364SOL    HW246671   0.316   9.761   1.366 -1.4682 -0.1778  0.1433
15365SOL     OW46672   7.209   0.755   7.753 -0.4163 -0.9616  0.0076
15365SOL    HW146673   7.166   0.796   7.679  1.5124  0.4275 -0.4382
15365SOL    HW246674   7.138   0.716   7.804 -1.9877 -0.1733 -1.4754
15366SOL     OW46675   1.550   0.203   1.354 -0.1738  0.3753  0.0844
15366SOL    HW146676   1.494   0.275   1.382  0.1904  0.9997 -0.7556
15366SOL    HW246677   1.526   0.188   1.263  0.1231 -0.2225  0.0990
15367SOL     OW46678   0.126   7.634   9.211 -0.1358  0.3539  0.2412
15367SOL    HW146679   0.109   7.684   9.131  0.4468  0.4575  0.1782
15367SOL    HW246680   0.043   7.590   9.230  0.1995 -1.1589 -1.4584
15368SOL     OW46681   7.665   9.928   0.908 -0.3911  0.0544 -1.0563
15368SOL    HW146682   7.711   9.912   0.991 -0.5193  0.6845 -0.8621
15368SOL    HW246683   7.689  10.017   0.883 -0.1354 -0.2243 -1.8443
15369SOL     OW46684   3.913   7.265   9.134  0.7122  0.4096 -0.0227
15369SOL    HW146685   3.902   7.199   9.065  2.6126 -1.8168  1.6471
15369SOL    HW246686   3.828   7.266   9.179 -0.1306  0.9627 -1.5399
15370SOL     OW46687   1.902   1.380   5.792 -0.2714 -0.4554 -0.1077
15370SOL    HW146688   1.941   1.322   5.857 -0.7596 -0.8577 -0.1690
15370SOL    HW246689   1.949   1.361   5.711 -1.6455 -2.1197 -0.5753
15371SOL     OW46690   3.262   7.397   4.677  0.1912  0.4720 -0.4474
15371SOL    HW146691   3.354   7.413   4.697  0.0346  1.4591 -0.4755
15371SOL    HW246692   3.260   7.307   4.643  1.2902  0.7733 -1.3761
15372SOL     OW46693   1.143   7.672   6.002  0.1487 -0.4779  0.4849
15372SOL    HW146694   1.068   7.632   6.045  0.1044  1.0762  1.9587
15372SOL    HW246695   1.113   7.759   5.978  0.4733 -0.9631 -1.9712
15373SOL     OW46696   7.897   7.583   3.020 -0.7620 -0.6652 -0.2707
15373SOL    HW146697   7.883   7.535   3.102 -1.4652 -0.9418 -0.5428
15373SOL    HW246698   7.838   7.541   2.957 -0.4051 -0.3019 -0.8606
15374SOL     OW46699   9.597   3.876   7.436  0.4619 -0.3530 -0.0988
15374SOL    HW146700   9.636   3.872   7.349 -1.0033  0.8572 -0.8520
15374SOL    HW246701   9.605   3.968   7.462  1.3722 -0.7903  1.3074
15375SOL     OW46702   9.953   5.362   1.228 -0.5815 -0.1664 -0.1494
15375SOL    HW146703   9.912   5.397   1.307  1.4005 -0.7985  1.2347
15375SOL    HW246704   9.941   5.430   1.162 -0.7769  1.1485  1.1938
15376SOL     OW46705   1.052   1.145   1.463 -0.5113  0.2345 -0.1914
15376SOL    HW146706   1.004   1.077   1.510  0.1870 -0.9676 -1.1516
15376SOL    HW246707   1.019   1.139   1.373 -0.5169  1.2554 -0.2675
15377SOL     OW46708   8.440   0.242   0.612  0.2167  0.2923 -0.0005
15377SOL    HW146709   8.415   0.176   0.547  0.3296 -0.0482  0.3031
15377SOL    HW246710   8.362   0.298   0.620  0.5423  0.9495 -1.1715
15378SOL     OW46711   4.526   5.370   1.135 -0.7224  0.1955 -0.2648
15378SOL    HW146712   4.491   5.411   1.056 -2.1862  0.1414  0.3333
15378SOL    HW246713   4.574   5.440   1.179 -0.3362  0.3604 -0.9351
15379SOL     OW46714   2.291   8.071   4.342  0.0848  0.0889  0.3304
15379SOL    HW146715   2.352   8.144   4.335 -0.1881  0.2675 -0.2173
15379SOL    HW246716   2.280   8.058   4.436 -0.9956  1.6955  0.4605
15380SOL     OW46717   1.029   1.756   4.265 -0.5284 -0.2742 -0.0023
15380SOL    HW146718   0.938   1.747   4.292 -1.0127  0.7460 -1.1711
15380SOL    HW246719   1.078   1.702   4.326 -1.6550  1.0514  2.1762
15381SOL     OW46720   5.439   9.970   3.023 -0.0768  0.1579  0.1532
15381SOL    HW146721   5.425   9.974   3.118 -2.2774  0.7349 -0.1267
15381SOL    HW246722   5.482   9.885   3.009  0.4946  0.1653  1.6720
15382SOL     OW46723   9.594   3.554   7.078  0.0747  0.0521 -0.2896
15382SOL    HW146724   9.676   3.522   7.041 -0.2380  0.0345 -0.9901
15382SOL    HW246725   9.535   3.479   7.072  0.3453 -0.3313  1.3675
15383SOL     OW46726   9.025   5.094   4.410 -0.0582  0.0948  0.0030
15383SOL    HW146727   9.107   5.137   4.432  0.0770  0.5825 -1.3698
15383SOL    HW246728   9.002   5.044   4.488  1.7805 -0.4278  0.2485
15384SOL     OW46729   4.210   2.393   4.974  0.0893  0.5400 -0.3682
15384SOL    HW146730   4.235   2.480   5.005 -0.6489  1.4938 -2.2599
15384SOL    HW246731   4.288   2.339   4.987  0.7867  1.6590  0.2175
15385SOL     OW46732   2.218   8.591   4.995 -0.1094  0.1452  0.0715
15385SOL    HW146733   2.224   8.681   5.026  1.6217  0.8389 -1.9728
15385SOL    HW246734   2.211   8.599   4.899 -1.7969 -1.8832 -0.0534
15386SOL     OW46735   9.639   8.376   2.921  0.4555 -0.9673 -0.0919
15386SOL    HW146736   9.654   8.452   2.976 -2.7819  0.1158 -0.5091
15386SOL    HW246737   9.645   8.301   2.980 -0.1433 -0.0582  1.1532
15387SOL     OW46738   7.957   7.220   2.434 -0.0451 -0.1047 -0.0586
15387SOL    HW146739   7.917   7.285   2.491 -1.1576 -1.1407  0.3951
15387SOL    HW246740   8.024   7.178   2.488  0.5907  0.5608 -0.3145
15388SOL     OW46741   0.721   1.328   6.586 -0.2426 -0.3680 -0.2453
15388SOL    HW146742   0.693   1.288   6.503  0.3070  2.1518 -1.7499
15388SOL    HW246743   0.789   1.269   6.618  0.9092 -0.4769 -2.6308
15389SOL     OW46744   4.769   3.234   0.655 -0.0234  0.3674 -0.5339
15389SOL    HW146745   4.757   3.225   0.750 -0.9878  2.1796 -0.4397
15389SOL    HW246746   4.689   3.199   0.617 -0.4211  1.2794 -0.5628
15390SOL     OW46747   4.651   9.033   1.713 -0.7237 -0.0937 -0.0614
15390SOL    HW146748   4.697   9.088   1.776 -1.7510  0.8409 -0.0872
15390SOL    HW246749   4.702   9.040   1.632 -1.0667  1.2121 -0.1922
15391SOL     OW46750   8.094   7.333   6.931 -0.2363  0.0300 -0.1410
15391SOL    HW146751   8.047   7.259   6.970  1.1237 -1.1417 -0.6186
15391SOL    HW246752   8.077   7.325   6.837  0.5211 -0.1437 -0.2716
15392SOL     OW46753   7.418   5.970   8.845  0.0593  0.0264  0.0635
15392SOL    HW146754   7.347   5.911   8.820 -0.9054  0.5829  1.4087
15392SOL    HW246755   7.377   6.037   8.899  1.5850  0.4357  0.7793
15393SOL     OW46756   2.496   3.591   3.135 -0.3327 -0.3953 -1.0187
15393SOL    HW146757   2.462   3.534   3.066  1.3878 -0.7857 -1.5872
15393SOL    HW246758   2.535   3.531   3.199 -2.5575 -0.1037  0.7722
15394SOL     OW46759   9.816   8.796   0.864 -0.8055 -0.0734 -0.6091
15394SOL    HW146760   9.747   8.741   0.902  0.0441 -1.1552 -0.5457
15394SOL    HW246761   9.895   8.742   0.871  0.1161  1.2412 -0.3834
15395SOL     OW46762   4.120   5.082   1.743  0.0373 -0.2355 -0.2403
15395SOL    HW146763   4.166   5.126   1.672  0.2527 -0.4658 -0.2436
15395SOL    HW246764   4.034   5.126   1.747  0.1955  0.0882 -0.3336
15396SOL     OW46765   8.327   3.560   9.005 -0.4852 -0.0207  0.0584
15396SOL    HW146766   8.364   3.490   9.058 -3.2597 -0.8033  1.1193
15396SOL    HW246767   8.253   3.593   9.056 -0.6623  2.1446 -1.4551
15397SOL     OW46768   6.346   7.377   8.125 -0.3399 -0.0674 -0.5438
15397SOL    HW146769   6.312   7.291   8.098 -0.7650 -0.3144  0.7208
15397SOL    HW246770   6.414   7.356   8.189  1.7845  0.4445 -2.4567
15398SOL     OW46771   8.931   6.140   6.886  0.2709 -1.0464 -0.1583
15398SOL    HW146772   8.909   6.191   6.808  0.5537 -0.0085  0.4143
15398SOL    HW246773   8.968   6.204   6.947  1.7881 -2.1341  0.1435
15399SOL     OW46774   9.023   4.672   2.524  0.2527  0.1832  0.2105
15399SOL    HW146775   8.950   4.667   2.462  1.2643  0.9246 -1.0864
15399SOL    HW246776   9.079   4.597   2.503  1.1139  0.9975 -0.4777
15400SOL     OW46777   7.792   7.173   5.412  0.0236 -0.3524 -0.0274
15400SOL    HW146778   7.706   7.138   5.432 -0.2942  0.0047 -0.7290
15400SOL    HW246779   7.793   7.183   5.317  0.8289 -0.3307 -0.0274
15401SOL     OW46780   5.341   6.323   5.756  0.1505  0.4303 -0.3495
15401SOL    HW146781   5.328   6.375   5.835 -0.6886  1.3037 -1.0392
15401SOL    HW246782   5.351   6.234   5.788 -2.4328  0.4009  0.6574
15402SOL     OW46783   5.054   4.640   6.172 -0.0490 -0.4609 -0.2946
15402SOL    HW146784   5.088   4.729   6.180  1.8348 -1.1825  0.2805
15402SOL    HW246785   5.047   4.626   6.077  0.7162 -0.0576 -0.4221
15403SOL     OW46786   3.375   2.208   3.664 -0.0324  0.1303 -0.0117
15403SOL    HW146787   3.382   2.183   3.757  0.1871 -0.0380 -0.0724
15403SOL    HW246788   3.282   2.224   3.651 -0.2287 -0.9522 -0.0428
15404SOL     OW46789   6.944   6.030   1.309 -0.2308  0.0803 -0.0321
15404SOL    HW146790   7.033   6.046   1.342 -0.5524 -2.5203  2.5730
15404SOL    HW246791   6.957   5.985   1.226  0.7381  2.8480 -1.4811
15405SOL     OW46792   5.558   4.596   6.442  0.2362 -0.0479 -0.3125
15405SOL    HW146793   5.581   4.647   6.520 -1.1440 -1.7210  1.2898
15405SOL    HW246794   5.623   4.525   6.439  0.5204  0.2337 -0.9234
15406SOL     OW46795   2.311   3.356   8.028 -0.6997  0.3990 -0.2408
15406SOL    HW146796   2.352   3.438   8.000 -0.2502  0.0079 -0.7471
15406SOL    HW246797   2.218   3.378   8.037 -0.3576  1.3739  1.2446
15407SOL     OW46798   3.644   1.695   4.881 -0.2431 -0.2607 -0.2204
15407SOL    HW146799   3.704   1.753   4.926  2.5561 -0.1164 -3.7231
15407SOL    HW246800   3.618   1.742   4.803 -1.9793 -1.8232 -0.6740
15408SOL     OW46801   7.139   5.220   5.725 -0.1514  0.1915 -0.4337
15408SOL    HW146802   7.122   5.140   5.776  1.8457  0.0069  0.0140
15408SOL    HW246803   7.120   5.194   5.635  3.0328 -1.7296 -0.6951
15409SOL     OW46804   7.560   5.083   1.792 -0.3169  0.6668  0.4670
15409SOL    HW146805   7.545   5.031   1.713 -3.5433  1.7983  0.1765
15409SOL    HW246806   7.652   5.067   1.815  0.1609 -1.2627 -2.3313
15410SOL     OW46807   8.582   3.984   4.919  0.5001  0.2116  0.5102
15410SOL    HW146808   8.589   3.890   4.936  1.4328  0.3071  0.7386
15410SOL    HW246809   8.672   4.011   4.901  0.0461  0.7924 -1.0407
15411SOL     OW46810   2.572   4.307   3.742  0.0796  0.0288 -0.0085
15411SOL    HW146811   2.576   4.254   3.662 -0.5593 -0.3514  0.2131
15411SOL    HW246812   2.604   4.249   3.811 -0.2996  0.0397  0.1773
15412SOL     OW46813   4.946   5.457   2.747  0.0522  0.4398  0.6070
15412SOL    HW146814   4.912   5.503   2.824 -0.7878 -0.7471  0.9733
15412SOL    HW246815   5.012   5.397   2.782  2.5304  2.5498 -0.0670
15413SOL     OW46816   8.115   3.382   1.062 -0.0921 -0.0185  0.4329
15413SOL    HW146817   8.207   3.404   1.051 -0.2659  0.5994  0.1449
15413SOL    HW246818   8.115   3.290   1.088  0.5555 -0.3457 -0.6566
15414SOL     OW46819   1.752  -0.010   9.386  0.4616  0.1509  0.5008
15414SOL    HW146820   1.667  -0.052   9.401  1.5670 -1.2242  4.0475
15414SOL    HW246821   1.741   0.079   9.419  0.5781 -0.3151  1.8671
15415SOL     OW46822   9.966   6.535   4.469  0.3947  0.2940  0.0731
15415SOL    HW146823   9.875   6.564   4.472  0.9652  2.3763  3.8027
15415SOL    HW246824  10.000   6.572   4.387 -1.6600  0.9763 -0.5291
15416SOL     OW46825   6.181   7.334   9.480 -0.1427  0.3741  0.0026
15416SOL    HW146826   6.106   7.320   9.538 -0.1861  0.5238 -0.0158
15416SOL    HW246827   6.175   7.263   9.416  0.4680 -0.3676  0.7551
15417SOL     OW46828   0.379   3.968   1.453 -0.0593  0.0906 -0.1199
15417SOL    HW146829   0.441   3.896   1.468  0.7517  0.6249 -0.8186
15417SOL    HW246830   0.432   4.038   1.415 -0.6436  1.4224  1.3890
15418SOL     OW46831   7.142   9.945   3.417 -0.4314  0.6041  0.0126
15418SOL    HW146832   7.133   9.850   3.428  0.9720  0.3149 -1.0839
15418SOL    HW246833   7.077   9.982   3.477 -0.7255 -1.0352  0.7649
15419SOL     OW46834   5.985   6.867   3.421 -0.4547  0.1486 -0.7841
15419SOL    HW146835   6.070   6.886   3.381 -1.2485  3.3097 -1.2812
15419SOL    HW246836   5.921   6.891   3.354 -1.7581  1.7236  0.9168
15420SOL     OW46837   6.792   8.769   2.770 -0.1084  0.1775  0.2556
15420SOL    HW146838   6.830   8.852   2.797  3.4880 -1.7065  1.7331
15420SOL    HW246839   6.714   8.759   2.826 -0.4340  2.3328  0.2702
15421SOL     OW46840   3.904   4.859   0.004  0.4880  0.1693 -0.0344
15421SOL    HW146841   3.921   4.771   0.037 -0.7836  0.2765  0.9797
15421SOL    HW246842   3.835   4.893   0.060  2.1144  2.4807  0.7257
15422SOL     OW46843   4.912   2.189   8.694  0.2821  0.0209  0.2375
15422SOL    HW146844   4.954   2.122   8.747  2.5816 -0.3572 -1.8959
15422SOL    HW246845   4.962   2.269   8.713  0.3012  0.1595 -0.3702
15423SOL     OW46846   4.449   5.260   9.179  0.3684 -0.4017 -0.4766
15423SOL    HW146847   4.484   5.193   9.239  0.4411 -0.3670 -0.4801
15423SOL    HW246848   4.431   5.212   9.098  0.7843 -0.3416 -0.6074
15424SOL     OW46849   2.096   1.244   1.660  0.3873 -0.1013  0.2835
15424SOL    HW146850   2.190   1.263   1.661  0.2216  0.8019  0.0286
15424SOL    HW246851   2.073   1.232   1.751  0.8341 -0.7985  0.3152
15425SOL     OW46852   9.887   0.402   0.481  0.0091  0.1020 -0.2040
15425SOL    HW146853   9.889   0.448   0.565  1.7587 -0.4013  0.0832
15425SOL    HW246854   9.893   0.472   0.416  1.8015  0.3810  0.2064
15426SOL     OW46855   3.313   6.526   8.262 -0.4873 -0.0131 -0.3423
15426SOL    HW146856   3.220   6.503   8.265 -0.2851 -0.7970  1.4835
15426SOL    HW246857   3.350   6.486   8.341  1.2629  0.9034 -0.6446
15427SOL     OW46858   2.556   1.493   6.791 -0.7555 -0.4517  0.0022
15427SOL    HW146859   2.592   1.430   6.729  1.7518 -0.7875  1.6350
15427SOL    HW246860   2.565   1.577   6.747  1.4411 -0.6226 -0.0184
15428SOL     OW46861   0.402   6.162   1.910 -0.1742  0.5713  0.0489
15428SOL    HW146862   0.450   6.243   1.926  0.9628 -0.5923  3.3064
15428SOL    HW246863   0.342   6.155   1.984 -0.0439 -1.6698  0.0093
15429SOL     OW46864   3.029   5.315   8.488 -0.2574  0.2532 -0.1629
15429SOL    HW146865   3.000   5.230   8.521 -0.3109  0.2568 -0.2006
15429SOL    HW246866   3.080   5.295   8.410 -1.3527  0.3282 -0.9251
15430SOL     OW46867   5.684   4.608   4.925 -0.0410  0.1106 -0.1848
15430SOL    HW146868   5.709   4.694   4.959 -0.7031 -0.2983  1.4357
15430SOL    HW246869   5.589   4.615   4.910 -0.5208 -0.9283  2.0005
15431SOL     OW46870   2.747   3.787   5.443 -0.7574 -0.3789 -0.2061
15431SOL    HW146871   2.804   3.863   5.438 -0.1098 -0.9233 -1.6717
15431SOL    HW246872   2.791   3.727   5.503 -0.0830 -0.5301 -0.8323
15432SOL     OW46873   9.208   3.737   6.963 -0.2961  0.0902 -0.2353
15432SOL    HW146874   9.225   3.751   6.870 -1.4372  0.2431 -0.4385
15432SOL    HW246875   9.255   3.808   7.007 -0.4143  0.4982 -0.7569
15433SOL     OW46876   2.707   9.266   6.655  0.0284 -0.0104 -0.9453
15433SOL    HW146877   2.641   9.204   6.625 -0.6547  0.9072 -1.3838
15433SOL    HW246878   2.664   9.351   6.651  1.1817  0.5880 -1.0631
15434SOL     OW46879   1.933   8.670   4.859 -0.0506  0.2129  0.0206
15434SOL    HW146880   1.963   8.623   4.937 -2.7504 -1.2701  0.2883
15434SOL    HW246881   1.959   8.761   4.875  2.8579 -0.6668  0.7985
15435SOL     OW46882   4.567   9.620   1.097 -0.0061 -0.1248 -0.1562
15435SOL    HW146883   4.531   9.552   1.041  0.8787 -0.4595 -0.3202
15435SOL    HW246884   4.572   9.697   1.041 -0.5319 -0.0499 -0.1089
15436SOL     OW46885   7.298   5.357   7.691  0.1456  0.9437  0.1640
15436SOL    HW146886   7.226   5.345   7.629  0.9369 -0.7265 -0.4976
15436SOL    HW246887   7.367   5.401   7.641  0.0840  1.3252  0.4100
15437SOL     OW46888   2.296   4.299   1.188 -0.0935  0.3737 -0.0564
15437SOL    HW146889   2.349   4.220   1.174  0.5787  0.6827  0.6811
15437SOL    HW246890   2.323   4.359   1.119  0.7949  0.6679  0.5436
15438SOL     OW46891   4.775   1.177   4.976 -0.1205  0.2946 -0.8857
15438SOL    HW146892   4.750   1.194   5.067 -1.2277 -1.0771 -0.8871
15438SOL    HW246893   4.694   1.146   4.935  0.5744  0.0448 -2.1132
15439SOL     OW46894   4.461   8.501   9.413  0.5884  0.1305 -0.0377
15439SOL    HW146895   4.390   8.440   9.399  0.4738 -0.3714  2.2504
15439SOL    HW246896   4.524   8.453   9.468  0.3910  2.0492  2.0247
15440SOL     OW46897   8.223   6.494   6.420 -0.0691  0.1498 -0.5230
15440SOL    HW146898   8.235   6.570   6.362  0.6802  0.0152 -0.5526
15440SOL    HW246899   8.211   6.532   6.507 -1.9791  0.3920 -0.8371
15441SOL     OW46900   5.654   8.574   4.176 -0.1143 -0.3986  0.2990
15441SOL    HW146901   5.698   8.515   4.114 -0.8641 -1.5567  0.8299
15441SOL    HW246902   5.699   8.558   4.259  1.7482  2.0743 -0.1095
15442SOL     OW46903   3.121   1.556   9.784  0.5855  0.0120 -0.7407
15442SOL    HW146904   3.128   1.582   9.693  2.5487 -0.9599 -0.9151
15442SOL    HW246905   3.170   1.623   9.832  2.0781 -1.0376 -0.7466
15443SOL     OW46906   6.696   1.338   4.347 -0.0293 -0.0293 -0.2022
15443SOL    HW146907   6.614   1.292   4.362 -0.9849  1.9567  1.0155
15443SOL    HW246908   6.728   1.303   4.264 -0.7486 -2.7187  0.5629
15444SOL     OW46909   0.237   9.363   2.367  0.0031 -0.0208 -0.2518
15444SOL    HW146910   0.224   9.415   2.446 -2.8678 -0.5008 -0.3201
15444SOL    HW246911   0.257   9.275   2.399 -1.5974 -0.3213  0.0208
15445SOL     OW46912   0.151   0.361   2.391 -0.5493 -0.2927 -0.6296
15445SOL    HW146913   0.194   0.437   2.429 -0.3331 -0.9858  0.5516
15445SOL    HW246914   0.122   0.309   2.466 -1.6362 -0.8589 -1.4094
15446SOL     OW46915   6.172   2.190   0.569 -0.6315  0.4018  0.0440
15446SOL    HW146916   6.172   2.285   0.554 -0.8259  0.4799  0.5336
15446SOL    HW246917   6.108   2.177   0.639  1.2688  0.2206  1.8533
15447SOL     OW46918   6.790   5.673   5.770  0.7639  0.3471 -0.3312
15447SOL    HW146919   6.744   5.612   5.712 -0.1987 -0.0836  0.8312
15447SOL    HW246920   6.735   5.752   5.770  1.7070  1.0171 -1.3891
15448SOL     OW46921   6.793   7.086   1.289 -0.5809  0.3403  0.3143
15448SOL    HW146922   6.717   7.028   1.288 -0.0992 -0.3605  1.7185
15448SOL    HW246923   6.867   7.030   1.267 -0.2977  0.7459  0.2069
15449SOL     OW46924   0.523   8.850   8.741  0.0030  0.2434 -0.5859
15449SOL    HW146925   0.467   8.909   8.792  0.3891  0.0189  0.1169
15449SOL    HW246926   0.565   8.795   8.807  1.2300  0.5633 -1.0780
15450SOL     OW46927   0.886   1.001   1.805  0.4379 -0.2417  0.6811
15450SOL    HW146928   0.880   0.975   1.713  1.0614 -1.1811  0.8875
15450SOL    HW246929   0.962   1.059   1.809 -0.5260  1.0686  0.3419
15451SOL     OW46930   2.176   1.520   0.339 -0.5964  0.1705  0.8581
15451SOL    HW146931   2.173   1.506   0.433  0.2061 -1.2551  0.6995
15451SOL    HW246932   2.244   1.460   0.308 -0.8970  0.5617 -0.6317
15452SOL     OW46933   1.256   9.967   2.868  0.2365  0.7601 -0.4277
15452SOL    HW146934   1.182   9.930   2.820  0.9542 -0.0673 -0.9199
15452SOL    HW246935   1.217  10.032   2.926 -0.7735  0.9574 -1.3049
15453SOL     OW46936   4.080   8.061   5.505  0.4328 -0.2831  0.1464
15453SOL    HW146937   4.171   8.092   5.513 -0.2969  1.6881  1.6575
15453SOL    HW246938   4.034   8.106   5.575 -1.9266 -0.5474 -1.1618
15454SOL     OW46939   5.559  -0.015   5.135  0.2532 -0.2476  0.4961
15454SOL    HW146940   5.485   0.016   5.185  0.0907  1.4515 -0.7289
15454SOL    HW246941   5.636   0.015   5.183  0.0990  1.3765 -0.2090
15455SOL     OW46942   2.004   9.681   7.363 -0.9168 -0.2386 -0.4594
15455SOL    HW146943   2.098   9.674   7.380 -0.7408 -0.0284 -1.2710
15455SOL    HW246944   1.970   9.736   7.434  0.0518  1.9515 -1.5981
15456SOL     OW46945   2.461   3.195   1.442  0.2200  0.6566 -0.0748
15456SOL    HW146946   2.461   3.114   1.493 -2.4314  1.6654  1.7697
15456SOL    HW246947   2.542   3.239   1.467  0.2121 -0.0530  1.3384
15457SOL     OW46948   4.224   9.962   2.265 -0.1754  0.5389 -0.1989
15457SOL    HW146949   4.188   9.875   2.283  1.4760 -0.3449 -0.9758
15457SOL    HW246950   4.163  10.022   2.309 -2.0436 -0.9060 -0.6739
15458SOL     OW46951   1.439   7.805   3.150 -0.1371  0.3270 -0.3909
15458SOL    HW146952   1.474   7.793   3.238 -0.7865 -0.9092 -0.2810
15458SOL    HW246953   1.463   7.894   3.126  4.0523 -0.7063 -0.7610
15459SOL     OW46954   0.076   8.674   2.195 -0.0777 -0.3762 -0.1751
15459SOL    HW146955  -0.005   8.721   2.215 -0.0539 -0.7138  0.7853
15459SOL    HW246956   0.140   8.710   2.257 -0.1489 -1.8973  0.8578
15460SOL     OW46957   4.516   4.373   5.220  0.7979  0.0919 -0.0984
15460SOL    HW146958   4.471   4.448   5.258  1.8447  0.8184 -0.2741
15460SOL    HW246959   4.506   4.384   5.125  1.4934  0.3505 -0.1440
15461SOL     OW46960   2.962   8.562   5.942 -0.0849  0.4341 -0.0457
15461SOL    HW146961   2.920   8.555   6.028  0.9082  2.1316  0.6283
15461SOL    HW246962   2.978   8.471   5.916 -0.9215 -0.1317  1.2993
15462SOL     OW46963   3.500   5.764   7.912 -0.2138 -0.3214 -0.5113
15462SOL    HW146964   3.446   5.685   7.919 -0.6493 -0.0127 -0.3762
15462SOL    HW246965   3.581   5.742   7.958  0.1974 -1.1394 -1.5589
15463SOL     OW46966   0.193   8.682   6.853  0.1588 -0.6084  0.0592
15463SOL    HW146967   0.244   8.732   6.790 -1.5487  3.6968  1.7387
15463SOL    HW246968   0.111   8.663   6.809 -0.2510  0.6204  0.2546
15464SOL     OW46969   0.616   3.024   6.838  0.0194  0.3582  0.0176
15464SOL    HW146970   0.655   2.958   6.895  1.4623 -0.2510 -1.5933
15464SOL    HW246971   0.522   3.007   6.842  0.3230 -1.5794 -0.0734
15465SOL     OW46972   2.493   6.145   2.136  0.0598 -0.3481 -0.1900
15465SOL    HW146973   2.492   6.204   2.212 -0.6105 -0.4155 -0.1423
15465SOL    HW246974   2.576   6.164   2.092 -0.6790  1.5674 -0.8899
15466SOL     OW46975   0.042   3.331   1.949  0.0985  0.0836 -0.3860
15466SOL    HW146976  -0.000   3.287   1.875  0.3836  0.3447 -0.7112
15466SOL    HW246977  -0.027   3.341   2.014 -0.1447 -0.1988 -0.5992
15467SOL     OW46978   6.889   9.614   1.962 -0.1984 -0.0825 -0.4589
15467SOL    HW146979   6.968   9.611   2.017 -0.0548  1.3490 -0.5318
15467SOL    HW246980   6.825   9.661   2.016 -0.0789  1.2744 -1.4335
15468SOL     OW46981   5.904   1.516   9.479  0.1905 -0.0736  0.8886
15468SOL    HW146982   5.850   1.453   9.527 -2.5004  1.6460  0.3420
15468SOL    HW246983   5.946   1.568   9.547 -0.4750 -0.1462  1.3672
15469SOL     OW46984   0.538   3.429   9.031 -0.0857  0.2787  0.0487
15469SOL    HW146985   0.593   3.470   9.099  0.3569 -0.9128  0.4410
15469SOL    HW246986   0.548   3.486   8.955 -0.5469  1.6217  0.9398
15470SOL     OW46987   8.705   8.223   6.949  0.4444  0.0386 -0.9132
15470SOL    HW146988   8.760   8.146   6.962 -2.0842 -1.7089  0.4093
15470SOL    HW246989   8.654   8.204   6.870 -1.2627 -0.4225  0.2393
15471SOL     OW46990   7.635   0.200   8.262  0.4946  0.0291 -0.1294
15471SOL    HW146991   7.716   0.230   8.305  0.5967 -0.6222  0.1465
15471SOL    HW246992   7.568   0.262   8.291  0.8557  0.4427 -0.1833
15472SOL     OW46993   0.541   8.223   3.727 -0.1569 -0.1853 -0.0590
15472SOL    HW146994   0.462   8.211   3.779 -1.6901 -1.1181 -2.4355
15472SOL    HW246995   0.597   8.280   3.780 -2.1839  0.0801  1.9151
15473SOL     OW46996   5.156   8.597   3.649  0.0458 -0.2224 -0.1329
15473SOL    HW146997   5.229   8.543   3.620  0.3184  0.4177 -0.6421
15473SOL    HW246998   5.127   8.643   3.571 -0.8182 -0.3590  0.0956
15474SOL     OW46999   6.139   0.495   0.952 -0.4906 -0.5272 -0.5859
15474SOL    HW147000   6.147   0.521   1.044  0.3858 -0.0337 -0.7901
15474SOL    HW247001   6.154   0.401   0.952 -2.3963 -0.8871 -0.0003
15475SOL     OW47002   1.187   3.026   5.863  0.4257  0.7083  0.1191
15475SOL    HW147003   1.181   2.986   5.950  1.7401  1.2013  0.4588
15475SOL    HW247004   1.097   3.024   5.829  0.1139 -0.6204  0.9726
15476SOL     OW47005   9.849   5.559   1.087  0.1110  0.3252  0.0922
15476SOL    HW147006   9.754   5.570   1.081  0.0857  0.6723  1.0323
15476SOL    HW247007   9.883   5.646   1.106  0.3699 -0.1900  2.3306
15477SOL     OW47008   2.303   7.229   7.528 -0.3817  0.0772 -0.6153
15477SOL    HW147009   2.254   7.222   7.610  0.1535  0.4027 -0.2588
15477SOL    HW247010   2.301   7.141   7.491 -1.1214  0.0618 -0.5427
15478SOL     OW47011   6.279   3.304   8.173  0.1303  0.2984  0.4339
15478SOL    HW147012   6.303   3.228   8.226  0.1383  0.0594  0.0941
15478SOL    HW247013   6.272   3.376   8.235  0.4755  0.0953  0.7120
15479SOL     OW47014   9.946   3.886   0.075 -0.1718 -0.2412 -0.1451
15479SOL    HW147015   9.966   3.972   0.112 -0.9948  0.1934 -0.6937
15479SOL    HW247016  10.026   3.860   0.030  0.4054 -0.1985  0.8186
15480SOL     OW47017   9.543   9.063   2.910 -0.3411  0.0449  0.9043
15480SOL    HW147018   9.496   8.999   2.963 -0.0938 -2.1155 -1.2917
15480SOL    HW247019   9.631   9.064   2.947 -0.7134  0.1678  1.8154
15481SOL     OW47020   5.120   2.462   8.617  0.4150 -0.6163  0.1745
15481SOL    HW147021   5.204   2.473   8.663 -0.3289  2.7654  1.0268
15481SOL    HW247022   5.058   2.512   8.669 -1.7148 -1.2897 -1.5736
15482SOL     OW47023   9.778   9.412   4.979 -0.0720 -0.6104 -0.1870
15482SOL    HW147024   9.776   9.507   4.970 -0.9495 -0.5998  0.0942
15482SOL    HW247025   9.689   9.388   5.004  0.4475 -1.3726  1.0614
15483SOL     OW47026   4.040   7.135   4.639 -0.6004  0.1322  0.7080
15483SOL    HW147027   3.961   7.083   4.626 -0.3036 -0.6133  1.8200
15483SOL    HW247028   4.008   7.225   4.646 -1.1971  0.0181 -0.2927
15484SOL     OW47029   4.588   3.558   8.409 -0.5704 -0.7579  0.6506
15484SOL    HW147030   4.654   3.550   8.478 -0.1019  0.1850  0.3275
15484SOL    HW247031   4.547   3.471   8.405  1.2978 -1.6709  0.2310
15485SOL     OW47032   1.736   7.298   3.887  0.0968 -0.2751 -0.4935
15485SOL    HW147033   1.656   7.275   3.839 -0.3766  1.2728 -0.4954
15485SOL    HW247034   1.726   7.255   3.972  0.3392 -1.9711 -1.2874
15486SOL     OW47035   3.432   8.076   1.920 -0.2880  0.2779 -0.0017
15486SOL    HW147036   3.373   8.002   1.904  0.4660 -0.7828  1.8609
15486SOL    HW247037   3.392   8.123   1.994  1.1441 -0.4727  1.3104
15487SOL     OW47038   5.195   4.860   9.451  0.3896 -0.2276  0.7455
15487SOL    HW147039   5.190   4.765   9.444  1.4027 -0.1815 -1.1772
15487SOL    HW247040   5.120   4.891   9.399 -0.2330  0.0505  1.7733
15488SOL     OW47041   9.723   7.523   8.731 -0.1046 -0.1205 -0.2670
15488SOL    HW147042   9.754   7.600   8.683 -2.0788  0.0622 -1.3524
15488SOL    HW247043   9.642   7.498   8.687 -1.7622 -0.2835  2.5916
15489SOL     OW47044   4.893   1.100   1.983 -0.0148  0.6456  0.6164
15489SOL    HW147045   4.902   1.178   1.929 -0.6726  2.2351  2.6393
15489SOL    HW247046   4.826   1.124   2.048  0.9459 -0.9991  2.3119
15490SOL     OW47047   9.645   0.184   6.246  0.3278  0.2455 -0.1905
15490SOL    HW147048   9.604   0.136   6.175 -2.4293  0.6404  0.9922
15490SOL    HW247049   9.629   0.276   6.225 -1.0443  0.3616  1.1012
15491SOL     OW47050   2.593   3.825   8.467 -0.5751 -0.0476 -0.0590
15491SOL    HW147051   2.593   3.821   8.371  0.8071  1.3399 -0.1545
15491SOL    HW247052   2.679   3.861   8.490 -0.8399 -0.4419  1.7188
15492SOL     OW47053   0.538   7.950   4.024  0.2484 -0.0130  0.2586
15492SOL    HW147054   0.583   7.948   3.940  1.3956  0.7324  0.8323
15492SOL    HW247055   0.547   8.040   4.055 -2.7533  0.5473 -0.1520
15493SOL     OW47056   4.142   4.284   1.980  0.6224 -0.1706  0.4257
15493SOL    HW147057   4.188   4.282   2.063 -1.0201 -0.8357  1.3659
15493SOL    HW247058   4.056   4.321   2.001  0.5987  0.8219 -1.2170
15494SOL     OW47059   6.110   4.764   4.503  0.1350 -0.3403  0.5241
15494SOL    HW147060   6.104   4.694   4.568 -0.3145 -1.8950 -1.1026
15494SOL    HW247061   6.103   4.719   4.419  1.8062  1.4534 -0.6693
15495SOL     OW47062   5.865   0.327   8.329 -0.0308 -0.4501 -0.2657
15495SOL    HW147063   5.882   0.342   8.422  0.6606 -2.9798  0.0797
15495SOL    HW247064   5.812   0.402   8.302  2.6219  2.2182  1.2699
15496SOL     OW47065   1.050   5.256   1.751 -1.3268  0.3307 -0.7440
15496SOL    HW147066   1.094   5.176   1.722  0.2692  1.4999 -1.7497
15496SOL    HW247067   1.043   5.310   1.672 -0.2144  2.1164  0.2794
15497SOL     OW47068   6.391   4.768  -0.009 -0.2259 -0.5587  0.0683
15497SOL    HW147069   6.427   4.748   0.077 -1.3537  1.7402  1.1498
15497SOL    HW247070   6.467   4.799  -0.060  0.1396 -0.2857  0.7706
15498SOL     OW47071   7.619   1.242   8.626 -0.6035 -0.2936 -0.2675
15498SOL    HW147072   7.666   1.252   8.709 -1.7876  1.3438  0.2470
15498SOL    HW247073   7.684   1.264   8.559 -0.2426  0.5320  0.3502
15499SOL     OW47074   2.190   1.348   1.275 -0.6774  0.4667  0.1311
15499SOL    HW147075   2.194   1.373   1.367 -1.0170 -0.7798  0.5134
15499SOL    HW247076   2.157   1.426   1.230  1.5653  1.8283  0.7135
15500SOL     OW47077   8.343   2.608   6.756  0.6767 -0.0858 -0.0605
15500SOL    HW147078   8.407   2.642   6.818 -0.1422  0.6982  0.3753
15500SOL    HW247079   8.325   2.681   6.696 -1.3288  0.4448  1.0734
15501SOL     OW47080   1.176   1.614   0.808  0.2934  0.0738  0.2522
15501SOL    HW147081   1.184   1.709   0.799 -1.0108  0.2982  1.1261
15501SOL    HW247082   1.082   1.599   0.818  0.5425 -1.2339  0.8261
15502SOL     OW47083   7.875   1.736   7.609  0.1584  0.4277 -0.0169
15502SOL    HW147084   7.859   1.770   7.697 -0.5532  1.9444 -0.7000
15502SOL    HW247085   7.835   1.801   7.550  2.6183  0.6747 -1.5491
15503SOL     OW47086   9.634   5.485   9.283 -0.5628 -0.2965  0.5970
15503SOL    HW147087   9.681   5.562   9.316 -0.1639  0.2426 -1.1392
15503SOL    HW247088   9.688   5.453   9.211 -1.4231 -1.4031  0.4165
15504SOL     OW47089   8.587   5.032   0.722  0.0037 -0.1537 -0.4863
15504SOL    HW147090   8.619   5.097   0.659  0.3971 -0.8772 -1.0495
15504SOL    HW247091   8.547   5.084   0.792 -0.9815  0.6678 -1.6039
15505SOL     OW47092   1.731   5.745   7.882 -0.1212  0.4767  0.1003
15505SOL    HW147093   1.733   5.702   7.796  0.3594  0.2020  0.2468
15505SOL    HW247094   1.642   5.781   7.888 -0.1205  0.6056 -0.5609
15506SOL     OW47095   7.347   3.416   1.384  0.0424 -0.0318  0.0293
15506SOL    HW147096   7.348   3.372   1.298 -0.6155 -0.4176  0.2126
15506SOL    HW247097   7.426   3.470   1.383 -0.9027  1.4300 -1.5787
15507SOL     OW47098   2.204   7.156   7.239  0.1021  0.3720  0.0881
15507SOL    HW147099   2.297   7.166   7.222  0.1409 -1.1528 -0.7451
15507SOL    HW247100   2.179   7.237   7.283  1.5526  1.3391 -0.7828
15508SOL     OW47101   8.026   9.615   7.654 -0.6056  0.2094  0.2497
15508SOL    HW147102   7.965   9.689   7.650 -0.1668  0.5826  0.4282
15508SOL    HW247103   8.095   9.644   7.714  0.0892  0.0443 -0.4566
15509SOL     OW47104   7.824   1.490   6.582 -1.1637 -0.1475  0.8490
15509SOL    HW147105   7.876   1.534   6.650 -0.5500  0.2765  0.1216
15509SOL    HW247106   7.795   1.409   6.623 -0.1227 -0.2842  1.3589
15510SOL     OW47107   6.512   1.903   1.129  0.2115 -0.2414 -0.0297
15510SOL    HW147108   6.548   1.885   1.042  0.5234  1.4383 -0.2959
15510SOL    HW247109   6.585   1.886   1.189 -0.0527 -1.5608 -0.0486
15511SOL     OW47110   8.431   4.887   5.005  0.2802  0.2230 -0.3458
15511SOL    HW147111   8.429   4.801   5.047  0.0377 -0.1757 -1.1311
15511SOL    HW247112   8.350   4.929   5.033  0.7678  0.5118  0.6595
15512SOL     OW47113   3.419   9.076   3.049  0.2985 -0.1025  0.4513
15512SOL    HW147114   3.334   9.088   3.091 -0.1499  1.4054 -0.7880
15512SOL    HW247115   3.443   8.985   3.069 -2.0009 -0.8436  0.1296
15513SOL     OW47116   3.211   8.915   6.415 -0.4943 -0.5785 -0.1657
15513SOL    HW147117   3.245   8.888   6.329 -0.6539 -1.0870 -0.0704
15513SOL    HW247118   3.127   8.871   6.422 -0.3796 -0.7201  0.3545
15514SOL     OW47119   6.307   4.813   5.692  0.0900  0.3265 -0.6713
15514SOL    HW147120   6.213   4.812   5.674 -0.2587  1.0625  0.9920
15514SOL    HW247121   6.315   4.857   5.776  1.9810  0.7261 -1.0303
15515SOL     OW47122   0.236  10.012   8.925  0.2060 -0.0745  0.4027
15515SOL    HW147123   0.211   9.940   8.983 -0.8961 -0.6695 -0.7778
15515SOL    HW247124   0.321   9.985   8.889  0.8120  0.2148  1.5633
15516SOL     OW47125   8.805   2.277   4.504 -0.0489 -0.8438  0.0899
15516SOL    HW147126   8.771   2.304   4.419  2.8907 -0.2133 -0.9699
15516SOL    HW247127   8.789   2.353   4.561  0.4802 -0.1731 -0.6402
15517SOL     OW47128   9.840   3.555   0.668 -0.7586 -0.2143  0.4960
15517SOL    HW147129   9.800   3.540   0.754 -0.3519  1.9715  1.1429
15517SOL    HW247130   9.771   3.596   0.616 -0.8058 -0.9309 -0.0132
15518SOL     OW47131   6.692   4.651   7.370 -0.1696  0.0769  0.6229
15518SOL    HW147132   6.787   4.641   7.364 -0.0358  1.4089  0.2852
15518SOL    HW247133   6.678   4.746   7.370 -1.4307 -0.0834  1.7889
15519SOL     OW47134   5.923   8.734   1.546  0.4854  0.1995  0.3727
15519SOL    HW147135   5.932   8.790   1.623  0.1418 -2.3936  2.4473
15519SOL    HW247136   6.008   8.691   1.538  0.2528 -0.1537 -0.2065
15520SOL     OW47137   2.327   4.363   9.456 -0.1926 -0.0202  0.1424
15520SOL    HW147138   2.293   4.296   9.397 -0.0567 -0.2701  0.3456
15520SOL    HW247139   2.414   4.385   9.420 -0.4212  0.3726 -0.1812
15521SOL     OW47140   5.697   7.827   0.288  0.3032 -0.4393 -0.1235
15521SOL    HW147141   5.707   7.858   0.378  0.9546  0.9028 -0.6331
15521SOL    HW247142   5.746   7.890   0.236  1.8110 -2.4198 -1.2157
15522SOL     OW47143   7.026   7.700   3.047  0.5917  0.1256  0.0209
15522SOL    HW147144   7.104   7.743   3.081 -0.3665  1.5015  0.5751
15522SOL    HW247145   7.037   7.608   3.069  2.0382  0.2982  0.0940
15523SOL     OW47146   3.752   4.834   9.327  0.3939  0.7273  0.3572
15523SOL    HW147147   3.758   4.891   9.250  0.2698  0.4850  0.1647
15523SOL    HW247148   3.708   4.888   9.393 -0.5786  0.5489 -0.1289
15524SOL     OW47149   5.826   9.450   6.598 -0.5906  0.0351  0.2105
15524SOL    HW147150   5.844   9.524   6.656 -0.3465  1.3141 -1.4212
15524SOL    HW247151   5.734   9.459   6.575 -0.2471  0.6450 -1.0273
15525SOL     OW47152   2.127   7.427   1.832 -0.3454  0.0639 -0.0823
15525SOL    HW147153   2.078   7.408   1.752 -0.7746 -1.0832  0.4219
15525SOL    HW247154   2.061   7.426   1.901  0.1920 -0.2316  0.4381
15526SOL     OW47155   6.875   9.368   6.770 -0.3652 -0.3570 -0.6903
15526SOL    HW147156   6.807   9.311   6.806  1.2528 -1.5903  0.5660
15526SOL    HW247157   6.866   9.450   6.820 -0.8684 -0.5381 -0.4751
15527SOL     OW47158   5.992   1.652   4.673 -0.2043 -0.4901 -0.3453
15527SOL    HW147159   6.063   1.587   4.675 -0.2335 -0.5022  0.7886
15527SOL    HW247160   6.035   1.735   4.694 -0.7849 -0.7868  2.3510
15528SOL     OW47161   5.697   7.964   2.983 -0.4957  0.4077  0.6663
15528SOL    HW147162   5.625   7.902   2.970 -0.3245  0.2239  0.5940
15528SOL    HW247163   5.654   8.047   3.000 -0.7312  0.6147 -0.8459
15529SOL     OW47164   9.097   5.053   1.016 -0.2885 -0.1267  0.3040
15529SOL    HW147165   9.179   5.062   1.066 -0.0956  1.4485 -0.2244
15529SOL    HW247166   9.054   5.138   1.026 -1.6219 -0.7575  0.1264
15530SOL     OW47167   5.192   3.441   7.695 -0.0966  0.0677 -0.3958
15530SOL    HW147168   5.203   3.348   7.678 -0.2984  0.0440 -0.4044
15530SOL    HW247169   5.240   3.458   7.776  1.3074  0.2787 -1.2425
15531SOL     OW47170   5.655   5.564   0.453 -0.4563 -0.1865  0.2674
15531SOL    HW147171   5.743   5.540   0.481 -0.4132 -0.3091  0.0313
15531SOL    HW247172   5.599   5.542   0.528 -0.6397 -2.5354 -0.4892
15532SOL     OW47173   9.444   2.346   5.822 -0.6442  0.4687 -0.7460
15532SOL    HW147174   9.476   2.297   5.898  1.0966  0.9094 -1.1559
15532SOL    HW247175   9.419   2.431   5.857 -1.9405 -0.0573 -0.3333
15533SOL     OW47176   4.077   5.479   1.389 -0.4268  0.1467  0.4775
15533SOL    HW147177   4.044   5.569   1.388 -0.3467  0.3024 -3.5705
15533SOL    HW247178   4.172   5.488   1.397 -0.4604  0.3523  0.6590
15534SOL     OW47179   8.802   5.482   1.061  0.0392  0.5164 -0.1256
15534SOL    HW147180   8.862   5.412   1.037 -0.8097  0.1829 -1.3335
15534SOL    HW247181   8.816   5.493   1.155 -1.1021 -2.5485  0.5307
15535SOL     OW47182   8.249   2.750   7.097 -0.0402  0.3400 -0.2037
15535SOL    HW147183   8.321   2.777   7.040  1.0483  1.5398  1.6520
15535SOL    HW247184   8.237   2.824   7.157 -1.0396 -0.9335  1.2174
15536SOL     OW47185   9.199   7.642   4.808  0.5810  0.2219 -0.2679
15536SOL    HW147186   9.200   7.728   4.850  2.0900 -1.0579  2.6202
15536SOL    HW247187   9.149   7.586   4.868 -0.0385 -1.0413 -1.8761
15537SOL     OW47188   2.725   5.318   3.199  0.1145  0.0551  0.2274
15537SOL    HW147189   2.747   5.347   3.288 -0.9993  0.6449  0.3188
15537SOL    HW247190   2.666   5.385   3.165  1.1853  0.2826 -1.2860
15538SOL     OW47191   9.175   5.925   2.335  0.4248 -0.0384  0.4911
15538SOL    HW147192   9.150   6.017   2.344  0.9087  0.5152 -2.8410
15538SOL    HW247193   9.095   5.881   2.306  0.7352 -0.2442 -0.0560
15539SOL     OW47194   7.972   7.571   1.798 -0.5780 -0.0546  0.6713
15539SOL    HW147195   7.939   7.648   1.843  1.7931  1.4946 -0.0412
15539SOL    HW247196   8.048   7.544   1.850  1.4843  1.0490 -1.5796
15540SOL     OW47197   6.554   2.953   3.801 -0.6837  0.5550 -0.2249
15540SOL    HW147198   6.643   2.984   3.817  0.6380 -1.4706 -2.8600
15540SOL    HW247199   6.516   2.942   3.888  1.3774  2.1075  0.9522
15541SOL     OW47200   1.421   0.760   9.316  0.2340  0.0610 -0.1119
15541SOL    HW147201   1.351   0.723   9.370  0.7648 -1.6353 -0.4977
15541SOL    HW247202   1.424   0.852   9.339 -0.5927 -0.3059  1.5951
15542SOL     OW47203   7.221   0.779   5.991  0.4313  0.0969  0.4194
15542SOL    HW147204   7.165   0.794   6.067 -0.4565  0.1024 -0.2187
15542SOL    HW247205   7.194   0.845   5.928  1.0990  0.0314  0.0611
15543SOL     OW47206   2.749   9.579   7.824 -0.2153  0.2411 -0.1225
15543SOL    HW147207   2.675   9.556   7.881  0.3259  2.2823  1.5346
15543SOL    HW247208   2.826   9.550   7.873  0.1912 -0.3539 -1.0760
15544SOL     OW47209   5.779   9.115   0.834 -0.0483  0.0726 -0.0357
15544SOL    HW147210   5.825   9.091   0.915 -2.1774 -0.9797  0.9332
15544SOL    HW247211   5.782   9.210   0.832  0.2059  0.1128  1.1854
15545SOL     OW47212   0.028   6.025   4.701 -0.4766  0.1310  0.7449
15545SOL    HW147213  -0.022   6.104   4.679 -1.4197 -0.6277  0.0888
15545SOL    HW247214   0.025   6.020   4.796  0.7176  1.5899  0.8977
15546SOL     OW47215   0.653   8.220   0.135  0.0005  0.1247 -0.0859
15546SOL    HW147216   0.705   8.233   0.214  0.0538  0.4359 -0.1740
15546SOL    HW247217   0.569   8.189   0.167  0.6267 -1.5971  0.0045
15547SOL     OW47218   2.508   6.999   8.909  0.1391 -0.5669 -0.1345
15547SOL    HW147219   2.476   6.936   8.973 -0.2967  0.2073  0.4328
15547SOL    HW247220   2.541   7.072   8.962 -0.6607  0.2908 -0.7848
15548SOL     OW47221   3.690   6.869   2.280  0.2256  0.2540 -0.5707
15548SOL    HW147222   3.702   6.935   2.349  0.6795  1.2963 -1.6197
15548SOL    HW247223   3.688   6.786   2.328  0.5436  0.9432  0.7079
15549SOL     OW47224   4.607   2.895   7.750 -0.2346 -0.4193 -0.2117
15549SOL    HW147225   4.515   2.889   7.774 -0.2486  0.4738 -0.0294
15549SOL    HW247226   4.640   2.806   7.762 -0.4441 -0.2314  2.3671
15550SOL     OW47227   9.014   9.172   9.135 -0.0860 -0.2416 -0.8807
15550SOL    HW147228   8.998   9.122   9.055  1.9197 -1.7660 -0.4058
15550SOL    HW247229   9.015   9.107   9.205 -0.1281  0.8501  0.1784
15551SOL     OW47230   8.314   9.927   8.411  0.6200  0.1274  0.7647
15551SOL    HW147231   8.297   9.883   8.494 -2.0239 -0.0761  0.1882
15551SOL    HW247232   8.232   9.920   8.362  1.9761  0.5418 -1.7450
15552SOL     OW47233   9.814   3.522   5.023 -0.1954 -0.3331 -0.2807
15552SOL    HW147234   9.809   3.569   5.106  0.2159 -3.0358  1.3982
15552SOL    HW247235   9.856   3.584   4.963  0.0509  1.5024  1.6580
15553SOL     OW47236   1.794   3.258   6.486 -0.0230  0.5386 -0.8230
15553SOL    HW147237   1.744   3.206   6.548 -1.3633  0.4102 -1.9676
15553SOL    HW247238   1.797   3.345   6.525  1.1510 -0.0399  0.4961
15554SOL     OW47239   8.010   9.460   9.552 -0.0014 -0.9623  0.4807
15554SOL    HW147240   7.976   9.495   9.635  1.3433  1.0351  0.2347
15554SOL    HW247241   7.931   9.435   9.503 -0.8966 -0.4443  1.5944
15555SOL     OW47242   2.019   8.665   4.275 -0.0274 -0.2018 -0.1048
15555SOL    HW147243   2.043   8.747   4.318 -0.0899 -0.6653  0.8395
15555SOL    HW247244   2.007   8.689   4.183  0.8356  0.6736 -0.0090
15556SOL     OW47245   4.330   9.453   1.290  0.0680  0.1251  0.2870
15556SOL    HW147246   4.250   9.453   1.237 -0.5175 -0.4850  1.1356
15556SOL    HW247247   4.347   9.545   1.308  0.6392  0.4065 -1.4472
15557SOL     OW47248   6.478   8.414   7.202  0.0078  0.0254  0.1489
15557SOL    HW147249   6.432   8.400   7.119  0.2897  1.2539 -0.2393
15557SOL    HW247250   6.421   8.375   7.268  0.4669 -2.2972 -0.7379
15558SOL     OW47251   6.437   1.351   1.807 -0.1804  0.0278  0.0510
15558SOL    HW147252   6.473   1.286   1.747 -1.2445 -0.1784 -0.3923
15558SOL    HW247253   6.502   1.358   1.877 -0.8241 -2.8782  1.0894
15559SOL     OW47254   0.065   6.605   8.099  0.0705  0.1536 -0.5426
15559SOL    HW147255   0.124   6.678   8.080  0.2820 -0.1764 -1.2071
15559SOL    HW247256  -0.022   6.638   8.076  0.1976  0.1198 -1.0918
15560SOL     OW47257   6.948   5.103   9.481  0.0741 -0.0969 -0.1698
15560SOL    HW147258   7.011   5.099   9.553  0.2011 -1.7041 -0.3360
15560SOL    HW247259   7.003   5.100   9.402 -0.1432  0.1175 -0.3310
15561SOL     OW47260   6.216   2.586   9.402  0.3846  0.8970 -0.0283
15561SOL    HW147261   6.249   2.552   9.319  0.7700  0.3697  0.3393
15561SOL    HW247262   6.294   2.619   9.447  0.6120 -1.2743  1.2801
15562SOL     OW47263   4.723   3.682   9.852 -0.5033  0.1700 -0.3307
15562SOL    HW147264   4.697   3.740   9.924  1.3679  0.8153 -0.1173
15562SOL    HW247265   4.640   3.651   9.815 -1.5484  1.8822  0.4463
15563SOL     OW47266   5.563   7.928   6.906 -0.6598 -0.1471 -0.2197
15563SOL    HW147267   5.625   7.890   6.969 -2.7846 -1.4299  1.2521
15563SOL    HW247268   5.608   7.923   6.822  1.4774 -0.3642  0.8703
15564SOL     OW47269   5.054   0.627   0.729 -0.2805 -0.3879  0.3159
15564SOL    HW147270   4.968   0.641   0.688 -0.1987  2.1171  0.8256
15564SOL    HW247271   5.113   0.687   0.683  0.5943 -0.1230  1.7064
15565SOL     OW47272   8.009   2.004   6.607 -0.1076  0.0457  0.2921
15565SOL    HW147273   8.001   2.050   6.523  0.0911 -1.2628 -0.4585
15565SOL    HW247274   8.097   2.026   6.637 -0.8501  2.1266  1.1729
15566SOL     OW47275   4.000   7.441   8.824 -0.5100  0.6953 -0.3761
15566SOL    HW147276   4.011   7.434   8.729  0.0610 -4.2835 -0.2315
15566SOL    HW247277   3.906   7.433   8.837 -0.7233  2.5908 -0.4471
15567SOL     OW47278   5.789   2.807   7.618 -0.3027 -0.1188 -0.0862
15567SOL    HW147279   5.738   2.849   7.687 -0.6233 -1.6542  0.6587
15567SOL    HW247280   5.821   2.880   7.564 -0.3021  1.1056  1.4830
15568SOL     OW47281   1.570   4.322   3.040  0.1709 -0.2568 -0.2251
15568SOL    HW147282   1.599   4.268   2.967 -0.5073 -0.5572 -0.2822
15568SOL    HW247283   1.491   4.366   3.007  1.5223  1.9415 -0.6958
15569SOL     OW47284   1.123   3.264   3.469 -0.1242 -0.3826  0.3294
15569SOL    HW147285   1.115   3.266   3.564 -0.2039  2.9161  0.3633
15569SOL    HW247286   1.035   3.284   3.437  0.5605  1.9177 -0.2787
15570SOL     OW47287   9.364   0.639   7.886 -0.0638 -0.1154 -0.5307
15570SOL    HW147288   9.455   0.639   7.856 -0.6507  1.1654 -2.4761
15570SOL    HW247289   9.367   0.683   7.971  1.2388 -1.0423 -0.0533
15571SOL     OW47290   5.588   8.159   6.236  0.1825 -0.4199 -0.4856
15571SOL    HW147291   5.655   8.192   6.295 -0.3192 -1.7152  0.8724
15571SOL    HW247292   5.511   8.213   6.253 -0.1985 -1.2809  0.6738
15572SOL     OW47293   2.342   0.252   7.814 -0.3632 -0.4409  0.0012
15572SOL    HW147294   2.273   0.308   7.779 -1.3688 -0.7956  1.3084
15572SOL    HW247295   2.330   0.168   7.769  0.8833  0.2233 -1.6540
15573SOL     OW47296   7.203   9.592   8.737  1.2768  0.4341  0.7412
15573SOL    HW147297   7.180   9.621   8.649 -2.9277  0.2273  1.5432
15573SOL    HW247298   7.224   9.499   8.728 -0.9567 -0.0607  0.0776
15574SOL     OW47299   9.313   3.769   8.764 -0.0384 -0.3314  0.5505
15574SOL    HW147300   9.401   3.735   8.746 -0.7156 -2.4064  0.8674
15574SOL    HW247301   9.323   3.864   8.762  1.8582 -0.4889 -1.1810
15575SOL     OW47302   6.665   1.336   1.308  0.3932  0.0903  0.1915
15575SOL    HW147303   6.589   1.342   1.365 -1.0802 -0.4314 -1.5881
15575SOL    HW247304   6.739   1.326   1.367 -1.0585 -0.6928  1.9926
15576SOL     OW47305   4.989   3.848   3.699  0.3347  0.4641  0.9510
15576SOL    HW147306   4.971   3.819   3.609  1.4440 -0.7911  1.1110
15576SOL    HW247307   4.918   3.909   3.719 -1.6055 -1.4321  0.2473
15577SOL     OW47308   2.847   1.545   0.571 -0.3046 -0.1621  0.1801
15577SOL    HW147309   2.924   1.522   0.519 -0.1323 -1.6785  1.0351
15577SOL    HW247310   2.791   1.596   0.512  0.1275 -1.3591 -1.3063
15578SOL     OW47311   0.036   5.649   4.001  0.2710  0.6104  0.1149
15578SOL    HW147312   0.065   5.623   4.088  0.8505  0.2545 -0.1797
15578SOL    HW247313  -0.055   5.677   4.013  0.0121 -0.4184  0.6422
15579SOL     OW47314   3.034   1.343   8.479  0.2506 -0.9154  0.5211
15579SOL    HW147315   3.105   1.391   8.523  0.1987 -0.9784  0.6777
15579SOL    HW247316   3.062   1.337   8.388 -0.5456  0.9199  0.1205
15580SOL     OW47317   8.223   2.382   6.328 -0.0334  0.1818  0.3366
15580SOL    HW147318   8.164   2.417   6.396 -0.6315  1.5583 -0.8470
15580SOL    HW247319   8.183   2.409   6.246  0.6602 -1.4990 -0.6027
15581SOL     OW47320   5.497   8.246   4.431  0.2225 -0.4851 -0.4115
15581SOL    HW147321   5.452   8.323   4.465 -1.7090 -1.3946 -0.7591
15581SOL    HW247322   5.564   8.226   4.496  1.8311  2.3320 -1.0440
15582SOL     OW47323   9.854   5.677   3.160 -0.2767  0.4459  0.3311
15582SOL    HW147324   9.808   5.685   3.244  1.0488  0.2107  1.1088
15582SOL    HW247325   9.897   5.591   3.165 -0.2367  0.4039 -0.6147
15583SOL     OW47326   6.369   0.967   4.204 -0.5456 -0.2522 -0.3158
15583SOL    HW147327   6.389   0.908   4.131  1.2626 -2.1389  1.5875
15583SOL    HW247328   6.282   0.939   4.234 -1.2315  0.4276 -1.5532
15584SOL     OW47329   4.582   6.488   1.345 -0.0805 -0.1782 -0.4842
15584SOL    HW147330   4.569   6.396   1.322 -0.8665 -0.2627  0.2660
15584SOL    HW247331   4.517   6.506   1.413  0.5646  0.7274 -0.0786
15585SOL     OW47332   2.348   8.864   9.196 -0.4681 -1.1216  0.2197
15585SOL    HW147333   2.419   8.916   9.235 -1.3223  0.4932 -0.3047
15585SOL    HW247334   2.337   8.791   9.256 -0.2654  0.1262  1.8563
15586SOL     OW47335   1.513   8.274   5.775 -0.4816  0.1883 -0.0890
15586SOL    HW147336   1.576   8.309   5.713  1.1031 -0.2609  1.2096
15586SOL    HW247337   1.526   8.325   5.855 -0.0342 -1.4849  0.9590
15587SOL     OW47338   6.285   7.631   8.091 -0.0552  0.0008  0.4006
15587SOL    HW147339   6.322   7.544   8.103  1.4765  0.4332 -0.7767
15587SOL    HW247340   6.242   7.627   8.005  0.0973  0.4082  0.3018
15588SOL     OW47341   8.512   6.089   2.712  0.3792 -0.5776 -0.7149
15588SOL    HW147342   8.547   6.040   2.786 -1.5981 -0.6632  0.2346
15588SOL    HW247343   8.422   6.059   2.704 -0.6618  2.2219 -0.6445
15589SOL     OW47344   1.312   8.069   2.489 -0.5016  0.5292 -0.2952
15589SOL    HW147345   1.283   8.158   2.470 -1.4935  0.4667  0.7936
15589SOL    HW247346   1.265   8.046   2.569 -2.3631 -1.9788 -1.9931
15590SOL     OW47347   5.079   4.144   8.571  0.9003 -0.5699 -0.3440
15590SOL    HW147348   5.110   4.232   8.596  0.4355 -0.0405 -1.5752
15590SOL    HW247349   5.039   4.110   8.651  0.7555  0.4907  0.0506
15591SOL     OW47350   8.292   8.072   1.036 -0.6529 -0.1240  0.0121
15591SOL    HW147351   8.363   8.026   1.081  0.9789 -0.0139 -2.2076
15591SOL    HW247352   8.212   8.035   1.072  0.5599 -2.1297  0.8348
15592SOL     OW47353   3.895   7.393   3.039 -0.2491  0.1970 -0.1001
15592SOL    HW147354   3.909   7.412   3.131 -0.0359 -1.1517  0.1692
15592SOL    HW247355   3.887   7.297   3.035  3.9964 -0.3302 -1.9455
15593SOL     OW47356   2.310   3.822   8.652  0.0657  0.0539 -0.4730
15593SOL    HW147357   2.262   3.905   8.654  1.3497  0.8239 -0.5420
15593SOL    HW247358   2.293   3.783   8.738  0.3481  0.9295  0.0018
15594SOL     OW47359   0.664   7.734   2.481 -0.1811  0.2979  0.0665
15594SOL    HW147360   0.584   7.726   2.533  1.0869  0.5595  2.1789
15594SOL    HW247361   0.733   7.698   2.537  1.2599  0.4198 -1.5354
15595SOL     OW47362   2.105   3.309   3.801  0.5459  0.3048  0.5217
15595SOL    HW147363   2.171   3.363   3.844 -0.1015  0.5818  1.1803
15595SOL    HW247364   2.022   3.345   3.830  0.0984 -0.2195 -0.0811
15596SOL     OW47365   4.914   0.000   1.917 -0.0632 -0.6532  0.3027
15596SOL    HW147366   4.977   0.030   1.851  0.3301 -0.9285  0.5514
15596SOL    HW247367   4.840   0.061   1.908 -1.3977 -2.4706 -2.4902
15597SOL     OW47368   2.132   5.764   1.115  0.2360  0.1448  0.5592
15597SOL    HW147369   2.079   5.695   1.155 -1.3832  1.2225  0.3477
15597SOL    HW247370   2.087   5.785   1.034  1.0143  1.0848  0.3523
15598SOL     OW47371   3.418   0.489   3.276 -0.6025  0.0242  0.0924
15598SOL    HW147372   3.447   0.400   3.258  0.1467 -0.0978  1.7420
15598SOL    HW247373   3.327   0.492   3.246 -0.5876 -1.2423 -0.0989
15599SOL     OW47374   5.112   3.798   9.157 -0.6453 -0.2817 -0.6366
15599SOL    HW147375   5.136   3.875   9.106 -1.6048  0.7503  0.4399
15599SOL    HW247376   5.186   3.738   9.146  0.7451  1.3315 -0.3668
15600SOL     OW47377   0.433   0.311   5.928 -0.1138  0.2288 -0.0909
15600SOL    HW147378   0.394   0.325   6.014 -0.6584 -0.4740 -0.2057
15600SOL    HW247379   0.358   0.297   5.870  0.3019 -1.8217 -0.1983
15601SOL     OW47380   8.054   9.010   2.059  0.3767 -0.3942  0.1187
15601SOL    HW147381   8.020   9.007   1.970 -1.5099 -1.2130  0.8229
15601SOL    HW247382   8.044   8.921   2.092 -1.8428  0.4783  2.1267
15602SOL     OW47383   5.288   2.912   0.947  0.0486  0.1070  0.1522
15602SOL    HW147384   5.216   2.913   0.884  1.3614  0.5697 -1.4169
15602SOL    HW247385   5.341   2.989   0.924  0.3436  0.5386  2.1173
15603SOL     OW47386   3.784   2.593   5.324  0.0918  0.1583 -0.0656
15603SOL    HW147387   3.829   2.675   5.305  2.7882 -0.8877  1.3363
15603SOL    HW247388   3.840   2.525   5.288 -2.1746 -1.1501 -1.3744
15604SOL     OW47389   6.265   7.135   8.346  0.2417 -0.4067  1.0411
15604SOL    HW147390   6.203   7.062   8.337  0.4783 -0.4726 -0.4243
15604SOL    HW247391   6.224   7.194   8.409  0.1811 -1.9240  2.4891
15605SOL     OW47392   7.264   2.405   2.229 -0.1978  0.1063  0.1373
15605SOL    HW147393   7.251   2.456   2.149 -0.3664 -1.0097 -0.5662
15605SOL    HW247394   7.203   2.332   2.221 -0.6853  0.3254  1.6059
15606SOL     OW47395   1.860   6.858   5.290  0.3648  0.3023  0.0653
15606SOL    HW147396   1.939   6.903   5.258  0.6333  0.8646  1.4612
15606SOL    HW247397   1.834   6.907   5.368  0.0507 -1.3578  1.0490
15607SOL     OW47398   1.975   1.018   3.009 -0.2993  0.5213  0.4463
15607SOL    HW147399   1.947   1.101   2.972 -2.4249 -0.1315  0.4272
15607SOL    HW247400   2.000   0.965   2.933  0.7435  1.0137  0.4339
15608SOL     OW47401   8.156   1.479   3.883 -0.3964  0.3988  0.5316
15608SOL    HW147402   8.142   1.565   3.844 -1.1157  0.4410  0.8598
15608SOL    HW247403   8.094   1.475   3.956  2.0930  1.0282  2.8445
15609SOL     OW47404   0.109   8.683   9.772 -0.0082  0.1551  0.3888
15609SOL    HW147405   0.037   8.678   9.709  0.9091 -0.1090 -0.6953
15609SOL    HW247406   0.073   8.647   9.853 -0.7921 -0.9681 -0.4247
15610SOL     OW47407   4.847   8.757   7.286  0.2183  0.0558  0.4389
15610SOL    HW147408   4.929   8.791   7.321  0.7148 -1.7170  1.0960
15610SOL    HW247409   4.814   8.827   7.230  2.3266  0.7170 -0.0686
15611SOL     OW47410   2.234   0.090   7.467 -0.1838 -0.0449  0.5157
15611SOL    HW147411   2.306   0.059   7.412  1.4483  2.4865  1.0914
15611SOL    HW247412   2.245   0.042   7.550 -1.3079 -2.1711 -0.4568
15612SOL     OW47413   8.414   3.300   0.963 -0.1053 -0.1770  0.0435
15612SOL    HW147414   8.451   3.273   0.879  0.1325 -0.4029  0.2213
15612SOL    HW247415   8.389   3.392   0.949 -1.9955 -0.7820 -0.9248
15613SOL     OW47416   5.841   7.283   7.893  0.1973 -0.0340 -0.3712
15613SOL    HW147417   5.819   7.242   7.809  1.3761  0.9014 -1.1827
15613SOL    HW247418   5.845   7.211   7.955 -1.3699 -0.6743 -0.9589
15614SOL     OW47419   1.085   2.809   8.736 -0.1285 -0.0862 -0.1423
15614SOL    HW147420   1.076   2.866   8.812  0.4937 -0.0114 -0.1162
15614SOL    HW247421   1.115   2.725   8.773  0.6845  0.1062 -0.3478
15615SOL     OW47422   6.186   6.243   4.426  0.5767  0.0889 -0.3933
15615SOL    HW147423   6.157   6.229   4.516 -1.1628 -0.3033 -0.9775
15615SOL    HW247424   6.229   6.161   4.402  0.5105 -0.0297 -0.1106
15616SOL     OW47425   9.785   5.571   5.224  0.1374 -0.1927  0.2260
15616SOL    HW147426   9.693   5.544   5.228  0.3537 -0.9390  0.3069
15616SOL    HW247427   9.834   5.488   5.220  0.8272  0.1842  0.6588
15617SOL     OW47428   1.745   4.375   7.600  0.0314 -0.1811  0.4598
15617SOL    HW147429   1.685   4.394   7.528 -0.2666 -0.0409  0.7435
15617SOL    HW247430   1.816   4.325   7.560  0.2234  0.5110 -0.0703
15618SOL     OW47431   2.597   7.011   8.438  0.3408 -0.4759 -0.4280
15618SOL    HW147432   2.586   6.934   8.494  0.9961 -1.2032 -1.2630
15618SOL    HW247433   2.508   7.040   8.420  0.0899 -0.8806  0.1106
15619SOL     OW47434   3.209   4.531   0.610 -0.2480  0.5095  0.1054
15619SOL    HW147435   3.237   4.440   0.618  1.4759  1.1112  1.4823
15619SOL    HW247436   3.290   4.580   0.596 -1.1079  1.8837 -0.2285
15620SOL     OW47437   9.002   6.692   9.070  0.0315  0.0990  0.6319
15620SOL    HW147438   9.004   6.677   8.976 -0.4077 -0.4830  0.7146
15620SOL    HW247439   8.957   6.776   9.080 -0.4489 -0.1221  0.3546
15621SOL     OW47440   6.355   4.007   8.900 -0.4802 -0.1070 -0.1463
15621SOL    HW147441   6.279   4.043   8.854 -1.2026 -0.5645  0.6729
15621SOL    HW247442   6.429   4.056   8.865 -1.3191  1.4383  0.1828
15622SOL     OW47443   3.589   2.487   5.101 -0.4112  0.2017 -0.0087
15622SOL    HW147444   3.640   2.500   5.180  1.4289  0.2867 -1.1604
15622SOL    HW247445   3.523   2.557   5.103  1.2412  1.8152  0.1903
15623SOL     OW47446   4.703   6.087   4.366 -0.0110  0.4600 -0.2673
15623SOL    HW147447   4.713   6.119   4.276  0.1917 -0.0343 -0.4256
15623SOL    HW247448   4.762   6.142   4.418  0.2606  0.4059 -0.5165
15624SOL     OW47449   9.866   2.112   6.828 -0.2852  0.7019 -0.1042
15624SOL    HW147450   9.945   2.156   6.798 -1.8045  2.1646 -2.2202
15624SOL    HW247451   9.841   2.055   6.755 -0.2616 -1.1549  1.2428
15625SOL     OW47452   8.519   1.719   5.831 -0.2434  0.0099  0.1070
15625SOL    HW147453   8.608   1.748   5.852 -0.5465 -0.9938  3.3658
15625SOL    HW247454   8.466   1.798   5.839  0.0166  0.1240  0.7654
15626SOL     OW47455   0.146   4.604   0.255 -0.7477 -0.4520 -0.2371
15626SOL    HW147456   0.218   4.556   0.295 -0.5466  0.4650  0.5372
15626SOL    HW247457   0.156   4.589   0.161 -1.2984 -2.7424  0.0167
15627SOL     OW47458   2.124   6.937   7.114  0.1186 -0.7190 -0.2015
15627SOL    HW147459   2.126   7.022   7.158  0.9050 -1.0684  0.4693
15627SOL    HW247460   2.212   6.928   7.077 -0.3157 -0.7443 -1.2594
15628SOL     OW47461   8.397   4.218   2.419  0.2134  0.5502  0.1254
15628SOL    HW147462   8.337   4.200   2.491 -1.5091  0.4367 -1.2819
15628SOL    HW247463   8.444   4.136   2.406 -0.3648  0.1844  0.3038
15629SOL     OW47464   8.710   5.569   0.388  0.0196  0.1486 -0.0893
15629SOL    HW147465   8.693   5.494   0.331  1.2293 -1.0357  1.0309
15629SOL    HW247466   8.804   5.584   0.381 -0.1311  1.2770  0.0674
15630SOL     OW47467   8.186   5.124   4.305 -0.1238 -1.1795  0.5969
15630SOL    HW147468   8.139   5.076   4.237  1.1016 -0.0937 -1.0816
15630SOL    HW247469   8.228   5.196   4.259  2.2446 -1.4406  2.1884
15631SOL     OW47470   1.733   0.136   2.164 -0.3696  0.2710  0.2554
15631SOL    HW147471   1.826   0.112   2.166  0.4869  3.1091 -0.7371
15631SOL    HW247472   1.708   0.127   2.072 -1.0407 -0.2551  0.4792
15632SOL     OW47473   3.722   7.431   8.836  0.4360 -0.4253 -0.1617
15632SOL    HW147474   3.680   7.512   8.866 -0.9560 -1.2238  0.1539
15632SOL    HW247475   3.673   7.407   8.756  0.1752 -1.4432  0.2806
15633SOL     OW47476   8.027   7.423   1.060 -0.4550 -0.5748 -0.3646
15633SOL    HW147477   7.994   7.471   1.136  2.7211  1.2238  0.0571
15633SOL    HW247478   8.033   7.332   1.088  0.6727  0.0610  1.5688
15634SOL     OW47479   2.838   6.467   5.419 -0.6387 -0.4438  0.0425
15634SOL    HW147480   2.860   6.375   5.401  0.1938 -0.1610 -0.4626
15634SOL    HW247481   2.847   6.511   5.335  1.1644  0.5080  0.6806
15635SOL     OW47482   2.827   7.422   1.914 -1.2308  0.4218 -0.2684
15635SOL    HW147483   2.732   7.413   1.913 -1.1046 -1.5043 -2.0239
15635SOL    HW247484   2.856   7.386   1.830  1.0247  1.4571 -0.0121
15636SOL     OW47485   6.191   6.094   0.233  0.0623 -0.1250 -0.3507
15636SOL    HW147486   6.276   6.066   0.266 -0.4194 -1.0492  0.1223
15636SOL    HW247487   6.189   6.188   0.248 -0.1513 -0.4994  2.3335
15637SOL     OW47488   6.532   7.001   1.269  0.2209 -0.8557 -0.6881
15637SOL    HW147489   6.494   6.998   1.181 -1.7465  2.3198 -0.0767
15637SOL    HW247490   6.463   6.968   1.326  0.1507  0.4319 -0.0101
15638SOL     OW47491   0.108   7.107   7.134  0.3477 -0.4633 -0.1503
15638SOL    HW147492   0.049   7.068   7.070  1.1600  1.4678 -2.1744
15638SOL    HW247493   0.160   7.033   7.167  0.3020 -1.4321 -2.1449
15639SOL     OW47494   3.035   0.236   1.665  0.3097  0.0576  0.0639
15639SOL    HW147495   2.957   0.202   1.708  0.5954 -0.9727 -0.1996
15639SOL    HW247496   3.010   0.243   1.573  0.7596 -1.0575 -0.1603
15640SOL     OW47497   9.803   2.804   4.762  0.1386 -0.2514  0.2007
15640SOL    HW147498   9.806   2.871   4.830  1.2589 -0.7512  0.6665
15640SOL    HW247499   9.722   2.756   4.780 -0.1718  0.3561  0.4556
15641SOL     OW47500   7.310   3.744   0.430  0.1509 -0.4007 -0.4694
15641SOL    HW147501   7.394   3.722   0.471  0.5232  1.4070 -0.2026
15641SOL    HW247502   7.254   3.772   0.502  0.2502  1.1138 -0.9407
15642SOL     OW47503   7.164   9.404   9.769 -0.0075  0.2801  0.2358
15642SOL    HW147504   7.158   9.424   9.676 -0.1125 -0.5765  0.0529
15642SOL    HW247505   7.208   9.320   9.773 -0.2210  0.1927  0.9479
15643SOL     OW47506   2.996   2.198   8.231 -0.2525  0.0842 -0.2081
15643SOL    HW147507   3.079   2.241   8.212  0.1240 -1.0916 -1.3045
15643SOL    HW247508   3.005   2.168   8.322  1.4239 -1.9198 -0.9432
15644SOL     OW47509   4.443   1.371   2.137  0.1798 -0.2716  0.3432
15644SOL    HW147510   4.358   1.414   2.137  0.0053 -0.5320 -1.6414
15644SOL    HW247511   4.505   1.440   2.115  0.5314 -0.0723  1.8277
15645SOL     OW47512   5.141   1.488   7.671 -0.2319  0.3495 -0.0329
15645SOL    HW147513   5.184   1.570   7.696 -0.8141  0.5796  0.2128
15645SOL    HW247514   5.153   1.430   7.746 -1.9708  1.0356  0.8348
15646SOL     OW47515   3.719   4.337   9.336 -0.0840 -0.2485 -0.4807
15646SOL    HW147516   3.802   4.296   9.314 -0.3362 -1.1624  0.2218
15646SOL    HW247517   3.737   4.386   9.416  0.5101  2.0331 -1.9147
15647SOL     OW47518   7.402   3.440   6.407  0.8572  0.6544  0.4486
15647SOL    HW147519   7.366   3.453   6.319 -0.0295  2.0366  0.9866
15647SOL    HW247520   7.388   3.347   6.424  4.5096 -0.6607 -2.2968
15648SOL     OW47521   1.152   7.706   9.342 -0.1118  0.3169 -0.5859
15648SOL    HW147522   1.063   7.680   9.320  0.1603 -0.8290 -0.3722
15648SOL    HW247523   1.178   7.646   9.411  1.5583 -0.7186 -2.0368
15649SOL     OW47524   8.348   0.179   8.259  0.5681 -0.1123 -0.0015
15649SOL    HW147525   8.352   0.096   8.307  1.7924 -1.1757 -1.8169
15649SOL    HW247526   8.332   0.153   8.168 -2.1869  1.8539 -0.1809
15650SOL     OW47527   4.934   2.871   6.073  0.3555  0.6274 -0.3606
15650SOL    HW147528   4.905   2.889   5.984  0.8195  0.5662 -0.5295
15650SOL    HW247529   4.885   2.793   6.099  2.2885 -1.1531 -1.6464
15651SOL     OW47530   7.248   4.289   9.657  0.5044 -0.3849  0.1863
15651SOL    HW147531   7.336   4.280   9.620  1.2757  1.6420  1.3284
15651SOL    HW247532   7.206   4.354   9.601  1.0690  1.3741  1.6959
15652SOL     OW47533   3.921   9.247   4.204 -0.5983  0.3717  0.4071
15652SOL    HW147534   4.009   9.212   4.215 -1.0962 -0.5670  1.6007
15652SOL    HW247535   3.929   9.339   4.228  0.3032  0.6208 -0.7552
15653SOL     OW47536   1.638   0.474   4.343 -0.6191  0.5648 -0.1032
15653SOL    HW147537   1.598   0.531   4.408 -0.8841  0.2640 -0.0033
15653SOL    HW247538   1.725   0.455   4.378 -0.6225  0.7068 -0.0174
15654SOL     OW47539   6.900   7.125   7.048 -0.7866 -0.3341  0.3677
15654SOL    HW147540   6.979   7.092   7.006 -1.1817 -1.1649  0.2489
15654SOL    HW247541   6.931   7.189   7.112 -0.0342 -0.5349  0.2082
15655SOL     OW47542   8.446   1.448   2.490  0.3786  0.3375  0.1659
15655SOL    HW147543   8.426   1.376   2.550 -1.0235 -0.5018 -1.2339
15655SOL    HW247544   8.391   1.432   2.413  0.1251  2.8469 -0.2689
15656SOL     OW47545   2.639   7.079   4.808 -0.2045 -0.1629  0.5176
15656SOL    HW147546   2.684   7.144   4.755 -0.4093  0.3198  0.9226
15656SOL    HW247547   2.692   7.000   4.800 -0.0880 -0.0169 -0.1754
15657SOL     OW47548   8.638   5.154   2.451  0.1100  0.4612  0.4756
15657SOL    HW147549   8.625   5.079   2.391 -0.4912 -0.1407  1.3334
15657SOL    HW247550   8.733   5.166   2.455  0.1436  0.9694 -1.1391
15658SOL     OW47551   9.643   7.192   3.396 -0.6407 -0.1310 -0.0916
15658SOL    HW147552   9.653   7.204   3.302 -0.1001  1.0061  0.1006
15658SOL    HW247553   9.701   7.119   3.417 -1.0070 -0.6058 -0.6718
15659SOL     OW47554   9.842   2.811   5.828  0.2410  0.6982 -0.1442
15659SOL    HW147555   9.924   2.807   5.778 -0.9945  0.7693 -2.3012
15659SOL    HW247556   9.821   2.905   5.829 -0.9575  0.4883 -1.6848
15660SOL     OW47557   8.092   2.555   5.496  0.0968  0.0120  0.5209
15660SOL    HW147558   8.178   2.589   5.521  0.1630 -0.4591  0.9411
15660SOL    HW247559   8.046   2.541   5.579 -0.5709  0.7145  0.2849
15661SOL     OW47560   7.854   9.068   2.963  0.2122  0.8980 -0.1713
15661SOL    HW147561   7.840   9.053   3.056 -0.8446  1.0799 -0.2849
15661SOL    HW247562   7.832   8.985   2.921 -0.9892  1.3062 -0.3896
15662SOL     OW47563   4.679   3.801   3.714  0.4567 -0.6174  0.6567
15662SOL    HW147564   4.718   3.887   3.731  2.8770 -1.3472 -0.7030
15662SOL    HW247565   4.666   3.798   3.620  0.7167 -1.8434  0.6415
15663SOL     OW47566   1.124   5.512   3.412  0.0723  0.5059 -0.1141
15663SOL    HW147567   1.206   5.514   3.461 -0.3922  1.4194  0.6525
15663SOL    HW247568   1.058   5.545   3.473 -0.7404  0.5052 -0.9584
15664SOL     OW47569   6.523   7.942   0.280  0.1559 -0.2806 -0.1707
15664SOL    HW147570   6.449   7.905   0.231  0.1120 -0.2807 -0.1035
15664SOL    HW247571   6.579   7.866   0.298  0.6648 -0.1396 -1.0810
15665SOL     OW47572   3.271   6.321   1.054  0.1618  0.2095  0.2804
15665SOL    HW147573   3.290   6.398   1.001  0.6485  0.0773  0.2617
15665SOL    HW247574   3.324   6.251   1.015 -2.0831 -0.7766 -1.2632
15666SOL     OW47575   3.448   9.953   8.122 -0.4820  0.1234  0.9486
15666SOL    HW147576   3.434   9.932   8.214  0.5837 -0.0500  1.0813
15666SOL    HW247577   3.360   9.948   8.083 -0.7695 -1.0709  1.6877
15667SOL     OW47578   0.935   5.648   2.594  0.0107  0.1735  0.2337
15667SOL    HW147579   0.894   5.726   2.559 -0.5289 -0.0987  0.2538
15667SOL    HW247580   0.865   5.602   2.640  0.8131  0.8132  2.1861
15668SOL     OW47581   2.826   7.616   8.986 -0.0241 -0.0786 -0.2528
15668SOL    HW147582   2.909   7.663   8.990  2.4644 -4.0752  1.4547
15668SOL    HW247583   2.800   7.604   9.078 -0.7513 -1.5654 -0.6080
15669SOL     OW47584   6.347   4.215   5.435  0.0875 -0.6673  0.0559
15669SOL    HW147585   6.292   4.145   5.471  0.9624 -1.1358  0.5222
15669SOL    HW247586   6.307   4.295   5.469  0.0011 -1.0259  0.8455
15670SOL     OW47587   4.575   7.461   4.285 -0.1396 -0.0568  0.3794
15670SOL    HW147588   4.491   7.498   4.311  0.6594  0.4864  2.3836
15670SOL    HW247589   4.622   7.534   4.245 -1.2925 -0.8440 -2.7249
15671SOL     OW47590   8.370   9.087   6.780 -0.4011  0.1533 -0.0798
15671SOL    HW147591   8.294   9.114   6.728 -0.7579  1.9769  1.2668
15671SOL    HW247592   8.433   9.159   6.769  0.1269 -0.1679  0.7716
15672SOL     OW47593   7.706   1.714   2.086  0.3997 -0.4286  0.1284
15672SOL    HW147594   7.662   1.632   2.063 -0.0344 -0.5158  1.1910
15672SOL    HW247595   7.635   1.778   2.095  0.7732  0.1874 -1.1235
15673SOL     OW47596   8.917   9.671   6.919  0.0646 -0.5101  0.2530
15673SOL    HW147597   8.841   9.722   6.950  0.5737 -0.3376  1.2732
15673SOL    HW247598   8.955   9.634   6.999 -0.0660 -2.2025 -0.4353
15674SOL     OW47599   4.457   0.142   7.863 -0.6005  0.0869 -0.0877
15674SOL    HW147600   4.367   0.115   7.844 -0.6063  0.3683 -0.4609
15674SOL    HW247601   4.469   0.119   7.956 -0.7862 -0.6804 -0.2455
15675SOL     OW47602   5.332   5.841   6.788 -0.1061 -0.0939 -0.6359
15675SOL    HW147603   5.248   5.871   6.753 -0.1089  0.6009 -0.0580
15675SOL    HW247604   5.395   5.907   6.759  0.1772 -0.4091 -0.7449
15676SOL     OW47605   5.893   0.235   4.326  0.2212 -0.1796  0.6924
15676SOL    HW147606   5.987   0.231   4.308  0.2036  0.2300  0.4950
15676SOL    HW247607   5.874   0.153   4.373  0.8941  0.2823  1.8020
15677SOL     OW47608   2.164   0.391   7.322 -0.1350 -0.1845  0.3406
15677SOL    HW147609   2.143   0.360   7.234  0.3237  0.4050  0.0206
15677SOL    HW247610   2.200   0.314   7.366 -0.1829 -0.4347 -0.0492
15678SOL     OW47611   5.937   3.013   3.477  0.4033  0.0074  0.1064
15678SOL    HW147612   5.995   3.054   3.542  0.0558  1.5501 -0.5056
15678SOL    HW247613   5.859   2.989   3.526  0.4983  0.3562  0.4384
15679SOL     OW47614   6.591   5.925   6.893  0.2621 -0.7467 -0.2852
15679SOL    HW147615   6.584   5.847   6.947 -0.4590 -1.2935 -1.1395
15679SOL    HW247616   6.503   5.936   6.855  0.0708  1.0232  0.5505
15680SOL     OW47617   3.097   6.779   3.145 -0.1703 -0.1194  0.1000
15680SOL    HW147618   3.067   6.811   3.060 -0.0465 -1.6355 -0.5327
15680SOL    HW247619   3.018   6.747   3.188 -0.2541  0.7596  0.6354
15681SOL     OW47620   4.310   3.801   0.713 -0.1077 -0.3107 -0.3456
15681SOL    HW147621   4.394   3.758   0.695  1.1831  1.6099  0.6502
15681SOL    HW247622   4.320   3.837   0.801 -2.2158 -0.4788  0.0138
15682SOL     OW47623   7.381   9.829   0.161 -0.0493 -0.0672  0.2826
15682SOL    HW147624   7.438   9.890   0.209  0.5247 -1.7402  1.8267
15682SOL    HW247625   7.390   9.746   0.207  0.4125 -1.7896 -2.6797
15683SOL     OW47626   0.571   5.681   0.673 -0.5913 -0.1728  0.1462
15683SOL    HW147627   0.571   5.756   0.614 -0.6896 -0.4207 -0.1710
15683SOL    HW247628   0.578   5.719   0.761 -1.2027  0.2308  0.0229
15684SOL     OW47629   3.093   3.733   9.300  0.1001 -0.4971 -0.1894
15684SOL    HW147630   3.060   3.652   9.262  0.0141 -0.7135  0.3455
15684SOL    HW247631   3.022   3.796   9.289 -0.1720 -0.7364  0.2105
15685SOL     OW47632   6.765   9.445   6.047 -0.1884  0.6888 -0.4848
15685SOL    HW147633   6.827   9.378   6.075  1.0751  1.3254 -1.6829
15685SOL    HW247634   6.797   9.526   6.086 -0.9403  0.8347 -0.1520
15686SOL     OW47635   8.538   7.903   3.646 -0.0216 -0.6142 -0.2698
15686SOL    HW147636   8.556   7.810   3.636 -1.6466 -0.8919 -0.9269
15686SOL    HW247637   8.445   7.912   3.623 -0.1393  1.0161  0.6894
15687SOL     OW47638   4.975   3.208   1.520  0.3121 -0.0773  0.0148
15687SOL    HW147639   4.949   3.177   1.607 -0.4388  1.9430  0.5565
15687SOL    HW247640   5.067   3.183   1.513  0.5640  0.2687  1.6530
15688SOL     OW47641   6.931   3.576   2.135  0.5377 -0.3971  0.1386
15688SOL    HW147642   6.950   3.650   2.077 -0.3379  0.2306  0.6185
15688SOL    HW247643   6.920   3.616   2.221 -3.8762 -0.4300 -0.1830
15689SOL     OW47644   4.495   4.151   5.360  0.1564  0.1968  0.1584
15689SOL    HW147645   4.578   4.144   5.407 -0.3748 -0.3249  1.0559
15689SOL    HW247646   4.494   4.240   5.326  1.9938 -0.4010 -1.6653
15690SOL     OW47647   9.317   8.614   9.343 -0.2803 -0.1840 -0.4084
15690SOL    HW147648   9.326   8.669   9.265 -0.4818  0.4477  0.0087
15690SOL    HW247649   9.252   8.658   9.397 -1.4353 -1.5103 -0.6393
15691SOL     OW47650   3.317   5.342   1.792  0.1177  0.1352  0.5016
15691SOL    HW147651   3.271   5.300   1.865 -0.0264  0.1782  0.4366
15691SOL    HW247652   3.306   5.280   1.719  1.0693 -0.3552  0.7623
15692SOL     OW47653   1.066   1.208   1.826 -0.2143  0.3663  0.0270
15692SOL    HW147654   1.111   1.255   1.756 -0.1154  0.6220  0.2589
15692SOL    HW247655   1.096   1.251   1.906  0.6277 -0.7110  0.3086
15693SOL     OW47656   5.872   7.340   7.441 -0.4974 -0.1224 -0.1183
15693SOL    HW147657   5.939   7.377   7.384 -0.2687  1.2028  0.9593
15693SOL    HW247658   5.816   7.289   7.382  1.9024 -2.0108 -0.9378
15694SOL     OW47659   0.760   0.835   4.563 -0.1960  0.2622 -0.1199
15694SOL    HW147660   0.741   0.901   4.497  0.3570  0.2964 -0.2476
15694SOL    HW247661   0.687   0.842   4.625 -2.2792 -1.6689 -2.1408
15695SOL     OW47662   3.220   8.272   0.481  0.1711 -0.0462  0.1423
15695SOL    HW147663   3.249   8.269   0.390  2.3043  0.7367  0.7456
15695SOL    HW247664   3.232   8.182   0.513 -2.5317 -0.8443 -0.8375
15696SOL     OW47665   9.125   0.668   5.730  0.5610  0.2541 -0.1023
15696SOL    HW147666   9.127   0.763   5.739 -2.3340  0.3936 -0.0468
15696SOL    HW247667   9.133   0.652   5.636 -1.0574  0.7120 -0.3371
15697SOL     OW47668   7.304   5.573   1.162  0.1106  0.0342 -0.3786
15697SOL    HW147669   7.223   5.587   1.112 -0.6381 -0.2554  0.7107
15697SOL    HW247670   7.307   5.479   1.177  0.1445  0.1454  0.3758
15698SOL     OW47671   8.011   3.511   9.490 -0.2685  0.0250  0.1195
15698SOL    HW147672   7.977   3.461   9.416 -0.8139  0.9559 -0.2671
15698SOL    HW247673   7.989   3.458   9.567  1.3634 -1.5412 -0.4228
15699SOL     OW47674   8.689   2.264   6.508  0.0872 -0.0610 -0.0535
15699SOL    HW147675   8.633   2.341   6.515 -0.3957 -0.5508  3.0953
15699SOL    HW247676   8.639   2.202   6.455 -0.4906  0.9899 -0.7578
15700SOL     OW47677   0.861   5.077   2.998 -0.0457 -0.0516 -0.1177
15700SOL    HW147678   0.953   5.050   3.001 -0.5912 -1.9863  0.1548
15700SOL    HW247679   0.812   4.998   3.020 -1.7205  1.4152  1.7050
15701SOL     OW47680   8.245   3.171   2.972  0.1703 -0.5649 -0.0993
15701SOL    HW147681   8.179   3.165   3.041 -1.3779  2.5333 -1.1119
15701SOL    HW247682   8.320   3.214   3.014  0.1909 -0.9201  0.2302
15702SOL     OW47683   4.942   7.238   2.321 -0.0193 -0.0477  0.0176
15702SOL    HW147684   4.988   7.214   2.401 -0.9796 -1.4731  0.1652
15702SOL    HW247685   4.956   7.332   2.313  0.7936 -0.0248  1.3934
15703SOL     OW47686   1.622   3.209   4.082 -0.0899  0.1045 -0.1705
15703SOL    HW147687   1.673   3.289   4.075  0.2891 -0.2310 -1.3699
15703SOL    HW247688   1.572   3.219   4.164  2.7104 -0.0335  1.6779
15704SOL     OW47689   8.453   9.764   0.030  0.0892 -0.4759  0.4633
15704SOL    HW147690   8.487   9.840   0.078 -0.5614 -1.4143  2.5504
15704SOL    HW247691   8.392   9.723   0.091 -0.0033 -2.3644 -0.8137
15705SOL     OW47692   6.699   6.421   0.773  0.6729 -0.5225 -0.1675
15705SOL    HW147693   6.775   6.478   0.780  1.3045 -1.4932  1.3559
15705SOL    HW247694   6.642   6.447   0.846  0.8701 -1.6645  0.4163
15706SOL     OW47695   0.172   2.364   3.653  0.0917 -0.2895  0.2277
15706SOL    HW147696   0.100   2.411   3.695  1.1504  1.7916 -0.1378
15706SOL    HW247697   0.246   2.374   3.714  0.8234  0.1233 -0.7043
15707SOL     OW47698   9.678   5.490   8.565 -0.3765 -0.0618  0.6479
15707SOL    HW147699   9.740   5.521   8.631  0.1497 -0.9125  0.5576
15707SOL    HW247700   9.677   5.560   8.499  0.3861  0.0188  0.7164
15708SOL     OW47701   6.796   1.073   9.060 -1.0120 -0.3457  0.0256
15708SOL    HW147702   6.784   0.980   9.039  0.1536 -0.6149  0.4232
15708SOL    HW247703   6.846   1.072   9.142  1.6761  0.5607 -1.4813
15709SOL     OW47704   6.053   1.451   8.632  0.8678  0.4065  0.1140
15709SOL    HW147705   6.131   1.443   8.578  0.1066 -1.0201 -0.8180
15709SOL    HW247706   6.052   1.372   8.686  0.4316  0.7441  0.6138
15710SOL     OW47707   7.576   1.873   9.531 -0.2224  0.2659 -0.3927
15710SOL    HW147708   7.671   1.869   9.543  0.0994  1.5458 -2.1748
15710SOL    HW247709   7.557   1.808   9.463 -0.5026  0.5325 -0.5757
15711SOL     OW47710   6.719   3.605   4.746 -0.0644 -0.3498  0.3353
15711SOL    HW147711   6.803   3.633   4.784  0.0014  0.2144 -0.2208
15711SOL    HW247712   6.717   3.510   4.762  0.6747 -0.3692  0.3703
15712SOL     OW47713   6.560   2.643   7.223 -0.7938  0.2207 -0.1221
15712SOL    HW147714   6.569   2.548   7.228  1.7391  0.4421  3.2557
15712SOL    HW247715   6.634   2.671   7.169 -1.0047  0.3431 -0.3492
15713SOL     OW47716   3.660   5.483   8.150  0.0157 -0.0305 -0.4293
15713SOL    HW147717   3.653   5.448   8.061 -0.1217  0.8913 -0.7964
15713SOL    HW247718   3.698   5.570   8.138 -1.2428  0.6380  0.2947
15714SOL     OW47719   9.764   4.204   5.757  0.6194 -0.8593  0.2821
15714SOL    HW147720   9.689   4.167   5.804  0.1227  0.6885  0.7788
15714SOL    HW247721   9.763   4.297   5.781  0.6027 -0.0796 -2.4462
15715SOL     OW47722   2.895   5.448   7.711  0.0430  0.7633  0.5858
15715SOL    HW147723   2.881   5.492   7.627 -0.6797  0.1422  0.3701
15715SOL    HW247724   2.967   5.496   7.752  2.4881 -0.7040 -1.6728
15716SOL     OW47725   0.912   9.674   0.675 -0.0072 -0.2073  0.5310
15716SOL    HW147726   0.932   9.609   0.743  0.2958  1.4405  2.0833
15716SOL    HW247727   0.899   9.756   0.723 -0.4510  0.8826 -1.3598
15717SOL     OW47728   3.994   9.806   8.449  0.2489  0.0549  0.7567
15717SOL    HW147729   4.006   9.711   8.459 -2.8410 -0.3452  1.8524
15717SOL    HW247730   3.970   9.818   8.357  1.3900 -0.0911  0.4267
15718SOL     OW47731   3.656   5.644   2.802  0.2468 -0.3541  0.2051
15718SOL    HW147732   3.685   5.556   2.825  0.3398 -1.3065 -3.1084
15718SOL    HW247733   3.573   5.631   2.758  0.3071  1.2160 -0.4303
15719SOL     OW47734   6.890   6.749   5.962  0.4540 -0.7642  0.1953
15719SOL    HW147735   6.895   6.668   6.012  0.7696 -1.3352 -0.7396
15719SOL    HW247736   6.969   6.798   5.986  1.4587 -1.7671 -0.9658
15720SOL     OW47737   3.347   1.826   0.259  0.1231 -0.2008 -0.1074
15720SOL    HW147738   3.272   1.826   0.199 -0.3066  0.0292  0.4238
15720SOL    HW247739   3.398   1.749   0.233  0.5111  0.4822 -1.4535
15721SOL     OW47740   2.018   6.653   3.534  0.2995 -0.1862 -0.0041
15721SOL    HW147741   2.086   6.673   3.470 -1.4743 -0.1192 -1.9946
15721SOL    HW247742   2.057   6.673   3.619  1.9263  2.2196 -1.2192
15722SOL     OW47743   9.017   9.761   3.245  0.0506  0.1121  0.0350
15722SOL    HW147744   9.002   9.720   3.160 -0.1569 -4.0534  1.8247
15722SOL    HW247745   8.933   9.757   3.290  0.5393  0.6402  1.0476
15723SOL     OW47746   1.569   4.812   3.367 -0.4062 -0.5550  0.0740
15723SOL    HW147747   1.498   4.755   3.337 -1.2260  0.3387  0.2835
15723SOL    HW247748   1.598   4.857   3.288 -0.0867 -0.8921 -0.0047
15724SOL     OW47749   9.610   3.723   2.306  0.4126 -0.0310 -0.0517
15724SOL    HW147750   9.666   3.683   2.240 -0.8166 -0.9031 -0.6011
15724SOL    HW247751   9.521   3.705   2.276 -0.1669  0.6243  1.2086
15725SOL     OW47752   7.056   6.376   7.259 -0.3419  0.1630  0.3518
15725SOL    HW147753   7.004   6.296   7.250  0.2082 -0.2532  0.8148
15725SOL    HW247754   7.047   6.420   7.175 -0.7096 -0.3465  0.1182
15726SOL     OW47755   0.315   6.917   6.853  0.3755  0.1809 -0.0801
15726SOL    HW147756   0.396   6.911   6.802  0.5705  0.7827  0.1511
15726SOL    HW247757   0.301   7.011   6.865 -1.3830  0.2168 -1.7442
15727SOL     OW47758   6.477   4.488   7.252  0.1204 -0.0119 -0.2332
15727SOL    HW147759   6.486   4.460   7.161  0.9665  0.0189 -0.1686
15727SOL    HW247760   6.542   4.558   7.261 -1.6686  1.7435 -0.2935
15728SOL     OW47761   1.997   0.212   6.422  0.2107 -0.7251 -0.0385
15728SOL    HW147762   1.936   0.229   6.350  0.7029 -3.4750 -1.2164
15728SOL    HW247763   1.968   0.271   6.492 -2.7531 -0.7460 -1.1176
15729SOL     OW47764   9.998   1.863   6.174  0.2529  0.0492  0.3930
15729SOL    HW147765   9.904   1.849   6.165  0.1517 -0.1273  1.6157
15729SOL    HW247766  10.035   1.832   6.091 -0.6475 -0.9957  0.3637
15730SOL     OW47767   3.126   3.928   6.825  0.5281  0.0376  0.2815
15730SOL    HW147768   3.067   3.989   6.868 -0.5717 -0.6833 -0.1528
15730SOL    HW247769   3.122   3.951   6.732  0.9808  0.0266  0.2575
15731SOL     OW47770   4.088   9.007   7.116 -0.1688  0.5476  0.0217
15731SOL    HW147771   4.078   9.012   7.211 -2.1284  2.6860 -0.2120
15731SOL    HW247772   4.181   9.018   7.101  0.3176 -0.8646  1.7141
15732SOL     OW47773   6.237   1.374   0.023 -0.3867 -0.4923  0.1073
15732SOL    HW147774   6.323   1.362  -0.017 -0.3893  0.4795 -0.2138
15732SOL    HW247775   6.218   1.290   0.064  0.3348 -0.9933 -0.5488
15733SOL     OW47776   3.385   7.340   4.102  0.2654 -0.0539  0.2672
15733SOL    HW147777   3.468   7.386   4.116  0.3482 -0.1407  0.0617
15733SOL    HW247778   3.399   7.289   4.022 -0.0894  0.1741  0.0544
15734SOL     OW47779   9.931   0.013   1.233 -0.0409 -0.2816  0.0539
15734SOL    HW147780   9.890   0.089   1.192 -0.4406 -0.7256 -0.3940
15734SOL    HW247781  10.018   0.008   1.193  0.4313  0.6029  0.9315
15735SOL     OW47782   0.290   8.595   1.436  0.3039  0.1992 -0.1687
15735SOL    HW147783   0.275   8.640   1.353 -1.1070  0.0917 -0.0050
15735SOL    HW247784   0.257   8.507   1.422 -2.1648  0.8043  1.1420
15736SOL     OW47785   2.360   3.360   0.968 -0.1212  0.4478 -0.0755
15736SOL    HW147786   2.410   3.429   0.923  1.4561 -1.0886 -0.8436
15736SOL    HW247787   2.374   3.377   1.061  2.7809 -0.4380 -0.2320
15737SOL     OW47788   2.463   3.147   2.882 -0.4657 -0.1804  0.3200
15737SOL    HW147789   2.399   3.097   2.933 -1.2614  1.0074  0.5220
15737SOL    HW247790   2.473   3.098   2.800 -1.6927 -0.3361  0.2556
15738SOL     OW47791   4.690   1.001   1.330  0.3014  0.2450 -0.2209
15738SOL    HW147792   4.664   1.071   1.271  0.2707 -0.4774 -1.0957
15738SOL    HW247793   4.702   0.925   1.273  1.3742 -0.2017  0.5569
15739SOL     OW47794   5.937   2.234   0.054  0.2145 -0.5125  0.5416
15739SOL    HW147795   6.011   2.295   0.052 -0.4146  0.2702  0.6387
15739SOL    HW247796   5.945   2.184  -0.027 -0.6709  1.4300 -0.8245
15740SOL     OW47797   0.523   8.960   0.236 -0.2301  0.8079 -0.2037
15740SOL    HW147798   0.487   9.045   0.259 -0.0413  0.8488 -0.0582
15740SOL    HW247799   0.447   8.901   0.237 -0.2534  0.8391  0.3774
15741SOL     OW47800   4.093   3.143   0.421 -0.1508  0.4469 -0.0209
15741SOL    HW147801   4.136   3.102   0.496 -1.6262  0.2829  0.7785
15741SOL    HW247802   4.163   3.157   0.358  1.1234  0.5128  1.3521
15742SOL     OW47803   6.056   0.855   2.113  0.1839 -0.1180  0.1619
15742SOL    HW147804   6.063   0.926   2.049 -0.7551 -0.2837 -0.1361
15742SOL    HW247805   5.963   0.852   2.137  0.5353  0.0486  1.6681
15743SOL     OW47806   4.114   1.995   5.712  0.7726  0.3012  0.2657
15743SOL    HW147807   4.132   2.006   5.619 -0.4600  1.2120  0.0977
15743SOL    HW247808   4.035   1.941   5.715  1.1077 -0.1672  0.7995
15744SOL     OW47809   2.115   3.524   9.884  0.3396  0.1550  0.3605
15744SOL    HW147810   2.078   3.612   9.879 -2.5746 -0.9064  1.3497
15744SOL    HW247811   2.182   3.530   9.952 -0.8289  1.3378  1.4635
15745SOL     OW47812   9.419   9.033   2.195  0.0414 -0.0305 -0.3085
15745SOL    HW147813   9.418   8.966   2.127 -0.1547  1.0154 -1.3680
15745SOL    HW247814   9.340   9.017   2.246 -1.3406  0.8385 -2.0469
15746SOL     OW47815   7.752   1.715   6.079 -0.0429  0.2262 -0.4159
15746SOL    HW147816   7.786   1.632   6.046 -0.5595 -0.0425 -0.2721
15746SOL    HW247817   7.809   1.737   6.152  0.0600 -0.0273 -0.4205
15747SOL     OW47818   5.996   1.880   0.932 -0.2597 -0.6096  0.5044
15747SOL    HW147819   6.038   1.829   0.863  0.4611  1.9349 -1.0761
15747SOL    HW247820   6.066   1.901   0.993 -0.5871 -1.5908  1.2372
15748SOL     OW47821   2.973   6.380   3.344 -0.7030 -0.0700  0.0490
15748SOL    HW147822   2.957   6.457   3.398 -1.0291  1.1531 -1.6988
15748SOL    HW247823   3.050   6.403   3.292 -2.3271  0.2589 -2.4128
15749SOL     OW47824   5.783   6.134   8.746 -0.0073  0.5423 -0.3716
15749SOL    HW147825   5.759   6.055   8.795  2.2972  0.6119  1.0747
15749SOL    HW247826   5.819   6.192   8.813  1.3820  1.4857 -1.8716
15750SOL     OW47827   0.559   1.975   6.654 -0.5938 -0.3025 -0.3933
15750SOL    HW147828   0.514   1.910   6.601  0.5672 -1.3321 -0.1761
15750SOL    HW247829   0.552   1.942   6.744 -4.4390  2.5016  0.5879
15751SOL     OW47830   8.687   2.114   5.974  0.3473 -0.2888  0.3514
15751SOL    HW147831   8.734   2.084   6.052 -0.6726  0.2103  1.1703
15751SOL    HW247832   8.670   2.207   5.990 -1.6390 -0.6224  0.4838
15752SOL     OW47833   4.847   5.421   6.193  0.0988  0.2702 -0.0940
15752SOL    HW147834   4.796   5.374   6.258 -0.4491 -2.8964 -2.5599
15752SOL    HW247835   4.938   5.401   6.214 -0.0805 -0.8425 -0.3227
15753SOL     OW47836   8.312   8.046   2.350  0.0576 -0.4517 -0.5188
15753SOL    HW147837   8.222   8.055   2.381  0.2545  1.8657 -0.4498
15753SOL    HW247838   8.311   7.969   2.293 -2.2332  0.2283 -1.4776
15754SOL     OW47839   5.274   5.684   4.482  0.1978 -0.6737 -0.2692
15754SOL    HW147840   5.183   5.709   4.471  0.0968 -0.3370  1.0840
15754SOL    HW247841   5.309   5.676   4.393 -0.6605  0.9472 -0.7744
15755SOL     OW47842   2.174   7.855   7.335 -0.2558  0.2597 -0.3020
15755SOL    HW147843   2.216   7.785   7.385  0.4770  1.2188  0.4790
15755SOL    HW247844   2.080   7.840   7.346 -0.1292 -1.1527 -0.9630
15756SOL     OW47845   9.499   5.306   5.754 -0.6154 -0.0619  0.0907
15756SOL    HW147846   9.572   5.252   5.724  0.1714  1.6168 -1.1749
15756SOL    HW247847   9.540   5.387   5.787 -1.8663  0.7694 -0.3057
15757SOL     OW47848   1.820   2.319   7.936 -0.2134 -0.3859 -0.1738
15757SOL    HW147849   1.829   2.379   7.862 -0.1471 -0.4705 -0.2339
15757SOL    HW247850   1.805   2.233   7.896 -1.5393 -0.2184 -0.0819
15758SOL     OW47851   0.276   7.981   0.482  0.3422 -0.2970  0.4065
15758SOL    HW147852   0.190   8.021   0.473 -0.5851 -1.9528  1.3840
15758SOL    HW247853   0.261   7.887   0.465  2.3336 -0.3865 -1.3858
15759SOL     OW47854   6.655   6.301   1.206 -0.0662 -0.2709 -0.6869
15759SOL    HW147855   6.653   6.218   1.254  0.5725  0.8927  1.4811
15759SOL    HW247856   6.619   6.365   1.267 -0.2391  1.1363 -2.1929
15760SOL     OW47857   8.419   7.424   0.257  0.2191  0.7975 -0.3490
15760SOL    HW147858   8.362   7.377   0.318  1.1817  0.6940  0.4999
15760SOL    HW247859   8.394   7.390   0.171  0.2091 -0.5585  0.1598
15761SOL     OW47860   5.422   0.174   0.301  0.1224  0.1671 -0.0083
15761SOL    HW147861   5.430   0.110   0.230 -5.0098  0.0228 -0.7960
15761SOL    HW247862   5.383   0.125   0.373  1.1797  1.2877  1.3808
15762SOL     OW47863   3.073   8.017   0.369  0.0663 -0.7729  0.4456
15762SOL    HW147864   3.032   7.933   0.351 -1.3367 -0.0881  0.2636
15762SOL    HW247865   3.000   8.078   0.375  0.7832 -0.0632  3.5474
15763SOL     OW47866   4.097   0.443   6.649 -0.3809 -0.5584 -0.1188
15763SOL    HW147867   4.071   0.506   6.582  1.5613 -0.5718 -0.9293
15763SOL    HW247868   4.032   0.373   6.642 -0.5914 -0.2498 -1.5331
15764SOL     OW47869   3.028   3.700   1.272  0.1068 -0.1866  0.5169
15764SOL    HW147870   3.001   3.675   1.360 -0.0640  1.9117  1.1310
15764SOL    HW247871   3.084   3.777   1.285 -0.2075  0.3953 -1.2093
15765SOL     OW47872   4.806   2.966   7.453 -0.0094 -0.4319 -0.4757
15765SOL    HW147873   4.817   3.000   7.364 -1.1963 -2.7883 -1.6379
15765SOL    HW247874   4.734   3.016   7.489  0.4135  0.4848 -0.8599
15766SOL     OW47875   0.801   2.729   2.612 -0.5422  0.3564 -0.1970
15766SOL    HW147876   0.824   2.692   2.527 -1.2261  1.1063 -0.7190
15766SOL    HW247877   0.735   2.670   2.647  0.1416 -0.2666  0.0807
15767SOL     OW47878   0.457   8.568   3.688  0.3992  0.2207 -0.1473
15767SOL    HW147879   0.364   8.558   3.704  0.1457  2.3493  0.0525
15767SOL    HW247880   0.497   8.566   3.775  0.2664  1.3874 -0.0450
15768SOL     OW47881   3.454   4.172   8.462 -0.7505 -0.2333  0.4157
15768SOL    HW147882   3.491   4.259   8.478 -1.2986 -0.2250  1.7927
15768SOL    HW247883   3.447   4.133   8.549 -0.5803 -1.6386 -0.1734
15769SOL     OW47884   7.647   7.593   0.328  0.0962  0.3099 -0.0015
15769SOL    HW147885   7.741   7.573   0.319 -0.1329 -0.4695 -0.8748
15769SOL    HW247886   7.627   7.573   0.419  1.1986  2.3874  0.7466
15770SOL     OW47887   6.377   3.974   8.297  0.0195 -0.0616 -0.5903
15770SOL    HW147888   6.445   4.034   8.330 -0.4117 -0.0937  0.3852
15770SOL    HW247889   6.304   4.032   8.274 -0.5406 -0.2092  0.7086
15771SOL     OW47890   3.508   6.970   3.147  0.5646  0.3255  0.1051
15771SOL    HW147891   3.454   7.044   3.121 -0.3180 -0.3394 -0.0115
15771SOL    HW247892   3.582   6.971   3.087  0.0537  0.5415 -0.5307
15772SOL     OW47893   7.768   5.722   6.874  0.0404 -0.9436 -0.1757
15772SOL    HW147894   7.772   5.766   6.789 -1.9019 -1.0958 -0.3954
15772SOL    HW247895   7.680   5.686   6.878 -0.5784  0.5543  2.6354
15773SOL     OW47896   2.161   8.323   3.473 -0.0120  0.3946  0.3109
15773SOL    HW147897   2.160   8.404   3.523  0.7753  0.2327  0.5995
15773SOL    HW247898   2.101   8.265   3.520 -0.5156  0.7689  0.1489
15774SOL     OW47899   7.105   0.040   3.170  0.2586  0.4812 -0.6741
15774SOL    HW147900   7.124   0.009   3.259 -0.1253 -0.4040 -0.8916
15774SOL    HW247901   7.191   0.051   3.130  0.4423  1.0585 -0.1432
15775SOL     OW47902   3.972   1.267   8.638  0.1116 -0.8703 -0.4536
15775SOL    HW147903   4.037   1.248   8.571 -0.0167  2.0540 -1.5532
15775SOL    HW247904   3.890   1.234   8.603 -0.6941  3.6611 -3.7248
15776SOL     OW47905   6.805   8.664   9.780 -0.4867 -0.5871  0.5173
15776SOL    HW147906   6.774   8.749   9.810  1.0153 -0.4637  1.8250
15776SOL    HW247907   6.835   8.679   9.690 -3.2015 -0.5248 -0.4934
15777SOL     OW47908   9.859   1.094   7.649  0.4248  0.1473  0.2989
15777SOL    HW147909   9.901   1.178   7.666  0.2614  0.4145 -0.5641
15777SOL    HW247910   9.898   1.064   7.567  0.6351 -0.7236  0.7168
15778SOL     OW47911   1.753   4.621   1.254  0.5878 -0.0072  1.0631
15778SOL    HW147912   1.835   4.627   1.205  0.3719 -0.6681  0.6034
15778SOL    HW247913   1.687   4.607   1.186 -0.0074  1.2369  1.3568
15779SOL     OW47914   0.846   4.076   7.836  0.0244 -0.1193 -0.1467
15779SOL    HW147915   0.784   4.085   7.908  0.4368 -0.8157  0.3149
15779SOL    HW247916   0.918   4.025   7.873  1.9979  2.5981  0.0188
15780SOL     OW47917   6.025   6.695   7.241 -0.1229 -0.1288 -0.0029
15780SOL    HW147918   5.952   6.708   7.301 -0.7002  0.4663 -0.8214
15780SOL    HW247919   6.029   6.775   7.190  0.7312 -0.3991 -0.3762
15781SOL     OW47920   2.562   9.707   4.754 -0.1398  0.2714  0.9063
15781SOL    HW147921   2.614   9.770   4.705 -1.5017  1.2214  0.6327
15781SOL    HW247922   2.535   9.755   4.833 -1.6955  0.2616  0.4048
15782SOL     OW47923   5.994   3.003   7.572  0.1632  0.0770  0.2124
15782SOL    HW147924   6.026   2.934   7.629  0.2554  0.0832  0.1688
15782SOL    HW247925   6.022   3.084   7.613 -0.0504  0.0931  0.3280
15783SOL     OW47926   9.664   8.605   1.781 -0.0146 -0.2229 -0.3284
15783SOL    HW147927   9.704   8.672   1.836 -0.3370  0.5777 -1.0468
15783SOL    HW247928   9.652   8.648   1.696  0.7457 -1.5144 -1.1172
15784SOL     OW47929   8.919   5.022   6.059  0.4525 -0.2382 -0.5081
15784SOL    HW147930   9.010   5.052   6.064  0.9146 -1.4820 -1.1104
15784SOL    HW247931   8.868   5.103   6.050  1.7416  0.3806 -3.5012
15785SOL     OW47932   6.071   8.589   5.742  0.2830  0.1618 -0.2032
15785SOL    HW147933   6.006   8.658   5.729 -0.0370  0.1488  1.1901
15785SOL    HW247934   6.153   8.626   5.710 -0.0595  0.8620 -0.2686
15786SOL     OW47935   3.060   4.548   6.310 -0.6130  0.1121 -0.2706
15786SOL    HW147936   2.972   4.574   6.285  0.0509  1.8973 -0.9022
15786SOL    HW247937   3.082   4.476   6.251 -0.7313  1.3417 -1.8936
15787SOL     OW47938   8.957   4.618   6.893  0.2262 -0.3079 -0.5516
15787SOL    HW147939   9.011   4.668   6.953  1.0790 -0.0113 -1.5475
15787SOL    HW247940   8.989   4.640   6.806 -2.5062  1.1313 -1.3266
15788SOL     OW47941   1.034   7.962   3.543 -0.0711 -0.0576  0.2775
15788SOL    HW147942   1.063   8.017   3.470  1.0224 -0.4270  0.4214
15788SOL    HW247943   0.946   7.995   3.565 -0.4835 -0.0290 -1.2909
15789SOL     OW47944   5.460   8.633   3.068  0.0952 -0.4825 -0.1226
15789SOL    HW147945   5.409   8.642   2.988  1.0935 -1.1421 -0.8573
15789SOL    HW247946   5.419   8.693   3.130  0.0664  0.9798 -1.5081
15790SOL     OW47947   3.733   8.403   3.489  0.3557 -0.0770 -0.0373
15790SOL    HW147948   3.712   8.437   3.577  1.8762 -1.4827  0.9116
15790SOL    HW247949   3.822   8.433   3.472 -0.3475  1.2128 -1.6697
15791SOL     OW47950   6.599   2.512   9.027 -0.0206  0.7335  0.3610
15791SOL    HW147951   6.660   2.446   8.991 -1.2998 -1.6942  2.3027
15791SOL    HW247952   6.635   2.596   8.998  2.5221 -0.7195 -1.1099
15792SOL     OW47953   6.513   7.446   3.899  0.8954 -0.0412 -0.5141
15792SOL    HW147954   6.587   7.451   3.961  1.0597  0.2219 -0.7313
15792SOL    HW247955   6.485   7.536   3.888  0.3845 -0.1646 -0.2511
15793SOL     OW47956   4.278   6.337   8.819  0.2337  0.3103  0.0581
15793SOL    HW147957   4.275   6.244   8.844  1.7587  0.2621  0.1455
15793SOL    HW247958   4.355   6.371   8.864 -0.6099  1.7635  0.4377
15794SOL     OW47959   0.270   2.552   6.779  0.0380 -0.2983 -0.2725
15794SOL    HW147960   0.364   2.549   6.794 -0.1991  0.7972  1.7559
15794SOL    HW247961   0.231   2.537   6.866 -1.6150  1.0955 -0.7179
15795SOL     OW47962   1.751   4.913   5.289  0.0095 -0.1675 -0.2866
15795SOL    HW147963   1.707   4.905   5.374 -0.9460  1.0638 -0.6275
15795SOL    HW247964   1.820   4.848   5.291 -0.4709 -0.6663  1.1488
15796SOL     OW47965   2.702   4.672   4.741  0.0497  0.2808 -0.3104
15796SOL    HW147966   2.699   4.740   4.673 -0.0292  1.6223  0.9807
15796SOL    HW247967   2.794   4.669   4.768 -0.2203  1.0964  0.7827
15797SOL     OW47968   6.661   8.547   0.536  0.4809  0.2511  0.6476
15797SOL    HW147969   6.577   8.552   0.582  1.0766  0.7263  1.7210
15797SOL    HW247970   6.655   8.616   0.469 -0.4644 -0.5654 -0.1492
15798SOL     OW47971   9.600   6.766   5.145  0.4318 -0.0480  0.3074
15798SOL    HW147972   9.669   6.701   5.134  1.6757  1.4626 -1.8620
15798SOL    HW247973   9.520   6.723   5.115  0.0226 -2.2446  4.0294
15799SOL     OW47974   4.309   1.233   6.850  0.2806  0.3604 -0.2518
15799SOL    HW147975   4.328   1.309   6.796  1.3086 -1.3565 -2.4336
15799SOL    HW247976   4.390   1.182   6.851 -0.1139 -0.3534  1.8648
15800SOL     OW47977   0.215   5.590   3.657  0.5580  0.4578 -0.0011
15800SOL    HW147978   0.243   5.595   3.749 -1.3628 -0.1906  0.6736
15800SOL    HW247979   0.169   5.507   3.650  1.6558 -0.0446 -1.8932
15801SOL     OW47980   4.416   8.145   6.038  0.8422 -0.1365  0.2038
15801SOL    HW147981   4.335   8.094   6.040 -0.3009  1.6244  1.3020
15801SOL    HW247982   4.464   8.117   6.116  0.3570  0.2253  0.6378
15802SOL     OW47983   6.974   9.775   4.500 -0.1901  0.0410 -0.0068
15802SOL    HW147984   7.052   9.813   4.540 -0.4248  1.7826 -1.0887
15802SOL    HW247985   6.901   9.811   4.550 -0.3643 -0.2063 -0.0829
15803SOL     OW47986   0.553   6.949   6.709 -0.3558  0.1430 -0.3084
15803SOL    HW147987   0.635   6.995   6.731 -0.4862 -0.1671  0.8744
15803SOL    HW247988   0.581   6.874   6.656 -0.0085  0.7639 -1.0293
15804SOL     OW47989   6.150   4.285   1.548 -0.6453  0.1251 -0.1708
15804SOL    HW147990   6.087   4.342   1.593 -1.8776  1.7064 -3.4868
15804SOL    HW247991   6.227   4.340   1.536 -1.2539  0.6626 -1.9993
15805SOL     OW47992   4.420   4.284   9.567  0.0913 -0.4232 -0.4153
15805SOL    HW147993   4.480   4.210   9.576  0.4158 -0.0937  0.1430
15805SOL    HW247994   4.373   4.288   9.650 -0.9416 -0.8708 -0.9611
15806SOL     OW47995   9.817   5.944   6.977  1.0028  0.4023 -0.1501
15806SOL    HW147996   9.786   5.941   6.886 -2.2664 -0.0642  0.8757
15806SOL    HW247997   9.880   5.872   6.983 -1.6596 -2.2059 -1.1647
15807SOL     OW47998   9.246   4.173   6.208 -0.6760  0.4023 -0.2926
15807SOL    HW147999   9.156   4.193   6.232 -0.5335  1.7384 -0.7764
15807SOL    HW248000   9.298   4.241   6.251  0.3005 -1.2704  1.3104
15808SOL     OW48001   4.971   6.725   9.355  0.0827  0.0584 -0.2241
15808SOL    HW148002   4.962   6.806   9.306  0.8756  1.0461  1.1885
15808SOL    HW248003   5.063   6.701   9.344  0.3228  0.4020  0.9054
15809SOL     OW48004   7.018   5.453   0.553  0.5329  0.0352  0.0019
15809SOL    HW148005   6.963   5.376   0.539  1.3635 -0.5066 -0.3354
15809SOL    HW248006   7.072   5.431   0.628  1.6337 -0.2191 -0.8390
15810SOL     OW48007   0.345   4.973   0.462  0.4494 -0.2434  0.9577
15810SOL    HW148008   0.390   4.896   0.498  1.1394 -0.7719 -0.9396
15810SOL    HW248009   0.259   4.942   0.436  1.2608 -0.8261 -1.2398
15811SOL     OW48010   1.451   9.199   1.869 -0.0965  0.2061  0.8680
15811SOL    HW148011   1.467   9.157   1.784 -1.1881 -0.0083  0.7503
15811SOL    HW248012   1.459   9.293   1.850  0.5035  0.1288  0.7187
15812SOL     OW48013   9.613   1.072   7.796 -0.6273  0.1423  0.2186
15812SOL    HW148014   9.665   1.099   7.871  0.4907  0.1216 -0.5215
15812SOL    HW248015   9.674   1.073   7.722 -1.5382 -0.4458 -0.5805
15813SOL     OW48016   4.593   8.771   1.740 -0.1354  0.4086 -0.1359
15813SOL    HW148017   4.683   8.746   1.761 -0.5197 -1.2584 -0.3366
15813SOL    HW248018   4.595   8.867   1.734  1.5765  0.4053  0.0295
15814SOL     OW48019   0.647   5.484   2.329 -0.0763  0.3584  0.0347
15814SOL    HW148020   0.635   5.442   2.244  1.0185  1.1437 -0.5339
15814SOL    HW248021   0.722   5.542   2.316  0.4924  0.0319  1.7218
15815SOL     OW48022   3.181   1.859   3.053 -0.3985 -0.6646  0.4556
15815SOL    HW148023   3.169   1.952   3.034 -2.0076 -0.9337  0.0568
15815SOL    HW248024   3.096   1.819   3.035  0.3607 -2.2778  0.2791
15816SOL     OW48025   2.659   7.563   3.195  0.1729 -0.4163 -0.4316
15816SOL    HW148026   2.564   7.558   3.199 -0.0021  1.9659 -0.3422
15816SOL    HW248027   2.684   7.494   3.134 -1.4395 -2.2013  0.8155
15817SOL     OW48028   1.722   5.291   1.345  0.3585 -0.7493 -0.1647
15817SOL    HW148029   1.778   5.271   1.271 -0.4590 -2.1849 -0.4213
15817SOL    HW248030   1.759   5.371   1.382  1.5113 -0.7010 -1.3668
15818SOL     OW48031   0.310   3.814   5.055  0.4022  0.0183 -0.1673
15818SOL    HW148032   0.354   3.829   4.971  0.6518  1.7025  0.2139
15818SOL    HW248033   0.380   3.823   5.120 -0.2418  1.5608  0.3711
15819SOL     OW48034   3.570   9.352   1.474 -0.0145 -0.1848  0.4458
15819SOL    HW148035   3.494   9.399   1.439 -0.5340 -0.9997  0.4581
15819SOL    HW248036   3.550   9.340   1.567 -0.0693 -0.7691  0.3623
15820SOL     OW48037   5.329   2.963   0.100  0.4427  0.0075  0.2898
15820SOL    HW148038   5.245   2.982   0.060  0.1828  0.0009  0.8132
15820SOL    HW248039   5.308   2.945   0.192  1.0602  0.3825  0.5130
15821SOL     OW48040   7.946   8.915   9.674 -0.1040  0.7297  0.1058
15821SOL    HW148041   7.908   8.931   9.588  0.0401  1.4419  0.1684
15821SOL    HW248042   8.029   8.871   9.656 -0.8884 -0.7499 -0.0343
15822SOL     OW48043   6.265   6.458   5.553  0.2519  0.1124  0.1100
15822SOL    HW148044   6.309   6.439   5.636 -1.9735 -1.3252  1.0792
15822SOL    HW248045   6.233   6.373   5.523  1.9849  0.3996 -2.9256
15823SOL     OW48046   0.593   2.673   5.812 -0.4871 -0.2470 -0.5827
15823SOL    HW148047   0.534   2.655   5.739 -2.7567  1.7559  0.6126
15823SOL    HW248048   0.625   2.762   5.796  1.4537 -0.8952 -0.6280
15824SOL     OW48049   9.010   6.944   2.440  0.2100 -0.2044 -0.2009
15824SOL    HW148050   8.927   6.986   2.461 -0.2836  0.2430 -2.6851
15824SOL    HW248051   8.991   6.850   2.440  0.2917 -0.2345  1.4054
15825SOL     OW48052   0.436   4.043   5.702 -0.0235  0.4012  0.2496
15825SOL    HW148053   0.380   4.099   5.756  0.0683 -0.6563  1.4845
15825SOL    HW248054   0.509   4.020   5.759 -0.3708 -1.4803 -0.0086
15826SOL     OW48055   0.833   5.680   9.172  0.4127 -0.1461  0.2094
15826SOL    HW148056   0.881   5.760   9.195  2.8977 -1.2908 -0.6316
15826SOL    HW248057   0.819   5.687   9.078  0.2000 -0.4633  0.2182
15827SOL     OW48058   3.718   4.305   3.186  0.1954 -0.1407  0.7479
15827SOL    HW148059   3.663   4.233   3.216 -0.0994 -0.4790 -0.5200
15827SOL    HW248060   3.727   4.362   3.262 -0.7221 -0.8027  1.3777
15828SOL     OW48061   0.332   0.402   2.711  0.4758  0.6125 -0.0299
15828SOL    HW148062   0.346   0.476   2.651 -0.0477 -0.4057 -1.4511
15828SOL    HW248063   0.418   0.389   2.753  1.6132 -0.2178 -2.4245
15829SOL     OW48064   1.931   0.533   9.711  0.0576  0.0315 -0.6300
15829SOL    HW148065   1.961   0.444   9.728 -1.5885 -0.1877  1.7193
15829SOL    HW248066   1.990   0.588   9.763  0.0551  0.1375 -0.7402
15830SOL     OW48067   8.922   8.491   3.585 -0.0528  0.4880  0.1605
15830SOL    HW148068   8.901   8.465   3.675  0.5394  1.8744  0.7297
15830SOL    HW248069   8.913   8.586   3.585  1.5441  0.6738 -0.8130
15831SOL     OW48070   7.409   2.315   9.256 -0.1412  0.4107  0.6040
15831SOL    HW148071   7.327   2.364   9.248 -0.1581  0.5591  1.6116
15831SOL    HW248072   7.449   2.348   9.337  1.2654  0.8605 -0.2378
15832SOL     OW48073   1.647   7.533   9.303  0.3128 -0.1576  0.1333
15832SOL    HW148074   1.693   7.555   9.384  0.0243 -0.5243  0.4016
15832SOL    HW248075   1.713   7.543   9.234  0.4449  0.5986  0.3545
15833SOL     OW48076   1.616   6.041   3.752 -0.3716  0.2467 -0.0824
15833SOL    HW148077   1.631   5.954   3.789 -0.8837 -0.0237 -0.5126
15833SOL    HW248078   1.700   6.064   3.712  0.5556  0.9991  2.1257
15834SOL     OW48079   5.669   1.593   3.495 -0.0116  0.0991 -0.0965
15834SOL    HW148080   5.724   1.626   3.566 -2.0182  0.1196  1.5485
15834SOL    HW248081   5.699   1.504   3.481  1.9031  0.8066 -0.8415
15835SOL     OW48082   6.955   7.132   1.517  0.2078 -0.4882  0.2457
15835SOL    HW148083   6.866   7.113   1.488 -0.3437  2.6805 -0.5304
15835SOL    HW248084   6.946   7.150   1.611  0.2307 -1.1708  0.3823
15836SOL     OW48085   6.036   3.525   1.583 -0.4090  0.3336  0.0791
15836SOL    HW148086   5.961   3.580   1.559 -2.0945 -0.9097  2.1377
15836SOL    HW248087   6.000   3.436   1.585  1.1374 -0.3044  1.0771
15837SOL     OW48088   8.920   5.175   4.158  0.0175  0.2783 -0.1840
15837SOL    HW148089   8.959   5.142   4.239  2.9792  0.5835 -1.3554
15837SOL    HW248090   8.840   5.219   4.186  0.5269 -0.3056  2.4685
15838SOL     OW48091   2.746   0.567   5.227 -0.1838 -0.7494  0.1903
15838SOL    HW148092   2.722   0.655   5.198  0.1718 -0.5133  0.5911
15838SOL    HW248093   2.665   0.517   5.221 -0.4535 -0.3251  0.2121
15839SOL     OW48094   0.133   8.827   4.175  0.3932 -0.7356 -0.2205
15839SOL    HW148095   0.119   8.744   4.221  0.6778 -0.1990  0.8417
15839SOL    HW248096   0.143   8.892   4.244 -0.8068  0.3679 -1.0591
15840SOL     OW48097   6.529   5.488   1.486  0.1397  0.3980 -0.5269
15840SOL    HW148098   6.591   5.444   1.545 -0.5951  0.5392  0.3796
15840SOL    HW248099   6.467   5.419   1.462  0.3055  0.3987 -0.9723
15841SOL     OW48100   0.654   9.495   5.874  0.2071 -0.2257 -0.3339
15841SOL    HW148101   0.572   9.504   5.924  0.4118  1.0870 -0.2045
15841SOL    HW248102   0.658   9.402   5.853 -1.0409 -0.4156  0.1380
15842SOL     OW48103   5.621   8.843   1.249  0.1383  0.1666  0.0280
15842SOL    HW148104   5.685   8.855   1.180 -0.8081 -0.6595 -1.0272
15842SOL    HW248105   5.537   8.862   1.208 -0.5862 -1.6808  0.5336
15843SOL     OW48106   3.037   9.886   9.449 -0.5529 -0.1663  0.0262
15843SOL    HW148107   2.946   9.860   9.464 -0.2733 -1.4309 -0.3819
15843SOL    HW248108   3.052   9.867   9.357  0.0761  0.2050  0.0508
15844SOL     OW48109   4.591   4.542   0.569 -0.6217  0.2027 -0.5404
15844SOL    HW148110   4.545   4.516   0.649 -3.2617  5.8355  0.2681
15844SOL    HW248111   4.645   4.616   0.596  1.4323 -0.1087 -3.3978
15845SOL     OW48112   9.687   6.242   7.412 -0.1817 -0.2073 -0.3720
15845SOL    HW148113   9.679   6.152   7.382 -0.8302 -0.7868  1.4144
15845SOL    HW248114   9.607   6.258   7.462  0.2715  1.0983 -0.0253
15846SOL     OW48115   1.166   1.801   6.462 -0.3118  0.5625  0.1016
15846SOL    HW148116   1.199   1.802   6.552 -0.6338  3.1701  0.2648
15846SOL    HW248117   1.240   1.827   6.409  0.0180 -1.4611 -0.5108
15847SOL     OW48118   8.637   2.700   7.697 -0.5990 -0.1924 -0.2490
15847SOL    HW148119   8.695   2.704   7.621  2.1194 -0.9832  1.6519
15847SOL    HW248120   8.595   2.786   7.700  2.0969  1.2325 -0.5727
15848SOL     OW48121   6.460   9.583   6.335 -0.4855 -0.0613  0.1320
15848SOL    HW148122   6.443   9.555   6.425  0.7488 -0.9576  0.1277
15848SOL    HW248123   6.402   9.529   6.282 -0.0200 -0.7508  0.3022
15849SOL     OW48124   5.934   9.609   8.926  0.0556  0.5531 -0.1896
15849SOL    HW148125   5.892   9.677   8.874  0.6003  2.6023  1.9018
15849SOL    HW248126   6.026   9.611   8.898  0.0832  0.7294 -0.0866
15850SOL     OW48127   9.366   2.727   2.976 -0.3701 -0.1041 -0.5112
15850SOL    HW148128   9.346   2.726   3.070  1.2895 -0.9585 -0.1304
15850SOL    HW248129   9.364   2.634   2.951 -0.1372  0.0693 -1.1719
15851SOL     OW48130   4.652   0.459   4.638 -0.2221  0.1016 -0.0783
15851SOL    HW148131   4.742   0.488   4.620 -0.6081  0.0427 -2.5109
15851SOL    HW248132   4.662   0.387   4.700  1.3750  0.4226  0.0798
15852SOL     OW48133   8.771   6.036   7.082 -0.4031 -0.8876  0.0620
15852SOL    HW148134   8.824   5.967   7.122  1.2197  0.8565  1.1000
15852SOL    HW248135   8.822   6.066   7.007 -0.6746 -0.2430  0.1277
15853SOL     OW48136   6.266   0.046   5.057  0.6372  0.3978  0.1058
15853SOL    HW148137   6.198   0.084   5.002 -0.0169  0.7821  1.1708
15853SOL    HW248138   6.223  -0.025   5.103  0.0730  2.5195  3.0948
15854SOL     OW48139   4.821   4.759   0.325  0.1926 -0.0270 -0.1456
15854SOL    HW148140   4.913   4.748   0.298  0.1339 -2.1620  0.3074
15854SOL    HW248141   4.823   4.829   0.389  1.5518 -0.1897  0.0291
15855SOL     OW48142   6.193   8.666   2.237 -0.5703 -0.0432 -0.4628
15855SOL    HW148143   6.149   8.718   2.170 -1.0300  0.0451 -0.1045
15855SOL    HW248144   6.146   8.688   2.318  0.6731  0.6785  0.0820
15856SOL     OW48145   7.869   5.806   3.348  0.2961 -0.2917 -0.2123
15856SOL    HW148146   7.811   5.807   3.424  0.6106  0.1573  0.0276
15856SOL    HW248147   7.955   5.827   3.384  0.4555 -0.1129 -0.6897
15857SOL     OW48148   0.923   1.541   4.963  0.0914 -0.4514  0.2850
15857SOL    HW148149   0.949   1.453   4.935 -1.0603 -0.0240 -2.4466
15857SOL    HW248150   0.829   1.544   4.947 -0.0001  1.0813  0.9586
15858SOL     OW48151   3.085   2.266   3.737 -0.3689 -0.5387 -0.1328
15858SOL    HW148152   2.994   2.268   3.768  0.2479 -1.3292  1.9226
15858SOL    HW248153   3.102   2.355   3.706 -1.3845  0.0420  0.9107
15859SOL     OW48154   7.172   4.841   8.142 -0.0813 -0.4143  0.0763
15859SOL    HW148155   7.144   4.917   8.193 -0.3406  1.2835 -2.4611
15859SOL    HW248156   7.090   4.794   8.123 -0.3464  0.4745 -1.0650
15860SOL     OW48157   9.175   7.170   2.423 -0.6344 -0.0781 -0.0034
15860SOL    HW148158   9.143   7.080   2.427  0.1032 -0.3322  0.5074
15860SOL    HW248159   9.141   7.212   2.502  2.3278 -1.0940  2.0193
15861SOL     OW48160   8.702   9.512   3.493  0.2508  0.0737  0.4582
15861SOL    HW148161   8.794   9.534   3.507  0.3253  0.4117 -0.5164
15861SOL    HW248162   8.655   9.593   3.510  0.4284  0.7880 -2.0319
15862SOL     OW48163   5.175   8.877   9.656 -0.6423  0.9464  0.6202
15862SOL    HW148164   5.267   8.852   9.655 -1.0052 -0.4916 -0.1389
15862SOL    HW248165   5.147   8.863   9.747 -0.1541  1.2335  0.8160
15863SOL     OW48166   7.141   2.604   3.514  0.6867 -0.1215 -0.3597
15863SOL    HW148167   7.135   2.509   3.504 -0.5531 -0.1097  0.0835
15863SOL    HW248168   7.056   2.637   3.484  0.6367  0.7283  0.6514
15864SOL     OW48169   3.288   1.344   8.582  0.1350 -0.1790 -0.3326
15864SOL    HW148170   3.248   1.334   8.669  0.0916  0.4287 -0.2825
15864SOL    HW248171   3.298   1.254   8.550  0.7645 -0.4420  0.5792
15865SOL     OW48172   8.549   5.989   0.530  0.3897  0.4425  0.4971
15865SOL    HW148173   8.632   6.014   0.570  0.7539 -2.2041  1.6434
15865SOL    HW248174   8.548   5.893   0.535 -2.4523  0.3439 -0.0546
15866SOL     OW48175   2.784   0.082   8.912 -0.5656  0.6703  0.6978
15866SOL    HW148176   2.719   0.143   8.946  0.6077  1.9403  0.7325
15866SOL    HW248177   2.771   0.085   8.817 -1.4240 -0.0946  0.7839
15867SOL     OW48178   5.039   9.185   1.685 -0.0105  0.2302  0.4888
15867SOL    HW148179   5.064   9.263   1.636 -1.0708  0.3995  0.1837
15867SOL    HW248180   4.968   9.146   1.633  0.7937 -1.1851  0.4072
15868SOL     OW48181   4.881   2.637   5.212 -0.0997  0.1348 -0.2247
15868SOL    HW148182   4.842   2.569   5.158 -0.4203  1.0301 -1.1669
15868SOL    HW248183   4.975   2.633   5.195 -0.1091 -0.1184 -0.2122
15869SOL     OW48184   3.254   2.114   0.188  0.3461 -0.0353 -0.3883
15869SOL    HW148185   3.204   2.163   0.253 -0.4634  2.2125 -2.5313
15869SOL    HW248186   3.189   2.071   0.133  0.8554  0.4047 -1.3724
15870SOL     OW48187   2.972   3.171   6.369 -0.5613 -0.8747  0.1517
15870SOL    HW148188   3.056   3.136   6.398 -0.4355  0.8558  2.1115
15870SOL    HW248189   2.930   3.203   6.449 -1.8557  0.8348 -1.1243
15871SOL     OW48190   1.562   8.757   1.147 -0.3558 -0.7406  0.5245
15871SOL    HW148191   1.489   8.731   1.090  0.2714 -1.9194  0.2178
15871SOL    HW248192   1.630   8.691   1.131  0.6352  0.1056  1.0971
15872SOL     OW48193   6.294   5.949   3.929 -0.2145  0.2992  0.2859
15872SOL    HW148194   6.228   5.893   3.887  0.1270 -0.5451  0.8616
15872SOL    HW248195   6.308   6.020   3.866 -1.6436  0.4727  0.1321
15873SOL     OW48196   7.209   4.477   2.622 -0.1663  0.5283 -0.3248
15873SOL    HW148197   7.121   4.470   2.659 -0.7527  2.3125 -1.2734
15873SOL    HW248198   7.220   4.398   2.570 -1.2832  0.3718 -0.3385
15874SOL     OW48199   0.394   8.119   0.241 -0.5105  0.3252  0.3934
15874SOL    HW148200   0.377   8.078   0.325  2.5780  0.2985  1.1353
15874SOL    HW248201   0.377   8.051   0.176 -1.4069 -0.1416  1.1014
15875SOL     OW48202   1.650   3.719   4.848  0.3276  0.1577 -0.5927
15875SOL    HW148203   1.681   3.790   4.791  0.1324  0.4394 -0.3479
15875SOL    HW248204   1.624   3.762   4.929 -1.2869  0.0100 -0.9978
15876SOL     OW48205   0.792   1.778   1.637 -0.4139  0.0609  0.4246
15876SOL    HW148206   0.803   1.870   1.662 -2.0674  0.2622  0.5539
15876SOL    HW248207   0.702   1.757   1.663 -0.6424 -1.0868 -1.1372
15877SOL     OW48208   6.974   9.204   6.536  0.3423  0.2023  0.0966
15877SOL    HW148209   7.047   9.266   6.537  1.4467 -1.0069  2.2209
15877SOL    HW248210   6.914   9.237   6.604 -1.5767  1.6145 -2.1363
15878SOL     OW48211   1.486   9.038   4.517 -0.1170 -0.0519  0.1916
15878SOL    HW148212   1.573   9.028   4.554 -0.5080 -1.0472  0.8543
15878SOL    HW248213   1.442   9.099   4.576  0.4612  1.3304 -0.7531
15879SOL     OW48214   2.153   9.484   2.180 -0.4514  0.5378 -0.6946
15879SOL    HW148215   2.081   9.454   2.236 -1.0649  1.7197 -0.8379
15879SOL    HW248216   2.160   9.416   2.112 -0.7878 -0.0625 -0.1463
15880SOL     OW48217   5.109   1.901   8.901 -0.2173 -0.0056  0.4071
15880SOL    HW148218   5.121   1.925   8.809  0.3242  0.6032  0.6288
15880SOL    HW248219   5.112   1.806   8.902 -0.9567 -0.0383 -0.3040
15881SOL     OW48220   7.985   8.340   7.475  0.3567  0.0881 -0.7173
15881SOL    HW148221   7.914   8.386   7.430 -0.6498 -1.6073 -0.9454
15881SOL    HW248222   7.997   8.390   7.556 -0.4238  0.9707 -1.1153
15882SOL     OW48223   0.093   3.235   9.206 -0.1103  0.6894 -0.8167
15882SOL    HW148224   0.109   3.173   9.135 -0.3543  0.2537 -0.4977
15882SOL    HW248225   0.179   3.252   9.244 -0.1841 -0.4261 -0.1060
15883SOL     OW48226   6.518   8.265   3.220  0.4956  0.3904 -0.4388
15883SOL    HW148227   6.439   8.212   3.229  1.8402 -1.3924  2.4870
15883SOL    HW248228   6.494   8.352   3.250 -0.0411 -0.5863  2.2455
15884SOL     OW48229   5.751   4.144   9.972  0.0715  0.4177 -0.1148
15884SOL    HW148230   5.809   4.196   9.916 -0.8985 -0.8479 -2.4684
15884SOL    HW248231   5.802   4.066   9.993 -0.8371 -1.0178 -2.7500
15885SOL     OW48232   5.036   3.074   3.983  0.1700 -0.0520 -0.3170
15885SOL    HW148233   5.040   3.139   3.913 -2.2275  1.5563  0.8623
15885SOL    HW248234   5.108   3.098   4.042 -0.4824  1.4032 -0.0666
15886SOL     OW48235   3.720   3.220   0.792 -0.1163  0.1461 -0.3114
15886SOL    HW148236   3.649   3.270   0.752  0.1789 -0.1094 -1.1827
15886SOL    HW248237   3.705   3.130   0.762 -0.6448 -0.3156  1.2358
15887SOL     OW48238   7.049   7.099   0.254  0.5343  0.1446  0.5904
15887SOL    HW148239   6.962   7.118   0.219  1.3222  0.1592 -1.4671
15887SOL    HW248240   7.042   7.122   0.347 -1.8288 -0.4690  0.6349
15888SOL     OW48241   0.117   0.692   2.799 -0.0024 -0.1928  0.4583
15888SOL    HW148242   0.077   0.774   2.770  0.5700 -0.2903 -0.6890
15888SOL    HW248243   0.205   0.717   2.828  0.2011 -0.4026  0.0328
15889SOL     OW48244   6.691   2.474   6.204  0.1033  0.0992  0.2961
15889SOL    HW148245   6.773   2.425   6.194 -0.4103 -0.7713  0.2404
15889SOL    HW248246   6.627   2.408   6.232 -0.2752  1.0145  1.7019
15890SOL     OW48247   1.249   1.788   4.065 -0.3361  0.3246  0.2826
15890SOL    HW148248   1.296   1.780   4.148  0.6712 -0.6941 -0.3437
15890SOL    HW248249   1.221   1.699   4.045  0.9016  0.2398 -1.2671
15891SOL     OW48250   8.356   4.777   5.978  0.8027 -0.0810  0.0273
15891SOL    HW148251   8.444   4.740   5.977  0.8148 -0.0814  0.9314
15891SOL    HW248252   8.363   4.855   5.922  1.7650  0.7626  1.2516
15892SOL     OW48253   2.501   2.439   1.323 -0.0676  0.3297  0.0350
15892SOL    HW148254   2.561   2.412   1.393 -3.0537 -0.2431  2.5655
15892SOL    HW248255   2.482   2.531   1.343 -2.0583 -0.2384  0.9392
15893SOL     OW48256   8.171   6.143   0.347  0.1289 -0.2850 -0.4860
15893SOL    HW148257   8.088   6.151   0.394 -0.4510 -1.5441 -1.2495
15893SOL    HW248258   8.237   6.175   0.408 -0.9947  1.6383 -0.1990
15894SOL     OW48259   0.646   8.024   5.060  1.1277  0.5407 -0.3393
15894SOL    HW148260   0.627   7.991   5.148 -1.6110  0.1052 -0.9910
15894SOL    HW248261   0.697   8.103   5.074  0.8356  0.4142  1.6375
15895SOL     OW48262   9.481   6.429   6.798  0.3591  0.3629  0.1530
15895SOL    HW148263   9.430   6.510   6.801 -1.2129 -0.5389 -0.9786
15895SOL    HW248264   9.453   6.380   6.876  0.7758  0.5729  0.4427
15896SOL     OW48265   5.472   3.517   2.242  0.3784  0.2720  0.5225
15896SOL    HW148266   5.532   3.468   2.299 -0.0114 -0.2228  0.5151
15896SOL    HW248267   5.428   3.578   2.300 -1.0613 -1.2002  1.0574
15897SOL     OW48268   1.709   3.146   8.099 -0.4403  0.1724  0.3908
15897SOL    HW148269   1.676   3.058   8.077 -0.9642  0.4665 -0.0204
15897SOL    HW248270   1.770   3.166   8.028  2.3830 -1.2506  2.2193
15898SOL     OW48271   7.775   8.883   8.642  0.1610  0.1352  0.6336
15898SOL    HW148272   7.739   8.801   8.676  1.0122  0.0118  1.2630
15898SOL    HW248273   7.771   8.944   8.717  0.0622  0.4963  0.3361
15899SOL     OW48274   5.742   8.083   5.183  0.2812 -0.1382  0.0238
15899SOL    HW148275   5.693   8.030   5.120 -1.1163 -1.1242  1.8309
15899SOL    HW248276   5.738   8.172   5.149 -0.9625 -0.5453 -0.9577
15900SOL     OW48277   0.834   4.509   8.615  0.3825  0.2735 -0.0246
15900SOL    HW148278   0.763   4.560   8.576 -1.9609 -2.2803  0.5682
15900SOL    HW248279   0.790   4.445   8.671  2.8607 -3.4119 -1.8532
15901SOL     OW48280   6.938   5.759   8.156 -0.2678 -0.2156 -0.6701
15901SOL    HW148281   6.866   5.710   8.195  0.4242 -0.6144  0.1356
15901SOL    HW248282   6.976   5.808   8.229  1.8579 -1.9533 -0.5061
15902SOL     OW48283   2.847   7.712   2.333 -0.5348  0.2415 -0.2970
15902SOL    HW148284   2.939   7.712   2.304 -0.3972  3.7979 -0.3557
15902SOL    HW248285   2.803   7.770   2.271 -2.8037 -1.0795 -0.0302
15903SOL     OW48286   2.832   4.644   7.355  0.2832  0.1496  0.2465
15903SOL    HW148287   2.753   4.634   7.300  0.1150  0.2646  0.4672
15903SOL    HW248288   2.861   4.554   7.370 -0.6724  0.0183  1.4101
15904SOL     OW48289   0.575   7.403   2.975  0.3678 -0.1105 -0.1789
15904SOL    HW148290   0.485   7.369   2.972  0.7546 -1.1289 -0.9063
15904SOL    HW248291   0.596   7.406   3.068  0.3979 -2.1779 -0.0761
15905SOL     OW48292   4.549   4.761   1.509 -0.0961 -0.4115  0.0931
15905SOL    HW148293   4.528   4.816   1.584  0.2101 -0.1044 -0.0475
15905SOL    HW248294   4.643   4.742   1.518 -0.4247 -1.8908  0.7925
15906SOL     OW48295   4.763   3.817   2.071  0.0890  0.2884  0.0787
15906SOL    HW148296   4.700   3.883   2.044  1.2589  0.3560 -2.8917
15906SOL    HW248297   4.807   3.791   1.990  0.2021 -3.6371  1.1997
15907SOL     OW48298   6.570   2.728   3.299  0.6551 -0.1952 -0.0115
15907SOL    HW148299   6.510   2.776   3.355  1.1856  0.0188  0.3807
15907SOL    HW248300   6.571   2.639   3.334  3.3866  0.6152  2.3910
15908SOL     OW48301   0.803   6.587   2.460 -0.9715 -0.0963  0.9438
15908SOL    HW148302   0.847   6.672   2.464  0.4931 -0.6153 -1.7281
15908SOL    HW248303   0.869   6.523   2.487 -1.5015 -0.5498  1.1979
15909SOL     OW48304   1.904   6.175   2.101  0.2005  0.4180  0.2417
15909SOL    HW148305   1.911   6.108   2.169  0.8736 -0.9785 -1.1383
15909SOL    HW248306   1.952   6.139   2.027 -1.1247  1.5622 -1.2432
15910SOL     OW48307   7.180   9.609   8.454  0.8111  0.0585 -0.2717
15910SOL    HW148308   7.264   9.576   8.483 -0.1125 -1.4745  0.7779
15910SOL    HW248309   7.175   9.583   8.362  0.7411 -1.4906  0.1400
15911SOL     OW48310   4.250   1.765   6.483  0.1788  0.7061 -0.1825
15911SOL    HW148311   4.211   1.682   6.456 -0.2383  0.9244 -0.2582
15911SOL    HW248312   4.247   1.764   6.578 -1.6543  1.4834 -0.2030
15912SOL     OW48313   7.330   0.086   3.686  0.2288  0.5054  0.3547
15912SOL    HW148314   7.403   0.147   3.694  0.7916 -0.2491  1.3391
15912SOL    HW248315   7.370   0.006   3.650 -0.0548  0.0162  1.0965
15913SOL     OW48316   2.243   6.607   1.269  0.2342  0.0303 -0.0560
15913SOL    HW148317   2.164   6.559   1.294 -0.3789  1.5158  0.9859
15913SOL    HW248318   2.228   6.632   1.178 -0.3613 -0.0017  0.0289
15914SOL     OW48319   3.666   1.252   5.006  0.6472  0.1722  0.4986
15914SOL    HW148320   3.671   1.230   4.913  1.6539 -0.0533  0.5901
15914SOL    HW248321   3.733   1.197   5.047 -0.8383 -0.9097  1.5894
15915SOL     OW48322   7.545   0.839   8.383 -0.3651 -0.5432 -0.0375
15915SOL    HW148323   7.597   0.862   8.460 -0.9625  1.0730 -0.0827
15915SOL    HW248324   7.457   0.870   8.403 -0.5339 -0.1198 -1.3522
15916SOL     OW48325   9.071   9.880   9.650 -0.2790  0.5136  0.0202
15916SOL    HW148326   9.120   9.841   9.722 -2.7087 -1.1868  0.8910
15916SOL    HW248327   9.056   9.971   9.676  1.6208  0.8331  0.0943
15917SOL     OW48328   5.133   3.987   9.384  0.1439 -0.0139  0.3846
15917SOL    HW148329   5.129   3.904   9.336  2.5112 -0.0223  0.0762
15917SOL    HW248330   5.092   4.050   9.325  2.6868 -0.0888 -1.6698
15918SOL     OW48331   5.681   8.430   5.655  0.1641  0.1003  0.2365
15918SOL    HW148332   5.701   8.511   5.607 -1.5068  0.5201  0.1988
15918SOL    HW248333   5.744   8.366   5.622  1.5855  1.3876  0.3310
15919SOL     OW48334   7.215   4.622   7.640  0.2494  0.3900 -0.2654
15919SOL    HW148335   7.309   4.636   7.655  0.4797  1.3145 -2.1561
15919SOL    HW248336   7.176   4.709   7.648 -1.0559 -0.3612  3.5297
15920SOL     OW48337   7.646   0.264   6.146 -0.0901  0.1262 -0.1068
15920SOL    HW148338   7.610   0.254   6.058 -2.1882 -0.7859  0.7939
15920SOL    HW248339   7.656   0.175   6.179 -2.3324  0.4525  1.6740
15921SOL     OW48340   4.057   6.879   4.848  0.4634  0.7485 -0.5371
15921SOL    HW148341   4.059   6.789   4.880 -0.7884  1.2776  1.2127
15921SOL    HW248342   4.149   6.902   4.833  0.8136 -0.7226 -0.7562
15922SOL     OW48343   0.875   8.052   0.569 -0.1527  0.1015  0.5697
15922SOL    HW148344   0.815   8.092   0.507  0.2636 -0.1313  0.0027
15922SOL    HW248345   0.961   8.087   0.546  0.4473 -2.0877 -0.8364
15923SOL     OW48346   0.808   6.625   9.404  0.1950  0.2286 -0.5296
15923SOL    HW148347   0.824   6.719   9.396 -2.1395  0.9221  1.6862
15923SOL    HW248348   0.856   6.599   9.482  0.0054 -0.2142 -0.5556
15924SOL     OW48349   5.542   9.330   0.501 -0.4248  0.2911 -0.1912
15924SOL    HW148350   5.631   9.352   0.528  0.0654 -1.5999 -0.1229
15924SOL    HW248351   5.501   9.414   0.483  1.3289  1.2143 -0.0858
15925SOL     OW48352   4.259   7.156   5.445 -1.2175 -0.0340 -0.4772
15925SOL    HW148353   4.316   7.227   5.417  0.2402 -0.3323  1.5329
15925SOL    HW248354   4.206   7.194   5.515 -0.3946 -0.8872  0.6503
15926SOL     OW48355   6.402   4.629   4.369  0.2394 -0.4557 -0.0768
15926SOL    HW148356   6.330   4.661   4.316 -0.9059 -0.2485  1.5392
15926SOL    HW248357   6.471   4.695   4.360  0.2197 -0.5915 -1.5160
15927SOL     OW48358   3.474   3.214   8.391  0.6731 -0.2817  0.0891
15927SOL    HW148359   3.545   3.189   8.450  0.5239  1.0076  0.8588
15927SOL    HW248360   3.426   3.281   8.439 -1.4595 -1.5506 -0.1488
15928SOL     OW48361   9.380   8.589   3.799 -0.1893 -0.5873 -0.2504
15928SOL    HW148362   9.320   8.650   3.756  0.0064 -1.0774 -1.2729
15928SOL    HW248363   9.363   8.599   3.892 -2.6533 -1.4624 -0.5210
15929SOL     OW48364   2.809   4.240   9.732 -0.1688 -0.2161 -0.5483
15929SOL    HW148365   2.890   4.205   9.695  0.6418  0.6081  0.3944
15929SOL    HW248366   2.835   4.277   9.817 -2.1258 -2.9046  1.3723
15930SOL     OW48367   0.318   5.632   7.372 -0.0403 -0.3420 -0.1497
15930SOL    HW148368   0.356   5.590   7.449 -0.8656  0.6503  0.8262
15930SOL    HW248369   0.258   5.698   7.407 -0.3137  0.2496 -1.6453
15931SOL     OW48370   6.984   5.645   2.165  0.4276  0.2413 -0.4100
15931SOL    HW148371   6.898   5.644   2.123 -0.4098  0.2065  1.2337
15931SOL    HW248372   6.991   5.560   2.208  0.6443  0.7920  0.6789
15932SOL     OW48373   6.641   5.344   0.481  0.6237  0.2530 -0.4616
15932SOL    HW148374   6.721   5.294   0.500  0.4185  0.1477  0.1504
15932SOL    HW248375   6.626   5.396   0.560 -0.5284 -0.5638 -0.1095
15933SOL     OW48376   2.013   4.450   4.767  0.2753 -0.4339 -0.3055
15933SOL    HW148377   2.067   4.525   4.794  0.7177 -0.8925  0.1246
15933SOL    HW248378   2.040   4.380   4.826 -0.0508 -0.9635 -0.7791
15934SOL     OW48379   7.909   4.744   4.142 -0.4903  0.2602  0.1416
15934SOL    HW148380   7.927   4.794   4.062  1.0187  0.7005  0.7169
15934SOL    HW248381   7.897   4.811   4.209  0.9222 -0.1007  0.7956
15935SOL     OW48382   2.410   6.340   4.511  0.2383  0.3778  0.2158
15935SOL    HW148383   2.460   6.306   4.436 -0.8115 -0.3696 -0.1763
15935SOL    HW248384   2.435   6.432   4.517  1.0233  0.2229 -0.4824
15936SOL     OW48385   8.878   1.947   4.445  0.1270 -0.4667 -0.2906
15936SOL    HW148386   8.792   1.987   4.429  0.5176 -0.1283 -1.6437
15936SOL    HW248387   8.908   1.988   4.526 -1.2282 -1.0273  0.5326
15937SOL     OW48388   6.983   1.474   3.850  0.2276 -0.4345  0.0184
15937SOL    HW148389   6.969   1.424   3.770  1.2540 -0.2311 -0.3023
15937SOL    HW248390   7.026   1.555   3.820  0.6033 -0.3517  0.7649
15938SOL     OW48391   4.468   1.940   7.003 -0.2360  0.3294  0.4369
15938SOL    HW148392   4.546   1.955   6.950 -0.6917 -0.2145 -0.4030
15938SOL    HW248393   4.399   1.990   6.959 -0.7926 -0.7408  0.0463
15939SOL     OW48394   2.786   6.318   5.835  0.6824  0.1638 -0.1271
15939SOL    HW148395   2.724   6.329   5.763  0.3188 -0.2723  0.1118
15939SOL    HW248396   2.781   6.225   5.856  1.3440  0.1486 -0.0351
15940SOL     OW48397   4.438   7.237   4.507  0.4302  0.2875 -0.4086
15940SOL    HW148398   4.397   7.178   4.444  1.1211 -0.8498  0.1767
15940SOL    HW248399   4.373   7.307   4.520 -1.4561 -1.5337  0.6136
15941SOL     OW48400   2.396   9.451   4.904  0.1764  0.2936  0.0483
15941SOL    HW148401   2.335   9.386   4.939  0.9709 -0.8236 -0.5781
15941SOL    HW248402   2.373   9.533   4.949 -1.2957 -0.2591  0.3440
15942SOL     OW48403   3.956   7.053   6.671 -0.1410  0.2845 -0.2629
15942SOL    HW148404   3.880   6.999   6.646  0.5669  0.1892 -2.4602
15942SOL    HW248405   3.945   7.069   6.764 -2.4064 -0.4574 -0.3448
15943SOL     OW48406   8.568   0.637   0.157  0.6210  0.9036 -0.1501
15943SOL    HW148407   8.616   0.554   0.156  0.5317  0.8012  1.5373
15943SOL    HW248408   8.499   0.625   0.092 -1.3428 -1.6163  2.1664
15944SOL     OW48409   0.705   6.965   7.680  0.0605 -0.1200 -0.1732
15944SOL    HW148410   0.669   6.996   7.763  0.4064  1.2779 -0.5240
15944SOL    HW248411   0.662   6.881   7.665 -2.1387  0.8968  0.0264
15945SOL     OW48412   0.919   1.450   7.900 -0.1295 -0.2050  0.0856
15945SOL    HW148413   0.993   1.391   7.886 -1.1937 -1.4778 -0.3723
15945SOL    HW248414   0.941   1.529   7.851  0.8711 -0.6030 -0.1254
15946SOL     OW48415   9.253   5.652   8.408 -0.4740 -0.1040 -0.2026
15946SOL    HW148416   9.182   5.680   8.350  0.1859 -0.9527 -1.4837
15946SOL    HW248417   9.327   5.707   8.383  0.6072 -2.2666 -2.1966
15947SOL     OW48418   8.660   8.091   2.051 -0.0459 -0.0523 -0.3710
15947SOL    HW148419   8.730   8.111   2.113 -0.9193  2.7370 -0.1544
15947SOL    HW248420   8.704   8.074   1.968  0.9452  0.1972  0.0988
15948SOL     OW48421   4.396   1.205   5.091 -0.1900  0.0677 -0.0145
15948SOL    HW148422   4.309   1.233   5.120 -1.2477 -1.3404 -1.6455
15948SOL    HW248423   4.391   1.110   5.088  0.8131  0.0366 -1.8409
15949SOL     OW48424   2.178   5.147   2.058 -0.0078  0.3507  0.5108
15949SOL    HW148425   2.268   5.119   2.073  1.0499  3.1937  0.2090
15949SOL    HW248426   2.170   5.153   1.962 -0.4032  0.4441  0.5445
15950SOL     OW48427   3.951   7.076   3.746  0.2582  0.0133 -0.1069
15950SOL    HW148428   3.931   6.988   3.778  0.7219 -0.5395 -1.2761
15950SOL    HW248429   3.891   7.134   3.794 -0.0650 -0.9413  0.6582
15951SOL     OW48430   7.082   5.043   0.812 -0.7215  0.2965  0.1842
15951SOL    HW148431   7.072   5.030   0.718  2.2513  2.6695 -0.6358
15951SOL    HW248432   7.125   4.963   0.843  1.5376  0.8458 -1.2785
15952SOL     OW48433   2.557   8.194   3.351  0.8004  0.2036 -0.0159
15952SOL    HW148434   2.527   8.104   3.368 -2.1511  1.0164 -0.4043
15952SOL    HW248435   2.636   8.203   3.404 -0.1319 -1.8843  1.9171
15953SOL     OW48436   8.170   8.942   7.513 -0.4674  0.5800 -0.1630
15953SOL    HW148437   8.150   8.852   7.538 -1.1967  0.4116 -1.2908
15953SOL    HW248438   8.234   8.933   7.442 -1.1805  0.9054 -0.8641
15954SOL     OW48439   2.363   4.739   2.986 -0.0973  0.4347 -0.0843
15954SOL    HW148440   2.305   4.809   3.017 -0.0961  0.7211 -0.7113
15954SOL    HW248441   2.447   4.757   3.028  0.2094  1.4691 -1.1001
15955SOL     OW48442   7.374   1.013   1.229 -0.4301 -0.1611  0.1041
15955SOL    HW148443   7.366   0.921   1.255 -0.6003 -0.8153 -2.0556
15955SOL    HW248444   7.322   1.020   1.149 -0.0580  1.7228 -0.0187
15956SOL     OW48445   2.906   4.938   1.796 -0.2912  0.6624  0.0754
15956SOL    HW148446   2.824   4.963   1.754 -0.7370  0.3073  0.7248
15956SOL    HW248447   2.884   4.862   1.850  0.6851 -0.0669 -0.5313
15957SOL     OW48448   5.127   1.377   8.074 -0.0301  0.0558  0.2797
15957SOL    HW148449   5.075   1.303   8.107  1.5070 -0.3442  1.9671
15957SOL    HW248450   5.114   1.446   8.139  1.9297 -0.2578  1.1001
15958SOL     OW48451   9.383   1.960   2.848  0.0025 -0.3890 -1.0195
15958SOL    HW148452   9.475   1.931   2.854  0.4552  1.1244 -0.1670
15958SOL    HW248453   9.354   1.928   2.763  1.1340 -1.4054 -1.0643
15959SOL     OW48454   5.007   9.386   1.248 -0.2829 -0.5106 -0.5646
15959SOL    HW148455   4.926   9.356   1.206 -0.7678  1.5038 -1.1801
15959SOL    HW248456   5.040   9.309   1.294 -0.8196 -2.3126 -2.9563
15960SOL     OW48457   8.898   6.176   0.772 -0.6044 -0.3728 -0.8644
15960SOL    HW148458   8.917   6.091   0.812 -0.2652 -1.0020 -2.2970
15960SOL    HW248459   8.840   6.154   0.698  0.4596  0.4869 -1.9845
15961SOL     OW48460   5.892   9.820   9.567  0.3325  0.7032 -0.1728
15961SOL    HW148461   5.859   9.840   9.480  1.5114 -1.7256 -1.2722
15961SOL    HW248462   5.817   9.787   9.616  0.0170  0.3692 -0.8781
15962SOL     OW48463   3.818   5.376   0.664  0.2667  0.6340 -0.2237
15962SOL    HW148464   3.850   5.382   0.574  1.1704  0.6465  0.0819
15962SOL    HW248465   3.887   5.328   0.711 -0.1636  0.6770  0.4693
15963SOL     OW48466   4.084   8.754   4.839  0.0856 -0.0912 -0.4938
15963SOL    HW148467   4.122   8.759   4.927 -0.2835 -1.2725 -0.2562
15963SOL    HW248468   4.156   8.725   4.784 -0.1637 -1.2466 -0.2341
15964SOL     OW48469   5.345   0.776   8.161 -0.1144  0.6636 -0.5014
15964SOL    HW148470   5.277   0.785   8.095 -0.7224 -0.2115 -0.0191
15964SOL    HW248471   5.427   0.787   8.113 -0.5481  0.1933 -1.3751
15965SOL     OW48472   2.547   1.614   1.437 -0.2283  0.3268 -0.3690
15965SOL    HW148473   2.615   1.682   1.435 -1.4055  1.5404 -1.2114
15965SOL    HW248474   2.582   1.543   1.385  1.8710 -0.6205  2.1051
15966SOL     OW48475   3.281   4.022   4.441 -0.0970 -0.1774  0.4251
15966SOL    HW148476   3.214   4.043   4.507 -0.8094 -0.0978 -0.3084
15966SOL    HW248477   3.364   4.038   4.485 -0.5141 -1.4254  1.7712
15967SOL     OW48478   0.789   6.981   5.866  0.1125 -0.3244 -0.1014
15967SOL    HW148479   0.860   7.028   5.824 -0.3855 -0.7506 -1.4746
15967SOL    HW248480   0.725   6.966   5.797 -1.3752  0.1315  1.1140
15968SOL     OW48481   9.564   4.705   3.008  0.6622 -0.2007  0.9390
15968SOL    HW148482   9.631   4.705   2.940 -0.4597  1.1094 -0.2262
15968SOL    HW248483   9.518   4.622   2.997 -0.3151  0.5164 -0.7976
15969SOL     OW48484   8.617   1.896   2.526  0.2229  0.0590 -0.1001
15969SOL    HW148485   8.533   1.879   2.483  0.2377  1.0634 -0.5569
15969SOL    HW248486   8.654   1.969   2.476  2.0011 -1.2517 -0.7766
15970SOL     OW48487   1.464   3.492   3.725 -0.3948  0.4059 -0.0405
15970SOL    HW148488   1.549   3.526   3.751  0.5126 -1.3051 -0.5929
15970SOL    HW248489   1.467   3.490   3.629 -0.7655 -0.3239 -0.0478
15971SOL     OW48490   5.188   4.922   4.452  0.3153  0.1442 -0.2493
15971SOL    HW148491   5.265   4.975   4.433  1.1090 -0.8338  0.1809
15971SOL    HW248492   5.154   4.897   4.366 -0.3252  1.6597 -0.4799
15972SOL     OW48493   5.893   5.508   7.378 -0.0245  0.6496  0.0402
15972SOL    HW148494   5.895   5.525   7.472 -0.7195  1.0111 -0.0036
15972SOL    HW248495   5.880   5.594   7.338 -1.9359  0.2613 -0.2729
15973SOL     OW48496   9.406   0.087   4.117  0.2424 -0.1014 -0.6440
15973SOL    HW148497   9.367   0.108   4.202 -0.1958  1.6977 -1.2543
15973SOL    HW248498   9.459   0.008   4.134 -1.5685 -1.0860  0.7809
15974SOL     OW48499   5.656   8.885   6.530  0.2812 -0.2152  0.6045
15974SOL    HW148500   5.572   8.909   6.569  0.3177 -0.3140  0.7447
15974SOL    HW248501   5.702   8.968   6.519  0.4502 -0.2285  1.1861
15975SOL     OW48502   2.741   6.753   1.612  0.0980 -0.2934  0.3913
15975SOL    HW148503   2.730   6.752   1.517  0.5417 -1.9639  0.3234
15975SOL    HW248504   2.660   6.792   1.645 -0.5833 -0.7941 -0.6361
15976SOL     OW48505   0.300   6.548   1.058  0.0666 -0.1726  0.4610
15976SOL    HW148506   0.226   6.544   1.119 -0.3732  1.0450  0.0562
15976SOL    HW248507   0.259   6.543   0.971  0.2206  2.3215  0.1718
15977SOL     OW48508   3.116   4.692   0.185  0.0001 -0.2366 -0.5202
15977SOL    HW148509   3.199   4.654   0.156  0.3879 -0.9316  1.3065
15977SOL    HW248510   3.142   4.766   0.241 -0.6724  0.6813 -1.3929
15978SOL     OW48511   7.711   5.775   8.718  0.0684  0.6514 -0.4450
15978SOL    HW148512   7.747   5.749   8.633  1.1434  1.9529 -0.4029
15978SOL    HW248513   7.620   5.743   8.716  0.7453 -1.4044 -1.1292
15979SOL     OW48514   2.832   9.230   9.871  0.0053  0.6509  0.3179
15979SOL    HW148515   2.784   9.253   9.951  0.2422 -0.5382  0.8322
15979SOL    HW248516   2.920   9.207   9.902 -0.0267 -0.2438 -0.2299
15980SOL     OW48517   0.745   8.022   1.672  0.5810  0.1449  0.1656
15980SOL    HW148518   0.775   7.976   1.593  0.5192  0.2121  0.1026
15980SOL    HW248519   0.678   8.082   1.640 -0.2548 -0.6280  0.4295
15981SOL     OW48520   4.776   5.062   9.724 -0.2913 -0.2008 -0.2099
15981SOL    HW148521   4.831   4.999   9.769  1.0173  0.6436 -0.5545
15981SOL    HW248522   4.687   5.038   9.748  0.2859  0.9638  3.9420
15982SOL     OW48523   7.219   7.130   0.857  0.0010  0.2219 -0.3433
15982SOL    HW148524   7.259   7.189   0.921  1.7855 -0.7442 -0.4934
15982SOL    HW248525   7.201   7.185   0.781  0.9463  0.7447 -0.2096
15983SOL     OW48526   0.765   9.724   2.830 -0.6491  0.0373  0.3570
15983SOL    HW148527   0.781   9.816   2.853 -2.4587  0.6313 -0.5803
15983SOL    HW248528   0.693   9.727   2.767  0.2648 -1.9305 -0.8832
15984SOL     OW48529   9.390   0.834   5.500 -0.1157 -0.1743 -0.3835
15984SOL    HW148530   9.305   0.791   5.506 -0.6232  0.3539 -2.7525
15984SOL    HW248531   9.452   0.762   5.484 -0.1112 -0.5381  1.1447
15985SOL     OW48532   2.509   1.226   2.061  0.3949 -0.5139 -0.1941
15985SOL    HW148533   2.580   1.281   2.096 -1.2216  2.3056 -0.9625
15985SOL    HW248534   2.538   1.202   1.973  0.3124  0.9597 -0.6592
15986SOL     OW48535   2.930   1.868   5.664  0.3205 -0.0986 -0.0955
15986SOL    HW148536   2.984   1.877   5.743  0.3280  1.7240 -0.2614
15986SOL    HW248537   2.974   1.800   5.612  1.0825 -0.3436  0.8425
15987SOL     OW48538   7.525   6.614   6.858  0.6090  0.4240 -0.1590
15987SOL    HW148539   7.559   6.527   6.881 -1.0504 -0.2639 -0.1649
15987SOL    HW248540   7.501   6.607   6.766  0.6452  0.9522 -0.2108
15988SOL     OW48541   2.284   5.996   1.265  0.0434 -0.1994  0.9916
15988SOL    HW148542   2.359   5.993   1.206  0.3825  0.4844  1.3764
15988SOL    HW248543   2.214   5.951   1.217  0.8623 -1.3746  0.8816
15989SOL     OW48544   9.358   5.611   8.968  0.1757  0.1403 -0.0605
15989SOL    HW148545   9.327   5.557   8.896 -0.2976 -1.5006  1.3113
15989SOL    HW248546   9.437   5.653   8.935 -0.5519  0.1857 -1.8275
15990SOL     OW48547   5.242   4.299   0.161 -0.1848  0.3354 -0.2585
15990SOL    HW148548   5.317   4.338   0.115  1.1690  2.8537  3.5771
15990SOL    HW248549   5.175   4.368   0.160 -0.3196  0.2469  0.9420
15991SOL     OW48550   1.574   7.312   9.948  0.2298  0.3003  0.8211
15991SOL    HW148551   1.492   7.306   9.901  2.1557 -1.7966 -2.6443
15991SOL    HW248552   1.600   7.221   9.964  2.1123  0.8790  1.3741
15992SOL     OW48553   5.571   2.122   8.715  0.2032  0.2263 -0.1920
15992SOL    HW148554   5.642   2.137   8.653  0.5422 -0.2772  0.0740
15992SOL    HW248555   5.570   2.201   8.770  0.2883  0.4088 -0.4508
15993SOL     OW48556   1.592   4.498   0.431 -0.3613 -0.1668  0.3033
15993SOL    HW148557   1.676   4.492   0.475  0.0464  2.3358 -0.0230
15993SOL    HW248558   1.536   4.545   0.492 -0.9613 -0.1585 -0.2409
15994SOL     OW48559   1.491   6.336   8.550 -0.0201  0.1804 -0.3097
15994SOL    HW148560   1.576   6.370   8.578 -0.8311  0.2222  2.3337
15994SOL    HW248561   1.510   6.287   8.470  2.4809  0.2172  0.1860
15995SOL     OW48562   9.126   5.896   4.788  0.1117 -0.1062 -0.2334
15995SOL    HW148563   9.117   5.991   4.790  0.9762 -0.0180 -0.0738
15995SOL    HW248564   9.194   5.877   4.853 -1.3635 -1.0039  1.1532
15996SOL     OW48565   9.313   8.189   5.020 -0.5809 -0.0639  0.0402
15996SOL    HW148566   9.389   8.246   5.028  0.3104 -1.1435 -0.4321
15996SOL    HW248567   9.256   8.233   4.957  0.6877 -0.2964 -1.3228
15997SOL     OW48568   1.456   7.085   6.122  0.0790 -0.0748  0.5600
15997SOL    HW148569   1.370   7.077   6.083  0.1551 -1.2125  0.5684
15997SOL    HW248570   1.511   7.124   6.054 -0.1061 -0.7423  0.0212
15998SOL     OW48571   3.525   7.148   1.510  0.4135  0.5356  0.5859
15998SOL    HW148572   3.568   7.063   1.501 -0.6190  0.1840 -1.7997
15998SOL    HW248573   3.596   7.211   1.516  1.2650 -0.2409 -0.9195
15999SOL     OW48574   0.255   8.861   9.110  0.0384 -0.0140  0.1877
15999SOL    HW148575   0.251   8.810   9.192 -1.8897 -0.8918 -0.3694
15999SOL    HW248576   0.163   8.876   9.088  0.5282  0.4461 -1.6832
16000SOL     OW48577   8.855   8.967   0.335 -0.1048  0.1311  0.1576
16000SOL    HW148578   8.905   8.885   0.340  0.4567  0.5663  3.2510
16000SOL    HW248579   8.918   9.032   0.306  0.0613 -0.0988 -0.0030
16001SOL     OW48580   2.784   5.453   5.050 -0.6050 -0.0553 -0.3919
16001SOL    HW148581   2.875   5.464   5.024 -0.2623  0.7372  1.0668
16001SOL    HW248582   2.756   5.372   5.006  1.4584 -1.5447  0.8795
16002SOL     OW48583   3.206   2.742   7.168  0.4970  0.1652  0.0947
16002SOL    HW148584   3.268   2.684   7.125 -0.4641  0.6366 -2.0459
16002SOL    HW248585   3.123   2.694   7.167  0.1921  0.6772  0.3423
16003SOL     OW48586   2.515   2.406   3.006 -0.0324  0.2300 -0.0288
16003SOL    HW148587   2.429   2.374   3.033  0.5022 -1.3526 -0.0803
16003SOL    HW248588   2.557   2.431   3.088 -0.8956  2.0531 -0.0948
16004SOL     OW48589   1.804   5.501   0.088 -0.1379  0.3319 -0.4572
16004SOL    HW148590   1.860   5.568   0.127  0.3011  1.0106 -2.1656
16004SOL    HW248591   1.718   5.515   0.129  0.7063 -0.2433  1.6365
16005SOL     OW48592   7.027   8.969   3.951  0.3655  0.5839  0.1123
16005SOL    HW148593   6.951   8.959   4.008  0.6960 -1.1319  0.2961
16005SOL    HW248594   7.081   8.892   3.969  0.9911  0.5427 -1.7421
16006SOL     OW48595   2.106   3.366   2.524 -0.0862  0.5424 -0.3627
16006SOL    HW148596   2.016   3.373   2.492  0.7577 -0.4075 -3.2483
16006SOL    HW248597   2.135   3.457   2.536 -0.5797  0.9606 -2.1147
16007SOL     OW48598   6.244   8.718   4.640 -0.6558  0.6704 -0.2801
16007SOL    HW148599   6.262   8.808   4.668  1.2740  0.5016 -0.8702
16007SOL    HW248600   6.305   8.702   4.568 -0.1662 -1.4609  0.5239
16008SOL     OW48601   2.715   3.090   1.777 -0.6329  0.4863 -0.9465
16008SOL    HW148602   2.741   3.117   1.865  1.9016 -1.5598 -0.9645
16008SOL    HW248603   2.630   3.048   1.789  0.5717 -1.6194  0.9687
16009SOL     OW48604   8.053   0.152   4.576  0.0883  0.0742  0.0980
16009SOL    HW148605   8.051   0.077   4.636  1.4407 -1.8207 -2.0504
16009SOL    HW248606   8.127   0.135   4.518  1.2321  3.7669  0.2313
16010SOL     OW48607   2.857   1.647   8.532 -0.2283  0.0797  0.0750
16010SOL    HW148608   2.830   1.571   8.480  0.8596 -0.5958  0.4605
16010SOL    HW248609   2.951   1.654   8.517 -0.0362  0.3764  1.2889
16011SOL     OW48610   7.471   1.169   2.572 -0.4764 -0.3262 -0.2037
16011SOL    HW148611   7.407   1.223   2.526 -0.1766  1.2370  1.1512
16011SOL    HW248612   7.508   1.112   2.504 -2.6442 -0.6527 -1.1803
16012SOL     OW48613   2.797   2.735   6.982  0.0049 -0.1322 -0.3725
16012SOL    HW148614   2.769   2.679   7.055  1.3740  0.9014  1.0183
16012SOL    HW248615   2.881   2.698   6.955  0.7319  0.9684  0.3039
16013SOL     OW48616   3.974   4.163   2.257  0.2135 -0.3765 -0.1798
16013SOL    HW148617   3.972   4.242   2.310  0.8559 -0.8397  0.5709
16013SOL    HW248618   4.064   4.132   2.264  0.1402 -0.8123 -1.0144
16014SOL     OW48619   8.498   1.292   2.056 -1.0660  0.0314 -0.2420
16014SOL    HW148620   8.466   1.312   2.144 -0.0870  0.4908  0.0324
16014SOL    HW248621   8.594   1.292   2.066 -0.9674 -1.9427 -0.8710
16015SOL     OW48622   8.161   8.607   1.802 -1.0009  0.0154 -0.0520
16015SOL    HW148623   8.244   8.568   1.827 -1.0692  0.1260  0.3553
16015SOL    HW248624   8.180   8.701   1.794 -1.2676  0.1458  0.8282
16016SOL     OW48625   0.546   2.852   7.343 -0.2195 -0.0995  0.2766
16016SOL    HW148626   0.529   2.778   7.284 -0.8510  0.6125 -0.4545
16016SOL    HW248627   0.462   2.866   7.388 -0.1188  0.2160  0.3674
16017SOL     OW48628   0.076   3.048   6.654  0.1371 -0.4917 -0.2464
16017SOL    HW148629   0.057   3.135   6.618 -0.0344 -0.1634  0.5981
16017SOL    HW248630   0.077   2.990   6.578 -0.5286  0.1180 -0.7332
16018SOL     OW48631   1.955   1.967   5.885 -0.0828  0.3070  0.1827
16018SOL    HW148632   1.940   1.907   5.958  0.0930  1.8362  1.5429
16018SOL    HW248633   1.871   1.970   5.839 -0.7443  0.6623  1.3830
16019SOL     OW48634   3.666   8.303   7.372  0.3712  0.9397 -0.4704
16019SOL    HW148635   3.700   8.329   7.286  1.5447  1.7956  0.2125
16019SOL    HW248636   3.572   8.292   7.359  0.3433  2.2373 -1.6037
16020SOL     OW48637   6.076   1.215   8.785  0.0971  0.0909 -0.2924
16020SOL    HW148638   6.085   1.183   8.875 -0.4269  1.8635  0.4248
16020SOL    HW248639   6.150   1.175   8.738  1.4082  0.5027  1.3282
16021SOL     OW48640   3.138   7.251   9.256  0.1823  0.2306 -0.6056
16021SOL    HW148641   3.186   7.181   9.212  2.6299  0.2367  1.7867
16021SOL    HW248642   3.118   7.314   9.187 -0.3982 -1.8981 -2.4831
16022SOL     OW48643   2.731   2.628   2.988 -0.3566 -0.4549 -0.3018
16022SOL    HW148644   2.699   2.718   2.976  2.4538  0.6602 -0.2770
16022SOL    HW248645   2.741   2.594   2.899  1.1195  0.2908 -0.4464
16023SOL     OW48646   2.874   0.726   0.669  0.7969  0.1426  0.0488
16023SOL    HW148647   2.872   0.778   0.588 -0.4787 -0.5321 -0.3792
16023SOL    HW248648   2.954   0.674   0.662  1.1538  0.7266 -0.3562
16024SOL     OW48649   1.264   5.535   4.152  0.2132  0.5547 -0.3071
16024SOL    HW148650   1.282   5.565   4.242  1.6017  0.9202 -0.6749
16024SOL    HW248651   1.234   5.614   4.106  1.4182  0.8491 -0.6358
16025SOL     OW48652   4.797   8.893   9.460  0.3959 -0.0637  0.1384
16025SOL    HW148653   4.739   8.849   9.398 -0.6410  3.5051 -1.7131
16025SOL    HW248654   4.841   8.822   9.507 -1.2845 -2.9572 -2.3133
16026SOL     OW48655   9.224   8.148   8.309 -0.4804 -0.2926  0.1504
16026SOL    HW148656   9.218   8.060   8.273  0.1926 -0.2524 -0.0604
16026SOL    HW248657   9.224   8.134   8.404  0.1494 -0.5516  0.1126
16027SOL     OW48658   8.849   5.653   6.950 -0.2877 -0.5533 -0.2942
16027SOL    HW148659   8.924   5.602   6.921  1.2549  1.3591  0.1153
16027SOL    HW248660   8.800   5.672   6.870 -0.0782 -1.4357 -0.6368
16028SOL     OW48661   8.086   5.041   4.029 -0.0963 -0.0177 -0.8993
16028SOL    HW148662   8.108   5.122   3.983 -1.0436 -0.2382 -1.7649
16028SOL    HW248663   7.999   5.018   3.997 -1.3538  0.4415  1.9146
16029SOL     OW48664   9.823   2.769   3.484 -0.1278  0.5563 -0.1650
16029SOL    HW148665   9.751   2.792   3.425  0.8265 -0.6221 -1.9003
16029SOL    HW248666   9.902   2.792   3.435  0.7019  0.7336  1.2081
16030SOL     OW48667   1.255   7.417   7.502 -0.4282  0.2169 -0.3126
16030SOL    HW148668   1.314   7.342   7.498  0.3263  0.5022  2.7869
16030SOL    HW248669   1.278   7.470   7.426  1.7107 -0.8375 -0.4705
16031SOL     OW48670   0.017   3.175   8.748  0.7362 -0.1632 -0.4770
16031SOL    HW148671   0.068   3.172   8.830  1.4918  1.0622 -0.8772
16031SOL    HW248672   0.033   3.090   8.707  2.4490  0.1639 -0.5624
16032SOL     OW48673   9.102   3.288   7.269  0.1244 -0.0751 -0.7025
16032SOL    HW148674   9.075   3.368   7.315  0.9100 -0.9280  1.3963
16032SOL    HW248675   9.083   3.218   7.332  0.1536 -1.4740 -2.2022
16033SOL     OW48676   1.403   5.566   6.019  0.0460 -0.6710  0.7985
16033SOL    HW148677   1.400   5.478   5.981 -1.4750 -0.2971 -0.0108
16033SOL    HW248678   1.470   5.560   6.088  1.2860 -1.9551 -0.4547
16034SOL     OW48679   6.768   0.431   0.670  0.8323  0.4130 -0.3237
16034SOL    HW148680   6.857   0.468   0.671  2.5492 -3.1777  2.3225
16034SOL    HW248681   6.745   0.422   0.763 -1.5549 -0.4380 -0.9286
16035SOL     OW48682   8.915   6.458   0.093  0.3907  0.5482 -0.0429
16035SOL    HW148683   8.842   6.500   0.139 -0.4346  1.7054 -2.2647
16035SOL    HW248684   8.968   6.419   0.163 -1.9968  0.2106  1.6878
16036SOL     OW48685   8.174   2.753   3.255  0.0720 -0.3519  0.3883
16036SOL    HW148686   8.221   2.835   3.242 -1.2895  0.6779  1.5476
16036SOL    HW248687   8.188   2.704   3.174  0.2867  1.3604 -0.6693
16037SOL     OW48688   0.435   8.204   6.615  0.2627 -0.0949  0.5864
16037SOL    HW148689   0.493   8.238   6.683  3.1688  3.7008 -3.2360
16037SOL    HW248690   0.358   8.260   6.618  0.2367 -0.1471  0.9134
16038SOL     OW48691   1.229   0.757   0.976 -0.0186  0.7815 -0.5065
16038SOL    HW148692   1.181   0.694   0.921  1.1364  0.9201 -1.7154
16038SOL    HW248693   1.185   0.752   1.061 -0.2649 -1.3237 -0.6895
16039SOL     OW48694   9.129   4.069   4.376  0.0419 -0.4481  0.2772
16039SOL    HW148695   9.089   4.154   4.395  1.7652  0.1506  1.4139
16039SOL    HW248696   9.212   4.070   4.423  1.2383 -1.8102 -1.6523
16040SOL     OW48697   0.907   7.868   3.172 -0.6431  0.0263  0.4287
16040SOL    HW148698   0.977   7.915   3.126 -0.4641  0.1705  0.8442
16040SOL    HW248699   0.953   7.807   3.230 -0.8776 -1.1070 -0.5518
16041SOL     OW48700   4.043   2.766   6.617  0.6339  0.2634 -0.2068
16041SOL    HW148701   4.052   2.760   6.522 -0.9069 -1.0124 -0.2958
16041SOL    HW248702   4.100   2.697   6.651  1.2257  0.7540 -0.1801
16042SOL     OW48703   8.362   5.421   9.404  0.1376 -0.1150 -0.4364
16042SOL    HW148704   8.320   5.468   9.476 -0.9631 -2.6655  0.6986
16042SOL    HW248705   8.380   5.334   9.439  3.0624 -0.3015 -2.0971
16043SOL     OW48706   6.554   4.136   3.152  0.1165  0.1458 -0.0931
16043SOL    HW148707   6.505   4.182   3.084  0.5318  0.5411 -0.1334
16043SOL    HW248708   6.645   4.162   3.137  0.2623 -0.0883  0.3617
16044SOL     OW48709   0.164   1.048   5.490 -0.0889 -0.2828 -0.2151
16044SOL    HW148710   0.243   1.024   5.442 -0.2398 -0.4476 -0.3825
16044SOL    HW248711   0.094   1.043   5.425 -0.0927  0.8744 -0.3187
16045SOL     OW48712   5.070   4.498   0.192  0.0446 -0.0475  0.4368
16045SOL    HW148713   5.062   4.594   0.199  0.9811 -0.0105  1.4652
16045SOL    HW248714   4.996   4.464   0.242  1.0793  0.1916  2.2267
16046SOL     OW48715   7.909   2.790   5.621  0.2256 -0.2296 -0.0954
16046SOL    HW148716   7.920   2.738   5.700  2.6561 -1.9075 -1.4058
16046SOL    HW248717   7.844   2.743   5.569  0.7515 -0.7415 -0.3016
16047SOL     OW48718   7.177   4.128   9.998 -0.0080 -0.1082  0.2485
16047SOL    HW148719   7.096   4.178   9.991  0.3128  0.4978  0.7733
16047SOL    HW248720   7.173   4.065   9.925  0.6050  2.1418 -1.8465
16048SOL     OW48721   2.910   7.608   1.594 -0.4156 -0.3665  0.3509
16048SOL    HW148722   2.830   7.557   1.581  0.4699 -1.4970 -0.8464
16048SOL    HW248723   2.925   7.651   1.510 -0.2277  0.5581  0.8403
16049SOL     OW48724   4.984   3.693   6.244 -0.8895 -0.3905 -0.0022
16049SOL    HW148725   4.904   3.697   6.297 -1.0191 -0.8913 -0.1607
16049SOL    HW248726   5.054   3.679   6.307 -1.1155 -1.6797 -0.0077
16050SOL     OW48727   9.210   8.456   5.312  0.4640 -0.0007 -0.2921
16050SOL    HW148728   9.189   8.362   5.305 -0.8407  0.1663  0.9208
16050SOL    HW248729   9.210   8.487   5.221 -3.6548 -0.2879 -0.5863
16051SOL     OW48730   1.384   6.167   1.766  0.5673  0.3015  0.1055
16051SOL    HW148731   1.478   6.158   1.752  0.5315  1.6599 -1.3347
16051SOL    HW248732   1.376   6.216   1.848  1.0524 -0.8824  0.8832
16052SOL     OW48733   8.311   3.490   2.819 -0.5811  0.0869  0.4469
16052SOL    HW148734   8.337   3.574   2.856 -2.1753  1.2045 -0.8206
16052SOL    HW248735   8.256   3.450   2.885  0.3065 -0.0525  1.1187
16053SOL     OW48736   9.476   0.865   4.568  0.1926  0.6888 -0.6503
16053SOL    HW148737   9.403   0.920   4.543 -1.3702 -1.2262 -0.4931
16053SOL    HW248738   9.519   0.842   4.486 -0.3168  0.5683 -0.8823
16054SOL     OW48739   2.307   8.240   0.388 -0.5084 -0.3010  0.0826
16054SOL    HW148740   2.346   8.208   0.469  1.6726  1.3967 -0.2003
16054SOL    HW248741   2.302   8.335   0.399 -2.0796 -0.2113 -1.0179
16055SOL     OW48742   6.453   1.849   1.760 -0.2413 -0.1118  0.2155
16055SOL    HW148743   6.502   1.788   1.816  1.6008  0.6998 -0.4271
16055SOL    HW248744   6.465   1.814   1.672  0.0081  0.6354 -0.0506
16056SOL     OW48745   6.051   3.931   9.108  0.4804 -0.4754 -0.2169
16056SOL    HW148746   6.052   3.846   9.152 -1.1225  0.4294  1.7560
16056SOL    HW248747   6.015   3.991   9.174  1.6935  1.7707 -1.4815
16057SOL     OW48748   9.494   8.510   6.661 -0.2888  0.0395  0.3676
16057SOL    HW148749   9.579   8.476   6.691 -0.1516  1.2218  1.4496
16057SOL    HW248750   9.500   8.510   6.566  1.1056  0.4722  0.4303
16058SOL     OW48751   5.786   8.639   1.332  0.0597  0.3856  0.0092
16058SOL    HW148752   5.739   8.717   1.302  1.3073  1.0938 -0.1857
16058SOL    HW248753   5.837   8.670   1.407  2.7585  0.5353 -1.7334
16059SOL     OW48754   5.791   7.165   7.674 -0.2827 -0.1331  0.1517
16059SOL    HW148755   5.821   7.082   7.637  2.5428 -0.1946  2.3018
16059SOL    HW248756   5.793   7.226   7.599  0.4339 -1.3301 -0.8485
16060SOL     OW48757   3.156   3.929   8.538 -0.0921 -0.8015 -0.0477
16060SOL    HW148758   3.178   3.942   8.446  0.1094 -3.0589 -0.3742
16060SOL    HW248759   3.240   3.934   8.584  0.2953 -2.9452 -0.4498
16061SOL     OW48760   8.851   1.750   6.901 -0.2731  0.4855  0.2220
16061SOL    HW148761   8.907   1.775   6.975  0.9721  1.2416 -0.9211
16061SOL    HW248762   8.805   1.831   6.878 -0.1375  0.4373 -0.2361
16062SOL     OW48763   6.644   6.908   3.443 -0.3422  0.2048 -0.5022
16062SOL    HW148764   6.638   6.994   3.400 -1.0091  0.9039  0.9147
16062SOL    HW248765   6.571   6.908   3.505  1.0663 -0.4149  1.2189
16063SOL     OW48766   2.245   8.693   8.170  0.0606  0.4002 -0.6953
16063SOL    HW148767   2.246   8.643   8.089 -1.8121 -0.1601 -0.4307
16063SOL    HW248768   2.283   8.634   8.235 -1.0938 -0.2771 -0.6113
16064SOL     OW48769   0.715   5.699   7.147 -0.4469 -0.0869 -0.1476
16064SOL    HW148770   0.710   5.674   7.239 -0.3246 -0.7127 -0.3117
16064SOL    HW248771   0.680   5.624   7.099  1.0017 -0.4253 -0.7107
16065SOL     OW48772   4.975   6.827   0.796  0.2947  0.0823  0.2143
16065SOL    HW148773   4.980   6.839   0.701  0.7845  1.9429  0.4442
16065SOL    HW248774   4.958   6.915   0.831  0.6031 -0.4881  1.8926
16066SOL     OW48775   4.183   9.479   0.522  1.0573 -0.6533 -0.8378
16066SOL    HW148776   4.108   9.484   0.581  1.0432 -1.8781 -0.7282
16066SOL    HW248777   4.146   9.451   0.438  1.4376 -1.8853 -0.6221
16067SOL     OW48778   2.869   6.839   0.536  0.2262  0.9870  0.0701
16067SOL    HW148779   2.935   6.790   0.487 -0.5516  0.5200 -0.5321
16067SOL    HW248780   2.829   6.775   0.594 -1.1099  0.7567 -1.0402
16068SOL     OW48781   6.894   9.617   6.889  0.4383  0.1194 -0.1155
16068SOL    HW148782   6.899   9.691   6.828  0.3009 -1.0096 -1.5465
16068SOL    HW248783   6.985   9.588   6.899  0.5367  0.6829  0.7336
16069SOL     OW48784   1.776   6.101   8.693  0.2666 -0.1911 -0.2764
16069SOL    HW148785   1.846   6.140   8.640  0.9720  0.7267  1.2454
16069SOL    HW248786   1.710   6.072   8.630  0.9168  1.1676 -1.6256
16070SOL     OW48787   4.115   6.757   9.548 -0.3089  0.1989  0.1469
16070SOL    HW148788   4.047   6.696   9.521 -0.4843  0.7984 -0.8020
16070SOL    HW248789   4.138   6.729   9.636 -0.0577 -1.5097 -0.4319
16071SOL     OW48790   4.960   4.641   9.540  0.1490  0.3501  0.4160
16071SOL    HW148791   4.935   4.563   9.590  0.7448  0.2269  0.5331
16071SOL    HW248792   5.053   4.628   9.520 -0.2761 -0.0438 -1.5306
16072SOL     OW48793   4.535   6.987   6.743  0.0868  0.0715  0.3378
16072SOL    HW148794   4.450   6.995   6.787  0.3878 -0.8057  1.1231
16072SOL    HW248795   4.514   6.950   6.657 -0.3432 -0.0197  0.4777
16073SOL     OW48796   8.339   9.642   1.320  0.3689 -0.0268 -0.0273
16073SOL    HW148797   8.305   9.594   1.395 -2.1287  0.5301 -0.6759
16073SOL    HW248798   8.307   9.732   1.333  0.3818  0.2076 -1.4382
16074SOL     OW48799   2.929   9.548   7.371  0.6683 -0.1433 -0.6462
16074SOL    HW148800   2.955   9.567   7.461  0.7644  2.5653 -1.1665
16074SOL    HW248801   2.872   9.472   7.378  1.8261 -0.8864  1.5176
16075SOL     OW48802   7.761   9.002   1.226  0.1893 -0.5040 -0.1207
16075SOL    HW148803   7.738   9.002   1.134 -0.2228 -0.3503 -0.0206
16075SOL    HW248804   7.830   9.068   1.234 -1.7142  1.5505  0.1421
16076SOL     OW48805   6.515   9.926   8.658 -0.9454  0.6019  0.3092
16076SOL    HW148806   6.601   9.948   8.695  0.2451  1.3106 -2.5807
16076SOL    HW248807   6.510   9.830   8.666 -0.0652  0.5862  0.8850
16077SOL     OW48808   7.049   2.673   7.140 -0.1543  0.2173  0.0238
16077SOL    HW148809   7.082   2.609   7.077  0.1275  0.6534 -0.2791
16077SOL    HW248810   7.127   2.722   7.167 -0.1818 -0.3279  1.1409
16078SOL     OW48811   2.313   1.123   8.496 -0.2071  0.6759 -0.2661
16078SOL    HW148812   2.350   1.211   8.501 -0.3013  0.6790  0.4671
16078SOL    HW248813   2.374   1.074   8.441 -0.5515  1.3907 -1.3268
16079SOL     OW48814   0.471   7.591   2.304 -0.4318 -0.2214 -0.0581
16079SOL    HW148815   0.419   7.659   2.263  0.2197 -0.2568 -0.9821
16079SOL    HW248816   0.551   7.635   2.332 -0.3054 -0.4614 -0.0326
16080SOL     OW48817   1.004   9.507   4.662 -0.5386  0.3162 -0.0290
16080SOL    HW148818   1.000   9.590   4.709 -1.5462  0.1756  0.1513
16080SOL    HW248819   0.913   9.482   4.650 -0.2543 -1.2523  0.7850
16081SOL     OW48820   0.479   0.782   0.357 -0.7090 -0.1797 -0.1208
16081SOL    HW148821   0.558   0.765   0.408 -0.8158  1.7817  0.7903
16081SOL    HW248822   0.504   0.759   0.267  1.1427  0.9863  0.0280
16082SOL     OW48823   7.082   2.048   7.812  0.1161 -0.1279  0.4834
16082SOL    HW148824   7.048   1.960   7.825 -1.4133  0.1660 -1.1084
16082SOL    HW248825   7.139   2.041   7.735  2.0554 -0.1862  1.8636
16083SOL     OW48826   8.847   4.578   2.329  0.2061 -0.3320 -0.3580
16083SOL    HW148827   8.785   4.627   2.275 -0.8219  0.6138  1.5800
16083SOL    HW248828   8.910   4.541   2.267 -1.4918 -0.1517 -2.2509
16084SOL     OW48829   8.569   6.980   3.447 -0.3084 -0.3007 -0.5654
16084SOL    HW148830   8.545   7.007   3.358  1.3289  1.9272 -0.4053
16084SOL    HW248831   8.664   6.985   3.449 -0.2344 -1.6195  0.9566
16085SOL     OW48832   8.752   2.728   5.477 -0.2430  0.0003  0.1691
16085SOL    HW148833   8.670   2.689   5.505 -0.3255  0.4700  0.6050
16085SOL    HW248834   8.819   2.684   5.530 -0.3864  0.8013  1.0447
16086SOL     OW48835   1.405   5.177   5.642 -0.5755 -0.4535  0.3707
16086SOL    HW148836   1.348   5.128   5.582 -2.1261  1.3827  0.2560
16086SOL    HW248837   1.351   5.250   5.672  0.8158 -0.2258  2.5248
16087SOL     OW48838   3.893   5.700   3.487 -0.4300  0.0614 -0.0612
16087SOL    HW148839   3.942   5.653   3.554  0.2616 -1.8161 -1.7837
16087SOL    HW248840   3.936   5.786   3.482 -0.3129  0.1204  1.6382
16088SOL     OW48841   9.092   1.748   6.054 -0.2894 -0.6024 -0.0593
16088SOL    HW148842   9.178   1.705   6.055  0.8580  1.5438 -0.0568
16088SOL    HW248843   9.076   1.771   6.145 -0.0777  0.4229 -0.2708
16089SOL     OW48844   8.531   6.544   4.506  0.1689  0.0521  0.1958
16089SOL    HW148845   8.511   6.490   4.430  0.3857 -1.1740  0.9840
16089SOL    HW248846   8.601   6.602   4.476  0.6098 -0.7647 -0.4023
16090SOL     OW48847   4.135   5.078   7.871  0.0270  0.4774 -0.4687
16090SOL    HW148848   4.118   4.992   7.834  0.9177  1.4060 -3.3058
16090SOL    HW248849   4.093   5.139   7.811  2.7009  2.1840 -0.7801
16091SOL     OW48850   7.601   4.044   1.716  0.1748  0.2239  0.4853
16091SOL    HW148851   7.690   4.051   1.750  0.0485  1.1508  0.6290
16091SOL    HW248852   7.598   3.956   1.678  1.3941  0.4574 -0.2209
16092SOL     OW48853   0.777   1.621   6.225  0.5238  0.3065 -0.1506
16092SOL    HW148854   0.828   1.540   6.230 -0.3808 -0.2717 -0.1784
16092SOL    HW248855   0.714   1.606   6.155  0.1625  0.9289  0.0319
16093SOL     OW48856   2.568   8.474   6.046 -0.6887 -0.2928 -0.3189
16093SOL    HW148857   2.634   8.405   6.058 -2.5930 -1.9114  1.6480
16093SOL    HW248858   2.519   8.447   5.968 -0.0829  0.0614 -0.8372
16094SOL     OW48859   1.538   0.427   7.375  0.1679 -0.0823 -0.3097
16094SOL    HW148860   1.495   0.397   7.456 -1.1630 -1.4183 -1.4461
16094SOL    HW248861   1.531   0.523   7.379  0.4770 -0.0892  1.3093
16095SOL     OW48862   1.082   4.288   2.126 -0.4290 -0.3178  0.4742
16095SOL    HW148863   1.139   4.360   2.098 -0.9053 -0.3279 -0.5885
16095SOL    HW248864   1.105   4.215   2.069 -2.4546  0.1032 -1.0171
16096SOL     OW48865   2.757   1.876   2.336  0.0007 -0.1954 -0.3509
16096SOL    HW148866   2.668   1.909   2.342 -0.6232 -1.7586 -0.6492
16096SOL    HW248867   2.753   1.808   2.268  1.7085  0.6469 -1.3547
16097SOL     OW48868   5.686   2.136   4.592 -0.6412  0.2081 -0.2149
16097SOL    HW148869   5.755   2.198   4.616 -1.2467  0.6913  0.3193
16097SOL    HW248870   5.610   2.190   4.573 -1.7070 -0.4066  1.9794
16098SOL     OW48871   3.445   1.823   2.676 -0.0735  0.5154 -0.3359
16098SOL    HW148872   3.358   1.795   2.646  0.5009 -1.2230 -0.5126
16098SOL    HW248873   3.427   1.883   2.748 -1.4297  0.3513 -0.5024
16099SOL     OW48874   9.369   4.377   7.494  0.3223 -0.6816  0.6440
16099SOL    HW148875   9.397   4.439   7.426  0.3476 -1.5217 -0.1302
16099SOL    HW248876   9.295   4.331   7.454 -0.1870 -0.6241  1.5080
16100SOL     OW48877   2.728   1.491   5.639 -0.6056 -0.4292  0.3437
16100SOL    HW148878   2.785   1.416   5.623 -0.8528 -0.7013  0.7323
16100SOL    HW248879   2.660   1.484   5.571 -0.2337 -0.1568 -0.0603
16101SOL     OW48880   7.527   6.871   4.589 -0.0861 -0.3225 -0.1994
16101SOL    HW148881   7.575   6.881   4.671  0.2164 -0.6023 -0.3374
16101SOL    HW248882   7.488   6.784   4.596 -1.3911  0.2857  0.3295
16102SOL     OW48883   4.131   9.781   8.930 -0.0212  0.4277  0.0583
16102SOL    HW148884   4.077   9.735   8.866 -1.5193  1.6799  0.3494
16102SOL    HW248885   4.200   9.822   8.878  0.7160 -1.2085 -0.3226
16103SOL     OW48886   9.233   5.776   9.874  0.5485  0.4125 -0.1744
16103SOL    HW148887   9.141   5.767   9.900  1.3020 -1.2181  2.2002
16103SOL    HW248888   9.230   5.776   9.778 -2.0612  2.4667 -0.2228
16104SOL     OW48889   5.888   6.202   2.028  0.4949 -0.1512  0.1741
16104SOL    HW148890   5.800   6.168   2.012  0.3824 -0.4391  1.3274
16104SOL    HW248891   5.877   6.297   2.034  0.1132 -0.2453  1.1387
16105SOL     OW48892   4.234   1.034   7.267  0.5183 -0.0466 -0.2332
16105SOL    HW148893   4.179   1.072   7.335  2.0584 -0.1349  1.1441
16105SOL    HW248894   4.252   1.106   7.206  0.3410  0.4418  0.2894
16106SOL     OW48895   7.637   1.248   4.254 -0.5503 -0.0091  0.2856
16106SOL    HW148896   7.691   1.250   4.333 -0.1859  0.0106  0.0393
16106SOL    HW248897   7.554   1.287   4.281 -1.8761 -3.3845  1.6857
16107SOL     OW48898   9.286   7.581   3.274  0.3022 -0.0683 -0.0978
16107SOL    HW148899   9.306   7.589   3.367  0.0450  0.0555 -0.0507
16107SOL    HW248900   9.192   7.598   3.269 -0.1336 -2.1950 -0.0934
16108SOL     OW48901   9.318   1.528   8.640 -0.2513  0.0543  0.8287
16108SOL    HW148902   9.364   1.461   8.692  1.8434  0.2751 -0.6295
16108SOL    HW248903   9.386   1.566   8.584 -1.6292  2.5754  0.7308
16109SOL     OW48904   0.720   0.340   3.124 -0.3299 -0.6212 -0.1142
16109SOL    HW148905   0.686   0.421   3.163  2.4707  0.2856  0.7101
16109SOL    HW248906   0.765   0.370   3.045 -0.2503 -1.5426 -0.4228
16110SOL     OW48907   4.366   6.595   5.489  0.3657 -0.1162 -0.2274
16110SOL    HW148908   4.455   6.627   5.502  0.3919  0.4028 -1.5236
16110SOL    HW248909   4.311   6.671   5.503  0.3235  0.1895 -1.8494
16111SOL     OW48910   3.059   9.208   1.073  0.4211  0.3285  0.5141
16111SOL    HW148911   3.011   9.204   1.156  0.9081  1.5357  0.8739
16111SOL    HW248912   3.006   9.266   1.018  0.7653  0.5653  0.4350
16112SOL     OW48913   5.446   7.241   3.518  0.3371  0.2722  0.5260
16112SOL    HW148914   5.351   7.231   3.520  0.2517  1.1304  1.1448
16112SOL    HW248915   5.474   7.219   3.607  0.5823  1.2695  0.7019
16113SOL     OW48916   4.787   0.409   3.931  0.0817  0.3982 -0.2069
16113SOL    HW148917   4.780   0.328   3.881 -0.1683  0.7133 -0.6873
16113SOL    HW248918   4.881   0.420   3.947  0.0712 -0.2658  0.3308
16114SOL     OW48919   7.435   5.031   5.434  0.3832 -0.6253  0.1982
16114SOL    HW148920   7.396   5.118   5.428  0.6153 -0.5321  0.0183
16114SOL    HW248921   7.525   5.047   5.465 -0.8765 -1.1009  4.7612
16115SOL     OW48922   7.141   6.514   0.778  0.3652 -0.1413 -0.0052
16115SOL    HW148923   7.162   6.420   0.785 -2.2522 -0.7060  1.8232
16115SOL    HW248924   7.182   6.552   0.856  0.1267 -0.0616  0.0809
16116SOL     OW48925   4.871   2.924   1.533 -0.2292  0.4431 -0.3911
16116SOL    HW148926   4.886   2.967   1.449 -1.0618 -1.5096 -1.6190
16116SOL    HW248927   4.779   2.896   1.529 -0.0945 -0.2724  0.9036
16117SOL     OW48928   3.893   0.552   0.752  0.0515 -0.1636  0.1892
16117SOL    HW148929   3.827   0.508   0.806 -0.7448  0.9622  0.1549
16117SOL    HW248930   3.907   0.492   0.678 -0.7790 -0.5088  0.2996
16118SOL     OW48931   3.034   8.284   4.404 -0.2478 -0.3525 -0.0536
16118SOL    HW148932   3.002   8.194   4.416  1.2634 -1.1777 -1.7074
16118SOL    HW248933   2.955   8.336   4.389 -1.2838 -1.0860  2.3246
16119SOL     OW48934   7.211   0.035   9.485 -0.0825 -0.1453 -0.6982
16119SOL    HW148935   7.118   0.031   9.463  0.3844  0.4752 -3.1445
16119SOL    HW248936   7.232  -0.054   9.515 -1.6930  0.0579  1.1998
16120SOL     OW48937   8.425   5.409   0.606  0.0170  0.2920 -0.8489
16120SOL    HW148938   8.380   5.484   0.568 -0.0797  0.5360 -0.2633
16120SOL    HW248939   8.371   5.383   0.681 -0.0669 -0.4992 -1.1670
16121SOL     OW48940   0.775   5.653   9.446  0.2990 -0.4398  0.1793
16121SOL    HW148941   0.800   5.659   9.354 -1.6771  2.3782 -0.3246
16121SOL    HW248942   0.695   5.600   9.446 -0.4093  0.5890  0.0302
16122SOL     OW48943   5.148   0.238   1.360  0.2094  0.1390 -0.1873
16122SOL    HW148944   5.188   0.304   1.417 -0.0801  0.3067 -0.1731
16122SOL    HW248945   5.146   0.279   1.274  1.2643 -0.3745 -0.4681
16123SOL     OW48946   7.666   5.017   0.047  0.2446  0.3947 -0.2779
16123SOL    HW148947   7.674   5.018  -0.048  0.1999 -2.2737 -0.3871
16123SOL    HW248948   7.683   4.926   0.071 -0.0447  0.9465  2.2536
16124SOL     OW48949   5.368   5.794   1.266 -0.0182  0.0534 -0.6096
16124SOL    HW148950   5.463   5.807   1.274  0.4426 -0.2019 -4.1211
16124SOL    HW248951   5.331   5.880   1.285  0.9407  0.3303  0.1255
16125SOL     OW48952   3.155   3.155   5.947  0.2079 -0.0731 -0.0867
16125SOL    HW148953   3.164   3.062   5.967  0.4928  0.0641  0.4401
16125SOL    HW248954   3.067   3.164   5.911 -0.8007 -0.1651  2.1586
16126SOL     OW48955   3.912   2.430   4.428 -0.4199 -0.0737 -0.6682
16126SOL    HW148956   3.912   2.334   4.436  0.2030 -0.0110  0.2749
16126SOL    HW248957   3.819   2.454   4.429 -0.5643 -0.6132 -0.0324
16127SOL     OW48958   9.038   6.078   3.525  0.7710 -0.3202 -0.2053
16127SOL    HW148959   8.978   6.005   3.545  1.4323 -0.3798  1.7471
16127SOL    HW248960   8.981   6.145   3.488 -0.3960 -0.7103  0.7874
16128SOL     OW48961   5.285   5.618   2.019 -0.0080  0.1325 -0.1970
16128SOL    HW148962   5.291   5.713   2.021 -0.1086  0.2300 -2.6437
16128SOL    HW248963   5.357   5.589   1.964 -1.4678 -0.9977 -1.6279
16129SOL     OW48964   5.031   8.125   4.280  0.4137 -0.3398  0.1292
16129SOL    HW148965   5.016   8.045   4.330  1.1657 -0.6382 -0.1164
16129SOL    HW248966   4.998   8.105   4.192  0.5486 -0.3604  0.0831
16130SOL     OW48967   9.148   3.729   4.063 -0.0108  0.0431 -0.1554
16130SOL    HW148968   9.113   3.715   4.151  0.3825 -1.0874 -0.1715
16130SOL    HW248969   9.238   3.697   4.067  0.8734  2.2725 -0.3045
16131SOL     OW48970   3.962   3.229   1.888 -0.1807  0.2004  0.3172
16131SOL    HW148971   4.044   3.202   1.930 -0.3036 -0.2574  0.2717
16131SOL    HW248972   3.989   3.282   1.814  0.1420 -1.0823 -0.5234
16132SOL     OW48973   3.317   9.532   3.767  0.0361  1.0143 -0.3076
16132SOL    HW148974   3.390   9.562   3.713  0.1807 -1.2509 -1.4962
16132SOL    HW248975   3.316   9.437   3.757 -2.1549  0.8179  0.8842
16133SOL     OW48976   4.136   5.010   0.052  0.0984 -0.4923 -0.1269
16133SOL    HW148977   4.200   4.944   0.026 -1.3029 -1.4175 -1.4416
16133SOL    HW248978   4.053   4.962   0.057 -0.5425  0.7007  1.3281
16134SOL     OW48979   6.640   8.529   4.592 -0.0978 -0.2413  0.1713
16134SOL    HW148980   6.680   8.610   4.560  0.4349 -1.0153 -1.2363
16134SOL    HW248981   6.627   8.544   4.685  0.9773  1.0601  0.1471
16135SOL     OW48982   6.887   1.818   8.795  0.5202 -0.2777 -0.4521
16135SOL    HW148983   6.864   1.744   8.852 -1.5320 -0.3151 -1.2664
16135SOL    HW248984   6.972   1.847   8.828 -0.5022 -0.3605  2.5714
16136SOL     OW48985   8.415   4.773   2.847 -0.6561  0.1330  0.3350
16136SOL    HW148986   8.351   4.841   2.868 -2.0670 -0.5590 -1.4390
16136SOL    HW248987   8.377   4.693   2.883  0.7436  0.1527  1.9527
16137SOL     OW48988   6.484   9.712   7.866  0.3350  0.3450  0.0596
16137SOL    HW148989   6.426   9.735   7.938 -3.5890 -1.2167 -2.2998
16137SOL    HW248990   6.480   9.617   7.861 -0.4964  0.4352 -2.8192
16138SOL     OW48991   7.696   3.810   1.279  0.0863  0.1161  0.2991
16138SOL    HW148992   7.618   3.848   1.318  0.6443  0.8747  0.6889
16138SOL    HW248993   7.763   3.816   1.347  1.6168  3.2194 -1.2819
16139SOL     OW48994   6.161   0.595   6.096 -0.2526 -0.3521  0.5054
16139SOL    HW148995   6.209   0.665   6.141 -1.1135  0.6348 -0.0875
16139SOL    HW248996   6.224   0.523   6.090  1.4486  1.1719 -0.9591
16140SOL     OW48997   8.502   0.338   7.898  0.3639  0.4115 -0.4785
16140SOL    HW148998   8.531   0.248   7.888 -1.3980 -0.1096 -1.1726
16140SOL    HW248999   8.575   0.390   7.865  2.0568 -0.6366  1.3755
16141SOL     OW49000   5.233   9.476   9.642 -0.4916  0.0220 -0.0907
16141SOL    HW149001   5.268   9.397   9.683  0.4149  0.1263 -0.6323
16141SOL    HW249002   5.140   9.457   9.628 -0.2263 -1.0659 -0.4732
16142SOL     OW49003   6.835   6.095   5.400  0.0870 -0.5555  0.4023
16142SOL    HW149004   6.743   6.070   5.406 -0.4079  0.6994 -1.0785
16142SOL    HW249005   6.852   6.143   5.482 -1.2706  1.1367 -0.2324
16143SOL     OW49006   5.329   1.269   5.018 -0.2543 -0.1735 -0.5461
16143SOL    HW149007   5.288   1.355   5.031 -1.2871 -0.5558 -1.1502
16143SOL    HW249008   5.255   1.208   5.015  0.3970 -0.9447 -1.2512
16144SOL     OW49009   1.393   5.953   9.381 -0.0796 -0.0402 -0.7179
16144SOL    HW149010   1.466   5.892   9.367 -0.8460 -0.9912 -0.7015
16144SOL    HW249011   1.434   6.039   9.382  1.1226 -0.5873 -0.1422
16145SOL     OW49012   8.332   0.101   1.380 -0.2021  0.2194  0.2655
16145SOL    HW149013   8.289   0.022   1.347 -0.4034  0.3294  0.2628
16145SOL    HW249014   8.272   0.135   1.446  1.2571 -1.2910  2.4853
16146SOL     OW49015   6.243   4.469   3.816  0.5253 -0.0353 -0.6468
16146SOL    HW149016   6.285   4.531   3.756  1.6918  0.6997  0.8722
16146SOL    HW249017   6.316   4.424   3.859 -0.3019 -1.4223 -0.6323
16147SOL     OW49018   8.528   7.507   2.140  0.3539 -0.0622  0.1667
16147SOL    HW149019   8.551   7.600   2.145 -1.5582  0.5022 -0.4905
16147SOL    HW249020   8.516   7.491   2.046 -0.1462 -0.7501  0.3477
16148SOL     OW49021  10.010   4.007   9.020 -0.0693 -0.2767 -0.3486
16148SOL    HW149022   9.986   4.044   9.105  1.0360 -1.0464  0.3287
16148SOL    HW249023   9.935   3.955   8.994 -0.2033 -0.4967  0.4487
16149SOL     OW49024   6.288   7.226   9.006 -0.3047 -0.2764  0.6264
16149SOL    HW149025   6.359   7.221   8.942 -0.8807  2.1212 -0.3245
16149SOL    HW249026   6.300   7.311   9.048 -0.7811 -1.1985  2.7515
16150SOL     OW49027   3.866   6.854   9.849  0.0906 -0.3914 -0.9353
16150SOL    HW149028   3.844   6.877   9.939 -0.4230 -0.4120 -1.0506
16150SOL    HW249029   3.782   6.852   9.803  0.2763 -1.0356 -1.2617
16151SOL     OW49030   4.573   6.501   4.081 -0.3793 -0.5230  0.2633
16151SOL    HW149031   4.633   6.560   4.125 -1.9083  1.1808  0.1852
16151SOL    HW249032   4.601   6.504   3.989  0.1730 -0.7257  0.4197
16152SOL     OW49033   6.098   7.734   3.600 -0.2490 -0.7127 -0.0591
16152SOL    HW149034   6.172   7.791   3.622  0.8074 -1.3985 -1.6163
16152SOL    HW249035   6.136   7.647   3.594 -1.8378 -1.6688  2.2874
16153SOL     OW49036   6.059   9.421   7.357  0.1164  0.0325  0.0717
16153SOL    HW149037   5.998   9.378   7.417  0.7696 -2.7069 -1.0886
16153SOL    HW249038   6.005   9.454   7.286 -0.1957 -0.6327  0.0042
16154SOL     OW49039   2.647   3.471   3.338 -0.0216 -0.2569  0.0496
16154SOL    HW149040   2.608   3.475   3.425  2.0945  0.5058  1.0435
16154SOL    HW249041   2.675   3.379   3.329 -1.6357 -0.7202 -0.5242
16155SOL     OW49042   2.943   9.122   1.612 -0.4924 -0.5505  0.0496
16155SOL    HW149043   3.033   9.116   1.646  0.0429 -0.1524 -1.2219
16155SOL    HW249044   2.930   9.039   1.565 -0.7584 -0.5650  0.1465
16156SOL     OW49045   7.165   5.194   6.853  0.3968  0.2868 -0.2894
16156SOL    HW149046   7.118   5.267   6.813 -1.0257  0.0302  0.8259
16156SOL    HW249047   7.252   5.196   6.812 -0.2395  1.4003 -1.6795
16157SOL     OW49048   2.267   9.454   5.206 -0.3976  1.1464 -0.6437
16157SOL    HW149049   2.262   9.359   5.217  1.9456  0.5845 -3.2037
16157SOL    HW249050   2.314   9.485   5.283 -2.2352  0.4613  0.8175
16158SOL     OW49051   8.535   7.988   6.412  0.1094  0.0331 -0.7600
16158SOL    HW149052   8.495   7.921   6.468  0.2212  0.0941 -0.6063
16158SOL    HW249053   8.488   7.981   6.329  0.8953 -1.0068 -1.1276
16159SOL     OW49054   4.204   2.687   9.582  0.0224  0.5098  0.6100
16159SOL    HW149055   4.156   2.703   9.500  1.8974 -2.9117 -1.3544
16159SOL    HW249056   4.254   2.768   9.596  2.4887  0.0729 -3.8067
16160SOL     OW49057   8.042   9.024   4.399 -0.3627 -0.1178  0.4583
16160SOL    HW149058   8.006   8.938   4.377  2.8440 -1.4911  0.0250
16160SOL    HW249059   8.014   9.080   4.327  0.0293 -1.5886 -0.8992
16161SOL     OW49060   6.239   6.957   3.349 -0.4158  0.0335 -0.1424
16161SOL    HW149061   6.295   6.904   3.292 -0.3836 -1.0951  0.9125
16161SOL    HW249062   6.194   7.017   3.289  2.5393  1.6117 -0.9450
16162SOL     OW49063   5.510   3.542   4.249 -0.1368 -0.5217 -0.4031
16162SOL    HW149064   5.530   3.456   4.212  0.3169 -0.8633  0.5929
16162SOL    HW249065   5.449   3.582   4.187 -2.5052 -2.6265  0.3936
16163SOL     OW49066   4.380   1.673   9.335 -0.1126 -1.1291  0.3183
16163SOL    HW149067   4.304   1.725   9.309 -0.1223 -0.7468  1.0864
16163SOL    HW249068   4.384   1.602   9.271 -1.9797 -2.0104  1.1352
16164SOL     OW49069   9.552   8.716   1.275  0.2303 -0.0383  0.3093
16164SOL    HW149070   9.487   8.736   1.208 -0.2758  1.3352  1.1705
16164SOL    HW249071   9.588   8.631   1.249 -0.6958 -0.0289 -1.1062
16165SOL     OW49072   1.569   1.240   4.823 -0.5166 -0.2105  0.1813
16165SOL    HW149073   1.603   1.249   4.913  0.0758 -3.1212  0.3729
16165SOL    HW249074   1.507   1.166   4.829 -1.6721  0.5624 -1.5375
16166SOL     OW49075   1.210   7.064   5.990 -0.0595  0.0870 -0.2668
16166SOL    HW149076   1.132   7.103   6.028  0.8418  0.7007  1.0179
16166SOL    HW249077   1.181   6.980   5.955 -1.3950  0.5526 -0.3225
16167SOL     OW49078   5.819   1.029   7.712 -0.5657  0.4899  0.4388
16167SOL    HW149079   5.800   1.054   7.802 -2.0024 -0.3536  0.3989
16167SOL    HW249080   5.734   1.005   7.675 -0.0408  0.9928 -1.2053
16168SOL     OW49081   2.941   8.992   1.987  0.2985 -0.6567 -0.6530
16168SOL    HW149082   3.003   9.028   2.051 -0.4567 -0.2974 -0.1046
16168SOL    HW249083   2.855   9.007   2.027 -0.2210  0.0496 -1.9767
16169SOL     OW49084   4.583   8.319   1.017  0.6457 -0.3758  0.2240
16169SOL    HW149085   4.564   8.322   1.110  1.4975  0.7205  0.3850
16169SOL    HW249086   4.498   8.299   0.975 -0.5268  2.5591  1.0029
16170SOL     OW49087   7.909   5.522   1.099  0.1231 -0.1102 -0.4574
16170SOL    HW149088   7.844   5.459   1.127 -0.1763  0.9178  1.2766
16170SOL    HW249089   7.980   5.514   1.163  1.4092 -0.6689 -1.8709
16171SOL     OW49090   1.941   7.792   5.769 -0.0000 -0.1610  0.1697
16171SOL    HW149091   1.884   7.848   5.717 -0.9793 -0.8553  0.4696
16171SOL    HW249092   1.886   7.719   5.796  0.6426 -0.1553  1.6315
16172SOL     OW49093   9.637   6.434   8.700  0.4672 -0.2106 -0.1356
16172SOL    HW149094   9.599   6.347   8.706 -1.0478  0.4727  0.8556
16172SOL    HW249095   9.729   6.422   8.724  0.5806 -1.6953 -1.1955
16173SOL     OW49096   2.792   0.001   7.026 -0.2040 -0.0901 -0.3781
16173SOL    HW149097   2.760   0.062   7.093 -1.1531 -0.1299 -0.7688
16173SOL    HW249098   2.737   0.018   6.950 -0.3172 -1.2449 -0.5853
16174SOL     OW49099   0.848   2.785   9.132  0.2132 -0.2698  0.0949
16174SOL    HW149100   0.806   2.727   9.068 -0.5122 -0.2677  0.5525
16174SOL    HW249101   0.782   2.796   9.201  0.3894  0.9874  0.0856
16175SOL     OW49102   5.487   4.350   5.750  0.0838 -0.3512 -0.4600
16175SOL    HW149103   5.577   4.382   5.758 -0.8725  2.9856 -1.0913
16175SOL    HW249104   5.485   4.305   5.665  0.8056  1.1627 -1.3336
16176SOL     OW49105   9.094   3.722   3.256 -0.0775  0.8073 -0.3073
16176SOL    HW149106   9.110   3.815   3.274  2.5643  0.5503 -0.9774
16176SOL    HW249107   9.161   3.676   3.307  0.5290 -0.5321 -2.2196
16177SOL     OW49108   6.656   5.225   3.386  0.6969 -0.2756  0.1768
16177SOL    HW149109   6.673   5.213   3.479  0.7179  0.0092  0.2099
16177SOL    HW249110   6.656   5.320   3.373  0.8777 -0.3168 -0.1441
16178SOL     OW49111   9.309   1.743   8.976 -0.1717 -0.5787  0.6672
16178SOL    HW149112   9.390   1.759   8.927 -0.8295  0.9958  0.0598
16178SOL    HW249113   9.325   1.783   9.061  0.1667 -1.4346  1.0162
16179SOL     OW49114   9.392   8.932   5.686  0.1836 -0.5957 -0.1283
16179SOL    HW149115   9.316   8.877   5.706  0.0359 -0.1786  0.4960
16179SOL    HW249116   9.365   9.020   5.713 -0.1245  0.0915 -2.4377
16180SOL     OW49117   9.072   0.322   4.154  0.1577  0.1019 -0.6191
16180SOL    HW149118   9.147   0.273   4.188  0.4894  0.4717 -0.8183
16180SOL    HW249119   9.034   0.265   4.087 -2.1741 -1.9267  2.1523
16181SOL     OW49120   7.493   8.957   0.335  0.0881  0.3531 -0.0293
16181SOL    HW149121   7.424   9.007   0.291 -0.7541  0.6410  1.5448
16181SOL    HW249122   7.569   9.016   0.334 -0.4764  1.1133  0.5471
16182SOL     OW49123   3.999   1.324   3.355 -0.0944 -0.5226 -0.1378
16182SOL    HW149124   3.981   1.264   3.283  1.6136  0.4239 -1.4618
16182SOL    HW249125   3.919   1.376   3.363 -0.7604 -1.4583 -0.5036
16183SOL     OW49126   4.922   5.067   2.599 -0.2171 -0.0622  0.3254
16183SOL    HW149127   4.900   5.060   2.691  0.2230  0.4181  0.4686
16183SOL    HW249128   4.876   4.994   2.558 -1.9898  0.8411  0.6181
16184SOL     OW49129   8.430   2.496   5.877  0.3698  0.2636 -0.2300
16184SOL    HW149130   8.369   2.452   5.936 -0.5805  2.2306  0.3401
16184SOL    HW249131   8.456   2.428   5.814 -1.8373 -0.8135 -0.0658
16185SOL     OW49132   9.977   5.155   6.417  0.1782 -0.6847  0.5994
16185SOL    HW149133   9.914   5.218   6.452  2.2131  0.4122  2.6245
16185SOL    HW249134   9.941   5.129   6.332 -1.6972  1.7795  0.5142
16186SOL     OW49135   7.284   9.507   7.751  0.0042  0.1422  0.4318
16186SOL    HW149136   7.339   9.451   7.696 -0.5675 -0.1418  0.1325
16186SOL    HW249137   7.338   9.585   7.768 -0.1764  0.7367 -1.4518
16187SOL     OW49138   2.146   6.070   3.883 -0.0630 -0.0608 -0.0960
16187SOL    HW149139   2.093   6.147   3.901 -2.3458 -1.5708  0.0997
16187SOL    HW249140   2.155   6.068   3.788 -1.3410 -0.3415 -0.2293
16188SOL     OW49141   8.172   3.875   2.707 -0.5553  0.3539 -0.5830
16188SOL    HW149142   8.254   3.922   2.691 -0.5779 -0.2863 -2.8794
16188SOL    HW249143   8.177   3.798   2.650 -1.2990 -1.5296  1.7556
16189SOL     OW49144   3.310   1.184   6.718  0.1899 -0.0452 -0.4032
16189SOL    HW149145   3.261   1.262   6.691  1.7124  0.6721 -1.1950
16189SOL    HW249146   3.371   1.215   6.784  0.7583 -0.5915 -0.6631
16190SOL     OW49147   0.050   3.035   5.610 -0.2102 -0.1774 -0.2442
16190SOL    HW149148   0.074   3.127   5.600  0.5682 -0.2301  0.9092
16190SOL    HW249149   0.048   3.001   5.520  0.7105  0.6729 -0.6054
16191SOL     OW49150   9.946   1.835   0.735 -0.4116 -0.0143  0.0631
16191SOL    HW149151   9.940   1.910   0.675 -1.0811  1.7761  2.2044
16191SOL    HW249152   9.884   1.856   0.805 -0.4577 -2.5181  0.8755
16192SOL     OW49153   5.179   9.588   1.056 -0.1468  0.6354  0.5177
16192SOL    HW149154   5.175   9.644   0.979 -0.5100  0.4092  0.3691
16192SOL    HW249155   5.181   9.499   1.021 -2.2596  0.4471  0.7859
16193SOL     OW49156   9.957   2.426   5.363 -0.3786 -0.2240 -0.0126
16193SOL    HW149157   9.930   2.438   5.454  0.4573 -0.9076  0.3424
16193SOL    HW249158  10.000   2.340   5.362 -1.5840 -0.8639 -1.3341
16194SOL     OW49159   1.013   7.132   9.647 -0.1482 -0.2336  0.2879
16194SOL    HW149160   1.104   7.153   9.627 -0.2551  1.0708  1.0266
16194SOL    HW249161   1.013   7.040   9.671  0.5770 -0.9039 -2.0015
16195SOL     OW49162   7.224   3.702   7.675  0.3965  0.0660  0.2406
16195SOL    HW149163   7.197   3.610   7.664 -0.1616 -0.0672  2.3377
16195SOL    HW249164   7.144   3.746   7.703  1.2074  0.7091  1.5919
16196SOL     OW49165   0.275   6.151   3.009 -0.3751 -0.0124 -0.2322
16196SOL    HW149166   0.278   6.217   2.940 -0.5587 -0.0551 -0.2817
16196SOL    HW249167   0.329   6.079   2.977 -1.9775 -0.8317 -1.1659
16197SOL     OW49168   8.090   8.662   0.357 -0.1267  0.0957 -0.0612
16197SOL    HW149169   8.125   8.580   0.392  0.6646 -0.5589 -2.2175
16197SOL    HW249170   8.165   8.708   0.321 -0.2724  2.6449  2.5165
16198SOL     OW49171   8.073   7.658   9.994 -0.2733 -0.6135 -0.5105
16198SOL    HW149172   8.050   7.740   9.949 -0.3238 -0.7194 -0.6788
16198SOL    HW249173   8.139   7.618   9.937  0.7470 -0.0443  0.2422
16199SOL     OW49174   6.283   6.610   1.624 -0.0220  0.2433 -1.0345
16199SOL    HW149175   6.331   6.676   1.574  2.7620  1.4231  2.7189
16199SOL    HW249176   6.272   6.537   1.563 -0.3177  2.8471 -4.3849
16200SOL     OW49177   2.000   5.584   7.503  0.0133  0.1063  0.0023
16200SOL    HW149178   2.005   5.583   7.407 -0.0614  2.1911 -0.0865
16200SOL    HW249179   1.921   5.534   7.524 -0.3052  0.1350 -1.0763
16201SOL     OW49180   9.163   0.315   0.164 -0.1398  0.2032  0.9210
16201SOL    HW149181   9.099   0.330   0.233 -0.1590 -0.9273  1.1677
16201SOL    HW249182   9.173   0.401   0.121  1.2293  1.4006  3.4370
16202SOL     OW49183   4.299   7.193   1.457 -0.4535  0.2831  0.4812
16202SOL    HW149184   4.378   7.221   1.503  0.5546 -0.6772 -0.6003
16202SOL    HW249185   4.267   7.272   1.414  0.9201  0.3727 -0.4618
16203SOL     OW49186   1.808   8.788   1.583  0.2532 -0.1863 -0.1880
16203SOL    HW149187   1.728   8.817   1.539  0.2353  0.7844  0.4518
16203SOL    HW249188   1.856   8.741   1.516 -1.1379 -1.3468 -0.4180
16204SOL     OW49189   7.625   6.163   6.718 -0.0665  0.6606  0.5613
16204SOL    HW149190   7.639   6.190   6.627 -0.9410  3.6238  1.1937
16204SOL    HW249191   7.640   6.069   6.718  0.1200  0.5955 -2.6139
16205SOL     OW49192   0.831   6.206   1.069 -0.5421 -0.2357  0.3813
16205SOL    HW149193   0.880   6.173   1.145  1.3764 -1.2483 -1.1928
16205SOL    HW249194   0.815   6.298   1.089  0.9493 -0.1775  1.5358
16206SOL     OW49195   7.447   6.620   3.169  0.4362 -0.9674  0.0929
16206SOL    HW149196   7.539   6.633   3.146 -0.5729 -0.1850 -4.5855
16206SOL    HW249197   7.410   6.708   3.173 -0.3848 -1.3180  0.3993
16207SOL     OW49198   8.999   1.008   0.153 -0.2890  0.0802 -0.1389
16207SOL    HW149199   8.961   0.955   0.223 -1.2996 -0.2593 -0.9171
16207SOL    HW249200   9.079   1.044   0.191 -0.1054 -1.1953  0.7318
16208SOL     OW49201   0.867   2.995   3.931 -0.3734 -0.1784 -0.0537
16208SOL    HW149202   0.952   2.951   3.929 -0.2354 -0.3249  3.6007
16208SOL    HW249203   0.867   3.049   3.852  2.8651 -0.6050 -0.4876
16209SOL     OW49204   6.829   7.188   8.040 -0.3103 -0.1831 -0.4289
16209SOL    HW149205   6.734   7.194   8.041 -0.2419  1.5185  0.8865
16209SOL    HW249206   6.856   7.247   7.970 -0.1849  1.2404  0.7737
16210SOL     OW49207   8.845   4.205   2.291 -0.4113  0.2046  0.7004
16210SOL    HW149208   8.796   4.285   2.308 -0.3847  0.3752  0.0138
16210SOL    HW249209   8.791   4.157   2.228 -0.6498 -0.5373  1.4565
16211SOL     OW49210   9.362   9.835   0.900  0.3262  0.2382 -0.5851
16211SOL    HW149211   9.301   9.778   0.948  2.1904 -1.1393  0.2954
16211SOL    HW249212   9.409   9.882   0.969 -1.2451  3.0678 -1.3053
16212SOL     OW49213   9.296   3.087   5.609  0.1304 -0.3906  0.0153
16212SOL    HW149214   9.308   3.048   5.695  0.6180 -0.2438  0.0194
16212SOL    HW249215   9.375   3.062   5.560 -0.0146 -0.2461 -0.3006
16213SOL     OW49216   4.035   9.466   2.450 -0.4263  0.2461 -0.2960
16213SOL    HW149217   3.959   9.408   2.446  0.5393 -1.0190 -1.2869
16213SOL    HW249218   4.033   9.502   2.538 -1.4916 -0.7342  0.1047
16214SOL     OW49219   5.344   3.437   4.468 -0.5171 -0.4722 -0.3054
16214SOL    HW149220   5.376   3.505   4.407 -2.1018 -0.1782 -0.8495
16214SOL    HW249221   5.399   3.447   4.546 -1.0456  1.8190 -0.1551
16215SOL     OW49222   6.261   6.562   1.151 -0.2675 -0.5436  0.3754
16215SOL    HW149223   6.199   6.504   1.107 -1.1055 -0.3194  1.2296
16215SOL    HW249224   6.299   6.508   1.221  1.4563 -1.0668 -0.8929
16216SOL     OW49225   7.299   1.598   5.237 -0.5222 -0.1093 -0.4042
16216SOL    HW149226   7.319   1.652   5.314  0.2031  0.3501 -0.9074
16216SOL    HW249227   7.363   1.528   5.240 -0.4079 -0.0177 -0.6557
16217SOL     OW49228   8.368   0.536   3.999  0.4659 -0.1158 -0.6674
16217SOL    HW149229   8.314   0.603   3.957  2.0668  1.0064 -1.0399
16217SOL    HW249230   8.449   0.582   4.023  0.9657 -1.5434  0.5584
16218SOL     OW49231   8.538   0.867   9.709 -0.6464 -0.5457  0.1223
16218SOL    HW149232   8.493   0.946   9.677 -0.6360 -1.0941 -1.3642
16218SOL    HW249233   8.615   0.900   9.755 -0.9329  0.3251  0.0109
16219SOL     OW49234   8.248   9.233   0.154  0.0507  0.3845 -0.1395
16219SOL    HW149235   8.278   9.277   0.234 -0.2301  0.9191 -0.3238
16219SOL    HW249236   8.181   9.291   0.118  1.3269  0.9812 -1.6598
16220SOL     OW49237   5.477   1.238   7.415 -0.3895 -0.0279 -0.4732
16220SOL    HW149238   5.422   1.252   7.492 -0.0938  0.8522 -0.4069
16220SOL    HW249239   5.433   1.286   7.345 -0.3237 -0.2969 -0.7009
16221SOL     OW49240   2.370   9.616   4.179  0.5134 -0.4926  0.2772
16221SOL    HW149241   2.462   9.620   4.157  0.7122  1.4372  1.2703
16221SOL    HW249242   2.327   9.583   4.100  1.9424 -0.7292 -0.4262
16222SOL     OW49243   0.892   1.848   6.494  0.2419 -0.1034 -0.4220
16222SOL    HW149244   0.965   1.797   6.459 -0.6612 -0.1541 -2.4057
16222SOL    HW249245   0.818   1.787   6.495  0.1576 -0.0291  1.4559
16223SOL     OW49246   6.428   7.417   0.969  0.5781  0.8563  0.7244
16223SOL    HW149247   6.421   7.483   0.900 -0.4344  0.6898  0.6561
16223SOL    HW249248   6.522   7.406   0.982  0.8384  0.1523 -1.3396
16224SOL     OW49249   5.049   4.922   3.718 -0.1014  0.1189 -0.4156
16224SOL    HW149250   5.047   4.830   3.693  0.5087 -0.2118  0.7046
16224SOL    HW249251   5.096   4.965   3.646 -1.4840 -0.2143 -1.5644
16225SOL     OW49252   6.860   3.815   7.778  0.2664 -0.2038  0.1902
16225SOL    HW149253   6.868   3.894   7.724 -2.6456 -0.2776 -0.5289
16225SOL    HW249254   6.858   3.848   7.868 -0.0687  0.4566 -0.0524
16226SOL     OW49255   4.278   6.056   8.311  0.1003  0.4552 -0.1221
16226SOL    HW149256   4.340   6.030   8.379 -0.1821 -0.6026 -0.2534
16226SOL    HW249257   4.199   6.080   8.358 -0.9040 -2.4667 -0.0880
16227SOL     OW49258   6.989   5.526   2.517  0.2231 -0.4270  0.0651
16227SOL    HW149259   6.942   5.534   2.600 -0.7500  0.0640 -0.5159
16227SOL    HW249260   7.070   5.481   2.540 -1.0346 -2.4025  0.9073
16228SOL     OW49261   6.068   9.898   3.256 -0.4719  0.0935 -0.4580
16228SOL    HW149262   6.120   9.939   3.325 -1.3240 -0.3528  0.4719
16228SOL    HW249263   6.116   9.916   3.175  0.8622  0.0864  0.3186
16229SOL     OW49264   0.410   9.346   7.477  0.1631  0.0707 -0.1280
16229SOL    HW149265   0.505   9.346   7.466  0.3033 -1.8299  0.6664
16229SOL    HW249266   0.376   9.313   7.394  0.3625 -1.3581  0.3358
16230SOL     OW49267   6.512   5.562   7.986 -0.3323 -0.2094  0.0757
16230SOL    HW149268   6.478   5.501   8.051  2.0155 -1.4656  0.2354
16230SOL    HW249269   6.494   5.521   7.902  1.5650 -1.3899  0.1941
16231SOL     OW49270   5.699   4.149   0.388  0.5591  0.2821 -0.1083
16231SOL    HW149271   5.668   4.169   0.476  1.3028  1.7657 -0.1486
16231SOL    HW249272   5.725   4.058   0.392 -2.9315 -0.8684  0.1441
16232SOL     OW49273   4.119   5.577   9.950  0.4723  0.2419 -0.1442
16232SOL    HW149274   4.096   5.506   9.891 -2.1482  0.9266 -0.0690
16232SOL    HW249275   4.183   5.629   9.902  0.6304 -0.8567 -1.1563
16233SOL     OW49276   2.648   3.940   3.336 -0.3037  0.1342  0.3397
16233SOL    HW149277   2.619   3.934   3.245 -0.7636 -1.2493  0.5572
16233SOL    HW249278   2.685   3.854   3.355  1.1828  0.8778  1.0116
16234SOL     OW49279   7.972   2.419   5.307 -0.4396 -0.0535  0.4093
16234SOL    HW149280   8.017   2.334   5.303  2.1102  1.2130 -0.0400
16234SOL    HW249281   8.025   2.471   5.368 -1.1006  1.6400 -0.3962
16235SOL     OW49282   8.885   9.069   1.366 -0.5917 -0.2233 -0.4296
16235SOL    HW149283   8.944   9.031   1.431  0.4430  2.3069  0.2528
16235SOL    HW249284   8.848   9.146   1.410 -1.9494  0.0395 -1.9414
16236SOL     OW49285   0.264   4.422   9.247 -0.5450 -0.2037 -0.5081
16236SOL    HW149286   0.343   4.379   9.213  1.3549  2.1606  0.5941
16236SOL    HW249287   0.294   4.468   9.325 -3.7738 -1.8754  1.9912
16237SOL     OW49288   1.965   5.103   1.840 -0.1034  0.1214 -0.5298
16237SOL    HW149289   1.998   5.019   1.808 -1.9041 -0.6379 -0.5002
16237SOL    HW249290   1.871   5.091   1.845 -0.2387  1.5265  1.3334
16238SOL     OW49291   7.577   5.926   1.372 -0.0859 -0.2608 -0.0260
16238SOL    HW149292   7.579   5.996   1.437 -1.0949 -0.1238 -0.1257
16238SOL    HW249293   7.485   5.903   1.365  0.1758 -1.2392 -0.3880
16239SOL     OW49294   6.580   5.967   6.463 -0.4494  0.3886  0.0033
16239SOL    HW149295   6.555   5.888   6.415  0.7322 -0.7675  1.2036
16239SOL    HW249296   6.497   6.008   6.485 -1.0968 -0.4841 -0.6820
16240SOL     OW49297   2.667   7.887   6.828 -0.5734  0.9328  0.0478
16240SOL    HW149298   2.710   7.809   6.791  0.3311  0.0740  2.6701
16240SOL    HW249299   2.586   7.854   6.866 -0.6470  1.4412  0.3436
16241SOL     OW49300   3.131   3.981   4.212 -0.4513  0.0568  0.4318
16241SOL    HW149301   3.205   3.992   4.152 -0.8976  2.5865  0.2469
16241SOL    HW249302   3.171   3.976   4.299 -0.0371  1.1146  0.3119
16242SOL     OW49303   0.118   5.209   1.946 -0.2843 -0.1933  0.3885
16242SOL    HW149304   0.068   5.240   2.021 -1.4458 -0.0144 -0.4317
16242SOL    HW249305   0.209   5.224   1.970 -0.7057  2.4137  0.6891
16243SOL     OW49306   9.665   0.271   8.655  0.1574  0.4832 -0.2569
16243SOL    HW149307   9.574   0.252   8.680  0.2929  2.1317  1.7891
16243SOL    HW249308   9.712   0.190   8.675 -0.7828 -0.2929 -1.0550
16244SOL     OW49309   9.153   3.404   3.564  0.3689  0.1058  0.2565
16244SOL    HW149310   9.095   3.480   3.569 -2.0146 -1.6468  1.0780
16244SOL    HW249311   9.172   3.382   3.655 -0.6136 -1.3989  0.1358
16245SOL     OW49312   8.463   4.996   1.074  0.4652  0.4777 -0.7332
16245SOL    HW149313   8.466   5.068   1.011 -0.2707  1.7228  0.5739
16245SOL    HW249314   8.381   5.010   1.123  0.5169 -1.0116 -0.1532
16246SOL     OW49315   6.371   5.330   5.211  0.4534 -0.1816 -0.7164
16246SOL    HW149316   6.341   5.297   5.296 -0.2146 -1.3924 -1.4012
16246SOL    HW249317   6.333   5.270   5.147  1.5753  0.2576 -1.8348
16247SOL     OW49318   5.123   4.573   9.914 -0.2046  0.4296  0.0210
16247SOL    HW149319   5.203   4.530   9.883  1.1063  1.9646  1.1129
16247SOL    HW249320   5.110   4.536  10.002 -0.8488  0.0174 -0.2413
16248SOL     OW49321   0.654   4.192   3.636 -0.1764  0.1997 -0.8938
16248SOL    HW149322   0.585   4.259   3.630 -0.8911 -0.5620 -1.4203
16248SOL    HW249323   0.733   4.241   3.656 -1.0272  1.0319  0.7120
16249SOL     OW49324   0.116   9.538   1.099  0.3741  0.5511  0.0917
16249SOL    HW149325   0.167   9.532   1.180 -1.0799 -1.2531  0.9574
16249SOL    HW249326   0.037   9.586   1.123  0.0972  0.3219 -0.3342
16250SOL     OW49327   2.777   6.924   8.773  0.2438 -0.0888 -0.0012
16250SOL    HW149328   2.710   6.906   8.839  2.6835  2.6037  3.5843
16250SOL    HW249329   2.759   7.013   8.743  1.6323  0.3377  0.3381
16251SOL     OW49330   0.864   8.919   4.250 -0.7107  0.2016 -0.1056
16251SOL    HW149331   0.854   8.978   4.324  2.0442  1.2816 -0.4758
16251SOL    HW249332   0.807   8.956   4.182  0.5927  2.2696 -0.1694
16252SOL     OW49333   4.668   4.746   3.859  0.4791 -0.4851 -0.0690
16252SOL    HW149334   4.649   4.725   3.950  1.7216  0.7150  0.4997
16252SOL    HW249335   4.686   4.840   3.859 -1.5918  0.0127 -1.9386
16253SOL     OW49336   7.266   7.338   4.659  0.2796  0.4043 -0.6906
16253SOL    HW149337   7.226   7.255   4.682 -0.0627 -0.1159 -2.9880
16253SOL    HW249338   7.320   7.319   4.582  1.6789  1.9420 -0.1666
16254SOL     OW49339   2.012   0.275   9.774 -0.4367  0.4338  0.8215
16254SOL    HW149340   2.017   0.248   9.866 -0.8536  0.6433  0.9069
16254SOL    HW249341   2.039   0.197   9.725 -0.1695  0.3355  1.1238
16255SOL     OW49342   8.339   9.619   0.681 -0.0155  0.0001 -0.0142
16255SOL    HW149343   8.347   9.566   0.602 -0.2858 -0.9610  0.5867
16255SOL    HW249344   8.413   9.591   0.736  0.0723  0.5346  0.1449
16256SOL     OW49345   4.441   0.519   7.825 -0.4659 -0.1246 -0.1682
16256SOL    HW149346   4.457   0.433   7.785 -0.7414 -0.5720  0.6481
16256SOL    HW249347   4.482   0.513   7.911 -0.6623  0.4926 -0.0282
16257SOL     OW49348   8.026   4.551   0.389  0.0416  0.0421  0.0037
16257SOL    HW149349   8.109   4.516   0.357 -0.0588 -1.4337  1.2316
16257SOL    HW249350   8.006   4.623   0.329  0.9937 -1.0944 -1.7895
16258SOL     OW49351   7.251   7.110   8.400  0.1105  0.0447  0.5470
16258SOL    HW149352   7.332   7.079   8.361  0.6369 -1.5936  2.7612
16258SOL    HW249353   7.185   7.045   8.376 -0.5281  1.1559 -0.8990
16259SOL     OW49354   2.852   8.247   0.086  0.1211 -0.5774 -0.2601
16259SOL    HW149355   2.831   8.211  -0.001  0.8422 -0.2518 -0.5727
16259SOL    HW249356   2.914   8.184   0.124  1.2630  0.2314 -0.7454
16260SOL     OW49357   8.874   2.124   8.257  0.0393 -0.4474 -0.1088
16260SOL    HW149358   8.820   2.101   8.182 -1.0306  1.0278  0.1696
16260SOL    HW249359   8.932   2.193   8.225  0.8564 -1.0801 -0.0406
16261SOL     OW49360   0.124   2.515   4.467 -0.3205 -0.1623 -0.4118
16261SOL    HW149361   0.150   2.423   4.473  0.9626  0.2667  2.0811
16261SOL    HW249362   0.148   2.552   4.552 -1.8089  2.2433 -0.9401
16262SOL     OW49363   0.298   5.299   9.058  0.0382 -0.3114 -0.2567
16262SOL    HW149364   0.305   5.239   9.132 -0.9298 -0.8862 -0.6175
16262SOL    HW249365   0.267   5.382   9.096 -0.9408 -0.7486 -0.0762
16263SOL     OW49366   5.778   4.320   1.431 -0.1671 -0.1563 -0.3910
16263SOL    HW149367   5.815   4.232   1.424 -0.9588 -0.5339  0.0690
16263SOL    HW249368   5.743   4.325   1.520  0.6546  0.9474 -0.0990
16264SOL     OW49369   9.242   6.644   6.962 -0.0778  0.6467  0.1178
16264SOL    HW149370   9.320   6.697   6.949  0.0469  0.3469 -0.3788
16264SOL    HW249371   9.271   6.570   7.015  0.0872  0.2813 -0.4752
16265SOL     OW49372   7.375   2.747   4.342 -0.2984  0.5683  0.1723
16265SOL    HW149373   7.307   2.784   4.286  1.7458  0.6216 -2.4791
16265SOL    HW249374   7.384   2.656   4.313  0.9275  0.6330  0.2923
16266SOL     OW49375   2.758   6.343   8.947  0.3893 -0.4160  0.5432
16266SOL    HW149376   2.783   6.356   8.855  2.7264  0.6462  1.2564
16266SOL    HW249377   2.836   6.307   8.988 -0.2392  0.1776  2.3564
16267SOL     OW49378   8.007   4.316   8.591 -0.1866 -0.0931  0.1523
16267SOL    HW149379   8.096   4.352   8.594 -0.7014  1.2199  0.5659
16267SOL    HW249380   8.000   4.278   8.504  1.0669 -1.0396  0.4247
16268SOL     OW49381   0.875   3.412   3.439 -0.1714 -0.6312 -0.3974
16268SOL    HW149382   0.843   3.386   3.525 -0.9937  0.4053 -0.3691
16268SOL    HW249383   0.810   3.378   3.378 -1.3366  1.3555 -0.3516
16269SOL     OW49384   7.128   4.587   5.624  0.7936  0.3646 -0.1188
16269SOL    HW149385   7.140   4.680   5.641 -1.4451  0.5886  0.6721
16269SOL    HW249386   7.091   4.582   5.536  0.7369  0.2350 -0.0886
16270SOL     OW49387   6.336   9.149   1.498  0.1660 -0.6473  0.0710
16270SOL    HW149388   6.301   9.237   1.502  0.8342 -0.3195 -0.9907
16270SOL    HW249389   6.263   9.092   1.524 -1.1191  0.0097 -1.8817
16271SOL     OW49390   3.417   1.555   0.237 -0.1408 -0.4626  0.1810
16271SOL    HW149391   3.334   1.508   0.235 -0.0399 -0.6269 -0.1105
16271SOL    HW249392   3.480   1.496   0.196  0.5083 -1.0942  1.9549
16272SOL     OW49393   9.270   2.166   5.012  0.1306  0.2616  0.0133
16272SOL    HW149394   9.254   2.138   4.922 -1.1916  0.8563  0.0439
16272SOL    HW249395   9.342   2.110   5.042  0.9985  0.4602 -1.5868
16273SOL     OW49396   4.574   6.048   3.103  0.4713  0.2351  0.5420
16273SOL    HW149397   4.582   6.132   3.057  0.3167 -1.5785 -3.1178
16273SOL    HW249398   4.661   6.034   3.140  0.1252  2.5652  2.5225
16274SOL     OW49399   5.653   8.509   6.285  0.4805  0.1950 -0.1014
16274SOL    HW149400   5.653   8.530   6.379  0.4687 -1.1148  0.2083
16274SOL    HW249401   5.731   8.455   6.272  0.2816  0.0621 -0.7870
16275SOL     OW49402   2.941   6.019   3.923 -0.1019 -0.9543  0.7138
16275SOL    HW149403   2.951   5.925   3.905  0.0558 -0.7137 -0.5038
16275SOL    HW249404   2.855   6.027   3.963 -0.5657 -1.5006 -0.1448
16276SOL     OW49405   7.058   7.321   7.214  0.3532 -0.3425 -0.0964
16276SOL    HW149406   7.057   7.286   7.304  0.3286 -0.8349 -0.2834
16276SOL    HW249407   7.150   7.332   7.193  0.4155 -1.4327 -0.4605
16277SOL     OW49408   2.438   1.312   4.984 -0.6473  0.3214 -0.1027
16277SOL    HW149409   2.500   1.381   5.007 -0.7465 -0.1919  1.9502
16277SOL    HW249410   2.491   1.246   4.939 -0.2680  1.0872 -0.7946
16278SOL     OW49411   4.677   0.712   9.129 -0.6846  0.0094  0.2396
16278SOL    HW149412   4.582   0.719   9.117 -0.9289 -0.7582  1.5694
16278SOL    HW249413   4.699   0.784   9.189 -0.5847 -0.4138  0.7134
16279SOL     OW49414   3.210   8.506   0.631 -0.4602  0.2333  0.4764
16279SOL    HW149415   3.119   8.528   0.650 -0.4975 -0.8702  1.7501
16279SOL    HW249416   3.206   8.424   0.583 -0.1296 -0.2845  1.3052
16280SOL     OW49417   4.097   4.067   3.037  0.2122 -0.5355 -0.4978
16280SOL    HW149418   4.040   4.122   2.984 -1.3550 -1.5069  0.1127
16280SOL    HW249419   4.147   4.128   3.091 -0.1858  0.3353 -1.1037
16281SOL     OW49420   0.822   6.706   7.813  0.1736  0.6088 -0.2217
16281SOL    HW149421   0.790   6.741   7.897 -0.7818  0.6801 -0.6007
16281SOL    HW249422   0.757   6.735   7.749 -0.3262 -1.3252 -0.6487
16282SOL     OW49423   4.535   1.022   1.786  0.5977  0.2312 -0.0109
16282SOL    HW149424   4.606   1.054   1.730  1.7306 -0.6404  0.8912
16282SOL    HW249425   4.575   0.955   1.841  0.0478  2.3623  3.2544
16283SOL     OW49426   3.286   8.420   1.933  0.1494  0.2514 -0.3152
16283SOL    HW149427   3.330   8.359   1.991 -1.0694 -0.6751 -0.3335
16283SOL    HW249428   3.310   8.390   1.845 -1.1629 -0.7867 -0.3444
16284SOL     OW49429   2.114   8.498   1.650  0.1575  0.1609 -0.6058
16284SOL    HW149430   2.163   8.515   1.730 -0.9244 -0.4668  0.2104
16284SOL    HW249431   2.060   8.421   1.670  1.8173 -1.6909 -2.8123
16285SOL     OW49432   7.443   2.094   1.865 -0.2691 -0.1078  0.0223
16285SOL    HW149433   7.409   2.061   1.948 -1.1160  0.0488 -0.2524
16285SOL    HW249434   7.493   2.172   1.889  0.3379 -0.6296  0.4886
16286SOL     OW49435   3.538   6.108   5.160 -0.3858 -0.1535  0.1402
16286SOL    HW149436   3.600   6.175   5.131  0.4109 -0.6737  0.5943
16286SOL    HW249437   3.562   6.030   5.109 -1.1586 -0.1678 -0.2244
16287SOL     OW49438   9.796   1.684   4.012  0.0116 -0.6767  0.1005
16287SOL    HW149439   9.760   1.760   3.967  1.1725  0.0462  0.3592
16287SOL    HW249440   9.719   1.633   4.039 -0.7590  0.1564 -0.4935
16288SOL     OW49441   4.747   7.898   0.897 -0.0998 -0.1640  0.0462
16288SOL    HW149442   4.682   7.954   0.855  0.9479  1.7722  0.9014
16288SOL    HW249443   4.748   7.925   0.988  0.4829 -1.5622  0.4897
16289SOL     OW49444   8.620   2.619   8.944  0.1188  0.8963 -0.0374
16289SOL    HW149445   8.654   2.640   8.857  1.5765 -0.5993  0.1237
16289SOL    HW249446   8.622   2.702   8.991  1.8986  1.2238 -0.6070
16290SOL     OW49447   6.791   6.288   6.872 -0.3946 -0.2859 -0.1873
16290SOL    HW149448   6.758   6.377   6.863  0.7587  0.1676 -0.1294
16290SOL    HW249449   6.746   6.239   6.803  1.6241  1.1682 -2.7373
16291SOL     OW49450   4.857   2.491   4.096  0.5316  0.1092  0.2397
16291SOL    HW149451   4.839   2.441   4.017 -0.4372  0.9212 -0.0911
16291SOL    HW249452   4.810   2.574   4.082 -1.1304 -0.3851  2.3849
16292SOL     OW49453   5.772   2.022   1.029 -0.4964 -0.1416  0.1608
16292SOL    HW149454   5.843   1.966   1.000 -0.9906 -0.8061  0.2067
16292SOL    HW249455   5.814   2.092   1.077  0.6196  2.1272 -3.6682
16293SOL     OW49456   9.862   6.612   7.705 -0.3840  0.1587 -0.0723
16293SOL    HW149457   9.817   6.695   7.719 -1.1191 -0.4268  1.1316
16293SOL    HW249458   9.884   6.581   7.793  2.3415  0.3615 -0.5677
16294SOL     OW49459   7.964   7.308   0.789  0.0544  0.4548  0.0699
16294SOL    HW149460   7.914   7.348   0.860 -1.1961  0.8596 -1.0024
16294SOL    HW249461   7.902   7.303   0.716  0.9788 -0.9803 -0.6522
16295SOL     OW49462   4.708   1.175   7.960 -0.1601  0.3128 -0.6427
16295SOL    HW149463   4.697   1.265   7.989  1.7276  0.5726 -0.6303
16295SOL    HW249464   4.657   1.169   7.880 -0.5395  1.3107 -0.4839
16296SOL     OW49465   4.879   2.266   7.199 -0.0454 -0.9951  0.1640
16296SOL    HW149466   4.905   2.324   7.270 -0.4697 -2.5798  1.6927
16296SOL    HW249467   4.789   2.241   7.220 -1.2342  0.6117 -2.4445
16297SOL     OW49468   8.105   3.995   8.596  0.0532  0.3474 -0.1899
16297SOL    HW149469   8.147   3.914   8.623 -0.3013  0.3056  0.2536
16297SOL    HW249470   8.152   4.022   8.517  1.1799  0.5251  0.5234
16298SOL     OW49471   1.267   7.890   0.562 -0.3222  0.2474 -0.2245
16298SOL    HW149472   1.340   7.922   0.510 -0.1252 -3.2865 -2.4498
16298SOL    HW249473   1.191   7.900   0.505 -0.3320 -2.4079 -0.8048
16299SOL     OW49474   3.806   3.535   1.861 -0.0276  0.0862  0.2653
16299SOL    HW149475   3.832   3.581   1.941 -0.6633  0.2709  0.3751
16299SOL    HW249476   3.714   3.557   1.850 -0.8646 -2.5164  1.2628
16300SOL     OW49477   6.236   8.011   4.893 -0.5189  0.3051 -0.2796
16300SOL    HW149478   6.179   7.938   4.868 -0.5694  0.3466 -0.2847
16300SOL    HW249479   6.256   8.055   4.810  0.5680 -0.4706 -0.4414
16301SOL     OW49480   9.439   1.839   9.203  0.0891  0.1374  0.0053
16301SOL    HW149481   9.524   1.800   9.181 -0.3395  0.2526 -2.0845
16301SOL    HW249482   9.456   1.933   9.208  0.0327  0.1927 -0.7614
16302SOL     OW49483   5.085   8.601   9.069  0.5363 -0.3811  0.2007
16302SOL    HW149484   5.138   8.657   9.012  0.1775 -1.1860 -0.9512
16302SOL    HW249485   5.088   8.644   9.155  2.5686 -0.0784  0.0308
16303SOL     OW49486   8.708   1.831   8.826 -0.0446  0.4068  0.4455
16303SOL    HW149487   8.720   1.781   8.745 -0.1242 -0.2764  0.8521
16303SOL    HW249488   8.614   1.846   8.832  0.0567  1.3636 -0.1168
16304SOL     OW49489   1.607   8.699   7.254  0.0737  0.3756  0.1303
16304SOL    HW149490   1.622   8.752   7.176 -1.1110  0.1458 -0.2716
16304SOL    HW249491   1.686   8.645   7.261  1.1323  1.8791  0.3372
16305SOL     OW49492   4.324   6.398   1.936 -0.2505  0.4158 -0.3230
16305SOL    HW149493   4.268   6.343   1.881  0.2890 -1.9272  1.3588
16305SOL    HW249494   4.271   6.418   2.013  0.5350 -0.2062  0.4000
16306SOL     OW49495   0.071   0.234   2.598 -0.3304  0.7048  0.0316
16306SOL    HW149496   0.042   0.316   2.638 -0.2668  0.5101  0.4873
16306SOL    HW249497   0.020   0.166   2.642  0.7876  0.3586  0.8364
16307SOL     OW49498   8.497   6.427   6.366 -0.4392  0.3722 -0.6128
16307SOL    HW149499   8.405   6.444   6.389  0.1733  1.7625  1.0374
16307SOL    HW249500   8.509   6.334   6.382 -1.6974  0.0569 -1.3967
16308SOL     OW49501   1.897   0.717   0.610  0.7615  0.0270  0.1030
16308SOL    HW149502   1.948   0.741   0.688  1.0527  0.6821 -0.2829
16308SOL    HW249503   1.870   0.627   0.627 -2.3480  1.2384  2.6959
16309SOL     OW49504   3.659   7.211   9.534  0.4991 -0.0825  0.2478
16309SOL    HW149505   3.702   7.130   9.562  1.0170 -0.1945 -0.8451
16309SOL    HW249506   3.666   7.211   9.439 -0.6599  0.6139  0.1401
16310SOL     OW49507   1.310   1.811   5.691  0.0212 -0.2428  0.4207
16310SOL    HW149508   1.372   1.790   5.760 -0.1375 -1.1089  0.3103
16310SOL    HW249509   1.224   1.804   5.733 -0.0235  0.5500  0.4710
16311SOL     OW49510   8.410   2.585   9.682  0.1379  0.0033 -0.2033
16311SOL    HW149511   8.398   2.534   9.762 -1.1834 -2.3723 -1.7826
16311SOL    HW249512   8.326   2.630   9.669 -0.2292 -0.8872 -1.0344
16312SOL     OW49513   9.309   5.026   1.165  0.1052 -0.3157 -0.0627
16312SOL    HW149514   9.327   4.933   1.156  0.8493 -0.2739  0.7976
16312SOL    HW249515   9.333   5.046   1.255 -1.0408  0.4976  0.0777
16313SOL     OW49516   4.137   8.538   7.603  0.2958  0.4155  0.3071
16313SOL    HW149517   4.048   8.504   7.590 -0.6693  2.8187  0.0723
16313SOL    HW249518   4.159   8.581   7.521  0.8782  1.5135  1.0095
16314SOL     OW49519   3.757   6.482   3.295 -0.4922 -0.5617 -0.2087
16314SOL    HW149520   3.782   6.390   3.301  1.0112 -0.0796  2.1436
16314SOL    HW249521   3.701   6.487   3.217 -1.2162 -3.5649  0.0212
16315SOL     OW49522   5.937   6.414   5.719  0.2663 -0.3363  0.0070
16315SOL    HW149523   5.958   6.334   5.767  0.7282 -0.5114 -0.4798
16315SOL    HW249524   5.901   6.384   5.636  2.4738 -0.1057 -1.1160
16316SOL     OW49525   6.868   1.779   0.398 -0.1111 -0.2182  0.0014
16316SOL    HW149526   6.855   1.752   0.307  1.3853 -0.2945 -0.2173
16316SOL    HW249527   6.808   1.725   0.448  0.6475 -1.8136 -0.7371
16317SOL     OW49528   5.822   0.515   9.463  0.0179 -0.0587 -0.1672
16317SOL    HW149529   5.874   0.565   9.526  0.0988  1.1400 -1.1252
16317SOL    HW249530   5.735   0.555   9.466 -0.4371 -1.0539  0.3294
16318SOL     OW49531   4.501   4.447   5.706 -0.3690  0.3112 -0.5877
16318SOL    HW149532   4.480   4.490   5.789  2.8155 -1.0767  1.1063
16318SOL    HW249533   4.570   4.500   5.667  0.6946 -0.9485 -0.5119
16319SOL     OW49534   7.447   5.557   7.451  0.2691 -0.0752  0.2652
16319SOL    HW149535   7.438   5.623   7.520  3.5517  0.3122  0.4707
16319SOL    HW249536   7.506   5.597   7.387 -0.9610 -1.2780 -1.7091
16320SOL     OW49537   3.764   9.593   1.499  0.2873 -0.1012  0.3728
16320SOL    HW149538   3.670   9.575   1.496  0.5973 -1.7927 -1.1217
16320SOL    HW249539   3.798   9.537   1.568  0.1524  0.9489  1.3213
16321SOL     OW49540   7.110   8.662   6.940  0.8601 -0.7245  0.1603
16321SOL    HW149541   7.079   8.715   7.013  2.3861 -1.6798  1.5650
16321SOL    HW249542   7.192   8.624   6.970  1.4823 -1.2679 -2.0191
16322SOL     OW49543   8.787   1.521   8.056  0.5287 -0.6552 -0.0421
16322SOL    HW149544   8.880   1.545   8.057  0.6403 -0.9823 -1.2728
16322SOL    HW249545   8.779   1.456   8.126  0.8909  0.5008  1.1196
16323SOL     OW49546   3.373   0.127   7.564  0.5742  0.0896  0.0596
16323SOL    HW149547   3.400   0.194   7.627  1.7158  0.6739 -0.9800
16323SOL    HW249548   3.333   0.058   7.617 -0.2363  1.3862  1.2106
16324SOL     OW49549   6.014   3.624   2.037 -0.0542  0.3002  0.3580
16324SOL    HW149550   6.028   3.668   2.121 -1.0324 -0.5263  0.9779
16324SOL    HW249551   5.977   3.538   2.061 -0.5107  0.1234 -0.9152
16325SOL     OW49552   8.308   1.449   6.531  0.1235  0.1167 -0.0810
16325SOL    HW149553   8.400   1.475   6.522 -0.2014  1.3652  0.0768
16325SOL    HW249554   8.266   1.524   6.573 -1.2546  0.1208 -1.4013
16326SOL     OW49555   1.723   9.679   2.047  0.1428 -0.3949 -0.2687
16326SOL    HW149556   1.816   9.682   2.023 -0.1495 -0.2771 -1.4585
16326SOL    HW249557   1.692   9.769   2.037  0.3293 -0.0220  2.0670
16327SOL     OW49558   6.343   8.066   1.533  0.5082 -0.1277 -0.6845
16327SOL    HW149559   6.251   8.079   1.556  0.7542  0.4691  0.0013
16327SOL    HW249560   6.391   8.103   1.607  1.2916 -1.6141 -0.4076
16328SOL     OW49561   9.971   2.607   1.677  0.5368 -0.3190 -0.9812
16328SOL    HW149562   9.913   2.531   1.681  1.7689 -1.3441 -1.5442
16328SOL    HW249563   9.946   2.652   1.596 -0.3212 -0.0224 -0.5544
16329SOL     OW49564   3.753   2.913   4.397  0.6116  0.0102  0.2654
16329SOL    HW149565   3.845   2.890   4.403  0.4122 -0.5598  1.3530
16329SOL    HW249566   3.728   2.892   4.307  1.5013  0.0598  0.0023
16330SOL     OW49567   3.256   7.395   2.038  0.8548 -0.7050  0.0424
16330SOL    HW149568   3.277   7.455   1.967  0.6408  0.6909  1.1059
16330SOL    HW249569   3.325   7.329   2.036  1.7069  0.1885 -0.4927
16331SOL     OW49570   3.718   6.244   4.771  0.6376 -0.0863 -0.0074
16331SOL    HW149571   3.632   6.211   4.798  0.8909 -0.1569  0.7296
16331SOL    HW249572   3.755   6.175   4.717  0.5404 -0.3781  0.2954
16332SOL     OW49573   1.556   6.437   1.365  0.2335  0.3378 -0.4099
16332SOL    HW149574   1.469   6.476   1.358  0.1666  0.4991  0.9657
16332SOL    HW249575   1.615   6.512   1.370  0.4866  0.2274 -1.6411
16333SOL     OW49576   1.407   5.029   3.385  0.0737  0.2161 -0.1635
16333SOL    HW149577   1.479   4.966   3.391 -0.6643 -0.5458  1.3540
16333SOL    HW249578   1.352   5.009   3.460 -1.9957  0.4459 -1.5338
16334SOL     OW49579   7.196   8.323   8.949 -0.7627  0.4141 -0.3305
16334SOL    HW149580   7.117   8.354   8.992 -0.6901  0.3261 -0.1360
16334SOL    HW249581   7.266   8.379   8.984 -0.6443  0.0854 -0.0429
16335SOL     OW49582   3.208   2.212   7.380  0.0784  0.1124 -0.0189
16335SOL    HW149583   3.211   2.296   7.426  1.3931  1.5615 -2.5420
16335SOL    HW249584   3.298   2.181   7.381  0.1354  0.1737 -1.5330
16336SOL     OW49585   6.876   2.877   3.611 -0.4372 -0.0894 -0.1375
16336SOL    HW149586   6.958   2.906   3.572 -1.5465  2.8241 -0.5342
16336SOL    HW249587   6.900   2.848   3.699  0.9746  1.0668 -0.1071
16337SOL     OW49588   6.449   1.812   4.334 -0.4425 -0.3663 -0.1754
16337SOL    HW149589   6.421   1.864   4.258  0.8796 -0.6082 -0.8398
16337SOL    HW249590   6.371   1.761   4.358 -0.6577 -0.8837 -1.8685
16338SOL     OW49591   5.227   3.107   1.442  0.2251  0.0158 -0.4369
16338SOL    HW149592   5.238   3.021   1.402  2.4662  0.0441 -0.0027
16338SOL    HW249593   5.256   3.169   1.375  1.2950  0.2337  0.2030
16339SOL     OW49594   4.890   6.667   6.364  0.8838 -0.1648 -0.5170
16339SOL    HW149595   4.845   6.717   6.432  1.4454 -1.5407  0.9322
16339SOL    HW249596   4.849   6.580   6.366  1.5365 -0.5047 -1.3018
16340SOL     OW49597   6.116   2.432   2.219 -0.0832  0.2208 -0.1099
16340SOL    HW149598   6.045   2.480   2.176  1.2792  1.1988 -1.4016
16340SOL    HW249599   6.106   2.342   2.189  0.9491  0.9008 -2.8276
16341SOL     OW49600   9.816   0.532   7.619 -0.2389  0.1122  0.0866
16341SOL    HW149601   9.893   0.495   7.662  1.6321  3.6984  0.2148
16341SOL    HW249602   9.845   0.549   7.529 -2.0563 -1.5318 -0.8772
16342SOL     OW49603   4.101   8.637   2.061  0.1327 -0.5914  0.4539
16342SOL    HW149604   4.131   8.717   2.019  0.7762 -0.2801  1.4703
16342SOL    HW249605   4.172   8.574   2.047 -0.4516 -1.0588 -0.5035
16343SOL     OW49606   2.788   2.531   8.202 -0.2367  0.3077 -0.0116
16343SOL    HW149607   2.732   2.608   8.191  2.1829  2.2399  0.4763
16343SOL    HW249608   2.856   2.540   8.135 -0.1036 -1.6613 -0.2165
16344SOL     OW49609   1.676   0.794   2.101 -0.3889  0.5590 -0.1241
16344SOL    HW149610   1.581   0.798   2.091 -0.3055  1.4780 -0.7479
16344SOL    HW249611   1.710   0.830   2.019  0.5144 -0.6625 -0.3072
16345SOL     OW49612   1.979   1.889   0.527 -0.0164 -0.5255 -0.2828
16345SOL    HW149613   2.073   1.882   0.538 -0.0148 -0.7304 -0.4330
16345SOL    HW249614   1.963   1.983   0.520  0.3081 -0.5408 -1.3844
16346SOL     OW49615   3.961   3.689   5.879  0.0200  0.4489 -0.0651
16346SOL    HW149616   3.897   3.638   5.928  2.2527 -3.5319 -0.8807
16346SOL    HW249617   3.934   3.679   5.787  0.9955 -0.1161 -0.3037
16347SOL     OW49618   2.597   9.965   9.301  0.0534  0.4867  0.1127
16347SOL    HW149619   2.558   9.934   9.219 -0.8588  2.6368 -0.3405
16347SOL    HW249620   2.689   9.979   9.281  0.5811 -2.0344  0.4217
16348SOL     OW49621   3.409   0.343   8.796 -0.4888 -0.3382  0.1060
16348SOL    HW149622   3.393   0.301   8.881  1.0294 -0.5830  0.3031
16348SOL    HW249623   3.491   0.305   8.765 -0.9155 -0.0978 -1.3934
16349SOL     OW49624   5.122   0.749   2.144 -0.3022 -0.2560 -0.4800
16349SOL    HW149625   5.080   0.772   2.061  0.0776  2.4679 -0.0293
16349SOL    HW249626   5.213   0.731   2.121 -0.4154 -0.4572 -0.7683
16350SOL     OW49627   3.555   7.215   4.389  0.0049 -0.5150 -0.4551
16350SOL    HW149628   3.573   7.301   4.353 -1.4543 -0.4664 -1.1302
16350SOL    HW249629   3.593   7.154   4.326  0.6590 -0.3817 -0.1960
16351SOL     OW49630   2.275   4.400   7.148 -0.0771 -0.0414  0.5524
16351SOL    HW149631   2.295   4.327   7.089  0.2208  0.3143  0.2099
16351SOL    HW249632   2.353   4.455   7.145 -0.6298  0.7294  0.1545
16352SOL     OW49633   2.455   4.454   1.856  0.4383 -0.5049  0.2029
16352SOL    HW149634   2.404   4.498   1.788 -0.7831 -1.3406  0.5499
16352SOL    HW249635   2.519   4.401   1.807  0.4585 -0.0631 -0.2578
16353SOL     OW49636   0.177   3.229   7.875 -0.8426 -0.1686  0.1910
16353SOL    HW149637   0.206   3.306   7.925 -0.1900 -0.2195 -0.0891
16353SOL    HW249638   0.250   3.167   7.883  0.0602  0.4861 -2.2444
16354SOL     OW49639   9.084  -0.017   1.426  0.3264  0.1498  0.1573
16354SOL    HW149640   9.171  -0.027   1.388  0.5088 -0.7934  0.7818
16354SOL    HW249641   9.073   0.077   1.437  0.7644  0.3646 -1.0661
16355SOL     OW49642   9.201   9.565   0.675 -0.7946  0.1057 -0.2098
16355SOL    HW149643   9.181   9.593   0.765 -0.9180  0.6439 -0.3998
16355SOL    HW249644   9.237   9.477   0.685 -1.8578 -0.2958  0.2775
16356SOL     OW49645   7.737   6.684   3.111 -0.6603  0.3003  0.1470
16356SOL    HW149646   7.803   6.645   3.169  0.4980 -0.6169 -1.6928
16356SOL    HW249647   7.706   6.761   3.159  1.5081  0.5840  1.2492
16357SOL     OW49648   6.743   5.443   9.699 -0.1734 -0.1012  0.0806
16357SOL    HW149649   6.706   5.360   9.669  0.8288 -0.4535 -0.2174
16357SOL    HW249650   6.719   5.506   9.630  0.4970 -0.5069 -0.5289
16358SOL     OW49651   9.519   2.623   0.791  0.1327  0.1696  0.0437
16358SOL    HW149652   9.450   2.676   0.832  0.0235  0.9751 -1.1317
16358SOL    HW249653   9.488   2.533   0.799 -0.7023  0.4609  0.2157
16359SOL     OW49654   4.423   3.696   1.729  0.4067 -0.2451  0.3776
16359SOL    HW149655   4.402   3.689   1.636 -1.7481 -0.8717  0.8360
16359SOL    HW249656   4.409   3.788   1.751  1.3790 -0.0006  0.0037
16360SOL     OW49657   5.243   0.310   4.789 -0.0899 -0.2445 -0.0944
16360SOL    HW149658   5.311   0.330   4.724  0.0403  0.7755  0.3383
16360SOL    HW249659   5.289   0.315   4.873 -0.9996  2.0148  0.3239
16361SOL     OW49660   4.040   6.241   9.820  0.3399  0.2472  0.4202
16361SOL    HW149661   4.106   6.297   9.859 -0.5704  1.6342  0.0295
16361SOL    HW249662   4.035   6.268   9.729  2.1576 -2.6811 -0.6866
16362SOL     OW49663   7.439   8.444   0.742  0.6823 -0.3942 -0.1212
16362SOL    HW149664   7.407   8.355   0.726 -0.7722  0.2754 -1.0370
16362SOL    HW249665   7.382   8.478   0.811  0.1693  0.3761 -0.9027
16363SOL     OW49666   6.413   4.901   5.256 -0.8050  0.1955 -0.0180
16363SOL    HW149667   6.348   4.883   5.324 -0.6554 -0.0182  0.0723
16363SOL    HW249668   6.447   4.815   5.233 -0.5135  0.3094 -0.0209
16364SOL     OW49669   1.515   1.739   3.408 -0.1654  0.9664  0.1880
16364SOL    HW149670   1.495   1.704   3.495  0.5781  0.5657  0.2038
16364SOL    HW249671   1.454   1.694   3.349  0.6840 -0.2837  0.2251
16365SOL     OW49672   7.333   3.175   7.581 -0.1336 -0.5668 -0.5918
16365SOL    HW149673   7.291   3.222   7.509 -1.3581 -0.5515  0.1150
16365SOL    HW249674   7.409   3.228   7.603 -1.7519  1.4224  0.5351
16366SOL     OW49675   0.396   7.295   6.094 -0.2883  0.3476 -0.7182
16366SOL    HW149676   0.463   7.237   6.058 -0.8372 -0.0895 -1.0458
16366SOL    HW249677   0.435   7.329   6.174  0.5143  0.4754 -1.1509
16367SOL     OW49678   3.279   3.216   8.203  0.3245 -0.4560  0.1293
16367SOL    HW149679   3.323   3.213   8.287 -1.3421  0.3727  1.0833
16367SOL    HW249680   3.196   3.171   8.217  0.1035 -0.4968 -1.1298
16368SOL     OW49681   7.156   7.585   5.899  0.2877 -0.4088  0.2641
16368SOL    HW149682   7.219   7.512   5.903 -0.3503 -0.9688  0.2730
16368SOL    HW249683   7.074   7.544   5.870 -0.1356  0.2710  0.4859
16369SOL     OW49684   5.529   8.995   6.174  0.1194  0.4471  0.0063
16369SOL    HW149685   5.452   8.968   6.225  0.0955  0.7299  0.1233
16369SOL    HW249686   5.559   8.915   6.132 -1.3359  0.6358 -1.5259
16370SOL     OW49687   5.443   7.242   5.258 -0.2656 -0.0461  0.4323
16370SOL    HW149688   5.534   7.262   5.236 -0.8921  1.3987 -1.1049
16370SOL    HW249689   5.423   7.162   5.209 -0.6537  1.3048 -1.7525
16371SOL     OW49690   3.684   5.510   3.955 -0.1323  0.4310  0.2372
16371SOL    HW149691   3.630   5.563   4.012 -0.9711  1.5729 -1.5317
16371SOL    HW249692   3.624   5.477   3.888  1.0635  0.4034 -0.8631
16372SOL     OW49693   9.140   3.329   5.079  0.3219 -0.8409  0.1830
16372SOL    HW149694   9.059   3.347   5.127  0.1543 -0.8557 -0.0927
16372SOL    HW249695   9.184   3.413   5.073 -0.4019 -0.5245 -1.0005
16373SOL     OW49696   6.670   9.236   7.068  0.1198 -0.4091  0.2320
16373SOL    HW149697   6.653   9.304   7.133  2.1621 -0.5447  0.9675
16373SOL    HW249698   6.711   9.165   7.117  1.3758 -0.6691 -1.1282
16374SOL     OW49699   7.857   1.326   8.458  0.8780 -0.5330  0.3559
16374SOL    HW149700   7.909   1.398   8.423 -0.7787  1.0348  0.9661
16374SOL    HW249701   7.829   1.277   8.380 -0.1924  1.0940 -0.3415
16375SOL     OW49702   3.598   5.570   5.774 -0.1008  0.0046 -0.0832
16375SOL    HW149703   3.608   5.475   5.767  0.0433 -0.0086  0.2812
16375SOL    HW249704   3.529   5.582   5.840 -1.7246  0.1084 -1.6980
16376SOL     OW49705   9.068   7.502   5.010  0.0358 -0.6112 -0.0514
16376SOL    HW149706   9.013   7.539   5.078  0.3601 -2.0316  1.0172
16376SOL    HW249707   9.021   7.424   4.979 -0.1324  0.0286 -1.5071
16377SOL     OW49708   9.575   9.167   8.236  0.0858  0.2279  0.2658
16377SOL    HW149709   9.497   9.150   8.288 -0.1467 -1.2000 -0.4961
16377SOL    HW249710   9.544   9.218   8.161  0.2509  1.4199  0.9923
16378SOL     OW49711   8.885   3.216   9.158 -0.4551  0.4012 -0.4274
16378SOL    HW149712   8.925   3.152   9.100 -0.1022 -1.8601  2.0849
16378SOL    HW249713   8.796   3.227   9.124 -0.3957 -1.1798 -1.1883
16379SOL     OW49714   3.663   2.473   5.909  0.1979  0.2037 -0.4793
16379SOL    HW149715   3.702   2.386   5.915  0.9757  0.5739  0.1625
16379SOL    HW249716   3.729   2.526   5.864  0.1601  0.6760 -0.0006
16380SOL     OW49717   3.593   6.729   9.106  0.5460  0.0580  0.1036
16380SOL    HW149718   3.597   6.661   9.173 -0.3721  0.5959  0.7377
16380SOL    HW249719   3.532   6.695   9.041  0.7918 -0.1172 -0.0315
16381SOL     OW49720   4.309   5.425   1.937 -0.0172  0.5965 -0.1443
16381SOL    HW149721   4.350   5.338   1.942 -0.8288  0.2288  0.3579
16381SOL    HW249722   4.272   5.429   1.849 -1.5239 -0.3120  0.4062
16382SOL     OW49723   8.429   8.672   7.276  1.0181 -0.6200  0.2186
16382SOL    HW149724   8.512   8.659   7.230  1.1116 -0.9535  0.4776
16382SOL    HW249725   8.435   8.615   7.353  0.6554 -0.4485  0.3774
16383SOL     OW49726   7.589   1.774   7.674 -0.3536  0.6742  0.2656
16383SOL    HW149727   7.646   1.822   7.734  0.3088  1.0830 -0.6512
16383SOL    HW249728   7.596   1.823   7.591 -1.1262  0.0514 -0.1820
16384SOL     OW49729   3.482   5.334   2.608 -0.4464 -0.1907 -0.2653
16384SOL    HW149730   3.423   5.262   2.629 -0.7366  0.0304 -0.3200
16384SOL    HW249731   3.569   5.294   2.606 -0.3814 -0.1897  1.5224
16385SOL     OW49732   7.259   1.085   9.550  0.3071  0.4841 -0.2023
16385SOL    HW149733   7.340   1.119   9.589 -0.1058  0.2828  0.8661
16385SOL    HW249734   7.278   0.993   9.532  0.1448  0.2888  0.5757
16386SOL     OW49735   4.553   4.168   4.086  0.3364 -0.2175 -0.3402
16386SOL    HW149736   4.556   4.076   4.062  1.0234  0.1759 -1.9204
16386SOL    HW249737   4.502   4.171   4.167 -2.4159 -1.6739 -1.8813
16387SOL     OW49738   1.945   4.731   5.296  0.1310 -0.0914  0.1480
16387SOL    HW149739   2.008   4.709   5.227  1.5506 -0.4638  1.5096
16387SOL    HW249740   1.927   4.648   5.340 -0.7077  0.1564  0.2970
16388SOL     OW49741   5.903   3.530   1.115  0.9899 -0.3255  0.6443
16388SOL    HW149742   5.963   3.456   1.111  0.6382 -0.5569 -0.8691
16388SOL    HW249743   5.828   3.503   1.063 -0.2991  0.1110  2.1845
16389SOL     OW49744   7.894   2.285   9.771 -0.0268 -0.1284 -0.0237
16389SOL    HW149745   7.835   2.339   9.824  1.0887  0.8805  0.2398
16389SOL    HW249746   7.947   2.348   9.722 -0.3631 -1.0261 -1.6193
16390SOL     OW49747   9.716   0.294   5.574  0.1516  1.0483  0.0615
16390SOL    HW149748   9.751   0.261   5.491  0.0266 -0.3541  0.5347
16390SOL    HW249749   9.632   0.333   5.551  0.2377  0.9033 -0.5095
16391SOL     OW49750   6.362   1.838   5.648  0.2265 -0.3440  0.0541
16391SOL    HW149751   6.389   1.874   5.563 -0.0358  0.0308  0.1245
16391SOL    HW249752   6.282   1.886   5.669  0.4411 -0.2414  0.6422
16392SOL     OW49753   5.979   8.199   1.016  0.7494  0.2874  1.2768
16392SOL    HW149754   5.985   8.172   0.925  0.3985  1.6611  0.8321
16392SOL    HW249755   6.070   8.199   1.047  0.7081 -2.3179  1.6125
16393SOL     OW49756   1.255   6.264   7.180  0.4825 -0.5475 -0.5346
16393SOL    HW149757   1.286   6.175   7.159  0.1713 -0.9668  0.7113
16393SOL    HW249758   1.257   6.268   7.275  0.3388  0.7482 -0.5689
16394SOL     OW49759   5.031   0.026   5.448  0.0798 -0.0250 -0.5807
16394SOL    HW149760   5.059  -0.054   5.403 -1.0710 -1.1825  0.6775
16394SOL    HW249761   4.972   0.069   5.385 -0.8151 -1.1720 -0.5568
16395SOL     OW49762   8.704   9.080   4.524  0.5324 -0.4716 -0.1451
16395SOL    HW149763   8.740   9.161   4.561  1.6491 -1.1272  0.2873
16395SOL    HW249764   8.624   9.106   4.479  0.5016  0.7541  0.5955
16396SOL     OW49765   6.776   1.042   5.335 -0.5505  0.0670 -0.1887
16396SOL    HW149766   6.734   1.037   5.248  1.6707 -1.4540 -1.2663
16396SOL    HW249767   6.826   0.961   5.342 -0.4333  0.2915  2.4485
16397SOL     OW49768   0.840   0.699   6.968 -0.2948 -0.1822  0.2418
16397SOL    HW149769   0.760   0.718   6.918 -0.2013 -1.0683 -0.2713
16397SOL    HW249770   0.809   0.668   7.053 -0.7677 -4.8499 -1.3649
16398SOL     OW49771   9.147   5.986   6.763  0.1932 -0.0037 -0.1301
16398SOL    HW149772   9.114   6.026   6.683 -0.2757 -2.0543 -1.0278
16398SOL    HW249773   9.073   5.985   6.823  0.0663  0.0094 -0.2869
16399SOL     OW49774   7.393   4.288   2.892 -0.2520 -0.5792 -0.1182
16399SOL    HW149775   7.413   4.294   2.799  2.0241  1.4162  0.4073
16399SOL    HW249776   7.453   4.222   2.926 -0.5105 -0.7216  0.0620
16400SOL     OW49777   6.361   3.722   6.715 -0.8237 -0.8293  0.0880
16400SOL    HW149778   6.322   3.650   6.666 -2.2916 -0.2451  0.3394
16400SOL    HW249779   6.378   3.789   6.649 -0.6649 -0.9076  0.0478
16401SOL     OW49780   9.754   4.533   0.538 -0.2415  0.1094  0.3955
16401SOL    HW149781   9.667   4.498   0.518  1.1280 -3.0898 -0.6260
16401SOL    HW249782   9.809   4.503   0.465  1.8653  1.5584  1.2879
16402SOL     OW49783   9.637   8.534   9.051  0.2193 -0.4342 -0.3988
16402SOL    HW149784   9.720   8.568   9.017  0.5141 -0.2188  0.4982
16402SOL    HW249785   9.663   8.479   9.126 -0.3451 -1.6063 -1.0480
16403SOL     OW49786   6.085   8.190   2.482  0.2998  0.6783  0.1769
16403SOL    HW149787   6.137   8.119   2.443  2.3244  0.6854  2.5830
16403SOL    HW249788   6.101   8.265   2.425  0.4300 -0.0982 -0.8441
16404SOL     OW49789   5.495   9.760   0.726  0.2947 -0.2682  0.0922
16404SOL    HW149790   5.582   9.797   0.742  0.4852 -0.2606 -0.8748
16404SOL    HW249791   5.513   9.673   0.690 -0.0940 -0.2449 -0.1597
16405SOL     OW49792   3.209   7.697   1.004 -0.3691  0.0016  0.2020
16405SOL    HW149793   3.232   7.768   1.064  0.1576 -0.1670  0.2030
16405SOL    HW249794   3.114   7.705   0.993 -0.0530  2.3144 -1.7486
16406SOL     OW49795   2.590   3.395   2.866 -0.1236  0.2615  0.0070
16406SOL    HW149796   2.522   3.454   2.833 -0.0176  0.5336  0.2716
16406SOL    HW249797   2.546   3.310   2.873 -0.9468  0.7782  1.8181
16407SOL     OW49798   1.611   6.223   6.027 -0.3385 -0.3287  0.1132
16407SOL    HW149799   1.698   6.228   5.987 -0.4581  0.6317 -0.0481
16407SOL    HW249800   1.557   6.179   5.960 -0.1539 -0.2350 -0.0997
16408SOL     OW49801   4.654   0.295   4.867 -0.0998 -0.1734 -0.0361
16408SOL    HW149802   4.725   0.246   4.908 -1.3741 -2.1537 -0.0180
16408SOL    HW249803   4.609   0.337   4.940  0.1198 -0.2312  0.1329
16409SOL     OW49804   8.054   3.592   1.899  0.3838  0.2067  0.5913
16409SOL    HW149805   8.043   3.562   1.990 -1.5219 -3.2186 -0.5973
16409SOL    HW249806   8.125   3.538   1.864 -0.9320 -0.7646 -0.7225
16410SOL     OW49807   0.275   4.559   7.943 -0.5220 -0.5815 -0.6199
16410SOL    HW149808   0.331   4.530   8.015 -0.9656 -2.5141 -1.0138
16410SOL    HW249809   0.303   4.508   7.868 -2.9628 -1.8428 -0.7572
16411SOL     OW49810   2.512   7.180   2.859  0.3193  0.2886  0.2387
16411SOL    HW149811   2.592   7.219   2.824  0.1465  1.1073  0.7513
16411SOL    HW249812   2.441   7.227   2.815  0.1059  0.7747  1.0995
16412SOL     OW49813   3.747   6.940   9.521  0.4645 -0.2187 -0.4490
16412SOL    HW149814   3.679   6.929   9.587  0.5334  1.6304 -0.0316
16412SOL    HW249815   3.753   6.854   9.479 -1.3365 -0.7293  0.2383
16413SOL     OW49816   4.494   6.687   0.723  0.0547 -0.4684 -0.2293
16413SOL    HW149817   4.459   6.766   0.683 -0.7823 -1.0434 -0.6628
16413SOL    HW249818   4.495   6.622   0.653  0.0179 -1.0565  0.2990
16414SOL     OW49819   0.682   1.020   9.764 -0.1929  1.0254 -0.4303
16414SOL    HW149820   0.712   1.018   9.673  1.0642  0.2983 -0.0204
16414SOL    HW249821   0.642   1.107   9.774  0.1096  1.3088 -1.5279
16415SOL     OW49822   1.661   4.615   1.541 -0.1606 -0.1176 -0.1085
16415SOL    HW149823   1.611   4.687   1.505 -0.4473 -0.4672 -0.4216
16415SOL    HW249824   1.725   4.593   1.473  0.9373  0.8116  0.5804
16416SOL     OW49825   6.967   0.088   5.646  1.0814  0.0089  0.1487
16416SOL    HW149826   6.871   0.086   5.645  0.9845  0.7478  2.4933
16416SOL    HW249827   6.993   0.000   5.618 -0.4130 -1.4284  2.8279
16417SOL     OW49828   0.401   6.814   3.533  0.4035  0.3610 -0.0030
16417SOL    HW149829   0.432   6.868   3.461  2.5559  0.1928  0.7191
16417SOL    HW249830   0.386   6.876   3.605 -1.4327  0.4909 -0.4603
16418SOL     OW49831   6.020   4.494   3.997  0.1253  0.5546  0.1993
16418SOL    HW149832   6.005   4.585   3.972 -0.0823  0.1779 -1.1198
16418SOL    HW249833   6.066   4.455   3.922  1.3994 -0.1089  1.2720
16419SOL     OW49834   0.887   1.388   0.650  0.2473  0.2173  0.1528
16419SOL    HW149835   0.947   1.440   0.597  0.6441 -0.1200  0.2642
16419SOL    HW249836   0.841   1.453   0.704 -1.9523  0.8246 -2.2893
16420SOL     OW49837   6.954   3.802   2.692 -0.0946 -0.4430  0.5006
16420SOL    HW149838   7.038   3.835   2.661 -1.0070 -0.0669 -1.7161
16420SOL    HW249839   6.950   3.829   2.784  2.7753 -1.7005  1.1001
16421SOL     OW49840   9.911   1.180   8.334  0.6028  0.1151  0.6221
16421SOL    HW149841   9.821   1.202   8.307  1.4980  1.3022 -1.7321
16421SOL    HW249842   9.914   1.085   8.331 -0.9200 -0.0242  2.0845
16422SOL     OW49843   1.948   8.923   5.485  0.5343  0.3580  0.2117
16422SOL    HW149844   1.861   8.886   5.495  0.0279  1.1801 -0.8473
16422SOL    HW249845   1.981   8.933   5.574 -0.5890  0.3424  0.6448
16423SOL     OW49846   7.651   9.571   9.557 -0.1478  0.0164 -0.1791
16423SOL    HW149847   7.608   9.651   9.528  0.3598  0.4249  0.1711
16423SOL    HW249848   7.679   9.528   9.476 -1.1669 -0.2407 -0.4093
16424SOL     OW49849   5.453   6.046   6.164  0.4894 -0.2892 -0.5265
16424SOL    HW149850   5.438   6.119   6.225 -3.4335 -0.0032 -1.5163
16424SOL    HW249851   5.487   5.976   6.219  0.5343  1.0473  1.2712
16425SOL     OW49852   8.781   3.313   4.128 -0.0890 -0.0802  0.3171
16425SOL    HW149853   8.713   3.345   4.187  0.3745  0.3295  0.6426
16425SOL    HW249854   8.820   3.393   4.091 -1.1042 -0.3313 -1.4166
16426SOL     OW49855   7.882   4.018   8.777 -0.0615 -0.1126  0.0429
16426SOL    HW149856   7.805   4.030   8.721 -0.0421  0.6736  0.1747
16426SOL    HW249857   7.953   3.999   8.716  0.3725  2.5984 -0.4365
16427SOL     OW49858   3.996   5.930   7.761 -0.1300 -0.2139 -0.2701
16427SOL    HW149859   4.058   5.871   7.719 -0.7860 -0.1367 -1.3882
16427SOL    HW249860   4.050   5.994   7.806  0.5893 -0.9541 -0.0593
16428SOL     OW49861   1.429   0.163   9.830 -0.1523 -0.1850  0.1269
16428SOL    HW149862   1.390   0.195   9.749 -0.1892  1.4330  0.7473
16428SOL    HW249863   1.372   0.195   9.900  1.3310  0.8184  0.9472
16429SOL     OW49864   2.830   9.487   6.009  0.2317 -0.7995 -0.2031
16429SOL    HW149865   2.810   9.496   5.915  0.4537 -1.8443 -0.3725
16429SOL    HW249866   2.815   9.394   6.027  0.0418 -0.5782  0.8453
16430SOL     OW49867   8.881   4.001   4.279 -0.3458 -1.0737  0.2196
16430SOL    HW149868   8.922   3.975   4.197 -0.6099 -2.5085  0.5075
16430SOL    HW249869   8.947   3.979   4.346 -1.0248 -2.1205  0.5668
16431SOL     OW49870   6.803   9.871   9.603  0.1354  0.1911  0.3108
16431SOL    HW149871   6.830   9.795   9.655  0.5899  0.3441  0.2996
16431SOL    HW249872   6.829   9.946   9.654 -1.3951  0.3648  0.8882
16432SOL     OW49873   9.183   0.373   4.686 -0.3660 -0.6025  0.3852
16432SOL    HW149874   9.192   0.459   4.727 -2.3875 -0.3171  0.3395
16432SOL    HW249875   9.149   0.392   4.599  0.3930 -1.4077 -0.1039
16433SOL     OW49876   3.622   8.123   5.865 -0.5401 -0.5086  0.0957
16433SOL    HW149877   3.685   8.074   5.919  0.8085  1.3574  0.3270
16433SOL    HW249878   3.547   8.137   5.922  0.1576 -0.0481  0.9164
16434SOL     OW49879   8.650   0.381   3.107  0.3118  0.0835 -0.1733
16434SOL    HW149880   8.680   0.471   3.093  0.2549 -0.0804 -1.4196
16434SOL    HW249881   8.556   0.384   3.086  0.3640 -0.3165 -0.4804
16435SOL     OW49882   9.680   6.699   3.283 -0.8514  0.4512  0.4074
16435SOL    HW149883   9.769   6.700   3.317 -1.2636  1.6286  1.5542
16435SOL    HW249884   9.650   6.609   3.293 -0.1566  0.2878  1.0173
16436SOL     OW49885   3.995   0.138   9.444 -0.4560 -0.2377 -0.1728
16436SOL    HW149886   3.943   0.122   9.366 -0.9249 -0.4404  0.1730
16436SOL    HW249887   4.072   0.082   9.433  0.0142  0.5415 -0.9838
16437SOL     OW49888   7.483   1.605   4.676 -0.1541  0.2280  0.3248
16437SOL    HW149889   7.425   1.675   4.706 -1.1694 -0.4023 -0.1354
16437SOL    HW249890   7.553   1.651   4.629 -0.0720  1.0213  1.1924
16438SOL     OW49891   2.500   4.019   4.521 -0.6460  0.2619 -1.0687
16438SOL    HW149892   2.503   3.937   4.570  1.5470  0.3545 -0.9279
16438SOL    HW249893   2.592   4.044   4.511 -1.1811  1.8758 -2.5116
16439SOL     OW49894   6.243   0.054   9.200  0.0618 -0.1555 -0.0398
16439SOL    HW149895   6.272  -0.006   9.131  0.5546 -0.1172  0.1258
16439SOL    HW249896   6.325   0.084   9.241 -0.0006  2.0027 -1.2793
16440SOL     OW49897   3.830   4.926   7.620 -0.1750  0.3899 -0.2202
16440SOL    HW149898   3.866   5.003   7.576 -0.1802  0.9999  0.7888
16440SOL    HW249899   3.885   4.916   7.699 -0.5384 -0.2918 -0.0406
16441SOL     OW49900   0.377   1.662   5.150  0.4049  0.0002 -0.0346
16441SOL    HW149901   0.469   1.687   5.138  0.3706 -0.1088 -0.5767
16441SOL    HW249902   0.343   1.654   5.061 -0.8172  2.4541  0.1458
16442SOL     OW49903   6.948   8.337   3.934 -0.7035  0.2280 -1.1418
16442SOL    HW149904   7.037   8.334   3.969 -1.0036 -1.8680 -0.4553
16442SOL    HW249905   6.929   8.431   3.925  1.3608  0.7157 -0.8017
16443SOL     OW49906   7.887   6.509   1.950  0.1721  0.5037 -0.3775
16443SOL    HW149907   7.926   6.445   2.010 -1.3148 -0.4737 -0.3805
16443SOL    HW249908   7.933   6.496   1.867  0.2117 -0.2594 -0.2455
16444SOL     OW49909   4.796   3.279   2.882 -0.2184 -0.2891 -0.5206
16444SOL    HW149910   4.740   3.219   2.932 -0.8465  2.3194  2.1918
16444SOL    HW249911   4.872   3.293   2.938  0.8752  0.0008 -2.0047
16445SOL     OW49912   9.622   6.088   5.641  0.0786  0.9891 -0.0094
16445SOL    HW149913   9.594   6.017   5.700  2.3034 -1.7477 -1.9719
16445SOL    HW249914   9.665   6.151   5.698 -0.9249  0.2180  1.6854
16446SOL     OW49915   3.304   9.639   8.699  0.3238  0.1021  0.2221
16446SOL    HW149916   3.237   9.651   8.632  0.8328 -0.0838 -0.3347
16446SOL    HW249917   3.260   9.595   8.770  0.1998 -1.4417 -0.7685
16447SOL     OW49918   9.601   3.499   1.045 -1.2451  0.3845 -0.2951
16447SOL    HW149919   9.583   3.452   1.126 -0.1541 -0.0210 -0.2738
16447SOL    HW249920   9.683   3.546   1.061 -0.4339 -0.5550 -1.4921
16448SOL     OW49921   3.857   6.707   7.524 -0.0170 -0.1726 -0.2502
16448SOL    HW149922   3.833   6.780   7.467 -0.5889 -0.0578  0.1207
16448SOL    HW249923   3.952   6.714   7.534 -0.1349  0.9359  0.3135
16449SOL     OW49924   9.877   0.914   0.552 -0.0905 -0.0919  0.1678
16449SOL    HW149925   9.807   0.942   0.611  0.0829  1.2307 -0.2218
16449SOL    HW249926   9.930   0.993   0.539 -0.4094 -0.2017 -2.1584
16450SOL     OW49927   4.818   1.674   8.458 -0.2006 -0.2142 -0.1768
16450SOL    HW149928   4.762   1.745   8.489  0.4606 -0.3441  1.4309
16450SOL    HW249929   4.790   1.598   8.509 -0.2525 -0.8895 -1.1865
16451SOL     OW49930   3.910   0.773   8.268  0.0765  0.2728 -0.4458
16451SOL    HW149931   3.951   0.696   8.227 -0.2680 -0.3194  0.2945
16451SOL    HW249932   3.908   0.751   8.362  0.9935  1.6560 -0.0704
16452SOL     OW49933   5.334   9.204   6.006  0.5498  0.1678 -0.2337
16452SOL    HW149934   5.349   9.271   5.939  0.0845  0.5624  0.0448
16452SOL    HW249935   5.421   9.182   6.038  0.7775 -0.0041 -0.9403
16453SOL     OW49936   7.134   3.884   3.787  0.1513  0.5192  0.0444
16453SOL    HW149937   7.157   3.870   3.879 -0.7581 -0.4901  0.1351
16453SOL    HW249938   7.195   3.828   3.738  0.0704  0.3988  0.0821
16454SOL     OW49939   7.388   4.587   4.547 -0.2479 -0.0058  0.2437
16454SOL    HW149940   7.375   4.625   4.460 -1.4027  0.5379  0.6372
16454SOL    HW249941   7.334   4.508   4.548  1.1969 -1.0423 -0.1444
16455SOL     OW49942   1.846   1.507   9.414  0.5133  0.2802  0.1329
16455SOL    HW149943   1.761   1.537   9.383 -0.2274 -0.6464  1.2258
16455SOL    HW249944   1.866   1.564   9.488  1.2588  1.0469 -0.6320
16456SOL     OW49945   3.465   9.938   4.569 -0.1557 -0.3928  0.3714
16456SOL    HW149946   3.426   9.854   4.546 -1.8080  0.6140 -0.7147
16456SOL    HW249947   3.394   9.987   4.610  0.3745  0.9574 -0.2573
16457SOL     OW49948   3.583   4.232   5.988  0.0585  0.3892 -0.1359
16457SOL    HW149949   3.666   4.185   5.992  0.2359  0.6152 -1.0201
16457SOL    HW249950   3.607   4.323   5.972 -0.3646  0.2766 -1.6388
16458SOL     OW49951   9.356   1.879   5.379  0.1248 -0.1182  0.0295
16458SOL    HW149952   9.271   1.854   5.414 -0.5794  1.1843 -0.6834
16458SOL    HW249953   9.368   1.970   5.408 -0.5145  1.0582 -2.9967
16459SOL     OW49954   3.884   1.536   5.497  0.3753 -0.1454  0.1813
16459SOL    HW149955   3.978   1.552   5.495  0.6778 -1.3091  2.4231
16459SOL    HW249956   3.856   1.549   5.406  2.7139  0.0597 -0.5786
16460SOL     OW49957   5.129   7.813   2.209  0.8132  0.5802  0.0516
16460SOL    HW149958   5.214   7.804   2.251  1.1447  0.5269 -0.6122
16460SOL    HW249959   5.128   7.745   2.142 -0.7004 -0.9778  1.5536
16461SOL     OW49960   1.565   2.442   4.125  0.0600 -0.4154 -0.5414
16461SOL    HW149961   1.569   2.537   4.109  1.2864 -0.0156  1.6724
16461SOL    HW249962   1.504   2.409   4.060 -0.9704  2.0175 -0.9148
16462SOL     OW49963   1.675   0.532   9.628 -0.2015  0.2096  0.1665
16462SOL    HW149964   1.759   0.563   9.661 -0.7117  2.1270 -0.2433
16462SOL    HW249965   1.623   0.515   9.706 -0.1819  1.1911  0.3996
16463SOL     OW49966   8.984   4.237   9.647  0.3327  0.3192 -0.4255
16463SOL    HW149967   9.059   4.223   9.588  0.8428 -1.3187  0.5370
16463SOL    HW249968   8.941   4.152   9.650 -0.3990  0.7191  0.6157
16464SOL     OW49969   2.484   0.645   6.847  0.2531  0.2383 -0.2999
16464SOL    HW149970   2.522   0.733   6.855  3.4201 -0.9252 -0.8770
16464SOL    HW249971   2.524   0.595   6.919  0.2268 -1.2305 -1.2611
16465SOL     OW49972   6.886   2.671   3.388 -0.3144  0.5324  0.0065
16465SOL    HW149973   6.834   2.742   3.426 -0.9384  0.2452 -0.2998
16465SOL    HW249974   6.840   2.647   3.308  1.6403  1.9411 -1.6271
16466SOL     OW49975   6.097   5.625   0.490  0.4471 -0.0519  0.5106
16466SOL    HW149976   6.122   5.575   0.568  0.2638 -0.8432  0.0781
16466SOL    HW249977   6.158   5.698   0.488 -0.1441  0.5154  1.9145
16467SOL     OW49978   8.175   3.208   7.866 -0.2630 -0.7448  0.1569
16467SOL    HW149979   8.235   3.239   7.798  0.2643 -3.1325 -0.5647
16467SOL    HW249980   8.127   3.286   7.893  1.2310  0.7258 -1.2175
16468SOL     OW49981   1.154   0.948   6.462  0.2352 -0.6336 -0.2281
16468SOL    HW149982   1.151   0.855   6.438  0.1431 -0.7266  0.1316
16468SOL    HW249983   1.071   0.963   6.507  0.5610 -0.5552  0.3537
16469SOL     OW49984   3.073   8.399   6.503 -0.1655  0.2891 -0.3488
16469SOL    HW149985   3.109   8.474   6.552  1.1186  0.4771 -1.5038
16469SOL    HW249986   3.113   8.322   6.545 -1.3414  0.2402  0.7211
16470SOL     OW49987   7.809   5.593   8.955  0.1722  0.3455  0.3409
16470SOL    HW149988   7.751   5.651   9.004  0.6516 -0.4823  1.9209
16470SOL    HW249989   7.760   5.572   8.876 -0.6475  1.6322  0.4756
16471SOL     OW49990   6.861   8.291   0.676  0.3544  0.1640 -0.1839
16471SOL    HW149991   6.859   8.352   0.603 -0.6220  1.4063  0.8471
16471SOL    HW249992   6.777   8.246   0.671  1.2569 -1.5354 -1.2357
16472SOL     OW49993   1.518   4.149   6.317  0.4700  0.4007  0.5470
16472SOL    HW149994   1.483   4.142   6.229 -0.1458  1.3329  0.7121
16472SOL    HW249995   1.492   4.067   6.360  2.0583 -0.7502 -0.5539
16473SOL     OW49996   0.554   6.637   4.042  0.0711  0.1286 -0.2617
16473SOL    HW149997   0.643   6.602   4.053  0.4014  0.6755 -1.0438
16473SOL    HW249998   0.568   6.725   4.006 -0.7842  0.3777 -0.0049
16474SOL     OW49999   6.697   8.805   8.584 -0.0016  0.4151 -0.6904
16474SOL    HW150000   6.700   8.814   8.679 -2.1952 -1.1362 -0.3927
16474SOL    HW250001   6.778   8.760   8.560 -0.8774 -2.2168  0.9233
16475SOL     OW50002   7.277   9.166   1.118  0.1875 -0.8134 -0.1701
16475SOL    HW150003   7.215   9.219   1.168 -0.7088  0.4458 -2.4526
16475SOL    HW250004   7.363   9.204   1.138  0.0783 -1.3837  1.5816
16476SOL     OW50005   8.996   3.317   1.776  0.6586  0.0355 -0.3849
16476SOL    HW150006   8.918   3.310   1.721  0.9837 -0.6618 -0.7712
16476SOL    HW250007   8.964   3.359   1.857  0.3470  1.8902 -1.4062
16477SOL     OW50008   0.672   7.699   8.317 -0.7136  0.2308  0.4443
16477SOL    HW150009   0.605   7.644   8.359 -0.0957 -0.7543  0.1816
16477SOL    HW250010   0.623   7.756   8.259 -1.3614 -0.2757  0.4790
16478SOL     OW50011   6.673   0.549   2.050 -0.7088  0.2079  0.0892
16478SOL    HW150012   6.723   0.628   2.071 -0.1784 -0.1537  0.2118
16478SOL    HW250013   6.633   0.523   2.133  0.7035 -0.7429  0.5203
16479SOL     OW50014   5.539   3.954   4.839 -0.5919  0.0757  0.0857
16479SOL    HW150015   5.580   4.020   4.896  0.0847  0.4153 -0.7725
16479SOL    HW250016   5.585   3.873   4.861 -1.6178 -0.2000  1.3462
16480SOL     OW50017   4.190   6.854   1.961 -1.0801  0.2577  0.2915
16480SOL    HW150018   4.111   6.826   2.007 -0.9183 -0.8638 -0.0977
16480SOL    HW250019   4.159   6.915   1.894 -1.7495 -0.8769 -0.4638
16481SOL     OW50020   2.281   3.849   8.336  0.1735  0.0844 -0.3581
16481SOL    HW150021   2.326   3.914   8.282  0.9350  0.6173  0.8533
16481SOL    HW250022   2.352   3.804   8.383 -0.3714 -1.3503 -0.8449
16482SOL     OW50023   9.245   7.567   6.889 -0.1747  0.8116 -0.4252
16482SOL    HW150024   9.262   7.646   6.940  1.0989 -0.8000  1.8178
16482SOL    HW250025   9.323   7.513   6.900 -1.8619 -1.7529  0.0914
16483SOL     OW50026   6.453   7.825   2.212  0.0338 -0.5087 -0.2020
16483SOL    HW150027   6.449   7.918   2.189  2.6166 -0.4249 -0.6234
16483SOL    HW250028   6.539   7.815   2.253 -1.0902 -2.3064  1.9332
16484SOL     OW50029   7.813   1.823   1.062  0.2266  0.3770  0.4610
16484SOL    HW150030   7.763   1.806   0.982 -1.4290 -0.4634  1.6416
16484SOL    HW250031   7.892   1.770   1.052  0.3601  0.7916 -0.8879
16485SOL     OW50032   5.022   5.627   7.503  0.2386 -0.1809  0.7631
16485SOL    HW150033   5.000   5.676   7.582  0.8507  1.6640 -0.1353
16485SOL    HW250034   4.978   5.674   7.432  0.3888 -1.2914 -0.0994
16486SOL     OW50035   7.267   1.376   9.462  0.1478 -0.4337 -0.1200
16486SOL    HW150036   7.244   1.285   9.480  0.1123 -0.5797 -0.8788
16486SOL    HW250037   7.332   1.371   9.392 -0.0647  0.1308 -0.3665
16487SOL     OW50038   6.500   2.358   3.920 -0.0330  0.5377  0.0262
16487SOL    HW150039   6.522   2.312   4.001 -2.9087 -1.4128 -0.1588
16487SOL    HW250040   6.410   2.387   3.932 -1.4524 -1.8384 -3.1682
16488SOL     OW50041   1.119   5.234   8.518 -0.0309  0.0712 -0.0352
16488SOL    HW150042   1.096   5.203   8.605  1.7628 -2.9237 -0.4936
16488SOL    HW250043   1.078   5.172   8.458 -0.2237  1.3689 -1.2968
16489SOL     OW50044   6.530   1.041   8.565 -0.0981 -0.7348  0.1929
16489SOL    HW150045   6.604   0.983   8.554  0.7634  0.5115 -0.8738
16489SOL    HW250046   6.511   1.074   8.477 -1.0029  0.0639  0.6578
16490SOL     OW50047   0.288   8.102   8.657 -0.0554 -0.4909  0.2350
16490SOL    HW150048   0.280   8.190   8.619 -1.8293 -0.9254 -0.4628
16490SOL    HW250049   0.200   8.081   8.688  0.0195 -2.5390 -0.7972
16491SOL     OW50050   5.020   4.332   5.919 -0.8378  0.1336  0.0395
16491SOL    HW150051   4.985   4.419   5.937 -1.1042 -0.0517  0.4155
16491SOL    HW250052   5.113   4.338   5.940 -0.5274  0.7623 -1.4143
16492SOL     OW50053   1.938   3.940   3.998 -0.0283  0.4270  0.5645
16492SOL    HW150054   1.891   3.916   4.078  0.9815  1.1075  1.3774
16492SOL    HW250055   2.028   3.912   4.014 -0.1177 -0.8097 -0.9542
16493SOL     OW50056   9.062   5.945   0.128  0.8585  0.2567  0.4117
16493SOL    HW150057   9.157   5.939   0.136  0.8710  0.5462  0.4880
16493SOL    HW250058   9.037   5.865   0.083  1.0222 -0.3228  1.3255
16494SOL     OW50059   5.392   9.926   1.892  0.0603 -0.5178 -0.3229
16494SOL    HW150060   5.315   9.936   1.836 -0.4343  0.2528  0.4748
16494SOL    HW250061   5.393  10.004   1.947  0.8073 -1.0231  0.4190
16495SOL     OW50062   4.689   0.245   2.224 -0.3873 -0.4623 -0.6628
16495SOL    HW150063   4.633   0.256   2.147 -0.1576 -0.4086 -0.8228
16495SOL    HW250064   4.643   0.181   2.278 -0.0519 -1.2881 -1.3290
16496SOL     OW50065   4.307   8.407   1.633  0.1382  0.0860  0.6041
16496SOL    HW150066   4.373   8.440   1.694  0.1369 -0.0569  0.6830
16496SOL    HW250067   4.260   8.485   1.604  1.3065  0.3771 -0.5977
16497SOL     OW50068   6.708   5.380   2.452  1.0658  0.4392  0.0401
16497SOL    HW150069   6.739   5.463   2.488 -1.1166  1.1219  0.4549
16497SOL    HW250070   6.617   5.373   2.481  0.2119 -0.5735 -2.5953
16498SOL     OW50071   4.514   7.006   9.491 -0.0482 -0.2677  0.4052
16498SOL    HW150072   4.519   7.087   9.542 -1.6439  0.2891 -0.2311
16498SOL    HW250073   4.463   6.947   9.546  0.7163 -0.6820  0.6714
16499SOL     OW50074   5.948   6.738   2.781 -0.2016  0.0778  0.2634
16499SOL    HW150075   5.854   6.735   2.799 -0.1742  0.4070  0.4686
16499SOL    HW250076   5.958   6.807   2.715 -0.0923  0.1040  0.3071
16500SOL     OW50077   1.094   6.316   7.855  0.5397 -0.7694 -0.4489
16500SOL    HW150078   1.083   6.243   7.916 -1.7254 -0.7415 -0.7390
16500SOL    HW250079   1.162   6.287   7.794  1.9490 -1.2972  1.3027
16501SOL     OW50080   1.487   0.724   2.559 -0.3553 -0.2906 -0.0770
16501SOL    HW150081   1.550   0.787   2.522 -2.9555  1.1990 -2.3627
16501SOL    HW250082   1.403   0.769   2.555 -1.7194 -2.3643  2.4091
16502SOL     OW50083   0.513   7.981   5.585 -0.9647 -0.3267 -0.6757
16502SOL    HW150084   0.474   8.068   5.574 -1.2162 -0.4312 -0.6241
16502SOL    HW250085   0.448   7.931   5.634 -1.0669 -0.7118 -1.1839
16503SOL     OW50086   4.377   6.900   4.618  0.3843  0.0393  0.1046
16503SOL    HW150087   4.313   6.955   4.663 -1.5297 -0.5508 -1.7106
16503SOL    HW250088   4.460   6.947   4.625 -0.0113  0.4399  3.2692
16504SOL     OW50089   7.081   4.841   6.116 -0.4719  0.2510 -0.2379
16504SOL    HW150090   7.070   4.860   6.209  2.8269 -0.2371  0.3409
16504SOL    HW250091   7.032   4.760   6.102 -1.6596  0.7456  0.8261
16505SOL     OW50092   3.437   7.887   7.597 -0.4209  0.4027 -0.0107
16505SOL    HW150093   3.516   7.904   7.649 -0.3874 -0.6555  0.3070
16505SOL    HW250094   3.407   7.973   7.571  0.8904  0.8284 -0.1961
16506SOL     OW50095   6.653   7.106   1.535  0.6271 -0.0643 -0.8155
16506SOL    HW150096   6.630   7.186   1.582  1.4879  0.0863 -0.6247
16506SOL    HW250097   6.582   7.093   1.472 -0.7750 -0.5046  0.8050
16507SOL     OW50098   6.521   3.948   6.983 -0.9215 -0.1446  0.5028
16507SOL    HW150099   6.582   3.972   7.052 -0.7600 -0.5219  0.4958
16507SOL    HW250100   6.576   3.934   6.906 -1.1227  0.4817  0.2438
16508SOL     OW50101   6.467   0.504   8.859 -0.2736  0.3331 -0.1825
16508SOL    HW150102   6.536   0.441   8.878  1.3521  1.9068 -0.5269
16508SOL    HW250103   6.387   0.462   8.888  0.7949 -1.6584  0.0622
16509SOL     OW50104   7.827   0.762   1.909  0.3232 -0.5079  0.0896
16509SOL    HW150105   7.852   0.790   1.821  0.5088  0.4829  0.4432
16509SOL    HW250106   7.732   0.753   1.906  0.1784  0.8716  0.1486
16510SOL     OW50107   0.866   6.956   4.914  0.1610  0.0021 -0.2948
16510SOL    HW150108   0.930   6.939   4.845  0.8090 -1.2782  0.5865
16510SOL    HW250109   0.917   6.998   4.984 -0.1001 -0.3777  0.1272
16511SOL     OW50110   7.131   4.657   9.472 -0.0510  0.2686 -0.3293
16511SOL    HW150111   7.193   4.663   9.400 -0.1465 -0.0157 -0.4363
16511SOL    HW250112   7.046   4.675   9.432  0.0925  1.9830  0.0522
16512SOL     OW50113   0.429   9.114   6.793  0.1424  0.0949 -0.1124
16512SOL    HW150114   0.466   9.027   6.777  0.2736  0.3974 -1.6443
16512SOL    HW250115   0.339   9.097   6.819 -0.1113 -0.4963 -1.2995
16513SOL     OW50116   8.675   1.346   7.681 -0.0317 -0.0494 -0.0857
16513SOL    HW150117   8.649   1.303   7.600  0.0209 -1.1361  0.4475
16513SOL    HW250118   8.633   1.432   7.678 -1.7734 -0.8562 -0.3249
16514SOL     OW50119   7.572   4.109   4.809 -0.3521  0.1284 -0.1996
16514SOL    HW150120   7.509   4.136   4.742 -1.2771  0.6981  0.8661
16514SOL    HW250121   7.567   4.178   4.875  0.7440 -0.2820  0.3234
16515SOL     OW50122   2.700   0.664   7.998  0.0505 -0.2086 -0.0929
16515SOL    HW150123   2.731   0.582   7.959 -1.3341 -0.7772 -0.0371
16515SOL    HW250124   2.759   0.731   7.963 -0.6483 -0.7993 -2.5862
16516SOL     OW50125   1.634   8.279   4.577  0.4591  0.2145 -0.2910
16516SOL    HW150126   1.669   8.355   4.624 -0.1512  0.5422 -0.3666
16516SOL    HW250127   1.701   8.212   4.589  2.5279  1.6214 -2.7264
16517SOL     OW50128   0.477   4.477   5.679  0.1597  0.4272 -0.1727
16517SOL    HW150129   0.416   4.531   5.629  1.9417  2.8653  0.0711
16517SOL    HW250130   0.436   4.468   5.765 -0.8244  0.1739 -0.6563
16518SOL     OW50131   2.271   2.902   4.626  0.2322 -0.2966 -0.2504
16518SOL    HW150132   2.346   2.847   4.649 -0.8834 -1.6300  0.2716
16518SOL    HW250133   2.243   2.870   4.540  0.0374 -0.0451 -0.2814
16519SOL     OW50134   3.227   4.098   0.119 -0.8801  0.1573 -0.0475
16519SOL    HW150135   3.185   4.015   0.143 -0.2529 -0.7437 -1.8545
16519SOL    HW250136   3.167   4.165   0.150 -2.5597 -1.0463 -0.5494
16520SOL     OW50137   8.834   5.343   2.241 -0.4950 -0.6628  0.6750
16520SOL    HW150138   8.852   5.267   2.295  0.0642  0.5023  2.1970
16520SOL    HW250139   8.907   5.403   2.258 -2.1197  1.2257  1.4630
16521SOL     OW50140   0.481   7.620   4.158 -0.0686  0.1187  0.1409
16521SOL    HW150141   0.417   7.605   4.228  1.5771  1.3859  2.0207
16521SOL    HW250142   0.560   7.648   4.203  1.2921  0.3551 -2.2261
16522SOL     OW50143   7.710   7.814   0.990 -0.1556 -0.2661  0.5490
16522SOL    HW150144   7.680   7.742   0.934  0.1055  0.0226  0.0314
16522SOL    HW250145   7.730   7.885   0.929 -0.5279  0.2881  1.0679
16523SOL     OW50146   8.064   7.456   7.784 -0.0837 -0.3201 -0.3758
16523SOL    HW150147   8.052   7.497   7.698  0.2248 -1.0182 -0.7583
16523SOL    HW250148   8.011   7.377   7.781 -0.0628 -0.3523  0.0731
16524SOL     OW50149   4.854   7.043   2.147 -0.2525  0.3695 -0.0377
16524SOL    HW150150   4.762   7.051   2.172 -1.0898 -2.5163 -1.7222
16524SOL    HW250151   4.902   7.089   2.216 -2.8968  1.6132  1.1039
16525SOL     OW50152   4.593   4.435   6.158  0.0482  0.3046  0.4169
16525SOL    HW150153   4.530   4.419   6.229 -0.4592 -0.2754 -0.1521
16525SOL    HW250154   4.671   4.469   6.203 -1.4615  3.4585  0.9436
16526SOL     OW50155   9.375   2.562   7.395  0.1802  0.2913 -0.0481
16526SOL    HW150156   9.424   2.628   7.445  0.1953  1.0455 -1.0304
16526SOL    HW250157   9.284   2.577   7.417  0.2715 -0.3440  0.8642
16527SOL     OW50158   9.733   4.224   9.861 -0.3111  0.2371  0.5313
16527SOL    HW150159   9.828   4.237   9.870 -0.3461  0.1847  0.9712
16527SOL    HW250160   9.699   4.228   9.950 -0.5227 -1.3587  0.5526
16528SOL     OW50161   1.864   6.609   4.417 -0.0460 -0.3244  0.4288
16528SOL    HW150162   1.904   6.634   4.500 -1.5793 -0.3693  1.2114
16528SOL    HW250163   1.904   6.668   4.353 -0.4726  1.2776  1.5684
16529SOL     OW50164   4.445   5.510   3.104 -0.2741  0.4919  0.2533
16529SOL    HW150165   4.475   5.600   3.103  0.9284  0.1433  1.5282
16529SOL    HW250166   4.501   5.467   3.168 -0.2515 -1.3699 -0.9433
16530SOL     OW50167   2.516   1.206   5.436 -0.2849 -0.5346 -1.1501
16530SOL    HW150168   2.464   1.184   5.358 -0.9326  0.0436 -0.8976
16530SOL    HW250169   2.554   1.291   5.416  0.8077 -1.0794 -1.4403
16531SOL     OW50170   7.952   0.209   9.739  0.2268  0.1378 -0.0679
16531SOL    HW150171   7.949   0.259   9.658 -1.4746 -0.0678 -0.1731
16531SOL    HW250172   7.900   0.260   9.801  0.3761 -0.3747  0.4952
16532SOL     OW50173   7.500   2.518   1.876 -0.1619  0.3744  0.0863
16532SOL    HW150174   7.500   2.606   1.913 -0.4516  0.0289  0.9203
16532SOL    HW250175   7.580   2.478   1.910 -0.6038 -0.0624  0.6144
16533SOL     OW50176   6.261   9.774   5.941 -0.2198  0.0457  0.7498
16533SOL    HW150177   6.189   9.730   5.897 -0.9675  0.9182  1.0728
16533SOL    HW250178   6.264   9.861   5.902  0.2144  0.2484  1.2176
16534SOL     OW50179   5.493   3.070   8.418 -0.0974 -0.4278 -0.1946
16534SOL    HW150180   5.457   3.158   8.406  1.0250  0.2071  0.8299
16534SOL    HW250181   5.492   3.032   8.330  1.3021  1.3856 -1.0642
16535SOL     OW50182   0.484   0.971   6.306 -0.7356  0.0209 -1.0756
16535SOL    HW150183   0.574   0.952   6.333 -1.2352  0.7553  1.3395
16535SOL    HW250184   0.432   0.957   6.384 -3.1187 -2.4672 -2.9091
16536SOL     OW50185   3.869   3.144   5.533 -0.1208  0.1824 -0.7859
16536SOL    HW150186   3.824   3.225   5.508 -0.3171  0.0355 -0.9113
16536SOL    HW250187   3.806   3.074   5.512 -0.4083  0.0722  0.3666
16537SOL     OW50188   3.250   0.938   5.463 -0.2916  0.0009 -0.2060
16537SOL    HW150189   3.178   0.944   5.400  0.5368 -0.9729 -1.2812
16537SOL    HW250190   3.303   0.864   5.433 -0.0037 -0.6822  1.7987
16538SOL     OW50191   9.030   8.666   1.180 -0.2067  0.0439 -0.4485
16538SOL    HW150192   9.116   8.638   1.147 -0.7549 -2.0372 -0.2432
16538SOL    HW250193   8.981   8.690   1.102  0.3587  0.6808 -0.6168
16539SOL     OW50194   4.486   9.958   6.494  0.3660 -0.1470  0.2249
16539SOL    HW150195   4.461   9.905   6.418  0.1229  1.1234 -0.6139
16539SOL    HW250196   4.414  10.021   6.504  1.7802  1.6550 -0.3934
16540SOL     OW50197   4.392   7.947   4.606  0.0098 -0.2613 -1.2161
16540SOL    HW150198   4.299   7.967   4.611 -0.0341 -0.3183 -1.7603
16540SOL    HW250199   4.409   7.892   4.683 -0.5370 -0.7777 -1.4605
16541SOL     OW50200   6.391   2.191   3.361 -0.3390 -0.3506 -0.2555
16541SOL    HW150201   6.466   2.248   3.341 -0.5335  0.4387  1.1479
16541SOL    HW250202   6.411   2.109   3.315  1.1398  0.0190 -0.3409
16542SOL     OW50203   4.485   9.651   7.792 -0.0509  0.1235  0.3241
16542SOL    HW150204   4.569   9.693   7.810  0.4267 -0.2699 -0.9045
16542SOL    HW250205   4.452   9.696   7.714  0.6449 -1.9312 -1.2569
16543SOL     OW50206   2.706   8.833   1.789 -0.0176 -0.4944  0.1280
16543SOL    HW150207   2.658   8.810   1.869 -0.2209  1.6101  0.6793
16543SOL    HW250208   2.793   8.798   1.802  0.0625  0.1293  1.4861
16544SOL     OW50209   9.035   4.814   1.212  0.3786  0.1935  0.1718
16544SOL    HW150210   8.942   4.829   1.226  0.6832 -0.0178  3.2410
16544SOL    HW250211   9.052   4.841   1.122 -1.9519  3.6386  0.5925
16545SOL     OW50212   1.439   1.965   9.200  0.0814 -0.3904  0.1070
16545SOL    HW150213   1.499   2.038   9.213  0.5687 -0.7443 -0.1216
16545SOL    HW250214   1.355   2.006   9.177 -0.0052  0.1269  1.3051
16546SOL     OW50215   9.019   2.212   1.132  1.0029  0.0076 -0.4020
16546SOL    HW150216   8.959   2.243   1.064 -0.2801 -1.5322 -0.0382
16546SOL    HW250217   9.066   2.140   1.090  3.0079  1.4961 -0.8371
16547SOL     OW50218   5.028   8.874   0.662  0.2289 -0.0801 -0.0912
16547SOL    HW150219   4.998   8.942   0.602  0.2845 -0.2889 -0.3547
16547SOL    HW250220   5.122   8.893   0.673  0.2679 -0.1810 -0.2510
16548SOL     OW50221   9.716   9.407   0.286  0.1982  0.2773  0.2943
16548SOL    HW150222   9.714   9.418   0.381 -1.1822  0.4375  0.2789
16548SOL    HW250223   9.653   9.337   0.268  0.7568 -0.0436 -0.4749
16549SOL     OW50224   1.213   7.684   1.747  0.4535 -0.1308 -0.4783
16549SOL    HW150225   1.277   7.646   1.807 -1.3596  0.4248  1.9745
16549SOL    HW250226   1.194   7.770   1.783 -2.2308 -0.5757 -0.6040
16550SOL     OW50227   4.450   5.973   3.433  0.2585  0.0681 -0.6123
16550SOL    HW150228   4.519   5.925   3.479 -0.7804 -0.4393  0.4833
16550SOL    HW250229   4.428   6.046   3.491 -0.1112  0.2418 -0.9606
16551SOL     OW50230   8.165   8.686   0.750 -0.3166  0.1238  0.0323
16551SOL    HW150231   8.247   8.680   0.702 -0.9352 -0.6680 -0.9585
16551SOL    HW250232   8.150   8.598   0.785 -0.7474  0.2574  0.1954
16552SOL     OW50233   7.914   4.851   5.034 -0.7905 -0.2441  0.0597
16552SOL    HW150234   7.867   4.855   5.117 -1.0719  0.4206 -0.1246
16552SOL    HW250235   7.847   4.871   4.968 -0.0368  1.9397 -0.1240
16553SOL     OW50236   4.376   0.645   6.847  0.4611 -0.0230 -0.0895
16553SOL    HW150237   4.413   0.572   6.896  1.4168  0.6130  0.1758
16553SOL    HW250238   4.407   0.723   6.894  0.1336  0.5651 -0.8300
16554SOL     OW50239   5.706   1.188   0.311 -0.1683  0.2085  0.6424
16554SOL    HW150240   5.750   1.224   0.234  0.8121 -0.9533  0.6282
16554SOL    HW250241   5.641   1.254   0.335 -1.7290 -0.1670 -2.2141
16555SOL     OW50242   5.166   4.806   8.420  0.4484 -0.0246 -0.2153
16555SOL    HW150243   5.230   4.754   8.370  0.8906  2.0559 -1.9425
16555SOL    HW250244   5.086   4.753   8.417  0.3614  0.0719 -3.4542
16556SOL     OW50245   2.400   9.338   2.240 -0.7641  0.2430  0.0887
16556SOL    HW150246   2.364   9.250   2.249  1.0952 -0.4686  0.9337
16556SOL    HW250247   2.361   9.388   2.312 -1.5149  0.0229 -0.1572
16557SOL     OW50248   2.093   2.692   2.451  0.0775  0.2104  0.4314
16557SOL    HW150249   2.168   2.748   2.431  1.5704 -0.8079  2.6309
16557SOL    HW250250   2.133   2.613   2.488 -2.0797 -0.7715  0.7956
16558SOL     OW50251   9.379   7.637   5.722  0.0320 -0.0800 -0.4878
16558SOL    HW150252   9.425   7.555   5.705 -1.5002 -1.2433  0.7590
16558SOL    HW250253   9.429   7.679   5.792  0.0081 -0.6582 -0.1178
16559SOL     OW50254   1.491   2.928   4.690 -0.2315 -0.0106  0.3033
16559SOL    HW150255   1.535   3.007   4.722  0.3283 -0.9073  1.8368
16559SOL    HW250256   1.487   2.940   4.595  0.3567  1.5950  0.4478
16560SOL     OW50257   0.721   1.457   0.922  0.1071 -0.1865 -0.5665
16560SOL    HW150258   0.751   1.475   1.011 -0.5324 -1.9818  0.0518
16560SOL    HW250259   0.749   1.534   0.871  0.3612  0.9398  1.1887
16561SOL     OW50260   5.873   1.421   4.211 -0.2746 -0.2600  0.1321
16561SOL    HW150261   5.844   1.434   4.301  0.0496  2.3090 -0.0382
16561SOL    HW250262   5.922   1.339   4.212 -0.7310 -0.5516  2.1599
16562SOL     OW50263   9.898   0.245   6.363 -0.3414 -0.3103 -0.4715
16562SOL    HW150264   9.868   0.253   6.453 -0.8551 -2.9291 -0.3350
16562SOL    HW250265   9.828   0.198   6.317  2.0634 -3.9620 -0.8327
16563SOL     OW50266   4.681   6.506   1.657 -0.4679 -0.5666 -0.0930
16563SOL    HW150267   4.589   6.489   1.678 -0.8022  1.8076  0.7035
16563SOL    HW250268   4.726   6.502   1.742 -0.2300  0.2568 -0.1666
16564SOL     OW50269   9.502   7.385   9.254  0.3780 -0.0123  0.4716
16564SOL    HW150270   9.592   7.357   9.238 -0.1006 -0.5352 -1.5234
16564SOL    HW250271   9.449   7.330   9.196 -0.8334  3.3730 -1.8836
16565SOL     OW50272   5.369   7.362   6.439 -0.5526  0.3683 -0.0203
16565SOL    HW150273   5.378   7.457   6.427 -1.5472  0.2893 -1.8083
16565SOL    HW250274   5.436   7.325   6.382  0.1993 -0.0196  1.0961
16566SOL     OW50275   7.158   4.070   5.512 -0.0207 -0.0231  0.1896
16566SOL    HW150276   7.230   4.108   5.562  0.8472  0.1452 -1.1646
16566SOL    HW250277   7.187   4.072   5.421 -1.0959 -1.3747 -0.2268
16567SOL     OW50278   1.434   6.811   6.105  0.0789 -0.1448  0.4105
16567SOL    HW150279   1.454   6.904   6.096 -0.7137 -0.0133 -0.0902
16567SOL    HW250280   1.344   6.803   6.075  0.6461 -1.3306 -1.1737
16568SOL     OW50281   7.620   1.967   3.933  0.0554  0.3165  0.1819
16568SOL    HW150282   7.626   1.973   3.838  1.3162  1.5211  0.3016
16568SOL    HW250283   7.604   1.875   3.951 -0.6038  0.1402 -1.2072
16569SOL     OW50284   2.809   8.248   6.949  0.1114  0.1351  0.2489
16569SOL    HW150285   2.862   8.195   6.890 -0.1153 -0.6292  0.7089
16569SOL    HW250286   2.810   8.336   6.911 -0.3748 -0.4191 -1.1165
16570SOL     OW50287   5.046   1.843   8.477 -0.2862 -0.3220  0.0406
16570SOL    HW150288   4.962   1.797   8.469 -0.8277  0.4161  1.1974
16570SOL    HW250289   5.111   1.773   8.477 -0.9699 -0.9832  0.0741
16571SOL     OW50290   1.665   0.163   8.026 -0.0627  0.3004 -0.1044
16571SOL    HW150291   1.613   0.243   8.015  0.0681  0.2426 -1.3096
16571SOL    HW250292   1.620   0.098   7.971  0.9047  0.0768 -0.6597
16572SOL     OW50293   3.615   6.849   5.541  0.2477 -0.0893 -0.3856
16572SOL    HW150294   3.533   6.856   5.589  1.1211  0.2523  1.1450
16572SOL    HW250295   3.617   6.759   5.508 -0.5904 -0.1847 -0.1953
16573SOL     OW50296   9.398   8.238   5.700  0.2021  0.2913  0.4363
16573SOL    HW150297   9.411   8.306   5.766 -4.0890  1.2477  0.5599
16573SOL    HW250298   9.406   8.156   5.749  1.8973  0.7610  1.0274
16574SOL     OW50299   5.228   1.137   9.092  0.0361 -0.5424 -0.0220
16574SOL    HW150300   5.133   1.139   9.082  0.1907  0.4144 -1.5990
16574SOL    HW250301   5.246   1.053   9.135 -1.4210 -1.3340 -0.8829
16575SOL     OW50302   4.630   3.608   4.766 -0.3977  0.4131 -0.1624
16575SOL    HW150303   4.660   3.519   4.785 -2.3209 -0.2880 -0.1254
16575SOL    HW250304   4.687   3.665   4.818  0.1190 -0.8774  0.7321
16576SOL     OW50305   7.795   7.071   8.832 -0.1618  0.2816 -0.1381
16576SOL    HW150306   7.769   7.143   8.889 -0.0201  1.5398 -1.5783
16576SOL    HW250307   7.721   7.061   8.771 -0.8048 -1.7795  0.8872
16577SOL     OW50308   3.111   0.058   8.885  0.4207 -0.0595 -0.4295
16577SOL    HW150309   3.160  -0.024   8.886  1.7658  0.6895 -1.4624
16577SOL    HW250310   3.027   0.035   8.845  0.7732 -0.9386 -0.6898
16578SOL     OW50311   7.941   1.133   1.294  0.4075 -0.2166  0.2410
16578SOL    HW150312   8.005   1.077   1.251 -0.7611 -1.8440  0.5168
16578SOL    HW250313   7.857   1.089   1.279 -0.2034 -0.1922  3.0139
16579SOL     OW50314   3.270   5.123   0.709  0.4328  0.5886 -0.3262
16579SOL    HW150315   3.242   5.213   0.727  0.4766  0.4889  0.2615
16579SOL    HW250316   3.197   5.069   0.739  1.4063  0.3006  1.6768
16580SOL     OW50317   1.063   1.803   9.740  0.4176  0.2223 -0.0035
16580SOL    HW150318   1.142   1.813   9.794  0.2364 -0.9433  0.5005
16580SOL    HW250319   1.083   1.730   9.681 -0.1597  0.1564 -0.1210
16581SOL     OW50320   7.739   6.411   0.828 -0.2436 -0.1871  0.1779
16581SOL    HW150321   7.825   6.404   0.869 -0.1501 -1.8361 -0.2291
16581SOL    HW250322   7.682   6.355   0.881 -0.8381  0.0855 -0.1554
16582SOL     OW50323   1.735   2.064   7.457  0.3009 -0.1456  0.5800
16582SOL    HW150324   1.747   2.058   7.552 -0.4960 -2.9278  0.5835
16582SOL    HW250325   1.734   2.158   7.439 -0.0282  0.4708  3.3715
16583SOL     OW50326   4.807   5.046   2.887 -0.1159 -0.6999  0.6719
16583SOL    HW150327   4.733   5.018   2.833 -1.0596  2.5586  0.0860
16583SOL    HW250328   4.780   5.030   2.977 -1.6825  0.6337  0.4721
16584SOL     OW50329   5.629   8.206   3.954 -0.4265 -0.4813 -0.2770
16584SOL    HW150330   5.556   8.238   4.007  0.4452 -2.1509  2.1572
16584SOL    HW250331   5.703   8.202   4.016  1.5029  0.2624 -2.3970
16585SOL     OW50332   2.674   0.327   3.868 -0.1369  0.2910 -0.5336
16585SOL    HW150333   2.615   0.282   3.928 -1.4781  0.7205 -1.4905
16585SOL    HW250334   2.712   0.398   3.920  0.7930 -0.9380  0.5318
16586SOL     OW50335   5.266   4.780   6.718 -0.3760  0.5991  0.3555
16586SOL    HW150336   5.229   4.865   6.695 -0.4933  0.1893 -1.0759
16586SOL    HW250337   5.203   4.716   6.684  0.9299 -0.0849 -0.9192
16587SOL     OW50338   9.429   9.962   3.643 -0.3593  0.1143  0.5453
16587SOL    HW150339   9.387   9.919   3.718  1.2346 -0.6666  1.0458
16587SOL    HW250340   9.495  10.019   3.683  0.5273 -0.3305 -0.2475
16588SOL     OW50341   2.141   5.863   4.150  0.3462 -0.7026 -0.3332
16588SOL    HW150342   2.172   5.912   4.073 -0.7166  1.9207  0.8020
16588SOL    HW250343   2.054   5.832   4.125 -0.9588  2.0175  0.4105
16589SOL     OW50344   9.821   5.997   5.502 -0.2683  0.3361  0.3454
16589SOL    HW150345   9.741   6.025   5.546 -0.4937  2.1264 -1.0878
16589SOL    HW250346   9.858   6.078   5.465  0.2824 -0.9414 -2.1207
16590SOL     OW50347   6.824   0.140   4.475  0.3440 -0.0546 -0.5240
16590SOL    HW150348   6.865   0.114   4.392 -0.4877  1.0937 -1.3406
16590SOL    HW250349   6.745   0.189   4.448 -1.4509 -1.9557  0.9603
16591SOL     OW50350   5.089   3.963   0.426 -0.6136  0.2624  0.1870
16591SOL    HW150351   5.153   4.029   0.398 -1.8353  0.9491 -1.1169
16591SOL    HW250352   5.050   4.000   0.505 -0.0775  0.2829  0.4473
16592SOL     OW50353   4.272   4.154   5.614 -0.4833 -0.3804 -0.0973
16592SOL    HW150354   4.269   4.229   5.555 -0.1334 -1.0571 -1.0094
16592SOL    HW250355   4.356   4.162   5.659  0.3130 -1.0636 -1.3812
16593SOL     OW50356   4.643   4.283   2.044 -0.1782 -0.7470  0.0727
16593SOL    HW150357   4.675   4.204   2.001  2.2872  1.3087 -2.2779
16593SOL    HW250358   4.566   4.309   1.992 -1.4775 -1.8804  1.3221
16594SOL     OW50359   9.300   8.081   1.183  0.0197 -0.2521 -0.5171
16594SOL    HW150360   9.222   8.096   1.237 -0.2147  2.1182 -1.4146
16594SOL    HW250361   9.322   7.989   1.198 -2.0694 -0.5836  0.9062
16595SOL     OW50362   5.547   3.202   2.484  0.2335 -0.4160  0.4667
16595SOL    HW150363   5.530   3.179   2.393 -1.6317  0.5242  0.5335
16595SOL    HW250364   5.602   3.280   2.480 -2.1004  1.2760  0.0576
16596SOL     OW50365   9.929   7.203   8.501 -0.1159 -0.0904  0.0017
16596SOL    HW150366  10.015   7.202   8.458  0.5666 -0.4330  1.3060
16596SOL    HW250367   9.929   7.283   8.553  0.2399 -1.0612  1.5495
16597SOL     OW50368   8.019   1.719   5.098 -0.0899  0.6019 -0.6221
16597SOL    HW150369   8.051   1.634   5.070  0.5151  0.4824  0.3446
16597SOL    HW250370   7.961   1.749   5.028  2.6518  1.1256 -2.8485
16598SOL     OW50371   0.348   9.911   3.468  0.1780  0.8905 -0.0077
16598SOL    HW150372   0.389   9.891   3.384  2.1462  0.7736  0.9209
16598SOL    HW250373   0.421   9.917   3.530 -1.3034 -0.9811  2.1045
16599SOL     OW50374   5.370   9.165   8.760  0.3403 -0.3803 -0.4221
16599SOL    HW150375   5.325   9.169   8.844  0.2993  0.5417 -0.4786
16599SOL    HW250376   5.448   9.111   8.776  1.3934  1.3941  0.7229
16600SOL     OW50377   9.795   4.416   2.762 -0.4663  0.0496 -0.7312
16600SOL    HW150378   9.844   4.371   2.831 -0.9227  0.5911 -0.0362
16600SOL    HW250379   9.747   4.346   2.717 -2.1263 -0.0809  1.1064
16601SOL     OW50380   1.690   6.167   6.348  0.3318 -0.1079 -0.3866
16601SOL    HW150381   1.756   6.236   6.339 -0.0350  0.6711  2.1176
16601SOL    HW250382   1.701   6.134   6.437 -2.6228  0.0570  0.1486
16602SOL     OW50383   2.491   1.827   8.651  0.0443  0.5420  0.7775
16602SOL    HW150384   2.530   1.747   8.686 -0.7957 -0.1120  0.2579
16602SOL    HW250385   2.534   1.840   8.567 -1.1292 -0.4250  0.0024
16603SOL     OW50386   2.310   3.034   9.532 -0.0300  0.0666 -0.5740
16603SOL    HW150387   2.347   2.959   9.579 -1.1518  0.2780  0.6873
16603SOL    HW250388   2.342   3.023   9.442  2.9510  0.1531  0.3528
16604SOL     OW50389   4.675   0.319   5.466 -0.1775  0.1204 -0.2819
16604SOL    HW150390   4.716   0.241   5.503  0.6757  1.1308  0.9825
16604SOL    HW250391   4.613   0.348   5.532  2.0694  2.5189  0.9656
16605SOL     OW50392   3.334   2.858   6.390 -0.5186  0.2012 -0.2488
16605SOL    HW150393   3.336   2.815   6.305  1.1753 -0.4195  0.0623
16605SOL    HW250394   3.359   2.949   6.373  1.5357 -0.3172 -0.2568
16606SOL     OW50395   2.606   4.782   3.098 -0.6857  0.3672  0.1944
16606SOL    HW150396   2.619   4.877   3.093  1.5488  0.1295  0.5801
16606SOL    HW250397   2.683   4.744   3.055  0.0927 -1.2570  2.7760
16607SOL     OW50398   0.108   3.994   3.006  0.0497  0.4333  0.2473
16607SOL    HW150399   0.154   4.072   3.035  2.0573 -0.7427  0.3698
16607SOL    HW250400   0.146   3.923   3.056 -0.4492 -0.8856 -1.1534
16608SOL     OW50401   9.866   5.004   0.203  0.9659 -0.4132  0.0651
16608SOL    HW150402   9.803   5.008   0.131  0.0155 -2.4911  0.6982
16608SOL    HW250403   9.941   4.957   0.168  1.2758  0.1736 -0.0707
16609SOL     OW50404   2.313   9.634   2.356  0.2525  0.0535 -0.3877
16609SOL    HW150405   2.319   9.562   2.419  0.4292 -0.8526 -1.4200
16609SOL    HW250406   2.266   9.597   2.281 -0.6563  1.3461 -0.4806
16610SOL     OW50407   2.574   9.257   3.726 -0.3865 -0.0611 -0.1402
16610SOL    HW150408   2.613   9.273   3.641 -0.4820 -1.1724 -0.4104
16610SOL    HW250409   2.545   9.166   3.723 -1.1678  0.1332  0.7726
16611SOL     OW50410   9.366   2.566   9.411  0.3145 -0.1168  0.4017
16611SOL    HW150411   9.382   2.657   9.382  1.8010 -0.4307  0.1166
16611SOL    HW250412   9.286   2.540   9.365  1.0148  0.3820 -1.2018
16612SOL     OW50413   1.881   7.281   5.083 -0.6719 -0.4523 -1.1239
16612SOL    HW150414   1.944   7.244   5.021 -0.4187 -0.6364 -0.7591
16612SOL    HW250415   1.928   7.282   5.167 -1.0117 -0.2041 -0.9349
16613SOL     OW50416   7.375   0.852   6.269  0.4954  0.0006 -0.3079
16613SOL    HW150417   7.440   0.785   6.248 -0.9824 -1.5898  0.0206
16613SOL    HW250418   7.397   0.879   6.358  0.1760 -1.2158  0.1622
16614SOL     OW50419   1.099   3.928   9.424 -0.2258 -0.4370  0.0442
16614SOL    HW150420   1.161   3.866   9.387 -0.3676 -0.2761 -0.4787
16614SOL    HW250421   1.104   3.915   9.519  2.5751  1.3828  0.2726
16615SOL     OW50422   5.465   6.455   3.653 -0.0580  0.7065 -0.4485
16615SOL    HW150423   5.421   6.521   3.600 -1.4500  0.4924  0.3826
16615SOL    HW250424   5.422   6.373   3.630 -0.2422  0.5158  0.5402
16616SOL     OW50425   4.806   7.025   4.364  0.0581  0.5480  0.1724
16616SOL    HW150426   4.829   6.936   4.339  1.7205  0.8885  0.3822
16616SOL    HW250427   4.801   7.073   4.281 -0.8943  0.2768  0.0549
16617SOL     OW50428   9.809   5.842   8.104 -1.0305 -0.2169 -0.1175
16617SOL    HW150429   9.856   5.762   8.126  1.0606  1.0769  0.4551
16617SOL    HW250430   9.785   5.879   8.190  0.4281  1.0731 -0.2245
16618SOL     OW50431   0.745   3.149   8.282 -0.3122 -0.2043 -0.5691
16618SOL    HW150432   0.725   3.157   8.375 -0.3563 -0.4686 -0.5528
16618SOL    HW250433   0.834   3.111   8.280  0.2309  1.0334 -0.6389
16619SOL     OW50434   4.790   0.292   9.666  0.0761  0.6384 -0.5549
16619SOL    HW150435   4.717   0.343   9.700 -1.3377 -1.1697 -0.7488
16619SOL    HW250436   4.808   0.330   9.580 -0.8622  0.8816 -0.6512
16620SOL     OW50437   8.400   4.676   8.895  0.3320  0.2616  0.6559
16620SOL    HW150438   8.310   4.652   8.874  0.4254  0.1513  0.3899
16620SOL    HW250439   8.418   4.629   8.977  0.6469 -0.8910 -0.0581
16621SOL     OW50440   3.206   4.381   4.881 -0.2735 -0.0578  0.0939
16621SOL    HW150441   3.212   4.343   4.969  0.3328 -1.4364 -0.5059
16621SOL    HW250442   3.296   4.409   4.862  0.0382 -1.5522 -0.8094
16622SOL     OW50443   6.407   4.609   2.489 -0.2176 -0.3664  0.1854
16622SOL    HW150444   6.460   4.636   2.414  1.4504  1.5267  1.9234
16622SOL    HW250445   6.339   4.677   2.497  0.0720 -0.1386  0.7981
16623SOL     OW50446   7.140   4.644   9.810  0.5563  0.3627  0.3827
16623SOL    HW150447   7.072   4.577   9.799 -0.4276  1.1170  1.5041
16623SOL    HW250448   7.151   4.681   9.723 -1.5322  1.1810  0.4092
16624SOL     OW50449   5.530   1.128   1.508 -0.5307  0.2379 -0.2068
16624SOL    HW150450   5.535   1.150   1.415  1.2230 -0.5039 -0.3315
16624SOL    HW250451   5.512   1.211   1.552 -0.6260  0.7263 -1.1545
16625SOL     OW50452   3.107   3.764   5.662 -0.2413 -0.6387  0.3054
16625SOL    HW150453   3.099   3.671   5.641  1.3119 -1.0428  1.3839
16625SOL    HW250454   3.110   3.807   5.577  0.8129 -1.7492 -0.2540
16626SOL     OW50455   4.045   1.529   8.855  0.1440  0.0234 -0.6076
16626SOL    HW150456   4.018   1.590   8.786 -0.0356  0.4024 -0.2080
16626SOL    HW250457   3.988   1.550   8.929  0.7553  0.0491 -0.1386
16627SOL     OW50458   9.270   9.597   6.644  0.1589 -0.1570  0.4765
16627SOL    HW150459   9.351   9.645   6.659  0.3896  0.2511 -1.7591
16627SOL    HW250460   9.201   9.661   6.661  0.4248  0.4858 -0.7328
16628SOL     OW50461   2.440   0.370   0.214  0.3364 -0.5952  0.0251
16628SOL    HW150462   2.376   0.439   0.234  0.4062 -0.2089 -1.0129
16628SOL    HW250463   2.397   0.289   0.241  0.0425 -0.1907  0.7835
16629SOL     OW50464   0.996   0.870   7.426 -0.0910 -0.0304 -0.2265
16629SOL    HW150465   1.083   0.875   7.387  0.2743  2.2224  0.7105
16629SOL    HW250466   0.958   0.790   7.390  2.6310 -1.5253 -0.0645
16630SOL     OW50467   7.296   8.075   0.578 -0.3026 -0.1771  0.0915
16630SOL    HW150468   7.318   8.047   0.489 -0.6331  0.4243 -0.1846
16630SOL    HW250469   7.245   8.155   0.566 -0.6446 -0.2825  0.8131
16631SOL     OW50470   7.807   8.570   1.047 -0.1974 -0.0186  0.0439
16631SOL    HW150471   7.774   8.482   1.065 -0.6773  0.3947  1.2927
16631SOL    HW250472   7.854   8.595   1.126  1.5507  0.1518 -0.9913
16632SOL     OW50473   2.400   3.434   6.335  0.3589  0.0989  0.7122
16632SOL    HW150474   2.323   3.402   6.289 -0.2709  1.2634  0.9262
16632SOL    HW250475   2.398   3.388   6.419  0.2867 -0.3873  0.4472
16633SOL     OW50476   1.294   6.775   0.262 -0.0271 -0.3415  0.0154
16633SOL    HW150477   1.253   6.689   0.256 -1.0239  0.1813 -1.1661
16633SOL    HW250478   1.386   6.757   0.282  0.4091 -1.8427 -2.8641
16634SOL     OW50479   8.208   5.157   2.754  0.4591 -0.2384 -0.2075
16634SOL    HW150480   8.298   5.140   2.727  0.3840 -0.0734 -0.5703
16634SOL    HW250481   8.194   5.249   2.733 -0.5255 -0.7942 -2.3529
16635SOL     OW50482   8.505   5.112   3.923  0.2859 -0.9511  0.1754
16635SOL    HW150483   8.538   5.081   3.839  0.4190 -0.4009  0.0208
16635SOL    HW250484   8.421   5.153   3.901  0.7646  0.0553  0.1516
16636SOL     OW50485   9.752   8.865   8.092  0.3863  0.4360 -0.3458
16636SOL    HW150486   9.816   8.817   8.040  0.3120  1.1372 -1.1133
16636SOL    HW250487   9.801   8.938   8.129  0.1479  0.7111 -0.5586
16637SOL     OW50488   4.819   8.299   8.258 -0.1524  0.0886 -0.0962
16637SOL    HW150489   4.821   8.204   8.266  0.0830  0.0895 -0.1579
16637SOL    HW250490   4.726   8.322   8.271 -0.0567 -0.0565  0.9116
16638SOL     OW50491   1.507   2.280   6.526  0.2854 -0.2958 -0.0445
16638SOL    HW150492   1.534   2.238   6.608 -2.1008 -2.0597 -0.0687
16638SOL    HW250493   1.589   2.302   6.482  1.6476  0.4003  2.6119
16639SOL     OW50494   2.234   9.270   9.712  0.1110  0.4105 -0.1889
16639SOL    HW150495   2.172   9.218   9.762  0.1800  0.0482 -0.4754
16639SOL    HW250496   2.230   9.234   9.623  0.3851  0.6916 -0.3198
16640SOL     OW50497   5.024   2.789   6.388 -0.7453  0.0826  0.2033
16640SOL    HW150498   4.971   2.745   6.321 -1.6935 -0.0160  0.9991
16640SOL    HW250499   4.997   2.881   6.383 -0.2815  0.2138 -0.0294
16641SOL     OW50500   2.392   6.894   7.034  0.0925  0.1918  0.2419
16641SOL    HW150501   2.473   6.896   6.982  1.0902 -1.7617  1.5760
16641SOL    HW250502   2.423   6.902   7.124 -1.2301 -0.4489  0.7620
16642SOL     OW50503   3.631   5.766   9.495 -0.0367 -0.1566 -0.1216
16642SOL    HW150504   3.569   5.702   9.531  1.6412 -1.5362  0.4566
16642SOL    HW250505   3.655   5.820   9.570  0.4541 -0.4751 -0.0488
16643SOL     OW50506   1.259   7.044   2.950  0.1133 -0.4275 -0.3890
16643SOL    HW150507   1.348   7.065   2.975 -0.9255  4.0970  0.3886
16643SOL    HW250508   1.251   7.074   2.859 -0.9002  0.5497 -0.0090
16644SOL     OW50509   9.572   7.130   0.138 -0.5490  0.2858 -0.2026
16644SOL    HW150510   9.492   7.088   0.169  0.1224 -1.3525 -0.6280
16644SOL    HW250511   9.613   7.066   0.081 -0.0077  1.9405 -1.7625
16645SOL     OW50512   0.946   2.942   2.268  0.2309 -0.5070  0.3220
16645SOL    HW150513   0.919   2.958   2.178  0.2056  0.8445  0.5550
16645SOL    HW250514   1.009   3.011   2.287 -1.3183  0.5360  2.0156
16646SOL     OW50515   3.360   4.559   4.598  0.1982  0.6296 -0.0216
16646SOL    HW150516   3.295   4.597   4.657  0.2336 -0.4794  0.7780
16646SOL    HW250517   3.440   4.554   4.650  0.2466 -0.3169 -0.1679
16647SOL     OW50518   7.997   6.473   6.846 -0.0748  0.5031 -0.3729
16647SOL    HW150519   7.919   6.489   6.793 -0.0297  0.7068 -0.3813
16647SOL    HW250520   8.015   6.380   6.837  0.0352  0.5696 -0.8590
16648SOL     OW50521   5.091   9.101   3.396 -0.4646 -0.7336 -0.3382
16648SOL    HW150522   5.034   9.171   3.427 -1.1179 -1.0310 -0.8381
16648SOL    HW250523   5.178   9.141   3.390 -0.9848  0.3057 -1.4850
16649SOL     OW50524   7.734   7.879   0.290  0.0841 -0.0491  0.2736
16649SOL    HW150525   7.827   7.882   0.268 -0.0634  3.0589 -0.5164
16649SOL    HW250526   7.731   7.845   0.379  2.1755  1.3728  0.9599
16650SOL     OW50527   1.163   4.122   2.579 -0.0124  0.8138 -0.4925
16650SOL    HW150528   1.200   4.035   2.596  0.0395  0.8615 -0.3642
16650SOL    HW250529   1.202   4.148   2.495 -1.1373  0.0967 -1.2825
16651SOL     OW50530   2.822   9.688   7.005 -0.1253 -0.3558 -0.4358
16651SOL    HW150531   2.808   9.655   6.916  0.3308  0.0888 -0.6759
16651SOL    HW250532   2.842   9.781   6.994  2.6216 -0.8173 -0.1242
16652SOL     OW50533   5.388   8.423   7.527 -0.2098 -0.3928  0.4113
16652SOL    HW150534   5.302   8.396   7.560 -0.5265  0.5844  0.4116
16652SOL    HW250535   5.411   8.356   7.464 -1.7248  0.1585 -0.8113
16653SOL     OW50536   8.879   2.166   6.337 -0.0802  0.3242 -0.5519
16653SOL    HW150537   8.855   2.081   6.300  0.0131 -0.8245  1.8228
16653SOL    HW250538   8.808   2.188   6.397 -0.3004  2.1652 -1.4048
16654SOL     OW50539   9.439   3.060   3.698 -0.3319  0.4032 -0.2827
16654SOL    HW150540   9.346   3.048   3.715 -0.5681 -1.7208 -2.4397
16654SOL    HW250541   9.454   3.014   3.615  2.5502  1.1156 -0.2691
16655SOL     OW50542   5.033   3.931   8.374 -0.4958 -0.2243  0.0576
16655SOL    HW150543   5.029   4.000   8.441 -0.3457 -0.4939  0.3455
16655SOL    HW250544   4.956   3.877   8.391  0.4149 -1.2333  1.0406
16656SOL     OW50545   1.785   1.760   6.738 -0.2863 -0.5560  0.3044
16656SOL    HW150546   1.820   1.672   6.748  2.8160  0.6495  1.3072
16656SOL    HW250547   1.798   1.801   6.823 -3.0678  0.4993  0.3250
16657SOL     OW50548   4.890   9.252   3.970 -0.4642 -0.7782  0.1552
16657SOL    HW150549   4.960   9.186   3.967  1.7237  1.3637  0.9644
16657SOL    HW250550   4.888   9.280   4.062 -0.9918  0.6351 -0.2631
16658SOL     OW50551   6.969   0.046   9.420 -0.5286  0.2911 -0.6698
16658SOL    HW150552   6.964   0.096   9.501  0.3812  1.0104 -1.0340
16658SOL    HW250553   6.878   0.031   9.395 -0.8118  0.7650  0.0522
16659SOL     OW50554   6.244   5.694   6.019 -0.0412  0.2515 -0.1325
16659SOL    HW150555   6.266   5.768   6.076  0.6991  0.7579 -1.0372
16659SOL    HW250556   6.168   5.725   5.970  0.0342  0.2642 -0.2409
16660SOL     OW50557   1.958   2.168   6.109  0.3836  0.2888 -0.2869
16660SOL    HW150558   1.901   2.124   6.172  1.8212  0.6113  1.3158
16660SOL    HW250559   1.955   2.112   6.031 -0.6656 -0.6767  0.4183
16661SOL     OW50560   8.443   3.435   3.347 -0.3150  0.3364  0.7940
16661SOL    HW150561   8.362   3.484   3.361  0.0323  1.0578  0.3407
16661SOL    HW250562   8.510   3.487   3.390  0.0690  0.3090  0.2363
16662SOL     OW50563   6.975   8.065   5.541 -0.0264  0.2097  0.8840
16662SOL    HW150564   6.956   8.036   5.630 -0.9920  1.2256  1.0210
16662SOL    HW250565   6.890   8.084   5.503  0.3503 -0.4710 -0.3719
16663SOL     OW50566   6.642   8.095   3.368  0.2780 -0.5817 -0.0410
16663SOL    HW150567   6.591   8.023   3.331  2.0939 -0.9146 -2.0820
16663SOL    HW250568   6.623   8.169   3.311  1.9198 -0.6780 -0.7468
16664SOL     OW50569   7.741   3.114   7.698 -0.4227  0.8775 -0.5795
16664SOL    HW150570   7.817   3.140   7.647  0.0193  1.3798  0.3017
16664SOL    HW250571   7.666   3.143   7.646  0.0321  2.7423 -0.2700
16665SOL     OW50572   2.754   7.339   5.884 -0.7351 -0.1192  0.2822
16665SOL    HW150573   2.715   7.293   5.958  0.7806 -0.7961  0.7023
16665SOL    HW250574   2.723   7.292   5.807 -3.5429  1.4932  0.3013
16666SOL     OW50575   2.368   0.075   8.940  0.6307  0.0927  0.0718
16666SOL    HW150576   2.276   0.074   8.968 -0.1522  3.0374 -1.9892
16666SOL    HW250577   2.416   0.105   9.018 -0.4973  0.9881  0.4564
16667SOL     OW50578   8.141   8.525   1.297 -0.0151 -0.2927 -0.2559
16667SOL    HW150579   8.085   8.598   1.271  1.7272  1.1002 -0.2962
16667SOL    HW250580   8.081   8.453   1.316 -1.7505  0.9779 -0.7766
16668SOL     OW50581   7.311   0.359   1.630 -0.0034 -0.2142 -0.8080
16668SOL    HW150582   7.398   0.336   1.598  0.5884  1.2169 -0.2937
16668SOL    HW250583   7.295   0.299   1.703  1.3616  0.6878  0.2897
16669SOL     OW50584   6.194   7.936   7.588 -0.5362  0.3874  0.1918
16669SOL    HW150585   6.145   7.984   7.522  0.3726  2.0744  0.6772
16669SOL    HW250586   6.196   7.846   7.556 -2.5667  0.5761 -0.6018
16670SOL     OW50587   9.492   4.419   6.674  0.6251  0.5495 -0.2146
16670SOL    HW150588   9.479   4.477   6.599 -1.2234  0.0673 -0.3379
16670SOL    HW250589   9.420   4.355   6.667  0.6465  0.2464  1.7305
16671SOL     OW50590   4.530   8.309   8.299  0.6738 -0.6804  0.5338
16671SOL    HW150591   4.465   8.370   8.265  0.6794 -0.2139  1.3428
16671SOL    HW250592   4.478   8.234   8.331  0.6947 -1.2965 -0.8241
16672SOL     OW50593   8.454   1.117   9.105 -0.0433  0.1362  0.3321
16672SOL    HW150594   8.510   1.059   9.156  1.0030 -0.0542 -0.9709
16672SOL    HW250595   8.446   1.074   9.020 -2.9758 -0.3309  0.7243
16673SOL     OW50596   2.457   1.379   2.691  0.3614 -0.0003 -0.6458
16673SOL    HW150597   2.457   1.389   2.786 -0.7331  1.6401 -0.7781
16673SOL    HW250598   2.492   1.291   2.676 -1.6378 -1.2318  1.3669
16674SOL     OW50599   0.160   7.474   1.570 -0.3084 -0.5555 -0.4476
16674SOL    HW150600   0.195   7.535   1.506  2.2906 -1.1660  0.2693
16674SOL    HW250601   0.197   7.389   1.545 -1.8192 -1.3858  0.0339
16675SOL     OW50602   7.407   7.001   5.114 -0.1175  1.1038 -0.1243
16675SOL    HW150603   7.385   7.094   5.119  1.4216  1.4233  1.5942
16675SOL    HW250604   7.498   7.000   5.084 -0.1500  0.1468 -0.2111
16676SOL     OW50605   9.312   0.297   3.188 -0.5668 -0.0287  0.1252
16676SOL    HW150606   9.308   0.232   3.258 -1.7478 -1.5717 -1.2845
16676SOL    HW250607   9.239   0.357   3.207  1.0838  1.5688  1.9473
16677SOL     OW50608   8.473   2.583   7.424  0.8810  0.6239 -0.0747
16677SOL    HW150609   8.386   2.619   7.439 -0.0293 -1.6025  0.4576
16677SOL    HW250610   8.506   2.561   7.512  2.3744  2.1890 -0.1891
16678SOL     OW50611   4.492   7.837   8.171 -0.2929  0.1862  0.9247
16678SOL    HW150612   4.446   7.755   8.192 -1.7136  0.6758 -0.1005
16678SOL    HW250613   4.423   7.897   8.143  1.0606  0.6170 -1.8113
16679SOL     OW50614   2.867   7.985   2.820  0.2266 -0.0084  0.0298
16679SOL    HW150615   2.934   7.923   2.790  0.7684  0.5049  0.1491
16679SOL    HW250616   2.833   7.947   2.900 -0.1068 -0.6103 -0.3888
16680SOL     OW50617   4.390   4.163   8.878 -0.3598 -0.7534  0.4535
16680SOL    HW150618   4.394   4.164   8.974 -0.4270 -0.8045  0.4568
16680SOL    HW250619   4.466   4.214   8.850  0.0862 -1.3607  0.5254
16681SOL     OW50620   0.658   4.867   1.384  0.6852 -0.2440 -0.1715
16681SOL    HW150621   0.682   4.950   1.427  0.2405  0.9120 -2.0141
16681SOL    HW250622   0.584   4.834   1.436 -1.6729  2.5208 -1.4786
16682SOL     OW50623   9.699   5.004   2.959 -0.2034  0.9694 -0.7054
16682SOL    HW150624   9.637   5.050   2.902  0.9612  1.8346 -1.3315
16682SOL    HW250625   9.776   4.991   2.903  0.1797 -0.0906  0.0466
16683SOL     OW50626   9.656   7.661   4.930 -0.0969 -0.3503 -0.2815
16683SOL    HW150627   9.617   7.582   4.967  1.3691 -1.6347 -1.3526
16683SOL    HW250628   9.660   7.644   4.836  1.2588  0.5298 -0.4056
16684SOL     OW50629   1.449   5.407   5.011 -0.3736 -0.1307 -0.0628
16684SOL    HW150630   1.358   5.391   5.035 -0.0666  0.1619  1.3931
16684SOL    HW250631   1.458   5.502   5.012  0.1132 -0.1794  0.4715
16685SOL     OW50632   1.701   2.664   0.311  0.2210  0.0967  0.1899
16685SOL    HW150633   1.639   2.704   0.250 -0.7818 -1.0254  0.4229
16685SOL    HW250634   1.787   2.695   0.283 -0.0817 -1.1525 -2.4574
16686SOL     OW50635   4.526   9.276   7.630 -0.2436 -0.2690 -0.0446
16686SOL    HW150636   4.603   9.256   7.578  0.1760 -0.0505  0.4824
16686SOL    HW250637   4.552   9.258   7.720 -0.7383  0.0010  0.1592
16687SOL     OW50638   8.502   2.380   8.986  0.1953 -0.1517  0.0507
16687SOL    HW150639   8.563   2.451   8.966 -0.0142 -0.3454 -1.3686
16687SOL    HW250640   8.448   2.414   9.058  1.0769  0.5393  0.3985
16688SOL     OW50641   4.700   8.617   9.337 -0.2001  0.0180 -0.1884
16688SOL    HW150642   4.699   8.651   9.247  0.4249  2.5464  0.6935
16688SOL    HW250643   4.608   8.612   9.362 -0.3035  2.1190 -0.0168
16689SOL     OW50644   2.019   7.015   6.571  0.5365  0.1124  0.2401
16689SOL    HW150645   2.088   7.081   6.579  1.8410 -1.2077  0.4862
16689SOL    HW250646   1.975   7.015   6.656  0.2127  0.9801  0.0775
16690SOL     OW50647   5.701   3.196   3.286 -0.2831 -0.4807 -0.1094
16690SOL    HW150648   5.664   3.112   3.259  0.3639 -0.5390 -0.8500
16690SOL    HW250649   5.678   3.204   3.378 -2.6220 -0.2717 -0.6327
16691SOL     OW50650   0.748   6.454   8.267 -0.2053  0.0303 -0.0749
16691SOL    HW150651   0.741   6.371   8.221  0.9590  0.1187 -0.4442
16691SOL    HW250652   0.774   6.430   8.356  2.6288  0.0463 -0.7984
16692SOL     OW50653   4.160   0.768   2.071  0.1383 -0.0218 -0.7190
16692SOL    HW150654   4.239   0.793   2.120 -0.3211  0.3181 -0.1373
16692SOL    HW250655   4.187   0.770   1.979  0.8924 -0.2159 -0.5075
16693SOL     OW50656   2.947   7.527   5.769  0.8467 -0.7922  0.6291
16693SOL    HW150657   2.898   7.445   5.779  0.5095 -0.5203  1.1678
16693SOL    HW250658   2.903   7.573   5.697 -0.0849 -0.2589  1.5313
16694SOL     OW50659   9.711   7.188   3.136 -0.3774 -0.4350 -0.0222
16694SOL    HW150660   9.794   7.231   3.115 -0.3982  0.7515  2.0773
16694SOL    HW250661   9.655   7.205   3.060  0.2728  1.5482 -0.1144
16695SOL     OW50662   9.341   2.527   1.347 -0.1865  0.9171  0.1542
16695SOL    HW150663   9.411   2.553   1.287 -0.9392  0.8781 -0.7761
16695SOL    HW250664   9.294   2.609   1.366  0.6210  1.0896  1.4713
16696SOL     OW50665   6.055   2.185   5.647 -0.4675  0.1338 -0.4058
16696SOL    HW150666   6.031   2.153   5.560 -0.1444 -1.0018 -0.0973
16696SOL    HW250667   6.069   2.105   5.698 -0.3075  0.7899  0.5906
16697SOL     OW50668   3.645   6.543   0.936 -0.0340 -0.2821 -0.4524
16697SOL    HW150669   3.677   6.633   0.929  1.0093 -0.5626  0.3884
16697SOL    HW250670   3.683   6.511   1.018  0.0421 -1.6575 -1.0046
16698SOL     OW50671   8.923   0.286   0.351  0.1479 -0.3810  0.6441
16698SOL    HW150672   8.898   0.348   0.419 -0.4118 -0.7683  0.8042
16698SOL    HW250673   8.881   0.204   0.378  0.7561 -0.7855  0.3609
16699SOL     OW50674   7.439   0.592   2.166 -0.0630 -0.1811  0.1189
16699SOL    HW150675   7.487   0.627   2.240 -0.3533  0.5555 -0.0305
16699SOL    HW250676   7.413   0.504   2.193  2.3253 -1.0777 -0.2268
16700SOL     OW50677   8.365   4.538   6.665 -0.2914  0.0280 -0.0739
16700SOL    HW150678   8.387   4.627   6.694 -0.0110  0.4329 -1.4592
16700SOL    HW250679   8.448   4.491   6.664 -0.3356 -0.0528 -0.0021
16701SOL     OW50680   6.783   1.120   6.325 -0.3790 -0.5871 -0.7919
16701SOL    HW150681   6.716   1.146   6.388  1.1476  1.9400 -0.0632
16701SOL    HW250682   6.856   1.089   6.380  0.5092  0.4821 -1.3280
16702SOL     OW50683   5.773   9.520   0.371 -0.1390  0.2301 -0.6519
16702SOL    HW150684   5.846   9.576   0.347 -1.2559  1.1291 -2.1260
16702SOL    HW250685   5.781   9.510   0.466  1.0186  1.5499 -0.5716
16703SOL     OW50686   1.683   2.084   0.087 -0.4461  0.0454 -0.1060
16703SOL    HW150687   1.759   2.059   0.138 -0.3218 -0.0629 -0.3429
16703SOL    HW250688   1.700   2.175   0.061 -1.0018  0.4642  0.9456
16704SOL     OW50689   1.573   9.116   9.046  0.0888 -0.1120 -0.1541
16704SOL    HW150690   1.620   9.055   8.988  0.0649 -1.2530  0.9731
16704SOL    HW250691   1.580   9.076   9.133 -2.1433  0.1712  0.2114
16705SOL     OW50692   0.201   3.236   9.550  0.4961 -0.2938  0.2303
16705SOL    HW150693   0.254   3.228   9.629  3.2762  1.4423 -1.2987
16705SOL    HW250694   0.186   3.330   9.540  2.0773 -0.2037 -2.3259
16706SOL     OW50695   3.241   0.282   2.495 -0.6760  0.0715 -0.6659
16706SOL    HW150696   3.146   0.276   2.498 -0.6588 -0.6813 -1.2961
16706SOL    HW250697   3.272   0.211   2.551 -0.4751  0.3048 -0.4727
16707SOL     OW50698   4.193   1.293   4.021  0.7885  0.4361  0.2138
16707SOL    HW150699   4.109   1.255   4.049  0.4856  0.3451 -0.7998
16707SOL    HW250700   4.169   1.368   3.967  1.3586  0.1689 -0.4171
16708SOL     OW50701   2.501   2.627   2.802  0.8200 -0.0035 -0.0473
16708SOL    HW150702   2.552   2.583   2.734 -0.1977 -1.5024  0.1118
16708SOL    HW250703   2.496   2.563   2.873 -0.8230  0.2869  0.1342
16709SOL     OW50704   9.162   5.131   6.057 -0.4196 -0.4557 -0.3383
16709SOL    HW150705   9.247   5.155   6.094 -0.4828 -0.6094 -0.0924
16709SOL    HW250706   9.141   5.203   5.998  0.3084 -0.8596 -1.1029
16710SOL     OW50707   3.755   7.797   6.576 -0.4242 -0.6467 -0.0413
16710SOL    HW150708   3.812   7.737   6.528 -0.0836  0.4605 -1.0597
16710SOL    HW250709   3.778   7.884   6.544 -0.1571  0.1624  2.1629
16711SOL     OW50710   1.646   2.840   2.733  0.0207 -0.3221 -0.4030
16711SOL    HW150711   1.572   2.891   2.767 -1.1108 -2.4435  0.5462
16711SOL    HW250712   1.699   2.822   2.810  1.0433  0.3776 -0.9280
16712SOL     OW50713   2.860   8.501   1.880  0.1177  0.5067 -0.6905
16712SOL    HW150714   2.855   8.454   1.797  0.2475  0.6428 -0.7778
16712SOL    HW250715   2.938   8.466   1.922 -0.2222  0.0851 -0.4025
16713SOL     OW50716   7.707   5.024   0.578 -0.5803  0.3875 -0.0555
16713SOL    HW150717   7.750   5.104   0.610  1.8102 -0.2574 -1.3636
16713SOL    HW250718   7.736   5.017   0.487 -2.6385 -0.7644 -0.6604
16714SOL     OW50719   4.341   9.325   9.629  0.5747 -0.2586  0.1431
16714SOL    HW150720   4.417   9.308   9.685 -0.2286  1.2441  1.7854
16714SOL    HW250721   4.287   9.385   9.680 -1.0158 -0.1304 -1.6020
16715SOL     OW50722   5.676   1.060   0.916  0.1122 -0.1189  0.4354
16715SOL    HW150723   5.660   1.093   1.005 -1.7083 -1.4747  0.6633
16715SOL    HW250724   5.722   1.132   0.872  3.2101 -0.2676  3.0880
16716SOL     OW50725   4.554   8.156   2.066  0.0898  0.4331 -0.7749
16716SOL    HW150726   4.461   8.165   2.085  0.2711  2.3939 -0.6390
16716SOL    HW250727   4.558   8.102   1.987 -1.2462  1.5306 -1.6266
16717SOL     OW50728   5.856   5.562   3.002 -0.4352 -0.0714 -0.5285
16717SOL    HW150729   5.761   5.549   3.004 -0.6113  0.6025 -2.3956
16717SOL    HW250730   5.874   5.622   3.075 -1.0131 -2.3121  1.5811
16718SOL     OW50731   7.967   8.080   6.983  0.0795 -0.2905  0.5116
16718SOL    HW150732   8.043   8.024   6.996  1.9325  1.8365 -0.6788
16718SOL    HW250733   7.974   8.147   7.051 -1.1613 -0.4552  0.8402
16719SOL     OW50734   8.372   7.554   4.980  0.4686 -0.6836 -0.4455
16719SOL    HW150735   8.351   7.501   4.904 -0.1708 -1.1254  0.0312
16719SOL    HW250736   8.362   7.494   5.055  0.2522 -0.0308  0.0552
16720SOL     OW50737   7.320   3.181   1.974  1.0455  0.0040 -0.2197
16720SOL    HW150738   7.385   3.227   1.921  1.8129 -2.0493 -1.2115
16720SOL    HW250739   7.276   3.249   2.023  2.3163  1.7216 -1.3322
16721SOL     OW50740   6.769   4.258   8.211  0.0534 -0.5028  0.3390
16721SOL    HW150741   6.859   4.276   8.182 -0.2931  3.9197  1.1780
16721SOL    HW250742   6.720   4.243   8.130  1.0508  0.1760 -0.4211
16722SOL     OW50743   8.289   8.000   3.938 -0.0416  0.0190 -0.4895
16722SOL    HW150744   8.325   7.912   3.932  1.7220  0.5362  1.4048
16722SOL    HW250745   8.209   7.990   3.989  0.6954 -0.3816  0.6208
16723SOL     OW50746   4.449   4.146   9.144  0.2017 -0.4769 -0.6992
16723SOL    HW150747   4.544   4.146   9.159  0.0016 -0.8361  0.7839
16723SOL    HW250748   4.416   4.077   9.203 -1.1359  0.7144  0.0161
16724SOL     OW50749   6.558   2.206   6.486 -1.0941 -0.2492  0.2850
16724SOL    HW150750   6.563   2.266   6.561  0.0626 -0.6245  0.5353
16724SOL    HW250751   6.648   2.177   6.472 -1.0217  0.8595 -2.1237
16725SOL     OW50752   1.975   2.783   8.415 -0.5396  0.4699 -0.6160
16725SOL    HW150753   1.990   2.853   8.478 -0.4834  1.1835 -1.4135
16725SOL    HW250754   2.059   2.773   8.369 -1.2775  1.7049 -2.3109
16726SOL     OW50755   9.581   7.060   0.785  0.2767 -0.3248 -0.4002
16726SOL    HW150756   9.554   6.980   0.831 -1.2064 -1.0639 -2.3925
16726SOL    HW250757   9.641   7.030   0.717  0.8299  0.4564 -0.2661
16727SOL     OW50758   1.024   8.843   1.790  0.3836  0.6053 -0.5550
16727SOL    HW150759   1.071   8.895   1.725 -0.3821 -2.1075 -3.5234
16727SOL    HW250760   0.949   8.807   1.743 -2.2476  1.1160  2.7975
16728SOL     OW50761   0.951   6.443   0.023  1.1561 -0.3057  0.5231
16728SOL    HW150762   0.929   6.447   0.116  1.1901  1.5022  0.4781
16728SOL    HW250763   0.948   6.534  -0.007 -0.5340 -0.9820 -1.6375
16729SOL     OW50764   0.977   3.098   8.002 -0.2393  0.5485 -0.4803
16729SOL    HW150765   0.947   3.055   8.082 -1.9338 -0.8920 -1.8214
16729SOL    HW250766   0.903   3.093   7.942  1.0144  1.4802 -2.2062
16730SOL     OW50767   8.692   4.862   2.963 -0.2780 -0.4451 -0.1225
16730SOL    HW150768   8.639   4.902   2.895 -1.4617  0.7251  1.4099
16730SOL    HW250769   8.770   4.918   2.969  0.0346 -0.8072 -0.8062
16731SOL     OW50770   2.270   6.397   3.413 -0.3589  0.1209  0.1440
16731SOL    HW150771   2.310   6.444   3.486  0.5320 -0.0203 -0.2403
16731SOL    HW250772   2.342   6.349   3.373 -0.9131 -0.1283 -0.5843
16732SOL     OW50773   6.256   3.693   7.827  0.3163  0.1039  0.2604
16732SOL    HW150774   6.188   3.626   7.830  1.0795 -0.7055 -0.0369
16732SOL    HW250775   6.215   3.767   7.781 -0.9005  0.2880  1.5744
16733SOL     OW50776   8.450   8.250   0.887 -0.4909  0.2662 -0.8086
16733SOL    HW150777   8.464   8.195   0.810  0.0651  1.9234 -1.9490
16733SOL    HW250778   8.382   8.205   0.936 -1.2782 -0.5601 -2.5626
16734SOL     OW50779   9.301   6.628   1.012 -0.7521  0.3679 -0.3590
16734SOL    HW150780   9.213   6.608   1.044 -1.0609  1.1500 -0.6844
16734SOL    HW250781   9.345   6.544   1.008 -1.5074 -0.0403 -0.2453
16735SOL     OW50782   4.287   3.210   0.227  0.7269  0.4023  0.1757
16735SOL    HW150783   4.249   3.289   0.189  0.7940 -0.2752 -1.3706
16735SOL    HW250784   4.381   3.227   0.230  1.0450 -0.4941 -2.4816
16736SOL     OW50785   1.329   2.966   9.501  0.5839  0.2050  0.7673
16736SOL    HW150786   1.390   3.015   9.446  0.6238  0.3240  0.9174
16736SOL    HW250787   1.384   2.904   9.549  0.6752  0.8126  1.4463
16737SOL     OW50788   3.116   2.406   4.898  0.1737  0.3548  0.2101
16737SOL    HW150789   3.057   2.444   4.834  0.8283  1.7829  0.3878
16737SOL    HW250790   3.149   2.326   4.858 -1.0188  0.1274 -0.3358
16738SOL     OW50791   4.871   4.061   0.914 -0.1531  0.2151  0.2061
16738SOL    HW150792   4.902   4.136   0.864  0.0815 -1.6476 -2.6467
16738SOL    HW250793   4.951   4.017   0.944 -0.1878 -0.2863 -0.4024
16739SOL     OW50794   8.955   1.298   5.267  0.5897 -0.3892 -0.2106
16739SOL    HW150795   8.871   1.276   5.226  1.5262 -2.5063 -1.1692
16739SOL    HW250796   8.947   1.266   5.357 -0.1606  0.8784  0.1983
16740SOL     OW50797   9.520   7.537   6.557 -0.2686 -0.1315 -0.1965
16740SOL    HW150798   9.537   7.602   6.489 -0.2460  0.1419  0.0690
16740SOL    HW250799   9.506   7.589   6.637  1.7894 -0.5291  0.4751
16741SOL     OW50800   4.192   7.989   9.892  0.2115 -0.2284 -0.1752
16741SOL    HW150801   4.129   8.012   9.824 -0.7720 -0.6526  0.5750
16741SOL    HW250802   4.197   8.066   9.948  0.2564 -0.2410 -0.1609
16742SOL     OW50803   4.474   6.618   7.159  0.9740  0.1805 -0.1337
16742SOL    HW150804   4.560   6.576   7.163  1.2564  0.8013  0.8822
16742SOL    HW250805   4.493   6.712   7.162  0.2671  0.3228  0.3003
16743SOL     OW50806   3.782   8.201   6.207 -0.4936 -0.1763 -0.2234
16743SOL    HW150807   3.875   8.216   6.190 -0.6472  0.7778 -0.2522
16743SOL    HW250808   3.750   8.158   6.128  0.1238 -1.4681  0.1819
16744SOL     OW50809   7.858   2.633   0.276 -0.0025 -0.2115 -0.0991
16744SOL    HW150810   7.911   2.619   0.197  0.2314  0.9997 -0.1737
16744SOL    HW250811   7.908   2.695   0.328 -1.2504  0.8431 -0.0993
16745SOL     OW50812   5.130   7.210   0.251  0.6696  0.3061 -0.3953
16745SOL    HW150813   5.154   7.299   0.224  1.7824  0.2405  0.3484
16745SOL    HW250814   5.040   7.199   0.219  0.1518  2.0491  0.3449
16746SOL     OW50815   8.530   2.823   6.345  0.7336  0.0263  0.1519
16746SOL    HW150816   8.599   2.759   6.363  0.1031 -1.6024 -2.5674
16746SOL    HW250817   8.553   2.857   6.258 -0.7453  1.0451  0.1384
16747SOL     OW50818   6.958   2.967   7.209 -0.1435 -0.6205 -0.5756
16747SOL    HW150819   6.965   2.966   7.304 -0.0692 -1.7888 -0.5867
16747SOL    HW250820   6.897   2.896   7.188  0.7959 -1.1869 -1.4657
16748SOL     OW50821   8.058   1.984   3.154 -0.2545  0.5716 -0.0934
16748SOL    HW150822   7.999   2.011   3.083 -2.0083 -0.9269  0.6937
16748SOL    HW250823   8.002   1.982   3.231  1.1348  0.1589  0.9375
16749SOL     OW50824   7.006   6.338   9.422  0.3298 -0.1369 -0.9812
16749SOL    HW150825   6.971   6.422   9.392 -2.5652 -0.5912  0.6985
16749SOL    HW250826   7.023   6.351   9.515  1.0574 -1.0724 -0.9655
16750SOL     OW50827   8.752   4.148   0.560 -0.2386 -0.4443  0.4868
16750SOL    HW150828   8.733   4.223   0.617 -1.4506 -0.4835  0.1574
16750SOL    HW250829   8.846   4.134   0.570  0.0298  1.1527  0.5239
16751SOL     OW50830   7.385   9.632   4.343 -0.0163  0.6448 -0.3773
16751SOL    HW150831   7.308   9.634   4.285 -1.0067  0.7953  0.9010
16751SOL    HW250832   7.448   9.690   4.300 -0.3977  0.1206 -1.7167
16752SOL     OW50833   0.154   6.631   7.550 -0.4294  0.0219  0.3828
16752SOL    HW150834   0.102   6.551   7.540  1.3265 -0.9500 -1.8779
16752SOL    HW250835   0.099   6.700   7.515 -2.0850 -0.0493  2.6140
16753SOL     OW50836   8.177   6.626   6.635 -0.0262  0.9410 -0.2461
16753SOL    HW150837   8.152   6.718   6.643 -1.9980  0.3229  1.6477
16753SOL    HW250838   8.111   6.579   6.686  0.9187 -1.5407 -1.1857
16754SOL     OW50839   9.250   1.437   1.112 -0.7997  0.5352  0.1357
16754SOL    HW150840   9.167   1.400   1.141 -0.8955  0.7177  0.0998
16754SOL    HW250841   9.225   1.519   1.068 -0.4004  2.0952  2.6288
16755SOL     OW50842   8.886   1.232   2.405  0.4735 -0.5395  0.1446
16755SOL    HW150843   8.936   1.258   2.328  0.8056  1.0214  0.8527
16755SOL    HW250844   8.838   1.311   2.431 -1.8655 -1.7742 -0.0862
16756SOL     OW50845   2.152   0.229   3.720  0.0635  0.0571  0.4379
16756SOL    HW150846   2.170   0.296   3.786  1.2558 -1.5656  1.8539
16756SOL    HW250847   2.194   0.262   3.641 -0.1181  1.3862  0.8729
16757SOL     OW50848   8.176   7.973   1.985 -0.2101 -0.1045 -0.6244
16757SOL    HW150849   8.096   8.025   1.975  0.7070  1.3963 -0.4696
16757SOL    HW250850   8.247   8.033   1.962  0.9839 -0.8955  0.8254
16758SOL     OW50851   2.188   6.433   5.399 -0.2143 -0.1004 -0.4566
16758SOL    HW150852   2.190   6.346   5.361 -1.6242  0.7640 -2.6921
16758SOL    HW250853   2.273   6.471   5.375 -0.2073 -0.3301 -0.7994
16759SOL     OW50854   3.202   6.878   4.771  0.0661 -0.5802 -0.2542
16759SOL    HW150855   3.297   6.882   4.783  0.2949 -0.2895 -1.8360
16759SOL    HW250856   3.191   6.885   4.676 -1.5297 -0.8833 -0.1059
16760SOL     OW50857   0.159   8.971   8.105  0.9993 -0.3125  0.3782
16760SOL    HW150858   0.089   9.023   8.066  0.6920  1.0825  2.6115
16760SOL    HW250859   0.232   9.032   8.113  1.4201 -0.8802  0.9263
16761SOL     OW50860   8.074   7.386   7.353 -0.5261  0.0222 -0.0224
16761SOL    HW150861   8.150   7.334   7.327 -1.1773 -1.1613  0.3568
16761SOL    HW250862   8.077   7.463   7.297  0.9024 -0.0484 -0.0625
16762SOL     OW50863   4.522   7.780   4.388  0.2511 -0.5367 -0.1990
16762SOL    HW150864   4.449   7.822   4.434 -0.7491  1.0501 -3.0048
16762SOL    HW250865   4.504   7.794   4.295  2.7270 -2.5707 -1.1235
16763SOL     OW50866   9.436   4.125   6.524  0.1754  0.1424 -0.6927
16763SOL    HW150867   9.480   4.046   6.494  1.8223  0.1868  1.4126
16763SOL    HW250868   9.391   4.098   6.604  0.6333  1.3002 -0.0332
16764SOL     OW50869   7.465   0.503   9.475 -0.1278  0.3241 -0.1462
16764SOL    HW150870   7.458   0.411   9.501  0.9120  0.1238 -0.5274
16764SOL    HW250871   7.406   0.550   9.535  0.1339 -0.4623  0.7404
16765SOL     OW50872   5.725   4.857   8.863  0.1389 -0.5595  0.4593
16765SOL    HW150873   5.777   4.876   8.941  0.5890 -0.5277  0.1547
16765SOL    HW250874   5.762   4.775   8.830  0.5260 -0.1224 -0.2077
16766SOL     OW50875   2.279   9.674   1.938  0.1215  0.3054 -0.8655
16766SOL    HW150876   2.321   9.602   1.986 -0.2477 -0.0793 -1.1155
16766SOL    HW250877   2.291   9.750   1.995  1.2895  0.2460 -0.9952
16767SOL     OW50878   0.247   9.752   9.365  0.5906 -0.6731 -0.3533
16767SOL    HW150879   0.207   9.682   9.417  2.2143 -1.5031 -0.1748
16767SOL    HW250880   0.329   9.772   9.409  0.5230  0.8312 -0.8410
16768SOL     OW50881   9.786   6.726   2.896 -0.2035 -0.3148  0.0071
16768SOL    HW150882   9.775   6.785   2.970 -0.5561 -0.3312 -0.0280
16768SOL    HW250883   9.880   6.723   2.880 -0.2742  1.3922 -0.9148
16769SOL     OW50884   1.189   6.997   1.881  0.0049 -0.2062 -0.3796
16769SOL    HW150885   1.118   7.051   1.845 -1.0040 -1.8171 -0.9216
16769SOL    HW250886   1.186   7.013   1.975 -0.6919  0.2124 -0.4672
16770SOL     OW50887   7.404   8.317   9.552 -0.2068  0.0581 -0.6492
16770SOL    HW150888   7.463   8.246   9.525  0.9961 -0.1075  2.0804
16770SOL    HW250889   7.410   8.381   9.480  1.5839 -0.9499 -1.4920
16771SOL     OW50890   9.640   9.215   5.290 -0.3047  0.0198  0.0369
16771SOL    HW150891   9.716   9.161   5.311 -0.9682 -0.1709  2.3075
16771SOL    HW250892   9.566   9.167   5.329 -0.9249  2.4388  2.0800
16772SOL     OW50893   7.439   0.611   4.220  0.2054 -0.2870  0.2508
16772SOL    HW150894   7.518   0.561   4.242  1.2447  0.7663 -0.9379
16772SOL    HW250895   7.386   0.606   4.299  2.2955  0.5358  1.8264
16773SOL     OW50896   8.798   0.321   8.858 -0.6837  0.0550 -0.3572
16773SOL    HW150897   8.727   0.348   8.917 -0.2624 -0.7368  0.5500
16773SOL    HW250898   8.754   0.275   8.787 -1.1087 -0.3274  0.1418
16774SOL     OW50899   7.822   0.337   1.350  0.1198  0.1585  0.1126
16774SOL    HW150900   7.904   0.306   1.311 -0.5903 -0.5283 -0.9001
16774SOL    HW250901   7.815   0.428   1.321  0.9923  0.5332  1.0249
16775SOL     OW50902   0.715   8.306   4.404  0.1780 -0.4242 -0.2025
16775SOL    HW150903   0.709   8.245   4.478  1.1165  0.1922  0.4005
16775SOL    HW250904   0.804   8.342   4.409 -0.4577  1.2756 -0.3145
16776SOL     OW50905   8.843   7.996   4.790  0.5525  0.3099  0.5465
16776SOL    HW150906   8.824   8.083   4.826  0.8585  0.5311  0.1891
16776SOL    HW250907   8.926   7.971   4.831 -1.1276 -1.3034  3.2604
16777SOL     OW50908   3.016   4.882   6.244 -0.1763  0.0398 -0.4762
16777SOL    HW150909   2.946   4.822   6.220 -1.5989  1.6085 -0.4455
16777SOL    HW250910   3.019   4.878   6.339 -0.9880  0.7384 -0.4039
16778SOL     OW50911   2.262   9.712   8.905  0.0782  0.1557 -0.2598
16778SOL    HW150912   2.252   9.617   8.912  1.2376  0.0739  0.5752
16778SOL    HW250913   2.175   9.743   8.880 -0.4001 -1.0916 -0.2445
16779SOL     OW50914   6.972   1.517   2.839 -0.2722  0.2185  0.5531
16779SOL    HW150915   6.970   1.493   2.932 -0.0347 -0.2689  0.4381
16779SOL    HW250916   6.999   1.437   2.794  0.4920  0.6952  0.1439
16780SOL     OW50917   9.080   7.345   8.672  0.4339  0.0699 -0.0874
16780SOL    HW150918   9.101   7.406   8.602  2.0324  1.5034  1.5591
16780SOL    HW250919   9.092   7.394   8.753  0.6638 -2.0922  1.2946
16781SOL     OW50920   5.301   8.988   0.587 -0.1027 -0.0515 -0.3937
16781SOL    HW150921   5.388   8.979   0.627 -1.0258  2.4195  2.6102
16781SOL    HW250922   5.313   8.960   0.496  2.9044 -3.3503  0.7804
16782SOL     OW50923   3.647   0.809   9.384  0.2252 -0.1193  0.2606
16782SOL    HW150924   3.657   0.716   9.404 -1.3505 -0.7328 -1.4295
16782SOL    HW250925   3.708   0.853   9.442  1.5237 -2.2571  0.6451
16783SOL     OW50926   0.849   1.129   0.672 -0.9010  0.5513 -0.5254
16783SOL    HW150927   0.863   1.222   0.657 -0.2229  0.3152 -1.4280
16783SOL    HW250928   0.762   1.124   0.711 -1.5458  1.4486 -1.7836
16784SOL     OW50929   4.140   6.622   4.179  0.3530 -0.0830 -0.8098
16784SOL    HW150930   4.223   6.598   4.138 -0.2219 -0.8210 -1.5914
16784SOL    HW250931   4.078   6.628   4.106 -0.6643 -1.2357 -0.0708
16785SOL     OW50932   7.720   7.932   3.598 -0.1265 -0.4189  0.1505
16785SOL    HW150933   7.770   8.001   3.641  1.5987 -2.0423  0.9107
16785SOL    HW250934   7.786   7.867   3.572 -1.6130 -1.5519 -0.9890
16786SOL     OW50935   7.447   6.980   8.184 -0.0454  0.1404  0.4968
16786SOL    HW150936   7.491   7.063   8.163  0.3829 -0.5624 -1.5908
16786SOL    HW250937   7.363   6.986   8.139 -0.1300 -0.4591  0.5727
16787SOL     OW50938   7.634   5.822   9.011  0.1495  0.2550  0.2156
16787SOL    HW150939   7.708   5.874   8.980  0.2315 -1.6843 -3.4293
16787SOL    HW250940   7.561   5.849   8.955 -0.8845 -0.5492  1.1299
16788SOL     OW50941   6.653   7.914   9.739 -0.1976  0.6388  0.1383
16788SOL    HW150942   6.736   7.873   9.717  1.6470  2.6780  2.6757
16788SOL    HW250943   6.589   7.842   9.737  2.0920 -1.5365  0.6218
16789SOL     OW50944   9.254   0.500   9.321  0.1251  0.3821 -0.2474
16789SOL    HW150945   9.234   0.488   9.229 -0.7788  0.7793 -0.1158
16789SOL    HW250946   9.350   0.497   9.326  0.1799  0.4151 -1.1966
16790SOL     OW50947   0.609   9.215   5.197  0.6095 -0.5840  0.6897
16790SOL    HW150948   0.584   9.307   5.204 -1.5576 -1.1238  0.7182
16790SOL    HW250949   0.633   9.190   5.286  0.7242 -0.1827  0.7736
16791SOL     OW50950   9.420   2.010   9.483 -0.2875  0.1207 -0.0595
16791SOL    HW150951   9.356   2.057   9.430 -1.6765 -0.8363  0.7188
16791SOL    HW250952   9.376   1.993   9.566  0.5993 -1.4650  0.1392
16792SOL     OW50953   1.389   3.965   7.435 -0.2508 -0.1840  0.3011
16792SOL    HW150954   1.464   3.974   7.494 -0.2361 -0.4825  0.3259
16792SOL    HW250955   1.377   4.054   7.399 -1.4494  0.4612  2.1707
16793SOL     OW50956   6.350   6.357   4.214 -0.4472  0.0786 -0.2334
16793SOL    HW150957   6.285   6.326   4.277 -2.4511  2.9156 -0.7213
16793SOL    HW250958   6.322   6.320   4.130  0.1936 -0.8541 -0.0589
16794SOL     OW50959   7.350   6.647   4.778  0.1751  0.3008 -0.9704
16794SOL    HW150960   7.336   6.649   4.873  0.6199  1.7525 -0.9079
16794SOL    HW250961   7.268   6.677   4.741  0.4665  1.1503 -0.9589
16795SOL     OW50962   7.086   1.407   5.263  0.3066  0.0636  0.3712
16795SOL    HW150963   7.012   1.463   5.285  0.1412  0.1738 -0.4227
16795SOL    HW250964   7.161   1.447   5.307  0.3875  1.5357 -1.0157
16796SOL     OW50965   3.274   4.266   6.657  0.2063  0.0485 -0.7401
16796SOL    HW150966   3.291   4.295   6.747 -0.6858 -1.1794 -0.1486
16796SOL    HW250967   3.355   4.223   6.630  0.8800  1.4161 -0.9564
16797SOL     OW50968   9.262   1.999   1.743  0.4001  0.0384 -0.5474
16797SOL    HW150969   9.353   1.978   1.765 -0.0012 -1.1601  0.0633
16797SOL    HW250970   9.230   1.923   1.694 -0.0777  0.7503 -1.3706
16798SOL     OW50971   8.308   2.472   1.975  0.0377  0.2831 -0.2675
16798SOL    HW150972   8.267   2.508   2.053  0.3503 -1.1507  0.6053
16798SOL    HW250973   8.245   2.407   1.943  0.5457 -0.1841 -0.3355
16799SOL     OW50974   7.826   2.274   5.686 -0.3618 -0.6069  1.0314
16799SOL    HW150975   7.862   2.188   5.662  1.1967  0.4912 -0.9286
16799SOL    HW250976   7.771   2.298   5.612  0.1270  0.5391  1.0089
16800SOL     OW50977   7.019   1.352   9.827  0.5608  0.0516 -0.4586
16800SOL    HW150978   7.081   1.390   9.765  0.9565  0.0632 -0.0660
16800SOL    HW250979   7.045   1.260   9.833  2.3187  0.5882  1.7357
16801SOL     OW50980   8.179   2.212   9.489  0.0725  0.4735  0.1091
16801SOL    HW150981   8.212   2.228   9.577 -0.0934 -0.1512  0.2912
16801SOL    HW250982   8.227   2.135   9.460  0.8144  1.2273 -0.7153
16802SOL     OW50983   8.631   6.554   9.903 -0.5948  0.5348 -0.0987
16802SOL    HW150984   8.678   6.538   9.985 -1.1463 -0.9124 -0.0468
16802SOL    HW250985   8.544   6.583   9.930 -1.8718 -2.8902 -0.0084
16803SOL     OW50986   6.056   2.744   0.498 -0.0648  0.3798 -0.6194
16803SOL    HW150987   6.111   2.780   0.428 -0.1114  1.0127 -0.3360
16803SOL    HW250988   6.092   2.780   0.579 -1.1641  1.1742 -0.4623
16804SOL     OW50989   9.525   9.188   4.670  0.1132  0.3037 -0.0951
16804SOL    HW150990   9.437   9.225   4.655 -0.3380 -1.2507 -1.5490
16804SOL    HW250991   9.517   9.144   4.755 -0.6454 -0.1389 -0.3793
16805SOL     OW50992   1.584   6.181   4.698 -0.2488 -0.4629 -0.1624
16805SOL    HW150993   1.616   6.166   4.787  1.0647  1.3566 -0.2722
16805SOL    HW250994   1.627   6.262   4.671 -1.4737 -0.4030 -2.0646
16806SOL     OW50995   8.989   6.150   5.719 -0.4781  0.0722  0.4131
16806SOL    HW150996   9.012   6.134   5.627  0.9528  0.2295  0.7160
16806SOL    HW250997   8.903   6.110   5.729 -1.0386  0.7839 -1.2048
16807SOL     OW50998   1.329   9.379   6.610 -0.3458  0.0179 -0.4681
16807SOL    HW150999   1.256   9.412   6.662  0.0165  0.2584 -0.1045
16807SOL    HW251000   1.350   9.452   6.551  0.7782  0.6606  0.6724
16808SOL     OW51001   8.774   3.235   0.452 -0.0984 -0.6031  0.8355
16808SOL    HW151002   8.845   3.230   0.516  0.4210  0.5350  0.3766
16808SOL    HW251003   8.756   3.328   0.443 -1.3304 -0.8478  0.5739
16809SOL     OW51004   8.300   2.082   3.239 -0.1483  0.2837  0.7902
16809SOL    HW151005   8.265   2.171   3.244 -0.3234  0.2241  0.5837
16809SOL    HW251006   8.241   2.035   3.180  0.6831  0.3821 -0.1449
16810SOL     OW51007   7.693   7.241   9.774  0.1678 -0.1614  0.0492
16810SOL    HW151008   7.753   7.220   9.846 -2.4680  0.3015  2.5327
16810SOL    HW251009   7.642   7.161   9.762 -0.9135  0.4765  0.2865
16811SOL     OW51010   5.651   7.554   7.540 -0.3508 -0.2995 -0.2160
16811SOL    HW151011   5.719   7.503   7.495 -0.3666 -2.4402  1.9813
16811SOL    HW251012   5.572   7.539   7.489  0.2793  0.0775 -1.3337
16812SOL     OW51013   6.732   2.424   8.500 -0.0696 -0.2468 -0.3670
16812SOL    HW151014   6.675   2.395   8.429  0.5330 -0.0605 -0.9426
16812SOL    HW251015   6.796   2.480   8.457  1.3613 -1.5139  0.0409
16813SOL     OW51016   9.535   3.131   4.432 -0.2729 -0.0800  0.3761
16813SOL    HW151017   9.479   3.207   4.416  0.5576  0.3695 -0.4811
16813SOL    HW251018   9.504   3.065   4.370 -0.0825  0.0459  0.1471
16814SOL     OW51019   2.117   6.775   4.768 -0.0009  0.3085 -0.0956
16814SOL    HW151020   2.092   6.748   4.680  0.1417 -0.7918  0.1858
16814SOL    HW251021   2.212   6.763   4.770  0.0598  0.8168  0.0456
16815SOL     OW51022   0.187   0.175   0.088  0.0849  0.2569  0.1555
16815SOL    HW151023   0.229   0.215   0.164 -1.0759 -2.2074  2.2203
16815SOL    HW251024   0.260   0.151   0.031  0.9630  2.4824  0.2099
16816SOL     OW51025   8.536   0.347   7.431  0.2150  0.0234 -0.2478
16816SOL    HW151026   8.529   0.259   7.395 -1.0057 -0.1542  0.3717
16816SOL    HW251027   8.595   0.338   7.506 -2.0087 -0.8912  1.5281
16817SOL     OW51028   6.878   0.082   3.889  0.5062 -0.2095  0.1329
16817SOL    HW151029   6.943   0.127   3.944 -0.4964 -0.4743  1.5830
16817SOL    HW251030   6.796   0.126   3.908  0.0545 -0.6118 -0.8336
16818SOL     OW51031   4.050   0.505   7.566 -0.4020 -0.0690 -0.6603
16818SOL    HW151032   3.965   0.460   7.571  0.1033 -1.2412 -1.8698
16818SOL    HW251033   4.052   0.543   7.478 -0.3225  1.3318 -0.0621
16819SOL     OW51034   7.575   5.702   6.420  0.2657 -0.6504  0.0758
16819SOL    HW151035   7.612   5.633   6.365 -1.2081 -0.9054 -0.6529
16819SOL    HW251036   7.503   5.659   6.466 -1.3393  0.6013 -1.1588
16820SOL     OW51037   3.048   4.247   7.726  0.7223  0.2483 -0.2266
16820SOL    HW151038   3.002   4.327   7.750 -0.3749 -0.5694  0.5126
16820SOL    HW251039   3.090   4.267   7.642 -2.2774  0.6179 -1.7778
16821SOL     OW51040   6.342   8.594   5.190 -0.5917  0.1115 -0.8574
16821SOL    HW151041   6.340   8.508   5.148 -0.0762 -0.3109 -0.0247
16821SOL    HW251042   6.307   8.653   5.124  0.2538 -0.5318 -1.9104
16822SOL     OW51043   6.761   0.573   3.776  0.5325  0.1122  0.1997
16822SOL    HW151044   6.734   0.544   3.864 -2.3084  1.0672 -0.2261
16822SOL    HW251045   6.767   0.668   3.784 -0.2391  0.2497 -0.7370
16823SOL     OW51046   4.841   4.606   9.949 -0.3187  0.3481  0.2805
16823SOL    HW151047   4.870   4.684   9.902  0.0804  0.5400  0.8314
16823SOL    HW251048   4.921   4.555   9.963 -1.0072 -2.0983 -3.4147
16824SOL     OW51049   3.198   5.735   3.731  0.1286  0.1028 -0.2733
16824SOL    HW151050   3.204   5.776   3.645 -1.1470  0.5294 -0.1871
16824SOL    HW251051   3.229   5.645   3.717 -0.1254  0.1495 -1.1963
16825SOL     OW51052   1.616   1.650   0.967  0.1205  0.1643 -0.0247
16825SOL    HW151053   1.593   1.565   1.004  1.7706 -0.7457 -0.9722
16825SOL    HW251054   1.535   1.700   0.968 -0.4541 -0.6495  2.5137
16826SOL     OW51055   4.670   2.358   1.659  0.4887 -0.3796 -0.1325
16826SOL    HW151056   4.701   2.268   1.664  1.1215 -0.2158 -0.8642
16826SOL    HW251057   4.591   2.359   1.713  0.2656 -1.4531 -0.4136
16827SOL     OW51058   8.205   0.727   3.881  0.3780  0.0593 -0.0079
16827SOL    HW151059   8.245   0.728   3.793 -1.2585  0.1951 -0.7811
16827SOL    HW251060   8.127   0.672   3.872  0.1597  0.1074  1.3657
16828SOL     OW51061   1.026   6.769   5.185  0.8723 -0.0034  0.0402
16828SOL    HW151062   0.966   6.694   5.190 -0.4983  1.0835  0.3321
16828SOL    HW251063   1.063   6.763   5.097  1.2456 -1.3494  0.2617
16829SOL     OW51064   8.586   2.793   6.043  0.7590  0.7456  0.0405
16829SOL    HW151065   8.580   2.863   5.979 -0.7647  0.0862 -0.5715
16829SOL    HW251066   8.654   2.735   6.008  0.2517  0.6227 -0.7716
16830SOL     OW51067   7.163   3.866   6.075  0.2335 -0.1053 -0.4162
16830SOL    HW151068   7.077   3.851   6.037 -0.0472  0.3698  0.0104
16830SOL    HW251069   7.145   3.892   6.165  0.8221  0.0010 -0.3236
16831SOL     OW51070   3.046   7.080   1.160 -0.5657  0.3787  0.2365
16831SOL    HW151071   3.117   7.054   1.100  0.3625 -0.5224  1.6766
16831SOL    HW251072   3.089   7.135   1.225 -1.2858  0.2719  0.8118
16832SOL     OW51073   1.824   0.565   3.664  0.2666 -0.3096  0.2156
16832SOL    HW151074   1.750   0.625   3.650  1.7350  1.5999  0.2879
16832SOL    HW251075   1.794   0.482   3.628 -1.0928  0.9877 -1.8816
16833SOL     OW51076   2.995   1.755   1.113  0.0441 -0.2336 -0.2375
16833SOL    HW151077   3.088   1.748   1.096  0.1193 -1.3568  0.5173
16833SOL    HW251078   2.987   1.827   1.175  0.4351 -0.2640 -0.1518
16834SOL     OW51079   4.474   5.448   9.874 -0.2851  0.1442 -0.6522
16834SOL    HW151080   4.548   5.418   9.821 -0.7563 -1.2339 -0.5572
16834SOL    HW251081   4.485   5.403   9.958 -1.0631  0.1706 -0.5303
16835SOL     OW51082   3.183   0.521   4.527  0.5296 -0.2069  0.2610
16835SOL    HW151083   3.122   0.447   4.531 -0.9740  0.8318 -1.6474
16835SOL    HW251084   3.142   0.588   4.581 -0.7784  0.9333 -2.0067
16836SOL     OW51085   0.735   0.654   2.211  0.0330 -0.5093 -0.3924
16836SOL    HW151086   0.704   0.595   2.280 -0.1096 -0.9508 -0.8233
16836SOL    HW251087   0.673   0.640   2.139 -0.2394  0.4667 -0.3627
16837SOL     OW51088   9.315   6.223   8.645 -0.5299  0.0632 -0.2044
16837SOL    HW151089   9.400   6.179   8.645  0.3173  1.6079 -0.4806
16837SOL    HW251090   9.285   6.216   8.736  0.5361  0.6366  0.2068
16838SOL     OW51091   8.277   4.309   4.812  0.1972 -0.1469 -0.2494
16838SOL    HW151092   8.197   4.359   4.796  0.7183  0.3673 -1.3937
16838SOL    HW251093   8.329   4.365   4.870 -0.3855 -0.6210  0.7531
16839SOL     OW51094   4.284   5.718   3.319  0.5987  0.4278  0.0002
16839SOL    HW151095   4.274   5.726   3.414 -1.7290 -2.7411  0.1847
16839SOL    HW251096   4.352   5.782   3.297  1.9012  0.6812  3.8999
16840SOL     OW51097   9.681   7.682   9.358  0.3781 -0.1207 -0.4559
16840SOL    HW151098   9.752   7.721   9.306 -0.6267  1.9275 -0.4117
16840SOL    HW251099   9.607   7.680   9.298  0.0703 -0.7918 -0.0486
16841SOL     OW51100   6.509   2.803   3.043 -0.4810 -0.2123 -0.0988
16841SOL    HW151101   6.414   2.809   3.038 -0.5856 -1.8556 -0.8823
16841SOL    HW251102   6.527   2.788   3.136 -0.8805  1.2363  0.2256
16842SOL     OW51103   4.401   1.763   7.208  0.0666  0.1243 -0.5898
16842SOL    HW151104   4.474   1.762   7.270  0.5967 -1.8645 -1.1682
16842SOL    HW251105   4.434   1.811   7.132 -0.4500  2.2215  0.4349
16843SOL     OW51106   0.092   0.553   3.602  0.4862  0.1035  0.3069
16843SOL    HW151107   0.174   0.585   3.640  0.8659  2.6610 -2.2937
16843SOL    HW251108   0.032   0.628   3.608  0.1527  0.1856 -2.6124
16844SOL     OW51109   9.117   1.581   3.857  0.3200  0.0088  0.6187
16844SOL    HW151110   9.084   1.551   3.772 -0.4548  0.5828  0.7065
16844SOL    HW251111   9.190   1.522   3.876 -1.2147 -1.9275  0.8482
16845SOL     OW51112   6.700   2.717   4.096 -0.7148  0.1268  0.0737
16845SOL    HW151113   6.686   2.769   4.175  1.8531  1.4149 -0.2172
16845SOL    HW251114   6.630   2.744   4.036 -1.7868  0.2425  1.3410
16846SOL     OW51115   7.237   6.855   4.460 -0.0673  0.1003  0.4217
16846SOL    HW151116   7.303   6.785   4.455 -0.3913 -0.2137  0.5175
16846SOL    HW251117   7.287   6.933   4.483  0.5742  0.2979 -1.4220
16847SOL     OW51118   3.763   0.818   7.221 -0.1530 -0.0438  0.1980
16847SOL    HW151119   3.744   0.745   7.162 -1.9926  0.4191  0.1616
16847SOL    HW251120   3.813   0.880   7.167  2.1566 -1.5525  0.4598
16848SOL     OW51121   7.949   4.631   3.824 -0.0374 -0.4268  0.0932
16848SOL    HW151122   8.041   4.634   3.799  0.1392 -1.5542  0.5249
16848SOL    HW251123   7.920   4.544   3.794 -0.9904 -0.0327 -0.1463
16849SOL     OW51124   1.986   3.755   8.872 -0.2361 -0.1947 -0.2160
16849SOL    HW151125   1.966   3.745   8.779 -0.1994  0.2384 -0.2724
16849SOL    HW251126   1.910   3.719   8.917 -0.1676 -0.5887 -0.4105
16850SOL     OW51127   8.760   5.602   6.461 -0.2823 -0.4067  0.3639
16850SOL    HW151128   8.715   5.625   6.379 -0.6996 -1.4483  0.2892
16850SOL    HW251129   8.819   5.676   6.477 -0.7570  0.1696 -0.4659
16851SOL     OW51130   5.290   4.613   8.272  0.2615  0.3903  0.4972
16851SOL    HW151131   5.351   4.547   8.239 -1.7262 -2.3624  1.9408
16851SOL    HW251132   5.228   4.626   8.200  1.3039  1.6777 -0.2213
16852SOL     OW51133   6.412   1.246   0.404 -0.8413 -0.4485  0.4761
16852SOL    HW151134   6.337   1.224   0.459  0.1894  0.0179  2.1277
16852SOL    HW251135   6.473   1.290   0.463 -0.3513  1.5347 -1.4050
16853SOL     OW51136   2.715   0.234   7.988 -0.0902 -0.3675 -0.2872
16853SOL    HW151137   2.654   0.308   7.984  0.6147  0.2226 -0.4295
16853SOL    HW251138   2.660   0.157   7.981 -0.6451  0.1783 -2.8451
16854SOL     OW51139   2.595   4.038   1.802  0.2826  0.3160  0.4626
16854SOL    HW151140   2.631   4.098   1.867 -1.9754  1.1775  1.0171
16854SOL    HW251141   2.500   4.048   1.809 -0.0994  0.2652 -2.8162
16855SOL     OW51142   9.045   2.473   1.677  0.4355  0.5044 -0.6641
16855SOL    HW151143   9.034   2.383   1.710  0.1665  0.5572 -0.6068
16855SOL    HW251144   9.126   2.470   1.627  0.0612  0.0467 -1.2657
16856SOL     OW51145   2.338   7.388   6.691  0.7913 -0.2450 -0.1798
16856SOL    HW151146   2.393   7.462   6.666 -0.2493  0.1811 -1.2645
16856SOL    HW251147   2.308   7.409   6.779  0.6348  0.5464 -0.4182
16857SOL     OW51148   6.156   8.984   9.833 -0.5287 -0.1540 -0.7482
16857SOL    HW151149   6.145   9.069   9.791 -1.7059 -1.0188 -2.3293
16857SOL    HW251150   6.241   8.989   9.876 -0.7298  1.9210 -0.5095
16858SOL     OW51151   7.056   4.305   8.179 -0.0462  0.7784  0.3741
16858SOL    HW151152   7.089   4.313   8.090  2.9820 -0.2962  1.2482
16858SOL    HW251153   7.086   4.385   8.223 -1.4884  1.2870  0.4975
16859SOL     OW51154   5.406   3.824   9.750 -0.1586 -0.5802 -0.3122
16859SOL    HW151155   5.418   3.801   9.658 -0.0878  0.8173 -0.6740
16859SOL    HW251156   5.469   3.894   9.766 -0.9836  0.0060  0.4785
16860SOL     OW51157   7.671   6.289   1.995 -0.1727  0.1043  0.4419
16860SOL    HW151158   7.668   6.232   1.918  1.2528  1.6329 -0.7986
16860SOL    HW251159   7.685   6.376   1.960 -2.4313  1.3343  2.2731
16861SOL     OW51160   2.850   0.106   4.319  0.3743  0.4900 -0.3143
16861SOL    HW151161   2.821   0.117   4.228  0.0562 -0.4919 -0.3513
16861SOL    HW251162   2.945   0.113   4.315  0.4207 -0.2625 -0.8613
16862SOL     OW51163   1.256   1.452   8.951  0.1921 -0.1706 -0.7330
16862SOL    HW151164   1.197   1.490   9.016 -0.1174 -1.1378 -0.4320
16862SOL    HW251165   1.205   1.384   8.908  0.6446 -0.0658 -1.4646
16863SOL     OW51166   7.679   6.446   0.561  0.2810 -0.1386  0.0714
16863SOL    HW151167   7.679   6.412   0.651  0.1444 -0.6816 -0.1311
16863SOL    HW251168   7.586   6.455   0.540  0.3095 -0.2835 -0.1156
16864SOL     OW51169   1.308   3.273   5.916  0.1104 -0.5424  0.0929
16864SOL    HW151170   1.356   3.240   5.992 -1.7576  0.0738  1.6157
16864SOL    HW251171   1.254   3.199   5.888  0.2187 -0.5365 -0.1285
16865SOL     OW51172   3.253   1.620   9.033  0.2594 -0.3828  0.3006
16865SOL    HW151173   3.308   1.697   9.018 -2.4347  1.8974  1.3151
16865SOL    HW251174   3.261   1.604   9.127 -0.0528 -0.6500  0.2797
16866SOL     OW51175   6.040   1.449   3.117 -0.6368  0.1271 -0.4541
16866SOL    HW151176   5.998   1.496   3.189 -0.2923  0.4872 -0.4878
16866SOL    HW251177   6.010   1.496   3.038 -0.2924  0.2895 -0.4878
16867SOL     OW51178   6.953   7.474   7.517 -0.4916 -0.5457  0.4155
16867SOL    HW151179   6.976   7.449   7.427 -1.2676 -0.9088  0.3102
16867SOL    HW251180   6.890   7.545   7.507  0.3495  0.2516  0.6966
16868SOL     OW51181   0.987   7.465   1.698  0.4139  0.6314 -0.2070
16868SOL    HW151182   0.928   7.497   1.766  3.0372  0.9107  2.0795
16868SOL    HW251183   1.066   7.518   1.708  1.8279 -1.0455 -1.8291
16869SOL     OW51184   3.434   0.260   6.381 -0.4629  0.1948  0.0116
16869SOL    HW151185   3.481   0.324   6.327  2.6021 -0.9453  1.1018
16869SOL    HW251186   3.372   0.219   6.321  1.6362  0.1361 -2.2735
16870SOL     OW51187   2.402   4.166   7.085 -0.1491 -0.0307  0.4376
16870SOL    HW151188   2.468   4.119   7.033 -0.1512 -0.3193  0.6936
16870SOL    HW251189   2.450   4.197   7.162 -0.2109  0.1468  0.4042
16871SOL     OW51190   3.192   5.025   5.215  0.2647 -0.1712  0.1486
16871SOL    HW151191   3.177   5.107   5.264  0.7608 -0.4871  0.8497
16871SOL    HW251192   3.286   5.013   5.217  0.2349 -0.5081 -0.3851
16872SOL     OW51193   9.232   3.918   0.915 -0.1826  0.2697  0.3838
16872SOL    HW151194   9.216   4.007   0.946 -2.9750 -1.0699  3.3995
16872SOL    HW251195   9.266   3.871   0.991  0.5082 -1.4553 -0.9100
16873SOL     OW51196   7.943   9.325   2.610  0.5430 -0.2021  0.1538
16873SOL    HW151197   7.896   9.246   2.584 -0.4977  0.6606 -0.6819
16873SOL    HW251198   8.036   9.300   2.608  0.3547 -0.8846 -1.9696
16874SOL     OW51199   1.804   7.043   2.712 -0.6625  0.2403  0.0280
16874SOL    HW151200   1.848   7.115   2.757  0.2385 -0.0575 -0.3462
16874SOL    HW251201   1.765   6.990   2.782  1.0839 -0.4605  0.5289
16875SOL     OW51202   9.491   6.875   4.815 -0.5150  0.1785  0.3177
16875SOL    HW151203   9.455   6.821   4.885  1.4123  0.5281  1.6702
16875SOL    HW251204   9.549   6.817   4.766 -2.0846 -0.1445 -1.2498
16876SOL     OW51205   1.173   2.804   2.896 -0.0238  0.1461  0.0728
16876SOL    HW151206   1.229   2.791   2.819  1.4790  1.2135  0.9573
16876SOL    HW251207   1.139   2.893   2.887 -0.2164  0.1112  0.4323
16877SOL     OW51208   4.940   9.271   7.309 -0.3798  0.0221 -0.2881
16877SOL    HW151209   4.868   9.335   7.310  0.3193  0.9366 -2.4184
16877SOL    HW251210   4.937   9.231   7.395 -1.7529  1.9346  0.6332
16878SOL     OW51211   5.074   3.223   9.533 -0.1694  0.0865 -0.1979
16878SOL    HW151212   5.147   3.162   9.539 -0.2232  0.0134 -0.2915
16878SOL    HW251213   5.028   3.213   9.617 -0.7944 -0.7809 -0.6206
16879SOL     OW51214   1.812   7.290   6.592  0.1307  0.0572 -0.5663
16879SOL    HW151215   1.903   7.321   6.601  0.9537 -1.9744 -1.3345
16879SOL    HW251216   1.782   7.328   6.509  0.1112  1.0676 -0.1112
16880SOL     OW51217   4.100   3.795   7.900  0.3014 -0.3597  0.6681
16880SOL    HW151218   4.195   3.797   7.908  0.2809 -0.5765  1.0235
16880SOL    HW251219   4.069   3.795   7.991 -0.0709  1.0372  0.5619
16881SOL     OW51220   2.358   5.856   7.285 -0.3396  0.0939  0.1536
16881SOL    HW151221   2.321   5.779   7.328 -0.1478 -0.0457  0.0724
16881SOL    HW251222   2.428   5.820   7.229  0.0365  0.3655  0.4422
16882SOL     OW51223   7.972   2.421   4.186  0.0109 -0.0485 -0.4274
16882SOL    HW151224   8.017   2.449   4.106  0.5168  2.2025  0.5853
16882SOL    HW251225   7.932   2.500   4.221 -1.9066 -1.3577  0.5337
16883SOL     OW51226   9.946   9.650   6.180 -0.2326  0.2577  0.0573
16883SOL    HW151227   9.991   9.718   6.230 -0.0973 -0.0380  0.3471
16883SOL    HW251228   9.866   9.692   6.148  0.4524  0.9053 -0.8149
16884SOL     OW51229   1.196   3.921   6.426  0.1914  0.4365  0.2355
16884SOL    HW151230   1.238   3.972   6.495  1.3477  0.9881 -0.8389
16884SOL    HW251231   1.165   3.986   6.363 -2.2571  0.0381  0.9257
16885SOL     OW51232   4.093   6.762   6.138  0.0907 -0.2399  0.1680
16885SOL    HW151233   4.186   6.762   6.163  0.2269  1.8587 -0.2017
16885SOL    HW251234   4.079   6.675   6.099  1.7927 -0.7351  0.5641
16886SOL     OW51235   5.094   1.642   9.012  0.2794  0.5143  0.0041
16886SOL    HW151236   5.169   1.614   8.960  0.8480 -0.6103  1.3633
16886SOL    HW251237   5.131   1.662   9.098 -0.8504  0.8346  0.4313
16887SOL     OW51238   5.798   5.619   0.829  0.3154  0.0065  0.1584
16887SOL    HW151239   5.819   5.689   0.768 -0.4995 -0.7763 -1.0559
16887SOL    HW251240   5.747   5.661   0.898  0.7653  0.7925  0.0237
16888SOL     OW51241   3.061   7.357   9.524 -0.0547  0.2799 -0.5801
16888SOL    HW151242   2.965   7.353   9.527 -0.1760  0.9717 -2.3955
16888SOL    HW251243   3.085   7.304   9.449  0.7270  2.5861 -2.0654
16889SOL     OW51244   4.043   0.807   9.231 -0.0628  0.3344 -0.3471
16889SOL    HW151245   3.967   0.823   9.174  0.0369  2.3983  0.0323
16889SOL    HW251246   4.008   0.759   9.305 -0.1434 -2.7601 -2.1994
16890SOL     OW51247   5.927   8.831   6.029 -0.0262  0.2019  0.1163
16890SOL    HW151248   5.969   8.758   6.075 -0.2567  0.3763  0.6110
16890SOL    HW251249   5.835   8.825   6.054 -0.1372  0.3577 -0.2494
16891SOL     OW51250   2.727   2.165   7.156  0.2447 -0.6451 -0.0180
16891SOL    HW151251   2.769   2.080   7.172  1.3037 -0.0482  0.4826
16891SOL    HW251252   2.731   2.209   7.241  0.4209  0.2177 -0.4691
16892SOL     OW51253   5.352   8.036   1.151  0.1669 -0.2805 -0.6563
16892SOL    HW151254   5.291   8.107   1.169  3.4711  2.0888  2.2592
16892SOL    HW251255   5.330   7.969   1.216 -0.0337  0.0568 -0.3710
16893SOL     OW51256   3.301   2.889   5.115  0.7704  0.1557  0.5807
16893SOL    HW151257   3.355   2.875   5.192  2.4621 -1.1924 -0.7497
16893SOL    HW251258   3.324   2.816   5.056  0.4867  1.7864 -1.6887
16894SOL     OW51259   9.516   5.382   6.236 -0.1225  0.2145  0.8484
16894SOL    HW151260   9.462   5.304   6.239 -0.2137  0.2828  1.0119
16894SOL    HW251261   9.594   5.356   6.187  0.3022 -0.2637  1.7475
16895SOL     OW51262   1.625   6.679   1.954  0.5654  0.2027 -0.2454
16895SOL    HW151263   1.584   6.594   1.968  1.5445 -0.0310  1.3280
16895SOL    HW251264   1.554   6.734   1.919 -0.3596 -0.9247 -0.1997
16896SOL     OW51265   4.809   4.806   2.696  0.1852 -0.3532  0.1877
16896SOL    HW151266   4.861   4.841   2.624  2.3196 -0.4682  1.5847
16896SOL    HW251267   4.735   4.865   2.703 -0.0994 -0.3444 -2.0668
16897SOL     OW51268   6.519   6.247   2.406  0.4159  0.4176 -0.3735
16897SOL    HW151269   6.444   6.193   2.429  0.3972  0.1615 -0.9979
16897SOL    HW251270   6.591   6.185   2.395  1.2090  0.8304  2.0682
16898SOL     OW51271   9.188   8.647   4.396  0.1734 -0.2943  0.5928
16898SOL    HW151272   9.224   8.569   4.439  0.5512 -0.2179  0.4214
16898SOL    HW251273   9.224   8.643   4.308 -1.9649 -1.3850 -0.3011
16899SOL     OW51274   1.746   3.962   1.682  0.5441  0.0502 -0.6567
16899SOL    HW151275   1.677   4.021   1.654 -0.6169 -1.3517 -0.8920
16899SOL    HW251276   1.789   3.934   1.601  0.0122 -0.6848 -0.6891
16900SOL     OW51277   9.502   8.946   7.783  0.0432  0.0345 -0.5888
16900SOL    HW151278   9.505   9.038   7.809  1.0012 -0.3879  0.8573
16900SOL    HW251279   9.526   8.947   7.690 -0.6293  1.2937 -0.7750
16901SOL     OW51280   2.574   8.290   5.491  0.4488 -0.6242 -0.3896
16901SOL    HW151281   2.599   8.324   5.405  1.2810 -0.2720 -0.0146
16901SOL    HW251282   2.478   8.286   5.488  0.1286  3.1468  0.0440
16902SOL     OW51283   9.373   9.784   9.783 -0.7116  0.2866  0.5607
16902SOL    HW151284   9.347   9.810   9.871 -2.6125  0.9015 -0.1156
16902SOL    HW251285   9.325   9.703   9.766 -0.8839  0.5212 -0.1348
16903SOL     OW51286   0.120   6.924   5.700  0.4003 -0.4631 -0.0724
16903SOL    HW151287   0.137   6.996   5.761 -2.0891  0.2927 -0.1656
16903SOL    HW251288   0.143   6.959   5.614  2.1968 -0.9094  0.1986
16904SOL     OW51289   5.630   4.123   8.409 -0.0349  0.5390  0.3569
16904SOL    HW151290   5.635   4.216   8.388  1.7227  0.3773 -0.1450
16904SOL    HW251291   5.543   4.111   8.445 -1.1068  1.9642 -1.5487
16905SOL     OW51292   5.287   3.994   5.410  0.5588  0.2014  0.1453
16905SOL    HW151293   5.333   4.073   5.439 -1.9924  1.2054  1.8198
16905SOL    HW251294   5.318   3.925   5.469  0.6586  0.6290  0.5992
16906SOL     OW51295   2.563   5.064   1.259 -0.4920 -0.4354 -0.4513
16906SOL    HW151296   2.631   5.027   1.202  1.0844 -2.8865  2.7068
16906SOL    HW251297   2.584   5.157   1.264  1.2967 -0.7520 -1.3040
16907SOL     OW51298   8.572   2.401   2.117 -0.0666 -0.6498  0.2142
16907SOL    HW151299   8.557   2.374   2.207  0.4127 -2.1707 -0.1325
16907SOL    HW251300   8.487   2.430   2.085 -0.1168  0.5032  1.3229
16908SOL     OW51301   5.085   1.968   7.728  0.0857  0.2750 -0.1047
16908SOL    HW151302   5.075   2.060   7.706  0.7749  0.5357  0.6222
16908SOL    HW251303   5.085   1.923   7.644  0.4096  1.0053 -0.5060
16909SOL     OW51304   9.324   3.187   9.475 -0.1879  0.2562  0.2894
16909SOL    HW151305   9.402   3.132   9.469 -0.0363  0.3148  1.4548
16909SOL    HW251306   9.357   3.276   9.484 -0.2479  0.0900  3.1738
16910SOL     OW51307   7.923   8.767   5.857 -0.3475  0.2026  0.1924
16910SOL    HW151308   7.836   8.803   5.837  0.2766  1.8981  0.3964
16910SOL    HW251309   7.923   8.754   5.952 -0.2620  0.5264  0.2369
16911SOL     OW51310   3.336   5.305   9.602 -0.1080 -0.1825  0.0719
16911SOL    HW151311   3.392   5.305   9.525 -0.5143 -0.0975 -0.2230
16911SOL    HW251312   3.249   5.330   9.570 -0.3728 -0.5437  0.4888
16912SOL     OW51313   3.636   0.670   8.634 -0.0870  0.1438 -0.1408
16912SOL    HW151314   3.581   0.644   8.707 -0.8954  3.8782  0.8222
16912SOL    HW251315   3.720   0.692   8.674  1.4484 -3.0994 -1.2566
16913SOL     OW51316   7.722   7.875   4.571 -0.4075  0.0308  0.2921
16913SOL    HW151317   7.793   7.881   4.508 -0.1785 -0.3178  0.5134
16913SOL    HW251318   7.747   7.935   4.641 -0.7385  0.5380 -0.0160
16914SOL     OW51319   1.712   0.428   2.835  0.0978  0.1060 -0.0203
16914SOL    HW151320   1.670   0.478   2.905 -0.7391  0.1520 -0.5310
16914SOL    HW251321   1.667   0.456   2.755 -0.4817 -1.5201 -0.3120
16915SOL     OW51322   1.440   8.001   0.984 -0.0151 -0.0700  0.1618
16915SOL    HW151323   1.448   7.942   1.059 -1.1071 -1.0212 -0.4270
16915SOL    HW251324   1.405   8.082   1.020  0.3181 -0.2119  0.8121
16916SOL     OW51325   9.522   5.179   2.656 -0.4566 -0.3738 -0.1707
16916SOL    HW151326   9.491   5.203   2.743  0.7100  2.1348 -0.3736
16916SOL    HW251327   9.616   5.196   2.657 -0.6169  1.0755 -2.2864
16917SOL     OW51328   6.715   0.857   0.728 -0.0145  0.2496 -0.2043
16917SOL    HW151329   6.676   0.833   0.644  0.1235 -1.6129  0.2137
16917SOL    HW251330   6.673   0.799   0.792 -0.0822  1.5872  1.0237
16918SOL     OW51331   3.482   4.447   4.844 -0.1340  0.2366  0.1731
16918SOL    HW151332   3.516   4.361   4.868 -0.4490 -0.2010 -0.9057
16918SOL    HW251333   3.557   4.491   4.804 -0.2411  0.0898 -0.1906
16919SOL     OW51334   4.418   6.224   7.143  0.5777 -0.2586 -0.1367
16919SOL    HW151335   4.498   6.175   7.126  0.3994 -0.7205  0.3411
16919SOL    HW251336   4.395   6.262   7.058  2.2380  1.3159  0.0415
16920SOL     OW51337   6.461   7.307   6.169  0.2685 -0.4944 -0.1763
16920SOL    HW151338   6.377   7.351   6.152 -0.0730 -1.5629 -1.3893
16920SOL    HW251339   6.527   7.373   6.152 -0.2827 -0.0115 -0.4738
16921SOL     OW51340   0.692   8.932   9.468 -0.5008 -0.2523 -0.1310
16921SOL    HW151341   0.672   8.845   9.505 -1.1123 -0.3511 -0.6748
16921SOL    HW251342   0.667   8.925   9.376  0.2471  0.2480 -0.3806
16922SOL     OW51343   9.454   0.985   8.634  0.6579 -0.6639 -0.7230
16922SOL    HW151344   9.486   0.967   8.722  0.3008 -0.6332 -0.5823
16922SOL    HW251345   9.440   0.899   8.595 -1.9843 -0.8031  0.2932
16923SOL     OW51346   5.741   9.633   1.272  0.0906  0.4818  0.3240
16923SOL    HW151347   5.704   9.640   1.360 -0.5947  1.0566 -0.0001
16923SOL    HW251348   5.738   9.722   1.238  1.7326  0.5384  0.2557
16924SOL     OW51349   8.106   5.675   6.079 -0.1437  0.2829 -0.4757
16924SOL    HW151350   8.067   5.762   6.078  0.1655  0.5096  2.0432
16924SOL    HW251351   8.034   5.617   6.105  0.3466  0.2290  0.8104
16925SOL     OW51352   3.023   2.727   8.104  0.4939  0.0899 -0.1481
16925SOL    HW151353   3.024   2.662   8.034  0.5003  0.1686 -0.2215
16925SOL    HW251354   3.061   2.806   8.064 -1.3459  0.7587 -0.6879
16926SOL     OW51355   1.590   9.963   7.671 -0.5234  0.0980 -0.1337
16926SOL    HW151356   1.510   9.956   7.618 -0.9960  2.9149  0.0458
16926SOL    HW251357   1.660   9.972   7.607 -0.5653 -0.5683 -0.2802
16927SOL     OW51358   5.453   9.230   6.371  0.4369 -0.3037 -0.3428
16927SOL    HW151359   5.359   9.215   6.370  0.4856 -1.2112 -4.0253
16927SOL    HW251360   5.473   9.266   6.285  3.6061 -1.1611 -0.0943
16928SOL     OW51361   6.691   1.126   0.100 -0.5633  0.4470  0.3104
16928SOL    HW151362   6.763   1.126   0.163  0.3940  0.3315 -0.7312
16928SOL    HW251363   6.621   1.078   0.143  0.7268 -1.3070  0.5874
16929SOL     OW51364   6.515   4.185   1.312  0.5514 -0.0742  0.3513
16929SOL    HW151365   6.531   4.097   1.280  1.5307 -0.0098  0.6167
16929SOL    HW251366   6.504   4.238   1.234  1.2383 -0.2091  0.1616
16930SOL     OW51367   6.702   4.745   4.452 -0.4466 -0.3237  0.0639
16930SOL    HW151368   6.702   4.794   4.370 -1.9619 -0.6363 -0.1544
16930SOL    HW251369   6.793   4.748   4.482 -0.1234  0.9237 -0.9409
16931SOL     OW51370   0.891   2.154   1.922  0.1782  0.3979  0.5767
16931SOL    HW151371   0.801   2.130   1.946  0.1708 -1.9062 -1.4206
16931SOL    HW251372   0.928   2.190   2.003 -2.9640  2.9466  1.0423
16932SOL     OW51373   2.085   0.567   7.028  0.0116 -0.1927 -0.6278
16932SOL    HW151374   2.012   0.568   6.967  0.8883 -0.8286 -1.7489
16932SOL    HW251375   2.092   0.475   7.056 -1.3332  0.3409  1.6860
16933SOL     OW51376   2.023   8.321   6.294 -0.0689 -0.2030 -0.4329
16933SOL    HW151377   2.066   8.268   6.227 -0.5286 -0.8873 -0.2046
16933SOL    HW251378   2.041   8.276   6.376 -1.4620 -0.6983 -0.3691
16934SOL     OW51379   3.938   7.041   7.664  0.0512 -0.1521 -0.1710
16934SOL    HW151380   3.897   6.985   7.729 -1.3640  0.6769 -0.3089
16934SOL    HW251381   3.865   7.084   7.620  1.0335  0.3824 -1.3359
16935SOL     OW51382   4.176   5.997   1.975 -0.2481  0.1523 -0.1174
16935SOL    HW151383   4.105   5.937   1.996 -0.7408 -0.0240 -2.0512
16935SOL    HW251384   4.158   6.024   1.884  1.3988  1.1724 -0.1773
16936SOL     OW51385   5.997   7.957   0.185 -0.4075  0.3480  0.4608
16936SOL    HW151386   6.047   7.898   0.242 -0.1649  0.8961  0.8268
16936SOL    HW251387   6.036   8.043   0.200 -1.3766  0.7651  0.6578
16937SOL     OW51388   0.093   8.988   3.034  0.0272  0.2944  0.0717
16937SOL    HW151389   0.032   8.922   3.001 -0.0122  0.9497 -1.2369
16937SOL    HW251390   0.180   8.948   3.022 -0.0826 -0.4839  1.5817
16938SOL     OW51391   7.675   3.625   4.739  0.0879  0.1718 -0.0274
16938SOL    HW151392   7.685   3.557   4.671  0.6110  0.0442  0.1746
16938SOL    HW251393   7.631   3.580   4.811  1.6539 -0.3397  0.6518
16939SOL     OW51394   5.994   7.349   9.695  0.3447 -0.1941 -0.2073
16939SOL    HW151395   5.902   7.371   9.706  0.5058  1.3720 -1.5376
16939SOL    HW251396   6.029   7.345   9.784 -0.7866  0.2391  0.2719
16940SOL     OW51397   3.055   3.882   7.414 -0.5621 -0.3395 -0.2630
16940SOL    HW151398   3.133   3.863   7.466  0.5601  1.5046 -1.1744
16940SOL    HW251399   2.983   3.873   7.476  0.4609 -1.0921  0.8604
16941SOL     OW51400   3.249   3.796   1.651 -0.0143  0.0727 -0.1965
16941SOL    HW151401   3.205   3.850   1.717 -0.3368 -0.3655 -0.0491
16941SOL    HW251402   3.259   3.854   1.575  1.6335  1.0329  0.7034
16942SOL     OW51403   3.007   0.005   4.841 -0.7441  0.1991  0.1589
16942SOL    HW151404   2.986   0.025   4.750  0.7632  1.0980 -0.0364
16942SOL    HW251405   3.024   0.091   4.881  0.0558 -0.2847  0.8937
16943SOL     OW51406   0.530   4.904   6.257 -0.0514  0.7938  0.3757
16943SOL    HW151407   0.584   4.846   6.203 -0.4757  2.0182 -1.4733
16943SOL    HW251408   0.443   4.864   6.255  0.5245 -0.7838  2.7514
16944SOL     OW51409   1.920   0.380   4.403  1.0154  0.0320  0.2431
16944SOL    HW151410   2.002   0.428   4.390  1.0109 -0.2633 -1.0552
16944SOL    HW251411   1.943   0.307   4.460  1.8649 -0.5148 -0.7575
16945SOL     OW51412   5.960   6.567   4.512 -0.5560 -0.0458  0.3757
16945SOL    HW151413   6.000   6.527   4.590 -1.1255 -1.6693 -0.1188
16945SOL    HW251414   5.966   6.499   4.445  0.0245  1.3594 -1.0692
16946SOL     OW51415   3.451   1.944   2.239 -0.4725 -0.2667  0.0014
16946SOL    HW151416   3.438   2.006   2.167 -1.2176  0.3655  0.6462
16946SOL    HW251417   3.544   1.922   2.236  0.1641  2.0191  0.5984
16947SOL     OW51418   0.939   8.648   9.121 -0.1952  0.3080 -0.8181
16947SOL    HW151419   0.963   8.592   9.194  1.4896  1.2617 -0.5970
16947SOL    HW251420   0.921   8.587   9.049 -1.1550 -0.6014  0.1554
16948SOL     OW51421   8.591   1.430   6.571 -0.7626 -0.3187 -0.5077
16948SOL    HW151422   8.556   1.450   6.658  0.4480  0.5050 -0.1777
16948SOL    HW251423   8.568   1.339   6.556 -1.7023 -0.2354  0.3264
16949SOL     OW51424   5.049   6.729   9.878 -0.1439 -0.3109 -0.5891
16949SOL    HW151425   4.999   6.796   9.831  0.0182  0.3369  0.1342
16949SOL    HW251426   5.052   6.655   9.818  0.5208  0.6750 -1.8233
16950SOL     OW51427   9.508   1.791   0.239  0.3087 -0.2196  0.7149
16950SOL    HW151428   9.477   1.881   0.246 -1.4084 -0.6866 -0.1266
16950SOL    HW251429   9.603   1.799   0.229  0.2509  1.4557  1.1343
16951SOL     OW51430   3.362   6.194   2.306 -0.1574  0.0036 -0.1290
16951SOL    HW151431   3.430   6.242   2.353  0.1732 -2.2800  1.9109
16951SOL    HW251432   3.283   6.208   2.358 -0.4065 -0.2806 -0.4287
16952SOL     OW51433   9.471   3.358   0.849 -0.5067 -0.0568  0.1595
16952SOL    HW151434   9.448   3.414   0.775 -3.9772 -1.2366  0.1431
16952SOL    HW251435   9.512   3.418   0.912 -1.4754  1.9388 -0.9942
16953SOL     OW51436   3.478   8.502   9.389 -0.3646 -0.2527  0.8596
16953SOL    HW151437   3.411   8.560   9.426  1.1379  0.1275  3.1483
16953SOL    HW251438   3.457   8.416   9.425 -1.3076 -0.7643 -0.8040
16954SOL     OW51439   1.743   5.543   1.083 -0.6288 -0.1560  0.1951
16954SOL    HW151440   1.830   5.525   1.120 -0.2902 -1.1346 -1.0455
16954SOL    HW251441   1.721   5.465   1.032 -2.9248 -0.5915  1.7010
16955SOL     OW51442   3.931   4.794   0.618 -0.1323 -0.3535 -0.1980
16955SOL    HW151443   3.997   4.836   0.674 -0.7424  0.0362  0.2367
16955SOL    HW251444   3.864   4.861   0.606  0.9253  0.3430 -3.1193
16956SOL     OW51445   4.139   6.727   5.468  0.4955  0.3159  0.0460
16956SOL    HW151446   4.102   6.703   5.383  0.9248  0.7365 -0.2677
16956SOL    HW251447   4.066   6.762   5.518  0.0520 -0.7634  0.1769
16957SOL     OW51448   5.667   4.731   6.688  0.2580  0.6105 -0.6816
16957SOL    HW151449   5.699   4.741   6.778  0.0397  0.7610 -0.6215
16957SOL    HW251450   5.654   4.820   6.656  0.5367  0.5625 -0.9356
16958SOL     OW51451   2.040   3.218   5.119  0.1405 -0.0460 -0.4404
16958SOL    HW151452   1.958   3.245   5.077  0.7309  1.9940 -0.3742
16958SOL    HW251453   2.048   3.275   5.195  0.1352 -2.2937  1.3339
16959SOL     OW51454   3.548   4.127   3.294  0.6701  0.3479  0.3526
16959SOL    HW151455   3.589   4.045   3.270  0.5565  0.2161  0.6053
16959SOL    HW251456   3.487   4.104   3.365 -0.4610  0.3954 -0.5688
16960SOL     OW51457   5.490   2.667   3.691 -0.5985  0.5066 -0.0698
16960SOL    HW151458   5.582   2.676   3.666 -0.5534 -0.0855 -0.1290
16960SOL    HW251459   5.479   2.728   3.763  0.3965 -0.9546  1.4058
16961SOL     OW51460   6.699   5.638   3.150 -0.2537  0.0128  0.0452
16961SOL    HW151461   6.702   5.561   3.093 -1.1016 -1.9964  2.5566
16961SOL    HW251462   6.638   5.698   3.105 -0.5105 -1.2543 -1.3897
16962SOL     OW51463   0.692   4.561   0.660 -0.4560  0.5970  0.0834
16962SOL    HW151464   0.730   4.571   0.747  0.5414 -1.9374  0.0274
16962SOL    HW251465   0.599   4.544   0.676 -0.2309 -0.1132  0.6819
16963SOL     OW51466   6.706   6.893   9.559 -0.2468 -0.1479  0.6439
16963SOL    HW151467   6.708   6.797   9.560 -0.7761 -0.2139 -1.0617
16963SOL    HW251468   6.622   6.915   9.598  0.0528 -0.3582  1.4195
16964SOL     OW51469   3.762   6.042   2.636  0.1380 -0.1030 -0.4119
16964SOL    HW151470   3.793   5.968   2.585  0.4959  0.6936 -1.3728
16964SOL    HW251471   3.787   6.022   2.726  1.7247 -0.3810 -0.8939
16965SOL     OW51472   0.326   5.272   3.138 -0.1832  0.1442  0.4836
16965SOL    HW151473   0.232   5.252   3.138 -0.1147 -0.1902  0.8061
16965SOL    HW251474   0.356   5.249   3.226  0.4082 -0.7674  0.0585
16966SOL     OW51475   2.913   4.019   5.459 -0.2294 -0.3602 -0.6324
16966SOL    HW151476   3.001   3.980   5.455  0.2173  0.7367 -2.4016
16966SOL    HW251477   2.928   4.110   5.482 -0.7879  0.1101 -2.0192
16967SOL     OW51478   2.330   8.622   9.323 -0.5562  0.2594 -0.2153
16967SOL    HW151479   2.258   8.561   9.340 -0.0671 -0.6731 -1.3417
16967SOL    HW251480   2.386   8.614   9.400 -0.8197 -0.2631 -0.0692
16968SOL     OW51481   7.683   8.795   4.793 -0.4448 -0.3931 -0.2263
16968SOL    HW151482   7.666   8.773   4.884  1.9368 -2.2344 -0.1640
16968SOL    HW251483   7.748   8.866   4.796  0.6031 -1.3207 -0.4596
16969SOL     OW51484   6.757   6.480   7.673  0.1454 -0.3259  0.2481
16969SOL    HW151485   6.682   6.428   7.700  0.2827 -1.1677 -0.8881
16969SOL    HW251486   6.772   6.454   7.582 -0.2484  2.2427 -0.6420
16970SOL     OW51487   9.621   3.590   1.620 -0.0418 -0.7250  0.2974
16970SOL    HW151488   9.645   3.591   1.713 -0.8065  1.0946  0.5173
16970SOL    HW251489   9.546   3.650   1.614  0.3801 -0.3156 -1.6022
16971SOL     OW51490   5.481   9.151   0.882  0.3066  0.2151 -0.2753
16971SOL    HW151491   5.516   9.094   0.951  1.4610 -0.6676 -1.5340
16971SOL    HW251492   5.389   9.164   0.906  0.1397 -1.7578  0.3536
16972SOL     OW51493   1.647   8.842   0.606 -0.1441  0.1757 -0.1393
16972SOL    HW151494   1.711   8.908   0.634 -1.3930  1.1079  0.6099
16972SOL    HW251495   1.572   8.854   0.664 -0.9540 -0.9911 -0.8900
16973SOL     OW51496   1.487   4.051   5.853 -0.4709 -0.1226 -0.4057
16973SOL    HW151497   1.575   4.069   5.821 -0.2828 -0.2415  0.0364
16973SOL    HW251498   1.484   3.956   5.862 -0.9733 -0.2100 -1.3461
16974SOL     OW51499   3.641   0.689   8.369  0.1217 -0.9914  0.1621
16974SOL    HW151500   3.647   0.596   8.348  0.0454 -1.1980  1.0408
16974SOL    HW251501   3.642   0.693   8.464 -1.6389 -0.2263  0.2006
16975SOL     OW51502   1.718   0.398   2.054  0.2692 -0.6950  0.3701
16975SOL    HW151503   1.755   0.315   2.084 -1.3576 -1.4715  0.2909
16975SOL    HW251504   1.687   0.380   1.965 -0.6158 -0.1785  0.5612
16976SOL     OW51505   6.377   3.481   2.704  0.1479 -0.6518 -0.5487
16976SOL    HW151506   6.402   3.571   2.684  0.9835 -0.7145  0.1380
16976SOL    HW251507   6.284   3.486   2.728 -0.4880 -0.3554 -2.8673
16977SOL     OW51508   2.952   8.929   8.402  0.2110 -0.1869 -0.4800
16977SOL    HW151509   2.909   8.904   8.321 -0.9778 -2.4869  0.7820
16977SOL    HW251510   2.948   9.025   8.403 -0.2379 -0.1377 -2.8300
16978SOL     OW51511   6.205   5.229   2.628  0.5163 -0.3964  0.2417
16978SOL    HW151512   6.126   5.265   2.669  0.5642 -0.2606  0.2122
16978SOL    HW251513   6.174   5.195   2.544  0.8747  1.5710 -0.7346
16979SOL     OW51514   4.392   1.063   5.489  0.3685 -0.2681 -0.3522
16979SOL    HW151515   4.395   1.011   5.409 -0.3303 -0.3530 -0.3338
16979SOL    HW251516   4.342   1.141   5.464 -0.8346 -0.8166  0.2782
16980SOL     OW51517   1.157   4.452   8.587 -0.0974  0.2295 -0.0963
16980SOL    HW151518   1.087   4.389   8.572  0.1206 -0.0751  0.1531
16980SOL    HW251519   1.141   4.483   8.676  0.8529 -0.8303  0.4666
16981SOL     OW51520   3.137   9.532   4.480  0.4168 -0.3442 -0.1376
16981SOL    HW151521   3.064   9.555   4.424 -0.2850 -0.2362  0.7924
16981SOL    HW251522   3.100   9.471   4.544  1.1031 -0.1691  0.4427
16982SOL     OW51523   6.138   4.536   7.725 -0.1543  0.0106 -0.4077
16982SOL    HW151524   6.073   4.535   7.654 -0.8643 -1.0797  0.2336
16982SOL    HW251525   6.091   4.502   7.801  0.3512  1.9395  0.8467
16983SOL     OW51526   8.707   6.678   9.227 -0.4643  0.3193 -0.4698
16983SOL    HW151527   8.738   6.761   9.193 -1.9082  1.1012  0.0076
16983SOL    HW251528   8.714   6.617   9.154  2.2172  0.3814 -0.3394
16984SOL     OW51529   8.143   7.177   1.122  0.3761  0.0676  0.2364
16984SOL    HW151530   8.228   7.217   1.104  0.4044 -0.1493 -0.1274
16984SOL    HW251531   8.164   7.092   1.160  0.3160  0.4221  1.0944
16985SOL     OW51532   5.962   2.496   8.301  0.0493 -0.3942  0.6559
16985SOL    HW151533   6.018   2.529   8.371  1.0346 -0.2344 -0.1852
16985SOL    HW251534   6.009   2.518   8.220 -1.3076 -0.1171 -0.0828
16986SOL     OW51535   9.933   3.484   3.319  0.1408  0.3556  0.6301
16986SOL    HW151536   9.944   3.516   3.229 -1.1183 -1.7794 -0.3588
16986SOL    HW251537   9.855   3.529   3.351  0.7850  1.3748  0.8138
16987SOL     OW51538   5.745   4.503   0.475 -0.4447 -0.4660  0.0971
16987SOL    HW151539   5.662   4.526   0.433  0.8392  1.4841 -1.5456
16987SOL    HW251540   5.798   4.467   0.404  1.1828  1.2808  0.3451
16988SOL     OW51541   8.622   7.992   6.721  0.3552 -0.0668 -0.0617
16988SOL    HW151542   8.530   8.003   6.699 -0.1785 -0.0794  1.9058
16988SOL    HW251543   8.663   7.956   6.643 -1.6910 -1.8426 -0.3831
16989SOL     OW51544   9.822   9.040   5.362 -0.0231 -0.1159  0.0256
16989SOL    HW151545   9.792   8.954   5.335 -0.3357 -0.2782  0.8586
16989SOL    HW251546   9.796   9.047   5.454 -0.4728  1.0709 -0.1722
16990SOL     OW51547   0.361   7.532   9.304  0.3225 -0.2034  0.4000
16990SOL    HW151548   0.281   7.579   9.283 -0.1405 -0.7263  0.9446
16990SOL    HW251549   0.431   7.583   9.263 -0.2426  0.5104  0.3091
16991SOL     OW51550   8.282   2.125   6.197  0.3917  0.6952 -0.0237
16991SOL    HW151551   8.206   2.102   6.143  2.9793 -0.3612 -3.6168
16991SOL    HW251552   8.267   2.216   6.223 -0.3819  1.9369 -4.1242
16992SOL     OW51553   4.165   6.772   4.433 -0.2918 -0.2168  0.7012
16992SOL    HW151554   4.142   6.722   4.355 -0.7459  0.6579  0.2704
16992SOL    HW251555   4.252   6.739   4.457  0.0984 -0.1032 -0.4921
16993SOL     OW51556   7.672   7.951   8.327  0.0708  0.8940 -0.4920
16993SOL    HW151557   7.688   8.045   8.337 -0.3579  0.8377  0.9710
16993SOL    HW251558   7.734   7.923   8.260 -1.0329  2.5309 -2.3096
16994SOL     OW51559   3.642   1.681   3.100 -0.6676 -0.1791  0.2396
16994SOL    HW151560   3.731   1.696   3.070 -0.3104 -0.4142  1.1488
16994SOL    HW251561   3.592   1.665   3.020  0.1955 -0.5174 -0.2458
16995SOL     OW51562   3.998   6.743   1.653 -0.2965 -0.2264  0.1048
16995SOL    HW151563   4.030   6.819   1.701  1.3164 -0.9646  0.2671
16995SOL    HW251564   4.019   6.762   1.561  0.5981 -0.6762  0.2027
16996SOL     OW51565   1.967   4.223   5.160 -0.2282  0.4062 -0.1440
16996SOL    HW151566   1.996   4.245   5.072 -1.4736 -1.3003 -1.0296
16996SOL    HW251567   2.010   4.141   5.181 -0.6648  0.3173  0.4623
16997SOL     OW51568   1.446   9.132   8.625 -0.0166  0.8763 -0.1089
16997SOL    HW151569   1.528   9.165   8.662  0.4506  0.9190 -1.1488
16997SOL    HW251570   1.474   9.075   8.553 -0.8929  0.5654 -0.2107
16998SOL     OW51571   0.170   5.526   2.008 -0.2554 -0.1786 -0.2158
16998SOL    HW151572   0.080   5.525   2.040  0.3431  3.5493  2.2312
16998SOL    HW251573   0.165   5.570   1.923 -0.7131  0.5407  0.1741
16999SOL     OW51574   3.821   0.913   3.112  0.4716 -0.1044  0.0759
16999SOL    HW151575   3.828   0.854   3.187  0.7758  0.1871  0.2770
16999SOL    HW251576   3.789   0.857   3.041 -0.1178 -0.3160  0.4997
17000SOL     OW51577   5.533   8.360   9.804  0.0655  0.0779 -0.0812
17000SOL    HW151578   5.514   8.454   9.801  0.9013  0.2370 -0.8321
17000SOL    HW251579   5.472   8.321   9.741  1.1830  0.4166 -1.4415
17001SOL     OW51580   3.995   6.286   9.565  0.5419  0.6576 -0.0423
17001SOL    HW151581   4.022   6.334   9.486 -0.1951  1.6145  0.2747
17001SOL    HW251582   3.915   6.241   9.538  1.7796 -1.3056 -0.6578
17002SOL     OW51583   7.141   0.371   9.676 -0.3382 -0.4062 -0.0451
17002SOL    HW151584   7.115   0.413   9.594 -2.2068 -2.6332 -0.6861
17002SOL    HW251585   7.233   0.397   9.688  0.0677 -0.2128 -2.9652
17003SOL     OW51586   8.337   8.861   5.663  0.1412 -0.3875  0.4615
17003SOL    HW151587   8.313   8.875   5.571 -1.2283  0.4667  0.9179
17003SOL    HW251588   8.430   8.841   5.661  0.1156 -0.4366 -1.1216
17004SOL     OW51589   7.773   7.813   5.892  0.3016  0.0578 -0.3505
17004SOL    HW151590   7.856   7.860   5.889  0.1140  0.3687 -1.0311
17004SOL    HW251591   7.770   7.775   5.979 -0.0384  2.2531  0.6719
17005SOL     OW51592   1.371   2.254   2.302 -0.2954  0.2914  0.4306
17005SOL    HW151593   1.311   2.208   2.360 -0.7858 -0.8407 -0.9255
17005SOL    HW251594   1.442   2.284   2.359 -0.6052 -1.0647  1.5624
17006SOL     OW51595   5.009   1.309   9.387  0.4261 -0.2733 -0.1739
17006SOL    HW151596   5.025   1.245   9.317 -0.4463 -1.7194  0.8848
17006SOL    HW251597   4.918   1.335   9.374  0.1986 -0.6964  0.5080
17007SOL     OW51598   4.328   9.901   1.093  0.1579 -0.2762 -0.6063
17007SOL    HW151599   4.333   9.975   1.033 -1.0359  1.8890  1.7557
17007SOL    HW251600   4.379   9.928   1.169  0.4614 -2.2953 -0.0334
17008SOL     OW51601   8.956   6.364   4.883  0.1598 -0.4730  0.9020
17008SOL    HW151602   8.885   6.425   4.901  0.4061 -0.1372  0.7615
17008SOL    HW251603   8.922   6.307   4.813 -0.4120 -1.1118  1.6846
17009SOL     OW51604   7.922   6.949   0.149 -0.5888 -0.3713  0.4979
17009SOL    HW151605   7.856   6.961   0.217 -0.4412 -0.6774  0.6950
17009SOL    HW251606   7.997   7.000   0.179 -1.0557  0.7759 -0.1895
17010SOL     OW51607   6.771   3.097   5.524 -0.0034  0.3913  0.5832
17010SOL    HW151608   6.807   3.014   5.554  0.3417  0.8797  1.5487
17010SOL    HW251609   6.845   3.157   5.523 -0.0538  0.4800 -1.0087
17011SOL     OW51610   0.433   9.425   4.660 -0.1949 -0.3026 -0.0343
17011SOL    HW151611   0.440   9.504   4.607  0.7356 -1.8334 -2.3748
17011SOL    HW251612   0.377   9.366   4.609  1.6668 -2.2806  0.0363
17012SOL     OW51613   5.879   5.687   5.224  0.9225  0.1503  0.3662
17012SOL    HW151614   5.961   5.707   5.178  1.7540  0.6823  1.9997
17012SOL    HW251615   5.879   5.746   5.299 -1.1087  0.3216  0.2692
17013SOL     OW51616   2.767   7.490   1.194 -0.2026 -0.5393 -0.1448
17013SOL    HW151617   2.759   7.402   1.156 -2.7651 -0.1000 -0.7964
17013SOL    HW251618   2.803   7.475   1.281 -2.4648 -2.5129  0.5661
17014SOL     OW51619   9.628   2.555   7.735 -0.0133  0.1847  0.1453
17014SOL    HW151620   9.698   2.547   7.799 -0.5802 -0.5244  0.6928
17014SOL    HW251621   9.661   2.508   7.658 -0.0631 -0.5621  0.5664
17015SOL     OW51622   0.880   8.503   0.799 -0.2635  0.1191 -0.1767
17015SOL    HW151623   0.947   8.558   0.839 -1.4547  0.4871  1.3854
17015SOL    HW251624   0.896   8.510   0.705  0.8999  1.4432  0.0957
17016SOL     OW51625   7.677   2.067   4.488 -0.5101 -0.5045  0.3446
17016SOL    HW151626   7.757   2.015   4.475  1.2322  1.8710  0.8102
17016SOL    HW251627   7.652   2.095   4.400 -0.1212 -0.3273  0.2852
17017SOL     OW51628   5.028   8.520   6.974  0.2769 -0.0946  0.0590
17017SOL    HW151629   5.025   8.527   6.878 -1.6403 -3.0814 -0.2475
17017SOL    HW251630   5.066   8.433   6.990  0.5041  0.3353  2.0299
17018SOL     OW51631   3.246   0.376   3.644 -0.3175 -0.1894 -0.0120
17018SOL    HW151632   3.232   0.395   3.737 -1.1576 -2.3134  0.3633
17018SOL    HW251633   3.159   0.351   3.612 -0.0509  0.6007 -1.4074
17019SOL     OW51634   5.348   9.405   9.103  0.1445  0.3565 -0.0665
17019SOL    HW151635   5.396   9.477   9.062  2.2892  0.3815  2.2763
17019SOL    HW251636   5.312   9.443   9.183  0.1645 -0.8267  0.5194
17020SOL     OW51637   8.657   1.912   1.762 -0.0434 -0.3922 -0.0823
17020SOL    HW151638   8.661   1.829   1.810 -1.0068  0.0798  0.8735
17020SOL    HW251639   8.745   1.948   1.769  0.0327 -0.7025  0.6964
17021SOL     OW51640   7.448   0.333   3.000 -0.3471  0.1077 -0.1184
17021SOL    HW151641   7.405   0.418   3.000 -0.5871 -0.0006  0.7893
17021SOL    HW251642   7.486   0.325   2.912 -0.4599  1.0704 -0.2649
17022SOL     OW51643   3.759   1.317   8.786  0.0129 -0.5351 -0.2679
17022SOL    HW151644   3.720   1.394   8.744 -0.4214 -1.7120 -2.1572
17022SOL    HW251645   3.848   1.314   8.753  0.3973 -0.2522  0.6937
17023SOL     OW51646   0.179   0.223   2.860 -0.5756 -0.4607 -0.0634
17023SOL    HW151647   0.242   0.247   2.928 -1.0203  0.3860  0.0484
17023SOL    HW251648   0.202   0.278   2.785 -0.7964 -0.5919 -0.2297
17024SOL     OW51649   5.399   1.110   9.799  0.4048 -0.2573 -0.1588
17024SOL    HW151650   5.330   1.139   9.858 -0.2002 -0.1933 -0.8894
17024SOL    HW251651   5.355   1.054   9.736  0.9427  0.1117 -0.8726
17025SOL     OW51652   0.385   8.392   6.840 -0.0552  0.0199 -0.1125
17025SOL    HW151653   0.299   8.352   6.832  0.3834 -0.8699 -0.5153
17025SOL    HW251654   0.376   8.453   6.913  0.0072 -2.9190  2.5800
17026SOL     OW51655   5.467   9.131   5.087  0.1722  0.0004 -0.1572
17026SOL    HW151656   5.517   9.086   5.019  2.5404  3.3441 -0.9214
17026SOL    HW251657   5.403   9.183   5.039 -1.6424 -1.4377  0.6021
17027SOL     OW51658   2.722   9.372   4.541 -0.3465 -0.0540  0.5008
17027SOL    HW151659   2.650   9.328   4.587 -0.9817  0.3206 -0.1118
17027SOL    HW251660   2.694   9.375   4.450  0.0778  0.8378  0.3856
17028SOL     OW51661   4.479   6.226   0.551 -0.0521 -0.1311 -0.4749
17028SOL    HW151662   4.491   6.140   0.512  0.5973  0.1043 -0.8020
17028SOL    HW251663   4.477   6.210   0.645  2.6460 -0.2426 -0.3645
17029SOL     OW51664   2.702   5.310   9.175  0.4735 -0.2759 -0.3614
17029SOL    HW151665   2.634   5.266   9.226  0.5435  0.0311  0.0007
17029SOL    HW251666   2.681   5.289   9.084 -0.1973 -0.0599 -0.2652
17030SOL     OW51667   8.798   4.132   7.367  0.0898 -0.0130 -0.2710
17030SOL    HW151668   8.752   4.168   7.291 -0.6362 -1.0436 -0.3507
17030SOL    HW251669   8.828   4.208   7.416 -2.2313  0.7405  0.0901
17031SOL     OW51670   7.615   1.886   0.061 -0.1645  1.0552 -0.5440
17031SOL    HW151671   7.690   1.915   0.009  0.9026 -0.3390  0.1472
17031SOL    HW251672   7.651   1.871   0.149 -1.0500 -0.4671 -0.4036
17032SOL     OW51673   7.112   1.743   0.580  0.1415  0.3924 -0.6356
17032SOL    HW151674   7.162   1.824   0.578  2.4331 -0.9366 -0.4875
17032SOL    HW251675   7.109   1.714   0.488 -0.9885  0.7826 -0.7432
17033SOL     OW51676   1.783   8.358   1.354 -0.2554  0.2190  0.0202
17033SOL    HW151677   1.731   8.278   1.349 -1.0748  0.6110  1.6385
17033SOL    HW251678   1.747   8.405   1.429  1.2249  1.3887  0.0346
17034SOL     OW51679   0.765   3.068   7.789  0.4809  0.4361  0.6391
17034SOL    HW151680   0.721   3.147   7.819 -0.3861  0.2579 -0.1259
17034SOL    HW251681   0.748   3.064   7.695 -1.1662 -1.6610  0.9519
17035SOL     OW51682   0.425   6.761   8.205 -0.0447 -0.3807 -0.1890
17035SOL    HW151683   0.499   6.793   8.153 -0.7266  0.2791 -0.7588
17035SOL    HW251684   0.347   6.793   8.160 -0.6797  2.5035  2.6047
17036SOL     OW51685   5.493   7.054   4.561 -0.6966 -0.1129  0.1848
17036SOL    HW151686   5.537   7.048   4.476 -0.1507  1.5281  0.3246
17036SOL    HW251687   5.511   6.970   4.603  2.9400  0.6704  0.5102
17037SOL     OW51688   1.041   6.693   3.927 -0.0939 -0.2766 -0.3364
17037SOL    HW151689   1.054   6.723   3.837 -0.5048 -1.9256 -0.9751
17037SOL    HW251690   1.127   6.660   3.953 -0.3621 -1.3271 -0.7373
17038SOL     OW51691   2.952   5.071   3.622  0.1499 -0.4009  0.1386
17038SOL    HW151692   3.016   5.002   3.637 -0.1083 -0.5475  0.6011
17038SOL    HW251693   2.933   5.105   3.709  0.9066  0.8384 -0.1658
17039SOL     OW51694   3.982   8.349   7.987 -0.6739 -0.6100 -0.0517
17039SOL    HW151695   4.026   8.381   8.066 -0.8727 -0.9878  0.2178
17039SOL    HW251696   3.892   8.332   8.015 -1.3244  1.2513 -0.8781
17040SOL     OW51697   3.744   9.937   8.688  0.5955 -0.2522 -0.1093
17040SOL    HW151698   3.736   9.852   8.732 -1.9022 -1.0395 -1.8222
17040SOL    HW251699   3.787   9.916   8.605  0.8479  0.3418 -0.1311
17041SOL     OW51700   6.737   6.662   4.964  0.1678  0.5070 -0.1874
17041SOL    HW151701   6.681   6.588   4.943 -0.1055  0.6391  0.0633
17041SOL    HW251702   6.773   6.642   5.050  0.1197  0.6453 -0.1333
17042SOL     OW51703   0.272   2.808   7.898  0.7845 -0.3104 -0.0801
17042SOL    HW151704   0.180   2.827   7.917  0.7755 -0.5952  0.1541
17042SOL    HW251705   0.272   2.716   7.870  1.1774 -0.7014  1.1731
17043SOL     OW51706   4.364   1.733   8.633 -0.0602  0.3503  0.0547
17043SOL    HW151707   4.441   1.774   8.594 -0.9523  0.0029 -2.2057
17043SOL    HW251708   4.292   1.756   8.575 -1.6387  0.3725  1.9071
17044SOL     OW51709   9.726   9.432   2.913 -0.1642 -0.2261 -0.6091
17044SOL    HW151710   9.782   9.485   2.969 -0.4518 -0.4101 -0.1356
17044SOL    HW251711   9.644   9.424   2.962 -0.3656 -0.5293 -0.9855
17045SOL     OW51712   2.925   3.377   8.060 -0.4395  0.4357 -0.0950
17045SOL    HW151713   2.903   3.456   8.011 -1.6213 -0.0710 -0.4110
17045SOL    HW251714   2.973   3.409   8.136 -1.7975  1.5752  0.3240
17046SOL     OW51715   1.294   2.013   7.901  0.4555  0.1101  0.6464
17046SOL    HW151716   1.234   2.086   7.918 -0.0873 -0.2094  0.1459
17046SOL    HW251717   1.243   1.935   7.922  0.7020 -0.1673  0.2165
17047SOL     OW51718   9.380   6.058   2.898 -0.1959 -0.4763  0.1166
17047SOL    HW151719   9.335   6.097   2.972  2.0130  1.4726  0.5764
17047SOL    HW251720   9.398   6.133   2.840  0.8027 -1.4548 -0.8773
17048SOL     OW51721   5.132   3.694   9.608 -0.3603 -0.2288  0.2658
17048SOL    HW151722   5.201   3.741   9.655 -0.6991 -0.2409  0.7852
17048SOL    HW251723   5.177   3.647   9.538  0.3826 -1.4925  1.5485
17049SOL     OW51724   4.634   6.317   3.054  0.4571  0.0321  0.9606
17049SOL    HW151725   4.587   6.353   2.978  0.4551 -1.2642  0.3173
17049SOL    HW251726   4.715   6.368   3.058  1.0980 -0.7704 -0.7847
17050SOL     OW51727   6.858   0.375   6.641 -0.0058 -1.0131 -0.0668
17050SOL    HW151728   6.912   0.342   6.569 -1.5806 -0.6307 -1.4894
17050SOL    HW251729   6.903   0.454   6.671 -0.2725 -0.1005 -1.9264
17051SOL     OW51730   8.731   3.367   6.786 -0.4495 -0.6941  0.6154
17051SOL    HW151731   8.678   3.439   6.752  0.9590 -0.1414 -0.4865
17051SOL    HW251732   8.777   3.403   6.861 -0.6318 -0.7907  0.7750
17052SOL     OW51733   9.837   8.259   8.995 -0.2423  0.2055  0.4176
17052SOL    HW151734   9.880   8.236   8.912 -0.5958 -1.6461  0.7088
17052SOL    HW251735   9.909   8.272   9.056  0.0157  1.4089 -0.1097
17053SOL     OW51736   8.758   3.932   1.598 -0.3755 -0.1443  0.2279
17053SOL    HW151737   8.837   3.892   1.634 -0.4438  0.1002  0.6489
17053SOL    HW251738   8.763   4.024   1.624 -0.0707  0.2066 -0.9778
17054SOL     OW51739   7.488   3.134   0.342 -0.2163  1.2907 -0.1186
17054SOL    HW151740   7.403   3.092   0.356  0.2234  0.7432  1.0911
17054SOL    HW251741   7.547   3.062   0.319 -0.0150  1.6218 -0.6514
17055SOL     OW51742   1.668   6.753   8.208 -0.0650  0.4577 -0.5340
17055SOL    HW151743   1.607   6.755   8.282  0.2300  1.7877 -0.2850
17055SOL    HW251744   1.740   6.697   8.238 -0.8463 -0.5993 -0.5880
17056SOL     OW51745   2.774   5.361   0.844  0.4043  0.1040 -0.2692
17056SOL    HW151746   2.692   5.401   0.813 -0.9732 -0.9506  1.7920
17056SOL    HW251747   2.841   5.427   0.824 -1.4885  2.7016  1.2781
17057SOL     OW51748   3.396   4.444   7.116  0.3587 -0.0447 -0.4485
17057SOL    HW151749   3.337   4.494   7.173 -1.1757 -0.1214 -1.8789
17057SOL    HW251750   3.457   4.510   7.081 -0.5794  0.5588 -1.0008
17058SOL     OW51751   2.036   2.862   0.630 -0.0668  0.1399 -0.3762
17058SOL    HW151752   2.092   2.791   0.663 -0.1606  0.5149  0.6159
17058SOL    HW251753   1.966   2.816   0.584  0.4897 -0.3695 -0.7442
17059SOL     OW51754   5.086   9.418   5.475  0.1915  0.0834  0.0857
17059SOL    HW151755   5.012   9.383   5.524 -0.5516  1.4194 -0.0536
17059SOL    HW251756   5.162   9.370   5.509 -0.8428 -2.2093 -0.6210
17060SOL     OW51757   5.784   7.858   7.085  0.2276 -0.3446  0.4347
17060SOL    HW151758   5.870   7.822   7.105  0.6448 -0.2593 -1.0682
17060SOL    HW251759   5.730   7.837   7.161  1.4010 -0.9794  1.1093
17061SOL     OW51760   8.011   6.935   8.885  0.3113 -0.4045 -0.2940
17061SOL    HW151761   7.980   6.846   8.896 -1.6333  0.0734 -1.4317
17061SOL    HW251762   7.933   6.985   8.860  1.5321  1.4067 -0.6908
17062SOL     OW51763   2.167   1.580   6.714 -0.3478  0.5713 -0.3527
17062SOL    HW151764   2.205   1.594   6.627  1.0221  0.2167  0.1683
17062SOL    HW251765   2.222   1.630   6.773 -0.3659 -0.3675  0.4957
17063SOL     OW51766   6.557   1.406   2.992 -0.0042 -0.0335 -0.7497
17063SOL    HW151767   6.616   1.480   2.980  0.3415 -0.2115 -0.2190
17063SOL    HW251768   6.566   1.354   2.912  2.0764 -1.0939  0.0869
17064SOL     OW51769   6.336   5.611   3.743  0.0630 -0.0516 -0.5878
17064SOL    HW151770   6.364   5.611   3.834  1.1684 -1.8540 -0.8819
17064SOL    HW251771   6.408   5.653   3.695  0.7037 -1.4731 -0.9169
17065SOL     OW51772   2.069   2.989   3.743  0.1046  0.2097  0.0322
17065SOL    HW151773   2.135   2.993   3.812  0.4190 -0.9019 -0.1771
17065SOL    HW251774   2.053   3.080   3.720 -1.1451  0.7502  2.6267
17066SOL     OW51775   7.463   0.578   9.201  0.3339 -0.1702  0.2797
17066SOL    HW151776   7.492   0.551   9.288 -1.2174 -2.1817  0.2524
17066SOL    HW251777   7.372   0.605   9.214 -0.2327 -1.4320 -0.8274
17067SOL     OW51778   3.851   7.829   9.412 -0.2255  0.5069 -0.4380
17067SOL    HW151779   3.900   7.784   9.480  0.0069 -0.6924 -1.3518
17067SOL    HW251780   3.911   7.896   9.378 -0.0094  0.4823 -0.1022
17068SOL     OW51781   8.794   8.285   7.219  0.2514 -0.7588  0.1839
17068SOL    HW151782   8.742   8.285   7.139  1.0535  2.7445 -0.4996
17068SOL    HW251783   8.877   8.326   7.195  0.4022  0.7650  2.8243
17069SOL     OW51784   3.395   3.100   8.990 -0.2507 -0.0612 -0.5742
17069SOL    HW151785   3.309   3.112   9.032  0.4009  1.3519  0.4777
17069SOL    HW251786   3.387   3.018   8.942 -1.6701 -0.8205  0.8291
17070SOL     OW51787   8.143   0.125   8.078 -0.2343 -0.2141  0.1728
17070SOL    HW151788   8.119   0.093   7.992  0.0487  0.5318 -0.1883
17070SOL    HW251789   8.168   0.046   8.127  0.3401 -0.5560 -0.6635
17071SOL     OW51790   2.082   3.840   2.143  0.2322 -0.0432 -0.6399
17071SOL    HW151791   2.036   3.892   2.078 -0.7651 -0.2232 -0.1016
17071SOL    HW251792   2.147   3.791   2.093  1.0817  1.5591 -1.1806
17072SOL     OW51793   2.193   3.963   6.227 -0.0925  0.0843  0.4127
17072SOL    HW151794   2.202   4.011   6.145 -1.6661  1.2518  0.8666
17072SOL    HW251795   2.165   3.875   6.200 -0.5442  0.4410 -0.3251
17073SOL     OW51796   4.819   0.158   0.319  0.1888  0.0120 -0.3910
17073SOL    HW151797   4.784   0.197   0.239 -1.1598 -3.5932 -1.7902
17073SOL    HW251798   4.900   0.114   0.291  0.6293  0.1355  0.6457
17074SOL     OW51799   9.723   4.500   9.789 -0.3175  0.0730  0.2403
17074SOL    HW151800   9.726   4.408   9.812 -2.3341  0.3039  1.6816
17074SOL    HW251801   9.709   4.501   9.694  1.7658 -1.0081 -0.1430
17075SOL     OW51802   8.886   1.277   3.322  0.2584 -0.1306  0.2303
17075SOL    HW151803   8.904   1.309   3.410 -0.8704  1.1294  0.0409
17075SOL    HW251804   8.794   1.251   3.324 -0.1699  1.1669 -0.8929
17076SOL     OW51805   3.642   0.175   5.536 -0.8344 -0.5776  0.0355
17076SOL    HW151806   3.684   0.114   5.475  1.3866  1.5857 -0.7558
17076SOL    HW251807   3.690   0.165   5.618 -0.4056  0.1427 -0.1214
17077SOL     OW51808   3.288   1.962   9.377  0.3927 -0.0699  0.3475
17077SOL    HW151809   3.197   1.974   9.351  0.7444  0.5154 -0.6724
17077SOL    HW251810   3.318   2.049   9.401  1.2246  0.1238 -1.2376
17078SOL     OW51811   7.655   5.811   0.551 -0.2643 -0.0247 -0.4403
17078SOL    HW151812   7.675   5.812   0.644 -0.8005 -0.7727 -0.3062
17078SOL    HW251813   7.652   5.903   0.526  0.8335  0.1621  0.0610
17079SOL     OW51814   6.679   2.368   1.286 -0.5027 -0.8312 -0.5057
17079SOL    HW151815   6.624   2.446   1.282  1.3394  0.5445 -0.3655
17079SOL    HW251816   6.620   2.296   1.267 -2.6377  0.4090  1.0568
17080SOL     OW51817   2.165   3.689   8.126 -0.2932 -0.3670  0.3327
17080SOL    HW151818   2.258   3.668   8.136  0.2943  1.4153 -0.8945
17080SOL    HW251819   2.156   3.777   8.162 -1.2923 -0.1468 -0.4069
17081SOL     OW51820   8.149   2.161   8.914 -0.3859  0.3589  0.5766
17081SOL    HW151821   8.055   2.156   8.897 -0.1704  0.3168 -0.7091
17081SOL    HW251822   8.156   2.165   9.009 -1.7810  2.3614  0.6521
17082SOL     OW51823   8.017   8.106   5.111  0.1377  0.1965  0.5208
17082SOL    HW151824   7.993   8.151   5.192  0.2182  1.2166 -0.0054
17082SOL    HW251825   7.933   8.088   5.068  0.1522  0.8499  0.2104
17083SOL     OW51826   5.334   8.304   3.718  0.1295  0.3213  0.1414
17083SOL    HW151827   5.348   8.217   3.757  0.0995  0.5146  0.5932
17083SOL    HW251828   5.293   8.355   3.789 -0.7706  0.4143 -0.4305
17084SOL     OW51829   4.952   7.985   1.789 -0.5169  0.3668  0.0973
17084SOL    HW151830   5.045   8.004   1.776  0.1622 -3.0757 -1.0834
17084SOL    HW251831   4.908   8.037   1.722  0.7478  0.6666 -0.5364
17085SOL     OW51832   4.206   5.476   2.345  0.0557  0.4036  0.4572
17085SOL    HW151833   4.204   5.557   2.294  2.9171  0.3659  0.1172
17085SOL    HW251834   4.220   5.407   2.281 -0.4411 -0.1468  0.9271
17086SOL     OW51835   2.244   4.359   0.792 -0.3067  0.8547  0.4287
17086SOL    HW151836   2.288   4.405   0.863  0.5385 -0.0825  0.5188
17086SOL    HW251837   2.227   4.271   0.825 -1.0670  0.7921 -0.0766
17087SOL     OW51838   4.484   4.127   0.583  0.1161  0.2985  0.1427
17087SOL    HW151839   4.417   4.074   0.539 -0.1196 -0.3568  1.2569
17087SOL    HW251840   4.508   4.076   0.661 -0.9525  2.3445  1.9042
17088SOL     OW51841   7.310   3.636   2.435 -0.3860  0.6188 -0.4235
17088SOL    HW151842   7.237   3.698   2.431 -0.5143  0.5068  0.1830
17088SOL    HW251843   7.271   3.551   2.414 -0.1701  0.7611 -1.4772
17089SOL     OW51844   5.856   4.221   5.490  0.0107  0.2047 -0.0898
17089SOL    HW151845   5.776   4.191   5.447 -1.3075  0.3411  2.1408
17089SOL    HW251846   5.874   4.154   5.556  0.7050  1.0918  0.6392
17090SOL     OW51847   7.408   3.515   3.592  0.0839  0.5520 -0.1467
17090SOL    HW151848   7.390   3.428   3.628 -1.9585  1.2525  0.6514
17090SOL    HW251849   7.446   3.498   3.506 -0.9948 -1.1443 -0.3333
17091SOL     OW51850   3.888   3.969   5.847  0.2739  0.2493 -0.2914
17091SOL    HW151851   3.897   3.972   5.752  0.5043 -1.3997 -0.3479
17091SOL    HW251852   3.940   3.894   5.874  0.1339  0.6369  1.1366
17092SOL     OW51853   2.177   8.495   7.110 -0.2240  0.1380  0.4445
17092SOL    HW151854   2.198   8.419   7.164  0.2731  0.2911  0.4693
17092SOL    HW251855   2.223   8.568   7.151  2.1006 -0.1415 -1.4659
17093SOL     OW51856   3.608   9.867   6.097  0.0291 -0.6713  0.1666
17093SOL    HW151857   3.538   9.876   6.162  0.1446  0.2201  0.1686
17093SOL    HW251858   3.651   9.784   6.120 -1.0672 -1.2724  0.1204
17094SOL     OW51859   3.687   7.728   5.730 -0.2594 -0.3292  0.7864
17094SOL    HW151860   3.627   7.768   5.794 -0.7971  1.2056 -0.6121
17094SOL    HW251861   3.744   7.799   5.704  1.9380 -1.6554  1.7123
17095SOL     OW51862   9.989   1.913   1.742  0.7803  0.3124 -0.1701
17095SOL    HW151863   9.943   1.969   1.804  0.0244 -0.1776 -0.2812
17095SOL    HW251864   9.922   1.855   1.707  1.5730 -0.7509  0.0272
17096SOL     OW51865   2.325   0.649   4.510 -0.3118 -0.0469 -0.1646
17096SOL    HW151866   2.373   0.707   4.452 -0.4805  0.1622 -0.0970
17096SOL    HW251867   2.346   0.680   4.598 -0.8785  0.3010 -0.1425
17097SOL     OW51868   6.655   5.025   1.061 -0.1167  0.1851 -0.0035
17097SOL    HW151869   6.676   5.060   0.974 -2.3133  1.7057  0.0021
17097SOL    HW251870   6.629   5.102   1.111 -0.0647 -0.8440  1.6514
17098SOL     OW51871   9.468   1.481   6.720 -0.0928  0.0633 -0.0045
17098SOL    HW151872   9.534   1.549   6.736 -0.1405 -0.1090  0.9387
17098SOL    HW251873   9.512   1.418   6.663 -0.2149  1.1377 -1.3378
17099SOL     OW51874   4.835   6.350   2.773 -0.0432 -0.2222  0.1191
17099SOL    HW151875   4.773   6.334   2.701 -0.3690  0.4275  0.2487
17099SOL    HW251876   4.850   6.263   2.811 -0.9552 -0.3765  0.1484
17100SOL     OW51877   2.057   4.615   1.661 -0.4092 -0.0895 -0.2733
17100SOL    HW151878   2.019   4.535   1.624 -2.2263 -0.0556  1.3502
17100SOL    HW251879   2.022   4.685   1.606 -0.1636 -0.2856 -0.6841
17101SOL     OW51880   6.392   8.803   2.065 -1.0017  0.0560  0.2557
17101SOL    HW151881   6.395   8.710   2.041 -1.7266  0.0179  0.2803
17101SOL    HW251882   6.477   8.820   2.106 -1.1513 -0.7853  0.9460
17102SOL     OW51883   1.574   4.588   8.058  0.2631  0.1207 -0.0010
17102SOL    HW151884   1.482   4.569   8.076  0.3644  0.5650  1.0244
17102SOL    HW251885   1.594   4.664   8.112  1.2031  0.1050 -0.3113
17103SOL     OW51886   8.044   9.095   6.031  0.0122 -0.1598  0.8379
17103SOL    HW151887   8.021   9.153   5.958 -2.4363 -0.8340  0.9915
17103SOL    HW251888   8.140   9.094   6.031  0.3391 -2.7385 -4.5184
17104SOL     OW51889   1.703   4.127   5.238 -0.1290 -0.2387  0.0879
17104SOL    HW151890   1.786   4.163   5.205 -0.9363  1.6121 -0.0579
17104SOL    HW251891   1.684   4.054   5.180 -1.5449  2.9124 -3.9192
17105SOL     OW51892   2.810   1.238   0.379 -0.5656  0.1552  0.2110
17105SOL    HW151893   2.753   1.261   0.453 -0.5455  0.6372  0.0756
17105SOL    HW251894   2.800   1.310   0.317 -0.0551  0.0854  0.0432
17106SOL     OW51895   7.828   7.081   3.194 -0.4918 -0.3151 -0.0152
17106SOL    HW151896   7.820   7.128   3.277 -2.0284 -0.8215  0.1587
17106SOL    HW251897   7.801   6.991   3.214  0.3042 -0.7469 -0.8093
17107SOL     OW51898   5.879   7.592   5.250 -0.0167  0.3140 -0.3895
17107SOL    HW151899   5.858   7.684   5.263  1.5738  0.5122  1.1131
17107SOL    HW251900   5.797   7.546   5.269 -0.3114  1.2946  0.8549
17108SOL     OW51901   5.916   9.218   5.914 -0.1486  0.2014 -0.3178
17108SOL    HW151902   5.993   9.192   5.963 -1.7748 -1.2041  1.6675
17108SOL    HW251903   5.845   9.163   5.948 -2.1179  1.6114 -1.8179
17109SOL     OW51904   1.498   2.328   2.534 -0.1430 -0.0310  0.5907
17109SOL    HW151905   1.556   2.252   2.531  0.3492  0.3630 -0.1647
17109SOL    HW251906   1.515   2.368   2.619 -0.7661 -1.0241  1.2118
17110SOL     OW51907   9.984   8.048   0.514 -0.3957  0.3024  0.0464
17110SOL    HW151908   9.985   8.085   0.602  0.9520 -0.9392  0.5964
17110SOL    HW251909   9.932   7.968   0.522 -0.3732  0.2477 -0.3233
17111SOL     OW51910   8.020   4.508   5.834  0.0256 -0.2733 -0.8084
17111SOL    HW151911   8.028   4.414   5.823  1.9434 -0.3046  0.3744
17111SOL    HW251912   7.973   4.538   5.756 -1.1067 -2.2354 -0.9477
17112SOL     OW51913   1.420   7.294   4.681 -0.6561 -0.1795  1.1552
17112SOL    HW151914   1.406   7.324   4.771  1.6003 -0.3188  1.6213
17112SOL    HW251915   1.488   7.354   4.647 -0.8363 -0.6897 -0.1455
17113SOL     OW51916   9.897   9.166   5.048  0.5167  0.4192  0.2968
17113SOL    HW151917   9.853   9.248   5.023  0.7587  1.2834  2.4639
17113SOL    HW251918   9.836   9.097   5.022  0.5204  1.2159 -2.0371
17114SOL     OW51919   0.675   9.582   2.533 -0.0398  0.0363  0.0771
17114SOL    HW151920   0.717   9.660   2.499  1.1044  0.5187  2.3810
17114SOL    HW251921   0.615   9.614   2.600  0.0095 -1.0152  0.6477
17115SOL     OW51922   9.455   7.144   4.828 -0.1237 -0.7914 -0.3293
17115SOL    HW151923   9.481   7.054   4.846  0.8116 -0.4707 -0.0552
17115SOL    HW251924   9.449   7.185   4.914 -0.6490 -0.6148 -0.4486
17116SOL     OW51925   6.039   4.545   9.447  0.3403 -0.2289  0.2495
17116SOL    HW151926   6.112   4.515   9.500 -0.1146  0.1318  1.1055
17116SOL    HW251927   5.962   4.502   9.485 -0.4633  2.6187  2.1003
17117SOL     OW51928   1.550   9.352   6.874 -0.5396  0.0998  0.1380
17117SOL    HW151929   1.511   9.359   6.787 -2.0588  1.0572  0.8523
17117SOL    HW251930   1.552   9.442   6.907  0.4349 -0.1892  0.9364
17118SOL     OW51931   2.269   7.121   3.723  0.3791  0.1939 -0.1609
17118SOL    HW151932   2.243   7.168   3.802  1.8962  0.8599 -0.0226
17118SOL    HW251933   2.225   7.167   3.652  0.0899  0.4416  0.1788
17119SOL     OW51934   4.318   0.901   7.528 -0.1119  0.2031  0.3617
17119SOL    HW151935   4.352   0.814   7.548  0.3629  0.2737 -0.1020
17119SOL    HW251936   4.327   0.908   7.433  1.2307  1.3157  0.5394
17120SOL     OW51937   4.515   0.091   4.714 -0.2877  0.0916  0.4682
17120SOL    HW151938   4.600   0.135   4.718 -0.5750  0.6815  0.3033
17120SOL    HW251939   4.501   0.055   4.801 -0.4419  1.1115  0.8824
17121SOL     OW51940   4.139   0.066   5.071  0.5626  0.4907 -0.0629
17121SOL    HW151941   4.144   0.161   5.083 -1.4318  0.9316 -1.8613
17121SOL    HW251942   4.183   0.029   5.147 -0.0053  2.8513  1.5272
17122SOL     OW51943   8.380   5.681   7.761  0.3105 -0.4752  0.2166
17122SOL    HW151944   8.352   5.679   7.670  1.7409 -1.1629 -0.2254
17122SOL    HW251945   8.416   5.769   7.773  1.0347 -0.7093 -0.1825
17123SOL     OW51946   8.439   2.651   5.272 -0.1891  0.3847  0.0229
17123SOL    HW151947   8.467   2.607   5.353  2.4282 -1.1891 -1.5557
17123SOL    HW251948   8.404   2.735   5.301 -0.7485 -0.7015  2.8637
17124SOL     OW51949   5.914   7.352   8.504 -0.3299  0.6026  0.1030
17124SOL    HW151950   5.866   7.364   8.422  1.0540  0.1070 -0.8231
17124SOL    HW251951   5.849   7.315   8.564 -1.2213  0.3654 -0.9585
17125SOL     OW51952   6.178   6.463   8.315  0.7682 -0.0222  0.8810
17125SOL    HW151953   6.217   6.523   8.379 -1.6042  1.9805  0.6091
17125SOL    HW251954   6.116   6.517   8.267 -1.2386 -2.6254  0.3381
17126SOL     OW51955   3.673   4.262   2.006 -0.9995 -0.0833  0.0167
17126SOL    HW151956   3.703   4.172   2.010 -0.0219  0.2652  0.8648
17126SOL    HW251957   3.639   4.272   1.916 -1.3200 -1.3289 -0.0221
17127SOL     OW51958   6.450   0.923   9.924  0.6798  0.3511  0.2552
17127SOL    HW151959   6.513   0.859   9.958  0.7169  0.9507  1.3834
17127SOL    HW251960   6.441   0.987   9.995 -0.4273  0.8295 -0.2946
17128SOL     OW51961   7.296   1.364   3.542  0.1765 -0.6884 -0.3620
17128SOL    HW151962   7.364   1.298   3.556 -2.0867 -2.8531  1.1605
17128SOL    HW251963   7.330   1.443   3.584  3.2961 -0.4704 -2.8787
17129SOL     OW51964   0.218   5.983   7.066  0.1836  0.3986  0.1603
17129SOL    HW151965   0.228   6.018   7.155  0.6114 -1.7338  1.0088
17129SOL    HW251966   0.129   5.946   7.065  0.5415 -0.4774  0.0567
17130SOL     OW51967   5.316   9.791   3.493 -0.4425 -0.4745  0.2333
17130SOL    HW151968   5.334   9.753   3.579 -0.3799 -1.1201 -0.0603
17130SOL    HW251969   5.224   9.816   3.497 -1.1207 -2.6581 -0.2927
17131SOL     OW51970   0.773   7.997   9.918 -0.4835  0.2883 -0.0356
17131SOL    HW151971   0.757   7.925   9.979  1.2053 -0.6707 -0.6665
17131SOL    HW251972   0.799   8.071   9.973 -0.3102 -0.1682  0.5023
17132SOL     OW51973   3.035   1.802   1.514 -0.5744  0.3903 -0.9803
17132SOL    HW151974   2.989   1.816   1.596  1.7047  0.5311  0.3359
17132SOL    HW251975   2.997   1.867   1.454 -0.9791  1.5623  0.5001
17133SOL     OW51976   6.526   2.015   4.516 -0.4563 -0.3358 -0.0142
17133SOL    HW151977   6.503   1.936   4.467  1.0350 -0.9094  0.1722
17133SOL    HW251978   6.621   2.014   4.520 -0.3137  2.2096 -1.1837
17134SOL     OW51979   3.195   5.131   6.211  0.0198  0.1047  0.5412
17134SOL    HW151980   3.156   5.195   6.271  0.1328 -0.0652  0.8007
17134SOL    HW251981   3.204   5.051   6.264  0.4293  0.0508  0.3947
17135SOL     OW51982   1.209   0.194   2.460 -0.4388  0.4464  0.5902
17135SOL    HW151983   1.215   0.274   2.407  0.6137 -0.6634 -1.0963
17135SOL    HW251984   1.284   0.199   2.519  1.8763 -0.8351 -1.9704
17136SOL     OW51985   1.739   6.062   5.680 -0.4300 -0.0806 -0.0620
17136SOL    HW151986   1.702   6.021   5.601 -1.1304 -0.4548  0.4491
17136SOL    HW251987   1.663   6.096   5.727  0.0559  0.9155  0.0317
17137SOL     OW51988   9.625   1.368   7.714 -0.1954 -0.0223 -0.4338
17137SOL    HW151989   9.582   1.303   7.657 -0.5451  0.8830 -1.2211
17137SOL    HW251990   9.701   1.322   7.749 -0.8657 -1.1140 -0.3619
17138SOL     OW51991   2.426   8.842   3.040  0.2466  0.1597 -0.4294
17138SOL    HW151992   2.335   8.871   3.044  0.5390  1.3165 -1.4010
17138SOL    HW251993   2.470   8.908   2.986  1.7410 -0.1763  0.3087
17139SOL     OW51994   9.314   9.292   1.878  0.2897 -0.0191  0.6498
17139SOL    HW151995   9.407   9.310   1.868  0.2555 -0.0032  0.3530
17139SOL    HW251996   9.308   9.197   1.879  0.2897 -0.0215  0.4735
17140SOL     OW51997   8.477   3.676   5.650 -0.1057 -0.4287  0.1259
17140SOL    HW151998   8.446   3.737   5.717 -0.9402 -0.2455 -0.4064
17140SOL    HW251999   8.456   3.719   5.567  1.7793 -0.2196 -0.2786
17141SOL     OW52000   8.766   1.568   4.668 -0.2925 -0.8540 -0.3532
17141SOL    HW152001   8.824   1.603   4.600 -0.1484 -1.8070 -0.7387
17141SOL    HW252002   8.739   1.645   4.718 -1.2211  0.0248 -2.1027
17142SOL     OW52003   2.501   9.315   1.611  0.0669 -0.0077  0.0088
17142SOL    HW152004   2.562   9.241   1.604 -0.0272 -0.1796  0.8670
17142SOL    HW252005   2.526   9.358   1.693  0.6468  1.4009 -0.8747
17143SOL     OW52006   5.537   8.789   7.631 -0.1472  0.9877 -0.0787
17143SOL    HW152007   5.446   8.759   7.629  0.0384  0.4296 -1.2269
17143SOL    HW252008   5.560   8.791   7.724 -0.8356 -0.4100  0.1492
17144SOL     OW52009   5.573   0.459   9.104  0.1392  0.5899 -0.0022
17144SOL    HW152010   5.556   0.553   9.108 -0.3928  0.5040 -0.2191
17144SOL    HW252011   5.490   0.420   9.080 -0.7789 -0.3077  3.8413
17145SOL     OW52012   6.160   1.329   9.436  0.3875  0.3101 -0.7152
17145SOL    HW152013   6.107   1.299   9.362 -0.8597  1.1518 -0.2042
17145SOL    HW252014   6.251   1.316   9.409 -0.0773 -0.5035 -1.9080
17146SOL     OW52015   5.210   4.657   8.710 -0.1894  0.4358  1.1876
17146SOL    HW152016   5.134   4.716   8.712  0.1860  1.0719 -0.8799
17146SOL    HW252017   5.285   4.716   8.709  0.2903 -0.1556  1.7615
17147SOL     OW52018   8.553   5.227   5.062  0.2391 -0.5020 -0.6651
17147SOL    HW152019   8.572   5.236   4.968 -0.5990 -1.2692 -0.9243
17147SOL    HW252020   8.519   5.312   5.088  1.5673  0.0791 -0.7814
17148SOL     OW52021   6.296   5.769   8.561 -0.4941 -0.0311 -0.4340
17148SOL    HW152022   6.226   5.809   8.612  0.3020  0.6056  0.1847
17148SOL    HW252023   6.288   5.675   8.580 -0.8106  0.0958  0.0914
17149SOL     OW52024   0.410   8.796   9.511 -0.0769 -0.3370 -0.4071
17149SOL    HW152025   0.326   8.779   9.469  0.6043  2.1011 -3.0909
17149SOL    HW252026   0.393   8.866   9.573 -0.2452 -0.7534  0.0222
17150SOL     OW52027   7.566   6.985   2.309 -0.1326  0.3302  1.1262
17150SOL    HW152028   7.532   6.973   2.398  0.2419  0.5014  1.2947
17150SOL    HW252029   7.590   7.078   2.304  0.8698  0.0965  1.2188
17151SOL     OW52030   6.730   1.150   0.539  0.5764 -0.2111 -0.1540
17151SOL    HW152031   6.684   1.066   0.532  0.1513  0.0673 -0.8088
17151SOL    HW252032   6.668   1.209   0.582  1.1513 -0.4186  1.0009
17152SOL     OW52033   2.010   5.560   9.788  0.0767 -0.0149 -0.0964
17152SOL    HW152034   2.042   5.498   9.723  1.1930  1.4755 -1.0335
17152SOL    HW252035   1.971   5.505   9.856  1.7375 -1.7841 -0.4820
17153SOL     OW52036   6.877   6.225   1.653 -0.1977 -0.2140 -0.1313
17153SOL    HW152037   6.896   6.261   1.566 -0.4895 -0.5912 -0.3542
17153SOL    HW252038   6.838   6.139   1.636 -0.5781 -0.1473  0.3615
17154SOL     OW52039   6.694   8.988   8.378 -0.0573 -0.2604 -0.0788
17154SOL    HW152040   6.701   8.927   8.304 -0.3889 -1.9539  1.2144
17154SOL    HW252041   6.705   8.932   8.456  0.2224  1.4485  1.1577
17155SOL     OW52042   8.232   2.763   6.553  0.1869 -0.3433  0.1047
17155SOL    HW152043   8.269   2.836   6.503 -2.5387  2.3417  1.6602
17155SOL    HW252044   8.143   2.791   6.573 -0.3474 -3.2974  2.5249
17156SOL     OW52045   0.183   5.376   4.799 -0.4170  0.0436  0.2109
17156SOL    HW152046   0.217   5.437   4.865 -1.9967  1.1038  0.0788
17156SOL    HW252047   0.088   5.377   4.811 -0.4873 -3.7706  1.4096
17157SOL     OW52048   7.677   1.955   8.598 -0.0440  0.4740 -0.2696
17157SOL    HW152049   7.767   1.988   8.590  0.4094 -1.0258 -2.6336
17157SOL    HW252050   7.669   1.929   8.689  2.9747 -1.9049 -0.5063
17158SOL     OW52051   7.041   7.153   4.761 -0.2947  0.1568  0.1035
17158SOL    HW152052   7.000   7.111   4.685  0.2686 -1.1240  0.4860
17158SOL    HW252053   6.968   7.172   4.819 -0.6118  0.1155 -0.2748
17159SOL     OW52054   9.242   8.122   0.909  0.1399  0.6953 -0.5665
17159SOL    HW152055   9.190   8.202   0.907  1.5639  1.6599 -1.9103
17159SOL    HW252056   9.254   8.103   1.002  1.9349  3.6044 -0.0564
17160SOL     OW52057   9.556   0.827   4.961  0.3231 -0.1040  0.7382
17160SOL    HW152058   9.643   0.865   4.953  0.8743 -1.6147 -1.0534
17160SOL    HW252059   9.497   0.893   4.924  1.1261 -0.4254 -1.2387
17161SOL     OW52060   4.929   0.790   9.390  0.1880  0.0080  0.2520
17161SOL    HW152061   4.998   0.846   9.425 -0.7048 -0.0877  2.3576
17161SOL    HW252062   4.862   0.851   9.360 -0.3285  0.1264  1.5664
17162SOL     OW52063   5.201   7.194   3.274  0.0367 -0.0406 -0.1965
17162SOL    HW152064   5.191   7.237   3.360  0.2772 -1.2318  0.4521
17162SOL    HW252065   5.138   7.238   3.218 -1.6026 -0.6046  1.1400
17163SOL     OW52066   3.298   8.260   9.048  0.2623 -0.1991  0.6119
17163SOL    HW152067   3.233   8.210   8.998 -0.1868 -0.8211  1.7692
17163SOL    HW252068   3.294   8.223   9.136  0.0229  1.7794  1.4893
17164SOL     OW52069   2.293   0.555   9.788 -0.1215 -0.4823  0.0164
17164SOL    HW152070   2.219   0.552   9.850 -0.6450  1.7199 -0.4258
17164SOL    HW252071   2.296   0.466   9.752 -2.6307 -0.6504 -0.0168
17165SOL     OW52072   7.218   2.567   0.470  0.3130 -0.0709 -0.1127
17165SOL    HW152073   7.292   2.576   0.411 -0.0282  0.6268 -0.4438
17165SOL    HW252074   7.172   2.651   0.465  0.2973  0.0188  1.1633
17166SOL     OW52075   7.918   8.404   9.690  0.2822 -0.3293  0.3822
17166SOL    HW152076   7.985   8.456   9.735 -0.6304  3.1724 -1.9049
17166SOL    HW252077   7.858   8.378   9.760  0.8429  1.7281  1.7482
17167SOL     OW52078   4.100   0.704   8.978  0.5000  0.5998 -0.2667
17167SOL    HW152079   4.080   0.724   9.070  0.8048  2.5988 -0.6036
17167SOL    HW252080   4.093   0.788   8.933  1.8658 -0.0678 -1.8115
17168SOL     OW52081   2.176   4.202   7.656 -0.3584  0.0784  0.3158
17168SOL    HW152082   2.091   4.237   7.630 -0.4395 -0.5109 -0.2382
17168SOL    HW252083   2.235   4.223   7.584 -0.9288 -2.8898 -1.1553
17169SOL     OW52084   4.796   8.853   2.293 -0.2743 -0.1857 -0.4054
17169SOL    HW152085   4.877   8.848   2.242  0.1892 -2.3080  0.4297
17169SOL    HW252086   4.743   8.780   2.261 -0.8482 -0.2720  0.7079
17170SOL     OW52087   7.408   7.074   3.167  0.3930  0.3450  0.7457
17170SOL    HW152088   7.442   7.116   3.088  0.9534 -0.1521  0.7149
17170SOL    HW252089   7.361   7.143   3.213 -0.0438  0.6120 -0.0839
17171SOL     OW52090   8.516   6.092   7.057  0.3326  0.1184 -0.2300
17171SOL    HW152091   8.606   6.057   7.057  0.8462  1.3833 -0.7965
17171SOL    HW252092   8.500   6.114   6.965 -0.7227 -0.4532 -0.1958
17172SOL     OW52093   0.643   3.118   4.718 -0.3510  0.5930 -0.4129
17172SOL    HW152094   0.696   3.107   4.797  1.6522 -0.4957 -1.8024
17172SOL    HW252095   0.553   3.115   4.749  0.2816 -2.4782  1.6011
17173SOL     OW52096   5.819   9.856   9.302  0.0835 -0.4237 -0.0719
17173SOL    HW152097   5.733   9.880   9.266  0.7141  0.1884 -1.2391
17173SOL    HW252098   5.868   9.938   9.301  0.5818 -0.6973  0.9116
17174SOL     OW52099   6.400   3.099   6.165 -0.1625  0.4197 -0.2104
17174SOL    HW152100   6.388   3.030   6.099 -2.8149 -0.5632  1.1625
17174SOL    HW252101   6.317   3.146   6.166  0.1048  0.9430  1.8386
17175SOL     OW52102   4.468   5.839   1.545 -0.5084  0.4276 -0.4078
17175SOL    HW152103   4.400   5.818   1.608 -1.5332  0.4221 -1.4966
17175SOL    HW252104   4.514   5.756   1.530 -1.7056 -0.0941 -1.3415
17176SOL     OW52105   9.437   8.211   7.658  0.0157 -0.7776 -0.1605
17176SOL    HW152106   9.498   8.284   7.669 -0.2618 -0.3161 -1.4876
17176SOL    HW252107   9.493   8.137   7.635  0.2519 -0.8884  0.7148
17177SOL     OW52108   5.763   3.376   7.819 -0.4274  0.5668  0.3523
17177SOL    HW152109   5.719   3.325   7.750  0.9442 -0.1049 -0.0515
17177SOL    HW252110   5.811   3.311   7.870 -2.5543  0.8265  2.9195
17178SOL     OW52111   8.123   4.410   1.178  0.5439 -0.6686  0.0655
17178SOL    HW152112   8.035   4.429   1.211  1.4097 -0.4984  2.4814
17178SOL    HW252113   8.149   4.489   1.132  0.0131 -0.1030  0.7097
17179SOL     OW52114   4.324   9.656   9.140  0.8984  0.3490 -0.1498
17179SOL    HW152115   4.253   9.668   9.077  0.6463  0.5771  0.1753
17179SOL    HW252116   4.376   9.736   9.133 -0.0752  1.1272  1.1201
17180SOL     OW52117   5.440   4.420   4.402  0.5470 -0.7769 -0.2057
17180SOL    HW152118   5.450   4.502   4.354 -0.6019 -0.3165  0.3159
17180SOL    HW252119   5.502   4.427   4.475  0.5866 -0.4491 -0.2684
17181SOL     OW52120   3.182   1.690   3.529 -0.7533  0.2195 -0.1332
17181SOL    HW152121   3.149   1.775   3.559 -3.9390  0.3941 -3.3935
17181SOL    HW252122   3.217   1.707   3.441  1.1218 -1.4333  0.2218
17182SOL     OW52123   3.899   0.434   9.313  0.0957  0.3584  0.4017
17182SOL    HW152124   3.960   0.506   9.329 -1.7824  1.9944  0.5855
17182SOL    HW252125   3.955   0.360   9.290  2.1044  2.0852 -0.6838
17183SOL     OW52126   3.592   7.324   8.204  0.0687  0.2002 -0.6111
17183SOL    HW152127   3.515   7.378   8.185 -0.1896 -0.3095 -1.0534
17183SOL    HW252128   3.656   7.386   8.240 -0.6777  0.5606  0.1303
17184SOL     OW52129   2.339   5.207   3.745 -0.1409 -0.3933  0.2752
17184SOL    HW152130   2.283   5.134   3.773  0.3509 -0.9047 -0.0561
17184SOL    HW252131   2.343   5.200   3.650 -1.9482  1.4517  0.0102
17185SOL     OW52132   8.132   9.889   3.901  0.7660 -0.7023 -0.8889
17185SOL    HW152133   8.057   9.920   3.849  2.3017  2.1059 -1.6461
17185SOL    HW252134   8.194   9.855   3.837  1.0662 -0.8904 -0.5019
17186SOL     OW52135   4.623   5.927   7.831  0.1203 -0.2750  0.4425
17186SOL    HW152136   4.615   6.022   7.843  2.6431 -0.1073  1.3539
17186SOL    HW252137   4.669   5.918   7.747  1.8836 -0.5542  1.4031
17187SOL     OW52138   9.011   3.039   2.256  0.3039  0.5634  0.4325
17187SOL    HW152139   8.959   3.050   2.336 -0.7655 -0.2375 -0.1300
17187SOL    HW252140   9.071   2.968   2.276 -0.9415 -0.6354  0.0807
17188SOL     OW52141   4.754   3.099   8.506 -0.4457  0.4679  0.1136
17188SOL    HW152142   4.734   3.148   8.586 -1.1514 -1.1610  0.9786
17188SOL    HW252143   4.687   3.126   8.444 -1.2770  0.0576  0.8203
17189SOL     OW52144   2.001   3.197   6.744  0.4673 -0.2615  0.0299
17189SOL    HW152145   2.081   3.148   6.725  0.0121 -0.6290 -0.9648
17189SOL    HW252146   1.931   3.134   6.730 -0.1055  0.5602 -0.8354
17190SOL     OW52147   3.986   0.541   0.365  0.3819  0.0822 -0.2637
17190SOL    HW152148   3.934   0.496   0.431  1.0188 -0.7264 -0.2982
17190SOL    HW252149   4.022   0.617   0.411  0.8961 -0.5234  0.3692
17191SOL     OW52150   7.458   4.203   4.025 -0.0241  0.2548 -0.5061
17191SOL    HW152151   7.474   4.124   3.973  1.5103 -0.7960  1.4138
17191SOL    HW252152   7.382   4.181   4.080 -0.2586  0.5268 -0.7176
17192SOL     OW52153   5.485   1.097   6.321  0.1923 -0.0801 -0.3211
17192SOL    HW152154   5.418   1.153   6.359 -0.3819 -0.7298 -0.3480
17192SOL    HW252155   5.562   1.110   6.376 -0.5419 -0.7910  0.9295
17193SOL     OW52156   7.791   2.500   6.340  0.3342 -0.7751 -0.7215
17193SOL    HW152157   7.714   2.550   6.367  0.6374  0.3543 -1.8537
17193SOL    HW252158   7.827   2.466   6.422 -0.7689 -0.4506 -0.0777
17194SOL     OW52159   9.087   6.371   3.536  0.1728 -0.0680  0.4328
17194SOL    HW152160   9.133   6.448   3.570  1.5687 -1.4688  1.9308
17194SOL    HW252161   9.046   6.401   3.455  3.4554  1.4486 -0.8530
17195SOL     OW52162   6.439   7.301   2.581 -0.3934  0.5052  0.2890
17195SOL    HW152163   6.389   7.269   2.505 -0.0229  0.6208 -0.0022
17195SOL    HW252164   6.447   7.224   2.638  0.8949 -0.0597 -0.6192
17196SOL     OW52165   3.116   1.579   1.806  0.5135 -0.2747 -0.4925
17196SOL    HW152166   3.057   1.636   1.757  0.6059  1.2880  1.0876
17196SOL    HW252167   3.063   1.501   1.825 -0.3475  0.1854 -0.9109
17197SOL     OW52168   4.015   7.328   3.562  0.1655 -0.3355  0.3549
17197SOL    HW152169   3.997   7.342   3.469  0.4791 -0.0386  0.3371
17197SOL    HW252170   4.096   7.277   3.563  0.5266  0.2399  0.4786
17198SOL     OW52171   4.705   3.422   0.051  0.1113 -0.2962 -0.0270
17198SOL    HW152172   4.728   3.486  -0.016  1.0396 -1.0324 -0.4370
17198SOL    HW252173   4.657   3.472   0.117  1.8992  1.0894  0.2901
17199SOL     OW52174   1.998   7.398   3.394 -0.0251  0.0619 -0.2704
17199SOL    HW152175   2.074   7.379   3.448  0.3213  0.3822 -0.6376
17199SOL    HW252176   2.034   7.415   3.307 -0.6303 -1.3801 -0.8527
17200SOL     OW52177   9.677   6.898   9.983  0.0485 -0.2183 -0.2975
17200SOL    HW152178   9.701   6.893   9.890  1.9774 -2.2372  0.2303
17200SOL    HW252179   9.646   6.810  10.004  1.4069 -0.3373  1.3801
17201SOL     OW52180   1.026   4.406   3.207 -0.3185  0.0714 -0.4784
17201SOL    HW152181   1.060   4.365   3.128 -0.7295  0.0916 -0.6689
17201SOL    HW252182   1.096   4.397   3.271  0.2368  0.5502 -1.0044
17202SOL     OW52183   1.657   6.421   5.196  0.1346  0.3394 -0.1233
17202SOL    HW152184   1.616   6.342   5.234 -0.5906  0.4086 -0.7489
17202SOL    HW252185   1.733   6.388   5.149 -2.1356 -0.5590 -3.5487
17203SOL     OW52186   1.744   5.197   5.647  0.3348 -0.3589  0.0289
17203SOL    HW152187   1.710   5.284   5.664 -0.3497 -0.6136 -0.0051
17203SOL    HW252188   1.829   5.195   5.690 -0.4865 -0.3289  1.7433
17204SOL     OW52189   1.459   4.267   2.592  0.0687 -0.2724 -0.0535
17204SOL    HW152190   1.408   4.302   2.518 -0.0736 -0.5844 -0.1050
17204SOL    HW252191   1.497   4.186   2.558  0.3339 -0.2069  0.0893
17205SOL     OW52192   8.359   1.247   9.708 -0.0383  0.1550 -0.3027
17205SOL    HW152193   8.385   1.187   9.637 -0.5377 -0.1432 -0.2409
17205SOL    HW252194   8.270   1.219   9.730  0.7989 -1.0788  1.8062
17206SOL     OW52195   5.564   3.774   6.563  0.0385  0.1263 -0.0207
17206SOL    HW152196   5.531   3.718   6.493  1.2235 -0.0664 -0.4472
17206SOL    HW252197   5.648   3.736   6.587 -1.0569 -0.7922  2.6852
17207SOL     OW52198   7.201   7.853   4.807  0.0708  0.2270 -0.8388
17207SOL    HW152199   7.170   7.889   4.890  1.0748 -2.4188  0.8086
17207SOL    HW252200   7.297   7.854   4.815  0.1604 -0.8982 -1.5652
17208SOL     OW52201   6.741   7.141   3.201 -0.8103 -0.1691  0.3167
17208SOL    HW152202   6.814   7.202   3.213  0.1777 -1.5144  1.5376
17208SOL    HW252203   6.670   7.177   3.255 -0.9113  0.8836 -0.4903
17209SOL     OW52204   4.261   5.799   5.202 -0.0616  0.0725  0.0074
17209SOL    HW152205   4.339   5.829   5.155 -1.3191  2.1642 -0.8448
17209SOL    HW252206   4.226   5.729   5.146 -0.9369  1.7959 -1.7099
17210SOL     OW52207   3.785   2.119   5.682 -0.2418  0.6105 -0.3444
17210SOL    HW152208   3.756   2.088   5.768 -1.8466  3.9546  0.5075
17210SOL    HW252209   3.875   2.148   5.696 -0.4081  0.8976  0.1808
17211SOL     OW52210   9.915   3.617   6.457  0.3576  0.0884 -0.3569
17211SOL    HW152211   9.878   3.657   6.379 -0.2094  0.6658  0.1912
17211SOL    HW252212   9.956   3.536   6.426  1.6477  1.1329 -1.5204
17212SOL     OW52213   9.429   8.384   3.141 -0.6540 -0.0960 -0.1292
17212SOL    HW152214   9.361   8.451   3.129 -4.2702 -3.1896  1.1991
17212SOL    HW252215   9.462   8.398   3.229 -0.6934  0.4948 -0.2062
17213SOL     OW52216   2.737   8.448   0.926 -0.4353 -0.2327  0.4833
17213SOL    HW152217   2.831   8.434   0.938  0.0734  1.8276 -0.7365
17213SOL    HW252218   2.712   8.505   0.998 -0.4023  0.5239 -0.0999
17214SOL     OW52219   4.533   1.242   9.968 -0.2068  0.4883 -0.1408
17214SOL    HW152220   4.453   1.286   9.996 -1.3128 -0.2671 -1.9372
17214SOL    HW252221   4.507   1.192   9.890  1.8980 -0.1956 -0.4685
17215SOL     OW52222   6.425   8.787   5.399  0.5918 -0.1645 -0.4717
17215SOL    HW152223   6.399   8.729   5.328  0.2922 -0.5129 -0.0853
17215SOL    HW252224   6.407   8.736   5.479 -0.6844  0.8452 -0.0771
17216SOL     OW52225   3.151   7.141   2.214 -0.3367 -0.1094  0.0758
17216SOL    HW152226   3.092   7.187   2.155 -0.2295 -0.1360 -0.0524
17216SOL    HW252227   3.120   7.164   2.302 -1.2955 -1.1133  0.0162
17217SOL     OW52228   3.088   9.040   9.988  0.0055  0.0182  0.1466
17217SOL    HW152229   3.127   9.002   9.910 -1.2416 -0.2042 -0.3868
17217SOL    HW252230   3.136   9.122  10.001 -0.0002  0.2279 -1.0552
17218SOL     OW52231   8.616   5.309   6.246  0.3872 -0.3088 -0.1401
17218SOL    HW152232   8.666   5.276   6.321 -0.5109 -2.8947 -0.5650
17218SOL    HW252233   8.538   5.349   6.285  0.7051 -0.1630  0.3584
17219SOL     OW52234   2.405   8.378   0.967  0.1331 -0.0348 -0.7058
17219SOL    HW152235   2.340   8.308   0.970 -0.7828  0.6658 -2.3035
17219SOL    HW252236   2.466   8.358   1.037 -1.0613 -1.4724 -0.0202
17220SOL     OW52237   0.067   9.866   6.313 -0.3104  0.1827  0.2697
17220SOL    HW152238   0.089   9.958   6.299  1.7440 -0.0322  1.6351
17220SOL    HW252239   0.070   9.855   6.408 -0.4537 -1.3166  0.1245
17221SOL     OW52240   5.809   7.871   0.908 -0.6458  0.1799 -0.7511
17221SOL    HW152241   5.733   7.919   0.875 -0.3766  2.1353  1.3225
17221SOL    HW252242   5.883   7.929   0.893  0.1353 -0.7550 -0.6611
17222SOL     OW52243   8.350   4.831   9.167  0.4336  0.2886  0.2236
17222SOL    HW152244   8.432   4.801   9.205  0.2477 -1.2819 -0.5431
17222SOL    HW252245   8.374   4.907   9.113  1.0040  1.2590  1.7617
17223SOL     OW52246   0.048   8.295   1.903  0.5943 -0.1263 -0.4188
17223SOL    HW152247   0.020   8.227   1.842 -0.8068  0.1122 -0.0926
17223SOL    HW252248   0.137   8.317   1.876  1.2618 -2.3850 -0.2379
17224SOL     OW52249   8.082   7.090   1.597 -0.7519  0.0073 -0.1281
17224SOL    HW152250   8.137   7.160   1.631  1.6473 -1.3364 -0.9872
17224SOL    HW252251   8.028   7.131   1.530 -0.3231  1.2576  0.2748
17225SOL     OW52252   9.215   5.673   1.330  0.1699  0.6084  0.4993
17225SOL    HW152253   9.237   5.764   1.350  0.9026 -0.0162  2.8204
17225SOL    HW252254   9.260   5.622   1.397  0.7378 -1.5942 -1.4180
17226SOL     OW52255   0.224   2.321   8.211 -0.1861 -0.0630 -0.0194
17226SOL    HW152256   0.233   2.239   8.258  0.5381  0.2241  0.3458
17226SOL    HW252257   0.290   2.379   8.249 -0.7007  0.6959 -0.2534
17227SOL     OW52258   4.463   8.593   7.102 -0.1723 -0.3536  0.4363
17227SOL    HW152259   4.545   8.550   7.081  0.1575  1.3012 -2.0729
17227SOL    HW252260   4.399   8.522   7.108  1.3497 -1.6634  2.3814
17228SOL     OW52261   2.396   1.424   0.840  1.0425  0.6145 -0.6261
17228SOL    HW152262   2.396   1.370   0.919  2.4748  0.3105 -0.8080
17228SOL    HW252263   2.488   1.428   0.813  0.6272  0.9561 -2.1143
17229SOL     OW52264   9.821   4.156   1.522  0.4273  0.3052  0.0949
17229SOL    HW152265   9.744   4.213   1.524  1.1636  1.3126  0.1558
17229SOL    HW252266   9.876   4.191   1.452  0.4315 -0.9630 -0.5650
17230SOL     OW52267   3.127   1.667   8.572  0.1920  0.0094  0.0058
17230SOL    HW152268   3.120   1.604   8.644 -0.5930 -1.0218 -0.9525
17230SOL    HW252269   3.221   1.686   8.567  0.2732  0.0333  1.2305
17231SOL     OW52270   0.227   5.110   3.853  1.0068  0.3584 -0.0924
17231SOL    HW152271   0.296   5.047   3.832  0.9608  0.0560  0.6438
17231SOL    HW252272   0.265   5.195   3.829  1.0078  0.0606 -1.2413
17232SOL     OW52273   9.639   1.241   1.509 -0.3220 -0.2692  0.0784
17232SOL    HW152274   9.664   1.321   1.464  0.2633  0.0374  0.9274
17232SOL    HW252275   9.719   1.211   1.551 -1.1949  0.3629  2.3026
17233SOL     OW52276   7.658   4.176   2.743 -0.1945 -0.2168 -0.2467
17233SOL    HW152277   7.581   4.207   2.695 -1.3955 -0.5025  1.4027
17233SOL    HW252278   7.722   4.155   2.675 -1.5604  0.0484 -1.6746
17234SOL     OW52279   6.143   4.262   4.158 -0.2064  0.2675 -0.3881
17234SOL    HW152280   6.130   4.329   4.091  0.3234  1.5088  0.7165
17234SOL    HW252281   6.055   4.236   4.184 -0.4479  1.5568  0.1546
17235SOL     OW52282   8.743   7.896   7.414  0.2595  0.4432 -0.9544
17235SOL    HW152283   8.826   7.895   7.461  0.5537  0.4000 -1.4786
17235SOL    HW252284   8.680   7.929   7.479  0.1776 -1.9427  0.3060
17236SOL     OW52285   4.927   4.961   1.624  0.2203  0.0152  0.0462
17236SOL    HW152286   5.002   5.019   1.611  0.0559  0.4788  1.0624
17236SOL    HW252287   4.906   4.969   1.717 -1.8135  0.7895 -0.4318
17237SOL     OW52288   7.361   7.001   2.491  0.1823 -0.1780  0.0045
17237SOL    HW152289   7.350   7.078   2.434  2.0297  0.2695  0.1914
17237SOL    HW252290   7.346   7.034   2.579 -0.8895 -0.4688 -0.0607
17238SOL     OW52291   3.930   9.893   1.987  0.4460  0.2835  0.2749
17238SOL    HW152292   3.979   9.811   1.982  1.0620  0.4181  2.6760
17238SOL    HW252293   3.866   9.888   1.916  0.8146 -2.0184  0.0337
17239SOL     OW52294   6.269   3.899   9.408  0.9898  0.2667 -0.2339
17239SOL    HW152295   6.309   3.909   9.322  1.5833  2.2777  0.2113
17239SOL    HW252296   6.333   3.850   9.460  0.4498 -1.3203 -1.0060
17240SOL     OW52297   4.056   9.580   5.416  0.3967  0.4016  0.0806
17240SOL    HW152298   4.083   9.508   5.473 -1.0430  2.3254  3.5216
17240SOL    HW252299   3.960   9.581   5.423  0.3430  2.1611 -0.5299
17241SOL     OW52300   8.127   1.801   1.042  1.0930  0.0983  0.7468
17241SOL    HW152301   8.186   1.760   0.979 -0.0696 -2.4900  1.2182
17241SOL    HW252302   8.136   1.749   1.122 -0.5458  0.6828  1.3602
17242SOL     OW52303   4.490   4.310   6.446 -0.3793 -0.0388 -0.4533
17242SOL    HW152304   4.579   4.344   6.454 -1.6304  3.5940 -0.0335
17242SOL    HW252305   4.478   4.255   6.523  0.8500  1.1448  0.6264
17243SOL     OW52306   1.828   3.571   1.975  0.6141  0.1146 -0.3807
17243SOL    HW152307   1.893   3.640   1.960  0.9233 -0.2113 -0.5559
17243SOL    HW252308   1.765   3.610   2.037  1.1788  0.3071  0.0829
17244SOL     OW52309   9.697   9.072   9.506 -0.1196  0.0451  0.6582
17244SOL    HW152310   9.652   9.121   9.576  1.0257  0.9621  0.7743
17244SOL    HW252311   9.789   9.075   9.530 -0.0092 -2.4850  0.8283
17245SOL     OW52312   3.095   1.118   3.051  0.4254  0.6151 -0.2385
17245SOL    HW152313   3.118   1.211   3.048  0.6647  0.5398 -1.6514
17245SOL    HW252314   3.000   1.117   3.039  0.0906  0.7483  1.9678
17246SOL     OW52315   2.201   8.796   2.378  0.3337 -0.3161  0.6100
17246SOL    HW152316   2.177   8.856   2.449  0.7553  0.8576 -0.2071
17246SOL    HW252317   2.139   8.723   2.386 -0.2188  0.2427  1.6073
17247SOL     OW52318   0.628   2.780   9.297  0.2331 -0.2485  0.1937
17247SOL    HW152319   0.561   2.727   9.253  0.8631  0.6813 -1.9963
17247SOL    HW252320   0.577   2.841   9.351 -0.5479 -1.7061  1.1859
17248SOL     OW52321   0.364   5.733   3.179 -0.0825 -0.3727  0.1445
17248SOL    HW152322   0.410   5.649   3.189 -0.5620 -0.4535  1.9076
17248SOL    HW252323   0.289   5.727   3.239  0.9145  2.0365  1.7761
17249SOL     OW52324   4.840   6.461   1.403 -0.4581 -0.0132  0.0298
17249SOL    HW152325   4.844   6.433   1.494 -0.4439  0.7774  0.2776
17249SOL    HW252326   4.747   6.461   1.381 -0.4160 -0.8748 -0.1744
17250SOL     OW52327   7.146   6.064   3.216  0.3067 -0.0631 -0.2816
17250SOL    HW152328   7.223   6.087   3.269 -1.0724  1.4415  1.1631
17250SOL    HW252329   7.106   6.148   3.194 -1.0095 -0.8245 -0.9107
17251SOL     OW52330   3.316   4.839   2.073 -0.3816  0.0703 -0.0427
17251SOL    HW152331   3.344   4.924   2.039 -1.9183  0.3890 -0.5852
17251SOL    HW252332   3.240   4.816   2.020  0.3879 -1.9672 -0.3462
17252SOL     OW52333   9.480   7.541   6.124  0.4168 -0.3450 -0.1258
17252SOL    HW152334   9.443   7.623   6.157 -1.1577 -0.0388 -2.4326
17252SOL    HW252335   9.511   7.496   6.203 -0.1436  1.7231  1.3772
17253SOL     OW52336   1.132   2.101   8.227  0.0451 -0.1983 -0.1370
17253SOL    HW152337   1.190   2.040   8.273 -0.0163 -0.1981 -0.0581
17253SOL    HW252338   1.044   2.072   8.249  0.0132  0.1169  0.1723
17254SOL     OW52339   5.920   2.562   4.475  0.0349  0.2223 -0.0953
17254SOL    HW152340   5.938   2.647   4.516  0.2086  0.5055 -0.7447
17254SOL    HW252341   5.872   2.584   4.394 -0.1665 -0.3149 -0.1239
17255SOL     OW52342   2.648   8.878   9.247  0.2938 -0.6999  0.1761
17255SOL    HW152343   2.673   8.959   9.204  0.9381 -0.8878  0.1903
17255SOL    HW252344   2.681   8.809   9.190 -0.7528 -0.9697 -0.1359
17256SOL     OW52345   7.210   8.860   6.284 -0.1494 -0.0835  0.1606
17256SOL    HW152346   7.264   8.826   6.356 -0.6114 -1.0211  0.0792
17256SOL    HW252347   7.258   8.937   6.252  1.1371 -0.8764  0.1110
17257SOL     OW52348   2.562   8.990   6.245 -0.5426 -0.5409 -0.8399
17257SOL    HW152349   2.467   8.990   6.231 -0.5562 -1.3901 -0.7974
17257SOL    HW252350   2.582   8.902   6.276 -0.1163  0.3543  1.7376
17258SOL     OW52351   7.520   5.616   5.627 -0.0391 -0.6077 -0.1354
17258SOL    HW152352   7.464   5.548   5.665 -0.3067 -1.0055 -1.2093
17258SOL    HW252353   7.599   5.569   5.598  0.0064 -0.3748 -0.3967
17259SOL     OW52354   7.701   3.405   8.299 -0.1637  0.4213  0.3377
17259SOL    HW152355   7.624   3.373   8.347  0.3549 -0.7995  0.3982
17259SOL    HW252356   7.774   3.353   8.334  0.7553  1.7556  0.4911
17260SOL     OW52357   9.646   1.717   3.252 -0.0329  0.3753 -0.1446
17260SOL    HW152358   9.689   1.714   3.337 -0.8923 -1.1373  0.2750
17260SOL    HW252359   9.563   1.762   3.268 -0.6662 -0.8230  0.0791
17261SOL     OW52360   8.146   7.062   5.160 -0.2644  0.4764  0.3419
17261SOL    HW152361   8.172   7.138   5.108 -0.7331  0.8374  0.6303
17261SOL    HW252362   8.084   7.015   5.105  1.0217 -0.4383 -0.3886
17262SOL     OW52363   3.396   9.588   0.985 -0.2570 -0.1308  0.2372
17262SOL    HW152364   3.466   9.565   0.923  0.7904 -0.9652  1.6566
17262SOL    HW252365   3.434   9.657   1.039 -1.2372  0.7351 -0.1519
17263SOL     OW52366   8.665   0.556   2.205 -0.2219 -0.0415 -0.0634
17263SOL    HW152367   8.750   0.514   2.204 -0.2959 -0.3330  1.7571
17263SOL    HW252368   8.684   0.650   2.195  0.1106 -0.2705 -1.8215
17264SOL     OW52369   3.324   3.153   1.745  0.2037 -0.2152 -0.8785
17264SOL    HW152370   3.267   3.108   1.808  0.6911 -0.6422 -0.7328
17264SOL    HW252371   3.408   3.108   1.753  0.9800  1.3093 -0.0724
17265SOL     OW52372   5.028   6.892   0.530 -0.1523  0.0952  0.2300
17265SOL    HW152373   5.105   6.947   0.511  0.0332  0.4426  1.8581
17265SOL    HW252374   5.062   6.802   0.528  0.4483  0.2720  1.4483
17266SOL     OW52375   5.535   4.045   8.072  0.0913 -0.1441  0.6629
17266SOL    HW152376   5.449   4.072   8.105 -0.4182 -1.3498  0.3706
17266SOL    HW252377   5.543   3.953   8.097  0.4056 -0.6350 -1.0939
17267SOL     OW52378   4.290   4.790   9.711 -0.0967 -0.0983 -0.0064
17267SOL    HW152379   4.262   4.701   9.734  0.1181  0.1770  1.3790
17267SOL    HW252380   4.363   4.777   9.651 -1.2328 -0.8290 -1.3056
17268SOL     OW52381   9.197   0.879   4.870  0.4651  0.8154  0.4946
17268SOL    HW152382   9.278   0.928   4.855  1.4040 -0.7275  0.3623
17268SOL    HW252383   9.155   0.876   4.784  2.0139 -1.3335 -0.2691
17269SOL     OW52384   0.757   4.555   0.935 -0.4548 -0.1172  0.0447
17269SOL    HW152385   0.704   4.487   0.977 -2.2109  0.0093 -1.8115
17269SOL    HW252386   0.731   4.636   0.979  1.0129 -0.4791  1.6761
17270SOL     OW52387   7.984   9.802   8.000  0.3382  0.1944  0.0253
17270SOL    HW152388   8.037   9.737   7.954 -1.7471 -0.1738 -2.0887
17270SOL    HW252389   7.973   9.873   7.936 -0.1566  1.1095  1.0953
17271SOL     OW52390   2.515   8.392   7.192  0.6442 -0.1563  0.5847
17271SOL    HW152391   2.470   8.472   7.163  0.3732 -0.4151  0.2903
17271SOL    HW252392   2.497   8.328   7.124  1.7509 -0.1719  0.2894
17272SOL     OW52393   5.659   7.676   1.476  0.2522  0.1176 -0.2665
17272SOL    HW152394   5.703   7.648   1.557  0.0272  0.1216 -0.1427
17272SOL    HW252395   5.617   7.597   1.444  0.0858  0.1867 -0.2168
17273SOL     OW52396   4.987   9.506   3.799 -0.3572 -0.3708 -0.0537
17273SOL    HW152397   4.902   9.548   3.808 -0.3074 -0.1839 -0.4492
17273SOL    HW252398   4.967   9.414   3.780 -0.4869 -0.1406 -1.1039
17274SOL     OW52399   1.058   3.816   8.189  0.3040 -0.9406  0.0651
17274SOL    HW152400   1.153   3.811   8.173  0.1760 -1.3204 -0.6184
17274SOL    HW252401   1.019   3.792   8.105 -0.4027 -0.3325  0.2132
17275SOL     OW52402   4.686   5.120   0.226 -0.1389  0.4153 -0.3171
17275SOL    HW152403   4.667   5.195   0.169 -1.8115  1.2663  1.2494
17275SOL    HW252404   4.620   5.055   0.203  1.3568 -0.6636 -1.7252
17276SOL     OW52405   3.993   7.235   6.445  0.2150 -1.2014 -0.1522
17276SOL    HW152406   3.991   7.187   6.528  0.3942 -2.7339 -1.0041
17276SOL    HW252407   3.915   7.207   6.398 -0.4324  0.4365 -0.1169
17277SOL     OW52408   1.314   8.900   9.916  0.2334 -0.2258 -0.1002
17277SOL    HW152409   1.297   8.815   9.957 -1.8449  0.5093  0.7353
17277SOL    HW252410   1.303   8.963   9.988 -1.3674  0.9469 -1.2928
17278SOL     OW52411   7.295   0.869   0.744 -0.2474 -0.1855 -0.1513
17278SOL    HW152412   7.297   0.793   0.803 -0.7742 -0.1040 -0.0220
17278SOL    HW252413   7.231   0.929   0.784  1.6402  1.2437  0.8666
17279SOL     OW52414   7.045   1.967   4.700 -0.1257 -0.5716 -0.5924
17279SOL    HW152415   7.098   1.923   4.634 -0.4377 -0.6203 -0.8146
17279SOL    HW252416   7.033   1.901   4.768 -1.6758 -1.3027 -1.5075
17280SOL     OW52417   6.648   3.254   5.924  0.2059  0.0089 -0.2567
17280SOL    HW152418   6.561   3.248   5.883  0.3465 -0.1470 -0.5351
17280SOL    HW252419   6.694   3.176   5.893  1.2151  1.2174 -1.9207
17281SOL     OW52420   8.136   0.881   9.829 -0.0451 -0.3024 -0.1668
17281SOL    HW152421   8.144   0.839   9.744 -1.9383 -0.0842 -0.4896
17281SOL    HW252422   8.226   0.890   9.860  0.6032 -1.3979 -1.6344
17282SOL     OW52423   7.436   5.075   2.011  0.0260  0.2595  0.3578
17282SOL    HW152424   7.406   5.166   2.021 -0.3970  0.0794  0.7236
17282SOL    HW252425   7.487   5.076   1.930 -0.5583  0.6702 -0.0104
17283SOL     OW52426   4.353   9.734   2.923  0.8986 -0.3590 -0.2462
17283SOL    HW152427   4.383   9.813   2.969  0.5156  0.2300 -0.9846
17283SOL    HW252428   4.286   9.697   2.980  0.8130  0.0608 -0.0728
17284SOL     OW52429   1.993   1.368   4.112 -0.1799  0.1254  0.0615
17284SOL    HW152430   2.046   1.362   4.191  0.4553 -1.4763 -0.4438
17284SOL    HW252431   2.051   1.409   4.047 -0.6897  1.4088  0.3702
17285SOL     OW52432   2.847   1.815   2.595 -0.2128 -0.1830  0.1865
17285SOL    HW152433   2.761   1.773   2.591  0.2046 -0.9973 -0.3845
17285SOL    HW252434   2.871   1.830   2.503  0.5267 -0.5187  0.3197
17286SOL     OW52435   3.360   1.245   1.939 -0.0822 -0.5591 -0.1401
17286SOL    HW152436   3.357   1.311   1.870 -0.7322 -1.6051 -1.1366
17286SOL    HW252437   3.453   1.231   1.955  0.0694 -0.1486 -0.6416
17287SOL     OW52438   0.065   3.410   8.248  0.2386  0.7749  0.0199
17287SOL    HW152439   0.003   3.411   8.175 -2.1864 -0.3152  1.9384
17287SOL    HW252440   0.032   3.476   8.308  1.0767  0.3304  0.9976
17288SOL     OW52441   0.279   3.151   0.862  0.1461  0.0031 -0.6718
17288SOL    HW152442   0.345   3.117   0.922  0.1038 -0.4270 -0.8653
17288SOL    HW252443   0.207   3.088   0.867 -1.7728  2.1342  2.1224
17289SOL     OW52444   8.716   7.953   1.592 -0.0228 -0.3617 -0.1067
17289SOL    HW152445   8.656   7.888   1.554  0.3312 -0.6535 -0.1724
17289SOL    HW252446   8.684   8.037   1.559 -0.0765 -0.5640 -0.5733
17290SOL     OW52447   9.761   6.481   1.568 -0.0822 -0.1884  0.5542
17290SOL    HW152448   9.715   6.501   1.650  2.3154 -0.4163  2.0616
17290SOL    HW252449   9.821   6.410   1.592 -0.5096 -1.4454 -1.8713
17291SOL     OW52450   6.250   6.649   6.865  0.0185  0.0174  0.1541
17291SOL    HW152451   6.195   6.727   6.860  1.4502  0.9630 -2.5358
17291SOL    HW252452   6.327   6.676   6.914 -0.1684 -0.1899  0.5708
17292SOL     OW52453   2.504   5.501   1.730  0.6051 -0.4453 -0.0020
17292SOL    HW152454   2.495   5.596   1.738  0.6235 -0.1873 -2.3553
17292SOL    HW252455   2.598   5.487   1.723  0.5434 -0.4633 -0.9850
17293SOL     OW52456   7.984   6.305   4.947  0.4977  0.2158  0.3602
17293SOL    HW152457   8.036   6.319   5.026  0.5382 -1.9972  0.7770
17293SOL    HW252458   7.924   6.234   4.969  0.1357 -0.0891 -1.4372
17294SOL     OW52459   8.395   4.988   8.332 -0.1672  0.2247 -0.1007
17294SOL    HW152460   8.475   5.031   8.303  0.1155  0.0645  0.4280
17294SOL    HW252461   8.370   4.932   8.259  0.9274 -0.7179  0.2213
17295SOL     OW52462   1.283   9.649   4.392 -0.2634 -0.6675  0.2560
17295SOL    HW152463   1.258   9.564   4.429 -0.5487 -0.9292 -0.5189
17295SOL    HW252464   1.361   9.675   4.442  0.9224 -2.2445 -0.6713
17296SOL     OW52465   9.871   5.196   8.824 -0.0491  0.6793 -0.4895
17296SOL    HW152466   9.964   5.185   8.843 -0.0421  1.0212 -0.3029
17296SOL    HW252467   9.869   5.243   8.740 -0.0582  0.3525 -0.6706
17297SOL     OW52468   5.110   4.273   9.552 -0.0850 -0.2421 -0.1043
17297SOL    HW152469   5.161   4.267   9.472  1.3742  0.4868  0.7324
17297SOL    HW252470   5.171   4.247   9.621 -1.6693 -2.1182  0.6810
17298SOL     OW52471   6.988   6.324   1.892 -0.5901 -0.5088 -0.0078
17298SOL    HW152472   6.987   6.415   1.861 -1.8297  0.0893  1.6249
17298SOL    HW252473   6.921   6.281   1.840 -0.4265 -0.3401 -0.3644
17299SOL     OW52474   4.512   6.999   7.578 -0.3316  0.3287 -0.0084
17299SOL    HW152475   4.516   7.093   7.594 -1.3506  0.6949 -1.6319
17299SOL    HW252476   4.601   6.967   7.595 -0.1681  1.4195  1.3339
17300SOL     OW52477   3.380   1.429   2.613  0.2514  0.3665 -0.0218
17300SOL    HW152478   3.293   1.447   2.576  0.0698  0.4880  0.4566
17300SOL    HW252479   3.363   1.380   2.693  0.6606 -0.1993 -0.2760
17301SOL     OW52480   2.268   5.670   7.446 -0.8856 -0.1442 -0.4446
17301SOL    HW152481   2.275   5.607   7.374  1.8503  0.3462 -0.6821
17301SOL    HW252482   2.222   5.621   7.515  0.3825 -2.1362 -0.9272
17302SOL     OW52483   1.295   4.106   8.516  0.2172  0.1608  0.1596
17302SOL    HW152484   1.333   4.056   8.444 -0.1445  1.0064 -0.6409
17302SOL    HW252485   1.369   4.153   8.554  0.1570  1.0482 -0.7767
17303SOL     OW52486   3.853   6.242   2.247  0.6974 -0.1662 -0.2524
17303SOL    HW152487   3.819   6.154   2.267  1.0576 -0.5464 -1.2487
17303SOL    HW252488   3.918   6.258   2.316 -0.1334 -0.2151  0.5703
17304SOL     OW52489   0.561   0.081   3.636 -0.3669 -0.3765 -0.0103
17304SOL    HW152490   0.642   0.131   3.624 -0.0539 -0.7274  0.5849
17304SOL    HW252491   0.498   0.145   3.669  0.0208 -0.3596  0.7117
17305SOL     OW52492   0.675   1.394   8.267 -0.3546 -0.1790 -0.0496
17305SOL    HW152493   0.587   1.356   8.262  0.3564 -1.7897 -1.3263
17305SOL    HW252494   0.724   1.352   8.197  1.4438  0.7352  0.5676
17306SOL     OW52495   8.735   3.907   1.963 -0.0178 -0.0426  0.3585
17306SOL    HW152496   8.670   3.858   1.913 -0.1348  1.7202 -1.3671
17306SOL    HW252497   8.743   3.991   1.916  1.8768  0.6580  1.7869
17307SOL     OW52498   8.046   4.317   6.990 -0.3416  0.1393  0.4171
17307SOL    HW152499   8.129   4.274   6.969  0.3464  0.9615  1.3638
17307SOL    HW252500   7.982   4.246   6.991  0.4233 -0.5763  0.1175
17308SOL     OW52501   8.359   7.597   5.965  0.2783  0.5434  0.0036
17308SOL    HW152502   8.301   7.596   5.889  0.5314 -1.0692 -0.2156
17308SOL    HW252503   8.347   7.683   6.004 -0.9479  0.8665 -1.0295
17309SOL     OW52504   9.349   4.291   8.654  0.1439 -0.1155  0.1973
17309SOL    HW152505   9.297   4.340   8.718 -0.2952 -0.9176  0.4706
17309SOL    HW252506   9.421   4.349   8.632  0.1095  0.3091  1.1638
17310SOL     OW52507   2.980   2.294   6.870 -0.1175  0.3111  0.2690
17310SOL    HW152508   3.020   2.242   6.939  0.8919 -2.2926 -2.0591
17310SOL    HW252509   2.989   2.385   6.899  0.5504 -0.6203  3.3037
17311SOL     OW52510   4.470   4.972   0.191 -0.1854  0.6526 -0.7000
17311SOL    HW152511   4.425   4.923   0.259 -1.0562  0.0986 -1.6483
17311SOL    HW252512   4.425   4.948   0.110 -0.2837  2.6063 -1.2739
17312SOL     OW52513   9.930   6.415   4.733 -0.4306 -0.1536 -0.4921
17312SOL    HW152514   9.917   6.414   4.639  1.0357 -2.2183 -0.7406
17312SOL    HW252515   9.872   6.347   4.767  1.0668 -1.3724 -0.2786
17313SOL     OW52516   3.258   4.373   1.771 -0.0033  0.3980 -0.5005
17313SOL    HW152517   3.302   4.296   1.809  1.5731 -0.2019 -3.2818
17313SOL    HW252518   3.300   4.448   1.813  1.5068 -0.2335 -0.8195
17314SOL     OW52519   5.725   7.477   1.122  0.7782  0.2347  0.1234
17314SOL    HW152520   5.773   7.559   1.106 -1.1474  0.9034 -3.3393
17314SOL    HW252521   5.732   7.430   1.039 -0.0677 -2.1120  1.3149
17315SOL     OW52522   8.234   9.791   1.580  0.5565  0.0211 -0.1459
17315SOL    HW152523   8.243   9.825   1.669  0.9632  1.6284 -0.7639
17315SOL    HW252524   8.163   9.842   1.541  0.0787 -0.9768 -0.6218
17316SOL     OW52525   2.129   7.048   4.541  0.4297 -0.1630  0.2385
17316SOL    HW152526   2.219   7.018   4.531  0.1744 -0.5479 -1.0508
17316SOL    HW252527   2.111   7.098   4.461 -0.4703 -0.0041  0.5285
17317SOL     OW52528   4.474   4.428   2.919 -0.2919 -0.3489 -0.2489
17317SOL    HW152529   4.504   4.347   2.960  0.9993  0.7439  1.0625
17317SOL    HW252530   4.519   4.430   2.835  1.0128 -0.2133  0.4242
17318SOL     OW52531   8.462   9.387   8.323  0.1805  0.1990  1.0667
17318SOL    HW152532   8.400   9.326   8.283  0.3796 -0.1358  1.2695
17318SOL    HW252533   8.435   9.391   8.415 -1.2047  2.0799  0.6556
17319SOL     OW52534   8.003   5.571   3.669 -0.2073  0.3310 -0.2520
17319SOL    HW152535   8.030   5.663   3.674  0.2602  0.3005 -1.8745
17319SOL    HW252536   7.981   5.548   3.760  2.9732  1.0446  0.8198
17320SOL     OW52537   0.950   0.834   2.199 -0.1456 -0.7111  0.2937
17320SOL    HW152538   0.877   0.776   2.178 -1.1325  0.4021  0.5223
17320SOL    HW252539   0.963   0.823   2.293  0.9399 -1.9546  0.0218
17321SOL     OW52540   4.252   0.937   0.635 -0.3678  0.0737 -0.0153
17321SOL    HW152541   4.266   0.870   0.702  0.2350 -1.1224 -1.2919
17321SOL    HW252542   4.339   0.975   0.622 -0.4308  0.1172 -0.3009
17322SOL     OW52543   5.585   3.554   7.604 -0.2187  0.3816 -0.2192
17322SOL    HW152544   5.575   3.641   7.567 -0.4738  0.3855 -0.1452
17322SOL    HW252545   5.658   3.515   7.556 -2.0570 -0.5241 -2.4999
17323SOL     OW52546   6.920   7.412   4.244  0.6751  0.1875 -0.2038
17323SOL    HW152547   6.944   7.489   4.296  1.4727 -1.0627  1.4059
17323SOL    HW252548   6.987   7.408   4.175  0.6389  0.9067 -0.2893
17324SOL     OW52549   9.192   1.694   9.801 -0.1808  0.5847 -0.0794
17324SOL    HW152550   9.191   1.655   9.889  0.8612  1.0665  0.1615
17324SOL    HW252551   9.203   1.619   9.742  1.2823  0.4145  0.3516
17325SOL     OW52552   7.147   8.487   4.478  0.0577  0.0577  0.4193
17325SOL    HW152553   7.058   8.452   4.488 -1.3327  2.2417 -2.7865
17325SOL    HW252554   7.181   8.444   4.399  0.9594  0.9419  0.3064
17326SOL     OW52555   8.200   0.577   6.122  0.0994  0.5471  0.2748
17326SOL    HW152556   8.246   0.495   6.103  0.3484  1.1853 -2.2576
17326SOL    HW252557   8.270   0.640   6.137 -0.0442  0.7125  0.2487
17327SOL     OW52558   5.537   4.874   3.259  0.0873 -0.2623  0.1809
17327SOL    HW152559   5.535   4.921   3.342 -0.4025  0.6026 -0.3099
17327SOL    HW252560   5.598   4.924   3.204  1.2997 -1.4609  0.3603
17328SOL     OW52561   3.521   7.993   9.153  0.0571  0.3495 -0.7594
17328SOL    HW152562   3.509   8.088   9.153 -0.6612  0.2662 -1.2297
17328SOL    HW252563   3.608   7.980   9.117  0.4129  0.8520 -0.1085
17329SOL     OW52564   4.182   2.007   1.920  0.8118  0.2392 -0.3571
17329SOL    HW152565   4.228   1.941   1.972 -1.7037  0.2030  2.0667
17329SOL    HW252566   4.230   2.011   1.838  4.2872 -0.6748  1.4411
17330SOL     OW52567   7.908   0.928   9.108 -0.1465  0.1662 -0.3717
17330SOL    HW152568   7.946   0.859   9.054 -0.5135 -0.4428  0.1479
17330SOL    HW252569   7.961   1.005   9.088  0.5262 -0.3581 -0.6362
17331SOL     OW52570   7.296   0.297   6.432 -0.0953 -0.1707  0.2417
17331SOL    HW152571   7.300   0.370   6.495  0.0747 -0.7009  0.8564
17331SOL    HW252572   7.238   0.233   6.473 -1.0038  0.0090 -0.7284
17332SOL     OW52573   0.178   4.498   2.478  0.2771 -0.1642 -0.3472
17332SOL    HW152574   0.149   4.415   2.515  0.8856 -0.5521 -0.7368
17332SOL    HW252575   0.141   4.564   2.537 -0.1693 -0.7077 -0.0105
17333SOL     OW52576   2.938   7.957   4.774  0.3711  0.4079 -0.6296
17333SOL    HW152577   2.938   7.883   4.834 -0.6822  0.0097 -1.0880
17333SOL    HW252578   2.899   8.029   4.823  0.2700  0.3122 -0.5692
17334SOL     OW52579   1.859   7.193   7.090 -0.0502 -0.2830  0.2118
17334SOL    HW152580   1.818   7.252   7.027 -1.5660 -1.3087  0.1902
17334SOL    HW252581   1.948   7.228   7.101 -0.4684  1.2026 -0.7930
17335SOL     OW52582   7.440   8.729   9.913 -0.5613  0.0474  0.6635
17335SOL    HW152583   7.487   8.652   9.881 -2.5501 -1.2175  0.5416
17335SOL    HW252584   7.374   8.746   9.845 -1.1080  0.9403  1.3962
17336SOL     OW52585   1.597   0.301   9.173  0.1628 -0.1262  0.4293
17336SOL    HW152586   1.617   0.362   9.244 -1.4168 -0.6932  1.4168
17336SOL    HW252587   1.678   0.252   9.159  0.5303  0.0651  1.7882
17337SOL     OW52588   1.738   8.315   6.941 -0.3591 -0.3036 -0.1650
17337SOL    HW152589   1.702   8.230   6.967 -0.9915  0.0178  0.0106
17337SOL    HW252590   1.771   8.301   6.852  1.0977 -1.1971  0.4746
17338SOL     OW52591   4.796   1.056   9.015 -0.0068 -0.2944  0.0704
17338SOL    HW152592   4.835   1.143   9.010  0.1056 -0.2419  1.5684
17338SOL    HW252593   4.770   1.036   8.925  0.6308  0.9735 -0.4100
17339SOL     OW52594   4.412   1.038   0.875 -0.1654  0.3127 -0.8655
17339SOL    HW152595   4.470   1.113   0.864  0.6617 -0.3524 -1.1696
17339SOL    HW252596   4.329   1.075   0.904  0.3594  1.3011 -0.6025
17340SOL     OW52597   4.068   2.685   5.580  0.1137  0.3536  0.2472
17340SOL    HW152598   4.054   2.771   5.539 -1.1523 -0.4995 -1.2007
17340SOL    HW252599   4.112   2.633   5.513  0.6672 -0.2068  1.0301
17341SOL     OW52600   4.420   8.532   8.175  0.1894 -0.3769 -0.3893
17341SOL    HW152601   4.422   8.581   8.258  2.4423 -0.2192 -0.4800
17341SOL    HW252602   4.404   8.599   8.109 -0.2730 -0.3061 -0.2135
17342SOL     OW52603   4.164   7.674   2.612  0.0449 -0.0085 -0.2863
17342SOL    HW152604   4.238   7.622   2.581  0.1339  0.2699 -0.5423
17342SOL    HW252605   4.089   7.614   2.607  0.3047 -0.3942  0.2886
17343SOL     OW52606   7.218   1.197   4.549  0.2854 -0.5321 -0.0258
17343SOL    HW152607   7.163   1.254   4.495  1.5640 -0.0784 -0.8764
17343SOL    HW252608   7.243   1.251   4.623  0.5070 -0.3786 -0.2132
17344SOL     OW52609   6.909   9.911   4.866  0.0602  0.2621 -0.2525
17344SOL    HW152610   6.907   9.929   4.960 -0.4477  0.2663 -0.2635
17344SOL    HW252611   6.915   9.816   4.860  1.6132  0.3323 -0.2063
17345SOL     OW52612   9.795   0.220   5.304  0.1872 -0.5083 -0.3816
17345SOL    HW152613   9.803   0.133   5.266  0.1885 -0.9047  0.4930
17345SOL    HW252614   9.880   0.261   5.287  0.4064 -0.9027 -0.2584
17346SOL     OW52615   0.564   7.016   2.453  0.2095 -0.0944  0.2019
17346SOL    HW152616   0.511   7.045   2.379  0.5825  2.5951  0.9034
17346SOL    HW252617   0.653   7.045   2.431  0.9248 -2.0094  0.3579
17347SOL     OW52618   0.792   9.239   6.185 -0.9902 -0.2721 -0.1666
17347SOL    HW152619   0.838   9.186   6.120 -0.4683  0.4831 -0.4315
17347SOL    HW252620   0.856   9.253   6.254 -1.4920 -0.9348  0.4379
17348SOL     OW52621   0.511   2.121   0.073 -0.8545 -0.0104  0.4345
17348SOL    HW152622   0.498   2.184   0.144 -1.1067  1.2193 -0.6887
17348SOL    HW252623   0.489   2.168  -0.007  1.2357 -0.7566 -0.6826
17349SOL     OW52624   0.208   5.581   4.233  0.5096  0.2618  0.1941
17349SOL    HW152625   0.149   5.573   4.308  0.8538  0.6489  0.5166
17349SOL    HW252626   0.291   5.611   4.272  0.1986  2.1823 -0.5423
17350SOL     OW52627   8.652   8.520   5.402 -0.1726 -0.3504 -0.2665
17350SOL    HW152628   8.741   8.557   5.397 -0.4419  1.0468  3.0481
17350SOL    HW252629   8.607   8.557   5.326  1.6253  0.1652 -1.1384
17351SOL     OW52630   2.307   2.267   1.422  0.1273 -0.5202  0.4736
17351SOL    HW152631   2.343   2.249   1.509 -0.1874 -1.6797  0.3797
17351SOL    HW252632   2.356   2.343   1.391 -0.2676  0.4010  1.9616
17352SOL     OW52633   3.140   7.810   5.650 -0.2397 -0.1107  0.2764
17352SOL    HW152634   3.221   7.860   5.663 -0.5542  0.2076  1.1392
17352SOL    HW252635   3.166   7.719   5.660 -0.0205  0.0055  0.8428
17353SOL     OW52636   2.414   1.786   1.588 -0.4715  0.0613  0.1555
17353SOL    HW152637   2.472   1.741   1.527 -0.0536  1.1197 -0.2539
17353SOL    HW252638   2.341   1.816   1.534 -0.6150  0.0996  0.3705
17354SOL     OW52639   4.271   5.486   9.692 -0.2303  0.2116  0.1117
17354SOL    HW152640   4.297   5.535   9.614 -1.4705  1.7603  0.6304
17354SOL    HW252641   4.337   5.508   9.757 -1.0021  1.5883  0.4692
17355SOL     OW52642   3.903   2.338   9.270  0.3129 -0.0569 -0.3237
17355SOL    HW152643   3.930   2.253   9.304 -1.2309 -0.5111 -0.1595
17355SOL    HW252644   3.839   2.370   9.333 -0.0168  0.6695 -1.0096
17356SOL     OW52645   9.219   4.132   8.894  0.6831  0.1996 -0.1645
17356SOL    HW152646   9.139   4.080   8.895  0.8937 -0.1452 -0.5187
17356SOL    HW252647   9.281   4.078   8.843  1.6053 -0.2588  1.3620
17357SOL     OW52648   2.752   6.454   2.450  0.7058 -0.1562 -0.5443
17357SOL    HW152649   2.802   6.520   2.401  1.0304  0.0410  0.0441
17357SOL    HW252650   2.804   6.439   2.529  0.3359 -0.6929 -0.3984
17358SOL     OW52651   9.102   6.018   5.110 -0.1398 -0.0440 -0.0424
17358SOL    HW152652   9.102   6.072   5.030  1.7364  1.3149  0.7882
17358SOL    HW252653   9.167   5.950   5.092 -0.0567 -0.0159  0.1572
17359SOL     OW52654   1.284   6.844   7.772  0.1560 -0.0722 -0.0898
17359SOL    HW152655   1.206   6.790   7.759  0.8394 -1.0052 -0.4446
17359SOL    HW252656   1.284   6.865   7.866  0.2476 -1.3169  0.2157
17360SOL     OW52657   8.007   0.178   6.553 -0.4584  0.1091 -0.1588
17360SOL    HW152658   7.929   0.230   6.536 -1.8079 -1.7502  0.1161
17360SOL    HW252659   7.992   0.095   6.508  0.9780 -0.6188  0.6210
17361SOL     OW52660   6.217   0.468   1.915 -0.9059 -0.5532  0.3532
17361SOL    HW152661   6.226   0.555   1.953 -0.4122 -0.9259  1.1167
17361SOL    HW252662   6.125   0.446   1.927 -0.7278 -0.7282  1.5066
17362SOL     OW52663   2.104   5.764   9.453  0.3155 -0.6323  0.0496
17362SOL    HW152664   2.157   5.791   9.528 -0.7410  0.9442  0.2672
17362SOL    HW252665   2.022   5.732   9.491  0.5159 -1.6569 -0.3535
17363SOL     OW52666   7.248   3.741   1.205 -0.6820 -0.3439 -0.5772
17363SOL    HW152667   7.256   3.797   1.127  0.6337  0.4460  0.0942
17363SOL    HW252668   7.215   3.658   1.172 -2.6867  0.7820 -1.6304
17364SOL     OW52669   8.246   1.472   8.672 -0.4807  0.1571  0.1719
17364SOL    HW152670   8.331   1.512   8.694 -0.4906  1.5584 -1.9510
17364SOL    HW252671   8.268   1.383   8.644  0.3374  0.5589 -0.5215
17365SOL     OW52672   5.881   8.422   1.805  0.6852  0.1409 -0.3939
17365SOL    HW152673   5.962   8.468   1.826  0.1193  1.0396 -0.1073
17365SOL    HW252674   5.813   8.488   1.816 -0.1607 -0.7797  0.0483
17366SOL     OW52675   0.187   8.307   0.218 -0.4874  0.2247  0.4122
17366SOL    HW152676   0.111   8.286   0.272 -0.3226 -1.2126  0.1275
17366SOL    HW252677   0.233   8.224   0.208 -0.2643  0.5294 -1.5708
17367SOL     OW52678   6.850   7.933   2.727 -0.5208  0.3490  0.0229
17367SOL    HW152679   6.804   8.017   2.715 -0.3716  0.2267 -1.7106
17367SOL    HW252680   6.943   7.955   2.719 -0.4890  0.0020 -0.6028
17368SOL     OW52681   2.651   4.797   6.565 -1.0414  0.0083 -0.3369
17368SOL    HW152682   2.639   4.892   6.568 -2.1591 -0.1496  0.9089
17368SOL    HW252683   2.733   4.781   6.611 -2.9667  0.1182  3.6235
17369SOL     OW52684   8.045   6.352   3.298  0.3862  0.2396  0.3078
17369SOL    HW152685   8.032   6.257   3.305  0.7643  0.0195 -1.4753
17369SOL    HW252686   8.139   6.363   3.303  0.3048  0.6016  1.1524
17370SOL     OW52687   0.319   1.290   1.198  0.6147 -0.3344 -0.0313
17370SOL    HW152688   0.275   1.350   1.138  2.8401  0.7957 -0.6398
17370SOL    HW252689   0.329   1.340   1.279 -1.5817 -1.5521  1.0868
17371SOL     OW52690   6.950   8.511   6.605 -0.0143  0.2656 -0.3524
17371SOL    HW152691   6.961   8.508   6.510  1.1760  0.0194 -0.2263
17371SOL    HW252692   7.007   8.442   6.638  0.9590  1.4744  0.6307
17372SOL     OW52693   4.813   4.715   1.503  0.4080  0.3221  0.2172
17372SOL    HW152694   4.828   4.684   1.414 -0.5718 -0.4731  0.3180
17372SOL    HW252695   4.876   4.786   1.514 -0.5984  1.6019 -1.7057
17373SOL     OW52696   5.224   2.328   1.105 -0.0143 -0.3107 -0.2463
17373SOL    HW152697   5.254   2.244   1.141 -0.3310 -0.2714  0.1085
17373SOL    HW252698   5.216   2.386   1.181  0.0535 -0.0027 -0.4718
17374SOL     OW52699   5.913   9.328   1.441 -0.5077 -0.3570 -0.5555
17374SOL    HW152700   5.927   9.234   1.426 -2.9960 -0.5539 -2.2995
17374SOL    HW252701   5.851   9.331   1.514 -0.6454 -0.0905 -0.6837
17375SOL     OW52702   7.241   1.038   7.787 -0.1760 -0.1426 -0.3461
17375SOL    HW152703   7.299   0.965   7.808  0.1937  0.1287 -0.4050
17375SOL    HW252704   7.184   1.004   7.717 -0.3010 -0.5088 -0.0724
17376SOL     OW52705   4.333   4.424   1.260  0.1588 -0.2517  0.1874
17376SOL    HW152706   4.382   4.506   1.258  1.7242 -1.1268  0.6637
17376SOL    HW252707   4.384   4.367   1.318  0.2736 -2.2431 -1.7424
17377SOL     OW52708   7.686   5.410   2.057  0.5009  0.0432  0.0148
17377SOL    HW152709   7.686   5.506   2.055 -0.4446  0.0744 -2.4885
17377SOL    HW252710   7.595   5.386   2.073 -0.0622 -0.3014 -3.0011
17378SOL     OW52711   2.297   9.873   6.761  0.1919 -0.5497  0.1119
17378SOL    HW152712   2.203   9.892   6.758 -0.1509 -2.0082  0.5554
17378SOL    HW252713   2.318   9.839   6.675  0.7866  1.5758 -0.6547
17379SOL     OW52714   0.688   9.810   5.582 -0.0520  0.1606 -0.1170
17379SOL    HW152715   0.710   9.810   5.675  0.1190  1.2372 -0.1466
17379SOL    HW252716   0.593   9.819   5.580 -0.3712 -2.2685 -0.0349
17380SOL     OW52717   9.916   6.715   0.956 -0.2191  0.1519  0.5406
17380SOL    HW152718   9.941   6.805   0.936 -1.3043 -0.1674 -2.9147
17380SOL    HW252719   9.838   6.723   1.012 -1.3812  1.4739 -1.1729
17381SOL     OW52720   0.091   1.783   5.440  0.1969 -0.0091  0.0330
17381SOL    HW152721   0.186   1.770   5.441  0.1040 -1.5621 -2.1395
17381SOL    HW252722   0.055   1.695   5.424 -1.5369  0.7335 -0.4345
17382SOL     OW52723   8.733   4.268   3.682  0.5037 -0.2879  0.0245
17382SOL    HW152724   8.667   4.273   3.751  0.7680  0.7369  0.2217
17382SOL    HW252725   8.816   4.281   3.727  0.9458 -2.2968 -0.1122
17383SOL     OW52726   3.611   9.661   3.384  0.6448 -0.4110  0.0797
17383SOL    HW152727   3.521   9.628   3.373 -0.3205  1.5024  1.7510
17383SOL    HW252728   3.605   9.754   3.364  1.3799  0.5779  3.7479
17384SOL     OW52729   7.985   9.689   1.445  0.3538 -0.0284  0.1715
17384SOL    HW152730   8.005   9.612   1.391 -0.6516 -0.6245  0.6226
17384SOL    HW252731   7.941   9.653   1.522 -0.8232  1.0756  0.0389
17385SOL     OW52732   2.579   0.403   4.670  0.5372  0.0618 -0.1971
17385SOL    HW152733   2.597   0.320   4.626 -1.4289 -2.1391  2.7791
17385SOL    HW252734   2.639   0.404   4.745 -0.9765  0.1309  1.0744
17386SOL     OW52735   4.019   1.401   4.328 -0.1506 -0.1421  0.4824
17386SOL    HW152736   3.961   1.330   4.354 -0.4008 -0.4964 -0.9344
17386SOL    HW252737   3.967   1.454   4.268  1.3441 -1.2200 -1.9069
17387SOL     OW52738   5.547   0.534   5.137 -0.6863 -0.8869  0.0669
17387SOL    HW152739   5.555   0.630   5.137  0.0575 -0.9010  1.8198
17387SOL    HW252740   5.556   0.510   5.229 -0.4476 -2.6898 -0.3940
17388SOL     OW52741   0.852   6.911   9.414 -0.1142 -0.7118 -0.6911
17388SOL    HW152742   0.813   6.919   9.502 -0.1927 -0.5142 -0.7430
17388SOL    HW252743   0.848   7.000   9.379  4.7441  0.5424  1.1046
17389SOL     OW52744   6.161   1.038   1.559  0.9288  0.3282 -0.0768
17389SOL    HW152745   6.074   1.056   1.595  0.3210 -1.6103 -0.4856
17389SOL    HW252746   6.172   1.104   1.490 -0.9283 -0.3494 -1.1143
17390SOL     OW52747   9.047   5.689   7.437 -0.3685 -0.1608  0.0906
17390SOL    HW152748   9.132   5.694   7.481 -0.8489 -0.4196  1.0853
17390SOL    HW252749   9.036   5.597   7.416  0.0256  0.0133 -0.9478
17391SOL     OW52750   6.383   1.706   3.137 -0.8860 -0.0545  0.3925
17391SOL    HW152751   6.292   1.732   3.128 -0.5755  0.4623 -1.5129
17391SOL    HW252752   6.433   1.783   3.113  0.0918 -0.1616  1.9390
17392SOL     OW52753   0.869   6.762   6.876 -0.2463 -0.1592  0.4207
17392SOL    HW152754   0.796   6.704   6.854 -0.0508 -0.3437  0.2471
17392SOL    HW252755   0.883   6.748   6.970 -0.0332 -0.5909  0.3280
17393SOL     OW52756   0.857   3.351   8.503 -0.0996  0.1686 -0.2656
17393SOL    HW152757   0.942   3.389   8.482 -0.1381  1.2611  1.3297
17393SOL    HW252758   0.818   3.331   8.418  0.7526  1.9256 -1.1315
17394SOL     OW52759   7.132   6.122   1.608 -0.2897  0.6203  0.5653
17394SOL    HW152760   7.175   6.153   1.688 -0.9108 -1.8263  1.9680
17394SOL    HW252761   7.051   6.173   1.602  1.1506  2.9769 -0.3038
17395SOL     OW52762   3.562   3.965   6.927  0.3372  0.2662  0.4593
17395SOL    HW152763   3.561   4.060   6.916  2.5947  0.4626  1.4909
17395SOL    HW252764   3.518   3.932   6.849 -1.2503  2.1599  0.4770
17396SOL     OW52765   3.867   8.095   2.319  0.2194  0.1465 -0.4249
17396SOL    HW152766   3.926   8.048   2.379  0.3536  0.3170 -0.4228
17396SOL    HW252767   3.779   8.075   2.352  0.2685 -0.2319 -0.5174
17397SOL     OW52768   4.860   5.480   5.681  0.2231 -0.2208 -0.2878
17397SOL    HW152769   4.944   5.513   5.648  0.5150  0.0504  0.6997
17397SOL    HW252770   4.870   5.385   5.681  0.5559 -0.1857 -0.1090
17398SOL     OW52771   5.881   0.478   5.367  0.1153 -0.0282  0.0258
17398SOL    HW152772   5.933   0.555   5.346  1.9166 -1.1588  0.1207
17398SOL    HW252773   5.890   0.421   5.290  0.2675 -0.8840  0.6655
17399SOL     OW52774   4.770   8.654   1.188 -0.2224 -0.5808  0.0832
17399SOL    HW152775   4.818   8.571   1.199  2.4960  0.6494 -1.4756
17399SOL    HW252776   4.798   8.687   1.103 -0.2948  2.4631  1.1087
17400SOL     OW52777   1.342   2.436   3.643  0.0370 -0.4191  0.0400
17400SOL    HW152778   1.429   2.466   3.667  1.6283 -2.6372 -2.4050
17400SOL    HW252779   1.310   2.503   3.581 -0.1826  0.5597  1.1795
17401SOL     OW52780   6.068   7.036   7.301 -0.3513  0.2841  0.0598
17401SOL    HW152781   6.146   6.981   7.295  0.8974  1.8213  1.1386
17401SOL    HW252782   6.023   7.006   7.381 -0.7802 -0.4598 -0.4472
17402SOL     OW52783   5.236   1.245   0.883  0.2309  0.3353 -0.3384
17402SOL    HW152784   5.231   1.327   0.834 -1.6072  1.2191  1.1840
17402SOL    HW252785   5.176   1.186   0.839  2.3781 -0.6693 -2.1067
17403SOL     OW52786   7.951   4.669   6.487  0.6262  0.5320  0.2848
17403SOL    HW152787   7.957   4.728   6.412  0.1218 -0.0112 -0.2018
17403SOL    HW252788   8.033   4.620   6.486  0.7992  0.8213  0.3410
17404SOL     OW52789   5.642   7.625   2.862  0.2217  0.1790  0.3052
17404SOL    HW152790   5.561   7.651   2.907 -0.1449 -0.8795  0.2866
17404SOL    HW252791   5.623   7.637   2.769 -0.2014 -0.8154  0.2549
17405SOL     OW52792   8.950   2.374   7.090  0.4046 -0.6252  0.2015
17405SOL    HW152793   8.947   2.344   7.000 -0.3575 -0.0378  0.0214
17405SOL    HW252794   8.990   2.461   7.085 -0.3926 -0.2432  0.3240
17406SOL     OW52795   7.861   0.567   5.536 -0.4430  0.3139  0.9386
17406SOL    HW152796   7.906   0.613   5.607 -1.4398  1.9718  0.5455
17406SOL    HW252797   7.770   0.597   5.543 -0.2155  2.1502 -2.2203
17407SOL     OW52798   8.962   5.293   8.460 -0.1959 -0.3514 -0.7958
17407SOL    HW152799   9.046   5.337   8.467  0.5531 -1.5737 -1.7202
17407SOL    HW252800   8.984   5.200   8.451 -1.6816 -0.8222  0.0334
17408SOL     OW52801   7.980   8.795   0.926 -0.1828  0.0146 -0.0462
17408SOL    HW152802   7.951   8.729   0.989 -0.0190  0.5812  0.6372
17408SOL    HW252803   8.038   8.747   0.866  0.2329 -0.3870  0.6622
17409SOL     OW52804   1.042   7.678   8.962  0.9106 -0.1250  0.8205
17409SOL    HW152805   0.983   7.602   8.963  0.1959  0.4097  0.6776
17409SOL    HW252806   1.097   7.665   8.885 -1.1363  0.8962 -0.9322
17410SOL     OW52807   2.280   8.094   7.417 -0.2689 -0.2562  0.1199
17410SOL    HW152808   2.248   8.013   7.379  1.0300 -0.1994 -1.1790
17410SOL    HW252809   2.375   8.086   7.415 -0.1266  0.8398  1.0241
17411SOL     OW52810   3.598   8.794   1.175 -0.1755 -0.2600  0.0845
17411SOL    HW152811   3.601   8.887   1.196 -1.5326  0.0264 -0.8302
17411SOL    HW252812   3.582   8.750   1.259 -1.3670  0.5054  0.2833
17412SOL     OW52813   1.141   6.225   0.705 -0.4056  0.4402 -0.0726
17412SOL    HW152814   1.135   6.216   0.800 -0.4116  0.3541 -0.0808
17412SOL    HW252815   1.133   6.136   0.672  0.9562  0.3091 -0.0888
17413SOL     OW52816   2.088   5.495   6.382 -0.2147  0.0336 -0.1140
17413SOL    HW152817   2.144   5.438   6.435  0.3013  2.1056  1.6711
17413SOL    HW252818   2.025   5.532   6.444 -0.7708  1.1411 -1.2984
17414SOL     OW52819   5.075   5.562   4.318  0.0069 -0.2871  0.1711
17414SOL    HW152820   4.988   5.593   4.344  0.5346  0.8584  0.5996
17414SOL    HW252821   5.078   5.472   4.351 -1.0234 -0.3545  0.1234
17415SOL     OW52822   6.370   7.059   6.245  0.1692  0.4110 -0.3370
17415SOL    HW152823   6.400   7.137   6.199 -0.4972  1.0254  0.2416
17415SOL    HW252824   6.286   7.085   6.283 -0.6944 -0.9867 -1.2202
17416SOL     OW52825   2.183   4.868   2.611 -0.2718  0.1115 -0.5473
17416SOL    HW152826   2.127   4.900   2.682 -2.1562 -0.6299 -1.6042
17416SOL    HW252827   2.139   4.898   2.531 -0.1510 -1.9813 -1.4605
17417SOL     OW52828   9.930   3.353   6.302 -0.2742  0.2270  0.2299
17417SOL    HW152829   9.978   3.394   6.230 -0.7079  0.7130  0.2146
17417SOL    HW252830   9.934   3.259   6.282 -2.0479  0.4513 -1.5120
17418SOL     OW52831   6.622   0.285   4.394  0.1108  0.5635 -0.0307
17418SOL    HW152832   6.543   0.303   4.343  0.0149  0.9955  0.2671
17418SOL    HW252833   6.692   0.331   4.347  0.4054 -0.7788 -0.9516
17419SOL     OW52834   7.784   0.070   2.954  0.0402  0.0723  0.4774
17419SOL    HW152835   7.853   0.134   2.973 -1.7974  1.8768  1.3428
17419SOL    HW252836   7.787   0.060   2.859  0.7130  1.0044  0.3854
17420SOL     OW52837   5.752   3.382   2.906 -0.0123 -0.5142  0.3231
17420SOL    HW152838   5.790   3.467   2.926  0.1138  1.2101 -5.6432
17420SOL    HW252839   5.659   3.400   2.889 -0.7915 -2.3333  2.0952
17421SOL     OW52840   2.663   9.834   8.684 -0.0469  0.4244 -0.4261
17421SOL    HW152841   2.671   9.788   8.768 -0.8017  1.8436  0.4767
17421SOL    HW252842   2.571   9.859   8.679 -0.1678 -0.2609 -2.0480
17422SOL     OW52843   1.646   4.942   5.558  0.2027 -0.1889  0.0062
17422SOL    HW152844   1.571   4.998   5.579 -0.3595 -1.1790  0.7206
17422SOL    HW252845   1.721   4.987   5.596 -0.3545 -0.3010  1.2913
17423SOL     OW52846   5.851   4.627   3.161 -0.1446  0.1525 -0.0799
17423SOL    HW152847   5.849   4.698   3.225  1.5559 -0.4818  0.7258
17423SOL    HW252848   5.889   4.666   3.083  0.5566  0.1982  0.2799
17424SOL     OW52849   2.727   4.931   6.294 -0.3117  0.1865  0.1429
17424SOL    HW152850   2.649   4.930   6.239 -0.5364  2.5137  0.2994
17424SOL    HW252851   2.741   4.840   6.318 -1.8957 -0.5212 -1.3862
17425SOL     OW52852   3.050   6.130   2.082 -0.3441 -0.9289  0.3646
17425SOL    HW152853   3.033   6.106   1.991  0.0381 -0.4197  0.1548
17425SOL    HW252854   3.023   6.222   2.088  1.6014 -0.2956  0.1947
17426SOL     OW52855   4.523   7.741   4.065  0.3495  0.5187  0.3203
17426SOL    HW152856   4.608   7.771   4.032  1.3654 -1.4277  1.0354
17426SOL    HW252857   4.509   7.657   4.021 -1.1831  0.7610  0.2937
17427SOL     OW52858   4.925   6.336   8.339 -0.1688 -0.5567  0.1872
17427SOL    HW152859   4.996   6.382   8.383  0.6735 -1.5947 -0.0438
17427SOL    HW252860   4.874   6.405   8.296 -0.5169  0.4029  2.0447
17428SOL     OW52861   8.406   0.726   5.340 -0.3629  0.5650 -0.2222
17428SOL    HW152862   8.315   0.710   5.316  0.0296 -1.5030 -0.4569
17428SOL    HW252863   8.413   0.697   5.431  0.3823 -0.7585 -0.6731
17429SOL     OW52864   2.309   6.296   3.814  0.1164 -0.4488 -0.2174
17429SOL    HW152865   2.373   6.279   3.745 -0.7974 -0.2596 -1.1445
17429SOL    HW252866   2.268   6.210   3.830 -1.4046 -0.0659 -1.7306
17430SOL     OW52867   4.608   1.463   8.307  0.2893 -0.3151 -0.2053
17430SOL    HW152868   4.664   1.538   8.326  0.6665 -0.7238  0.3218
17430SOL    HW252869   4.650   1.390   8.351  0.4606 -1.0361 -1.5116
17431SOL     OW52870   6.722   4.251   4.599  0.2220 -0.1551 -0.2980
17431SOL    HW152871   6.678   4.336   4.600 -0.4907 -0.5316  0.1950
17431SOL    HW252872   6.694   4.211   4.517 -1.0622 -0.7517  0.4044
17432SOL     OW52873   9.319   7.289   3.773  0.4578 -0.3543 -0.1864
17432SOL    HW152874   9.314   7.263   3.865  0.2718  0.1513 -0.0553
17432SOL    HW252875   9.231   7.274   3.739  0.0061  1.2333  0.1961
17433SOL     OW52876   8.418   1.148   6.402  0.2199 -0.1163 -0.7920
17433SOL    HW152877   8.416   1.096   6.483  0.3382  3.0099  1.3796
17433SOL    HW252878   8.510   1.153   6.379  0.3873  0.5137 -0.0192
17434SOL     OW52879   5.139   3.945   2.476  0.4897  0.1428 -0.2079
17434SOL    HW152880   5.138   4.040   2.470  2.8371  0.1625 -1.5311
17434SOL    HW252881   5.091   3.916   2.398 -0.9521  0.1813  0.6233
17435SOL     OW52882   0.515   8.101   8.099 -0.2643  0.1790  0.2496
17435SOL    HW152883   0.583   8.090   8.032 -0.7111  0.2930 -0.2259
17435SOL    HW252884   0.466   8.019   8.097  1.0409 -0.7151  1.9617
17436SOL     OW52885   9.544   4.696   6.171  0.5386 -0.0333  0.2869
17436SOL    HW152886   9.625   4.740   6.147  1.8942 -1.2198  2.3094
17436SOL    HW252887   9.553   4.607   6.137 -0.8219  0.3189 -1.1317
17437SOL     OW52888   7.925   8.442   2.525  0.4337 -0.5221  0.5155
17437SOL    HW152889   7.866   8.469   2.595  0.1274  0.7383 -0.1979
17437SOL    HW252890   7.971   8.366   2.561 -1.2547 -1.2429  1.2685
17438SOL     OW52891   1.173   6.966   4.448  0.3959 -0.7948 -0.1837
17438SOL    HW152892   1.158   7.038   4.387  0.7322  1.6592  2.4230
17438SOL    HW252893   1.231   6.906   4.401  0.2175  0.6783 -2.4209
17439SOL     OW52894   6.924   8.107   6.197 -0.0808 -0.5427 -0.0255
17439SOL    HW152895   7.007   8.113   6.244 -0.2475 -2.9848  0.7051
17439SOL    HW252896   6.869   8.175   6.237  1.1628  0.3421  0.2587
17440SOL     OW52897   8.310   8.547   8.951  0.1957 -0.3002 -0.1316
17440SOL    HW152898   8.220   8.560   8.981  0.5747  2.3340  0.0145
17440SOL    HW252899   8.365   8.589   9.017  1.6550 -2.5619  0.2123
17441SOL     OW52900   4.156   1.934   1.276 -0.1999  0.3051 -0.1749
17441SOL    HW152901   4.062   1.946   1.267 -0.3364  0.3770  1.1776
17441SOL    HW252902   4.194   2.007   1.226 -0.7883 -0.6857 -2.1914
17442SOL     OW52903   7.517   2.321   3.833 -0.0067 -0.3698 -0.1715
17442SOL    HW152904   7.598   2.368   3.850  0.5296 -1.1654 -0.4466
17442SOL    HW252905   7.531   2.234   3.871 -1.6222  0.1923  1.8821
17443SOL     OW52906   7.661   9.754   1.969 -0.0631 -0.0090  0.1923
17443SOL    HW152907   7.632   9.694   1.900 -0.6937  0.3564  0.1346
17443SOL    HW252908   7.600   9.738   2.041 -2.2626  2.7164 -0.8868
17444SOL     OW52909   3.341   5.600   0.126 -0.1472 -0.1960  0.1196
17444SOL    HW152910   3.314   5.623   0.037  0.6614  0.3798  0.0099
17444SOL    HW252911   3.432   5.571   0.116  0.3485  1.0179  0.9141
17445SOL     OW52912   1.502   3.923   6.468 -0.8185 -0.9724 -0.1162
17445SOL    HW152913   1.493   3.828   6.473  2.8039 -1.4540 -0.0117
17445SOL    HW252914   1.547   3.947   6.549 -2.6468  1.0510  0.3698
17446SOL     OW52915   8.814   1.527   5.998 -0.0827 -0.3584  0.2176
17446SOL    HW152916   8.880   1.527   5.929  1.2375 -1.9163  1.4130
17446SOL    HW252917   8.760   1.450   5.980  0.0260 -0.5492  0.6985
17447SOL     OW52918   1.016   6.619   2.004 -0.0026 -0.4602  0.6452
17447SOL    HW152919   1.086   6.676   1.972 -1.0988  0.2842 -0.5010
17447SOL    HW252920   1.060   6.536   2.023  1.0246 -0.3427 -1.0390
17448SOL     OW52921   5.016   6.091   8.722 -0.3151 -0.0934 -0.5882
17448SOL    HW152922   5.105   6.125   8.717 -0.4445  0.5597  1.0562
17448SOL    HW252923   4.972   6.128   8.645  0.6123  0.2078 -0.9868
17449SOL     OW52924   9.570   7.347   9.559 -0.2471  0.1509  0.2885
17449SOL    HW152925   9.648   7.403   9.556 -0.5707  0.6128  0.4569
17449SOL    HW252926   9.540   7.343   9.468 -0.3209  0.3948  0.3008
17450SOL     OW52927   4.158   0.456   1.924 -0.3500  0.0289  0.2232
17450SOL    HW152928   4.140   0.550   1.913 -0.0021  0.0065 -0.6060
17450SOL    HW252929   4.104   0.413   1.858  0.2085 -0.2808 -0.0375
17451SOL     OW52930   7.833   2.902   8.984  0.0653 -0.0476 -0.0095
17451SOL    HW152931   7.855   2.851   9.062  1.8312  0.5209 -0.0758
17451SOL    HW252932   7.845   2.841   8.912  0.0782 -0.1156  0.0497
17452SOL     OW52933   3.922   7.930   8.398 -0.5260 -0.3426  0.0299
17452SOL    HW152934   3.957   7.966   8.316 -2.1760  0.6446 -0.2828
17452SOL    HW252935   3.971   7.849   8.411  0.1731 -0.2346 -1.6336
17453SOL     OW52936   8.262   3.329   5.458  0.2194  0.4918  0.2582
17453SOL    HW152937   8.272   3.241   5.495  0.8336  0.6511  0.4908
17453SOL    HW252938   8.178   3.360   5.492  0.4283  0.3456  0.9225
17454SOL     OW52939   0.670   8.906   0.920 -0.3562 -0.1824 -0.2126
17454SOL    HW152940   0.626   8.873   0.842  1.8368 -1.0542 -1.1769
17454SOL    HW252941   0.690   8.827   0.971  1.6922 -0.0584 -0.7401
17455SOL     OW52942   1.030   8.269   0.543  0.1241 -0.0437 -0.7865
17455SOL    HW152943   1.106   8.326   0.556 -0.6471  0.5701  1.5391
17455SOL    HW252944   0.956   8.329   0.535 -0.3273 -0.6748 -1.5155
17456SOL     OW52945   2.382   9.111   8.371 -0.7599  0.2646  0.2881
17456SOL    HW152946   2.420   9.056   8.302 -1.6915 -0.8192  0.6118
17456SOL    HW252947   2.345   9.186   8.325  0.6733  0.7491 -0.1449
17457SOL     OW52948   8.817   7.322   3.441  0.5647 -0.5971  0.2857
17457SOL    HW152949   8.833   7.232   3.413  1.7290 -1.1777  2.5643
17457SOL    HW252950   8.786   7.313   3.532  0.2808  1.2899  0.4059
17458SOL     OW52951   8.650   2.984   9.217  0.0059  0.5367 -0.3226
17458SOL    HW152952   8.726   3.007   9.271 -1.7230  2.1948  1.5219
17458SOL    HW252953   8.626   2.896   9.248  1.7795 -0.5472 -1.7599
17459SOL     OW52954   4.133   8.840   7.658  0.3601 -0.3382  0.7297
17459SOL    HW152955   4.128   8.745   7.654  1.4326 -0.4174  1.1665
17459SOL    HW252956   4.226   8.860   7.667  0.0327  0.6754  2.3440
17460SOL     OW52957   3.753   9.722   2.639 -0.2997  0.1782 -0.0437
17460SOL    HW152958   3.762   9.788   2.570 -1.1834 -0.6153 -0.9746
17460SOL    HW252959   3.675   9.749   2.688 -2.7298 -1.7881 -2.4618
17461SOL     OW52960   8.664   8.327   4.676  0.4562 -0.6083 -0.0560
17461SOL    HW152961   8.657   8.256   4.613  0.5566  0.2049 -1.0174
17461SOL    HW252962   8.574   8.344   4.703  0.1357  0.4000 -1.5862
17462SOL     OW52963   3.828   5.979   8.225  0.7404  0.5875 -0.1739
17462SOL    HW152964   3.858   6.061   8.262  1.0957 -0.5629  2.2649
17462SOL    HW252965   3.874   5.911   8.274 -0.2074 -1.1063 -1.4900
17463SOL     OW52966   4.029   9.159   0.409  0.2542 -0.1173  0.3674
17463SOL    HW152967   4.107   9.112   0.378 -0.3904 -1.0977  0.1999
17463SOL    HW252968   4.014   9.125   0.497 -0.6545 -0.7972 -0.0360
17464SOL     OW52969   0.816   5.320   8.608  0.1023  0.4746  0.4268
17464SOL    HW152970   0.897   5.309   8.658 -0.4465  1.3441  1.5508
17464SOL    HW252971   0.831   5.397   8.553  0.4020  0.0182 -0.1394
17465SOL     OW52972   9.208   3.768   5.376  0.1282 -0.6092  0.3857
17465SOL    HW152973   9.269   3.839   5.396  1.1323 -1.3664  0.0997
17465SOL    HW252974   9.167   3.746   5.460 -0.7953  0.8402  0.3329
17466SOL     OW52975   5.197   2.203   7.022  0.0815  0.1134  0.2437
17466SOL    HW152976   5.248   2.270   7.068  1.2721 -1.2171  0.9447
17466SOL    HW252977   5.111   2.206   7.064  1.1288 -1.0651  2.6942
17467SOL     OW52978   7.320   6.123   3.641  0.5212  0.0977 -0.1403
17467SOL    HW152979   7.237   6.165   3.617  0.7543  1.1444  0.8046
17467SOL    HW252980   7.307   6.030   3.620 -0.3475  0.4823 -1.3846
17468SOL     OW52981   0.466   9.426   0.481 -0.7346  0.5566  0.1584
17468SOL    HW152982   0.451   9.385   0.395  2.9049 -2.3308  0.6186
17468SOL    HW252983   0.539   9.486   0.466 -1.5976  1.8156  0.8530
17469SOL     OW52984   9.557   7.729   2.930 -0.1045 -0.5556  0.5557
17469SOL    HW152985   9.533   7.793   2.863  0.3655 -0.8892  0.0567
17469SOL    HW252986   9.497   7.655   2.915  0.5689 -0.9923 -0.0753
17470SOL     OW52987   6.975   8.430   9.083  0.0862 -0.5011 -0.5575
17470SOL    HW152988   6.924   8.360   9.125 -0.5717  0.0546 -0.3998
17470SOL    HW252989   6.987   8.495   9.152 -2.2881  1.1193 -1.5266
17471SOL     OW52990   3.437   2.860   8.443  0.8988  0.3025  0.2861
17471SOL    HW152991   3.367   2.905   8.491  0.1074 -1.1390  0.5398
17471SOL    HW252992   3.493   2.822   8.511  2.8448  2.6525  0.1347
17472SOL     OW52993   7.303   9.716   6.766 -0.1554 -0.0742 -0.0363
17472SOL    HW152994   7.228   9.766   6.734  0.5164  1.4768  0.7072
17472SOL    HW252995   7.269   9.628   6.781 -1.3729  0.1372 -1.4171
17473SOL     OW52996   9.446   9.273   8.757 -0.3934 -0.0238 -0.1567
17473SOL    HW152997   9.442   9.188   8.800 -1.5777 -0.6554 -1.4286
17473SOL    HW252998   9.366   9.318   8.783 -0.0609  0.4707  0.0321
17474SOL     OW52999   9.521   9.040   4.452 -0.5163  0.3001  0.0537
17474SOL    HW153000   9.466   8.962   4.456  2.1273 -1.7001  1.0084
17474SOL    HW253001   9.509   9.081   4.538 -0.5890 -0.1182  0.2510
17475SOL     OW53002   7.706   9.234   0.800 -0.0143 -0.2321  0.1681
17475SOL    HW153003   7.753   9.286   0.735  0.0232  0.0075  0.3843
17475SOL    HW253004   7.718   9.281   0.882 -0.1121 -0.5007  0.3389
17476SOL     OW53005   7.502   9.738   1.460  0.2264  0.0092 -0.4382
17476SOL    HW153006   7.485   9.818   1.509 -0.0210  0.2938 -0.9772
17476SOL    HW253007   7.526   9.768   1.372 -1.2319 -0.5229 -1.0588
17477SOL     OW53008   4.968   7.827   2.593  0.0162  0.7865 -0.4898
17477SOL    HW153009   4.972   7.751   2.535  1.9129  0.4643 -0.0201
17477SOL    HW253010   4.876   7.853   2.594 -0.6423 -1.3797 -0.8259
17478SOL     OW53011   7.339   8.555   3.182  0.4729  0.3794 -0.3177
17478SOL    HW153012   7.260   8.501   3.192  1.5087 -1.0478  0.4967
17478SOL    HW253013   7.369   8.537   3.093  1.3550 -1.2067  0.2684
17479SOL     OW53014   5.994   9.637   4.272 -0.7958 -1.0201  0.7218
17479SOL    HW153015   5.981   9.557   4.222 -0.5466 -0.4379 -0.3147
17479SOL    HW253016   5.927   9.635   4.340  0.1387 -2.8182  1.6582
17480SOL     OW53017   6.878   4.939   1.654  0.2232  0.3537  0.5788
17480SOL    HW153018   6.912   4.864   1.604 -1.5708 -0.1879  0.0892
17480SOL    HW253019   6.923   4.934   1.739  2.2462  0.4329 -0.4060
17481SOL     OW53020   1.159   7.612   3.825 -0.3207 -0.0170  0.1328
17481SOL    HW153021   1.129   7.696   3.861 -0.6910 -0.4852  0.9233
17481SOL    HW253022   1.096   7.548   3.857  0.6242 -0.7792  0.4939
17482SOL     OW53023   8.049   4.135   3.640  0.1785 -0.6299 -0.1939
17482SOL    HW153024   8.082   4.212   3.686  1.9880 -1.8573  0.6787
17482SOL    HW253025   7.990   4.170   3.574  1.4594  1.5645 -0.2676
17483SOL     OW53026   4.656   4.435   7.156 -0.1823  0.3599 -0.1944
17483SOL    HW153027   4.647   4.368   7.089  0.4309  1.1007 -1.0514
17483SOL    HW253028   4.744   4.471   7.142 -0.7565  1.8353 -0.2477
17484SOL     OW53029   8.141   4.641   3.108  0.0238  0.3542 -0.0156
17484SOL    HW153030   8.181   4.697   3.041  1.4429  0.7872  1.1259
17484SOL    HW253031   8.132   4.699   3.184 -0.0814 -0.5204  0.6479
17485SOL     OW53032   2.693   5.151   4.316 -0.0566  0.5016 -0.3270
17485SOL    HW153033   2.654   5.069   4.289 -0.3533  0.4247  0.3102
17485SOL    HW253034   2.764   5.166   4.254 -0.5055  0.1702 -0.9223
17486SOL     OW53035   7.067   8.207   5.095  0.3307  0.4313 -0.2329
17486SOL    HW153036   7.092   8.226   5.185 -2.9467 -1.3722  1.2545
17486SOL    HW253037   6.974   8.229   5.091  0.4267  0.7032 -3.2975
17487SOL     OW53038   7.519   7.778   6.812 -0.3883  0.3571  0.2347
17487SOL    HW153039   7.435   7.754   6.852 -1.2326  1.5664 -0.7608
17487SOL    HW253040   7.516   7.873   6.804  0.2709  0.2669 -1.5333
17488SOL     OW53041   6.950   4.565   3.575 -0.0236  0.3289 -0.3322
17488SOL    HW153042   7.020   4.501   3.592  0.7549  1.2189 -0.0724
17488SOL    HW253043   6.996   4.642   3.541 -0.9425  0.7674 -0.6198
17489SOL     OW53044   1.118   0.006   9.663  0.7441 -0.9068 -0.2278
17489SOL    HW153045   1.026  -0.016   9.649  0.3826 -0.5744  1.4766
17489SOL    HW253046   1.128   0.092   9.621  0.0001 -0.4642  0.4788
17490SOL     OW53047   5.280   1.675   6.095  0.2354 -0.2135 -0.0827
17490SOL    HW153048   5.201   1.650   6.047  1.1251 -0.1064 -1.6852
17490SOL    HW253049   5.254   1.674   6.187 -2.1020  1.4707 -0.6208
17491SOL     OW53050   2.414   5.618   3.082 -0.0993  0.1397 -0.4190
17491SOL    HW153051   2.326   5.634   3.118 -1.3332 -3.1045 -1.6994
17491SOL    HW253052   2.405   5.634   2.988  0.7769 -0.0241 -0.5413
17492SOL     OW53053   0.564   0.094   5.774 -0.1953 -0.2640  0.0194
17492SOL    HW153054   0.526   0.181   5.792 -0.1486 -0.6395  2.2978
17492SOL    HW253055   0.651   0.098   5.814  1.3435 -0.2192 -3.0467
17493SOL     OW53056   3.344   3.557   8.867 -0.2356 -0.3741  0.2384
17493SOL    HW153057   3.257   3.574   8.902  0.8390  1.3752  2.3819
17493SOL    HW253058   3.401   3.558   8.945  1.8871  0.1907 -1.2279
17494SOL     OW53059   0.165   9.581   4.087 -0.1215 -0.2461  0.1259
17494SOL    HW153060   0.076   9.603   4.117  0.3674  1.4204  0.4797
17494SOL    HW253061   0.163   9.596   3.993  0.1057  1.1107  0.3121
17495SOL     OW53062   3.943   8.553   3.404  0.1618  0.2060 -0.1837
17495SOL    HW153063   4.023   8.544   3.353  0.8427  0.9318  0.7324
17495SOL    HW253064   3.964   8.619   3.471 -0.6780 -0.7476  1.0661
17496SOL     OW53065   9.823   6.901   5.279 -0.8209 -0.5747 -0.1396
17496SOL    HW153066   9.839   6.818   5.324  0.2969 -0.0637  0.4559
17496SOL    HW253067   9.741   6.888   5.231  0.3075 -2.6590 -1.6189
17497SOL     OW53068   1.477   5.072   7.222 -0.5315 -0.6175 -0.1982
17497SOL    HW153069   1.405   5.036   7.171 -0.0149 -1.2908 -0.4737
17497SOL    HW253070   1.440   5.148   7.267 -1.4005 -0.9509 -0.3422
17498SOL     OW53071   4.435   4.355   1.905  0.6657 -0.3916  0.3332
17498SOL    HW153072   4.368   4.304   1.860  0.2751  0.8036 -0.4894
17498SOL    HW253073   4.392   4.438   1.926  0.5581 -1.1593  3.6905
17499SOL     OW53074  10.006   7.149   5.882  0.0447  0.4336  0.2307
17499SOL    HW153075   9.917   7.115   5.893  0.8792 -1.2182  2.8624
17499SOL    HW253076   9.996   7.224   5.823 -2.5822 -1.6723 -2.3283
17500SOL     OW53077   2.529   4.503   8.996 -0.1746  0.0079 -0.9549
17500SOL    HW153078   2.463   4.507   9.065  0.8920  0.5014  0.0636
17500SOL    HW253079   2.538   4.593   8.966  0.6731  0.0877 -0.4688
17501SOL     OW53080   1.811   7.236   1.011 -0.1899 -0.6546 -0.0949
17501SOL    HW153081   1.772   7.199   0.932 -1.6780 -1.5665  1.0146
17501SOL    HW253082   1.757   7.312   1.031  1.4983  0.8818 -1.1055
17502SOL     OW53083   3.913   0.937   3.483 -0.3080 -0.1985  0.2741
17502SOL    HW153084   4.004   0.935   3.453  0.1006 -1.1910  1.4664
17502SOL    HW253085   3.919   0.954   3.577 -1.1071 -3.1476  0.9740
17503SOL     OW53086   5.407   2.189   7.307  0.2682 -0.1260 -0.0741
17503SOL    HW153087   5.415   2.257   7.373 -0.1627 -0.4263  0.2946
17503SOL    HW253088   5.448   2.226   7.228  0.7620  0.2411  0.3490
17504SOL     OW53089   4.757   2.145   6.147  0.2348 -0.0206  0.1758
17504SOL    HW153090   4.811   2.207   6.098 -1.3284 -0.0472 -1.7310
17504SOL    HW253091   4.818   2.077   6.176  1.2382 -0.1506 -2.0287
17505SOL     OW53092   4.861   1.803   0.325 -0.0304  0.0930  0.2726
17505SOL    HW153093   4.810   1.747   0.383  1.8465 -1.8612  0.1678
17505SOL    HW253094   4.905   1.865   0.383  0.8167 -1.0131  0.8425
17506SOL     OW53095   8.247   4.073   1.415 -0.1037  0.3656 -0.1076
17506SOL    HW153096   8.304   3.997   1.401  0.1336  0.3078  1.0300
17506SOL    HW253097   8.158   4.040   1.403 -0.0157 -0.1664  0.6572
17507SOL     OW53098   2.846   5.673   8.058  0.1743  0.4319 -0.2659
17507SOL    HW153099   2.912   5.654   7.991  2.8218  1.0957  1.9746
17507SOL    HW253100   2.844   5.768   8.064  0.4404  0.3778  0.9625
17508SOL     OW53101   7.990   6.906   4.998  0.0565  0.0949  0.2959
17508SOL    HW153102   8.000   6.905   4.903  0.2074 -2.2043  0.2646
17508SOL    HW253103   7.904   6.944   5.013 -0.3509 -0.3549 -0.8313
17509SOL     OW53104   8.450   3.389   2.202  0.2600 -0.3309  0.4017
17509SOL    HW153105   8.455   3.321   2.134 -0.3276 -2.4319  2.3304
17509SOL    HW253106   8.375   3.443   2.177  2.5384  1.6891 -2.8523
17510SOL     OW53107   3.935   2.530   6.897  0.1729 -0.2803 -0.2395
17510SOL    HW153108   3.965   2.505   6.810 -0.4608  1.8514 -1.1264
17510SOL    HW253109   3.846   2.494   6.902  0.8998 -2.1107  0.3581
17511SOL     OW53110   0.196   9.260   4.572 -0.3479 -0.1638 -0.3310
17511SOL    HW153111   0.120   9.304   4.535 -0.7833  1.1586  1.9519
17511SOL    HW253112   0.167   9.230   4.659  0.9153 -2.1587 -0.5159
17512SOL     OW53113   0.720   4.245   7.047 -0.4323  0.2632 -0.5974
17512SOL    HW153114   0.730   4.150   7.054 -1.1820  0.1792 -0.5647
17512SOL    HW253115   0.634   4.257   7.007  0.6536  0.8713 -2.9634
17513SOL     OW53116   9.726   4.908   4.930 -0.1106 -0.5342  0.0305
17513SOL    HW153117   9.707   5.000   4.911  2.5793 -0.3467 -2.2649
17513SOL    HW253118   9.649   4.878   4.978 -0.9467  2.9727  1.1997
17514SOL     OW53119   8.765   7.393   2.285  0.0236  0.0079  0.0937
17514SOL    HW153120   8.767   7.472   2.339  1.6859 -0.0395  0.1327
17514SOL    HW253121   8.693   7.409   2.223 -0.9939  0.6565  1.3933
17515SOL     OW53122   9.781   9.371   8.900  0.7647  0.1042  0.0910
17515SOL    HW153123   9.840   9.421   8.956  0.6489  0.2061  0.1219
17515SOL    HW253124   9.703   9.357   8.953  0.3343  0.8776 -0.3044
17516SOL     OW53125   3.946   8.451   0.670  0.2613  0.0138 -0.3093
17516SOL    HW153126   4.015   8.408   0.619  0.6081  0.8420 -0.5461
17516SOL    HW253127   3.876   8.466   0.606 -0.1907 -0.9085 -0.0493
17517SOL     OW53128   0.862   2.248   6.031 -0.3430  0.2547 -0.2313
17517SOL    HW153129   0.781   2.292   6.057  0.5306  1.8129  0.0014
17517SOL    HW253130   0.912   2.240   6.113  0.3577  0.6750 -0.6116
17518SOL     OW53131   6.412   8.849   2.698  0.0763 -0.2746  0.4228
17518SOL    HW153132   6.437   8.862   2.790 -0.6776 -0.1304  0.6151
17518SOL    HW253133   6.317   8.859   2.698  0.1274  0.2711 -0.4730
17519SOL     OW53134   7.147   8.570   9.549 -0.0904 -0.7664 -0.4759
17519SOL    HW153135   7.217   8.595   9.489  1.3372 -0.0245  1.4290
17519SOL    HW253136   7.185   8.576   9.636 -2.3858 -0.8057  0.6174
17520SOL     OW53137   0.370   6.307   0.127 -0.1505 -0.8310 -0.7373
17520SOL    HW153138   0.408   6.327   0.041 -1.3568  0.3270 -1.0214
17520SOL    HW253139   0.278   6.332   0.119 -0.2346 -0.5067  0.9647
17521SOL     OW53140   1.671   7.207   1.897  0.0636 -0.0016 -0.2598
17521SOL    HW153141   1.673   7.277   1.832 -1.6535  0.3423  0.0143
17521SOL    HW253142   1.577   7.191   1.913  0.4349 -0.8008  1.3523
17522SOL     OW53143   9.351   3.985   0.216 -0.0285 -0.4284  0.4450
17522SOL    HW153144   9.388   3.976   0.128 -0.9268  1.3455 -0.1676
17522SOL    HW253145   9.425   4.012   0.270  0.2709 -0.2850 -0.0259
17523SOL     OW53146   4.730   8.616   4.836 -0.3471  0.2699 -0.2970
17523SOL    HW153147   4.749   8.532   4.876 -1.1631  0.0188 -0.4242
17523SOL    HW253148   4.710   8.674   4.909 -1.5287 -0.1075 -0.3073
17524SOL     OW53149   3.922   5.664   0.698  0.4939  0.0869 -0.0299
17524SOL    HW153150   3.994   5.657   0.636 -0.1096  0.9897 -0.8552
17524SOL    HW253151   3.885   5.575   0.701 -1.3128  0.5808 -3.2799
17525SOL     OW53152   4.637   6.058   6.493 -0.2289 -0.1724 -0.5350
17525SOL    HW153153   4.575   5.985   6.491  1.5114 -1.7814  0.5351
17525SOL    HW253154   4.720   6.018   6.518  0.6271  2.3159  1.0133
17526SOL     OW53155   1.472   2.169   7.771 -0.1348 -0.1814  0.7330
17526SOL    HW153156   1.551   2.122   7.798 -0.6503  0.7946  4.4496
17526SOL    HW253157   1.401   2.124   7.817 -1.5023  0.2922 -0.8365
17527SOL     OW53158   9.619   5.643   7.113 -0.3669 -0.0526  0.0702
17527SOL    HW153159   9.622   5.647   7.017  2.3618  1.5355  0.1278
17527SOL    HW253160   9.673   5.567   7.136 -1.5236 -0.8190  0.4191
17528SOL     OW53161   3.691   1.353   4.270  0.2384  0.4116  0.6563
17528SOL    HW153162   3.656   1.335   4.183 -0.3554  0.9464  0.7800
17528SOL    HW253163   3.656   1.439   4.293 -0.3532 -0.1117  1.8042
17529SOL     OW53164   1.082   6.653   7.777 -0.5192  0.0245  0.0915
17529SOL    HW153165   0.992   6.686   7.775 -1.0249 -1.2571  0.5451
17529SOL    HW253166   1.076   6.571   7.825  0.8833 -0.1479  0.0050
17530SOL     OW53167   5.812   4.524   6.560  0.2156 -0.0763  0.1697
17530SOL    HW153168   5.794   4.613   6.594  3.0318  1.0400 -0.9984
17530SOL    HW253169   5.905   4.510   6.578  0.3321 -1.9354 -1.5906
17531SOL     OW53170   9.175   3.054   4.353  0.7178  0.0718 -0.3283
17531SOL    HW153171   9.129   3.132   4.383 -1.7526 -0.8759 -1.3277
17531SOL    HW253172   9.181   2.999   4.431  0.8342  0.5192 -0.0160
17532SOL     OW53173   6.495   5.828   8.377  0.0941  0.1219 -0.2848
17532SOL    HW153174   6.433   5.807   8.447 -0.6506  2.3889 -0.1879
17532SOL    HW253175   6.445   5.816   8.296  0.1552  0.0291 -0.3091
17533SOL     OW53176   7.385   0.625   0.331  0.0691 -0.1709  0.4791
17533SOL    HW153177   7.308   0.641   0.387 -0.3126  1.0623 -0.3601
17533SOL    HW253178   7.456   0.608   0.393 -0.6567 -0.2981  1.3016
17534SOL     OW53179   9.467   7.303   1.393  0.2541 -0.2216 -0.1209
17534SOL    HW153180   9.467   7.322   1.487 -0.0478 -1.3056  0.1220
17534SOL    HW253181   9.534   7.360   1.356  0.7731 -0.1835  0.8467
17535SOL     OW53182   7.576   8.316   6.195  0.4041  0.4858  0.4402
17535SOL    HW153183   7.595   8.369   6.118  1.1277 -0.9140 -0.3817
17535SOL    HW253184   7.482   8.299   6.190  0.4497  0.4052 -0.1390
17536SOL     OW53185   9.760   2.167   9.881 -1.3181 -0.0857 -0.2947
17536SOL    HW153186   9.666   2.173   9.898 -1.0927  2.6388  0.4528
17536SOL    HW253187   9.768   2.167   9.785 -2.0515 -0.0538 -0.3559
17537SOL     OW53188   9.715   3.080   2.228 -0.3514 -0.1948 -0.1268
17537SOL    HW153189   9.660   3.060   2.152  1.0367  1.2226 -1.5853
17537SOL    HW253190   9.675   3.158   2.266 -0.0071  0.1677 -0.5043
17538SOL     OW53191   5.695   9.899   7.065  0.1565  0.4497  0.0996
17538SOL    HW153192   5.742   9.964   7.013  1.1379  1.2049  1.8371
17538SOL    HW253193   5.704   9.929   7.155 -3.0836  0.1984  0.6080
17539SOL     OW53194   0.610   6.308   9.384 -0.4790 -0.0583 -0.3917
17539SOL    HW153195   0.536   6.261   9.347 -1.8914  0.3476  1.7495
17539SOL    HW253196   0.587   6.401   9.374 -0.5480  0.0658  0.7719
17540SOL     OW53197   8.182   5.919   1.687 -0.1995  0.2436  0.1801
17540SOL    HW153198   8.250   5.855   1.705  0.3060  0.8675  0.5110
17540SOL    HW253199   8.210   5.963   1.607 -0.2337  0.4698  0.2911
17541SOL     OW53200   5.958   8.251   7.192 -0.3070  0.6150 -0.1463
17541SOL    HW153201   5.967   8.272   7.285  1.5785 -2.3192  0.4813
17541SOL    HW253202   5.876   8.202   7.186 -0.1261  0.2686  0.1265
17542SOL     OW53203   6.361   4.255   1.758  0.3629 -0.1389  0.2558
17542SOL    HW153204   6.279   4.255   1.709  0.4782  0.9054  0.0401
17542SOL    HW253205   6.336   4.226   1.846 -0.2390  0.1973  0.1985
17543SOL     OW53206   2.169   8.727   0.124  0.2415  0.1078  0.4291
17543SOL    HW153207   2.174   8.734   0.219  1.1381  1.2000  0.3145
17543SOL    HW253208   2.166   8.633   0.107 -1.0714 -0.0919  1.5782
17544SOL     OW53209   2.317   7.363   1.497 -0.1636 -0.6302 -0.3773
17544SOL    HW153210   2.323   7.390   1.589 -0.8219 -0.6789 -0.3152
17544SOL    HW253211   2.372   7.285   1.492  2.0221  0.8289 -0.6284
17545SOL     OW53212   2.847   9.326   1.427 -0.4171  0.4927 -0.1229
17545SOL    HW153213   2.841   9.252   1.488  0.7028 -0.5822 -1.2692
17545SOL    HW253214   2.809   9.293   1.346 -0.1284  1.2678 -0.5795
17546SOL     OW53215   2.995   4.004   0.666 -0.2722  0.1114 -0.0029
17546SOL    HW153216   2.908   3.988   0.700 -0.2003  0.5962  0.4202
17546SOL    HW253217   3.053   3.950   0.721 -0.3279 -0.4100 -0.4490
17547SOL     OW53218   9.650   6.339   1.905 -0.8854  0.2584  0.1433
17547SOL    HW153219   9.613   6.308   1.823  0.8676  2.2836 -1.5553
17547SOL    HW253220   9.585   6.318   1.971 -2.4974 -1.1987 -1.7940
17548SOL     OW53221   3.333   8.577   5.855  0.3838  0.0081 -0.0052
17548SOL    HW153222   3.269   8.586   5.925  2.2938  1.9331  1.6005
17548SOL    HW253223   3.324   8.486   5.826  0.2443 -1.2179  3.4623
17549SOL     OW53224   8.711   8.899   8.340  0.1639  0.0132  0.9384
17549SOL    HW153225   8.792   8.876   8.295  0.4851 -0.6960  1.8475
17549SOL    HW253226   8.680   8.977   8.295  0.7534 -0.3556 -0.1537
17550SOL     OW53227   8.643   0.488   1.130 -0.6104 -0.4248  0.0790
17550SOL    HW153228   8.621   0.398   1.106  0.3041 -0.7039  0.2677
17550SOL    HW253229   8.642   0.536   1.047  0.5346 -0.9633 -0.2684
17551SOL     OW53230   9.213   1.237   5.740  0.2994 -0.1207  0.4792
17551SOL    HW153231   9.169   1.289   5.673  0.7139 -1.5273 -0.9518
17551SOL    HW253232   9.304   1.266   5.737  0.6993 -1.3487 -0.8571
17552SOL     OW53233   8.522   7.179   1.362 -0.1700  0.4282  0.0597
17552SOL    HW153234   8.593   7.116   1.352 -0.3804  0.1423  0.3207
17552SOL    HW253235   8.495   7.171   1.454  0.1077  1.2378  0.2235
17553SOL     OW53236   1.036   1.713   8.312  0.1363 -0.1915 -0.4260
17553SOL    HW153237   1.022   1.622   8.286 -0.6552 -0.4198  0.7411
17553SOL    HW253238   1.131   1.724   8.311  0.2866 -1.3037  0.2848
17554SOL     OW53239   3.070   2.957   6.878 -0.2786  0.1077  0.3517
17554SOL    HW153240   3.004   2.982   6.813 -0.8442  0.2652  0.9811
17554SOL    HW253241   3.045   3.003   6.957 -0.9984 -1.9324  1.3761
17555SOL     OW53242   3.400   2.376   5.928 -0.4330 -0.5074  0.5062
17555SOL    HW153243   3.363   2.460   5.901  0.9078  0.2518  0.9717
17555SOL    HW253244   3.494   2.385   5.914 -0.3016 -2.0901  0.1575
17556SOL     OW53245   7.322   9.370   0.668 -0.0446  0.1663  1.1017
17556SOL    HW153246   7.290   9.396   0.582  0.4398  1.7441  1.3657
17556SOL    HW253247   7.345   9.278   0.659  0.7365  0.5108 -0.6790
17557SOL     OW53248   4.267   5.280   8.412 -0.0090  0.2036  0.8937
17557SOL    HW153249   4.188   5.259   8.363  0.0783 -0.3116  0.9643
17557SOL    HW253250   4.268   5.217   8.484  1.0087 -0.5012  0.2951
17558SOL     OW53251   1.345   9.096   6.619 -0.1426 -0.0145 -0.7452
17558SOL    HW153252   1.331   9.190   6.625 -0.6917 -0.1035 -0.5356
17558SOL    HW253253   1.402   9.085   6.543 -0.5855  0.4413 -1.1522
17559SOL     OW53254   6.513   0.996   5.591 -0.2822  0.1564 -0.6485
17559SOL    HW153255   6.508   0.920   5.533  1.3965  0.6992 -1.5849
17559SOL    HW253256   6.510   0.959   5.680 -1.0294 -0.8472 -1.0741
17560SOL     OW53257   3.486   6.154   6.788  0.1051  0.7254 -0.2791
17560SOL    HW153258   3.577   6.136   6.814 -0.4920 -0.2252  1.3006
17560SOL    HW253259   3.494   6.216   6.715  1.9925  1.4762  0.4851
17561SOL     OW53260   1.853   4.495   6.644  0.0428  0.7548 -0.0042
17561SOL    HW153261   1.903   4.415   6.631 -0.1927  0.3364  1.4667
17561SOL    HW253262   1.818   4.516   6.557  0.5415 -0.4317 -0.5154
17562SOL     OW53263   4.907   7.638   8.094  0.2477 -0.0761 -0.2790
17562SOL    HW153264   4.973   7.638   8.164  0.2022 -1.1724 -0.2150
17562SOL    HW253265   4.896   7.545   8.072 -1.8949 -0.0203  0.3100
17563SOL     OW53266   2.766   5.434   1.748  0.2078  0.3403 -0.1210
17563SOL    HW153267   2.776   5.402   1.838  0.3193  0.1668 -0.1931
17563SOL    HW253268   2.843   5.398   1.702  0.4547  0.9065 -0.1523
17564SOL     OW53269   3.135   8.681   2.024  0.2088  0.4501  0.0427
17564SOL    HW153270   3.193   8.745   2.065  0.3805  0.5114 -0.2894
17564SOL    HW253271   3.188   8.602   2.016  0.0481  0.3152  0.3064
17565SOL     OW53272   1.132   2.435   3.392 -0.0900 -0.3410  0.5265
17565SOL    HW153273   1.134   2.481   3.308  0.8643 -0.3688  0.5130
17565SOL    HW253274   1.191   2.360   3.378 -0.2129 -0.5494  1.1112
17566SOL     OW53275   2.319   5.564   8.656  0.1611 -0.7741 -0.1109
17566SOL    HW153276   2.391   5.621   8.630  0.0365 -0.9127 -0.7960
17566SOL    HW253277   2.248   5.623   8.679  0.7325 -0.6202  1.3300
17567SOL     OW53278   3.465   3.688   1.100 -0.0096  0.2291  0.1571
17567SOL    HW153279   3.543   3.662   1.050 -0.3774 -0.8052  0.0902
17567SOL    HW253280   3.411   3.609   1.101  0.1366  0.0896  2.5043
17568SOL     OW53281   6.721   0.127   0.691  0.7367 -0.5918 -0.1291
17568SOL    HW153282   6.723   0.211   0.645 -1.3374 -0.3137  0.1948
17568SOL    HW253283   6.659   0.141   0.763  0.0397 -2.5166 -0.3108
17569SOL     OW53284   1.390   1.700   3.639  0.1609  0.3025 -0.1329
17569SOL    HW153285   1.423   1.704   3.729  0.2039 -0.2422 -0.1158
17569SOL    HW253286   1.323   1.767   3.635  0.3916  0.5574  0.2106
17570SOL     OW53287   7.082   6.278   8.264 -0.3357 -0.5966  0.3490
17570SOL    HW153288   6.993   6.252   8.241 -0.3414 -0.1089 -0.2072
17570SOL    HW253289   7.098   6.358   8.212 -0.3420  0.5407  2.0192
17571SOL     OW53290   6.622   2.605   0.234 -0.0845 -0.1768  0.3458
17571SOL    HW153291   6.598   2.696   0.254  0.2651  0.0395 -0.1966
17571SOL    HW253292   6.673   2.611   0.153 -1.6878 -1.0534 -0.7818
17572SOL     OW53293   0.195   2.769   9.651 -0.4984 -0.3008  0.2072
17572SOL    HW153294   0.281   2.789   9.614 -0.9248  1.2696 -0.0023
17572SOL    HW253295   0.212   2.758   9.745 -0.1025  0.3072  0.2143
17573SOL     OW53296   0.501   8.343   8.239 -0.2208  0.2920 -0.3786
17573SOL    HW153297   0.510   8.257   8.200 -1.1107  0.8313 -1.8331
17573SOL    HW253298   0.425   8.382   8.196  0.5955  2.0892 -0.2970
17574SOL     OW53299   8.297   0.694   5.805  0.0502 -0.7348  0.3309
17574SOL    HW153300   8.330   0.730   5.887 -3.2399 -0.5393  1.7219
17574SOL    HW253301   8.221   0.643   5.831 -0.0937 -2.1066 -2.4719
17575SOL     OW53302   9.338   3.157   9.184 -0.1933 -0.5994 -0.5912
17575SOL    HW153303   9.286   3.223   9.138  0.1882  0.9401  1.0862
17575SOL    HW253304   9.301   3.155   9.272  3.0123  1.1241  0.9219
17576SOL     OW53305   4.042   0.168   2.397 -0.0080  0.4842  0.0341
17576SOL    HW153306   3.981   0.102   2.429 -1.0389  3.0201  4.1687
17576SOL    HW253307   3.991   0.223   2.338 -0.7506  0.5620  0.7316
17577SOL     OW53308   0.212   0.315   4.090  0.5693  0.1840  0.3217
17577SOL    HW153309   0.177   0.385   4.035  2.8682  1.8004  0.7619
17577SOL    HW253310   0.293   0.289   4.047  0.8435 -0.6818  1.3318
17578SOL     OW53311   1.320   7.792   6.180  0.0228 -0.7178  0.0295
17578SOL    HW153312   1.283   7.729   6.118  2.8658 -0.8262 -1.7365
17578SOL    HW253313   1.402   7.751   6.209  0.7056  1.0899  0.7618
17579SOL     OW53314   8.585   4.974   6.397 -0.2957  0.0782 -0.3125
17579SOL    HW153315   8.632   4.962   6.315 -0.8894 -2.2177 -0.3617
17579SOL    HW253316   8.576   4.886   6.434 -0.5700  0.9649  1.9364
17580SOL     OW53317   2.999   2.356   8.744 -0.1505  0.6660  0.5152
17580SOL    HW153318   3.047   2.439   8.738  3.1062 -1.0918 -0.2365
17580SOL    HW253319   3.056   2.299   8.795 -0.5840 -2.0766 -1.7739
17581SOL     OW53320   1.577   1.769   5.299 -0.5169  0.4249  0.3286
17581SOL    HW153321   1.537   1.855   5.282 -0.8995  0.3179  0.6707
17581SOL    HW253322   1.578   1.761   5.394 -1.4242 -0.3747  0.2857
17582SOL     OW53323   2.591   4.785   9.325 -0.6232  0.1844  0.6711
17582SOL    HW153324   2.665   4.765   9.384 -0.2740  1.1565  0.5778
17582SOL    HW253325   2.628   4.780   9.237 -0.8956 -0.2376  0.5789
17583SOL     OW53326   3.578   7.586   2.171  0.6832 -0.0232  0.1766
17583SOL    HW153327   3.535   7.671   2.179  1.2261  0.3343 -0.6116
17583SOL    HW253328   3.553   7.539   2.251  0.0724  0.7286  0.4415
17584SOL     OW53329   0.113   2.547   0.978 -0.4103 -0.2160 -0.6512
17584SOL    HW153330   0.168   2.560   0.901  0.6747 -2.2248 -0.2655
17584SOL    HW253331   0.169   2.502   1.040 -2.0120 -0.8508  0.3842
17585SOL     OW53332   8.263   1.201   2.606  0.1695 -0.7072  0.1862
17585SOL    HW153333   8.241   1.128   2.664  0.4586  0.1907  1.4624
17585SOL    HW253334   8.321   1.162   2.541 -0.1757 -1.7503  0.4824
17586SOL     OW53335   1.184   3.178   5.555 -0.6163 -0.2483 -0.4197
17586SOL    HW153336   1.199   3.255   5.611 -0.2185 -0.6053 -0.0309
17586SOL    HW253337   1.102   3.140   5.588 -0.1928 -0.6650  0.1624
17587SOL     OW53338   3.675   7.709   9.214  0.0676  0.4343  0.2531
17587SOL    HW153339   3.731   7.763   9.271  1.0506  0.4107 -0.6393
17587SOL    HW253340   3.701   7.619   9.233 -0.7775  0.3222  0.9341
17588SOL     OW53341   9.565   2.470   1.855 -0.0080  0.2304  0.5760
17588SOL    HW153342   9.615   2.420   1.791  0.7786  0.5168  0.9499
17588SOL    HW253343   9.555   2.557   1.815 -0.5106  0.0699  0.3522
17589SOL     OW53344   3.582   1.978   7.894 -0.2921  0.3978 -0.4374
17589SOL    HW153345   3.644   1.906   7.889 -0.8528 -0.0331 -1.8079
17589SOL    HW253346   3.625   2.044   7.948  0.7255 -0.4816 -0.1467
17590SOL     OW53347   1.319   6.809   7.316  0.0581 -0.7984  0.1886
17590SOL    HW153348   1.276   6.724   7.317 -0.4029 -0.5690  1.1142
17590SOL    HW253349   1.410   6.790   7.339  0.4945 -1.2803 -1.7385
17591SOL     OW53350   6.523   8.578   5.584 -0.2726 -0.6306 -0.0013
17591SOL    HW153351   6.552   8.504   5.637  0.0215 -1.5634 -1.4152
17591SOL    HW253352   6.598   8.598   5.528  0.1138  1.5751  1.1831
17592SOL     OW53353   7.746   7.263   1.001  0.4905  0.2040  0.1080
17592SOL    HW153354   7.749   7.168   0.994 -0.0644  0.3020 -2.4689
17592SOL    HW253355   7.681   7.281   1.068 -0.2772 -1.2422 -0.2192
17593SOL     OW53356   5.837   9.767   2.204  0.5415  0.2273  0.0442
17593SOL    HW153357   5.741   9.774   2.205  0.3991 -1.4695  0.9755
17593SOL    HW253358   5.864   9.829   2.136 -1.1285  1.5145  0.4619
17594SOL     OW53359   0.271   4.328   0.833 -0.1844  0.6950  0.3696
17594SOL    HW153360   0.175   4.329   0.830 -0.2254 -0.8696  0.3583
17594SOL    HW253361   0.293   4.364   0.918 -0.7269  2.0990 -0.0564
17595SOL     OW53362   3.359   9.871   6.984 -0.3702  0.4364 -0.5637
17595SOL    HW153363   3.453   9.857   6.969  0.2860  1.0869  2.3338
17595SOL    HW253364   3.343   9.960   6.954  0.0116  0.4542 -0.7231
17596SOL     OW53365   9.023   9.139   0.585 -0.4331 -0.2428 -0.3359
17596SOL    HW153366   9.043   9.128   0.492 -0.4666  0.7163 -0.4674
17596SOL    HW253367   9.075   9.215   0.612  0.3229 -1.0857  0.6771
17597SOL     OW53368   5.767   1.286   7.367 -0.1089  0.1592 -0.3198
17597SOL    HW153369   5.823   1.208   7.370 -0.0575  0.1332 -1.5015
17597SOL    HW253370   5.680   1.255   7.390  0.1261 -0.0238  0.3500
17598SOL     OW53371   8.911   2.909   4.679  0.0493  0.3336 -0.1048
17598SOL    HW153372   8.867   2.902   4.763  0.3291 -0.1011  0.0073
17598SOL    HW253373   8.852   2.961   4.625  1.0518  3.0315  1.1828
17599SOL     OW53374   1.203   0.341   4.523  0.2623 -0.0110 -0.5644
17599SOL    HW153375   1.225   0.345   4.616 -0.5988  2.6044 -0.3875
17599SOL    HW253376   1.224   0.251   4.497  0.6611 -0.7766  2.0963
17600SOL     OW53377   7.564   4.872   3.851 -0.5399 -0.4155  0.2466
17600SOL    HW153378   7.495   4.891   3.788  0.7958  2.8410 -0.4475
17600SOL    HW253379   7.630   4.824   3.801  0.2826  1.7017 -0.8128
17601SOL     OW53380   2.676   0.654   5.742 -0.4105 -0.0734  0.3571
17601SOL    HW153381   2.738   0.631   5.811 -1.3068 -0.2929  1.1168
17601SOL    HW253382   2.715   0.619   5.662 -0.4492 -1.9379  1.0988
17602SOL     OW53383   0.603   6.322   4.018 -0.1106 -0.7034  0.1146
17602SOL    HW153384   0.545   6.276   4.077  1.1800 -2.8826 -0.1986
17602SOL    HW253385   0.680   6.344   4.071  0.0968 -0.6278 -0.2094
17603SOL     OW53386   9.890   8.589   3.228  0.2306 -0.5106  0.1261
17603SOL    HW153387   9.919   8.625   3.144  0.6158 -1.3246 -0.1041
17603SOL    HW253388   9.891   8.663   3.288  1.0548 -0.1520 -0.3172
17604SOL     OW53389   0.699   5.096   5.275  0.0710 -0.6394  0.1159
17604SOL    HW153390   0.693   5.005   5.246  0.1178 -0.5194 -0.2661
17604SOL    HW253391   0.656   5.146   5.206 -0.8434 -0.4590  0.8032
17605SOL     OW53392   4.430   1.510   1.735 -0.1075 -0.0815  0.7719
17605SOL    HW153393   4.382   1.427   1.738  0.7777 -0.5872  1.1920
17605SOL    HW253394   4.417   1.549   1.821  0.9086 -0.6173  1.1816
17606SOL     OW53395   4.311   6.420   2.316  0.3346  0.4807  0.4505
17606SOL    HW153396   4.359   6.491   2.359 -1.4247  0.6095  2.3491
17606SOL    HW253397   4.248   6.465   2.259 -1.9460  0.6931  2.8931
17607SOL     OW53398   2.927   8.057   4.499  0.0661 -0.1300 -0.0458
17607SOL    HW153399   2.949   7.964   4.495  0.6714 -0.0309  0.7174
17607SOL    HW253400   2.885   8.069   4.584 -1.3618  0.0316 -0.7399
17608SOL     OW53401   7.325   4.842   9.923  0.1932 -0.3486  0.0525
17608SOL    HW153402   7.279   4.759   9.907 -0.8526  0.5618 -2.0209
17608SOL    HW253403   7.356   4.869   9.836  1.9451  0.6622  0.9322
17609SOL     OW53404   8.938   2.498   6.541 -0.2769 -0.2193 -0.1353
17609SOL    HW153405   9.025   2.536   6.551 -0.0430 -0.7285 -0.1704
17609SOL    HW253406   8.924   2.492   6.447 -0.6652  0.5495 -0.1334
17610SOL     OW53407   7.290   7.071   2.733 -0.2030 -0.6234 -0.4258
17610SOL    HW153408   7.356   7.084   2.802 -0.2107 -0.3482 -0.4695
17610SOL    HW253409   7.214   7.120   2.764 -0.1422 -0.3436 -0.7216
17611SOL     OW53410   6.476   9.442   1.267  0.5123 -0.3099  0.0093
17611SOL    HW153411   6.471   9.501   1.191  1.4794  0.8369  0.8020
17611SOL    HW253412   6.417   9.481   1.331  1.8560  0.3586  0.8851
17612SOL     OW53413   7.840   4.494   1.349  0.4565 -0.1916 -0.5603
17612SOL    HW153414   7.880   4.437   1.414 -0.2946 -0.1345 -0.0305
17612SOL    HW253415   7.804   4.435   1.283  0.4120 -0.2854 -0.4503
17613SOL     OW53416   7.339   0.616   9.696 -0.0137  0.1073  0.3920
17613SOL    HW153417   7.387   0.699   9.694 -1.6275  1.0907  0.5828
17613SOL    HW253418   7.275   0.627   9.766 -1.3507 -0.6429 -0.6647
17614SOL     OW53419   8.980   3.274   5.855 -0.1328 -0.4379 -0.4683
17614SOL    HW153420   8.936   3.240   5.778 -0.2982 -1.1580 -0.0626
17614SOL    HW253421   9.053   3.214   5.870 -0.0606 -0.2621 -0.0992
17615SOL     OW53422   6.020   6.568   0.659  0.5506 -0.3381 -0.0877
17615SOL    HW153423   6.007   6.535   0.747 -1.7678 -0.5044 -0.4199
17615SOL    HW253424   6.050   6.492   0.609  0.0640 -0.7076  0.1764
17616SOL     OW53425   0.311   4.634   1.642  0.4771 -0.5035 -0.6679
17616SOL    HW153426   0.255   4.557   1.648  1.3024 -1.0807  0.0849
17616SOL    HW253427   0.397   4.603   1.673  1.0892  0.4588 -1.3338
17617SOL     OW53428   9.180   9.571   0.157 -0.6797  0.1749 -0.3417
17617SOL    HW153429   9.171   9.650   0.210  0.2579  0.8243 -1.1098
17617SOL    HW253430   9.132   9.504   0.205  1.0736  0.4336  1.9249
17618SOL     OW53431   1.742   4.822   0.080  0.9379 -0.2132  0.0501
17618SOL    HW153432   1.668   4.768   0.110  0.0982 -0.5887 -2.4542
17618SOL    HW253433   1.754   4.797  -0.012  2.4056  1.8413 -0.3807
17619SOL     OW53434   7.576   9.911   3.160 -0.1728 -0.5640  0.2836
17619SOL    HW153435   7.647   9.938   3.101 -0.9032 -1.7356 -1.1939
17619SOL    HW253436   7.518   9.987   3.163 -0.8675 -0.9283 -1.7397
17620SOL     OW53437   6.541   3.767   7.431 -0.2082 -0.0734  0.3455
17620SOL    HW153438   6.473   3.700   7.440 -1.6801  1.0250 -1.7094
17620SOL    HW253439   6.511   3.839   7.487  0.7886 -0.6674  1.6758
17621SOL     OW53440   8.928   7.298   4.891 -0.6496  0.0000  0.2086
17621SOL    HW153441   9.007   7.249   4.869 -0.9861 -0.6911  0.4972
17621SOL    HW253442   8.901   7.339   4.808  0.7362  1.3598  0.3799
17622SOL     OW53443   8.279   8.992   3.898 -0.8173  0.2025  0.1180
17622SOL    HW153444   8.298   8.973   3.990 -1.3486  0.1113  0.2075
17622SOL    HW253445   8.363   9.021   3.863  0.0910 -2.3119 -0.0408
17623SOL     OW53446   9.336   4.447   5.728  0.1768 -0.2909 -0.5931
17623SOL    HW153447   9.287   4.401   5.796  2.3158  0.9123  1.9252
17623SOL    HW253448   9.400   4.383   5.696  2.1993  0.3035  1.9033
17624SOL     OW53449   9.737   1.588   8.877 -0.0055  0.0966  0.1268
17624SOL    HW153450   9.727   1.544   8.792 -0.3468 -0.0621  0.2492
17624SOL    HW253451   9.831   1.586   8.894  0.1762  0.9150 -0.6714
17625SOL     OW53452   9.709   4.839   1.992  0.3857 -0.0992 -0.5584
17625SOL    HW153453   9.752   4.864   2.074 -1.2156  1.0909 -0.0291
17625SOL    HW253454   9.759   4.884   1.924  3.1132 -2.8249 -0.5787
17626SOL     OW53455   9.468   5.483   7.580 -0.1862 -0.1652 -0.4775
17626SOL    HW153456   9.406   5.418   7.615 -0.7053  0.5176 -0.0924
17626SOL    HW253457   9.419   5.565   7.581  0.5968  0.3136 -0.5628
17627SOL     OW53458   9.096   4.001   0.330 -0.1068 -0.4385 -0.6332
17627SOL    HW153459   9.041   4.054   0.273 -0.0424  1.9613  1.3907
17627SOL    HW253460   9.185   4.016   0.297 -0.1627  0.1004 -0.5436
17628SOL     OW53461   0.469   1.771   6.127 -0.6293 -0.2850 -0.0071
17628SOL    HW153462   0.501   1.717   6.055  1.7204  2.9850 -1.6497
17628SOL    HW253463   0.412   1.836   6.085  0.5229  1.4847  1.0623
17629SOL     OW53464   0.216   8.728   5.708 -0.4703  0.3213  0.3806
17629SOL    HW153465   0.226   8.823   5.704 -0.0500  0.2745  0.2818
17629SOL    HW253466   0.137   8.710   5.658 -2.4366  0.9118  3.0130
17630SOL     OW53467   0.193   3.310   4.290 -0.1660  0.3168  0.1616
17630SOL    HW153468   0.243   3.230   4.305 -2.2730 -0.8625  1.3998
17630SOL    HW253469   0.127   3.286   4.225 -1.8096  0.5174  1.6769
17631SOL     OW53470   0.748   4.967   1.828  0.4434 -0.0989  0.0263
17631SOL    HW153471   0.804   5.008   1.894 -0.3751  1.3994 -0.1715
17631SOL    HW253472   0.679   4.924   1.878  0.9297 -0.6715  0.2123
17632SOL     OW53473   4.861   8.090   4.675 -0.0901  0.3001 -0.1629
17632SOL    HW153474   4.782   8.089   4.622  0.1700 -0.0490 -0.5431
17632SOL    HW253475   4.871   8.181   4.702  0.1255  0.6002 -1.2359
17633SOL     OW53476   9.169   3.512   7.800  0.1710  0.4768 -0.0469
17633SOL    HW153477   9.134   3.449   7.864 -0.1090  1.8745  1.2424
17633SOL    HW253478   9.163   3.467   7.716  0.3213 -1.3462  0.8760
17634SOL     OW53479   7.153   5.194   8.861  0.3266  0.5607 -0.0890
17634SOL    HW153480   7.109   5.135   8.921  1.1899  0.4149  0.4180
17634SOL    HW253481   7.244   5.195   8.890  1.1382 -0.7203 -2.2815
17635SOL     OW53482   9.825   0.717   5.180 -0.0241  0.1803 -0.5977
17635SOL    HW153483   9.913   0.682   5.194 -0.6378 -0.9476  0.6636
17635SOL    HW253484   9.786   0.658   5.115 -0.2189 -0.0299 -0.2975
17636SOL     OW53485   9.515   9.499   9.479  0.0438 -0.6156  0.0300
17636SOL    HW153486   9.513   9.586   9.518  1.1149  0.0820 -1.3683
17636SOL    HW253487   9.435   9.493   9.428 -1.5649 -1.6818  2.4762
17637SOL     OW53488   2.657   4.967   8.528 -0.2897  0.0626 -0.3516
17637SOL    HW153489   2.752   4.969   8.515 -0.5759 -1.3475 -3.3512
17637SOL    HW253490   2.645   4.908   8.603  1.1416 -1.7597 -1.4663
17638SOL     OW53491   2.782   3.590   5.246  0.2031  0.3811 -0.5919
17638SOL    HW153492   2.747   3.632   5.325 -1.8973  0.8789 -1.7157
17638SOL    HW253493   2.744   3.639   5.173  0.2165 -1.4744 -1.9290
17639SOL     OW53494   4.836   3.459   6.054  0.3667  0.3747  0.0302
17639SOL    HW153495   4.828   3.535   5.997 -0.0643  0.1197 -0.2554
17639SOL    HW253496   4.818   3.493   6.142  2.7371  1.1229  0.2936
17640SOL     OW53497   0.177   7.445   1.139 -0.7363 -0.1815  0.6319
17640SOL    HW153498   0.202   7.534   1.161  0.1369 -0.3644  0.4077
17640SOL    HW253499   0.098   7.428   1.191  0.2103  0.0313  2.1805
17641SOL     OW53500   1.356   8.438   1.298  0.8360 -0.0248  0.6459
17641SOL    HW153501   1.269   8.439   1.337 -0.2698 -1.2331 -1.6184
17641SOL    HW253502   1.412   8.396   1.364 -0.0420  1.5412  2.4831
17642SOL     OW53503   7.083   9.573   7.558  0.1466 -0.5993 -0.7361
17642SOL    HW153504   7.145   9.528   7.616 -0.0192  0.5122  0.3468
17642SOL    HW253505   7.044   9.641   7.613  0.1471  0.6580 -2.2200
17643SOL     OW53506   1.927   0.207   1.214 -0.6693 -0.0779  0.5971
17643SOL    HW153507   1.862   0.263   1.172  0.6431  0.9747 -0.0915
17643SOL    HW253508   1.929   0.235   1.305 -0.0772  0.9898  0.2758
17644SOL     OW53509   0.615   5.634   5.088 -0.3028  0.6366  0.7261
17644SOL    HW153510   0.543   5.692   5.112  2.3534  4.1489  0.9686
17644SOL    HW253511   0.628   5.649   4.994 -0.5474 -0.8904  0.4105
17645SOL     OW53512   6.305   5.956   5.431 -0.8278  0.2387 -0.0190
17645SOL    HW153513   6.372   5.984   5.368 -0.6419  1.4462  0.6821
17645SOL    HW253514   6.352   5.908   5.498 -0.8235  0.1556 -0.0821
17646SOL     OW53515   1.737   8.762   5.588  0.0112  0.4456  0.8171
17646SOL    HW153516   1.700   8.748   5.675 -1.7945  2.5256  0.4718
17646SOL    HW253517   1.719   8.681   5.541 -2.2993  0.5826  1.3424
17647SOL     OW53518   4.861   3.219   4.593 -0.1945 -0.3036  0.2313
17647SOL    HW153519   4.946   3.258   4.612 -0.4243 -0.0762  0.8180
17647SOL    HW253520   4.881   3.128   4.569  0.3511  0.1865 -1.2347
17648SOL     OW53521   5.420   5.872   2.317 -0.6663 -0.0546  0.0263
17648SOL    HW153522   5.412   5.903   2.226 -0.6723 -0.1691 -0.0119
17648SOL    HW253523   5.419   5.777   2.310 -0.9106 -0.0619  0.1691
17649SOL     OW53524   1.866   7.222   2.898  0.6289 -0.0356 -0.0466
17649SOL    HW153525   1.943   7.184   2.940  0.6655 -1.1867 -1.1012
17649SOL    HW253526   1.841   7.295   2.955  0.2205 -1.9544  2.4081
17650SOL     OW53527   5.459   8.547   1.582 -0.0811 -0.1533  0.2998
17650SOL    HW153528   5.415   8.618   1.535  0.5353  0.3118  0.4056
17650SOL    HW253529   5.412   8.468   1.557  0.1347  0.1047 -0.9676
17651SOL     OW53530   3.644   5.187   8.032  0.2713 -0.4587 -0.0054
17651SOL    HW153531   3.656   5.094   8.012 -1.0924 -0.4611 -1.0217
17651SOL    HW253532   3.668   5.232   7.951  0.8577  0.0745  0.4571
17652SOL     OW53533   2.420   2.314   5.885 -0.3017 -0.5147 -0.2409
17652SOL    HW153534   2.347   2.282   5.831 -0.8782  0.9949 -0.4061
17652SOL    HW253535   2.478   2.358   5.823  0.3889 -1.0899 -0.0034
17653SOL     OW53536   5.443   6.669   2.783 -0.3575  0.0246 -0.4031
17653SOL    HW153537   5.361   6.714   2.761  0.0818  1.2206  0.3119
17653SOL    HW253538   5.421   6.576   2.777 -1.6064  0.3172 -0.8001
17654SOL     OW53539   1.738   6.641   1.396  0.0528 -0.0502 -0.6852
17654SOL    HW153540   1.830   6.651   1.371  0.5003 -0.4750  0.6547
17654SOL    HW253541   1.700   6.727   1.381  1.1070  0.6320  0.2872
17655SOL     OW53542   7.986   8.203   0.364 -0.0970 -0.5051 -0.4963
17655SOL    HW153543   8.031   8.274   0.410  3.8914 -1.2970 -2.7963
17655SOL    HW253544   7.977   8.134   0.430 -1.8475  1.0941  1.0902
17656SOL     OW53545   2.959   9.622   7.627 -0.3007  0.3023 -0.2390
17656SOL    HW153546   2.879   9.577   7.655 -1.0035  0.8490 -1.2742
17656SOL    HW253547   2.958   9.705   7.674  1.0447 -0.7255  1.7439
17657SOL     OW53548   6.583   2.110   6.871 -0.2151 -0.3592 -0.3845
17657SOL    HW153549   6.511   2.173   6.865 -1.0830 -1.3757 -1.0679
17657SOL    HW253550   6.572   2.055   6.794 -1.5122 -3.4395  1.8006
17658SOL     OW53551   8.704   1.683   1.021 -0.0817  0.3990 -0.4595
17658SOL    HW153552   8.758   1.760   1.039  1.7293 -0.5690 -1.3804
17658SOL    HW253553   8.717   1.626   1.097 -0.3483  0.4496 -0.3763
17659SOL     OW53554   7.354   6.226   1.146 -0.2191  0.4219  0.2839
17659SOL    HW153555   7.407   6.190   1.076 -3.0685 -0.1308 -1.7930
17659SOL    HW253556   7.308   6.150   1.183 -1.0698  1.0826  0.6266
17660SOL     OW53557   7.936   4.833   2.761 -0.3102 -0.1613  0.2023
17660SOL    HW153558   7.857   4.885   2.743 -0.3237 -0.0278  0.6272
17660SOL    HW253559   7.937   4.823   2.856  0.3615  0.1142  0.2300
17661SOL     OW53560   8.998   7.627   4.175  0.0569  0.2296  0.3736
17661SOL    HW153561   9.046   7.561   4.125  1.9245  1.6247  0.2095
17661SOL    HW253562   9.000   7.705   4.120  0.8816  1.3820  1.9359
17662SOL     OW53563   1.320   7.113   9.866  0.1523 -0.5636  0.5099
17662SOL    HW153564   1.316   7.093   9.960 -1.3185  1.5210  0.9539
17662SOL    HW253565   1.246   7.067   9.828  0.3933 -0.9173  0.4644
17663SOL     OW53566   2.153   5.916   0.445 -0.0010  0.3117  0.2475
17663SOL    HW153567   2.100   5.840   0.421  1.7344 -0.9846  0.3272
17663SOL    HW253568   2.153   5.917   0.541  2.1326 -1.2604  0.3293
17664SOL     OW53569   4.951   1.195   6.973 -0.1360  0.3415  0.3547
17664SOL    HW153570   4.962   1.113   7.021  1.1323 -0.8930 -1.8885
17664SOL    HW253571   5.020   1.252   7.006  0.1292 -0.1454  0.6544
17665SOL     OW53572   5.652   2.519   9.170  0.1734  0.2436  0.0023
17665SOL    HW153573   5.736   2.485   9.140  1.1889  1.9347  0.7526
17665SOL    HW253574   5.672   2.608   9.201 -1.7317  0.3663  1.0326
17666SOL     OW53575   3.093   3.870   1.869  0.2682  0.2707 -0.4445
17666SOL    HW153576   3.028   3.931   1.832 -0.0543  0.5747  0.5667
17666SOL    HW253577   3.108   3.904   1.958  2.5156  0.7379 -0.9633
17667SOL     OW53578   5.665   8.895   0.394 -0.4032 -0.0775 -0.0302
17667SOL    HW153579   5.731   8.955   0.360  0.3408 -0.2761  1.0142
17667SOL    HW253580   5.642   8.932   0.479 -2.2695  0.4528 -0.7092
17668SOL     OW53581   5.526   1.141   6.990 -0.0944  0.3568  0.7579
17668SOL    HW153582   5.550   1.140   6.898 -1.1729  1.8903  0.4230
17668SOL    HW253583   5.564   1.061   7.026  0.7198 -0.0366 -0.9089
17669SOL     OW53584   2.194   5.016   9.482 -0.7626 -0.3076 -0.0859
17669SOL    HW153585   2.188   5.073   9.559 -1.1286 -0.2541 -0.1511
17669SOL    HW253586   2.258   4.949   9.507  1.2710  1.2975 -0.7595
17670SOL     OW53587   9.031   4.381   5.915  0.4928  0.0325 -0.0352
17670SOL    HW153588   8.941   4.397   5.943  0.1219 -2.3874  0.4242
17670SOL    HW253589   9.032   4.404   5.822 -0.5169  0.3358  0.0162
17671SOL     OW53590   9.923   3.555   8.687  0.2289  0.2175  0.1490
17671SOL    HW153591   9.904   3.598   8.604  1.4442 -0.1913 -0.3757
17671SOL    HW253592   9.863   3.480   8.689 -0.7994  1.0257  0.3304
17672SOL     OW53593   4.259   1.573   9.545 -0.7723  0.3435 -0.2061
17672SOL    HW153594   4.175   1.590   9.502 -0.0790  0.8946 -1.3732
17672SOL    HW253595   4.325   1.608   9.485  0.3033 -0.0942  0.6837
17673SOL     OW53596   8.696   9.711   4.313 -0.0144 -0.2015 -0.1697
17673SOL    HW153597   8.671   9.693   4.223  0.6732 -1.0926 -0.1867
17673SOL    HW253598   8.668   9.634   4.363  3.4645 -1.7650 -0.3464
17674SOL     OW53599   2.174   7.009   3.402 -0.0335  0.1032  0.3275
17674SOL    HW153600   2.189   6.961   3.484 -2.3200 -0.2696  0.6036
17674SOL    HW253601   2.179   6.942   3.334 -1.1893 -0.1887  0.5070
17675SOL     OW53602   0.083   4.634   2.715 -0.0073 -0.0096 -0.2942
17675SOL    HW153603   0.028   4.687   2.774 -0.0609 -0.3738 -0.0116
17675SOL    HW253604   0.123   4.569   2.773 -1.5213 -1.5811 -0.9353
17676SOL     OW53605   6.164   2.387   5.495 -0.3604  0.1643 -0.1286
17676SOL    HW153606   6.159   2.298   5.528 -0.2990  0.2683  0.1634
17676SOL    HW253607   6.236   2.427   5.544 -0.7799  0.5570  0.1660
17677SOL     OW53608   4.895   9.857   2.327 -0.1437 -0.1143  0.6124
17677SOL    HW153609   4.813   9.829   2.287  0.4615  0.7896 -1.3606
17677SOL    HW253610   4.910   9.945   2.293  0.5091  0.6827  2.7622
17678SOL     OW53611   1.248   2.301   9.626 -0.2972 -0.2215 -0.6599
17678SOL    HW153612   1.154   2.303   9.644 -0.2633  0.3463 -0.5205
17678SOL    HW253613   1.258   2.241   9.552 -1.0325  1.3885 -2.1499
17679SOL     OW53614   9.929   4.063   8.511 -0.7654  0.0470 -0.0818
17679SOL    HW153615   9.868   4.080   8.439  0.0672 -0.9200 -1.0418
17679SOL    HW253616   9.990   3.997   8.477  1.3775  1.5914  0.5112
17680SOL     OW53617   3.058   8.396   9.010 -0.1638  0.0640 -0.0665
17680SOL    HW153618   3.142   8.352   8.993  0.3390  0.7761  0.4968
17680SOL    HW253619   3.008   8.333   9.061  0.3996 -0.0217  0.3987
17681SOL     OW53620   2.105   3.294   6.409 -0.4613  0.1040  0.2418
17681SOL    HW153621   2.017   3.261   6.423 -1.1506  1.4469 -0.7536
17681SOL    HW253622   2.147   3.228   6.353 -1.3788  0.2388 -0.6270
17682SOL     OW53623   3.027   9.270   5.526  1.0316  0.3878 -0.3596
17682SOL    HW153624   3.061   9.310   5.445  2.4701  0.0186  0.0234
17682SOL    HW253625   2.970   9.336   5.564  1.3520  1.0696 -1.0400
17683SOL     OW53626   7.395   1.725   8.315  0.3516 -0.0148 -0.1028
17683SOL    HW153627   7.362   1.652   8.263  0.7119  0.5402 -1.1428
17683SOL    HW253628   7.352   1.717   8.400 -0.1605 -1.0077 -0.4556
17684SOL     OW53629   0.444   9.419   6.772 -0.4069 -0.2343  0.3776
17684SOL    HW153630   0.430   9.331   6.806 -0.9105 -0.9628 -1.6104
17684SOL    HW253631   0.387   9.474   6.827  0.6917 -0.9309  2.3181
17685SOL     OW53632   1.211   8.118   8.082 -0.4717 -0.0170 -0.5584
17685SOL    HW153633   1.157   8.119   8.003 -2.5843 -0.9814  0.7711
17685SOL    HW253634   1.158   8.071   8.147  1.4525  0.1406  1.2514
17686SOL     OW53635   2.519   5.805   3.587 -0.3679 -0.1504 -0.4598
17686SOL    HW153636   2.461   5.772   3.518 -1.3103 -0.7670  0.5841
17686SOL    HW253637   2.518   5.736   3.653  1.2289  0.0315 -0.2078
17687SOL     OW53638   5.133   8.482   7.313  0.4594 -0.0843 -0.2115
17687SOL    HW153639   5.213   8.475   7.261  1.1468  3.3870  0.1485
17687SOL    HW253640   5.065   8.507   7.250  0.3640  0.0609 -0.0516
17688SOL     OW53641   1.791   0.160   3.944 -0.0476 -0.5524 -0.3300
17688SOL    HW153642   1.764   0.182   4.033  0.1846  1.3489 -0.6855
17688SOL    HW253643   1.716   0.181   3.890  0.6320  0.6684 -0.8367
17689SOL     OW53644   4.815   3.929   8.995  0.0564 -0.0980 -0.1091
17689SOL    HW153645   4.865   4.010   8.985 -1.4621  1.1340  1.6872
17689SOL    HW253646   4.834   3.900   9.084 -1.5067 -0.2317  0.2039
17690SOL     OW53647   3.635   5.060   5.547 -0.2803  0.0564 -0.3883
17690SOL    HW153648   3.612   5.152   5.536  0.6620  0.5669  1.4783
17690SOL    HW253649   3.730   5.057   5.535 -0.0217 -0.3019  1.4781
17691SOL     OW53650   8.330   1.847   6.112 -0.2059 -0.2742 -0.5328
17691SOL    HW153651   8.287   1.920   6.156  1.8502  0.0630  1.1028
17691SOL    HW253652   8.366   1.886   6.032 -1.5871 -0.2277 -1.1624
17692SOL     OW53653   9.503   8.436   9.330 -0.8388  0.7562  0.0157
17692SOL    HW153654   9.459   8.354   9.352 -2.0573  1.3216 -0.2635
17692SOL    HW253655   9.436   8.503   9.341  0.4556  1.8947  1.4526
17693SOL     OW53656   8.443   2.208   0.611  0.1676 -0.0901  0.0852
17693SOL    HW153657   8.419   2.296   0.638 -2.4472  0.0213 -2.1732
17693SOL    HW253658   8.359   2.161   0.606  1.1942 -1.9037 -1.3347
17694SOL     OW53659   2.113   4.020   9.588 -0.2390 -0.5436  0.1415
17694SOL    HW153660   2.186   4.047   9.644 -1.2677  0.5777  0.9990
17694SOL    HW253661   2.105   3.926   9.602 -0.1613 -0.3670  1.5243
17695SOL     OW53662   9.038   3.583   1.485 -0.7846 -0.1119  0.6573
17695SOL    HW153663   9.072   3.616   1.568 -0.8356  1.4725  0.0808
17695SOL    HW253664   8.953   3.545   1.507 -1.4563  1.5879  1.1384
17696SOL     OW53665   1.952   7.760   3.499 -0.0916 -0.1173  0.3220
17696SOL    HW153666   1.883   7.819   3.530 -1.9127 -2.1383  0.3452
17696SOL    HW253667   1.961   7.695   3.569 -0.1909 -1.4704 -0.8580
17697SOL     OW53668   9.115   1.891   6.366  0.3727  0.1447 -0.5809
17697SOL    HW153669   9.195   1.843   6.387 -1.3545 -3.7240 -1.8518
17697SOL    HW253670   9.055   1.871   6.437 -0.2300  1.0840 -0.8029
17698SOL     OW53671   3.206   8.352   4.635  0.2049  0.0886  0.1022
17698SOL    HW153672   3.207   8.285   4.704  0.9909 -0.1820 -0.1548
17698SOL    HW253673   3.133   8.327   4.579 -0.3439  0.2213  0.7510
17699SOL     OW53674   9.400   6.093   2.193 -0.0345  0.2070 -0.1379
17699SOL    HW153675   9.435   6.003   2.198 -1.5186 -0.3569  0.7130
17699SOL    HW253676   9.418   6.130   2.280  0.8843  0.8720 -0.5996
17700SOL     OW53677   8.535   4.967   7.517 -0.9067  0.0058 -0.2518
17700SOL    HW153678   8.489   4.966   7.434 -1.8973  1.9427  0.2170
17700SOL    HW253679   8.517   4.882   7.556 -1.5293 -0.4150 -1.4277
17701SOL     OW53680   6.745   3.717   4.143 -0.0935  0.1868 -0.5891
17701SOL    HW153681   6.699   3.797   4.166 -0.8446 -0.5982  0.7115
17701SOL    HW253682   6.757   3.671   4.226  0.9478 -0.7372 -1.2207
17702SOL     OW53683   7.595   7.739   7.850  0.5328  0.3018 -0.0468
17702SOL    HW153684   7.675   7.705   7.810  0.2395  0.0011 -0.3797
17702SOL    HW253685   7.547   7.780   7.778  0.3323  0.3750  0.1283
17703SOL     OW53686   0.759   1.777   4.536  0.5415 -0.1627  0.2472
17703SOL    HW153687   0.841   1.729   4.545  0.4733 -0.3586 -0.1560
17703SOL    HW253688   0.723   1.780   4.625  0.3196 -1.2878  0.2166
17704SOL     OW53689   1.904   7.527   7.757  0.6846  0.3334 -0.2015
17704SOL    HW153690   1.857   7.487   7.830  2.8654 -1.2925  0.3931
17704SOL    HW253691   1.858   7.610   7.741 -0.4025  0.3057  2.4098
17705SOL     OW53692   0.250   7.339   5.600 -0.0011  0.8380  0.0235
17705SOL    HW153693   0.245   7.362   5.507 -1.4660 -2.9430 -1.0337
17705SOL    HW253694   0.342   7.351   5.622  0.4667  1.5049 -2.0495
17706SOL     OW53695   0.351   9.702   8.933  0.2221 -0.5673  0.2224
17706SOL    HW153696   0.289   9.643   8.889  0.3599  0.1070 -0.9070
17706SOL    HW253697   0.311   9.718   9.019 -2.0854  1.1488 -1.0438
17707SOL     OW53698   2.365   8.899   3.479 -0.3483  0.4082 -0.3730
17707SOL    HW153699   2.302   8.831   3.454  0.1403  0.1413 -0.8916
17707SOL    HW253700   2.371   8.956   3.403 -0.4953  0.8430 -0.0630
17708SOL     OW53701   6.702   0.833   4.152  0.2968  0.4180 -0.0739
17708SOL    HW153702   6.698   0.911   4.097  1.1237  1.0080  0.6668
17708SOL    HW253703   6.787   0.793   4.131  0.4400  0.4285  0.4617
17709SOL     OW53704   5.404   2.557   5.827 -0.1165  0.1599 -0.2434
17709SOL    HW153705   5.496   2.575   5.807  0.0669  1.9433  1.8312
17709SOL    HW253706   5.363   2.548   5.741  1.9096 -0.4056 -1.2411
17710SOL     OW53707   4.245   4.177   2.283 -0.1004  0.4131  0.4845
17710SOL    HW153708   4.305   4.249   2.303  1.3211 -0.6112  0.0603
17710SOL    HW253709   4.249   4.121   2.361  0.3039 -0.1765  0.0510
17711SOL     OW53710   1.971   5.623   5.630 -0.1923  0.1353 -0.5157
17711SOL    HW153711   2.009   5.639   5.717 -0.5275 -1.3691 -0.0733
17711SOL    HW253712   2.036   5.569   5.585 -0.7091 -0.3810 -0.6492
17712SOL     OW53713   1.620   9.626   8.410 -0.0159  0.4124 -0.5046
17712SOL    HW153714   1.538   9.581   8.393 -2.5924  3.3686  2.5390
17712SOL    HW253715   1.610   9.711   8.366  0.3122  1.6411  1.6118
17713SOL     OW53716   3.766   3.562   6.013  0.2239 -0.2716  0.1623
17713SOL    HW153717   3.697   3.506   5.978 -0.7065 -1.3754  3.3927
17713SOL    HW253718   3.723   3.615   6.080  1.5628  2.8204 -1.2316
17714SOL     OW53719   2.295   3.595   7.214  0.1036 -0.0769 -0.2336
17714SOL    HW153720   2.224   3.626   7.157 -0.7311  0.0021  0.8273
17714SOL    HW253721   2.337   3.675   7.245  0.6204 -0.1221 -0.7864
17715SOL     OW53722   0.383   5.726   7.116  0.2178 -0.6229  0.1216
17715SOL    HW153723   0.305   5.695   7.070 -0.0060  1.2978 -0.9110
17715SOL    HW253724   0.380   5.682   7.201 -2.9625  0.6574  0.8126
17716SOL     OW53725   5.797   6.628   7.406 -0.2527  0.3291 -0.2829
17716SOL    HW153726   5.718   6.593   7.365 -1.1191  0.7016  0.9994
17716SOL    HW253727   5.789   6.604   7.498  0.3987  1.6439  0.1411
17717SOL     OW53728   9.619   9.746   9.202 -0.4913 -0.2548 -0.4806
17717SOL    HW153729   9.549   9.767   9.264 -3.1586 -4.0567 -1.8316
17717SOL    HW253730   9.679   9.691   9.252 -0.9416 -0.7242 -0.4490
17718SOL     OW53731   0.776   2.762   1.366  0.2609  0.4308  0.1296
17718SOL    HW153732   0.856   2.813   1.375  0.7868 -0.2520 -0.5951
17718SOL    HW253733   0.710   2.813   1.413  0.8895  1.4998 -0.1209
17719SOL     OW53734   5.240   6.055   9.689 -0.2406  0.3785  0.6169
17719SOL    HW153735   5.336   6.051   9.689 -0.2584 -0.4632 -0.5670
17719SOL    HW253736   5.219   6.114   9.616 -0.6020  2.8854  2.6055
17720SOL     OW53737   5.576   4.180   3.154 -0.6715  0.5390 -0.6008
17720SOL    HW153738   5.619   4.263   3.177 -0.9875  0.2310  1.1717
17720SOL    HW253739   5.493   4.207   3.116 -0.1694  1.0551 -1.3815
17721SOL     OW53740   9.514   3.856   3.635 -0.4735  0.1041  0.7956
17721SOL    HW153741   9.581   3.798   3.672 -1.4601 -0.5712  1.5777
17721SOL    HW253742   9.563   3.915   3.577  0.7667 -0.4753  1.2121
17722SOL     OW53743   4.140   1.575   5.504  0.2822  0.2028 -0.8637
17722SOL    HW153744   4.201   1.510   5.470  1.8245  0.6218  0.9579
17722SOL    HW253745   4.187   1.658   5.499 -1.0819  0.9699 -1.6982
17723SOL     OW53746   2.128   1.622   5.790 -0.3641 -0.2835 -0.0789
17723SOL    HW153747   2.084   1.539   5.809 -1.4525  0.3565  0.3049
17723SOL    HW253748   2.129   1.668   5.874  0.0339  0.1808 -0.3344
17724SOL     OW53749   4.978   2.983   5.390  0.1963 -0.1382  0.1256
17724SOL    HW153750   4.952   3.055   5.448 -0.6118 -0.7511  0.5502
17724SOL    HW253751   5.072   2.993   5.380  0.4353 -0.2354  1.8910
17725SOL     OW53752   7.389   3.269   1.140  0.4474 -0.2723 -0.0013
17725SOL    HW153753   7.318   3.206   1.149 -0.7110  0.8094 -1.0291
17725SOL    HW253754   7.416   3.263   1.048  0.2537  0.7495 -0.1456
17726SOL     OW53755   1.835   0.953   6.957 -0.3813  0.3847  0.7379
17726SOL    HW153756   1.922   0.941   6.994  0.1729  2.0118  0.0685
17726SOL    HW253757   1.798   0.865   6.952  0.9349 -0.2566  1.6904
17727SOL     OW53758   5.848   2.639   3.769 -0.3450  0.3375  0.6968
17727SOL    HW153759   5.832   2.567   3.709 -3.0225  1.0917  0.4152
17727SOL    HW253760   5.910   2.602   3.833  1.2413 -0.9995 -1.4643
17728SOL     OW53761   0.479   1.629   1.701 -0.0571 -0.3871 -0.3132
17728SOL    HW153762   0.524   1.562   1.649 -0.0580 -0.0874 -0.6975
17728SOL    HW253763   0.395   1.589   1.723  0.7862 -1.3953  1.3359
17729SOL     OW53764   6.735   6.563   9.840  0.5692  0.5220 -0.5230
17729SOL    HW153765   6.646   6.534   9.818 -0.7768  1.7352  2.6447
17729SOL    HW253766   6.766   6.608   9.762 -0.5950 -1.9120 -2.5630
17730SOL     OW53767   8.966   6.134   7.652  0.0147  0.0340 -0.1954
17730SOL    HW153768   9.059   6.136   7.673  0.9750  1.4207 -3.7849
17730SOL    HW253769   8.958   6.065   7.586 -1.4241  0.2155 -0.2473
17731SOL     OW53770   8.480   9.867   0.670  0.5078  0.1566  0.0623
17731SOL    HW153771   8.520   9.851   0.584  0.6081  0.3763  0.0689
17731SOL    HW253772   8.432   9.786   0.689 -0.8641  0.6956 -0.9390
17732SOL     OW53773   0.046   0.389   6.706 -0.2268 -0.1160 -0.0491
17732SOL    HW153774   0.003   0.405   6.790  0.6180  0.1081  0.3562
17732SOL    HW253775   0.021   0.300   6.683 -0.0726 -0.3602  0.6890
17733SOL     OW53776   2.293   5.115   8.661 -0.2919  0.4258  0.7580
17733SOL    HW153777   2.370   5.057   8.661  0.5863  1.5170  2.0650
17733SOL    HW253778   2.310   5.175   8.734 -0.5940  3.0896 -1.2587
17734SOL     OW53779   6.045   7.210   5.394 -0.4047  0.5923 -0.4266
17734SOL    HW153780   5.999   7.243   5.317 -0.1772 -1.1356 -1.3353
17734SOL    HW253781   6.132   7.188   5.363 -0.0735  0.5484  0.4946
17735SOL     OW53782   5.616   1.569   1.652 -0.8496  0.1990 -0.0357
17735SOL    HW153783   5.552   1.640   1.642  0.5751  1.4286 -0.7623
17735SOL    HW253784   5.646   1.552   1.563  0.7105  0.4874  0.4088
17736SOL     OW53785   2.253   8.129   4.894 -0.0168 -0.4514 -0.9780
17736SOL    HW153786   2.213   8.172   4.970  1.1002 -2.0534  0.6020
17736SOL    HW253787   2.345   8.155   4.898 -0.0104 -0.2758 -2.0239
17737SOL     OW53788   0.010   1.039   6.657 -0.1113 -0.3267 -0.2086
17737SOL    HW153789   0.067   1.045   6.734 -1.7404 -0.3161  1.0564
17737SOL    HW253790   0.018   1.124   6.614  0.1877 -0.0223  0.4319
17738SOL     OW53791   1.326   5.132   1.108 -0.2256  0.5079 -0.2915
17738SOL    HW153792   1.288   5.099   1.026 -1.2823  0.8713  0.0358
17738SOL    HW253793   1.416   5.101   1.106 -0.3726  0.0844 -1.3623
17739SOL     OW53794   6.312   8.069   7.826 -0.7891 -0.5712  0.4639
17739SOL    HW153795   6.256   8.023   7.762  0.4488 -1.0493 -0.3100
17739SOL    HW253796   6.366   8.000   7.864  0.1349  0.0474  0.3025
17740SOL     OW53797   4.527   4.569   3.142 -0.0195  0.2193  0.0866
17740SOL    HW153798   4.507   4.514   3.066 -2.3882 -0.9710  1.4501
17740SOL    HW253799   4.604   4.529   3.181  1.6169  1.2029 -1.9251
17741SOL     OW53800   3.028   0.232   5.814  0.1027  0.1233  0.4141
17741SOL    HW153801   3.054   0.223   5.722 -0.5711 -0.3477  0.2638
17741SOL    HW253802   2.933   0.231   5.813  0.0808  0.8730  1.0548
17742SOL     OW53803   8.527   4.316   4.402 -0.1788 -0.0408 -0.2054
17742SOL    HW153804   8.485   4.292   4.484 -0.2832  2.5243  0.5642
17742SOL    HW253805   8.457   4.311   4.337 -0.1466 -1.8682 -0.1564
17743SOL     OW53806   0.470   3.637   6.770  0.3032  0.2815  0.3601
17743SOL    HW153807   0.530   3.587   6.825  0.9418  1.8089  1.1393
17743SOL    HW253808   0.391   3.645   6.823  0.3627  0.4440  0.4276
17744SOL     OW53809   7.785   0.020   1.217  0.3548 -0.3791 -0.5618
17744SOL    HW153810   7.774   0.114   1.203  0.2454 -0.0915  1.1446
17744SOL    HW253811   7.861  -0.004   1.164  0.7627  0.8030 -0.5384
17745SOL     OW53812   9.595   2.043   1.829  0.1780 -0.3028  0.6698
17745SOL    HW153813   9.548   1.961   1.818  0.2491 -0.3528  0.7351
17745SOL    HW253814   9.641   2.034   1.912 -0.4215  0.1066  1.0565
17746SOL     OW53815   1.811   6.871   1.886 -0.3464  0.0557 -0.1209
17746SOL    HW153816   1.749   6.939   1.862 -0.3988  0.5408  1.2678
17746SOL    HW253817   1.764   6.789   1.872 -0.5605  0.3312 -1.0436
17747SOL     OW53818   7.927   3.227   6.688  0.2414 -0.3319 -0.1002
17747SOL    HW153819   7.920   3.192   6.777  1.1359  1.9409  0.9469
17747SOL    HW253820   7.948   3.151   6.634 -2.1648 -2.1125  1.2824
17748SOL     OW53821   4.940   4.339   1.170 -0.5015  0.3151  0.6339
17748SOL    HW153822   4.902   4.279   1.235 -1.1326  0.6670  0.5936
17748SOL    HW253823   5.030   4.307   1.158 -0.3730  0.2416  1.6800
17749SOL     OW53824   0.523   8.776   5.568  0.2112 -0.2593 -0.1249
17749SOL    HW153825   0.543   8.790   5.661  0.5682  2.8671 -0.5645
17749SOL    HW253826   0.608   8.774   5.525 -0.0113  0.4640 -0.6092
17750SOL     OW53827   8.575   6.203   8.239 -0.0343  0.1991 -0.0259
17750SOL    HW153828   8.516   6.247   8.300 -1.6429 -1.2496 -0.4563
17750SOL    HW253829   8.590   6.117   8.278 -0.5917 -0.5187 -1.3479
17751SOL     OW53830   7.645   0.651   6.603 -0.8631  0.7505  0.2122
17751SOL    HW153831   7.669   0.744   6.602 -0.6944  0.7057 -0.2958
17751SOL    HW253832   7.703   0.613   6.669 -0.6863  0.9397  0.1686
17752SOL     OW53833   8.320   7.487   9.307 -0.4074 -0.1520 -0.4800
17752SOL    HW153834   8.345   7.395   9.312 -0.7141 -0.1687  1.2958
17752SOL    HW253835   8.338   7.512   9.216  3.3506 -0.9090 -0.0947
17753SOL     OW53836   8.477   9.362   9.090  0.2926 -0.3547 -0.2346
17753SOL    HW153837   8.464   9.350   9.184 -0.8912  1.5098 -0.0999
17753SOL    HW253838   8.403   9.417   9.063  0.4618 -1.0772 -2.3187
17754SOL     OW53839   6.385   4.987   1.700  0.3050  0.1898 -0.4490
17754SOL    HW153840   6.338   4.969   1.618  0.6687  0.0708 -0.6344
17754SOL    HW253841   6.456   4.923   1.701 -0.5405 -0.7643  0.6601
17755SOL     OW53842   2.301   3.069   6.361 -0.0441  0.1313 -0.1420
17755SOL    HW153843   2.326   3.043   6.450 -0.6852 -1.1883 -0.3118
17755SOL    HW253844   2.228   3.010   6.339  0.9631 -0.4742 -2.0309
17756SOL     OW53845   2.332   7.776   9.191 -0.5804  0.1915 -0.3142
17756SOL    HW153846   2.388   7.710   9.233 -1.6684 -0.6272 -0.0823
17756SOL    HW253847   2.388   7.818   9.126  0.3741 -0.4020  0.1051
17757SOL     OW53848   6.298   3.379   0.412  0.3359  0.1011 -0.3633
17757SOL    HW153849   6.240   3.404   0.484 -0.0619 -0.5899 -0.4318
17757SOL    HW253850   6.243   3.389   0.333 -0.3244 -2.2985 -0.2861
17758SOL     OW53851   2.366   7.785   4.203 -0.5580  0.5461 -0.0821
17758SOL    HW153852   2.424   7.833   4.261  0.1367 -0.3923  0.0216
17758SOL    HW253853   2.317   7.853   4.156 -0.2471  1.3298  0.6979
17759SOL     OW53854   5.525   8.232   1.619  0.0182  0.1670  0.0907
17759SOL    HW153855   5.620   8.225   1.626  0.2269  1.6334 -0.9076
17759SOL    HW253856   5.509   8.262   1.530 -1.4167 -0.5540  0.0841
17760SOL     OW53857   3.623   8.247   9.635 -0.2007 -0.9566 -0.2434
17760SOL    HW153858   3.670   8.164   9.626 -0.9289 -1.3183 -0.8566
17760SOL    HW253859   3.551   8.240   9.573  0.5488  0.7204 -1.3844
17761SOL     OW53860   2.802   5.596   9.202 -0.1047 -0.6353 -0.3408
17761SOL    HW153861   2.875   5.613   9.261 -0.7848  1.4222 -0.0135
17761SOL    HW253862   2.829   5.519   9.151  1.7504 -0.6426  0.5872
17762SOL     OW53863   8.088   3.914   0.615  0.2641  0.2210  0.1350
17762SOL    HW153864   8.095   3.820   0.631 -0.2464  0.0430 -0.6552
17762SOL    HW253865   8.139   3.954   0.685 -0.6360 -0.5913  1.3017
17763SOL     OW53866   0.572   4.308   7.641  0.4529  0.4329  0.4666
17763SOL    HW153867   0.558   4.216   7.667 -1.6282 -0.1077 -2.1659
17763SOL    HW253868   0.667   4.317   7.635  0.7577 -1.1271  2.0730
17764SOL     OW53869   8.431   2.339   3.508 -0.3295  0.6963  0.4280
17764SOL    HW153870   8.473   2.424   3.506 -0.5947  0.8982  1.9802
17764SOL    HW253871   8.348   2.354   3.554 -1.3714  0.0049 -1.1426
17765SOL     OW53872   8.414   5.334   9.994 -0.1388  0.2926  0.3371
17765SOL    HW153873   8.415   5.338   9.898  2.7686  1.7225  0.3280
17765SOL    HW253874   8.473   5.262  10.015 -0.8484 -0.0854  1.0942
17766SOL     OW53875   4.869   2.878   2.191 -0.2465 -0.1299 -0.4386
17766SOL    HW153876   4.821   2.927   2.257 -1.4239 -0.7716 -0.7941
17766SOL    HW253877   4.942   2.838   2.239 -1.4773 -1.1574  0.6279
17767SOL     OW53878   1.116   0.960   5.208 -0.0414 -0.3016 -0.5680
17767SOL    HW153879   1.173   0.896   5.165  0.2009 -0.3900 -0.1237
17767SOL    HW253880   1.073   0.911   5.278 -0.5496 -0.1964 -0.8042
17768SOL     OW53881   3.545   5.191   2.278  0.2638 -0.0595  0.5561
17768SOL    HW153882   3.627   5.158   2.315  0.1785 -1.2632 -0.2900
17768SOL    HW253883   3.558   5.189   2.184 -0.6524 -0.0360  0.4184
17769SOL     OW53884   3.685   3.810   3.790 -0.4258 -0.0115 -0.3406
17769SOL    HW153885   3.666   3.872   3.720  1.3690  0.1994 -0.6972
17769SOL    HW253886   3.698   3.865   3.868 -0.1651 -0.0446 -0.3590
17770SOL     OW53887   1.345   7.702   8.095  0.3618 -0.4766  0.5633
17770SOL    HW153888   1.379   7.614   8.075 -0.6226 -0.7002 -0.2084
17770SOL    HW253889   1.305   7.693   8.181  1.0917 -0.5345  0.9067
17771SOL     OW53890   1.679   5.339   1.762 -0.0049 -0.4767 -0.2636
17771SOL    HW153891   1.594   5.295   1.757  0.7989 -2.0579 -0.7530
17771SOL    HW253892   1.681   5.397   1.686 -0.8543 -0.0207  0.0524
17772SOL     OW53893   8.395   2.034   4.142  0.6355 -0.3124 -0.3776
17772SOL    HW153894   8.342   2.107   4.174  1.6265  0.2233  0.0894
17772SOL    HW253895   8.478   2.042   4.190  0.9118 -1.4930 -0.6396
17773SOL     OW53896   7.375   7.170   8.660 -0.2028 -0.2409  0.2245
17773SOL    HW153897   7.334   7.168   8.574 -0.7202 -0.5483  0.4729
17773SOL    HW253898   7.468   7.185   8.643 -0.4930  1.0689 -0.3262
17774SOL     OW53899   3.817   7.255   3.893  0.2413  0.3643 -0.6078
17774SOL    HW153900   3.876   7.330   3.899 -0.3365  0.7645  0.3466
17774SOL    HW253901   3.781   7.246   3.981 -1.5861  0.5242 -1.2985
17775SOL     OW53902   6.528   0.316   9.957  0.4220 -0.2545 -0.1008
17775SOL    HW153903   6.472   0.245   9.927 -1.5119  0.2105  2.0648
17775SOL    HW253904   6.482   0.352  10.033  2.3032  2.0372  0.0806
17776SOL     OW53905   4.283   2.765   4.676  0.1773 -0.3385 -0.4716
17776SOL    HW153906   4.324   2.816   4.746 -0.1855 -1.2388  0.4191
17776SOL    HW253907   4.355   2.716   4.636  0.4112  0.3017 -0.8700
17777SOL     OW53908   8.928   1.599   3.529 -0.2762  0.3963 -0.2663
17777SOL    HW153909   8.860   1.663   3.552 -1.5493  0.0623 -2.7586
17777SOL    HW253910   8.986   1.645   3.470  1.2249  0.3997  1.1447
17778SOL     OW53911   6.851   6.081   2.053 -0.2693  0.6358 -0.1336
17778SOL    HW153912   6.788   6.152   2.038 -0.4864  0.5306  0.2557
17778SOL    HW253913   6.822   6.041   2.135 -0.1167  0.1340 -0.3187
17779SOL     OW53914   4.814   4.932   8.496  0.2630  0.5495 -0.2651
17779SOL    HW153915   4.740   4.981   8.461  0.2845  2.3924  2.0669
17779SOL    HW253916   4.864   4.995   8.548  1.6545 -1.3959  0.9286
17780SOL     OW53917   2.458   3.085   8.637 -0.2183 -0.2170  0.0563
17780SOL    HW153918   2.491   3.116   8.553  0.6770 -0.0525  0.4563
17780SOL    HW253919   2.514   3.129   8.702  0.2832 -1.7157  0.6720
17781SOL     OW53920   7.187   2.579   6.842 -0.1293  0.0445  0.1614
17781SOL    HW153921   7.207   2.673   6.844 -0.3528  0.1225 -0.7749
17781SOL    HW253922   7.163   2.561   6.751  0.3753 -1.0248  0.2240
17782SOL     OW53923   4.505   5.325   8.300 -0.1164 -0.3016 -0.2552
17782SOL    HW153924   4.423   5.311   8.346  0.2341 -0.9306  0.1976
17782SOL    HW253925   4.490   5.402   8.245 -0.5611  0.3911  0.8299
17783SOL     OW53926   4.939   0.066   8.534  0.8237 -0.1052  0.3654
17783SOL    HW153927   4.902  -0.003   8.589  3.3040 -0.6259  1.5568
17783SOL    HW253928   4.986   0.123   8.595  0.5370  1.5005 -0.8392
17784SOL     OW53929   9.573   5.072   6.150  0.5854 -0.2933  0.2469
17784SOL    HW153930   9.507   5.126   6.108  1.7985  0.7752 -0.3651
17784SOL    HW253931   9.636   5.052   6.080  1.0767 -1.0107  0.8766
17785SOL     OW53932   0.642   8.162   4.140 -0.0978 -0.6537  0.0223
17785SOL    HW153933   0.623   8.218   4.215 -1.7786 -0.3105 -0.6133
17785SOL    HW253934   0.737   8.168   4.129 -0.0628  0.9062  0.8726
17786SOL     OW53935   5.807   4.249   5.170 -0.2723 -0.3399 -0.0674
17786SOL    HW153936   5.745   4.255   5.243  0.3864 -1.2345  0.5916
17786SOL    HW253937   5.868   4.180   5.196  1.9865  1.5892  0.0366
17787SOL     OW53938   9.100   7.824   8.520 -0.3490  0.3830 -0.1595
17787SOL    HW153939   9.055   7.838   8.437 -1.2149  1.1653  0.4252
17787SOL    HW253940   9.044   7.865   8.586 -0.2132 -1.1167  0.9631
17788SOL     OW53941   6.334   7.795   0.619  0.2094  0.4244 -0.0065
17788SOL    HW153942   6.382   7.878   0.615  0.0677  0.6851  2.3227
17788SOL    HW253943   6.396   7.734   0.659  0.2756 -0.6020 -1.6146
17789SOL     OW53944   6.052   2.475   2.550  0.5413  0.7807 -0.2319
17789SOL    HW153945   6.047   2.547   2.613  1.1924 -0.0251  0.7731
17789SOL    HW253946   6.139   2.438   2.562  1.3638  1.6356 -2.8191
17790SOL     OW53947   9.516   6.575   8.010  0.1334  0.5518  0.0788
17790SOL    HW153948   9.471   6.535   8.084  1.4151 -0.8000  0.1770
17790SOL    HW253949   9.446   6.611   7.955 -0.8655  0.9584  1.5731
17791SOL     OW53950   7.447   1.805   1.029 -0.5184  0.1550  0.1562
17791SOL    HW153951   7.386   1.835   0.962 -0.0772  2.3794  0.6753
17791SOL    HW253952   7.526   1.780   0.980 -1.3090 -1.3622 -0.3909
17792SOL     OW53953   1.709   6.971   3.172 -0.2798  0.2753 -0.1769
17792SOL    HW153954   1.757   7.046   3.209 -1.6858  0.7720  0.7480
17792SOL    HW253955   1.770   6.898   3.178  0.9021  1.2011 -0.4981
17793SOL     OW53956   1.951   9.849   2.273 -0.0809 -0.0700  0.3589
17793SOL    HW153957   1.883   9.797   2.316  2.0028 -1.4212  2.2373
17793SOL    HW253958   1.965   9.806   2.189 -0.8682 -0.3285  0.3475
17794SOL     OW53959   1.406   8.011   1.628  0.5679 -0.0677  0.3364
17794SOL    HW153960   1.435   8.102   1.620  0.6038  0.1364  2.3628
17794SOL    HW253961   1.487   7.962   1.644  0.5023 -0.4280 -0.3738
17795SOL     OW53962   6.507   3.879   0.087  0.0129  0.2693 -0.3469
17795SOL    HW153963   6.483   3.936   0.014  0.2897 -0.3357 -0.9149
17795SOL    HW253964   6.592   3.912   0.116  0.5440 -0.3233 -1.1798
17796SOL     OW53965   9.517   1.969   7.701  0.0381 -0.1448  0.1236
17796SOL    HW153966   9.521   1.930   7.788  0.4660  0.5708  0.4298
17796SOL    HW253967   9.554   1.902   7.643  0.4937 -0.3115  0.6009
17797SOL     OW53968   6.486   0.146   9.476  0.5026 -0.5415 -0.4776
17797SOL    HW153969   6.411   0.171   9.531  0.3312 -0.7798 -0.6017
17797SOL    HW253970   6.555   0.208   9.500  0.5985 -0.9619  0.3861
17798SOL     OW53971   2.885   5.704   6.564  0.0892 -0.1001  0.3832
17798SOL    HW153972   2.817   5.752   6.611  0.2077  0.4724 -0.0157
17798SOL    HW253973   2.860   5.612   6.572 -0.9674  0.1254 -0.1104
17799SOL     OW53974   8.391   4.910   3.120 -0.4969  0.3186  0.5244
17799SOL    HW153975   8.471   4.871   3.086 -1.9391 -2.0470 -0.4134
17799SOL    HW253976   8.349   4.949   3.044 -2.3274 -2.4383 -0.0166
17800SOL     OW53977   5.091   0.342   6.688  0.3864 -0.0639  0.1490
17800SOL    HW153978   5.006   0.333   6.730  0.9827 -1.1841  1.1940
17800SOL    HW253979   5.080   0.412   6.624 -1.2683 -0.1070  0.3640
17801SOL     OW53980   3.785   8.267   1.194 -0.2804 -0.0760  0.2788
17801SOL    HW153981   3.876   8.261   1.221  0.3056 -0.6532 -1.6640
17801SOL    HW253982   3.758   8.356   1.217  0.2585 -0.4096  2.3028
17802SOL     OW53983   0.082   2.159   7.133 -0.2100 -0.3681  0.0205
17802SOL    HW153984  -0.014   2.158   7.133 -0.2809  1.5577 -0.6394
17802SOL    HW253985   0.107   2.106   7.209 -1.8012 -0.5570  0.4435
17803SOL     OW53986   0.157   7.683   1.722  0.2690 -0.4755 -0.2370
17803SOL    HW153987   0.092   7.682   1.793  1.8742 -0.8077  1.3057
17803SOL    HW253988   0.166   7.591   1.697  0.4285 -0.4746 -0.1814
17804SOL     OW53989   2.353   9.268   5.445  0.3081  0.3619 -0.1938
17804SOL    HW153990   2.265   9.244   5.476 -0.6096  3.3888 -0.1134
17804SOL    HW253991   2.409   9.258   5.522 -0.4935  0.8972  0.4710
17805SOL     OW53992   6.984   0.047   8.083 -0.2872 -0.0250 -0.2407
17805SOL    HW153993   6.904   0.061   8.031 -0.7074  0.0266  0.4112
17805SOL    HW253994   6.966  -0.032   8.134  1.4548 -2.1588 -2.7002
17806SOL     OW53995   1.802   2.544   9.864  0.2004 -0.2351 -0.0883
17806SOL    HW153996   1.891   2.554   9.831 -0.0251  0.0752 -0.6160
17806SOL    HW253997   1.781   2.627   9.906 -0.4639  0.3568 -1.5204
17807SOL     OW53998   0.284   0.525   6.103  0.3148  0.1508 -0.2052
17807SOL    HW153999   0.308   0.595   6.163  2.9438 -1.8069  1.2821
17807SOL    HW254000   0.196   0.499   6.129  0.6642  0.6349  1.5433
17808SOL     OW54001   3.131   2.792   5.582  0.0573  0.3294  0.2148
17808SOL    HW154002   3.046   2.815   5.619  0.1141  1.6553 -0.4116
17808SOL    HW254003   3.189   2.864   5.607  0.0106  1.5197 -2.6491
17809SOL     OW54004   8.002   8.577   3.976  0.0274  0.2562  0.1131
17809SOL    HW154005   7.930   8.519   4.002 -0.0985  0.3092 -0.1090
17809SOL    HW254006   7.958   8.655   3.942  0.0771 -0.7647 -2.5836
17810SOL     OW54007   5.644   5.949   0.892 -0.2515 -0.6939 -0.2912
17810SOL    HW154008   5.565   5.933   0.944  0.7250 -0.3862  1.3541
17810SOL    HW254009   5.622   6.025   0.838 -1.5834 -1.5531 -1.0251
17811SOL     OW54010   0.566   2.210   4.231  0.0411  0.2062 -0.1062
17811SOL    HW154011   0.588   2.118   4.218 -0.3860  0.3396 -2.2498
17811SOL    HW254012   0.634   2.258   4.183 -0.9582  0.8935 -0.8862
17812SOL     OW54013   3.288   9.902   1.827 -0.0410 -0.1929  0.3426
17812SOL    HW154014   3.215   9.840   1.817  0.3101 -0.5812  0.1814
17812SOL    HW254015   3.246   9.981   1.861 -0.6529 -0.1730 -0.4163
17813SOL     OW54016   6.157   6.868   3.024 -0.4449  0.4802  1.0131
17813SOL    HW154017   6.128   6.960   3.022 -2.0986  0.0017 -0.8190
17813SOL    HW254018   6.075   6.819   3.032  0.1376 -0.8870 -0.9247
17814SOL     OW54019   7.509   2.267   7.921 -0.1563 -0.0435  0.1040
17814SOL    HW154020   7.569   2.333   7.887 -1.6016  1.3034  0.0903
17814SOL    HW254021   7.567   2.197   7.954  1.5027  1.8378  1.4433
17815SOL     OW54022   0.625   7.135   1.225 -0.3471 -0.7043  0.3239
17815SOL    HW154023   0.540   7.171   1.251  1.1807  0.1067  5.2700
17815SOL    HW254024   0.633   7.054   1.274  2.1399 -0.1615  0.9842
17816SOL     OW54025   4.713   1.216   0.491 -0.0219  0.1021  0.7798
17816SOL    HW154026   4.678   1.259   0.413  0.0882  1.2891  1.3571
17816SOL    HW254027   4.793   1.172   0.461  0.5586  1.3784  0.4134
17817SOL     OW54028   5.533   2.635   9.453  0.2294 -0.1520 -0.8174
17817SOL    HW154029   5.538   2.545   9.486  0.9376  0.6354  1.3774
17817SOL    HW254030   5.478   2.628   9.374 -2.0755 -2.0940  0.7936
17818SOL     OW54031   3.876   2.753   1.938 -0.3778 -0.3609 -0.0641
17818SOL    HW154032   3.817   2.828   1.937 -0.2608 -0.2328  1.4174
17818SOL    HW254033   3.823   2.681   1.902 -1.0197  0.0506  0.0428
17819SOL     OW54034   9.268   3.166   9.834  0.2021  0.1639  0.1765
17819SOL    HW154035   9.340   3.200   9.781  0.2366  1.6758  1.1108
17819SOL    HW254036   9.264   3.225   9.909  0.4368 -2.1205  2.1116
17820SOL     OW54037   8.357   7.202   9.325  0.0214 -0.3068 -0.4269
17820SOL    HW154038   8.323   7.147   9.395  0.3800  0.1924  0.1483
17820SOL    HW254039   8.386   7.140   9.257 -0.7372 -0.7728 -0.3318
17821SOL     OW54040   0.432   9.296   6.371 -0.4681  0.6028 -0.3080
17821SOL    HW154041   0.341   9.272   6.353 -0.4328  0.1902  0.0368
17821SOL    HW254042   0.470   9.218   6.412  0.1538  0.6247 -0.8198
17822SOL     OW54043   0.000   5.619   5.761  0.1717 -0.4981 -0.1480
17822SOL    HW154044   0.093   5.621   5.784 -0.0031  0.4946  0.5332
17822SOL    HW254045  -0.023   5.711   5.746 -0.7524 -0.7063 -0.0562
17823SOL     OW54046   5.740   5.882   2.840  0.2878 -0.2261  0.1491
17823SOL    HW154047   5.704   5.866   2.927  1.8139 -1.1593  0.6290
17823SOL    HW254048   5.802   5.811   2.826  2.3530  1.5867 -0.4285
17824SOL     OW54049   1.911   1.401   8.556  0.2115 -0.5773 -0.1015
17824SOL    HW154050   1.831   1.363   8.592  0.1302  0.2090  0.5791
17824SOL    HW254051   1.952   1.446   8.630  0.7247 -0.0407 -0.6965
17825SOL     OW54052   0.649   2.053   1.997 -0.1197 -0.7287 -0.2122
17825SOL    HW154053   0.596   1.984   1.957  0.1429 -0.2147 -1.4891
17825SOL    HW254054   0.585   2.117   2.027 -0.4111 -1.7919  1.5893
17826SOL     OW54055   7.518   0.457   8.089 -0.0182  0.5603  0.0212
17826SOL    HW154056   7.512   0.506   8.171 -0.5608 -0.2807  0.4917
17826SOL    HW254057   7.607   0.421   8.090 -0.1915  0.1268  0.4947
17827SOL     OW54058   6.609   5.821   9.326 -0.4147  0.1703 -0.1531
17827SOL    HW154059   6.563   5.790   9.248 -1.8104  0.1168  0.6681
17827SOL    HW254060   6.666   5.890   9.294 -0.9962  0.1718 -1.2195
17828SOL     OW54061   9.227   8.724   7.679 -0.6273  0.5637 -0.2197
17828SOL    HW154062   9.232   8.793   7.745 -2.4897  0.7085 -0.1650
17828SOL    HW254063   9.255   8.645   7.724 -0.2456  0.9590  0.2517
17829SOL     OW54064   8.027   6.134   9.632 -0.0911 -0.3441 -0.0076
17829SOL    HW154065   8.115   6.096   9.631 -0.0575 -0.2710 -1.3941
17829SOL    HW254066   8.012   6.158   9.724  0.9697 -1.1841  0.4032
17830SOL     OW54067   7.911   9.204   5.754 -0.0355  0.1599 -0.0345
17830SOL    HW154068   7.873   9.142   5.692 -1.0421  1.3175 -0.5967
17830SOL    HW254069   8.003   9.210   5.728  0.2392 -1.5337  0.4112
17831SOL     OW54070   0.166   4.327   5.478  0.3379  0.0112 -0.1018
17831SOL    HW154071   0.092   4.267   5.487  0.9730 -1.1967 -2.2370
17831SOL    HW254072   0.185   4.328   5.384  1.6286  2.0477  0.1129
17832SOL     OW54073   5.283   0.001   4.024 -0.0589  0.0795 -0.2113
17832SOL    HW154074   5.345   0.026   4.093  0.2180 -0.1465 -0.3763
17832SOL    HW254075   5.302   0.061   3.952 -1.3376  1.2956  0.4275
17833SOL     OW54076   8.246   5.830   8.466  0.3223  0.6065  0.2455
17833SOL    HW154077   8.329   5.793   8.494  0.4127  0.2832 -0.4358
17833SOL    HW254078   8.188   5.755   8.456  0.4480  0.6577 -0.9430
17834SOL     OW54079   7.047   3.147   4.170 -0.2407  0.0496  0.1135
17834SOL    HW154080   7.073   3.203   4.243  0.2769  0.6669 -0.5361
17834SOL    HW254081   7.030   3.207   4.098  1.5599 -0.6721 -0.9674
17835SOL     OW54082   0.544   5.070   5.511  0.2797  0.8817  0.0247
17835SOL    HW154083   0.603   5.075   5.436  1.2466 -1.1090  0.5776
17835SOL    HW254084   0.602   5.078   5.587 -0.5869  2.0441  0.6018
17836SOL     OW54085   6.180   8.277   1.387  0.2686 -0.5095  0.0849
17836SOL    HW154086   6.161   8.225   1.465  0.0711  1.5182  1.4682
17836SOL    HW254087   6.268   8.313   1.404  0.3874 -0.3635 -0.8140
17837SOL     OW54088   9.684   5.253   5.100 -0.3258  0.0912 -0.0762
17837SOL    HW154089   9.637   5.312   5.158  0.8979  0.4478  0.5870
17837SOL    HW254090   9.640   5.169   5.110  0.9406 -0.3375  2.8288
17838SOL     OW54091   9.519   1.650   2.672 -0.7223  0.2610 -0.6435
17838SOL    HW154092   9.538   1.645   2.579 -0.2872  0.4013 -0.5637
17838SOL    HW254093   9.592   1.700   2.709 -0.6132 -0.2626 -0.1431
17839SOL     OW54094   1.643   9.334   6.449 -0.7031 -0.5375 -0.3552
17839SOL    HW154095   1.667   9.423   6.476 -0.1456 -1.1974  1.4622
17839SOL    HW254096   1.548   9.329   6.464 -0.6245 -0.4461  0.2029
17840SOL     OW54097   7.131   2.324   3.073  0.2463  0.4412  0.2939
17840SOL    HW154098   7.097   2.253   3.127  0.4636  0.4896  0.4976
17840SOL    HW254099   7.090   2.312   2.987  1.7358 -1.0637 -0.2425
17841SOL     OW54100   0.798   7.478   5.662  0.1331  0.2963 -0.6569
17841SOL    HW154101   0.809   7.474   5.757 -1.0128  0.0309 -0.5218
17841SOL    HW254102   0.882   7.449   5.626 -0.2866 -2.2997  0.2885
17842SOL     OW54103   7.037   0.087   3.647 -0.0364  0.3865  0.3516
17842SOL    HW154104   6.974   0.099   3.718 -0.0537  2.4911  0.0403
17842SOL    HW254105   7.120   0.069   3.691 -0.6530 -1.7221  0.7810
17843SOL     OW54106   6.510   4.301   6.030  0.7051  0.3835  0.3779
17843SOL    HW154107   6.581   4.352   6.069 -0.7269  1.9311  1.0978
17843SOL    HW254108   6.480   4.354   5.957  1.5921 -1.2455 -1.2591
17844SOL     OW54109   6.558   3.088   7.846 -0.0341 -0.4952  0.2152
17844SOL    HW154110   6.484   3.031   7.862  0.8257 -1.6969  0.0799
17844SOL    HW254111   6.521   3.176   7.838 -1.4526 -1.1127 -0.1440
17845SOL     OW54112   9.207   4.440   8.847 -0.4173  0.0620  0.0994
17845SOL    HW154113   9.255   4.484   8.917  2.5245 -0.7516 -1.2359
17845SOL    HW254114   9.201   4.348   8.876  0.1700 -0.1319 -0.3732
17846SOL     OW54115   5.387   7.247   4.219  0.1040  0.2610 -0.2429
17846SOL    HW154116   5.313   7.233   4.278 -0.6141 -2.3176 -1.6314
17846SOL    HW254117   5.416   7.336   4.239 -1.8006  0.4808  2.0533
17847SOL     OW54118   5.616   2.655   7.455  0.0844 -0.2598 -0.1185
17847SOL    HW154119   5.674   2.578   7.449  0.1833 -0.1215 -1.2772
17847SOL    HW254120   5.665   2.717   7.509  0.6085 -0.5028 -0.3029
17848SOL     OW54121   3.148   6.822   2.371 -0.5590  0.0495  0.1201
17848SOL    HW154122   3.220   6.823   2.308  1.6300  1.4835  2.4435
17848SOL    HW254123   3.154   6.736   2.413 -1.6176 -0.6574 -1.1016
17849SOL     OW54124   5.319   8.791   7.232  0.8669 -0.4074  0.0142
17849SOL    HW154125   5.321   8.703   7.194  0.0341 -0.8903  1.0216
17849SOL    HW254126   5.312   8.776   7.327 -2.7447  0.6606  0.0637
17850SOL     OW54127   3.365   4.475   9.240  0.0529 -0.5937 -0.2750
17850SOL    HW154128   3.430   4.531   9.282  0.6926 -0.9969 -0.7010
17850SOL    HW254129   3.412   4.393   9.223  0.0620 -0.1960 -2.4462
17851SOL     OW54130   7.484   9.863   6.895 -0.0688 -0.6698 -0.0054
17851SOL    HW154131   7.486   9.938   6.835 -0.6754  0.1176  0.9358
17851SOL    HW254132   7.471   9.787   6.838 -0.2120  0.0186 -0.9070
17852SOL     OW54133   0.013   3.698   1.532  0.2071  0.1029  0.0437
17852SOL    HW154134  -0.043   3.762   1.576  1.2528  0.5422  0.7807
17852SOL    HW254135   0.061   3.748   1.466  1.4535  0.2457  1.0043
17853SOL     OW54136   1.618   8.765   6.777  0.5143 -0.4449 -0.2023
17853SOL    HW154137   1.591   8.673   6.785 -0.2983 -0.1819  0.1885
17853SOL    HW254138   1.652   8.788   6.863  1.5884 -0.6389 -0.5635
17854SOL     OW54139   0.884   9.144   1.250  0.2168 -0.1098 -0.2246
17854SOL    HW154140   0.797   9.159   1.288  0.6996 -0.2804  1.0041
17854SOL    HW254141   0.925   9.230   1.249 -0.1205  0.0538 -1.2532
17855SOL     OW54142   3.815   8.365   8.831  0.1581 -0.4117 -0.3785
17855SOL    HW154143   3.886   8.399   8.885 -0.3928 -1.0596  0.7780
17855SOL    HW254144   3.854   8.354   8.744  0.8228  1.4439 -0.3522
17856SOL     OW54145   0.596   4.136   9.409  0.4639 -0.4316  0.1534
17856SOL    HW154146   0.624   4.162   9.497  0.6730  0.4563 -0.1697
17856SOL    HW254147   0.675   4.099   9.369  0.5141 -0.3163  0.1451
17857SOL     OW54148   8.752   7.687   8.806 -0.0065  0.4945  0.0204
17857SOL    HW154149   8.670   7.733   8.826  0.7995  1.7344  0.6935
17857SOL    HW254150   8.727   7.596   8.794 -1.5800  0.9691 -0.5380
17858SOL     OW54151   8.840   3.548   3.991  0.1600 -0.9201  0.0011
17858SOL    HW154152   8.901   3.565   3.919 -0.7038 -1.6112 -0.9249
17858SOL    HW254153   8.777   3.620   3.986  1.2999  0.2508  1.4658
17859SOL     OW54154   1.028   7.130   8.993 -0.3839  0.5823 -0.8446
17859SOL    HW154155   0.934   7.150   8.988 -0.1159  1.7292 -3.4306
17859SOL    HW254156   1.057   7.132   8.902  2.0152 -0.6194 -0.1870
17860SOL     OW54157   1.653   6.179   1.658 -0.0967  0.0529  0.0631
17860SOL    HW154158   1.692   6.094   1.678  1.2302  0.9403  1.4757
17860SOL    HW254159   1.725   6.230   1.620 -1.2855  0.0689 -2.4146
17861SOL     OW54160   6.286   6.893   7.306  0.4126 -0.4252 -0.2188
17861SOL    HW154161   6.296   6.945   7.226 -0.3087 -0.6682 -0.4726
17861SOL    HW254162   6.352   6.824   7.298  1.6641  0.6531  0.3096
17862SOL     OW54163   2.309   1.675   2.115  0.7369  0.2406  0.4015
17862SOL    HW154164   2.362   1.642   2.042  0.7332 -1.1716  1.0101
17862SOL    HW254165   2.253   1.742   2.075 -1.3458 -2.4722 -1.6204
17863SOL     OW54166   3.631   6.901   7.126  0.7157  0.2137  0.1468
17863SOL    HW154167   3.560   6.923   7.066  0.1902  0.6121  0.8894
17863SOL    HW254168   3.681   6.983   7.135  0.5382  0.2784  0.5754
17864SOL     OW54169   6.306   6.974   7.024  0.4649 -0.0999 -0.4143
17864SOL    HW154170   6.240   6.932   6.968  1.2305 -0.3003 -1.1794
17864SOL    HW254171   6.388   6.961   6.977  1.0021  0.4441  0.3732
17865SOL     OW54172   8.935   8.037   5.096  0.7170 -0.1253  0.3771
17865SOL    HW154173   9.022   8.073   5.115  0.9519 -0.0271 -0.7897
17865SOL    HW254174   8.875   8.097   5.140  1.2240 -0.1632  1.1537
17866SOL     OW54175   4.811   8.420   1.734  0.8245 -0.5373  0.4386
17866SOL    HW154176   4.876   8.390   1.797  1.1980 -0.6026  0.0319
17866SOL    HW254177   4.837   8.511   1.715  0.7311 -0.5279  0.3602
17867SOL     OW54178   1.621   4.342   6.097 -0.5172  0.2833  0.3213
17867SOL    HW154179   1.648   4.424   6.138  1.1672  0.2517 -0.6553
17867SOL    HW254180   1.557   4.369   6.031 -2.2116  0.4621  1.9101
17868SOL     OW54181   4.708   7.241   0.932  0.2701  0.2507 -0.1523
17868SOL    HW154182   4.746   7.265   1.016 -1.1258 -0.2216  0.6522
17868SOL    HW254183   4.616   7.266   0.939 -0.1446 -0.9073 -1.0735
17869SOL     OW54184   4.034   2.976   8.866  0.6663 -0.8221  0.1892
17869SOL    HW154185   3.975   3.042   8.903  0.4632 -0.2270 -1.1453
17869SOL    HW254186   4.121   3.015   8.872  0.3561  0.4636 -2.3196
17870SOL     OW54187   8.805   1.089   8.572  0.3023  0.2100  0.0520
17870SOL    HW154188   8.791   1.159   8.635 -0.0578  0.1165  0.0812
17870SOL    HW254189   8.898   1.069   8.578  0.2225  0.0292  0.7375
17871SOL     OW54190   7.666   6.589   8.508  0.6774 -0.4286 -0.3886
17871SOL    HW154191   7.615   6.588   8.427  0.5023 -1.6460 -0.2787
17871SOL    HW254192   7.748   6.546   8.486  0.0852 -2.0252  0.3957
17872SOL     OW54193   3.819   0.244   5.131  0.8428 -0.2162  0.1233
17872SOL    HW154194   3.835   0.261   5.038  0.0373  0.0576  0.0316
17872SOL    HW254195   3.904   0.260   5.172  1.2912 -0.6652 -0.6054
17873SOL     OW54196   9.584   2.832   5.065  0.1416 -0.0366  0.0298
17873SOL    HW154197   9.615   2.910   5.017  0.1996  0.1704  0.4021
17873SOL    HW254198   9.506   2.862   5.111 -0.8251 -0.6376 -1.1594
17874SOL     OW54199   7.505   1.916   5.538  0.2658  0.3109  0.1832
17874SOL    HW154200   7.425   1.932   5.587  1.2534  1.8897  1.3854
17874SOL    HW254201   7.527   1.825   5.556 -1.0055 -0.0063  0.1957
17875SOL     OW54202   2.856   2.884   3.882  0.2712 -0.1366  0.0277
17875SOL    HW154203   2.862   2.878   3.977  3.0319  1.3028  0.0311
17875SOL    HW254204   2.801   2.961   3.867  2.2665  1.4862  0.5836
17876SOL     OW54205   8.183   5.813   7.156  0.6120 -0.2275 -0.2577
17876SOL    HW154206   8.228   5.817   7.072  0.7957  0.8751 -0.1194
17876SOL    HW254207   8.093   5.788   7.134  0.6170  0.2076 -0.8066
17877SOL     OW54208   4.794   8.463   5.540 -0.7675  0.5980 -0.1018
17877SOL    HW154209   4.712   8.414   5.540 -0.3262 -0.1690  0.8328
17877SOL    HW254210   4.862   8.398   5.558  0.1313  1.1067 -1.4936
17878SOL     OW54211   9.435   4.196   2.455 -1.3508 -0.3090 -0.2198
17878SOL    HW154212   9.367   4.159   2.511 -2.5257 -0.8179 -1.8909
17878SOL    HW254213   9.444   4.286   2.484 -2.7062 -0.2524  0.0831
17879SOL     OW54214   1.668   1.019   3.783 -0.0578  0.0054 -0.1582
17879SOL    HW154215   1.672   1.113   3.768 -1.4355 -0.0753 -1.3120
17879SOL    HW254216   1.582   1.004   3.823  1.0692 -0.5382  2.1863
17880SOL     OW54217   9.839   2.443   4.401  0.3203  0.2075  0.5927
17880SOL    HW154218   9.822   2.435   4.495 -0.1507 -0.7432  0.4377
17880SOL    HW254219   9.929   2.476   4.396  0.0339  1.1421  1.3765
17881SOL     OW54220   8.024   9.630   4.832  0.0541  0.6177 -0.3915
17881SOL    HW154221   8.071   9.560   4.877  0.6091  2.3792  2.0396
17881SOL    HW254222   7.932   9.617   4.855 -0.0193 -0.0317 -1.0358
17882SOL     OW54223   5.651   2.478   0.561  0.3263  0.5088  0.4863
17882SOL    HW154224   5.673   2.399   0.513  0.2100  0.7548  0.0234
17882SOL    HW254225   5.718   2.485   0.629  0.3020 -0.0162  0.5643
17883SOL     OW54226   8.907   4.987   8.412  0.2272  0.0580 -0.5585
17883SOL    HW154227   8.965   4.927   8.364  0.8251 -0.0523  0.2880
17883SOL    HW254228   8.819   4.965   8.380  0.5686 -0.3279 -1.2633
17884SOL     OW54229   5.701   2.558   9.972  0.2164 -0.6128 -0.3227
17884SOL    HW154230   5.749   2.523   9.897  0.0436  1.4167 -1.4594
17884SOL    HW254231   5.640   2.489   9.996 -0.3072 -1.0298 -2.5994
17885SOL     OW54232   5.058   2.218   5.467  0.6285  0.1577 -0.2073
17885SOL    HW154233   5.053   2.140   5.521  0.3755  0.9940  1.0146
17885SOL    HW254234   5.124   2.273   5.510 -0.0981  1.1499 -0.3376
17886SOL     OW54235   1.032   0.596   0.848 -0.7729  0.3672  0.1093
17886SOL    HW154236   0.973   0.668   0.828 -1.4581 -0.0511  0.5810
17886SOL    HW254237   1.027   0.586   0.943 -1.0172 -0.5716  0.0102
17887SOL     OW54238   2.783   0.410   0.476  0.3007 -0.3135 -0.1778
17887SOL    HW154239   2.857   0.470   0.488  0.2570 -0.0042 -1.3349
17887SOL    HW254240   2.706   0.466   0.487  0.2189 -0.6197  0.9480
17888SOL     OW54241   9.099   3.139   6.271  0.5784 -0.0899  0.6319
17888SOL    HW154242   9.047   3.172   6.345 -1.0316  2.5286 -1.4520
17888SOL    HW254243   9.039   3.081   6.223  0.6113  0.4762 -0.1164
17889SOL     OW54244   4.474   7.736   9.798 -0.3355 -0.0303 -0.4392
17889SOL    HW154245   4.516   7.650   9.805 -0.5773 -0.0322  1.5966
17889SOL    HW254246   4.421   7.730   9.719  1.8622 -0.7214 -1.9359
17890SOL     OW54247   5.975   3.771   3.210 -0.2294 -0.0102  0.2240
17890SOL    HW154248   5.905   3.821   3.254  0.6937  3.3588 -1.7422
17890SOL    HW254249   5.934   3.741   3.129  0.0562  0.3150 -0.0436
17891SOL     OW54250   1.881   5.406   5.996 -0.4299 -0.4605 -0.0187
17891SOL    HW154251   1.925   5.483   6.032  0.5297 -0.4286 -1.2059
17891SOL    HW254252   1.801   5.440   5.957 -1.1224 -0.3970  1.3994
17892SOL     OW54253   5.529   0.862   4.644  0.2216  0.1918 -0.4123
17892SOL    HW154254   5.460   0.907   4.692  0.9121  0.2163  0.5874
17892SOL    HW254255   5.510   0.769   4.655  0.6198  0.1885  0.2904
17893SOL     OW54256   5.071   4.645   3.689  0.2814 -0.4750 -0.6368
17893SOL    HW154257   5.041   4.611   3.773  1.6238 -0.9084 -0.3099
17893SOL    HW254258   5.157   4.682   3.707  0.6446 -0.6773 -1.8425
17894SOL     OW54259   2.355   0.581   1.281  0.3102 -0.2761 -0.3471
17894SOL    HW154260   2.343   0.511   1.345  3.5468 -0.0276  0.7324
17894SOL    HW254261   2.362   0.661   1.333 -2.0008  0.7663 -1.4760
17895SOL     OW54262   2.978   0.072   4.596  0.2847 -0.3422  0.2237
17895SOL    HW154263   2.928   0.024   4.530 -2.5801  0.9762  1.2610
17895SOL    HW254264   2.967   0.164   4.572  0.9627  0.0612  1.3637
17896SOL     OW54265   1.879   7.721   0.560 -0.4394  0.3797 -0.3406
17896SOL    HW154266   1.798   7.679   0.588 -0.5848  0.2427 -0.9571
17896SOL    HW254267   1.949   7.664   0.593 -0.6420 -0.5225 -1.4290
17897SOL     OW54268   3.859   5.748   3.977  0.2217 -0.6964 -0.2840
17897SOL    HW154269   3.807   5.669   3.958 -1.9769  0.2253  1.4381
17897SOL    HW254270   3.919   5.721   4.046 -0.0477 -1.0380 -0.1814
17898SOL     OW54271   2.036   5.245   1.562 -0.2932 -0.4008 -0.4462
17898SOL    HW154272   2.036   5.199   1.646 -0.7367 -1.9031 -1.2266
17898SOL    HW254273   2.100   5.198   1.509  1.2518  1.5919 -0.4480
17899SOL     OW54274   7.436   6.284   1.644  0.1935  0.2378  0.2721
17899SOL    HW154275   7.408   6.246   1.727 -0.8969  1.6211  0.5689
17899SOL    HW254276   7.377   6.357   1.629  0.6823  0.3264 -1.4955
17900SOL     OW54277   4.623   5.583   5.506 -0.0088 -0.3307  0.1300
17900SOL    HW154278   4.686   5.567   5.576  1.3400  3.8346  0.1075
17900SOL    HW254279   4.655   5.531   5.432  1.5422 -0.7767  1.0777
17901SOL     OW54280   5.102   7.685   3.092 -0.1738 -0.0922  0.0801
17901SOL    HW154281   5.060   7.744   3.155 -0.1558  0.8913 -0.8005
17901SOL    HW254282   5.125   7.742   3.018  2.7186 -0.5759  0.4879
17902SOL     OW54283   5.262   7.596   5.725 -0.5863  0.6280 -0.2399
17902SOL    HW154284   5.353   7.573   5.746 -1.0935 -1.5535 -0.1525
17902SOL    HW254285   5.211   7.557   5.796 -1.7225  0.1205 -1.2918
17903SOL     OW54286   0.050   3.722   5.050 -0.1943 -0.3002  0.2762
17903SOL    HW154287   0.125   3.670   5.079  0.6820  0.0974 -1.1821
17903SOL    HW254288   0.080   3.766   4.971 -1.4570  1.1472  0.5574
17904SOL     OW54289   9.374   5.048   7.498  0.3425  0.4503 -0.1325
17904SOL    HW154290   9.365   5.142   7.485 -0.8116  0.0023 -3.4462
17904SOL    HW254291   9.292   5.011   7.465  1.4652 -1.8263 -0.5725
17905SOL     OW54292   6.026   9.798   6.767 -0.0356  0.2073 -0.9042
17905SOL    HW154293   5.972   9.780   6.690  1.1397 -2.1122 -1.2562
17905SOL    HW254294   6.113   9.814   6.732  0.6334 -1.4173 -0.0515
17906SOL     OW54295   4.882   2.178   0.213  0.3689  0.1022  0.7139
17906SOL    HW154296   4.788   2.197   0.206 -0.1486 -2.0745  1.0581
17906SOL    HW254297   4.919   2.257   0.253 -1.3702  0.8326  0.9983
17907SOL     OW54298   9.319   2.343   6.368  0.4589 -0.0818  0.1402
17907SOL    HW154299   9.302   2.273   6.305  1.1359 -1.2526  1.1939
17907SOL    HW254300   9.296   2.304   6.453 -0.3592  1.4206  0.6441
17908SOL     OW54301   9.051   8.821   8.956  0.4908 -0.2481 -0.2537
17908SOL    HW154302   9.092   8.736   8.975  0.7601  0.3924  2.4718
17908SOL    HW254303   9.125   8.881   8.946  0.2837 -0.0099 -0.3639
17909SOL     OW54304   2.036   8.206   0.316  0.3578  0.2153  0.4096
17909SOL    HW154305   2.003   8.285   0.359 -0.6467  0.4397 -0.7103
17909SOL    HW254306   2.127   8.200   0.344  0.4652  1.8021  0.4965
17910SOL     OW54307   5.590   2.106   1.768  0.4543  0.1114  0.9913
17910SOL    HW154308   5.588   2.201   1.772  2.8408  0.3743 -1.1727
17910SOL    HW254309   5.681   2.083   1.790  0.4616 -1.4601 -0.4277
17911SOL     OW54310   6.832   5.218   5.877 -0.2820 -0.1031  0.3420
17911SOL    HW154311   6.740   5.196   5.892 -0.2001  0.2468  1.4283
17911SOL    HW254312   6.860   5.259   5.958  0.5093  0.9008 -0.4126
17912SOL     OW54313   5.125   3.229   7.964 -0.1304 -0.4236 -0.3756
17912SOL    HW154314   5.083   3.268   8.041 -1.7082 -0.7907 -1.0141
17912SOL    HW254315   5.218   3.238   7.981 -0.4457  0.1335  1.2588
17913SOL     OW54316   5.726   2.852   2.795  0.4258  0.0631  0.3266
17913SOL    HW154317   5.746   2.787   2.862  1.8946  1.1922  1.0568
17913SOL    HW254318   5.693   2.928   2.845 -1.7095 -0.2319 -0.5343
17914SOL     OW54319   0.117   4.810   4.506  0.0023 -0.1173 -0.1179
17914SOL    HW154320   0.178   4.736   4.509  1.6766  1.2267  1.2684
17914SOL    HW254321   0.099   4.829   4.598 -0.3952  1.1779 -0.4418
17915SOL     OW54322   3.771   6.132   7.679  0.3108 -0.1494  0.6158
17915SOL    HW154323   3.727   6.124   7.595  0.1782 -0.2611  0.6962
17915SOL    HW254324   3.830   6.056   7.682  1.0344  0.3834  0.1974
17916SOL     OW54325   9.510   8.667   4.654  0.0746 -0.3802  0.1446
17916SOL    HW154326   9.568   8.594   4.672 -0.2202 -0.7123 -0.2329
17916SOL    HW254327   9.484   8.655   4.563 -2.2323 -1.4198  0.8609
17917SOL     OW54328   6.698   8.562   2.369 -0.3606  0.2985  0.1674
17917SOL    HW154329   6.663   8.500   2.433  0.1834 -0.6109 -0.3940
17917SOL    HW254330   6.641   8.551   2.292 -0.2397  0.4797  0.0514
17918SOL     OW54331   5.366   0.784   2.033  0.1157  0.2486 -1.3129
17918SOL    HW154332   5.383   0.717   1.966 -0.0500 -0.9791 -0.1680
17918SOL    HW254333   5.452   0.802   2.071  0.0479  0.1084 -1.0926
17919SOL     OW54334   4.019   9.035   5.405  0.3925 -0.1000 -0.3846
17919SOL    HW154335   3.942   8.993   5.366 -0.5745  0.9676  0.3040
17919SOL    HW254336   4.071   9.063   5.330 -0.2927 -0.1092 -0.8739
17920SOL     OW54337   5.461   5.805   4.663 -0.4776 -0.0427  0.5592
17920SOL    HW154338   5.402   5.834   4.732 -1.3490 -0.3738 -0.0340
17920SOL    HW254339   5.404   5.784   4.589  0.4196  0.1570 -0.2192
17921SOL     OW54340   1.857   3.806   4.216 -0.4084 -0.6789  0.1829
17921SOL    HW154341   1.930   3.786   4.275 -1.2860 -1.6047  1.0069
17921SOL    HW254342   1.781   3.815   4.275 -0.8849  0.7338 -0.6016
17922SOL     OW54343   0.332   4.384   7.737 -0.0115 -0.5407 -0.2902
17922SOL    HW154344   0.425   4.372   7.714 -0.4589 -1.0679 -1.9423
17922SOL    HW254345   0.284   4.357   7.659 -1.6433 -1.6948  1.0318
17923SOL     OW54346   1.429   9.592   9.575 -0.0627 -0.2440 -0.5343
17923SOL    HW154347   1.391   9.676   9.604 -1.3864 -1.0005  0.0296
17923SOL    HW254348   1.354   9.543   9.542  0.5351 -1.5663  0.0165
17924SOL     OW54349   0.736   0.959   4.300 -0.1044 -0.0938 -0.3494
17924SOL    HW154350   0.655   1.009   4.303 -0.2531 -0.3575  0.1850
17924SOL    HW254351   0.740   0.924   4.211 -0.3806  0.2345 -0.4920
17925SOL     OW54352   3.314   6.127   5.302  0.1465 -0.1013 -0.3044
17925SOL    HW154353   3.285   6.040   5.329 -0.4621  0.7126  1.8497
17925SOL    HW254354   3.398   6.111   5.259 -1.5094 -2.0721 -3.1164
17926SOL     OW54355   6.867   6.824   3.596  0.2014 -0.1888  0.4753
17926SOL    HW154356   6.790   6.827   3.540 -0.0815 -0.4975  0.8395
17926SOL    HW254357   6.835   6.854   3.682  0.6877  0.5517  0.4145
17927SOL     OW54358   7.140   9.783   1.664  0.0113  0.1612 -0.4957
17927SOL    HW154359   7.155   9.690   1.644  0.5183  0.1834 -0.2465
17927SOL    HW254360   7.046   9.790   1.678 -0.6692  0.4192 -4.2316
17928SOL     OW54361   6.757   6.055   2.999 -0.3000 -0.2281  0.1914
17928SOL    HW154362   6.794   6.066   3.087  0.5490  2.3418 -0.4108
17928SOL    HW254363   6.685   6.118   2.996  1.0637  1.3423 -1.6418
17929SOL     OW54364   7.255   7.380   8.813 -0.3961 -0.1112  0.5744
17929SOL    HW154365   7.185   7.383   8.748  0.3059 -2.4398 -0.4234
17929SOL    HW254366   7.308   7.303   8.788  0.5231 -0.4983  3.2871
17930SOL     OW54367   6.953   4.251   3.497  0.2288 -0.2743 -0.2161
17930SOL    HW154368   6.969   4.228   3.406 -0.4676 -0.7021 -0.2370
17930SOL    HW254369   6.895   4.327   3.493  0.7416  0.1290 -0.1280
17931SOL     OW54370   4.335   7.036   9.861  0.0024 -0.5489  0.4605
17931SOL    HW154371   4.262   7.088   9.826 -0.4051 -0.5277  1.3037
17931SOL    HW254372   4.404   7.100   9.877 -0.1396 -0.4220  0.5667
17932SOL     OW54373   8.053   6.052   4.369 -0.3370 -0.4333  0.1447
17932SOL    HW154374   7.969   6.084   4.335 -1.9064 -3.5883  0.6665
17932SOL    HW254375   8.032   6.022   4.457  1.2402 -1.7067  0.1139
17933SOL     OW54376   0.019   7.794   9.014 -0.6685  0.0485  0.0269
17933SOL    HW154377  -0.058   7.814   8.962 -0.3247  0.2839 -0.3964
17933SOL    HW254378   0.083   7.860   8.988 -0.3724 -0.0590  0.4780
17934SOL     OW54379   2.364   3.276   0.592 -0.5050  0.5141  0.4228
17934SOL    HW154380   2.386   3.292   0.500  0.2560  1.3490  0.7273
17934SOL    HW254381   2.295   3.210   0.590  0.9141 -1.0208 -0.6699
17935SOL     OW54382   7.908   7.461   0.372 -0.8335  0.0456 -0.0774
17935SOL    HW154383   7.942   7.547   0.347 -0.9848  0.2529  0.4117
17935SOL    HW254384   7.958   7.399   0.319  0.3629  0.3429  0.6744
17936SOL     OW54385   3.895   3.723   0.214 -0.0071 -0.3051  0.2663
17936SOL    HW154386   3.904   3.770   0.297 -0.3798  0.8179 -0.3095
17936SOL    HW254387   3.907   3.631   0.237  3.5217  0.2069  1.0237
17937SOL     OW54388   0.892   4.497   4.299 -0.3185  0.0675 -0.3969
17937SOL    HW154389   0.958   4.556   4.336 -0.7651 -0.4739  1.3528
17937SOL    HW254390   0.814   4.552   4.289 -0.2214  0.1974 -0.4479
17938SOL     OW54391   0.162   6.543   0.334  0.1324  0.1047 -0.2330
17938SOL    HW154392   0.231   6.498   0.383 -0.8374 -0.3922  0.7053
17938SOL    HW254393   0.107   6.583   0.402 -2.2384 -2.0248 -0.7341
17939SOL     OW54394   0.389   5.343   4.111 -0.0162 -0.0942  0.2640
17939SOL    HW154395   0.348   5.426   4.135  1.6946  0.7437  0.4890
17939SOL    HW254396   0.367   5.283   4.183  0.9089  0.9590  1.4855
17940SOL     OW54397   1.599   8.469   5.997 -0.4632 -0.6703 -0.5690
17940SOL    HW154398   1.537   8.487   6.067 -0.7227  0.6969 -1.1098
17940SOL    HW254399   1.683   8.455   6.041 -1.0663 -2.1815  0.1408
17941SOL     OW54400   5.863   4.836   3.334  0.2338  0.5290 -0.3313
17941SOL    HW154401   5.932   4.885   3.380  0.7716  0.1319 -0.6973
17941SOL    HW254402   5.781   4.874   3.366  0.6145  0.8052  0.3436
17942SOL     OW54403   6.063   1.922   7.155 -0.0705 -0.0228 -0.0998
17942SOL    HW154404   6.127   1.870   7.202  0.6475  0.5771 -0.3836
17942SOL    HW254405   5.978   1.886   7.180  0.3797 -0.8230  0.2855
17943SOL     OW54406   6.754   8.113   3.020  0.8324  0.3343  0.4559
17943SOL    HW154407   6.690   8.182   3.003 -0.4086 -0.9642 -0.4030
17943SOL    HW254408   6.727   8.075   3.103  0.7526  0.0548  0.3015
17944SOL     OW54409   8.413  -0.006   3.253  0.1525  0.2080  0.3788
17944SOL    HW154410   8.503   0.020   3.232  0.6793 -1.7964 -0.0115
17944SOL    HW254411   8.367   0.001   3.169  0.9849 -2.6679 -0.4317
17945SOL     OW54412   7.902   2.706   3.197 -0.2451  0.1732 -0.0238
17945SOL    HW154413   7.887   2.729   3.105 -0.0772  0.0061 -0.0909
17945SOL    HW254414   7.990   2.737   3.216  0.9174 -2.4277 -0.7573
17946SOL     OW54415   8.634   8.015   3.024 -0.0432  0.2607 -0.4780
17946SOL    HW154416   8.620   8.014   3.119 -0.3061 -0.5833 -0.5150
17946SOL    HW254417   8.606   8.102   2.996 -1.0739  0.1144  0.0590
17947SOL     OW54418   9.849   8.742   9.644 -0.1713  0.0937 -0.4912
17947SOL    HW154419   9.869   8.816   9.587  3.0537 -0.8955 -0.8235
17947SOL    HW254420   9.790   8.687   9.593 -0.1932  0.9679 -1.4302
17948SOL     OW54421   0.564   0.584   6.210  0.1779 -0.0727  0.2136
17948SOL    HW154422   0.653   0.610   6.230 -0.1100  1.3296 -0.2185
17948SOL    HW254423   0.551   0.610   6.119 -0.7446 -0.0225  0.3455
17949SOL     OW54424   5.907   4.856   6.062 -0.5975 -0.5899 -0.0953
17949SOL    HW154425   5.895   4.950   6.076  1.0333  0.0600 -2.3270
17949SOL    HW254426   5.869   4.815   6.139 -0.2840  1.9554  1.5505
17950SOL     OW54427   1.466   8.550   0.309  0.5125  0.0451 -0.7723
17950SOL    HW154428   1.459   8.635   0.266  1.2024  1.0314  0.9696
17950SOL    HW254429   1.526   8.565   0.382 -0.6001 -1.5481  0.5310
17951SOL     OW54430   8.795   7.935   9.888  0.1469  0.0780 -0.1443
17951SOL    HW154431   8.868   7.887   9.927  0.1086  1.1109  1.2552
17951SOL    HW254432   8.718   7.884   9.911  0.0885  0.8453  1.4961
17952SOL     OW54433   9.618   1.944   8.168 -0.3593 -0.1808 -0.0776
17952SOL    HW154434   9.538   1.906   8.204 -0.9881  2.1159  1.1742
17952SOL    HW254435   9.587   2.010   8.105  0.6123 -0.3152 -0.7274
17953SOL     OW54436   0.843   6.809   8.405  0.3275 -0.1853  0.5744
17953SOL    HW154437   0.901   6.786   8.332  0.5293  0.3433  0.5640
17953SOL    HW254438   0.899   6.804   8.483  0.6006  1.0853  0.4801
17954SOL     OW54439   3.537   0.254   9.502  0.4825 -0.1051  0.2726
17954SOL    HW154440   3.573   0.171   9.534  0.8023  0.0218  0.2427
17954SOL    HW254441   3.523   0.239   9.408  1.6727  0.2645  0.0209
17955SOL     OW54442   4.326   0.904   4.244 -0.2317  0.2536  0.3878
17955SOL    HW154443   4.388   0.894   4.316  1.0674 -0.4891 -0.7857
17955SOL    HW254444   4.274   0.981   4.267  1.1311  0.9086  1.3956
17956SOL     OW54445   3.455   0.281   7.789  0.3339 -0.1509 -0.2755
17956SOL    HW154446   3.466   0.376   7.798 -1.7269  0.1575 -0.4348
17956SOL    HW254447   3.368   0.264   7.825 -0.4084 -1.6009 -2.5632
17957SOL     OW54448   4.022   6.978   2.295 -0.0647 -0.1839  0.3388
17957SOL    HW154449   3.948   6.942   2.247  0.6392 -0.3798 -0.6353
17957SOL    HW254450   4.084   7.006   2.227  0.0063  1.6233  1.0869
17958SOL     OW54451   9.853   4.658   4.214  0.1237 -0.2535  0.1112
17958SOL    HW154452   9.925   4.717   4.192  0.7073 -0.3487  1.6548
17958SOL    HW254453   9.807   4.645   4.131  1.3597  0.5036 -0.7314
17959SOL     OW54454   1.075   9.198   9.531 -0.4553  0.0235  0.0617
17959SOL    HW154455   1.021   9.150   9.468  2.2570 -0.8733 -1.7858
17959SOL    HW254456   1.107   9.130   9.591 -0.5709  0.3853  0.5387
17960SOL     OW54457   2.076   1.583   1.197  0.1222  0.2134 -0.1659
17960SOL    HW154458   1.990   1.540   1.202 -0.6940  1.9024  1.1021
17960SOL    HW254459   2.086   1.627   1.281  2.6274 -0.5673  0.0332
17961SOL     OW54460   1.188   6.903   0.826 -0.8137  0.2057 -0.4770
17961SOL    HW154461   1.226   6.966   0.764  0.4082  0.0293  0.0639
17961SOL    HW254462   1.221   6.931   0.912 -0.1685 -1.2250 -0.2383
17962SOL     OW54463   9.215   6.198   0.678 -1.1020  0.1710 -0.2570
17962SOL    HW154464   9.226   6.292   0.686 -1.1489  0.1692 -0.1679
17962SOL    HW254465   9.120   6.184   0.682 -1.0590  0.0588  0.3981
17963SOL     OW54466   5.653   9.132   3.354  0.4042  0.4455  0.2712
17963SOL    HW154467   5.742   9.126   3.318  0.4207 -0.1020  0.3956
17963SOL    HW254468   5.666   9.169   3.442  0.4955  0.5108  0.2305
17964SOL     OW54469   6.282   6.207   7.738 -0.1917  0.2105  0.3794
17964SOL    HW154470   6.225   6.194   7.814 -0.9293 -0.4022 -0.2572
17964SOL    HW254471   6.323   6.122   7.725  2.0169  1.0071  1.6963
17965SOL     OW54472   7.410   2.522   7.535 -0.1348 -0.0890 -0.0470
17965SOL    HW154473   7.440   2.542   7.624 -0.2955  0.1789 -0.0500
17965SOL    HW254474   7.346   2.592   7.516 -1.8298 -1.4130  0.5055
17966SOL     OW54475   3.372   2.471   2.401  0.3964 -0.0969 -0.4227
17966SOL    HW154476   3.339   2.524   2.329 -0.0395  2.8110  1.7385
17966SOL    HW254477   3.296   2.423   2.433  0.7063 -1.8585 -2.1283
17967SOL     OW54478   4.096   7.618   5.893  0.1172 -0.2816 -0.2060
17967SOL    HW154479   4.157   7.544   5.889  0.1031 -0.2825 -0.4125
17967SOL    HW254480   4.076   7.627   5.986 -0.6900 -1.1994 -0.2714
17968SOL     OW54481   4.300   4.727   3.161 -0.1331 -0.0253 -0.5299
17968SOL    HW154482   4.302   4.765   3.073 -2.8237 -0.1281 -0.7050
17968SOL    HW254483   4.387   4.688   3.171  0.7245  1.1429 -2.5851
17969SOL     OW54484   2.115   6.650   7.603  0.0430  0.2796 -0.0402
17969SOL    HW154485   2.076   6.730   7.567  1.4171  1.0106  0.0528
17969SOL    HW254486   2.077   6.642   7.691  0.5242  1.2906  0.2642
17970SOL     OW54487   8.975   9.657   9.181 -0.2233 -0.0839 -0.2519
17970SOL    HW154488   9.022   9.710   9.245 -0.0562 -0.6810  0.1231
17970SOL    HW254489   8.949   9.719   9.113 -1.4490  0.7942  0.9562
17971SOL     OW54490   9.322   1.871   7.038 -0.4861 -0.3505  0.0172
17971SOL    HW154491   9.347   1.952   6.993 -1.3553  0.4106  0.8706
17971SOL    HW254492   9.311   1.897   7.129 -1.7034 -1.2349  0.1403
17972SOL     OW54493   3.541   0.549   7.111  0.8921 -0.0007 -0.3105
17972SOL    HW154494   3.463   0.603   7.098  0.1083 -1.0448 -0.0750
17972SOL    HW254495   3.507   0.465   7.142  2.2595  0.7771  4.1141
17973SOL     OW54496   0.368   6.326   0.680 -0.3774 -0.3589 -0.1704
17973SOL    HW154497   0.370   6.235   0.651  1.7453 -0.4016 -0.0370
17973SOL    HW254498   0.444   6.335   0.736 -0.0172  1.7298 -0.8993
17974SOL     OW54499   8.098   1.216   4.120 -0.2674  0.4548 -0.5592
17974SOL    HW154500   8.104   1.127   4.086  0.8501  0.4297 -0.3409
17974SOL    HW254501   8.029   1.257   4.069 -1.2002 -0.6997 -0.2864
17975SOL     OW54502   6.983   4.038   7.661 -0.2328 -0.4251 -0.7151
17975SOL    HW154503   7.027   4.056   7.744  0.7912 -1.4089 -1.0094
17975SOL    HW254504   7.008   4.111   7.604 -0.2698 -0.1653 -0.3982
17976SOL     OW54505   1.075   2.752   1.406 -0.4182 -0.3394 -0.1343
17976SOL    HW154506   1.049   2.740   1.498  0.5522  0.6519  0.2992
17976SOL    HW254507   1.127   2.674   1.386  1.3906  0.5258  0.9502
17977SOL     OW54508   1.734   9.156   6.075 -0.3026 -0.0052  0.1382
17977SOL    HW154509   1.774   9.234   6.112  0.8022 -1.0940  1.3541
17977SOL    HW254510   1.773   9.148   5.987  0.3450  0.2562  0.3956
17978SOL     OW54511   2.730   7.877   4.017  0.2967 -0.6056 -0.5405
17978SOL    HW154512   2.737   7.951   3.957 -0.3060 -1.2732 -1.4542
17978SOL    HW254513   2.777   7.805   3.973  0.0132 -1.0492 -0.1270
17979SOL     OW54514   0.997   9.827   6.932 -0.5664 -0.6260 -0.4702
17979SOL    HW154515   0.915   9.858   6.969  0.2335  1.5792 -0.4111
17979SOL    HW254516   0.973   9.784   6.850 -1.7031  1.0509 -1.0684
17980SOL     OW54517   4.649   9.917   3.999  0.3276 -0.6855  0.5257
17980SOL    HW154518   4.634   9.914   3.905  1.5990 -1.3497  0.3192
17980SOL    HW254519   4.706   9.993   4.012  0.0287 -0.5022  0.7917
17981SOL     OW54520   7.995   0.355   8.718 -0.3879 -0.0446 -0.9584
17981SOL    HW154521   7.977   0.293   8.648 -0.5531  0.8512 -1.7305
17981SOL    HW254522   8.004   0.301   8.797 -0.5536 -1.0309 -1.6019
17982SOL     OW54523   7.438   5.299   4.918 -0.0083 -0.3628 -0.1512
17982SOL    HW154524   7.388   5.376   4.889  1.4026  0.6963  0.1331
17982SOL    HW254525   7.379   5.253   4.977 -1.3876 -0.2668 -1.3856
17983SOL     OW54526   7.292   2.034   5.674  0.1773 -0.0299  0.2516
17983SOL    HW154527   7.272   1.941   5.686 -1.1007  0.1304 -0.5214
17983SOL    HW254528   7.261   2.076   5.755 -0.7656 -0.0649 -0.0816
17984SOL     OW54529   2.454   8.757   2.680 -0.0019  0.3430 -0.0685
17984SOL    HW154530   2.520   8.726   2.742  0.6477  1.1259 -0.3532
17984SOL    HW254531   2.385   8.690   2.683  1.3731 -1.1692 -0.7384
17985SOL     OW54532   8.100   3.681   7.452 -0.1338 -0.1965  0.5193
17985SOL    HW154533   8.005   3.697   7.456  0.1109  1.4289  0.3990
17985SOL    HW254534   8.139   3.758   7.491  1.1496 -1.2042  1.3054
17986SOL     OW54535   6.685   4.846   6.462  0.2301 -0.3131  0.0089
17986SOL    HW154536   6.730   4.764   6.440 -0.0161 -0.7198  0.9637
17986SOL    HW254537   6.687   4.849   6.558  0.6655  1.0493 -0.0244
17987SOL     OW54538   2.848   4.461   1.303 -0.0754 -0.0755  0.2919
17987SOL    HW154539   2.889   4.437   1.220 -1.6898 -0.7060 -0.3578
17987SOL    HW254540   2.786   4.391   1.322 -3.3093  2.3121 -0.5183
17988SOL     OW54541   7.023   2.409   7.326  0.0512 -0.4458 -1.1035
17988SOL    HW154542   7.076   2.488   7.336  1.0491 -0.8178 -2.9789
17988SOL    HW254543   7.059   2.348   7.390 -0.0239  0.2479 -0.3846
17989SOL     OW54544   3.595   6.809   7.822  0.0811  0.3508  0.0763
17989SOL    HW154545   3.571   6.731   7.771  1.1065  0.0819 -0.0026
17989SOL    HW254546   3.689   6.819   7.808  0.1292  1.0552  0.8595
17990SOL     OW54547   0.652   1.296   6.310  0.0752 -0.0790  0.0759
17990SOL    HW154548   0.694   1.349   6.243 -2.3338  1.3301 -0.4617
17990SOL    HW254549   0.563   1.283   6.277 -0.4998 -1.3022  1.9591
17991SOL     OW54550   4.239   4.149   8.648 -0.4230 -0.1564  0.0499
17991SOL    HW154551   4.274   4.169   8.735  0.0545  0.0202 -0.1788
17991SOL    HW254552   4.206   4.232   8.616 -0.0314 -0.0862 -0.1861
17992SOL     OW54553   5.056   0.696   6.690  0.1856  0.5387  0.1131
17992SOL    HW154554   5.031   0.741   6.770  1.8006  1.1564  0.2918
17992SOL    HW254555   5.150   0.684   6.697 -0.0184 -1.8708 -0.4538
17993SOL     OW54556   6.202   1.809   9.560  0.3174 -0.3555 -0.3039
17993SOL    HW154557   6.206   1.871   9.487 -0.5566 -0.2848 -0.3084
17993SOL    HW254558   6.271   1.837   9.620 -1.3602  1.9273  0.6986
17994SOL     OW54559   4.874   8.546   5.284  1.0002  0.1688  0.4274
17994SOL    HW154560   4.948   8.486   5.271  0.1394 -1.2017  1.5905
17994SOL    HW254561   4.824   8.507   5.356 -1.1177  0.8097 -0.6397
17995SOL     OW54562   6.302   2.796   2.585 -0.5891  0.0903  0.2919
17995SOL    HW154563   6.300   2.739   2.508  0.8985  1.8358 -1.1356
17995SOL    HW254564   6.380   2.768   2.634  0.8443  1.5685 -1.0386
17996SOL     OW54565   8.394   6.278   9.395 -0.0245 -0.4536  0.5980
17996SOL    HW154566   8.378   6.366   9.427  3.8807 -0.1385  2.2259
17996SOL    HW254567   8.414   6.289   9.302  0.4923  0.4076  0.8073
17997SOL     OW54568   4.869   6.267   7.318 -0.0324  0.1807  0.4261
17997SOL    HW154569   4.848   6.191   7.372 -1.0629  0.2145  0.0948
17997SOL    HW254570   4.894   6.230   7.233 -1.6361  0.2188 -0.0967
17998SOL     OW54571   2.400   0.824   3.999 -0.1392 -0.2932 -0.0609
17998SOL    HW154572   2.482   0.873   4.002 -0.1336 -0.0392 -2.3648
17998SOL    HW254573   2.339   0.882   3.954 -0.9303 -1.3301 -0.3756
17999SOL     OW54574   0.262   1.077   1.477  0.1099 -0.7251 -0.3062
17999SOL    HW154575   0.218   1.026   1.545 -0.9285 -0.2355 -0.5793
17999SOL    HW254576   0.298   1.152   1.524 -0.9319 -0.1911 -0.3232
18000SOL     OW54577   2.450   7.820   2.652 -0.0323 -0.7578  0.2006
18000SOL    HW154578   2.419   7.842   2.741 -0.9697  0.6191 -0.4245
18000SOL    HW254579   2.541   7.850   2.651  1.1399 -3.8635  1.7229
18001SOL     OW54580   0.773   2.007   0.064  0.0219  0.0659  0.0413
18001SOL    HW154581   0.687   2.050   0.059  0.3241  0.7461  0.5884
18001SOL    HW254582   0.775   1.951  -0.013 -0.9141  0.0444  0.0114
18002SOL     OW54583   7.682   6.684   1.638  0.2424 -0.2949  0.2695
18002SOL    HW154584   7.728   6.767   1.629  0.4248 -0.3795  0.4222
18002SOL    HW254585   7.690   6.662   1.730  3.0359 -2.1152 -0.2827
18003SOL     OW54586   4.299   2.626   9.269  0.1294 -0.0631 -0.2405
18003SOL    HW154587   4.318   2.703   9.215 -1.1899  0.7805  0.4477
18003SOL    HW254588   4.226   2.583   9.224 -0.7391  0.4478  0.6248
18004SOL     OW54589   9.699   2.476   8.838  0.4560 -0.0398 -0.2345
18004SOL    HW154590   9.672   2.427   8.916  0.2892  1.1592  0.4792
18004SOL    HW254591   9.642   2.443   8.769 -0.7506  0.2646  0.5813
18005SOL     OW54592   4.579   2.291   2.746  0.2887  0.3948  0.3722
18005SOL    HW154593   4.620   2.326   2.667  2.3220  1.8322  1.9150
18005SOL    HW254594   4.631   2.213   2.767  1.0977  1.1463  1.3043
18006SOL     OW54595   0.936   2.368   7.437  0.9497  0.1586 -0.1095
18006SOL    HW154596   0.929   2.398   7.347  1.6696 -2.7448 -1.2462
18006SOL    HW254597   1.024   2.331   7.444  0.1958 -1.5558  1.1255
18007SOL     OW54598   9.775   2.116   2.658 -0.3206 -0.1370  0.4181
18007SOL    HW154599   9.864   2.151   2.649 -0.2547 -0.3010  0.4367
18007SOL    HW254600   9.770   2.047   2.592 -1.4788  1.9584 -1.8819
18008SOL     OW54601   5.939   6.404   6.303 -0.9095 -0.0522  0.0717
18008SOL    HW154602   5.851   6.435   6.325 -0.6742  0.1674  0.7273
18008SOL    HW254603   5.976   6.474   6.250 -0.0343  1.3173  2.3274
18009SOL     OW54604   4.770   8.505   2.252 -0.3460 -0.2971  0.5885
18009SOL    HW154605   4.762   8.488   2.158  0.5601  1.1863  0.1967
18009SOL    HW254606   4.692   8.557   2.274 -0.8625 -1.1531  0.7982
18010SOL     OW54607   1.331   7.908   2.880 -0.1232 -0.3969  0.0028
18010SOL    HW154608   1.375   7.886   2.797 -2.2902 -0.5790 -1.1571
18010SOL    HW254609   1.353   7.836   2.939  0.6163 -0.7962 -0.7398
18011SOL     OW54610   2.120   0.941   2.687  0.3899 -0.1953 -0.3464
18011SOL    HW154611   2.057   0.870   2.677 -0.9542  0.6422  1.4347
18011SOL    HW254612   2.199   0.910   2.644  0.4921 -3.5809  1.8774
18012SOL     OW54613   9.621   7.836   5.130  0.2662 -0.4424  0.3825
18012SOL    HW154614   9.530   7.862   5.146  0.3932  0.2020  0.1125
18012SOL    HW254615   9.617   7.784   5.050  0.4442  1.8324 -1.1921
18013SOL     OW54616   3.327   0.622   3.515  0.3886  0.2084 -0.0431
18013SOL    HW154617   3.288   0.541   3.549 -1.6094  2.0030  2.3506
18013SOL    HW254618   3.338   0.606   3.421 -1.7430 -2.1456 -0.0019
18014SOL     OW54619   2.415   6.210   2.641 -0.5024  0.2934  0.2296
18014SOL    HW154620   2.355   6.160   2.697  0.0013  0.2792  0.7701
18014SOL    HW254621   2.365   6.287   2.615 -1.1235 -0.2477 -0.2211
18015SOL     OW54622   9.413   5.583   7.319 -0.6828 -0.1348 -0.0783
18015SOL    HW154623   9.462   5.628   7.251 -2.4020 -0.4085 -1.5807
18015SOL    HW254624   9.364   5.653   7.363 -2.2600 -0.3034 -1.4785
18016SOL     OW54625   7.104   8.338   0.182  0.0260 -0.6295  0.4698
18016SOL    HW154626   7.113   8.245   0.161 -0.0668 -0.4937 -0.1882
18016SOL    HW254627   7.026   8.366   0.135  0.8324  0.0985 -0.4851
18017SOL     OW54628   7.083   1.078   9.804 -0.1111  0.1672  0.0130
18017SOL    HW154629   7.099   1.105   9.713  0.6303  0.2741  0.1651
18017SOL    HW254630   7.159   1.024   9.826 -0.2968  0.1303  0.5673
18018SOL     OW54631   9.335   7.390   9.706  0.5085 -0.3702 -0.2023
18018SOL    HW154632   9.419   7.359   9.671  0.4187  0.9866 -1.7418
18018SOL    HW254633   9.306   7.456   9.644 -0.5650  0.8961  1.5398
18019SOL     OW54634   2.425   9.965   3.377  0.3725 -0.0034  0.0930
18019SOL    HW154635   2.477  10.018   3.316 -1.5350  1.0044 -0.7647
18019SOL    HW254636   2.394   9.892   3.324 -0.4929  0.3456  0.1086
18020SOL     OW54637   4.124   2.332  10.008  0.2149  0.3442 -0.0909
18020SOL    HW154638   4.088   2.249   9.979 -0.3396  0.8399 -0.8631
18020SOL    HW254639   4.113   2.391   9.933  1.0538  0.9795  0.2666
18021SOL     OW54640   0.775   9.629   6.198  0.1721  0.3606  0.2858
18021SOL    HW154641   0.843   9.565   6.178 -0.9507 -1.2018  1.2868
18021SOL    HW254642   0.693   9.579   6.196 -0.6589  1.5826  1.8962
18022SOL     OW54643   0.996   6.374   4.792 -0.4820 -0.2297 -0.6675
18022SOL    HW154644   1.038   6.410   4.713  2.8803  0.0568  1.0439
18022SOL    HW254645   0.954   6.293   4.762  1.2819 -0.5062 -2.6634
18023SOL     OW54646   7.774   3.887   2.778  0.0363 -0.8618 -0.1657
18023SOL    HW154647   7.699   3.828   2.781 -0.0129 -0.8339 -0.8170
18023SOL    HW254648   7.778   3.925   2.866 -0.0816 -1.6436  0.1832
18024SOL     OW54649   2.706   8.708   3.299 -0.5494  0.0848  0.2691
18024SOL    HW154650   2.786   8.761   3.301 -1.0679  0.8449  1.4427
18024SOL    HW254651   2.671   8.712   3.388 -0.5251 -2.3996  0.4603
18025SOL     OW54652   3.699   0.056   9.800  0.0714  0.0914 -0.0172
18025SOL    HW154653   3.760  -0.017   9.796  0.2903  0.2875 -0.3556
18025SOL    HW254654   3.647   0.049   9.720 -0.0304  0.1954  0.0386
18026SOL     OW54655   8.384   7.252   3.253  0.2456  0.3684  0.3615
18026SOL    HW154656   8.379   7.334   3.302 -0.2639  1.7961 -1.9275
18026SOL    HW254657   8.293   7.221   3.252  0.6268 -1.0202  2.3545
18027SOL     OW54658   3.007   8.683   8.333 -0.0779  0.3606  0.2613
18027SOL    HW154659   2.998   8.772   8.367  0.4441  0.3567  0.4121
18027SOL    HW254660   2.938   8.633   8.377  0.4409  0.4062  1.1528
18028SOL     OW54661   4.783   7.632   3.127  0.1759 -0.4258 -0.5581
18028SOL    HW154662   4.876   7.650   3.141 -0.2422  2.1106 -0.6008
18028SOL    HW254663   4.738   7.688   3.190 -1.3630 -0.9992 -1.0972
18029SOL     OW54664   5.715   3.595   3.533  0.0931  0.2656  0.1157
18029SOL    HW154665   5.778   3.625   3.598  0.8636 -1.5989  0.2878
18029SOL    HW254666   5.630   3.626   3.566  0.6295  0.5596  1.2697
18030SOL     OW54667   4.273   8.588   0.903  0.1039  0.0339 -0.7774
18030SOL    HW154668   4.211   8.647   0.947  1.1718  1.4949 -1.1497
18030SOL    HW254669   4.256   8.601   0.810  2.0021  1.7151 -0.9587
18031SOL     OW54670   4.006   1.846   7.638 -0.1203  0.0175  0.0122
18031SOL    HW154671   4.005   1.804   7.552 -0.4289  0.2482 -0.0995
18031SOL    HW254672   4.085   1.900   7.637  0.3415 -0.6498  0.2031
18032SOL     OW54673   6.120   0.808   5.449  0.0538 -0.6693 -0.0595
18032SOL    HW154674   6.048   0.776   5.394 -0.7256  1.0167 -0.1111
18032SOL    HW254675   6.086   0.802   5.539  1.1928 -3.0910  0.2676
18033SOL     OW54676   0.205   4.892   7.669 -0.5203 -0.2909  0.3815
18033SOL    HW154677   0.294   4.923   7.654 -0.2062 -1.2342  0.2251
18033SOL    HW254678   0.191   4.824   7.604 -1.0031 -0.8261  1.0229
18034SOL     OW54679   0.643   5.961   9.776 -0.4349 -0.1564  0.3312
18034SOL    HW154680   0.651   6.056   9.767  1.3954 -0.2504  0.5803
18034SOL    HW254681   0.711   5.925   9.719  0.5634 -1.2231  2.0948
18035SOL     OW54682   0.429   7.605   0.308 -0.2752  0.2319  0.4015
18035SOL    HW154683   0.363   7.635   0.246  0.2415  0.1941 -0.1792
18035SOL    HW254684   0.400   7.517   0.334 -1.0213  0.6458  0.9897
18036SOL     OW54685   5.731   8.902  -0.019  0.0514  0.4635 -0.4363
18036SOL    HW154686   5.814   8.867  -0.053 -0.2795 -0.4706 -0.3106
18036SOL    HW254687   5.746   8.910   0.075  0.0527  0.4291 -0.4334
18037SOL     OW54688   5.020   0.165   4.052  0.0424 -0.7148  0.4574
18037SOL    HW154689   5.104   0.123   4.035  0.2861 -0.2886  0.5859
18037SOL    HW254690   4.988   0.124   4.132 -0.2867 -1.4939 -0.0677
18038SOL     OW54691   7.450   0.229   9.217 -0.0245  0.3229  0.0352
18038SOL    HW154692   7.499   0.310   9.234  0.2869  0.4876 -1.5387
18038SOL    HW254693   7.482   0.199   9.133 -0.7885 -0.9793  0.1852
18039SOL     OW54694   7.779   9.453   5.737  0.4280  0.3507  0.5215
18039SOL    HW154695   7.832   9.376   5.758 -1.2517 -1.2691 -0.8821
18039SOL    HW254696   7.815   9.485   5.654 -0.8178 -0.8626 -0.5307
18040SOL     OW54697   4.713   1.972   7.547 -0.4574  0.7193 -0.4798
18040SOL    HW154698   4.778   1.923   7.596 -3.8999 -2.3685  1.4558
18040SOL    HW254699   4.693   2.048   7.602 -0.7118 -0.0302  0.4883
18041SOL     OW54700   5.450   2.395   1.435 -0.0498 -0.7568 -0.2037
18041SOL    HW154701   5.504   2.359   1.505  1.1304  2.9822  1.0309
18041SOL    HW254702   5.511   2.412   1.364 -0.8904 -2.6264 -1.4423
18042SOL     OW54703   5.291   4.264   3.129 -0.2207  0.3794 -0.1012
18042SOL    HW154704   5.250   4.284   3.214 -0.9334  1.2809 -0.6382
18042SOL    HW254705   5.293   4.348   3.083  1.0288  0.0814 -0.6238
18043SOL     OW54706   5.835   9.694   4.731  0.0214  0.2882 -0.0610
18043SOL    HW154707   5.802   9.676   4.819  1.3193  0.6166  0.5152
18043SOL    HW254708   5.919   9.738   4.746 -1.0124  2.9526 -1.3970
18044SOL     OW54709   6.134   7.835   3.950  0.3843 -0.1398 -0.3010
18044SOL    HW154710   6.101   7.755   3.990 -0.3278  0.2990  0.0291
18044SOL    HW254711   6.136   7.898   4.022 -1.2526  0.7663 -0.9758
18045SOL     OW54712   5.986   0.094   1.114 -0.1412 -0.1934  0.2669
18045SOL    HW154713   6.002   0.173   1.167  0.9253  0.4136 -0.9257
18045SOL    HW254714   5.954   0.127   1.031  0.8751 -0.9799 -0.4550
18046SOL     OW54715   4.731   1.033   0.167 -0.1203  0.5389  0.3234
18046SOL    HW154716   4.662   0.988   0.119  0.2668 -0.4635  0.6639
18046SOL    HW254717   4.785   1.074   0.099 -0.1170 -0.0673 -0.0473
18047SOL     OW54718   0.069   2.847   7.612 -0.1795  0.7025  0.0364
18047SOL    HW154719   0.038   2.779   7.552 -1.5951  0.8485  0.5456
18047SOL    HW254720   0.051   2.812   7.699  0.5600  1.0690  0.3430
18048SOL     OW54721   9.348   2.085   1.405  0.2631 -0.1625  0.1066
18048SOL    HW154722   9.278   2.149   1.389  0.7643  0.3555 -0.0205
18048SOL    HW254723   9.367   2.094   1.498 -2.0229 -2.5392  0.9498
18049SOL     OW54724   8.895   1.484   0.216 -0.1685 -0.1277  0.1745
18049SOL    HW154725   8.848   1.522   0.290  1.5386  0.3974  1.0587
18049SOL    HW254726   8.888   1.390   0.229 -0.5870 -0.0497  0.5475
18050SOL     OW54727   5.576   4.794   8.443  0.3829 -0.2437 -0.4748
18050SOL    HW154728   5.512   4.723   8.441 -0.7930  0.8066 -1.6063
18050SOL    HW254729   5.634   4.776   8.369  0.1552 -0.0858 -0.6916
18051SOL     OW54730   4.378   9.183   4.320 -0.4207  0.7103 -0.0012
18051SOL    HW154731   4.390   9.237   4.398  0.4106 -0.7442  0.9178
18051SOL    HW254732   4.344   9.100   4.353  0.0745  0.0238 -1.1700
18052SOL     OW54733   0.969   0.711   3.425  0.5218  0.4694  0.2857
18052SOL    HW154734   1.052   0.723   3.472  0.1586  1.4656  0.6932
18052SOL    HW254735   0.930   0.798   3.423  0.4722  0.4626 -1.8039
18053SOL     OW54736   9.170   8.924   8.520 -0.9669 -0.0312 -0.0105
18053SOL    HW154737   9.159   8.830   8.506 -1.2743 -0.0766  0.5269
18053SOL    HW254738   9.156   8.963   8.433 -1.7777 -0.4007 -0.0538
18054SOL     OW54739   5.560   6.317   8.171 -0.0504  0.3589 -0.1303
18054SOL    HW154740   5.465   6.320   8.160 -0.0432  0.9465 -0.0907
18054SOL    HW254741   5.574   6.341   8.263  0.1773  1.2476 -0.3845
18055SOL     OW54742   6.368   7.282   7.743  0.0362  0.2278 -0.1110
18055SOL    HW154743   6.332   7.357   7.696 -0.6173 -0.0739 -0.1034
18055SOL    HW254744   6.293   7.244   7.788 -0.0848 -1.6505 -1.7645
18056SOL     OW54745   1.765   7.924   0.429  0.1460  0.1399 -0.2491
18056SOL    HW154746   1.788   7.932   0.336  0.9709 -0.0325 -0.0620
18056SOL    HW254747   1.824   7.858   0.463 -1.7217 -1.5483 -0.1102
18057SOL     OW54748   4.069   8.249   5.291 -0.1633 -0.1246  0.2481
18057SOL    HW154749   4.149   8.230   5.243 -0.1650  1.4427 -0.4579
18057SOL    HW254750   4.062   8.179   5.355  0.7228 -1.3589 -0.9556
18058SOL     OW54751   6.683   7.254   6.714 -0.3605 -0.2701 -0.9382
18058SOL    HW154752   6.745   7.288   6.779  1.2715  2.0906 -3.4773
18058SOL    HW254753   6.672   7.162   6.737 -0.0063  0.4462  2.6776
18059SOL     OW54754   1.097   7.257   4.782  0.1338  0.1424 -0.2473
18059SOL    HW154755   1.045   7.254   4.863 -0.7086  0.8598 -0.7488
18059SOL    HW254756   1.179   7.300   4.808  0.3660 -0.7164  0.4808
18060SOL     OW54757   5.171   2.002   8.665  0.1040 -0.0527 -0.5958
18060SOL    HW154758   5.126   1.944   8.604  0.7777 -0.3216 -0.8523
18060SOL    HW254759   5.208   2.071   8.609  0.3031 -0.0245 -0.4306
18061SOL     OW54760   8.408   1.648   4.532 -0.1840 -0.4793  0.6301
18061SOL    HW154761   8.326   1.667   4.578 -0.9876  0.0246 -0.9655
18061SOL    HW254762   8.442   1.734   4.508  0.5036 -0.7159  0.7493
18062SOL     OW54763   6.050   5.105   3.124  0.4896 -0.0569 -0.8467
18062SOL    HW154764   5.961   5.083   3.152  1.0326  1.0018  2.0015
18062SOL    HW254765   6.038   5.179   3.064 -0.4856  2.3344  2.0747
18063SOL     OW54766   2.017   3.239   2.000 -0.3026  0.4555  0.7115
18063SOL    HW154767   2.047   3.148   1.994 -1.6958 -0.0448  0.8532
18063SOL    HW254768   1.988   3.249   2.091 -0.6895  0.8606  0.5461
18064SOL     OW54769   0.516   4.574   9.078  0.2652  0.1183 -0.6409
18064SOL    HW154770   0.587   4.510   9.075 -0.6071 -0.8344 -1.7786
18064SOL    HW254771   0.448   4.538   9.020 -1.1737  0.9586  0.4415
18065SOL     OW54772   0.082   5.181   3.239  0.0450 -0.0798  0.6476
18065SOL    HW154773  -0.008   5.158   3.217  0.5751 -0.5169 -1.2979
18065SOL    HW254774   0.105   5.122   3.312 -2.2293  2.3450  3.5501
18066SOL     OW54775   2.528   5.194   9.342 -0.6377 -0.2911 -0.3044
18066SOL    HW154776   2.538   5.179   9.437  0.0665 -1.0235 -0.4741
18066SOL    HW254777   2.441   5.231   9.332 -0.5050  0.3229  0.6925
18067SOL     OW54778   9.466   0.459   3.803 -0.1369  0.3125  0.1154
18067SOL    HW154779   9.486   0.553   3.807  3.8259 -0.3376 -0.9628
18067SOL    HW254780   9.446   0.435   3.894 -1.7691  2.2130  0.3337
18068SOL     OW54781   0.115   9.568   0.527 -0.0513  0.4606 -0.6674
18068SOL    HW154782   0.168   9.642   0.556  0.1835 -0.3650  1.1907
18068SOL    HW254783   0.058   9.604   0.460  0.3828  2.2085 -0.1511
18069SOL     OW54784   1.230   7.329   6.204 -0.4929 -0.4692 -0.2530
18069SOL    HW154785   1.324   7.316   6.219 -0.3818  0.5762  0.0615
18069SOL    HW254786   1.187   7.272   6.267 -0.0402  0.4196  0.9027
18070SOL     OW54787   0.487   1.052   4.230 -0.1354  0.0061 -0.1553
18070SOL    HW154788   0.500   1.140   4.197 -0.3804  0.5551  1.1585
18070SOL    HW254789   0.418   1.015   4.175  1.4492 -0.1841 -2.1426
18071SOL     OW54790   0.179   3.936   9.565  0.3826  0.2349  0.2754
18071SOL    HW154791   0.091   3.938   9.603  0.8951 -0.6843  1.5590
18071SOL    HW254792   0.166   3.965   9.474 -0.8174  2.7509  1.1671
18072SOL     OW54793   7.369   0.141   7.345 -0.3816  0.0368 -0.3541
18072SOL    HW154794   7.461   0.143   7.372 -0.2576  0.4651 -0.7955
18072SOL    HW254795   7.368   0.079   7.271 -0.7958 -1.4834  0.8751
18073SOL     OW54796   6.522   6.709   0.205  0.1286  0.0253  0.2147
18073SOL    HW154797   6.562   6.697   0.291  0.9503  1.6414  0.0833
18073SOL    HW254798   6.594   6.732   0.147 -0.6434  0.6280 -0.5423
18074SOL     OW54799   0.227   5.988   1.498  0.0720 -0.0414 -0.4352
18074SOL    HW154800   0.260   5.940   1.575  1.8105  0.5532 -0.7798
18074SOL    HW254801   0.237   6.080   1.521  4.4832  0.3075 -2.7772
18075SOL     OW54802   2.320   8.164   0.074  0.1375 -0.4219 -0.5607
18075SOL    HW154803   2.290   8.073   0.073  0.1610 -0.4305 -1.1523
18075SOL    HW254804   2.323   8.188   0.166 -0.0399 -0.9666 -0.4108
18076SOL     OW54805   7.390   7.962   4.558 -0.4941 -0.0706  0.4644
18076SOL    HW154806   7.478   7.971   4.521  0.8496 -0.5288  3.3084
18076SOL    HW254807   7.392   7.879   4.605 -2.9908 -0.8299 -0.5797
18077SOL     OW54808   6.617   6.529   1.916  0.3259 -0.1192  0.3917
18077SOL    HW154809   6.645   6.578   1.838  0.2885 -0.7873 -0.0498
18077SOL    HW254810   6.562   6.590   1.965 -0.3013  0.0589 -0.5078
18078SOL     OW54811   2.630   4.410   4.679  0.4071 -0.1033 -0.2616
18078SOL    HW154812   2.647   4.367   4.595 -1.5653  0.7822 -1.1787
18078SOL    HW254813   2.684   4.489   4.676  1.0334 -0.5230 -0.2868
18079SOL     OW54814   2.249   1.473   6.247 -1.1587 -0.1969  0.4098
18079SOL    HW154815   2.197   1.437   6.319 -1.4925  0.2557  0.4068
18079SOL    HW254816   2.312   1.405   6.225 -1.1234 -0.3777  1.0627
18080SOL     OW54817   3.818   2.157   2.934 -0.8499 -0.0056  0.0785
18080SOL    HW154818   3.828   2.104   2.855  0.5661 -0.4668  0.5505
18080SOL    HW254819   3.733   2.200   2.923 -0.2663  0.6911 -2.1286
18081SOL     OW54820   3.422   2.247   5.340 -0.3006  0.1368  0.1357
18081SOL    HW154821   3.448   2.261   5.431 -2.1131 -0.6022  0.8347
18081SOL    HW254822   3.386   2.331   5.312  0.3867  0.4055  0.0431
18082SOL     OW54823   2.834   2.107   6.263 -0.4970  0.3368  0.2618
18082SOL    HW154824   2.739   2.100   6.269 -0.5100 -1.2733 -1.2422
18082SOL    HW254825   2.862   2.024   6.225  1.4094  1.2374 -0.4150
18083SOL     OW54826   5.434   7.002   5.168 -0.4442  0.0587  0.0183
18083SOL    HW154827   5.514   6.986   5.119 -1.5921  0.3708 -2.0993
18083SOL    HW254828   5.403   6.914   5.192 -0.0091 -0.1291 -0.0970
18084SOL     OW54829   2.633   8.148   1.406 -0.5820 -0.1154 -0.0302
18084SOL    HW154830   2.695   8.075   1.406 -0.2746  0.1145 -1.1734
18084SOL    HW254831   2.569   8.125   1.473 -0.3822 -1.3541 -0.2257
18085SOL     OW54832   9.035   3.306   0.558  0.2881  0.2652 -0.2441
18085SOL    HW154833   9.031   3.377   0.494 -0.6036  0.8056  0.3825
18085SOL    HW254834   9.092   3.339   0.627  1.4856 -0.4318 -0.8739
18086SOL     OW54835   5.318   7.638   3.374  0.0745  0.2240 -0.2455
18086SOL    HW154836   5.330   7.587   3.293 -1.4498 -1.6554  0.6197
18086SOL    HW254837   5.349   7.579   3.443  1.0015  1.6557  0.6158
18087SOL     OW54838   8.831   8.301   5.988  0.6012 -0.6921  0.1135
18087SOL    HW154839   8.838   8.214   6.028  1.0221 -0.4833  0.4970
18087SOL    HW254840   8.922   8.329   5.975  0.4800  0.1101  0.8988
18088SOL     OW54841   4.748   3.115   5.731 -0.4979 -0.0692 -0.0868
18088SOL    HW154842   4.735   3.206   5.758  0.1196 -0.2562  0.8920
18088SOL    HW254843   4.663   3.088   5.697 -0.6876  0.8755 -0.3881
18089SOL     OW54844   7.102   7.370   1.154  0.6692  0.4287  0.3139
18089SOL    HW154845   7.101   7.285   1.198 -1.0322 -0.1414 -0.7167
18089SOL    HW254846   7.048   7.427   1.210 -1.2440 -0.2163 -0.7553
18090SOL     OW54847   6.258   7.408   1.627 -0.1320  0.8144 -0.1512
18090SOL    HW154848   6.323   7.468   1.665  1.7298 -0.2268 -1.4967
18090SOL    HW254849   6.240   7.445   1.540 -0.0414  0.1836 -0.4413
18091SOL     OW54850   0.319   7.807   2.190 -0.0107  0.5067  0.7485
18091SOL    HW154851   0.242   7.812   2.133 -0.3927  1.9191  1.3393
18091SOL    HW254852   0.288   7.838   2.275  0.9104 -0.1458  1.3443
18092SOL     OW54853   2.701   4.372   7.132  0.2661  0.5161  0.0955
18092SOL    HW154854   2.788   4.334   7.118  0.0767  0.4319 -0.9444
18092SOL    HW254855   2.656   4.360   7.048 -2.2594 -3.2268  1.7181
18093SOL     OW54856   6.174   2.963   5.020 -0.2147 -0.0461  0.0013
18093SOL    HW154857   6.095   2.947   4.968 -0.8764  0.7049  0.7381
18093SOL    HW254858   6.173   2.895   5.087 -0.2659 -0.0022  0.0450
18094SOL     OW54859   0.460   7.657   0.616 -0.6856  0.0650 -0.4826
18094SOL    HW154860   0.472   7.729   0.678 -1.6719  0.3247 -0.5777
18094SOL    HW254861   0.517   7.678   0.542 -1.1656  0.9056 -0.6285
18095SOL     OW54862   6.918   7.775   1.196 -0.3646 -0.0669  0.0245
18095SOL    HW154863   6.823   7.775   1.183 -0.1428 -1.4951 -1.9866
18095SOL    HW254864   6.937   7.689   1.234  0.3639 -1.0593 -2.3688
18096SOL     OW54865   8.627   2.345   4.243 -0.0980  0.6348 -0.3661
18096SOL    HW154866   8.568   2.359   4.317  0.1906  2.7850 -0.4769
18096SOL    HW254867   8.672   2.429   4.232  0.9857 -0.1063 -2.0228
18097SOL     OW54868   4.275   0.303   4.882 -0.1301  0.2901  0.0452
18097SOL    HW154869   4.302   0.363   4.812 -1.4784  0.0063 -0.7644
18097SOL    HW254870   4.186   0.331   4.904 -0.0330 -0.1719  1.0619
18098SOL     OW54871   9.200   3.200   3.297 -0.1240 -0.3562 -0.4028
18098SOL    HW154872   9.146   3.231   3.224 -0.3377 -0.8414 -0.4558
18098SOL    HW254873   9.198   3.105   3.289 -0.8764 -0.4552  0.7618
18099SOL     OW54874   2.595   0.811   8.211 -0.0809  0.1096 -0.2307
18099SOL    HW154875   2.526   0.762   8.257 -0.1382  0.3958 -0.0097
18099SOL    HW254876   2.625   0.751   8.143  1.3563 -1.0934  1.3892
18100SOL     OW54877   2.703   5.965   7.383  0.5549 -0.1685 -0.4811
18100SOL    HW154878   2.701   5.881   7.337 -1.9191 -0.4951  0.1071
18100SOL    HW254879   2.643   6.021   7.334  1.3903  0.9644 -0.2666
18101SOL     OW54880   1.337   0.874   4.550 -0.4334 -0.5672 -0.3981
18101SOL    HW154881   1.279   0.892   4.476 -2.0909 -0.2381  0.9324
18101SOL    HW254882   1.414   0.929   4.534 -0.6215 -0.7159 -1.9925
18102SOL     OW54883   1.389   6.973   1.335 -0.1257  0.5955 -0.1597
18102SOL    HW154884   1.305   6.935   1.359  0.7221 -0.6609  1.0352
18102SOL    HW254885   1.377   7.067   1.342 -0.9702  0.3909  1.7462
18103SOL     OW54886   5.610   0.565   4.494 -0.6330 -0.2701  0.2871
18103SOL    HW154887   5.702   0.552   4.472 -0.2618  1.0613  0.9658
18103SOL    HW254888   5.576   0.621   4.424 -0.4799  0.6185  0.9006
18104SOL     OW54889   7.271   1.471   8.278  0.1059  0.8184 -0.7193
18104SOL    HW154890   7.292   1.432   8.362  0.0987  1.3085 -0.4862
18104SOL    HW254891   7.341   1.443   8.219 -0.3633 -0.2574 -0.7789
18105SOL     OW54892   2.707   7.692   8.538  0.0383  0.0459 -0.1511
18105SOL    HW154893   2.681   7.601   8.553  0.4326 -0.1791 -0.8127
18105SOL    HW254894   2.772   7.709   8.606 -0.5558  0.0699  0.4252
18106SOL     OW54895   9.209   4.357   3.419 -0.2073 -0.6092  0.2172
18106SOL    HW154896   9.138   4.366   3.356  0.5153  0.0177 -0.5295
18106SOL    HW254897   9.265   4.432   3.402  0.3327 -0.7716  1.1983
18107SOL     OW54898   5.596   7.253   9.921  0.1940  0.2492 -0.1620
18107SOL    HW154899   5.634   7.187   9.979  2.5517 -0.7315 -2.6092
18107SOL    HW254900   5.502   7.243   9.932  0.5181 -1.6904  1.5327
18108SOL     OW54901   9.026   4.067   6.886  0.2041 -0.7116  0.1291
18108SOL    HW154902   9.018   4.158   6.916  2.4788 -0.2830 -0.3918
18108SOL    HW254903   9.035   4.074   6.791  1.6337 -1.3681  0.2011
18109SOL     OW54904   4.305   7.879   6.379  0.3089 -0.4351  0.0059
18109SOL    HW154905   4.342   7.896   6.465 -1.2613  0.8210  0.4866
18109SOL    HW254906   4.292   7.966   6.341  1.8525 -0.9791 -1.9316
18110SOL     OW54907   6.766   2.150   6.297  0.5092 -0.1059  0.3446
18110SOL    HW154908   6.821   2.228   6.310  0.0258  0.0377  1.6920
18110SOL    HW254909   6.771   2.133   6.203 -0.0577  2.0711 -0.1406
18111SOL     OW54910   5.517   6.453   5.586 -0.0733  0.1060  0.0966
18111SOL    HW154911   5.453   6.409   5.642 -0.8267 -0.6123 -1.2673
18111SOL    HW254912   5.505   6.546   5.605 -1.4580 -0.0170 -0.0102
18112SOL     OW54913   8.053   3.981   9.321 -0.1280 -0.8549 -0.1516
18112SOL    HW154914   8.091   4.040   9.386 -0.7027 -0.4138 -0.2098
18112SOL    HW254915   7.996   3.923   9.372 -0.3277 -0.7195 -0.2209
18113SOL     OW54916   2.888   3.053   7.515 -0.1009 -0.4838  0.6144
18113SOL    HW154917   2.915   3.003   7.438 -0.1273 -1.1418  1.0173
18113SOL    HW254918   2.968   3.093   7.548 -0.6211  3.3054 -2.0964
18114SOL     OW54919   4.360   3.731   4.799  0.5968  0.0237 -0.5232
18114SOL    HW154920   4.456   3.725   4.805  0.5728 -0.5134 -0.6152
18114SOL    HW254921   4.344   3.810   4.749  0.9588  0.9411  0.7567
18115SOL     OW54922   6.382   1.556   0.732 -0.6663  0.1563 -0.6827
18115SOL    HW154923   6.460   1.522   0.777 -1.5224 -0.2516  0.5413
18115SOL    HW254924   6.406   1.556   0.639  1.0900  0.8461 -0.2644
18116SOL     OW54925   8.958   8.498   3.281 -0.4598 -0.4785  0.1071
18116SOL    HW154926   9.000   8.445   3.213 -0.5534 -0.5763  0.1239
18116SOL    HW254927   9.003   8.471   3.362  0.6527  0.6885 -0.0975
18117SOL     OW54928   0.677   2.879   4.084 -0.3547 -0.3760  0.4317
18117SOL    HW154929   0.711   2.877   4.173 -0.4216 -0.3130  0.4589
18117SOL    HW254930   0.747   2.920   4.033 -0.8285  0.7989  0.6835
18118SOL     OW54931   5.798   5.991   9.575  0.0647 -0.2314  0.2944
18118SOL    HW154932   5.827   6.075   9.540  1.8772 -1.3920 -1.1460
18118SOL    HW254933   5.864   5.967   9.640 -0.7100 -0.3495  1.0728
18119SOL     OW54934   2.297   6.492   4.813 -0.9946  0.0069  0.4937
18119SOL    HW154935   2.305   6.495   4.718 -0.1643  3.5921  0.5222
18119SOL    HW254936   2.386   6.479   4.845 -1.4805 -3.1168  0.9147
18120SOL     OW54937   2.996   7.358   4.589  0.2749 -0.1121 -0.1632
18120SOL    HW154938   3.087   7.358   4.620  0.0207  3.0512  0.9467
18120SOL    HW254939   2.990   7.434   4.532 -2.0602  0.8716  1.2569
18121SOL     OW54940   3.248   0.951   8.813 -0.9402  0.0279  0.0589
18121SOL    HW154941   3.179   0.932   8.876 -1.2239  0.4176 -0.1240
18121SOL    HW254942   3.262   0.869   8.766 -0.2701 -0.4393  1.0600
18122SOL     OW54943   1.068   9.095   1.525 -0.5398  0.8335  0.5682
18122SOL    HW154944   1.018   9.018   1.498  1.5630 -0.3868 -0.0947
18122SOL    HW254945   1.004   9.152   1.567 -2.1497 -1.3261  1.2055
18123SOL     OW54946   4.917   0.663   7.562  0.1135  0.1512 -0.1826
18123SOL    HW154947   5.004   0.622   7.564  0.4420  0.7942 -0.9076
18123SOL    HW254948   4.922   0.726   7.490 -0.9127  0.2968 -0.1335
18124SOL     OW54949   7.956   6.019   2.559  0.4836  0.0503 -0.5427
18124SOL    HW154950   7.947   6.098   2.506 -1.3283 -0.8744 -1.6984
18124SOL    HW254951   7.967   6.051   2.649 -1.1491  1.6118 -0.8629
18125SOL     OW54952   4.467   6.796   6.315  0.0059  0.0585 -0.3236
18125SOL    HW154953   4.429   6.714   6.284 -0.2544 -0.2145  0.6850
18125SOL    HW254954   4.510   6.833   6.238  1.9070 -2.0070 -0.3545
18126SOL     OW54955   0.176   7.405   8.955  0.6833  0.4249  0.3768
18126SOL    HW154956   0.184   7.478   9.016  0.7079  0.7203  0.0277
18126SOL    HW254957   0.201   7.443   8.870  0.8059 -0.0185  0.2158
18127SOL     OW54958   9.933   8.430   4.743 -0.1775  0.2128 -0.5857
18127SOL    HW154959   9.956   8.341   4.716  0.0627 -0.3993  1.4451
18127SOL    HW254960  10.007   8.459   4.796 -1.5068  0.4439  1.2435
18128SOL     OW54961   8.585   9.484   4.987  0.4940  0.8998 -0.2332
18128SOL    HW154962   8.610   9.542   4.915  3.3407  1.1084  0.8077
18128SOL    HW254963   8.665   9.436   5.008 -0.1311  1.0971  3.0446
18129SOL     OW54964   6.076   3.886   2.234 -0.6064  0.0279  0.5418
18129SOL    HW154965   6.118   3.888   2.320 -1.8796 -1.4952  1.2544
18129SOL    HW254966   6.030   3.969   2.228  1.4056  1.1821  0.2785
18130SOL     OW54967   7.169   4.434   2.984 -0.0509 -0.1550  0.7588
18130SOL    HW154968   7.086   4.402   2.947  0.1396 -0.3309  0.4822
18130SOL    HW254969   7.236   4.392   2.931  0.2145  0.1627  0.8440
18131SOL     OW54970   1.728   5.107   9.444 -0.3593 -0.1298  0.5481
18131SOL    HW154971   1.728   5.096   9.349  0.7563 -0.6941  0.5988
18131SOL    HW254972   1.650   5.060   9.474 -0.9167  0.3615 -0.1120
18132SOL     OW54973   7.717   4.119   2.049 -0.0568 -0.1718 -0.6702
18132SOL    HW154974   7.766   4.038   2.033 -1.8182 -1.7971  1.4578
18132SOL    HW254975   7.762   4.162   2.121  0.0940  0.0245 -0.8817
18133SOL     OW54976   7.526   5.992   5.021 -0.2900  0.6672  0.3602
18133SOL    HW154977   7.528   6.086   5.041 -1.1313  0.7471  0.1417
18133SOL    HW254978   7.561   5.985   4.932  0.7803  0.6436  0.7760
18134SOL     OW54979   0.223   8.937   2.096  0.3894 -0.1365  0.5185
18134SOL    HW154980   0.302   8.892   2.127  0.5263 -0.5620 -0.4219
18134SOL    HW254981   0.229   9.024   2.135  2.5014  0.6283 -1.3302
18135SOL     OW54982   1.575   6.602   0.840  0.8479 -0.3609  0.0563
18135SOL    HW154983   1.594   6.672   0.903  2.2657 -0.8872  0.2344
18135SOL    HW254984   1.480   6.609   0.826  0.9322  1.5562  0.1054
18136SOL     OW54985   3.904   8.063   3.836  0.0526 -0.0028  0.6204
18136SOL    HW154986   3.992   8.029   3.819 -0.1094  0.1109 -0.5183
18136SOL    HW254987   3.846   8.010   3.781 -0.4392  0.7498  0.3939
18137SOL     OW54988   5.093   8.735   5.624  0.5499  0.0977 -0.5088
18137SOL    HW154989   5.138   8.673   5.682  0.0912 -0.2613 -0.5297
18137SOL    HW254990   5.164   8.778   5.576  0.9120  0.0652 -0.0218
18138SOL     OW54991   4.938   5.530   7.877  0.0883 -0.2827  0.9582
18138SOL    HW154992   4.850   5.510   7.910  0.3813 -1.9852  0.8270
18138SOL    HW254993   4.996   5.501   7.947  0.5487  2.3438  1.7517
18139SOL     OW54994   9.302   0.887   6.021  1.0086  0.2610  0.0924
18139SOL    HW154995   9.330   0.807   5.976 -1.0293 -0.7065  0.4109
18139SOL    HW254996   9.320   0.871   6.114 -1.0423 -0.6712  0.3938
18140SOL     OW54997   9.533   9.800   4.075  0.1575  0.1563  0.1680
18140SOL    HW154998   9.593   9.736   4.036  0.6410  0.4882  0.3609
18140SOL    HW254999   9.517   9.766   4.164 -0.6766 -0.4205 -0.1902
18141SOL     OW55000   0.134   6.213   3.602  0.1719  0.0737  0.2488
18141SOL    HW155001   0.174   6.178   3.522  0.4234  0.3602  0.2489
18141SOL    HW255002   0.041   6.191   3.594  0.0054  1.0501 -0.6353
18142SOL     OW55003   3.158  -0.012   5.167  0.2054 -0.4322 -0.3046
18142SOL    HW155004   3.178   0.046   5.093 -0.2833 -0.2662 -0.3141
18142SOL    HW255005   3.104   0.043   5.225 -1.0643 -1.1496 -0.7557
18143SOL     OW55006   2.451   7.311   0.230  0.1430  0.3074 -0.3039
18143SOL    HW155007   2.427   7.338   0.142  0.7521  0.1070 -0.5372
18143SOL    HW255008   2.529   7.362   0.250  0.0896  0.2480  0.0635
18144SOL     OW55009   8.284   2.718   5.624  0.5913 -0.1412 -0.4641
18144SOL    HW155010   8.249   2.801   5.592  2.6657 -0.0334 -2.7403
18144SOL    HW255011   8.317   2.738   5.711 -0.3358  1.0093 -0.3456
18145SOL     OW55012   5.928   4.878   6.670 -0.1398  0.1814  0.4980
18145SOL    HW155013   5.844   4.910   6.637 -0.1539 -0.8883 -0.5763
18145SOL    HW255014   5.926   4.896   6.764 -0.6680  2.1027  0.1564
18146SOL     OW55015   7.289   6.027   8.237 -0.4905 -0.0205  0.3707
18146SOL    HW155016   7.234   6.105   8.233  0.1391  0.5981  2.5560
18146SOL    HW255017   7.230   5.958   8.269 -0.1119  0.5917  2.5094
18147SOL     OW55018   1.643   0.105   8.432  0.2475  0.4772  0.0616
18147SOL    HW155019   1.597   0.169   8.486  1.2403  1.5111 -0.2816
18147SOL    HW255020   1.692   0.157   8.369 -0.3772 -0.6857 -1.4389
18148SOL     OW55021   9.362   3.063   4.954  0.1779 -0.0944  0.6156
18148SOL    HW155022   9.282   3.116   4.947  0.9751  1.0705  0.1099
18148SOL    HW255023   9.399   3.063   4.866  0.6074 -0.8577  0.7873
18149SOL     OW55024   2.820   7.176   1.707  0.6130  0.2170 -0.2000
18149SOL    HW155025   2.864   7.091   1.714  0.4498  0.0706 -0.8985
18149SOL    HW255026   2.773   7.172   1.624  1.5438  1.4188 -0.8276
18150SOL     OW55027   3.250   2.859   9.218 -0.4591 -0.3618  0.1172
18150SOL    HW155028   3.297   2.923   9.271  1.6397 -1.2691 -0.5393
18150SOL    HW255029   3.173   2.837   9.270  0.1696  0.7189  1.5723
18151SOL     OW55030   9.412   7.053   0.480  0.8635 -0.1166 -0.1905
18151SOL    HW155031   9.336   7.111   0.473  0.0957 -0.6610  2.3499
18151SOL    HW255032   9.488   7.109   0.464  0.1357  1.6207  2.0018
18152SOL     OW55033   6.774   8.161   3.853  0.5871 -0.2442 -0.4138
18152SOL    HW155034   6.790   8.128   3.764  1.2996 -3.3694  0.7410
18152SOL    HW255035   6.852   8.213   3.874  0.3065  0.7291 -1.6299
18153SOL     OW55036   0.409   5.555   3.427 -0.1159 -0.2049 -0.5239
18153SOL    HW155037   0.364   5.609   3.492  1.3865  0.6526 -0.1430
18153SOL    HW255038   0.417   5.469   3.468 -0.1434  0.0308 -0.0180
18154SOL     OW55039   6.065   1.493   0.200  0.2571 -0.0308 -0.2527
18154SOL    HW155040   6.073   1.588   0.200 -2.2899  0.2977 -3.0868
18154SOL    HW255041   6.139   1.463   0.148 -1.0667  0.7946 -2.7521
18155SOL     OW55042   5.679   7.941   1.146 -0.2038 -0.3022  0.3938
18155SOL    HW155043   5.737   7.931   1.071  0.9447  1.3182  1.0161
18155SOL    HW255044   5.727   7.997   1.207 -1.4305 -0.9193  2.0093
18156SOL     OW55045   4.229   6.270   1.176 -0.2561 -0.0495  0.7824
18156SOL    HW155046   4.143   6.280   1.217 -1.1756 -2.2581 -0.4584
18156SOL    HW255047   4.210   6.259   1.083  1.3625 -0.8084  0.5131
18157SOL     OW55048   9.573   1.753   9.516  0.4937  0.0503  0.5781
18157SOL    HW155049   9.490   1.801   9.516 -0.3346 -1.3081  0.2539
18157SOL    HW255050   9.631   1.805   9.460 -1.0342 -0.3327 -1.5124
18158SOL     OW55051   0.619   1.427   1.380  0.2038 -0.2364 -0.1713
18158SOL    HW155052   0.640   1.369   1.453  0.6251 -0.6116 -0.5846
18158SOL    HW255053   0.532   1.461   1.401 -0.4638 -1.7459 -0.3558
18159SOL     OW55054   4.612   2.356   2.019  0.0034 -0.2946  0.6009
18159SOL    HW155055   4.562   2.402   2.086  1.2593 -0.4320  1.6724
18159SOL    HW255056   4.672   2.422   1.985  0.4753 -0.6361  0.7607
18160SOL     OW55057   7.121   3.813   2.404  0.0622 -0.0220 -0.6181
18160SOL    HW155058   7.046   3.836   2.349  0.4361 -0.1675 -1.1961
18160SOL    HW255059   7.125   3.883   2.469  0.8159  1.2508 -1.9711
18161SOL     OW55060   1.926   2.475   7.755 -0.2232  0.2581 -0.4926
18161SOL    HW155061   1.861   2.530   7.711  1.2227  1.3202 -1.3605
18161SOL    HW255062   2.009   2.520   7.741  0.5944 -0.5840  1.4045
18162SOL     OW55063   3.850   3.294   3.247  0.6411 -0.8517 -0.3928
18162SOL    HW155064   3.763   3.278   3.210  0.0134 -0.8376  0.9976
18162SOL    HW255065   3.866   3.387   3.229 -0.2959 -0.4708  0.5917
18163SOL     OW55066   2.175   2.129   3.865 -0.4432  0.0294 -0.1744
18163SOL    HW155067   2.113   2.152   3.934  0.9174 -0.3646  1.2575
18163SOL    HW255068   2.147   2.179   3.789 -1.4061  1.2942  0.9664
18164SOL     OW55069   7.529   7.344   8.907  0.0543 -0.1789  0.0220
18164SOL    HW155070   7.443   7.372   8.938  0.6598  0.5184  1.1409
18164SOL    HW255071   7.554   7.409   8.841  0.7461  1.0861  1.4456
18165SOL     OW55072   4.063   6.110   5.501 -0.1449  0.0568  0.1307
18165SOL    HW155073   4.061   6.034   5.558 -1.7465 -0.6895 -0.8402
18165SOL    HW255074   4.153   6.113   5.468  0.5133 -0.1265  1.8000
18166SOL     OW55075   4.152   4.483   5.268 -0.3500  0.5350  0.4501
18166SOL    HW155076   4.229   4.480   5.325 -0.3048  1.1327  0.4318
18166SOL    HW255077   4.078   4.492   5.327 -0.5178 -1.1399  0.5277
18167SOL     OW55078   2.742   6.528   8.077 -0.4667  0.1946  0.1207
18167SOL    HW155079   2.798   6.479   8.137 -0.3750 -0.1259 -0.2292
18167SOL    HW255080   2.802   6.588   8.032 -0.3454 -0.3783 -0.4936
18168SOL     OW55081   0.810   5.289   8.957 -0.0871 -0.2109  0.3417
18168SOL    HW155082   0.778   5.312   8.870  1.9043 -0.7945 -0.6058
18168SOL    HW255083   0.756   5.340   9.017 -0.5134  1.3526 -1.2961
18169SOL     OW55084   2.369   1.944   7.781  0.3934  0.1562 -0.3487
18169SOL    HW155085   2.459   1.914   7.767  0.5730 -0.3115  1.5443
18169SOL    HW255086   2.320   1.864   7.797 -0.2700  0.4634 -0.8113
18170SOL     OW55087   5.768   0.916   5.983  1.1194  0.2617 -0.1079
18170SOL    HW155088   5.796   0.983   6.046  1.3863  0.9820 -0.9702
18170SOL    HW255089   5.711   0.858   6.034  2.3383  0.0787  1.1208
18171SOL     OW55090   7.006   5.602   5.497  0.0528  0.0033 -0.4295
18171SOL    HW155091   6.973   5.536   5.558  0.4381  0.5474  0.3752
18171SOL    HW255092   6.972   5.574   5.411 -0.2709 -0.9100 -0.0139
18172SOL     OW55093   0.586   2.881   6.210  0.1991 -0.1558  0.1002
18172SOL    HW155094   0.528   2.827   6.157  0.6444 -0.1949 -0.3571
18172SOL    HW255095   0.533   2.907   6.285 -0.1658 -0.8224  0.0790
18173SOL     OW55096   3.335   7.144   4.569  0.3000 -0.3266 -0.0945
18173SOL    HW155097   3.328   7.051   4.548 -0.1393 -0.0544 -1.2078
18173SOL    HW255098   3.408   7.175   4.514  0.1469  0.0748 -0.0726
18174SOL     OW55099   0.226   2.647   2.348  0.4961  0.0485 -0.0383
18174SOL    HW155100   0.265   2.673   2.265  0.3799  0.4348  0.0273
18174SOL    HW255101   0.135   2.678   2.343  0.0505 -1.2159 -0.3670
18175SOL     OW55102   6.833   9.705   4.151 -0.2562 -0.0891  0.1393
18175SOL    HW155103   6.902   9.648   4.185 -0.6185 -0.4896  0.2170
18175SOL    HW255104   6.833   9.688   4.056 -0.5873 -0.4776  0.2040
18176SOL     OW55105   9.609   1.737   1.248  0.3799  0.3012 -0.2332
18176SOL    HW155106   9.548   1.804   1.217 -0.2900  0.5049  1.4438
18176SOL    HW255107   9.695   1.777   1.239  0.4657 -0.3464 -3.5696
18177SOL     OW55108   4.096   6.701   9.888 -0.1145 -0.1438  0.2960
18177SOL    HW155109   4.005   6.718   9.867  0.0789 -1.7546 -2.3984
18177SOL    HW255110   4.119   6.765   9.955 -3.0770  0.5480  0.7515
18178SOL     OW55111   9.178   2.981   3.064  0.4045  0.1533 -0.4344
18178SOL    HW155112   9.247   3.046   3.072  0.4849  0.1862 -1.3194
18178SOL    HW255113   9.206   2.909   3.121 -0.8062  1.7769  2.4031
18179SOL     OW55114   1.187   8.025   1.227 -0.1064  0.2651  0.2476
18179SOL    HW155115   1.183   7.993   1.317  1.0667  1.1010  0.6265
18179SOL    HW255116   1.151   8.113   1.232 -1.2488 -0.1531 -0.3636
18180SOL     OW55117   2.742   8.620   0.367 -0.1615 -0.0089 -0.0752
18180SOL    HW155118   2.791   8.701   0.355 -1.8592  1.6324  2.8360
18180SOL    HW255119   2.807   8.556   0.397  1.0902  0.3752 -1.8143
18181SOL     OW55120   7.258   4.707   9.230 -0.6284 -0.5628 -0.1853
18181SOL    HW155121   7.272   4.786   9.178  0.5784  0.0628  1.0244
18181SOL    HW255122   7.252   4.636   9.166  0.3931  0.2248 -1.1855
18182SOL     OW55123   9.574   9.492   5.269 -0.4498 -0.6070  0.0974
18182SOL    HW155124   9.592   9.404   5.234  1.5993  1.1366 -3.9390
18182SOL    HW255125   9.492   9.517   5.227 -0.0546  0.0682 -0.2831
18183SOL     OW55126   6.845   0.396   1.256  0.2184  0.1364  0.3970
18183SOL    HW155127   6.765   0.346   1.237  1.5526 -1.6111 -0.8675
18183SOL    HW255128   6.892   0.343   1.320  1.8151 -0.4314 -1.2015
18184SOL     OW55129   8.758   0.777   3.540 -0.2215  0.2694 -0.0760
18184SOL    HW155130   8.792   0.687   3.537 -0.8691  0.0604 -2.4762
18184SOL    HW255131   8.663   0.767   3.532 -0.2087  1.1894 -1.7542
18185SOL     OW55132   2.481   8.809   7.436 -0.1072  0.0505  0.7571
18185SOL    HW155133   2.508   8.861   7.361  3.0156 -0.9654  1.0107
18185SOL    HW255134   2.465   8.874   7.505 -0.8658  0.8752 -0.1631
18186SOL     OW55135   9.261   5.877   5.541 -0.4186 -0.8115 -0.1382
18186SOL    HW155136   9.216   5.840   5.617 -0.3498 -0.6718 -0.0298
18186SOL    HW255137   9.354   5.858   5.556 -0.0907  1.3368  1.0306
18187SOL     OW55138   1.015   0.622   5.505  0.0315 -0.6560 -0.6932
18187SOL    HW155139   0.974   0.543   5.539 -0.5025 -0.1967 -0.2504
18187SOL    HW255140   0.951   0.659   5.444 -1.3254  1.3017  1.6892
18188SOL     OW55141   4.020   3.376   9.204  0.0069  0.5349 -0.2153
18188SOL    HW155142   4.012   3.288   9.167  3.0027  0.2195 -0.3571
18188SOL    HW255143   4.054   3.429   9.132  2.5286  0.7108  0.9860
18189SOL     OW55144   4.876   6.714   1.524  0.1954  0.5070 -0.2665
18189SOL    HW155145   4.884   6.650   1.453 -2.3660 -0.5554  0.2784
18189SOL    HW255146   4.869   6.661   1.603  1.2984  1.6287  0.6381
18190SOL     OW55147   0.222   2.617   1.830 -0.8567 -0.4563 -0.1315
18190SOL    HW155148   0.188   2.686   1.887 -2.1235 -0.8387 -0.3891
18190SOL    HW255149   0.144   2.580   1.789 -0.3816 -2.9111  0.9726
18191SOL     OW55150   3.290   7.418   9.822 -0.5113 -0.0715  0.0270
18191SOL    HW155151   3.351   7.369   9.767  0.8591 -0.6311  1.9109
18191SOL    HW255152   3.226   7.353   9.851  0.4479 -0.4723  1.3414
18192SOL     OW55153   4.057   9.223   8.785 -0.0966  0.8150 -0.4733
18192SOL    HW155154   4.043   9.176   8.867 -0.8246  1.6135 -0.1205
18192SOL    HW255155   3.993   9.294   8.787  1.8247  2.6150 -0.3831
18193SOL     OW55156   7.839   8.837   5.252 -0.1642 -0.0270 -0.3754
18193SOL    HW155157   7.839   8.929   5.227 -0.7843 -0.1054 -0.6900
18193SOL    HW255158   7.751   8.821   5.286 -0.0261 -0.4766 -0.2256
18194SOL     OW55159   7.929   2.621   5.822 -0.1317 -0.2147 -0.0511
18194SOL    HW155160   7.844   2.577   5.829 -0.7812  0.9394 -0.2473
18194SOL    HW255161   7.944   2.657   5.910  0.9753 -1.7893  0.4460
18195SOL     OW55162   0.034   2.974   9.692  0.4703 -0.0095  0.3566
18195SOL    HW155163   0.040   3.025   9.612  1.8826 -0.3791  0.1897
18195SOL    HW255164   0.093   2.899   9.678  2.4125  0.9817  2.4575
18196SOL     OW55165   2.205   5.888   1.737 -0.0914 -0.2518  0.4451
18196SOL    HW155166   2.143   5.825   1.774 -1.0954  0.5406  0.1805
18196SOL    HW255167   2.291   5.848   1.748 -0.7762 -2.1671 -0.6972
18197SOL     OW55168   5.836   4.349   6.253 -0.2576  0.1056  0.2313
18197SOL    HW155169   5.762   4.295   6.225 -0.7112  1.1976 -0.7220
18197SOL    HW255170   5.804   4.397   6.329 -0.7394  0.9868 -0.5039
18198SOL     OW55171   1.713   2.226   3.612  0.6565  0.3450 -0.3878
18198SOL    HW155172   1.653   2.178   3.555  0.8023  1.1111 -1.2247
18198SOL    HW255173   1.800   2.201   3.580  0.7317  1.4850 -1.1433
18199SOL     OW55174   1.515   9.302   1.477 -0.2756  0.4417 -0.3607
18199SOL    HW155175   1.429   9.343   1.469  0.1429  1.1646 -1.4027
18199SOL    HW255176   1.575   9.364   1.434  0.7163 -0.1972  0.0672
18200SOL     OW55177   7.989   7.819   9.639 -0.7724  0.3644 -0.1750
18200SOL    HW155178   8.010   7.888   9.702 -0.9280  0.8476 -0.6414
18200SOL    HW255179   8.073   7.779   9.618 -0.4570  1.4163 -1.0352
18201SOL     OW55180   1.322   4.748   2.625  0.1431 -0.1380 -0.0393
18201SOL    HW155181   1.303   4.679   2.562 -1.7909 -0.6249  1.0173
18201SOL    HW255182   1.384   4.708   2.687 -1.0778 -1.0258  0.6517
18202SOL     OW55183   0.492   4.158   0.627  0.5751  0.3017  0.4004
18202SOL    HW155184   0.420   4.219   0.612 -1.0532 -1.4900  0.5881
18202SOL    HW255185   0.459   4.074   0.597  2.7829 -0.5077  0.0706
18203SOL     OW55186   0.499   5.316   8.534 -0.4386 -0.1317 -0.5524
18203SOL    HW155187   0.514   5.373   8.459  2.6507  0.6083  0.4365
18203SOL    HW255188   0.527   5.229   8.504 -2.7353 -0.6656 -1.2953
18204SOL     OW55189   0.679   1.768   4.787 -0.6285 -0.0950 -0.2870
18204SOL    HW155190   0.740   1.798   4.854 -1.0310  1.1173 -0.4374
18204SOL    HW255191   0.642   1.687   4.823 -0.7054  0.4369  0.8829
18205SOL     OW55192   7.808   9.237   5.366 -0.0903  0.1301  0.5593
18205SOL    HW155193   7.844   9.309   5.417  0.3661  0.6581 -0.4843
18205SOL    HW255194   7.815   9.160   5.424 -1.4153  1.0453  2.0350
18206SOL     OW55195   9.854   1.344   7.359  0.4076  0.3582  0.1090
18206SOL    HW155196   9.921   1.394   7.405 -0.1457  0.4005  0.8820
18206SOL    HW255197   9.771   1.377   7.394  0.0247 -0.8242  0.3435
18207SOL     OW55198   6.695   1.590   8.525  0.1716  0.0490 -0.2791
18207SOL    HW155199   6.790   1.603   8.531  0.1021  0.0221  1.3139
18207SOL    HW255200   6.684   1.509   8.476  0.9785 -0.1090 -0.2013
18208SOL     OW55201   6.337   6.107   9.753  0.3077  0.3088 -0.1447
18208SOL    HW155202   6.380   6.099   9.838  0.8071  1.4093 -0.2739
18208SOL    HW255203   6.248   6.136   9.774  0.6522  1.3029 -0.0187
18209SOL     OW55204   0.933   2.581   9.294 -0.1607  0.1724  0.4128
18209SOL    HW155205   0.954   2.671   9.269 -0.1517  1.0515  3.2218
18209SOL    HW255206   1.011   2.530   9.269 -0.5533  0.6927 -2.0854
18210SOL     OW55207   4.830   1.721   7.662  0.0215 -0.0709 -0.2912
18210SOL    HW155208   4.744   1.743   7.698  0.6162  1.5130  0.2477
18210SOL    HW255209   4.885   1.705   7.739  0.3471 -0.5073 -0.6127
18211SOL     OW55210   0.689   4.634   3.777 -0.0395 -0.1167  0.3406
18211SOL    HW155211   0.609   4.611   3.730  0.5142 -1.8526  0.1736
18211SOL    HW255212   0.755   4.640   3.708  0.0766  0.8798  0.5280
18212SOL     OW55213   3.236   5.574   7.114 -0.1022 -0.2541 -0.3023
18212SOL    HW155214   3.317   5.624   7.103 -0.3122  0.5850  1.6780
18212SOL    HW255215   3.167   5.640   7.120 -0.8056 -0.9192 -0.8458
18213SOL     OW55216   5.565   3.061   1.948 -0.3040 -0.1426 -0.0707
18213SOL    HW155217   5.566   2.965   1.946  0.3439 -0.1485  0.3405
18213SOL    HW255218   5.504   3.085   1.879 -1.6174 -0.8815  0.7692
18214SOL     OW55219   6.225   3.117   1.196  0.4569 -0.1767  0.1360
18214SOL    HW155220   6.169   3.073   1.261  0.5458  0.0475  0.3650
18214SOL    HW255221   6.309   3.127   1.240  0.0635  1.4509  0.6070
18215SOL     OW55222   7.358   9.979   1.253 -0.3085  0.5548  0.9182
18215SOL    HW155223   7.310   9.968   1.335 -1.2847  1.2577  0.4610
18215SOL    HW255224   7.329   9.907   1.198  0.1148  0.2608  1.0747
18216SOL     OW55225   0.309   2.158   0.433 -0.0686  0.1805  0.3231
18216SOL    HW155226   0.313   2.147   0.338  0.1931  0.6348  0.2764
18216SOL    HW255227   0.396   2.190   0.456  0.2152 -0.9149  0.8505
18217SOL     OW55228   6.853   8.913   3.004 -0.5240  0.2086  0.3612
18217SOL    HW155229   6.889   8.826   3.021 -1.5238 -0.1032  0.9587
18217SOL    HW255230   6.801   8.933   3.081  0.8968  2.0083  0.9202
18218SOL     OW55231   0.591   3.113   2.843  0.8955 -0.3025  0.1449
18218SOL    HW155232   0.622   3.204   2.840  0.7200 -0.2755 -2.8173
18218SOL    HW255233   0.508   3.118   2.890  0.8412  1.0919 -0.0594
18219SOL     OW55234   4.171   3.064   0.667 -0.5153 -0.1578 -0.2886
18219SOL    HW155235   4.109   3.100   0.730  1.0207 -0.5935  1.5532
18219SOL    HW255236   4.206   2.985   0.709  0.0673 -0.8543 -1.9815
18220SOL     OW55237   1.583   7.036   4.279  0.3236 -0.1323 -0.2123
18220SOL    HW155238   1.527   6.961   4.256  0.1786  0.0099 -0.3238
18220SOL    HW255239   1.523   7.099   4.319  0.4759 -0.1450  0.0338
18221SOL     OW55240   6.642   0.697   9.972  0.2066 -0.6875 -0.2143
18221SOL    HW155241   6.686   0.755  10.035 -1.6012  0.6419 -0.0999
18221SOL    HW255242   6.691   0.708   9.891  0.9995 -0.4335  0.2872
18222SOL     OW55243   4.003   3.216   3.687 -0.2617 -0.1745 -0.0729
18222SOL    HW155244   3.935   3.273   3.723  0.1005  0.7242 -0.7799
18222SOL    HW255245   3.972   3.196   3.598 -0.3896 -1.0928  0.1736
18223SOL     OW55246   9.643   3.208   0.434  0.5164 -0.2121  0.0720
18223SOL    HW155247   9.631   3.165   0.350  1.4684 -0.0985 -0.1305
18223SOL    HW255248   9.576   3.170   0.491  2.6456 -3.6168  0.5420
18224SOL     OW55249   8.812   5.242   4.534 -0.4207 -0.1219 -0.0581
18224SOL    HW155250   8.813   5.335   4.511  0.2988 -0.2980 -0.7956
18224SOL    HW255251   8.887   5.205   4.487  1.2292 -0.5075  2.6547
18225SOL     OW55252   2.314   6.658   6.791  0.0496 -0.4101 -0.8028
18225SOL    HW155253   2.314   6.751   6.816  1.0787 -0.3148 -1.1247
18225SOL    HW255254   2.327   6.611   6.873 -1.1202 -0.3235 -0.5389
18226SOL     OW55255   5.761   6.152   9.812 -0.3598 -0.5617 -0.3677
18226SOL    HW155256   5.764   6.246   9.795  2.7741 -1.0627 -3.8683
18226SOL    HW255257   5.817   6.140   9.889  1.2092  0.3221 -1.3110
18227SOL     OW55258   9.708   5.652   0.865 -0.1931  0.0726  0.1726
18227SOL    HW155259   9.715   5.574   0.920 -0.7132  0.4362  0.7738
18227SOL    HW255260   9.799   5.681   0.854 -0.0771  0.0394  0.9311
18228SOL     OW55261   0.918   3.381   0.779  0.2457  0.5721  0.1482
18228SOL    HW155262   0.850   3.313   0.779  0.2501  0.5490  1.1348
18228SOL    HW255263   0.876   3.457   0.738 -0.3108  0.4823  0.5302
18229SOL     OW55264   7.262   2.845   8.398 -0.6546  0.3014  0.6980
18229SOL    HW155265   7.319   2.894   8.338 -1.3358  1.0113  0.6100
18229SOL    HW255266   7.227   2.912   8.457 -0.8221 -0.2385  1.2168
18230SOL     OW55267   4.051   9.511   5.170 -0.4401 -0.2176  0.4669
18230SOL    HW155268   4.038   9.539   5.260  0.5371 -1.0168  0.8810
18230SOL    HW255269   4.109   9.435   5.177 -1.2335 -0.9720 -0.7503
18231SOL     OW55270   7.608   6.351   6.922 -1.2297  0.1145 -0.1179
18231SOL    HW155271   7.637   6.309   7.002 -3.0076 -0.3539  0.3283
18231SOL    HW255272   7.625   6.287   6.853 -2.9681 -0.9767  0.4130
18232SOL     OW55273   2.383   5.669   4.169  0.1662  0.8174  0.1810
18232SOL    HW155274   2.295   5.708   4.162  0.2062  0.7856 -0.5444
18232SOL    HW255275   2.388   5.608   4.096  1.0948  1.4299 -0.2876
18233SOL     OW55276   4.195   8.385   0.533  0.0897  0.3894 -0.0234
18233SOL    HW155277   4.290   8.383   0.524  0.2436  2.3907  0.5590
18233SOL    HW255278   4.166   8.455   0.473 -1.4395 -2.2869 -2.7065
18234SOL     OW55279   2.329   9.675   1.056  0.9334 -0.4349  0.0835
18234SOL    HW155280   2.361   9.684   1.146 -1.4890  0.1216  0.9704
18234SOL    HW255281   2.258   9.610   1.062  1.1306 -0.8546 -1.5525
18235SOL     OW55282   5.362   6.235   9.250  0.2182  0.6640  0.6561
18235SOL    HW155283   5.293   6.191   9.299 -1.2285  1.8969 -0.1711
18235SOL    HW255284   5.431   6.251   9.314  0.3399 -1.7461  1.2110
18236SOL     OW55285   1.392   5.375   6.479  0.3130 -0.2451 -0.2639
18236SOL    HW155286   1.473   5.354   6.433 -1.0979 -0.2895 -2.8940
18236SOL    HW255287   1.328   5.313   6.445 -1.5815  1.8186 -0.7183
18237SOL     OW55288   6.220   3.358   8.700 -0.1039 -0.3728  0.0782
18237SOL    HW155289   6.274   3.433   8.673 -0.7695  0.3480  0.6778
18237SOL    HW255290   6.247   3.287   8.643  2.6830 -0.5420  1.4531
18238SOL     OW55291   1.283   0.620   1.634  0.3913  0.1667 -0.0148
18238SOL    HW155292   1.313   0.703   1.597  0.0890 -0.3413 -1.4228
18238SOL    HW255293   1.190   0.632   1.650  0.8766  1.0842  2.5753
18239SOL     OW55294   9.425   5.893   7.285  0.0351 -0.3538 -0.1334
18239SOL    HW155295   9.420   5.947   7.363 -2.0275  1.5017 -1.3940
18239SOL    HW255296   9.488   5.938   7.228  2.2709 -2.2211  0.7394
18240SOL     OW55297   7.770   1.593   4.934  0.4995 -0.2189 -0.5952
18240SOL    HW155298   7.730   1.518   4.891  0.7661 -0.7304  0.0429
18240SOL    HW255299   7.755   1.579   5.027  0.3107  0.6619 -0.4836
18241SOL     OW55300   6.554   6.421   5.083  0.1694 -0.9110 -0.1832
18241SOL    HW155301   6.507   6.459   5.157 -0.6666 -1.4772 -0.4065
18241SOL    HW255302   6.627   6.373   5.122  0.3561 -0.3197  0.1948
18242SOL     OW55303   9.965   1.295   0.131 -0.5311 -0.5232  0.0263
18242SOL    HW155304   9.958   1.358   0.203 -2.2695 -1.0930  0.3978
18242SOL    HW255305   9.898   1.322   0.068 -0.3380 -1.1682 -0.4676
18243SOL     OW55306   1.414   7.919   6.460 -0.2544  0.7026  0.1218
18243SOL    HW155307   1.337   7.973   6.445 -0.9977 -0.4995 -0.5364
18243SOL    HW255308   1.456   7.912   6.374 -0.1476  0.2682  0.2053
18244SOL     OW55309   8.026   5.421   9.949 -0.6593  0.0623  1.0352
18244SOL    HW155310   8.061   5.485   9.887  1.0825 -1.4575  0.3942
18244SOL    HW255311   8.077   5.434  10.029 -1.7407  0.8466  1.6358
18245SOL     OW55312   3.101   7.615   1.847  0.2532  0.1419  0.4086
18245SOL    HW155313   3.047   7.601   1.925  0.5387 -0.3547  0.5186
18245SOL    HW255314   3.104   7.530   1.803 -0.0215  0.4506 -0.2251
18246SOL     OW55315   5.514   5.901   9.435 -0.3660  0.2671 -0.7816
18246SOL    HW155316   5.526   5.967   9.503  1.0476 -0.2102 -0.5374
18246SOL    HW255317   5.422   5.908   9.410 -1.1845 -0.2049  1.8370
18247SOL     OW55318   8.142   4.934   6.436  0.5252  0.6499 -0.4774
18247SOL    HW155319   8.179   5.000   6.378  1.3208  0.8280  0.1995
18247SOL    HW255320   8.185   4.852   6.411  1.7808  0.9402  0.6152
18248SOL     OW55321   0.331   6.967   0.897  0.0499 -0.3278  0.2219
18248SOL    HW155322   0.366   6.962   0.987 -0.9644 -0.9145  0.5991
18248SOL    HW255323   0.294   6.880   0.882 -1.3350  0.3084 -0.1269
18249SOL     OW55324   6.693   9.461   5.768  0.0658 -0.1825  0.1559
18249SOL    HW155325   6.604   9.452   5.733 -0.2302  1.7618  0.3104
18249SOL    HW255326   6.681   9.462   5.863  0.2999 -0.2019  0.1851
18250SOL     OW55327   9.966   0.399   1.906  0.3566 -0.2370 -0.1578
18250SOL    HW155328   9.892   0.446   1.866  0.4722 -0.9334 -1.2445
18250SOL    HW255329   9.981   0.324   1.847  1.0575 -0.8597  0.7845
18251SOL     OW55330   9.064   3.331   1.159  0.6194 -0.1015 -0.2374
18251SOL    HW155331   9.137   3.394   1.162  1.2598 -0.7505 -1.2127
18251SOL    HW255332   9.080   3.273   1.233  0.2757  0.5952  0.4029
18252SOL     OW55333   4.811   0.240   8.156  0.3455  0.3615  0.3437
18252SOL    HW155334   4.848   0.328   8.156 -0.0844  0.5904  2.0606
18252SOL    HW255335   4.729   0.249   8.205  0.7433 -1.1444  1.3616
18253SOL     OW55336   7.691   0.801   0.304 -0.5992  0.0526 -0.2080
18253SOL    HW155337   7.642   0.754   0.371 -0.4237  1.2582  0.8160
18253SOL    HW255338   7.782   0.798   0.334 -0.2729 -0.7436 -1.2269
18254SOL     OW55339   3.356   8.819   6.039 -0.2875 -0.2524 -0.1359
18254SOL    HW155340   3.364   8.725   6.054  1.5142 -0.6676 -2.9749
18254SOL    HW255341   3.269   8.829   5.999  0.5093 -1.2081 -2.2890
18255SOL     OW55342   5.436   3.369   6.005 -0.0344 -0.2666 -0.2567
18255SOL    HW155343   5.481   3.308   5.947  0.1053 -0.9349  0.5409
18255SOL    HW255344   5.461   3.456   5.972  0.8203 -0.6312 -0.5955
18256SOL     OW55345   4.762   3.210   2.021 -0.1655  0.6540  0.1037
18256SOL    HW155346   4.795   3.295   1.993  3.4337 -0.8486 -0.8953
18256SOL    HW255347   4.725   3.225   2.108 -0.3189  3.3029 -0.3465
18257SOL     OW55348   3.566   8.778   5.874 -0.5762 -0.1732 -0.0381
18257SOL    HW155349   3.482   8.768   5.919 -0.4600 -2.4603 -0.2522
18257SOL    HW255350   3.544   8.826   5.794 -1.8045 -1.2393 -0.3829
18258SOL     OW55351   6.172   4.253   3.675  0.8762  0.3119 -0.1989
18258SOL    HW155352   6.173   4.334   3.726  1.7741 -0.0707  0.3946
18258SOL    HW255353   6.129   4.189   3.732 -1.4979  0.7731 -1.3407
18259SOL     OW55354   6.821   9.707   2.645 -0.1566 -0.1085 -0.2635
18259SOL    HW155355   6.912   9.712   2.672  1.4082 -2.5330 -4.3184
18259SOL    HW255356   6.786   9.630   2.690 -0.0221  0.2877  0.5574
18260SOL     OW55357   4.810   6.874   7.372 -0.1705 -0.1043  0.3281
18260SOL    HW155358   4.821   6.782   7.394 -1.8208 -1.0409 -2.2680
18260SOL    HW255359   4.851   6.883   7.285  1.4399  2.0543  1.2210
18261SOL     OW55360   7.027   2.192   6.876 -0.2596  0.1826  0.7353
18261SOL    HW155361   6.999   2.255   6.943 -0.1079 -0.4342  1.3972
18261SOL    HW255362   7.039   2.110   6.925 -0.0019 -0.2400 -0.0296
18262SOL     OW55363   3.882   5.757   6.786 -0.6844  0.1510  0.5073
18262SOL    HW155364   3.820   5.829   6.800 -1.4837  0.6335 -3.9558
18262SOL    HW255365   3.953   5.774   6.847 -2.9855  1.9624  2.9198
18263SOL     OW55366   4.596   5.956   5.333  0.7139 -0.0274 -0.4278
18263SOL    HW155367   4.554   5.911   5.259  0.6069  0.5350 -0.7164
18263SOL    HW255368   4.558   5.915   5.411 -0.4617  0.5476 -0.6811
18264SOL     OW55369   5.837   9.767   3.158  0.0923 -0.2124 -0.1365
18264SOL    HW155370   5.855   9.675   3.180 -1.2665 -0.5005 -0.1849
18264SOL    HW255371   5.908   9.816   3.201  0.5333 -1.2333  0.3247
18265SOL     OW55372   3.311   7.709   5.268  0.0868 -0.3414 -0.0437
18265SOL    HW155373   3.217   7.708   5.286  0.1588 -0.7768  0.3586
18265SOL    HW255374   3.342   7.625   5.304  0.5766 -0.3330 -0.4424
18266SOL     OW55375   2.044   1.230   1.945 -0.3243 -0.0311 -0.2246
18266SOL    HW155376   2.094   1.183   2.012 -0.1661  3.2449  2.1965
18266SOL    HW255377   1.956   1.239   1.983 -0.5608  0.9257 -0.9642
18267SOL     OW55378   0.533   5.677   7.856 -0.2528  0.1582 -0.1121
18267SOL    HW155379   0.439   5.657   7.854  0.1768 -1.9536 -1.5658
18267SOL    HW255380   0.573   5.601   7.897  0.9484  0.4136 -0.7816
18268SOL     OW55381   6.371   1.738   1.393 -0.2280  0.1216 -0.4209
18268SOL    HW155382   6.419   1.743   1.476 -0.6774 -0.0579 -0.1462
18268SOL    HW255383   6.308   1.810   1.397  0.8691  1.1850 -1.3463
18269SOL     OW55384   6.826   2.355   3.608 -0.1498  0.3534 -0.0438
18269SOL    HW155385   6.731   2.348   3.610 -0.0905 -0.7524  2.0020
18269SOL    HW255386   6.847   2.418   3.677  0.6093  0.4309 -0.3365
18270SOL     OW55387   2.848   3.822   1.071  0.1330  0.2583 -0.0712
18270SOL    HW155388   2.913   3.771   1.119 -0.0356  0.9862  0.9517
18270SOL    HW255389   2.807   3.758   1.012  1.8472 -0.1995 -0.8586
18271SOL     OW55390   1.995   3.348   8.781 -0.1149  0.7425  0.1246
18271SOL    HW155391   2.065   3.298   8.738  0.1116  0.6324  0.6120
18271SOL    HW255392   1.958   3.402   8.711 -0.3116 -0.0434 -0.3902
18272SOL     OW55393   1.503   3.349   7.252  0.3374 -0.0698  0.2395
18272SOL    HW155394   1.594   3.343   7.281 -0.8946 -1.3130  4.5819
18272SOL    HW255395   1.483   3.264   7.215  0.4562 -0.5269  1.1913
18273SOL     OW55396   9.878   7.516   6.251 -0.3917  0.8279  0.1193
18273SOL    HW155397   9.959   7.530   6.202 -1.5984 -0.1114 -2.2894
18273SOL    HW255398   9.887   7.574   6.328  3.3589 -0.6420  1.0489
18274SOL     OW55399   0.874   9.274   0.412  0.1874  0.2161  0.6390
18274SOL    HW155400   0.839   9.188   0.387  0.9328  0.1119 -0.0858
18274SOL    HW255401   0.967   9.257   0.430  0.9605  1.2622 -1.8961
18275SOL     OW55402   4.033   3.469   5.486  0.0268 -0.4839  0.1766
18275SOL    HW155403   4.082   3.403   5.535 -0.3801 -1.4676 -0.6946
18275SOL    HW255404   4.082   3.479   5.404 -1.3627 -1.7455 -0.8612
18276SOL     OW55405   1.328   9.307   5.734  0.9172 -0.1284 -0.5333
18276SOL    HW155406   1.295   9.369   5.799 -0.3172  1.5140 -2.6343
18276SOL    HW255407   1.403   9.265   5.778 -1.3279 -0.9943  2.8862
18277SOL     OW55408   1.372   1.354   4.623  0.2164  0.2675 -0.4078
18277SOL    HW155409   1.442   1.294   4.648 -0.1699  0.4946  1.3443
18277SOL    HW255410   1.330   1.377   4.705 -0.5428  1.8368 -1.1910
18278SOL     OW55411   9.944   5.832   8.715 -0.2133 -0.1834 -0.0034
18278SOL    HW155412   9.964   5.754   8.767 -1.4499 -0.8194 -0.4359
18278SOL    HW255413   9.912   5.896   8.779  1.2017  0.1516  0.4126
18279SOL     OW55414   7.088   2.393   5.862  0.6913  0.8001  0.3760
18279SOL    HW155415   7.124   2.306   5.843 -0.2279  0.6534 -0.8107
18279SOL    HW255416   7.081   2.435   5.777  0.5506  1.8167  0.8796
18280SOL     OW55417   5.457   6.665   1.929  0.4482 -0.5086  0.4831
18280SOL    HW155418   5.383   6.720   1.956 -0.4377 -1.7183  0.6043
18280SOL    HW255419   5.485   6.701   1.845  0.1406  0.3505  0.7384
18281SOL     OW55420   2.924   6.132   7.309  0.0619  0.3588 -0.1375
18281SOL    HW155421   2.871   6.075   7.364  1.0111 -0.9448 -0.5236
18281SOL    HW255422   2.975   6.186   7.370  1.3413 -1.2884  0.3133
18282SOL     OW55423   6.119   3.085   9.958  0.1232  0.5080 -0.0516
18282SOL    HW155424   6.190   3.145   9.932  2.1975 -0.9308  1.9341
18282SOL    HW255425   6.059   3.140  10.008  0.2888  1.5553 -0.9481
18283SOL     OW55426   8.506   5.692   5.348  0.2681 -0.1081  0.0622
18283SOL    HW155427   8.496   5.765   5.286  0.0590  0.9570  1.2945
18283SOL    HW255428   8.500   5.614   5.294  3.2254  0.7556 -1.7631
18284SOL     OW55429   5.261   4.109   3.474 -0.1044 -0.1029  0.6166
18284SOL    HW155430   5.352   4.097   3.449 -0.7850 -1.6122 -1.4087
18284SOL    HW255431   5.225   4.168   3.407 -0.6978  0.2441  1.2283
18285SOL     OW55432   3.623   7.567   4.945  0.3091 -0.2045  0.3408
18285SOL    HW155433   3.653   7.579   4.855  1.1534  0.5609  0.7149
18285SOL    HW255434   3.697   7.524   4.989  0.4171  0.6181  0.9838
18286SOL     OW55435   5.265   7.248   2.115 -0.1803  0.6414 -0.5247
18286SOL    HW155436   5.185   7.281   2.155  0.1600  0.2601  0.5208
18286SOL    HW255437   5.236   7.182   2.052 -0.6714 -0.0731  0.4187
18287SOL     OW55438   3.240   8.040   2.928  0.5214  0.0355 -0.1549
18287SOL    HW155439   3.305   8.064   2.862  0.8247 -2.5933 -0.9214
18287SOL    HW255440   3.293   8.009   3.003  0.1539  0.4529  0.2829
18288SOL     OW55441   4.039   1.379   1.917 -0.3657 -0.2895  0.3533
18288SOL    HW155442   4.061   1.355   1.827  0.2337 -2.4572  1.0183
18288SOL    HW255443   3.952   1.343   1.931  0.3479 -1.7821  1.2196
18289SOL     OW55444   6.591   0.654   1.332 -0.1675 -0.1221 -0.3082
18289SOL    HW155445   6.527   0.700   1.278 -0.2099  1.9030  1.3106
18289SOL    HW255446   6.538   0.596   1.387 -0.3796 -0.2719 -0.6708
18290SOL     OW55447   6.443   8.146   8.161  0.4773  0.3999  0.6960
18290SOL    HW155448   6.395   8.168   8.241 -1.4079  1.1837 -0.5763
18290SOL    HW255449   6.425   8.053   8.147 -3.4118  1.2178 -1.3133
18291SOL     OW55450   6.205   8.796   3.982 -0.3949 -0.6537 -0.0225
18291SOL    HW155451   6.219   8.772   4.073  2.3055  0.2193 -0.1048
18291SOL    HW255452   6.257   8.732   3.932 -1.0431 -0.5265 -0.8850
18292SOL     OW55453   8.710   9.599   8.992  0.4732  0.1596  0.1334
18292SOL    HW155454   8.632   9.612   9.046  0.3434  1.7365 -0.3759
18292SOL    HW255455   8.753   9.522   9.030 -0.3546  0.3671  1.5835
18293SOL     OW55456   6.392   4.298   3.535  0.0144  0.5787 -0.2484
18293SOL    HW155457   6.315   4.280   3.589 -0.8251  0.7667 -1.3447
18293SOL    HW255458   6.384   4.391   3.512  0.6092  0.6207 -0.3089
18294SOL     OW55459   0.755   8.060   7.399  0.1019  0.1122  0.0929
18294SOL    HW155460   0.784   7.975   7.433 -0.5399 -0.0868  0.1572
18294SOL    HW255461   0.691   8.038   7.332  1.6247  0.4837 -1.5681
18295SOL     OW55462   1.513   2.832   6.045 -0.2319 -0.2389 -0.3425
18295SOL    HW155463   1.487   2.752   6.000 -0.1235 -0.3044 -0.2904
18295SOL    HW255464   1.551   2.887   5.977 -0.3256 -0.2241 -0.3821
18296SOL     OW55465   1.428   1.390   2.356  0.3153 -0.2480  0.1417
18296SOL    HW155466   1.343   1.431   2.342  0.5541 -0.0173 -0.7123
18296SOL    HW255467   1.484   1.426   2.286  0.6181 -1.7622 -0.4258
18297SOL     OW55468   2.239   4.444   4.297  0.5182 -0.1120 -0.0964
18297SOL    HW155469   2.301   4.388   4.344 -0.1503 -0.5827  0.2507
18297SOL    HW255470   2.175   4.469   4.364 -0.7393 -1.2076 -0.8232
18298SOL     OW55471   1.860   5.157   5.172  0.1390 -0.1559 -0.0422
18298SOL    HW155472   1.822   5.157   5.260 -0.2914  1.1240 -0.2181
18298SOL    HW255473   1.788   5.131   5.115  1.1278 -4.1902  0.1938
18299SOL     OW55474   8.207   7.458   4.337 -0.7744  0.2364  0.2139
18299SOL    HW155475   8.272   7.527   4.346 -1.2714  0.7806 -0.2893
18299SOL    HW255476   8.255   7.377   4.352 -0.7478  0.7737  3.9501
18300SOL     OW55477   0.424   1.574   7.014 -0.2876  0.2596 -0.0354
18300SOL    HW155478   0.481   1.632   7.064  0.3753 -0.3079 -0.1038
18300SOL    HW255479   0.361   1.541   7.079  2.2109 -2.6075  1.1958
18301SOL     OW55480   4.234   8.359   3.481  0.4050  0.1792  0.1038
18301SOL    HW155481   4.315   8.319   3.449  0.9605  1.3643  0.0036
18301SOL    HW255482   4.215   8.430   3.420  0.2155  0.9932  1.0849
18302SOL     OW55483   2.038   4.030   1.944 -0.2275 -0.5406 -0.0741
18302SOL    HW155484   1.986   4.111   1.949  0.8470  0.2871 -1.5689
18302SOL    HW255485   2.118   4.056   1.898  0.9112 -2.0938  0.9481
18303SOL     OW55486   4.866   8.859   5.893  0.0490  0.1374  0.0519
18303SOL    HW155487   4.829   8.795   5.832 -1.4748 -0.1018  1.1796
18303SOL    HW255488   4.916   8.807   5.956 -0.1446  0.1750  0.2381
18304SOL     OW55489   4.183   8.123   0.671 -0.0290 -0.3571  0.0767
18304SOL    HW155490   4.178   8.196   0.609 -0.3261  0.5474  1.1340
18304SOL    HW255491   4.206   8.048   0.617  2.0009  0.8266 -0.8364
18305SOL     OW55492   9.495   9.488   5.555 -0.4904 -0.5938 -0.2179
18305SOL    HW155493   9.526   9.448   5.473  0.1824 -1.1031  0.2734
18305SOL    HW255494   9.576   9.514   5.600 -0.8839  0.5074 -0.1140
18306SOL     OW55495   1.371   0.676   4.277 -0.1526  0.0280 -0.0970
18306SOL    HW155496   1.311   0.619   4.326  0.9914  1.4306  3.1910
18306SOL    HW255497   1.329   0.762   4.281 -0.3869  0.0705 -2.3782
18307SOL     OW55498   9.052   9.220   6.499  0.3775  0.2982  0.3002
18307SOL    HW155499   9.014   9.208   6.412 -0.6379  1.7411  0.5234
18307SOL    HW255500   9.032   9.138   6.545  1.3241 -0.6748 -0.9268
18308SOL     OW55501   0.265   5.755   0.637 -0.1470 -0.1291 -0.3275
18308SOL    HW155502   0.192   5.710   0.596  0.0286  0.1876 -1.0051
18308SOL    HW255503   0.307   5.804   0.565  2.2989 -2.3267 -0.5499
18309SOL     OW55504   9.292   2.258   3.117 -0.2469 -0.2644 -0.3846
18309SOL    HW155505   9.283   2.347   3.083 -1.6773 -0.0119  0.5963
18309SOL    HW255506   9.378   2.230   3.086  0.0759  1.3126 -1.0301
18310SOL     OW55507   6.676   0.643   8.442 -0.5329  0.3673 -0.4218
18310SOL    HW155508   6.712   0.715   8.494  0.1817 -1.0285  1.0861
18310SOL    HW255509   6.598   0.616   8.490  0.6869 -1.5981  0.5697
18311SOL     OW55510   0.988   6.361   2.526 -0.0872  0.2852  0.7753
18311SOL    HW155511   0.920   6.312   2.572 -0.3923  1.7874  2.0197
18311SOL    HW255512   0.990   6.323   2.438 -2.6321  0.2502  0.6605
18312SOL     OW55513   6.331   8.965   2.292 -0.1848 -0.0583  0.1655
18312SOL    HW155514   6.345   8.896   2.358 -0.2620 -1.5237 -1.2882
18312SOL    HW255515   6.332   8.919   2.209  1.7890  1.9955 -1.0452
18313SOL     OW55516   7.636   5.211   7.307  0.2013  0.0046  0.0089
18313SOL    HW155517   7.589   5.131   7.281 -0.3256 -0.0438  1.0189
18313SOL    HW255518   7.575   5.255   7.367  0.3296  1.3691 -0.8354
18314SOL     OW55519   3.603   5.230   0.500  0.0581  0.1018  0.1171
18314SOL    HW155520   3.654   5.294   0.551  0.1646 -0.7126  1.0636
18314SOL    HW255521   3.531   5.282   0.464 -0.2919  0.6351  1.5049
18315SOL     OW55522   5.498   6.326   9.469 -0.1347  0.1944 -0.3412
18315SOL    HW155523   5.523   6.363   9.554  0.7582 -1.2378  0.0412
18315SOL    HW255524   5.403   6.340   9.464 -0.1553  0.5536  0.7587
18316SOL     OW55525   4.435   4.494   0.231 -0.1515 -0.4654  0.0579
18316SOL    HW155526   4.498   4.545   0.180  0.2177 -1.6322 -0.7173
18316SOL    HW255527   4.488   4.449   0.297 -0.5584  0.6189  1.1701
18317SOL     OW55528   5.166   6.272   6.049  0.0263  0.3649  0.2743
18317SOL    HW155529   5.219   6.347   6.022  1.2884 -0.2294  1.0154
18317SOL    HW255530   5.081   6.309   6.071  0.2097  1.3846 -0.6582
18318SOL     OW55531   7.716   6.045   7.840 -0.1010 -0.2391  0.3297
18318SOL    HW155532   7.631   6.019   7.877  0.5138  0.2032  2.1830
18318SOL    HW255533   7.773   5.970   7.858  1.3400  1.5372  4.4985
18319SOL     OW55534   6.908   1.601   9.840  0.2708 -0.3633 -0.0015
18319SOL    HW155535   7.002   1.614   9.856  0.1102 -1.5424  2.2614
18319SOL    HW255536   6.895   1.507   9.846 -1.3456 -0.0967  1.9394
18320SOL     OW55537   3.881   6.563   7.974  0.6138 -0.1881  0.1761
18320SOL    HW155538   3.857   6.485   7.924 -0.2890  0.0986  0.1306
18320SOL    HW255539   3.835   6.553   8.058 -0.0931  0.6126 -0.0983
18321SOL     OW55540   6.837   2.832   5.630 -0.2124  0.3963  0.2468
18321SOL    HW155541   6.796   2.788   5.704 -0.6282  1.1973  0.5082
18321SOL    HW255542   6.785   2.806   5.554 -0.1150  0.0014  0.3141
18322SOL     OW55543   2.262   3.621   6.681  0.2077  0.7087 -0.6007
18322SOL    HW155544   2.263   3.581   6.768  2.2146  0.4532 -0.7028
18322SOL    HW255545   2.268   3.547   6.620  0.7949  0.9867 -0.8868
18323SOL     OW55546   0.553   4.145   1.362 -0.0409  0.5620 -0.6228
18323SOL    HW155547   0.585   4.234   1.379 -0.8476  0.8753 -0.6542
18323SOL    HW255548   0.549   4.139   1.267  2.4294 -0.4312 -0.7333
18324SOL     OW55549   1.834   9.559   9.719  0.1257 -0.0455 -0.5034
18324SOL    HW155550   1.773   9.580   9.790 -0.5807 -0.2247 -1.0515
18324SOL    HW255551   1.847   9.465   9.726  1.0196  0.1059  0.1367
18325SOL     OW55552   5.125   0.133   9.096 -0.5459  0.4516 -0.3019
18325SOL    HW155553   5.059   0.191   9.059  0.0352  0.3123 -1.6098
18325SOL    HW255554   5.131   0.060   9.033  0.3806  0.1456  0.1171
18326SOL     OW55555   6.627   7.436   7.259  0.9858 -0.2404  0.9347
18326SOL    HW155556   6.560   7.387   7.210 -0.7207  0.8528  2.0512
18326SOL    HW255557   6.666   7.371   7.318  0.0471 -0.6644  1.1076
18327SOL     OW55558   1.562   2.149   3.232  0.8495  0.2054 -0.3895
18327SOL    HW155559   1.577   2.102   3.150 -0.1380  1.4574 -1.3377
18327SOL    HW255560   1.562   2.241   3.207  1.2491  0.6647  1.1608
18328SOL     OW55561   2.709   7.481   5.164  0.3747 -0.5796 -0.7575
18328SOL    HW155562   2.700   7.558   5.108  1.5407 -0.1668 -0.4042
18328SOL    HW255563   2.699   7.407   5.104  0.6723 -0.1450 -1.3599
18329SOL     OW55564   9.680   5.422   8.910  0.1012  0.1371 -0.2116
18329SOL    HW155565   9.599   5.370   8.911  0.4592 -0.4290  0.3389
18329SOL    HW255566   9.724   5.399   8.992  0.0208  1.7419  0.3175
18330SOL     OW55567   9.043   1.194   7.444 -0.1614 -0.1104  0.4847
18330SOL    HW155568   8.972   1.255   7.422  0.0962  0.5000  1.2897
18330SOL    HW255569   9.085   1.175   7.360 -0.4370  0.5946  0.1805
18331SOL     OW55570   3.796   2.525   7.593  0.3408 -0.1379  0.0045
18331SOL    HW155571   3.786   2.430   7.594 -0.4207 -0.0725 -0.6087
18331SOL    HW255572   3.889   2.539   7.578  0.1367 -0.8010 -2.0791
18332SOL     OW55573   5.898   5.323   6.437  0.2841  0.4182 -0.2785
18332SOL    HW155574   5.928   5.342   6.526  0.6550  1.2307 -0.5650
18332SOL    HW255575   5.873   5.408   6.401  0.0368  0.0866 -0.9148
18333SOL     OW55576   4.251   3.462   2.641 -0.5208  0.1545 -0.8524
18333SOL    HW155577   4.230   3.420   2.557 -1.0832 -1.0057 -0.1628
18333SOL    HW255578   4.324   3.521   2.621  0.4590 -1.3089 -1.8618
18334SOL     OW55579   4.381   8.518   5.014 -0.1622 -0.5165 -0.6446
18334SOL    HW155580   4.405   8.607   4.988 -0.2017 -0.7718 -1.5874
18334SOL    HW255581   4.327   8.486   4.942 -1.6940 -0.6609  0.5256
18335SOL     OW55582   2.467   9.488   2.022  0.4352 -0.5162 -0.0166
18335SOL    HW155583   2.440   9.427   2.090  1.1548 -1.2511 -0.3753
18335SOL    HW255584   2.497   9.433   1.950  1.8836  0.2258 -0.0386
18336SOL     OW55585   1.651   4.216   7.882  0.4947  0.4921  0.2821
18336SOL    HW155586   1.717   4.253   7.823  0.5543  1.5152  0.9580
18336SOL    HW255587   1.660   4.268   7.962 -0.1359 -0.3369  0.9012
18337SOL     OW55588   3.334   3.461   8.056  0.2339  0.3153  0.2019
18337SOL    HW155589   3.423   3.483   8.082  0.0992 -0.6518  1.5801
18337SOL    HW255590   3.321   3.372   8.088 -1.8328  1.0653  1.6561
18338SOL     OW55591   0.625   4.160   0.863  0.0130  0.5122 -0.5277
18338SOL    HW155592   0.587   4.163   0.775 -0.4752 -0.0462 -0.3480
18338SOL    HW255593   0.713   4.195   0.853 -0.9843  3.2221 -0.7012
18339SOL     OW55594   9.854   7.749   4.337  0.0373 -0.6003  0.0669
18339SOL    HW155595   9.813   7.811   4.398 -1.9579 -0.3834 -1.4225
18339SOL    HW255596   9.798   7.672   4.339  0.5681 -1.0131 -0.6722
18340SOL     OW55597   2.018   5.701   6.579  0.3330 -0.0765 -0.3508
18340SOL    HW155598   2.105   5.740   6.591  0.2492 -0.4706  2.2183
18340SOL    HW255599   1.958   5.776   6.585  0.4633  0.5425 -4.3801
18341SOL     OW55600   1.340   5.466   4.422  0.5540  0.0403 -0.2422
18341SOL    HW155601   1.362   5.511   4.503 -1.8826  2.2028 -0.6764
18341SOL    HW255602   1.276   5.399   4.449  1.5339 -0.8581 -0.0913
18342SOL     OW55603   5.699   1.888   6.823 -0.3128 -0.2791 -0.5459
18342SOL    HW155604   5.679   1.897   6.916  1.4442  0.1574 -0.1804
18342SOL    HW255605   5.646   1.955   6.780 -1.4542 -0.7641  0.0652
18343SOL     OW55606   0.277   0.031   2.556  0.1185  0.0157  0.4584
18343SOL    HW155607   0.325   0.046   2.637  1.5985 -0.2111 -0.3543
18343SOL    HW255608   0.223   0.109   2.544  0.1052  0.1738  1.4903
18344SOL     OW55609   5.985   6.451   0.904 -0.5851 -0.0152 -0.2000
18344SOL    HW155610   6.052   6.403   0.953 -0.9320 -0.2828  0.0194
18344SOL    HW255611   5.912   6.461   0.965 -0.8640  0.0036 -0.5272
18345SOL     OW55612   8.013   2.017   9.715 -0.4012 -0.1573 -0.6080
18345SOL    HW155613   8.092   2.012   9.661 -0.0672  1.2739 -0.2822
18345SOL    HW255614   8.012   2.106   9.748  0.2071 -1.3548  3.0034
18346SOL     OW55615   7.030   6.278   0.112 -0.0141 -0.7791  0.3710
18346SOL    HW155616   7.034   6.236   0.198 -3.0408  1.0958  1.6028
18346SOL    HW255617   7.015   6.205   0.051 -1.3882 -1.8948  1.9413
18347SOL     OW55618   2.656   2.588   5.246  0.3415 -0.1921  0.8151
18347SOL    HW155619   2.577   2.552   5.207  1.6915 -2.7155  0.1571
18347SOL    HW255620   2.672   2.534   5.323  0.6560  1.2676  1.8302
18348SOL     OW55621   3.708   7.586   6.754 -0.1740  0.5607 -0.5294
18348SOL    HW155622   3.721   7.511   6.696  2.3967  0.7477 -0.3128
18348SOL    HW255623   3.718   7.662   6.696  0.1530  0.7358 -0.2451
18349SOL     OW55624   2.477   8.489   9.909 -0.0035  0.0606  0.1560
18349SOL    HW155625   2.541   8.475   9.979 -0.0895 -0.7522  0.0899
18349SOL    HW255626   2.458   8.401   9.877 -0.7183  0.3440 -0.2183
18350SOL     OW55627   0.404   1.224   6.208 -0.3186  0.3798  0.0719
18350SOL    HW155628   0.389   1.233   6.113  0.0286  0.6088  0.0333
18350SOL    HW255629   0.424   1.132   6.221  2.7234  0.8350 -0.5682
18351SOL     OW55630   1.864   6.158   5.917 -0.0172  0.2363 -0.5345
18351SOL    HW155631   1.856   6.093   5.847 -0.4204  0.6235 -0.8540
18351SOL    HW255632   1.948   6.200   5.901 -0.7285  1.2859 -1.6339
18352SOL     OW55633   9.529   6.905   4.477  0.0737  0.2960  0.3226
18352SOL    HW155634   9.533   6.987   4.526 -0.6790  1.3641 -1.3340
18352SOL    HW255635   9.437   6.879   4.482 -0.3161  1.1405 -1.5738
18353SOL     OW55636   6.659   5.659   3.939  0.2152  0.4358  0.0227
18353SOL    HW155637   6.722   5.666   4.010 -1.0276  0.3916  1.1814
18353SOL    HW255638   6.577   5.694   3.976  0.1432  2.9892 -2.2344
18354SOL     OW55639   9.774   3.375   1.614 -0.0424  0.0272  0.2027
18354SOL    HW155640   9.705   3.440   1.623  0.2103  0.3786 -0.3141
18354SOL    HW255641   9.819   3.400   1.533 -0.0037 -0.8429 -0.0503
18355SOL     OW55642   3.092   5.496   4.201  0.2450 -0.0926  0.2016
18355SOL    HW155643   3.102   5.567   4.265 -0.8453  0.0938  0.1925
18355SOL    HW255644   3.181   5.470   4.180  0.6492  0.7270  0.8221
18356SOL     OW55645   3.995   6.233   2.738  0.1020 -0.0641  0.1041
18356SOL    HW155646   4.047   6.182   2.800 -1.2946 -1.7971 -0.0693
18356SOL    HW255647   3.920   6.263   2.789  0.6752  1.4552  0.0791
18357SOL     OW55648   7.753   5.332   8.545  0.2701 -0.5201  0.5838
18357SOL    HW155649   7.846   5.311   8.546  0.0710 -1.6463 -0.7697
18357SOL    HW255650   7.733   5.349   8.453 -0.9253 -0.6255  0.8045
18358SOL     OW55651   5.301   2.947   8.640  0.3934  0.0905  0.3601
18358SOL    HW155652   5.224   2.905   8.602  1.0826 -1.8327  1.0211
18358SOL    HW255653   5.334   3.003   8.569 -0.8788  0.0049 -0.3371
18359SOL     OW55654   1.736   8.803   8.136  0.2738  0.6627  0.4052
18359SOL    HW155655   1.646   8.815   8.105  0.5489  0.7911 -0.3786
18359SOL    HW255656   1.742   8.857   8.215 -0.1870  1.0927  0.1536
18360SOL     OW55657   4.615   8.998   1.025  0.5149  0.5970 -0.4557
18360SOL    HW155658   4.666   8.930   1.069 -0.9084  0.2220  0.7430
18360SOL    HW255659   4.666   9.022   0.948  1.7431 -0.8035 -0.1171
18361SOL     OW55660   4.459   2.323   8.421  0.0333  0.2167  0.1620
18361SOL    HW155661   4.508   2.386   8.368  0.6679  0.9753  1.5909
18361SOL    HW255662   4.457   2.243   8.368  2.0244  0.4522 -0.3525
18362SOL     OW55663   4.046   7.814   9.682  0.4856  0.1572  0.2385
18362SOL    HW155664   3.990   7.746   9.718 -0.1565  0.0759 -0.8677
18362SOL    HW255665   4.001   7.896   9.701  0.2362  0.1266 -0.2085
18363SOL     OW55666   5.160   6.385   0.649 -0.9783 -0.4751  0.5018
18363SOL    HW155667   5.250   6.407   0.674 -1.3069  0.6077  0.7637
18363SOL    HW255668   5.126   6.336   0.724 -0.3079 -1.7574 -0.0012
18364SOL     OW55669   1.241   0.423   0.791  0.0651  0.3311  0.0130
18364SOL    HW155670   1.167   0.476   0.819  0.6438  0.5775  1.1066
18364SOL    HW255671   1.201   0.347   0.747 -0.7613  1.6486 -1.6183
18365SOL     OW55672   1.714   9.144   6.766 -0.0545 -0.2731  0.0295
18365SOL    HW155673   1.659   9.206   6.814 -0.5659 -0.6699 -0.0446
18365SOL    HW255674   1.804   9.174   6.783 -0.2851  0.3041  0.2425
18366SOL     OW55675   5.445   5.763   7.943 -0.2651 -0.5978 -0.2535
18366SOL    HW155676   5.379   5.813   7.895 -0.6171 -0.0086  0.8252
18366SOL    HW255677   5.517   5.753   7.880  0.5022  2.6487 -0.0571
18367SOL     OW55678   2.366   2.651   5.473  0.8904  0.0725 -0.6112
18367SOL    HW155679   2.449   2.666   5.518 -0.6451  1.1379  2.0939
18367SOL    HW255680   2.390   2.644   5.380  3.8818  1.1169 -0.0317
18368SOL     OW55681   7.498   5.680   6.858 -0.3858  0.0652 -0.3833
18368SOL    HW155682   7.481   5.740   6.785  1.0516  1.2988  0.2351
18368SOL    HW255683   7.422   5.621   6.859 -1.5099  1.4107 -1.4857
18369SOL     OW55684   6.433   7.446   3.653  0.3437  0.7545  0.4737
18369SOL    HW155685   6.456   7.425   3.744 -2.9139 -1.8518  0.8835
18369SOL    HW255686   6.456   7.367   3.604 -0.1962  1.1965 -0.5144
18370SOL     OW55687   3.296   2.658   1.255 -0.1564  0.0833  0.3514
18370SOL    HW155688   3.266   2.742   1.290  1.6459  1.1637 -0.5671
18370SOL    HW255689   3.359   2.681   1.188 -0.3151 -2.0247 -0.5932
18371SOL     OW55690   3.955   6.650   8.775 -0.1075  0.1045 -0.0237
18371SOL    HW155691   3.907   6.704   8.712 -1.3766 -0.6625  0.2370
18371SOL    HW255692   3.959   6.703   8.855 -1.8751 -0.3549  0.4219
18372SOL     OW55693   3.580   2.351   0.547 -0.4080 -0.2591  0.3739
18372SOL    HW155694   3.580   2.324   0.455  1.1981  2.1952 -0.4315
18372SOL    HW255695   3.670   2.336   0.576 -0.5476  0.2924  1.1161
18373SOL     OW55696   6.432   0.274   6.732 -0.5682  0.1458 -0.5081
18373SOL    HW155697   6.499   0.258   6.799  0.9174  1.3734 -1.6505
18373SOL    HW255698   6.375   0.198   6.739  0.8007 -0.8518  0.6626
18374SOL     OW55699   4.277   9.310   5.292 -0.4379 -0.3325 -0.9298
18374SOL    HW155700   4.196   9.275   5.253 -0.7953 -0.4803 -0.0865
18374SOL    HW255701   4.346   9.282   5.232 -0.6847 -2.6433 -0.2366
18375SOL     OW55702   8.127   0.117   2.780 -1.4822  0.1856  0.6494
18375SOL    HW155703   8.174   0.200   2.783 -0.5491 -0.3520  1.9747
18375SOL    HW255704   8.048   0.135   2.728  0.4724  0.9535 -2.2899
18376SOL     OW55705   3.786   0.704   5.588 -0.5112  0.4180 -0.2770
18376SOL    HW155706   3.780   0.705   5.493 -2.7936 -0.0143 -0.1851
18376SOL    HW255707   3.713   0.649   5.616 -0.0177  0.7172  1.7458
18377SOL     OW55708   3.985   0.432   9.584 -0.0680  0.1317 -1.0814
18377SOL    HW155709   4.068   0.386   9.596  0.3706  0.6543 -1.9269
18377SOL    HW255710   3.939   0.381   9.517  0.2220  0.6509 -1.6878
18378SOL     OW55711   0.007   1.715   9.243 -0.0543 -0.5936 -0.3492
18378SOL    HW155712   0.029   1.630   9.282 -1.8282 -0.0916  1.8768
18378SOL    HW255713   0.053   1.779   9.297 -1.5014  0.0354  0.1879
18379SOL     OW55714   7.702   6.226   3.800 -0.1269 -0.1897 -0.2323
18379SOL    HW155715   7.694   6.193   3.710  1.6353  0.1194 -0.5372
18379SOL    HW255716   7.612   6.240   3.828 -0.7454 -1.0711 -1.6600
18380SOL     OW55717   0.872   9.341   6.470 -0.2089 -0.0551 -0.3888
18380SOL    HW155718   0.866   9.245   6.472 -1.0123  0.0058  0.5257
18380SOL    HW255719   0.784   9.371   6.494  0.5371  0.9198  1.2543
18381SOL     OW55720   9.799   1.016   3.507  0.1256  0.3059  0.3557
18381SOL    HW155721   9.766   1.024   3.418 -0.8332  0.5971  0.7325
18381SOL    HW255722   9.726   0.982   3.558  0.1440  1.6475  1.3463
18382SOL     OW55723   5.265   6.814   6.274 -0.1367  0.7585  0.1833
18382SOL    HW155724   5.347   6.862   6.276  0.2849  0.0373  0.7948
18382SOL    HW255725   5.217   6.844   6.351 -0.3437  0.9977 -0.0372
18383SOL     OW55726   1.790   4.561   4.680 -0.3776  0.5449 -0.1156
18383SOL    HW155727   1.873   4.528   4.715 -0.4803  0.2980 -0.0992
18383SOL    HW255728   1.727   4.492   4.700 -0.7517  1.0699  0.5596
18384SOL     OW55729   1.753   1.805   3.766  0.0950  0.2196 -0.7110
18384SOL    HW155730   1.792   1.768   3.846  1.2441  2.5023 -0.1083
18384SOL    HW255731   1.670   1.841   3.795  0.2732  0.5857 -0.6482
18385SOL     OW55732   4.974   2.477   0.121 -0.0071  0.0478 -0.4948
18385SOL    HW155733   4.902   2.435   0.075 -0.2718  0.4007 -0.4102
18385SOL    HW255734   4.951   2.471   0.213  0.9253 -1.4013 -0.3258
18386SOL     OW55735   0.133   9.742   9.737  0.4183  0.1802 -0.2792
18386SOL    HW155736   0.066   9.790   9.786  1.9190  1.5492  0.5425
18386SOL    HW255737   0.214   9.760   9.785  1.5182 -0.6765 -1.7565
18387SOL     OW55738   9.626   8.349   1.856 -0.3242 -0.1316 -0.5146
18387SOL    HW155739   9.655   8.433   1.821 -0.8109  0.2818  0.0417
18387SOL    HW255740   9.690   8.286   1.824 -1.2038  0.0791 -2.8095
18388SOL     OW55741   8.125   3.344   4.720  0.3159 -0.4433 -0.2132
18388SOL    HW155742   8.091   3.268   4.673  0.3139 -0.4932 -0.1309
18388SOL    HW255743   8.067   3.354   4.796  0.7371 -0.7878  0.1585
18389SOL     OW55744   6.172   6.766   2.081  0.3396 -0.0734  0.3202
18389SOL    HW155745   6.208   6.855   2.074 -0.2112  0.1370  0.0555
18389SOL    HW255746   6.077   6.779   2.077  0.2711 -0.7483 -0.6666
18390SOL     OW55747   1.133   8.619   3.215 -0.2482  0.3884 -0.2339
18390SOL    HW155748   1.107   8.533   3.248  0.0483  0.4449  0.1577
18390SOL    HW255749   1.052   8.657   3.180 -0.2011 -0.4181 -1.2457
18391SOL     OW55750   7.402   0.902   1.644  0.1682  0.4924 -0.1383
18391SOL    HW155751   7.340   0.958   1.691 -0.1285  1.1543 -1.2862
18391SOL    HW255752   7.352   0.822   1.624  0.8555 -0.6503  2.3005
18392SOL     OW55753   7.769   4.486   0.049 -0.1411  0.0206 -0.1073
18392SOL    HW155754   7.729   4.439  -0.024 -0.9834  0.6962 -0.1025
18392SOL    HW255755   7.743   4.437   0.126  1.3058 -1.0829 -0.2742
18393SOL     OW55756   4.005   7.839   5.366 -0.1659  0.0710  0.3855
18393SOL    HW155757   3.914   7.861   5.388  0.1506  0.7744  1.0538
18393SOL    HW255758   4.057   7.897   5.421  0.6935  0.2145 -0.5550
18394SOL     OW55759   2.200   1.011   5.386  0.0270 -0.0620  0.1396
18394SOL    HW155760   2.258   1.084   5.365  1.0909 -0.9869 -0.2372
18394SOL    HW255761   2.112   1.047   5.377  0.5149  1.5301  1.2682
18395SOL     OW55762   4.080   1.897   2.627  0.3333 -0.5273  0.7841
18395SOL    HW155763   4.129   1.846   2.691 -1.2928 -1.9680  0.9682
18395SOL    HW255764   4.030   1.832   2.578  1.6615  0.4815 -2.1680
18396SOL     OW55765   5.932   6.273   0.043  0.3146 -0.8118 -0.2752
18396SOL    HW155766   5.892   6.360   0.054  2.7787  0.3828 -0.0621
18396SOL    HW255767   5.970   6.253   0.129  0.3865 -1.7772 -0.5217
18397SOL     OW55768   9.254   8.897   2.926  0.2035 -0.3036  0.0246
18397SOL    HW155769   9.211   8.928   3.006  1.7150  1.4697  0.2336
18397SOL    HW255770   9.203   8.937   2.855  1.0349  1.2543  0.2525
18398SOL     OW55771   9.014   1.714   1.934 -0.3577 -0.0471 -0.1483
18398SOL    HW155772   9.017   1.722   2.029 -0.8971 -0.4535 -0.0910
18398SOL    HW255773   8.994   1.802   1.903 -2.1468 -0.2901  0.2364
18399SOL     OW55774   4.920   1.180   5.839 -0.0221  0.3706 -0.5031
18399SOL    HW155775   4.934   1.093   5.803  1.1419 -0.0891  0.9536
18399SOL    HW255776   4.969   1.180   5.922 -0.8691  2.0515  0.0464
18400SOL     OW55777   5.579   1.818   2.339 -0.4287  0.5165  0.6362
18400SOL    HW155778   5.522   1.890   2.313 -0.5218 -0.4435 -2.1539
18400SOL    HW255779   5.527   1.739   2.322  0.3925 -0.2906  1.6811
18401SOL     OW55780   7.094   8.624   0.829  0.3125 -0.3058  0.0869
18401SOL    HW155781   7.035   8.690   0.795  0.2734  0.4359  1.5081
18401SOL    HW255782   7.050   8.541   0.811 -0.4300  0.1487 -0.2231
18402SOL     OW55783   6.950   6.579   9.305  0.0684 -0.3630 -0.1263
18402SOL    HW155784   7.010   6.644   9.269  1.5280 -1.6763 -0.2016
18402SOL    HW255785   6.879   6.574   9.241 -0.1157  1.1807 -0.0719
18403SOL     OW55786   9.297   1.145   0.075 -0.0906  0.5823 -0.1981
18403SOL    HW155787   9.227   1.203   0.046 -0.4233  0.6420  0.6975
18403SOL    HW255788   9.260   1.098   0.150  1.1928  1.4726  1.0545
18404SOL     OW55789   6.846   0.950   8.421 -0.1632  0.3637  0.1914
18404SOL    HW155790   6.855   0.865   8.379 -0.9673 -0.1259  0.9831
18404SOL    HW255791   6.863   1.014   8.351 -1.0622 -0.4233 -0.7782
18405SOL     OW55792   7.712   8.114   1.868  0.5590 -0.0549 -0.1773
18405SOL    HW155793   7.661   8.033   1.873  1.8145 -0.9969 -1.6643
18405SOL    HW255794   7.649   8.181   1.842 -0.5231 -0.4956  1.1702
18406SOL     OW55795   5.789   7.694   4.242 -0.1320 -0.0901 -0.2099
18406SOL    HW155796   5.706   7.740   4.259  0.0124 -0.8939  3.2892
18406SOL    HW255797   5.799   7.634   4.315  3.7209  0.1824 -0.3110
18407SOL     OW55798   9.738   7.933   4.509 -0.7095 -0.3445 -0.3227
18407SOL    HW155799   9.680   7.945   4.584  0.4201  2.6361  0.2297
18407SOL    HW255800   9.686   7.960   4.433 -0.8618 -0.2561 -0.1866
18408SOL     OW55801   6.385   1.089   0.161 -0.0193  0.2692  0.1076
18408SOL    HW155802   6.289   1.096   0.162 -0.0688 -0.2760 -0.5909
18408SOL    HW255803   6.412   1.130   0.244 -0.8987 -0.2508  0.6688
18409SOL     OW55804   6.759   4.922   7.416  0.6307  0.0109  0.5176
18409SOL    HW155805   6.775   4.942   7.509 -2.1599 -1.1506  1.3593
18409SOL    HW255806   6.711   4.997   7.383 -0.7035 -0.6971  0.7895
18410SOL     OW55807   5.095   0.083   4.797 -0.2663 -0.0907  1.0037
18410SOL    HW155808   5.093   0.031   4.717 -0.5191 -0.5516  1.3017
18410SOL    HW255809   5.143   0.162   4.773 -0.8380  0.0403  0.2464
18411SOL     OW55810   1.298   9.987   9.162  0.0098 -0.3587  0.1524
18411SOL    HW155811   1.326  10.013   9.075  1.7930  0.0680  0.8104
18411SOL    HW255812   1.345   9.905   9.179 -1.4344 -1.2136  0.1760
18412SOL     OW55813   4.848   7.306   4.211 -0.4837  0.2162 -0.2865
18412SOL    HW155814   4.829   7.388   4.258  1.8308 -0.3104  1.7984
18412SOL    HW255815   4.762   7.269   4.191 -1.5836  2.1317  0.5940
18413SOL     OW55816   8.350   1.039   0.900  0.5478 -0.8522 -0.0520
18413SOL    HW155817   8.412   1.088   0.954 -0.0468 -1.6153  1.3769
18413SOL    HW255818   8.365   1.071   0.811 -0.5670  2.7670  0.9085
18414SOL     OW55819   7.983   3.035   9.948 -0.5633  0.7355 -0.0764
18414SOL    HW155820   7.954   3.122   9.976 -1.6337  0.2328  0.4408
18414SOL    HW255821   8.045   3.052   9.877  0.2735  1.9628  0.9111
18415SOL     OW55822   7.897   5.318   9.578 -0.2571  0.2720 -0.1723
18415SOL    HW155823   7.853   5.251   9.527  0.7133  0.5458 -1.4411
18415SOL    HW255824   7.895   5.286   9.668  0.2204 -1.4953 -0.7448
18416SOL     OW55825   9.540   5.791   1.925 -0.2519 -0.7311 -0.5626
18416SOL    HW155826   9.588   5.861   1.880 -0.0012 -0.9192 -0.5924
18416SOL    HW255827   9.520   5.826   2.011 -0.4609 -0.4823 -0.7120
18417SOL     OW55828   1.500   8.116   2.766  0.1248  0.1448 -0.2645
18417SOL    HW155829   1.445   8.194   2.771  0.5953  0.4369  0.7283
18417SOL    HW255830   1.531   8.103   2.856  2.6091  0.6887 -0.9675
18418SOL     OW55831   7.421   8.084   5.765 -0.4015 -0.4909  0.2403
18418SOL    HW155832   7.495   8.126   5.721 -1.7842  1.6370 -0.1642
18418SOL    HW255833   7.457   8.052   5.847  1.6571 -2.3027 -1.2234
18419SOL     OW55834   3.333   3.279   0.438 -0.0258 -0.0673  0.5028
18419SOL    HW155835   3.412   3.275   0.383 -0.8942 -0.9566 -0.7531
18419SOL    HW255836   3.295   3.191   0.432 -1.8773  0.7199 -0.1201
18420SOL     OW55837   1.725   6.381   0.751 -0.5556  0.0143  0.1668
18420SOL    HW155838   1.694   6.471   0.746  2.3955  1.1278  0.0324
18420SOL    HW255839   1.790   6.381   0.822  0.3579 -1.7144 -0.5958
18421SOL     OW55840   5.871   1.669   1.729 -1.2006 -0.0285  0.5418
18421SOL    HW155841   5.795   1.615   1.708  0.7604 -2.3771 -1.0998
18421SOL    HW255842   5.886   1.653   1.823 -2.8174  0.7085  0.9688
18422SOL     OW55843   3.431   5.726   6.249 -0.1205 -0.5824 -0.0178
18422SOL    HW155844   3.356   5.705   6.193  0.3864  0.2376 -1.0320
18422SOL    HW255845   3.450   5.643   6.294 -2.4339 -0.5070  1.3090
18423SOL     OW55846   4.117   2.441   2.178 -0.4410 -0.3485  0.1819
18423SOL    HW155847   4.045   2.393   2.218 -1.4781  0.1186 -1.0185
18423SOL    HW255848   4.144   2.387   2.104  0.2982 -0.4059  0.4862
18424SOL     OW55849   8.225   9.407   4.166 -0.5006  0.4058 -0.0545
18424SOL    HW155850   8.286   9.369   4.229  1.8019  0.9494 -1.8083
18424SOL    HW255851   8.255   9.374   4.081 -1.7422  1.9023 -1.1380
18425SOL     OW55852   8.437   0.686   6.076 -0.0446 -0.5663  0.4895
18425SOL    HW155853   8.477   0.752   6.133  2.7615 -1.2957 -0.4968
18425SOL    HW255854   8.501   0.615   6.072 -1.4016 -1.7931 -1.3339
18426SOL     OW55855   0.743   5.735   1.585  0.4494 -0.6243  0.6496
18426SOL    HW155856   0.782   5.650   1.607  1.2467 -0.6720 -0.7819
18426SOL    HW255857   0.799   5.799   1.629  1.0691 -0.7745  0.1038
18427SOL     OW55858   7.357   6.607   0.645 -0.2504 -0.3607  0.0539
18427SOL    HW155859   7.266   6.578   0.648 -1.0890  1.8310 -1.4383
18427SOL    HW255860   7.382   6.617   0.736 -1.0048 -2.3229  0.5218
18428SOL     OW55861   3.012   6.988   7.177  0.4859  0.0885 -0.0673
18428SOL    HW155862   2.995   7.051   7.107  0.0932  1.6533  1.3871
18428SOL    HW255863   3.073   6.924   7.137 -1.9697 -0.8143 -2.7363
18429SOL     OW55864   7.497   3.050   2.696 -0.1685  0.3169  0.1149
18429SOL    HW155865   7.562   2.987   2.665  0.6656  0.6714  1.0979
18429SOL    HW255866   7.491   3.115   2.626 -0.3135 -0.3187 -0.4763
18430SOL     OW55867   6.960   7.339   2.242 -0.0808 -0.0915 -0.0493
18430SOL    HW155868   6.910   7.270   2.286  1.4076 -0.8672  0.5079
18430SOL    HW255869   7.030   7.292   2.196  1.1777  1.0464  0.6230
18431SOL     OW55870   5.590   8.001   2.494  0.3699 -0.0115  0.2868
18431SOL    HW155871   5.643   7.928   2.462 -0.6383 -1.1459  1.0977
18431SOL    HW255872   5.517   8.007   2.433  0.5262  0.4083  0.1416
18432SOL     OW55873   3.512   8.849   3.772  0.2687 -0.1775  0.1445
18432SOL    HW155874   3.507   8.944   3.787 -0.8727 -0.5198  2.3965
18432SOL    HW255875   3.571   8.840   3.697 -0.1531  2.3360 -0.5977
18433SOL     OW55876   5.680   7.648   7.803  0.7027  0.4810 -0.4298
18433SOL    HW155877   5.661   7.593   7.728 -0.8836 -0.3788  0.5682
18433SOL    HW255878   5.667   7.737   7.771 -0.0512  0.1249 -1.1516
18434SOL     OW55879   2.133   7.998   4.083 -0.0482 -0.1406  0.7295
18434SOL    HW155880   2.193   8.038   4.147 -0.8220 -0.1206  1.4624
18434SOL    HW255881   2.098   7.921   4.129  1.6667 -1.9383 -0.7584
18435SOL     OW55882   7.712   8.908   0.975  0.2319  0.1004 -0.5259
18435SOL    HW155883   7.782   8.843   0.975  1.1495  1.0558 -0.8466
18435SOL    HW255884   7.754   8.990   0.947 -0.6411  1.0931  0.8950
18436SOL     OW55885   9.121   3.648   8.047 -0.0528  0.1985  0.2614
18436SOL    HW155886   9.069   3.633   8.126  0.0252 -0.9067  0.1174
18436SOL    HW255887   9.158   3.562   8.025 -0.0816  0.4772 -0.9825
18437SOL     OW55888   9.183   1.206   3.515  0.1825  0.6075  0.5702
18437SOL    HW155889   9.190   1.302   3.520 -0.0898  0.7375 -1.0007
18437SOL    HW255890   9.193   1.187   3.421 -1.5781 -0.7600  0.6330
18438SOL     OW55891   4.334   2.081   9.627 -0.2931  0.2331 -0.2888
18438SOL    HW155892   4.396   2.066   9.699 -1.7710  1.3508  1.2913
18438SOL    HW255893   4.388   2.079   9.548  1.4794 -0.4789  0.8885
18439SOL     OW55894   7.161   7.202   0.605  0.0201  0.1304  0.0154
18439SOL    HW155895   7.190   7.258   0.533  0.0001  0.0599 -0.0480
18439SOL    HW255896   7.206   7.119   0.590 -0.8076 -0.2321 -0.5263
18440SOL     OW55897   5.605   7.222   4.844  0.3892 -0.3903 -0.4090
18440SOL    HW155898   5.525   7.222   4.791  0.2846 -0.5328 -0.2527
18440SOL    HW255899   5.613   7.131   4.874 -0.0511 -0.1174  0.5667
18441SOL     OW55900   4.557   3.931   8.771 -0.6458  0.1022  0.6898
18441SOL    HW155901   4.647   3.964   8.761 -0.9830  0.7891 -0.2642
18441SOL    HW255902   4.510   4.004   8.811 -1.0451  0.2093  0.0418
18442SOL     OW55903   5.302   1.370   3.460 -0.3548  0.4114 -0.1976
18442SOL    HW155904   5.219   1.358   3.506 -0.6000 -0.0794 -0.7631
18442SOL    HW255905   5.336   1.454   3.493 -0.1855 -0.2636  1.3866
18443SOL     OW55906   4.475   6.441   9.803  0.2433 -0.3215  0.6990
18443SOL    HW155907   4.555   6.388   9.801 -1.5509 -3.2080  0.2279
18443SOL    HW255908   4.439   6.432   9.715 -1.1745  0.0035  1.2322
18444SOL     OW55909   6.586   3.593   6.813 -0.1482 -0.3459 -0.3974
18444SOL    HW155910   6.630   3.673   6.841 -1.6518  0.1495  0.6088
18444SOL    HW255911   6.496   3.619   6.796 -0.9112 -1.9984  0.8711
18445SOL     OW55912   3.177   0.998   1.643  0.2294 -0.0834 -0.0204
18445SOL    HW155913   3.154   0.911   1.674  0.2834 -0.1527 -0.1744
18445SOL    HW255914   3.249   0.984   1.582  0.6511  0.1299  0.4232
18446SOL     OW55915   7.312   2.025   2.460 -0.1715 -0.2858 -0.0450
18446SOL    HW155916   7.284   1.973   2.536  1.3857 -0.5772  0.3621
18446SOL    HW255917   7.249   2.003   2.392  0.0302 -2.2021  0.3299
18447SOL     OW55918   9.307   5.259   2.043 -0.0196 -0.2213 -0.4441
18447SOL    HW155919   9.346   5.331   1.994 -2.5160  0.1528 -2.0841
18447SOL    HW255920   9.363   5.184   2.025  1.0267  0.6757 -1.0635
18448SOL     OW55921   2.170   0.050   8.225 -0.0825  0.4107  0.6716
18448SOL    HW155922   2.214   0.003   8.296  1.1077  0.8945  0.2704
18448SOL    HW255923   2.114  -0.017   8.184  0.0100 -0.1299  1.4000
18449SOL     OW55924   3.036   4.251   1.981 -0.3552  0.8283  0.3286
18449SOL    HW155925   3.117   4.245   1.931  0.3102 -2.1227  1.5700
18449SOL    HW255926   3.054   4.319   2.047  0.5933  1.1451 -0.2402
18450SOL     OW55927   6.700   4.735   0.078 -0.2573 -0.8823  0.3282
18450SOL    HW155928   6.794   4.746   0.094 -0.3018 -1.9985  1.5484
18450SOL    HW255929   6.694   4.717  -0.016  0.9462 -2.3856  0.4861
18451SOL     OW55930   0.630   7.327   8.268  0.1041  0.0251 -0.1342
18451SOL    HW155931   0.578   7.398   8.307 -0.0623 -0.2569  0.1542
18451SOL    HW255932   0.632   7.349   8.174 -0.8885 -0.1803 -0.2169
18452SOL     OW55933   2.265   3.186   7.820  0.1165 -0.1579 -0.2701
18452SOL    HW155934   2.270   3.257   7.884  1.8145  1.0194 -1.6120
18452SOL    HW255935   2.220   3.225   7.745 -0.5116 -1.0630 -0.3812
18453SOL     OW55936   4.441   7.719   5.111 -0.1721 -0.1624  0.0870
18453SOL    HW155937   4.536   7.731   5.106 -0.3401  1.2382 -0.0804
18453SOL    HW255938   4.430   7.634   5.154  1.1469  0.1882  1.1946
18454SOL     OW55939   0.348   3.867   7.032  0.4349  0.3998 -0.5478
18454SOL    HW155940   0.430   3.820   7.051 -0.9171 -1.3585  1.3023
18454SOL    HW255941   0.327   3.913   7.113 -0.1178  1.3502 -1.2149
18455SOL     OW55942   7.118   1.659   1.844 -0.5808 -0.7176  0.4860
18455SOL    HW155943   7.052   1.719   1.877 -0.5522 -1.6279  2.3233
18455SOL    HW255944   7.198   1.684   1.890  0.3951  0.2974 -1.6232
18456SOL     OW55945   1.848   9.186   1.483  0.0158  0.0073 -0.0878
18456SOL    HW155946   1.925   9.140   1.448  0.1827  0.3271 -0.1455
18456SOL    HW255947   1.794   9.117   1.520 -0.7134 -0.5201 -1.9796
18457SOL     OW55948   5.099   1.457   0.570  0.0462  0.1547  0.5002
18457SOL    HW155949   5.113   1.474   0.663  1.9216 -0.8358  0.4478
18457SOL    HW255950   5.147   1.527   0.526 -0.5124  0.3924  0.2588
18458SOL     OW55951   3.360   9.373   7.973  0.1454 -0.2305 -0.3361
18458SOL    HW155952   3.340   9.319   8.050 -1.6091  3.2976  1.9632
18458SOL    HW255953   3.453   9.393   7.981  0.3012 -1.0803  0.0549
18459SOL     OW55954   3.972   3.943   8.412 -0.3000  0.3915 -0.2049
18459SOL    HW155955   3.955   3.878   8.479 -0.2583  1.4821  0.9030
18459SOL    HW255956   4.066   3.936   8.394 -0.6936 -1.4130 -1.8089
18460SOL     OW55957   2.348   7.985   9.723 -0.0890  0.1463 -0.0669
18460SOL    HW155958   2.350   7.985   9.627 -0.0978 -0.8331 -0.0814
18460SOL    HW255959   2.398   7.908   9.747 -0.3867  0.1917  0.7111
18461SOL     OW55960   7.260   3.918   1.835 -0.3928  0.7459 -0.1858
18461SOL    HW155961   7.220   3.937   1.920  0.8340  2.0615  0.1402
18461SOL    HW255962   7.251   3.823   1.825 -1.2752  0.6755  1.0340
18462SOL     OW55963   2.465   6.492   0.397  0.3690  0.1696 -0.0027
18462SOL    HW155964   2.498   6.549   0.467 -0.2459  0.0280  0.4149
18462SOL    HW255965   2.389   6.450   0.435  0.5301 -0.5672 -0.4791
18463SOL     OW55966   8.933   0.952   7.527 -0.0076 -0.1404  0.3891
18463SOL    HW155967   8.965   1.036   7.496 -2.2326  0.4939 -0.3580
18463SOL    HW255968   9.009   0.912   7.570  1.7268  1.2201 -1.2406
18464SOL     OW55969   7.186   8.290   9.712  0.0398  0.2552 -0.1846
18464SOL    HW155970   7.177   8.379   9.744 -0.5214 -0.3989  1.6036
18464SOL    HW255971   7.258   8.294   9.649  0.0214  1.9585 -0.1289
18465SOL     OW55972   5.743   8.200   1.950  0.1268 -0.0039 -0.7546
18465SOL    HW155973   5.657   8.202   1.909 -0.0800  0.6776 -0.3048
18465SOL    HW255974   5.786   8.280   1.920  0.3815 -0.0533 -0.5256
18466SOL     OW55975   4.147   8.669   0.679  0.1058  0.2708 -0.4219
18466SOL    HW155976   4.108   8.720   0.608 -2.0276  0.1087  0.5503
18466SOL    HW255977   4.093   8.590   0.685  0.6482 -0.0307  0.9343
18467SOL     OW55978   4.296   1.352   0.079 -0.1973 -0.4085 -0.3841
18467SOL    HW155979   4.232   1.310   0.021 -0.5259  0.0148 -0.3354
18467SOL    HW255980   4.279   1.445   0.069 -0.0903 -0.3226  0.2054
18468SOL     OW55981   2.672   2.406   6.061  0.1105  0.5699 -0.4267
18468SOL    HW155982   2.762   2.377   6.051  0.3676  0.7626  1.0773
18468SOL    HW255983   2.620   2.341   6.014  1.0150  0.3963 -1.2139
18469SOL     OW55984   4.596   6.207   8.934  0.4177 -0.8162  0.7032
18469SOL    HW155985   4.614   6.198   9.028  0.0731  0.1158  0.8719
18469SOL    HW255986   4.682   6.216   8.893  0.5057  0.8637  1.1832
18470SOL     OW55987   3.669   7.508   0.842  0.3287  0.5815  0.0174
18470SOL    HW155988   3.760   7.479   0.840 -0.1093 -0.8655 -0.0297
18470SOL    HW255989   3.656   7.540   0.932  1.8079  4.1807 -0.8442
18471SOL     OW55990   6.284   9.104   5.369 -0.2124 -0.0803  0.1562
18471SOL    HW155991   6.345   9.151   5.424  2.2445 -2.5237 -0.2732
18471SOL    HW255992   6.224   9.062   5.430 -0.2380  0.7131  0.6952
18472SOL     OW55993   4.549   3.934   3.392 -0.1874  0.0200  0.0464
18472SOL    HW155994   4.490   3.980   3.452 -0.0805 -1.2624  1.1836
18472SOL    HW255995   4.524   3.965   3.305  1.5361  4.1333  0.8117
18473SOL     OW55996   2.239   0.458   8.855  0.5010  0.9892 -0.0697
18473SOL    HW155997   2.198   0.517   8.792  0.4275  0.6392 -0.3496
18473SOL    HW255998   2.283   0.392   8.802 -2.0119 -1.0753  0.1932
18474SOL     OW55999   8.361   4.278   9.506  0.2854  0.9749  0.4148
18474SOL    HW156000   8.373   4.187   9.532 -0.4972  0.5777 -0.5735
18474SOL    HW256001   8.419   4.327   9.565  0.4017 -0.1081  1.2400
18475SOL     OW56002   7.834   7.056   4.426  0.0979 -0.2361 -0.0607
18475SOL    HW156003   7.813   7.126   4.365  1.6833 -0.1683 -0.5676
18475SOL    HW256004   7.756   7.000   4.426 -0.0231 -0.1245 -1.9829
18476SOL     OW56005   6.747   2.727   8.940  0.3990 -0.3311  0.8229
18476SOL    HW156006   6.796   2.783   8.999  1.7722 -0.1049 -0.4760
18476SOL    HW256007   6.813   2.690   8.881 -0.7635 -1.4854  0.1816
18477SOL     OW56008   2.996   0.465   9.203 -0.0963 -0.1763  0.3914
18477SOL    HW156009   3.083   0.426   9.215 -0.2096 -0.8604 -0.8224
18477SOL    HW256010   2.977   0.453   9.110 -1.7153 -0.4982  0.7320
18478SOL     OW56011   3.713   5.731   1.574  0.5287 -0.0801 -0.7832
18478SOL    HW156012   3.681   5.674   1.644  0.9922  0.2245 -0.3208
18478SOL    HW256013   3.704   5.678   1.495  1.4734 -1.0167 -0.2927
18479SOL     OW56014   8.660   7.327   3.061  0.0258 -0.3437 -0.2753
18479SOL    HW156015   8.586   7.280   3.022 -0.4236  1.2147 -1.4206
18479SOL    HW256016   8.625   7.364   3.142  0.4279 -2.0491  0.7165
18480SOL     OW56017   0.569   1.995   7.322  0.1670 -0.3556 -0.2221
18480SOL    HW156018   0.609   2.082   7.320 -1.8093  0.6138 -1.4972
18480SOL    HW256019   0.475   2.013   7.334  0.0885 -2.5373  4.7395
18481SOL     OW56020   3.478   2.768   9.555 -0.0016 -0.3873  0.5579
18481SOL    HW156021   3.433   2.685   9.574  1.0979 -1.2332 -0.3982
18481SOL    HW256022   3.445   2.828   9.622  2.0104 -2.5698  3.8469
18482SOL     OW56023   3.180   4.611   3.749 -0.2469  0.4637  0.3450
18482SOL    HW156024   3.272   4.621   3.774 -0.9176  1.2965  2.7321
18482SOL    HW256025   3.155   4.526   3.784 -0.5666  0.5362  0.2915
18483SOL     OW56026   4.547   9.064   8.456 -0.2106 -0.1467 -0.3110
18483SOL    HW156027   4.499   9.145   8.470 -0.2548 -0.4235  1.2440
18483SOL    HW256028   4.509   9.002   8.517  0.5641 -1.0391 -0.7020
18484SOL     OW56029   1.451   6.232   0.246  0.4807 -0.3392 -0.3384
18484SOL    HW156030   1.393   6.263   0.315  0.3387  0.1828 -0.6785
18484SOL    HW256031   1.402   6.162   0.203 -0.1646  0.4884 -0.9946
18485SOL     OW56032   4.143   8.768   5.145  0.2756 -0.1185  0.1627
18485SOL    HW156033   4.129   8.697   5.208 -0.5411 -1.5654 -1.5644
18485SOL    HW256034   4.237   8.787   5.151  0.4870 -1.2540  0.7494
18486SOL     OW56035   8.815   0.680   2.846  0.8228  0.0245  0.0215
18486SOL    HW156036   8.834   0.774   2.849  0.4250  0.2110 -1.8065
18486SOL    HW256037   8.749   0.667   2.913 -1.0582  1.6059 -1.3938
18487SOL     OW56038   7.537   8.853   4.200  0.1143  0.4096 -0.6186
18487SOL    HW156039   7.625   8.829   4.229 -0.2244 -0.0134  0.0630
18487SOL    HW256040   7.541   8.948   4.189  0.2938  0.5657  0.6664
18488SOL     OW56041   6.042   1.717   8.774 -0.1838  0.2870  0.7781
18488SOL    HW156042   5.966   1.765   8.742  1.1768  2.1294  0.0905
18488SOL    HW256043   6.055   1.647   8.712 -0.8619  0.4334  0.4652
18489SOL     OW56044   6.495   9.869   0.165  0.1993 -0.1974  0.3363
18489SOL    HW156045   6.407   9.902   0.182  0.7854  1.7634 -0.0980
18489SOL    HW256046   6.552   9.921   0.221  1.3800  1.0306 -1.8315
18490SOL     OW56047   0.494   1.196   8.526 -0.1489  0.5838  0.0451
18490SOL    HW156048   0.449   1.126   8.573  0.8070  0.0640  0.2108
18490SOL    HW256049   0.528   1.253   8.596  0.4653  0.3202 -0.0290
18491SOL     OW56050   7.580   3.537   6.566  0.1654 -0.3747  0.2240
18491SOL    HW156051   7.631   3.603   6.519 -0.6763 -0.6202 -1.1072
18491SOL    HW256052   7.518   3.505   6.500 -0.3418 -1.5148  1.2346
18492SOL     OW56053   5.535   4.923   5.153  0.1647 -0.5547  0.2431
18492SOL    HW156054   5.466   4.876   5.106  0.0706  0.5272 -0.7438
18492SOL    HW256055   5.526   4.893   5.244 -2.6288  0.6854  0.4923
18493SOL     OW56056   6.675   8.865   9.576  0.0140  0.1991  0.1756
18493SOL    HW156057   6.766   8.862   9.544 -0.1618  2.2852 -0.6848
18493SOL    HW256058   6.622   8.860   9.496 -0.5753  0.6946  0.5316
18494SOL     OW56059   1.020   6.410   0.916 -0.0969  0.4542  0.4883
18494SOL    HW156060   1.054   6.340   0.971  0.6864 -0.1573 -0.7366
18494SOL    HW256061   1.040   6.491   0.965  0.5523 -0.0656  1.1092
18495SOL     OW56062   9.299   5.741   7.561 -0.3615 -0.2681 -0.1812
18495SOL    HW156063   9.340   5.827   7.553  0.5991 -0.5143  1.4924
18495SOL    HW256064   9.252   5.744   7.645 -0.8497 -1.1569 -0.4045
18496SOL     OW56065   7.971   2.642   7.338 -0.3477  0.4349 -0.3366
18496SOL    HW156066   7.882   2.665   7.363 -0.9839  2.1139 -3.5420
18496SOL    HW256067   7.962   2.602   7.252  2.0624  2.7034 -1.7894
18497SOL     OW56068   6.252   2.421   3.967  0.3211 -0.4552  0.2008
18497SOL    HW156069   6.214   2.433   4.054  0.6604 -0.1995  0.3149
18497SOL    HW256070   6.194   2.358   3.924 -0.9621  0.8492 -0.0757
18498SOL     OW56071   5.647   4.179   6.149  0.7626 -0.2989  0.0249
18498SOL    HW156072   5.644   4.084   6.154 -0.9851 -0.2739  0.0868
18498SOL    HW256073   5.697   4.197   6.069  4.7427 -1.1210  2.0809
18499SOL     OW56074   7.304   6.510   2.637  0.2636 -0.4755 -0.6099
18499SOL    HW156075   7.254   6.432   2.662  0.2479  0.3055  2.0582
18499SOL    HW256076   7.392   6.477   2.620 -0.0032 -1.2244 -0.5880
18500SOL     OW56077   6.401   3.831   6.426 -0.1408 -0.1527 -0.1539
18500SOL    HW156078   6.412   3.738   6.409  0.9095 -0.1193  0.3107
18500SOL    HW256079   6.335   3.859   6.362 -0.4686 -1.2028 -0.2956
18501SOL     OW56080   5.555   9.580   3.401 -0.3918  0.6317  0.1642
18501SOL    HW156081   5.507   9.545   3.476 -0.2138 -1.5232 -0.6538
18501SOL    HW256082   5.487   9.605   3.338 -0.4982  0.7393  0.3206
18502SOL     OW56083   6.138   3.641   5.416  0.4373 -0.1715  0.4528
18502SOL    HW156084   6.154   3.650   5.510  1.2243 -0.0101  0.3063
18502SOL    HW256085   6.204   3.696   5.374  0.3477 -0.5497 -0.2089
18503SOL     OW56086   1.463   8.013   6.704  0.3037 -0.1849  0.0754
18503SOL    HW156087   1.440   7.978   6.618  0.7955 -1.3327  0.4000
18503SOL    HW256088   1.399   7.974   6.763  0.0404  0.5119  0.2602
18504SOL     OW56089   5.908   4.292   9.810  0.4198  0.5997 -0.0084
18504SOL    HW156090   5.915   4.277   9.716 -0.3698 -0.7858  0.1308
18504SOL    HW256091   5.928   4.385   9.821  1.4075  0.5842 -1.4346
18505SOL     OW56092   5.331   5.331   7.622  0.0985 -0.0464 -0.4760
18505SOL    HW156093   5.267   5.261   7.605  0.5423 -0.8507  0.9880
18505SOL    HW256094   5.295   5.377   7.698 -0.1520  1.3169 -1.3845
18506SOL     OW56095   6.407   4.165   7.416 -0.2428  0.2917  0.0080
18506SOL    HW156096   6.384   4.093   7.474 -2.1898  0.5335 -0.3830
18506SOL    HW256097   6.442   4.123   7.337 -1.3754 -0.2414 -0.2239
18507SOL     OW56098   6.898   8.613   3.956  0.8106 -0.0503  0.6492
18507SOL    HW156099   6.855   8.642   4.036  0.5641  1.5712 -0.0250
18507SOL    HW256100   6.859   8.667   3.887  1.3576 -1.0693 -0.5011
18508SOL     OW56101   2.919   6.283   7.603 -0.1415  0.2059 -0.6561
18508SOL    HW156102   2.932   6.270   7.697  2.2541  1.0919 -0.8052
18508SOL    HW256103   2.888   6.373   7.596 -2.1409 -0.4260 -0.6525
18509SOL     OW56104   3.521   1.666   2.470 -0.6008 -0.2060 -0.0377
18509SOL    HW156105   3.511   1.592   2.530  0.5308  0.4277  1.0078
18509SOL    HW256106   3.502   1.743   2.524 -0.2378  0.3471 -0.6818
18510SOL     OW56107   6.665   7.697   3.407  0.1746  0.1085 -0.6793
18510SOL    HW156108   6.670   7.725   3.316 -0.5854 -2.1061 -1.4690
18510SOL    HW256109   6.572   7.682   3.422  0.3258  0.1851  0.3827
18511SOL     OW56110   1.531   1.535   5.888 -0.0796 -0.0779  0.1611
18511SOL    HW156111   1.562   1.625   5.894 -1.1766  0.3550 -0.3501
18511SOL    HW256112   1.475   1.523   5.965  2.1126 -1.2169  1.7050
18512SOL     OW56113   4.913   2.649   0.620  0.1965  0.0802  0.2911
18512SOL    HW156114   4.855   2.664   0.545 -1.6685 -1.6175  1.2789
18512SOL    HW256115   4.998   2.632   0.581 -0.3589  0.8579 -1.3440
18513SOL     OW56116   9.374   0.469   7.488 -0.1184 -0.3476 -0.4316
18513SOL    HW156117   9.435   0.542   7.474 -0.8774  0.1211 -1.3765
18513SOL    HW256118   9.289   0.504   7.464 -0.7099 -1.1423  0.4474
18514SOL     OW56119   2.560   5.204   6.717 -0.0920  0.6594  0.1790
18514SOL    HW156120   2.592   5.169   6.633 -0.1791 -0.2243  0.5062
18514SOL    HW256121   2.558   5.128   6.775 -1.2824  1.0125  0.6150
18515SOL     OW56122   8.201   2.918   1.672  0.4646 -0.4896  0.5687
18515SOL    HW156123   8.140   2.951   1.738 -0.3375 -1.7053  0.4916
18515SOL    HW256124   8.198   2.823   1.683  1.3274 -0.6411 -0.3461
18516SOL     OW56125   5.949   8.404   8.571  0.1355 -0.0368  0.5166
18516SOL    HW156126   6.012   8.374   8.506 -0.9793 -2.0566  0.3107
18516SOL    HW256127   6.003   8.429   8.646  1.3165  0.6600 -0.5186
18517SOL     OW56128   3.579   1.848   8.517  0.0103  0.0217 -0.3001
18517SOL    HW156129   3.661   1.851   8.467 -0.9702  1.3495 -1.9160
18517SOL    HW256130   3.512   1.827   8.453 -0.9456 -1.1525  1.0174
18518SOL     OW56131   8.698   0.240   2.621 -0.2365 -0.3005  0.6844
18518SOL    HW156132   8.757   0.169   2.598 -0.1556 -0.4859  1.4417
18518SOL    HW256133   8.749   0.296   2.680 -0.4261  0.1760  0.4043
18519SOL     OW56134   7.598   1.321   7.286 -0.5039 -0.1089 -0.4269
18519SOL    HW156135   7.514   1.364   7.270 -0.9998 -0.3631  1.2573
18519SOL    HW256136   7.606   1.319   7.382 -0.0865 -2.9152 -0.4237
18520SOL     OW56137   6.351   0.929   8.945 -0.4867  0.2168 -0.4971
18520SOL    HW156138   6.302   0.977   8.878  1.9154  1.1037 -1.7295
18520SOL    HW256139   6.406   0.995   8.987 -0.7542 -0.6263  1.2877
18521SOL     OW56140   2.700   6.316   6.913 -0.0695 -0.6962  0.7499
18521SOL    HW156141   2.782   6.346   6.953  0.4503 -0.5089 -0.4242
18521SOL    HW256142   2.635   6.328   6.982  0.8376 -0.6283  1.6347
18522SOL     OW56143   5.168   3.632   0.090 -0.1666  0.0854 -0.6545
18522SOL    HW156144   5.109   3.684   0.145 -1.9955 -1.8197 -0.6359
18522SOL    HW256145   5.119   3.619   0.008 -0.0060 -1.8592 -0.5048
18523SOL     OW56146   3.951   4.840   6.722 -0.2209 -0.1718 -0.3486
18523SOL    HW156147   4.044   4.827   6.704 -0.2427 -0.2690 -0.3896
18523SOL    HW256148   3.945   4.840   6.818 -0.3563 -1.4337 -0.3411
18524SOL     OW56149   9.321   8.059   7.156 -0.4443  0.1621 -0.0101
18524SOL    HW156150   9.354   8.147   7.173  0.1856 -0.2818  1.2313
18524SOL    HW256151   9.315   8.019   7.243 -1.2188 -0.8445 -0.5098
18525SOL     OW56152   9.094   3.718   5.629  0.2129  0.2259 -0.1174
18525SOL    HW156153   9.154   3.758   5.693 -0.1149 -0.2531  0.4944
18525SOL    HW256154   9.011   3.764   5.643  0.2263  0.3503 -0.4344
18526SOL     OW56155   9.262   0.840   9.192 -0.2230 -0.1427  0.3631
18526SOL    HW156156   9.190   0.855   9.253 -0.2893  1.1826 -0.0138
18526SOL    HW256157   9.236   0.763   9.142 -1.6145  0.5983 -0.1002
18527SOL     OW56158   6.684   0.204   6.059 -0.3038  0.3873  0.4147
18527SOL    HW156159   6.734   0.233   5.982  0.0603  0.9140  0.8403
18527SOL    HW256160   6.614   0.150   6.023  0.1761  0.1943 -0.2474
18528SOL     OW56161   2.862   7.788   5.579 -0.4835 -0.1874 -0.0837
18528SOL    HW156162   2.862   7.751   5.491  0.1352  0.6425 -0.4451
18528SOL    HW256163   2.951   7.820   5.592 -1.1442  1.7372 -0.0349
18529SOL     OW56164   8.476   0.935   2.796  0.0840 -0.5401  0.0536
18529SOL    HW156165   8.543   0.991   2.834  0.9001 -0.5134 -1.3593
18529SOL    HW256166   8.461   0.867   2.861  1.5744 -0.6059  0.3504
18530SOL     OW56167   5.564   0.841   7.296  0.6153 -0.4076  0.3310
18530SOL    HW156168   5.659   0.845   7.287  0.5764  0.5388  0.2650
18530SOL    HW256169   5.532   0.833   7.207  0.5661  1.0974  0.1954
18531SOL     OW56170   3.958   6.671   3.207 -0.0606  0.3780 -0.1874
18531SOL    HW156171   3.885   6.613   3.229 -0.2951  0.5223 -0.5675
18531SOL    HW256172   4.009   6.623   3.142  0.8703 -0.2239  0.9357
18532SOL     OW56173   8.148   3.793   5.629  0.1293 -0.1343 -0.0958
18532SOL    HW156174   8.127   3.744   5.708  0.8871 -0.3664 -0.0291
18532SOL    HW256175   8.197   3.731   5.575  1.5044  0.6728  0.1899
18533SOL     OW56176   6.224   5.518   1.554 -0.2025  1.0068  0.0343
18533SOL    HW156177   6.270   5.441   1.589 -0.8022  0.8343  0.4657
18533SOL    HW256178   6.162   5.482   1.490 -0.1308  1.1798 -0.1318
18534SOL     OW56179   7.412   0.237   9.479 -0.1237 -0.0851 -0.0343
18534SOL    HW156180   7.435   0.205   9.392 -0.9385  0.0726 -0.3099
18534SOL    HW256181   7.328   0.195   9.499 -0.3771  0.5741  0.3022
18535SOL     OW56182   7.084   4.064   3.143 -0.0007  0.5735  0.5272
18535SOL    HW156183   7.126   3.982   3.115 -0.4093 -0.0541  1.6721
18535SOL    HW256184   7.150   4.107   3.197  0.5552  1.4745 -0.8270
18536SOL     OW56185   4.539   1.427   8.973 -0.4892 -0.2500 -0.3754
18536SOL    HW156186   4.475   1.476   8.921 -0.5014 -0.5483 -0.6496
18536SOL    HW256187   4.545   1.342   8.928  2.3598  0.7795 -2.2035
18537SOL     OW56188   3.429   9.914   6.358  0.1133  0.6687 -0.5568
18537SOL    HW156189   3.395   9.984   6.303  0.2995 -0.1584 -1.7782
18537SOL    HW256190   3.385   9.925   6.442  0.3200  2.3676 -0.6497
18538SOL     OW56191   3.364   7.962   8.732 -0.4950  0.5432 -0.1156
18538SOL    HW156192   3.348   7.892   8.796  0.3790  1.0038  0.6392
18538SOL    HW256193   3.419   7.920   8.665  0.6521  0.6528  0.7099
18539SOL     OW56194   8.593  -0.009   1.557  0.2793 -1.5130 -0.5713
18539SOL    HW156195   8.667   0.046   1.582  0.4877 -1.1379 -1.9250
18539SOL    HW256196   8.529   0.002   1.628  0.0774  0.9287 -1.0665
18540SOL     OW56197   1.672   5.349   2.859 -0.7475  0.4493 -0.4397
18540SOL    HW156198   1.669   5.420   2.922 -1.6083  1.8060 -1.9485
18540SOL    HW256199   1.640   5.387   2.777  0.4385 -1.1953 -1.7592
18541SOL     OW56200   8.950   8.056   2.930  0.8767 -0.5340 -0.3319
18541SOL    HW156201   8.937   8.143   2.891 -1.9822 -0.7377 -0.0199
18541SOL    HW256202   8.943   8.071   3.024 -1.1288 -1.2468 -0.3250
18542SOL     OW56203   3.289   2.052   6.606 -0.2494  0.4225  0.4030
18542SOL    HW156204   3.205   2.010   6.587  0.2649  0.0203 -1.1173
18542SOL    HW256205   3.317   2.089   6.522  2.1772 -1.4387  0.2819
18543SOL     OW56206   3.738   3.596   7.893 -0.1075  0.2064  0.1685
18543SOL    HW156207   3.706   3.552   7.815 -0.7041  1.2235 -0.1816
18543SOL    HW256208   3.812   3.650   7.863  0.5417 -0.4513  0.5668
18544SOL     OW56209   4.818   3.911   7.741 -0.1141  0.5947 -0.0571
18544SOL    HW156210   4.904   3.952   7.753 -0.0774  0.4215  0.3072
18544SOL    HW256211   4.816   3.842   7.808  0.2534 -0.6906 -1.3111
18545SOL     OW56212   5.111   2.555   2.073 -0.3388 -0.1697  0.0100
18545SOL    HW156213   5.109   2.648   2.047  1.3640  0.0844  0.6531
18545SOL    HW256214   5.156   2.511   2.000  1.2301 -0.0243  0.8373
18546SOL     OW56215   7.180   5.470   9.897  0.3452 -0.4968 -0.2480
18546SOL    HW156216   7.209   5.554   9.934 -1.1502  0.4417 -1.1315
18546SOL    HW256217   7.190   5.481   9.803  0.3874 -1.4335 -0.3598
18547SOL     OW56218   7.713   4.522   6.822  0.1247 -0.0435 -0.4113
18547SOL    HW156219   7.704   4.445   6.766 -0.4197 -0.0473 -0.3234
18547SOL    HW256220   7.770   4.581   6.772 -1.1216  0.3619 -1.4328
18548SOL     OW56221   8.026   9.673   6.858  0.8277 -0.1906  0.2793
18548SOL    HW156222   8.007   9.650   6.767 -0.9583  1.7542  0.0963
18548SOL    HW256223   7.987   9.602   6.909 -1.8502  0.7182 -0.3576
18549SOL     OW56224   3.353   1.419   7.184 -0.3614  0.3285  0.4188
18549SOL    HW156225   3.302   1.449   7.109  1.2017  1.6717 -0.1731
18549SOL    HW256226   3.314   1.334   7.207  0.8738 -1.7083 -3.8258
18550SOL     OW56227   6.617   7.535   9.189  0.6243  0.7283  0.5664
18550SOL    HW156228   6.672   7.614   9.187 -0.1118  1.2483  0.3494
18550SOL    HW256229   6.575   7.538   9.275 -1.2876  1.9211 -0.3411
18551SOL     OW56230   3.650   5.610   6.122  0.7004 -0.2444 -0.0596
18551SOL    HW156231   3.575   5.552   6.105  0.8506 -0.1342 -1.2116
18551SOL    HW256232   3.618   5.697   6.099  1.5666 -0.3715 -1.9634
18552SOL     OW56233   5.364   6.215   3.600 -0.1772 -0.2653 -0.1123
18552SOL    HW156234   5.428   6.185   3.535 -0.6597 -2.9065  0.5171
18552SOL    HW256235   5.288   6.157   3.587 -0.0000 -1.4721  3.2578
18553SOL     OW56236   6.965   1.731   8.236  0.3941 -0.4437  0.2887
18553SOL    HW156237   6.958   1.826   8.225 -1.3580 -0.8426 -4.3163
18553SOL    HW256238   7.036   1.706   8.176  0.1293 -2.1238  0.6426
18554SOL     OW56239   9.481   1.363   1.716  0.1328 -0.0562 -0.1622
18554SOL    HW156240   9.547   1.318   1.663  0.7234 -0.9865  1.2885
18554SOL    HW256241   9.479   1.313   1.798 -1.4525  0.7418  0.3173
18555SOL     OW56242   1.636   7.716   5.596  0.3738  0.4129 -0.0753
18555SOL    HW156243   1.678   7.662   5.663 -0.6388  1.6842  1.6464
18555SOL    HW256244   1.553   7.673   5.579 -0.1132  0.9903  0.7645
18556SOL     OW56245   6.054   5.860   8.630  0.7179 -0.9075  0.1962
18556SOL    HW156246   6.028   5.930   8.570  0.9853  1.8559  3.0665
18556SOL    HW256247   5.994   5.788   8.610  0.0718  0.2730 -2.5403
18557SOL     OW56248   4.202   7.781   0.956 -0.0238 -0.5453  0.0418
18557SOL    HW156249   4.157   7.760   1.037 -0.5845 -2.1807 -0.6405
18557SOL    HW256250   4.258   7.855   0.977 -0.2296 -0.8804  1.8837
18558SOL     OW56251   8.570   0.404   0.807  0.4460  0.0841 -0.1377
18558SOL    HW156252   8.550   0.366   0.722  0.1356  2.6736 -1.3152
18558SOL    HW256253   8.485   0.416   0.848  0.3887  1.1251 -0.5416
18559SOL     OW56254   1.293   1.932   5.450  0.6907  0.0013  0.0933
18559SOL    HW156255   1.303   1.877   5.528  0.9166  2.3647  1.8325
18559SOL    HW256256   1.199   1.946   5.443  0.7497  0.7106  0.6436
18560SOL     OW56257   6.070   5.066   9.889 -0.1425 -0.4088  0.0110
18560SOL    HW156258   6.070   4.971   9.890 -0.8373 -0.4972 -2.1216
18560SOL    HW256259   6.052   5.089   9.798  0.2390  1.7698  0.4185
18561SOL     OW56260   1.827   9.424   5.527 -0.3333 -0.4497  0.2006
18561SOL    HW156261   1.795   9.335   5.510 -0.7785  0.0492 -1.7976
18561SOL    HW256262   1.747   9.477   5.535 -0.1306  0.4417 -2.7599
18562SOL     OW56263   5.838   8.346   6.193  0.6920  0.1397 -0.0765
18562SOL    HW156264   5.814   8.323   6.103  0.2425  0.2582  0.0105
18562SOL    HW256265   5.926   8.382   6.187  1.2528 -1.2120 -0.2838
18563SOL     OW56266   9.195   3.572   5.180 -0.3252  0.7253 -0.2326
18563SOL    HW156267   9.276   3.616   5.153 -0.3076  0.5985 -0.3853
18563SOL    HW256268   9.175   3.610   5.266  1.1606 -0.8939  0.8815
18564SOL     OW56269   4.975   1.255   1.131  0.6213 -0.5981  0.1079
18564SOL    HW156270   4.958   1.165   1.102 -0.7152 -0.9751  1.9050
18564SOL    HW256271   4.928   1.310   1.068 -0.1692 -1.2653  0.1037
18565SOL     OW56272   5.996   5.430   3.310  0.3499 -0.1986  0.2189
18565SOL    HW156273   6.086   5.398   3.296  0.8170  1.1674  0.0058
18565SOL    HW256274   5.975   5.478   3.230  1.0389  3.0897  1.8575
18566SOL     OW56275   7.135   8.796   5.676  0.1288 -0.3602  0.1747
18566SOL    HW156276   7.084   8.750   5.743  0.5181  0.3491  0.9887
18566SOL    HW256277   7.216   8.820   5.721  0.1768  0.5792 -0.3976
18567SOL     OW56278   7.177   8.267   2.827 -0.3926 -0.2694  0.1995
18567SOL    HW156279   7.170   8.326   2.752  1.8011 -0.6561 -0.3925
18567SOL    HW256280   7.180   8.179   2.789 -1.5591 -0.6475  0.9277
18568SOL     OW56281   1.585   4.403   8.790  0.2749 -0.0104 -0.2239
18568SOL    HW156282   1.639   4.450   8.853  0.7540 -0.7629 -0.0709
18568SOL    HW256283   1.603   4.311   8.805 -0.1319 -0.2310 -0.9909
18569SOL     OW56284   5.150   4.017   3.181 -0.2373  0.2168  0.2798
18569SOL    HW156285   5.203   4.097   3.178 -1.4563  1.0534  0.1846
18569SOL    HW256286   5.075   4.036   3.125  0.8581 -2.1054 -2.1726
18570SOL     OW56287   4.459   2.685  -0.025 -0.1955  0.2998 -0.1246
18570SOL    HW156288   4.446   2.726   0.061 -0.7685 -0.5314  0.1910
18570SOL    HW256289   4.454   2.591  -0.008 -1.4258  0.1426 -1.2495
18571SOL     OW56290   3.915   4.016   6.287 -0.1825 -0.0429  0.3151
18571SOL    HW156291   3.913   3.977   6.374 -0.7725  2.2630  1.4022
18571SOL    HW256292   4.008   4.032   6.270 -0.0088 -1.0931  0.2064
18572SOL     OW56293   6.126   1.909   5.729  0.4991 -0.3266  0.0476
18572SOL    HW156294   6.073   1.836   5.697 -0.9463  0.8031 -0.2760
18572SOL    HW256295   6.081   1.940   5.807 -1.1391  2.4881 -1.8082
18573SOL     OW56296   9.173   7.709   7.724 -0.0881 -0.2328  0.5843
18573SOL    HW156297   9.163   7.772   7.796  1.6833 -0.7295  1.3320
18573SOL    HW256298   9.114   7.638   7.747 -0.3571  0.1068  0.9690
18574SOL     OW56299   1.579   7.197   7.860 -0.1701  0.3662 -0.0050
18574SOL    HW156300   1.535   7.277   7.834 -1.5651 -0.3796 -0.0224
18574SOL    HW256301   1.546   7.130   7.800 -1.7857 -0.9380  2.1836
18575SOL     OW56302   1.823   6.840   7.608 -0.1483  0.1857  0.2911
18575SOL    HW156303   1.803   6.795   7.526 -2.0736  0.4550  0.5840
18575SOL    HW256304   1.808   6.933   7.589 -1.9387  0.1358  1.2802
18576SOL     OW56305   6.296   5.764   4.750 -0.0323  0.1359  0.0981
18576SOL    HW156306   6.230   5.798   4.811  0.0052  0.1996  0.1042
18576SOL    HW256307   6.298   5.670   4.766 -1.1178 -0.0761 -0.8693
18577SOL     OW56308   8.693   5.767   4.486 -0.2198 -0.0635  0.3066
18577SOL    HW156309   8.614   5.809   4.455  0.9725  1.3896 -0.8789
18577SOL    HW256310   8.691   5.780   4.581 -1.3393  0.0123  0.2870
18578SOL     OW56311   5.962   6.215   8.497  1.0562  0.2321  0.3959
18578SOL    HW156312   5.878   6.254   8.475  2.0637  2.6299  0.4480
18578SOL    HW256313   5.953   6.190   8.589  0.2821  0.1275  0.2940
18579SOL     OW56314   6.413   5.632   2.339  0.0821 -0.5869  0.3821
18579SOL    HW156315   6.417   5.568   2.410 -2.6038 -0.7980  0.4364
18579SOL    HW256316   6.349   5.697   2.369  0.9681  0.8629 -0.7014
18580SOL     OW56317   8.480   0.574   9.647 -0.0039  0.0153  0.6089
18580SOL    HW156318   8.495   0.522   9.727  3.5993 -1.2597 -0.6814
18580SOL    HW256319   8.512   0.661   9.669 -1.0303  0.2750  1.1463
18581SOL     OW56320   4.923   2.361   1.489 -0.2493 -0.0737  0.1433
18581SOL    HW156321   4.919   2.396   1.400 -3.6573 -0.7266 -0.0901
18581SOL    HW256322   4.913   2.438   1.545  0.0760  0.1441 -0.0963
18582SOL     OW56323   8.866   4.331   8.874  0.1957 -0.0034  0.4119
18582SOL    HW156324   8.790   4.273   8.871  0.2692 -0.0976  0.3832
18582SOL    HW256325   8.894   4.338   8.783 -0.1866  0.5697  0.3313
18583SOL     OW56326   3.938   6.550   2.492 -0.2359 -0.1309 -0.1242
18583SOL    HW156327   4.008   6.613   2.478 -1.3446  1.5413  1.3872
18583SOL    HW256328   3.899   6.575   2.576 -1.6517 -1.9566 -0.1629
18584SOL     OW56329   8.429   1.498   7.894 -0.2287 -0.3820 -0.3286
18584SOL    HW156330   8.427   1.497   7.799  1.7243  1.1901 -0.4569
18584SOL    HW256331   8.456   1.409   7.918  0.7869 -0.3767 -1.3472
18585SOL     OW56332   5.702   7.029   0.080 -0.1957 -0.6976  0.1342
18585SOL    HW156333   5.737   6.983   0.003 -0.5654 -0.1175 -0.3942
18585SOL    HW256334   5.617   6.987   0.095  0.2712 -1.4295  0.8012
18586SOL     OW56335   2.669   3.051   0.565 -0.1656  0.2149 -0.7444
18586SOL    HW156336   2.666   3.064   0.470  0.6292 -0.7580 -0.9200
18586SOL    HW256337   2.694   3.137   0.600 -1.2444  0.7972 -1.3378
18587SOL     OW56338   0.205   1.932   6.846 -0.6256  0.1641 -0.6487
18587SOL    HW156339   0.236   2.015   6.882 -0.4197 -0.0399 -0.3555
18587SOL    HW256340   0.228   1.867   6.912 -2.6972  0.1489  0.1207
18588SOL     OW56341   8.716   1.974   6.802 -0.2591  0.2589 -0.7441
18588SOL    HW156342   8.701   2.020   6.884  0.0785  0.5761 -0.8591
18588SOL    HW256343   8.749   2.041   6.742  0.5381 -0.1893 -0.8198
18589SOL     OW56344   8.738   4.118   3.469 -0.2578 -0.0560 -0.2742
18589SOL    HW156345   8.707   4.188   3.411  3.5247  1.2267 -1.0635
18589SOL    HW256346   8.747   4.161   3.554  0.8534  0.1069 -0.4592
18590SOL     OW56347   4.603   7.128   5.186 -0.5986  0.4808  0.1154
18590SOL    HW156348   4.561   7.089   5.110  1.2802 -0.6643 -0.3946
18590SOL    HW256349   4.617   7.055   5.246  0.9972  0.7275  0.0850
18591SOL     OW56350   7.971   3.290   5.778  0.4154 -0.0102 -0.6491
18591SOL    HW156351   7.927   3.287   5.863  0.2754  0.3092 -0.7075
18591SOL    HW256352   7.924   3.225   5.725  0.6281 -0.3478 -0.4261
18592SOL     OW56353   7.913   4.522   7.448  0.6933 -0.1038 -0.1751
18592SOL    HW156354   7.871   4.443   7.414  1.0316 -0.7790  0.9132
18592SOL    HW256355   7.982   4.541   7.385  0.3385 -0.4242 -0.6723
18593SOL     OW56356   9.142   2.540   6.724 -0.1426  0.1052  0.1956
18593SOL    HW156357   9.208   2.588   6.674 -0.0171 -0.0902  0.1742
18593SOL    HW256358   9.183   2.526   6.809 -0.6237  1.0602  0.6021
18594SOL     OW56359   9.216   4.713   4.545  0.8870  0.1169  0.4096
18594SOL    HW156360   9.133   4.725   4.499  1.0969 -0.4246 -0.1204
18594SOL    HW256361   9.278   4.687   4.477  1.3002 -0.2888  0.9284
18595SOL     OW56362   5.053   1.143   6.082 -0.4645 -0.1492 -0.8545
18595SOL    HW156363   5.148   1.131   6.088 -0.5608 -0.4982  0.1694
18595SOL    HW256364   5.039   1.233   6.113 -0.5278 -0.3722 -0.2057
18596SOL     OW56365   5.628   1.060   9.617  1.0647 -0.3025 -0.2115
18596SOL    HW156366   5.703   1.002   9.627  1.1530  0.1354  2.7580
18596SOL    HW256367   5.588   1.063   9.704 -1.4068  0.8253 -1.2728
18597SOL     OW56368   2.625   2.355   9.351  0.7393  0.5476  0.1712
18597SOL    HW156369   2.716   2.353   9.381  0.8549  2.2967  0.0542
18597SOL    HW256370   2.597   2.445   9.366 -0.6512  0.2996 -0.7547
18598SOL     OW56371   0.564   4.268   0.260  0.8441  0.5313  0.5310
18598SOL    HW156372   0.545   4.316   0.180  0.3623  2.0394  1.4892
18598SOL    HW256373   0.638   4.314   0.299  0.8057  0.0907  1.1446
18599SOL     OW56374   0.918   1.206   9.921  0.0488 -0.0057 -0.2849
18599SOL    HW156375   0.951   1.123   9.957  0.0256 -0.3140 -0.9595
18599SOL    HW256376   0.903   1.261   9.998 -1.0723 -1.0340  0.2633
18600SOL     OW56377   9.880   8.007   8.559 -0.0653  0.0708 -0.1547
18600SOL    HW156378   9.916   8.044   8.479 -0.4380 -1.1730 -0.9373
18600SOL    HW256379   9.810   8.068   8.584  2.2705  2.3497  1.2299
18601SOL     OW56380   5.833   5.064   2.891 -0.5018 -0.2184  0.3851
18601SOL    HW156381   5.831   4.996   2.824 -0.7302  0.5636 -0.4158
18601SOL    HW256382   5.855   5.144   2.844  0.7720  0.1019  1.4640
18602SOL     OW56383   4.586   1.942   2.265  0.7096  0.6538 -0.2114
18602SOL    HW156384   4.600   2.010   2.332 -0.7188  0.6793  0.0879
18602SOL    HW256385   4.544   1.871   2.312  0.4173  0.3453 -0.9267
18603SOL     OW56386   4.294   9.140   6.152  0.1789 -0.1880 -0.2121
18603SOL    HW156387   4.227   9.193   6.194  0.6091  0.5883 -0.4864
18603SOL    HW256388   4.254   9.111   6.070  0.8891  2.1134 -1.4648
18604SOL     OW56389   4.499   8.956   0.521  0.3873 -0.0647  0.8226
18604SOL    HW156390   4.431   8.958   0.454  2.2957  0.3638 -1.2282
18604SOL    HW256391   4.519   9.048   0.538  2.5277 -0.1191 -0.9499
18605SOL     OW56392   7.794   1.574   0.463 -0.4599 -0.9165 -0.8406
18605SOL    HW156393   7.733   1.523   0.516 -0.2935  0.8952  1.2937
18605SOL    HW256394   7.880   1.536   0.482 -0.3055  0.2144  0.9399
18606SOL     OW56395   0.064   0.579   0.965  0.3555 -0.1333 -0.1594
18606SOL    HW156396   0.051   0.637   1.041  1.0702  0.7995 -0.7279
18606SOL    HW256397   0.135   0.521   0.991  1.8662  1.3640 -0.7263
18607SOL     OW56398   7.241   1.777   6.359 -0.2890 -0.0018 -0.5367
18607SOL    HW156399   7.222   1.827   6.438 -0.3510 -0.0469 -0.5225
18607SOL    HW256400   7.157   1.771   6.313 -0.3621 -0.4057 -0.3561
18608SOL     OW56401   6.014   8.890   7.465  0.1263  0.3825 -0.5439
18608SOL    HW156402   6.077   8.948   7.422  0.1511 -0.1101 -1.1972
18608SOL    HW256403   5.931   8.906   7.418  0.0729  0.0935 -0.5534
18609SOL     OW56404   5.771   5.840   6.817  0.0207  0.0505  0.2579
18609SOL    HW156405   5.793   5.917   6.870 -1.0521  0.9876 -0.6083
18609SOL    HW256406   5.754   5.876   6.730  0.9688 -1.3599 -0.5437
18610SOL     OW56407   6.405   7.813   7.331 -0.1039 -0.1799  0.0937
18610SOL    HW156408   6.396   7.784   7.421  0.1617  0.7379  0.4236
18610SOL    HW256409   6.460   7.891   7.336  0.9297 -0.7975 -0.9806
18611SOL     OW56410   1.149   3.955   5.038 -0.1636  0.0870  0.1457
18611SOL    HW156411   1.234   3.989   5.011  0.5307 -1.9584 -0.4131
18611SOL    HW256412   1.108   4.027   5.086  2.1064  0.9232  0.9452
18612SOL     OW56413   2.476   5.828   6.385  0.1657 -0.2952  0.1527
18612SOL    HW156414   2.392   5.866   6.360  0.6795  0.1013 -1.0971
18612SOL    HW256415   2.476   5.741   6.344  0.8043  0.1528 -0.8415
18613SOL     OW56416   6.196   8.978   7.255 -0.0178  0.4563  0.3044
18613SOL    HW156417   6.246   8.901   7.226 -0.3931  0.3290 -0.0151
18613SOL    HW256418   6.212   9.043   7.187  2.1154  1.4628  1.6688
18614SOL     OW56419   3.839   2.899   1.203  0.6086  0.0865 -0.1839
18614SOL    HW156420   3.810   2.863   1.286 -1.0660  0.5173 -0.5398
18614SOL    HW256421   3.907   2.962   1.227  0.7490 -0.4116  0.7742
18615SOL     OW56422   6.425   8.565   0.677  0.0888  0.2627  0.5728
18615SOL    HW156423   6.442   8.657   0.700 -1.2113  0.1126  2.2931
18615SOL    HW256424   6.348   8.541   0.727 -0.1936 -1.5113 -0.6108
18616SOL     OW56425   3.385   2.556   7.142 -0.6160 -0.0420 -0.0276
18616SOL    HW156426   3.437   2.544   7.221  0.5467  1.9187 -0.4636
18616SOL    HW256427   3.446   2.542   7.070 -1.2171  0.1304 -0.5806
18617SOL     OW56428   9.962   5.087   1.482 -0.3642 -0.0153  0.0171
18617SOL    HW156429   9.965   5.097   1.387 -1.3027  1.1993  0.0799
18617SOL    HW256430   9.904   5.013   1.496 -3.4615  2.1384 -0.3600
18618SOL     OW56431   9.036   2.440   0.894 -0.3754  0.1488 -0.3167
18618SOL    HW156432   8.943   2.421   0.888 -0.1289 -0.9874 -0.6957
18618SOL    HW256433   9.054   2.496   0.819 -0.4193 -1.0502 -1.2404
18619SOL     OW56434   9.218   7.040   0.810  0.7397  0.2777  0.0714
18619SOL    HW156435   9.288   6.993   0.765  0.9048 -1.7507  2.2506
18619SOL    HW256436   9.159   6.972   0.840 -0.9653  1.7883  0.2847
18620SOL     OW56437   0.381   9.485   9.647  0.2983  1.1049  0.5494
18620SOL    HW156438   0.363   9.464   9.555 -1.3777 -1.1390  1.3047
18620SOL    HW256439   0.475   9.504   9.649  1.2135 -2.3990 -1.0956
18621SOL     OW56440   5.149   8.237   4.851  0.4648 -0.3528 -0.7782
18621SOL    HW156441   5.138   8.319   4.899  1.1420 -0.8257  0.2087
18621SOL    HW256442   5.118   8.169   4.911  1.2556 -0.9418 -1.0128
18622SOL     OW56443   4.442   5.700   9.325 -0.4632 -0.2005 -0.7363
18622SOL    HW156444   4.492   5.719   9.245  3.2863 -0.7167  1.2324
18622SOL    HW256445   4.413   5.609   9.314  0.5296 -0.4623 -1.3172
18623SOL     OW56446   4.914   6.494   6.050  0.4636  0.3483  0.7090
18623SOL    HW156447   4.947   6.584   6.055 -2.7302  1.6925  0.4959
18623SOL    HW256448   4.889   6.474   6.140  0.1326  0.1238  0.5661
18624SOL     OW56449   9.684   0.945   0.719  0.4147 -0.2798 -0.1908
18624SOL    HW156450   9.648   0.904   0.798 -0.6795  0.5352 -0.2399
18624SOL    HW256451   9.634   1.026   0.709  0.8883 -0.1172 -1.4351
18625SOL     OW56452   8.314   0.112   4.466  0.0245  0.1580 -0.0972
18625SOL    HW156453   8.352   0.051   4.403 -0.9780 -0.9463  0.3205
18625SOL    HW256454   8.375   0.185   4.469  0.1018  0.2480 -2.3453
18626SOL     OW56455   0.455   6.968   5.469 -0.1174 -0.0157 -0.1665
18626SOL    HW156456   0.360   6.963   5.476 -0.1585  0.2212 -0.5224
18626SOL    HW256457   0.471   7.000   5.380  0.3465 -1.8142 -0.7777
18627SOL     OW56458   8.049   8.546   9.002 -0.0074 -0.0890 -0.0564
18627SOL    HW156459   7.971   8.600   8.990  0.1792 -0.0925 -1.4556
18627SOL    HW256460   8.018   8.470   9.052 -0.7141  0.3000  0.1098
18628SOL     OW56461   0.923   4.604   7.575  0.4884 -0.2838  0.4884
18628SOL    HW156462   0.984   4.677   7.587  1.6126 -1.3338  1.4176
18628SOL    HW256463   0.952   4.538   7.637 -0.9629 -1.2499  0.1913
18629SOL     OW56464   8.608   6.059   2.282 -0.3422  0.2635  0.2455
18629SOL    HW156465   8.636   6.112   2.207  0.0127  0.1806  0.3145
18629SOL    HW256466   8.579   5.977   2.243  2.3112 -0.8203  0.3330
18630SOL     OW56467   1.257   0.663   4.671  1.1225  0.1581  0.4842
18630SOL    HW156468   1.168   0.649   4.638  1.2953  1.1732 -0.4831
18630SOL    HW256469   1.289   0.739   4.623  2.0520  0.6184  1.7597
18631SOL     OW56470   7.114   3.602   9.452 -0.3074  0.1935  0.1528
18631SOL    HW156471   7.117   3.681   9.398  3.1220 -0.5093 -0.8833
18631SOL    HW256472   7.076   3.632   9.535 -3.9558  1.7130 -1.7997
18632SOL     OW56473   8.162   6.619   4.285  0.3214 -0.3344  0.0619
18632SOL    HW156474   8.178   6.664   4.368  0.6858  0.3580 -0.3714
18632SOL    HW256475   8.204   6.534   4.294  0.3288 -0.2744  0.5945
18633SOL     OW56476   0.567   5.937   7.072  0.6835 -0.4073  0.0434
18633SOL    HW156477   0.641   5.879   7.089  0.2334 -0.3362  2.6192
18633SOL    HW256478   0.490   5.887   7.099 -0.1816 -0.1755 -1.8307
18634SOL     OW56479   8.102   8.349   0.740  0.7377  0.1524 -0.3034
18634SOL    HW156480   8.014   8.381   0.763  1.5775  0.5435  2.8157
18634SOL    HW256481   8.098   8.255   0.758  0.2697 -0.3489 -2.7373
18635SOL     OW56482   8.795   5.933   5.647 -0.3655  0.6470 -0.0142
18635SOL    HW156483   8.843   5.909   5.567  0.1071  2.4325 -0.3063
18635SOL    HW256484   8.706   5.953   5.616 -1.0421 -1.4395  0.3596
18636SOL     OW56485   2.851   8.344   3.132 -0.2089 -0.3805  0.8553
18636SOL    HW156486   2.927   8.285   3.129 -0.1388 -0.3213  1.4357
18636SOL    HW256487   2.830   8.353   3.225 -1.2641 -0.8145  0.6757
18637SOL     OW56488   4.010   3.169   4.164 -0.2682  0.0592 -0.3614
18637SOL    HW156489   4.039   3.230   4.096  1.7368  0.5716  0.8879
18637SOL    HW256490   4.058   3.089   4.146  1.4196  0.6439  1.2177
18638SOL     OW56491   2.991   9.392   4.635 -0.1851 -0.0163  0.5005
18638SOL    HW156492   2.900   9.389   4.604 -0.1974 -0.4687  0.5713
18638SOL    HW256493   2.983   9.403   4.730 -0.1494  1.2082  0.3759
18639SOL     OW56494   8.947   0.847   4.079  0.0686  0.6283  0.0149
18639SOL    HW156495   8.961   0.758   4.047  1.6399  1.6711 -2.5364
18639SOL    HW256496   8.866   0.875   4.037  0.0844  0.7207  0.0472
18640SOL     OW56497   2.391   1.930   3.632  0.1388  0.3997 -0.3730
18640SOL    HW156498   2.481   1.905   3.656 -0.3660 -0.1020  1.1036
18640SOL    HW256499   2.358   1.976   3.709 -1.3425 -0.6913 -0.3153
18641SOL     OW56500   0.964   8.620   4.203  0.7461  0.3748 -0.8795
18641SOL    HW156501   0.947   8.564   4.279  2.1832  0.3690 -0.5297
18641SOL    HW256502   0.925   8.704   4.226 -2.3162 -0.6433 -1.8113
18642SOL     OW56503   1.382   5.748   0.776  0.2815 -0.2948 -0.0548
18642SOL    HW156504   1.333   5.773   0.698 -0.2128 -2.9595 -0.7100
18642SOL    HW256505   1.472   5.740   0.745  0.4093  0.3899  0.1149
18643SOL     OW56506   9.089   7.858   3.753 -0.1523  0.6122  0.5405
18643SOL    HW156507   9.087   7.839   3.846 -2.3044  2.3985  0.9412
18643SOL    HW256508   9.028   7.795   3.714  0.4660  0.1076  0.3737
18644SOL     OW56509   7.736   6.022   4.040 -0.8776 -0.2453  0.5184
18644SOL    HW156510   7.764   6.113   4.052  0.3584  0.3584 -4.5451
18644SOL    HW256511   7.650   6.028   4.000 -1.4791 -1.4556  1.5478
18645SOL     OW56512   1.844   5.769   2.450  0.3356  0.0404  0.1377
18645SOL    HW156513   1.843   5.768   2.546  2.8175  0.2789  0.2311
18645SOL    HW256514   1.886   5.687   2.425 -0.6295 -0.1990 -0.7895
18646SOL     OW56515   3.430   5.132   9.828  0.4934 -0.5496  0.4203
18646SOL    HW156516   3.371   5.072   9.782  0.1056 -0.0583  0.2674
18646SOL    HW256517   3.412   5.217   9.789  1.0962 -0.3480  0.5827
18647SOL     OW56518   6.494   3.469   9.578 -0.1322 -0.2425  0.0878
18647SOL    HW156519   6.521   3.494   9.490 -0.8068  1.4501  0.3145
18647SOL    HW256520   6.417   3.522   9.596 -0.0508 -0.5886  1.6735
18648SOL     OW56521   0.491   6.679   6.570 -0.5096  0.2337  0.1656
18648SOL    HW156522   0.411   6.692   6.518 -0.8308 -1.1085  0.2973
18648SOL    HW256523   0.478   6.595   6.614  1.9359 -1.1702 -1.5930
18649SOL     OW56524   4.515   9.723   1.656 -0.3163  0.0230  0.0386
18649SOL    HW156525   4.466   9.716   1.574  1.1945 -0.6106 -0.8652
18649SOL    HW256526   4.581   9.654   1.650  0.9161  1.0727  1.0179
18650SOL     OW56527   6.922   8.933   9.902  0.5474  0.5611  0.8500
18650SOL    HW156528   6.858   8.930   9.974  0.5784  0.6541  0.8811
18650SOL    HW256529   6.947   8.841   9.889 -2.2712 -0.0279 -1.5557
18651SOL     OW56530   6.682   1.068   5.073  0.3206  0.7215  0.3013
18651SOL    HW156531   6.619   1.076   5.002 -0.1488  0.5466  0.6922
18651SOL    HW256532   6.720   1.155   5.080 -1.7939  1.6140  1.7976
18652SOL     OW56533   4.654   2.002   8.787  0.3807 -0.7767  0.1309
18652SOL    HW156534   4.615   1.962   8.708  1.2839 -1.4703  0.0271
18652SOL    HW256535   4.744   1.970   8.788  0.4535 -0.5673  1.3158
18653SOL     OW56536   5.029   9.670   5.414  0.0628 -0.1872  0.1805
18653SOL    HW156537   5.026   9.575   5.427 -1.3585 -0.2161 -0.2637
18653SOL    HW256538   5.056   9.680   5.322  2.8984 -0.0768  0.9208
18654SOL     OW56539   3.046   8.308   7.534 -0.5006 -0.0466 -0.1514
18654SOL    HW156540   3.028   8.297   7.441  1.6302 -1.4380 -0.4670
18654SOL    HW256541   3.028   8.221   7.572  1.2030 -0.2699  0.2220
18655SOL     OW56542   3.736   7.334   3.646  0.2273 -0.2326 -0.1180
18655SOL    HW156543   3.738   7.290   3.732  1.1209 -2.3582 -1.1416
18655SOL    HW256544   3.828   7.338   3.620 -0.0374  0.3702 -0.9853
18656SOL     OW56545   9.279   3.063   2.020 -0.1865 -0.2308  0.1498
18656SOL    HW156546   9.281   2.983   2.073 -2.2673 -0.1893  0.3863
18656SOL    HW256547   9.284   3.134   2.084 -1.1812 -0.1869  0.1953
18657SOL     OW56548   3.354   8.280   9.480 -0.5430 -0.2377 -0.0403
18657SOL    HW156549   3.348   8.185   9.492  1.3265 -0.2585  1.1100
18657SOL    HW256550   3.266   8.313   9.501 -1.0045 -1.6282  0.3016
18658SOL     OW56551   2.069   7.733   6.009  0.1282  0.7898  0.0533
18658SOL    HW156552   2.024   7.808   6.047 -0.1040  0.6941 -0.0327
18658SOL    HW256553   2.072   7.751   5.915  0.8046  1.0799  0.1244
18659SOL     OW56554   3.090   4.599   8.507 -0.3774  0.0501 -0.1195
18659SOL    HW156555   3.181   4.610   8.537 -0.2900 -0.3187 -0.2481
18659SOL    HW256556   3.054   4.530   8.563 -0.9050  0.9190  0.6335
18660SOL     OW56557   8.625   1.393   4.088  0.2754  0.9166  0.0431
18660SOL    HW156558   8.542   1.372   4.046  1.1930 -2.0136 -0.5261
18660SOL    HW256559   8.602   1.411   4.179 -0.7899 -2.9039  0.6845
18661SOL     OW56560   3.129   5.672   2.197 -0.2065  0.6692 -0.2219
18661SOL    HW156561   3.068   5.656   2.125  0.9281 -0.6142 -0.9487
18661SOL    HW256562   3.091   5.625   2.272  0.0157 -0.3945 -0.7539
18662SOL     OW56563   4.336   3.627   6.263  0.1755  0.0483 -0.3738
18662SOL    HW156564   4.401   3.584   6.208  0.7885  2.8939 -2.0524
18662SOL    HW256565   4.257   3.630   6.209 -0.9619 -1.8566  1.0209
18663SOL     OW56566   5.371   8.065   6.047 -0.5755 -0.0661 -0.0040
18663SOL    HW156567   5.417   8.008   5.984 -1.3678 -2.2375  1.2657
18663SOL    HW256568   5.433   8.075   6.119 -0.1371  1.4197 -0.5476
18664SOL     OW56569   9.674   2.855   8.003  0.0077 -0.0662  0.1233
18664SOL    HW156570   9.658   2.909   7.925 -0.2212  1.1238  0.9639
18664SOL    HW256571   9.617   2.779   7.992 -0.8664  0.6387 -0.3434
18665SOL     OW56572   3.792   4.656   7.496 -0.3968  0.4113  0.7100
18665SOL    HW156573   3.810   4.749   7.510 -1.3764  0.5260  1.3436
18665SOL    HW256574   3.872   4.612   7.524  1.0448  1.1655 -1.9531
18666SOL     OW56575   1.657   8.373   0.832  0.6069  0.2871 -0.1056
18666SOL    HW156576   1.675   8.283   0.857  2.4548  0.5987 -0.1832
18666SOL    HW256577   1.562   8.381   0.838  0.3277 -1.8636 -0.8361
18667SOL     OW56578   6.624   2.092   5.846  0.2950  0.1660 -0.6097
18667SOL    HW156579   6.543   2.105   5.796 -2.1318  0.4874  3.0531
18667SOL    HW256580   6.658   2.181   5.859  0.2906  0.1797 -0.6881
18668SOL     OW56581   2.145   7.773   8.077  0.0404  0.0344 -0.2656
18668SOL    HW156582   2.174   7.806   8.162  0.6838 -0.5711 -0.2360
18668SOL    HW256583   2.134   7.679   8.090  0.8292 -0.1761 -1.0216
18669SOL     OW56584   0.393   7.018   4.975  0.6928  0.0694 -0.5624
18669SOL    HW156585   0.444   6.983   4.902  0.0538 -0.8334 -0.6026
18669SOL    HW256586   0.309   6.972   4.969  0.7592 -0.3031  0.9570
18670SOL     OW56587   7.350   7.732   2.824  0.0609  0.0640 -0.5113
18670SOL    HW156588   7.300   7.794   2.878  1.2199 -0.4835  1.2831
18670SOL    HW256589   7.313   7.742   2.736 -1.0830  1.8898  0.1106
18671SOL     OW56590   1.907   5.047   2.146 -0.0140  0.8416  0.9383
18671SOL    HW156591   1.990   5.070   2.105 -0.5084  1.9746  0.5461
18671SOL    HW256592   1.863   5.131   2.161 -0.9254  0.2831  1.4790
18672SOL     OW56593   2.293   6.442   7.867  0.2679 -0.1473 -0.3782
18672SOL    HW156594   2.223   6.410   7.810 -0.0122 -0.6964  0.2612
18672SOL    HW256595   2.374   6.408   7.827  0.1399  0.0965 -0.8562
18673SOL     OW56596   5.636   6.262   5.004  0.1818 -0.0162  0.0759
18673SOL    HW156597   5.542   6.253   4.988  0.1125 -1.0947  0.9760
18673SOL    HW256598   5.676   6.200   4.943  0.2309 -0.3836  0.4770
18674SOL     OW56599   6.645   1.802   1.526 -0.1907 -0.7279  0.0550
18674SOL    HW156600   6.660   1.797   1.431 -2.6354 -1.9257 -0.3618
18674SOL    HW256601   6.641   1.710   1.554  1.8300 -0.3959  1.6123
18675SOL     OW56602   7.053   7.571   0.982 -0.0557 -0.3048 -0.1924
18675SOL    HW156603   6.958   7.581   0.971 -0.2393  1.4550  2.3430
18675SOL    HW256604   7.062   7.511   1.056  0.9106 -1.6755 -1.3488
18676SOL     OW56605   6.547   5.274   4.128  0.1251  0.6272 -0.2974
18676SOL    HW156606   6.506   5.201   4.081  0.7835 -1.1037  1.6655
18676SOL    HW256607   6.475   5.315   4.176 -0.5082  2.2552 -2.4556
18677SOL     OW56608   5.378   8.768   8.589 -0.0112 -0.6538 -0.1672
18677SOL    HW156609   5.392   8.703   8.519 -0.3746 -0.8237 -0.0840
18677SOL    HW256610   5.285   8.760   8.610  0.5764 -2.4880  2.1646
18678SOL     OW56611   3.239   1.532   9.284 -0.1055  0.1318  0.2981
18678SOL    HW156612   3.248   1.451   9.335  0.8630  0.5926  0.8745
18678SOL    HW256613   3.170   1.580   9.329  0.6764  0.4912  1.1353
18679SOL     OW56614   3.629   4.567   1.710  0.2569 -0.3990  0.3518
18679SOL    HW156615   3.670   4.571   1.623 -2.6826 -2.2507 -1.2930
18679SOL    HW256616   3.591   4.479   1.714 -3.0779  0.9765  1.8574
18680SOL     OW56617   3.869   4.397   0.318 -0.0513 -0.5249 -0.3310
18680SOL    HW156618   3.889   4.441   0.401  2.5157 -0.2482 -1.0284
18680SOL    HW256619   3.872   4.303   0.339  0.7101 -0.4580 -0.1241
18681SOL     OW56620   7.375   0.623   6.531  0.1947 -0.9288  0.0652
18681SOL    HW156621   7.398   0.626   6.438 -1.5996  1.0788 -0.3930
18681SOL    HW256622   7.456   0.643   6.577  0.5355  0.8739 -1.2255
18682SOL     OW56623   5.556   4.355   0.934  0.0362 -0.2437  0.0938
18682SOL    HW156624   5.604   4.356   0.851 -0.2495 -0.9336 -0.0819
18682SOL    HW256625   5.607   4.298   0.991  0.9703  1.2850  0.8582
18683SOL     OW56626   3.093   8.604   3.216  0.2023 -0.7823  0.5896
18683SOL    HW156627   3.093   8.574   3.125 -0.1623  0.3580  0.1925
18683SOL    HW256628   3.185   8.603   3.242  0.5833  1.0662 -0.5690
18684SOL     OW56629   1.877   8.517   0.697 -0.2263 -0.0083  0.3011
18684SOL    HW156630   1.813   8.472   0.753  1.4923 -1.1579  1.4555
18684SOL    HW256631   1.892   8.600   0.741 -0.5454  0.0505  0.3028
18685SOL     OW56632   5.932   4.360   8.457  0.0616  0.0837  0.5527
18685SOL    HW156633   5.934   4.299   8.531  1.7964  0.4865  0.8920
18685SOL    HW256634   5.839   4.376   8.441 -0.3752 -1.0529  1.7765
18686SOL     OW56635   1.878   6.507   7.860 -0.0816 -0.1538 -0.0517
18686SOL    HW156636   1.816   6.530   7.791 -0.7055 -0.9045  0.2546
18686SOL    HW256637   1.926   6.432   7.825  0.8737  0.5946 -0.4054
18687SOL     OW56638   3.553   5.990   5.471  0.3771  0.0387  0.0954
18687SOL    HW156639   3.636   6.014   5.431  0.9854  0.1324  1.3863
18687SOL    HW256640   3.509   6.074   5.486  1.3786  0.2490  2.1899
18688SOL     OW56641   7.581   1.319   1.675  0.5753 -0.4397  0.3124
18688SOL    HW156642   7.619   1.400   1.708 -1.7415  0.9967 -0.3124
18688SOL    HW256643   7.645   1.287   1.612  1.4879  0.9703  0.4726
18689SOL     OW56644   5.319   4.168   0.580  0.6622  0.3456 -0.3069
18689SOL    HW156645   5.347   4.179   0.489  1.1814  0.8676 -0.0924
18689SOL    HW256646   5.331   4.075   0.598 -2.3176 -0.4181 -1.6847
18690SOL     OW56647   6.674   7.118   6.018  0.1470  0.2066 -0.1953
18690SOL    HW156648   6.762   7.145   5.993  0.7065 -0.1356  1.3185
18690SOL    HW256649   6.654   7.168   6.097 -0.8583 -0.0295 -0.2823
18691SOL     OW56650   2.639   0.737   8.499  0.0225  0.0774 -0.0430
18691SOL    HW156651   2.704   0.667   8.507  0.1395  0.1896 -0.0255
18691SOL    HW256652   2.571   0.699   8.443  0.2938  0.1021 -0.3942
18692SOL     OW56653   3.813   2.864   5.315  0.4679  0.7494 -0.3890
18692SOL    HW156654   3.803   2.931   5.247  1.5037  0.9198 -0.3904
18692SOL    HW256655   3.899   2.882   5.354  2.1073 -2.2744 -2.2659
18693SOL     OW56656   1.709   6.701   2.631 -0.0191  0.3297  0.0274
18693SOL    HW156657   1.656   6.753   2.691 -0.0224  0.2934  0.0560
18693SOL    HW256658   1.664   6.709   2.547  1.1430  2.1577 -0.4874
18694SOL     OW56659   8.260   5.183   1.127 -0.8879 -0.1183  0.1103
18694SOL    HW156660   8.282   5.224   1.210  0.2540  1.2208 -0.8055
18694SOL    HW256661   8.165   5.170   1.131 -0.8975  0.2219  1.4677
18695SOL     OW56662   3.201   1.705   2.580  0.3918 -0.1237 -0.1642
18695SOL    HW156663   3.148   1.727   2.657  0.3659 -0.0675 -0.1976
18695SOL    HW256664   3.155   1.747   2.507  1.2064  1.0784 -0.0184
18696SOL     OW56665   6.591   5.203   8.939 -0.5088  0.0812  0.2075
18696SOL    HW156666   6.497   5.211   8.954 -0.0268  0.7801  3.5082
18696SOL    HW256667   6.619   5.291   8.913 -0.5973  0.0948  0.1555
18697SOL     OW56668   1.093   3.650   7.820  0.2993 -0.0471  0.7366
18697SOL    HW156669   1.082   3.589   7.747 -1.4583  0.5311  0.4737
18697SOL    HW256670   1.180   3.687   7.808  0.3069 -0.4829 -0.6650
18698SOL     OW56671   1.533   4.747   9.668 -0.2780  0.2758  0.9240
18698SOL    HW156672   1.441   4.744   9.691 -0.2199  0.9266  1.2600
18698SOL    HW256673   1.534   4.743   9.572 -0.5093 -2.7043  0.9489
18699SOL     OW56674   0.386   0.302   4.308 -0.1334 -0.6195 -0.3619
18699SOL    HW156675   0.319   0.292   4.240 -0.9081  0.9119  0.1132
18699SOL    HW256676   0.396   0.397   4.317  0.5723 -0.8091  1.0600
18700SOL     OW56677   8.282   4.626   9.806  1.1422  0.4737  0.4367
18700SOL    HW156678   8.247   4.713   9.791  0.4037  0.5216  2.2012
18700SOL    HW256679   8.294   4.589   9.718 -2.9000  0.6347 -0.3674
18701SOL     OW56680   9.673   8.855   9.828 -0.2678  0.2078  0.6437
18701SOL    HW156681   9.654   8.796   9.901 -0.7032 -1.6260 -0.8791
18701SOL    HW256682   9.730   8.805   9.770 -2.1523  0.5108 -1.6431
18702SOL     OW56683   5.352   8.922   3.919  0.4997 -0.4658  1.0358
18702SOL    HW156684   5.399   8.918   3.836  0.9799 -2.3007  1.3465
18702SOL    HW256685   5.274   8.869   3.906  0.3248 -0.3549  1.6004
18703SOL     OW56686   9.897   7.105   4.480 -0.2286  0.3429 -0.0900
18703SOL    HW156687   9.990   7.122   4.491 -0.2315  0.3525 -0.0796
18703SOL    HW256688   9.854   7.166   4.540 -0.2172 -0.0817  0.3572
18704SOL     OW56689   5.761   0.245   9.493 -0.0142  0.5148 -0.2210
18704SOL    HW156690   5.801   0.207   9.572  0.9201  0.4515 -0.7049
18704SOL    HW256691   5.798   0.333   9.488  0.1694  0.4085 -0.7547
18705SOL     OW56692   9.218   6.566   0.173 -0.3822 -0.3342 -0.0981
18705SOL    HW156693   9.168   6.543   0.251  1.8966  0.6329  1.7578
18705SOL    HW256694   9.205   6.660   0.162  0.7522 -0.1230  0.2396
18706SOL     OW56695   0.131   9.552   8.837  0.1616 -0.1942 -0.0548
18706SOL    HW156696   0.078   9.625   8.806  1.2741  0.3037 -0.8426
18706SOL    HW256697   0.085   9.520   8.915 -1.2699  0.2165 -0.7089
18707SOL     OW56698   0.452   3.714   2.259  0.7832 -0.2509  0.4609
18707SOL    HW156699   0.366   3.727   2.297  1.5192  1.6597  1.5957
18707SOL    HW256700   0.511   3.704   2.334  1.5574 -1.6715 -0.2885
18708SOL     OW56701   2.144   6.824   4.028 -0.0081 -0.0465  0.7820
18708SOL    HW156702   2.091   6.899   4.000  0.6572 -0.0188 -0.4510
18708SOL    HW256703   2.234   6.856   4.024  0.2724 -0.8698  0.4004
18709SOL     OW56704   8.373   8.890   1.989 -0.1969  0.8538 -0.3414
18709SOL    HW156705   8.316   8.878   1.913  1.7305 -0.2188 -1.7142
18709SOL    HW256706   8.407   8.802   2.007  2.0875  1.6350 -0.4970
18710SOL     OW56707   7.336   8.236   7.451 -0.3638 -0.1134  0.2248
18710SOL    HW156708   7.344   8.330   7.461 -0.7069 -0.0414 -0.1542
18710SOL    HW256709   7.374   8.200   7.531  0.1165  0.3311  0.1985
18711SOL     OW56710   2.007   6.067   7.931  0.1917  0.6495  0.0114
18711SOL    HW156711   2.001   6.134   7.862 -0.0746  1.1514  0.5082
18711SOL    HW256712   2.003   5.984   7.884  0.4300  0.9835 -0.6118
18712SOL     OW56713   5.774   3.027   6.066  0.2467 -0.1583 -0.4874
18712SOL    HW156714   5.774   3.049   6.159  0.9442 -2.6795  0.1881
18712SOL    HW256715   5.694   2.976   6.053  0.3277 -0.1132 -1.2106
18713SOL     OW56716   5.314   1.575   4.713 -0.5243  0.0384 -0.1782
18713SOL    HW156717   5.401   1.558   4.677 -0.7539  0.2307 -0.8471
18713SOL    HW256718   5.330   1.614   4.798  0.0998  1.9828 -1.1311
18714SOL     OW56719   5.132   4.897   7.949  0.3096  0.0072  0.2144
18714SOL    HW156720   5.159   4.842   8.023  1.1903 -1.4773 -1.1535
18714SOL    HW256721   5.187   4.976   7.958 -0.9991  0.7833  2.2198
18715SOL     OW56722   5.443   4.279   4.678  0.0582 -0.6022 -0.4754
18715SOL    HW156723   5.368   4.272   4.619  0.6880 -1.5490 -1.1918
18715SOL    HW256724   5.429   4.210   4.744 -0.3506  0.0745  0.1613
18716SOL     OW56725   9.977   1.482   9.396 -0.2376 -0.2068 -0.1758
18716SOL    HW156726   9.970   1.388   9.380  0.4084  0.0412 -2.2561
18716SOL    HW256727   9.888   1.515   9.381 -0.0578 -0.2569 -1.5039
18717SOL     OW56728   8.159   6.816   3.607  0.0562  0.7930 -0.4858
18717SOL    HW156729   8.126   6.802   3.696 -0.1630  0.5733 -0.5980
18717SOL    HW256730   8.251   6.790   3.611  0.2578  1.5532 -0.1334
18718SOL     OW56731   7.395   7.112   9.073 -0.1603  0.3679 -0.1993
18718SOL    HW156732   7.470   7.166   9.096 -0.0994  0.8124 -1.3579
18718SOL    HW256733   7.434   7.032   9.036 -0.1882  1.2204 -2.2346
18719SOL     OW56734   5.442   8.367   6.153  0.1092 -0.0926 -0.3173
18719SOL    HW156735   5.474   8.307   6.086  0.9119 -1.8976  1.5772
18719SOL    HW256736   5.522   8.405   6.191 -0.3226  0.7366 -0.2124
18720SOL     OW56737   1.858   1.074   4.685 -0.1799 -0.4675 -0.0209
18720SOL    HW156738   1.785   1.125   4.721  1.1872  0.6281  1.3330
18720SOL    HW256739   1.874   1.111   4.599  1.6341  2.4788  1.4130
18721SOL     OW56740   9.213   0.205   7.255 -0.7936  0.1547 -0.2314
18721SOL    HW156741   9.224   0.187   7.348  0.3248 -1.0280 -0.5574
18721SOL    HW256742   9.149   0.276   7.251 -0.3728  0.6629  1.4567
18722SOL     OW56743   2.588   3.399   5.103  0.0881 -1.2370  0.0967
18722SOL    HW156744   2.628   3.380   5.018 -1.1943 -0.4304 -0.7154
18722SOL    HW256745   2.654   3.450   5.149  0.3857 -0.7561 -0.8371
18723SOL     OW56746   9.938   3.526   2.792 -0.0778 -0.1110 -0.3372
18723SOL    HW156747  10.027   3.557   2.809  0.1289 -2.0704  3.2266
18723SOL    HW256748   9.941   3.488   2.705  1.7497  2.3375 -1.4439
18724SOL     OW56749   0.037   1.618   2.449 -0.0370  0.1039 -0.0498
18724SOL    HW156750   0.075   1.659   2.527 -1.0042  1.0976 -0.0718
18724SOL    HW256751  -0.021   1.550   2.484 -0.5425  0.6118  0.1138
18725SOL     OW56752   8.129   5.590   1.799  0.1020 -0.3038  0.3473
18725SOL    HW156753   8.056   5.639   1.838 -1.0006 -0.1524 -1.7794
18725SOL    HW256754   8.090   5.509   1.767  0.3313  0.6652 -2.6862
18726SOL     OW56755   1.226   0.658   5.304  0.1161 -0.5110  0.0734
18726SOL    HW156756   1.282   0.636   5.378  1.8266 -1.3785 -1.3761
18726SOL    HW256757   1.139   0.629   5.330  0.4216  0.3170  2.1831
18727SOL     OW56758   5.549   1.717   3.928 -0.1436 -0.0534 -0.0026
18727SOL    HW156759   5.626   1.693   3.979  0.2562 -1.9737 -1.4144
18727SOL    HW256760   5.519   1.636   3.888 -1.1853  1.1384 -1.8124
18728SOL     OW56761   6.315   1.222   4.274  0.1838 -0.5579  0.7443
18728SOL    HW156762   6.342   1.138   4.237 -1.9603 -1.2459  0.6452
18728SOL    HW256763   6.373   1.234   4.350  1.8739 -1.0996 -0.3818
18729SOL     OW56764   9.424   5.599   5.442  0.3512  0.0972 -0.1357
18729SOL    HW156765   9.412   5.611   5.536  0.6554  1.3833 -0.2423
18729SOL    HW256766   9.476   5.674   5.414 -1.2605  0.7199 -1.6494
18730SOL     OW56767   0.937   1.150   1.212 -0.4412  0.0122  0.3013
18730SOL    HW156768   0.901   1.072   1.169 -1.0860  0.1085  0.6536
18730SOL    HW256769   0.956   1.210   1.140 -4.0215  1.2517  0.1730
18731SOL     OW56770   6.185   7.172   8.064  0.9406  0.0749 -0.4079
18731SOL    HW156771   6.182   7.123   7.981  0.9163  0.4055 -0.6037
18731SOL    HW256772   6.208   7.106   8.129  0.8719 -0.2078 -0.6649
18732SOL     OW56773   6.536   2.024   8.837  0.4272 -0.0170 -0.2833
18732SOL    HW156774   6.526   2.084   8.912  1.3293 -1.8043  1.3440
18732SOL    HW256775   6.622   2.045   8.801  0.8247 -0.4281  0.4029
18733SOL     OW56776   7.452   6.250   7.624 -0.2261  0.0585 -0.3221
18733SOL    HW156777   7.483   6.289   7.706  2.3032 -0.8762 -0.7674
18733SOL    HW256778   7.454   6.321   7.561 -0.0649  0.2699 -0.0792
18734SOL     OW56779   6.080   7.370   5.143  0.5108  0.1556 -0.1106
18734SOL    HW156780   6.165   7.399   5.111  0.8521  1.3880  1.7207
18734SOL    HW256781   6.036   7.451   5.169 -0.9060 -0.5305 -0.2742
18735SOL     OW56782   4.611   4.304   8.811  0.7266  0.1805 -0.1771
18735SOL    HW156783   4.621   4.378   8.750  1.4740  0.1885 -0.0594
18735SOL    HW256784   4.653   4.335   8.892  0.7830 -0.2657 -0.0365
18736SOL     OW56785   6.365   3.949   7.583 -0.0313  0.1740 -0.3102
18736SOL    HW156786   6.413   3.946   7.666 -0.9004  2.2082  0.3367
18736SOL    HW256787   6.274   3.935   7.609 -0.2884  0.6618 -0.9381
18737SOL     OW56788   0.410   0.349   1.799  0.8677  0.3011  0.5581
18737SOL    HW156789   0.460   0.385   1.726 -1.0655  0.2598 -0.8807
18737SOL    HW256790   0.394   0.423   1.857 -1.4745  1.5321 -1.4364
18738SOL     OW56791   9.117   5.309   4.698 -0.5074  0.0457  0.3372
18738SOL    HW156792   9.028   5.298   4.730 -0.2627 -1.0692  0.6684
18738SOL    HW256793   9.172   5.266   4.764  0.2338  0.2346 -0.1428
18739SOL     OW56794   4.723   2.531   8.079  0.2530  0.0867 -0.0910
18739SOL    HW156795   4.754   2.441   8.067 -0.4394 -0.0667 -0.8180
18739SOL    HW256796   4.709   2.539   8.173  1.2111 -0.2623  0.0909
18740SOL     OW56797   4.930   1.802   3.947  0.3469 -0.2501  0.3371
18740SOL    HW156798   4.948   1.844   4.031  0.6148  0.1836  0.0734
18740SOL    HW256799   4.904   1.875   3.890  1.3187 -0.3625 -0.2695
18741SOL     OW56800   7.512   4.719   9.418  0.1226  0.0766  0.8705
18741SOL    HW156801   7.555   4.638   9.391 -2.0261 -0.6281 -0.7275
18741SOL    HW256802   7.438   4.729   9.358 -1.0926  1.9600  2.5144
18742SOL     OW56803   3.649   1.005   7.722  0.0081  0.6299  0.8578
18742SOL    HW156804   3.733   1.008   7.676 -0.1510  0.2154  0.5266
18742SOL    HW256805   3.612   1.093   7.712 -0.3202  0.3683 -0.3926
18743SOL     OW56806   8.466   1.070   9.530 -0.6757  0.1356 -0.2377
18743SOL    HW156807   8.549   1.117   9.541 -0.8328  0.4005 -0.1692
18743SOL    HW256808   8.481   1.013   9.454 -0.8732  1.1910 -1.1006
18744SOL     OW56809   8.497   3.884   7.229 -0.5239  0.2153 -0.1061
18744SOL    HW156810   8.442   3.806   7.222 -0.2691  0.0504 -0.2801
18744SOL    HW256811   8.537   3.894   7.143  0.2029 -0.0239  0.1951
18745SOL     OW56812   3.366   0.121   6.169  0.3457 -0.3284 -0.2428
18745SOL    HW156813   3.278   0.128   6.131  0.4109 -1.5503 -0.6670
18745SOL    HW256814   3.424   0.110   6.093  1.0215  1.5424 -0.0464
18746SOL     OW56815   4.859   3.804   6.884  0.1565 -0.3152 -0.0290
18746SOL    HW156816   4.846   3.763   6.799 -0.1064  0.2390 -0.2658
18746SOL    HW256817   4.776   3.850   6.900  1.0716  1.6486 -0.6311
18747SOL     OW56818   2.057   3.345   3.129  0.4300  0.3827 -0.4000
18747SOL    HW156819   2.050   3.419   3.190 -1.0539  0.6738 -0.8959
18747SOL    HW256820   1.967   3.320   3.111  0.9028 -1.0123 -0.9108
18748SOL     OW56821   1.377   1.809   0.953 -0.8106  0.1546  0.4554
18748SOL    HW156822   1.391   1.833   1.045 -0.6668 -0.0568  0.4900
18748SOL    HW256823   1.291   1.844   0.932 -1.5647 -1.1704  1.1435
18749SOL     OW56824   8.722   3.524   3.658 -0.4380 -0.3883 -0.1378
18749SOL    HW156825   8.810   3.513   3.622  0.0737 -0.6544  1.1484
18749SOL    HW256826   8.731   3.589   3.727 -0.7969 -1.9368  1.4534
18750SOL     OW56827   6.154   3.256   6.868 -0.2821 -0.8395  0.4287
18750SOL    HW156828   6.104   3.258   6.787 -0.7644 -1.0867  0.7175
18750SOL    HW256829   6.232   3.205   6.846 -0.2002 -0.5383  0.0059
18751SOL     OW56830   5.706   9.099   2.312  0.5933  0.6179  0.2939
18751SOL    HW156831   5.760   9.022   2.330 -0.7096 -0.3543  0.2674
18751SOL    HW256832   5.638   9.096   2.379  0.3346  1.5711  0.0870
18752SOL     OW56833   4.354   0.981   3.241  1.0466  0.4684 -0.5020
18752SOL    HW156834   4.393   1.066   3.260  0.0489  0.4128  2.1172
18752SOL    HW256835   4.429   0.922   3.233  1.7376  1.5173 -2.2180
18753SOL     OW56836   0.546   5.784   9.178  0.6068 -0.0291  0.0605
18753SOL    HW156837   0.596   5.850   9.226  0.5258 -0.8253  1.2897
18753SOL    HW256838   0.456   5.796   9.208  0.0363  1.2031 -1.9200
18754SOL     OW56839   8.679   4.622   4.659 -0.3653  0.3840  0.3164
18754SOL    HW156840   8.612   4.679   4.696 -1.1461 -0.3763  0.1047
18754SOL    HW256841   8.645   4.599   4.572  1.1080  1.5955 -0.6156
18755SOL     OW56842   4.685   7.172   4.828  0.1327 -0.5278  0.4162
18755SOL    HW156843   4.592   7.192   4.815  0.4556  0.3600 -0.7039
18755SOL    HW256844   4.709   7.115   4.755  0.5525 -0.4705  0.5033
18756SOL     OW56845   8.056   0.221   1.266  0.0309 -0.2528 -0.2235
18756SOL    HW156846   8.082   0.134   1.296  0.9919 -0.0847 -0.5286
18756SOL    HW256847   8.108   0.236   1.187 -0.0099  0.6660 -0.0884
18757SOL     OW56848   2.324   7.285   8.984  0.4563 -0.1220 -0.0927
18757SOL    HW156849   2.339   7.231   9.062  0.1571 -1.7431 -1.0983
18757SOL    HW256850   2.315   7.374   9.017  1.1612 -0.6510  1.6289
18758SOL     OW56851   4.314   6.302   5.526 -0.6852 -0.0420 -0.3426
18758SOL    HW156852   4.367   6.270   5.452  0.2159 -1.0982  0.7296
18758SOL    HW256853   4.312   6.397   5.514  0.5778 -0.0774 -1.0017
18759SOL     OW56854   6.469   1.642   1.946 -0.6579  0.2183  0.3245
18759SOL    HW156855   6.501   1.556   1.972  1.0224  0.6459 -0.2003
18759SOL    HW256856   6.414   1.671   2.019 -0.0429 -0.6843  1.1650
18760SOL     OW56857   1.072   3.369   4.279  0.1621 -0.1249 -0.0633
18760SOL    HW156858   1.141   3.419   4.236  0.4509 -0.6384 -0.2102
18760SOL    HW256859   1.049   3.300   4.217  2.7606 -2.8143  1.6876
18761SOL     OW56860   7.270   1.890   3.262 -0.2558 -0.2028 -0.0581
18761SOL    HW156861   7.311   1.914   3.179  0.8960 -1.7921  0.0108
18761SOL    HW256862   7.202   1.827   3.237  0.4014 -1.0384  0.2277
18762SOL     OW56863   2.558   1.304   7.794 -0.6653 -0.6403  0.6014
18762SOL    HW156864   2.481   1.306   7.737  1.1135 -0.9054 -1.9322
18762SOL    HW256865   2.561   1.391   7.834 -1.6249 -0.2479 -0.1481
18763SOL     OW56866   8.072   4.571   5.165  0.2899 -0.1468 -0.5933
18763SOL    HW156867   8.002   4.565   5.100 -1.8249  0.0546  1.5483
18763SOL    HW256868   8.081   4.665   5.181 -0.5253 -0.2601  0.6884
18764SOL     OW56869   9.112   8.536   4.725 -0.2105  0.2339  0.3531
18764SOL    HW156870   9.020   8.562   4.732  0.2293  1.4812  2.0037
18764SOL    HW256871   9.133   8.549   4.632 -1.9517 -1.1020 -0.2864
18765SOL     OW56872   5.756   0.392   7.601  0.0880 -0.2999 -1.1197
18765SOL    HW156873   5.845   0.411   7.570  0.0048 -1.4396 -2.1570
18765SOL    HW256874   5.733   0.467   7.655  1.8060 -0.1230 -0.5502
18766SOL     OW56875   2.550   3.668   6.855  0.5199  0.2150 -0.5094
18766SOL    HW156876   2.466   3.712   6.838 -0.5435 -1.8430 -0.8235
18766SOL    HW256877   2.596   3.673   6.771  0.5756  0.9979 -0.4472
18767SOL     OW56878   1.692   3.467   7.470 -0.3393 -0.5087  0.0741
18767SOL    HW156879   1.686   3.561   7.481  0.0875 -0.3654 -0.8343
18767SOL    HW256880   1.637   3.431   7.540 -3.4333  0.4857 -1.6594
18768SOL     OW56881   9.248   2.433   3.338 -0.3910  0.0701  0.2213
18768SOL    HW156882   9.284   2.377   3.270 -0.2117 -0.1499  0.4940
18768SOL    HW256883   9.311   2.505   3.345  0.7184 -0.9594  1.5847
18769SOL     OW56884   9.825   8.066   7.123  0.1514  0.2535 -0.0281
18769SOL    HW156885   9.904   8.015   7.105 -0.4245 -0.6270 -0.1381
18769SOL    HW256886   9.802   8.107   7.039 -0.2428 -0.5618 -0.3290
18770SOL     OW56887   0.870   2.933   4.309 -0.0652  0.0910 -0.3357
18770SOL    HW156888   0.895   3.009   4.362  1.8529  0.1244 -1.2100
18770SOL    HW256889   0.915   2.859   4.350  0.1140 -0.1543 -0.9675
18771SOL     OW56890   3.270   0.551   7.626 -0.3168 -0.4039 -0.3179
18771SOL    HW156891   3.308   0.499   7.697  0.0895 -0.3890 -0.5242
18771SOL    HW256892   3.343   0.567   7.566 -0.6634 -0.4384 -0.7530
18772SOL     OW56893   5.707   8.208   6.672 -0.5834  0.3957 -0.1623
18772SOL    HW156894   5.689   8.114   6.681 -1.5738  0.6898  1.2261
18772SOL    HW256895   5.773   8.213   6.604  0.7956 -1.4564  0.9495
18773SOL     OW56896   4.987   9.942   2.678  0.0230  0.2616  0.2629
18773SOL    HW156897   4.982  10.035   2.655  1.9830 -0.0378 -1.7827
18773SOL    HW256898   4.941   9.897   2.608 -2.3779 -0.3422  2.0813
18774SOL     OW56899   0.054   1.207   8.608  0.8166  0.1652  0.0203
18774SOL    HW156900   0.022   1.129   8.654 -1.2798  1.3150  0.6551
18774SOL    HW256901   0.012   1.203   8.522 -2.7663  2.5234  1.4120
18775SOL     OW56902   7.109   3.622   4.329  0.5602 -0.0513 -0.0532
18775SOL    HW156903   7.078   3.638   4.239 -1.6084 -1.6522  0.3067
18775SOL    HW256904   7.071   3.693   4.380 -0.0224 -0.3172 -0.1016
18776SOL     OW56905   2.450   5.180   4.729 -0.2546  0.3463  0.1171
18776SOL    HW156906   2.493   5.165   4.814 -1.4779 -0.3680  0.6299
18776SOL    HW256907   2.508   5.138   4.666 -0.8379 -1.8355  0.9551
18777SOL     OW56908   7.254   2.120   6.733 -0.3408  0.2689  0.0292
18777SOL    HW156909   7.296   2.106   6.818 -0.0505 -1.0265 -0.2991
18777SOL    HW256910   7.176   2.172   6.753 -1.6823 -2.1173  1.4988
18778SOL     OW56911   9.109   3.100   7.479  0.2366 -0.4701  0.3271
18778SOL    HW156912   9.054   3.031   7.517  1.1730 -1.0601  0.6485
18778SOL    HW256913   9.176   3.052   7.430  1.4857  0.1643  1.3686
18779SOL     OW56914   7.454   7.603   7.113  0.6437  0.2126 -1.2373
18779SOL    HW156915   7.430   7.663   7.042 -0.0886 -0.7986 -1.8660
18779SOL    HW256916   7.544   7.629   7.136  0.4443  1.3556 -1.6734
18780SOL     OW56917   5.508   2.482   6.396 -0.1495 -0.0674 -0.7044
18780SOL    HW156918   5.510   2.386   6.392  0.3460 -0.0800 -0.2970
18780SOL    HW256919   5.465   2.509   6.315  1.1276 -0.5963 -1.6000
18781SOL     OW56920   9.213   4.329   6.695 -0.3632  0.1555  0.2092
18781SOL    HW156921   9.167   4.259   6.649 -2.2100  0.8882  0.8370
18781SOL    HW256922   9.245   4.289   6.776 -1.2760 -0.0248  0.4927
18782SOL     OW56923   1.206   2.767   3.442 -0.2596 -0.0132  0.2970
18782SOL    HW156924   1.223   2.859   3.421 -2.8451  0.2323 -1.0878
18782SOL    HW256925   1.268   2.747   3.512  2.5824  1.8286 -1.4676
18783SOL     OW56926   7.765   4.352   5.236 -0.0876  0.3071  0.0218
18783SOL    HW156927   7.827   4.413   5.196  1.4025 -0.5622  0.8963
18783SOL    HW256928   7.772   4.273   5.182  0.0981 -0.0415  0.5572
18784SOL     OW56929   6.536   3.788   9.471  0.3478  0.6524 -0.2848
18784SOL    HW156930   6.600   3.736   9.422  0.4205  0.5747 -0.1095
18784SOL    HW256931   6.578   3.802   9.556 -1.0591 -1.8238  0.8908
18785SOL     OW56932   9.871   4.519   7.908 -0.2790 -0.3349 -0.4679
18785SOL    HW156933   9.779   4.544   7.905  0.0407  0.8603 -1.2581
18785SOL    HW256934   9.918   4.602   7.918  0.6365 -1.1255  2.5986
18786SOL     OW56935   4.627   1.442   4.660  0.0753 -0.2453 -0.1331
18786SOL    HW156936   4.569   1.403   4.726 -0.1698  2.3943  1.3436
18786SOL    HW256937   4.714   1.433   4.698 -0.0606  1.2286  0.5891
18787SOL     OW56938   5.430   3.480   6.748 -0.0823  0.0481  0.1818
18787SOL    HW156939   5.458   3.455   6.660 -0.9055 -2.0498  0.4364
18787SOL    HW256940   5.510   3.504   6.794  0.4839  0.1330 -0.8267
18788SOL     OW56941   6.130   9.008   7.666  0.2189 -0.2538 -0.4918
18788SOL    HW156942   6.217   8.971   7.681  1.2034  1.8528 -0.5887
18788SOL    HW256943   6.079   8.936   7.629  1.6661 -1.7710  0.3359
18789SOL     OW56944   6.490   9.869   6.320  0.0363 -0.2181  0.0240
18789SOL    HW156945   6.503   9.778   6.346  1.7565  0.0814  0.2827
18789SOL    HW256946   6.398   9.873   6.292  0.2325 -2.3061 -1.1272
18790SOL     OW56947   8.867   5.772   1.072 -0.3355  0.0558 -0.4484
18790SOL    HW156948   8.851   5.678   1.068 -1.5821  0.2129  0.4096
18790SOL    HW256949   8.910   5.785   1.156 -0.1392  0.2556 -0.5790
18791SOL     OW56950   1.759   6.039   9.238  0.0138 -0.0520 -0.5660
18791SOL    HW156951   1.836   6.053   9.293 -0.6836 -1.4885  0.8388
18791SOL    HW256952   1.790   6.060   9.149  2.1568 -0.9535 -0.1107
18792SOL     OW56953   5.258   9.251   3.699  0.1105 -0.2263 -0.5952
18792SOL    HW156954   5.174   9.278   3.661 -0.8876 -0.4569  1.3320
18792SOL    HW256955   5.235   9.215   3.784  2.3620  1.7667  0.9909
18793SOL     OW56956   1.316   1.430   7.447 -0.0335 -0.1624  0.6460
18793SOL    HW156957   1.269   1.506   7.413  1.0004 -0.0503 -0.6111
18793SOL    HW256958   1.396   1.466   7.486  1.5046 -0.6744 -1.8064
18794SOL     OW56959   0.607   2.270   5.578  0.3374  0.6374 -0.1749
18794SOL    HW156960   0.608   2.326   5.500  0.8570 -0.7796 -1.2546
18794SOL    HW256961   0.548   2.199   5.555  1.1961 -0.2823  0.3493
18795SOL     OW56962   9.922   6.882   4.280 -0.5472 -0.4129 -0.9084
18795SOL    HW156963  10.005   6.861   4.239  0.5871  0.8388  0.6516
18795SOL    HW256964   9.943   6.943   4.349 -2.5916 -1.1530  0.4878
18796SOL     OW56965   3.529   5.810   5.990  0.0009  0.1253 -0.4526
18796SOL    HW156966   3.482   5.804   6.073  0.8470 -2.8520 -0.0679
18796SOL    HW256967   3.461   5.823   5.924 -1.0722 -1.0699  0.3776
18797SOL     OW56968   1.494   0.783   0.867 -0.1055  0.1393 -0.4895
18797SOL    HW156969   1.410   0.791   0.912 -0.2435  2.8122 -1.0159
18797SOL    HW256970   1.474   0.738   0.785 -0.5551 -1.2901  0.3700
18798SOL     OW56971   2.528   2.348   8.051 -0.1481  0.2973 -0.1338
18798SOL    HW156972   2.583   2.378   7.978  3.0460  0.9322  2.3057
18798SOL    HW256973   2.498   2.261   8.023 -1.8091  1.7375 -3.4529
18799SOL     OW56974   5.769   7.231   1.441  0.2391 -0.4047  0.0132
18799SOL    HW156975   5.847   7.272   1.479 -0.4206 -1.2177  2.4900
18799SOL    HW256976   5.695   7.281   1.478 -0.4659 -0.8263 -0.7815
18800SOL     OW56977   7.878   9.786   9.649 -0.1099  0.4776  0.2592
18800SOL    HW156978   7.866   9.692   9.662  1.8553  0.2171  0.5088
18800SOL    HW256979   7.864   9.824   9.736  0.4289  0.2528  0.4460
18801SOL     OW56980   5.575   1.125   4.388  0.5585  0.4231 -0.1670
18801SOL    HW156981   5.517   1.168   4.326 -2.2199  0.9853  2.5491
18801SOL    HW256982   5.602   1.044   4.344 -2.4262  0.0818 -1.6030
18802SOL     OW56983   3.350   1.326   0.584  0.0615 -0.3159 -0.3333
18802SOL    HW156984   3.426   1.268   0.576  0.1868 -0.0475 -1.1664
18802SOL    HW256985   3.334   1.331   0.678  2.2274  1.1025  0.0370
18803SOL     OW56986   9.442   7.337   7.513 -0.2333 -0.3951 -0.1266
18803SOL    HW156987   9.393   7.350   7.595 -0.9478 -0.2009 -0.5798
18803SOL    HW256988   9.380   7.360   7.444 -0.5182 -3.1166 -0.8672
18804SOL     OW56989   8.972   7.903   4.451 -0.4830  0.2918  0.6499
18804SOL    HW156990   8.977   7.985   4.402 -0.3926  0.6432  1.2316
18804SOL    HW256991   9.033   7.915   4.524 -0.2118 -0.4256  0.5532
18805SOL     OW56992   8.824   6.981   4.687  0.4747 -0.0997 -0.3237
18805SOL    HW156993   8.737   6.966   4.650  1.3615 -1.9325 -1.8891
18805SOL    HW256994   8.812   6.978   4.782 -1.1293 -0.6457 -0.5242
18806SOL     OW56995   9.063   8.138   1.903 -0.4523 -0.3411 -0.0717
18806SOL    HW156996   9.144   8.099   1.936  0.6822 -0.1671 -2.3970
18806SOL    HW256997   8.996   8.072   1.919  0.6302 -1.5360 -0.2645
18807SOL     OW56998   4.115   0.956   5.540 -0.4738  0.0899 -0.1252
18807SOL    HW156999   4.125   0.873   5.586 -1.3509 -0.1758 -0.3896
18807SOL    HW257000   4.177   0.952   5.467 -0.6297 -0.4042 -0.2316
18808SOL     OW57001   8.504   4.704   0.827  0.1104 -0.4999 -0.3025
18808SOL    HW157002   8.476   4.699   0.736  1.8631  0.0837 -0.9202
18808SOL    HW257003   8.591   4.744   0.823 -0.8454  2.0285  1.8385
18809SOL     OW57004   6.880   6.708   7.066  0.0793 -0.0848 -0.1594
18809SOL    HW157005   6.879   6.744   7.155  0.5429  0.8495 -0.5193
18809SOL    HW257006   6.787   6.699   7.043 -0.0508  0.8333 -0.0331
18810SOL     OW57007   3.263   9.172   5.952  0.7406  0.3029 -0.2847
18810SOL    HW157008   3.183   9.121   5.965 -0.6387  0.8302 -4.8943
18810SOL    HW257009   3.241   9.260   5.983  0.1547  0.0592  0.0080
18811SOL     OW57010   4.938   8.593   6.330  0.2172  0.5111  0.4677
18811SOL    HW157011   4.981   8.507   6.321  0.3741  0.7605 -1.6846
18811SOL    HW257012   4.862   8.576   6.386 -0.4800 -1.3506 -0.9272
18812SOL     OW57013   4.644   1.390   6.850  0.1002  0.1275  0.1110
18812SOL    HW157014   4.681   1.346   6.774 -2.0647 -0.8356 -0.4510
18812SOL    HW257015   4.629   1.321   6.914 -1.7367  0.2492 -0.1277
18813SOL     OW57016   0.069   2.226   9.969 -0.4643 -0.1795  0.8069
18813SOL    HW157017   0.103   2.163  10.032 -2.1819 -0.1803  1.7899
18813SOL    HW257018  -0.002   2.179   9.925  1.2159 -0.4855 -1.8024
18814SOL     OW57019   9.339   7.078   7.076 -0.5503  0.3516  0.4258
18814SOL    HW157020   9.378   7.149   7.128 -0.7559  0.1636  0.8356
18814SOL    HW257021   9.301   7.019   7.140  0.7503 -0.8176  0.1810
18815SOL     OW57022   8.848   5.037   9.913  0.3553 -0.3904  0.2965
18815SOL    HW157023   8.943   5.022   9.910  0.2964 -0.7324 -2.8398
18815SOL    HW257024   8.839   5.132   9.905  0.4424 -0.4238 -0.2490
18816SOL     OW57025   6.805   8.816   2.227 -0.0000  0.0153  0.2880
18816SOL    HW157026   6.803   8.733   2.179 -0.4950  0.0968  0.1720
18816SOL    HW257027   6.790   8.790   2.318  0.0302 -0.0406  0.2774
18817SOL     OW57028   0.592   3.786   1.456 -0.2396 -0.1439 -0.0454
18817SOL    HW157029   0.655   3.741   1.399 -0.9398 -0.2737 -0.7233
18817SOL    HW257030   0.612   3.752   1.544  0.8419  0.0572 -0.1924
18818SOL     OW57031   3.245   6.537   7.845  0.5880  0.0639  0.0821
18818SOL    HW157032   3.310   6.474   7.814  0.8726  1.1100 -1.5465
18818SOL    HW257033   3.186   6.550   7.771 -0.3842  0.5416  0.9195
18819SOL     OW57034   6.979   3.429   3.661 -0.7535 -0.0391  0.6278
18819SOL    HW157035   6.915   3.461   3.725 -1.1167  1.1262 -0.2921
18819SOL    HW257036   7.030   3.506   3.637 -0.0539 -0.6371  0.1343
18820SOL     OW57037   1.152   7.561   8.696 -0.0023  0.0247 -0.6166
18820SOL    HW157038   1.067   7.517   8.692  0.5292 -0.9782 -1.0536
18820SOL    HW257039   1.152   7.618   8.620 -0.1098 -0.2838 -0.8477
18821SOL     OW57040   9.801   3.900   3.574 -0.3404  0.1454 -0.1723
18821SOL    HW157041   9.855   3.863   3.644  1.4966  2.2601 -0.3440
18821SOL    HW257042   9.841   3.867   3.493 -1.8172 -1.4475 -0.3127
18822SOL     OW57043   8.392   7.919   2.578 -0.1272 -0.2719  0.3534
18822SOL    HW157044   8.306   7.918   2.620 -0.1680  2.2308  0.4579
18822SOL    HW257045   8.377   7.963   2.494  0.5086 -2.6361 -1.0990
18823SOL     OW57046   3.831   3.208   9.925  0.4831 -0.0465 -0.2752
18823SOL    HW157047   3.766   3.188   9.857  0.9857 -0.3121 -0.6835
18823SOL    HW257048   3.780   3.215  10.005 -0.3724  1.8848 -0.9135
18824SOL     OW57049   1.306   4.974   3.648  0.3204  0.2552  0.0318
18824SOL    HW157050   1.233   4.913   3.645  1.3204 -0.9477 -0.5390
18824SOL    HW257051   1.313   4.999   3.740 -1.2355  0.9615 -0.0008
18825SOL     OW57052   5.159   9.145   2.972 -0.1497 -0.1185  0.0912
18825SOL    HW157053   5.221   9.081   3.008  0.1267 -1.3097 -2.3416
18825SOL    HW257054   5.176   9.225   3.023  1.4664 -1.1802  1.3227
18826SOL     OW57055   7.406   2.278   5.256  0.9549 -0.3672 -0.1918
18826SOL    HW157056   7.359   2.313   5.181  1.5822  1.0810  0.0639
18826SOL    HW257057   7.493   2.317   5.251  1.1649 -0.6233  1.0141
18827SOL     OW57058   6.663   4.246   7.970 -0.3573 -0.2363  0.2467
18827SOL    HW157059   6.666   4.338   7.942 -1.9881  0.0720  0.9864
18827SOL    HW257060   6.571   4.229   7.987  0.0301 -1.7671  0.9722
18828SOL     OW57061   9.514   8.272   7.185  0.1344 -0.8405  0.0620
18828SOL    HW157062   9.552   8.317   7.260  0.6485 -0.8228 -0.2033
18828SOL    HW257063   9.589   8.253   7.128 -0.5051  1.9761 -1.9709
18829SOL     OW57064   3.837   8.500   0.987  0.0616 -0.2893  0.4700
18829SOL    HW157065   3.780   8.572   0.960 -0.5588 -1.1097 -0.4751
18829SOL    HW257066   3.778   8.438   1.030  0.7138  0.0818  1.9794
18830SOL     OW57067   6.364   3.206   0.863  0.4436  0.0604  0.4811
18830SOL    HW157068   6.284   3.259   0.865  1.2645  1.3313  1.4824
18830SOL    HW257069   6.394   3.211   0.773  0.0323  0.5683  0.3649
18831SOL     OW57070   2.847   1.100   8.138 -0.5325  0.6158 -0.4129
18831SOL    HW157071   2.776   1.136   8.191 -0.0772  2.6331 -1.0778
18831SOL    HW257072   2.814   1.103   8.048 -0.2378 -0.0719 -0.5499
18832SOL     OW57073   2.601   0.229   1.625 -0.5758  0.1773 -0.1546
18832SOL    HW157074   2.661   0.265   1.560 -0.0315  0.5759  0.5507
18832SOL    HW257075   2.626   0.137   1.633  0.3306  0.4674  0.5367
18833SOL     OW57076   6.343   0.802   1.256 -0.4918 -0.3568 -0.0609
18833SOL    HW157077   6.327   0.826   1.348 -1.3312  1.4721 -0.6337
18833SOL    HW257078   6.256   0.780   1.222 -0.2474 -0.5886 -0.5331
18834SOL     OW57079   0.963   2.641   7.531  0.2731 -0.0194 -0.3018
18834SOL    HW157080   0.966   2.557   7.485  1.5019 -0.0982 -0.1183
18834SOL    HW257081   0.906   2.696   7.477 -0.3417 -0.8873 -0.5555
18835SOL     OW57082   5.207   6.449   2.185  0.1716 -0.4117  0.5942
18835SOL    HW157083   5.279   6.391   2.212 -1.7244 -2.6688  1.1871
18835SOL    HW257084   5.130   6.412   2.227 -1.3810  1.8874 -0.0520
18836SOL     OW57085   0.399   7.691   2.628  0.2327 -0.0849 -0.4968
18836SOL    HW157086   0.374   7.599   2.636 -3.1222  0.6966 -0.4910
18836SOL    HW257087   0.458   7.706   2.701 -0.1671 -1.9552  0.2623
18837SOL     OW57088   1.648   1.340   8.122 -0.2785  0.3752 -0.7174
18837SOL    HW157089   1.583   1.339   8.052 -1.0490  2.9688 -0.1571
18837SOL    HW257090   1.690   1.255   8.117 -2.8171 -0.9165 -1.9472
18838SOL     OW57091   3.364   7.720   0.459 -0.7090  0.1367  0.7662
18838SOL    HW157092   3.408   7.674   0.530 -0.8305 -0.3133  0.5551
18838SOL    HW257093   3.319   7.651   0.410 -0.1429  0.3628 -0.0908
18839SOL     OW57094   7.608   5.009   9.064 -0.0303  0.2639 -0.3664
18839SOL    HW157095   7.619   4.965   9.149 -1.2851 -2.8063 -1.6632
18839SOL    HW257096   7.698   5.022   9.033  0.4604 -2.5771 -0.4050
18840SOL     OW57097   1.388   0.617   0.660  0.3774 -0.6902  0.1333
18840SOL    HW157098   1.418   0.591   0.573 -0.9940  1.2320 -1.0013
18840SOL    HW257099   1.342   0.541   0.694 -1.7908 -0.5411 -2.1850
18841SOL     OW57100   4.784   9.291   2.883 -0.1745  0.1864 -0.2621
18841SOL    HW157101   4.776   9.237   2.961  1.0849  0.9416  0.4265
18841SOL    HW257102   4.734   9.244   2.816  2.0994 -2.6969 -0.1598
18842SOL     OW57103   9.873   7.394   0.918 -0.1702  0.4638 -0.3809
18842SOL    HW157104   9.899   7.304   0.899 -1.6623 -0.3851  1.2756
18842SOL    HW257105   9.796   7.409   0.863 -1.2551 -0.0972  0.9335
18843SOL     OW57106   0.406   7.352   0.392  0.2262  0.4714  0.7906
18843SOL    HW157107   0.379   7.295   0.320 -1.9235  2.4752 -0.1297
18843SOL    HW257108   0.344   7.333   0.462  1.5987 -0.6477  1.7534
18844SOL     OW57109   0.210   3.544   8.617  0.1487  0.4662  0.2816
18844SOL    HW157110   0.119   3.547   8.647 -0.0246  1.8416 -0.3075
18844SOL    HW257111   0.235   3.452   8.626 -2.1072 -0.4736 -1.9560
18845SOL     OW57112   0.912   8.058   3.860 -0.7224 -0.1990  1.2448
18845SOL    HW157113   0.821   8.037   3.837  0.0523 -1.8693 -0.5867
18845SOL    HW257114   0.943   8.112   3.787  0.0402 -0.4352  1.3886
18846SOL     OW57115   6.716   8.473   8.499 -0.0892 -0.1141  0.0682
18846SOL    HW157116   6.716   8.407   8.430  0.1569 -0.9510  0.8472
18846SOL    HW257117   6.790   8.530   8.478  0.1634 -0.5348 -0.1925
18847SOL     OW57118   6.349   3.364   1.535  0.0435  0.4722  0.2336
18847SOL    HW157119   6.307   3.446   1.512 -0.2090  0.2169 -0.2472
18847SOL    HW257120   6.441   3.386   1.549 -0.2432  1.0321  1.2860
18848SOL     OW57121   6.080   0.361   5.697 -0.0912  0.4486  0.7477
18848SOL    HW157122   6.034   0.397   5.773  0.2852  0.3166  1.0394
18848SOL    HW257123   6.169   0.346   5.727  0.0615  0.3876  0.2795
18849SOL     OW57124   3.441   1.840   8.293 -0.0161 -0.8012  0.0260
18849SOL    HW157125   3.363   1.786   8.284 -0.0025 -0.6827 -1.0075
18849SOL    HW257126   3.436   1.901   8.220  0.6495 -0.2833  0.4038
18850SOL     OW57127   6.711   2.964   3.228  0.3463  1.0710 -0.1972
18850SOL    HW157128   6.671   3.002   3.305  1.4669  0.7257  0.5853
18850SOL    HW257129   6.683   2.872   3.229  0.3465  1.0709 -0.2069
18851SOL     OW57130   8.580   6.180   6.552  0.3953 -0.7450  0.1320
18851SOL    HW157131   8.552   6.117   6.486  1.3246 -0.8915 -0.1456
18851SOL    HW257132   8.523   6.164   6.628 -1.5280  0.2580 -1.0243
18852SOL     OW57133   0.279   2.869   0.710 -0.8898 -0.3567  0.5722
18852SOL    HW157134   0.251   2.876   0.619  0.0981 -1.1605  0.1804
18852SOL    HW257135   0.207   2.906   0.761 -1.1764  0.7137 -0.5653
18853SOL     OW57136   6.233   1.460   9.677 -0.4201 -0.2567  0.0078
18853SOL    HW157137   6.145   1.467   9.714 -0.1518  0.2317  0.5760
18853SOL    HW257138   6.221   1.409   9.597 -1.0252 -1.2852  0.7234
18854SOL     OW57139   5.732   9.781   3.420 -0.6361  0.2920 -0.0281
18854SOL    HW157140   5.730   9.819   3.332 -0.7461  0.4530  0.0436
18854SOL    HW257141   5.674   9.705   3.415  1.1178 -1.0920 -0.7246
18855SOL     OW57142   0.785   3.784   8.473 -0.0001 -0.2989  0.7017
18855SOL    HW157143   0.825   3.857   8.427  0.5873  1.2060  3.3772
18855SOL    HW257144   0.858   3.736   8.511 -0.4966  0.1081  2.2660
18856SOL     OW57145   8.546   6.955   4.649 -0.7400 -0.2036 -0.0118
18856SOL    HW157146   8.494   6.885   4.688  0.9304 -1.0771  0.7591
18856SOL    HW257147   8.520   7.034   4.696 -1.8039 -0.4925 -0.0900
18857SOL     OW57148   5.138   7.594   4.373  0.1506  0.6433 -0.2803
18857SOL    HW157149   5.090   7.525   4.420 -1.5572  1.1247 -1.2298
18857SOL    HW257150   5.228   7.585   4.404 -0.2102 -1.3593  0.3872
18858SOL     OW57151   4.564   2.953   5.120 -1.0271  0.6142  0.4420
18858SOL    HW157152   4.645   2.934   5.166 -0.2575 -1.5039 -1.5770
18858SOL    HW257153   4.581   3.035   5.074 -0.1301  0.3287  0.2535
18859SOL     OW57154   7.188   8.036   1.524 -0.2082 -0.2530 -0.0120
18859SOL    HW157155   7.219   8.114   1.479  0.4708  0.1123  1.0352
18859SOL    HW257156   7.232   7.963   1.480  0.8787  0.1345  0.3929
18860SOL     OW57157   0.689   4.921   0.349  0.5947  0.2886 -0.4394
18860SOL    HW157158   0.634   4.973   0.408  0.2253 -0.1222 -0.4094
18860SOL    HW257159   0.755   4.882   0.406  0.4834  0.2176 -0.3579
18861SOL     OW57160   6.063   4.031   3.816 -0.3780 -0.5056 -0.4262
18861SOL    HW157161   6.121   3.956   3.812 -2.0165 -1.8534 -0.1200
18861SOL    HW257162   5.992   4.010   3.755 -0.7198  0.9300 -0.5627
18862SOL     OW57163   2.991   5.605   5.466 -0.3830  0.0823  0.3588
18862SOL    HW157164   2.930   5.679   5.458 -1.8641 -1.1500 -0.1866
18862SOL    HW257165   3.044   5.626   5.544 -1.9789  0.8678  1.2859
18863SOL     OW57166   9.896   0.752   1.210  0.4468 -0.6492 -0.0537
18863SOL    HW157167   9.883   0.810   1.135 -0.1726 -1.6197 -0.7311
18863SOL    HW257168   9.874   0.805   1.286 -2.0697 -0.5361 -0.7849
18864SOL     OW57169   6.576   9.679   3.888  0.2389  0.3062 -0.1909
18864SOL    HW157170   6.599   9.634   3.969  0.2781  1.1338  0.2666
18864SOL    HW257171   6.657   9.724   3.862  0.5108 -0.7107 -1.2140
18865SOL     OW57172   6.299   4.098   6.688  0.6508  1.0815  0.1632
18865SOL    HW157173   6.324   4.039   6.759  0.6635  0.6790 -0.1685
18865SOL    HW257174   6.225   4.149   6.723 -2.3160 -2.0744 -0.8864
18866SOL     OW57175   4.923   7.631   7.681 -0.6510 -0.2789  0.0628
18866SOL    HW157176   4.961   7.714   7.651 -1.3266 -0.2972 -0.8888
18866SOL    HW257177   4.867   7.604   7.609 -0.8598 -1.2940  0.6002
18867SOL     OW57178   5.156   3.127   0.315 -0.3594  0.8051  0.2641
18867SOL    HW157179   5.140   3.176   0.396  0.2178  1.5461 -0.0580
18867SOL    HW257180   5.205   3.188   0.259 -1.1173  0.4504 -0.8090
18868SOL     OW57181   2.183   9.370   7.398  0.1531 -0.2614  0.4043
18868SOL    HW157182   2.167   9.433   7.328 -2.2466  0.2341  1.2964
18868SOL    HW257183   2.142   9.289   7.366  2.3948 -1.1689 -0.3325
18869SOL     OW57184   7.017   4.616   7.146  0.3432  0.6277 -0.0631
18869SOL    HW157185   6.979   4.703   7.154  1.3213  1.0168  0.6173
18869SOL    HW257186   7.074   4.608   7.223 -1.0287 -1.2837  0.8290
18870SOL     OW57187   1.257   3.635   5.948  0.2216  0.1997  0.7092
18870SOL    HW157188   1.289   3.681   6.026  1.1746 -1.3737  1.2756
18870SOL    HW257189   1.332   3.585   5.917  0.2229  1.6874 -1.9530
18871SOL     OW57190   1.222   9.863   5.808 -0.1189 -0.3467  0.4067
18871SOL    HW157191   1.270   9.888   5.887 -0.9208 -0.4427  0.9370
18871SOL    HW257192   1.201   9.945   5.765 -0.1565 -0.2625  0.5853
18872SOL     OW57193   1.917   5.011   0.811 -0.2590  0.2877  0.1805
18872SOL    HW157194   1.986   5.041   0.753 -1.5040  1.5084 -0.7602
18872SOL    HW257195   1.958   5.004   0.897  1.1644  0.3582 -0.4783
18873SOL     OW57196   2.047   9.070   5.269 -0.1364 -0.0558  0.9330
18873SOL    HW157197   2.141   9.087   5.260 -0.1821 -0.4916 -0.4823
18873SOL    HW257198   2.038   9.035   5.358  0.5277  3.2167  2.4389
18874SOL     OW57199   6.301   0.713   2.027 -0.2652  0.3742 -0.2583
18874SOL    HW157200   6.219   0.762   2.035  0.4458  1.4555  0.7475
18874SOL    HW257201   6.349   0.733   2.107  0.7303 -0.7388 -0.5445
18875SOL     OW57202   9.878   6.408   0.010  0.3313 -0.0255  0.5651
18875SOL    HW157203   9.962   6.436   0.046  0.2262 -1.0596  1.6730
18875SOL    HW257204   9.897   6.325  -0.035  0.1755  0.5028 -0.5088
18876SOL     OW57205   6.392   7.658   4.769  0.3938 -0.3246 -0.1296
18876SOL    HW157206   6.411   7.567   4.789  0.0725 -0.2743  0.4292
18876SOL    HW257207   6.470   7.706   4.797  0.4507 -0.3972 -0.1657
18877SOL     OW57208   3.556   5.549   7.260 -0.3568  0.5068 -0.1031
18877SOL    HW157209   3.610   5.472   7.240 -0.5872  0.1962  0.4457
18877SOL    HW257210   3.600   5.621   7.216 -0.2817  0.0141 -0.8432
18878SOL     OW57211   6.891   2.768   6.881  0.2669 -0.0139  0.2838
18878SOL    HW157212   6.877   2.762   6.786  0.9646 -1.0765  0.2332
18878SOL    HW257213   6.985   2.776   6.891  0.5450 -3.0263  0.9633
18879SOL     OW57214   9.671   8.499   4.805 -0.3595 -0.1835  0.2067
18879SOL    HW157215   9.653   8.413   4.768  0.9834  0.4756 -2.1816
18879SOL    HW257216   9.766   8.508   4.801 -0.4851  1.4559  0.2664
18880SOL     OW57217   3.528   4.270   1.020  0.5408  0.2497 -0.0180
18880SOL    HW157218   3.495   4.245   1.106 -1.4530  0.2241 -0.7316
18880SOL    HW257219   3.510   4.193   0.965 -0.7167  1.2229 -1.0269
18881SOL     OW57220   1.389   1.244   1.249  0.2036  0.0686  0.0245
18881SOL    HW157221   1.353   1.180   1.312 -2.4159 -0.1498 -1.5426
18881SOL    HW257222   1.422   1.190   1.177  0.9479  0.4117  0.0983
18882SOL     OW57223   5.154   9.703   2.893  0.1079 -0.1756  0.3762
18882SOL    HW157224   5.098   9.627   2.878  0.2237 -0.6481  2.1388
18882SOL    HW257225   5.226   9.692   2.832 -0.9002 -0.3813 -0.8255
18883SOL     OW57226   0.742   1.937   3.750 -0.0002  0.2216  0.0049
18883SOL    HW157227   0.776   1.868   3.807  2.3322  1.0610 -0.2811
18883SOL    HW257228   0.657   1.959   3.788 -0.3766 -2.0802  0.6805
18884SOL     OW57229   8.401   1.826   5.016 -0.0788  0.3441 -0.3408
18884SOL    HW157230   8.412   1.743   4.970 -0.0753 -0.5463  1.1887
18884SOL    HW257231   8.453   1.816   5.096 -0.6309  1.5569  0.1945
18885SOL     OW57232   9.581   4.153   7.533  0.5392  0.5295  0.1696
18885SOL    HW157233   9.493   4.192   7.537  0.4897  0.3241  1.6984
18885SOL    HW257234   9.614   4.160   7.622  1.5893 -0.5326 -0.1116
18886SOL     OW57235   6.062   8.436   3.413 -0.5434 -0.5373 -0.0916
18886SOL    HW157236   5.999   8.446   3.341  0.3447  2.1504 -0.5935
18886SOL    HW257237   6.009   8.442   3.492 -1.0933  0.6686 -0.5194
18887SOL     OW57238   0.056   4.313   1.350 -0.0463 -0.0565 -0.2158
18887SOL    HW157239   0.087   4.246   1.288  1.2692 -0.0695  0.4341
18887SOL    HW257240   0.126   4.321   1.414 -0.9727  0.6622  0.7414
18888SOL     OW57241   3.222   6.029   8.916  0.5662  0.5194 -0.6220
18888SOL    HW157242   3.312   6.003   8.896  0.2982  0.6352 -2.0893
18888SOL    HW257243   3.170   5.951   8.894  0.2216  0.7399 -0.5907
18889SOL     OW57244   5.967   2.652   9.512  0.2261  0.2020  0.2022
18889SOL    HW157245   6.048   2.611   9.480  0.3486  1.4951 -1.2669
18889SOL    HW257246   5.976   2.651   9.607  0.8058 -1.9374  0.1715
18890SOL     OW57247   9.343   0.157   4.768 -0.3029  0.4706  1.0867
18890SOL    HW157248   9.276   0.221   4.744  0.2715  1.6747  2.4860
18890SOL    HW257249   9.340   0.154   4.864 -0.1362 -1.4465  1.0731
18891SOL     OW57250   6.297   1.624   5.473 -0.5944  0.1209 -0.2612
18891SOL    HW157251   6.319   1.672   5.553 -1.9538 -1.3941  1.0626
18891SOL    HW257252   6.332   1.679   5.402  1.8296  0.8571  1.3942
18892SOL     OW57253   7.217   0.893   4.774 -0.7122  0.6181 -0.5212
18892SOL    HW157254   7.270   0.897   4.694  0.4424  0.4976  0.2034
18892SOL    HW257255   7.259   0.957   4.832  1.0919 -2.1326  1.4627
18893SOL     OW57256   5.541   0.138   1.584 -0.9346  0.3245 -0.0185
18893SOL    HW157257   5.480   0.116   1.514  0.7729  1.0190 -1.7992
18893SOL    HW257258   5.586   0.056   1.603 -1.6673  0.0446  0.6007
18894SOL     OW57259   5.588   0.259   6.651  0.0843  0.1212 -0.0066
18894SOL    HW157260   5.557   0.174   6.621 -1.6461  0.7380 -0.0895
18894SOL    HW257261   5.508   0.310   6.664  1.0814  1.7414  0.0028
18895SOL     OW57262   7.847   2.008   8.330  0.2463  0.1476 -0.8091
18895SOL    HW157263   7.856   2.101   8.351  0.9175 -0.2580  0.7866
18895SOL    HW257264   7.755   1.989   8.349  0.2964  0.3087 -0.3894
18896SOL     OW57265   1.598   9.891   2.251 -0.6353  0.4227  0.5355
18896SOL    HW157266   1.646   9.826   2.302 -0.7177 -0.0964 -0.0242
18896SOL    HW257267   1.660   9.962   2.236 -0.0203 -0.2412 -0.1850
18897SOL     OW57268   1.706   0.961   3.354 -0.1984 -0.6457 -0.4673
18897SOL    HW157269   1.769   0.897   3.387  1.1962 -0.1034 -1.9634
18897SOL    HW257270   1.739   1.045   3.386 -1.1035 -0.4944  0.1115
18898SOL     OW57271   6.840   5.518   6.974  0.3539 -0.5849 -0.2492
18898SOL    HW157272   6.786   5.498   6.898  0.8365  0.8539 -1.0043
18898SOL    HW257273   6.802   5.467   7.045 -1.2229 -0.5604 -1.0447
18899SOL     OW57274   7.713   6.048   9.917  0.6841 -0.5299  0.6278
18899SOL    HW157275   7.712   5.961   9.957  0.6002 -0.3430  1.0392
18899SOL    HW257276   7.620   6.070   9.906  0.6922 -1.4111 -1.5206
18900SOL     OW57277   1.612   1.536   7.055  0.4652  0.3978  0.1671
18900SOL    HW157278   1.542   1.473   7.071 -0.0398  1.0293  0.4912
18900SOL    HW257279   1.572   1.604   7.000  1.7616 -0.9520 -2.6472
18901SOL     OW57280   6.407   9.148   4.313  0.9214  0.3119  0.4068
18901SOL    HW157281   6.360   9.159   4.396 -1.3379  0.5794 -0.8060
18901SOL    HW257282   6.441   9.234   4.293 -0.8955  0.9465 -0.1985
18902SOL     OW57283   5.489   8.298   1.350  0.2440  0.2478 -0.3088
18902SOL    HW157284   5.500   8.220   1.296 -1.4380 -2.5456  3.0430
18902SOL    HW257285   5.438   8.358   1.295  0.3645 -1.5538 -2.5065
18903SOL     OW57286   4.276   6.047   0.155 -0.0627 -0.8965 -0.0903
18903SOL    HW157287   4.256   6.057   0.062  1.0313  0.5634 -0.2045
18903SOL    HW257288   4.370   6.027   0.158 -0.3441 -2.2637  0.6688
18904SOL     OW57289   0.563   1.818   9.637 -0.0008 -0.2913  0.0879
18904SOL    HW157290   0.648   1.779   9.616  0.1983 -0.6408  1.4573
18904SOL    HW257291   0.552   1.803   9.731 -1.4281  0.0543  0.0007
18905SOL     OW57292   7.000   6.779   0.092  0.2196  0.3596  0.1308
18905SOL    HW157293   7.011   6.691   0.128 -1.7359 -0.1241 -0.3227
18905SOL    HW257294   6.951   6.827   0.158  0.9472  1.0155  0.2142
18906SOL     OW57295   0.729   5.415   4.912  0.1686 -0.2245 -0.4571
18906SOL    HW157296   0.661   5.482   4.911  0.1790 -0.2079  0.0695
18906SOL    HW257297   0.739   5.390   4.820  0.6222  0.9563 -0.7377
18907SOL     OW57298   2.404   3.533   7.803  0.2695 -1.5048 -0.1226
18907SOL    HW157299   2.493   3.502   7.821  1.3750  2.3975  2.2249
18907SOL    HW257300   2.409   3.570   7.715  1.0957 -1.0409  0.1063
18908SOL     OW57301   2.395   8.196   8.989  0.4974  0.2888  0.6032
18908SOL    HW157302   2.481   8.197   9.032  0.8836 -2.2972  0.0602
18908SOL    HW257303   2.400   8.266   8.925  2.2701  0.1689  0.5445
18909SOL     OW57304   0.777   2.535   8.594  0.0567  0.2521 -0.2312
18909SOL    HW157305   0.721   2.511   8.668 -1.7003  0.9076 -1.2921
18909SOL    HW257306   0.725   2.598   8.545  1.7741  0.9042 -1.2627
18910SOL     OW57307   2.064   9.473   1.839 -0.4190 -0.4537 -0.3210
18910SOL    HW157308   2.112   9.555   1.832  0.0525 -0.8625 -3.0368
18910SOL    HW257309   2.128   9.410   1.874 -0.4507  0.0495  0.6731
18911SOL     OW57310   3.910   8.877   3.211  0.1578 -0.2105  1.0151
18911SOL    HW157311   3.974   8.864   3.281 -0.5574  2.0101  2.1841
18911SOL    HW257312   3.851   8.944   3.245 -2.4015 -1.6460 -0.2962
18912SOL     OW57313   7.648   9.090   4.497  0.4013  1.1202  0.0375
18912SOL    HW157314   7.714   9.133   4.551  0.0876  2.1689 -0.4031
18912SOL    HW257315   7.565   9.107   4.542  0.3581  0.2708  0.2967
18913SOL     OW57316   7.180   2.612   9.518  0.4016 -0.3814  0.0068
18913SOL    HW157317   7.161   2.527   9.557  0.4648 -0.2121  0.4133
18913SOL    HW257318   7.274   2.610   9.501  0.4420 -0.3193  0.2098
18914SOL     OW57319   1.533   7.101   9.283 -0.1723  0.0904 -0.1638
18914SOL    HW157320   1.616   7.069   9.247 -0.7744 -1.0158 -0.6193
18914SOL    HW257321   1.466   7.056   9.232 -1.0689  1.2885 -0.0894
18915SOL     OW57322   7.242   4.846   2.006 -0.2560  0.0388  0.3568
18915SOL    HW157323   7.250   4.783   1.934 -0.8834 -0.3635  0.6316
18915SOL    HW257324   7.312   4.910   1.990  0.4587 -0.7795  0.1312
18916SOL     OW57325   8.185   1.800   8.216 -0.0095 -0.1233 -0.0779
18916SOL    HW157326   8.159   1.830   8.304 -1.9640  2.9533 -1.5268
18916SOL    HW257327   8.269   1.842   8.200 -0.3337  0.5127 -0.1695
18917SOL     OW57328   6.406   9.182   3.277  0.2592 -0.1812  0.6044
18917SOL    HW157329   6.386   9.274   3.294  0.9588 -0.0089  0.5524
18917SOL    HW257330   6.488   9.185   3.228 -1.0360 -0.7115 -1.7437
18918SOL     OW57331   8.326   1.949   4.743 -0.1405  0.3162  0.2608
18918SOL    HW157332   8.339   2.037   4.707 -0.0606 -1.0862 -3.5019
18918SOL    HW257333   8.405   1.933   4.795  0.8722  1.6827 -0.7710
18919SOL     OW57334   5.639   0.481   4.065 -1.0722  0.0110  0.2239
18919SOL    HW157335   5.702   0.497   3.994 -0.3853 -1.4645  0.4579
18919SOL    HW257336   5.665   0.543   4.133  1.2588 -1.6662  0.9792
18920SOL     OW57337   7.390   4.682   4.814  0.5863  0.1454 -0.0548
18920SOL    HW157338   7.476   4.722   4.801  0.2279  0.9940  0.1167
18920SOL    HW257339   7.382   4.619   4.742  2.3167 -1.6988  1.2531
18921SOL     OW57340   2.111   2.847   5.355  0.5426  0.4961  0.2817
18921SOL    HW157341   2.166   2.925   5.364  0.5922  0.6581 -1.2691
18921SOL    HW257342   2.104   2.833   5.261  0.2466 -1.1754  0.5215
18922SOL     OW57343   5.945   6.119   4.601  0.3224 -0.2947 -0.0266
18922SOL    HW157344   5.867   6.111   4.546  1.5109  1.2128 -2.0747
18922SOL    HW257345   5.920   6.182   4.668 -0.4596 -0.4103 -0.1934
18923SOL     OW57346   8.107   0.864   6.181 -0.8521  0.1809  0.3715
18923SOL    HW157347   8.043   0.924   6.143 -1.1808 -0.4911 -0.1603
18923SOL    HW257348   8.092   0.781   6.135 -1.4500 -0.7412  2.1514
18924SOL     OW57349   5.037   6.096   1.521  0.8048  1.0415  0.5819
18924SOL    HW157350   4.945   6.092   1.494  0.6165 -0.4752  1.3466
18924SOL    HW257351   5.050   6.186   1.548 -0.8416  0.9749  1.7217
18925SOL     OW57352   3.584   3.611   9.515 -0.3556  0.2415  0.0476
18925SOL    HW157353   3.574   3.634   9.608 -0.4068  0.0921  0.0786
18925SOL    HW257354   3.653   3.545   9.514  1.6085  2.1951 -0.2905
18926SOL     OW57355   2.856   3.398   2.912  0.0708 -0.3527 -0.4928
18926SOL    HW157356   2.893   3.330   2.856  0.5727 -0.5825  0.1105
18926SOL    HW257357   2.761   3.391   2.898  0.1444 -0.8891 -0.7627
18927SOL     OW57358   9.261   0.033   9.324 -0.5960  0.5916 -0.0314
18927SOL    HW157359   9.219   0.048   9.239 -0.2953  1.0076 -0.1046
18927SOL    HW257360   9.269   0.120   9.363  0.9510  0.6224 -0.3736
18928SOL     OW57361   7.952   2.845   2.204 -0.2473 -0.4901  0.0159
18928SOL    HW157362   7.961   2.835   2.299 -0.3586 -0.3476  0.0414
18928SOL    HW257363   7.858   2.843   2.189 -0.1995 -1.6946 -0.2178
18929SOL     OW57364   1.170   0.943   7.968 -0.1685  0.6170  0.0296
18929SOL    HW157365   1.086   0.982   7.941 -1.0995 -0.7691  0.8011
18929SOL    HW257366   1.188   0.877   7.901 -1.1660 -1.0367  1.3210
18930SOL     OW57367   0.201   9.332   3.757  0.4836  0.2499 -0.0694
18930SOL    HW157368   0.112   9.298   3.756  0.5540 -0.0212  1.2561
18930SOL    HW257369   0.194   9.419   3.796  0.9492 -0.3389  1.4186
18931SOL     OW57370   0.477   8.408   4.713  0.2212  0.8790 -0.1103
18931SOL    HW157371   0.499   8.474   4.646  0.0051  1.8205  0.7239
18931SOL    HW257372   0.543   8.339   4.701  0.0791  0.9476 -1.4040
18932SOL     OW57373   1.629   0.946   4.555  0.1297 -0.0756 -0.4236
18932SOL    HW157374   1.690   1.012   4.521  0.0605  0.0103 -0.3826
18932SOL    HW257375   1.659   0.929   4.644 -1.1434  1.5229  0.3621
18933SOL     OW57376   6.939   9.802   8.213  0.1752  0.5589 -0.8017
18933SOL    HW157377   7.013   9.815   8.272  0.6941  0.8534 -1.5067
18933SOL    HW257378   6.862   9.816   8.268  0.6440  0.5183 -0.1243
18934SOL     OW57379   5.726   3.647   7.260  0.5300  0.2120  0.3025
18934SOL    HW157380   5.732   3.648   7.355 -1.6069  0.9781  0.4734
18934SOL    HW257381   5.788   3.715   7.231  0.7670  0.3720  1.1702
18935SOL     OW57382   0.132   7.376   7.146  0.4848 -0.2348 -0.4719
18935SOL    HW157383   0.105   7.285   7.139 -0.3294  0.0121 -0.6332
18935SOL    HW257384   0.071   7.414   7.209  0.9275  0.1577 -0.2759
18936SOL     OW57385   2.439   6.123   0.798 -0.2557  0.7527 -0.1341
18936SOL    HW157386   2.507   6.189   0.782  1.3073 -0.8777 -0.5086
18936SOL    HW257387   2.409   6.097   0.711 -0.3456  0.4519 -0.0159
18937SOL     OW57388   2.630   5.789   2.596  0.0088 -0.3754  0.0148
18937SOL    HW157389   2.594   5.869   2.557  0.5873  0.2687  0.7695
18937SOL    HW257390   2.724   5.807   2.604  0.0456 -0.8868  0.7621
18938SOL     OW57391   0.288   4.782   1.127  0.0158 -0.0514  0.3923
18938SOL    HW157392   0.298   4.860   1.182 -0.6843  0.4445 -0.1766
18938SOL    HW257393   0.200   4.750   1.147  0.3461 -0.7770  0.7169
18939SOL     OW57394   8.473   1.335   5.660  0.1993 -0.3795  0.4997
18939SOL    HW157395   8.557   1.350   5.617 -0.8341 -0.5591 -1.6930
18939SOL    HW257396   8.412   1.392   5.613 -1.0624 -0.8314  1.5378
18940SOL     OW57397   2.412   8.625   2.023  0.1175  0.6119  0.5206
18940SOL    HW157398   2.398   8.720   2.020  1.3920  0.8074 -0.5018
18940SOL    HW257399   2.424   8.606   2.116 -1.2340  1.2612  0.8516
18941SOL     OW57400   3.521   3.875   5.155  0.1491  0.4877 -0.5177
18941SOL    HW157401   3.442   3.923   5.179  1.4052  2.1950  0.4693
18941SOL    HW257402   3.506   3.786   5.187 -0.7882  1.1469  1.0029
18942SOL     OW57403   9.836   0.937   5.737 -0.1097  0.5512  0.0466
18942SOL    HW157404   9.764   0.877   5.754 -0.8398  1.0282 -1.2066
18942SOL    HW257405   9.911   0.899   5.783 -0.5614 -1.2666 -0.6551
18943SOL     OW57406   4.246   2.036   0.958 -0.2474  0.1009 -0.1327
18943SOL    HW157407   4.183   2.055   0.889 -1.0487  0.7341  0.7333
18943SOL    HW257408   4.213   2.084   1.034  1.4162  0.6587  0.2878
18944SOL     OW57409   4.574   1.736   7.414 -0.3559  0.5862  0.0283
18944SOL    HW157410   4.629   1.810   7.438  0.0550 -0.0973  1.3159
18944SOL    HW257411   4.566   1.685   7.495 -1.5147 -0.2029 -0.5577
18945SOL     OW57412   3.645   0.373   3.867 -0.1867 -0.0312  0.0758
18945SOL    HW157413   3.621   0.321   3.790  1.1225  0.0928 -0.4438
18945SOL    HW257414   3.589   0.450   3.862 -2.5953 -1.5834  1.1826
18946SOL     OW57415   9.267   3.800   2.047  0.6663  0.4353 -0.0464
18946SOL    HW157416   9.246   3.841   2.131  3.0249 -1.3672  1.5338
18946SOL    HW257417   9.337   3.855   2.011  1.1185  0.0111  0.1857
18947SOL     OW57418   4.986   6.607   3.814  0.3997  0.1185  0.0212
18947SOL    HW157419   4.927   6.592   3.740  1.0594  1.6986 -0.8812
18947SOL    HW257420   5.053   6.667   3.780  1.2443  0.1746  1.6515
18948SOL     OW57421   1.146   0.411   2.233  0.2338  0.2139  0.2127
18948SOL    HW157422   1.065   0.434   2.187  0.0170  1.8922  1.3238
18948SOL    HW257423   1.175   0.493   2.273  2.0675 -0.5241  0.5126
18949SOL     OW57424   2.109   7.582   0.578  0.9455 -0.3286  0.2337
18949SOL    HW157425   2.128   7.539   0.495  1.1306  1.8273 -0.9031
18949SOL    HW257426   2.194   7.613   0.610  0.5778  1.1088 -0.1118
18950SOL     OW57427   2.753   7.281   4.644 -0.1168  0.2802  0.3491
18950SOL    HW157428   2.830   7.329   4.612  0.0652 -1.6211 -2.3638
18950SOL    HW257429   2.679   7.336   4.618  0.1001 -0.6049 -2.5717
18951SOL     OW57430   8.343   7.645   0.535  0.0476  0.5089 -0.2899
18951SOL    HW157431   8.339   7.717   0.471 -1.0766  0.0352 -0.7844
18951SOL    HW257432   8.420   7.594   0.510  0.8446  1.5022  0.0495
18952SOL     OW57433   6.890   9.679   3.356  0.2917  0.1982 -0.3988
18952SOL    HW157434   6.945   9.685   3.277  0.4501  1.4025 -0.2228
18952SOL    HW257435   6.866   9.770   3.374 -0.5071 -0.1683  0.4131
18953SOL     OW57436   3.624   1.690   0.671  0.1287 -0.4000  0.3194
18953SOL    HW157437   3.717   1.713   0.680  0.4333 -1.7791  0.9901
18953SOL    HW257438   3.611   1.681   0.577  0.3480  1.0302  0.1334
18954SOL     OW57439   5.575   9.821   4.640  0.0903 -0.0283 -0.0531
18954SOL    HW157440   5.535   9.804   4.725  0.1355  1.9211  0.4044
18954SOL    HW257441   5.667   9.800   4.652  0.0944  0.2311  0.3964
18955SOL     OW57442   8.614   9.521   2.124  0.3311  0.2372 -0.4738
18955SOL    HW157443   8.667   9.513   2.203 -1.5709 -0.8764  0.7579
18955SOL    HW257444   8.625   9.438   2.078 -1.2537 -0.5110  0.4287
18956SOL     OW57445   9.143   0.436   6.652 -0.0964 -0.3060 -0.4892
18956SOL    HW157446   9.118   0.344   6.642 -1.9187  0.2833 -2.0179
18956SOL    HW257447   9.094   0.467   6.728  0.3816 -0.5438 -0.0806
18957SOL     OW57448   5.858   4.416   4.390  0.0981  0.2109 -0.1861
18957SOL    HW157449   5.812   4.495   4.418  0.9716  0.4040  0.7477
18957SOL    HW257450   5.943   4.420   4.434  1.0798 -0.0737 -1.9680
18958SOL     OW57451   3.133   6.667   0.079  0.1969 -0.2079  0.2144
18958SOL    HW157452   3.047   6.697   0.049  0.6660  0.0584 -0.9088
18958SOL    HW257453   3.113   6.600   0.144 -0.8838 -0.9943 -0.8710
18959SOL     OW57454   2.103   3.667   7.016  0.7131  0.1902  0.0691
18959SOL    HW157455   2.078   3.578   6.992  2.2488 -0.2628  0.0363
18959SOL    HW257456   2.046   3.689   7.089 -1.0999 -0.0207 -1.2373
18960SOL     OW57457   2.650   8.449   0.130  0.1339  0.3983  0.4868
18960SOL    HW157458   2.728   8.395   0.140 -0.6354 -0.5902  1.4364
18960SOL    HW257459   2.655   8.512   0.201  0.4331  0.8253  0.0937
18961SOL     OW57460   7.484   5.533   8.165  0.2134  0.0252 -0.2607
18961SOL    HW157461   7.502   5.580   8.247  0.4285 -0.8019  0.1690
18961SOL    HW257462   7.390   5.543   8.151 -0.1453 -1.2902  1.0109
18962SOL     OW57463   7.771   1.438   3.399 -0.2052 -0.2148  0.4730
18962SOL    HW157464   7.768   1.344   3.416  1.0763 -0.0686  1.6563
18962SOL    HW257465   7.812   1.475   3.477  1.3629  1.0781 -0.9021
18963SOL     OW57466   1.240   6.574   3.279 -0.5799 -0.0631 -0.0971
18963SOL    HW157467   1.288   6.516   3.339 -0.5465  0.6788  0.6152
18963SOL    HW257468   1.282   6.561   3.194  0.7550  0.4009  0.4702
18964SOL     OW57469   8.127   8.598   8.691  0.0850 -0.0163  0.3888
18964SOL    HW157470   8.132   8.572   8.783 -0.5231 -0.9729  0.1671
18964SOL    HW257471   8.162   8.687   8.689  1.1594 -0.3865  1.3746
18965SOL     OW57472   3.716   8.502   7.843 -0.2874  0.0252 -0.4843
18965SOL    HW157473   3.648   8.530   7.782 -1.8557 -1.6939  0.4018
18965SOL    HW257474   3.790   8.479   7.786 -1.3511 -0.5621 -1.6970
18966SOL     OW57475   0.861   9.073   6.481  0.0419  0.4033  0.3306
18966SOL    HW157476   0.956   9.067   6.477  0.0443  0.9541 -0.8168
18966SOL    HW257477   0.836   9.020   6.557  1.4226  1.9372  1.9485
18967SOL     OW57478   9.154   2.618   8.478 -0.5449  0.4816 -0.0168
18967SOL    HW157479   9.139   2.524   8.481  0.6353  0.3019  0.5216
18967SOL    HW257480   9.113   2.646   8.396  0.0307 -0.6659 -0.7220
18968SOL     OW57481   5.556   0.055   9.805 -0.4961 -0.2940  0.2422
18968SOL    HW157482   5.586   0.145   9.789 -1.6476 -0.2579 -2.1749
18968SOL    HW257483   5.477   0.046   9.752  0.4734 -3.2333 -0.9167
18969SOL     OW57484   3.923   3.938   0.901 -0.4670 -0.2171  0.1635
18969SOL    HW157485   3.986   4.007   0.920 -0.0934 -1.1433  2.7564
18969SOL    HW257486   3.977   3.859   0.889 -0.9890 -0.5009 -0.3493
18970SOL     OW57487   7.365   9.429   5.481  0.2287 -0.2557  0.1276
18970SOL    HW157488   7.363   9.336   5.503  0.3988 -0.1047  0.8158
18970SOL    HW257489   7.292   9.467   5.531  0.9226  0.1772  0.8194
18971SOL     OW57490   7.462   4.688   1.412  0.4026 -0.0444  0.0185
18971SOL    HW157491   7.455   4.596   1.436 -1.6321 -0.1026 -0.5974
18971SOL    HW257492   7.371   4.717   1.403  1.0156  1.7426 -0.8684
18972SOL     OW57493   5.536   6.648   6.434  0.1884 -0.6849 -0.0303
18972SOL    HW157494   5.510   6.567   6.479 -0.8079 -0.0296  0.5935
18972SOL    HW257495   5.559   6.620   6.345 -0.6083 -1.5875  0.0354
18973SOL     OW57496   2.080   4.993   5.265 -0.1119  0.1672 -0.0699
18973SOL    HW157497   2.021   4.925   5.297  1.5473 -2.4776 -2.1509
18973SOL    HW257498   2.032   5.033   5.193 -0.5990  0.2777  0.3113
18974SOL     OW57499   6.099   8.695   2.496  0.4085  0.2860  0.5325
18974SOL    HW157500   6.020   8.653   2.528 -0.6390  0.8707 -1.1293
18974SOL    HW257501   6.097   8.783   2.534  0.1105  0.3861  0.2891
18975SOL     OW57502   9.622   7.045   7.297  0.2165  0.2720  0.0398
18975SOL    HW157503   9.553   7.007   7.352  1.1100  0.1873  1.1467
18975SOL    HW257504   9.679   6.971   7.276 -0.3974  0.1955 -1.4958
18976SOL     OW57505   7.304   1.605   1.403  0.4081 -0.1726 -0.6637
18976SOL    HW157506   7.373   1.668   1.425 -1.0677  2.5614 -3.1539
18976SOL    HW257507   7.348   1.543   1.345  1.0309  1.0700 -1.5823
18977SOL     OW57508   3.028   4.605   8.033 -0.0511  0.1240  0.2302
18977SOL    HW157509   3.066   4.530   8.079  0.5041  1.0269  1.2873
18977SOL    HW257510   2.991   4.660   8.102 -1.0660  0.4869 -0.5876
18978SOL     OW57511   3.770   2.783   7.687  0.2828  0.1362  0.0688
18978SOL    HW157512   3.731   2.769   7.774 -1.0943  0.9811 -0.3928
18978SOL    HW257513   3.797   2.695   7.659  1.4209 -0.0594  1.6309
18979SOL     OW57514   0.043   1.901   7.851  0.5376  0.3925  0.6807
18979SOL    HW157515   0.114   1.961   7.827  0.0189  1.5063  1.8277
18979SOL    HW257516  -0.037   1.949   7.830  0.0260 -1.3135 -1.7423
18980SOL     OW57517   9.145   4.727   3.486 -0.5706  0.2294  0.2555
18980SOL    HW157518   9.221   4.781   3.506 -1.0175  0.7415  0.5839
18980SOL    HW257519   9.165   4.688   3.401  1.5010 -2.1920  1.6942
18981SOL     OW57520   0.635   8.676   9.554  0.2511 -0.1845  0.1774
18981SOL    HW157521   0.546   8.704   9.534 -0.0838  0.7444  2.6333
18981SOL    HW257522   0.628   8.582   9.571  0.3442 -0.7491 -2.4978
18982SOL     OW57523   5.139   1.495   3.271 -0.3875 -0.8737 -0.1724
18982SOL    HW157524   5.053   1.463   3.298  1.4733 -5.9502  0.9331
18982SOL    HW257525   5.199   1.459   3.336  2.8752 -0.4093 -2.6783
18983SOL     OW57526   1.631   8.629   3.790 -0.1483  0.0153 -0.3855
18983SOL    HW157527   1.567   8.629   3.719  0.0131  0.8806 -0.5364
18983SOL    HW257528   1.681   8.709   3.778  0.6345 -0.3942  0.0353
18984SOL     OW57529   0.158   3.834   4.340  0.2922 -0.1458 -0.3928
18984SOL    HW157530   0.203   3.797   4.417 -3.1471 -0.2925  1.7737
18984SOL    HW257531   0.194   3.785   4.266  1.4224 -2.4154  1.4957
18985SOL     OW57532   2.562   0.557   2.445 -0.0185 -0.6229  0.1858
18985SOL    HW157533   2.567   0.481   2.386  0.8120 -0.8362  0.5215
18985SOL    HW257534   2.469   0.578   2.449 -0.3267 -1.9616  0.5145
18986SOL     OW57535   4.970   3.308   4.313  0.3507  0.4914 -0.3424
18986SOL    HW157536   4.902   3.289   4.378  0.3930  1.9553  0.1663
18986SOL    HW257537   4.937   3.270   4.232  0.5496 -1.8652  0.6017
18987SOL     OW57538   4.455   8.126   8.465 -0.0918  0.0229  0.0578
18987SOL    HW157539   4.377   8.071   8.474  1.2692 -2.1319 -0.5782
18987SOL    HW257540   4.484   8.142   8.554 -0.2837 -0.6619  0.2518
18988SOL     OW57541   9.824   1.123   5.031  0.5610  0.0889 -0.0741
18988SOL    HW157542   9.900   1.088   5.077  0.4871  0.3215  0.2315
18988SOL    HW257543   9.852   1.128   4.939 -0.3158 -3.3217 -0.6600
18989SOL     OW57544   1.427   3.609   3.353 -0.0065 -0.3810 -0.6367
18989SOL    HW157545   1.458   3.631   3.265 -0.2819 -2.0996 -1.1861
18989SOL    HW257546   1.398   3.519   3.347  0.5368 -0.7422  1.3831
18990SOL     OW57547   6.987   9.280   7.294  0.4255 -0.1571 -0.9549
18990SOL    HW157548   6.978   9.324   7.209 -1.5907 -0.3184 -0.8662
18990SOL    HW257549   6.924   9.209   7.291 -1.9906  1.6479  1.7689
18991SOL     OW57550   2.071   7.170   4.304 -0.1017 -0.0972 -0.1072
18991SOL    HW157551   2.130   7.143   4.234 -0.8366  1.9765 -1.6169
18991SOL    HW257552   1.997   7.110   4.297  0.3665 -0.6694 -0.2818
18992SOL     OW57553   1.895   7.408   5.551 -0.4057  0.4696 -0.0198
18992SOL    HW157554   1.886   7.475   5.618 -1.2363 -0.1001  0.4593
18992SOL    HW257555   1.899   7.456   5.469 -0.9399  1.1099  0.3215
18993SOL     OW57556   5.389   0.609   1.837 -0.4566  0.1097  0.1813
18993SOL    HW157557   5.345   0.588   1.755 -0.4747  0.2409  0.1561
18993SOL    HW257558   5.390   0.527   1.887 -0.1083 -0.0653 -0.1072
18994SOL     OW57559   5.114   0.162   3.707 -0.3788 -0.1568 -0.1069
18994SOL    HW157560   5.206   0.158   3.735  0.2467  0.7081 -1.8980
18994SOL    HW257561   5.118   0.167   3.611 -2.1377  3.1450 -0.1260
18995SOL     OW57562   8.828   5.314   5.653  0.0047  0.1151  0.4716
18995SOL    HW157563   8.770   5.321   5.577  0.8118  0.7246 -0.1056
18995SOL    HW257564   8.898   5.377   5.636  0.5238 -0.1793  1.4364
18996SOL     OW57565   5.945   4.714   4.762  0.0763  0.0113  0.0319
18996SOL    HW157566   5.959   4.802   4.797 -1.1467  0.9283 -1.6645
18996SOL    HW257567   5.883   4.674   4.824 -0.0624  0.6663  0.3301
18997SOL     OW57568   8.068   9.249   6.795  0.1689 -0.1160 -0.1401
18997SOL    HW157569   7.998   9.215   6.851 -1.8674  2.2009 -1.0650
18997SOL    HW257570   8.068   9.192   6.719 -0.0847 -0.6741  0.2716
18998SOL     OW57571   2.841   5.385   2.958 -0.1892  0.2949  0.0086
18998SOL    HW157572   2.793   5.364   3.038 -1.0260 -0.7713 -0.7434
18998SOL    HW257573   2.820   5.314   2.897  0.7306  0.8735 -1.0389
18999SOL     OW57574   7.059   6.271   4.077 -0.0059 -0.9469 -0.3602
18999SOL    HW157575   6.975   6.313   4.093  0.7055  0.0734  0.8959
18999SOL    HW257576   7.061   6.257   3.982 -1.7648 -1.4188 -0.3556
19000SOL     OW57577   9.924   6.047   8.878  0.2985 -0.0650  0.0715
19000SOL    HW157578   9.980   6.115   8.916 -0.7627  1.1226 -0.3892
19000SOL    HW257579   9.851   6.040   8.939 -1.5293  2.0090 -1.6875
19001SOL     OW57580   5.912   3.281   1.661  0.2562  0.1358  0.0699
19001SOL    HW157581   5.927   3.206   1.718  1.5063  0.3056 -0.0072
19001SOL    HW257582   5.822   3.272   1.632 -0.9183  0.7761  3.1349
19002SOL     OW57583   0.779   7.205   3.245  0.1613  0.1472  0.3142
19002SOL    HW157584   0.865   7.227   3.210 -0.0554  0.3522 -0.0888
19002SOL    HW257585   0.735   7.289   3.256 -0.1697  0.0094  0.0494
19003SOL     OW57586   3.448   4.175   2.903 -0.4143  0.4680  0.3208
19003SOL    HW157587   3.511   4.103   2.897  0.4638  1.0310  1.9915
19003SOL    HW257588   3.377   4.150   2.844  0.0966 -1.5220  0.4707
19004SOL     OW57589   9.536   6.216   6.013 -0.1940  0.4558 -0.1190
19004SOL    HW157590   9.455   6.247   5.971 -0.3332 -0.6731 -0.7099
19004SOL    HW257591   9.601   6.216   5.942 -0.3481 -1.1410 -0.2868
19005SOL     OW57592   2.651   8.580   9.719  0.3285 -0.2656 -0.3023
19005SOL    HW157593   2.578   8.547   9.771  0.5518 -0.2881 -0.0015
19005SOL    HW257594   2.675   8.506   9.662  0.7098 -0.5711  0.2434
19006SOL     OW57595   3.737   3.133   0.204 -0.0838  0.1687  0.0230
19006SOL    HW157596   3.798   3.059   0.198 -0.4516 -0.0578 -1.0470
19006SOL    HW257597   3.768   3.183   0.280  1.2511 -0.1050 -0.3088
19007SOL     OW57598   3.598   4.464   8.986 -0.0961 -0.2586 -0.0287
19007SOL    HW157599   3.673   4.512   9.020 -1.2844  1.4481  0.3259
19007SOL    HW257600   3.566   4.414   9.062  1.0340 -1.5139 -0.3502
19008SOL     OW57601   7.614   9.277   9.759  0.0641 -0.2185  0.0760
19008SOL    HW157602   7.665   9.301   9.835  0.5907 -1.7664  0.2391
19008SOL    HW257603   7.593   9.185   9.772 -1.0193 -0.1480 -0.9854
19009SOL     OW57604   5.445   4.490   3.877  0.5202  0.3880  0.7190
19009SOL    HW157605   5.511   4.484   3.946  0.6931 -1.5748  0.4384
19009SOL    HW257606   5.454   4.408   3.828 -1.2833  0.6326 -0.0975
19010SOL     OW57607   2.517   7.016   8.097 -0.2057 -0.0857 -0.2718
19010SOL    HW157608   2.592   6.977   8.053 -0.8180 -1.4988 -0.1168
19010SOL    HW257609   2.493   7.091   8.043  0.4498 -0.4538 -1.0913
19011SOL     OW57610   6.912   1.204   2.394 -0.2037  0.4084  0.2167
19011SOL    HW157611   6.910   1.300   2.394 -0.5756  0.4004  0.1330
19011SOL    HW257612   6.833   1.178   2.440 -1.7499  0.1115 -2.4184
19012SOL     OW57613   1.358   5.928   7.309  0.4010 -0.0346  0.3265
19012SOL    HW157614   1.291   5.895   7.249  0.8478 -0.5646  0.1128
19012SOL    HW257615   1.313   5.996   7.360 -0.3474 -0.5049  0.3113
19013SOL     OW57616   5.833   9.950   1.602 -0.0401  0.3462 -0.0783
19013SOL    HW157617   5.793   9.903   1.676 -0.7607  0.3721 -0.4482
19013SOL    HW257618   5.799   9.906   1.524  0.4561  0.5337 -0.4047
19014SOL     OW57619   1.268   9.873   8.281  0.1510  0.0991 -0.3322
19014SOL    HW157620   1.214   9.810   8.328  0.8605 -0.9448 -0.8767
19014SOL    HW257621   1.220   9.956   8.289  0.7479  0.2443  3.0974
19015SOL     OW57622   6.789   9.531   6.394  0.1042 -0.1095 -0.2600
19015SOL    HW157623   6.737   9.518   6.474  0.7498  1.0585  0.3881
19015SOL    HW257624   6.787   9.447   6.350 -2.2163 -0.1575 -0.1846
19016SOL     OW57625   2.182   8.982   2.595 -0.3602  0.3514  0.5955
19016SOL    HW157626   2.202   8.901   2.641  1.3599  0.8300  0.7582
19016SOL    HW257627   2.150   9.042   2.663  1.2199  0.7361  1.0428
19017SOL     OW57628   5.490   6.392   1.898 -0.1668 -0.1948  0.6272
19017SOL    HW157629   5.578   6.403   1.860 -1.1206 -0.4078 -1.8176
19017SOL    HW257630   5.462   6.481   1.918 -0.0369  0.0400 -0.1830
19018SOL     OW57631   1.466   7.605   4.091 -0.3355 -0.4197  0.2521
19018SOL    HW157632   1.436   7.550   4.019  0.0505 -0.1158 -0.1520
19018SOL    HW257633   1.498   7.684   4.048 -0.7665  0.0667  0.8184
19019SOL     OW57634   3.828   4.481   6.324 -0.1680  0.0265  0.1864
19019SOL    HW157635   3.743   4.511   6.355 -0.2380 -0.0353  0.0557
19019SOL    HW257636   3.864   4.555   6.275 -0.2297 -0.0127  0.0809
19020SOL     OW57637   4.851   1.579   6.970 -0.0689  0.6653  0.0703
19020SOL    HW157638   4.847   1.575   7.066  1.7691 -0.4085  0.1366
19020SOL    HW257639   4.831   1.489   6.942 -0.4840  0.9481 -0.5679
19021SOL     OW57640   2.362   0.119   0.287  0.3690 -0.3373 -0.4800
19021SOL    HW157641   2.363   0.059   0.213  0.6109 -1.6229  0.5215
19021SOL    HW257642   2.272   0.119   0.318  0.0465  0.9751 -1.3528
19022SOL     OW57643   5.538   6.622   4.235 -0.2358 -0.2617  0.3610
19022SOL    HW157644   5.521   6.560   4.164 -0.4096  0.9934 -0.7342
19022SOL    HW257645   5.451   6.655   4.259 -0.0214  0.8894 -0.3413
19023SOL     OW57646   8.658   8.207   8.519 -0.4959  0.2222 -0.7302
19023SOL    HW157647   8.721   8.179   8.453  0.1869 -0.0621  0.0291
19023SOL    HW257648   8.631   8.126   8.563 -0.4615  0.4727 -0.2413
19024SOL     OW57649   6.206   8.547   1.258  0.2902  0.7505  0.5110
19024SOL    HW157650   6.124   8.580   1.223 -0.4822  0.2844  1.8001
19024SOL    HW257651   6.183   8.464   1.301  1.1258  1.3150  2.1618
19025SOL     OW57652   7.835   1.483   7.618 -0.1593 -0.5946 -0.3364
19025SOL    HW157653   7.788   1.450   7.695 -1.4119 -0.6862 -1.0990
19025SOL    HW257654   7.837   1.578   7.630  0.3047 -0.6672  0.1629
19026SOL     OW57655   0.752   6.580   6.588 -0.3972  0.2283  0.1724
19026SOL    HW157656   0.666   6.622   6.581 -0.8455 -0.7820 -0.8036
19026SOL    HW257657   0.738   6.492   6.554  1.0675  0.0906 -0.1397
19027SOL     OW57658   0.491   4.642   5.427 -0.0074 -0.2758  0.3599
19027SOL    HW157659   0.564   4.585   5.402  0.8614  0.9187  0.0725
19027SOL    HW257660   0.474   4.695   5.349 -0.7066 -0.0522  0.6599
19028SOL     OW57661   1.063   8.239   8.691 -0.0135 -0.2512 -0.3246
19028SOL    HW157662   1.028   8.219   8.778 -0.9768 -1.7227 -1.0033
19028SOL    HW257663   0.986   8.240   8.634  0.5890  0.8021 -1.1682
19029SOL     OW57664   7.189   5.068   1.661  0.5541  0.1239  0.5672
19029SOL    HW157665   7.153   5.156   1.665 -1.9581 -0.7386 -0.6401
19029SOL    HW257666   7.256   5.072   1.592  1.4430  1.3458  1.4740
19030SOL     OW57667   6.974   2.063   5.497  0.2104 -0.3578  0.0756
19030SOL    HW157668   7.052   2.116   5.514 -0.2782  0.5489 -0.4019
19030SOL    HW257669   6.901   2.115   5.531 -0.4954  0.2671 -2.1836
19031SOL     OW57670   0.691   6.455   2.981 -0.1621  0.3000  0.6194
19031SOL    HW157671   0.783   6.476   2.966 -0.0706 -0.7935 -0.5251
19031SOL    HW257672   0.691   6.394   3.055  0.3740 -2.0331 -1.1844
19032SOL     OW57673   2.980   0.430   8.415  0.8996 -0.0910  0.1057
19032SOL    HW157674   2.930   0.397   8.340  1.5910 -0.4226 -0.2200
19032SOL    HW257675   3.020   0.511   8.383  0.7114  0.0844  0.3123
19033SOL     OW57676   5.201   8.602   2.100  0.4114 -0.5321  0.2621
19033SOL    HW157677   5.179   8.521   2.146  2.4719 -0.7863  0.8890
19033SOL    HW257678   5.251   8.653   2.164 -2.0707  1.9631  0.4214
19034SOL     OW57679   0.993   3.453   8.013  0.0420 -0.2899 -0.4277
19034SOL    HW157680   1.023   3.492   7.931 -0.3651 -0.8690 -0.8599
19034SOL    HW257681   1.073   3.423   8.056  0.1551 -1.1901 -1.2420
19035SOL     OW57682   3.666   2.863   4.129 -0.1362  0.3178  0.6035
19035SOL    HW157683   3.698   2.952   4.113 -0.4713  0.4054  0.4160
19035SOL    HW257684   3.738   2.806   4.100 -0.6714  0.4678 -1.1065
19036SOL     OW57685   9.365   0.112   1.719 -0.1440  0.0775  0.3906
19036SOL    HW157686   9.319   0.056   1.782 -1.8551  0.0613 -0.7828
19036SOL    HW257687   9.433   0.056   1.682  0.5010 -0.0905  1.7598
19037SOL     OW57688   9.417   2.073   8.692  0.2788  0.6341  0.7512
19037SOL    HW157689   9.496   2.028   8.662  0.1155  0.4897  0.5338
19037SOL    HW257690   9.427   2.078   8.787 -0.0614 -0.5716  0.8680
19038SOL     OW57691   6.821   1.905   6.377  0.4156  0.3183  0.6039
19038SOL    HW157692   6.796   1.989   6.340  1.0606  0.3540  0.2466
19038SOL    HW257693   6.767   1.897   6.456 -0.7392  0.3763 -0.1616
19039SOL     OW57694   5.332   6.896   4.843 -0.8170  0.0376 -0.5379
19039SOL    HW157695   5.296   6.810   4.865  0.4185  0.0787  1.9159
19039SOL    HW257696   5.414   6.878   4.798 -1.1790 -0.0473 -1.1737
19040SOL     OW57697   7.451   0.995   7.515  0.0912 -0.2188 -0.1663
19040SOL    HW157698   7.517   0.926   7.522 -0.8985 -1.0918  0.8481
19040SOL    HW257699   7.471   1.054   7.588  0.8761  0.5438 -0.9739
19041SOL     OW57700   6.909   3.329   6.134 -0.3480 -0.1879  0.2718
19041SOL    HW157701   6.908   3.340   6.229 -1.0788  0.2062  0.2255
19041SOL    HW257702   6.823   3.359   6.105  0.1326  0.4078 -0.5977
19042SOL     OW57703   9.926   4.994   7.612 -0.8065 -0.0573 -0.2759
19042SOL    HW157704   9.997   5.001   7.676  0.0927  2.1788 -1.4287
19042SOL    HW257705   9.953   4.922   7.554 -1.7509 -2.2858  1.8628
19043SOL     OW57706   0.927   3.165   7.389 -0.0446 -0.7869 -0.0144
19043SOL    HW157707   0.887   3.179   7.303 -0.2854  0.5517  0.2939
19043SOL    HW257708   0.860   3.116   7.439 -0.4238 -0.4429 -0.1835
19044SOL     OW57709   7.695   2.598   5.956  0.7679 -0.1575 -0.1328
19044SOL    HW157710   7.621   2.626   5.903 -0.1725  1.9055  2.0590
19044SOL    HW257711   7.695   2.657   6.031  3.3903 -1.4298  1.0328
19045SOL     OW57712   5.630   7.456   4.954 -0.0502  0.4369  0.5041
19045SOL    HW157713   5.622   7.512   4.878  1.5960 -0.2395 -0.2019
19045SOL    HW257714   5.617   7.367   4.920  0.5579  0.1389  1.0267
19046SOL     OW57715   2.884   9.709   4.487  0.2795 -0.0614  0.3885
19046SOL    HW157716   2.858   9.622   4.518  2.1610 -0.5564  0.7089
19046SOL    HW257717   2.853   9.713   4.397 -1.7796 -0.1632  1.0444
19047SOL     OW57718   3.477   8.942   8.946 -0.2953  0.6822 -0.4827
19047SOL    HW157719   3.487   8.855   8.986 -0.6202  0.5494 -0.6858
19047SOL    HW257720   3.551   8.949   8.885 -0.9323  0.0408 -1.3649
19048SOL     OW57721   3.034   4.284   7.110 -0.0512  0.2283  0.2601
19048SOL    HW157722   3.111   4.308   7.058 -1.3055  0.9753 -1.3325
19048SOL    HW257723   3.070   4.241   7.187  2.1080  3.0735  0.9907
19049SOL     OW57724   9.788   9.492   6.042 -0.1877 -0.3655 -0.3143
19049SOL    HW157725   9.872   9.528   6.072 -0.6109  2.1268 -1.8503
19049SOL    HW257726   9.812   9.435   5.969  0.1776  1.0031 -1.3105
19050SOL     OW57727   9.383   4.995   1.824  0.2842  0.1527  0.4458
19050SOL    HW157728   9.445   5.001   1.751 -0.5684  1.2882 -0.2170
19050SOL    HW257729   9.382   4.902   1.846  0.2912 -0.2815 -1.2279
19051SOL     OW57730   5.720   7.582   9.938 -0.1424 -0.0364 -0.5097
19051SOL    HW157731   5.802   7.599   9.985 -0.0314 -0.9232 -0.3727
19051SOL    HW257732   5.676   7.515   9.990 -0.8060  0.1996 -0.7630
19052SOL     OW57733   6.360   2.699   8.809 -0.2276 -0.4032  0.7264
19052SOL    HW157734   6.405   2.715   8.892  0.8921 -0.6876  0.1830
19052SOL    HW257735   6.426   2.660   8.753 -0.8359  0.2550 -0.4793
19053SOL     OW57736   3.434   3.179   3.904  0.2499  0.0559 -0.3415
19053SOL    HW157737   3.523   3.187   3.940 -0.1214  0.6237  0.4831
19053SOL    HW257738   3.378   3.215   3.972 -0.6847 -0.9567 -0.5629
19054SOL     OW57739   3.522   9.121   3.786  1.1990  0.0649  0.2303
19054SOL    HW157740   3.590   9.179   3.752  0.6303  1.2214  0.9931
19054SOL    HW257741   3.440   9.161   3.757  0.8057 -0.7553  0.1779
19055SOL     OW57742   9.652   3.261   7.558 -0.5764 -0.6304 -0.3774
19055SOL    HW157743   9.624   3.231   7.644  1.0180 -0.0410  0.3993
19055SOL    HW257744   9.723   3.201   7.534 -0.2122 -0.0786 -0.7172
19056SOL     OW57745   3.134   0.392   0.886  0.5493 -0.0805  0.4517
19056SOL    HW157746   3.213   0.357   0.926  0.9353  1.8200  1.4622
19056SOL    HW257747   3.161   0.475   0.846 -0.9533  0.7285  1.0138
19057SOL     OW57748   0.839   0.548   6.301 -0.4674  0.0629 -0.5837
19057SOL    HW157749   0.920   0.599   6.292 -1.1322  1.2151 -0.2195
19057SOL    HW257750   0.858   0.483   6.368  0.5616 -0.5146 -1.4125
19058SOL     OW57751   6.558   9.673   2.405  0.0615 -0.6906 -0.6071
19058SOL    HW157752   6.529   9.736   2.339 -2.1983  0.7504  1.5744
19058SOL    HW257753   6.538   9.587   2.367 -0.7037  0.0621 -1.9876
19059SOL     OW57754   7.462   6.502   7.174  0.0447  0.8219 -0.1904
19059SOL    HW157755   7.524   6.430   7.189 -1.7467 -0.4768  1.4621
19059SOL    HW257756   7.407   6.471   7.102  0.2484  1.2483 -0.5344
19060SOL     OW57757   7.624   1.026   3.180  0.1013 -0.2444  0.6574
19060SOL    HW157758   7.597   1.112   3.149 -0.9008 -0.5218  0.7469
19060SOL    HW257759   7.638   0.975   3.100 -1.8522 -0.7653  0.5937
19061SOL     OW57760   1.985   1.517   9.940  0.0622 -0.1902  0.7594
19061SOL    HW157761   1.913   1.571   9.907 -0.0542 -0.0719  1.1925
19061SOL    HW257762   1.952   1.427   9.933 -0.2860 -0.1115  1.3172
19062SOL     OW57763   2.120   8.555   3.692 -0.1405 -0.4351 -0.6115
19062SOL    HW157764   2.189   8.507   3.738 -0.7350 -0.0134  0.7713
19062SOL    HW257765   2.045   8.496   3.693 -0.2775 -0.2640 -0.6824
19063SOL     OW57766   2.481   6.312   5.164 -0.5763  0.0505  0.6124
19063SOL    HW157767   2.500   6.219   5.160 -0.1406  0.1158  1.0079
19063SOL    HW257768   2.393   6.321   5.130 -0.3984 -0.4364  0.0172
19064SOL     OW57769   1.527   4.821   6.962  0.0600 -0.1469 -0.1892
19064SOL    HW157770   1.591   4.803   7.032  0.8473 -1.8849 -1.2680
19064SOL    HW257771   1.572   4.795   6.882 -0.9032  1.5819 -1.3545
19065SOL     OW57772   9.993   0.737   1.858  0.0171 -0.1795  0.2969
19065SOL    HW157773   9.946   0.689   1.790 -0.2369  0.8445 -0.2644
19065SOL    HW257774   9.930   0.799   1.892  0.6238  0.4322  0.3281
19066SOL     OW57775   9.525   7.021   7.942  0.4241  0.5473 -0.2447
19066SOL    HW157776   9.438   7.019   7.983  1.0140  0.6786  1.0514
19066SOL    HW257777   9.586   7.014   8.015  1.5787  3.0424 -0.8798
19067SOL     OW57778   8.707   8.950   2.860  0.3749  0.4026 -0.5709
19067SOL    HW157779   8.651   8.888   2.813  0.6326  0.3428 -0.8002
19067SOL    HW257780   8.766   8.895   2.911 -1.3935  0.4311  1.6746
19068SOL     OW57781   2.866   7.392   8.831  0.1576 -0.3567  0.1312
19068SOL    HW157782   2.854   7.482   8.862 -2.0938 -0.1727 -1.1014
19068SOL    HW257783   2.959   7.387   8.807  0.2476  1.7547 -0.1449
19069SOL     OW57784   2.816   2.046   8.701  0.5147 -0.7825  0.5281
19069SOL    HW157785   2.797   2.110   8.633 -1.3039 -2.7814 -1.0101
19069SOL    HW257786   2.907   2.022   8.687 -0.0618 -1.8661 -1.9736
19070SOL     OW57787   5.247   9.768   4.820 -0.1068  0.0260 -0.7655
19070SOL    HW157788   5.340   9.771   4.843 -0.3991  0.9267  0.4061
19070SOL    HW257789   5.207   9.837   4.873 -1.7872 -1.7128  0.3538
19071SOL     OW57790   7.911   5.174   5.042 -0.4694 -0.0965  0.8415
19071SOL    HW157791   7.965   5.234   5.094  0.6292  0.5543 -0.9659
19071SOL    HW257792   7.974   5.124   4.990 -1.5505  0.2947 -0.9385
19072SOL     OW57793   5.302   0.377   7.092  0.1116  0.4894  0.5690
19072SOL    HW157794   5.291   0.323   7.171  2.0736  0.2789  0.7537
19072SOL    HW257795   5.253   0.331   7.024  1.4707 -1.4059  0.7987
19073SOL     OW57796   1.527   7.679   0.480  0.4221  0.4579 -0.3206
19073SOL    HW157797   1.549   7.652   0.570  3.3854 -1.8205 -1.5440
19073SOL    HW257798   1.539   7.774   0.480 -0.0849  0.5702  1.7734
19074SOL     OW57799   6.555   0.784   8.832  0.5346 -0.2975  0.0748
19074SOL    HW157800   6.478   0.829   8.867 -0.0191 -0.4622 -0.8860
19074SOL    HW257801   6.535   0.691   8.842  1.4318 -0.3569  1.5328
19075SOL     OW57802   3.359   1.505   9.547 -0.2362  0.1059  0.4690
19075SOL    HW157803   3.376   1.596   9.525 -0.2324 -0.1070 -0.4645
19075SOL    HW257804   3.392   1.456   9.471 -0.7940 -0.6250  0.6864
19076SOL     OW57805   6.004   7.728   5.726  0.1792 -0.1713  0.1890
19076SOL    HW157806   5.948   7.734   5.649 -0.2281  0.1604  0.5119
19076SOL    HW257807   6.026   7.818   5.748  0.2081 -0.2577  0.5279
19077SOL     OW57808   7.423   9.694   7.298 -0.3030  0.2023  0.0815
19077SOL    HW157809   7.340   9.647   7.303 -0.5493  0.7476  2.8544
19077SOL    HW257810   7.484   9.641   7.351  0.6250  0.7427 -0.4103
19078SOL     OW57811   5.375   2.484   2.737  0.7414  0.2208 -0.7726
19078SOL    HW157812   5.350   2.504   2.827 -1.4655 -0.4745 -1.1795
19078SOL    HW257813   5.470   2.473   2.741  0.7836  0.8729  1.3208
19079SOL     OW57814   0.260   6.497   1.413 -0.5463 -0.2530  0.4577
19079SOL    HW157815   0.206   6.559   1.463 -1.6794 -1.3326  0.6147
19079SOL    HW257816   0.213   6.485   1.331  0.2802 -0.0302 -0.0668
19080SOL     OW57817   9.182   3.322   0.067 -0.0675  0.2762  0.3202
19080SOL    HW157818   9.093   3.331   0.099 -0.0655 -1.3818  0.8780
19080SOL    HW257819   9.233   3.293   0.143  0.6569 -0.1755 -0.3184
19081SOL     OW57820   3.173   3.135   1.057  0.5568 -0.3968  0.1138
19081SOL    HW157821   3.115   3.063   1.034 -1.9096  1.3482  0.4222
19081SOL    HW257822   3.216   3.106   1.138  0.9319 -2.1424 -0.6652
19082SOL     OW57823   9.315   5.324   5.131  0.1936  0.2120  0.3771
19082SOL    HW157824   9.257   5.267   5.181  0.2382  0.1342  0.3384
19082SOL    HW257825   9.323   5.282   5.045  1.5214 -0.5830  0.8622
19083SOL     OW57826   8.205   4.077   3.405  0.2889  0.2516 -0.4028
19083SOL    HW157827   8.139   4.074   3.474  0.1407 -0.9549 -0.5808
19083SOL    HW257828   8.204   4.169   3.376  0.7724  0.9331  1.5573
19084SOL     OW57829   1.701   6.291   0.336 -0.4564  0.8458  0.1871
19084SOL    HW157830   1.735   6.214   0.382  0.1370 -0.1062 -1.7414
19084SOL    HW257831   1.613   6.266   0.308 -0.5169  1.1321  0.1152
19085SOL     OW57832   0.383   1.350   4.484 -0.1254  0.6269 -0.3645
19085SOL    HW157833   0.315   1.414   4.462 -0.7453  0.3510  0.7211
19085SOL    HW257834   0.435   1.343   4.404 -1.8106  0.2750 -1.4787
19086SOL     OW57835   5.241   1.728   2.034 -0.7494 -0.0917  0.5001
19086SOL    HW157836   5.309   1.772   1.982 -1.6873  0.2838 -0.4614
19086SOL    HW257837   5.255   1.759   2.123  2.6424 -2.8338  1.1468
19087SOL     OW57838   7.984   6.187   9.337 -0.4142  0.3540 -0.1448
19087SOL    HW157839   7.892   6.198   9.312 -0.4895  0.7649  0.2864
19087SOL    HW257840   7.983   6.189   9.433 -0.1517 -1.3863 -0.0836
19088SOL     OW57841   4.403   9.315   1.503  0.3223  0.3545 -0.6110
19088SOL    HW157842   4.390   9.373   1.428  0.6585  0.9297 -0.2391
19088SOL    HW257843   4.322   9.322   1.553  0.6554  1.1251 -0.1619
19089SOL     OW57844   7.077   2.493   5.608  0.2720 -0.0929 -0.3232
19089SOL    HW157845   6.981   2.495   5.606  0.2860  0.3862 -0.6896
19089SOL    HW257846   7.102   2.485   5.516  0.6163  2.0879 -0.4592
19090SOL     OW57847   4.980   9.640   7.203 -0.1139 -0.2142  0.3306
19090SOL    HW157848   5.046   9.572   7.192 -0.6109 -0.9174  1.4610
19090SOL    HW257849   4.973   9.652   7.298  0.4431  1.9077  0.1690
19091SOL     OW57850   8.925   3.897   4.038 -0.0618  0.0254  0.0372
19091SOL    HW157851   8.861   3.834   4.006 -1.0912  0.1360  1.7635
19091SOL    HW257852   9.002   3.845   4.059  0.3116 -0.1619 -1.7145
19092SOL     OW57853   6.119   3.483   8.023 -0.2732 -0.6343 -0.2267
19092SOL    HW157854   6.095   3.475   7.931 -0.4203 -1.9916 -0.0969
19092SOL    HW257855   6.170   3.404   8.042  0.7762  0.1987  0.5659
19093SOL     OW57856   7.699   9.403   6.085  0.4334 -0.0108 -0.9709
19093SOL    HW157857   7.683   9.363   6.000 -0.6431 -0.1162 -0.7346
19093SOL    HW257858   7.719   9.494   6.065  0.2334 -0.0442 -1.3354
19094SOL     OW57859   9.121   7.006   6.202  0.1075 -0.4384 -0.4686
19094SOL    HW157860   9.166   7.070   6.256  0.6230 -1.9076  0.9228
19094SOL    HW257861   9.033   7.001   6.240  0.5828 -1.7422  0.5433
19095SOL     OW57862   8.394   1.847   5.381  0.3835 -0.0698  0.4997
19095SOL    HW157863   8.369   1.768   5.334  0.5030 -0.0878  0.4666
19095SOL    HW257864   8.454   1.817   5.450  1.2353  0.1133 -0.1434
19096SOL     OW57865   6.588   3.324   1.898  0.3648 -0.2132  0.0644
19096SOL    HW157866   6.610   3.406   1.941  0.6218  0.8613 -1.9789
19096SOL    HW257867   6.497   3.307   1.922  0.6062  0.1117  1.2827
19097SOL     OW57868   0.677   6.125   5.054 -0.0763  0.0075  0.4075
19097SOL    HW157869   0.770   6.113   5.039 -0.4105  0.0611 -2.0735
19097SOL    HW257870   0.669   6.215   5.086  0.6682  0.2981 -0.2001
19098SOL     OW57871   6.283   6.040   8.234 -0.4184  0.6595 -0.1437
19098SOL    HW157872   6.296   5.946   8.220  0.4527  0.3546  2.3348
19098SOL    HW257873   6.354   6.081   8.185  0.8078 -0.1639  0.8740
19099SOL     OW57874   9.333   5.305   1.317 -0.3492 -0.4718  0.3086
19099SOL    HW157875   9.395   5.371   1.349  0.6624 -0.3235 -1.8107
19099SOL    HW257876   9.356   5.226   1.366 -0.1324  0.1935  1.3147
19100SOL     OW57877   9.728   6.452   5.542  0.4905  0.5667 -0.3530
19100SOL    HW157878   9.691   6.482   5.625  0.2140  1.8110 -0.9068
19100SOL    HW257879   9.672   6.379   5.516 -0.2005  0.9840 -0.0651
19101SOL     OW57880   2.893   8.130   4.116  0.1611  0.7598 -0.5085
19101SOL    HW157881   2.921   8.039   4.119  0.4211  0.8584  0.4743
19101SOL    HW257882   2.836   8.136   4.039 -2.5872 -1.0167  1.2173
19102SOL     OW57883   7.162   5.404   8.665 -0.3463 -0.1186  0.0265
19102SOL    HW157884   7.163   5.318   8.709 -1.1620 -0.6725 -0.9936
19102SOL    HW257885   7.093   5.452   8.711 -1.8620 -1.0308 -1.1786
19103SOL     OW57886   7.579   5.403   3.793 -0.8058 -0.1004  0.4739
19103SOL    HW157887   7.659   5.361   3.825 -0.0347  1.1251  0.2112
19103SOL    HW257888   7.511   5.374   3.853  0.0031 -0.4605  1.2351
19104SOL     OW57889   8.878   2.173   3.689  1.1442  0.1294 -0.0283
19104SOL    HW157890   8.917   2.210   3.768  1.3824  2.1726 -1.0299
19104SOL    HW257891   8.785   2.169   3.707  1.1965  0.5910  0.3618
19105SOL     OW57892   8.812   6.762   8.594  0.1678 -0.3260 -0.0981
19105SOL    HW157893   8.852   6.699   8.533  0.2007  0.5586 -1.0170
19105SOL    HW257894   8.730   6.720   8.621 -0.9178  0.1151 -2.4146
19106SOL     OW57895   8.078   0.063   0.751 -0.4050  0.0197  0.5795
19106SOL    HW157896   8.048   0.110   0.673  0.3088 -0.2751  0.1182
19106SOL    HW257897   8.115   0.132   0.808 -1.0542  0.2518  0.7254
19107SOL     OW57898   7.482   8.856   9.063 -0.5721 -0.4603 -0.1195
19107SOL    HW157899   7.422   8.910   9.115 -0.7235 -0.2888 -0.4740
19107SOL    HW257900   7.492   8.904   8.981  0.2902 -0.3372  0.0553
19108SOL     OW57901   7.892   2.135   8.634  0.0363  0.2966 -0.1106
19108SOL    HW157902   7.853   2.214   8.597 -3.2453 -1.1391 -0.0298
19108SOL    HW257903   7.878   2.142   8.728  1.1711  0.2832  0.0813
19109SOL     OW57904   4.702   7.090   1.625  0.6310  0.1714 -0.2959
19109SOL    HW157905   4.692   7.019   1.562 -1.1281 -1.7496  1.9504
19109SOL    HW257906   4.648   7.162   1.590  1.9129  0.2362 -2.2759
19110SOL     OW57907   4.780   6.674   4.530 -0.3118  0.0967 -0.2541
19110SOL    HW157908   4.833   6.653   4.453  0.0613 -1.2440  0.3335
19110SOL    HW257909   4.690   6.653   4.503 -0.2189 -0.0886 -0.4237
19111SOL     OW57910   6.462   3.189   8.986  0.0757  0.5689  0.7924
19111SOL    HW157911   6.376   3.150   8.977  0.8752 -1.3662  1.0945
19111SOL    HW257912   6.456   3.241   9.067 -0.7800  0.4126  0.8404
19112SOL     OW57913   6.178   6.615   8.786  1.0318  0.3057 -0.4069
19112SOL    HW157914   6.151   6.639   8.875  1.4195  0.8825 -0.4358
19112SOL    HW257915   6.221   6.694   8.752  3.1641 -0.7053 -0.2008
19113SOL     OW57916   9.195   8.623   2.877 -0.0415 -0.2251  0.2216
19113SOL    HW157917   9.176   8.629   2.970  1.3314  1.3125  0.4594
19113SOL    HW257918   9.248   8.701   2.858  1.0147 -1.2949 -1.5212
19114SOL     OW57919   1.618   7.877   1.374  0.2150  0.4348  0.1777
19114SOL    HW157920   1.587   7.819   1.444 -0.0058  2.0433  1.4627
19114SOL    HW257921   1.553   7.866   1.305  1.0841 -2.1029 -0.3555
19115SOL     OW57922   8.816   4.601   4.274  0.3686 -0.6769 -0.1910
19115SOL    HW157923   8.823   4.663   4.202 -4.1651 -0.5562 -0.8423
19115SOL    HW257924   8.847   4.518   4.238 -1.2455 -0.4869 -2.1977
19116SOL     OW57925   3.871   4.447   7.104  0.1899 -0.6889  0.8838
19116SOL    HW157926   3.839   4.512   7.042 -1.8165 -1.3692  1.1451
19116SOL    HW257927   3.925   4.387   7.052  0.1163 -0.1649  0.2008
19117SOL     OW57928   8.301   4.040   5.901 -0.1276  0.4733 -0.2292
19117SOL    HW157929   8.366   4.098   5.862  0.4466  0.7153  1.0651
19117SOL    HW257930   8.218   4.085   5.888  0.2721  1.4089  0.4064
19118SOL     OW57931   9.859   7.485   4.529  0.5716 -0.4126 -0.1813
19118SOL    HW157932   9.793   7.521   4.470 -0.5981  0.2492  1.4846
19118SOL    HW257933   9.858   7.542   4.605  0.3934 -2.5538  1.5090
19119SOL     OW57934   6.965   6.305   1.370 -0.2344 -0.0442 -0.3392
19119SOL    HW157935   6.940   6.224   1.325 -0.2559  0.0809 -0.5530
19119SOL    HW257936   6.955   6.373   1.304 -1.1072  0.2626  0.1061
19120SOL     OW57937   5.058   0.105   7.245  0.2461 -0.1250 -0.4500
19120SOL    HW157938   5.041   0.156   7.166 -1.0730  0.9376  0.4910
19120SOL    HW257939   5.036   0.163   7.318  0.9050 -1.2607  0.7026
19121SOL     OW57940   1.823   2.061   3.298 -0.4137  0.1130  0.3314
19121SOL    HW157941   1.734   2.092   3.281 -0.3983 -0.2017 -0.3786
19121SOL    HW257942   1.821   1.968   3.273  0.2908  0.2771 -0.3762
19122SOL     OW57943   6.626   9.261   5.401 -0.1710 -0.1961  1.2233
19122SOL    HW157944   6.651   9.169   5.395 -0.7106 -0.2579 -0.5389
19122SOL    HW257945   6.542   9.260   5.449 -0.3062 -0.6459  0.9826
19123SOL     OW57946   6.382   9.554   4.542 -0.0525  0.4038 -0.2784
19123SOL    HW157947   6.463   9.603   4.552 -0.7884  1.4222  1.0364
19123SOL    HW257948   6.406   9.462   4.557  0.5464  0.8996  2.0976
19124SOL     OW57949   1.014   6.202   3.617  0.1296  0.6557  0.1133
19124SOL    HW157950   1.043   6.232   3.703  0.1223  0.6165  0.1295
19124SOL    HW257951   0.919   6.214   3.618 -0.2204 -1.7780  1.0727
19125SOL     OW57952   2.259   7.634   7.482  0.0961  0.1028  0.4045
19125SOL    HW157953   2.354   7.628   7.492  0.0664  0.5335  0.9778
19125SOL    HW257954   2.224   7.619   7.570 -0.3612  0.0330  0.2145
19126SOL     OW57955   5.939   9.236   9.224 -0.2279 -0.1942  0.1403
19126SOL    HW157956   5.993   9.222   9.302  0.4315  0.7924 -0.1273
19126SOL    HW257957   5.901   9.150   9.206 -1.0168 -0.2759  1.9963
19127SOL     OW57958   6.922   3.838   5.997  0.0130  0.5061  0.1127
19127SOL    HW157959   6.896   3.748   6.013  1.4861 -0.0710 -0.6046
19127SOL    HW257960   6.840   3.887   5.999 -0.7944 -0.8055  0.6656
19128SOL     OW57961   6.592   9.567   9.909  0.2494  0.0719 -0.1440
19128SOL    HW157962   6.665   9.549   9.849  0.4395 -1.0407  0.3797
19128SOL    HW257963   6.559   9.652   9.883  1.0845  0.1287 -1.0640
19129SOL     OW57964   0.956   7.731   5.730  0.6494 -0.0274 -0.1690
19129SOL    HW157965   0.945   7.637   5.741 -0.0243  0.0846  0.1846
19129SOL    HW257966   1.025   7.756   5.792  0.6265 -0.2443 -0.0573
19130SOL     OW57967   3.696   4.351   8.653 -0.2769 -0.4395  0.3301
19130SOL    HW157968   3.606   4.381   8.657 -0.7880 -1.8638  0.2126
19130SOL    HW257969   3.710   4.330   8.561  0.6462  1.0774  0.0965
19131SOL     OW57970   2.216   5.198   5.916  0.5615 -0.6140 -0.3744
19131SOL    HW157971   2.225   5.188   5.821 -1.5376  2.2754 -1.0049
19131SOL    HW257972   2.216   5.108   5.949  0.9445 -1.7467 -3.1443
19132SOL     OW57973   3.291   0.434   9.255 -0.3340  0.5674 -0.1067
19132SOL    HW157974   3.381   0.405   9.237  0.0441  3.0346 -3.0207
19132SOL    HW257975   3.300   0.499   9.324  0.0447  0.4300 -0.0215
19133SOL     OW57976   3.266   1.005   8.325  0.3428  0.1138 -0.2518
19133SOL    HW157977   3.281   0.912   8.306 -3.4689 -1.0465  1.4541
19133SOL    HW257978   3.311   1.019   8.408  0.3764 -0.4329 -0.1688
19134SOL     OW57979   6.146   5.150   0.421  0.2516  0.1367  0.5780
19134SOL    HW157980   6.170   5.234   0.381  2.1803 -0.9482 -0.6817
19134SOL    HW257981   6.117   5.174   0.510 -0.2696  2.2137 -0.0815
19135SOL     OW57982   6.089   2.407   0.271  0.3392  0.2847 -0.2076
19135SOL    HW157983   6.004   2.452   0.272 -0.0291 -0.4004  0.6270
19135SOL    HW257984   6.123   2.423   0.183 -0.6640  0.5518 -0.5654
19136SOL     OW57985   6.685   6.759   7.552 -0.3260 -0.4113 -0.1235
19136SOL    HW157986   6.624   6.804   7.611  2.1501  0.7471  1.7150
19136SOL    HW257987   6.686   6.669   7.584 -0.0478 -0.1151  0.7164
19137SOL     OW57988   4.409   8.894   7.654  0.2864 -0.4994 -0.3817
19137SOL    HW157989   4.464   8.914   7.730 -0.1702  2.3290 -0.6595
19137SOL    HW257990   4.441   8.810   7.622  1.3158 -1.1892  2.1833
19138SOL     OW57991   8.489   1.688   9.388 -0.4291 -0.1393 -0.0105
19138SOL    HW157992   8.525   1.743   9.458 -0.4587 -0.1663  0.0261
19138SOL    HW257993   8.528   1.602   9.403 -1.4135 -0.4788  0.7443
19139SOL     OW57994   9.172   9.361   9.273 -0.0795  0.6412 -0.0590
19139SOL    HW157995   9.146   9.330   9.360 -3.2522  1.4534 -0.6043
19139SOL    HW257996   9.120   9.308   9.213  0.2304  1.7700 -1.3478
19140SOL     OW57997   6.860   9.541   4.441 -0.0881 -0.6079 -0.3283
19140SOL    HW157998   6.882   9.504   4.355 -2.2437  0.0642 -1.2428
19140SOL    HW257999   6.902   9.627   4.441  1.6852 -1.4334  0.2059
19141SOL     OW58000   6.386   8.821   8.924 -0.8823  0.1392  0.3467
19141SOL    HW158001   6.294   8.806   8.901 -1.6313 -1.2521  3.6106
19141SOL    HW258002   6.425   8.733   8.926  0.8357  0.7699 -1.7958
19142SOL     OW58003   8.261   6.355   1.914 -0.2783 -0.2208  0.1160
19142SOL    HW158004   8.269   6.284   1.851  0.1138 -0.9773  0.9973
19142SOL    HW258005   8.201   6.322   1.981 -0.1005  0.2724  0.5287
19143SOL     OW58006   2.398   4.924   1.083  0.0590  0.4441  0.4181
19143SOL    HW158007   2.431   4.967   1.162  1.4293 -1.9795  1.2845
19143SOL    HW258008   2.398   4.992   1.017  1.8358  1.8504  1.7507
19144SOL     OW58009   6.032   0.229   9.047  0.0707  0.2281 -0.1463
19144SOL    HW158010   5.945   0.236   9.087  1.0041  1.7237  1.7521
19144SOL    HW258011   6.090   0.204   9.119  1.2762 -0.5482 -1.3391
19145SOL     OW58012   0.309   8.939   4.709 -0.2689  0.5119 -0.0409
19145SOL    HW158013   0.226   8.904   4.742  0.5581 -1.2603  0.2890
19145SOL    HW258014   0.294   9.033   4.700 -1.4281  0.6556  2.6607
19146SOL     OW58015   8.030   4.772   3.334  0.0385 -0.2203  0.0378
19146SOL    HW158016   8.041   4.732   3.420  0.2653 -0.3736 -0.0624
19146SOL    HW258017   7.957   4.834   3.345  0.4015  0.1351  0.4702
19147SOL     OW58018   1.595   4.496   2.071 -0.6947  0.7793 -0.1341
19147SOL    HW158019   1.583   4.580   2.115 -1.5000  1.3182 -1.3209
19147SOL    HW258020   1.620   4.520   1.982 -1.9214 -0.2136 -0.7743
19148SOL     OW58021   2.819   2.874   5.010  0.1828 -0.1032 -0.5427
19148SOL    HW158022   2.906   2.913   5.002  0.3281 -0.7017 -2.0611
19148SOL    HW258023   2.787   2.906   5.095  1.2615  1.3424 -0.6437
19149SOL     OW58024   7.190   7.541   5.488  0.4329  0.4695  0.0171
19149SOL    HW158025   7.245   7.572   5.559 -0.0060  1.7515 -0.1843
19149SOL    HW258026   7.102   7.573   5.509  0.1735  0.3114 -0.7675
19150SOL     OW58027   0.985   1.488   4.062 -0.3434 -0.0824  0.1816
19150SOL    HW158028   0.952   1.503   4.151 -0.0431  0.1112  0.2633
19150SOL    HW258029   1.011   1.396   4.062  0.6462  0.1820  0.6330
19151SOL     OW58030   9.149   1.755   2.491 -0.1214  0.0434  0.2717
19151SOL    HW158031   9.167   1.787   2.403  0.2088 -0.5962  0.0974
19151SOL    HW258032   9.054   1.755   2.498 -0.1521  2.4193  0.8014
19152SOL     OW58033   7.819   1.356   6.321 -0.2036 -0.3206 -0.2785
19152SOL    HW158034   7.826   1.387   6.412  0.5623  0.1955 -0.5053
19152SOL    HW258035   7.757   1.284   6.326 -0.4150 -0.0984  0.6113
19153SOL     OW58036   6.715   1.501   3.988  0.6565 -0.4689 -0.2035
19153SOL    HW158037   6.798   1.526   3.948  0.2453 -0.5763 -1.1508
19153SOL    HW258038   6.692   1.418   3.946 -0.5475  0.1837 -0.9001
19154SOL     OW58039   2.345   8.805   7.858  0.0899  0.1914  0.6759
19154SOL    HW158040   2.421   8.747   7.861  0.6958  0.6254 -2.3824
19154SOL    HW258041   2.270   8.745   7.850  0.4779 -0.2327  0.0993
19155SOL     OW58042   3.793   3.056   7.235 -0.3926  0.3671  0.4611
19155SOL    HW158043   3.840   3.062   7.318  0.1305  1.0722  0.1251
19155SOL    HW258044   3.740   3.136   7.232 -0.0529  0.5750 -0.0912
19156SOL     OW58045   0.152   4.109   1.195 -0.3319  0.1107  0.1921
19156SOL    HW158046   0.226   4.051   1.177  1.4860  1.8590  1.5524
19156SOL    HW258047   0.122   4.138   1.109 -2.3432 -3.8699 -0.6870
19157SOL     OW58048   8.999   6.153   9.095 -0.6836  0.3986 -0.8423
19157SOL    HW158049   8.926   6.147   9.034 -2.6790 -0.6315  1.4830
19157SOL    HW258050   8.962   6.194   9.173  1.6605  1.3309 -0.1218
19158SOL     OW58051   1.390   3.425   2.165 -0.1266 -0.2841 -0.1182
19158SOL    HW158052   1.302   3.393   2.186 -0.3670  0.9080  0.8099
19158SOL    HW258053   1.397   3.416   2.070 -2.2770  2.0232 -0.6080
19159SOL     OW58054   3.339   4.555   0.047 -0.3961  1.0474 -0.1326
19159SOL    HW158055   3.393   4.591  -0.024  0.9103 -0.2853  0.1550
19159SOL    HW258056   3.321   4.465   0.020  0.2043  0.4840  1.2430
19160SOL     OW58057   5.455   7.168   0.535  0.5176  0.2238  0.3851
19160SOL    HW158058   5.413   7.118   0.465  2.1688 -1.7193  0.6765
19160SOL    HW258059   5.445   7.259   0.508 -2.1784 -0.2192 -0.4377
19161SOL     OW58060   0.645   2.096   2.774  0.0278 -0.3287  0.1643
19161SOL    HW158061   0.637   2.001   2.761  1.2342 -0.3972 -0.2605
19161SOL    HW258062   0.732   2.117   2.740 -0.6423  1.1151 -0.7291
19162SOL     OW58063   5.136   4.167   4.117 -0.1927 -0.3515  0.1098
19162SOL    HW158064   5.104   4.204   4.200  2.2429 -0.7298  1.3197
19162SOL    HW258065   5.159   4.244   4.065  0.3628 -0.0877  0.7167
19163SOL     OW58066   6.056   3.151   3.696 -0.1218 -0.1652 -0.5907
19163SOL    HW158067   6.146   3.182   3.706 -0.7158  1.8844 -1.0656
19163SOL    HW258068   6.002   3.225   3.724 -1.6876 -1.6533  0.5030
19164SOL     OW58069   2.274   6.023   2.402  0.7185 -0.1929 -0.2942
19164SOL    HW158070   2.239   6.111   2.409  0.3358 -0.4740  2.1853
19164SOL    HW258071   2.207   5.974   2.354 -0.6404  0.1523  1.1497
19165SOL     OW58072   4.141   2.197   6.638 -0.2268  0.1890 -0.6597
19165SOL    HW158073   4.217   2.139   6.646 -0.7513 -0.6419 -1.4365
19165SOL    HW258074   4.082   2.149   6.580 -0.9339  1.2544 -0.8281
19166SOL     OW58075   1.525   1.762   8.614 -0.5622 -0.2954 -0.0460
19166SOL    HW158076   1.446   1.811   8.592 -1.5552 -2.1513 -0.8068
19166SOL    HW258077   1.499   1.706   8.688  0.6861  0.5973  1.1303
19167SOL     OW58078   0.136   7.866   8.260  0.7988  0.3337 -0.0390
19167SOL    HW158079   0.095   7.823   8.185 -0.7059 -0.4973  1.1931
19167SOL    HW258080   0.158   7.794   8.320 -0.0041  1.1050  1.2306
19168SOL     OW58081   0.299   3.577   1.382 -0.0663  0.2855  0.0349
19168SOL    HW158082   0.329   3.586   1.472 -0.2890 -0.5691  0.1959
19168SOL    HW258083   0.273   3.486   1.374 -2.7217  0.9652 -0.0460
19169SOL     OW58084   0.512   2.041   5.171  0.1659 -0.1045  0.1459
19169SOL    HW158085   0.418   2.052   5.160  0.1229  0.6755  1.1694
19169SOL    HW258086   0.551   2.112   5.121  0.1817 -0.0319  0.2603
19170SOL     OW58087   6.619   4.826   8.008 -0.1853 -0.2363 -0.2258
19170SOL    HW158088   6.553   4.758   8.019 -0.4531 -0.3545 -2.1522
19170SOL    HW258089   6.572   4.908   8.025 -0.9669 -0.2974 -1.8706
19171SOL     OW58090   2.522   5.997   1.878  0.2525  0.1427 -0.1139
19171SOL    HW158091   2.569   6.000   1.962 -1.0652 -1.1549  0.7015
19171SOL    HW258092   2.503   6.089   1.858 -1.4742  0.3541  2.2137
19172SOL     OW58093   8.295   4.341   0.044 -0.0107 -0.3620 -0.0872
19172SOL    HW158094   8.265   4.424   0.080 -1.0977 -0.4017 -0.8608
19172SOL    HW258095   8.245   4.330  -0.037 -1.1711 -2.5624  0.8417
19173SOL     OW58096   3.700   5.394   5.352  0.5469 -0.3222 -0.2513
19173SOL    HW158097   3.684   5.341   5.274  0.9300  0.5825 -0.9505
19173SOL    HW258098   3.645   5.354   5.419  0.9404 -1.7055 -0.7176
19174SOL     OW58099   3.320   4.874   3.245 -0.3156  0.5561 -0.5718
19174SOL    HW158100   3.297   4.781   3.252  1.1137  0.2338  0.3301
19174SOL    HW258101   3.404   4.881   3.290  0.3447  2.0198 -1.9314
19175SOL     OW58102   3.205   9.134   9.269  0.0400 -0.1669  0.6050
19175SOL    HW158103   3.201   9.224   9.300  0.4702  0.3633 -0.7925
19175SOL    HW258104   3.297   9.120   9.247 -0.3115 -0.3300 -0.8663
19176SOL     OW58105   7.609   1.760   1.248 -0.2179 -0.2469 -0.1411
19176SOL    HW158106   7.527   1.778   1.203 -0.3544  0.5212  0.4043
19176SOL    HW258107   7.677   1.782   1.184 -0.4195 -0.7023 -0.5251
19177SOL     OW58108   6.677   7.400   4.405 -0.1071  0.3305 -0.1143
19177SOL    HW158109   6.639   7.484   4.380 -0.8249 -0.7647 -3.1374
19177SOL    HW258110   6.754   7.391   4.349  0.2189 -0.8174  0.4971
19178SOL     OW58111   4.042   2.336   0.950  0.5382  0.6149 -0.1022
19178SOL    HW158112   4.050   2.422   0.908 -0.6049  0.8959  0.2075
19178SOL    HW258113   4.039   2.355   1.043  1.6629  0.1038  0.0570
19179SOL     OW58114   6.076   7.762   1.562 -0.2109 -0.4637 -0.3246
19179SOL    HW158115   6.144   7.706   1.525 -0.9558 -2.6769  1.4226
19179SOL    HW258116   6.003   7.756   1.501  0.0958 -0.5324 -0.6819
19180SOL     OW58117   1.839   5.182   1.114  0.1714  0.1960  0.0988
19180SOL    HW158118   1.927   5.166   1.146 -0.1552 -2.0499  0.0142
19180SOL    HW258119   1.820   5.107   1.057 -1.5000  1.0319 -0.5217
19181SOL     OW58120   8.029   7.908   5.967  0.3500 -0.2454  0.3238
19181SOL    HW158121   7.999   7.998   5.959 -0.7225 -0.7306 -1.9350
19181SOL    HW258122   8.052   7.898   6.060 -1.1054  1.8296  0.9712
19182SOL     OW58123   7.387   4.796   5.531 -0.3767  0.1438  0.2996
19182SOL    HW158124   7.405   4.882   5.493  0.2292  0.4139  1.1633
19182SOL    HW258125   7.302   4.806   5.574 -0.8136 -0.0118 -0.5011
19183SOL     OW58126   1.033   6.262   0.329 -0.2411  0.0245  0.2866
19183SOL    HW158127   0.972   6.300   0.393 -0.5603 -1.2039  0.7259
19183SOL    HW258128   0.992   6.181   0.302 -0.2864  0.6956 -1.7858
19184SOL     OW58129   0.868   1.465   2.490  0.3744 -0.3119  0.3780
19184SOL    HW158130   0.908   1.511   2.416  0.0793 -0.7810 -0.0841
19184SOL    HW258131   0.942   1.437   2.543  0.6293 -0.5665 -0.1040
19185SOL     OW58132   6.680   8.359   4.152 -0.2998 -0.3398 -0.2295
19185SOL    HW158133   6.728   8.347   4.070 -1.8917 -2.8227 -0.9081
19185SOL    HW258134   6.748   8.365   4.219  0.9937 -0.5861 -1.4706
19186SOL     OW58135   5.954   0.745   3.294  0.3104 -0.0694  0.2760
19186SOL    HW158136   5.867   0.709   3.277  0.3524 -0.0310 -0.0318
19186SOL    HW258137   5.979   0.787   3.212  0.3104  0.5717  0.5944
19187SOL     OW58138   8.933   9.063   8.895  0.2499  0.2944  0.2453
19187SOL    HW158139   8.842   9.050   8.869  1.1336 -0.0671 -3.0954
19187SOL    HW258140   8.967   8.974   8.906  0.1436  0.4306  2.0540
19188SOL     OW58141   6.183   2.170   1.298 -0.1128 -0.1770 -0.2873
19188SOL    HW158142   6.242   2.167   1.222 -0.2027 -1.7453 -0.3342
19188SOL    HW258143   6.236   2.206   1.369  0.2414  0.4594 -0.8622
19189SOL     OW58144   1.423   1.845   2.646 -0.0365 -0.0053  0.5471
19189SOL    HW158145   1.414   1.935   2.676  1.2032 -0.3220  1.9931
19189SOL    HW258146   1.505   1.815   2.685 -0.6105 -1.8760  0.4121
19190SOL     OW58147   7.521   8.035   9.657  0.2847  0.4112 -0.2339
19190SOL    HW158148   7.486   8.118   9.691 -0.8116 -0.3344  0.5098
19190SOL    HW258149   7.551   7.989   9.735  0.8549  0.0756 -0.6433
19191SOL     OW58150   3.023   2.861   3.114 -0.0516 -0.6018 -0.0028
19191SOL    HW158151   3.082   2.833   3.184 -0.4655 -0.0620  0.5736
19191SOL    HW258152   2.944   2.808   3.127  0.6697 -2.1216 -1.4387
19192SOL     OW58153   2.146   6.610   8.068 -0.5252 -0.1145 -0.0169
19192SOL    HW158154   2.101   6.582   7.988 -0.0463  0.4403 -0.4913
19192SOL    HW258155   2.238   6.587   8.054 -0.2788  0.8147 -0.0329
19193SOL     OW58156   2.036   2.537   8.573 -0.4611  0.2907 -0.2115
19193SOL    HW158157   2.018   2.630   8.558  1.4857  0.6337 -0.6324
19193SOL    HW258158   2.015   2.523   8.666  0.0138  1.3490  0.0702
19194SOL     OW58159   0.177   4.985   2.188  0.5701 -0.0535  0.2166
19194SOL    HW158160   0.246   5.031   2.236 -0.4891  1.2535  0.5617
19194SOL    HW258161   0.104   5.047   2.186 -0.1123 -0.8605 -1.3630
19195SOL     OW58162   3.911   8.348   3.808 -0.7667 -0.1317  0.9105
19195SOL    HW158163   3.829   8.389   3.782  0.1835  0.4247 -1.4287
19195SOL    HW258164   3.885   8.261   3.838 -2.4028  0.7718  2.2775
19196SOL     OW58165   1.221   6.331   6.821  0.1653 -0.0518 -0.2919
19196SOL    HW158166   1.219   6.249   6.870 -1.3930 -1.3293 -2.3153
19196SOL    HW258167   1.133   6.368   6.833  0.0796  0.0968 -1.2949
19197SOL     OW58168   4.847   0.312   9.408  0.4119  0.5043  0.1236
19197SOL    HW158169   4.913   0.378   9.388 -0.7094  0.8410 -2.9411
19197SOL    HW258170   4.875   0.234   9.361  0.9037 -0.8304  2.4609
19198SOL     OW58171   7.705   0.986   2.920 -0.3932 -0.3266 -0.0249
19198SOL    HW158172   7.650   0.933   2.862  0.0800 -1.9275  0.9281
19198SOL    HW258173   7.787   0.996   2.872 -0.8104  0.3803 -0.6115
19199SOL     OW58174  10.012   6.123   6.447  0.1097 -0.4078  0.0805
19199SOL    HW158175   9.974   6.048   6.402  0.4422 -0.6449  0.1832
19199SOL    HW258176   9.942   6.188   6.451  0.4775  0.1811 -2.0344
19200SOL     OW58177   2.372   3.570   4.836 -0.0991  0.1429  0.1334
19200SOL    HW158178   2.353   3.486   4.879 -0.3657 -0.2720 -0.7694
19200SOL    HW258179   2.418   3.546   4.756  2.0094  1.0051  1.0016
19201SOL     OW58180   3.468   3.425   3.625 -0.6215  0.9288 -0.0765
19201SOL    HW158181   3.423   3.459   3.548  2.5180  2.9546 -1.1959
19201SOL    HW258182   3.464   3.496   3.689  1.2381  1.3845 -0.3912
19202SOL     OW58183   6.169   9.352   2.096  0.1429 -0.5755 -0.0809
19202SOL    HW158184   6.098   9.414   2.112  0.6612 -0.0630  0.2721
19202SOL    HW258185   6.154   9.282   2.159  1.4848  0.8525  1.9337
19203SOL     OW58186   6.981   9.203   5.705 -0.0620  0.0554  0.3403
19203SOL    HW158187   6.962   9.283   5.656  2.9000  1.0760  0.6934
19203SOL    HW258188   6.931   9.135   5.660  0.4234  1.4146 -2.4667
19204SOL     OW58189   0.437   4.693   8.735 -0.2033  0.6763  0.8108
19204SOL    HW158190   0.397   4.692   8.648 -0.4174 -0.7609  0.8889
19204SOL    HW258191   0.488   4.612   8.738  1.1854  1.5513  1.4159
19205SOL     OW58192   1.481   0.576   0.399  0.1972  0.0322 -0.1232
19205SOL    HW158193   1.450   0.653   0.353  1.6052  1.0356  0.5437
19205SOL    HW258194   1.577   0.583   0.397  0.4041 -2.0525 -0.6395
19206SOL     OW58195   1.671   7.080   9.574  0.1246  0.1267  0.4511
19206SOL    HW158196   1.681   7.175   9.576  1.1612  0.0433 -0.2635
19206SOL    HW258197   1.588   7.065   9.528 -0.2441  0.6759  0.9128
19207SOL     OW58198   3.407   9.558   5.373  0.4630 -0.4441  0.2328
19207SOL    HW158199   3.316   9.529   5.384  0.0574  0.1379 -1.2988
19207SOL    HW258200   3.432   9.525   5.286  0.7872  1.6294 -0.5187
19208SOL     OW58201   8.357   2.189   7.145  0.5011 -1.1357  0.1198
19208SOL    HW158202   8.369   2.203   7.051 -0.0195 -0.3301  0.1635
19208SOL    HW258203   8.412   2.256   7.186  0.8043 -1.5491  0.3942
19209SOL     OW58204   6.145   9.121   0.146 -0.0032  0.3494  0.3976
19209SOL    HW158205   6.079   9.170   0.098  1.4163 -0.4604 -2.6826
19209SOL    HW258206   6.213   9.185   0.166  0.7134  0.2286 -1.4059
19210SOL     OW58207   3.264   6.510   0.303  0.1003 -0.0746 -0.1680
19210SOL    HW158208   3.354   6.542   0.316 -0.1436  0.5341  0.0477
19210SOL    HW258209   3.272   6.415   0.305  0.6299 -0.0193  0.6268
19211SOL     OW58210   4.432   8.969   2.347 -0.0262 -0.1162 -0.1006
19211SOL    HW158211   4.351   8.939   2.306 -0.6507  0.2159  0.8500
19211SOL    HW258212   4.483   8.888   2.360  1.1374 -0.0450 -3.3437
19212SOL     OW58213   2.072   0.476   2.046 -0.0901  0.4022 -0.3248
19212SOL    HW158214   1.984   0.513   2.051  0.7019  3.2861 -3.8701
19212SOL    HW258215   2.059   0.389   2.008 -1.4120  0.6804 -0.5554
19213SOL     OW58216   9.149   1.359   0.353 -0.4440  0.0734  0.4769
19213SOL    HW158217   9.225   1.331   0.403 -1.4922  0.9662  2.6683
19213SOL    HW258218   9.085   1.386   0.418 -1.9469  1.1918 -1.3452
19214SOL     OW58219   9.533   6.810   0.912 -0.3049 -0.3477 -0.0179
19214SOL    HW158220   9.443   6.780   0.904 -0.3777  0.3597 -2.7058
19214SOL    HW258221   9.575   6.783   0.831  1.2168  1.5699  0.0496
19215SOL     OW58222   6.600   5.639   9.539  0.2917  0.4700  0.1242
19215SOL    HW158223   6.579   5.703   9.607  0.5901  0.2999  0.3823
19215SOL    HW258224   6.583   5.684   9.456  1.9109  1.4127  0.2562
19216SOL     OW58225   4.080   5.968   1.031 -0.0342  0.2583 -0.6999
19216SOL    HW158226   4.011   6.011   1.081 -1.2876  0.5000 -2.5348
19216SOL    HW258227   4.041   5.886   1.001  0.1917  0.7092 -2.3351
19217SOL     OW58228   8.098   1.031   8.564 -0.4918  0.1258 -0.5465
19217SOL    HW158229   8.176   1.068   8.607 -0.1495  1.3438 -2.1232
19217SOL    HW258230   8.026   1.087   8.592 -0.4694  0.1981 -0.6342
19218SOL     OW58231   7.092   7.789   6.226 -0.0005  0.5484  0.2670
19218SOL    HW158232   7.104   7.849   6.152  1.1795  1.7908  1.4170
19218SOL    HW258233   7.176   7.789   6.271  1.3041 -4.6010 -1.4629
19219SOL     OW58234   8.672   9.134   7.374 -0.6885 -0.1889  0.2392
19219SOL    HW158235   8.698   9.182   7.295 -0.4943  0.3401  0.6203
19219SOL    HW258236   8.719   9.051   7.368 -0.4037 -0.0124 -0.0340
19220SOL     OW58237   8.975   2.540   1.306 -0.1795 -0.0746 -0.1903
19220SOL    HW158238   9.013   2.560   1.392  1.1791 -0.8498 -0.5944
19220SOL    HW258239   9.041   2.568   1.243 -0.6119 -0.7220 -0.9497
19221SOL     OW58240   0.587   8.677   2.421 -0.0256 -0.0893  0.1225
19221SOL    HW158241   0.661   8.619   2.403  0.0429  0.1850 -0.5024
19221SOL    HW258242   0.619   8.735   2.490  0.5156  0.3412 -0.4769
19222SOL     OW58243   6.825   4.516   9.068  0.5737  0.6232 -0.1273
19222SOL    HW158244   6.752   4.468   9.108 -0.3271  0.2546 -2.1194
19222SOL    HW258245   6.896   4.451   9.062 -0.2013 -0.1281 -1.5994
19223SOL     OW58246   0.548   9.703   2.250 -0.5202 -0.1778  0.7219
19223SOL    HW158247   0.472   9.754   2.276 -1.1448 -0.5903 -0.2138
19223SOL    HW258248   0.617   9.767   2.237 -0.9671  0.3056  0.7079
19224SOL     OW58249   7.271   8.116   1.039  0.1496  0.4365 -0.1427
19224SOL    HW158250   7.322   8.065   0.976  0.7165  1.8262 -0.8535
19224SOL    HW258251   7.270   8.205   1.003 -0.5259  1.0102  1.2149
19225SOL     OW58252   1.328   4.112   4.613 -0.0616  0.0065 -0.0686
19225SOL    HW158253   1.294   4.190   4.656 -0.7607  0.7142 -1.8025
19225SOL    HW258254   1.408   4.091   4.661 -1.2059  0.2268  2.0562
19226SOL     OW58255   9.746   8.841   1.892 -0.1013 -0.2960  0.4923
19226SOL    HW158256   9.806   8.903   1.851 -1.1820 -0.8345 -2.0485
19226SOL    HW258257   9.783   8.827   1.979  2.8081  0.2681 -0.5374
19227SOL     OW58258   3.163   6.266   9.192 -0.1288 -0.1754  0.1995
19227SOL    HW158259   3.133   6.311   9.114 -1.9267  0.7075  1.3315
19227SOL    HW258260   3.253   6.241   9.172 -0.8253 -0.8781 -2.5084
19228SOL     OW58261   2.466   6.608   4.494 -0.2969 -0.1489  0.1474
19228SOL    HW158262   2.525   6.647   4.559  0.9047 -1.1956 -0.2808
19228SOL    HW258263   2.517   6.609   4.412 -0.3201 -2.3302  0.0578
19229SOL     OW58264   5.290   6.364   5.098  0.3314  0.5348  0.2434
19229SOL    HW158265   5.307   6.431   5.032 -1.4621  1.8159  0.9887
19229SOL    HW258266   5.303   6.409   5.182 -0.3618 -0.1817  0.7508
19230SOL     OW58267   5.077   3.185   2.801 -0.7090 -0.2616  0.6457
19230SOL    HW158268   5.146   3.224   2.747 -0.1408  0.1678  1.6498
19230SOL    HW258269   5.076   3.239   2.881 -0.7613 -1.5314  1.5338
19231SOL     OW58270   4.871   7.677   1.847 -0.4469 -0.2428 -0.2980
19231SOL    HW158271   4.880   7.770   1.829  1.4258 -0.3314 -0.0139
19231SOL    HW258272   4.941   7.636   1.796 -0.7800 -1.4141  0.1509
19232SOL     OW58273   1.373   3.024   8.039  0.1442 -0.0915  0.8277
19232SOL    HW158274   1.432   2.979   8.100  0.8168  0.2850  0.4600
19232SOL    HW258275   1.386   2.979   7.956 -0.2073 -0.1096  0.7832
19233SOL     OW58276   6.753   5.932   4.779 -0.0935 -0.5548  0.0083
19233SOL    HW158277   6.766   6.026   4.779 -0.6195 -0.4244 -2.4163
19233SOL    HW258278   6.724   5.912   4.868 -1.5625  1.8143  0.1599
19234SOL     OW58279   8.644   9.116   8.189 -0.2381 -0.1412  0.2389
19234SOL    HW158280   8.570   9.159   8.232  0.9418  1.6347  0.5757
19234SOL    HW258281   8.694   9.187   8.150  0.2785 -1.4761 -1.6497
19235SOL     OW58282   6.208   6.346   8.669 -0.5728 -0.2101  0.2600
19235SOL    HW158283   6.204   6.356   8.574 -0.6320 -0.9280  0.1783
19235SOL    HW258284   6.205   6.435   8.703  0.9164  0.1465 -0.4573
19236SOL     OW58285   1.249   8.587   6.165 -0.2631  0.1747 -0.1924
19236SOL    HW158286   1.249   8.506   6.115 -2.0710 -0.8617  1.3134
19236SOL    HW258287   1.165   8.628   6.145 -0.5522  0.2756  1.0860
19237SOL     OW58288   7.096   0.977   5.824  0.1057  0.2827  0.2932
19237SOL    HW158289   7.140   1.060   5.807  0.5959  0.2317  1.2219
19237SOL    HW258290   7.053   0.955   5.742 -0.2248  1.5638  0.1000
19238SOL     OW58291   9.946   3.256   3.466  0.4477  0.2824  0.0319
19238SOL    HW158292   9.933   3.335   3.413  1.4002  0.1474 -0.4149
19238SOL    HW258293   9.858   3.220   3.476  0.1580  0.6975 -0.8633
19239SOL     OW58294   0.629   2.507   3.025 -0.8782  0.3270 -0.0847
19239SOL    HW158295   0.672   2.573   3.079 -0.1370 -0.4336  0.2822
19239SOL    HW258296   0.535   2.518   3.043 -0.6517  0.1255  1.3321
19240SOL     OW58297   2.520   7.700   5.979 -0.0336  0.1624  0.6881
19240SOL    HW158298   2.479   7.758   6.044  1.6440 -0.4958  2.4149
19240SOL    HW258299   2.447   7.652   5.941 -1.1770  1.3872  1.2403
19241SOL     OW58300   5.155   6.774   2.848 -0.2498 -0.4207 -0.7206
19241SOL    HW158301   5.080   6.829   2.828  0.8228  1.2377 -0.4322
19241SOL    HW258302   5.183   6.802   2.935 -0.4210 -2.3499 -0.0024
19242SOL     OW58303   4.478   1.354   9.448 -0.1755  0.4224 -0.7970
19242SOL    HW158304   4.402   1.359   9.506  0.1239  1.1037 -0.4471
19242SOL    HW258305   4.449   1.396   9.367 -0.0083  1.1765 -0.4719
19243SOL     OW58306   2.773   8.595   7.764  0.6253  0.8641 -0.1178
19243SOL    HW158307   2.800   8.623   7.676 -0.3533  2.3341  0.0140
19243SOL    HW258308   2.792   8.670   7.820 -2.2020  1.4209  0.2427
19244SOL     OW58309   9.921   1.908   9.644 -0.3384  0.0449  0.5354
19244SOL    HW158310   9.860   1.836   9.665  0.6584 -1.8306 -2.3430
19244SOL    HW258311   9.999   1.889   9.696  0.2173 -1.5104 -0.7935
19245SOL     OW58312   7.652   3.595   0.354 -0.2020  0.1841  0.0990
19245SOL    HW158313   7.651   3.609   0.260 -0.7468  0.7563  0.1874
19245SOL    HW258314   7.577   3.538   0.371  1.0795 -1.6287 -0.0566
19246SOL     OW58315   9.333   5.517   2.679  0.2398  0.0113  0.6521
19246SOL    HW158316   9.325   5.612   2.673 -1.4643 -0.1018  0.6059
19246SOL    HW258317   9.386   5.502   2.757  3.6050  1.0203 -1.2333
19247SOL     OW58318   0.751   4.117   6.643 -0.0452 -0.2843 -0.7088
19247SOL    HW158319   0.829   4.062   6.641 -0.6261 -1.2617  1.1756
19247SOL    HW258320   0.679   4.059   6.619 -0.2666  0.5832 -2.3359
19248SOL     OW58321   7.498   8.472   7.796  0.5011  0.2027  0.0818
19248SOL    HW158322   7.569   8.424   7.837  0.2346  0.3951  0.8030
19248SOL    HW258323   7.447   8.507   7.870 -1.0406 -0.9415 -0.3774
19249SOL     OW58324   2.001   4.195   3.906 -0.1987 -0.1837  0.2815
19249SOL    HW158325   2.011   4.219   3.998  1.2476 -1.0453  0.3956
19249SOL    HW258326   1.954   4.111   3.908 -0.4247 -0.0567  0.2244
19250SOL     OW58327   9.292   1.854   3.786  0.0582 -0.2704  0.0284
19250SOL    HW158328   9.301   1.787   3.853  1.5957 -0.1667 -0.0406
19250SOL    HW258329   9.213   1.902   3.811 -0.4353 -1.3835  0.7016
19251SOL     OW58330   4.438   4.736   5.573  0.6661  0.3579 -0.4527
19251SOL    HW158331   4.383   4.777   5.640 -0.4850  0.4617 -1.4306
19251SOL    HW258332   4.484   4.808   5.532  0.9511  0.3486 -0.1566
19252SOL     OW58333   8.171   3.582   4.937 -0.0956  0.2161 -0.1084
19252SOL    HW158334   8.196   3.669   4.969  0.6614  0.5171 -1.4376
19252SOL    HW258335   8.178   3.589   4.842 -3.7406 -0.1825 -0.5537
19253SOL     OW58336   0.193   0.802   6.913 -0.1375 -0.0184 -0.8514
19253SOL    HW158337   0.238   0.790   6.829  0.3764  2.4419 -0.9991
19253SOL    HW258338   0.108   0.760   6.901 -0.1562  0.4596 -2.6816
19254SOL     OW58339   4.719   1.036   2.510 -0.0204 -0.1715  0.0178
19254SOL    HW158340   4.804   1.014   2.546 -0.9468 -0.6997  1.9995
19254SOL    HW258341   4.735   1.047   2.416  2.4019  0.7314  0.4635
19255SOL     OW58342   6.896   0.223   1.598  0.3068  0.8092 -0.3654
19255SOL    HW158343   6.971   0.201   1.654  1.1961  0.0459 -1.8151
19255SOL    HW258344   6.929   0.214   1.509 -1.3435  1.0964 -1.0371
19256SOL     OW58345   1.371   7.697   6.646 -0.4968 -0.2395 -0.0775
19256SOL    HW158346   1.332   7.717   6.731 -1.4296 -2.4748  0.0891
19256SOL    HW258347   1.345   7.770   6.590 -2.0775  0.0088  0.9215
19257SOL     OW58348   8.084   2.802   6.829  0.5495  0.3144 -0.1151
19257SOL    HW158349   8.149   2.755   6.882  2.1746  2.4094 -0.1068
19257SOL    HW258350   8.084   2.891   6.864  0.2597  1.2718 -2.3769
19258SOL     OW58351   3.576   2.504   7.319  0.1230  0.4307 -0.3487
19258SOL    HW158352   3.563   2.596   7.343 -0.3311  0.1075  0.6910
19258SOL    HW258353   3.669   2.497   7.301  0.3700  0.8356  0.7335
19259SOL     OW58354   9.610   2.435   0.140 -0.0866  0.1996  0.1690
19259SOL    HW158355   9.705   2.436   0.138 -0.0949  0.6581 -0.7383
19259SOL    HW258356   9.584   2.508   0.083 -0.9787  1.3224  1.9360
19260SOL     OW58357   1.806   6.810   4.076  0.0139  0.0863 -0.3051
19260SOL    HW158358   1.716   6.777   4.081  0.2563 -1.1803 -2.7239
19260SOL    HW258359   1.861   6.734   4.098  0.5129  0.5387  0.0284
19261SOL     OW58360   3.882   2.036   8.235  0.2093  0.1877  0.2742
19261SOL    HW158361   3.840   1.982   8.301 -0.0677 -0.2757 -0.2700
19261SOL    HW258362   3.939   2.095   8.284  0.1334 -0.2612  0.9065
19262SOL     OW58363   0.632   4.735   4.571 -0.0605 -0.1551 -0.1319
19262SOL    HW158364   0.645   4.641   4.583  0.3133 -0.1546 -0.5057
19262SOL    HW258365   0.572   4.760   4.641 -0.0221 -0.6385  0.0776
19263SOL     OW58366   6.264   7.294   3.061  0.4396  0.1486  0.4020
19263SOL    HW158367   6.256   7.256   2.973  0.1101 -0.9254  0.8798
19263SOL    HW258368   6.197   7.362   3.064 -0.4706 -0.7080  0.2542
19264SOL     OW58369   0.082   7.818   2.018 -0.8034 -0.5874  0.0477
19264SOL    HW158370   0.006   7.873   1.999 -0.3920  1.1368  2.8528
19264SOL    HW258371   0.052   7.729   1.997 -2.5667  0.3286 -1.6416
19265SOL     OW58372   5.235   3.992   8.981 -0.2680 -0.5326  0.2354
19265SOL    HW158373   5.306   4.055   8.974  0.8685 -1.5071  2.1624
19265SOL    HW258374   5.258   3.922   8.920  1.2529 -1.5217  1.8481
19266SOL     OW58375   5.989   6.333   0.316  0.4238 -0.2982  0.3369
19266SOL    HW158376   6.036   6.330   0.399 -0.5115 -0.2112  0.8824
19266SOL    HW258377   5.935   6.412   0.321  0.9270  0.1378 -0.6827
19267SOL     OW58378   5.845   4.121   1.895  0.5616  0.0117  0.0786
19267SOL    HW158379   5.849   4.025   1.902  3.4275  0.1473  2.1898
19267SOL    HW258380   5.756   4.143   1.923 -0.0247 -2.0134 -0.0354
19268SOL     OW58381   7.896   8.317   1.812 -0.4508 -0.2367  0.1562
19268SOL    HW158382   7.953   8.332   1.888  0.3556 -0.9265 -0.2917
19268SOL    HW258383   7.831   8.254   1.843  0.5257 -1.3488 -0.0200
19269SOL     OW58384   0.582   1.568   3.339  0.6128 -1.1795 -0.1634
19269SOL    HW158385   0.541   1.553   3.253  1.0956  0.3978 -0.7043
19269SOL    HW258386   0.517   1.619   3.387  2.1800  2.3948 -1.4408
19270SOL     OW58387   8.924   8.037   8.575  0.0050 -0.1210 -0.5205
19270SOL    HW158388   8.830   8.038   8.592 -0.0955  0.4610 -1.0524
19270SOL    HW258389   8.954   8.125   8.598  0.6762 -0.6944  0.9263
19271SOL     OW58390   9.124   4.824   0.870  0.1610  0.3422 -0.6899
19271SOL    HW158391   9.212   4.832   0.833 -0.2291  0.8547 -1.5359
19271SOL    HW258392   9.105   4.911   0.907  0.0290  0.2161 -0.4548
19272SOL     OW58393   6.559   5.293   1.158 -0.2993  0.0752  0.4863
19272SOL    HW158394   6.598   5.380   1.169  0.0024 -0.1340  1.0813
19272SOL    HW258395   6.516   5.275   1.241 -1.5055  0.2134 -0.0814
19273SOL     OW58396   9.005   6.927   4.469  0.4059  0.0001 -0.0705
19273SOL    HW158397   8.938   6.906   4.405 -0.8396  2.3080  0.3930
19273SOL    HW258398   8.957   6.937   4.551  1.6031 -0.1454  0.6755
19274SOL     OW58399   9.626   0.198   1.523 -0.3322  0.0920  0.0676
19274SOL    HW158400   9.605   0.157   1.439 -0.1116 -0.9750  0.5184
19274SOL    HW258401   9.621   0.126   1.587 -3.8785  1.3966  1.5618
19275SOL     OW58402   9.257   4.455   1.758 -0.8102 -0.1873 -1.2363
19275SOL    HW158403   9.327   4.480   1.698  0.0900 -0.1352 -0.2145
19275SOL    HW258404   9.297   4.390   1.815 -1.4124  0.2727 -0.2587
19276SOL     OW58405   3.781   3.792   1.581  0.0598  0.0678  0.7084
19276SOL    HW158406   3.716   3.792   1.511 -2.5888 -0.8531  2.9732
19276SOL    HW258407   3.866   3.794   1.536 -1.4309  3.3509 -2.3986
19277SOL     OW58408   3.808   9.806   7.118 -0.1543 -0.5188 -0.1707
19277SOL    HW158409   3.819   9.853   7.201  1.1682  0.5805 -0.9330
19277SOL    HW258410   3.895   9.771   7.098 -0.3723 -0.4779 -1.2567
19278SOL     OW58411   5.007   5.120   8.144  0.2753 -0.1533 -0.0866
19278SOL    HW158412   4.966   5.116   8.058  0.7743  0.6008 -0.3700
19278SOL    HW258413   5.101   5.129   8.126  0.5594 -1.5409  0.5448
19279SOL     OW58414   8.066   7.390   0.072  0.0411 -0.0224  0.8314
19279SOL    HW158415   8.052   7.477   0.035  0.2551 -0.0869  0.5969
19279SOL    HW258416   8.158   7.372   0.057 -0.6784 -1.7710 -2.3950
19280SOL     OW58417   0.982   7.754   4.159  0.1971  0.5138  0.2441
19280SOL    HW158418   0.897   7.798   4.159 -0.0078  0.1206  0.0531
19280SOL    HW258419   0.967   7.673   4.208  0.8415  1.1482  1.5620
19281SOL     OW58420   1.664   5.412   6.389  0.2023 -0.2564  0.1053
19281SOL    HW158421   1.714   5.433   6.468 -0.5163  0.5945  0.3599
19281SOL    HW258422   1.729   5.378   6.328  0.7866 -0.8519  1.0313
19282SOL     OW58423   3.773   2.843   1.464 -0.8022  0.5117  0.0986
19282SOL    HW158424   3.700   2.793   1.501 -0.0388 -0.5697  0.1449
19282SOL    HW258425   3.802   2.899   1.536 -0.4480 -0.3272  0.6084
19283SOL     OW58426   7.761   1.869   0.276 -0.2139  0.2271  0.0080
19283SOL    HW158427   7.770   1.932   0.348  0.8366 -0.4192  0.4618
19283SOL    HW258428   7.833   1.808   0.289 -2.6001 -2.5943  1.0735
19284SOL     OW58429   1.749   9.756   1.078  0.2470  0.0242 -0.4513
19284SOL    HW158430   1.736   9.835   1.025  1.4690  0.7902  0.3442
19284SOL    HW258431   1.810   9.783   1.147 -0.5677 -1.1905  0.7977
19285SOL     OW58432   9.209   7.183   5.036  0.7978 -0.1142 -0.5350
19285SOL    HW158433   9.185   7.194   4.944 -0.1071 -1.0059 -0.4139
19285SOL    HW258434   9.247   7.095   5.041  2.3839  0.5458 -0.3553
19286SOL     OW58435   5.726   7.873   7.376  0.4069  0.0251 -0.2617
19286SOL    HW158436   5.768   7.791   7.402 -1.4907 -0.8398  0.2378
19286SOL    HW258437   5.649   7.847   7.325  0.2304  1.5214 -0.8287
19287SOL     OW58438   7.050   1.980   8.144  0.6880  0.6599  0.1772
19287SOL    HW158439   7.122   1.961   8.085  1.4837 -0.3299  1.4002
19287SOL    HW258440   7.092   1.998   8.228 -0.4738  0.0444  0.9262
19288SOL     OW58441   1.286   9.044   7.543 -0.1649  0.4720  0.1057
19288SOL    HW158442   1.361   8.987   7.560 -0.6763 -0.7825 -1.5093
19288SOL    HW258443   1.314   9.100   7.471 -0.1720  1.2643  0.7106
19289SOL     OW58444   8.193   9.299   8.634 -0.0175 -0.4793  0.2765
19289SOL    HW158445   8.196   9.373   8.573 -0.7938  0.2462  1.0965
19289SOL    HW258446   8.283   9.266   8.635  0.4182  0.6387  0.1283
19290SOL     OW58447   1.941   9.771   8.350  0.0272  0.4570 -0.0090
19290SOL    HW158448   1.878   9.804   8.414  0.1163  2.3133 -0.7972
19290SOL    HW258449   1.900   9.790   8.265  0.8158 -0.0486 -0.5104
19291SOL     OW58450   0.048   0.167   6.019 -0.0015  0.0575  0.2392
19291SOL    HW158451  -0.045   0.151   6.033  0.1989 -1.3563  0.1228
19291SOL    HW258452   0.087   0.159   6.106 -0.1203  1.8001  0.4756
19292SOL     OW58453   3.625   7.096   4.905  0.5943 -0.3023 -0.5529
19292SOL    HW158454   3.617   7.177   4.856  2.0473  0.0260 -0.2999
19292SOL    HW258455   3.703   7.108   4.959  1.2970 -2.1445 -1.0579
19293SOL     OW58456   4.387   3.444   7.508  0.0136 -0.0364 -0.5769
19293SOL    HW158457   4.350   3.477   7.590  1.1313  0.9106 -0.4267
19293SOL    HW258458   4.362   3.509   7.442 -0.0881 -0.3174 -0.8197
19294SOL     OW58459   2.649   8.764   6.385  0.2977  0.0500  0.6526
19294SOL    HW158460   2.662   8.680   6.428 -2.0671 -0.4138  0.6446
19294SOL    HW258461   2.701   8.826   6.435  0.0528 -1.0001  2.2634
19295SOL     OW58462   0.441   0.389   6.932 -0.1708 -0.0538  0.6455
19295SOL    HW158463   0.385   0.419   6.861  2.0344  0.7548 -0.8451
19295SOL    HW258464   0.508   0.456   6.941  1.2144 -1.4752  1.6104
19296SOL     OW58465   3.829   6.051   7.961  0.0524  0.1057 -0.0727
19296SOL    HW158466   3.819   6.013   8.048 -0.2515  1.4132  0.4957
19296SOL    HW258467   3.893   5.995   7.917  0.2840 -0.5199  1.0246
19297SOL     OW58468   9.919   8.945   8.907 -0.4454  0.3522 -0.8909
19297SOL    HW158469   9.900   8.978   8.994 -1.2483 -0.2374 -0.8257
19297SOL    HW258470   9.951   9.021   8.858 -1.8184  1.1455 -0.6265
19298SOL     OW58471   3.436   1.211   8.225 -0.6692 -0.1747 -0.0146
19298SOL    HW158472   3.371   1.144   8.248  0.6161 -1.2571  0.6044
19298SOL    HW258473   3.510   1.161   8.190 -0.5561  1.0986 -1.7079
19299SOL     OW58474   9.001   8.451   7.175  0.1410  0.1601  0.4257
19299SOL    HW158475   9.013   8.461   7.270  0.5100 -0.8487  0.4903
19299SOL    HW258476   9.088   8.465   7.138  0.0578  0.2377  0.2584
19300SOL     OW58477   5.808   2.307   2.933  0.2659  0.3341  0.5197
19300SOL    HW158478   5.730   2.326   2.985  0.1893  0.0788  0.4973
19300SOL    HW258479   5.881   2.315   2.994  0.1871  0.1632  0.6373
19301SOL     OW58480   8.992   6.998   7.268  0.4822  0.2720 -0.1009
19301SOL    HW158481   8.959   7.073   7.218 -2.4646  0.0488  1.2689
19301SOL    HW258482   9.056   6.957   7.210  1.1372  2.9620 -1.4815
19302SOL     OW58483   9.885   6.184   2.878  0.1366  0.0956 -0.4601
19302SOL    HW158484   9.792   6.161   2.884 -0.3551  1.6035 -1.5288
19302SOL    HW258485   9.910   6.211   2.966 -0.6299  0.3216 -0.3097
19303SOL     OW58486   5.466   1.577   0.428 -0.0179  0.3057 -0.2559
19303SOL    HW158487   5.384   1.617   0.457  0.5798  0.4571  1.3588
19303SOL    HW258488   5.516   1.648   0.389  0.0994  0.6477  0.4955
19304SOL     OW58489   0.711   5.394   1.587  0.2417 -0.3314 -0.2524
19304SOL    HW158490   0.725   5.355   1.673  0.8168  1.9342  0.7726
19304SOL    HW258491   0.798   5.428   1.562 -0.2427  0.4271 -0.9775
19305SOL     OW58492   1.041   9.037   7.314 -0.2927 -0.0221  0.1888
19305SOL    HW158493   1.116   9.076   7.269  0.6961 -0.7880  1.1130
19305SOL    HW258494   1.080   8.989   7.387 -1.8024  0.7086  1.5188
19306SOL     OW58495   8.993   6.384   6.140 -0.2500 -0.4737 -0.0445
19306SOL    HW158496   9.031   6.472   6.142 -1.2585 -0.0089 -0.8668
19306SOL    HW258497   8.914   6.390   6.194 -1.6691 -0.1968 -2.0563
19307SOL     OW58498   0.152   2.748   5.806  0.6758  0.4126 -0.4749
19307SOL    HW158499   0.148   2.654   5.822  2.5533  0.2521 -0.8207
19307SOL    HW258500   0.161   2.756   5.711 -0.6027  1.0102 -0.5692
19308SOL     OW58501   4.044   2.592   0.829  0.0373 -0.6233  0.2161
19308SOL    HW158502   4.132   2.608   0.795 -0.3226 -2.3924 -1.6773
19308SOL    HW258503   4.009   2.680   0.845  0.6557  0.3330 -2.9718
19309SOL     OW58504   0.632   1.063   0.421  0.2110 -0.1432 -0.0403
19309SOL    HW158505   0.608   1.083   0.512 -1.0645 -0.7965 -0.2226
19309SOL    HW258506   0.694   0.990   0.428  0.8284  0.4080  0.3420
19310SOL     OW58507   7.780   6.351   8.149  0.0423 -1.5356 -0.1072
19310SOL    HW158508   7.707   6.297   8.180  0.4890 -1.9744  0.1979
19310SOL    HW258509   7.857   6.295   8.160  0.6731 -0.4640  1.2687
19311SOL     OW58510   4.234   9.969   9.467  0.2591  0.2506 -0.6465
19311SOL    HW158511   4.280  10.009   9.541  1.4088 -0.7453 -0.7871
19311SOL    HW258512   4.198   9.888   9.503 -2.7225  1.6361 -0.1586
19312SOL     OW58513   9.004   7.850   6.739  0.0432  0.4119  0.4339
19312SOL    HW158514   9.039   7.936   6.716 -0.8533  0.7667  0.3548
19312SOL    HW258515   8.921   7.844   6.691 -0.1388 -0.2946  0.8172
19313SOL     OW58516   5.779   8.252   4.733 -0.3085 -0.2386  0.1060
19313SOL    HW158517   5.778   8.236   4.827  0.5170  1.0127  0.3467
19313SOL    HW258518   5.763   8.346   4.724 -0.2258 -0.3148 -1.0038
19314SOL     OW58519   6.575   6.648   8.776  0.8848  0.0953 -0.5594
19314SOL    HW158520   6.538   6.598   8.704 -1.0445 -3.5582  2.5753
19314SOL    HW258521   6.667   6.622   8.780  0.0078 -3.2525  0.7649
19315SOL     OW58522   8.743   8.154   7.919 -0.4882 -0.7228 -0.0263
19315SOL    HW158523   8.763   8.067   7.954 -1.1246 -0.4477  1.0856
19315SOL    HW258524   8.809   8.169   7.852  0.4492 -1.5210  0.6898
19316SOL     OW58525   2.918   9.011   7.699  0.7569 -0.0199 -0.0643
19316SOL    HW158526   2.851   8.989   7.634  2.1801 -1.5614 -1.0652
19316SOL    HW258527   2.947   9.099   7.674 -1.0968  0.8441  0.6182
19317SOL     OW58528   7.296   0.750   1.269  0.3568 -0.0045 -0.3461
19317SOL    HW158529   7.289   0.655   1.268  0.8813 -0.1191 -3.4425
19317SOL    HW258530   7.207   0.780   1.250  0.3267  0.0890 -0.0540
19318SOL     OW58531   8.991   4.809   0.633 -0.7939 -0.0371  0.5324
19318SOL    HW158532   9.038   4.843   0.557 -0.0340 -0.6996  0.6940
19318SOL    HW258533   9.054   4.812   0.704 -1.0170 -0.8567  0.7761
19319SOL     OW58534   0.754   4.272   8.404  0.0619 -0.5252  0.2947
19319SOL    HW158535   0.705   4.335   8.457  0.0750  1.6077 -2.0695
19319SOL    HW258536   0.812   4.229   8.467 -1.5460  0.1530  2.3819
19320SOL     OW58537   3.571   1.946   9.937 -0.3230  0.5553 -0.7516
19320SOL    HW158538   3.625   1.948   9.858  1.0126 -1.0106  0.0802
19320SOL    HW258539   3.512   1.873   9.924  1.1207 -0.8872  0.4116
19321SOL     OW58540   9.587   5.156   4.828  0.0450  0.1132  0.4628
19321SOL    HW158541   9.602   5.250   4.825  0.0988  0.0804 -1.0646
19321SOL    HW258542   9.627   5.123   4.747 -0.9336 -1.0682  0.4365
19322SOL     OW58543   4.571   8.586   0.884 -0.0534 -0.2906 -0.1971
19322SOL    HW158544   4.595   8.507   0.932 -0.3608  0.3102  0.9974
19322SOL    HW258545   4.478   8.576   0.865  0.3469 -1.1337 -1.9087
19323SOL     OW58546   4.452   2.356   8.686  0.6606  0.0285 -0.1985
19323SOL    HW158547   4.395   2.288   8.720 -0.0420  1.8527  2.5716
19323SOL    HW258548   4.449   2.344   8.591 -1.1874 -2.3680  0.0663
19324SOL     OW58549   6.617   4.505   7.956  0.1374  0.6875 -0.1515
19324SOL    HW158550   6.658   4.571   7.900  0.7868  1.4142  1.1192
19324SOL    HW258551   6.525   4.532   7.961 -0.0180  0.3733 -1.1829
19325SOL     OW58552   6.348   9.665   9.370 -0.2044 -0.1810 -0.3332
19325SOL    HW158553   6.278   9.677   9.434 -0.3288 -0.7556 -0.3608
19325SOL    HW258554   6.303   9.651   9.287 -0.0498 -0.1239 -0.4271
19326SOL     OW58555   1.648   1.454   2.554  0.0137  0.5404 -0.4308
19326SOL    HW158556   1.590   1.523   2.523 -0.6692 -0.3752 -1.2189
19326SOL    HW258557   1.654   1.392   2.482  0.7746 -0.1431  0.1898
19327SOL     OW58558   3.686   1.618   7.046  0.4981 -0.8277 -0.0227
19327SOL    HW158559   3.630   1.570   7.107 -1.3441 -0.1331 -1.0764
19327SOL    HW258560   3.665   1.581   6.960  0.6952  0.3412 -0.5949
19328SOL     OW58561   7.567   8.790   5.979 -0.3836  0.0374 -0.3038
19328SOL    HW158562   7.559   8.762   6.070 -0.6613  1.5898  0.1863
19328SOL    HW258563   7.646   8.844   5.978  0.2618 -0.9104 -1.2481
19329SOL     OW58564   2.869   2.201   2.588  0.1870  0.4712 -0.7422
19329SOL    HW158565   2.861   2.192   2.493  1.0684  1.6296 -0.9533
19329SOL    HW258566   2.958   2.173   2.608  0.2317  0.8819 -0.3447
19330SOL     OW58567   6.249   2.847   5.972  0.6344 -0.2989 -0.4903
19330SOL    HW158568   6.218   2.756   5.963 -1.3520  0.2430  0.2316
19330SOL    HW258569   6.178   2.891   6.018  1.2531  1.7979 -1.4332
19331SOL     OW58570   0.988   5.607   4.977  0.5996  0.2393 -0.9692
19331SOL    HW158571   0.892   5.604   4.984  0.5722  2.1433 -0.2381
19331SOL    HW258572   1.004   5.607   4.882 -0.1544  0.6071 -1.1078
19332SOL     OW58573   3.695   3.024   6.524 -0.4380 -0.4280 -0.0612
19332SOL    HW158574   3.770   3.043   6.467 -0.2877  0.3095  0.3629
19332SOL    HW258575   3.727   2.955   6.583  0.0004  0.0729  0.2927
19333SOL     OW58576   0.456   0.877   1.397 -0.3694  0.2944  0.3653
19333SOL    HW158577   0.426   0.966   1.414  0.4894  0.5507  0.5919
19333SOL    HW258578   0.488   0.846   1.482 -1.8749 -0.7278  0.6101
19334SOL     OW58579   6.495   2.527   3.469 -0.7019  0.6341  1.0842
19334SOL    HW158580   6.490   2.588   3.542  0.5448  0.4760  1.3324
19334SOL    HW258581   6.525   2.445   3.509  1.0026  0.8195  0.2877
19335SOL     OW58582   4.024   5.603   3.710  0.0390  0.1624 -0.3100
19335SOL    HW158583   4.072   5.613   3.793  2.8746 -2.7283 -1.3705
19335SOL    HW258584   3.950   5.546   3.733 -0.3410  0.9607  0.5353
19336SOL     OW58585   5.808   7.757   5.526  0.1582  0.5830 -0.5238
19336SOL    HW158586   5.781   7.828   5.469 -0.0349  0.0090 -1.1642
19336SOL    HW258587   5.727   7.709   5.545  0.4451 -0.0837 -0.9635
19337SOL     OW58588   2.353   4.468   3.032  0.1888  0.0034 -0.9906
19337SOL    HW158589   2.434   4.424   3.006  0.1693 -1.5955  1.3892
19337SOL    HW258590   2.382   4.553   3.067  0.8306 -0.4936 -0.3057
19338SOL     OW58591   8.677   2.119   1.261  0.1474 -0.5076  0.0741
19338SOL    HW158592   8.734   2.126   1.338 -0.6513  0.9000  0.5626
19338SOL    HW258593   8.623   2.042   1.278  1.1544 -1.2339  0.0932
19339SOL     OW58594   1.376   4.083   8.028  0.1565 -0.0591 -0.1617
19339SOL    HW158595   1.431   4.129   8.092 -1.9594  2.4302  0.0409
19339SOL    HW258596   1.330   4.017   8.079  2.0851 -1.4489 -0.1388
19340SOL     OW58597   0.960   2.565   5.644  0.1803  0.7339  0.0615
19340SOL    HW158598   1.036   2.618   5.671  0.5717 -0.1718  0.7803
19340SOL    HW258599   0.911   2.551   5.724 -2.2203  3.4548 -0.7423
19341SOL     OW58600   5.099   0.900   4.478 -0.2718  0.2427  1.1047
19341SOL    HW158601   5.114   0.895   4.384  2.7162 -0.6765  1.5231
19341SOL    HW258602   5.095   0.994   4.497  2.4157  0.5505  0.4303
19342SOL     OW58603   3.832   3.048   7.736  0.2870 -0.2244  0.0004
19342SOL    HW158604   3.842   2.959   7.701 -1.1503 -0.1633 -0.6296
19342SOL    HW258605   3.809   3.035   7.828 -1.7704 -0.6155 -0.5163
19343SOL     OW58606   4.415   1.549   5.435 -0.4595 -0.7569  0.1139
19343SOL    HW158607   4.357   1.565   5.361 -1.3201 -0.0842  0.9120
19343SOL    HW258608   4.477   1.484   5.403  1.2369  1.7940 -2.2682
19344SOL     OW58609   1.606   3.995   7.606 -0.2252  0.1463  0.0880
19344SOL    HW158610   1.587   4.089   7.604 -0.9146  0.0161  0.3620
19344SOL    HW258611   1.625   3.976   7.698 -0.2822 -0.0252  0.0637
19345SOL     OW58612   1.332   0.438   2.809  0.0700  0.2198 -0.3236
19345SOL    HW158613   1.342   0.416   2.901  3.2849 -1.5193 -0.9351
19345SOL    HW258614   1.378   0.521   2.799  1.0931 -0.3660 -0.5924
19346SOL     OW58615   3.420   5.957   3.695 -0.2497  0.0649  0.1057
19346SOL    HW158616   3.364   5.981   3.769  1.0091  0.6202  0.9114
19346SOL    HW258617   3.482   6.029   3.688 -0.6893  0.3036 -1.8870
19347SOL     OW58618   9.275   2.571   3.780 -0.0196  0.6253 -0.1068
19347SOL    HW158619   9.307   2.487   3.813 -1.0402  0.1502 -0.2834
19347SOL    HW258620   9.334   2.593   3.708 -0.3738 -0.4814 -0.7554
19348SOL     OW58621   1.601   7.122   0.456 -0.1670  0.1729  0.5615
19348SOL    HW158622   1.562   7.100   0.372  0.3044 -1.4688  0.7290
19348SOL    HW258623   1.555   7.200   0.485  0.3362  1.3955 -1.6719
19349SOL     OW58624   4.457   5.752   6.193  0.3058  0.7257 -0.0077
19349SOL    HW158625   4.380   5.698   6.173 -0.4349  1.7037  0.1044
19349SOL    HW258626   4.455   5.821   6.127  1.0670  0.7958  0.0365
19350SOL     OW58627   2.889   6.185   0.262  0.4509 -0.1621 -0.4285
19350SOL    HW158628   2.804   6.224   0.244  0.6100 -0.3694 -1.7409
19350SOL    HW258629   2.869   6.102   0.305 -0.0472 -0.4966 -1.2797
19351SOL     OW58630   7.971   0.738   2.133  0.0542  0.3896 -0.2595
19351SOL    HW158631   7.929   0.736   2.047  0.0007  0.3417 -0.2322
19351SOL    HW258632   7.952   0.826   2.166  1.6573  1.1017 -1.0816
19352SOL     OW58633   6.252   1.111   0.849 -0.1595 -0.0037 -0.8763
19352SOL    HW158634   6.235   1.024   0.814 -1.2462  0.1227 -0.7152
19352SOL    HW258635   6.343   1.107   0.880 -0.1918 -1.0815 -0.8605
19353SOL     OW58636   5.279   4.468   0.482  1.3855 -0.1269  0.3314
19353SOL    HW158637   5.188   4.465   0.452  1.6725 -0.6461 -0.5523
19353SOL    HW258638   5.283   4.402   0.551  1.4209 -1.2085 -0.6653
19354SOL     OW58639   3.489   8.046   0.018 -0.0885 -0.7432  0.5033
19354SOL    HW158640   3.475   8.031   0.111 -0.0565  2.2174  1.0854
19354SOL    HW258641   3.520   7.961  -0.016 -2.3069 -2.5645  2.6595
19355SOL     OW58642   6.236   0.223   9.630  0.0868  0.2475  0.2122
19355SOL    HW158643   6.196   0.240   9.544  0.1828 -0.6954 -0.0286
19355SOL    HW258644   6.265   0.309   9.660 -1.2165  0.8032 -0.0617
19356SOL     OW58645   1.175   5.150   0.428  0.7473 -0.1753 -0.2919
19356SOL    HW158646   1.145   5.124   0.341  0.3969 -3.2945  0.6441
19356SOL    HW258647   1.099   5.193   0.467  0.1637 -0.7263 -0.7808
19357SOL     OW58648   5.200   3.050   4.198  0.2193  0.3111  0.2700
19357SOL    HW158649   5.282   3.073   4.241  0.6760  4.5106 -2.2881
19357SOL    HW258650   5.133   3.063   4.265  1.2700  1.6716  1.0917
19358SOL     OW58651   9.106   5.070   7.030  0.0703 -0.5974 -0.2149
19358SOL    HW158652   9.015   5.097   7.037  0.2234  0.1460 -0.9647
19358SOL    HW258653   9.153   5.126   7.092 -0.2825 -2.7042  2.1191
19359SOL     OW58654   9.810   1.951   7.496 -0.6807 -0.7755  0.2564
19359SOL    HW158655   9.889   1.956   7.442 -1.4517 -0.6149 -0.8697
19359SOL    HW258656   9.774   2.039   7.496  0.3609 -0.2453  2.7271
19360SOL     OW58657   7.273   3.285   3.675 -0.0240 -0.0510 -0.0785
19360SOL    HW158658   7.316   3.227   3.737  1.2549  2.7577  1.8417
19360SOL    HW258659   7.185   3.297   3.710  0.3587  0.7010  0.6536
19361SOL     OW58660   1.990   8.654   8.308  0.8042 -0.2571 -0.3688
19361SOL    HW158661   2.074   8.610   8.298  0.3213 -1.2323 -0.2067
19361SOL    HW258662   2.009   8.746   8.291  1.8497 -0.5080 -0.6049
19362SOL     OW58663   0.782   4.224   4.213  0.2004 -0.4741 -0.1180
19362SOL    HW158664   0.865   4.270   4.225  0.4227 -0.3594 -1.7997
19362SOL    HW258665   0.772   4.217   4.118 -1.9422 -0.0780  0.0156
19363SOL     OW58666   1.884   1.536   7.017 -0.3682 -0.3026 -0.0833
19363SOL    HW158667   1.899   1.518   6.924  0.4867 -0.2392  0.0368
19363SOL    HW258668   1.789   1.531   7.027 -0.3561 -3.2399 -0.3841
19364SOL     OW58669   9.755   1.426   1.910 -0.1500 -0.3264  0.1175
19364SOL    HW158670   9.664   1.405   1.894 -0.4070  1.1637 -0.4692
19364SOL    HW258671   9.781   1.366   1.981 -1.8759 -0.0232  1.0434
19365SOL     OW58672   9.810   0.405   8.950  0.2217  0.7689 -0.1673
19365SOL    HW158673   9.782   0.405   8.859 -0.6761 -1.5679  0.0406
19365SOL    HW258674   9.904   0.425   8.946  0.2419  0.4928 -1.6255
19366SOL     OW58675   4.130   4.994   2.756 -0.8099  0.0307 -0.5682
19366SOL    HW158676   4.130   5.001   2.851 -1.6234  1.2703 -0.6285
19366SOL    HW258677   4.188   5.065   2.727  0.0172 -0.7933 -0.9921
19367SOL     OW58678   0.049   6.947   3.782  0.2058 -0.9280  0.4000
19367SOL    HW158679   0.023   6.880   3.718  4.6004 -0.3385 -2.4397
19367SOL    HW258680   0.026   7.030   3.740  1.9807 -0.5669  0.0661
19368SOL     OW58681   2.020   9.565   9.045  0.0166 -0.2252  0.6397
19368SOL    HW158682   2.037   9.641   9.101 -0.6925 -0.5568  1.3175
19368SOL    HW258683   1.941   9.588   8.996 -0.5189 -0.7398  1.2484
19369SOL     OW58684   2.444   9.262   7.357 -0.0790  0.0858 -0.0131
19369SOL    HW158685   2.477   9.282   7.444 -0.3926  0.7612 -0.0429
19369SOL    HW258686   2.356   9.299   7.356 -0.6237 -1.1697 -0.1337
19370SOL     OW58687   0.911   3.202   6.334  0.0011  0.1919  0.5870
19370SOL    HW158688   0.903   3.116   6.293 -0.3902  0.0279  1.0004
19370SOL    HW258689   0.834   3.210   6.389 -0.1354  0.9488  0.3016
19371SOL     OW58690   5.498   0.710   9.159 -0.2616 -0.5296  0.1976
19371SOL    HW158691   5.522   0.727   9.068 -0.3443 -2.1599 -0.1697
19371SOL    HW258692   5.403   0.716   9.161 -0.1800  1.2850  0.6143
19372SOL     OW58693   5.248   1.404   2.996  0.2070  0.7653  0.0659
19372SOL    HW158694   5.205   1.471   3.048 -2.5852 -0.4442 -0.5366
19372SOL    HW258695   5.186   1.331   2.992  1.9425 -0.7640 -1.6356
19373SOL     OW58696   8.292   7.168   5.943 -0.5706 -0.0726  0.6726
19373SOL    HW158697   8.320   7.151   6.033  2.8579 -1.8477 -0.5293
19373SOL    HW258698   8.217   7.111   5.929 -0.3761 -0.6840  2.0569
19374SOL     OW58699   6.690   9.286   1.352  0.3914  0.3129 -0.7529
19374SOL    HW158700   6.724   9.318   1.436  1.4487  0.4770 -1.2210
19374SOL    HW258701   6.616   9.343   1.332 -0.8108 -0.6354  0.7526
19375SOL     OW58702   7.236   0.714   9.206 -0.4193 -0.2816 -0.1467
19375SOL    HW158703   7.192   0.735   9.288 -1.9112  1.2660 -1.2721
19375SOL    HW258704   7.165   0.704   9.142  0.7262  3.3652 -2.3029
19376SOL     OW58705   4.208   6.512   7.191  0.4835  0.3642  0.2156
19376SOL    HW158706   4.297   6.547   7.184  0.2597  0.9024  0.0187
19376SOL    HW258707   4.199   6.455   7.115  0.8159 -0.0525  0.4844
19377SOL     OW58708   9.966   2.644   2.982 -0.3980 -0.0671  0.1328
19377SOL    HW158709   9.903   2.585   2.942  0.8311 -1.9648  0.8079
19377SOL    HW258710  10.044   2.637   2.926  0.7612 -1.4709  1.7925
19378SOL     OW58711   3.700   4.188   7.200 -0.1703  0.3137  0.0094
19378SOL    HW158712   3.660   4.106   7.229  1.5895 -0.3479  0.6994
19378SOL    HW258713   3.721   4.173   7.107  0.2197 -0.0603  0.1544
19379SOL     OW58714   7.740   4.757   1.404 -0.0447 -0.0801  0.2460
19379SOL    HW158715   7.649   4.726   1.407  0.2850 -1.0338  0.9806
19379SOL    HW258716   7.791   4.678   1.387  0.6676  0.4182  0.0480
19380SOL     OW58717   4.119   7.122   9.280  0.1336  0.6236  0.1544
19380SOL    HW158718   4.053   7.079   9.335 -0.6379 -1.1254 -1.9885
19380SOL    HW258719   4.082   7.121   9.192  1.7786  2.3250 -0.6338
19381SOL     OW58720   2.532   0.541   9.085  0.0852 -0.2347  0.0455
19381SOL    HW158721   2.450   0.549   9.036 -0.4056  0.2609  0.9225
19381SOL    HW258722   2.562   0.631   9.096  1.9835 -0.4946 -2.2535
19382SOL     OW58723   6.315   5.944   5.730  0.0455 -0.4712 -0.4520
19382SOL    HW158724   6.224   5.932   5.757  0.1170 -0.5009 -0.2192
19382SOL    HW258725   6.326   5.886   5.655 -0.5226  0.5841 -1.3787
19383SOL     OW58726   8.991   9.350   0.771 -0.2743  0.7002  0.9888
19383SOL    HW158727   8.976   9.415   0.841  0.6325  0.3483  1.5282
19383SOL    HW258728   9.004   9.268   0.818  1.0002  0.5713  0.4633
19384SOL     OW58729   0.198   1.426   9.125  0.2812  0.4254  0.4289
19384SOL    HW158730   0.105   1.407   9.119 -0.1683  2.3289  0.6949
19384SOL    HW258731   0.231   1.415   9.035  0.3898 -2.7144  0.7597
19385SOL     OW58732   0.554   7.539   1.340 -0.4436  0.2574 -0.0130
19385SOL    HW158733   0.575   7.626   1.306  0.0426  0.1518  0.0016
19385SOL    HW258734   0.621   7.482   1.302 -1.0348 -0.1952 -0.3921
19386SOL     OW58735   9.286   1.367   5.505  0.0876 -0.6525 -0.2180
19386SOL    HW158736   9.300   1.286   5.454  2.9809 -1.6268  1.8489
19386SOL    HW258737   9.324   1.436   5.450  1.0488 -1.3227 -0.4348
19387SOL     OW58738   9.416   4.360   8.142 -0.1568 -0.2040 -0.1378
19387SOL    HW158739   9.416   4.453   8.162 -0.8184 -0.3525  0.5904
19387SOL    HW258740   9.434   4.317   8.225 -0.5235 -0.7459 -0.3344
19388SOL     OW58741   5.464   2.086   9.586 -0.2773  0.0988 -0.0535
19388SOL    HW158742   5.504   2.034   9.656 -1.4125  1.8557  2.0393
19388SOL    HW258743   5.370   2.085   9.607 -0.5504  1.2545 -1.1300
19389SOL     OW58744   8.008   0.972   0.563 -0.1189 -0.1598 -0.3124
19389SOL    HW158745   8.100   0.951   0.581 -0.3760 -0.8464  0.2261
19389SOL    HW258746   7.981   0.908   0.498 -0.3038 -0.1558 -0.2399
19390SOL     OW58747   0.228   4.592   9.978  0.1370  0.0583 -0.1891
19390SOL    HW158748   0.213   4.564   9.888 -0.4778 -1.1817  0.2663
19390SOL    HW258749   0.309   4.643   9.975  0.5123 -0.5733 -1.3287
19391SOL     OW58750   5.840   6.789   4.676  0.0257 -0.3156 -0.4895
19391SOL    HW158751   5.825   6.695   4.666  0.3975 -0.3094 -1.1227
19391SOL    HW258752   5.894   6.813   4.601 -0.6742  0.5537 -0.7306
19392SOL     OW58753   1.943   0.310   5.332  0.5051  0.0132 -0.6744
19392SOL    HW158754   1.890   0.336   5.408  0.1397  0.8064 -1.1822
19392SOL    HW258755   1.893   0.342   5.257  1.4338  0.2863 -1.1923
19393SOL     OW58756   4.270   4.292   1.701  0.0537 -0.2540  0.0719
19393SOL    HW158757   4.201   4.327   1.758 -0.1710  0.6104 -0.7003
19393SOL    HW258758   4.273   4.354   1.627 -1.1131 -2.4264 -1.9480
19394SOL     OW58759   8.755   3.385   8.299  0.5510 -0.0261  0.7716
19394SOL    HW158760   8.682   3.384   8.237  0.6362  0.0532  0.6691
19394SOL    HW258761   8.774   3.477   8.313  2.0403 -0.0224 -0.8856
19395SOL     OW58762   7.269   1.695   7.523  0.0050  0.2887 -0.4983
19395SOL    HW158763   7.292   1.604   7.544  0.3579  0.8377  1.7336
19395SOL    HW258764   7.314   1.712   7.440 -0.6805 -1.7784 -1.3708
19396SOL     OW58765   5.773   5.619   7.068 -0.2874 -0.9919 -0.4198
19396SOL    HW158766   5.787   5.666   6.986 -2.0240  1.7373  0.6853
19396SOL    HW258767   5.857   5.624   7.113 -0.2651  0.6432 -0.5865
19397SOL     OW58768   3.611   6.723   5.914 -0.0387 -0.4534  0.2869
19397SOL    HW158769   3.587   6.815   5.915  0.1392 -0.4058  0.2967
19397SOL    HW258770   3.557   6.684   5.846  1.8179  0.1928 -1.6793
19398SOL     OW58771   7.486   8.958   1.273 -0.1366 -0.2969 -0.1045
19398SOL    HW158772   7.581   8.954   1.287 -0.1542 -1.9620 -0.2007
19398SOL    HW258773   7.470   8.897   1.201 -1.4787 -1.4754  1.1348
19399SOL     OW58774   4.419   0.545   7.253 -0.0104 -0.0999 -0.3535
19399SOL    HW158775   4.427   0.478   7.185  0.3024 -0.7737  0.3260
19399SOL    HW258776   4.378   0.499   7.326  1.4057  0.0788  0.5998
19400SOL     OW58777   5.275   8.694   7.478  0.1615  0.2210 -0.0617
19400SOL    HW158778   5.264   8.602   7.454  0.3510  0.6232 -1.7760
19400SOL    HW258779   5.265   8.694   7.573  0.7438 -1.6593  0.0598
19401SOL     OW58780   2.271   4.354   3.495 -0.0020 -0.3353 -0.1238
19401SOL    HW158781   2.290   4.419   3.563  0.1749 -1.1298  0.6077
19401SOL    HW258782   2.315   4.387   3.417  0.4385  0.2171  0.3509
19402SOL     OW58783   3.663   0.357   1.648  0.1843 -0.0734  0.6733
19402SOL    HW158784   3.721   0.428   1.620 -0.7850 -0.1077 -1.6087
19402SOL    HW258785   3.584   0.368   1.595 -0.9616 -1.4479  1.9963
19403SOL     OW58786   9.703   3.102   6.929 -0.5366  0.1650  0.2800
19403SOL    HW158787   9.792   3.072   6.916 -0.7766 -0.6529  0.5063
19403SOL    HW258788   9.712   3.181   6.983 -0.0200 -0.5801  1.3213
19404SOL     OW58789   9.724   9.606   0.056  0.1907  0.2265 -0.5743
19404SOL    HW158790   9.649   9.666   0.062  0.1625  0.0658  2.3420
19404SOL    HW258791   9.712   9.546   0.129  2.3478 -0.8088 -1.0042
19405SOL     OW58792   0.316   7.947   6.674 -0.2859  0.6194 -0.7335
19405SOL    HW158793   0.360   7.997   6.606  0.5167  0.7478 -0.1331
19405SOL    HW258794   0.328   7.855   6.649  1.8566  0.5620  0.2923
19406SOL     OW58795   3.966   1.531   5.852  0.0347  0.1075 -0.1814
19406SOL    HW158796   3.943   1.478   5.928  0.1832 -0.7838 -0.7407
19406SOL    HW258797   4.056   1.507   5.832 -0.4445 -0.7058 -1.4625
19407SOL     OW58798   9.654   1.620   2.417 -0.0691 -0.1812 -0.4615
19407SOL    HW158799   9.616   1.547   2.368 -0.9721 -1.5835  2.1583
19407SOL    HW258800   9.740   1.589   2.444  0.2543  0.4210 -0.7816
19408SOL     OW58801   3.615   6.437   8.753  0.6239  0.3168 -0.0900
19408SOL    HW158802   3.625   6.362   8.694 -0.0991  1.2229 -1.4250
19408SOL    HW258803   3.550   6.408   8.817 -1.4701  0.5443 -1.9865
19409SOL     OW58804   3.709   4.227   6.295  0.6680 -0.2025 -1.3428
19409SOL    HW158805   3.718   4.306   6.348 -0.6890 -1.4961  0.9963
19409SOL    HW258806   3.793   4.219   6.249  2.2353  0.6555  1.1866
19410SOL     OW58807   4.994   8.042   7.895 -0.3007 -0.0276  0.1379
19410SOL    HW158808   4.906   8.080   7.895 -0.5864 -0.6789  0.1688
19410SOL    HW258809   4.992   7.977   7.825 -0.3230 -1.1243  1.1455
19411SOL     OW58810   3.447   0.510   6.214 -0.0733  0.3848 -0.2304
19411SOL    HW158811   3.496   0.546   6.288 -0.7302  2.5977 -0.7979
19411SOL    HW258812   3.355   0.518   6.240 -0.2744  0.0141 -0.7962
19412SOL     OW58813   1.302   3.385   9.522 -0.1063 -0.2674 -0.6246
19412SOL    HW158814   1.269   3.328   9.591 -1.9750 -1.8595 -2.6827
19412SOL    HW258815   1.348   3.326   9.462  3.3868  1.3613  0.1922
19413SOL     OW58816   6.744   7.342   1.377 -0.5073 -0.1138  0.1762
19413SOL    HW158817   6.791   7.274   1.329 -0.5904  0.6592 -1.0591
19413SOL    HW258818   6.709   7.298   1.454  0.5995 -1.1421  0.1167
19414SOL     OW58819   7.332   1.167   0.916  0.3085  0.3666  0.4955
19414SOL    HW158820   7.259   1.157   0.978  1.1583 -0.7143  1.3569
19414SOL    HW258821   7.339   1.262   0.903  0.4055  0.6633  2.4491
19415SOL     OW58822   7.036   2.276   8.232 -0.3304  0.1141  0.0497
19415SOL    HW158823   7.056   2.292   8.140  0.5099  0.6172  0.3135
19415SOL    HW258824   6.975   2.347   8.256  0.6082  0.8656  0.2660
19416SOL     OW58825   8.482   1.234   1.788 -0.0294  0.1742 -0.0129
19416SOL    HW158826   8.484   1.264   1.879 -0.3118  0.1323  0.0093
19416SOL    HW258827   8.508   1.311   1.737  2.6245 -0.4754  0.2470
19417SOL     OW58828   6.822   6.591   5.241  0.0863  0.0396 -0.0788
19417SOL    HW158829   6.900   6.610   5.292 -0.5267  1.1694  0.4927
19417SOL    HW258830   6.826   6.497   5.224  0.1032 -0.4772  2.4112
19418SOL     OW58831   4.474   8.944   3.624 -0.5489 -0.5154 -0.0236
19418SOL    HW158832   4.414   8.892   3.570  0.8929 -0.8079 -1.4392
19418SOL    HW258833   4.417   8.989   3.687 -2.4095  0.2757 -2.1266
19419SOL     OW58834   7.827   7.164   5.676  0.4157 -0.3686 -0.0410
19419SOL    HW158835   7.825   7.161   5.581  1.7784 -0.4217 -0.0861
19419SOL    HW258836   7.906   7.214   5.697 -0.8069  1.2018  1.0671
19420SOL     OW58837   0.539   7.421   5.176  0.2785 -0.0433  0.2704
19420SOL    HW158838   0.585   7.455   5.253  0.1263 -0.2022  0.4361
19420SOL    HW258839   0.490   7.497   5.142 -1.5414 -0.4813  1.7313
19421SOL     OW58840   7.796   4.243   2.464 -0.2722 -0.3416  0.5025
19421SOL    HW158841   7.737   4.316   2.446  1.0677  0.6721  0.1083
19421SOL    HW258842   7.863   4.248   2.396 -0.3978 -2.2427  0.1629
19422SOL     OW58843   5.541   4.043   1.217 -0.0173 -0.1146  0.3752
19422SOL    HW158844   5.542   4.037   1.313  2.5958 -0.1294  0.3942
19422SOL    HW258845   5.616   4.097   1.195 -0.1762 -0.6617 -1.7166
19423SOL     OW58846   4.356   1.409   1.351  0.6181  0.0157  0.3647
19423SOL    HW158847   4.396   1.329   1.316  0.9934  0.7644 -0.9700
19423SOL    HW258848   4.370   1.404   1.446 -1.7148 -2.8039  0.7138
19424SOL     OW58849   0.289   0.869   9.068  0.3499  0.2268 -0.6524
19424SOL    HW158850   0.248   0.792   9.107  0.8178 -0.0350 -0.6701
19424SOL    HW258851   0.359   0.834   9.012  0.9992  0.6822 -0.1494
19425SOL     OW58852   1.933   8.817   6.433 -0.0806 -0.2147  0.5604
19425SOL    HW158853   1.858   8.867   6.462 -0.4087 -0.3817  0.0223
19425SOL    HW258854   1.951   8.756   6.504  0.2438  0.5771  1.1646
19426SOL     OW58855   9.195   4.669   4.231 -0.7156 -0.5582  0.4226
19426SOL    HW158856   9.172   4.762   4.227 -0.5965 -0.5337  0.2408
19426SOL    HW258857   9.164   4.633   4.147  0.1928 -0.4519  0.0271
19427SOL     OW58858   2.862   4.908   4.923  0.3352 -0.3291  0.4127
19427SOL    HW158859   2.834   4.976   4.862 -0.1825  0.1585  1.1695
19427SOL    HW258860   2.956   4.920   4.931  0.7392 -1.5659 -1.6557
19428SOL     OW58861   4.760   1.315   7.358  0.3547  0.1117  0.5826
19428SOL    HW158862   4.760   1.268   7.275 -0.5927  0.2167  0.5127
19428SOL    HW258863   4.677   1.290   7.399  0.4445  0.7024  1.1275
19429SOL     OW58864   5.789   3.471   5.187  0.0773 -0.1099 -0.0912
19429SOL    HW158865   5.781   3.564   5.207 -1.6552 -0.2272 -0.1104
19429SOL    HW258866   5.854   3.438   5.249  0.6377  1.0794 -0.0255
19430SOL     OW58867   8.721   9.076   1.768 -0.1752 -0.0000  0.1132
19430SOL    HW158868   8.643   9.074   1.824 -0.0691 -0.3909  0.2493
19430SOL    HW258869   8.706   9.151   1.710  0.6257  1.6591  1.9418
19431SOL     OW58870   1.975   6.806   2.601 -0.0747 -0.3356  0.1165
19431SOL    HW158871   1.978   6.899   2.578  0.9424 -0.8392 -2.0857
19431SOL    HW258872   1.882   6.789   2.618 -0.6245  0.6707 -1.5644
19432SOL     OW58873   7.809   2.522   9.928  0.1074  0.2502 -0.3582
19432SOL    HW158874   7.897   2.507   9.964 -0.7451 -0.9704  1.3304
19432SOL    HW258875   7.808   2.616   9.907  1.4081  0.5555  0.7829
19433SOL     OW58876   4.483   3.855   5.488  0.0695 -0.0769  0.4508
19433SOL    HW158877   4.445   3.938   5.460 -2.0695 -0.3253  2.3345
19433SOL    HW258878   4.437   3.789   5.437  1.8068 -0.1878 -1.0839
19434SOL     OW58879   2.781   2.013   2.966 -0.2745 -0.4206  0.4304
19434SOL    HW158880   2.808   2.083   2.907  0.0102 -0.8361  0.0621
19434SOL    HW258881   2.732   2.058   3.036 -1.4311 -0.0227 -0.5944
19435SOL     OW58882   0.908   0.051   3.384  0.1396  0.5521 -0.2518
19435SOL    HW158883   0.853   0.120   3.419 -0.3387  0.5781 -1.0342
19435SOL    HW258884   0.983   0.048   3.444  0.0951  1.6358 -0.1104
19436SOL     OW58885   1.939   8.546   0.035 -0.3415  0.4309 -0.2762
19436SOL    HW158886   2.007   8.482   0.012 -1.8415 -1.2276 -0.3112
19436SOL    HW258887   1.926   8.596  -0.046  0.1343  0.0878 -0.5746
19437SOL     OW58888   7.301   4.025   1.569 -0.5542  0.0304  0.6769
19437SOL    HW158889   7.231   3.971   1.606 -0.9833  0.6313  0.7430
19437SOL    HW258890   7.267   4.053   1.484 -0.2548  0.0563  0.5632
19438SOL     OW58891   6.829   6.549   8.724  0.0136 -0.0598  0.1387
19438SOL    HW158892   6.859   6.639   8.713  0.2995 -0.2976 -1.2351
19438SOL    HW258893   6.896   6.508   8.778  1.2517 -0.0797 -1.3205
19439SOL     OW58894   2.574   7.253   5.084  0.0927  0.4356  0.2779
19439SOL    HW158895   2.576   7.162   5.054 -1.0808  0.3374  0.4230
19439SOL    HW258896   2.565   7.305   5.004  1.0113  0.4423  0.1779
19440SOL     OW58897   4.974   9.186   2.142  0.2090 -0.3628  0.2001
19440SOL    HW158898   5.047   9.247   2.134  0.2937 -0.4745  0.1108
19440SOL    HW258899   4.976   9.136   2.060  0.4445 -0.8223  0.4866
19441SOL     OW58900   0.598   2.998   4.461  0.8087 -0.1706  0.0928
19441SOL    HW158901   0.623   3.044   4.540  0.6537  0.1878 -0.0619
19441SOL    HW258902   0.679   2.962   4.426  0.9751  0.2359  0.0601
19442SOL     OW58903   2.122   8.939   7.543 -0.4807 -0.2706  0.8294
19442SOL    HW158904   2.190   8.994   7.580 -0.0077 -2.6983  3.9860
19442SOL    HW258905   2.046   8.997   7.533  1.6432  2.3589 -2.2482
19443SOL     OW58906   1.912   8.610   0.291 -0.2968 -0.3173 -0.3841
19443SOL    HW158907   1.907   8.563   0.208 -2.3626  1.3513 -1.2782
19443SOL    HW258908   2.005   8.631   0.300  0.3590 -2.5926 -0.9962
19444SOL     OW58909   6.991   2.285   2.816 -0.1826  0.3484  0.2782
19444SOL    HW158910   7.069   2.308   2.766  1.3091 -2.2431  1.2718
19444SOL    HW258911   6.957   2.207   2.773 -2.6127  1.6862 -0.4278
19445SOL     OW58912   8.277   0.776   4.834 -0.5630  0.5803  0.1917
19445SOL    HW158913   8.248   0.697   4.789 -0.8627  1.2780 -0.8929
19445SOL    HW258914   8.220   0.782   4.911 -2.5718  1.2639 -1.2454
19446SOL     OW58915   7.975   9.081   1.045  0.5915  0.0753  0.3438
19446SOL    HW158916   8.009   9.055   0.959  0.9913 -1.1560  0.8562
19446SOL    HW258917   8.046   9.064   1.106 -0.0877 -0.1696  1.0894
19447SOL     OW58918   4.627   3.901   4.505 -0.6488  0.6593  0.3015
19447SOL    HW158919   4.721   3.919   4.503 -0.7034  1.7206 -4.8452
19447SOL    HW258920   4.591   3.969   4.561  1.4106  1.8142  0.3251
19448SOL     OW58921   2.300   7.926   9.471 -0.0147 -0.2089 -0.4953
19448SOL    HW158922   2.276   8.002   9.418 -0.9118 -0.7574 -0.9053
19448SOL    HW258923   2.218   7.877   9.480  0.2923 -0.5210  0.7609
19449SOL     OW58924   3.288   1.035   3.789  0.7237  0.8389 -0.0344
19449SOL    HW158925   3.252   0.980   3.858  1.0483 -1.5128 -1.6292
19449SOL    HW258926   3.212   1.074   3.746  0.2758 -0.6882 -0.6801
19450SOL     OW58927   8.607   0.744   9.035  0.3450  0.7343  0.2139
19450SOL    HW158928   8.683   0.772   9.086  0.9716 -0.8522  0.1924
19450SOL    HW258929   8.618   0.650   9.024 -0.9929  0.6662 -0.8545
19451SOL     OW58930   9.633   8.298   0.766  0.5154  0.8371 -0.0846
19451SOL    HW158931   9.614   8.247   0.687  1.1950  1.6202 -0.7670
19451SOL    HW258932   9.550   8.342   0.786 -0.4808 -1.4768  1.2732
19452SOL     OW58933   9.525   0.227   2.736  0.6355  0.1386  0.4253
19452SOL    HW158934   9.547   0.316   2.763 -1.3895  1.0271 -0.6209
19452SOL    HW258935   9.438   0.212   2.773  1.6517 -2.1406  2.0905
19453SOL     OW58936   1.299   6.209   7.711 -0.7436 -0.1638  0.1317
19453SOL    HW158937   1.362   6.185   7.779 -0.9446  1.4266  0.9194
19453SOL    HW258938   1.322   6.299   7.686 -0.5710 -0.7397 -2.0475
19454SOL     OW58939   9.507   6.818   9.719  0.3628  0.0009 -0.0209
19454SOL    HW158940   9.486   6.802   9.627  0.0312 -1.5636  0.2918
19454SOL    HW258941   9.600   6.798   9.726  0.4004  0.1718 -0.0233
19455SOL     OW58942   3.099   0.980   7.899  0.3639  0.2012  0.1614
19455SOL    HW158943   3.169   1.031   7.940  0.5629  0.2179 -0.1878
19455SOL    HW258944   3.141   0.898   7.874 -0.4487 -1.0486  2.6273
19456SOL     OW58945   1.584   7.493   2.116 -0.1982 -0.0387  0.1952
19456SOL    HW158946   1.643   7.422   2.144  0.7924  0.8324  0.3879
19456SOL    HW258947   1.510   7.488   2.176 -0.2747 -1.0767  0.0398
19457SOL     OW58948   7.369   9.870   1.801  0.5927 -0.0375  0.1818
19457SOL    HW158949   7.289   9.835   1.762  0.0686  1.0372  0.2610
19457SOL    HW258950   7.373   9.830   1.888 -0.3075  0.5405  0.4959
19458SOL     OW58951   8.303   9.409   5.776  0.0777 -0.0948 -0.3634
19458SOL    HW158952   8.319   9.491   5.728 -0.4492 -0.2829 -0.8696
19458SOL    HW258953   8.259   9.437   5.857 -0.4613  0.0916 -0.7177
19459SOL     OW58954   1.957   0.765   3.148 -0.0458  0.5482 -0.5912
19459SOL    HW158955   1.986   0.856   3.159 -1.0143  0.8893 -0.8028
19459SOL    HW258956   1.975   0.724   3.232  1.3694  0.6427 -0.8127
19460SOL     OW58957   9.263   6.244   9.046 -0.3320  0.0760 -0.6537
19460SOL    HW158958   9.259   6.332   9.009  0.4143 -0.8914 -3.2504
19460SOL    HW258959   9.173   6.212   9.044 -0.5644  0.6448  0.0711
19461SOL     OW58960   3.339   8.019   9.468  0.2842  0.0140  0.1314
19461SOL    HW158961   3.265   7.973   9.507  0.2496 -1.8446 -1.9337
19461SOL    HW258962   3.415   7.964   9.488  0.2037 -1.2402 -2.6121
19462SOL     OW58963   3.110   3.113   9.111  0.2194 -0.1202 -0.0217
19462SOL    HW158964   3.104   3.190   9.168 -0.2869  0.2269 -0.5455
19462SOL    HW258965   3.110   3.039   9.172 -1.0031  0.2168  0.4115
19463SOL     OW58966   2.442   0.401   4.204 -0.2710 -0.3990 -0.8842
19463SOL    HW158967   2.397   0.476   4.166  0.0044  0.0783 -0.2824
19463SOL    HW258968   2.397   0.385   4.286  1.5317  1.0378  0.4793
19464SOL     OW58969   3.909   6.420   6.312  0.3101 -0.1899  0.4607
19464SOL    HW158970   3.896   6.505   6.269  0.9602  0.3919  1.3685
19464SOL    HW258971   3.997   6.393   6.285  0.3631 -0.2575  0.7006
19465SOL     OW58972   4.966   8.836   1.488 -0.4765  0.8661 -0.3014
19465SOL    HW158973   5.046   8.872   1.528 -0.4365  0.2853  0.1534
19465SOL    HW258974   4.995   8.755   1.447 -1.0583 -0.0371  0.9828
19466SOL     OW58975   9.812   1.811   2.067 -0.2173 -0.0733 -1.4223
19466SOL    HW158976   9.787   1.900   2.090 -2.2692 -0.9091 -0.0683
19466SOL    HW258977   9.899   1.799   2.104 -1.2276  0.3871  1.3634
19467SOL     OW58978   2.761   6.297   8.308 -0.3543 -0.3944  0.1210
19467SOL    HW158979   2.805   6.233   8.251  0.5091 -0.6025  0.9882
19467SOL    HW258980   2.832   6.351   8.342 -1.0102  0.6210 -0.0769
19468SOL     OW58981   1.258   0.391   6.528 -0.0443  0.1046 -0.4622
19468SOL    HW158982   1.259   0.420   6.619  1.3040 -2.4617  0.4458
19468SOL    HW258983   1.168   0.362   6.514  0.1671 -1.2569  0.7343
19469SOL     OW58984   4.460   0.545   1.983 -0.4254  0.5111  0.1026
19469SOL    HW158985   4.457   0.527   2.077 -2.2963  1.6464  0.3186
19469SOL    HW258986   4.411   0.473   1.943 -0.6995  0.6815  0.1289
19470SOL     OW58987   2.164   0.870   6.501 -0.4920 -0.1773  0.3504
19470SOL    HW158988   2.244   0.893   6.550 -1.0341 -0.0956  1.2102
19470SOL    HW258989   2.103   0.841   6.568 -0.3011 -2.9060 -0.5574
19471SOL     OW58990   8.222   8.886   8.535  0.0641  0.1846 -0.7409
19471SOL    HW158991   8.225   8.897   8.630  1.7406 -1.3763 -0.5536
19471SOL    HW258992   8.304   8.924   8.503  0.7500 -1.6076 -1.2309
19472SOL     OW58993   4.734   8.859   2.912  0.1757 -0.2235 -0.0103
19472SOL    HW158994   4.641   8.847   2.932  0.1683  0.3603  0.3429
19472SOL    HW258995   4.737   8.874   2.818  0.0547 -1.5799 -0.2437
19473SOL     OW58996   8.369   9.121   9.622  0.1862  0.2166 -0.1650
19473SOL    HW158997   8.348   9.093   9.533 -0.2705  3.0809 -1.0742
19473SOL    HW258998   8.286   9.114   9.669  0.1668 -0.2343 -0.2611
19474SOL     OW58999   7.014   8.919   8.172  0.1705  0.2791  0.4529
19474SOL    HW159000   7.000   8.920   8.078  0.0405  1.3450  0.4651
19474SOL    HW259001   7.039   9.009   8.194  1.0030 -0.1452  1.3219
19475SOL     OW59002   9.170   1.213   3.949  0.1439 -0.2250 -0.3324
19475SOL    HW159003   9.094   1.202   4.006  0.3422  0.7627  0.1543
19475SOL    HW259004   9.152   1.156   3.874 -1.1963  0.1554 -0.3346
19476SOL     OW59005   7.029   2.689   3.786  0.1971  0.1059 -0.0128
19476SOL    HW159006   7.031   2.624   3.856 -0.2673 -0.9847 -0.9826
19476SOL    HW259007   7.092   2.657   3.721 -0.2153  0.4942 -0.6195
19477SOL     OW59008   7.708   0.664   3.240 -0.3472  0.6188  0.0695
19477SOL    HW159009   7.643   0.598   3.265 -0.6413  1.3615  1.3462
19477SOL    HW259010   7.792   0.625   3.264 -0.4519  0.3688  0.0390
19478SOL     OW59011   7.845   5.174   4.722 -0.1404  0.1353  0.3165
19478SOL    HW159012   7.873   5.202   4.635  0.2500 -0.2722  0.3071
19478SOL    HW259013   7.880   5.240   4.781 -0.1230  0.2359  0.1946
19479SOL     OW59014   2.273   1.044   3.909 -0.2267 -0.0528 -0.1469
19479SOL    HW159015   2.290   1.070   3.999  0.8512 -0.6796 -0.1542
19479SOL    HW259016   2.193   1.090   3.885 -1.1631 -0.7366  1.5075
19480SOL     OW59017   1.033   7.572   1.337  0.2334  0.0906 -0.4162
19480SOL    HW159018   0.991   7.658   1.342 -1.8105 -0.6737 -2.4631
19480SOL    HW259019   0.980   7.516   1.393 -0.5849 -0.5477 -1.7871
19481SOL     OW59020   7.208   8.473   5.573  0.6682  0.0183  0.1218
19481SOL    HW159021   7.117   8.446   5.560  0.4140  0.9277 -0.0692
19481SOL    HW259022   7.214   8.495   5.666  0.8466 -0.5999  0.2549
19482SOL     OW59023   3.223   6.717   0.984  0.5894 -0.2875  0.1347
19482SOL    HW159024   3.243   6.726   1.077 -1.5634 -0.9882  0.7312
19482SOL    HW259025   3.264   6.634   0.958 -0.3166 -0.9997  0.9372
19483SOL     OW59026   7.025   7.031   8.814  0.1059 -0.2494 -0.9365
19483SOL    HW159027   7.107   6.995   8.780  1.2366  2.0512 -0.8367
19483SOL    HW259028   7.050   7.076   8.895 -1.7801 -1.8191  0.6380
19484SOL     OW59029   8.561   1.302   8.621  0.0947 -0.0192 -0.7549
19484SOL    HW159030   8.645   1.298   8.667  0.6151 -1.8099 -1.7616
19484SOL    HW259031   8.573   1.371   8.555  1.1103 -0.8720 -1.4848
19485SOL     OW59032   0.512   6.101   8.875  0.1065  0.0924  0.5211
19485SOL    HW159033   0.531   6.188   8.839 -0.5360  0.2701  0.6152
19485SOL    HW259034   0.596   6.072   8.912 -0.2907  1.8688  3.0775
19486SOL     OW59035   3.417   5.774   0.325  0.1909  0.4659  0.1910
19486SOL    HW159036   3.373   5.710   0.269 -0.4409  0.9537  0.1291
19486SOL    HW259037   3.443   5.845   0.266  1.7451 -0.1445  0.0840
19487SOL     OW59038   6.012   3.383   2.467 -0.1040 -0.2217 -0.3110
19487SOL    HW159039   5.996   3.381   2.561 -1.6461  1.7679 -0.4611
19487SOL    HW259040   5.953   3.317   2.431 -0.9996  0.4039 -0.0286
19488SOL     OW59041   5.711   4.054   2.635 -0.1514  0.5103 -0.8630
19488SOL    HW159042   5.649   4.048   2.707  2.7120 -2.4379  1.7024
19488SOL    HW259043   5.663   4.019   2.559 -1.7822 -1.3416  0.9017
19489SOL     OW59044   0.707   7.481   3.781  0.2802 -0.2107 -0.2810
19489SOL    HW159045   0.641   7.476   3.851  0.6591 -1.3307  0.0220
19489SOL    HW259046   0.786   7.444   3.820  1.2767  1.6300 -0.4618
19490SOL     OW59047   3.779   5.095   4.944  0.4296  0.2272 -0.0112
19490SOL    HW159048   3.848   5.161   4.948 -1.7969  2.9637 -2.6071
19490SOL    HW259049   3.811   5.032   4.880  2.0716 -0.7405  1.6454
19491SOL     OW59050   9.947   9.730   5.652 -0.3872  0.1865 -0.3781
19491SOL    HW159051   9.947   9.809   5.597 -2.1626  1.0126  0.7238
19491SOL    HW259052   9.905   9.663   5.599  2.1262 -0.4306 -1.7564
19492SOL     OW59053   9.544   5.872   5.801  0.3504 -0.2991  0.6147
19492SOL    HW159054   9.613   5.849   5.864 -0.6508 -0.0387  1.8481
19492SOL    HW259055   9.500   5.789   5.783 -0.9484 -0.0356  2.2556
19493SOL     OW59056   0.461   4.571   6.660  0.1280 -0.2915 -0.0281
19493SOL    HW159057   0.418   4.650   6.693  0.9135  0.2464 -0.2564
19493SOL    HW259058   0.394   4.503   6.668 -0.9820  0.6409 -0.9610
19494SOL     OW59059   3.576   3.604   4.756  0.6105  0.0758 -0.2602
19494SOL    HW159060   3.664   3.624   4.725 -0.3235  2.4579 -1.5684
19494SOL    HW259061   3.539   3.545   4.690 -0.0575  2.1514 -1.8329
19495SOL     OW59062   8.634   1.313   9.175 -0.3554  0.4047 -0.1454
19495SOL    HW159063   8.561   1.254   9.156 -0.4437  0.0371  1.2431
19495SOL    HW259064   8.618   1.390   9.120 -1.9927  0.4931  0.4116
19496SOL     OW59065   2.772   7.712   2.030 -0.3500 -0.3363 -0.3865
19496SOL    HW159066   2.772   7.728   1.936  1.6569 -1.4875 -0.6500
19496SOL    HW259067   2.775   7.616   2.037 -1.2815 -0.3020  0.8902
19497SOL     OW59068   1.813   3.160   0.088  0.3047 -0.3462  0.1003
19497SOL    HW159069   1.839   3.079   0.132  0.9788 -0.4216 -0.4213
19497SOL    HW259070   1.722   3.146   0.063  0.0624 -0.5001  1.0038
19498SOL     OW59071   5.730   4.337   2.690  0.1935  0.3517 -0.0179
19498SOL    HW159072   5.722   4.244   2.668 -3.0626  0.7659 -1.1621
19498SOL    HW259073   5.822   4.357   2.676  1.3339 -2.9750  1.6666
19499SOL     OW59074   6.516   2.202   9.041 -0.3956 -0.5352  0.4562
19499SOL    HW159075   6.553   2.184   9.127 -0.5949 -3.0311  0.0814
19499SOL    HW259076   6.561   2.281   9.012  0.2549 -0.0858  2.4790
19500SOL     OW59077   5.716   4.811   9.397  0.1623  0.6537  0.2909
19500SOL    HW159078   5.684   4.891   9.354  0.1799  1.8379  2.3315
19500SOL    HW259079   5.811   4.821   9.397  0.3288 -0.4908 -1.3976
19501SOL     OW59080   0.407   9.314   0.760 -0.3713 -0.3414 -0.1107
19501SOL    HW159081   0.420   9.355   0.675  0.7899  0.8138  0.5860
19501SOL    HW259082   0.491   9.275   0.782 -0.8393 -1.1791  0.2321
19502SOL     OW59083   3.882   1.223   2.104 -0.3374 -0.4029 -0.0759
19502SOL    HW159084   3.853   1.164   2.173 -1.6469 -0.9253 -1.0321
19502SOL    HW259085   3.971   1.194   2.083 -0.7882 -1.7421 -0.2058
19503SOL     OW59086   9.118   9.814   0.315  0.2259 -0.1948 -0.2064
19503SOL    HW159087   9.178   9.881   0.348 -0.9273  1.2805 -0.9554
19503SOL    HW259088   9.077   9.777   0.394 -1.8776  2.6824  0.2117
19504SOL     OW59089   3.454   8.295   0.674 -0.6106 -0.4047 -0.3863
19504SOL    HW159090   3.460   8.201   0.658 -0.1810 -0.2404 -1.2528
19504SOL    HW259091   3.382   8.324   0.618 -0.4748 -0.1599 -0.4368
19505SOL     OW59092   0.524   1.231   9.716  0.4226 -0.0292  0.2293
19505SOL    HW159093   0.483   1.208   9.633 -1.4884 -0.1718  1.1517
19505SOL    HW259094   0.564   1.317   9.700  1.0859 -0.5665 -1.1367
19506SOL     OW59095   7.072   1.628   7.286  0.1096 -0.4547 -0.1193
19506SOL    HW159096   7.124   1.547   7.287  2.0561  0.7221  2.0316
19506SOL    HW259097   7.093   1.667   7.201 -1.2275 -2.3443 -1.4109
19507SOL     OW59098   9.250   2.123   4.722  0.4998  0.2203 -0.2814
19507SOL    HW159099   9.289   2.038   4.739 -0.4908 -0.8861 -3.0835
19507SOL    HW259100   9.287   2.151   4.638 -1.0050  1.4106 -0.6071
19508SOL     OW59101   4.743   0.477   0.225 -0.1165  0.0125  0.3370
19508SOL    HW159102   4.687   0.538   0.176 -2.2771 -2.2794 -0.2777
19508SOL    HW259103   4.780   0.420   0.158 -0.3845 -1.0538  1.0746
19509SOL     OW59104   4.353   4.277   2.646  0.2195  0.2652  0.4171
19509SOL    HW159105   4.281   4.339   2.657  1.5924  1.7388  1.6624
19509SOL    HW259106   4.383   4.290   2.556 -1.6446 -1.0967 -0.4621
19510SOL     OW59107   4.909   9.071   4.221 -1.0262  0.5419 -0.2555
19510SOL    HW159108   4.933   8.997   4.165 -1.9131 -0.1749  0.2805
19510SOL    HW259109   4.855   9.032   4.290 -0.1530  1.4432  0.9782
19511SOL     OW59110   1.921   9.928   6.847  0.1869  0.3374  0.8466
19511SOL    HW159111   1.826   9.927   6.833  0.3756 -1.4684 -0.6585
19511SOL    HW259112   1.948  10.015   6.817 -0.6356 -0.2613 -1.9373
19512SOL     OW59113   3.664   3.035   7.976 -0.0841 -0.4765 -0.0139
19512SOL    HW159114   3.598   2.992   8.030  1.2647  0.3767  2.4787
19512SOL    HW259115   3.673   3.122   8.014  2.8978 -0.7774  0.2034
19513SOL     OW59116   6.512   8.610   2.618 -0.1168  0.4371 -0.3588
19513SOL    HW159117   6.463   8.687   2.646 -0.2848 -0.0981  0.8766
19513SOL    HW259118   6.558   8.581   2.697 -2.4265 -2.4999  0.0772
19514SOL     OW59119   4.404   8.747   8.385  0.1545  0.1848  0.4497
19514SOL    HW159120   4.464   8.807   8.341 -0.4028  0.2608 -0.2221
19514SOL    HW259121   4.322   8.796   8.393  0.3488  0.3251  1.9577
19515SOL     OW59122   1.130   0.818   8.612 -0.3166 -0.1218 -0.5187
19515SOL    HW159123   1.074   0.747   8.644  0.8271 -1.8705 -2.1429
19515SOL    HW259124   1.089   0.844   8.529  0.0270  0.1323 -0.6100
19516SOL     OW59125   9.604   1.462   6.347 -0.0047 -0.3591 -0.1797
19516SOL    HW159126   9.694   1.469   6.314  0.3286  1.1043  0.9334
19516SOL    HW259127   9.566   1.548   6.330 -0.9221 -0.6983  0.1275
19517SOL     OW59128   8.337   1.877   2.429  0.2693  0.1355  0.0656
19517SOL    HW159129   8.274   1.811   2.400 -2.3594  1.9838  1.1381
19517SOL    HW259130   8.341   1.941   2.358  0.1856  0.4917  0.3735
19518SOL     OW59131   4.531   0.473   3.769  0.2798  0.3099  0.0855
19518SOL    HW159132   4.537   0.425   3.686  4.0127 -1.6204  1.2111
19518SOL    HW259133   4.527   0.404   3.836  3.3787  1.4302  1.6667
19519SOL     OW59134   4.589   5.870   4.119 -0.5178 -0.2073 -0.7488
19519SOL    HW159135   4.525   5.817   4.168 -0.5741 -0.9570 -1.5995
19519SOL    HW259136   4.604   5.820   4.039  0.8887  0.1296 -0.7125
19520SOL     OW59137   7.317   7.401   9.129  0.6792 -0.0860  0.0442
19520SOL    HW159138   7.307   7.495   9.143 -0.1402 -0.4544  2.5263
19520SOL    HW259139   7.267   7.382   9.050  2.2184  1.7516 -1.4730
19521SOL     OW59140   2.056   8.511   9.335 -0.2319  0.3093  0.2981
19521SOL    HW159141   2.045   8.417   9.349  1.7746  0.3456  2.8341
19521SOL    HW259142   1.988   8.552   9.389  1.4554  0.2772  2.6105
19522SOL     OW59143   2.518   1.904   7.220  0.3259 -0.1353 -0.2518
19522SOL    HW159144   2.595   1.847   7.226  0.0687 -0.6322 -1.3521
19522SOL    HW259145   2.446   1.844   7.200 -0.0665  0.5028 -0.7875
19523SOL     OW59146   0.264   2.912   7.093  0.1654 -0.4019  0.2466
19523SOL    HW159147   0.263   2.952   7.006  1.6951 -0.3877  0.2094
19523SOL    HW259148   0.249   2.984   7.153  0.3599 -0.2045  0.0572
19524SOL     OW59149   6.175   4.475   8.796 -0.0361 -0.5428 -0.7188
19524SOL    HW159150   6.241   4.502   8.859  0.6360 -3.1863 -0.1929
19524SOL    HW259151   6.218   4.408   8.743 -1.2015  0.2356 -2.7753
19525SOL     OW59152   8.419   7.629   7.181 -0.0545  0.1774 -0.3789
19525SOL    HW159153   8.354   7.631   7.111  0.7899 -0.2999 -1.1898
19525SOL    HW259154   8.392   7.699   7.240 -1.7514 -0.5146 -0.2780
19526SOL     OW59155   9.280   8.122   2.631 -0.4297 -0.1908  0.1195
19526SOL    HW159156   9.327   8.168   2.561  1.5528 -0.9939  0.8262
19526SOL    HW259157   9.302   8.171   2.711  0.7517 -1.6108  0.7157
19527SOL     OW59158   4.227   4.790   8.022  0.5888  0.4514 -0.4939
19527SOL    HW159159   4.206   4.824   7.935  0.8291  1.6571 -0.0949
19527SOL    HW259160   4.215   4.695   8.014 -2.5782  0.7825 -0.9896
19528SOL     OW59161   7.145   0.636   7.036  0.2030  0.5018  0.2665
19528SOL    HW159162   7.206   0.621   6.963  0.7252  1.5369  0.4602
19528SOL    HW259163   7.196   0.615   7.114  0.6487  2.2065  0.4830
19529SOL     OW59164   2.363   2.983   1.146  0.2778  0.2077 -0.0280
19529SOL    HW159165   2.442   2.984   1.200 -0.6148  1.7678  1.3426
19529SOL    HW259166   2.388   3.029   1.066  1.3682 -1.3529 -0.6353
19530SOL     OW59167   6.479   5.654   7.658  0.2508  0.3392  0.6698
19530SOL    HW159168   6.443   5.740   7.635 -1.2538 -0.7588 -1.4165
19530SOL    HW259169   6.403   5.603   7.685  0.4288 -1.4096 -1.7843
19531SOL     OW59170   0.250   4.085   4.469  0.6395 -0.1723 -0.0780
19531SOL    HW159171   0.309   4.038   4.527 -0.2164 -1.4118 -0.1565
19531SOL    HW259172   0.245   4.031   4.391 -1.0276 -0.4387  0.1577
19532SOL     OW59173   7.003   1.949   7.045  0.1981 -0.3170  0.3048
19532SOL    HW159174   7.061   1.874   7.030  0.8941  0.1475  0.6323
19532SOL    HW259175   6.981   1.944   7.139 -1.9608 -1.6577 -0.1870
19533SOL     OW59176   4.054   4.818   8.883  0.0845 -0.1766 -0.2224
19533SOL    HW159177   4.021   4.810   8.793  0.2685 -1.6585 -0.1685
19533SOL    HW259178   3.982   4.788   8.938 -0.2159  1.1966  0.1913
19534SOL     OW59179   3.205   8.501   6.110  0.5884 -0.2495  0.1426
19534SOL    HW159180   3.113   8.496   6.136  0.3094 -0.3571 -0.8381
19534SOL    HW259181   3.253   8.460   6.182 -0.1925 -0.8974  0.3044
19535SOL     OW59182   8.738   4.400   0.676 -0.0485  0.6099 -0.3953
19535SOL    HW159183   8.796   4.464   0.635  2.2427 -1.0892  0.0289
19535SOL    HW259184   8.709   4.442   0.757  1.3547  1.1501 -0.1514
19536SOL     OW59185   4.281   3.313   9.058  0.2689 -0.4190 -0.1883
19536SOL    HW159186   4.239   3.395   9.034  1.3180 -0.3447 -2.0049
19536SOL    HW259187   4.372   3.336   9.077  0.2196 -0.9669  0.8197
19537SOL     OW59188   1.118   8.515   8.723  0.3170 -0.2331 -0.6699
19537SOL    HW159189   1.135   8.435   8.672 -0.7243 -0.7557 -0.2375
19537SOL    HW259190   1.087   8.578   8.658  0.9235 -0.2376 -0.9805
19538SOL     OW59191   2.918   5.246   6.808  0.1614 -0.0848  0.0973
19538SOL    HW159192   3.004   5.205   6.817  0.0586 -0.3504 -0.1290
19538SOL    HW259193   2.932   5.337   6.835  0.4776 -0.1673  0.2135
19539SOL     OW59194   6.743   2.639   0.733 -0.5427  0.1508 -0.4150
19539SOL    HW159195   6.702   2.579   0.671  1.9007 -0.7887 -1.2440
19539SOL    HW259196   6.796   2.583   0.790  0.6698  1.3789 -0.2831
19540SOL     OW59197   7.509   3.625   7.678 -0.1607  0.4635 -0.7285
19540SOL    HW159198   7.440   3.679   7.717  0.3455  1.1328 -0.7424
19540SOL    HW259199   7.493   3.630   7.584  0.0186  0.7679 -0.7421
19541SOL     OW59200   6.997   1.171   0.600  0.4589 -0.3860 -0.3864
19541SOL    HW159201   6.911   1.191   0.564  0.7664  3.1081  0.5032
19541SOL    HW259202   6.979   1.106   0.668 -1.7808  1.3486  0.8185
19542SOL     OW59203   0.078   5.642   1.498 -0.0350  0.5677  0.3716
19542SOL    HW159204   0.004   5.590   1.467  0.9128 -0.6004 -0.0044
19542SOL    HW259205   0.041   5.729   1.516 -1.7179 -0.2993  1.3187
19543SOL     OW59206   6.828   0.422   3.256  0.1742 -0.0737 -0.1620
19543SOL    HW159207   6.807   0.394   3.346 -1.1194 -2.3438 -1.0808
19543SOL    HW259208   6.744   0.444   3.217  0.4609 -0.9799 -1.3608
19544SOL     OW59209   6.312   2.888   8.001  0.5653  0.7264 -0.2211
19544SOL    HW159210   6.237   2.865   7.947 -0.1846  0.2501  0.9798
19544SOL    HW259211   6.377   2.820   7.982 -0.3054 -0.3909  0.6482
19545SOL     OW59212   4.711   7.630   0.179  0.1657  0.1862  0.1897
19545SOL    HW159213   4.733   7.719   0.150  0.1801  0.2090  0.2698
19545SOL    HW259214   4.636   7.642   0.237 -1.9965 -0.1730 -2.3722
19546SOL     OW59215   0.811   0.554   7.443 -0.1549  0.1891 -0.1578
19546SOL    HW159216   0.830   0.468   7.481  0.2444  0.6108  0.6314
19546SOL    HW259217   0.778   0.605   7.516  0.2596  0.9079 -0.4630
19547SOL     OW59218   3.434   8.650   7.034 -0.0282  0.1772  0.2419
19547SOL    HW159219   3.424   8.745   7.023  0.1770  0.2920  0.9589
19547SOL    HW259220   3.414   8.635   7.127 -1.3048 -0.6591 -0.1425
19548SOL     OW59221   7.319   4.623   3.068 -0.6317  0.1358  0.2582
19548SOL    HW159222   7.244   4.569   3.046 -0.1428 -0.2635 -0.4820
19548SOL    HW259223   7.291   4.675   3.143 -2.2469  1.3095 -1.1060
19549SOL     OW59224   9.330   6.668   8.507 -0.1331 -0.6389  0.0956
19549SOL    HW159225   9.263   6.600   8.496 -0.0781 -0.4388 -1.7463
19549SOL    HW259226   9.280   6.745   8.534 -0.2238 -1.2928  1.9702
19550SOL     OW59227   9.593   9.436   6.585 -0.1740 -0.1908  0.2769
19550SOL    HW159228   9.550   9.518   6.608 -1.2274 -0.5057 -0.5293
19550SOL    HW259229   9.614   9.445   6.492  1.2462 -0.1674  0.5791
19551SOL     OW59230   8.917   4.690   6.265  0.2805  0.8958 -0.4843
19551SOL    HW159231   9.010   4.680   6.242  0.3284  1.0860 -0.3758
19551SOL    HW259232   8.873   4.618   6.220  0.8450 -0.8480  1.5613
19552SOL     OW59233   9.848   9.133   9.830  0.6940 -0.0848 -0.3085
19552SOL    HW159234   9.818   9.080   9.903  0.6953  0.3436  0.0084
19552SOL    HW259235   9.942   9.118   9.825  0.6571 -0.2922 -0.3681
19553SOL     OW59236   2.507   5.028   5.710 -0.2282 -0.2964  0.0589
19553SOL    HW159237   2.432   4.968   5.713 -0.2428 -0.3222 -0.6049
19553SOL    HW259238   2.483   5.092   5.643  0.8994 -1.0698 -1.1178
19554SOL     OW59239   9.183   2.734   1.381 -0.3006  0.3870  0.2188
19554SOL    HW159240   9.194   2.767   1.471  1.3635  1.3692 -0.2962
19554SOL    HW259241   9.139   2.805   1.335  0.9653  0.8798 -0.2762
19555SOL     OW59242   7.996   6.608   5.143  0.1500 -0.4869  0.2696
19555SOL    HW159243   7.934   6.598   5.070  0.0028 -1.2066  0.4817
19555SOL    HW259244   8.081   6.617   5.101 -0.1633  1.3397 -0.0572
19556SOL     OW59245   5.822   0.412   9.195 -0.1977  0.2110 -0.3439
19556SOL    HW159246   5.807   0.455   9.280  2.4068  1.1648 -0.2980
19556SOL    HW259247   5.742   0.431   9.145 -2.1086 -0.9477  2.0394
19557SOL     OW59248   9.268   3.754   0.495 -0.3676 -0.3743  0.4929
19557SOL    HW159249   9.292   3.846   0.505 -0.3706 -0.3642  0.4062
19557SOL    HW259250   9.213   3.736   0.571 -1.5065  0.0775 -0.1896
19558SOL     OW59251   8.901   1.171   4.838  0.7740 -0.1184 -0.2698
19558SOL    HW159252   8.959   1.111   4.791  0.7593 -0.4041  0.0782
19558SOL    HW259253   8.849   1.114   4.895 -0.1241  0.0825 -0.8656
19559SOL     OW59254   8.483   9.837   5.620  0.1078 -0.3154 -0.3850
19559SOL    HW159255   8.464   9.923   5.656 -0.3068  0.0110 -1.3300
19559SOL    HW259256   8.538   9.794   5.685 -3.5604 -1.2168  2.4710
19560SOL     OW59257   4.566   4.958   3.360  0.3479  0.1248 -0.3486
19560SOL    HW159258   4.635   4.962   3.426 -0.4786  0.8871  0.4922
19560SOL    HW259259   4.485   4.966   3.409 -0.4271 -1.7585 -1.2069
19561SOL     OW59260   3.855   2.779   2.562  0.0230 -0.6958  0.1751
19561SOL    HW159261   3.936   2.825   2.539  0.1617 -0.5331  0.9467
19561SOL    HW259262   3.843   2.798   2.655 -2.4432  1.6319 -0.5069
19562SOL     OW59263   0.904   9.272   8.865  0.3890  0.4587  0.4120
19562SOL    HW159264   0.919   9.192   8.816 -0.5486  0.5836 -0.0969
19562SOL    HW259265   0.871   9.242   8.950  0.8591  0.2823  0.5345
19563SOL     OW59266   6.024   1.999   6.871 -0.1545 -0.3274 -0.0241
19563SOL    HW159267   6.080   2.021   6.946  0.4076 -0.6745 -0.3287
19563SOL    HW259268   6.028   1.904   6.866 -1.4947 -0.4275  0.4812
19564SOL     OW59269   5.783   2.194   0.432  0.0283  0.6091  0.3085
19564SOL    HW159270   5.844   2.127   0.403  0.9227  1.0101  1.2094
19564SOL    HW259271   5.734   2.218   0.354  1.8177  1.0936 -0.7176
19565SOL     OW59272   9.549   5.103   7.256  0.0596  0.5043  0.3256
19565SOL    HW159273   9.499   5.031   7.294  0.1334  0.2973  0.0273
19565SOL    HW259274   9.634   5.099   7.300  0.9680 -1.1507 -1.4687
19566SOL     OW59275   6.916   2.361   7.063  0.2529 -1.0831 -0.5998
19566SOL    HW159276   6.821   2.357   7.076  0.2255 -0.2578 -0.5259
19566SOL    HW259277   6.950   2.391   7.147  0.2387  2.3552 -1.6641
19567SOL     OW59278   0.973   8.703   5.621 -0.1600 -0.2993 -0.1921
19567SOL    HW159279   1.002   8.622   5.578  0.1427 -2.0753  3.0430
19567SOL    HW259280   0.963   8.679   5.713 -1.1704  3.1157  0.7288
19568SOL     OW59281   1.705   2.288   9.267  0.1812 -0.3814  0.3224
19568SOL    HW159282   1.696   2.279   9.172 -0.4029  1.1754  0.1975
19568SOL    HW259283   1.799   2.300   9.281  0.2790 -0.6789 -0.0566
19569SOL     OW59284   2.253   2.441   2.470  0.1950 -0.6463  0.4984
19569SOL    HW159285   2.257   2.349   2.444  1.1387 -0.0433 -1.7885
19569SOL    HW259286   2.176   2.447   2.525  0.2632 -2.8494  0.9325
19570SOL     OW59287   3.473   7.566   0.643  0.0224  0.4227 -0.8945
19570SOL    HW159288   3.556   7.583   0.688  0.5892  0.2274 -1.8390
19570SOL    HW259289   3.418   7.526   0.710  1.3801 -1.3457 -0.7691
19571SOL     OW59290   2.134   4.604   6.419 -0.5118  0.1039  0.0891
19571SOL    HW159291   2.193   4.544   6.372  0.0156  1.0603 -0.5261
19571SOL    HW259292   2.148   4.585   6.511  1.9533  1.2956  0.0557
19572SOL     OW59293   5.608   9.930   2.454 -0.7464  0.4695 -0.3777
19572SOL    HW159294   5.514   9.944   2.452 -0.6918  1.2619  0.9420
19572SOL    HW259295   5.622   9.868   2.526 -0.1286  2.2157  1.1136
19573SOL     OW59296   3.547   4.192   4.889  0.3506 -0.1870 -0.4408
19573SOL    HW159297   3.475   4.135   4.860  0.6542 -0.4085 -0.7663
19573SOL    HW259298   3.619   4.171   4.830  0.7508 -0.1110  0.0163
19574SOL     OW59299   1.436   1.212   3.593  0.1407 -0.2093  0.1304
19574SOL    HW159300   1.433   1.154   3.518  2.7313 -1.0293  0.5593
19574SOL    HW259301   1.501   1.279   3.570 -1.8760  1.8868  0.1324
19575SOL     OW59302   4.463   6.140   2.406 -0.2728  0.4328 -0.1955
19575SOL    HW159303   4.500   6.079   2.470  0.1831  1.7596  0.8610
19575SOL    HW259304   4.532   6.149   2.339  1.0083  2.1277  1.2497
19576SOL     OW59305   7.013   6.219   4.865 -0.1117 -0.1314 -0.0262
19576SOL    HW159306   7.063   6.159   4.811 -0.2154 -0.5725  0.3684
19576SOL    HW259307   7.073   6.291   4.883 -0.0431 -0.0296 -0.6380
19577SOL     OW59308   0.388   6.619   0.159  0.0441  0.4325 -0.0874
19577SOL    HW159309   0.424   6.537   0.126 -2.6501 -0.3647 -1.2381
19577SOL    HW259310   0.343   6.595   0.240 -1.4058  0.5731 -0.8207
19578SOL     OW59311   5.008   0.523   1.375  0.3673  0.3084 -0.3884
19578SOL    HW159312   4.995   0.613   1.405  1.5878  0.3137  0.2051
19578SOL    HW259313   5.036   0.476   1.454 -0.3950 -0.6296 -0.6614
19579SOL     OW59314   9.573   1.744   7.050  0.4122  0.0506  0.3063
19579SOL    HW159315   9.582   1.651   7.071  1.1190 -0.0250 -0.2780
19579SOL    HW259316   9.493   1.772   7.095 -1.3576 -1.4902 -1.6835
19580SOL     OW59317   5.145   8.666   5.188 -0.2154 -0.3611  0.3449
19580SOL    HW159318   5.060   8.709   5.177  0.0749 -0.3170 -2.9766
19580SOL    HW259319   5.130   8.598   5.252 -2.6643 -0.0815  0.1598
19581SOL     OW59320   0.751   6.351   3.254 -0.6399  0.5107 -0.7073
19581SOL    HW159321   0.812   6.424   3.244 -0.0729 -0.1191 -2.1055
19581SOL    HW259322   0.782   6.285   3.192 -0.5481 -1.3193  1.1439
19582SOL     OW59323   6.801   8.204   7.422 -0.0075 -0.3403  0.1238
19582SOL    HW159324   6.851   8.258   7.361  2.5783 -2.5156  0.1242
19582SOL    HW259325   6.804   8.252   7.505  1.0077  0.2100 -0.2113
19583SOL     OW59326   1.898   2.830   3.603 -0.4102 -0.2101 -0.1654
19583SOL    HW159327   1.954   2.876   3.665 -1.1423  0.0174  0.3427
19583SOL    HW259328   1.921   2.865   3.518  0.0501  0.0514  0.0673
19584SOL     OW59329   0.545   2.837   3.842  0.2064 -0.8867  0.2570
19584SOL    HW159330   0.594   2.822   3.923  1.4654 -1.1395 -0.5162
19584SOL    HW259331   0.609   2.820   3.772 -0.9492 -1.0322 -0.7970
19585SOL     OW59332   0.318   3.709   4.541 -0.1485  0.1544 -0.0937
19585SOL    HW159333   0.404   3.679   4.513 -0.0116 -1.7019  2.0183
19585SOL    HW259334   0.329   3.729   4.634 -2.0195 -0.3587  0.2803
19586SOL     OW59335   4.701   8.801   9.127  0.2859  0.0447  0.0168
19586SOL    HW159336   4.683   8.721   9.078 -1.1377 -0.0539  0.6262
19586SOL    HW259337   4.739   8.861   9.063  2.1614 -1.3685 -0.2624
19587SOL     OW59338   5.006   7.218   9.199  0.0815  0.4163 -0.5871
19587SOL    HW159339   5.009   7.312   9.182  1.1568  0.5649  0.2879
19587SOL    HW259340   5.089   7.185   9.164 -0.8388 -0.4320 -2.0362
19588SOL     OW59341   3.038   8.710   3.994 -0.0977  0.3327  0.2872
19588SOL    HW159342   2.973   8.764   3.949  1.5899  2.2051 -0.0693
19588SOL    HW259343   3.121   8.756   3.980  1.4042 -2.1462  0.3717
19589SOL     OW59344   0.374   2.445   3.818  0.1759 -0.3329  0.0849
19589SOL    HW159345   0.401   2.513   3.758 -2.1233 -0.7223 -1.5362
19589SOL    HW259346   0.365   2.489   3.903 -0.9375  1.3332 -0.8538
19590SOL     OW59347   6.105   4.806   3.117  0.1340  0.0961  0.2527
19590SOL    HW159348   6.049   4.883   3.113 -0.0135 -0.0197  0.0835
19590SOL    HW259349   6.138   4.795   3.028  0.7057  0.3687  0.4234
19591SOL     OW59350   0.158   6.830   4.141  0.5035 -0.7120 -0.1878
19591SOL    HW159351   0.153   6.920   4.109 -0.5191 -0.4055  0.8072
19591SOL    HW259352   0.228   6.832   4.206 -0.3469 -0.3466  0.7276
19592SOL     OW59353   3.911   8.317   8.548 -0.4048  0.1540  0.2739
19592SOL    HW159354   3.868   8.240   8.512 -0.5152  0.2247  0.2542
19592SOL    HW259355   3.995   8.285   8.580 -0.1706  0.1459 -0.3298
19593SOL     OW59356   6.952   2.984   0.905 -0.2613  0.2249  0.0845
19593SOL    HW159357   6.977   3.061   0.853 -0.1678  1.2728  1.5982
19593SOL    HW259358   7.034   2.936   0.916 -0.7426 -1.5480 -2.9936
19594SOL     OW59359   2.093   5.984   0.897 -0.1223  0.2201 -0.0238
19594SOL    HW159360   2.046   6.008   0.977  1.7243  0.8120  0.9498
19594SOL    HW259361   2.152   6.058   0.880  2.1420 -1.4031  0.1790
19595SOL     OW59362   3.170   6.126   4.753 -0.2122  0.0578 -0.5623
19595SOL    HW159363   3.168   6.140   4.848 -2.3863 -3.7940  0.1621
19595SOL    HW259364   3.087   6.161   4.722 -0.5733 -0.8230 -0.6120
19596SOL     OW59365   0.026   1.293   6.493  0.4917  0.3246  0.6601
19596SOL    HW159366   0.009   1.380   6.456  0.8671 -1.0473 -3.1564
19596SOL    HW259367   0.121   1.283   6.488  0.3459 -0.7786 -0.2351
19597SOL     OW59368   3.777   4.037   2.749  0.0257 -0.2647 -0.2195
19597SOL    HW159369   3.771   4.090   2.828 -1.5373 -1.0149  0.2074
19597SOL    HW259370   3.846   3.973   2.768  0.3799  0.2082  0.1146
19598SOL     OW59371   2.008   2.672   3.954  0.1829  0.0351  0.4997
19598SOL    HW159372   2.013   2.740   4.021 -1.1046  1.9567 -1.2308
19598SOL    HW259373   2.018   2.589   4.002  0.7528  1.3769  2.8233
19599SOL     OW59374   9.127   5.740   3.033  0.2778  0.3314  0.1286
19599SOL    HW159375   9.195   5.796   3.071  0.4971  0.6101 -0.6592
19599SOL    HW259376   9.078   5.798   2.974  0.0706 -0.1453 -0.1731
19600SOL     OW59377   9.390   6.196   6.310  0.3907  0.0418 -0.0872
19600SOL    HW159378   9.480   6.212   6.336 -0.1195  1.3907  0.9297
19600SOL    HW259379   9.358   6.281   6.280 -0.6891 -0.3083  0.0187
19601SOL     OW59380   4.576   9.310   8.686  0.1481 -0.1909 -0.3532
19601SOL    HW159381   4.513   9.344   8.622 -0.2250  2.4911  1.2803
19601SOL    HW259382   4.662   9.335   8.652 -0.0131  0.6850 -0.1297
19602SOL     OW59383   1.497   3.156   2.477 -0.1459  0.1154  0.7644
19602SOL    HW159384   1.549   3.080   2.452  1.4887  1.3091  0.3472
19602SOL    HW259385   1.413   3.120   2.504  0.8874 -1.8951  1.4738
19603SOL     OW59386   1.754   1.610   9.853  0.6664 -0.5588  0.1731
19603SOL    HW159387   1.664   1.575   9.859  0.1050  0.7381 -0.3581
19603SOL    HW259388   1.744   1.703   9.870  1.8883 -0.3520 -0.2163
19604SOL     OW59389   2.020   7.525   1.008 -0.3098 -0.1725  0.2824
19604SOL    HW159390   1.959   7.485   1.070 -0.4179  1.3828  1.2272
19604SOL    HW259391   1.965   7.582   0.954 -0.0503 -0.7154 -0.5907
19605SOL     OW59392   0.239   3.810   0.254  0.3804 -0.5656  0.2490
19605SOL    HW159393   0.315   3.860   0.224  0.1366 -1.0036 -1.1670
19605SOL    HW259394   0.206   3.766   0.176 -1.3319 -0.4060  0.8290
19606SOL     OW59395   9.953   1.443   0.354  0.0115  0.4221 -0.4293
19606SOL    HW159396   9.942   1.395   0.437  1.3879 -0.7526 -0.8809
19606SOL    HW259397   9.918   1.530   0.372  0.1243  0.1393  1.3427
19607SOL     OW59398   5.939   7.070   2.252 -0.1844 -0.0768  0.3300
19607SOL    HW159399   5.905   7.028   2.331  0.2237 -1.6226 -0.2848
19607SOL    HW259400   5.925   7.006   2.183  0.2601  0.9066 -0.7020
19608SOL     OW59401   8.772   9.506   6.727  0.9015  0.6503  0.2219
19608SOL    HW159402   8.840   9.534   6.788  2.2665 -3.3716  0.8861
19608SOL    HW259403   8.814   9.510   6.641  1.8402 -1.0658  0.5446
19609SOL     OW59404   0.154   0.280   9.227  0.3266 -0.4719 -0.1986
19609SOL    HW159405   0.210   0.280   9.304 -0.1423  2.1122  0.2256
19609SOL    HW259406   0.214   0.291   9.153  0.5592  0.4113  0.1056
19610SOL     OW59407   5.181   0.305   0.270  0.8249 -0.2719 -0.7294
19610SOL    HW159408   5.267   0.298   0.310 -0.6983 -1.8399  2.7573
19610SOL    HW259409   5.142   0.383   0.310 -0.4915 -1.4694  0.4580
19611SOL     OW59410   7.594   8.095   0.352  0.5926  0.5180 -0.3596
19611SOL    HW159411   7.651   8.023   0.325 -1.1683 -0.3958 -1.8458
19611SOL    HW259412   7.505   8.061   0.341 -0.2951  2.7757 -0.6698
19612SOL     OW59413   4.431   7.899   0.566  0.1170 -0.2758 -0.5973
19612SOL    HW159414   4.375   7.888   0.490  0.0289  1.3872 -0.7950
19612SOL    HW259415   4.401   7.832   0.628 -0.0882 -1.3570 -1.8317
19613SOL     OW59416   7.741   0.905   5.556 -0.1227 -0.4597 -0.2351
19613SOL    HW159417   7.651   0.896   5.586 -0.0169 -0.4202  0.0934
19613SOL    HW259418   7.794   0.879   5.631  0.1603  0.9218  0.0765
19614SOL     OW59419   3.869   3.714   8.952  0.7000  0.0916  0.5869
19614SOL    HW159420   3.918   3.662   9.015  0.8198 -1.5758 -0.8061
19614SOL    HW259421   3.818   3.650   8.902 -0.7913  1.5161  0.1702
19615SOL     OW59422   7.975   5.209   7.630  0.5323 -0.3791  0.1904
19615SOL    HW159423   7.920   5.144   7.672 -0.5280 -0.1085 -0.7536
19615SOL    HW259424   7.914   5.274   7.596  1.5478  1.0883  1.0358
19616SOL     OW59425   0.697   8.850   4.495 -0.4227 -0.3345  0.6919
19616SOL    HW159426   0.656   8.793   4.560 -1.2098 -0.0656  0.4416
19616SOL    HW259427   0.778   8.806   4.472 -0.5564 -0.8647  1.2201
19617SOL     OW59428   0.940   9.019   8.480 -0.0382 -0.6147  0.2161
19617SOL    HW159429   1.016   8.972   8.513  0.0634 -0.8321 -0.3188
19617SOL    HW259430   0.877   8.950   8.457 -0.5640 -0.4216  1.0483
19618SOL     OW59431   4.069   8.359   0.922  0.5446 -0.1669  0.1396
19618SOL    HW159432   4.001   8.405   0.872  1.9905  0.0795 -1.7350
19618SOL    HW259433   4.092   8.420   0.992  1.1366  1.2406 -1.2117
19619SOL     OW59434   5.160   5.794   9.771 -0.6613 -0.2306  0.4252
19619SOL    HW159435   5.073   5.826   9.797 -0.4013  0.2889  0.6500
19619SOL    HW259436   5.206   5.871   9.740 -0.7210 -0.7270 -0.9561
19620SOL     OW59437   3.525   0.435   1.188  0.2673 -0.3048 -0.3954
19620SOL    HW159438   3.498   0.472   1.272  1.0832  1.2737 -0.7749
19620SOL    HW259439   3.482   0.350   1.184 -1.5837  0.5187  0.6264
19621SOL     OW59440   6.055   4.424   5.962 -0.0820  0.1414  0.0416
19621SOL    HW159441   6.089   4.443   5.875 -1.2359 -1.6720 -0.8667
19621SOL    HW259442   5.964   4.399   5.948 -0.1003 -0.8910  1.6648
19622SOL     OW59443   1.256   6.591   8.077 -0.1013 -0.0901 -0.5239
19622SOL    HW159444   1.314   6.651   8.031 -1.1915  0.3248 -1.4075
19622SOL    HW259445   1.281   6.504   8.045  1.6532 -0.1931  0.9478
19623SOL     OW59446   0.591   7.474   4.507  0.4598 -0.2974 -0.0684
19623SOL    HW159447   0.509   7.521   4.500  0.2673 -0.7129 -0.6855
19623SOL    HW259448   0.658   7.542   4.514  0.1715  0.0570 -0.7937
19624SOL     OW59449   1.474   5.923   8.927 -0.4302 -0.3467 -0.0403
19624SOL    HW159450   1.459   5.867   9.003 -0.8251 -1.5934 -1.0135
19624SOL    HW259451   1.565   5.953   8.936 -0.0034 -1.6709  0.1553
19625SOL     OW59452   6.370   6.361   7.130  0.3925 -0.4247  0.3419
19625SOL    HW159453   6.293   6.324   7.086  1.0365 -1.8668  0.3823
19625SOL    HW259454   6.442   6.348   7.069  0.6914  0.5579  0.4698
19626SOL     OW59455   6.734   1.621   5.126  0.7270 -0.0345  0.2510
19626SOL    HW159456   6.678   1.562   5.176  1.0024 -0.4449  0.0823
19626SOL    HW259457   6.814   1.627   5.178  0.9136 -0.2545 -0.0080
19627SOL     OW59458   5.431   3.895   0.576  0.4912 -0.2769 -0.0486
19627SOL    HW159459   5.516   3.935   0.593  0.3286  1.0577 -2.0048
19627SOL    HW259460   5.451   3.818   0.522  0.4826 -0.0458 -0.3854
19628SOL     OW59461   6.387   2.550   2.788 -0.1287 -0.1011  0.0662
19628SOL    HW159462   6.461   2.610   2.803 -0.2804 -0.0475  0.6130
19628SOL    HW259463   6.413   2.469   2.832  0.1973 -0.5489 -0.9032
19629SOL     OW59464   1.460   6.617   3.117  0.7360  0.0934 -0.2440
19629SOL    HW159465   1.489   6.539   3.069  1.2498 -0.0340  0.2648
19629SOL    HW259466   1.396   6.658   3.059  0.8264 -0.4392 -0.7331
19630SOL     OW59467   0.146   4.267   6.994  0.2880 -0.1001 -0.5800
19630SOL    HW159468   0.085   4.200   6.964  0.0150 -0.1451  0.0418
19630SOL    HW259469   0.225   4.219   7.018 -0.8791 -0.6733  2.6663
19631SOL     OW59470   8.983   4.377   2.645 -0.6805 -0.0801 -0.3094
19631SOL    HW159471   8.961   4.441   2.577  0.0403 -0.3010 -0.7599
19631SOL    HW259472   8.956   4.418   2.727 -0.4320  0.7116 -0.6170
19632SOL     OW59473   6.419   3.216   0.575  0.6557  0.5512 -0.8656
19632SOL    HW159474   6.420   3.133   0.528 -1.8841 -0.4894  0.7178
19632SOL    HW259475   6.386   3.279   0.511 -2.2619 -0.7357 -0.7622
19633SOL     OW59476   3.944   2.307   1.209 -0.4337 -0.0576  0.1191
19633SOL    HW159477   3.908   2.254   1.281  0.0932 -0.7417 -0.1182
19633SOL    HW259478   3.878   2.376   1.196  0.5074  1.5036  2.7980
19634SOL     OW59479   9.101   3.260   4.775 -0.6538 -0.5104  0.2783
19634SOL    HW159480   9.131   3.305   4.854 -0.0884  0.1698 -0.3114
19634SOL    HW259481   9.005   3.269   4.778 -0.6368 -0.4924  0.8834
19635SOL     OW59482   5.721   1.865   8.417  0.1941 -0.4897  0.5895
19635SOL    HW159483   5.630   1.886   8.439  0.0568 -1.1882  0.7159
19635SOL    HW259484   5.762   1.846   8.501  0.3672 -0.5093  0.5007
19636SOL     OW59485   1.743   6.341   3.135 -0.4289 -0.1343  0.1188
19636SOL    HW159486   1.705   6.309   3.217 -1.9429 -1.8378 -1.1709
19636SOL    HW259487   1.823   6.289   3.123 -0.7352 -0.5906  0.0338
19637SOL     OW59488   3.937   9.672   0.902  0.0666 -0.3670  0.5662
19637SOL    HW159489   3.883   9.629   0.967  0.6469 -0.0857  1.2435
19637SOL    HW259490   3.981   9.743   0.949  0.3864 -0.0655 -0.1565
19638SOL     OW59491   1.477   9.569   7.975  0.4866 -0.3680  0.3997
19638SOL    HW159492   1.412   9.591   7.907  1.3281 -0.8822 -0.5895
19638SOL    HW259493   1.431   9.585   8.057 -0.8901 -0.6645 -0.2774
19639SOL     OW59494   1.318   2.627   6.956 -0.3515 -0.2297 -0.2314
19639SOL    HW159495   1.259   2.554   6.976  0.4610 -0.1304  3.2837
19639SOL    HW259496   1.402   2.586   6.937 -0.1071 -0.2954  0.8987
19640SOL     OW59497   1.658   1.201   9.037  0.3921  0.0602  0.6458
19640SOL    HW159498   1.639   1.112   9.067  2.0755 -0.8554 -0.8401
19640SOL    HW259499   1.720   1.235   9.101 -0.8076  0.4887  1.6282
19641SOL     OW59500   7.875   6.699   2.865 -0.2769 -0.4558 -0.4940
19641SOL    HW159501   7.951   6.650   2.896 -0.1065  0.3103  0.3369
19641SOL    HW259502   7.822   6.712   2.943 -0.1228  1.0104 -0.6059
19642SOL     OW59503   1.555   0.636   7.848 -0.1273  0.1678  0.5135
19642SOL    HW159504   1.642   0.655   7.812  0.1891 -0.6204  0.8421
19642SOL    HW259505   1.520   0.722   7.873 -0.5941  0.8678 -2.1495
19643SOL     OW59506   6.236  -0.001   0.271 -0.0296  0.0884  0.1021
19643SOL    HW159507   6.228  -0.058   0.348  0.9736 -1.2120 -0.7252
19643SOL    HW259508   6.249   0.087   0.308 -0.9422 -0.2950  1.3993
19644SOL     OW59509   6.251   7.474   2.731 -0.5877 -0.2957 -0.2030
19644SOL    HW159510   6.327   7.416   2.728 -0.1051  0.2398  0.9301
19644SOL    HW259511   6.175   7.416   2.722 -0.0672 -0.9130 -0.6571
19645SOL     OW59512   7.586   5.949   6.231 -0.1024 -0.2510 -0.1084
19645SOL    HW159513   7.611   5.893   6.157 -0.0474 -1.9822  1.1527
19645SOL    HW259514   7.527   5.895   6.283 -0.5826  1.1345  0.8439
19646SOL     OW59515   2.204   0.629   6.785 -0.2858 -0.0251  0.5686
19646SOL    HW159516   2.300   0.625   6.793 -0.0318  0.6536 -1.6409
19646SOL    HW259517   2.172   0.606   6.873  1.8435 -2.1573  0.8900
19647SOL     OW59518   7.139   1.940   7.416 -0.1996  0.4210  0.6413
19647SOL    HW159519   7.044   1.948   7.424 -0.3832 -0.9867  0.1854
19647SOL    HW259520   7.158   1.851   7.447  0.5520 -0.6110 -2.4041
19648SOL     OW59521   6.943   7.252   1.803 -0.0239 -0.0600  0.3907
19648SOL    HW159522   7.028   7.218   1.829  1.3180  1.1391 -2.0675
19648SOL    HW259523   6.888   7.243   1.881  2.1697 -1.3792  1.8747
19649SOL     OW59524   2.629   6.945   6.929  0.1829 -0.0010  0.2230
19649SOL    HW159525   2.691   6.972   6.861 -0.4075 -2.2766 -1.3411
19649SOL    HW259526   2.667   6.865   6.966 -0.7780 -0.2271  0.7676
19650SOL     OW59527   4.689   7.226   9.565 -0.3362 -0.4690 -0.3530
19650SOL    HW159528   4.685   7.278   9.485  0.8946  1.0956  0.5247
19650SOL    HW259529   4.777   7.243   9.600 -1.4334  0.3915  2.2642
19651SOL     OW59530   0.572   8.201   1.563 -0.0121  0.0279 -0.5111
19651SOL    HW159531   0.574   8.297   1.565  1.8787  0.0229  0.9445
19651SOL    HW259532   0.479   8.179   1.575 -0.3545  1.6891  0.2180
19652SOL     OW59533   2.339   9.364   1.174  0.4240  0.3207 -0.3880
19652SOL    HW159534   2.248   9.338   1.160  0.0808  1.2372  0.0143
19652SOL    HW259535   2.376   9.294   1.227 -0.6735  0.9485  1.2979
19653SOL     OW59536   6.115   4.781  -0.008  0.6844 -0.1848  0.3395
19653SOL    HW159537   6.203   4.749   0.013  0.7937  1.1890  2.2148
19653SOL    HW259538   6.075   4.798   0.077 -0.8982  0.5828 -0.5106
19654SOL     OW59539   8.801   7.970   3.569  0.8996  0.4635  0.0127
19654SOL    HW159540   8.867   7.907   3.600  1.4216  1.5965  1.3356
19654SOL    HW259541   8.717   7.929   3.589  1.2321  0.2406  1.0243
19655SOL     OW59542   1.472   4.646   0.638 -0.3022  0.4893  0.0710
19655SOL    HW159543   1.459   4.576   0.701 -0.6337  0.5818  0.1076
19655SOL    HW259544   1.385   4.684   0.626 -0.0975  1.0067  0.1862
19656SOL     OW59545   6.393   8.396   2.503  0.6470 -0.1089 -0.1260
19656SOL    HW159546   6.303   8.406   2.473  0.6658 -1.2837 -0.6421
19656SOL    HW259547   6.412   8.476   2.552 -0.5719  0.2795 -0.2705
19657SOL     OW59548   2.850   2.365   6.471 -0.3320  0.4419  0.3417
19657SOL    HW159549   2.773   2.377   6.415 -0.1188 -1.2335 -0.3654
19657SOL    HW259550   2.815   2.337   6.555 -0.5060 -0.5112 -0.0371
19658SOL     OW59551   3.656   1.464   6.526 -0.1982  0.0945  0.2228
19658SOL    HW159552   3.621   1.533   6.469 -0.0765 -0.6514 -0.7822
19658SOL    HW259553   3.652   1.385   6.473  1.1819 -0.3770  0.7774
19659SOL     OW59554   7.682   5.473   6.242 -0.3377  0.1210 -0.3547
19659SOL    HW159555   7.729   5.394   6.216 -1.2020 -1.5861  2.7706
19659SOL    HW259556   7.602   5.472   6.190 -0.1523 -0.8642 -0.6306
19660SOL     OW59557   9.406   1.321   8.799 -0.0281 -0.4964  0.4522
19660SOL    HW159558   9.472   1.262   8.835 -0.1443  0.4192  2.3052
19660SOL    HW259559   9.344   1.335   8.871 -0.8409  0.6771 -0.4216
19661SOL     OW59560   6.104   6.793   1.311  0.2884  0.2857  0.3277
19661SOL    HW159561   6.151   6.710   1.297 -1.3585 -0.7837  0.9171
19661SOL    HW259562   6.023   6.783   1.261  0.7252  2.2200 -0.9096
19662SOL     OW59563   4.018   0.850   5.317 -0.0782 -0.2177 -0.3472
19662SOL    HW159564   4.016   0.896   5.401  0.3922  0.7615 -0.8625
19662SOL    HW259565   3.934   0.803   5.314 -0.3994  0.2908  0.3576
19663SOL     OW59566   6.588   8.990   7.351 -0.0862  0.1950  0.1905
19663SOL    HW159567   6.557   8.903   7.328 -0.2890 -0.1116  1.5263
19663SOL    HW259568   6.508   9.038   7.376  0.0880  0.5845  0.0094
19664SOL     OW59569   7.269   9.006   0.893 -0.7962 -0.3625  0.3820
19664SOL    HW159570   7.278   9.076   0.957 -1.2185  0.3740 -0.3398
19664SOL    HW259571   7.333   9.026   0.825 -1.1770 -0.4516 -0.0157
19665SOL     OW59572   2.997   6.442   1.474 -0.6527  0.0719 -0.2661
19665SOL    HW159573   2.983   6.519   1.418 -0.8512  0.2271 -0.0042
19665SOL    HW259574   2.951   6.463   1.555 -0.4641 -0.2033 -0.0869
19666SOL     OW59575   5.254   4.874   0.962  0.0548  0.7286 -0.1559
19666SOL    HW159576   5.195   4.942   0.929 -0.1651  0.5311 -0.1694
19666SOL    HW259577   5.282   4.826   0.884 -0.5992  0.1547 -0.0366
19667SOL     OW59578   1.594   4.950   3.739 -0.2031  0.0419  0.1780
19667SOL    HW159579   1.592   4.906   3.824 -2.5272  2.7566  1.7237
19667SOL    HW259580   1.509   4.929   3.699 -0.2075  0.8695 -0.2757
19668SOL     OW59581   0.125   8.670   6.457 -0.0696  0.4745 -0.5599
19668SOL    HW159582   0.065   8.624   6.516 -1.5049 -1.1535 -3.1005
19668SOL    HW259583   0.213   8.649   6.491 -0.5993 -4.0483 -1.2541
19669SOL     OW59584   1.418   4.437   6.862  0.1875  0.2968 -0.2548
19669SOL    HW159585   1.465   4.509   6.820 -0.9022  0.7500 -0.7375
19669SOL    HW259586   1.350   4.412   6.799  0.5884 -1.2082 -0.1232
19670SOL     OW59587   8.534   8.140   1.458 -0.0126  0.7971 -0.1037
19670SOL    HW159588   8.446   8.158   1.426  0.2620  0.9148 -0.8205
19670SOL    HW259589   8.572   8.226   1.475  1.0626  0.9799 -2.8817
19671SOL     OW59590   5.054   9.545   4.064 -0.3080 -0.1186 -0.4455
19671SOL    HW159591   5.050   9.540   3.968  0.1811  1.0036 -0.5435
19671SOL    HW259592   5.045   9.455   4.093 -1.5107 -0.3732 -1.5038
19672SOL     OW59593   7.591   7.461   5.079  0.3788  0.1647  0.3697
19672SOL    HW159594   7.576   7.472   4.985  0.3054 -1.3193  0.1946
19672SOL    HW259595   7.505   7.473   5.119  0.1877 -0.3849  0.1280
19673SOL     OW59596   1.493   6.370   3.002  0.6635 -0.4795 -0.1769
19673SOL    HW159597   1.493   6.324   2.918 -1.4378 -0.0132 -0.4911
19673SOL    HW259598   1.579   6.352   3.040  0.8271 -2.5638 -1.4190
19674SOL     OW59599   1.787   9.802   5.858 -0.1149 -0.2833 -0.5103
19674SOL    HW159600   1.722   9.776   5.923 -1.2573  1.1831 -1.0191
19674SOL    HW259601   1.741   9.863   5.800  1.5721  0.4250 -1.1842
19675SOL     OW59602   4.718   2.756   4.227  0.5688  0.0351  0.3079
19675SOL    HW159603   4.641   2.800   4.264  1.5378  2.0367  0.0317
19675SOL    HW259604   4.743   2.692   4.294 -1.2633 -0.6129  0.4306
19676SOL     OW59605   3.368   6.096   7.329 -0.6976  0.3375  0.2233
19676SOL    HW159606   3.305   6.137   7.389  1.2071  0.8330  1.9977
19676SOL    HW259607   3.356   6.143   7.247 -0.4389  2.7173  1.4445
19677SOL     OW59608   7.225   6.696   8.601  0.1631  0.0383 -0.2703
19677SOL    HW159609   7.243   6.734   8.515  1.9724 -1.7274 -0.7412
19677SOL    HW259610   7.177   6.615   8.581  0.5903 -0.3792  0.3605
19678SOL     OW59611   7.029   2.929   6.672 -0.6314 -0.9538  0.0150
19678SOL    HW159612   7.100   2.930   6.736 -0.8314 -2.2926  0.2909
19678SOL    HW259613   7.048   2.854   6.616 -0.1107  0.5690 -1.9557
19679SOL     OW59614   4.259   9.425   4.207  0.0858  0.0547 -0.2384
19679SOL    HW159615   4.280   9.335   4.234 -0.8740 -0.3721 -0.8539
19679SOL    HW259616   4.332   9.477   4.239  0.9694 -1.0374 -0.4023
19680SOL     OW59617   9.573   3.675   8.788 -0.0482 -0.4558 -0.2690
19680SOL    HW159618   9.634   3.718   8.730  0.1436  0.1794  0.3883
19680SOL    HW259619   9.612   3.589   8.805  0.0376 -0.5282 -0.8396
19681SOL     OW59620   0.356   0.077   1.736 -0.1233 -0.4526  0.0890
19681SOL    HW159621   0.262   0.084   1.750  0.0005  0.6807  0.4641
19681SOL    HW259622   0.394   0.144   1.793  0.9830 -1.5316  0.6708
19682SOL     OW59623   1.579   9.195   3.508  0.2470 -0.2559 -0.0181
19682SOL    HW159624   1.604   9.104   3.525  1.1637  0.0564  0.3959
19682SOL    HW259625   1.558   9.197   3.415  0.3804 -0.8562 -0.0673
19683SOL     OW59626   6.790   2.049   8.089  0.4280 -1.1413  0.1821
19683SOL    HW159627   6.877   2.031   8.124 -0.2596 -0.6188  2.2778
19683SOL    HW259628   6.796   2.139   8.056  0.4759 -0.8165  1.0564
19684SOL     OW59629   7.762   0.348   2.158  0.3133 -0.1388 -0.0004
19684SOL    HW159630   7.675   0.384   2.146 -1.8188 -4.3830  0.6806
19684SOL    HW259631   7.784   0.365   2.249 -0.8912 -1.0159  0.4672
19685SOL     OW59632   3.317   3.776   5.847 -0.0847  0.0428 -0.2824
19685SOL    HW159633   3.248   3.765   5.781  0.2661 -2.0819 -0.3432
19685SOL    HW259634   3.395   3.797   5.796  0.1425 -1.4069 -0.5803
19686SOL     OW59635   3.609   5.531   0.689  0.8370 -0.5059 -0.2923
19686SOL    HW159636   3.684   5.477   0.714  1.2223  0.2595  0.2285
19686SOL    HW259637   3.644   5.593   0.625  0.7606  0.1769  0.3248
19687SOL     OW59638   2.774   0.471   7.362 -0.0170 -0.0327 -0.4073
19687SOL    HW159639   2.774   0.512   7.448  0.7593 -0.6568 -0.0893
19687SOL    HW259640   2.850   0.509   7.318  0.5824 -0.9338 -0.1861
19688SOL     OW59641   9.751   6.777   6.018  0.7325  0.2812 -0.1192
19688SOL    HW159642   9.736   6.865   6.051  2.9094  0.0286  1.8042
19688SOL    HW259643   9.670   6.730   6.036  0.1496  1.4372  0.4025
19689SOL     OW59644   5.564   2.314   8.929 -0.0478  0.2278 -0.2775
19689SOL    HW159645   5.566   2.240   8.991 -0.6046  1.3841  1.1790
19689SOL    HW259646   5.546   2.390   8.984 -4.2552  0.9160 -2.2494
19690SOL     OW59647   1.614   5.928   5.499 -0.5110 -0.4962  0.2942
19690SOL    HW159648   1.528   5.924   5.540 -1.8076  0.0896 -2.1216
19690SOL    HW259649   1.627   5.841   5.461 -0.9840 -0.0516 -0.9668
19691SOL     OW59650   0.159   7.946   1.591  0.3819 -0.0531 -0.1031
19691SOL    HW159651   0.165   7.877   1.658 -0.2776 -1.5582 -1.5323
19691SOL    HW259652   0.067   7.949   1.568  0.7575 -0.4631 -1.8108
19692SOL     OW59653   7.512   6.171   4.217 -0.0619 -0.0558 -0.4914
19692SOL    HW159654   7.555   6.250   4.184  0.4397 -0.1932 -0.1842
19692SOL    HW259655   7.429   6.202   4.254  0.4791  0.4515  0.3448
19693SOL     OW59656   3.850   1.130   2.771  0.3252  0.2055  0.2652
19693SOL    HW159657   3.855   1.180   2.689  1.3026  1.1495  0.8736
19693SOL    HW259658   3.758   1.138   2.798  0.2423  0.8498 -0.1694
19694SOL     OW59659   8.841   6.639   9.757  0.2312  0.7385 -0.5317
19694SOL    HW159660   8.761   6.624   9.808  0.5253  0.5057 -0.1407
19694SOL    HW259661   8.911   6.602   9.810  0.5862  0.8255 -0.9374
19695SOL     OW59662   4.784   1.402   0.687 -0.4907 -0.0537  0.2198
19695SOL    HW159663   4.749   1.362   0.608 -0.3840 -1.5696  0.8990
19695SOL    HW259664   4.879   1.396   0.678 -0.3054  2.9243 -1.0514
19696SOL     OW59665   3.608   8.814   4.751  0.3918  0.0899  0.0904
19696SOL    HW159666   3.679   8.765   4.791 -0.2269 -0.5472  0.4190
19696SOL    HW259667   3.529   8.781   4.793 -0.3617 -1.1301 -2.1153
19697SOL     OW59668   8.219   1.688   6.640  0.1868  0.2966 -0.0817
19697SOL    HW159669   8.183   1.733   6.717 -1.0520 -1.4470  0.4267
19697SOL    HW259670   8.161   1.714   6.568  1.8747  2.6573 -0.7350
19698SOL     OW59671   5.383   6.428   3.941  0.5029  0.5695  0.3546
19698SOL    HW159672   5.431   6.431   3.858 -1.1775  0.4693 -0.6594
19698SOL    HW259673   5.340   6.343   3.941  1.0436  0.2752  1.6821
19699SOL     OW59674   5.491   6.858   3.160 -0.1271 -0.0871 -0.3600
19699SOL    HW159675   5.439   6.906   3.096 -1.2639 -1.0079 -0.1786
19699SOL    HW259676   5.446   6.874   3.243  0.0685 -0.6330 -0.1436
19700SOL     OW59677   0.361   9.909   3.868  0.2042  0.1533 -0.0899
19700SOL    HW159678   0.266   9.896   3.865  0.2054  0.2729 -1.5498
19700SOL    HW259679   0.393   9.872   3.785  1.5668 -0.8116  0.8215
19701SOL     OW59680   1.220   9.378   7.078 -0.2487  0.2781 -0.0259
19701SOL    HW159681   1.293   9.432   7.110 -1.0082  0.3233  1.7563
19701SOL    HW259682   1.142   9.429   7.098 -0.8947 -0.8215  0.3483
19702SOL     OW59683   2.761   8.256   9.803 -0.4708  0.2445 -0.4274
19702SOL    HW159684   2.668   8.258   9.827 -0.0442  1.3382  1.2978
19702SOL    HW259685   2.765   8.195   9.730 -1.9600 -3.1606  2.0826
19703SOL     OW59686   8.022   0.083   3.438  0.5435 -0.2114  0.6293
19703SOL    HW159687   7.966   0.034   3.378  0.3840 -0.1875  0.7585
19703SOL    HW259688   8.028   0.171   3.399 -1.6149  0.5735  1.9243
19704SOL     OW59689   1.873   1.693   9.594 -0.1335  0.5882  0.2564
19704SOL    HW159690   1.825   1.746   9.530  0.8394  2.2758  0.8619
19704SOL    HW259691   1.827   1.705   9.676 -0.4899 -0.3567  0.2133
19705SOL     OW59692   4.265   0.188   7.407 -0.3854  0.8397  0.0120
19705SOL    HW159693   4.235   0.201   7.497 -0.3155 -1.1559  0.3504
19705SOL    HW259694   4.239   0.269   7.362 -2.4158  0.9828  1.2950
19706SOL     OW59695   2.834   3.646   3.029 -0.7816 -0.0414 -0.1679
19706SOL    HW159696   2.842   3.552   3.014 -1.6031 -0.4877  1.7903
19706SOL    HW259697   2.741   3.664   3.014 -0.7048  0.3746 -0.1506
19707SOL     OW59698   7.331   6.101   2.110 -0.7223 -0.1934  0.1310
19707SOL    HW159699   7.249   6.148   2.122 -1.2481 -1.1537  0.3710
19707SOL    HW259700   7.348   6.059   2.194 -0.0812 -0.1666  0.0220
19708SOL     OW59701   9.587   8.746   7.918 -0.3702 -0.2413  0.5360
19708SOL    HW159702   9.555   8.820   7.866  1.5355  0.7918  0.7559
19708SOL    HW259703   9.640   8.785   7.987  1.4732 -1.8307  0.1093
19709SOL     OW59704   2.202   2.503   5.664 -0.2792 -0.6880  0.1337
19709SOL    HW159705   2.255   2.568   5.617 -1.0899 -1.0001 -1.3028
19709SOL    HW259706   2.204   2.426   5.607 -3.2312 -0.3108 -0.6422
19710SOL     OW59707   7.474   1.704   7.002 -0.4799 -0.0739  0.4839
19710SOL    HW159708   7.479   1.670   6.913  1.9990  0.4469  0.3529
19710SOL    HW259709   7.461   1.626   7.057 -2.2224 -0.3783 -0.2762
19711SOL     OW59710   5.390   3.809   5.564 -0.1740 -0.0675  0.2904
19711SOL    HW159711   5.377   3.719   5.596 -2.4439  0.0303 -0.2337
19711SOL    HW259712   5.449   3.799   5.489 -0.2748 -1.0956  0.3335
19712SOL     OW59713   7.554   4.923   1.555  0.0317 -0.3688  0.5056
19712SOL    HW159714   7.506   4.854   1.511  0.8224 -0.5469 -0.0998
19712SOL    HW259715   7.641   4.920   1.516  0.2679  0.5324  0.9404
19713SOL     OW59716   1.561   2.372   1.886 -0.3732 -0.3657  0.1694
19713SOL    HW159717   1.546   2.455   1.932  0.2531 -0.1771  0.0477
19713SOL    HW259718   1.487   2.317   1.911 -0.4038 -0.0267  0.8604
19714SOL     OW59719   3.799   9.085   2.856 -0.1828 -0.8413  0.1716
19714SOL    HW159720   3.875   9.139   2.835 -0.7287 -0.4927 -1.0200
19714SOL    HW259721   3.804   9.071   2.950  1.8026 -1.5194  0.0137
19715SOL     OW59722   9.066   1.433   2.006 -0.9093 -0.5525  0.2414
19715SOL    HW159723   8.995   1.498   2.002 -1.2281 -0.7091  2.1926
19715SOL    HW259724   9.145   1.486   2.018 -1.0643 -0.4544  0.9253
19716SOL     OW59725   2.677   0.182   3.633 -0.3577 -0.1339  0.1432
19716SOL    HW159726   2.691   0.227   3.716  2.2497 -0.0720 -0.2259
19716SOL    HW259727   2.649   0.094   3.657  1.2184 -0.3967  1.1616
19717SOL     OW59728   9.934   0.977   9.628  0.2960  0.2095 -0.2520
19717SOL    HW159729   9.967   0.964   9.717 -0.2261 -0.1675 -0.1064
19717SOL    HW259730   9.839   0.981   9.639  0.2800  1.0821 -0.6858
19718SOL     OW59731   7.103   3.995   0.344 -0.6490 -0.1416 -0.2687
19718SOL    HW159732   7.145   3.969   0.426  1.7543  0.6912 -1.1447
19718SOL    HW259733   7.026   3.939   0.337 -0.2878 -1.0156  1.9831
19719SOL     OW59734   8.650   2.049   4.279 -0.0152 -0.2543 -0.2664
19719SOL    HW159735   8.641   2.145   4.283 -0.5955 -0.3413  0.8186
19719SOL    HW259736   8.727   2.035   4.224 -0.5172  0.8052 -1.3003
19720SOL     OW59737   5.564   9.044   2.765 -0.0485 -0.0020  0.5042
19720SOL    HW159738   5.506   9.113   2.798 -0.0073 -0.0433  0.6684
19720SOL    HW259739   5.647   9.058   2.812  0.8502  1.4583 -1.3644
19721SOL     OW59740   5.608   8.907   4.557 -0.1332  0.0293 -0.3695
19721SOL    HW159741   5.583   8.842   4.622 -0.8791  0.5659 -0.1079
19721SOL    HW259742   5.565   8.987   4.585  0.5230  0.5629 -0.8614
19722SOL     OW59743   9.072   8.829   4.039  0.3034 -0.4032  0.0137
19722SOL    HW159744   9.007   8.822   3.969 -0.7633 -0.5431  0.9909
19722SOL    HW259745   9.117   8.911   4.022  0.3431 -0.6348 -1.0699
19723SOL     OW59746   1.377   8.364   2.811 -0.0808 -0.3512  0.0072
19723SOL    HW159747   1.319   8.362   2.886 -1.6307  1.3196 -1.0630
19723SOL    HW259748   1.319   8.375   2.736  1.5958  1.5109 -1.1075
19724SOL     OW59749   1.613   6.556   9.531 -0.3584  0.1028  0.2247
19724SOL    HW159750   1.629   6.612   9.607 -2.5988  0.3246  0.6089
19724SOL    HW259751   1.553   6.607   9.476 -0.8599 -1.1063 -0.3994
19725SOL     OW59752   9.431   3.285   2.993 -0.7793  0.0239  0.2990
19725SOL    HW159753   9.335   3.290   2.986 -0.7265  1.6272  0.3912
19725SOL    HW259754   9.462   3.347   2.926  0.3120 -2.8694 -2.0889
19726SOL     OW59755   0.571   7.698   9.764 -0.0574 -0.5585  0.4304
19726SOL    HW159756   0.666   7.709   9.764 -0.2389  1.4399  1.2530
19726SOL    HW259757   0.558   7.604   9.754  1.9244 -0.6218 -2.7958
19727SOL     OW59758   0.899   4.563   5.451  0.5817  0.3018  0.4493
19727SOL    HW159759   0.981   4.516   5.466 -0.3444 -1.9276 -1.0969
19727SOL    HW259760   0.832   4.507   5.489 -0.5794  0.1539 -1.6822
19728SOL     OW59761   0.026   3.487   5.400  0.2112  0.3280  0.3649
19728SOL    HW159762   0.110   3.531   5.389  0.4845 -0.4386 -0.7358
19728SOL    HW259763   0.031   3.410   5.343 -0.5793 -0.6690  1.5693
19729SOL     OW59764   5.949   3.774   8.581 -0.1407  1.0541  0.0421
19729SOL    HW159765   6.033   3.781   8.535 -1.0078 -0.5421 -1.9564
19729SOL    HW259766   5.952   3.688   8.621 -1.5268  0.1146 -1.7267
19730SOL     OW59767   9.841   0.827   9.125  0.1936 -0.0040  0.1448
19730SOL    HW159768   9.919   0.798   9.173 -0.0417 -1.3421 -0.2312
19730SOL    HW259769   9.790   0.747   9.113 -1.3144  0.8613  0.5013
19731SOL     OW59770   5.970   9.234   4.925  0.6135 -0.4099  0.4651
19731SOL    HW159771   5.999   9.323   4.946  1.8673 -0.2524 -1.6119
19731SOL    HW259772   5.923   9.205   5.003  0.1977  2.0438  1.2217
19732SOL     OW59773   2.382   8.606   2.281  0.2742 -0.1679  0.2080
19732SOL    HW159774   2.312   8.659   2.319  0.1934  0.4995 -0.8457
19732SOL    HW259775   2.445   8.597   2.352 -0.6729 -0.4277  1.0438
19733SOL     OW59776   0.123   0.753   3.131  0.0216 -0.2268  0.3884
19733SOL    HW159777   0.093   0.710   3.051 -0.8300 -0.1689  0.6704
19733SOL    HW259778   0.141   0.681   3.191  0.5605 -0.2656  0.1887
19734SOL     OW59779   8.502   0.869   9.346 -0.2394 -0.0922 -0.4213
19734SOL    HW159780   8.591   0.842   9.325 -0.1373  2.1126 -3.4003
19734SOL    HW259781   8.447   0.828   9.279 -1.6434 -1.8258  1.6534
19735SOL     OW59782   1.807   2.990   6.854 -0.0168  0.0450 -0.3044
19735SOL    HW159783   1.836   3.013   6.942 -0.7153 -1.0744  0.2592
19735SOL    HW259784   1.840   2.901   6.841 -0.6248 -0.1078 -0.8420
19736SOL     OW59785   2.925   5.896   9.097  0.0347 -0.5185 -0.0496
19736SOL    HW159786   2.858   5.829   9.117  1.1982 -1.9843 -0.8547
19736SOL    HW259787   3.003   5.865   9.143  0.2118  1.1373  0.8154
19737SOL     OW59788   4.980   0.966   7.097 -0.0872 -0.2349  0.0856
19737SOL    HW159789   5.068   0.965   7.135 -0.8208 -0.0353  1.9304
19737SOL    HW259790   4.972   0.883   7.051  1.5458  0.3581 -1.3384
19738SOL     OW59791   2.720   6.548   5.063  0.4625  0.3414  0.4597
19738SOL    HW159792   2.751   6.458   5.068 -1.5544 -0.3243  1.9991
19738SOL    HW259793   2.778   6.597   5.121 -0.5728 -0.6589  2.4012
19739SOL     OW59794   2.299   2.752   9.055  0.4437  0.1587  0.2944
19739SOL    HW159795   2.213   2.753   9.014  1.6259  0.3465 -2.3916
19739SOL    HW259796   2.302   2.668   9.101 -2.4249  1.6591  3.6183
19740SOL     OW59797   8.802   1.979   3.089  0.0577 -0.0612  0.2583
19740SOL    HW159798   8.736   2.027   3.040  1.0171  0.1098 -0.9061
19740SOL    HW259799   8.884   1.995   3.042  0.8080 -0.8792  1.2294
19741SOL     OW59800   1.856   2.990   9.475  0.9168  0.0237 -0.6129
19741SOL    HW159801   1.853   3.018   9.383  0.8339  0.7225 -0.4044
19741SOL    HW259802   1.859   3.072   9.524  0.4040 -0.3382  0.0299
19742SOL     OW59803   8.540   8.122   2.702  0.3785 -0.1352 -0.2611
19742SOL    HW159804   8.469   8.059   2.711 -1.2363  1.5049 -0.8138
19742SOL    HW259805   8.547   8.136   2.607  0.7777  0.4358 -0.1499
19743SOL     OW59806   4.280   3.922   5.876 -0.4539  0.1364 -0.0283
19743SOL    HW159807   4.228   3.919   5.796  0.3010  0.0655 -0.5327
19743SOL    HW259808   4.235   3.984   5.933 -0.5923  0.7587 -0.8072
19744SOL     OW59809   9.384   2.258   7.518 -0.1977  0.4142  0.4460
19744SOL    HW159810   9.330   2.188   7.556 -2.3670  1.4033 -0.6412
19744SOL    HW259811   9.376   2.330   7.580 -0.5244  0.7131  0.0623
19745SOL     OW59812   7.481   4.062   0.782  0.1220 -0.3599 -0.9338
19745SOL    HW159813   7.525   4.079   0.698  1.4487 -0.0384 -0.2085
19745SOL    HW259814   7.479   3.967   0.789  2.2658 -0.4017 -0.2432
19746SOL     OW59815   2.300   5.966   3.219 -0.1510 -0.9032  0.2835
19746SOL    HW159816   2.351   5.982   3.298 -0.3262 -1.5776  0.5435
19746SOL    HW259817   2.250   6.046   3.205  0.6282 -0.4030  0.2858
19747SOL     OW59818   4.622   3.905   7.002  0.6132 -0.1380 -0.0044
19747SOL    HW159819   4.644   3.850   7.077 -0.3157 -0.7252 -0.1597
19747SOL    HW259820   4.529   3.924   7.012  1.2760  3.3021  1.3003
19748SOL     OW59821   1.353   9.949   0.688  0.2181  0.0989 -0.4181
19748SOL    HW159822   1.424   9.928   0.627  0.5994 -1.4070  0.5130
19748SOL    HW259823   1.286   9.883   0.671  0.0048  0.1294  0.2898
19749SOL     OW59824   9.300   1.837   5.866 -0.2067 -0.5862 -0.2339
19749SOL    HW159825   9.319   1.750   5.898  0.5118 -1.0481 -1.8158
19749SOL    HW259826   9.373   1.891   5.897 -0.2459 -0.7139  0.0837
19750SOL     OW59827   9.617   0.123   2.966 -0.0303  0.2161  0.2335
19750SOL    HW159828   9.558   0.049   2.984 -1.1524  1.1851  0.7050
19750SOL    HW259829   9.563   0.185   2.918  1.5296 -0.1669 -2.1541
19751SOL     OW59830   5.487   5.968   8.141  0.0527 -0.1097  0.5817
19751SOL    HW159831   5.413   6.025   8.119  0.5331 -0.4693 -2.4151
19751SOL    HW259832   5.457   5.880   8.118  1.1366 -0.3503  0.0124
19752SOL     OW59833   2.287   4.754  -0.006  0.4749  0.0829  0.1861
19752SOL    HW159834   2.325   4.681   0.042  0.2463  1.0078  1.8408
19752SOL    HW259835   2.254   4.813   0.061 -1.1678  0.7589 -1.1341
19753SOL     OW59836   0.174   6.344   4.866 -0.6389 -0.3603  0.8956
19753SOL    HW159837   0.253   6.397   4.878 -1.3263  0.5602  1.4652
19753SOL    HW259838   0.122   6.392   4.802 -0.6207 -1.1221  0.2842
19754SOL     OW59839   3.367   5.790   3.178  0.2512  0.1109 -0.8198
19754SOL    HW159840   3.408   5.828   3.256  1.2068 -0.5443 -0.9856
19754SOL    HW259841   3.286   5.840   3.167  0.9648  1.3945 -0.4402
19755SOL     OW59842   7.093   1.355   2.184  0.5327 -0.4671 -0.8852
19755SOL    HW159843   7.143   1.394   2.112  1.0616 -0.1607 -0.3644
19755SOL    HW259844   7.008   1.335   2.146  1.1363 -1.2789 -1.8889
19756SOL     OW59845   1.782   7.474   3.054  0.2295 -0.2351  0.7158
19756SOL    HW159846   1.777   7.526   2.974  0.5522 -1.5164 -0.1631
19756SOL    HW259847   1.826   7.531   3.117  2.3403 -0.0905 -0.7820
19757SOL     OW59848   3.502   4.505   3.539  0.1707 -0.4059  0.3920
19757SOL    HW159849   3.421   4.466   3.507 -0.0255  0.1832  0.1548
19757SOL    HW259850   3.565   4.433   3.540  0.0158 -0.5731 -0.7518
19758SOL     OW59851   5.946   7.102   1.057 -0.1910 -0.0727 -0.3926
19758SOL    HW159852   5.853   7.105   1.036 -0.0739  1.6173 -0.8022
19758SOL    HW259853   5.988   7.152   0.987  1.0473 -0.8454 -0.2436
19759SOL     OW59854   2.023   7.100   8.011  0.4111 -0.1370 -0.5422
19759SOL    HW159855   1.964   7.143   7.949  0.1875  1.2652  0.5847
19759SOL    HW259856   1.984   7.014   8.026 -0.1939 -0.0234 -1.3970
19760SOL     OW59857   0.632   9.795   1.225 -0.5458  0.6917  0.4577
19760SOL    HW159858   0.560   9.808   1.163 -0.0534 -0.5671 -0.3937
19760SOL    HW259859   0.620   9.707   1.259  1.4093 -0.1311 -0.8093
19761SOL     OW59860   8.340   8.256   8.952  0.0265  0.3780  0.2283
19761SOL    HW159861   8.395   8.239   9.029 -0.2486  0.4513  0.4430
19761SOL    HW259862   8.309   8.346   8.964  0.3856  0.5675 -0.2244
19762SOL     OW59863   9.061   1.969   2.806  0.0617 -0.5433  0.0209
19762SOL    HW159864   8.995   1.969   2.737 -1.0727  3.2104  0.8881
19762SOL    HW259865   9.142   1.991   2.762 -0.1176 -0.8423 -0.4612
19763SOL     OW59866   4.155   3.099   5.138  0.0441  0.3174 -0.0365
19763SOL    HW159867   4.221   3.055   5.191  0.0967 -1.4940 -1.5238
19763SOL    HW259868   4.197   3.179   5.108  0.7670  0.2764  0.8263
19764SOL     OW59869   7.294   3.527   4.027 -0.0444  0.4700  0.6531
19764SOL    HW159870   7.231   3.494   3.963  1.0694 -1.3787  0.4401
19764SOL    HW259871   7.312   3.452   4.084  1.0263  1.3190  1.4829
19765SOL     OW59872   3.559   8.978   3.340  0.5220  0.1972  0.3934
19765SOL    HW159873   3.645   9.019   3.345  1.3271 -0.8377 -2.8605
19765SOL    HW259874   3.557   8.935   3.255 -2.5876 -1.3215  1.0747
19766SOL     OW59875   0.478   2.000   9.304 -0.5118  0.3552 -0.0141
19766SOL    HW159876   0.515   1.914   9.282  0.9469  1.4506 -2.3660
19766SOL    HW259877   0.401   2.008   9.248 -2.5289 -0.5359  2.4218
19767SOL     OW59878   3.025   5.830   1.482 -0.1774 -0.4262 -0.0138
19767SOL    HW159879   3.053   5.744   1.513 -0.3372 -1.3354 -2.1813
19767SOL    HW259880   2.935   5.818   1.453 -0.6809  0.8519  0.9028
19768SOL     OW59881   6.161   7.587   2.002  0.4512  0.4377  0.2924
19768SOL    HW159882   6.139   7.666   1.952 -0.2410  0.2316  0.2514
19768SOL    HW259883   6.256   7.586   2.006  0.5892 -0.0407 -1.8566
19769SOL     OW59884   4.349   7.396   7.323 -0.3201  0.7674  0.1386
19769SOL    HW159885   4.400   7.338   7.268  0.2066  1.8403 -0.5269
19769SOL    HW259886   4.282   7.432   7.265 -1.9699 -0.6955  1.0089
19770SOL     OW59887   3.332   3.052   6.843 -0.3073  0.2428  0.0319
19770SOL    HW159888   3.392   2.982   6.868 -1.5538 -0.8721  0.0113
19770SOL    HW259889   3.245   3.013   6.848 -1.1688  2.1491  1.2581
19771SOL     OW59890   4.742   8.091   5.337  0.4626 -0.3323  0.4170
19771SOL    HW159891   4.772   8.085   5.428  0.7430  0.4005  0.3813
19771SOL    HW259892   4.656   8.132   5.343  0.3500 -0.5621  0.3723
19772SOL     OW59893   3.851   4.753   1.801 -0.3382  0.5952  0.2634
19772SOL    HW159894   3.803   4.681   1.842  0.5407 -1.0759 -1.4556
19772SOL    HW259895   3.837   4.740   1.707 -0.2108  2.7529 -0.0982
19773SOL     OW59896   9.433   6.106   3.385  0.1859 -0.4356 -0.5157
19773SOL    HW159897   9.474   6.069   3.307 -0.1820 -0.7837 -0.5449
19773SOL    HW259898   9.344   6.125   3.358  0.2445  0.0658 -0.3714
19774SOL     OW59899   9.700   4.525   9.496 -0.2250  0.3442 -0.0571
19774SOL    HW159900   9.625   4.525   9.436 -0.6048  0.7852  0.4068
19774SOL    HW259901   9.696   4.610   9.539  0.5681  0.3832 -0.0479
19775SOL     OW59902   7.792   1.578   7.340  0.0431  0.4194 -0.0883
19775SOL    HW159903   7.822   1.535   7.420 -1.7290  0.9713  0.9436
19775SOL    HW259904   7.734   1.514   7.299  0.4141  0.3943 -0.5818
19776SOL     OW59905   1.742   4.174   1.958 -0.6072  0.2829 -0.5071
19776SOL    HW159906   1.744   4.159   1.864 -0.6847  1.1623 -0.6520
19776SOL    HW259907   1.790   4.255   1.971 -1.1889  0.5387  0.1359
19777SOL     OW59908   5.516   9.779   4.930  0.4883 -0.4104 -0.4387
19777SOL    HW159909   5.597   9.735   4.956  0.4242  0.0381  0.5325
19777SOL    HW259910   5.511   9.857   4.985 -0.0890  0.1138 -1.2058
19778SOL     OW59911   1.427   4.741   1.400 -0.2590 -0.3674 -0.0831
19778SOL    HW159912   1.449   4.656   1.440  0.0809  0.0215  0.5720
19778SOL    HW259913   1.417   4.800   1.474 -1.7982 -0.1179 -0.4633
19779SOL     OW59914   2.455   8.820   1.276  0.0445  0.0671  0.0765
19779SOL    HW159915   2.389   8.751   1.274 -0.3362  0.3965  0.8703
19779SOL    HW259916   2.528   8.783   1.325  0.7548 -0.5352 -1.3618
19780SOL     OW59917   0.551   7.138   4.077  0.0954 -0.3143  0.0593
19780SOL    HW159918   0.567   7.223   4.035 -0.5166 -0.5304 -0.6236
19780SOL    HW259919   0.458   7.141   4.102 -0.4750 -1.5567 -1.7902
19781SOL     OW59920   5.726   4.594   8.634  0.7280  0.3458  0.1190
19781SOL    HW159921   5.709   4.666   8.574  0.3750 -0.2391 -0.4924
19781SOL    HW259922   5.821   4.596   8.647  0.5810  1.7590  1.1937
19782SOL     OW59923   9.700   3.034   4.932 -0.0348  0.0052 -0.4551
19782SOL    HW159924   9.700   3.120   4.974 -0.6736 -0.0764 -0.2837
19782SOL    HW259925   9.639   3.043   4.858  0.5156 -0.0666 -0.9302
19783SOL     OW59926   5.185   2.375   4.267  0.5650 -0.2566 -0.2847
19783SOL    HW159927   5.248   2.447   4.267  0.7030 -0.3796  0.1359
19783SOL    HW259928   5.172   2.355   4.174 -0.9198  1.5671 -0.5182
19784SOL     OW59929   5.824   1.111   3.649  0.3683 -0.3754  0.5056
19784SOL    HW159930   5.804   1.197   3.612 -0.4111 -0.1709  1.3642
19784SOL    HW259931   5.919   1.104   3.644  0.4841  0.7487  0.8777
19785SOL     OW59932   4.085   2.715   1.584  0.1548 -0.0396 -0.7025
19785SOL    HW159933   4.112   2.729   1.675 -0.7572 -2.1594 -0.0207
19785SOL    HW259934   3.999   2.757   1.579  0.7977  1.2714 -1.0161
19786SOL     OW59935   7.556   1.173   0.735  0.0733 -0.6975 -0.3870
19786SOL    HW159936   7.491   1.148   0.801 -0.0695  0.7594  0.0649
19786SOL    HW259937   7.628   1.112   0.748 -0.1212 -0.6909  0.8604
19787SOL     OW59938   5.750   9.519   5.806 -0.1808 -0.0259 -0.5338
19787SOL    HW159939   5.706   9.604   5.807  1.6043  0.9784 -1.6711
19787SOL    HW259940   5.813   9.523   5.877 -1.6355 -1.3556  0.9179
19788SOL     OW59941   9.491   5.828   8.086  0.6422  0.0931  0.0056
19788SOL    HW159942   9.454   5.835   8.174  1.0290  2.4279  0.0464
19788SOL    HW259943   9.584   5.811   8.101  0.0422 -4.5292 -0.0913
19789SOL     OW59944   4.662   0.909   2.277  0.9540  0.2610  0.7442
19789SOL    HW159945   4.607   0.869   2.209  0.7450  0.1612  0.9687
19789SOL    HW259946   4.637   1.001   2.276  1.1746  0.3187  0.4741
19790SOL     OW59947   6.959   7.199   6.065  0.2792 -0.2680  0.0830
19790SOL    HW159948   7.046   7.172   6.097 -0.0700 -2.6508 -0.7899
19790SOL    HW259949   6.911   7.222   6.145  1.2867 -0.2339  0.7055
19791SOL     OW59950   7.218   6.586   7.755  0.8809 -0.0891  0.5924
19791SOL    HW159951   7.258   6.531   7.688 -1.4751 -0.6206 -0.4900
19791SOL    HW259952   7.287   6.647   7.781  1.3704  1.6682 -3.9419
19792SOL     OW59953   2.175   3.723   4.967  0.1598  0.0467 -0.0482
19792SOL    HW159954   2.091   3.678   4.962 -0.4620  0.8499  2.1021
19792SOL    HW259955   2.235   3.667   4.917 -1.1768 -1.6505  0.1597
19793SOL     OW59956   7.466   3.945   2.662  0.5778  0.0869 -0.9031
19793SOL    HW159957   7.554   3.983   2.669  0.6406 -0.2763  0.6221
19793SOL    HW259958   7.476   3.855   2.692 -0.7091  0.6873  1.6226
19794SOL     OW59959   5.502   1.980   0.086 -0.0235 -0.1436 -0.6345
19794SOL    HW159960   5.569   2.031   0.041  0.1903  0.8855  0.7844
19794SOL    HW259961   5.429   1.975   0.024  1.0564 -0.5971 -1.8902
19795SOL     OW59962   0.750   8.453   6.389 -0.3622 -0.1408 -0.0057
19795SOL    HW159963   0.713   8.463   6.301 -0.7393  1.5222  0.3086
19795SOL    HW259964   0.825   8.512   6.391 -0.1185 -0.4624  0.6704
19796SOL     OW59965   8.354   2.879   1.163 -0.3745  0.1961 -0.2901
19796SOL    HW159966   8.373   2.883   1.069 -1.8088  0.8150 -0.5722
19796SOL    HW259967   8.439   2.896   1.205  0.5867 -1.4787 -1.4356
19797SOL     OW59968   3.956   8.058   7.501 -0.1479 -0.4763  0.4973
19797SOL    HW159969   3.876   8.096   7.537 -0.9559 -1.6467  0.0133
19797SOL    HW259970   3.925   7.985   7.447  1.2443 -0.8452  0.1658
19798SOL     OW59971   9.267   2.507   0.017 -0.1916 -0.3832 -0.1884
19798SOL    HW159972   9.193   2.551   0.058 -1.3256 -1.6592 -0.7963
19798SOL    HW259973   9.293   2.564  -0.055 -0.5047  0.1227  0.0989
19799SOL     OW59974   0.401   0.972   2.179  0.0013  0.8686 -0.2745
19799SOL    HW159975   0.368   0.913   2.247  1.7044  1.3721  1.0610
19799SOL    HW259976   0.323   0.998   2.130 -0.9971 -1.3364 -0.0176
19800SOL     OW59977   3.686   9.272   7.795  0.3230 -0.1359 -0.5031
19800SOL    HW159978   3.727   9.354   7.821  1.5346 -1.0596  0.6839
19800SOL    HW259979   3.634   9.246   7.872 -1.7903  0.5227 -1.6246
19801SOL     OW59980   6.146   3.927   0.070  0.1301 -0.1740  0.1581
19801SOL    HW159981   6.230   3.885   0.086  0.3364 -0.1576 -0.8237
19801SOL    HW259982   6.160   4.019   0.094 -0.0344 -0.4377  1.3441
19802SOL     OW59983   5.933   7.853   3.069  0.7902 -0.4905 -0.3699
19802SOL    HW159984   5.978   7.865   2.985  0.1961  0.7589 -0.5273
19802SOL    HW259985   5.846   7.890   3.056  1.1776  1.1187  1.2328
19803SOL     OW59986   6.649   1.744   6.919  0.1065 -0.0603 -0.1831
19803SOL    HW159987   6.628   1.708   7.006 -2.1506 -3.2895 -1.8669
19803SOL    HW259988   6.569   1.786   6.890  0.4620 -0.0293 -1.1585
19804SOL     OW59989   5.083   9.189   9.238 -0.5861 -0.9263  0.1355
19804SOL    HW159990   5.146   9.170   9.308  1.4363 -0.1301 -1.3699
19804SOL    HW259991   5.032   9.109   9.230  1.4197 -2.3023  0.2830
19805SOL     OW59992   9.676   0.320   3.385  0.0333 -0.5053 -0.6886
19805SOL    HW159993   9.641   0.298   3.471 -0.5712 -1.1792 -1.0945
19805SOL    HW259994   9.609   0.375   3.344  0.6568  0.4568 -0.4514
19806SOL     OW59995   8.578   9.722   8.766  0.0452  0.3998  0.2381
19806SOL    HW159996   8.627   9.676   8.834 -0.0085 -0.2807 -0.1747
19806SOL    HW259997   8.498   9.751   8.809  0.9375  1.8344  1.0185
19807SOL     OW59998   9.997   2.154   4.297 -0.5045 -0.8373  0.1606
19807SOL    HW159999   9.912   2.180   4.334  1.0197  0.7351  2.9373
19807SOL    HW260000  10.005   2.205   4.217 -0.8484  1.5258  1.5591
19808SOL     OW60001   6.388   5.261   7.446  0.0669  0.3051 -0.5782
19808SOL    HW160002   6.313   5.242   7.502  0.4877  0.5836  0.0916
19808SOL    HW260003   6.449   5.309   7.502 -0.0850  1.8281 -1.6424
19809SOL     OW60004   9.083   9.870   3.768  0.1194 -0.3336 -0.1125
19809SOL    HW160005   9.164   9.847   3.812  0.7291  1.0532 -0.4614
19809SOL    HW260006   9.107   9.876   3.675  0.2713  2.5263  0.0209
19810SOL     OW60007   0.854   2.978   1.157  0.3365 -0.1932 -0.3141
19810SOL    HW160008   0.897   2.916   1.099 -1.3701 -1.0873 -0.6923
19810SOL    HW260009   0.921   3.002   1.222  1.2675 -1.7914 -0.6472
19811SOL     OW60010   0.065   8.684   2.688  0.4194 -0.5495  0.0216
19811SOL    HW160011  -0.026   8.663   2.710 -0.0230  2.5738  1.9542
19811SOL    HW260012   0.112   8.601   2.693 -2.0103 -1.9632  0.7492
19812SOL     OW60013   3.547   3.942   2.207 -0.2133  0.1409  0.5472
19812SOL    HW160014   3.606   4.015   2.186 -0.3294  0.6198  1.7775
19812SOL    HW260015   3.562   3.878   2.137 -0.1350  1.3541 -0.5769
19813SOL     OW60016   3.248   7.405   7.675  0.5002  0.0911  0.8818
19813SOL    HW160017   3.282   7.388   7.762  0.8250 -1.4496  0.4917
19813SOL    HW260018   3.321   7.445   7.628  0.9939 -0.8942  0.7722
19814SOL     OW60019   0.414   5.489   2.828  0.0113 -0.4291 -0.2967
19814SOL    HW160020   0.465   5.569   2.812 -0.2172 -0.1794  0.1953
19814SOL    HW260021   0.459   5.446   2.901 -0.7552  0.0490  0.4798
19815SOL     OW60022   2.907   4.407   4.449  0.1698 -0.0165  0.5012
19815SOL    HW160023   2.929   4.495   4.419  0.2322 -0.0997  0.3040
19815SOL    HW260024   2.922   4.409   4.544  3.3857 -0.7429  0.1025
19816SOL     OW60025   1.896   5.316   6.244  0.0522 -0.1609  0.0491
19816SOL    HW160026   1.974   5.354   6.285 -0.3719 -1.0425  1.7370
19816SOL    HW260027   1.899   5.348   6.153  1.1046  1.7357  0.6995
19817SOL     OW60028   3.597   6.329   2.067 -0.4157 -0.0842  0.3000
19817SOL    HW160029   3.595   6.248   2.116  0.8896 -0.8309 -0.8198
19817SOL    HW260030   3.683   6.330   2.024 -1.8137  0.0164 -2.7527
19818SOL     OW60031   1.665   2.986   5.883 -0.2281  0.0050 -0.1300
19818SOL    HW160032   1.594   2.990   5.818  0.3579  0.9451 -0.7458
19818SOL    HW260033   1.742   2.964   5.831  0.3776  1.4542  0.1121
19819SOL     OW60034   0.577   8.806   7.050  0.2403 -0.3086 -0.5101
19819SOL    HW160035   0.640   8.783   7.118 -0.6525 -0.0139  0.4489
19819SOL    HW260036   0.574   8.902   7.052  0.3841 -0.2921 -1.1303
19820SOL     OW60037   0.784   5.817   2.774  0.2255 -0.7478  0.1338
19820SOL    HW160038   0.689   5.823   2.784  0.2196 -1.8521  0.9145
19820SOL    HW260039   0.810   5.743   2.830  1.6363 -0.0128  0.5073
19821SOL     OW60040   1.765   5.945   1.760 -0.3931  0.9381  0.2014
19821SOL    HW160041   1.854   5.974   1.742 -0.9629  1.3404 -2.4783
19821SOL    HW260042   1.762   5.930   1.854  2.5773  0.5734  0.3133
19822SOL     OW60043   6.855   6.867   8.627  0.3523  0.3122  0.2161
19822SOL    HW160044   6.919   6.938   8.631  1.5544 -0.7378  0.3422
19822SOL    HW260045   6.866   6.829   8.540 -1.0529  0.9379 -0.2672
19823SOL     OW60046   9.449   2.088   3.766 -0.3736  0.0719 -0.5834
19823SOL    HW160047   9.540   2.060   3.760  0.5783  2.9368 -1.0021
19823SOL    HW260048   9.399   2.006   3.763  2.1144 -1.5628 -0.9461
19824SOL     OW60049   4.798   9.253   3.702 -0.0129 -0.4764  0.0202
19824SOL    HW160050   4.830   9.273   3.790 -2.7696  0.4510  0.9292
19824SOL    HW260051   4.817   9.160   3.691  1.5605 -0.3163  1.0420
19825SOL     OW60052   4.738   6.864   4.737 -0.4374  0.0861  0.0730
19825SOL    HW160053   4.708   6.936   4.680  0.3982  0.1460 -0.2968
19825SOL    HW260054   4.783   6.804   4.679 -0.8360 -0.5901  0.4415
19826SOL     OW60055   9.677   9.737   0.572 -0.9857 -1.0407  0.0822
19826SOL    HW160056   9.658   9.794   0.647  0.3583  0.7944 -0.8971
19826SOL    HW260057   9.760   9.770   0.538 -0.8335 -2.7859 -1.3354
19827SOL     OW60058   5.265   1.719   2.916  0.3363  0.2929 -0.6052
19827SOL    HW160059   5.209   1.718   2.838  1.3133  1.5347 -1.3666
19827SOL    HW260060   5.351   1.694   2.884  0.5981  0.1129  0.2207
19828SOL     OW60061   0.239   1.541   7.212  0.1804  0.7426  0.3754
19828SOL    HW160062   0.282   1.585   7.285  0.2716 -0.0514  0.8094
19828SOL    HW260063   0.215   1.454   7.246 -1.4460  1.0213  0.0321
19829SOL     OW60064   8.404   4.836   2.558 -0.4427  0.2405 -0.6074
19829SOL    HW160065   8.327   4.780   2.549 -0.1105 -0.1902 -0.8135
19829SOL    HW260066   8.446   4.806   2.638 -0.4446  0.4143 -0.5425
19830SOL     OW60067   1.271   0.167   7.582 -0.0228  0.2028 -0.3004
19830SOL    HW160068   1.248   0.251   7.543  0.4826  0.0346 -0.9827
19830SOL    HW260069   1.265   0.105   7.510  4.0775  0.3704 -1.0471
19831SOL     OW60070   1.395   0.130   8.929 -0.3454  0.5157  0.3861
19831SOL    HW160071   1.363   0.221   8.926 -0.3071  0.5421  0.7969
19831SOL    HW260072   1.490   0.139   8.925 -0.2752  0.5632  1.7200
19832SOL     OW60073   1.962   5.415   0.452 -0.4711  0.7313  0.0856
19832SOL    HW160074   1.891   5.363   0.415 -0.6692  0.5097  0.7523
19832SOL    HW260075   1.930   5.505   0.449 -0.5435  0.6990 -0.1449
19833SOL     OW60076   7.366   8.528   1.731  0.1759 -0.7086 -0.3648
19833SOL    HW160077   7.338   8.609   1.773 -0.0989 -1.7557  1.6348
19833SOL    HW260078   7.353   8.543   1.638  0.0188  1.4796 -0.0454
19834SOL     OW60079   4.665   3.463   4.183 -0.7525 -0.1827 -0.0449
19834SOL    HW160080   4.649   3.369   4.191  1.2624 -0.6604 -1.0702
19834SOL    HW260081   4.705   3.487   4.267 -1.3876 -0.1936  0.2680
19835SOL     OW60082   0.448   9.736   1.941  0.5640 -0.0270 -0.3330
19835SOL    HW160083   0.399   9.712   2.019 -0.7447  0.2608 -1.0382
19835SOL    HW260084   0.515   9.797   1.972 -0.4733  0.7428  0.4346
19836SOL     OW60085   6.952   9.652   4.856 -0.0394 -0.7847 -0.0501
19836SOL    HW160086   6.929   9.571   4.809 -2.3726 -1.2474  1.6897
19836SOL    HW260087   6.964   9.624   4.947 -1.0250  0.8422  0.6164
19837SOL     OW60088   5.222   6.856   1.754 -0.6326  0.0111 -0.3136
19837SOL    HW160089   5.192   6.797   1.824 -1.0275  2.1399  1.4250
19837SOL    HW260090   5.287   6.805   1.706 -0.6382 -1.6865  1.3504
19838SOL     OW60091   3.735   1.555   9.525 -0.3066 -0.4413  0.2054
19838SOL    HW160092   3.735   1.503   9.445 -1.6728 -0.3531  0.1194
19838SOL    HW260093   3.659   1.522   9.574 -0.1047  0.2226  0.9764
19839SOL     OW60094   0.218   4.454   2.881 -0.3188  0.0238  0.0322
19839SOL    HW160095   0.164   4.469   2.959 -1.2261 -4.9633  0.6874
19839SOL    HW260096   0.302   4.424   2.916  0.1010 -0.0136 -0.9715
19840SOL     OW60097   7.356   0.580   0.826  0.3491  0.4935 -0.7083
19840SOL    HW160098   7.314   0.534   0.898 -0.3006  2.9701  0.6162
19840SOL    HW260099   7.366   0.514   0.758 -0.1096 -1.6525  1.1905
19841SOL     OW60100   6.425   2.317   2.903 -0.4213 -0.6986 -0.4342
19841SOL    HW160101   6.498   2.272   2.860 -1.2400 -1.5545 -0.9651
19841SOL    HW260102   6.366   2.247   2.930 -0.9851 -0.0260  0.1053
19842SOL     OW60103   3.135   4.107   7.276  0.0470 -0.1933 -0.1588
19842SOL    HW160104   3.132   4.066   7.189 -3.3277  1.3145 -0.9080
19842SOL    HW260105   3.145   4.033   7.336 -0.6764 -1.6228 -1.6944
19843SOL     OW60106   1.858   9.592   9.444  0.6101 -0.2054 -0.4561
19843SOL    HW160107   1.777   9.636   9.470  0.0230 -0.2364 -2.0834
19843SOL    HW260108   1.883   9.539   9.519 -0.8864 -0.1995  0.0715
19844SOL     OW60109   6.652   8.446   9.748  0.2696  1.2755  0.3121
19844SOL    HW160110   6.634   8.445   9.842  0.6151 -0.9541  0.4145
19844SOL    HW260111   6.706   8.523   9.735  0.8881  1.1880  2.1011
19845SOL     OW60112   9.753   0.827   2.892  0.5388 -0.2036 -0.4358
19845SOL    HW160113   9.794   0.864   2.971  0.9777 -0.9152 -0.3239
19845SOL    HW260114   9.792   0.877   2.820 -1.0309  1.5558 -0.1582
19846SOL     OW60115   8.723   3.131   8.385 -0.3463 -0.3882 -0.6169
19846SOL    HW160116   8.794   3.084   8.429 -0.0625  0.0930 -0.5536
19846SOL    HW260117   8.758   3.219   8.369 -1.3301  0.2451  0.5067
19847SOL     OW60118   3.387   3.439   1.023  0.0253  0.5992  0.2662
19847SOL    HW160119   3.358   3.433   0.932 -2.0877  0.2680  0.9043
19847SOL    HW260120   3.452   3.369   1.032 -1.8537 -1.3498 -0.3172
19848SOL     OW60121   7.724   4.288   8.955 -0.4044  0.0762  0.7084
19848SOL    HW160122   7.630   4.289   8.972 -0.9117 -0.8816 -1.6667
19848SOL    HW260123   7.741   4.202   8.916  1.7040 -0.2322  2.1410
19849SOL     OW60124   0.397   1.311   2.984 -0.4797  0.2247  0.1254
19849SOL    HW160125   0.331   1.365   3.027  0.0074  0.9172  0.0231
19849SOL    HW260126   0.472   1.369   2.973  0.2676 -0.6379  0.5319
19850SOL     OW60127   0.428   3.046   4.876 -0.2594 -0.2039  0.1608
19850SOL    HW160128   0.348   3.091   4.849 -0.7958 -0.7273  0.8462
19850SOL    HW260129   0.471   3.108   4.934  0.2725  0.4208 -0.8756
19851SOL     OW60130   0.145   9.121   6.493  0.8019 -0.4644  0.5840
19851SOL    HW160131   0.132   9.055   6.426  0.0655 -1.2238  1.4614
19851SOL    HW260132   0.067   9.117   6.548  0.3404  1.7014  0.1966
19852SOL     OW60133   7.180   2.123   0.686 -0.8289  0.8281  0.2404
19852SOL    HW160134   7.149   2.108   0.597 -0.9839  1.1617  0.2374
19852SOL    HW260135   7.210   2.214   0.687  0.6095  0.3703  0.1138
19853SOL     OW60136   8.756   4.533   7.098  0.0181  0.0722  0.3841
19853SOL    HW160137   8.774   4.579   7.180 -1.7050  1.3312  0.1290
19853SOL    HW260138   8.838   4.536   7.050  0.7818  0.1888  1.6407
19854SOL     OW60139   9.621   9.483   0.524 -0.1559 -0.0297  0.0413
19854SOL    HW160140   9.611   9.436   0.607 -1.1382  0.2630  0.0966
19854SOL    HW260141   9.665   9.564   0.548 -1.8219  0.7719  0.5530
19855SOL     OW60142   7.666   9.689   3.795 -0.3711 -0.2342 -0.7014
19855SOL    HW160143   7.649   9.653   3.882  2.9454  1.3498  0.7452
19855SOL    HW260144   7.760   9.677   3.781 -0.4534  1.2764 -3.2626
19856SOL     OW60145   9.563   6.230   4.882  0.4510 -0.3315  0.6171
19856SOL    HW160146   9.636   6.240   4.943  0.1400 -0.9494  1.1089
19856SOL    HW260147   9.594   6.168   4.817  1.5370  1.8869 -1.0879
19857SOL     OW60148   5.622   1.714   1.973 -0.1808 -0.2616 -0.3851
19857SOL    HW160149   5.688   1.782   1.990  0.0555 -0.3989 -0.7319
19857SOL    HW260150   5.673   1.638   1.946 -0.5054 -0.1644 -1.3388
19858SOL     OW60151   6.594   6.286   9.973 -0.5804 -0.4666 -0.2874
19858SOL    HW160152   6.676   6.319   9.935  0.1750  0.7655  2.1867
19858SOL    HW260153   6.527   6.347   9.942  0.0908  0.7885  0.6115
19859SOL     OW60154   5.070   7.700   3.462 -0.1087 -0.0394 -0.0925
19859SOL    HW160155   5.008   7.756   3.416 -1.2940 -0.6085  0.7772
19859SOL    HW260156   5.152   7.712   3.414 -0.4131  2.0954 -0.1791
19860SOL     OW60157   7.372   4.866   9.657  0.0487  0.2573 -0.1558
19860SOL    HW160158   7.362   4.795   9.593 -2.4807 -0.4083  0.8586
19860SOL    HW260159   7.333   4.942   9.614  1.4070  0.7037 -0.6571
19861SOL     OW60160   4.991   6.347   7.602 -0.2256  0.0459  0.9911
19861SOL    HW160161   5.049   6.273   7.581 -0.4375  0.0649  0.3090
19861SOL    HW260162   4.908   6.325   7.559 -0.0406  1.0710  0.0690
19862SOL     OW60163   8.235   4.816   1.620  0.2391 -0.3133  0.1058
19862SOL    HW160164   8.190   4.807   1.704 -0.0561 -1.0106 -0.1187
19862SOL    HW260165   8.260   4.727   1.596  0.9255 -0.0396 -0.2223
19863SOL     OW60166   8.879   0.058   0.524  0.7284 -0.2965 -0.5375
19863SOL    HW160167   8.955   0.032   0.574  0.3715 -2.9197 -1.1858
19863SOL    HW260168   8.811   0.075   0.589  0.8516 -1.6245 -0.0328
19864SOL     OW60169   5.446   4.830   8.092 -0.1428  0.3863 -0.0334
19864SOL    HW160170   5.484   4.775   8.024 -1.1021  1.0839 -1.1545
19864SOL    HW260171   5.381   4.774   8.135 -0.5145  0.3610 -0.6149
19865SOL     OW60172   3.825   6.083   9.400 -0.2743  0.5089  0.3027
19865SOL    HW160173   3.910   6.040   9.412  1.2870  3.1718 -0.4987
19865SOL    HW260174   3.787   6.085   9.488  0.5217 -0.5641  0.6995
19866SOL     OW60175   2.341   2.395   0.938  0.3107  0.0606 -0.2135
19866SOL    HW160176   2.371   2.389   0.848 -0.5515  0.1792 -0.5156
19866SOL    HW260177   2.403   2.456   0.980  1.4555 -0.9443 -0.3843
19867SOL     OW60178   9.656   4.016   5.903 -0.2268  0.7273  0.1621
19867SOL    HW160179   9.722   4.006   5.972 -1.0238  0.5126  0.9088
19867SOL    HW260180   9.671   3.940   5.846  0.6275  1.0632 -0.0869
19868SOL     OW60181   3.315   8.951   1.010 -0.4500 -0.5264 -0.8390
19868SOL    HW160182   3.327   9.024   1.071  0.4149 -0.5084 -1.0302
19868SOL    HW260183   3.383   8.888   1.034 -1.7066 -1.6738 -0.1138
19869SOL     OW60184   1.659   2.851   0.855 -0.3917 -0.0410  0.8913
19869SOL    HW160185   1.728   2.890   0.909 -1.8913  0.4524  2.5777
19869SOL    HW260186   1.686   2.760   0.842  1.2018  0.4899  0.3731
19870SOL     OW60187   5.852   5.361   0.737 -0.1496 -0.3280  0.6562
19870SOL    HW160188   5.775   5.305   0.741  0.4252 -1.0712  1.5031
19870SOL    HW260189   5.828   5.438   0.788 -1.2497  0.6455 -1.1912
19871SOL     OW60190   9.472   4.731   5.422 -0.2595 -0.4545 -0.3485
19871SOL    HW160191   9.505   4.667   5.484  0.8795  0.6603  0.2372
19871SOL    HW260192   9.538   4.734   5.353  0.9223  1.6950  0.7641
19872SOL     OW60193   3.206   8.491   0.230 -0.0897  0.4386 -0.2706
19872SOL    HW160194   3.300   8.495   0.218 -0.1042 -0.9535 -1.0998
19872SOL    HW260195   3.172   8.568   0.184  0.5074 -0.1868 -1.8170
19873SOL     OW60196   1.221   4.688   7.014  0.0980  0.3300 -0.3687
19873SOL    HW160197   1.243   4.715   6.925  1.5134 -1.5574 -0.6750
19873SOL    HW260198   1.163   4.612   7.003  3.1379 -2.2691  0.0837
19874SOL     OW60199   4.861   3.914   5.302 -0.0843  0.1879  0.7511
19874SOL    HW160200   4.856   3.945   5.212 -0.4632 -0.6124  0.4864
19874SOL    HW260201   4.924   3.973   5.344  0.9563 -0.1106 -0.3176
19875SOL     OW60202   3.905   0.127   6.944 -0.4415 -0.1989  0.2000
19875SOL    HW160203   3.937   0.070   6.874 -0.4437  0.0676 -0.0170
19875SOL    HW260204   3.810   0.127   6.935 -0.4462 -0.2168  0.2461
19876SOL     OW60205   0.511   3.865   2.715 -0.2622 -0.1648 -0.0935
19876SOL    HW160206   0.419   3.840   2.704 -0.2586  0.0079 -0.5299
19876SOL    HW260207   0.515   3.907   2.801 -1.0328  1.8513 -1.0032
19877SOL     OW60208   6.747   3.109   2.400 -0.1435  0.1542  0.2776
19877SOL    HW160209   6.780   3.162   2.473  0.3140 -0.7100  0.7111
19877SOL    HW260210   6.782   3.152   2.322  0.3554  0.3998  0.6278
19878SOL     OW60211   9.733   6.441   7.928 -0.5504  0.5567  0.1435
19878SOL    HW160212   9.652   6.484   7.955 -0.0538  1.1246  0.7700
19878SOL    HW260213   9.754   6.383   8.001  0.0240  1.0083  0.3426
19879SOL     OW60214   3.525   6.628   5.115 -0.4357  0.1499 -0.0418
19879SOL    HW160215   3.477   6.711   5.120 -1.0418 -0.2376  0.7318
19879SOL    HW260216   3.509   6.597   5.026  0.0610  1.0115 -0.4454
19880SOL     OW60217   9.936   8.517   1.699  0.1330 -0.0460  0.2679
19880SOL    HW160218   9.857   8.571   1.708 -0.3031 -0.7010  0.4343
19880SOL    HW260219   9.993   8.548   1.769 -0.1776  0.0937  0.4652
19881SOL     OW60220   8.984   4.600   3.726  0.0206 -0.1064 -0.4465
19881SOL    HW160221   9.044   4.669   3.699 -2.2053  1.5402 -1.5347
19881SOL    HW260222   8.936   4.578   3.646 -1.9515 -0.1256  0.6790
19882SOL     OW60223   2.202   8.628   3.168 -0.2455  0.2649  0.0520
19882SOL    HW160224   2.285   8.599   3.131 -0.2858  2.3132 -1.9190
19882SOL    HW260225   2.222   8.650   3.259  1.1960  0.0296 -0.1870
19883SOL     OW60226   0.743   6.238   3.639 -0.3484  0.3013  0.1918
19883SOL    HW160227   0.715   6.197   3.557 -1.2590 -1.8382  1.4783
19883SOL    HW260228   0.703   6.325   3.637 -0.6389  0.1650 -1.4624
19884SOL     OW60229   0.272   4.575   4.786 -0.2261 -0.1868  0.1799
19884SOL    HW160230   0.197   4.562   4.844 -0.4129 -1.2977 -0.2864
19884SOL    HW260231   0.270   4.500   4.726  0.8605  0.1242 -0.2789
19885SOL     OW60232   9.827   6.092   9.816  0.5413 -1.2647 -0.4532
19885SOL    HW160233   9.769   6.046   9.876  0.5870 -1.0873 -0.2740
19885SOL    HW260234   9.901   6.120   9.870  0.6770 -1.2769 -0.6315
19886SOL     OW60235   6.751   4.328   0.669  0.4492  0.2520  0.3571
19886SOL    HW160236   6.837   4.327   0.625  0.3612 -1.2710  0.1822
19886SOL    HW260237   6.697   4.384   0.613  0.8447 -0.2082 -0.5004
19887SOL     OW60238   2.324   6.095   0.559  0.1266  0.1443 -0.1158
19887SOL    HW160239   2.294   6.025   0.502 -0.9207  0.6984 -0.2824
19887SOL    HW260240   2.325   6.173   0.503 -0.9935  0.7067  0.6163
19888SOL     OW60241   0.800   7.622   6.432 -0.1632  0.2189 -0.1546
19888SOL    HW160242   0.766   7.633   6.343  1.3836  1.7094 -0.6148
19888SOL    HW260243   0.762   7.539   6.461 -1.0229 -0.1300 -2.0415
19889SOL     OW60244   0.535   8.175   3.090 -0.4876  0.2302 -0.2235
19889SOL    HW160245   0.598   8.131   3.148 -0.5157 -0.0522 -0.4094
19889SOL    HW260246   0.534   8.123   3.010 -0.0793  0.8998 -0.6789
19890SOL     OW60247   3.702   2.821   3.694 -0.4738  0.1036  0.6132
19890SOL    HW160248   3.747   2.737   3.707 -0.1098  0.1539 -0.2522
19890SOL    HW260249   3.741   2.879   3.758  0.2397 -0.0331  0.3101
19891SOL     OW60250   1.689   6.805   1.045  0.9480 -0.4999 -0.2452
19891SOL    HW160251   1.773   6.759   1.044  1.5730  0.6227 -0.2302
19891SOL    HW260252   1.671   6.820   1.138  1.2284  0.1378 -0.2895
19892SOL     OW60253   3.239   8.858   2.612  0.1539 -0.4969 -0.0636
19892SOL    HW160254   3.296   8.836   2.686  0.0301 -0.5872  0.0051
19892SOL    HW260255   3.298   8.857   2.536  0.2597 -0.5120  0.0173
19893SOL     OW60256   3.065   6.700   7.336  0.1294  0.3487 -0.6295
19893SOL    HW160257   2.972   6.679   7.326 -0.1944  0.7651  1.0699
19893SOL    HW260258   3.067   6.795   7.347  0.9890  0.5958 -2.6411
19894SOL     OW60259   5.234   1.151   0.321  0.3118 -0.7612  0.1109
19894SOL    HW160260   5.172   1.131   0.391  1.0999 -0.6823  0.8538
19894SOL    HW260261   5.292   1.216   0.359 -0.5567  0.9552 -1.3582
19895SOL     OW60262   5.067   2.011   8.028  0.1966 -0.1335 -0.2642
19895SOL    HW160263   5.098   2.083   8.084  2.3881 -1.1816  0.0022
19895SOL    HW260264   5.108   2.028   7.943  2.5816 -2.0996  0.3699
19896SOL     OW60265   0.660   6.909   3.981 -0.0565  0.4057 -0.1329
19896SOL    HW160266   0.619   6.994   3.996  0.3418  0.6024 -0.1620
19896SOL    HW260267   0.713   6.921   3.902  1.0704  0.5111  0.6259
19897SOL     OW60268   3.137   2.655   0.946  0.2548  0.0384  0.3927
19897SOL    HW160269   3.104   2.566   0.939  0.1777  0.0120  1.0299
19897SOL    HW260270   3.232   2.645   0.956  0.2909  0.0455  0.0476
19898SOL     OW60271   7.825   4.078   0.643  0.0832 -0.7681 -0.1025
19898SOL    HW160272   7.754   4.142   0.649  0.0830 -0.8912  1.6923
19898SOL    HW260273   7.902   4.129   0.616 -0.4237 -0.4561 -1.0057
19899SOL     OW60274   4.165   0.749   1.087 -0.1174  0.3999  0.5032
19899SOL    HW160275   4.112   0.825   1.109  1.6399  2.3005 -1.4107
19899SOL    HW260276   4.144   0.730   0.996 -0.3388 -1.3087  0.8696
19900SOL     OW60277   9.934   4.554   5.477 -0.1298  0.4136  0.1106
19900SOL    HW160278   9.986   4.523   5.551  0.4844  3.3441  1.0341
19900SOL    HW260279   9.998   4.566   5.407 -0.1950  0.4357  0.0550
19901SOL     OW60280   2.248   2.460   1.977  0.2162 -0.0121  0.3017
19901SOL    HW160281   2.298   2.448   1.897 -0.0539  0.2379  0.0947
19901SOL    HW260282   2.214   2.549   1.972  0.1482 -0.0160  0.6641
19902SOL     OW60283   8.216   1.829   1.459 -0.3895 -0.1754  0.2534
19902SOL    HW160284   8.199   1.910   1.410 -0.4447 -1.2068 -1.4964
19902SOL    HW260285   8.287   1.852   1.519 -0.3300  1.1445 -0.2899
19903SOL     OW60286   1.306   3.673   6.586  0.5740  0.2776 -0.2482
19903SOL    HW160287   1.327   3.744   6.647  1.7973  1.1656 -1.6296
19903SOL    HW260288   1.230   3.704   6.537 -0.5384 -0.5219  0.8884
19904SOL     OW60289   6.353   2.920   8.644 -0.2471 -0.0583  0.3927
19904SOL    HW160290   6.345   2.860   8.718  0.1902  0.0285  0.5139
19904SOL    HW260291   6.392   2.867   8.575 -2.6288 -0.7536 -0.5203
19905SOL     OW60292   3.518   0.770   0.131  0.1946  0.2653 -0.3761
19905SOL    HW160293   3.524   0.682   0.093  0.5089  0.5362 -0.9666
19905SOL    HW260294   3.484   0.756   0.219 -3.4930 -0.1724 -1.7041
19906SOL     OW60295   5.289   1.334   6.169 -0.1075  0.4237  0.2544
19906SOL    HW160296   5.299   1.358   6.077  2.1588  1.0604  0.6016
19906SOL    HW260297   5.303   1.240   6.171  1.8968  0.6755  0.1340
19907SOL     OW60298   6.728   8.617   5.411  0.2582  0.7843 -0.0723
19907SOL    HW160299   6.813   8.607   5.369 -0.1643  0.5290 -0.9025
19907SOL    HW260300   6.672   8.654   5.342 -0.6842 -0.4962 -0.0363
19908SOL     OW60301   0.887   3.793   7.930  0.3264 -0.4257  0.0039
19908SOL    HW160302   0.963   3.746   7.895 -0.7883 -2.3883  0.0550
19908SOL    HW260303   0.814   3.760   7.878 -0.5584  1.2727  0.0932
19909SOL     OW60304   6.431   0.982   7.686  0.4315  0.1573  0.1993
19909SOL    HW160305   6.409   0.949   7.774  2.3545 -0.5255  0.4807
19909SOL    HW260306   6.485   1.059   7.703 -0.2785  0.7986 -0.4197
19910SOL     OW60307   0.747   0.871   6.357  0.1539 -0.3284  0.1384
19910SOL    HW160308   0.813   0.863   6.426 -0.3298 -1.4177  0.4960
19910SOL    HW260309   0.797   0.880   6.276  0.7627 -1.5559  0.3585
19911SOL     OW60310   3.754   1.745   6.651 -0.2135 -0.2971  0.6983
19911SOL    HW160311   3.719   1.691   6.723 -0.5038  0.3614  1.0593
19911SOL    HW260312   3.703   1.826   6.656 -1.3083 -0.8078 -1.2102
19912SOL     OW60313   7.976   3.415   4.971 -0.4589 -0.1816  0.2316
19912SOL    HW160314   7.908   3.438   5.034  2.0014  1.3563  2.5452
19912SOL    HW260315   8.041   3.485   4.978  2.2633 -2.4237 -0.4650
19913SOL     OW60316   2.302   2.486   8.307 -0.0769 -0.3400  0.2999
19913SOL    HW160317   2.340   2.446   8.385 -0.3756 -0.3844  0.4252
19913SOL    HW260318   2.294   2.414   8.244 -3.0663 -1.1272  1.4134
19914SOL     OW60319   4.879   2.445   0.810 -0.0343 -0.0880 -0.0857
19914SOL    HW160320   4.837   2.375   0.759 -0.9896 -0.8799  1.6973
19914SOL    HW260321   4.892   2.516   0.747 -0.9606 -1.0936 -1.4748
19915SOL     OW60322   0.398   7.282   7.350  0.0105 -0.3938  0.1899
19915SOL    HW160323   0.350   7.293   7.269  0.8654  0.4500 -0.2238
19915SOL    HW260324   0.390   7.189   7.371  0.6201 -0.8266 -1.4014
19916SOL     OW60325   9.239   0.271   9.545  1.1274  0.3856  1.0451
19916SOL    HW160326   9.329   0.259   9.575  1.7879  1.2452 -0.4875
19916SOL    HW260327   9.240   0.355   9.499 -0.6141  0.7018  1.5090
19917SOL     OW60328   0.765   6.616   9.111  0.5354  0.0143 -0.3509
19917SOL    HW160329   0.805   6.616   9.198  0.0072  2.2461 -0.0669
19917SOL    HW260330   0.832   6.654   9.054  0.3819 -0.2039 -0.6807
19918SOL     OW60331   5.590   8.636   9.795  0.6156  0.5852  0.1750
19918SOL    HW160332   5.647   8.605   9.724 -0.4356  1.1669 -0.9702
19918SOL    HW260333   5.650   8.661   9.865  1.7402  0.6918 -0.7917
19919SOL     OW60334   3.268   3.384   6.015 -0.1436  0.1119 -0.0350
19919SOL    HW160335   3.241   3.296   5.992 -1.2476  0.6760 -0.9752
19919SOL    HW260336   3.197   3.418   6.070  0.2029  0.4727  0.1999
19920SOL     OW60337   5.400   9.683   0.166 -0.1654  0.4774 -0.3475
19920SOL    HW160338   5.355   9.735   0.100 -0.6445  1.0716  0.4229
19920SOL    HW260339   5.464   9.743   0.204  0.1123  0.1394 -0.2801
19921SOL     OW60340   7.818   4.898   7.199 -0.1596  0.1874 -0.2252
19921SOL    HW160341   7.786   4.816   7.161  1.2303 -0.1305 -0.7742
19921SOL    HW260342   7.845   4.951   7.124 -1.1271  1.2064  0.1191
19922SOL     OW60343   6.650   3.354   3.177  0.1062  0.2672  0.1692
19922SOL    HW160344   6.734   3.309   3.171  0.6884  1.4205 -0.6352
19922SOL    HW260345   6.631   3.383   3.088 -1.2175 -0.0735  0.3099
19923SOL     OW60346   2.186   3.983   7.893  0.4421 -0.3415 -0.1596
19923SOL    HW160347   2.178   4.015   7.803 -0.2894  0.4833  0.1884
19923SOL    HW260348   2.115   3.920   7.902  0.6812 -0.6253 -0.2354
19924SOL     OW60349   9.646   7.393   8.029  0.4749  0.3366  0.0145
19924SOL    HW160350   9.651   7.316   7.972 -1.1089  0.7118 -0.6911
19924SOL    HW260351   9.556   7.393   8.061  0.7230  1.3809  0.7505
19925SOL     OW60352   7.203   2.469   8.952 -0.8645  0.0352  0.2189
19925SOL    HW160353   7.185   2.426   8.868 -2.0602 -0.1515  0.5609
19925SOL    HW260354   7.186   2.562   8.935  0.1051  0.1717 -0.0686
19926SOL     OW60355   4.808   6.422   4.668 -0.2319 -0.2360 -0.2056
19926SOL    HW160356   4.748   6.347   4.662  0.3221 -0.6017 -1.6278
19926SOL    HW260357   4.862   6.416   4.589 -0.1088  1.6223 -0.3101
19927SOL     OW60358   2.874   6.873   1.215 -0.0412  0.2359 -0.2063
19927SOL    HW160359   2.922   6.951   1.187 -1.1073  0.8623 -0.3478
19927SOL    HW260360   2.840   6.895   1.302  1.7720 -1.0426  0.9032
19928SOL     OW60361   6.977   2.141   3.800 -0.1483  0.4414 -0.1583
19928SOL    HW160362   6.942   2.053   3.813  1.3343 -0.0116  0.9954
19928SOL    HW260363   6.906   2.189   3.756 -0.9659 -1.3144 -0.8407
19929SOL     OW60364   2.477   4.636   7.462 -0.0966  0.7486  0.9767
19929SOL    HW160365   2.564   4.676   7.459  0.4240 -0.2103  2.3879
19929SOL    HW260366   2.441   4.653   7.375  1.4122  1.3397  0.4176
19930SOL     OW60367   4.887   5.424   4.850 -0.2350 -0.6560 -0.0043
19930SOL    HW160368   4.947   5.496   4.870 -0.1515  0.3924 -3.4165
19930SOL    HW260369   4.929   5.346   4.887  2.1898  0.3571 -0.4382
19931SOL     OW60370   2.593   2.826   7.255 -0.1252  0.9634  0.4474
19931SOL    HW160371   2.529   2.853   7.191 -0.9570  0.4146  1.0261
19931SOL    HW260372   2.603   2.732   7.241  0.4622  1.0172  0.4511
19932SOL     OW60373   5.303   2.723   6.702  0.2345 -0.8945 -0.0795
19932SOL    HW160374   5.362   2.786   6.742 -1.6796  1.0965 -0.2080
19932SOL    HW260375   5.276   2.666   6.774 -1.7022  1.4668  1.2196
19933SOL     OW60376   6.397   9.593   3.705  0.2774  0.0629 -0.1483
19933SOL    HW160377   6.478   9.624   3.745  1.1537 -2.7107  0.4610
19933SOL    HW260378   6.339   9.669   3.706  2.2497  1.6595  1.0415
19934SOL     OW60379   8.967   5.491   7.729 -0.2366 -0.3920  0.1120
19934SOL    HW160380   8.955   5.527   7.641 -0.0319 -0.9410 -0.1467
19934SOL    HW260381   9.005   5.404   7.714 -0.5788 -0.6498  0.7277
19935SOL     OW60382   3.799   6.048   5.385  0.3488  0.0574 -0.2614
19935SOL    HW160383   3.887   6.076   5.412  0.1180  0.4783  0.0534
19935SOL    HW260384   3.811   6.016   5.296  1.3677 -2.4479  0.6820
19936SOL     OW60385   7.820   7.738   6.143 -0.1758  0.0094 -0.1866
19936SOL    HW160386   7.829   7.656   6.191 -1.3075 -0.4506 -0.7140
19936SOL    HW260387   7.909   7.771   6.133  0.2517 -0.9436  0.3859
19937SOL     OW60388   5.086   8.267   1.881  0.0622 -0.0788  0.4267
19937SOL    HW160389   5.012   8.211   1.857  0.7173 -0.4452 -0.7917
19937SOL    HW260390   5.164   8.218   1.855  0.6668  1.2240 -0.3636
19938SOL     OW60391   8.990   8.826   6.928  0.2103 -0.3839 -0.4417
19938SOL    HW160392   8.943   8.862   7.003  0.1978  1.1124 -1.1278
19938SOL    HW260393   8.945   8.864   6.852  1.2830 -0.5192 -1.1563
19939SOL     OW60394   7.618   9.302   5.123  0.4014  0.3601 -0.3515
19939SOL    HW160395   7.613   9.368   5.192 -0.4092 -0.2200  0.1630
19939SOL    HW260396   7.652   9.224   5.167 -0.6431 -0.1770 -0.4657
19940SOL     OW60397   5.264   1.477   4.122 -0.1826 -0.2216  0.2088
19940SOL    HW160398   5.263   1.551   4.061  0.1529  0.1603  0.6495
19940SOL    HW260399   5.215   1.408   4.078  0.6706 -0.2111 -0.8040
19941SOL     OW60400   7.765   5.815   0.814  0.0057 -0.6224 -0.3164
19941SOL    HW160401   7.859   5.832   0.813 -0.3423  3.0453  3.2786
19941SOL    HW260402   7.756   5.725   0.845  2.2031 -1.6194 -2.2989
19942SOL     OW60403   6.289   9.411   0.542 -0.3522  0.1157  0.4329
19942SOL    HW160404   6.203   9.399   0.584 -0.4938  0.5031  0.2612
19942SOL    HW260405   6.269   9.442   0.454 -0.0255  1.5176  0.8260
19943SOL     OW60406   9.931   8.271   6.609  0.0380 -0.3591  0.1337
19943SOL    HW160407  10.024   8.295   6.610  0.2926 -1.3004  0.9833
19943SOL    HW260408   9.931   8.177   6.628 -1.1664 -0.1243  1.3867
19944SOL     OW60409   7.548   8.892   2.600 -0.0308  0.3818 -0.7719
19944SOL    HW160410   7.548   8.970   2.545 -1.3858 -1.1272 -3.0856
19944SOL    HW260411   7.592   8.826   2.548  0.4279 -0.6186  0.8234
19945SOL     OW60412   7.775   4.964   6.779 -0.1575 -0.3691 -0.6813
19945SOL    HW160413   7.815   4.877   6.768 -0.2685 -0.3586 -1.2172
19945SOL    HW260414   7.694   4.959   6.727 -0.9445 -0.4460  0.5229
19946SOL     OW60415   8.449   8.439   8.705  0.3224  0.1024 -0.4371
19946SOL    HW160416   8.390   8.482   8.766  0.5722  0.1005 -0.1941
19946SOL    HW260417   8.528   8.420   8.756  0.3851 -0.2411 -0.6589
19947SOL     OW60418   4.569   3.820   0.547  0.2712 -0.0713 -0.2551
19947SOL    HW160419   4.584   3.887   0.481 -2.2027  1.3822  0.4993
19947SOL    HW260420   4.656   3.791   0.574  1.4043  2.2398 -1.2207
19948SOL     OW60421   2.029   4.484   9.799 -0.6106 -0.0749  0.3992
19948SOL    HW160422   2.040   4.516   9.710  0.9407  1.3648  1.0657
19948SOL    HW260423   1.938   4.503   9.820 -1.2044 -1.0417 -1.0606
19949SOL     OW60424   5.431   0.998   5.833  0.3962 -0.4081  0.6590
19949SOL    HW160425   5.380   0.944   5.771 -0.0156  0.0067  0.6288
19949SOL    HW260426   5.443   1.081   5.787 -0.3448  0.0788  1.3296
19950SOL     OW60427   1.459   4.227   0.667  0.3199 -0.4265 -0.5907
19950SOL    HW160428   1.551   4.216   0.642  0.1885 -2.4071 -0.3927
19950SOL    HW260429   1.410   4.206   0.588 -0.0003 -3.2939  0.2416
19951SOL     OW60430   1.373   0.888   6.676 -0.5100 -0.1230  0.2459
19951SOL    HW160431   1.339   0.800   6.654  0.4516 -0.5562  0.4550
19951SOL    HW260432   1.371   0.935   6.593 -1.3395 -0.2260  0.1919
19952SOL     OW60433   4.721   3.542   2.115  0.0301 -0.1624 -0.2015
19952SOL    HW160434   4.736   3.637   2.117 -0.0994 -0.1384  1.2465
19952SOL    HW260435   4.797   3.506   2.070 -0.5746  0.7098 -2.0223
19953SOL     OW60436   1.153   4.870   8.793  0.0045  0.5306 -0.3424
19953SOL    HW160437   1.071   4.821   8.787  0.5575 -0.7211  1.6086
19953SOL    HW260438   1.219   4.809   8.761  0.4002  0.9024 -0.2361
19954SOL     OW60439   3.388   8.960   5.790  0.4905 -0.2265  0.4319
19954SOL    HW160440   3.416   9.020   5.720  2.2719 -0.8468  0.5677
19954SOL    HW260441   3.347   9.018   5.854 -0.0837  0.5151 -0.5615
19955SOL     OW60442   4.536   8.485   1.775 -0.0557  0.4598  0.2976
19955SOL    HW160443   4.549   8.575   1.745 -1.0949  0.6319  0.3314
19955SOL    HW260444   4.618   8.441   1.752  1.1959  1.8236  1.8829
19956SOL     OW60445   4.953   3.474   9.464 -0.2843  0.1736 -0.5745
19956SOL    HW160446   4.911   3.497   9.547  0.3597 -0.7653  0.0256
19956SOL    HW260447   4.987   3.386   9.477  0.0774  0.1152 -1.7476
19957SOL     OW60448   2.307   3.814   6.895 -0.1843  0.6058 -0.1082
19957SOL    HW160449   2.237   3.796   6.958 -0.9514  0.5485 -0.9553
19957SOL    HW260450   2.277   3.890   6.847 -0.2112 -0.1243 -1.2698
19958SOL     OW60451   0.692   6.118   5.779 -0.0131  0.0280  0.2157
19958SOL    HW160452   0.712   6.208   5.802  0.4482  0.0811 -0.3674
19958SOL    HW260453   0.771   6.069   5.801 -0.9299 -0.5960  2.3917
19959SOL     OW60454   8.950   8.436   5.084  0.3884  0.2045 -0.3241
19959SOL    HW160455   9.038   8.473   5.077  1.0476 -1.1581  0.4088
19959SOL    HW260456   8.946   8.369   5.015  0.5813 -0.9442  0.7329
19960SOL     OW60457   7.568   7.522   6.029 -0.2460 -0.3034  0.4079
19960SOL    HW160458   7.552   7.547   5.938 -0.0728 -0.3230  0.3711
19960SOL    HW260459   7.481   7.505   6.065 -0.3178 -0.2537  0.2585
19961SOL     OW60460   2.558   3.703   2.096 -0.1127  0.5389 -0.1793
19961SOL    HW160461   2.617   3.627   2.087 -1.2010 -0.2293 -1.0789
19961SOL    HW260462   2.559   3.744   2.010 -0.3593  0.9335  0.0030
19962SOL     OW60463   8.229   8.566   9.817 -0.2109 -0.1991  0.3338
19962SOL    HW160464   8.285   8.640   9.792  1.1242 -1.0753  0.6332
19962SOL    HW260465   8.140   8.602   9.814  0.2180  0.8845 -1.4836
19963SOL     OW60466   0.306   9.592   4.870 -0.1147  0.0559  0.2896
19963SOL    HW160467   0.351   9.550   4.797  0.0913 -0.4234  0.6876
19963SOL    HW260468   0.213   9.580   4.852 -0.1167  1.2095 -0.6344
19964SOL     OW60469   1.885   8.393   0.452 -0.3968  0.3031  0.0438
19964SOL    HW160470   1.913   8.431   0.536  0.0210 -0.4473  0.2536
19964SOL    HW260471   1.876   8.468   0.394  0.3350  0.7391  0.4717
19965SOL     OW60472   2.129   0.641   5.950  0.5928  0.1278  0.2302
19965SOL    HW160473   2.210   0.607   5.989  0.5101  0.8498  1.0520
19965SOL    HW260474   2.146   0.734   5.936  0.1174  0.1580 -0.1743
19966SOL     OW60475   4.005   8.881   2.342  0.2023  0.6090  0.1409
19966SOL    HW160476   4.033   8.933   2.418 -1.2502  0.3303  0.9081
19966SOL    HW260477   3.974   8.799   2.379 -0.9373  0.6363 -0.7089
19967SOL     OW60478   3.312   9.680   8.272  0.2995 -0.4897 -0.1891
19967SOL    HW160479   3.297   9.764   8.315  1.4954 -0.6388  0.5767
19967SOL    HW260480   3.266   9.686   8.189  0.4700  0.9705 -0.1892
19968SOL     OW60481   2.203   1.677   0.782  0.3888 -0.1557  0.3102
19968SOL    HW160482   2.278   1.618   0.773 -0.3645 -1.4890  2.1109
19968SOL    HW260483   2.140   1.646   0.716  1.0014  0.3050 -0.4998
19969SOL     OW60484   9.218   6.841   7.201  0.9866 -0.4937  0.1208
19969SOL    HW160485   9.196   6.797   7.283  1.7749  0.0422  0.6395
19969SOL    HW260486   9.205   6.774   7.134  0.3644 -0.9499  0.6818
19970SOL     OW60487   9.290   2.434   9.665 -0.0871  0.0056  0.3375
19970SOL    HW160488   9.286   2.453   9.571 -1.6331 -1.4549  0.0431
19970SOL    HW260489   9.202   2.453   9.697 -0.3926 -2.0700  0.9026
19971SOL     OW60490   2.675   3.339   6.732  0.2609  0.1788 -0.7518
19971SOL    HW160491   2.630   3.407   6.782 -0.3565 -0.1178 -0.8981
19971SOL    HW260492   2.605   3.285   6.696  0.7635 -1.3990  0.5404
19972SOL     OW60493   0.921   3.771   1.494  0.0489  0.2024  0.3928
19972SOL    HW160494   0.894   3.779   1.585  1.2592  2.8346  0.6081
19972SOL    HW260495   0.862   3.828   1.446 -0.2994 -0.8328 -0.4474
19973SOL     OW60496   7.125   2.257   0.035  0.3369  0.5638 -0.3656
19973SOL    HW160497   7.091   2.228   0.120  0.2375 -2.1881 -1.2415
19973SOL    HW260498   7.058   2.230  -0.028  1.4098  0.5627 -1.5409
19974SOL     OW60499   5.232   3.670   3.878  0.0469 -0.4417  0.1579
19974SOL    HW160500   5.221   3.730   3.951 -0.0597 -1.0487  0.6555
19974SOL    HW260501   5.210   3.721   3.800  0.1571  0.2097  0.5495
19975SOL     OW60502   7.320   2.794   9.211 -0.0977  0.5487 -0.2724
19975SOL    HW160503   7.415   2.801   9.199  0.0717 -0.3634  0.4511
19975SOL    HW260504   7.301   2.849   9.286 -0.1357  0.7215 -0.4095
19976SOL     OW60505   8.306   7.772   6.804 -0.1997 -0.0045 -0.0664
19976SOL    HW160506   8.351   7.789   6.722  0.1530  0.1978  0.1648
19976SOL    HW260507   8.327   7.681   6.826 -0.4902 -0.1320 -0.3227
19977SOL     OW60508   8.297   8.207   4.609 -0.1906 -0.2194  0.4452
19977SOL    HW160509   8.246   8.179   4.686  0.1069  0.5192  0.9177
19977SOL    HW260510   8.342   8.286   4.638  0.0453 -0.0213 -0.4531
19978SOL     OW60511   9.783   8.913   2.800 -0.0992  0.4129 -0.0197
19978SOL    HW160512   9.780   8.984   2.736  1.6376  0.5830  0.0557
19978SOL    HW260513   9.725   8.846   2.764  0.9228  0.4546 -1.8513
19979SOL     OW60514   8.183   0.388   6.954 -0.5478  0.0655 -0.0521
19979SOL    HW160515   8.239   0.325   6.999  0.6165  1.2458  0.2310
19979SOL    HW260516   8.100   0.386   7.002  0.6010  1.1694  2.1446
19980SOL     OW60517   5.320   6.487   5.973  0.5835 -0.0448  0.1185
19980SOL    HW160518   5.401   6.495   6.024  0.5448  0.5288  0.1000
19980SOL    HW260519   5.313   6.570   5.926  0.1844 -0.2429 -0.1817
19981SOL     OW60520   2.134   5.029   4.973 -0.4824 -0.7126 -0.0375
19981SOL    HW160521   2.200   4.963   4.995 -0.3265 -0.2413  0.9470
19981SOL    HW260522   2.164   5.109   5.016 -1.2069 -0.2576 -0.3599
19982SOL     OW60523   1.704   7.827   5.028 -0.4126 -0.0747 -0.0590
19982SOL    HW160524   1.767   7.757   5.010 -1.3994 -0.7040 -1.2422
19982SOL    HW260525   1.658   7.797   5.106  1.3171  0.8349  1.3897
19983SOL     OW60526   7.879   2.950   3.325  0.2997 -0.2334 -0.2022
19983SOL    HW160527   7.851   2.925   3.237 -0.4727 -2.3322  0.5807
19983SOL    HW260528   7.825   3.026   3.347  1.7656  1.4845 -2.1568
19984SOL     OW60529   0.655   5.640   1.173 -0.0045 -0.1993 -0.1024
19984SOL    HW160530   0.610   5.686   1.244 -2.7940 -1.2243 -1.0868
19984SOL    HW260531   0.742   5.622   1.207 -1.2348 -0.6514  3.0651
19985SOL     OW60532   1.722   1.910   1.949 -0.0232 -0.2215 -0.5399
19985SOL    HW160533   1.800   1.880   1.902  1.4083 -2.0354  2.7210
19985SOL    HW260534   1.755   1.953   2.027 -2.2119 -1.5874  1.2831
19986SOL     OW60535   4.285   3.083   8.921  0.8339 -0.3102  0.0886
19986SOL    HW160536   4.335   3.095   8.840 -0.6257  1.0756 -0.6673
19986SOL    HW260537   4.299   3.165   8.969  0.3525 -0.4456  0.4631
19987SOL     OW60538   3.351   5.403   4.152  0.2855 -0.5129  0.5754
19987SOL    HW160539   3.309   5.360   4.077 -1.0540  0.3162  0.8079
19987SOL    HW260540   3.375   5.331   4.211  0.2020 -1.0853 -0.0804
19988SOL     OW60541   4.147   7.046   8.244  0.3783 -0.2483  0.1590
19988SOL    HW160542   4.091   7.029   8.168 -1.9224 -0.0995  1.7330
19988SOL    HW260543   4.218   6.981   8.236 -0.7618 -1.3930 -1.1718
19989SOL     OW60544   9.015   7.469   3.126 -0.3984 -0.9987 -0.3309
19989SOL    HW160545   8.974   7.388   3.099 -0.4749 -0.3209 -2.4542
19989SOL    HW260546   9.033   7.516   3.044  2.4201 -0.2111  0.5900
19990SOL     OW60547   5.251   3.448   1.525 -0.7440  0.1080  0.5398
19990SOL    HW160548   5.342   3.457   1.550 -0.9598 -0.8700  1.7839
19990SOL    HW260549   5.253   3.410   1.437  0.0581 -1.0557  1.0437
19991SOL     OW60550   2.189   9.860   2.419  0.7555 -0.4355  0.3621
19991SOL    HW160551   2.229   9.777   2.391  0.8430  0.6015 -3.0629
19991SOL    HW260552   2.105   9.861   2.373 -0.3039  0.3795  2.2398
19992SOL     OW60553   4.681   7.818   3.308  0.5478 -0.5424 -0.0678
19992SOL    HW160554   4.597   7.864   3.312  0.5227 -0.5318 -0.7133
19992SOL    HW260555   4.712   7.818   3.399  1.8127  3.1234 -0.3238
19993SOL     OW60556   5.164   5.985   3.529 -0.0825 -0.3171 -0.0699
19993SOL    HW160557   5.106   5.947   3.594  0.1446 -0.2448  0.1759
19993SOL    HW260558   5.109   5.996   3.451 -0.4259 -0.1541  0.1913
19994SOL     OW60559   8.287   5.437   6.620 -0.4965 -0.3730 -0.3711
19994SOL    HW160560   8.308   5.378   6.691 -1.3794 -2.6861 -1.9200
19994SOL    HW260561   8.212   5.487   6.651  0.2303 -0.0370  0.9362
19995SOL     OW60562   1.917   4.381   1.584  0.0782 -0.1611  0.0240
19995SOL    HW160563   1.958   4.304   1.545 -0.3990 -0.7330  0.6414
19995SOL    HW260564   1.826   4.357   1.598  0.0097  0.3712  0.5881
19996SOL     OW60565   5.667   2.103   9.409 -0.2026 -0.2411  0.0147
19996SOL    HW160566   5.649   2.191   9.376  2.0655  1.8029  3.5084
19996SOL    HW260567   5.590   2.080   9.460 -0.2148  0.4371  0.3165
19997SOL     OW60568   3.349   4.581   1.950  0.0537 -0.4694 -0.0691
19997SOL    HW160569   3.315   4.653   1.896  1.1543  0.7077  0.7302
19997SOL    HW260570   3.396   4.625   2.021  1.3702 -2.0060  0.0545
19998SOL     OW60571   9.142   4.926   4.201  0.5120  0.1387 -0.6381
19998SOL    HW160572   9.089   4.970   4.268  0.1206 -0.1512 -0.7555
19998SOL    HW260573   9.193   4.996   4.161 -1.8682  0.9702 -2.5153
19999SOL     OW60574   1.354   7.778   5.211 -0.3243 -0.2599  0.0256
19999SOL    HW160575   1.410   7.835   5.264 -0.6730 -0.3286  0.4730
19999SOL    HW260576   1.333   7.832   5.135  0.4427 -0.2783 -0.2088
20000SOL     OW60577   4.097   0.886   9.744 -0.3223 -0.3087  0.3041
20000SOL    HW160578   4.063   0.947   9.679  0.2492  1.9579  1.9792
20000SOL    HW260579   4.025   0.826   9.761 -0.0648 -1.8720 -3.2856
20001SOL     OW60580   7.066   9.395   5.212 -0.1778 -0.2446  0.8286
20001SOL    HW160581   7.008   9.346   5.154 -1.1863  2.3268 -0.5017
20001SOL    HW260582   7.154   9.375   5.180 -0.6145 -0.4347 -0.3220
20002SOL     OW60583   6.490   7.198   3.520 -0.5318  0.1439  0.4636
20002SOL    HW160584   6.443   7.123   3.556 -0.9407  0.4463  0.5593
20002SOL    HW260585   6.459   7.205   3.429 -2.1199  1.4994  1.0669
20003SOL     OW60586   8.688   8.669   7.106 -0.1323  0.7569 -0.0625
20003SOL    HW160587   8.638   8.600   7.062  1.7145 -0.0153 -1.0618
20003SOL    HW260588   8.768   8.626   7.134  0.9417  2.4095 -0.4376
20004SOL     OW60589   6.766   8.642   2.027 -0.1653  0.1142  0.4720
20004SOL    HW160590   6.808   8.686   1.953  1.5630  1.1476  1.9829
20004SOL    HW260591   6.695   8.592   1.988  0.3692  1.0207 -1.8167
20005SOL     OW60592   6.684   1.891   9.072 -0.0617  0.0802  0.3594
20005SOL    HW160593   6.748   1.951   9.110  1.0989 -0.6978 -0.2893
20005SOL    HW260594   6.614   1.887   9.137  0.0296  1.7624  0.6197
20006SOL     OW60595   7.040   0.697   5.703 -0.2962  0.0150 -0.0713
20006SOL    HW160596   7.112   0.759   5.718  1.1492 -0.9219 -2.5230
20006SOL    HW260597   7.046   0.636   5.777  1.3977  0.0352 -0.1411
20007SOL     OW60598   9.600   3.065   9.076  0.8835  0.0271  0.4185
20007SOL    HW160599   9.508   3.082   9.097  0.8429 -1.3889  1.5434
20007SOL    HW260600   9.644   3.148   9.091 -0.1049  0.5605  0.4668
20008SOL     OW60601   9.319   0.216   2.915  0.4722 -0.2819  0.4783
20008SOL    HW160602   9.228   0.186   2.917  0.4132 -0.0798  0.9641
20008SOL    HW260603   9.326   0.275   2.990  0.5015  1.1446 -0.6096
20009SOL     OW60604   3.050   5.742   7.624 -0.1720 -0.2690  0.4701
20009SOL    HW160605   2.994   5.791   7.684  0.3747  1.5279 -0.4160
20009SOL    HW260606   2.988   5.698   7.565 -0.6677 -0.5317  1.1639
20010SOL     OW60607   7.590   4.868   7.913  0.1073 -0.2196  0.0492
20010SOL    HW160608   7.506   4.840   7.875  0.0316  0.3517 -0.2298
20010SOL    HW260609   7.578   4.962   7.927  0.6299 -0.1776  0.2089
20011SOL     OW60610   5.206   6.324   3.146  0.0197 -0.4564  0.3041
20011SOL    HW160611   5.240   6.234   3.149  1.4653  0.0416  0.0159
20011SOL    HW260612   5.279   6.377   3.179  0.0623  0.8283 -1.6860
20012SOL     OW60613   9.599   5.306   8.282  0.5932  0.4349 -0.2687
20012SOL    HW160614   9.645   5.268   8.358 -0.1726  0.0526  0.0145
20012SOL    HW260615   9.668   5.348   8.231  1.1694  0.4072  0.4705
20013SOL     OW60616   1.198   9.432   4.845  0.0217 -0.4883 -0.1058
20013SOL    HW160617   1.134   9.471   4.786  0.4124  0.7532  0.2675
20013SOL    HW260618   1.153   9.428   4.930  0.7150  1.2645  0.3834
20014SOL     OW60619   8.925   0.761   8.377 -0.0623  0.0741 -0.3800
20014SOL    HW160620   8.855   0.750   8.442  1.0860  1.6594  1.2000
20014SOL    HW260621   8.903   0.843   8.333 -0.2701 -0.4736 -1.3286
20015SOL     OW60622   2.779   3.739   1.709 -0.6398  0.0879 -0.3223
20015SOL    HW160623   2.775   3.834   1.716 -1.5404  0.1683 -1.5687
20015SOL    HW260624   2.768   3.708   1.799 -0.6298  1.1455  0.0631
20016SOL     OW60625   3.110   7.601   8.300 -0.4580 -0.1813  0.4688
20016SOL    HW160626   3.149   7.656   8.232  0.5065 -2.5554 -1.0240
20016SOL    HW260627   3.019   7.629   8.304  0.1227  1.9213  0.2684
20017SOL     OW60628   0.990   9.885   3.031  0.4856 -0.5351 -0.2708
20017SOL    HW160629   1.052   9.922   3.094  1.2334 -0.6911 -0.9010
20017SOL    HW260630   1.031   9.803   3.002  0.6195  0.0060 -1.6808
20018SOL     OW60631   1.192   6.802   5.423  0.0832  0.2578  0.5398
20018SOL    HW160632   1.127   6.823   5.356  0.1664  1.8139  0.8970
20018SOL    HW260633   1.259   6.870   5.413  0.3836  0.1767  1.8102
20019SOL     OW60634   8.647   7.846   2.465  0.7904 -0.3979 -0.2437
20019SOL    HW160635   8.569   7.866   2.516  0.7835  0.7567 -0.6896
20019SOL    HW260636   8.615   7.835   2.375  1.1212 -0.0109 -0.4109
20020SOL     OW60637   9.172   8.142   5.265  0.1341 -0.2329  0.1165
20020SOL    HW160638   9.225   8.121   5.342  0.5118  0.4445  0.0499
20020SOL    HW260639   9.235   8.148   5.193 -0.0532  0.3561 -0.0064
20021SOL     OW60640   2.175   4.591   0.633  0.0886 -0.5135 -0.3101
20021SOL    HW160641   2.151   4.513   0.683 -2.4065  0.0294 -0.5091
20021SOL    HW260642   2.190   4.560   0.544 -1.7943 -0.7362 -0.6012
20022SOL     OW60643   5.561   7.057   8.439  0.4258 -0.1993 -0.4968
20022SOL    HW160644   5.592   7.056   8.530  1.3766  1.1482 -0.7850
20022SOL    HW260645   5.490   6.993   8.438  0.8596 -0.7500  1.0316
20023SOL     OW60646   5.592   3.991   5.181  0.3303  0.0282 -0.0048
20023SOL    HW160647   5.557   4.059   5.124 -1.2480  0.6413  1.6128
20023SOL    HW260648   5.597   4.032   5.267  0.7316 -1.4713  0.7209
20024SOL     OW60649   1.530   4.611   4.981 -0.4073  0.5194 -0.0640
20024SOL    HW160650   1.594   4.588   5.049 -0.5787 -0.2529 -0.1600
20024SOL    HW260651   1.550   4.703   4.960 -0.6530  0.9230  1.3570
20025SOL     OW60652   3.537   7.526   3.679  0.0012  0.0646  0.3974
20025SOL    HW160653   3.458   7.482   3.710 -0.2081  0.1945  0.0573
20025SOL    HW260654   3.597   7.456   3.656  0.0755 -0.0330  0.8866
20026SOL     OW60655   8.967   9.257   7.553 -0.3857  0.0322  0.0556
20026SOL    HW160656   8.980   9.260   7.458  0.8483  0.0415  0.2108
20026SOL    HW260657   9.038   9.309   7.589 -0.7280 -0.1302  1.0031
20027SOL     OW60658   3.374   7.814   7.081  0.0621 -0.1411 -0.5598
20027SOL    HW160659   3.379   7.844   6.991  0.2111  0.6466 -0.2974
20027SOL    HW260660   3.458   7.773   7.098  1.3567  2.5735  0.1913
20028SOL     OW60661   7.416   5.447   0.805 -0.2928 -0.3612 -0.0206
20028SOL    HW160662   7.509   5.456   0.826 -0.5251 -2.2397  2.2264
20028SOL    HW260663   7.398   5.519   0.744  1.6814  2.6879  2.6423
20029SOL     OW60664   3.391   8.248   7.358  0.2384  0.2734 -0.1534
20029SOL    HW160665   3.358   8.207   7.438 -1.3183  2.2498  0.2868
20029SOL    HW260666   3.370   8.186   7.289 -0.4014 -0.4690  0.6780
20030SOL     OW60667   6.767   2.321   5.875  0.7943 -0.4514  0.4307
20030SOL    HW160668   6.740   2.408   5.904 -1.4643 -1.0157  0.2010
20030SOL    HW260669   6.859   2.314   5.901  1.0947  2.0659  0.2520
20031SOL     OW60670   9.640   8.155   9.917  0.0249 -0.1230 -0.2458
20031SOL    HW160671   9.662   8.237   9.874  2.3607 -0.7578 -0.4005
20031SOL    HW260672   9.595   8.104   9.850 -0.9635  0.7895 -0.3108
20032SOL     OW60673   7.759   5.368   6.612 -0.1653  0.7478  0.4679
20032SOL    HW160674   7.828   5.333   6.669  1.0151  2.2810  0.0626
20032SOL    HW260675   7.800   5.444   6.569 -1.1976  0.0176 -1.9624
20033SOL     OW60676   6.968   8.858   4.330  0.9224  0.0656 -0.6212
20033SOL    HW160677   6.976   8.951   4.348  0.5792  0.1566 -0.9238
20033SOL    HW260678   7.044   8.818   4.373  1.1142  0.4909 -0.5609
20034SOL     OW60679   2.081   6.943   9.308 -0.7277  0.4350 -0.3200
20034SOL    HW160680   2.107   6.902   9.225  0.7117  1.2277 -0.2953
20034SOL    HW260681   2.161   6.943   9.361 -1.8989 -1.1280  1.5524
20035SOL     OW60682   0.083   1.021   7.445 -0.3551  0.3015  0.7264
20035SOL    HW160683   0.026   0.947   7.466 -0.9145  0.8567  1.1938
20035SOL    HW260684   0.043   1.060   7.367  1.4792 -1.5022 -1.2675
20036SOL     OW60685   8.937   8.137   9.773  0.0688  0.4478 -0.6751
20036SOL    HW160686   9.020   8.119   9.817  0.0151 -0.1023 -0.7984
20036SOL    HW260687   8.875   8.075   9.811 -0.2590  0.7687 -0.6750
20037SOL     OW60688   5.397   0.301   7.353 -0.2327 -0.0151  0.0534
20037SOL    HW160689   5.450   0.282   7.431 -0.4707 -1.7364 -0.1692
20037SOL    HW260690   5.453   0.358   7.300 -0.8909  3.0767  2.3795
20038SOL     OW60691   6.661   9.250   9.289  0.4821 -0.3684 -0.6258
20038SOL    HW160692   6.751   9.264   9.262  1.5523 -1.3663  2.1013
20038SOL    HW260693   6.661   9.267   9.384 -2.3774  0.3691 -0.6492
20039SOL     OW60694   1.960   6.754   1.307 -0.3398 -0.1192 -0.2867
20039SOL    HW160695   1.988   6.844   1.321 -0.7918  0.2002 -1.3428
20039SOL    HW260696   2.016   6.722   1.237 -0.7047 -0.3996 -0.4530
20040SOL     OW60697   6.188   8.532   8.101  0.3080  0.3463 -0.3166
20040SOL    HW160698   6.224   8.444   8.089  1.5064  0.7553  0.1200
20040SOL    HW260699   6.139   8.527   8.183 -0.3114 -0.1090 -0.7030
20041SOL     OW60700   5.363   5.091   9.442 -0.1940 -0.0987 -0.3691
20041SOL    HW160701   5.280   5.134   9.422 -0.8475 -0.6108  1.1638
20041SOL    HW260702   5.343   4.997   9.440  0.1739 -0.2108  0.6808
20042SOL     OW60703   2.510   5.354   2.187 -0.1249  0.5233 -0.0599
20042SOL    HW160704   2.532   5.367   2.279 -0.3291 -0.2174  0.0998
20042SOL    HW260705   2.431   5.300   2.189  0.8215 -0.9220 -0.6844
20043SOL     OW60706   8.592   8.989   1.342 -0.6666 -0.0839 -0.3244
20043SOL    HW160707   8.562   8.917   1.286 -0.0790  0.4707 -1.3768
20043SOL    HW260708   8.687   8.979   1.345 -0.7779 -0.9308  1.7446
20044SOL     OW60709   0.522   4.669   0.297 -0.0389  0.4595 -0.3846
20044SOL    HW160710   0.580   4.630   0.232 -1.1791 -0.5415 -0.8287
20044SOL    HW260711   0.556   4.758   0.310  2.8034 -0.6731  0.8287
20045SOL     OW60712   5.148   6.241   1.168  0.1196 -0.1630  0.0528
20045SOL    HW160713   5.083   6.304   1.198  0.7660  0.2101  0.7016
20045SOL    HW260714   5.190   6.283   1.093 -0.8775 -0.7166 -0.8424
20046SOL     OW60715   3.803   2.244   8.681 -0.6902  0.5699  0.2715
20046SOL    HW160716   3.736   2.176   8.684 -0.6891  0.4314 -1.4900
20046SOL    HW260717   3.765   2.318   8.728 -2.7674  1.0213 -1.9051
20047SOL     OW60718   7.336   5.337   8.476 -0.3297 -0.1242 -0.1313
20047SOL    HW160719   7.306   5.397   8.544 -1.8126 -2.1267  1.0967
20047SOL    HW260720   7.391   5.273   8.522  0.7183 -0.0983 -1.2819
20048SOL     OW60721   7.403   4.241   5.636 -0.1686 -0.8429 -0.0810
20048SOL    HW160722   7.434   4.235   5.545 -1.1928 -0.9819 -0.4350
20048SOL    HW260723   7.483   4.242   5.688  0.4467 -3.6880 -0.7873
20049SOL     OW60724   1.558   2.367   5.818 -0.0752 -0.1987  0.6221
20049SOL    HW160725   1.517   2.282   5.806  0.0839 -0.0780 -1.0003
20049SOL    HW260726   1.649   2.348   5.837  0.8213 -0.4692 -3.1025
20050SOL     OW60727   3.348   6.303   3.694 -0.2332  0.2028 -0.0815
20050SOL    HW160728   3.420   6.246   3.666  0.2794  0.4165  0.7773
20050SOL    HW260729   3.283   6.242   3.728  0.4175  0.1270  1.0646
20051SOL     OW60730   7.500   6.786   9.155  0.1487 -0.1833  0.1011
20051SOL    HW160731   7.427   6.777   9.217 -0.9096  0.2707 -1.0292
20051SOL    HW260732   7.573   6.816   9.208 -0.7155  0.1720  1.1303
20052SOL     OW60733   5.847   5.542   4.341  0.6284  0.1009  0.2020
20052SOL    HW160734   5.883   5.606   4.401 -0.7756 -0.0409  1.2399
20052SOL    HW260735   5.883   5.458   4.371 -0.1170  0.0229  0.9157
20053SOL     OW60736   4.553   3.448   1.701 -0.2955 -0.0693 -0.3165
20053SOL    HW160737   4.524   3.529   1.744  0.7491 -0.6993  1.7186
20053SOL    HW260738   4.647   3.446   1.715 -0.1172 -1.0110 -1.4997
20054SOL     OW60739   1.646   1.482   0.224  1.1354  0.3771  0.1739
20054SOL    HW160740   1.722   1.528   0.258  1.0082  1.3246 -0.7728
20054SOL    HW260741   1.578   1.549   0.216  0.7651 -0.0751 -0.6971
20055SOL     OW60742   4.467   8.794   8.013  0.0649 -0.0108 -0.0856
20055SOL    HW160743   4.413   8.866   7.981 -0.1587 -0.2039 -0.1429
20055SOL    HW260744   4.525   8.834   8.077 -0.5250  0.0964  0.3865
20056SOL     OW60745   8.462   9.096   4.362 -0.2942  0.5242 -0.2032
20056SOL    HW160746   8.518   9.108   4.285  0.2228  0.2259  0.1120
20056SOL    HW260747   8.481   9.172   4.417 -0.9184  0.9112 -0.5237
20057SOL     OW60748   4.434   9.169   0.274 -0.0095 -0.5352  0.1787
20057SOL    HW160749   4.367   9.111   0.310 -0.9399  0.4676  0.1087
20057SOL    HW260750   4.386   9.244   0.240  1.0127 -0.5721 -1.4566
20058SOL     OW60751   7.477   7.459   8.232  0.2238  0.4085  0.2714
20058SOL    HW160752   7.392   7.416   8.229  0.4686 -0.0302 -0.7553
20058SOL    HW260753   7.540   7.388   8.221  0.7727  0.6142  1.8998
20059SOL     OW60754   3.136   3.389   3.062 -0.3255  0.1039  0.4188
20059SOL    HW160755   3.073   3.385   2.990  1.0876 -0.2970 -0.8451
20059SOL    HW260756   3.118   3.311   3.114 -1.0784  0.1688  0.2756
20060SOL     OW60757   0.723   2.600   3.903 -0.1973 -0.1696 -0.0411
20060SOL    HW160758   0.749   2.661   3.834  0.9701  0.6549  1.0692
20060SOL    HW260759   0.780   2.622   3.977 -0.0285 -2.3471  0.5489
20061SOL     OW60760   6.754   5.204   4.996  0.4240 -0.1632 -0.2007
20061SOL    HW160761   6.711   5.125   5.028 -0.2501 -0.0047 -0.6823
20061SOL    HW260762   6.740   5.269   5.066  0.4357 -0.2951 -0.0764
20062SOL     OW60763   7.687   1.457   4.062 -0.8872  0.0854 -0.2369
20062SOL    HW160764   7.664   1.408   4.140 -0.3361  0.3537  0.1015
20062SOL    HW260765   7.757   1.406   4.021  0.2735  0.9719  0.5570
20063SOL     OW60766   7.117   2.643   7.463  0.1256 -0.1203  0.3715
20063SOL    HW160767   7.082   2.581   7.528 -1.8710 -0.6754 -1.1386
20063SOL    HW260768   7.076   2.726   7.485 -2.1150 -0.7079 -1.2169
20064SOL     OW60769   3.420   9.593   4.538 -0.2099  0.8296 -0.4014
20064SOL    HW160770   3.327   9.581   4.515 -0.2111  1.4913 -0.7699
20064SOL    HW260771   3.467   9.536   4.477 -0.4550 -1.0118  1.0415
20065SOL     OW60772   5.970   7.947   7.773  0.2307  0.0067 -0.0142
20065SOL    HW160773   5.885   7.928   7.733 -0.5550  0.4819  1.3639
20065SOL    HW260774   6.031   7.946   7.700 -0.4004 -3.4786 -0.6764
20066SOL     OW60775   0.809   1.121   8.326 -0.4967  0.7600 -0.6916
20066SOL    HW160776   0.718   1.101   8.307 -0.7382  1.5237 -0.3887
20066SOL    HW260777   0.812   1.130   8.422  0.2928 -1.1350 -0.5056
20067SOL     OW60778   6.572   9.081   6.463 -0.2138  0.0275  0.2696
20067SOL    HW160779   6.478   9.075   6.447  0.1096 -0.2847 -1.8135
20067SOL    HW260780   6.612   9.035   6.390  1.5725 -0.3270  1.3928
20068SOL     OW60781   6.355   0.570   0.817  0.1913 -0.0116  0.2152
20068SOL    HW160782   6.367   0.501   0.751  0.7436  0.6223 -0.3575
20068SOL    HW260783   6.265   0.557   0.848 -0.8200  0.8752 -2.0760
20069SOL     OW60784   0.828   6.093   0.563  0.2534 -0.2750  0.1670
20069SOL    HW160785   0.810   6.132   0.649  0.0729 -1.1057  0.5126
20069SOL    HW260786   0.918   6.061   0.569  0.2977 -0.1879 -0.0155
20070SOL     OW60787   1.035   8.680   1.196  0.3272  0.2552  0.1088
20070SOL    HW160788   1.104   8.636   1.146  0.6154  1.0679 -0.2203
20070SOL    HW260789   1.030   8.768   1.158 -0.0333  0.6086  0.9617
20071SOL     OW60790   5.712   4.372   0.710 -0.4564  0.2502  0.4364
20071SOL    HW160791   5.734   4.409   0.624 -1.3215  1.4587  0.7017
20071SOL    HW260792   5.791   4.326   0.737 -0.2143 -0.2802 -1.0723
20072SOL     OW60793   5.995   5.146   7.965  0.2540  0.1582 -0.0940
20072SOL    HW160794   6.076   5.097   7.950  0.2756  0.0058  0.4821
20072SOL    HW260795   5.932   5.080   7.996  0.7463  0.7087  2.3146
20073SOL     OW60796   6.474   2.131   7.405  0.2587  0.4873  0.4548
20073SOL    HW160797   6.389   2.093   7.428 -0.1467  0.9962 -0.1786
20073SOL    HW260798   6.537   2.081   7.457 -0.4001 -0.0756  0.7308
20074SOL     OW60799   4.727   7.699   2.479 -0.2923  0.4186 -0.1412
20074SOL    HW160800   4.674   7.716   2.557  0.9568  0.0469  0.8337
20074SOL    HW260801   4.777   7.620   2.502 -0.0064  0.2236 -1.3840
20075SOL     OW60802   3.046   8.741   9.124 -0.1538  0.1151  0.1993
20075SOL    HW160803   3.090   8.675   9.177 -0.6341 -0.4927 -0.1411
20075SOL    HW260804   3.050   8.821   9.176 -0.9350 -0.5536  1.3252
20076SOL     OW60805   3.476   9.772   5.521  0.4062 -0.0959 -0.1976
20076SOL    HW160806   3.460   9.691   5.473 -0.9101  0.9211 -1.5772
20076SOL    HW260807   3.569   9.790   5.505 -0.3093  1.2288 -4.3141
20077SOL     OW60808   4.164   1.089   3.436 -0.0919  0.2692  0.3336
20077SOL    HW160809   4.114   1.159   3.394  0.5743  1.4983  1.5160
20077SOL    HW260810   4.217   1.051   3.366 -0.8938  0.5416 -0.4405
20078SOL     OW60811   4.186   3.366   6.387  0.2038 -0.4710 -0.0372
20078SOL    HW160812   4.249   3.348   6.317  1.3904 -1.0519  1.1293
20078SOL    HW260813   4.117   3.418   6.345  2.3652  1.8317 -0.9907
20079SOL     OW60814   9.410   7.012   6.024  0.0151 -0.1634 -0.3005
20079SOL    HW160815   9.421   7.085   6.084 -0.6622  0.5946 -1.0764
20079SOL    HW260816   9.326   7.029   5.980  1.1012  0.0515 -2.4467
20080SOL     OW60817   9.272   9.940   1.943 -0.6341 -0.2453  0.2596
20080SOL    HW160818   9.190   9.892   1.929 -0.7296  0.1344 -0.5170
20080SOL    HW260819   9.340   9.882   1.911 -0.9492  1.1995 -3.4806
20081SOL     OW60820   2.431   9.850   7.010  0.0341  0.1277  0.6068
20081SOL    HW160821   2.424   9.940   7.042  0.9251  0.7925 -0.9769
20081SOL    HW260822   2.375   9.847   6.933  1.7383 -0.0093 -0.6833
20082SOL     OW60823   3.121   5.498   2.439 -0.3831  0.3398  0.2761
20082SOL    HW160824   3.198   5.465   2.393 -1.2065 -0.0345 -0.9031
20082SOL    HW260825   3.155   5.536   2.520  0.9738 -0.2671  0.0205
20083SOL     OW60826   7.370   2.445   8.105  0.4537 -0.6118  0.0195
20083SOL    HW160827   7.342   2.524   8.058  0.3065 -1.0595 -0.6550
20083SOL    HW260828   7.390   2.382   8.036 -0.3585 -1.4910  0.5705
20084SOL     OW60829   4.541   1.934   1.887  0.0055 -0.1795  0.2799
20084SOL    HW160830   4.544   1.908   1.795 -0.1061 -0.5244  0.3739
20084SOL    HW260831   4.627   1.910   1.922 -0.0348 -0.2558  0.3249
20085SOL     OW60832   8.304   1.372   4.216  0.1581 -0.1581  0.0358
20085SOL    HW160833   8.247   1.315   4.163  0.1093 -1.3905  1.3548
20085SOL    HW260834   8.301   1.334   4.304 -0.6803  2.4953  1.2474
20086SOL     OW60835   1.806   6.552   0.379 -0.1498  0.2781 -0.5788
20086SOL    HW160836   1.812   6.557   0.475 -0.7520  0.8322 -0.5620
20086SOL    HW260837   1.766   6.466   0.362  0.8167 -0.2224 -0.3824
20087SOL     OW60838   5.327   9.503   7.587  0.0575  0.0933 -0.5246
20087SOL    HW160839   5.371   9.577   7.629  0.8385 -0.7293  0.1480
20087SOL    HW260840   5.238   9.504   7.622  0.2240  0.3932 -0.1124
20088SOL     OW60841   9.750   0.919   1.640  0.4952 -0.6224 -0.2614
20088SOL    HW160842   9.819   0.862   1.605 -0.7276 -1.0571 -2.1234
20088SOL    HW260843   9.785   1.007   1.632  0.5943 -0.7850 -1.8825
20089SOL     OW60844   0.813   5.376   7.059  0.7334  0.0252  0.0897
20089SOL    HW160845   0.862   5.375   6.976  0.0961 -0.3542 -0.2897
20089SOL    HW260846   0.871   5.331   7.120  1.2602  0.4069 -0.1171
20090SOL     OW60847   3.784   0.426   4.130 -0.1412 -1.3831 -0.7299
20090SOL    HW160848   3.844   0.499   4.117 -0.6776 -0.7404  0.2589
20090SOL    HW260849   3.740   0.416   4.045 -0.7688  0.1031 -0.6003
20091SOL     OW60850   3.723   3.332   6.587  0.6142 -0.1938 -0.7548
20091SOL    HW160851   3.749   3.264   6.524 -0.7018 -1.2460 -0.2067
20091SOL    HW260852   3.652   3.379   6.543 -0.0711 -0.7066 -0.2077
20092SOL     OW60853   0.041   2.061   2.089 -0.0471 -0.0500  0.7608
20092SOL    HW160854   0.047   2.005   2.165  2.5282 -0.2835  0.4864
20092SOL    HW260855   0.070   2.147   2.120  3.8385 -0.7505 -0.3686
20093SOL     OW60856   6.277   3.593   4.223 -0.3946 -0.1443  0.4949
20093SOL    HW160857   6.343   3.556   4.282 -0.5333 -0.3485  0.5230
20093SOL    HW260858   6.208   3.625   4.282  0.5264  1.7983  0.5887
20094SOL     OW60859   4.057   6.540   5.730  0.3408  0.7718  0.3468
20094SOL    HW160860   4.024   6.534   5.640 -1.5004  0.0648  1.0127
20094SOL    HW260861   4.100   6.626   5.734  0.0587  1.0115 -1.0713
20095SOL     OW60862   5.153   3.487   4.253 -0.3570 -0.0501  0.1755
20095SOL    HW160863   5.087   3.423   4.277  0.1458 -0.3868  0.6886
20095SOL    HW260864   5.224   3.472   4.315 -1.1601  2.5278  1.8804
20096SOL     OW60865   1.805   7.597   8.688 -0.2652  0.2986 -0.0722
20096SOL    HW160866   1.717   7.633   8.677 -0.3152 -0.0618 -1.0012
20096SOL    HW260867   1.861   7.673   8.704 -0.5925  0.6428 -0.5395
20097SOL     OW60868   6.943   0.476   2.710  0.0623 -0.5388  0.0401
20097SOL    HW160869   6.883   0.401   2.709 -0.1944 -0.3325 -0.9043
20097SOL    HW260870   6.908   0.535   2.643  1.3980 -0.4660 -0.6167
20098SOL     OW60871   3.523   6.610   1.849 -0.3337 -0.1039 -0.1830
20098SOL    HW160872   3.533   6.617   1.944 -0.0417 -0.4414 -0.1865
20098SOL    HW260873   3.602   6.650   1.814 -1.5569  2.3494 -0.3667
20099SOL     OW60874   4.740   4.503   8.652 -0.0405 -0.2798  0.0322
20099SOL    HW160875   4.796   4.580   8.646 -0.9297  0.3478 -0.4226
20099SOL    HW260876   4.664   4.524   8.598  0.6814 -2.3632 -1.9290
20100SOL     OW60877   8.352   4.180   3.817 -0.3524 -0.4441  0.2345
20100SOL    HW160878   8.436   4.179   3.863 -1.3000 -0.5914  2.0291
20100SOL    HW260879   8.319   4.091   3.824 -0.0709 -0.7521 -1.6894
20101SOL     OW60880   8.242   7.645   5.432 -0.4204  0.2715 -0.0681
20101SOL    HW160881   8.271   7.729   5.398  0.1056 -0.4548 -1.4979
20101SOL    HW260882   8.182   7.667   5.504 -0.5325  1.8491 -0.6128
20102SOL     OW60883   8.869   7.101   0.906 -0.1658 -0.0471  0.0690
20102SOL    HW160884   8.957   7.121   0.938 -0.1729  2.2937 -1.1418
20102SOL    HW260885   8.883   7.059   0.821 -0.1872  1.5990 -0.7754
20103SOL     OW60886   7.533   2.925   0.033 -0.4562  0.0477 -0.2121
20103SOL    HW160887   7.484   2.999   0.067 -0.3201  0.2557 -0.4612
20103SOL    HW260888   7.606   2.913   0.094 -1.0910 -0.5801  0.4365
20104SOL     OW60889   5.273   6.667   8.216 -0.2509 -0.1609  0.3219
20104SOL    HW160890   5.239   6.644   8.130 -2.0414  0.8902  0.6887
20104SOL    HW260891   5.240   6.598   8.274 -0.0399 -0.2329  0.3572
20105SOL     OW60892   9.126   8.410   2.729  0.0428 -0.5883 -0.2590
20105SOL    HW160893   9.206   8.359   2.743  1.6963  1.7877 -0.3587
20105SOL    HW260894   9.137   8.488   2.785 -2.0777 -0.0475 -0.5044
20106SOL     OW60895   3.484   1.331   2.338 -0.3367  0.2480  0.5777
20106SOL    HW160896   3.541   1.401   2.306 -0.6927  0.1546 -0.2742
20106SOL    HW260897   3.462   1.357   2.428  0.2489  0.7770  0.5746
20107SOL     OW60898   4.395   6.564   5.926  0.0687  0.4943 -0.0079
20107SOL    HW160899   4.416   6.474   5.902 -1.3368  0.0956  0.1629
20107SOL    HW260900   4.474   6.614   5.904  1.8470 -1.1155  2.1237
20108SOL     OW60901   3.272   4.324   4.051  0.1288 -0.3929 -0.2598
20108SOL    HW160902   3.301   4.241   4.088  0.4076  0.1454  0.7794
20108SOL    HW260903   3.351   4.360   4.010  0.4063  0.0514  0.6342
20109SOL     OW60904   6.936   0.148   5.311  0.2024 -0.0906  0.0149
20109SOL    HW160905   7.006   0.082   5.316 -0.2912 -0.7915 -1.5733
20109SOL    HW260906   6.940   0.180   5.221 -0.5337  0.9914  0.3503
20110SOL     OW60907   1.226   3.914   4.071 -0.1418  0.5172  0.0302
20110SOL    HW160908   1.251   3.853   4.002  0.2027 -0.3727  0.9160
20110SOL    HW260909   1.153   3.872   4.115 -1.7376  2.0133 -1.0302
20111SOL     OW60910   6.004   6.089   1.813  0.5563  0.6207  0.1036
20111SOL    HW160911   6.078   6.037   1.845 -0.5699 -0.1735  1.5719
20111SOL    HW260912   5.983   6.149   1.885 -0.0283  1.0370 -0.4005
20112SOL     OW60913   8.267   9.292   5.168 -0.5685 -0.1223  0.2236
20112SOL    HW160914   8.303   9.232   5.234 -0.9096 -0.6624 -0.0824
20112SOL    HW260915   8.213   9.237   5.112 -0.6185  0.4148 -0.2599
20113SOL     OW60916   7.838   2.173   2.230  0.4325 -0.1015 -0.2541
20113SOL    HW160917   7.827   2.078   2.238 -2.1772  0.2575  1.8163
20113SOL    HW260918   7.890   2.197   2.306 -0.6800  0.2932  0.4144
20114SOL     OW60919   5.151   8.308   6.874 -0.1690  0.1540 -0.1647
20114SOL    HW160920   5.110   8.301   6.788  1.3150 -1.2745 -0.8093
20114SOL    HW260921   5.181   8.219   6.894  1.2547  0.8298  0.9357
20115SOL     OW60922   5.874   2.651   1.660 -0.1327 -0.1051 -0.0700
20115SOL    HW160923   5.790   2.608   1.672 -0.1784  0.0321  0.1077
20115SOL    HW260924   5.929   2.617   1.731  0.0264 -0.3498 -0.3054
20116SOL     OW60925   6.186   2.858   2.021 -0.0091  0.2271  0.2341
20116SOL    HW160926   6.145   2.944   2.030  0.2820  0.2760  1.1256
20116SOL    HW260927   6.255   2.857   2.087  0.5291 -0.3794 -0.3303
20117SOL     OW60928   5.646   2.460   1.251 -0.2222 -0.3215 -0.3074
20117SOL    HW160929   5.727   2.508   1.267 -1.8382  2.5551 -0.1396
20117SOL    HW260930   5.644   2.447   1.157  0.4517 -0.4586 -0.3070
20118SOL     OW60931   7.383   1.548   0.655  0.2983  0.3113 -0.2185
20118SOL    HW160932   7.312   1.514   0.601  0.1891  0.3385 -0.0922
20118SOL    HW260933   7.462   1.510   0.617  0.2001  0.1312 -0.2440
20119SOL     OW60934   4.512   1.261   7.485 -0.0306  0.4355 -0.2221
20119SOL    HW160935   4.463   1.343   7.494 -1.0370  0.0171 -1.4228
20119SOL    HW260936   4.467   1.215   7.413 -0.3082 -1.7276  1.2297
20120SOL     OW60937   6.976   6.250   2.474 -0.4392 -0.2817 -0.3423
20120SOL    HW160938   7.044   6.255   2.542  0.0308 -1.0203 -0.7488
20120SOL    HW260939   6.960   6.341   2.449 -0.5430 -0.0051  0.6792
20121SOL     OW60940   1.220   4.151   7.579 -0.1167 -0.3747 -0.0714
20121SOL    HW160941   1.210   4.061   7.609 -0.6717 -0.4745 -0.5483
20121SOL    HW260942   1.305   4.178   7.614 -1.0475 -0.2142  2.2919
20122SOL     OW60943   8.558   8.962   7.773  1.1453 -0.2471  0.3951
20122SOL    HW160944   8.545   9.029   7.706  1.7547  0.6446  1.1420
20122SOL    HW260945   8.540   8.879   7.728 -1.0834  0.4733 -0.1891
20123SOL     OW60946   4.807   3.786   4.897  0.6708  0.4977  0.3590
20123SOL    HW160947   4.769   3.857   4.845  2.4911  0.5026 -1.1029
20123SOL    HW260948   4.881   3.827   4.942 -0.0457  0.1619  1.9158
20124SOL     OW60949   5.394   1.347   1.673  0.3922  0.1812  0.1838
20124SOL    HW160950   5.393   1.330   1.767 -1.6380  2.8304  0.7520
20124SOL    HW260951   5.379   1.441   1.665 -2.1317 -0.3189 -2.8459
20125SOL     OW60952   1.408   3.321   1.054 -0.0927 -0.1083  0.3198
20125SOL    HW160953   1.338   3.273   1.098 -1.4745 -1.5822 -3.1388
20125SOL    HW260954   1.452   3.255   0.999  1.0591  1.6719 -1.0188
20126SOL     OW60955   4.922   0.058   9.294 -0.5030  0.6683  0.2608
20126SOL    HW160956   4.958  -0.008   9.353 -0.8014  0.3354  0.0794
20126SOL    HW260957   4.984   0.062   9.221 -0.3550  0.7695  0.3929
20127SOL     OW60958   4.636   0.855   7.047 -0.4162 -0.1370  0.3093
20127SOL    HW160959   4.694   0.790   7.087 -0.5819  0.5444  1.7097
20127SOL    HW260960   4.548   0.822   7.062 -0.4522 -0.8073 -1.1810
20128SOL     OW60961   9.576   8.147   6.533  0.2205  0.8696 -0.0872
20128SOL    HW160962   9.661   8.107   6.550 -0.4703 -0.4403  0.4181
20128SOL    HW260963   9.513   8.076   6.543 -1.3835  2.5617  3.5515
20129SOL     OW60964   8.887   7.049   3.428 -0.2514  0.4792  0.3900
20129SOL    HW160965   8.971   7.081   3.395  0.0854  1.2151  1.8786
20129SOL    HW260966   8.910   6.979   3.489 -0.6347  1.3397  1.5500
20130SOL     OW60967   2.095   1.920   6.327 -0.2904 -0.4455 -0.3047
20130SOL    HW160968   2.187   1.896   6.319  0.4814  2.1328 -0.2920
20130SOL    HW260969   2.081   1.929   6.422  0.0813  1.1270 -0.3666
20131SOL     OW60970   7.543   2.967   8.913 -0.2361 -0.1288 -0.4908
20131SOL    HW160971   7.634   2.949   8.938 -0.0809  0.2640 -0.7695
20131SOL    HW260972   7.520   2.896   8.853 -0.6137 -1.0834  0.7533
20132SOL     OW60973   1.277   4.526   5.138  0.5335  0.3750 -0.2285
20132SOL    HW160974   1.329   4.588   5.088  1.8385 -0.1977  0.3810
20132SOL    HW260975   1.316   4.441   5.119 -0.7276 -0.1868 -0.4261
20133SOL     OW60976   8.940   8.949   2.354 -0.0218 -0.9978 -0.4575
20133SOL    HW160977   8.965   8.878   2.295  0.6551 -0.5610 -0.7108
20133SOL    HW260978   8.967   8.918   2.441  3.3792  0.2325 -0.9127
20134SOL     OW60979   4.205   3.864   1.209  0.2138 -0.0561  0.0524
20134SOL    HW160980   4.231   3.955   1.221 -0.3529  0.1848 -0.4691
20134SOL    HW260981   4.129   3.853   1.266 -0.9121  0.3640 -1.3093
20135SOL     OW60982   0.556   1.317   4.266 -0.3361 -0.1635 -0.1858
20135SOL    HW160983   0.640   1.308   4.223 -0.0413  0.5856  0.2230
20135SOL    HW260984   0.512   1.389   4.221  0.1830  0.9708  1.0579
20136SOL     OW60985   5.545   9.355   6.161  0.3593  0.0029 -0.3211
20136SOL    HW160986   5.474   9.418   6.150  0.4438  0.0834 -0.4169
20136SOL    HW260987   5.625   9.407   6.152  0.4390 -0.3466 -1.8872
20137SOL     OW60988   8.901   2.719   0.988 -0.3396  0.2520  0.6258
20137SOL    HW160989   8.959   2.662   1.039 -0.4911 -0.9482 -0.4840
20137SOL    HW260990   8.944   2.805   0.992  0.0147  0.0399  2.1480
20138SOL     OW60991   6.446   7.045   4.198 -0.2649  0.0689  0.3856
20138SOL    HW160992   6.409   7.018   4.282 -0.3186 -0.3654  0.2212
20138SOL    HW260993   6.425   7.139   4.192 -0.2964  0.0913  0.8359
20139SOL     OW60994   1.017   4.474   0.981  0.0567 -0.3113  0.5495
20139SOL    HW160995   1.044   4.526   1.057  1.9455 -1.6480  0.8489
20139SOL    HW260996   0.941   4.521   0.946  0.8185  1.8493  1.6215
20140SOL     OW60997   4.319   6.476   0.886 -0.0622  0.2648  0.2468
20140SOL    HW160998   4.391   6.507   0.832 -0.8503  1.4475 -0.1672
20140SOL    HW260999   4.277   6.408   0.834  0.5356 -0.1947  0.3509
20141SOL     OW61000   4.119   2.253   8.988  0.0978 -0.2423 -0.1304
20141SOL    HW161001   4.109   2.212   8.902 -2.9976  0.6430 -0.3361
20141SOL    HW261002   4.091   2.185   9.050  0.4523 -0.2635  0.0053
20142SOL     OW61003   3.304   7.088   2.466  0.1434 -0.3108 -0.1780
20142SOL    HW161004   3.290   7.064   2.375  0.7166 -1.0973 -0.0640
20142SOL    HW261005   3.282   7.009   2.516  1.4935 -0.4505  0.2437
20143SOL     OW61006   0.291   2.958   2.505 -0.3942 -0.5171 -0.5423
20143SOL    HW161007   0.371   3.009   2.496 -1.1676  0.8152 -0.2412
20143SOL    HW261008   0.303   2.883   2.448  1.3449 -0.7214  0.0231
20144SOL     OW61009   9.816   5.718   0.111  0.3377  0.1346  0.1568
20144SOL    HW161010   9.780   5.708   0.199 -0.8259 -2.3970 -0.5255
20144SOL    HW261011   9.850   5.632   0.088  0.0503  0.5511 -2.1145
20145SOL     OW61012   0.718   3.408   1.546 -0.1768 -0.0233 -0.4405
20145SOL    HW161013   0.802   3.426   1.503 -1.1064  0.9341 -2.0058
20145SOL    HW261014   0.741   3.376   1.633  1.7990  0.2224 -0.8224
20146SOL     OW61015   9.090   4.050   1.290  0.0404  0.0571 -0.2685
20146SOL    HW161016   9.175   4.025   1.254  0.3737  0.2588  0.3579
20146SOL    HW261017   9.041   3.968   1.297  0.9155 -0.3809  1.2398
20147SOL     OW61018   9.845   9.338   7.005 -0.1077  0.0258 -0.1683
20147SOL    HW161019   9.847   9.390   6.925 -0.8131 -2.7529 -2.1565
20147SOL    HW261020   9.871   9.250   6.977 -0.4719 -1.0867  2.6475
20148SOL     OW61021   9.155   4.816   6.948 -0.7458  0.3006 -0.5412
20148SOL    HW161022   9.201   4.783   7.025  0.9261 -1.4250 -2.1733
20148SOL    HW261023   9.131   4.906   6.972 -1.8216 -0.6633  2.5709
20149SOL     OW61024   7.501   8.398   1.500 -0.3811  0.1476 -0.0220
20149SOL    HW161025   7.420   8.444   1.479 -1.8590 -0.4970  3.5562
20149SOL    HW261026   7.560   8.467   1.531 -0.6422  0.2771  0.1901
20150SOL     OW61027   5.972   5.634   3.533 -0.2336 -0.3624 -0.4608
20150SOL    HW161028   5.964   5.567   3.465  1.3088 -1.3024  0.2210
20150SOL    HW261029   6.007   5.710   3.488 -0.6834 -0.4616 -0.9926
20151SOL     OW61030   9.686   8.287   4.209 -0.2480  0.3966  0.0525
20151SOL    HW161031   9.757   8.346   4.184 -0.7083  0.9362  0.0136
20151SOL    HW261032   9.684   8.222   4.138 -0.6866  1.1674 -0.6534
20152SOL     OW61033   8.616   1.230   3.340 -0.6411  0.1459 -0.9188
20152SOL    HW161034   8.572   1.163   3.392  1.1111 -1.4359 -1.3762
20152SOL    HW261035   8.597   1.312   3.386 -1.1810 -0.8983  0.8141
20153SOL     OW61036   4.160   2.224   7.265  0.3731 -0.7018 -0.1346
20153SOL    HW161037   4.241   2.171   7.265  1.2331  0.5520  1.0857
20153SOL    HW261038   4.165   2.275   7.184  0.2166 -1.4543 -0.6328
20154SOL     OW61039   9.448   6.807   2.236  0.5190 -0.2155  0.5438
20154SOL    HW161040   9.474   6.878   2.295 -1.2221  0.6975  0.2856
20154SOL    HW261041   9.362   6.834   2.202  0.6994 -1.5144 -1.0988
20155SOL     OW61042   8.973   6.689   2.503 -0.1030  0.1979  0.2718
20155SOL    HW161043   9.028   6.612   2.505  1.0754  0.8356 -2.5313
20155SOL    HW261044   8.883   6.655   2.498  0.4717 -1.1701 -2.9844
20156SOL     OW61045   6.029   9.047   6.309  0.4126  0.0393  0.0557
20156SOL    HW161046   6.001   9.075   6.396  0.2945  1.3326 -0.3778
20156SOL    HW261047   5.982   8.965   6.294  0.3050 -0.1084  1.1348
20157SOL     OW61048   0.290   1.663   4.232  0.2241 -0.0768 -0.0017
20157SOL    HW161049   0.284   1.758   4.239 -0.6007 -0.0166 -1.3291
20157SOL    HW261050   0.247   1.631   4.311  1.4237  0.6332  0.9880
20158SOL     OW61051   4.424   2.932   0.444 -0.1326  0.2669  0.5144
20158SOL    HW161052   4.467   2.972   0.368  0.5119 -0.5087  0.4675
20158SOL    HW261053   4.494   2.891   0.493 -0.6516  0.1044  1.1365
20159SOL     OW61054   8.433   2.899   2.205 -0.3386 -0.1616  0.3129
20159SOL    HW161055   8.366   2.899   2.273 -2.5821  0.6337 -1.7444
20159SOL    HW261056   8.491   2.971   2.229 -0.2134 -0.8023  2.1131
20160SOL     OW61057   1.258   5.810   2.598  0.3884  0.1567 -0.5691
20160SOL    HW161058   1.229   5.823   2.508 -0.8758 -2.8127 -0.7266
20160SOL    HW261059   1.185   5.765   2.641  1.0783  1.2084  1.8999
20161SOL     OW61060   5.051   3.387   1.139  0.1773 -0.4675  0.0237
20161SOL    HW161061   4.995   3.320   1.179  1.4618 -0.5414  1.8488
20161SOL    HW261062   5.137   3.346   1.133  0.8100  0.7261  0.4449
20162SOL     OW61063   7.802   0.571   4.127 -0.0471 -0.2593 -0.1634
20162SOL    HW161064   7.754   0.651   4.149  0.0543 -0.7121  1.9983
20162SOL    HW261065   7.857   0.555   4.204 -0.7335 -2.8717 -0.1089
20163SOL     OW61066   2.676   3.102   3.833 -0.0409  0.0278 -0.5632
20163SOL    HW161067   2.643   3.075   3.919  1.4894 -0.3776 -0.0855
20163SOL    HW261068   2.600   3.091   3.775 -0.6960 -1.0981  0.4530
20164SOL     OW61069   5.705   9.795   9.760  0.1737  0.5818 -0.4754
20164SOL    HW161070   5.677   9.884   9.782 -0.3185  0.4576 -0.5916
20164SOL    HW261071   5.631   9.740   9.785  0.3113  0.2497 -0.7981
20165SOL     OW61072   6.473   8.492   8.643  0.4263 -0.1195  0.5264
20165SOL    HW161073   6.424   8.417   8.610 -0.3150  1.1033 -1.2959
20165SOL    HW261074   6.561   8.481   8.605 -0.2216  0.8970 -1.3935
20166SOL     OW61075   0.862   9.780   4.485  0.0958  0.6061  0.2717
20166SOL    HW161076   0.857   9.843   4.413 -0.4711  0.3103  0.0435
20166SOL    HW261077   0.836   9.697   4.446 -1.1272  0.6059  1.0048
20167SOL     OW61078   8.934   7.728   3.583  0.0956 -0.1362  0.2049
20167SOL    HW161079   8.971   7.685   3.506 -0.7145  1.2698 -1.0211
20167SOL    HW261080   8.852   7.681   3.600 -1.1116  1.2002 -1.5196
20168SOL     OW61081   8.140   9.187   7.635  0.1354  0.2875 -0.0019
20168SOL    HW161082   8.128   9.099   7.601 -0.6767  0.3493  0.1073
20168SOL    HW261083   8.180   9.235   7.563 -0.3194  0.0760 -0.3982
20169SOL     OW61084   7.246   6.923   7.367  0.0369 -0.0411  0.6146
20169SOL    HW161085   7.316   6.892   7.310  0.4386  1.3298  0.3338
20169SOL    HW261086   7.203   6.843   7.398 -0.4731 -0.8455 -1.9273
20170SOL     OW61087   8.418   2.345   8.261 -0.8021 -0.6487 -0.4511
20170SOL    HW161088   8.472   2.275   8.297  0.7665  0.3162 -0.8515
20170SOL    HW261089   8.386   2.394   8.337 -1.3559 -1.3738 -0.2057
20171SOL     OW61090   4.613   1.108   7.707  0.1225 -0.5546 -0.0408
20171SOL    HW161091   4.565   1.149   7.635 -1.0423  0.0671  1.0548
20171SOL    HW261092   4.642   1.024   7.672 -0.4888 -0.2981 -1.2015
20172SOL     OW61093   3.075   3.376   9.561  0.2518  0.1526  0.0396
20172SOL    HW161094   2.980   3.372   9.554  0.3636 -0.0568 -1.9422
20172SOL    HW261095   3.096   3.468   9.548  0.3659  0.0520 -0.5112
20173SOL     OW61096   7.348   7.270   3.681 -0.2353 -0.1354 -0.2431
20173SOL    HW161097   7.283   7.339   3.667 -0.5814 -0.6992 -1.6422
20173SOL    HW261098   7.314   7.195   3.632  2.2330  0.0250 -2.4671
20174SOL     OW61099   1.494   3.282   8.205  0.4527 -0.0326 -0.1692
20174SOL    HW161100   1.569   3.261   8.150  0.6389 -3.5230  1.1282
20174SOL    HW261101   1.516   3.246   8.291 -1.7321  0.9817  0.9065
20175SOL     OW61102   8.534   9.146   4.092 -0.7564  0.2903 -0.2262
20175SOL    HW161103   8.611   9.166   4.039 -0.5813 -0.4091 -0.2514
20175SOL    HW261104   8.460   9.165   4.034 -0.6429  1.7104  0.0583
20176SOL     OW61105   5.440   5.935  -0.001  0.3530  0.0435  0.2223
20176SOL    HW161106   5.433   5.848  -0.039  0.0226  0.1446  0.0417
20176SOL    HW261107   5.415   5.923   0.091 -1.0528  0.1683 -0.1156
20177SOL     OW61108   2.126   1.272   5.955  0.1980 -0.0264 -0.3252
20177SOL    HW161109   2.167   1.357   5.969 -0.5527  0.5839 -1.6149
20177SOL    HW261110   2.114   1.235   6.042  1.2440  0.8455  0.1956
20178SOL     OW61111   9.886   6.937   2.179  0.6617 -0.6250  0.0810
20178SOL    HW161112   9.859   6.966   2.266 -0.3266  0.2185 -0.4957
20178SOL    HW261113   9.907   7.018   2.132 -1.3727 -0.8251 -1.2983
20179SOL     OW61114   8.404   9.850   3.682  0.2467  0.2806  0.2827
20179SOL    HW161115   8.376   9.901   3.606 -2.0725 -0.2715  0.6916
20179SOL    HW261116   8.420   9.915   3.750 -1.0355  0.5873  0.3083
20180SOL     OW61117   4.365   2.412   2.424  0.0911 -0.1313 -0.2515
20180SOL    HW161118   4.375   2.320   2.450  0.5884 -0.1901 -0.6418
20180SOL    HW261119   4.271   2.430   2.437  0.2141 -0.3142  1.0497
20181SOL     OW61120   8.436   9.367   9.366 -0.4492  0.5400 -0.0534
20181SOL    HW161121   8.362   9.324   9.410 -0.8120  0.0157 -1.1442
20181SOL    HW261122   8.442   9.453   9.408  0.4895 -0.6349  2.3882
20182SOL     OW61123   6.191   9.797   8.548  0.3918  0.3997 -0.4513
20182SOL    HW161124   6.143   9.752   8.478 -1.6698  0.9207  0.5545
20182SOL    HW261125   6.129   9.862   8.582  1.9935  1.4399  0.6285
20183SOL     OW61126   8.977   6.723   6.614 -0.0069  0.1634  0.3479
20183SOL    HW161127   8.988   6.818   6.612  0.5299  0.1003  0.3571
20183SOL    HW261128   8.954   6.704   6.705 -2.7350  0.5660 -0.1715
20184SOL     OW61129   5.095   0.206   8.754  1.2133 -0.1303 -0.4698
20184SOL    HW161130   5.034   0.223   8.826  3.0406  1.3839  0.8468
20184SOL    HW261131   5.138   0.124   8.778 -0.3295 -1.2830 -1.4788
20185SOL     OW61132   6.143   9.683   9.552 -0.1359  0.0981 -0.1750
20185SOL    HW161133   6.089   9.606   9.538  0.3502  0.1059 -2.3520
20185SOL    HW261134   6.081   9.755   9.563 -0.5765 -0.2874 -0.1286
20186SOL     OW61135   6.692   5.674   6.608 -0.2081 -0.1880  0.0382
20186SOL    HW161136   6.598   5.686   6.596 -0.3435 -0.4550  0.8179
20186SOL    HW261137   6.701   5.588   6.649  0.4329 -0.5177 -0.7511
20187SOL     OW61138   8.129   5.307   5.151  0.5256 -0.1089 -0.1197
20187SOL    HW161139   8.190   5.341   5.216  0.2252 -2.4215  1.5139
20187SOL    HW261140   8.184   5.279   5.078  1.1264  0.3080  0.1683
20188SOL     OW61141   3.223   4.695   8.942 -0.0975 -0.1139 -0.5389
20188SOL    HW161142   3.266   4.745   8.873  0.9385 -0.1689  0.0403
20188SOL    HW261143   3.164   4.635   8.896 -2.4068  2.4892 -1.2245
20189SOL     OW61144   4.401   0.684   9.074  0.3651 -0.0902  0.1690
20189SOL    HW161145   4.357   0.631   9.007 -0.8975  2.1087 -0.8591
20189SOL    HW261146   4.354   0.663   9.155  0.3577 -1.0589 -0.0754
20190SOL     OW61147   1.411   8.470   9.055 -0.2484 -0.1838  0.2211
20190SOL    HW161148   1.472   8.436   9.121 -1.4443 -1.5321  0.6763
20190SOL    HW261149   1.391   8.559   9.085 -0.5914 -0.6876  1.5634
20191SOL     OW61150   4.486   1.524   0.683  0.4565  0.0546  0.5508
20191SOL    HW161151   4.493   1.504   0.777 -0.6691  2.5646  1.2608
20191SOL    HW261152   4.573   1.507   0.648  1.1949  0.0704  2.2759
20192SOL     OW61153   9.396   4.229   9.600 -0.0520  0.1532  0.1381
20192SOL    HW161154   9.439   4.280   9.669 -1.1865  0.5084  0.6102
20192SOL    HW261155   9.368   4.295   9.536  1.8241 -0.2455 -1.1899
20193SOL     OW61156   8.469   1.537   1.657  0.2124  0.0219 -0.1239
20193SOL    HW161157   8.448   1.630   1.657 -0.2958 -0.0380 -2.3775
20193SOL    HW261158   8.406   1.498   1.597  1.1066 -1.6113 -0.0519
20194SOL     OW61159   6.326   2.412   6.407  0.5322 -0.0339 -0.1156
20194SOL    HW161160   6.260   2.473   6.438 -0.9555 -1.6859  0.1255
20194SOL    HW261161   6.396   2.416   6.472  0.4432  1.3438 -0.0877
20195SOL     OW61162   0.638   6.761   7.092 -0.0513 -0.3910  0.0804
20195SOL    HW161163   0.671   6.701   7.160 -0.0968 -1.3496 -0.7159
20195SOL    HW261164   0.643   6.710   7.011  2.3010  1.4656 -1.1035
20196SOL     OW61165   8.450   4.491   8.216  0.4819  0.2700  0.6028
20196SOL    HW161166   8.503   4.523   8.143 -0.1352  0.3154  0.1693
20196SOL    HW261167   8.440   4.567   8.274 -0.5943  0.7745 -0.1990
20197SOL     OW61168   8.010   0.460   7.635  0.4123 -0.2491 -0.0963
20197SOL    HW161169   8.021   0.446   7.729  0.5988  0.3717 -0.0188
20197SOL    HW261170   7.990   0.553   7.627 -0.7710 -0.5278 -0.5842
20198SOL     OW61171   7.285   3.638   6.628  0.0715  0.6699 -0.7872
20198SOL    HW161172   7.235   3.661   6.550 -1.5369 -2.2143 -0.7544
20198SOL    HW261173   7.349   3.574   6.596 -1.1894 -1.2260  0.2849
20199SOL     OW61174   2.919   6.897   1.741 -0.4595 -0.0311  0.2473
20199SOL    HW161175   2.904   6.880   1.834  0.8608  0.1074  0.5041
20199SOL    HW261176   2.867   6.831   1.695  0.0279 -1.0359  1.1197
20200SOL     OW61177   2.747   6.405   0.505 -0.0777 -0.6075  0.1359
20200SOL    HW161178   2.841   6.388   0.508  0.2316  0.7696 -0.7787
20200SOL    HW261179   2.738   6.496   0.532 -1.1284 -0.6586 -0.0060
20201SOL     OW61180   3.491   9.264   2.215 -0.1191  0.5413  0.3590
20201SOL    HW161181   3.411   9.282   2.165  0.4757 -1.5642 -1.5381
20201SOL    HW261182   3.464   9.271   2.307 -2.2050  0.9422 -0.2269
20202SOL     OW61183   1.060   2.506   8.010  0.4627  0.0770 -0.4842
20202SOL    HW161184   0.967   2.507   7.988  0.2807  0.2579  0.2592
20202SOL    HW261185   1.099   2.570   7.951 -0.1679  1.2749  0.3729
20203SOL     OW61186   0.221   1.213   5.036 -0.3412 -0.1415  0.3503
20203SOL    HW161187   0.167   1.144   5.073 -0.6780 -0.5002 -0.7506
20203SOL    HW261188   0.293   1.167   4.992 -0.8926  0.1490 -0.8993
20204SOL     OW61189   1.353   8.813   4.413 -0.0811 -1.0321 -0.2277
20204SOL    HW161190   1.374   8.905   4.430 -0.9361 -0.4699 -1.9905
20204SOL    HW261191   1.271   8.799   4.461  0.2169 -0.9827  0.3090
20205SOL     OW61192   1.737   5.913   2.045 -0.2390  0.5283 -0.1790
20205SOL    HW161193   1.678   5.846   2.082 -1.3193  2.0009  0.8584
20205SOL    HW261194   1.808   5.920   2.108 -0.1599  0.4290 -0.2551
20206SOL     OW61195   2.634   1.484   2.303  0.2612  0.0062  0.1947
20206SOL    HW161196   2.676   1.540   2.237  2.1520 -2.6124 -0.9908
20206SOL    HW261197   2.669   1.397   2.286 -2.0900 -1.4733  2.3325
20207SOL     OW61198   5.633   8.812   9.482 -0.5023  0.9491  0.2733
20207SOL    HW161199   5.663   8.902   9.490  0.4401  0.6353  0.3236
20207SOL    HW261200   5.698   8.760   9.529 -1.1089  0.2518  0.3647
20208SOL     OW61201   2.099   9.133   7.287 -0.1379 -0.0586 -0.0917
20208SOL    HW161202   2.043   9.070   7.333  1.0307 -0.4188  0.9231
20208SOL    HW261203   2.179   9.084   7.268 -0.1411  0.4391 -1.5040
20209SOL     OW61204   4.968   9.313   3.504 -0.3349 -0.1293 -0.2021
20209SOL    HW161205   4.924   9.360   3.434 -0.5994  1.4982  0.9909
20209SOL    HW261206   4.909   9.321   3.579  1.3495  0.9922  1.0796
20210SOL     OW61207   7.950   0.759   7.156  0.3742  0.5729 -0.2068
20210SOL    HW161208   8.033   0.784   7.197  0.4921  0.1881 -0.1996
20210SOL    HW261209   7.970   0.754   7.063  0.6697 -0.6386 -0.1028
20211SOL     OW61210   5.741   3.631   2.586 -0.0127 -0.2033  0.0197
20211SOL    HW161211   5.683   3.677   2.646  1.6801 -1.0557  2.4257
20211SOL    HW261212   5.787   3.567   2.640  0.9814 -1.6445 -2.3600
20212SOL     OW61213   5.692   0.148   3.359  0.0336  0.7681 -0.6602
20212SOL    HW161214   5.618   0.180   3.308 -1.0706 -2.4594 -1.3264
20212SOL    HW261215   5.654   0.085   3.420  2.0035  0.6279  0.5095
20213SOL     OW61216   9.393   9.493   4.078 -0.0326  0.3027 -0.3775
20213SOL    HW161217   9.433   9.419   4.124  0.6846  1.2629  0.6039
20213SOL    HW261218   9.300   9.471   4.072  0.1879 -0.7097 -0.1858
20214SOL     OW61219   7.821   9.605   4.427  0.6087  0.7946 -0.0631
20214SOL    HW161220   7.843   9.690   4.387 -0.3654  1.0420 -0.0909
20214SOL    HW261221   7.768   9.628   4.503 -2.2438  0.1283 -1.7368
20215SOL     OW61222   2.110   0.098   2.160  0.5684 -0.0849  0.0118
20215SOL    HW161223   2.110   0.026   2.223  0.0135 -0.3880 -0.3279
20215SOL    HW261224   2.065   0.169   2.204  0.0180 -0.3572 -0.1050
20216SOL     OW61225   3.232   4.657   5.502 -0.1789 -0.6058  0.2249
20216SOL    HW161226   3.304   4.706   5.462 -0.3649  0.0071  0.6208
20216SOL    HW261227   3.268   4.570   5.519  0.8068 -0.0161  1.3304
20217SOL     OW61228   7.604   9.562   1.114  0.2994  0.4463 -0.0502
20217SOL    HW161229   7.560   9.590   1.034 -0.0362  0.1599  0.0324
20217SOL    HW261230   7.601   9.638   1.171 -0.1874  0.3924 -0.0029
20218SOL     OW61231   8.602   0.566   8.395 -0.2764  0.1731  0.4644
20218SOL    HW161232   8.554   0.622   8.455  0.2769  1.0736  0.0897
20218SOL    HW261233   8.617   0.621   8.318  0.7220 -0.3235  0.2914
20219SOL     OW61234   1.155   2.922   0.704  0.0187 -0.2846  0.6494
20219SOL    HW161235   1.191   2.859   0.767  0.3884 -0.8859 -0.1563
20219SOL    HW261236   1.197   3.005   0.728 -0.2186 -0.4021  1.5055
20220SOL     OW61237   1.077   2.318   8.950  0.2986 -0.6383  0.1794
20220SOL    HW161238   1.123   2.304   8.867  1.3688  0.3032  0.5727
20220SOL    HW261239   0.993   2.357   8.924  1.5799  1.9590 -0.4266
20221SOL     OW61240   3.786   9.631   0.312  0.9571  0.2723  0.1273
20221SOL    HW161241   3.843   9.555   0.323  0.3366 -0.0746  1.1211
20221SOL    HW261242   3.758   9.653   0.401 -2.2945 -0.9802 -0.4588
20222SOL     OW61243   1.124   1.121   3.031 -0.7472 -0.2520 -0.1911
20222SOL    HW161244   1.150   1.187   2.966 -0.3130  0.0495  0.2782
20222SOL    HW261245   1.171   1.146   3.110 -1.0708 -0.7678  0.1700
20223SOL     OW61246   7.004   6.853   7.692 -0.0526 -0.0769 -0.2127
20223SOL    HW161247   7.069   6.923   7.705 -0.1235  0.3322 -1.8847
20223SOL    HW261248   6.920   6.895   7.713  0.0705 -0.1854  0.5217
20224SOL     OW61249   9.924   2.499   7.184  0.1669  0.4355 -0.1453
20224SOL    HW161250   9.912   2.416   7.138 -0.0622  0.1096  0.4931
20224SOL    HW261251   9.919   2.565   7.115  0.8691 -0.1016 -0.7415
20225SOL     OW61252   6.667   1.081   1.906 -0.4028 -0.1010  0.4507
20225SOL    HW161253   6.738   1.065   1.843 -0.5278 -1.4004  0.6122
20225SOL    HW261254   6.682   1.017   1.975 -2.1931 -0.9842  0.0896
20226SOL     OW61255   7.923   9.188   8.108 -0.1488 -0.0781  0.5962
20226SOL    HW161256   7.853   9.135   8.146  1.8469 -1.0306  3.2575
20226SOL    HW261257   7.966   9.129   8.046 -0.1949 -0.3032  0.7762
20227SOL     OW61258   9.257   9.698   8.267  0.2492 -0.3604 -0.1055
20227SOL    HW161259   9.307   9.729   8.342 -0.3024 -0.4708  0.3174
20227SOL    HW261260   9.176   9.749   8.269 -0.3874 -1.3274  0.2256
20228SOL     OW61261   8.459   4.357   8.806  0.9412 -0.0006  0.5428
20228SOL    HW161262   8.481   4.444   8.772  1.1292 -0.9675 -2.0912
20228SOL    HW261263   8.364   4.356   8.808  0.9054 -0.0599 -0.4892
20229SOL     OW61264   6.057   9.095   2.695 -0.6277 -0.0363  0.0838
20229SOL    HW161265   6.013   9.164   2.744 -0.8044  0.5130 -0.8108
20229SOL    HW261266   6.141   9.133   2.670 -0.5958 -0.2555 -0.1438
20230SOL     OW61267   6.681   3.312   9.726  0.1478  0.0146  0.2166
20230SOL    HW161268   6.660   3.362   9.805 -3.1711 -1.1073  0.1835
20230SOL    HW261269   6.641   3.362   9.654 -1.1218 -1.3754 -0.0930
20231SOL     OW61270   6.965   0.601   1.535 -0.1081  0.2024  0.0689
20231SOL    HW161271   6.909   0.628   1.462  0.0765  1.1744  0.2697
20231SOL    HW261272   6.908   0.546   1.589 -0.7590  0.8550  0.0676
20232SOL     OW61273   1.726   3.508   8.822 -0.1159  0.4894 -0.1348
20232SOL    HW161274   1.729   3.413   8.821 -0.0821  0.4641  1.2430
20232SOL    HW261275   1.766   3.534   8.738  1.3361 -0.6691  0.1499
20233SOL     OW61276   3.313   8.666   3.530  0.2853 -0.0829 -0.0708
20233SOL    HW161277   3.245   8.733   3.534  1.6674  1.3295  1.1447
20233SOL    HW261278   3.381   8.698   3.588  2.3781 -1.0096 -1.8700
20234SOL     OW61279   4.189   8.477   9.170 -0.1053 -0.0973 -0.0059
20234SOL    HW161280   4.263   8.483   9.109 -0.4190 -0.6872 -0.4600
20234SOL    HW261281   4.112   8.486   9.114 -0.4052 -0.9282  0.2568
20235SOL     OW61282   1.045   9.859   9.174 -0.0122 -0.0842  0.3979
20235SOL    HW161283   1.135   9.888   9.180 -0.1525  0.4499  0.0068
20235SOL    HW261284   1.032   9.838   9.081 -0.2851 -0.1708  0.4522
20236SOL     OW61285   2.046   6.580   2.204 -0.2610 -0.8545 -0.1300
20236SOL    HW161286   2.132   6.561   2.165  0.0735 -1.0459  0.6862
20236SOL    HW261287   2.065   6.600   2.295 -0.4289  4.0729 -0.8650
20237SOL     OW61288   4.224   5.030   8.762 -0.9316  0.6389  0.1397
20237SOL    HW161289   4.194   4.946   8.798  0.9068 -0.4204 -0.6243
20237SOL    HW261290   4.148   5.087   8.767 -2.1046 -0.9238  1.1568
20238SOL     OW61291   5.905   7.104   5.625 -0.1491 -0.4434  0.6379
20238SOL    HW161292   5.959   7.076   5.699  0.1867  1.0700  0.9968
20238SOL    HW261293   5.967   7.120   5.554 -0.1328  0.8473  0.9116
20239SOL     OW61294   9.001   0.249   3.210  0.0153 -0.3628 -0.6743
20239SOL    HW161295   8.977   0.232   3.119  0.2729 -1.0101 -0.6315
20239SOL    HW261296   9.022   0.162   3.246  0.2926 -0.0707 -0.1102
20240SOL     OW61297   4.610   7.045   4.584 -0.5037 -0.0725 -0.2119
20240SOL    HW161298   4.544   7.113   4.571 -0.3046 -0.1660 -1.9494
20240SOL    HW261299   4.668   7.053   4.509  0.3446 -1.2622  0.2813
20241SOL     OW61300   7.575   2.338   0.761  0.2481 -0.0696  0.3841
20241SOL    HW161301   7.585   2.287   0.680 -2.2266  1.6078 -1.1011
20241SOL    HW261302   7.617   2.422   0.742 -2.5643  1.2848 -0.2157
20242SOL     OW61303   0.324   1.088   3.187  0.4534 -0.5274 -0.7083
20242SOL    HW161304   0.339   1.125   3.100  0.8469 -0.7040 -0.7174
20242SOL    HW261305   0.371   1.146   3.247  1.5634 -1.3281 -0.7791
20243SOL     OW61306   2.160   5.018   1.479  0.1199  0.2646  0.0945
20243SOL    HW161307   2.094   4.952   1.459  1.6529 -0.6491 -2.4412
20243SOL    HW261308   2.243   4.977   1.452  1.4371  2.2356  0.9710
20244SOL     OW61309   7.753   7.352   8.598 -0.3855 -0.2758 -0.3269
20244SOL    HW161310   7.677   7.404   8.571 -0.8872 -0.5133  0.5904
20244SOL    HW261311   7.722   7.262   8.594  0.5241 -0.5593 -2.0596
20245SOL     OW61312   0.943   6.781   6.626  0.3145 -0.0057 -1.0390
20245SOL    HW161313   0.916   6.691   6.610  0.0965  0.0478 -0.9724
20245SOL    HW261314   0.917   6.798   6.717  1.9728 -0.4747 -0.4319
20246SOL     OW61315   6.160   4.961   7.611  0.2051  0.3397  0.4827
20246SOL    HW161316   6.069   4.940   7.591  0.7083 -1.6286 -0.0288
20246SOL    HW261317   6.166   4.953   7.706 -0.0853  0.0841  0.4825
20247SOL     OW61318   3.782   9.013   5.279 -0.0698  0.4534 -0.2543
20247SOL    HW161319   3.749   9.093   5.319 -0.0397  0.9700 -1.2318
20247SOL    HW261320   3.704   8.969   5.244 -0.3036 -0.7747  1.6531
20248SOL     OW61321   5.076   0.723   3.501 -0.0312 -0.3584 -0.5048
20248SOL    HW161322   5.054   0.660   3.433 -1.1781 -0.3372 -0.1698
20248SOL    HW261323   5.133   0.675   3.561 -1.9842 -1.5553  0.4956
20249SOL     OW61324   6.177   5.776   6.423  0.2906 -0.2275 -0.6020
20249SOL    HW161325   6.104   5.798   6.481  0.5503  2.0841 -1.0655
20249SOL    HW261326   6.166   5.682   6.405 -0.5972 -0.6872  2.0007
20250SOL     OW61327   4.180   2.730   6.997 -0.6785  0.0465  0.3668
20250SOL    HW161328   4.117   2.800   7.015 -1.7719 -0.9278  0.4120
20250SOL    HW261329   4.128   2.649   7.000  0.2437 -0.6460 -1.2937
20251SOL     OW61330   2.919   1.009   8.814  0.3256 -0.3865 -0.2113
20251SOL    HW161331   2.984   1.079   8.805  1.4682 -1.4858 -0.9285
20251SOL    HW261332   2.905   0.977   8.724  3.1270 -3.8842  0.3550
20252SOL     OW61333   2.378   7.509   7.929 -0.4114  0.0372 -0.0270
20252SOL    HW161334   2.357   7.522   8.021 -1.2257  0.2764 -0.2329
20252SOL    HW261335   2.468   7.540   7.919 -0.0346 -0.7234  0.8351
20253SOL     OW61336   8.446   1.491   1.070  0.1647  0.0641  0.2623
20253SOL    HW161337   8.466   1.549   0.996  1.7108  0.7407  1.1581
20253SOL    HW261338   8.400   1.547   1.132 -1.8440 -0.7009 -0.4538
20254SOL     OW61339   3.323   9.353   1.132  0.1064 -0.2219 -0.1235
20254SOL    HW161340   3.250   9.329   1.075  0.5354 -1.0693 -0.3322
20254SOL    HW261341   3.358   9.433   1.094  0.0294 -0.4684 -0.7228
20255SOL     OW61342   4.865   8.296   3.759 -0.0467  0.1202 -0.0718
20255SOL    HW161343   4.908   8.348   3.827 -0.5455  1.3810 -0.6771
20255SOL    HW261344   4.788   8.347   3.736  0.1071 -0.2813 -1.5758
20256SOL     OW61345   0.280   4.540   5.097 -0.4384 -0.1637  0.2434
20256SOL    HW161346   0.203   4.499   5.058 -0.0581 -1.1881  0.5218
20256SOL    HW261347   0.300   4.486   5.173 -0.3411  0.9849  1.0653
20257SOL     OW61348   3.471   8.715   7.978  0.9282  0.2438  0.0193
20257SOL    HW161349   3.437   8.707   7.889  0.6783 -0.2145  0.1553
20257SOL    HW261350   3.460   8.808   8.000 -1.8085 -0.1585  0.6736
20258SOL     OW61351   2.358   9.779   3.166  0.2468  0.1644  0.6865
20258SOL    HW161352   2.264   9.793   3.176 -0.1980 -1.7551 -0.4679
20258SOL    HW261353   2.383   9.837   3.094 -0.5435 -1.0129 -0.5815
20259SOL     OW61354   0.468   1.570   2.461 -0.1318  0.0223 -0.3787
20259SOL    HW161355   0.467   1.502   2.393  0.5234 -0.0591 -0.3112
20259SOL    HW261356   0.470   1.522   2.543  0.0679  0.1256 -0.3242
20260SOL     OW61357   5.063   3.647   1.023  0.0045  0.1416 -0.0722
20260SOL    HW161358   5.156   3.641   1.003  0.4015  0.4402  1.5308
20260SOL    HW261359   5.047   3.578   1.087 -1.2138 -0.8384 -1.3527
20261SOL     OW61360   5.070   2.879   2.836 -0.0725 -0.0901  0.3654
20261SOL    HW161361   5.089   2.969   2.808  1.3835  0.2463  2.2299
20261SOL    HW261362   5.075   2.827   2.756  1.1300  1.2058 -0.4451
20262SOL     OW61363   9.592   7.669   2.081  0.0417 -0.5608  0.6035
20262SOL    HW161364   9.627   7.589   2.122 -0.8472 -1.6092 -0.6028
20262SOL    HW261365   9.592   7.734   2.151 -1.8802 -2.4015  2.4597
20263SOL     OW61366   6.812   7.602   8.502  0.1366  0.1151 -0.4034
20263SOL    HW161367   6.851   7.515   8.501 -0.4536 -0.1543 -0.4335
20263SOL    HW261368   6.739   7.597   8.440 -2.1340 -0.4309  2.1238
20264SOL     OW61369   9.200   6.556   6.534  0.4079  0.4650 -0.4639
20264SOL    HW161370   9.169   6.474   6.573  2.6217 -0.0108  0.4192
20264SOL    HW261371   9.136   6.622   6.561  1.1544 -0.0691  3.0661
20265SOL     OW61372   2.542   6.089   7.205 -0.1341 -0.2931  0.2679
20265SOL    HW161373   2.546   6.069   7.111  1.3942 -1.3146  0.5200
20265SOL    HW261374   2.452   6.068   7.230 -0.0737 -1.7555 -0.6149
20266SOL     OW61375   3.749   6.902   6.654  0.1205  0.4050  0.0426
20266SOL    HW161376   3.666   6.890   6.608  0.0977  2.7748 -0.6821
20266SOL    HW261377   3.783   6.814   6.666 -2.3471 -0.6201  0.1157
20267SOL     OW61378   1.844   4.614   8.518 -0.6506  0.5202  0.3606
20267SOL    HW161379   1.889   4.698   8.504 -0.1113  0.5220  1.9368
20267SOL    HW261380   1.794   4.626   8.598 -1.2512 -0.4070  0.1423
20268SOL     OW61381   4.372   5.359   7.579  0.1406 -0.1475 -0.0090
20268SOL    HW161382   4.348   5.295   7.511  0.0512 -1.3052  1.0739
20268SOL    HW261383   4.328   5.439   7.552 -1.9163 -1.2185 -0.0735
20269SOL     OW61384   8.319   8.991   1.426 -0.2171 -0.0375 -0.3104
20269SOL    HW161385   8.399   9.037   1.400 -0.9078 -0.0469 -2.7635
20269SOL    HW261386   8.262   9.060   1.461  0.1267  0.3354 -0.4775
20270SOL     OW61387   5.839   2.420   3.591 -0.6202 -0.4539 -0.3768
20270SOL    HW161388   5.915   2.372   3.556  0.4819  1.2642 -0.4372
20270SOL    HW261389   5.791   2.354   3.641  1.3141 -1.4510  0.2667
20271SOL     OW61390   3.852   2.340   4.722 -0.5773  0.3359 -0.1080
20271SOL    HW161391   3.805   2.423   4.728  0.1406  0.6532  1.5416
20271SOL    HW261392   3.824   2.290   4.798  1.6686  0.5257  0.9191
20272SOL     OW61393   8.585   7.341   8.165  0.1470 -0.2260  0.5281
20272SOL    HW161394   8.511   7.331   8.105  2.5709 -0.7267 -2.6106
20272SOL    HW261395   8.588   7.259   8.214 -0.8587 -0.5288  0.1002
20273SOL     OW61396   6.305   6.220   0.842  0.2012 -0.5345 -0.0992
20273SOL    HW161397   6.278   6.129   0.831 -0.5258 -0.1655 -1.5573
20273SOL    HW261398   6.401   6.216   0.847  0.1318 -1.4639  1.0066
20274SOL     OW61399   6.086   6.825   6.137  0.0951  0.3457  0.0676
20274SOL    HW161400   6.087   6.732   6.157  3.0192  0.6871  2.0242
20274SOL    HW261401   6.146   6.834   6.063  0.5153  0.7546  0.4542
20275SOL     OW61402   4.257   3.338   5.070 -0.1208 -0.4473  0.1597
20275SOL    HW161403   4.347   3.369   5.085  0.4208 -1.3859 -0.9744
20275SOL    HW261404   4.203   3.416   5.082  0.9150  0.2952  0.1674
20276SOL     OW61405   1.172   5.243   9.374  0.4424  0.0478 -0.2310
20276SOL    HW161406   1.079   5.231   9.359  0.1697 -0.3319  1.5549
20276SOL    HW261407   1.212   5.238   9.287 -1.1745  0.0962 -0.9989
20277SOL     OW61408   4.167   4.514   4.019 -0.2924 -0.1003 -0.0617
20277SOL    HW161409   4.140   4.505   4.111  0.2250 -0.0780  0.0966
20277SOL    HW261410   4.137   4.434   3.977  1.7167 -1.3131  0.6929
20278SOL     OW61411   9.661   0.109   3.811 -0.1731  0.0249  0.3120
20278SOL    HW161412   9.752   0.086   3.790 -1.5269 -4.0308 -2.2020
20278SOL    HW261413   9.657   0.104   3.907  1.9335 -1.2605  0.4098
20279SOL     OW61414   0.304   3.466   6.313 -0.1194 -0.2195 -0.4374
20279SOL    HW161415   0.361   3.396   6.284  0.9356  0.9430 -1.2895
20279SOL    HW261416   0.348   3.503   6.389 -0.0590  0.2617 -0.7014
20280SOL     OW61417   1.687   0.173   0.592  0.4558  0.3402  0.0260
20280SOL    HW161418   1.623   0.102   0.580 -0.0758  0.7086  0.6462
20280SOL    HW261419   1.641   0.239   0.643  1.4767  0.4307  0.8552
20281SOL     OW61420   8.885   7.566   8.297 -0.4255  0.9221 -0.3237
20281SOL    HW161421   8.810   7.515   8.328  0.0045  0.2571 -0.3594
20281SOL    HW261422   8.942   7.575   8.373 -0.3760  1.1273 -0.3833
20282SOL     OW61423   3.753   7.866   3.250 -0.3007 -0.4491 -0.4810
20282SOL    HW161424   3.699   7.793   3.281 -0.9061 -0.0450 -0.5680
20282SOL    HW261425   3.693   7.939   3.243  0.3680  0.1504 -0.0869
20283SOL     OW61426   9.165   6.989   1.628  0.3404  0.0343 -0.0070
20283SOL    HW161427   9.211   6.952   1.553 -0.8785 -1.2458 -0.1613
20283SOL    HW261428   9.123   7.068   1.595  1.6291  0.7133 -0.0891
20284SOL     OW61429   1.489   2.649   9.025  0.3304  0.2823  0.3305
20284SOL    HW161430   1.542   2.586   8.977  1.2722  0.5639  0.9665
20284SOL    HW261431   1.400   2.637   8.991  1.0159  0.7572 -1.7816
20285SOL     OW61432   7.496   5.875   5.570 -0.5365 -0.2788 -0.2470
20285SOL    HW161433   7.562   5.880   5.500  0.2878  0.6284  0.5738
20285SOL    HW261434   7.497   5.782   5.595 -0.6691 -0.5737 -1.2621
20286SOL     OW61435   3.686   7.366   7.366 -0.1013  0.2413 -0.1912
20286SOL    HW161436   3.669   7.391   7.457 -0.7695 -0.6005 -0.0640
20286SOL    HW261437   3.714   7.446   7.323 -1.7766  1.1199  0.2667
20287SOL     OW61438   5.322   4.089   0.304  0.2129 -0.3048 -0.1593
20287SOL    HW161439   5.398   4.046   0.264  0.1321  1.0956 -1.9171
20287SOL    HW261440   5.308   4.167   0.252  0.0072  1.6182  2.5529
20288SOL     OW61441   6.616   4.901   2.489  0.6163  0.0733  0.2929
20288SOL    HW161442   6.543   4.904   2.551  0.6954  1.3008  0.3330
20288SOL    HW261443   6.692   4.879   2.542  0.2480 -1.5916  0.1969
20289SOL     OW61444   0.456   8.843   7.757 -0.2545  0.1191  0.1825
20289SOL    HW161445   0.465   8.935   7.731  0.0082 -0.1476 -0.7321
20289SOL    HW261446   0.543   8.806   7.742 -0.3091 -0.2372  0.7286
20290SOL     OW61447   2.013   8.674   1.455 -0.2504 -0.6553  0.9190
20290SOL    HW161448   2.037   8.643   1.542 -3.0998 -2.3890  1.1896
20290SOL    HW261449   2.036   8.601   1.397 -0.1012 -0.2496  0.4592
20291SOL     OW61450   9.347   0.064   5.595 -0.0876  0.4423  0.4782
20291SOL    HW161451   9.442   0.053   5.585 -0.1126  1.4379 -1.2548
20291SOL    HW261452   9.312  -0.025   5.585  0.7531 -0.4022  3.7222
20292SOL     OW61453   5.632   1.034   9.941  0.3199  0.2213  0.0797
20292SOL    HW161454   5.612   0.941   9.945 -0.4997  0.4350  1.9405
20292SOL    HW261455   5.546   1.076   9.936  0.6434  0.9237  0.3137
20293SOL     OW61456   7.709   4.454   4.368  0.2832  0.3333  0.9844
20293SOL    HW161457   7.677   4.375   4.409 -1.7949  0.9301  0.6363
20293SOL    HW261458   7.719   4.431   4.275 -0.0210  0.3969  0.9363
20294SOL     OW61459   7.675   0.144   3.476 -0.3961 -0.2153 -0.0276
20294SOL    HW161460   7.582   0.158   3.459 -0.3610  1.8512  1.0815
20294SOL    HW261461   7.715   0.134   3.389 -1.3932  0.8747 -0.6350
20295SOL     OW61462   9.733   7.998   9.047  0.6942 -0.4031  0.4311
20295SOL    HW161463   9.756   7.968   8.959  1.2697 -1.7306  1.0080
20295SOL    HW261464   9.749   8.093   9.045 -2.5581  0.2707 -1.8936
20296SOL     OW61465   2.221   7.088   1.131  0.5435 -0.4278  0.6762
20296SOL    HW161466   2.156   7.036   1.082  0.6487  0.8535 -0.9178
20296SOL    HW261467   2.169   7.142   1.190 -0.0204  1.3491 -1.3190
20297SOL     OW61468   8.408   5.173   0.890  0.0556 -0.0729 -0.2222
20297SOL    HW161469   8.333   5.178   0.949 -1.2542 -0.1005 -1.7943
20297SOL    HW261470   8.431   5.264   0.872 -1.8098  0.0730 -2.3100
20298SOL     OW61471   2.582   5.020   8.844 -0.1570 -0.2010  0.3115
20298SOL    HW161472   2.602   4.926   8.844  2.4182  0.2788  0.6408
20298SOL    HW261473   2.527   5.032   8.922  0.7094 -1.2445  1.1242
20299SOL     OW61474   8.266   5.447   5.345 -0.1458  0.4546  0.5239
20299SOL    HW161475   8.286   5.420   5.435 -1.0831  1.7599  1.1505
20299SOL    HW261476   8.259   5.542   5.350 -1.3417  0.4507 -0.7012
20300SOL     OW61477   5.994   1.701   5.393 -0.5762 -0.8567  0.0816
20300SOL    HW161478   6.052   1.725   5.321 -1.5196 -0.2740 -0.4996
20300SOL    HW261479   6.046   1.641   5.446  0.8833  0.3121  0.0654
20301SOL     OW61480   9.788   5.180   9.554  0.1310  0.0928 -0.0045
20301SOL    HW161481   9.797   5.269   9.588  0.6089 -0.2587  0.8257
20301SOL    HW261482   9.759   5.129   9.629  0.7038 -0.6072 -0.2489
20302SOL     OW61483   7.262   7.773   6.967  0.1274 -0.4699  0.3604
20302SOL    HW161484   7.193   7.764   6.902  0.8633  0.2709 -0.5493
20302SOL    HW261485   7.224   7.828   7.036  0.1414  0.8498 -0.6468
20303SOL     OW61486   4.829   3.397   3.842  0.0384 -0.0330 -0.1130
20303SOL    HW161487   4.863   3.467   3.897 -2.2090 -0.8557  2.6046
20303SOL    HW261488   4.906   3.346   3.817  1.2533  0.6144  2.0325
20304SOL     OW61489   5.025   0.108   8.270 -0.4386 -0.0045  0.0275
20304SOL    HW161490   4.944   0.143   8.234 -1.2143 -2.1455 -0.4364
20304SOL    HW261491   5.008   0.101   8.364 -1.2387 -1.4795 -0.2048
20305SOL     OW61492   2.455   8.310   9.361  0.0286 -0.1605 -0.4387
20305SOL    HW161493   2.522   8.378   9.351 -0.9760  0.8580 -0.4595
20305SOL    HW261494   2.410   8.331   9.442 -0.4172 -0.7010 -0.5335
20306SOL     OW61495   4.077   9.482   0.799  0.2826  0.2484  0.4416
20306SOL    HW161496   4.017   9.550   0.830 -0.2051  0.3465 -0.6675
20306SOL    HW261497   4.162   9.506   0.837  0.4121  2.2451 -0.9594
20307SOL     OW61498   2.835   9.268   5.188 -0.1783  0.2960 -0.7691
20307SOL    HW161499   2.838   9.184   5.234 -1.2021  0.2714 -0.7248
20307SOL    HW261500   2.783   9.251   5.109  0.8614  0.5377 -1.5447
20308SOL     OW61501   6.497   0.691   7.684 -0.4026 -0.0442 -0.5727
20308SOL    HW161502   6.412   0.648   7.677 -0.5214 -0.5071  2.3392
20308SOL    HW261503   6.475   0.784   7.692 -0.3569  0.2629 -3.3001
20309SOL     OW61504   8.871   6.717   6.347 -0.1752 -0.3870  0.3853
20309SOL    HW161505   8.915   6.700   6.430 -0.2160  0.3799  0.5770
20309SOL    HW261506   8.779   6.698   6.364  0.0550 -1.9654 -0.0085
20310SOL     OW61507   5.279   0.952   5.408  0.2517 -0.0197  0.1466
20310SOL    HW161508   5.261   0.868   5.366 -0.3381  0.3283 -0.3170
20310SOL    HW261509   5.335   0.998   5.346 -0.7131  0.5400 -0.3471
20311SOL     OW61510   3.904   8.666   5.420 -0.1877  0.8631  0.1642
20311SOL    HW161511   3.892   8.572   5.406 -0.4730  0.3828  2.9585
20311SOL    HW261512   3.999   8.678   5.423 -0.1104  0.9878 -1.6790
20312SOL     OW61513   7.409   3.343   5.129 -0.1740 -0.0362  0.0911
20312SOL    HW161514   7.314   3.358   5.129 -0.1089  0.4169  0.2484
20312SOL    HW261515   7.421   3.268   5.187 -0.4148  0.0979  0.3227
20313SOL     OW61516   7.377   2.323   3.357 -0.1498 -0.2352  0.1019
20313SOL    HW161517   7.395   2.417   3.362 -2.4081  0.3180 -0.9559
20313SOL    HW261518   7.292   2.317   3.314 -0.7177 -2.7257  1.3864
20314SOL     OW61519   8.888   2.053   8.508  0.2420  0.1468  0.2641
20314SOL    HW161520   8.874   2.066   8.414 -0.4337  0.1730  0.3611
20314SOL    HW261521   8.983   2.058   8.519  0.3814 -0.4823 -0.5079
20315SOL     OW61522   8.220   6.286   0.862 -0.2940 -0.5544 -0.1431
20315SOL    HW161523   8.285   6.223   0.892  0.0691 -1.3065 -2.3321
20315SOL    HW261524   8.269   6.347   0.806 -0.9285  0.7739  0.6901
20316SOL     OW61525   5.541   7.746   7.227  0.3533 -0.1250 -0.0243
20316SOL    HW161526   5.467   7.750   7.289  0.3762 -0.6829  0.0460
20316SOL    HW261527   5.526   7.665   7.178 -0.3612  0.9445 -1.6429
20317SOL     OW61528   6.660   2.955   6.966  0.0896 -0.1315  0.2938
20317SOL    HW161529   6.754   2.970   6.970  0.4577 -1.9094 -0.7561
20317SOL    HW261530   6.629   2.976   7.054  1.3145  1.2940  0.4205
20318SOL     OW61531   6.950   5.519   7.308  0.1167  0.4278 -0.8055
20318SOL    HW161532   7.025   5.505   7.250 -1.0654 -0.0539 -2.2799
20318SOL    HW261533   6.955   5.612   7.332  1.1825  0.3966 -0.8607
20319SOL     OW61534   9.433   9.515   3.775 -0.0205 -0.1120  0.6797
20319SOL    HW161535   9.492   9.444   3.801  0.3640  0.0250  0.1746
20319SOL    HW261536   9.401   9.550   3.858  1.6075  0.6746  1.0090
20320SOL     OW61537   3.149   3.455   7.526  0.0345 -0.2433  0.1066
20320SOL    HW161538   3.179   3.536   7.484  0.5780 -0.1322  0.7000
20320SOL    HW261539   3.209   3.388   7.494  1.4481  0.1137  1.8987
20321SOL     OW61540   4.701   9.565   2.118  0.5816 -0.5812 -0.9996
20321SOL    HW161541   4.721   9.529   2.205 -0.1177 -1.0491 -1.0192
20321SOL    HW261542   4.619   9.522   2.093 -1.3350  2.3095 -0.2476
20322SOL     OW61543   4.070   9.813   9.808 -0.2375  0.3082 -0.0892
20322SOL    HW161544   4.161   9.789   9.828  0.1956 -0.2369 -2.4743
20322SOL    HW261545   4.070   9.909   9.812  0.2941  0.2923  0.4854
20323SOL     OW61546   1.116   0.929   9.205  0.0166 -0.4183  0.5114
20323SOL    HW161547   1.130   0.874   9.129  2.8848 -0.9567  1.3271
20323SOL    HW261548   1.120   1.018   9.172 -2.9118 -0.5494 -0.5291
20324SOL     OW61549   1.153   3.780   5.738  0.1964  0.1833 -0.4747
20324SOL    HW161550   1.201   3.745   5.813  0.6211 -0.7896 -1.1819
20324SOL    HW261551   1.209   3.848   5.703 -1.1350  2.5248  1.6006
20325SOL     OW61552   9.798   8.721   8.792 -0.6420 -0.1495  0.6244
20325SOL    HW161553   9.711   8.762   8.791 -0.1127  1.2408  3.3597
20325SOL    HW261554   9.854   8.785   8.834  2.1335 -0.4238 -2.2733
20326SOL     OW61555   6.599   4.375   9.175  0.5608 -0.2535  0.1835
20326SOL    HW161556   6.609   4.281   9.164 -0.8276 -0.7468  2.4882
20326SOL    HW261557   6.513   4.395   9.137  0.2374 -0.1785  0.9456
20327SOL     OW61558   4.442   3.348   3.311  0.0968  0.6626  0.7233
20327SOL    HW161559   4.504   3.362   3.382 -0.7363  0.7236  1.4644
20327SOL    HW261560   4.360   3.387   3.343 -0.3298  0.5640 -0.2138
20328SOL     OW61561   7.162   6.791   5.634  0.6967  0.0404 -0.3564
20328SOL    HW161562   7.178   6.853   5.562 -1.4546  1.3345  0.1843
20328SOL    HW261563   7.202   6.832   5.710 -1.6650  1.4448  0.2346
20329SOL     OW61564   0.319   5.977   1.109 -0.2273 -0.7038 -0.2214
20329SOL    HW161565   0.267   5.915   1.160  1.7721 -0.9936  1.6077
20329SOL    HW261566   0.339   5.930   1.027 -1.6602 -1.0830 -0.3692
20330SOL     OW61567   0.776   3.763   3.397  0.2027  0.3509  0.0281
20330SOL    HW161568   0.729   3.728   3.473  0.4699 -0.6734 -0.2569
20330SOL    HW261569   0.829   3.835   3.432 -0.6794  0.7513  0.5604
20331SOL     OW61570   3.210   9.017   7.869 -0.1452 -0.4683  0.5096
20331SOL    HW161571   3.117   8.998   7.854 -0.1359 -0.5257  0.5251
20331SOL    HW261572   3.240   9.055   7.786  0.7815 -4.0068 -0.9774
20332SOL     OW61573   7.285   5.310   3.663  0.1634  0.5052 -0.3430
20332SOL    HW161574   7.195   5.288   3.641 -0.2986 -0.2583  2.0461
20332SOL    HW261575   7.280   5.399   3.699  0.3439  0.4414 -0.1570
20333SOL     OW61576   3.026   9.888   6.753  0.0876 -0.1672 -0.1383
20333SOL    HW161577   3.007   9.978   6.727 -3.2702 -0.5510  0.5875
20333SOL    HW261578   2.996   9.836   6.678 -1.1028 -0.7926  0.7393
20334SOL     OW61579   0.191   7.083   9.492  0.5556 -0.0882 -0.2725
20334SOL    HW161580   0.208   7.082   9.398  0.6489  0.2378 -0.2602
20334SOL    HW261581   0.154   7.170   9.509 -1.7526 -0.9921 -0.4002
20335SOL     OW61582   3.260   6.476   1.831  0.0307  0.3355  0.0165
20335SOL    HW161583   3.270   6.404   1.894 -0.7127 -0.9075 -1.2111
20335SOL    HW261584   3.340   6.527   1.840  0.9512 -1.1019  0.3943
20336SOL     OW61585   5.929   0.756   5.775 -0.2707 -0.1158  0.1358
20336SOL    HW161586   5.869   0.779   5.845  0.3531 -0.9397  0.9723
20336SOL    HW261587   5.952   0.664   5.792 -0.6907 -0.5950 -1.5766
20337SOL     OW61588   4.777   2.883   8.062  0.4654  0.3128  0.2416
20337SOL    HW161589   4.842   2.853   7.999  1.3967  0.2450  1.2020
20337SOL    HW261590   4.775   2.978   8.050  2.6657  0.6559  1.9080
20338SOL     OW61591   2.462   6.114   8.040 -0.3121 -0.2256  0.0897
20338SOL    HW161592   2.393   6.070   7.991 -0.4568 -0.3835  0.4294
20338SOL    HW261593   2.424   6.128   8.127 -0.5710  1.3022 -0.2419
20339SOL     OW61594   9.577   4.459   1.380  0.0461 -0.1893 -0.2686
20339SOL    HW161595   9.538   4.471   1.467  1.5519 -0.6178  0.4906
20339SOL    HW261596   9.531   4.384   1.343 -1.1659  0.4882 -0.1973
20340SOL     OW61597   4.849   6.479   0.024 -0.1633  0.3174  0.1811
20340SOL    HW161598   4.911   6.538  -0.019 -1.7799  1.4131 -0.7798
20340SOL    HW261599   4.878   6.475   0.115  2.3176 -0.6345 -0.5561
20341SOL     OW61600   6.733   7.705   8.739 -0.4761  0.3780  0.1152
20341SOL    HW161601   6.691   7.624   8.768 -0.4256  0.2548 -0.1586
20341SOL    HW261602   6.770   7.684   8.653  0.4741  0.3828  0.5216
20342SOL     OW61603   2.646   7.575   9.936 -0.4216  0.5342 -0.3737
20342SOL    HW161604   2.584   7.507   9.961  1.0682 -1.2323 -1.2660
20342SOL    HW261605   2.726   7.555   9.986 -0.3325  2.4313  0.3472
20343SOL     OW61606   6.751   3.644   0.384 -0.1370  0.4034  1.3916
20343SOL    HW161607   6.677   3.585   0.397 -0.4280  0.8711  1.9023
20343SOL    HW261608   6.812   3.594   0.330 -1.3730  0.4571 -0.1170
20344SOL     OW61609   7.880   6.666   4.100 -0.3158  0.0823 -0.2137
20344SOL    HW161610   7.955   6.607   4.090 -1.2019 -1.0444 -0.4088
20344SOL    HW261611   7.820   6.642   4.030 -1.7776 -0.4708  1.1472
20345SOL     OW61612   0.425   6.208   6.930 -0.0404  0.1357  0.3271
20345SOL    HW161613   0.350   6.167   6.973 -0.0399  1.1198  1.2942
20345SOL    HW261614   0.495   6.142   6.935 -1.0413 -1.1220 -1.3302
20346SOL     OW61615   5.873   4.360   3.082  0.7332  0.6325  0.1083
20346SOL    HW161616   5.867   4.454   3.102  2.0677  0.5502  1.0456
20346SOL    HW261617   5.820   4.318   3.149  0.2443  0.7031 -0.2306
20347SOL     OW61618   1.906   4.477   2.077 -0.3809 -0.0043  0.9149
20347SOL    HW161619   1.815   4.464   2.104 -0.4073 -3.6789 -0.3936
20347SOL    HW261620   1.914   4.430   1.994  2.6977  0.2532  0.9365
20348SOL     OW61621   9.822   5.439   8.135  0.1337  0.2959  0.2393
20348SOL    HW161622   9.906   5.423   8.178  0.2872  0.0859 -0.1342
20348SOL    HW261623   9.842   5.501   8.065  0.1447 -0.4241 -0.4059
20349SOL     OW61624   0.655   6.090   6.319 -0.1565 -0.6041  0.4397
20349SOL    HW161625   0.625   6.108   6.408 -0.5695 -1.3442  0.4603
20349SOL    HW261626   0.733   6.035   6.332 -0.6774 -1.3815  0.3423
20350SOL     OW61627   9.311   0.862   7.295  0.2539 -0.0419  0.3812
20350SOL    HW161628   9.333   0.900   7.380  1.3209  1.6769 -0.6017
20350SOL    HW261629   9.219   0.838   7.303  0.6061 -0.9766  2.3636
20351SOL     OW61630   2.469   5.772   0.403 -0.0302 -0.0278  0.1877
20351SOL    HW161631   2.522   5.848   0.382 -1.9728  1.5877  0.7704
20351SOL    HW261632   2.457   5.775   0.498  0.4496 -1.5028  0.3236
20352SOL     OW61633   3.289   0.062   1.335 -0.1157  0.1036 -0.4907
20352SOL    HW161634   3.258  -0.028   1.340  1.5440 -0.4688 -0.0291
20352SOL    HW261635   3.325   0.080   1.422  0.0062  1.0461 -0.7257
20353SOL     OW61636   6.448   9.794   2.184 -0.3908 -0.0222 -0.2621
20353SOL    HW161637   6.400   9.874   2.162  0.5722  0.3583 -1.0399
20353SOL    HW261638   6.383   9.724   2.174 -0.6852  0.4267 -1.7501
20354SOL     OW61639   9.432   1.465   9.250  0.7068 -0.1280 -0.5564
20354SOL    HW161640   9.414   1.475   9.344  0.8940  1.5592 -0.6735
20354SOL    HW261641   9.528   1.465   9.244  0.6937  0.5688 -0.8140
20355SOL     OW61642   9.699   9.456   6.304  0.0174  0.8122 -0.3831
20355SOL    HW161643   9.714   9.478   6.212 -1.1817 -0.4936 -0.9354
20355SOL    HW261644   9.714   9.361   6.308  2.2646  1.1644  1.2881
20356SOL     OW61645   4.242   4.793   4.712  0.0850  0.1936  0.1603
20356SOL    HW161646   4.202   4.823   4.794  0.6227  1.1977  0.0793
20356SOL    HW261647   4.218   4.701   4.705 -0.7970  0.3515  0.9475
20357SOL     OW61648   6.320   6.759   3.778 -0.0878 -0.5658  0.0327
20357SOL    HW161649   6.312   6.716   3.863 -1.0826  0.5149  0.5171
20357SOL    HW261650   6.321   6.853   3.798  0.8081 -0.3082 -1.0788
20358SOL     OW61651   0.720   9.378   2.756  0.0618  0.1257 -0.6172
20358SOL    HW161652   0.706   9.284   2.750  0.8592 -0.0762  0.4204
20358SOL    HW261653   0.721   9.408   2.665  2.2982 -1.2753 -1.1402
20359SOL     OW61654   1.564   9.760   9.399 -0.7916  0.0514  0.6299
20359SOL    HW161655   1.538   9.703   9.471 -0.7242 -0.4021  0.2993
20359SOL    HW261656   1.518   9.725   9.322 -0.0554 -0.1055  0.2523
20360SOL     OW61657   0.058   3.746   3.717  0.6214  0.1191 -0.7367
20360SOL    HW161658   0.129   3.809   3.728  1.5549 -0.9825 -0.1679
20360SOL    HW261659   0.100   3.672   3.672  0.4499 -1.4994  1.5738
20361SOL     OW61660   0.579   0.685   7.125  0.0531  0.6263  0.3301
20361SOL    HW161661   0.572   0.623   7.197  2.6690 -0.0853  0.0880
20361SOL    HW261662   0.641   0.751   7.157  0.2517  0.9962 -0.7874
20362SOL     OW61663   0.614   5.127   7.479 -0.4273 -0.3940 -0.1518
20362SOL    HW161664   0.611   5.059   7.546 -0.0185 -0.5597 -0.3025
20362SOL    HW261665   0.568   5.089   7.404 -1.5214  0.0567  0.2685
20363SOL     OW61666   8.646   4.710   1.871  0.4915  0.5781 -0.1307
20363SOL    HW161667   8.713   4.648   1.843  0.0999 -0.0845  0.3731
20363SOL    HW261668   8.670   4.793   1.828  0.3041 -0.2110 -1.8267
20364SOL     OW61669   1.226   7.743   2.452 -0.8219 -0.2493 -0.0483
20364SOL    HW161670   1.309   7.702   2.428 -0.0528  0.5414  1.1374
20364SOL    HW261671   1.250   7.831   2.482 -1.8695 -0.5056  1.7525
20365SOL     OW61672   8.080   9.677   9.969 -0.0567  0.3830 -0.1689
20365SOL    HW161673   8.054   9.769   9.964 -1.1282  0.1617  0.8265
20365SOL    HW261674   8.003   9.629   9.938 -0.3822 -0.2394  1.5129
20366SOL     OW61675   1.063   1.590   1.933  0.9229  0.2447  0.4559
20366SOL    HW161676   1.014   1.572   1.853 -0.9733 -0.1923  1.6544
20366SOL    HW261677   0.999   1.580   2.004  2.3205  1.4593  1.9838
20367SOL     OW61678   2.347   2.180   8.934  0.1817 -0.0976  0.5122
20367SOL    HW161679   2.355   2.085   8.925  1.4564  0.0629 -0.3260
20367SOL    HW261680   2.319   2.210   8.848 -0.1017  0.3036  0.7407
20368SOL     OW61681   5.220   6.892   3.082  0.3695  0.2526  0.3954
20368SOL    HW161682   5.229   6.839   3.161 -0.6173 -0.8829 -0.2146
20368SOL    HW261683   5.179   6.973   3.113  0.2870 -0.0452  1.0939
20369SOL     OW61684   9.312   0.780   0.864 -0.5397 -0.1566  0.2928
20369SOL    HW161685   9.280   0.706   0.812 -0.0686 -0.8332  0.9599
20369SOL    HW261686   9.235   0.808   0.915 -0.6617 -0.3110  0.1948
20370SOL     OW61687   2.453   6.499   5.345  0.0759  0.4515  0.5764
20370SOL    HW161688   2.480   6.448   5.268  2.2893 -0.9529  2.1806
20370SOL    HW261689   2.460   6.590   5.316  1.9878  0.0004 -0.5737
20371SOL     OW61690   8.280   4.351   1.390 -0.7054 -0.1342  0.3161
20371SOL    HW161691   8.290   4.257   1.408 -0.5664 -0.6303 -2.0365
20371SOL    HW261692   8.230   4.354   1.309  1.0381  1.7646 -0.7683
20372SOL     OW61693   0.048   9.941   0.851  0.5347 -0.5962 -0.2701
20372SOL    HW161694   0.083  10.017   0.804  0.4455 -0.6019 -0.3459
20372SOL    HW261695   0.094   9.941   0.935  0.5324 -0.4549 -0.2688
20373SOL     OW61696   8.489   5.243   4.795  0.2138  0.2915 -0.1363
20373SOL    HW161697   8.502   5.318   4.738  1.3719  0.9681  0.9560
20373SOL    HW261698   8.507   5.167   4.740  1.3934  0.9270 -0.6608
20374SOL     OW61699   9.792   8.511   6.190  0.7118  0.0689 -0.6716
20374SOL    HW161700   9.779   8.430   6.240  1.2004 -2.4340 -4.2677
20374SOL    HW261701   9.885   8.530   6.199  0.4434  0.8047  0.8729
20375SOL     OW61702   3.302   2.868   8.221  0.0881 -0.2955 -0.5872
20375SOL    HW161703   3.369   2.873   8.290  0.5672  1.8923 -1.1225
20375SOL    HW261704   3.222   2.844   8.267  0.9045 -1.5159  0.2904
20376SOL     OW61705   5.597   1.128   2.370 -0.5968 -0.7477  0.1194
20376SOL    HW161706   5.599   1.138   2.465  1.9264  1.4383 -0.0453
20376SOL    HW261707   5.626   1.213   2.336  0.6793 -2.1132 -2.5171
20377SOL     OW61708   3.052   5.853   6.432 -0.1700 -0.7568 -0.4703
20377SOL    HW161709   3.016   5.787   6.490 -2.9404  2.6955  2.2252
20377SOL    HW261710   3.136   5.876   6.470  0.6534 -2.4003 -1.2373
20378SOL     OW61711   4.324   6.265   2.604  0.4910  0.6675 -0.1298
20378SOL    HW161712   4.314   6.336   2.668 -0.9746 -0.2201  0.6490
20378SOL    HW261713   4.350   6.189   2.656  1.4827  0.4616 -0.8916
20379SOL     OW61714   2.689   3.576   4.667 -0.5858  0.1339 -0.5551
20379SOL    HW161715   2.780   3.582   4.696  0.1072 -0.4146 -2.4445
20379SOL    HW261716   2.679   3.487   4.635 -1.0331  0.8592 -2.5938
20380SOL     OW61717   0.246   8.223   4.102  0.1133 -0.2319 -0.0234
20380SOL    HW161718   0.235   8.232   4.007  0.5549 -1.8540 -0.2558
20380SOL    HW261719   0.309   8.292   4.125  1.4304 -0.9576 -1.2363
20381SOL     OW61720   2.530   4.158   9.671  0.2049  0.7373 -0.0138
20381SOL    HW161721   2.538   4.192   9.581 -0.7738 -0.5312 -0.6161
20381SOL    HW261722   2.617   4.168   9.708  0.9073  0.3521 -1.4697
20382SOL     OW61723   7.415   0.434   9.934  0.8854  0.4368  0.8315
20382SOL    HW161724   7.477   0.363   9.919 -0.3550 -0.5323  0.1760
20382SOL    HW261725   7.433   0.497   9.864  1.7219  0.6040  1.1865
20383SOL     OW61726   3.243   4.059   7.022  0.0974 -0.4576 -0.4298
20383SOL    HW161727   3.218   3.984   6.968 -1.6345  0.1825 -0.5829
20383SOL    HW261728   3.242   4.134   6.962 -0.2826  0.0122  0.1443
20384SOL     OW61729   9.141   2.645   4.241 -0.3749 -0.4832 -0.1257
20384SOL    HW161730   9.060   2.682   4.278 -1.1062 -0.5604 -1.5738
20384SOL    HW261731   9.176   2.714   4.185  0.1308 -0.7403 -0.1352
20385SOL     OW61732   1.476   8.954   9.676 -0.3784 -0.2594  0.2753
20385SOL    HW161733   1.409   8.892   9.703  0.8103 -1.8311 -0.2106
20385SOL    HW261734   1.442   8.993   9.595 -1.2295 -0.1217  0.6942
20386SOL     OW61735   2.268   9.583   0.311  0.1664 -0.2889  0.0723
20386SOL    HW161736   2.223   9.509   0.352  0.1363  0.1686  0.8930
20386SOL    HW261737   2.287   9.553   0.222 -1.3100 -0.6719 -0.1408
20387SOL     OW61738   3.821   4.639   1.539 -0.1780  0.0782 -0.2660
20387SOL    HW161739   3.784   4.716   1.496  0.6406 -0.2123 -1.5582
20387SOL    HW261740   3.916   4.655   1.538 -0.1216  0.3640  2.0766
20388SOL     OW61741   6.870   8.398   1.911  0.2552 -0.7908  0.3969
20388SOL    HW161742   6.934   8.392   1.840  0.7083  2.2260  0.4078
20388SOL    HW261743   6.921   8.390   1.991  0.2807 -0.7156  0.3886
20389SOL     OW61744   0.962   4.662   3.115 -0.1840 -0.2907 -0.4016
20389SOL    HW161745   0.986   4.574   3.143  1.3851 -0.4635 -2.1295
20389SOL    HW261746   0.984   4.718   3.190 -2.6780 -1.4371  1.3593
20390SOL     OW61747   3.414   3.947   9.951 -0.4104  0.2172 -0.1829
20390SOL    HW161748   3.361   4.010  10.001  1.0461  1.1526  0.2436
20390SOL    HW261749   3.504   3.964   9.980  0.1876 -0.9589 -1.2874
20391SOL     OW61750   6.083   8.613   6.701  0.1924  0.0494  0.2078
20391SOL    HW161751   6.093   8.568   6.784 -0.3513 -1.7507 -0.6548
20391SOL    HW261752   6.087   8.706   6.723 -1.2445 -0.3462  2.4222
20392SOL     OW61753   0.812   5.526   0.677  0.5335 -0.1449  0.0424
20392SOL    HW161754   0.865   5.506   0.601 -0.0502 -1.4486 -0.0442
20392SOL    HW261755   0.723   5.534   0.642  0.4223  0.3702  0.4286
20393SOL     OW61756   9.206   3.983   3.274 -0.0427  0.6709 -0.1264
20393SOL    HW161757   9.230   4.075   3.283  2.8131  0.0873 -0.6770
20393SOL    HW261758   9.243   3.941   3.351 -1.9928  0.0226  0.5287
20394SOL     OW61759   9.088   9.159   5.969 -0.5187  0.2219 -0.1914
20394SOL    HW161760   9.116   9.087   5.913  1.9866  1.1721 -0.3148
20394SOL    HW261761   9.144   9.151   6.047 -1.8215  0.6941  0.8159
20395SOL     OW61762   0.254   1.397   8.564 -0.1876 -0.0628  0.0405
20395SOL    HW161763   0.184   1.363   8.619 -0.8991  1.6858  0.2509
20395SOL    HW261764   0.221   1.389   8.474 -1.1997  1.8443  0.2007
20396SOL     OW61765   4.369   8.266   5.786 -0.2874  0.0427 -0.1395
20396SOL    HW161766   4.358   8.234   5.876  0.1343 -2.8140 -1.0161
20396SOL    HW261767   4.456   8.305   5.785 -0.2889  0.0882  0.6868
20397SOL     OW61768   2.923   9.065   0.224 -0.2540 -0.3915  0.1892
20397SOL    HW161769   2.847   9.108   0.185 -0.8254 -1.4563  0.0892
20397SOL    HW261770   2.979   9.041   0.149  0.0173  0.0741  0.2380
20398SOL     OW61771   2.263   8.111   1.578  0.6737  0.0351  0.2089
20398SOL    HW161772   2.246   8.114   1.484 -0.6318  0.7550  0.4439
20398SOL    HW261773   2.194   8.165   1.617  1.7358  0.5226  1.5078
20399SOL     OW61774   4.771   3.865   9.277  0.1264 -0.0964  0.1202
20399SOL    HW161775   4.820   3.783   9.273 -2.4641 -1.7573  0.1654
20399SOL    HW261776   4.753   3.877   9.371 -0.1944  0.0711  0.0368
20400SOL     OW61777   6.650   4.463   4.249  0.4110  0.0428 -0.5909
20400SOL    HW161778   6.638   4.537   4.190 -1.4849  1.4048  1.3445
20400SOL    HW261779   6.561   4.435   4.271  1.0226 -0.4854  1.4890
20401SOL     OW61780   8.275   2.271   4.186  0.2423 -0.5719  0.3059
20401SOL    HW161781   8.261   2.276   4.091 -1.0693  0.5490  0.5354
20401SOL    HW261782   8.189   2.286   4.224  0.9156 -0.1237  1.7019
20402SOL     OW61783   1.957   4.768   5.641  0.0353 -0.0946  0.0301
20402SOL    HW161784   1.946   4.680   5.678 -0.7374  0.3233  0.8162
20402SOL    HW261785   2.018   4.755   5.569  0.9406 -1.0825  0.9246
20403SOL     OW61786   1.070   8.583   2.660 -0.0117 -0.1105  0.2557
20403SOL    HW161787   1.066   8.488   2.670  0.7681 -0.2927 -0.8909
20403SOL    HW261788   1.142   8.597   2.598 -1.9619  1.0042 -1.9217
20404SOL     OW61789   1.760   7.545   2.788 -0.0616  0.1555 -0.2670
20404SOL    HW161790   1.671   7.574   2.807 -0.8397 -1.9313 -0.4608
20404SOL    HW261791   1.750   7.455   2.757  2.1498 -0.2521  0.0223
20405SOL     OW61792   7.965   5.144   0.174 -0.7225 -0.6262  0.0382
20405SOL    HW161793   7.975   5.084   0.100  0.7613 -0.4067  0.0365
20405SOL    HW261794   7.887   5.194   0.154  0.1639  0.0837 -1.8649
20406SOL     OW61795   6.513   2.404   9.675  0.4341  0.1372  0.1158
20406SOL    HW161796   6.533   2.387   9.583  1.2939  1.4353  0.0382
20406SOL    HW261797   6.555   2.332   9.722 -2.5221 -2.2908 -0.6236
20407SOL     OW61798   3.825   2.595   3.936 -0.0839  0.2195 -0.2581
20407SOL    HW161799   3.883   2.659   3.895 -1.6609  0.9830 -1.4186
20407SOL    HW261800   3.836   2.516   3.882 -0.5397  0.5431 -0.8342
20408SOL     OW61801   4.614   7.394   0.132 -0.5879  0.4897 -0.2929
20408SOL    HW161802   4.662   7.474   0.157 -0.1947  0.2633 -0.3191
20408SOL    HW261803   4.530   7.427   0.099 -0.8311  0.8326  0.6403
20409SOL     OW61804   6.213   1.049   4.978  0.4985  0.5518  0.0247
20409SOL    HW161805   6.287   1.037   4.919  0.7700  0.3553  0.3971
20409SOL    HW261806   6.137   1.022   4.927  0.5870  1.4444 -0.6098
20410SOL     OW61807   8.203   1.849   9.029 -0.0626  0.1048  0.6882
20410SOL    HW161808   8.276   1.831   9.088  0.2640 -0.9091 -0.0053
20410SOL    HW261809   8.171   1.762   9.003 -0.2217  0.5249 -0.5881
20411SOL     OW61810   1.742   7.231   4.162 -0.5193  0.1467  0.2527
20411SOL    HW161811   1.705   7.165   4.222 -1.2372  0.6696  0.4016
20411SOL    HW261812   1.709   7.314   4.195 -0.0816  0.5356 -0.2741
20412SOL     OW61813   3.958   5.453   1.659  0.2942  0.3219  0.0082
20412SOL    HW161814   4.006   5.446   1.577  1.7442  0.7534  0.7779
20412SOL    HW261815   4.026   5.470   1.725 -0.9363  1.1010  1.1286
20413SOL     OW61816   3.668   7.929   2.624  0.2942 -0.0184  0.1481
20413SOL    HW161817   3.647   7.997   2.561  1.0847 -1.7605 -2.1416
20413SOL    HW261818   3.594   7.869   2.620  0.7634 -0.6103  0.1961
20414SOL     OW61819   9.021   4.253   9.914  0.6024 -0.1075 -0.5177
20414SOL    HW161820   9.086   4.311   9.952  1.8690 -1.1738 -1.0010
20414SOL    HW261821   9.004   4.290   9.827  0.7303  0.0331 -0.4848
20415SOL     OW61822   1.192   0.168   5.723  0.1201 -0.0641 -0.0501
20415SOL    HW161823   1.190   0.230   5.796 -1.7255 -0.7787  0.5598
20415SOL    HW261824   1.246   0.212   5.656 -1.7736  2.6393  0.0023
20416SOL     OW61825   5.285   5.671   1.703 -0.1963 -0.1011  0.3078
20416SOL    HW161826   5.353   5.701   1.642 -1.4165 -0.6001 -1.3824
20416SOL    HW261827   5.204   5.705   1.666 -0.9572 -0.1537  1.8643
20417SOL     OW61828   3.928   1.940   1.923  0.0132 -0.1682 -0.0401
20417SOL    HW161829   4.019   1.968   1.931 -0.0334  0.7075 -2.0671
20417SOL    HW261830   3.932   1.845   1.910  0.6833 -0.0235 -0.8845
20418SOL     OW61831   2.843   6.071   2.456  0.2149 -0.0456 -0.5845
20418SOL    HW161832   2.897   6.037   2.385  0.2007 -1.5734  0.0912
20418SOL    HW261833   2.759   6.091   2.414  0.2192 -0.8880 -1.0175
20419SOL     OW61834   6.038   8.292   8.307 -0.2618 -0.3132 -0.3933
20419SOL    HW161835   6.022   8.251   8.222 -0.0242 -0.2133 -0.4873
20419SOL    HW261836   6.005   8.382   8.296 -0.7079 -0.4547 -0.2139
20420SOL     OW61837   0.793   3.289   1.242  1.1261  0.1762 -0.2976
20420SOL    HW161838   0.740   3.211   1.229  0.0289  1.0094 -1.0269
20420SOL    HW261839   0.859   3.286   1.172  0.9462  0.0200 -0.4596
20421SOL     OW61840   0.480   0.618   4.254 -0.1318 -0.0555  0.3414
20421SOL    HW161841   0.467   0.676   4.329  1.6075 -0.0058  0.6527
20421SOL    HW261842   0.477   0.677   4.178  0.6412  0.3212  0.5855
20422SOL     OW61843   9.352   3.623   2.226  0.3813  0.3199 -0.7452
20422SOL    HW161844   9.341   3.661   2.139  0.4898  2.8829  0.2749
20422SOL    HW261845   9.264   3.598   2.252  0.1413  0.8536 -1.0290
20423SOL     OW61846   2.226   2.108   0.127 -0.2963 -0.3453 -0.0525
20423SOL    HW161847   2.215   2.048   0.200 -1.6864  0.8242  0.7583
20423SOL    HW261848   2.148   2.164   0.129  0.7641  1.2834 -0.9582
20424SOL     OW61849   6.536   9.897   7.677 -0.0998 -0.0052 -0.7046
20424SOL    HW161850   6.515   9.842   7.753 -0.6037 -0.5191 -1.2040
20424SOL    HW261851   6.470   9.966   7.677 -1.8020 -1.5180 -2.1722
20425SOL     OW61852   5.812   0.538   3.873  0.0548 -0.2853 -0.6595
20425SOL    HW161853   5.899   0.577   3.888 -0.3068  0.7468 -1.1761
20425SOL    HW261854   5.829   0.466   3.812  0.5984 -0.3739 -0.4203
20426SOL     OW61855   8.156   4.655   3.621  0.6488 -0.1808  0.5593
20426SOL    HW161856   8.241   4.611   3.622 -0.4731 -2.5058  1.3461
20426SOL    HW261857   8.103   4.603   3.560  0.7522  3.4600 -3.0914
20427SOL     OW61858   1.034   1.051   3.632  0.2251 -0.0764  0.0621
20427SOL    HW161859   1.111   1.006   3.595  0.7979  0.1125  0.9980
20427SOL    HW261860   0.959   1.001   3.598  0.6344  0.7696 -2.3107
20428SOL     OW61861   1.247   2.070   9.451  0.0652 -0.3413  0.1526
20428SOL    HW161862   1.320   2.015   9.478  0.6353  0.4569  0.2526
20428SOL    HW261863   1.174   2.009   9.439  1.0149 -1.2979 -0.9758
20429SOL     OW61864   3.927   2.642   2.182 -0.6307 -0.7379  0.1979
20429SOL    HW161865   3.929   2.691   2.100 -1.0473 -0.2521  0.4766
20429SOL    HW261866   3.996   2.576   2.172 -0.8897 -0.8922 -0.6677
20430SOL     OW61867   7.100   4.762   3.425 -0.1250  0.4223  0.3497
20430SOL    HW161868   7.095   4.851   3.460  0.1995  1.1884 -1.4213
20430SOL    HW261869   7.040   4.763   3.350 -4.6942 -2.5378  3.4423
20431SOL     OW61870   0.410   4.807   8.245 -0.1498 -0.4653 -0.3700
20431SOL    HW161871   0.463   4.887   8.257  0.2539 -0.9182  1.0589
20431SOL    HW261872   0.332   4.822   8.298  1.1943 -2.0962  2.3259
20432SOL     OW61873   9.581   4.510   6.899  0.2359 -0.0367 -0.2444
20432SOL    HW161874   9.537   4.502   6.815 -1.1763 -1.0182  0.5493
20432SOL    HW261875   9.572   4.602   6.922 -0.6278 -0.0533 -0.5079
20433SOL     OW61876   5.640   0.662   1.709  0.3933 -0.5976 -0.5928
20433SOL    HW161877   5.607   0.604   1.641 -3.0046  0.4796 -0.0423
20433SOL    HW261878   5.563   0.684   1.762  2.0541  2.1036  0.9548
20434SOL     OW61879   9.278   6.828   0.381  0.1784 -0.1653 -0.5239
20434SOL    HW161880   9.236   6.835   0.295  1.6256 -0.9801 -1.3314
20434SOL    HW261881   9.302   6.918   0.403  0.3048 -0.0143 -1.2528
20435SOL     OW61882   6.634   9.291   0.746  0.0323  0.4974 -0.4049
20435SOL    HW161883   6.574   9.366   0.753  0.1456  0.6117 -0.6601
20435SOL    HW261884   6.651   9.283   0.653  0.2846  0.3569 -0.3460
20436SOL     OW61885   9.598   2.653   8.538 -0.0700  0.6334  0.4100
20436SOL    HW161886   9.503   2.667   8.543 -0.0608  1.0022 -0.3432
20436SOL    HW261887   9.619   2.664   8.446  0.8416  1.3729  0.6964
20437SOL     OW61888   9.837   9.762   1.401 -0.6432 -0.0036 -0.7692
20437SOL    HW161889   9.857   9.776   1.494 -1.3777 -1.0960 -0.4288
20437SOL    HW261890   9.876   9.837   1.357  5.4297 -2.4187 -0.4006
20438SOL     OW61891   4.535   0.408   1.095  0.0942  0.4327  0.3508
20438SOL    HW161892   4.445   0.420   1.064  0.8418 -0.2847 -2.3522
20438SOL    HW261893   4.535   0.448   1.182 -3.0950 -0.4959  0.9260
20439SOL     OW61894   9.819   6.746   3.977  0.3990 -0.0139 -0.1822
20439SOL    HW161895   9.883   6.738   4.048  0.5065  1.9540 -0.0276
20439SOL    HW261896   9.872   6.755   3.898  0.3107  1.0504 -0.1219
20440SOL     OW61897   5.464   9.121   4.641  0.5130  0.2675  0.2530
20440SOL    HW161898   5.457   9.174   4.561  0.2982  0.0136  0.0991
20440SOL    HW261899   5.479   9.184   4.711  1.2549  0.4473 -0.0635
20441SOL     OW61900   0.956   7.787   7.728  0.1100 -0.3744  0.5872
20441SOL    HW161901   0.900   7.728   7.778  1.0513 -2.2400 -0.4521
20441SOL    HW261902   1.040   7.788   7.776  0.3670 -0.5445  0.1449
20442SOL     OW61903   0.275   6.745   3.036  0.2398 -0.4748 -0.1138
20442SOL    HW161904   0.313   6.660   3.058 -0.6987 -1.6102 -2.5593
20442SOL    HW261905   0.339   6.786   2.978  0.6180  0.4603  0.9307
20443SOL     OW61906   3.845   5.174   1.737  0.1184 -0.4415  0.7256
20443SOL    HW161907   3.834   5.269   1.736  1.6320 -0.2349  0.7796
20443SOL    HW261908   3.758   5.139   1.720 -0.4527  0.9557  0.6679
20444SOL     OW61909   8.675   6.223   7.278 -0.1104 -0.2039 -0.1646
20444SOL    HW161910   8.597   6.277   7.265  1.2134  1.4384 -2.0190
20444SOL    HW261911   8.695   6.189   7.190  1.9652  0.5368 -0.0509
20445SOL     OW61912   9.143   1.690   0.622 -0.0178  0.1594 -0.0597
20445SOL    HW161913   9.180   1.734   0.699  1.2728 -0.1525 -0.4919
20445SOL    HW261914   9.211   1.696   0.555 -1.2263  0.6841 -1.2937
20446SOL     OW61915   0.724   6.231   7.943  0.7154 -0.3203  0.2974
20446SOL    HW161916   0.815   6.238   7.916  0.8242 -0.9398  0.5068
20446SOL    HW261917   0.675   6.274   7.872  1.2212  0.7516  0.5833
20447SOL     OW61918   2.353   4.802   8.538  0.4269 -0.0226 -0.5409
20447SOL    HW161919   2.315   4.724   8.498  2.9219 -2.2985  1.1856
20447SOL    HW261920   2.443   4.804   8.508  0.2239  2.8604 -1.2954
20448SOL     OW61921   7.052   6.096   0.327 -0.2285  0.3300 -0.0283
20448SOL    HW161922   6.977   6.043   0.354  0.6851  0.0067  2.0724
20448SOL    HW261923   7.121   6.032   0.309  0.6692  0.6961  1.8479
20449SOL     OW61924   2.233   4.595   5.279  0.1704  0.6724 -0.4970
20449SOL    HW161925   2.212   4.628   5.191 -1.0741  0.1628 -0.4085
20449SOL    HW261926   2.318   4.552   5.269  0.2071  0.9294 -1.3677
20450SOL     OW61927   1.094   7.994   5.283  0.4471  0.6128  0.9152
20450SOL    HW161928   0.999   7.985   5.298  0.4085  0.9986  0.9147
20450SOL    HW261929   1.134   7.960   5.362  0.3164  0.2041  0.8098
20451SOL     OW61930   3.970   3.598   3.941 -0.1432 -1.0623  0.5657
20451SOL    HW161931   4.039   3.643   3.891  0.4002 -1.3777  1.0125
20451SOL    HW261932   3.969   3.643   4.025 -1.8451  0.2154 -0.0953
20452SOL     OW61933   0.525   3.268   8.410 -0.4179  0.3665  0.3690
20452SOL    HW161934   0.532   3.179   8.444  0.0887  0.5049  0.6314
20452SOL    HW261935   0.447   3.266   8.355  1.2736 -1.0839 -2.1887
20453SOL     OW61936   5.273   3.396   0.838  0.0641 -0.6780 -0.5245
20453SOL    HW161937   5.209   3.332   0.872  0.6279 -0.9857 -0.0242
20453SOL    HW261938   5.299   3.447   0.915  0.5358 -0.6560 -0.6962
20454SOL     OW61939   4.565   2.970   5.934 -0.1089  0.2246  0.2918
20454SOL    HW161940   4.495   2.923   5.889  2.1678 -1.0380 -2.1986
20454SOL    HW261941   4.590   2.913   6.007  0.2122 -0.6978 -0.5280
20455SOL     OW61942   5.168   8.230   4.586 -0.6342 -0.3645 -0.0232
20455SOL    HW161943   5.147   8.235   4.679  1.4238 -1.5889  0.5668
20455SOL    HW261944   5.146   8.140   4.562 -0.9050 -0.1319 -0.6726
20456SOL     OW61945   4.095   1.081   6.777 -0.0418 -0.0542 -0.6706
20456SOL    HW161946   4.024   1.144   6.763 -0.2704  0.0399  0.8058
20456SOL    HW261947   4.166   1.133   6.814  0.4447 -0.3436 -1.1859
20457SOL     OW61948   1.442   5.198   1.727 -0.2868  0.0616  0.0261
20457SOL    HW161949   1.364   5.161   1.767 -0.7975  1.9185  0.8380
20457SOL    HW261950   1.446   5.157   1.640 -3.2329  1.2479 -0.7857
20458SOL     OW61951   1.179   0.719   2.899  0.6030  0.5472 -0.4173
20458SOL    HW161952   1.273   0.708   2.885  0.5393 -2.0894  0.6194
20458SOL    HW261953   1.138   0.658   2.838 -0.2705 -0.2443  0.8999
20459SOL     OW61954   5.671   2.748   2.219 -0.2207  0.4001  0.5969
20459SOL    HW161955   5.614   2.805   2.272  0.1322 -0.4776  1.9536
20459SOL    HW261956   5.740   2.720   2.279  1.6845  1.4057 -1.0025
20460SOL     OW61957   5.828   9.912   3.857 -0.0109 -0.7549  0.1910
20460SOL    HW161958   5.736   9.932   3.842 -0.4723 -1.0990  2.3531
20460SOL    HW261959   5.862   9.989   3.902  0.5081 -1.0308  0.2797
20461SOL     OW61960   8.150   6.642   6.969  0.1044 -0.1923 -0.0637
20461SOL    HW161961   8.083   6.588   6.928  0.6041 -0.4856 -0.5052
20461SOL    HW261962   8.106   6.725   6.988 -0.2521 -0.2036 -0.8110
20462SOL     OW61963   8.370   5.604   0.410  0.2577 -0.2023 -0.4310
20462SOL    HW161964   8.390   5.594   0.317 -1.4478  2.5427 -1.2207
20462SOL    HW261965   8.423   5.678   0.438 -0.3730 -0.0325  0.3645
20463SOL     OW61966   3.600   8.060   2.364  0.0088  0.1014  0.1430
20463SOL    HW161967   3.508   8.077   2.386 -0.1550  3.2041 -2.2152
20463SOL    HW261968   3.595   8.005   2.285  0.2891 -1.2929  1.0632
20464SOL     OW61969   1.668   7.319   6.349  0.0269  0.0846  0.3371
20464SOL    HW161970   1.607   7.355   6.284 -1.7349  0.1217  1.9365
20464SOL    HW261971   1.617   7.253   6.395  1.4132 -0.3245  1.3333
20465SOL     OW61972   9.901   4.200   8.756  0.3074  0.1676 -0.0927
20465SOL    HW161973   9.926   4.165   8.670 -0.6143 -0.7528 -0.0033
20465SOL    HW261974   9.985   4.221   8.798  0.7523  2.2266 -1.8208
20466SOL     OW61975   3.562   3.321   8.733 -0.8169 -0.0806 -0.7211
20466SOL    HW161976   3.528   3.404   8.766 -0.1143 -0.7166  1.7787
20466SOL    HW261977   3.588   3.272   8.811  2.0470 -1.2676 -2.2450
20467SOL     OW61978   5.741   5.220   4.123  0.2775  0.4616 -0.0102
20467SOL    HW161979   5.788   5.222   4.039  0.2316 -1.3653 -0.1206
20467SOL    HW261980   5.707   5.309   4.133  0.9717  0.9453 -1.5316
20468SOL     OW61981   5.307   5.769   0.665  0.0979 -0.2135  0.8676
20468SOL    HW161982   5.374   5.823   0.623  0.8673  0.1017  2.4198
20468SOL    HW261983   5.264   5.723   0.593  1.7146 -0.1285 -0.1984
20469SOL     OW61984   4.073   9.183   9.662 -0.0073  0.6378  0.2143
20469SOL    HW161985   4.165   9.166   9.642 -0.1663  0.7474 -0.6669
20469SOL    HW261986   4.052   9.125   9.735  0.4470 -0.2378 -0.3444
20470SOL     OW61987   4.012   5.010   2.388  0.1445  0.3674 -0.7067
20470SOL    HW161988   4.095   5.058   2.394 -0.6388  1.6755  0.8083
20470SOL    HW261989   4.030   4.938   2.328  2.1098  1.1290 -1.1348
20471SOL     OW61990   0.309   8.922   1.744 -0.1328 -0.7525  0.7820
20471SOL    HW161991   0.376   8.869   1.701  0.0558 -0.6080  0.8954
20471SOL    HW261992   0.230   8.867   1.743 -0.6107 -0.0844 -1.2917
20472SOL     OW61993   8.318   0.992   7.616  0.4068 -0.2914 -0.4079
20472SOL    HW161994   8.414   0.992   7.610  0.5171  2.2977  0.1876
20472SOL    HW261995   8.290   1.035   7.535 -0.1245  0.7560  0.3183
20473SOL     OW61996   4.491   2.304   1.225  0.5613  0.1144  0.2959
20473SOL    HW161997   4.498   2.354   1.306  1.3213  0.0749  0.2540
20473SOL    HW261998   4.481   2.371   1.156  1.5080  0.2094  0.2470
20474SOL     OW61999   6.201   0.314   3.398 -0.0724 -0.0893 -0.4870
20474SOL    HW162000   6.106   0.328   3.408  0.4612  3.8402  0.7909
20474SOL    HW262001   6.224   0.358   3.317  0.9657  1.3324  0.5299
20475SOL     OW62002   9.711   4.934   2.428 -0.1599 -0.3147 -0.2434
20475SOL    HW162003   9.721   5.022   2.465 -1.7456  0.4853 -1.5622
20475SOL    HW262004   9.628   4.902   2.464 -0.0889 -0.8441 -0.5445
20476SOL     OW62005   0.458   5.274   0.232 -0.2314  0.3338 -0.2199
20476SOL    HW162006   0.363   5.285   0.223 -0.4580 -0.4671  0.9017
20476SOL    HW262007   0.493   5.299   0.147 -1.3907  1.2093 -0.4784
20477SOL     OW62008   5.785   2.250   5.755 -0.1323 -0.4882 -0.0458
20477SOL    HW162009   5.759   2.165   5.720  0.5530 -1.8321  2.4828
20477SOL    HW262010   5.879   2.242   5.769 -0.2061  0.3701  1.0527
20478SOL     OW62011   9.221   5.676   5.254 -0.1392  0.5138  0.4535
20478SOL    HW162012   9.179   5.751   5.295 -0.1874  0.9452 -0.3621
20478SOL    HW262013   9.306   5.668   5.297 -0.4571  0.5392  1.0930
20479SOL     OW62014   9.461   1.949   1.189 -0.7749 -0.4853  0.1933
20479SOL    HW162015   9.443   2.019   1.127 -0.0001  0.4516  0.9846
20479SOL    HW262016   9.422   1.980   1.271 -0.3275 -0.9253  0.5770
20480SOL     OW62017   0.223   5.022   3.428 -0.1890 -0.4102  0.3002
20480SOL    HW162018   0.226   4.993   3.519 -1.6020  2.6879  1.4856
20480SOL    HW262019   0.305   5.072   3.416  0.1524 -1.0934 -0.2521
20481SOL     OW62020   1.073   9.817   0.326 -0.5397 -0.2840  0.5242
20481SOL    HW162021   0.983   9.841   0.349  0.1470  1.5183  1.6127
20481SOL    HW262022   1.115   9.798   0.410 -0.1228 -2.0590 -0.0518
20482SOL     OW62023   7.623   4.846   5.099  0.0162  0.2452 -0.0595
20482SOL    HW162024   7.552   4.819   5.157 -1.1598  2.7396 -0.2036
20482SOL    HW262025   7.599   4.810   5.013 -0.2366 -0.2392  0.2101
20483SOL     OW62026   3.697   1.460   8.075 -0.7660  0.5905  0.1973
20483SOL    HW162027   3.728   1.370   8.068  3.8176  1.9370  0.0644
20483SOL    HW262028   3.660   1.479   7.989 -1.2843 -0.9629  0.0455
20484SOL     OW62029   3.516   2.091   0.926  0.3342 -0.0356 -0.5610
20484SOL    HW162030   3.610   2.075   0.931  0.4868  1.0107  0.4117
20484SOL    HW262031   3.480   2.010   0.890  1.8621  0.5145 -3.6541
20485SOL     OW62032   7.272   0.741   2.021 -0.4805 -0.0403 -0.4555
20485SOL    HW162033   7.290   0.696   1.939 -0.4741  1.3213 -1.2412
20485SOL    HW262034   7.328   0.699   2.086  0.5666 -0.2095 -1.4596
20486SOL     OW62035   7.965   1.219   0.431  0.4271 -0.0845  0.9962
20486SOL    HW162036   7.990   1.139   0.478 -1.2062 -1.0359  0.3747
20486SOL    HW262037   8.026   1.224   0.358 -0.0178 -1.3472  0.4965
20487SOL     OW62038   4.994   7.978   1.374 -0.1686 -0.3162 -0.0920
20487SOL    HW162039   5.039   7.912   1.427  0.1378  0.8011  1.0875
20487SOL    HW262040   5.049   8.055   1.379 -0.5385  0.0640 -1.4391
20488SOL     OW62041   8.582   4.592   4.397 -0.3024  0.2651 -0.6190
20488SOL    HW162042   8.578   4.498   4.413  1.6072  0.4087  1.1990
20488SOL    HW262043   8.665   4.606   4.352  1.2720  1.3354  2.3499
20489SOL     OW62044   0.100   8.182   9.365  0.3978 -0.2558 -0.2528
20489SOL    HW162045   0.144   8.254   9.318  0.5086 -0.9817 -1.2900
20489SOL    HW262046   0.020   8.166   9.314 -0.6154  0.4128  1.0829
20490SOL     OW62047   9.317   2.451   1.593 -0.0522  0.0427 -0.4493
20490SOL    HW162048   9.366   2.370   1.610 -0.2163  0.2011  0.9126
20490SOL    HW262049   9.328   2.467   1.499  0.9835 -0.9142 -0.5123
20491SOL     OW62050   4.286   7.195   7.071  0.2873 -0.2788 -0.2132
20491SOL    HW162051   4.280   7.144   7.151 -1.2926  1.0880  0.5977
20491SOL    HW262052   4.380   7.198   7.051  0.6714 -0.9001  1.3955
20492SOL     OW62053   9.971   5.996   1.831  0.3415 -0.3748 -0.3558
20492SOL    HW162054  10.050   5.954   1.865  0.7985  0.3124 -0.5470
20492SOL    HW262055   9.910   5.924   1.814  0.9266 -0.9084 -0.2016
20493SOL     OW62056   9.614   1.545   5.666 -0.4254 -0.1517 -0.1124
20493SOL    HW162057   9.570   1.619   5.623  0.0870 -0.9067 -2.0819
20493SOL    HW262058   9.637   1.487   5.594  1.6307 -0.9393  1.0907
20494SOL     OW62059   5.476   8.278   6.838 -0.1036 -0.1300  0.2989
20494SOL    HW162060   5.409   8.295   6.772 -0.6553  0.7516  1.0659
20494SOL    HW262061   5.555   8.259   6.787 -0.6708 -0.0948 -0.6115
20495SOL     OW62062   5.965   0.934   9.866  0.0685  0.8047  0.3415
20495SOL    HW162063   6.058   0.914   9.872  0.0916  0.4666 -0.8796
20495SOL    HW262064   5.923   0.849   9.851 -0.2492  1.1410 -0.7920
20496SOL     OW62065   1.677   1.367   6.236 -0.1819 -0.1208  0.4159
20496SOL    HW162066   1.757   1.405   6.273  0.1550  0.4826 -0.8639
20496SOL    HW262067   1.687   1.273   6.246  0.7593 -0.0547  0.1315
20497SOL     OW62068   3.516   9.738   1.751 -0.4275 -0.2921 -0.6778
20497SOL    HW162069   3.515   9.727   1.656 -0.0764 -2.0739 -0.5232
20497SOL    HW262070   3.438   9.790   1.771 -0.6722 -0.1664 -1.9034
20498SOL     OW62071   8.769   0.382   0.563 -0.5059  0.4528  0.0563
20498SOL    HW162072   8.708   0.453   0.543  0.2079  1.2386  0.6015
20498SOL    HW262073   8.772   0.380   0.659 -0.5641 -0.3644  0.0479
20499SOL     OW62074   6.292   2.373   7.488 -0.2028  0.0350 -0.5763
20499SOL    HW162075   6.223   2.347   7.550  0.1952  0.3367  0.0078
20499SOL    HW262076   6.266   2.460   7.458  0.6307  0.7750  0.7439
20500SOL     OW62077   7.447   8.994   8.253 -0.0626 -0.3471 -0.3077
20500SOL    HW162078   7.491   8.911   8.274 -1.0803 -0.9596 -0.4976
20500SOL    HW262079   7.431   9.034   8.338 -3.6364 -2.5376  0.2591
20501SOL     OW62080   8.155   1.715   3.463 -0.1301 -0.8395 -0.0052
20501SOL    HW162081   8.151   1.725   3.558 -1.1180 -0.9827 -0.0171
20501SOL    HW262082   8.168   1.621   3.450 -1.5390 -1.0586 -0.0113
20502SOL     OW62083   7.521   8.187   4.890  0.1341  0.0372 -0.0180
20502SOL    HW162084   7.486   8.198   4.802  2.0764  0.9791 -0.7174
20502SOL    HW262085   7.469   8.246   4.944 -0.1988  0.4464 -0.7793
20503SOL     OW62086   5.768   2.776   7.223  0.1227 -0.1177 -0.2498
20503SOL    HW162087   5.764   2.839   7.295 -1.2973 -0.4526  0.0007
20503SOL    HW262088   5.771   2.830   7.144 -0.6880  0.2797 -0.0200
20504SOL     OW62089   1.599   3.707   9.623  0.2483 -0.1633  0.7388
20504SOL    HW162090   1.687   3.685   9.655  0.5094 -0.2077  0.0275
20504SOL    HW262091   1.599   3.802   9.616 -0.1671 -0.0667  1.8355
20505SOL     OW62092   6.239   6.320   3.560 -0.3522 -0.1169  0.1621
20505SOL    HW162093   6.287   6.237   3.554 -0.3436 -0.1700  0.9107
20505SOL    HW262094   6.172   6.313   3.492 -0.2284 -0.6555  0.0892
20506SOL     OW62095   7.195   8.495   5.841  0.8190 -0.0364  0.0921
20506SOL    HW162096   7.198   8.519   5.934 -1.3504  1.1354 -0.0778
20506SOL    HW262097   7.223   8.404   5.840  1.1143 -0.0139  1.8745
20507SOL     OW62098   4.395   5.069   9.000 -0.5878 -0.4321  0.5455
20507SOL    HW162099   4.329   5.009   9.036 -0.7184 -1.3207 -1.1008
20507SOL    HW262100   4.373   5.077   8.907  1.0800 -0.0232  0.1548
20508SOL     OW62101   4.947   5.269   1.030  0.7051 -0.4263  0.1251
20508SOL    HW162102   5.003   5.347   1.026  0.0801  0.1475  1.6147
20508SOL    HW262103   4.924   5.251   0.939  0.8751  1.1419 -0.2575
20509SOL     OW62104   1.591   6.187   5.363 -0.2622  0.0259  0.0539
20509SOL    HW162105   1.533   6.207   5.436 -1.3097  1.6760 -1.1532
20509SOL    HW262106   1.556   6.107   5.325 -0.4675 -0.1482  0.6007
20510SOL     OW62107   0.016   8.139   4.246  0.1811 -0.4266  0.1354
20510SOL    HW162108   0.104   8.153   4.209  1.2606  1.0933  2.9416
20510SOL    HW262109   0.003   8.044   4.241  2.9015 -0.9734  1.3829
20511SOL     OW62110   0.316   6.265   6.097  0.2630  0.2009 -0.4299
20511SOL    HW162111   0.344   6.243   6.186 -0.6979  1.0579  0.1010
20511SOL    HW262112   0.278   6.183   6.063 -1.1892  0.3635  0.6880
20512SOL     OW62113   3.134   6.127   3.022 -0.4556  0.4019  0.5085
20512SOL    HW162114   3.064   6.136   3.086 -0.6714 -0.9183  0.4919
20512SOL    HW262115   3.126   6.037   2.990  0.4407  0.6376 -0.4427
20513SOL     OW62116   7.601   8.876   6.738 -0.5937  0.4277  0.0854
20513SOL    HW162117   7.511   8.878   6.771 -0.2206  0.2770  1.1696
20513SOL    HW262118   7.625   8.968   6.727 -1.7783  0.4923 -2.9079
20514SOL     OW62119   3.413   1.598   4.378 -0.1862 -0.5515 -0.2279
20514SOL    HW162120   3.488   1.586   4.321  0.0688 -2.1428  0.3820
20514SOL    HW262121   3.354   1.655   4.329  0.1950 -1.5350 -1.9223
20515SOL     OW62122   0.779   1.202   0.197 -0.2192  0.1252 -0.3397
20515SOL    HW162123   0.733   1.181   0.278 -1.4617 -1.4730 -1.4063
20515SOL    HW262124   0.711   1.236   0.139  0.3128 -0.3558 -1.2719
20516SOL     OW62125   0.811   7.472   5.335 -0.7676 -0.2802 -0.3299
20516SOL    HW162126   0.743   7.529   5.370 -0.5407 -0.5969  0.6677
20516SOL    HW262127   0.868   7.455   5.410  1.1237  0.9761 -1.4009
20517SOL     OW62128   6.555   8.694   3.123 -0.5699 -0.1427  0.4377
20517SOL    HW162129   6.488   8.748   3.080 -0.0195  0.8861  0.8268
20517SOL    HW262130   6.621   8.757   3.153 -0.4820 -0.9221  1.9706
20518SOL     OW62131   9.708   6.033   1.920  0.1010  0.1766  0.0982
20518SOL    HW162132   9.681   6.124   1.909  0.3642  0.5569  2.2405
20518SOL    HW262133   9.798   6.030   1.886  0.3411  0.8773  0.6649
20519SOL     OW62134   1.942   8.153   0.837 -0.6040  0.2454 -0.4363
20519SOL    HW162135   2.020   8.125   0.788 -0.7494  0.0672 -0.5651
20519SOL    HW262136   1.873   8.159   0.771 -0.4932  1.2452 -0.4729
20520SOL     OW62137   5.735   4.204   2.208 -0.6464 -0.2292 -0.8028
20520SOL    HW162138   5.736   4.292   2.245 -1.0561 -0.6727  0.3071
20520SOL    HW262139   5.681   4.211   2.129 -2.5876  0.0862  0.4758
20521SOL     OW62140   1.997   1.803   5.119  0.2759 -0.1087  0.2935
20521SOL    HW162141   1.917   1.825   5.071  0.1006 -0.8704  0.2357
20521SOL    HW262142   2.062   1.863   5.083 -0.1889  0.3028  0.1135
20522SOL     OW62143   3.587   8.722   7.662 -0.6661 -0.2820 -0.5868
20522SOL    HW162144   3.501   8.708   7.702 -0.2992 -1.2244 -0.0928
20522SOL    HW262145   3.624   8.798   7.708 -0.9748 -0.2609 -0.3774
20523SOL     OW62146   4.283   1.472   4.411 -0.0896  0.0948  0.2462
20523SOL    HW162147   4.319   1.508   4.330  0.8338  1.6179  1.3010
20523SOL    HW262148   4.190   1.460   4.392  0.0657  0.6590 -0.9550
20524SOL     OW62149   4.506   3.593   3.166 -0.6468  0.2663  0.2533
20524SOL    HW162150   4.505   3.508   3.211 -2.1943 -0.8456 -1.7313
20524SOL    HW262151   4.589   3.633   3.192 -0.0101 -1.7189  1.4752
20525SOL     OW62152   1.869   9.599   3.927  0.2445  0.2931  0.5966
20525SOL    HW162153   1.775   9.615   3.920  0.1696 -0.0584  0.7953
20525SOL    HW262154   1.909   9.669   3.876 -0.0929  0.9618  1.2357
20526SOL     OW62155   5.590   9.789   2.688 -0.2017 -0.8058  0.2514
20526SOL    HW162156   5.663   9.728   2.680 -0.2263 -0.8402  0.2947
20526SOL    HW262157   5.568   9.789   2.781  0.2248 -0.2350  0.3616
20527SOL     OW62158   1.416   9.021   2.822 -0.2251  0.2179 -0.4721
20527SOL    HW162159   1.325   9.001   2.847 -0.2150  0.2775 -0.3887
20527SOL    HW262160   1.438   8.954   2.757  0.7612 -1.8325  1.8120
20528SOL     OW62161   8.577   6.635   0.591  0.0357  0.3404  0.1239
20528SOL    HW162162   8.637   6.569   0.555 -0.2918  0.9061 -1.5337
20528SOL    HW262163   8.541   6.679   0.514 -2.3548  0.1767  1.0705
20529SOL     OW62164   3.085   7.063   6.771 -0.0014 -0.1944 -0.0656
20529SOL    HW162165   3.178   7.080   6.788 -0.4895  1.7746  0.9972
20529SOL    HW262166   3.080   6.970   6.751  2.3348 -0.1480 -1.1269
20530SOL     OW62167   7.173   4.350   7.639  0.2921 -0.2986 -0.8952
20530SOL    HW162168   7.129   4.313   7.563 -0.1775 -0.5908 -0.4883
20530SOL    HW262169   7.166   4.445   7.627 -0.7077 -0.3412 -0.6938
20531SOL     OW62170   3.651   3.951   0.999 -0.1186  0.4065 -0.2923
20531SOL    HW162171   3.653   3.879   1.063 -1.0154 -0.0052 -0.7114
20531SOL    HW262172   3.741   3.956   0.967  0.0974 -0.1153  0.2105
20532SOL     OW62173   1.771   6.096   4.466 -0.1929 -0.0057  0.9033
20532SOL    HW162174   1.703   6.103   4.532 -0.5396  2.6545  0.3977
20532SOL    HW262175   1.821   6.178   4.474  1.9977 -1.1974  0.2409
20533SOL     OW62176   1.570   8.099   6.947  0.0524  0.4275  0.3046
20533SOL    HW162177   1.543   8.083   6.857 -0.1722  1.4009  0.1853
20533SOL    HW262178   1.535   8.024   6.996  2.8275 -1.7939 -0.8253
20534SOL     OW62179   7.322   7.043   3.535  0.2589  0.0707  0.6048
20534SOL    HW162180   7.352   7.094   3.460  0.4940 -1.1565 -0.1624
20534SOL    HW262181   7.249   6.991   3.501  0.1677 -0.2697  1.3047
20535SOL     OW62182   4.494   1.667   0.189 -0.4104  0.2343 -0.0313
20535SOL    HW162183   4.486   1.731   0.259 -0.2641  0.1014  0.1057
20535SOL    HW262184   4.567   1.698   0.136 -1.0851  0.8271 -0.6385
20536SOL     OW62185   1.726   8.078   7.281  0.3134  0.3494  0.9347
20536SOL    HW162186   1.674   8.157   7.267  0.3174  0.4874  1.6300
20536SOL    HW262187   1.806   8.093   7.231 -0.9411 -0.5713 -1.4809
20537SOL     OW62188   7.284   3.500   6.894 -0.2506  0.3081 -0.2766
20537SOL    HW162189   7.262   3.531   6.806 -1.4757 -3.5660 -1.5198
20537SOL    HW262190   7.366   3.452   6.882  0.4139  1.0721  1.0694
20538SOL     OW62191   8.100   0.764   7.433  0.0241 -0.2115 -0.0263
20538SOL    HW162192   8.133   0.796   7.348  0.1786 -1.0484 -0.2852
20538SOL    HW262193   8.170   0.709   7.467 -0.4676 -0.7415  0.1437
20539SOL     OW62194   7.852   3.510   0.858 -0.8759  0.4748 -0.2636
20539SOL    HW162195   7.869   3.431   0.910  0.5753  0.9064 -0.0388
20539SOL    HW262196   7.824   3.576   0.923  0.3955  0.8539 -0.0730
20540SOL     OW62197   2.244   6.951   5.749 -0.2376  0.2915  0.1860
20540SOL    HW162198   2.235   6.887   5.819  2.5786 -1.0322 -0.5054
20540SOL    HW262199   2.305   6.911   5.687 -1.9234  1.7707 -2.6252
20541SOL     OW62200   9.535   5.406   5.260  0.4796  0.5079  0.0868
20541SOL    HW162201   9.452   5.385   5.217  0.2469  1.7176 -0.0796
20541SOL    HW262202   9.511   5.455   5.338  0.9861 -0.2531  0.7404
20542SOL     OW62203   8.562   2.953   4.197  0.3345  0.3246  0.3612
20542SOL    HW162204   8.477   2.996   4.193 -1.0802 -2.3167 -1.0161
20542SOL    HW262205   8.589   2.944   4.105  1.2460 -0.3906  0.6731
20543SOL     OW62206   5.035   1.014   8.712 -0.1074 -0.3842 -0.0694
20543SOL    HW162207   5.066   0.956   8.782  2.1173  2.4256  1.4456
20543SOL    HW262208   4.949   1.043   8.742  0.8593  0.8689  1.6874
20544SOL     OW62209   7.300   2.208   4.491  0.1545 -0.4841  0.5199
20544SOL    HW162210   7.240   2.134   4.501  0.5647 -0.8523  0.2829
20544SOL    HW262211   7.288   2.236   4.400 -0.7213  0.3824  0.8718
20545SOL     OW62212   8.028   2.293   8.032  0.0849  0.1299  0.3358
20545SOL    HW162213   7.965   2.361   8.055  0.4324 -0.0742  2.0018
20545SOL    HW262214   8.113   2.335   8.043  0.2799 -0.2518  0.3130
20546SOL     OW62215   4.254   2.672   5.369 -0.4157  0.3323  0.8925
20546SOL    HW162216   4.350   2.676   5.376 -0.4686  0.9667  1.3821
20546SOL    HW262217   4.231   2.749   5.318 -0.5661 -0.6032 -0.4915
20547SOL     OW62218   1.564   6.934   0.810 -0.7725  0.0096 -0.3868
20547SOL    HW162219   1.593   6.892   0.891 -1.1029  0.2220 -0.1541
20547SOL    HW262220   1.469   6.943   0.820 -0.9624 -0.8830 -1.2283
20548SOL     OW62221   6.093   9.327   5.280  0.2114  0.5603 -0.4191
20548SOL    HW162222   6.163   9.293   5.336  0.1668 -1.7381 -1.6346
20548SOL    HW262223   6.134   9.395   5.228  1.1598  0.2656 -0.0674
20549SOL     OW62224   1.458   4.439   4.460 -0.6191  0.0477 -0.0861
20549SOL    HW162225   1.490   4.522   4.426  0.5272 -0.6954 -0.8790
20549SOL    HW262226   1.536   4.385   4.470 -0.6199  0.4315  4.5940
20550SOL     OW62227   9.051   7.674   2.658 -0.0240 -0.3245 -0.3113
20550SOL    HW162228   9.088   7.670   2.570  0.4124 -0.1748 -0.1394
20550SOL    HW262229   9.066   7.764   2.686  0.0808 -0.4413  0.0157
20551SOL     OW62230   7.226   9.223   2.929 -0.5296  0.3150  0.7541
20551SOL    HW162231   7.315   9.189   2.926 -0.7666 -0.2896  0.4969
20551SOL    HW262232   7.223   9.275   3.010  0.3920  1.2943  0.1755
20552SOL     OW62233   3.606   1.777   5.332  0.6474  0.2158  0.0674
20552SOL    HW162234   3.595   1.871   5.346  0.4961  0.0524  1.1563
20552SOL    HW262235   3.525   1.738   5.366  0.4375 -0.2657 -0.9526
20553SOL     OW62236   6.092   5.907   2.866 -0.3057 -0.1260 -0.1949
20553SOL    HW162237   6.083   5.820   2.827 -2.4503  0.0833 -0.3073
20553SOL    HW262238   6.114   5.891   2.958  0.3608 -0.7444 -0.4594
20554SOL     OW62239   1.116   3.577   1.586  0.4634 -0.3266 -0.1949
20554SOL    HW162240   1.058   3.626   1.528 -0.4137 -1.0485  0.0527
20554SOL    HW262241   1.190   3.635   1.601 -1.1639  1.5040  1.1876
20555SOL     OW62242   3.707   1.129   4.571 -0.3864 -0.1440  0.2128
20555SOL    HW162243   3.731   1.076   4.648 -1.1904 -1.0775 -0.1692
20555SOL    HW262244   3.786   1.128   4.517 -0.7368 -1.9328 -0.3262
20556SOL     OW62245   8.531   2.870   0.220  0.1391 -0.1857  0.6932
20556SOL    HW162246   8.577   2.812   0.159  0.0817  0.0280  0.4421
20556SOL    HW262247   8.599   2.902   0.279  1.3003  3.5941 -2.3041
20557SOL     OW62248   0.548   5.434   8.783  0.5299 -0.2859 -0.1042
20557SOL    HW162249   0.540   5.529   8.771 -1.4024 -0.4512 -0.5447
20557SOL    HW262250   0.563   5.400   8.695 -1.9493 -0.5869 -0.4803
20558SOL     OW62251   1.261   7.964   5.041 -0.0360  0.0291  0.0808
20558SOL    HW162252   1.167   7.959   5.058 -0.2293  1.2025 -0.5345
20558SOL    HW262253   1.277   8.056   5.019  1.4375  0.0961  1.2258
20559SOL     OW62254   9.251   8.603   8.878 -0.3308 -0.1854 -0.8053
20559SOL    HW162255   9.308   8.525   8.881  0.2708  0.2535 -0.6231
20559SOL    HW262256   9.199   8.591   8.799 -0.0202 -0.6211 -0.9495
20560SOL     OW62257   9.567   9.366   0.782  0.1414  0.1697  0.2815
20560SOL    HW162258   9.656   9.359   0.818  0.9815  1.1831 -1.4316
20560SOL    HW262259   9.519   9.420   0.845  1.1460  0.7337  0.5875
20561SOL     OW62260   1.981   1.554   9.077 -0.4781  0.3977  0.1639
20561SOL    HW162261   1.965   1.646   9.098  1.9033  0.8113  0.4159
20561SOL    HW262262   1.970   1.549   8.982 -2.3527  0.5186  0.3458
20562SOL     OW62263   6.943   2.407   4.590  0.5972 -0.3942 -0.2259
20562SOL    HW162264   6.858   2.450   4.585  0.7158  0.3474  2.4806
20562SOL    HW262265   6.954   2.366   4.505 -1.7983  0.7143 -1.1671
20563SOL     OW62266   8.208   4.254   2.005  0.4607  0.4106  0.0541
20563SOL    HW162267   8.207   4.350   2.003  0.9648  0.5235  2.1740
20563SOL    HW262268   8.260   4.229   1.928  2.1446  1.9529  0.6058
20564SOL     OW62269   2.703   7.449   8.087  0.7953 -0.0283 -0.1766
20564SOL    HW162270   2.651   7.443   8.168  0.2183  1.5167 -0.4054
20564SOL    HW262271   2.791   7.423   8.114  0.5087 -0.0044  0.8414
20565SOL     OW62272   8.567   6.200   3.494 -0.0195 -0.1091  0.2826
20565SOL    HW162273   8.650   6.244   3.473 -0.7654  1.2956  0.1935
20565SOL    HW262274   8.580   6.164   3.582  0.3917  0.8288  0.6124
20566SOL     OW62275   4.846   4.384   0.278 -0.8824 -0.0148 -0.5024
20566SOL    HW162276   4.819   4.367   0.189 -0.2141  1.6539 -1.0771
20566SOL    HW262277   4.764   4.391   0.328 -1.2451 -1.1516 -0.9342
20567SOL     OW62278   9.885   5.066   0.709  0.5848  0.3163 -0.0207
20567SOL    HW162279   9.943   5.017   0.766 -0.0744  1.0520  1.3217
20567SOL    HW262280   9.845   5.000   0.652  0.2439 -0.6121  1.2679
20568SOL     OW62281   0.745   0.044   7.033 -0.0163  0.1825  0.1005
20568SOL    HW162282   0.679  -0.023   7.015 -1.0431  1.1545  0.1128
20568SOL    HW262283   0.781   0.066   6.947  0.2599 -0.3218  0.0878
20569SOL     OW62284   8.437   6.629   2.360  0.6625 -0.4432  0.3815
20569SOL    HW162285   8.357   6.612   2.411 -0.6637  0.3217 -1.3303
20569SOL    HW262286   8.458   6.545   2.319  0.6531 -0.6085  0.7098
20570SOL     OW62287   6.183   1.485   8.986  0.1116  0.4891 -0.0203
20570SOL    HW162288   6.189   1.537   8.906 -0.0792 -1.0552 -1.0681
20570SOL    HW262289   6.271   1.450   8.999  0.4083  1.5261  1.0529
20571SOL     OW62290   2.944   6.170   8.997  0.1196 -0.3457  0.3143
20571SOL    HW162291   3.035   6.144   9.008  0.0187 -0.0232  2.5134
20571SOL    HW262292   2.894   6.096   9.033 -0.4369 -0.0901  0.0772
20572SOL     OW62293   2.076   0.272   1.822 -0.3990 -0.1128 -0.6893
20572SOL    HW162294   2.160   0.229   1.805 -1.4323 -2.6585  0.1673
20572SOL    HW262295   2.066   0.334   1.749  2.5478  0.9031 -0.3647
20573SOL     OW62296   8.315   3.630   6.686  0.2788 -0.4135  0.1897
20573SOL    HW162297   8.232   3.588   6.708  0.4165 -1.1209 -0.6139
20573SOL    HW262298   8.314   3.639   6.591  1.2036 -0.6062  0.1515
20574SOL     OW62299   4.420   6.098   9.621  0.0691  0.2892  0.4110
20574SOL    HW162300   4.359   6.169   9.600 -2.5009 -1.4723  1.3885
20574SOL    HW262301   4.386   6.022   9.573  1.2219 -0.8818  1.3753
20575SOL     OW62302   4.641   5.645   9.886 -0.0428 -0.4049  0.2709
20575SOL    HW162303   4.575   5.577   9.892 -0.8617  0.4030  0.6794
20575SOL    HW262304   4.618   5.707   9.955 -0.1168  0.9651 -0.9325
20576SOL     OW62305   0.379   0.699   7.576 -0.5943  0.8995  0.4030
20576SOL    HW162306   0.434   0.775   7.593 -0.3017  0.5796  0.9251
20576SOL    HW262307   0.304   0.734   7.528  1.1646  1.0011 -2.4646
20577SOL     OW62308   8.105   1.215   5.531 -0.4102 -0.2107  0.4547
20577SOL    HW162309   8.162   1.140   5.546 -1.6307 -1.1252  0.6528
20577SOL    HW262310   8.165   1.287   5.511  0.7656 -1.3150 -0.1345
20578SOL     OW62311   3.331   1.216   5.058  0.0248  0.1015  0.6336
20578SOL    HW162312   3.424   1.211   5.081  0.2851  2.0495  0.1639
20578SOL    HW262313   3.327   1.285   4.992 -1.7934  0.1617  0.7756
20579SOL     OW62314   3.222   5.921   8.370 -0.3077  0.0263 -0.0193
20579SOL    HW162315   3.242   5.830   8.348 -1.7922 -0.2271 -0.4682
20579SOL    HW262316   3.229   5.968   8.286  0.1772  0.2817  0.1596
20580SOL     OW62317   3.820   8.507   9.858 -0.4825  0.0681  0.2566
20580SOL    HW162318   3.913   8.502   9.837 -0.6792 -0.6746 -0.4861
20580SOL    HW262319   3.783   8.564   9.790 -0.9239 -1.4097 -0.7991
20581SOL     OW62320   1.996   5.180   8.962  0.4094  0.0616  0.8674
20581SOL    HW162321   2.077   5.129   8.963  0.3049 -0.1158  0.3122
20581SOL    HW262322   2.010   5.248   9.028  1.9028  1.4076 -0.7439
20582SOL     OW62323   3.788   3.899   9.670  0.4062  0.0933  0.7065
20582SOL    HW162324   3.763   3.857   9.587  2.4227 -1.8623  0.9704
20582SOL    HW262325   3.716   3.958   9.691 -0.8615 -0.5114 -1.6560
20583SOL     OW62326   3.234   5.404   1.053 -0.6359 -0.0437 -0.6084
20583SOL    HW162327   3.277   5.443   0.977 -0.4459  0.3800 -0.2869
20583SOL    HW262328   3.195   5.478   1.099 -1.0898 -0.3473 -0.5078
20584SOL     OW62329   9.253   5.446   4.195  0.0852 -0.1234  0.3269
20584SOL    HW162330   9.293   5.533   4.182  0.2293 -0.2988 -0.4583
20584SOL    HW262331   9.326   5.385   4.185 -0.0500 -0.3483  0.7029
20585SOL     OW62332   6.781   8.142   1.024 -0.4618 -0.4147  0.3336
20585SOL    HW162333   6.852   8.082   1.044  0.4057  0.3025 -0.5203
20585SOL    HW262334   6.781   8.150   0.929  0.0907  1.6539  0.4438
20586SOL     OW62335   4.318   2.604   6.576 -0.0894  0.3048  0.3529
20586SOL    HW162336   4.365   2.576   6.654 -1.4359 -1.3910  0.6214
20586SOL    HW262337   4.332   2.533   6.513  0.6420  1.4546 -0.8594
20587SOL     OW62338   0.963   6.264   4.477 -0.5335  0.0523  0.0739
20587SOL    HW162339   0.958   6.203   4.551  0.1062  0.7773  0.7483
20587SOL    HW262340   1.056   6.264   4.454 -0.7628 -0.3156 -0.8721
20588SOL     OW62341   6.069   5.614   2.281 -0.6844 -0.1600 -0.1860
20588SOL    HW162342   5.983   5.656   2.282 -0.8553 -0.2993  3.4669
20588SOL    HW262343   6.119   5.660   2.347  1.6219 -1.0428 -1.2093
20589SOL     OW62344   9.181   4.440   0.089  0.1067 -0.3046 -0.6580
20589SOL    HW162345   9.161   4.462   0.179 -0.3234 -0.6700 -0.6656
20589SOL    HW262346   9.156   4.518   0.039  1.2198  0.2648 -0.3672
20590SOL     OW62347   7.386   1.418   3.981 -0.4677  0.5216 -0.4514
20590SOL    HW162348   7.427   1.362   4.046 -0.6757  0.3560 -0.4613
20590SOL    HW262349   7.336   1.482   4.033 -1.1843 -0.0265 -0.4518
20591SOL     OW62350   2.378   2.174   2.557  0.5888 -0.0875 -0.6702
20591SOL    HW162351   2.392   2.094   2.506  1.3987 -1.6231  1.7520
20591SOL    HW262352   2.458   2.182   2.610 -0.2049  1.3815  0.3649
20592SOL     OW62353   3.323   3.099   7.837  0.2440 -0.3318 -0.3082
20592SOL    HW162354   3.412   3.095   7.803 -0.0549  1.3685 -1.3915
20592SOL    HW262355   3.310   3.191   7.861 -0.4185 -0.9902  2.1478
20593SOL     OW62356   6.445   4.439   0.788  0.0392 -0.1158 -0.4639
20593SOL    HW162357   6.447   4.430   0.693  1.4094  2.6487 -0.7745
20593SOL    HW262358   6.369   4.496   0.805  0.8190  0.8488 -0.1056
20594SOL     OW62359   4.755   8.369   7.640  0.3904  0.1197  0.1749
20594SOL    HW162360   4.703   8.290   7.641 -0.1289  0.4580  0.2365
20594SOL    HW262361   4.729   8.415   7.560  1.3381 -0.1898 -0.3314
20595SOL     OW62362   1.576   4.689   4.583 -0.7010 -0.1550 -0.1501
20595SOL    HW162363   1.662   4.654   4.606  0.1719  0.8042 -1.7874
20595SOL    HW262364   1.585   4.784   4.594 -1.8462 -0.1024  0.5311
20596SOL     OW62365   0.186   9.944   1.110  0.3626 -0.0870  0.1914
20596SOL    HW162366   0.280   9.948   1.121  0.5311 -1.6154 -0.3783
20596SOL    HW262367   0.164   9.852   1.124 -0.9303  0.0892 -0.4923
20597SOL     OW62368   7.031   3.101   8.824 -0.0831 -0.0661  0.0721
20597SOL    HW162369   7.125   3.086   8.814 -0.4403 -1.8536 -1.0539
20597SOL    HW262370   7.006   3.044   8.897 -0.3358  0.2025  0.1950
20598SOL     OW62371   1.775   0.474   5.655 -0.0963 -0.2841  0.0020
20598SOL    HW162372   1.713   0.544   5.674 -0.8329 -0.3446 -1.9101
20598SOL    HW262373   1.777   0.470   5.559 -0.2305 -2.9991  0.0520
20599SOL     OW62374   8.293   0.903   0.623 -0.1761  0.4931 -0.1686
20599SOL    HW162375   8.369   0.885   0.568 -1.0279 -0.1321 -1.1893
20599SOL    HW262376   8.310   0.856   0.705 -0.2158 -1.0489 -1.0254
20600SOL     OW62377   3.131   7.745   5.977 -0.4385 -0.5265  0.1738
20600SOL    HW162378   3.141   7.659   5.935  2.6136 -0.0802 -0.2497
20600SOL    HW262379   3.131   7.807   5.904  0.7497  0.0147  0.6201
20601SOL     OW62380   6.141   3.395   0.196  0.3549  0.6411 -0.4060
20601SOL    HW162381   6.053   3.362   0.178  0.5707  0.4209 -1.0661
20601SOL    HW262382   6.174   3.423   0.112  1.4551 -0.6075 -0.4275
20602SOL     OW62383   9.294   2.982   8.570 -0.0640 -0.5068  0.1442
20602SOL    HW162384   9.309   2.998   8.663 -2.2844 -0.8008  0.6233
20602SOL    HW262385   9.343   3.051   8.526 -1.1660  1.3875  1.6883
20603SOL     OW62386   8.353   5.287   0.322  0.4207 -0.3025  0.5080
20603SOL    HW162387   8.326   5.369   0.281 -1.9758 -1.5951 -0.7087
20603SOL    HW262388   8.346   5.304   0.416  0.9880  1.1564  0.3153
20604SOL     OW62389   7.076   2.088   1.509 -1.3552  0.1054 -0.0289
20604SOL    HW162390   7.092   2.070   1.417 -1.5339 -1.9329  0.3065
20604SOL    HW262391   7.085   2.004   1.553 -1.1674  1.0361  1.8546
20605SOL     OW62392   0.040   5.449   3.324  0.2408  0.2537 -1.0563
20605SOL    HW162393   0.078   5.372   3.281 -0.1053 -0.5888  0.1130
20605SOL    HW262394  -0.032   5.414   3.375  1.4860  1.0029  1.3411
20606SOL     OW62395   0.988   5.592   8.906 -0.6705 -0.2007  0.2293
20606SOL    HW162396   1.043   5.666   8.932 -0.5389 -0.7939  1.7573
20606SOL    HW262397   1.034   5.515   8.940 -2.2409 -0.7425  1.2211
20607SOL     OW62398   6.074   6.051   9.173  0.5072  0.4225 -0.0699
20607SOL    HW162399   6.087   6.011   9.087  0.8554 -0.5455  0.4202
20607SOL    HW262400   5.993   6.011   9.206  0.6322  0.4310  0.2536
20608SOL     OW62401   7.891   4.847   2.400  0.4605 -0.7691 -0.4031
20608SOL    HW162402   7.986   4.841   2.411  0.3497 -0.3631  1.0777
20608SOL    HW262403   7.863   4.907   2.469 -0.8657 -0.8557 -0.8424
20609SOL     OW62404   0.145   8.052   5.319  0.1749  0.2817 -0.1862
20609SOL    HW162405   0.192   8.135   5.329 -0.5414  0.5864  0.8079
20609SOL    HW262406   0.129   8.022   5.408 -0.3833 -0.4639 -0.5206
20610SOL     OW62407   0.777   0.722   7.651  0.1762 -0.6525  0.2652
20610SOL    HW162408   0.726   0.779   7.594 -0.0412 -0.6074  0.5048
20610SOL    HW262409   0.716   0.695   7.720 -0.0757 -2.1345 -0.4952
20611SOL     OW62410   7.806   1.883   7.827 -0.5501 -0.0369  0.5411
20611SOL    HW162411   7.826   1.879   7.921 -1.1257 -0.8470  0.6456
20611SOL    HW262412   7.807   1.976   7.806 -1.6917  0.2557  1.6540
20612SOL     OW62413   7.920   7.460   3.277  0.7130  0.7594  0.3328
20612SOL    HW162414   7.915   7.376   3.324  2.0662 -0.2215 -1.1711
20612SOL    HW262415   8.013   7.481   3.276  0.5078  1.6904 -0.3320
20613SOL     OW62416   4.166   5.089   6.151 -0.0727  0.0013  0.2443
20613SOL    HW162417   4.198   5.080   6.061 -0.9050  1.1270 -0.1937
20613SOL    HW262418   4.235   5.137   6.196 -1.5935  3.8342 -1.0971
20614SOL     OW62419   3.339   6.392   0.604 -0.0282  0.0452 -0.7349
20614SOL    HW162420   3.298   6.320   0.556 -2.6945  0.9904 -0.0275
20614SOL    HW262421   3.428   6.396   0.569 -0.3734 -2.3603 -2.1228
20615SOL     OW62422   4.874   0.847   0.324  0.0705 -0.2306 -0.8305
20615SOL    HW162423   4.838   0.912   0.265 -0.7326 -0.4848 -0.6361
20615SOL    HW262424   4.915   0.783   0.267 -1.3579 -0.8752 -1.1915
20616SOL     OW62425   8.375   9.004   2.526  0.7003 -0.2136  0.4963
20616SOL    HW162426   8.402   9.083   2.478  0.6625 -0.5865 -0.1549
20616SOL    HW262427   8.358   8.939   2.457  0.7066 -0.7824  1.0246
20617SOL     OW62428   5.841   1.025   1.243 -0.1727  0.0973 -0.1530
20617SOL    HW162429   5.837   1.066   1.329 -2.1553 -1.6600  0.6855
20617SOL    HW262430   5.762   1.055   1.198  1.0360  1.3247 -1.5941
20618SOL     OW62431   0.158   6.505   6.182  0.6099  0.0121  0.9346
20618SOL    HW162432   0.113   6.525   6.100 -0.0785  0.4048  1.3955
20618SOL    HW262433   0.207   6.424   6.163  0.2907 -0.0240  0.2061
20619SOL     OW62434   8.553   8.008   9.106  0.4747 -0.1756 -0.2258
20619SOL    HW162435   8.513   8.091   9.131  0.3788 -0.7038  1.4424
20619SOL    HW262436   8.621   8.032   9.043 -0.8107  0.9619 -1.2626
20620SOL     OW62437   5.578   5.035   9.874  0.4218  0.3176 -0.0569
20620SOL    HW162438   5.520   5.031   9.950  1.6648  0.3758  0.9428
20620SOL    HW262439   5.663   5.004   9.908  0.8026 -0.4603 -1.6337
20621SOL     OW62440   7.743   6.603   3.628  0.2662  0.2257  0.3012
20621SOL    HW162441   7.791   6.622   3.548 -0.7819 -0.5481 -0.5254
20621SOL    HW262442   7.663   6.559   3.600 -0.2110  0.0849  1.7536
20622SOL     OW62443   0.806   3.306   9.486 -0.4099 -0.1670 -0.2490
20622SOL    HW162444   0.846   3.382   9.443  1.2383 -0.3895  0.8100
20622SOL    HW262445   0.857   3.232   9.457 -0.6445 -0.5945  0.3975
20623SOL     OW62446   5.204   4.551   4.224  0.2738 -0.0260 -0.0817
20623SOL    HW162447   5.190   4.500   4.145 -0.1551 -0.3727  0.2114
20623SOL    HW262448   5.297   4.576   4.221  0.0496  0.7138 -1.1256
20624SOL     OW62449   0.642   5.969   4.653 -0.4154  0.2157  0.2540
20624SOL    HW162450   0.606   5.964   4.564  0.6698  2.4943 -0.3758
20624SOL    HW262451   0.583   6.027   4.700 -1.0731 -1.1007  1.1397
20625SOL     OW62452   8.572   0.006   2.403  0.5824 -0.0921  0.7209
20625SOL    HW162453   8.526  -0.024   2.325  0.1721 -0.4677  1.1033
20625SOL    HW262454   8.639   0.067   2.370 -0.8290  1.2549  0.2386
20626SOL     OW62455   6.293   2.977   7.038 -0.3698  0.5189  0.0339
20626SOL    HW162456   6.201   2.979   7.010 -0.0720 -0.8333 -1.2232
20626SOL    HW262457   6.342   2.998   6.958  0.4144  2.7616  1.0408
20627SOL     OW62458   5.021   3.795   7.347  0.1186  0.4446 -0.1203
20627SOL    HW162459   5.036   3.725   7.410  1.4814  0.7248 -0.1095
20627SOL    HW262460   4.933   3.779   7.314 -0.8996  0.6612  2.2935
20628SOL     OW62461   7.063   4.118   5.225 -0.0539 -0.5424 -0.1710
20628SOL    HW162462   7.071   4.114   5.129 -1.8040 -0.9326 -0.3236
20628SOL    HW262463   7.005   4.192   5.241 -1.7414 -1.9269  0.4236
20629SOL     OW62464   0.097   3.621   1.041 -0.3804 -0.7516 -0.7389
20629SOL    HW162465   0.136   3.556   0.983  0.5699  1.5329 -2.8034
20629SOL    HW262466   0.171   3.659   1.088 -0.7020  0.0897 -0.9042
20630SOL     OW62467   7.254   1.489   7.879 -0.4651 -0.4401  0.3982
20630SOL    HW162468   7.348   1.470   7.881  0.0827  1.9406  0.6156
20630SOL    HW262469   7.239   1.527   7.792 -0.9657  0.2469  0.7712
20631SOL     OW62470   0.467   8.963   2.294  0.6001  0.7986 -0.3425
20631SOL    HW162471   0.478   8.891   2.232 -2.7458 -0.3346  0.1581
20631SOL    HW262472   0.500   8.928   2.377 -0.2999  0.0774 -0.2697
20632SOL     OW62473   7.788   8.709   7.755 -0.1892 -0.4199  0.0520
20632SOL    HW162474   7.731   8.754   7.693  0.4010 -0.3467 -0.4395
20632SOL    HW262475   7.758   8.740   7.841 -0.2928  0.3094 -0.2452
20633SOL     OW62476   9.897   9.181   2.971  0.2771 -0.0290  0.5696
20633SOL    HW162477   9.965   9.116   2.989  0.5204 -0.1939 -0.8294
20633SOL    HW262478   9.831   9.166   3.038  0.0110 -2.1692 -0.1085
20634SOL     OW62479   2.954   9.821   0.848  0.3141  0.0905  0.2022
20634SOL    HW162480   2.943   9.882   0.775  1.0312 -0.8209 -0.7024
20634SOL    HW262481   3.029   9.768   0.823 -1.2339 -2.2247  0.1848
20635SOL     OW62482   1.980   2.237   4.630 -0.0228  0.0139 -0.4391
20635SOL    HW162483   1.910   2.240   4.696  0.0529  1.8974 -0.3926
20635SOL    HW262484   2.040   2.170   4.661 -1.4315 -1.1276 -0.0938
20636SOL     OW62485   4.240   3.229   5.469  0.1969 -0.1991  0.3204
20636SOL    HW162486   4.204   3.184   5.546  1.2553  0.5185  1.2676
20636SOL    HW262487   4.276   3.159   5.415  0.0846 -0.6537  0.8217
20637SOL     OW62488   3.645   8.903   9.605 -0.4630  0.2224 -0.3130
20637SOL    HW162489   3.616   8.967   9.670  1.5023  0.8932 -0.0424
20637SOL    HW262490   3.615   8.818   9.639 -0.4685  0.6860  0.8704
20638SOL     OW62491   6.878   1.855   2.452 -0.3409  0.1635  0.0806
20638SOL    HW162492   6.915   1.836   2.366 -1.5512  1.8093 -0.8506
20638SOL    HW262493   6.914   1.787   2.509  1.3578 -0.3104 -1.4737
20639SOL     OW62494   9.219   4.912   5.839  0.3272 -0.3341  0.3097
20639SOL    HW162495   9.181   4.888   5.923 -1.4427  0.0145 -0.3534
20639SOL    HW262496   9.225   5.008   5.842  0.7045 -0.3513  0.2049
20640SOL     OW62497   6.275   8.939   6.630 -0.1488 -0.2326  0.0108
20640SOL    HW162498   6.283   9.005   6.699  0.1077 -0.3095  0.0538
20640SOL    HW262499   6.273   8.856   6.677 -1.0399 -0.2354 -0.0021
20641SOL     OW62500   0.366   0.931   5.131 -0.1044  0.4052  0.6649
20641SOL    HW162501   0.361   0.986   5.210  0.3163  1.3259  0.0671
20641SOL    HW262502   0.437   0.870   5.150 -0.1478  0.4781  1.0896
20642SOL     OW62503   9.638   3.842   4.334 -0.0340  0.0709  0.0839
20642SOL    HW162504   9.634   3.879   4.246  0.2786  1.0211  0.4578
20642SOL    HW262505   9.729   3.855   4.361  0.0217 -0.7675  0.3194
20643SOL     OW62506   1.560   8.895   7.815 -0.7847  0.1304 -0.5517
20643SOL    HW162507   1.512   8.889   7.897  0.4199 -0.8730  0.1129
20643SOL    HW262508   1.582   8.804   7.793 -0.0571  0.4847 -1.3557
20644SOL     OW62509   5.766   2.662   2.971  0.2926  0.3035 -0.3974
20644SOL    HW162510   5.690   2.612   2.940 -1.5386  2.6801 -0.0184
20644SOL    HW262511   5.804   2.606   3.039 -0.5549 -1.3651 -1.2380
20645SOL     OW62512   1.102   1.381   2.630  0.0914  0.1089  0.1800
20645SOL    HW162513   1.166   1.453   2.625  0.1043  0.1290  0.6270
20645SOL    HW262514   1.137   1.323   2.697  0.7823 -1.0075 -1.1042
20646SOL     OW62515   4.429   5.951   7.289 -0.1100  0.6972 -0.3067
20646SOL    HW162516   4.499   5.903   7.245 -0.8186  0.2449 -0.9657
20646SOL    HW262517   4.456   6.043   7.284 -0.2757  0.6894 -1.9011
20647SOL     OW62518   8.974   8.046   7.255 -0.1494 -0.0429 -0.3838
20647SOL    HW162519   8.947   8.133   7.224  0.2103 -0.0982 -0.8636
20647SOL    HW262520   8.895   8.009   7.295 -0.6918 -0.0423 -1.4169
20648SOL     OW62521   0.530   5.971   8.619  0.1582 -0.5068  0.3664
20648SOL    HW162522   0.448   5.979   8.571  0.2133  2.8453  0.6208
20648SOL    HW262523   0.515   6.018   8.701  1.8488 -1.2086  1.1248
20649SOL     OW62524   1.349   9.272   2.639  0.0215  0.0817  0.4155
20649SOL    HW162525   1.408   9.201   2.667  0.8278 -0.0861 -1.5300
20649SOL    HW262526   1.396   9.315   2.568 -1.9798  0.2993 -0.8480
20650SOL     OW62527   6.966   6.556   7.833 -0.1177  0.3817  0.1794
20650SOL    HW162528   7.042   6.575   7.777 -0.1460  0.9172  0.3096
20650SOL    HW262529   6.903   6.513   7.775  0.5954 -0.8191  0.2645
20651SOL     OW62530   7.420   5.647   3.369  0.5522  0.3829  0.0882
20651SOL    HW162531   7.500   5.609   3.406  0.4250  1.5735  1.6777
20651SOL    HW262532   7.447   5.734   3.339  0.1336  0.2805 -0.5994
20652SOL     OW62533   1.945   0.124   4.535 -0.4742  0.1858 -0.1270
20652SOL    HW162534   1.909   0.155   4.618  0.2607 -0.5931  0.5026
20652SOL    HW262535   1.869   0.113   4.478 -0.9070  1.4729  0.1803
20653SOL     OW62536   9.290   1.509   2.876  0.1744 -0.0296  0.4628
20653SOL    HW162537   9.247   1.585   2.914  0.5537 -0.1523  1.1464
20653SOL    HW262538   9.220   1.447   2.858 -0.3318  0.9752 -1.3550
20654SOL     OW62539   9.313   0.778   2.411 -0.3288  0.4081 -0.4271
20654SOL    HW162540   9.258   0.729   2.350 -0.0476  1.6703 -1.7436
20654SOL    HW262541   9.259   0.852   2.438 -0.7811 -0.5878  1.6166
20655SOL     OW62542   9.304   0.136   3.402  0.0324  0.6381 -0.1748
20655SOL    HW162543   9.327   0.125   3.494  0.2601  2.9720  0.1256
20655SOL    HW262544   9.374   0.092   3.354 -0.6138 -1.4718  0.7252
20656SOL     OW62545   9.184   7.831   2.002 -0.1465  0.1959  0.1701
20656SOL    HW162546   9.150   7.831   1.913 -0.6391 -1.3002  0.3393
20656SOL    HW262547   9.226   7.746   2.013  1.7358  1.1498  0.7129
20657SOL     OW62548   8.310   2.754   3.817  0.3490  0.0935  0.3718
20657SOL    HW162549   8.307   2.849   3.804  1.0403 -0.1232 -1.7325
20657SOL    HW262550   8.219   2.726   3.810  0.1216  0.5960  1.1518
20658SOL     OW62551   2.420   0.739   8.895  0.1323 -0.4361 -0.9509
20658SOL    HW162552   2.373   0.781   8.967  1.0714 -1.0373  0.0481
20658SOL    HW262553   2.499   0.791   8.883  0.3732 -0.8051 -0.9979
20659SOL     OW62554   7.588   8.455   8.714  0.0562 -0.4073  0.4161
20659SOL    HW162555   7.589   8.508   8.794  0.2651 -0.0700  0.1896
20659SOL    HW262556   7.675   8.414   8.712  0.1873 -0.1256  0.1732
20660SOL     OW62557   8.490   7.598   0.963  0.1807  0.2973 -0.1856
20660SOL    HW162558   8.433   7.650   0.906 -0.0900  0.1910 -0.0105
20660SOL    HW262559   8.436   7.576   1.038  0.4500  0.1845 -0.0236
20661SOL     OW62560   5.837   9.720   7.500  0.1384 -0.1001  0.0294
20661SOL    HW162561   5.871   9.784   7.563  0.5736 -0.5427  0.2546
20661SOL    HW262562   5.763   9.764   7.458  0.2006  0.4119  0.4467
20662SOL     OW62563   6.399   5.925   5.111 -0.1871  0.0316 -0.6330
20662SOL    HW162564   6.448   5.844   5.098 -1.3744 -1.0795  1.3351
20662SOL    HW262565   6.465   5.994   5.104  0.8615 -1.0737 -2.2926
20663SOL     OW62566   9.746   1.450   3.638  0.3253 -0.7975 -0.4827
20663SOL    HW162567   9.697   1.437   3.557  1.7843 -2.3861 -1.1654
20663SOL    HW262568   9.680   1.448   3.707 -0.6383 -2.7877 -1.3764
20664SOL     OW62569   7.874   7.766   7.936 -0.4345 -0.2261 -0.5628
20664SOL    HW162570   7.830   7.791   8.017  0.6660 -0.4124  0.1139
20664SOL    HW262571   7.911   7.848   7.902  1.5006 -0.5616  0.6256
20665SOL     OW62572   2.533   2.688   3.909 -0.6910  0.4424 -0.2049
20665SOL    HW162573   2.461   2.626   3.918 -0.7758  0.5363 -0.2352
20665SOL    HW262574   2.603   2.652   3.964 -0.5194 -0.0103 -0.7114
20666SOL     OW62575   1.073   5.326   3.222 -0.0502 -0.2639 -0.6707
20666SOL    HW162576   1.082   5.394   3.288 -0.2230 -1.8247  1.0308
20666SOL    HW262577   1.156   5.279   3.223 -0.4294 -0.9508 -0.8309
20667SOL     OW62578   6.399   4.354   4.218 -0.4746  0.3713  0.1508
20667SOL    HW162579   6.346   4.425   4.255 -0.2448 -0.3781  2.0411
20667SOL    HW262580   6.335   4.290   4.188 -0.7455  1.9546 -3.0314
20668SOL     OW62581   0.880   6.589   9.692  0.1236 -0.2238  0.3652
20668SOL    HW162582   0.798   6.544   9.714 -1.7134  2.2520 -0.9999
20668SOL    HW262583   0.883   6.665   9.750  2.0218 -0.7572  1.0643
20669SOL     OW62584   4.029   2.901   0.951 -0.8546 -0.0450 -0.0426
20669SOL    HW162585   4.036   2.996   0.957  0.3062 -0.2084  3.3994
20669SOL    HW262586   3.969   2.877   1.021 -0.2645 -1.9397 -0.1352
20670SOL     OW62587   9.164   5.351   9.717 -0.5501  0.2739 -0.3889
20670SOL    HW162588   9.237   5.294   9.740  0.3377  0.8999 -1.5363
20670SOL    HW262589   9.118   5.303   9.647 -2.9106 -1.3699  2.0561
20671SOL     OW62590   4.563   1.178   2.276  0.2283 -0.3191 -0.2079
20671SOL    HW162591   4.516   1.235   2.216 -1.6333  0.4486  1.8335
20671SOL    HW262592   4.630   1.234   2.315  0.2991 -0.3415 -0.2957
20672SOL     OW62593   7.473   9.495   3.067  0.5151 -0.4077  0.2874
20672SOL    HW162594   7.553   9.519   3.020 -0.0816  0.6673 -0.2246
20672SOL    HW262595   7.442   9.577   3.104 -1.1673 -0.4893 -0.8185
20673SOL     OW62596   9.843   4.896   4.026 -0.1473 -0.4663  0.3322
20673SOL    HW162597   9.757   4.856   4.023 -0.9205  1.1470 -1.0832
20673SOL    HW262598   9.890   4.858   3.951 -0.4166  0.2561 -0.2127
20674SOL     OW62599   5.348   3.629   9.053 -0.4781  0.4416 -0.0239
20674SOL    HW162600   5.311   3.549   9.089  1.8539 -0.1112  1.3834
20674SOL    HW262601   5.309   3.638   8.967 -0.9487 -2.0990 -0.1409
20675SOL     OW62602   3.014   2.543   3.481 -0.4691 -0.0518 -0.2681
20675SOL    HW162603   3.069   2.547   3.559 -2.0061 -0.6024  0.8967
20675SOL    HW262604   3.028   2.628   3.438  1.6841 -0.3837 -0.3655
20676SOL     OW62605   1.236   1.490   4.275 -0.1649 -0.0759  0.2730
20676SOL    HW162606   1.288   1.561   4.313 -0.3990  0.3676 -0.2220
20676SOL    HW262607   1.190   1.451   4.349 -3.0196  2.7029  0.1625
20677SOL     OW62608   2.051   7.793   9.403 -0.5224  0.0172 -0.3530
20677SOL    HW162609   2.013   7.878   9.425  2.1578  1.3311 -0.3977
20677SOL    HW262610   2.091   7.805   9.317  0.3503 -1.0931 -0.1378
20678SOL     OW62611   4.113   7.162   3.257  0.1040  0.0552  0.0104
20678SOL    HW162612   4.182   7.154   3.191 -0.7361  0.4255 -0.9392
20678SOL    HW262613   4.061   7.082   3.246  1.0202 -0.7894  1.5143
20679SOL     OW62614   2.807   1.914   7.566 -0.0337  0.3047  0.1668
20679SOL    HW162615   2.896   1.890   7.593  0.9488  0.0176 -2.9184
20679SOL    HW262616   2.805   2.010   7.573 -0.2585  0.1935  2.2117
20680SOL     OW62617   0.970   6.044   5.138  0.1399  0.0470  0.3422
20680SOL    HW162618   1.031   6.011   5.073 -0.8345 -1.1560 -0.0064
20680SOL    HW262619   0.991   5.997   5.218 -1.7143 -2.0961 -0.3315
20681SOL     OW62620   7.225   9.096   0.403 -0.2732  0.0686  0.2753
20681SOL    HW162621   7.134   9.092   0.433 -0.2143  1.5200  0.7210
20681SOL    HW262622   7.277   9.073   0.480 -0.2277  0.5008  0.3756
20682SOL     OW62623   0.031   6.818   7.364  0.6142 -0.4739  0.7389
20682SOL    HW162624  -0.046   6.799   7.310 -1.2004  1.8833  2.2582
20682SOL    HW262625   0.093   6.859   7.303 -0.6860  0.5904  0.0768
20683SOL     OW62626   6.532   0.646   4.292  0.0482 -0.0587  0.5299
20683SOL    HW162627   6.595   0.708   4.256  1.3584 -2.0564 -0.8154
20683SOL    HW262628   6.574   0.612   4.371  1.4907 -2.5268 -1.1825
20684SOL     OW62629   5.950   9.246   1.084 -0.3746  0.1282 -0.0807
20684SOL    HW162630   6.045   9.233   1.081 -0.1924  1.2559  0.1935
20684SOL    HW262631   5.937   9.332   1.044 -1.2497  0.1082  0.1497
20685SOL     OW62632   4.553   6.479   8.888 -0.4567  0.3241 -0.0199
20685SOL    HW162633   4.584   6.389   8.902  2.0049  0.7811 -1.8662
20685SOL    HW262634   4.530   6.510   8.976 -1.7731 -2.1977  0.6213
20686SOL     OW62635   5.548   1.961   7.873  0.6055  0.1266 -0.3838
20686SOL    HW162636   5.531   1.902   7.947 -2.4187  2.1295  0.7367
20686SOL    HW262637   5.629   2.006   7.896  1.0643 -1.0614  0.4373
20687SOL     OW62638   3.629   3.741   2.021  0.3551  0.6316  0.2246
20687SOL    HW162639   3.699   3.715   2.082  0.5303  1.0356  0.1973
20687SOL    HW262640   3.675   3.776   1.945  0.2913 -3.0494 -1.7175
20688SOL     OW62641   5.041   0.585   7.176 -0.3831 -0.6858 -0.1126
20688SOL    HW162642   5.121   0.607   7.129 -0.5881  0.8685  0.2118
20688SOL    HW262643   5.071   0.534   7.252  0.1296 -1.4410 -0.7998
20689SOL     OW62644   9.642   7.567   4.356 -0.1781  0.0936  0.3537
20689SOL    HW162645   9.645   7.478   4.320  0.6048 -0.0576  0.7717
20689SOL    HW262646   9.549   7.590   4.357 -0.4373 -0.9470  0.7992
20690SOL     OW62647   9.040   5.015   5.288 -0.0789 -0.2887  0.7691
20690SOL    HW162648   9.112   4.954   5.308  1.5025  0.5573 -1.8533
20690SOL    HW262649   9.068   5.098   5.324 -0.5789 -0.3349  1.2693
20691SOL     OW62650   1.993   2.487   3.220 -0.2480  0.1029 -0.1237
20691SOL    HW162651   2.053   2.488   3.295 -0.8394  0.7594  0.3566
20691SOL    HW262652   2.043   2.446   3.150  0.6022  0.2175  0.3987
20692SOL     OW62653   1.068   1.365   5.458  0.0626 -0.3448  0.1610
20692SOL    HW162654   1.104   1.423   5.526  0.2804 -0.3270  0.0310
20692SOL    HW262655   1.142   1.347   5.401  0.3032 -1.7310  0.8628
20693SOL     OW62656   1.837   0.692   7.797 -0.9171  0.5956  0.0600
20693SOL    HW162657   1.923   0.723   7.767 -1.2676  1.8680  0.3100
20693SOL    HW262658   1.855   0.606   7.835  0.2318  0.7926  0.0220
20694SOL     OW62659   9.610   3.923   1.285 -0.1001 -0.7710 -0.3985
20694SOL    HW162660   9.700   3.906   1.255  1.1989  0.7373  2.3557
20694SOL    HW262661   9.582   3.840   1.324  0.9909 -0.5993  0.7813
20695SOL     OW62662   0.074   3.828   8.112  0.1568 -0.2827  0.1966
20695SOL    HW162663   0.049   3.735   8.107  1.5975 -0.8850  2.6286
20695SOL    HW262664   0.076   3.857   8.021 -1.1426 -2.4029 -0.5801
20696SOL     OW62665   5.706   3.892   6.192 -0.2995 -0.4369 -0.4875
20696SOL    HW162666   5.712   3.811   6.142  0.8444 -0.3172 -0.5830
20696SOL    HW262667   5.793   3.902   6.230 -0.6661  0.3401  0.1692
20697SOL     OW62668   0.351   6.915   9.888  0.5841  0.1058 -0.7300
20697SOL    HW162669   0.268   6.878   9.920  1.4098 -0.3472  1.0074
20697SOL    HW262670   0.328   7.002   9.857 -0.7089 -0.3815 -1.2217
20698SOL     OW62671   1.197   5.788   0.388 -0.0038 -0.0653 -0.3656
20698SOL    HW162672   1.193   5.693   0.399  0.2576  0.0846  1.1520
20698SOL    HW262673   1.275   5.815   0.437 -0.3474  0.9910 -0.3792
20699SOL     OW62674   9.930   6.281   5.541  0.5648  0.8994 -0.5279
20699SOL    HW162675   9.866   6.352   5.534  0.3566  0.7824  0.1405
20699SOL    HW262676   9.958   6.265   5.451 -1.5616 -0.1711 -1.0641
20700SOL     OW62677   4.940   7.139   0.817 -0.6385  0.4835  0.2745
20700SOL    HW162678   4.939   7.189   0.736 -0.1257 -1.9001 -1.2910
20700SOL    HW262679   4.858   7.161   0.860 -0.9756  1.7144 -0.9436
20701SOL     OW62680   4.822   7.365   8.906 -0.4748  0.1590  0.2444
20701SOL    HW162681   4.891   7.426   8.931 -0.6171  1.6645 -2.5722
20701SOL    HW262682   4.741   7.414   8.919 -0.7466 -0.2189  0.0054
20702SOL     OW62683   5.665   0.897   6.971 -0.0707 -0.7014  0.1513
20702SOL    HW162684   5.660   0.859   6.883 -0.0198  0.4580 -0.3706
20702SOL    HW262685   5.756   0.887   6.998  0.7771  1.9139 -1.3536
20703SOL     OW62686   4.615   1.613   1.564 -0.0718  0.2773 -0.2253
20703SOL    HW162687   4.552   1.573   1.624 -0.9664  2.0300  0.0833
20703SOL    HW262688   4.582   1.591   1.477 -1.2081  1.2318 -0.0664
20704SOL     OW62689   9.879   5.758   1.737  0.3934 -0.0770  0.1654
20704SOL    HW162690   9.903   5.666   1.746  2.0454  0.1995 -0.9548
20704SOL    HW262691   9.787   5.757   1.709 -0.4689 -1.2493  2.7258
20705SOL     OW62692   6.161   1.052   9.540  0.6933 -0.2059 -0.5624
20705SOL    HW162693   6.232   1.058   9.603  0.5589  0.3571 -0.4597
20705SOL    HW262694   6.183   1.116   9.473  0.5831 -0.4505 -0.8339
20706SOL     OW62695   4.732   3.658   5.886 -0.1819  0.2034  0.2314
20706SOL    HW162696   4.654   3.672   5.832 -1.2180  0.6610  1.7795
20706SOL    HW262697   4.777   3.742   5.887  0.0470  0.0880 -0.2226
20707SOL     OW62698   3.638   0.202   4.915 -0.6220 -0.3216 -0.0615
20707SOL    HW162699   3.691   0.207   4.836 -0.3018 -1.1197  0.0954
20707SOL    HW262700   3.677   0.131   4.966 -1.6870 -0.7559  0.1725
20708SOL     OW62701   1.992   2.346   6.508  0.1129 -0.7111  0.0663
20708SOL    HW162702   2.046   2.269   6.523  0.0331 -1.1855 -1.9222
20708SOL    HW262703   2.003   2.398   6.588  2.1636 -1.5708  0.4031
20709SOL     OW62704   0.992   3.929   2.931  0.2270  0.2323  0.3620
20709SOL    HW162705   1.019   3.907   2.842 -0.0169 -0.5715  0.4832
20709SOL    HW262706   1.075   3.932   2.980  0.4273  1.3471 -0.0256
20710SOL     OW62707   8.597   0.941   1.990 -0.0611  0.1862 -0.2782
20710SOL    HW162708   8.643   1.023   2.007  0.5080 -0.2732  0.4625
20710SOL    HW262709   8.567   0.913   2.077  0.0369 -0.5589 -0.4813
20711SOL     OW62710   2.932   1.276   5.594 -0.2291  0.0159  0.8467
20711SOL    HW162711   3.014   1.231   5.575 -0.3001  0.2229  0.0130
20711SOL    HW262712   2.865   1.209   5.582 -0.1589 -0.2797  1.9969
20712SOL     OW62713   2.425   5.135   2.325  0.4025  0.4275  0.2023
20712SOL    HW162714   2.440   5.095   2.239 -0.7269 -0.0348  0.2122
20712SOL    HW262715   2.512   5.135   2.366  0.6694 -0.8004 -0.3164
20713SOL     OW62716   9.761   3.183   8.587 -0.3749  0.3011  0.1590
20713SOL    HW162717   9.722   3.096   8.579 -1.2827  0.7257 -0.1261
20713SOL    HW262718   9.842   3.168   8.636 -1.1501 -0.5394  1.2545
20714SOL     OW62719   4.966   9.737   7.483  0.5844 -0.3395 -0.7473
20714SOL    HW162720   4.883   9.784   7.485  1.6753  1.6937  0.4370
20714SOL    HW262721   4.993   9.732   7.574  2.6307  0.7569 -1.2343
20715SOL     OW62722   2.659   9.746   2.879  0.7417 -0.3063  0.3370
20715SOL    HW162723   2.603   9.796   2.939 -1.8980 -0.6776 -1.6574
20715SOL    HW262724   2.695   9.811   2.819 -1.6235 -0.4957 -1.4244
20716SOL     OW62725   1.332   3.748   7.807 -0.4537  0.1747 -0.4178
20716SOL    HW162726   1.381   3.673   7.774 -0.3984  1.3606 -3.3556
20716SOL    HW262727   1.317   3.803   7.730 -0.4743  3.2245  1.5635
20717SOL     OW62728   7.634   6.230   8.398 -0.6557 -0.1899  0.4640
20717SOL    HW162729   7.708   6.253   8.454 -0.0006 -0.4005 -0.2974
20717SOL    HW262730   7.559   6.230   8.457 -0.0302 -0.1211  1.2813
20718SOL     OW62731   1.778   9.169   5.809 -0.1901  0.5272 -0.1090
20718SOL    HW162732   1.791   9.264   5.811 -1.4412  0.7100  0.1451
20718SOL    HW262733   1.783   9.147   5.716 -2.3346  1.2429 -0.4403
20719SOL     OW62734   5.788   2.040   7.958 -0.2323 -0.0784  0.5524
20719SOL    HW162735   5.864   2.076   7.910 -0.1169 -1.1596 -0.1027
20719SOL    HW262736   5.826   2.001   8.036  0.1463 -2.1785 -0.6223
20720SOL     OW62737   8.374   7.948   6.169  0.6720  0.2892  0.6269
20720SOL    HW162738   8.444   7.904   6.120  0.8880  0.4434  0.7972
20720SOL    HW262739   8.358   8.029   6.121  0.0918 -0.0911  0.1638
20721SOL     OW62740   5.498   5.872   5.603  0.3027 -0.1316  1.5045
20721SOL    HW162741   5.502   5.966   5.625  0.0855 -0.2687  2.1643
20721SOL    HW262742   5.572   5.858   5.545 -1.0952  0.9750 -0.6710
20722SOL     OW62743   2.898   0.120   1.863 -0.0954 -0.0653 -0.5729
20722SOL    HW162744   2.923   0.029   1.844  0.0720 -0.1762  0.1431
20722SOL    HW262745   2.970   0.154   1.916  0.7641  1.1033 -2.3874
20723SOL     OW62746   1.740   3.581   6.369 -0.0462  0.8236  0.0154
20723SOL    HW162747   1.724   3.505   6.313  1.2342  1.2462 -0.9796
20723SOL    HW262748   1.722   3.550   6.457 -1.0080 -0.1960 -0.5144
20724SOL     OW62749   7.134   0.886   5.340  0.0593  0.6417  0.3700
20724SOL    HW162750   7.120   0.973   5.302 -0.4494 -0.4337 -2.0818
20724SOL    HW262751   7.048   0.845   5.337  1.0060 -1.3771 -2.4228
20725SOL     OW62752   5.421   9.846   4.402  0.8510  0.4232 -0.2714
20725SOL    HW162753   5.497   9.851   4.459  0.3138  1.3889  0.4025
20725SOL    HW262754   5.429   9.922   4.344  1.4120 -0.5724 -1.5402
20726SOL     OW62755   3.208   6.694   9.199  0.0001 -0.6288  0.0863
20726SOL    HW162756   3.248   6.715   9.284 -1.0239 -3.9644  1.5768
20726SOL    HW262757   3.282   6.674   9.142  0.7589  2.5206 -0.2145
20727SOL     OW62758   0.125   5.634   5.223  0.0328  0.2969 -0.1653
20727SOL    HW162759   0.046   5.581   5.210 -0.6479  1.4665 -0.9936
20727SOL    HW262760   0.176   5.586   5.288 -0.6242 -1.2844 -0.7844
20728SOL     OW62761   1.118   6.560   4.615  0.1437  0.0706  0.0735
20728SOL    HW162762   1.042   6.596   4.661  0.3238  0.3854  0.1229
20728SOL    HW262763   1.121   6.606   4.532  1.6193  1.7601  0.9692
20729SOL     OW62764   7.736   7.616   8.999  0.0320  0.6957  0.0030
20729SOL    HW162765   7.722   7.563   9.078  0.4898  0.1945 -0.2401
20729SOL    HW262766   7.655   7.664   8.988 -0.1631  0.5182  0.5939
20730SOL     OW62767   9.745   6.218   4.309  0.7910  0.2825 -0.9120
20730SOL    HW162768   9.701   6.288   4.357 -2.6493 -0.4017 -2.7260
20730SOL    HW262769   9.798   6.264   4.244  2.0210  1.1641  0.6641
20731SOL     OW62770   3.296   3.685   7.328  0.7092  1.4909  0.2613
20731SOL    HW162771   3.214   3.677   7.280  0.1204 -0.6679  1.4387
20731SOL    HW262772   3.361   3.706   7.262 -0.5358  1.5969 -0.9750
20732SOL     OW62773   0.996   0.138   9.289  0.4029  0.1123  0.9760
20732SOL    HW162774   1.063   0.145   9.357 -1.0826 -0.2340  2.5257
20732SOL    HW262775   1.004   0.048   9.257  1.2316  0.3352  0.5062
20733SOL     OW62776   6.564   5.165   5.925 -0.0794 -0.1497 -0.5203
20733SOL    HW162777   6.586   5.234   5.987  0.9633 -0.5367 -0.4445
20733SOL    HW262778   6.491   5.201   5.874  0.4457  0.9987 -0.4771
20734SOL     OW62779   4.115   5.661   1.950  0.1928  0.2356  0.5309
20734SOL    HW162780   4.041   5.600   1.949 -0.0644  0.5209  1.3750
20734SOL    HW262781   4.105   5.710   2.032 -0.3287  2.3105 -0.6985
20735SOL     OW62782   0.422   6.626   1.697 -0.2677 -0.0298  0.1195
20735SOL    HW162783   0.499   6.668   1.736 -0.0744  0.0641 -0.3475
20735SOL    HW262784   0.421   6.538   1.733 -0.5601  0.3039  0.9583
20736SOL     OW62785   2.247   3.570   1.651 -0.2943  0.0660 -0.3240
20736SOL    HW162786   2.314   3.504   1.630 -0.1275 -0.3214  1.3493
20736SOL    HW262787   2.182   3.523   1.702 -2.2233  0.2911 -2.3865
20737SOL     OW62788   9.552   1.145   0.015  0.2279  0.3158  0.3953
20737SOL    HW162789   9.608   1.167   0.089  1.0051 -0.2221 -0.0188
20737SOL    HW262790   9.463   1.152   0.050  0.5702  0.3807  1.2906
20738SOL     OW62791   5.706   6.166   1.179  0.3532 -0.1316  0.0283
20738SOL    HW162792   5.776   6.142   1.119  1.4542 -0.4246  1.3921
20738SOL    HW262793   5.625   6.152   1.128  1.2313  3.1965 -2.6833
20739SOL     OW62794   2.148   6.362   4.445 -0.1239  0.3142  0.2592
20739SOL    HW162795   2.241   6.353   4.468  0.5993  3.2384 -1.1200
20739SOL    HW262796   2.141   6.323   4.357 -0.0229  0.8031  0.0334
20740SOL     OW62797   0.721   0.643   4.888  0.2897 -0.1165  0.4165
20740SOL    HW162798   0.709   0.569   4.948 -1.0325 -0.5415 -0.3309
20740SOL    HW262799   0.747   0.603   4.805  1.3580  0.4099  0.4911
20741SOL     OW62800   9.079   4.463   7.157  0.1070  0.1560 -0.0003
20741SOL    HW162801   9.048   4.460   7.247  0.1680  0.5764  0.0354
20741SOL    HW262802   9.151   4.527   7.158 -0.6870  1.0937 -0.5831
20742SOL     OW62803   0.327   3.287   1.130 -0.4775 -0.4215  0.3126
20742SOL    HW162804   0.422   3.292   1.123 -0.2653 -1.4292  1.9093
20742SOL    HW262805   0.295   3.356   1.072  1.2810  1.5672  1.5662
20743SOL     OW62806   2.449   2.719   1.374 -0.0853 -0.5189 -0.4870
20743SOL    HW162807   2.367   2.767   1.383 -0.4249 -1.0031 -0.9234
20743SOL    HW262808   2.516   2.786   1.366 -0.7418 -0.0710 -2.8431
20744SOL     OW62809   3.967   3.839   2.785  0.2715  0.2986  0.2587
20744SOL    HW162810   3.979   3.764   2.727 -0.2419  0.1092  0.3883
20744SOL    HW262811   4.055   3.870   2.803  0.5851 -1.0671  1.2352
20745SOL     OW62812   3.460   5.915   2.544  0.0023 -0.4998  0.1444
20745SOL    HW162813   3.369   5.914   2.515 -0.4658  0.7146  1.4301
20745SOL    HW262814   3.455   5.940   2.636  1.5792 -1.6487  0.5726
20746SOL     OW62815   3.124   2.600   7.798 -0.2834  0.2531  0.3633
20746SOL    HW162816   3.110   2.690   7.769 -1.0605  0.0439  0.0595
20746SOL    HW262817   3.054   2.550   7.756  0.2914 -0.5402  0.3296
20747SOL     OW62818   7.849   6.938   1.298  0.2793  0.1392 -0.3029
20747SOL    HW162819   7.783   6.990   1.253 -0.8071 -0.1966  0.8532
20747SOL    HW262820   7.889   6.884   1.230  0.2371  1.2568 -1.2199
20748SOL     OW62821   1.920   7.427   1.608 -0.1532  0.3665 -0.3550
20748SOL    HW162822   1.979   7.474   1.550  1.7034 -1.4022 -0.0132
20748SOL    HW262823   1.886   7.355   1.555 -0.1604  0.0031  0.1347
20749SOL     OW62824   6.583   9.049   1.579  0.4448 -0.3653 -0.8252
20749SOL    HW162825   6.620   9.084   1.498  0.0545  2.2656  0.0580
20749SOL    HW262826   6.489   9.063   1.570  0.3846 -0.2511 -0.0075
20750SOL     OW62827   0.110   3.111   1.429 -0.2917 -0.8317  0.3150
20750SOL    HW162828   0.063   3.053   1.489  0.3941 -2.0282 -0.2657
20750SOL    HW262829   0.142   3.053   1.360 -0.4061  0.3982 -0.8105
20751SOL     OW62830   5.167   9.065   4.384  0.1152 -0.6725  0.5598
20751SOL    HW162831   5.123   9.099   4.307  2.3958 -1.1237 -1.0378
20751SOL    HW262832   5.138   8.974   4.390  0.1561 -0.7189  0.0429
20752SOL     OW62833   4.349   1.648   1.949 -0.0261 -0.6435  0.7020
20752SOL    HW162834   4.391   1.730   1.976 -0.3220  0.4729 -1.9830
20752SOL    HW262835   4.286   1.629   2.019 -3.0589  3.7761 -0.4636
20753SOL     OW62836   4.719   1.455   9.957 -0.6845 -0.2430 -0.1521
20753SOL    HW162837   4.676   1.370   9.968 -0.4048 -0.4336 -0.4718
20753SOL    HW262838   4.737   1.459   9.863 -0.1734 -0.0867 -0.0485
20754SOL     OW62839   2.523   8.208   2.792 -0.0098 -0.1066 -0.3377
20754SOL    HW162840   2.545   8.228   2.882 -0.6784 -0.0364 -0.1854
20754SOL    HW262841   2.468   8.281   2.763 -0.5760 -0.5795 -0.4952
20755SOL     OW62842   4.833   0.625   3.058 -0.1605  0.0668  0.0872
20755SOL    HW162843   4.748   0.662   3.037  0.1969 -0.0977 -1.7970
20755SOL    HW262844   4.891   0.654   2.987  0.9388 -1.2406  0.3931
20756SOL     OW62845   0.100   6.752   6.818 -0.3642  0.0468  0.2996
20756SOL    HW162846   0.122   6.687   6.885 -0.8229 -0.8057 -0.3569
20756SOL    HW262847   0.163   6.822   6.832  0.6733 -0.8876  0.5199
20757SOL     OW62848   1.759   5.686   5.482 -0.3202  0.9219  0.3304
20757SOL    HW162849   1.820   5.685   5.556 -0.0708  1.2277  0.1319
20757SOL    HW262850   1.760   5.597   5.448  0.1385  0.9660  0.2286
20758SOL     OW62851   9.859   4.079   8.145  0.5168  0.0753  0.7784
20758SOL    HW162852   9.927   4.012   8.156  0.3509  0.1216  2.3265
20758SOL    HW262853   9.886   4.128   8.067  3.1129  1.0607  2.2033
20759SOL     OW62854   5.869   9.215   5.378  0.1311 -0.0991 -0.3385
20759SOL    HW162855   5.875   9.254   5.465  2.3978  1.2124 -1.0155
20759SOL    HW262856   5.950   9.241   5.334 -0.2107 -2.0689 -2.3085
20760SOL     OW62857   5.026   6.626   4.658  0.5690 -0.0056  0.0506
20760SOL    HW162858   5.025   6.721   4.665  0.4110 -0.0313  0.3609
20760SOL    HW262859   4.934   6.600   4.667  0.6083 -0.1879 -0.0578
20761SOL     OW62860   7.231   8.566   9.827  0.2430  0.3870  0.8806
20761SOL    HW162861   7.164   8.624   9.862 -1.8049 -0.4445 -1.4158
20761SOL    HW262862   7.267   8.522   9.904 -1.9392  0.7621  2.1966
20762SOL     OW62863   9.938   0.975   1.035 -0.3145  0.0180 -0.5298
20762SOL    HW162864   9.997   1.001   1.106 -0.0082  1.7250 -1.3485
20762SOL    HW262865   9.985   0.904   0.991  0.6421  0.6035 -0.4949
20763SOL     OW62866   8.178   1.860   4.341  0.2935  0.2752 -0.4982
20763SOL    HW162867   8.213   1.802   4.409  0.4498 -0.8393 -1.4826
20763SOL    HW262868   8.199   1.815   4.259  0.7106  1.9038 -1.3277
20764SOL     OW62869   2.907   2.875   7.286 -0.5837 -0.2017  0.2536
20764SOL    HW162870   2.928   2.918   7.203  1.1583  2.1128  1.7634
20764SOL    HW262871   2.816   2.846   7.276 -0.9869  1.5521 -1.8298
20765SOL     OW62872   9.508   4.014   2.268  0.0707  0.4623  0.1205
20765SOL    HW162873   9.584   4.039   2.215 -0.3466  1.0954 -0.1970
20765SOL    HW262874   9.495   4.089   2.327 -0.1720  0.2605  0.3224
20766SOL     OW62875   4.297   3.385   4.805  0.1029  0.0910  0.5212
20766SOL    HW162876   4.287   3.360   4.897  1.0458 -0.8116  0.3863
20766SOL    HW262877   4.325   3.477   4.808  0.0289  0.0975  1.1196
20767SOL     OW62878   0.028   8.906   7.372 -0.0264 -0.3769 -0.2165
20767SOL    HW162879   0.090   8.957   7.424  0.5589 -1.7424  0.4785
20767SOL    HW262880  -0.001   8.966   7.303  0.2167  1.0386  0.8801
20768SOL     OW62881   0.700   3.801   4.596 -0.0015  0.1732  0.0229
20768SOL    HW162882   0.663   3.737   4.657 -0.5939 -0.6796 -1.1834
20768SOL    HW262883   0.794   3.799   4.611  0.0040 -1.1131 -0.0867
20769SOL     OW62884   6.597   9.352   4.458 -0.2694  0.0065  0.0176
20769SOL    HW162885   6.685   9.329   4.430 -0.1765 -0.8361  0.9359
20769SOL    HW262886   6.547   9.362   4.377  0.2021 -1.4030 -0.4707
20770SOL     OW62887   3.357   2.557   4.665  0.2445 -0.1097 -0.2423
20770SOL    HW162888   3.268   2.591   4.676 -0.6707 -1.8158 -1.8176
20770SOL    HW262889   3.359   2.524   4.576  2.2010 -0.9190  0.0526
20771SOL     OW62890   0.465   1.828   9.075 -0.4982  0.1801 -0.2226
20771SOL    HW162891   0.438   1.834   8.983 -0.1111 -1.5445 -0.4838
20771SOL    HW262892   0.398   1.775   9.117  0.4563 -0.9244 -0.0346
20772SOL     OW62893   7.173   3.158   8.193 -0.2466 -0.4292  0.1786
20772SOL    HW162894   7.203   3.160   8.284  0.4830 -1.5325 -0.0190
20772SOL    HW262895   7.198   3.243   8.158 -0.7580  0.1075  1.0636
20773SOL     OW62896   5.969   0.355   8.592  0.1865  0.7634  0.0743
20773SOL    HW162897   5.987   0.311   8.675 -0.0457  0.6489  0.0661
20773SOL    HW262898   5.922   0.435   8.617 -2.1129 -0.4668 -0.0655
20774SOL     OW62899   9.133   6.078   8.460 -0.2423  0.1913 -0.0762
20774SOL    HW162900   9.192   6.134   8.510  0.9338 -0.8147 -0.2857
20774SOL    HW262901   9.079   6.138   8.409 -0.2011  1.1692  0.9962
20775SOL     OW62902   2.927   2.485   5.626 -0.2248 -0.2196 -0.1076
20775SOL    HW162903   2.934   2.573   5.664  2.1422 -0.3344 -0.1347
20775SOL    HW262904   2.968   2.492   5.540 -0.2324 -1.3043 -0.2129
20776SOL     OW62905   1.523   7.274   8.399  0.0920  0.0539 -0.0504
20776SOL    HW162906   1.460   7.312   8.337  0.3842  0.5984 -0.0216
20776SOL    HW262907   1.556   7.350   8.448 -0.4576 -0.4019  1.0800
20777SOL     OW62908   0.599   9.614   9.008  0.0118  0.3697 -0.2365
20777SOL    HW162909   0.515   9.648   8.976  0.5184  1.3805 -0.5557
20777SOL    HW262910   0.622   9.546   8.945 -0.0235  0.8918 -0.8353
20778SOL     OW62911   6.159   4.156   4.883  0.0768 -0.5756 -0.2429
20778SOL    HW162912   6.111   4.182   4.961  1.1326  0.7498  0.0052
20778SOL    HW262913   6.249   4.143   4.913  0.5612  0.2530 -1.2753
20779SOL     OW62914   8.072   1.472   2.121 -0.1520  0.1006 -0.0461
20779SOL    HW162915   7.982   1.481   2.152 -0.1229 -0.1414  0.1156
20779SOL    HW262916   8.070   1.503   2.031 -0.0733  1.6314  0.4480
20780SOL     OW62917   8.305   1.012   4.235  0.7038  0.3861 -0.0385
20780SOL    HW162918   8.364   0.986   4.305 -3.1741 -1.8151  2.8063
20780SOL    HW262919   8.257   1.086   4.270  0.5116  1.0114 -1.5479
20781SOL     OW62920   3.318   7.142   3.016  0.0731 -0.2460 -0.0495
20781SOL    HW162921   3.233   7.134   2.972  0.7462  1.4572 -1.7884
20781SOL    HW262922   3.377   7.176   2.949  1.9232 -0.4605  1.3854
20782SOL     OW62923   2.469   0.752   2.979 -0.1272 -0.2919  0.1380
20782SOL    HW162924   2.504   0.841   2.978  1.0920 -0.7414 -0.4935
20782SOL    HW262925   2.491   0.717   2.892 -0.0488 -1.3918  0.5737
20783SOL     OW62926   3.829   2.482   1.485  0.1324  0.2995 -0.5430
20783SOL    HW162927   3.826   2.555   1.422 -0.8893  0.1985 -0.6279
20783SOL    HW262928   3.909   2.435   1.463  0.9268  1.5152 -0.3511
20784SOL     OW62929   0.858   2.105   7.047 -0.5282  0.2359 -0.2045
20784SOL    HW162930   0.950   2.131   7.045 -0.5846  0.5212  0.6073
20784SOL    HW262931   0.820   2.144   6.968 -0.2457  1.2419  0.1442
20785SOL     OW62932   6.095   1.271   1.398 -0.8163  0.1097 -0.4516
20785SOL    HW162933   6.000   1.274   1.411 -0.8417  2.2145 -0.8411
20785SOL    HW262934   6.109   1.311   1.312  0.4845  0.8387  0.0735
20786SOL     OW62935   4.177   9.568   3.549 -0.3495  0.1139  0.0875
20786SOL    HW162936   4.082   9.561   3.546 -0.3968  0.1424  1.3495
20786SOL    HW262937   4.208   9.478   3.552 -0.2731  0.0629 -1.4057
20787SOL     OW62938   1.121   8.317   0.849 -0.2689 -0.4507 -0.1849
20787SOL    HW162939   1.159   8.230   0.841 -1.8709 -1.0278 -3.9250
20787SOL    HW262940   1.035   8.303   0.888 -0.8326 -0.7378 -1.4678
20788SOL     OW62941   2.526   7.602   6.613  0.3919  0.1648 -0.0170
20788SOL    HW162942   2.605   7.557   6.583 -0.0028 -0.1986 -0.5104
20788SOL    HW262943   2.508   7.667   6.545 -0.2033 -0.3030 -0.3058
20789SOL     OW62944   9.507   1.622   0.034 -0.2756 -0.2127  0.5386
20789SOL    HW162945   9.520   1.701   0.086  0.1914  0.0530  0.0274
20789SOL    HW262946   9.445   1.570   0.085 -1.2931  0.8747  0.4525
20790SOL     OW62947   1.089   5.616   4.726  0.9001 -0.6404 -0.5903
20790SOL    HW162948   1.167   5.565   4.749 -1.0401 -3.8676 -0.5687
20790SOL    HW262949   1.052   5.570   4.650 -1.3144  0.3731 -0.1877
20791SOL     OW62950   6.990   1.687   7.598  0.3578 -0.4020  0.0729
20791SOL    HW162951   7.001   1.718   7.688 -0.2091  0.5574 -0.1712
20791SOL    HW262952   7.079   1.679   7.564  0.5582 -0.3509  0.5775
20792SOL     OW62953   2.078   9.344   8.915  0.2787 -0.4653  0.1497
20792SOL    HW162954   2.161   9.381   8.885 -0.5110 -0.1470 -1.8399
20792SOL    HW262955   2.040   9.412   8.971  0.7763 -0.0779  0.0252
20793SOL     OW62956   7.038   7.168   2.657 -0.1109  0.3880 -0.3902
20793SOL    HW162957   6.943   7.164   2.665  0.0313 -0.0863  1.3625
20793SOL    HW262958   7.059   7.099   2.594 -0.8416 -0.3088  0.1046
20794SOL     OW62959   6.728   3.820   1.682  0.0454 -0.2297  0.3491
20794SOL    HW162960   6.697   3.860   1.763  0.1996 -0.0679  0.3285
20794SOL    HW262961   6.662   3.753   1.661 -0.7311  0.6623 -0.1223
20795SOL     OW62962   2.717   3.764   1.331 -0.1877  0.1843 -0.1463
20795SOL    HW162963   2.754   3.800   1.411 -0.8839  0.9710 -0.1688
20795SOL    HW262964   2.757   3.815   1.260  0.7192 -0.7622 -0.3431
20796SOL     OW62965   2.067   5.220   2.680  0.1139  0.0382  0.5546
20796SOL    HW162966   2.040   5.233   2.771 -0.3720  0.8860  0.2995
20796SOL    HW262967   2.006   5.155   2.646  0.5355 -0.5651  0.9366
20797SOL     OW62968   6.596   0.693   5.625 -0.1368  0.0859  0.3998
20797SOL    HW162969   6.530   0.706   5.556 -0.6890  0.6582  1.0104
20797SOL    HW262970   6.598   0.599   5.639  0.0563 -0.0518 -0.4605
20798SOL     OW62971   4.467   2.851   3.683 -0.4939 -0.3505 -0.4315
20798SOL    HW162972   4.462   2.756   3.691  0.3573 -0.5082 -1.4452
20798SOL    HW262973   4.551   2.874   3.723 -1.8786  0.3350  2.2873
20799SOL     OW62974   6.900   5.879   2.488 -0.4974  0.1055  0.2222
20799SOL    HW162975   6.864   5.790   2.484  0.9859 -0.6121  1.6875
20799SOL    HW262976   6.979   5.875   2.435 -1.3587  1.0866 -1.1993
20800SOL     OW62977   8.490   3.422   8.450 -0.3665 -0.4647 -0.3536
20800SOL    HW162978   8.512   3.329   8.454  0.0298 -0.3491  0.4545
20800SOL    HW262979   8.570   3.466   8.481 -0.4057  0.1608 -1.1203
20801SOL     OW62980   8.477   6.368   4.688 -0.2910  0.1468  0.2118
20801SOL    HW162981   8.387   6.348   4.664 -0.9820  0.4900  2.3438
20801SOL    HW262982   8.508   6.427   4.619 -2.1058  1.0125  0.1043
20802SOL     OW62983   1.679   9.534   8.655  0.0781  0.1758  0.3643
20802SOL    HW162984   1.644   9.590   8.724  0.4109 -0.9749  1.5076
20802SOL    HW262985   1.645   9.572   8.574 -0.2623  1.6031  1.1385
20803SOL     OW62986   9.666   6.317   9.303  0.5772 -0.3423  0.3046
20803SOL    HW162987   9.711   6.284   9.380  0.5100  1.2428  1.0469
20803SOL    HW262988   9.591   6.258   9.293  0.4378 -0.4096  1.5933
20804SOL     OW62989   6.755   2.731   4.890  0.2970  0.4836  0.1072
20804SOL    HW162990   6.846   2.709   4.873 -0.1752 -1.1990 -0.4714
20804SOL    HW262991   6.716   2.741   4.803 -0.5811 -1.2551  0.2513
20805SOL     OW62992   6.509   1.219   8.035  0.1631 -0.8149  0.1974
20805SOL    HW162993   6.591   1.170   8.032  0.1762 -1.0063  2.1045
20805SOL    HW262994   6.520   1.289   7.970  1.7515 -0.9723  0.2519
20806SOL     OW62995   0.425   2.813   4.589  0.0386  0.3771 -0.3578
20806SOL    HW162996   0.501   2.860   4.554  0.5849 -0.5857 -0.4971
20806SOL    HW262997   0.374   2.788   4.512  0.1879  0.0224 -0.3451
20807SOL     OW62998   7.007   1.372   4.435  0.2391  0.1202  0.0845
20807SOL    HW162999   7.034   1.429   4.363 -0.6192  0.8706  0.3301
20807SOL    HW263000   6.973   1.432   4.501  1.1848 -0.5453  1.2014
20808SOL     OW63001   7.135   2.606   3.232 -0.6358 -0.3004 -0.6918
20808SOL    HW163002   7.071   2.621   3.302 -0.1144 -1.5269  0.0644
20808SOL    HW263003   7.120   2.516   3.204 -0.2577 -0.0981 -1.5680
20809SOL     OW63004   4.096   7.822   5.712  0.1686 -0.2705  0.2705
20809SOL    HW163005   4.097   7.753   5.778 -1.1277  0.0142  0.6073
20809SOL    HW263006   4.182   7.863   5.720  1.3374 -2.3897 -0.5632
20810SOL     OW63007   9.885   9.797   8.835  0.0173  0.1211  0.0997
20810SOL    HW163008   9.871   9.831   8.923  0.1343  1.3823 -0.3499
20810SOL    HW263009   9.800   9.805   8.793  0.4844  1.8332 -0.6384
20811SOL     OW63010   3.142   2.319   0.345  0.4249 -0.4207 -0.4740
20811SOL    HW163011   3.088   2.359   0.413  0.6661 -1.1331  0.1483
20811SOL    HW263012   3.092   2.333   0.264 -0.9336 -1.4294  0.1329
20812SOL     OW63013   9.431   8.367   3.417  0.8521  0.1000  0.1093
20812SOL    HW163014   9.480   8.292   3.451 -0.4752  0.1608  2.2989
20812SOL    HW263015   9.469   8.443   3.461 -0.4263  0.2646  0.9610
20813SOL     OW63016   0.519   4.934   7.667 -0.3779  0.5481 -0.3843
20813SOL    HW163017   0.491   4.843   7.682 -1.8574  0.7874 -1.4209
20813SOL    HW263018   0.556   4.961   7.751 -0.9952 -0.6490  0.3174
20814SOL     OW63019   2.305   6.671   1.532  0.4026 -0.3133  0.3499
20814SOL    HW163020   2.299   6.638   1.442  0.9179  1.2446 -0.2900
20814SOL    HW263021   2.217   6.659   1.568 -0.9941  2.5973 -1.7009
20815SOL     OW63022   5.981   8.323   9.530  0.8314 -0.3614  0.6496
20815SOL    HW163023   6.037   8.384   9.482  1.2458 -0.5138  0.9376
20815SOL    HW263024   5.892   8.353   9.512  1.0533  1.2010  1.9343
20816SOL     OW63025   5.313   6.243   8.649  0.2609  0.2840  0.1102
20816SOL    HW163026   5.313   6.189   8.728 -0.8825 -0.6625 -0.5060
20816SOL    HW263027   5.322   6.181   8.577  0.0196  1.0209 -0.5710
20817SOL     OW63028   4.456   4.080   2.825 -0.0525  0.0685  0.0748
20817SOL    HW163029   4.379   4.027   2.843 -0.3448  0.7651  0.9610
20817SOL    HW263030   4.424   4.151   2.768 -0.1044  0.4415  0.5639
20818SOL     OW63031   5.387   9.426   2.573 -0.0054  0.0824 -0.0656
20818SOL    HW163032   5.344   9.371   2.639  2.0868 -0.9862  0.4868
20818SOL    HW263033   5.362   9.387   2.490  0.0711 -0.6587  0.2524
20819SOL     OW63034   6.686   6.970   5.093 -0.1171  0.0342 -0.6565
20819SOL    HW163035   6.754   7.036   5.084  1.2925 -0.9818  1.4489
20819SOL    HW263036   6.716   6.897   5.039 -0.7704  0.4315 -1.5795
20820SOL     OW63037   8.467   9.742   4.558 -0.0888 -0.0504  0.1850
20820SOL    HW163038   8.398   9.712   4.499  0.2874  0.2850 -0.4413
20820SOL    HW263039   8.495   9.826   4.521  0.8223 -0.2969  0.2833
20821SOL     OW63040   7.384   1.179   0.493  0.5279 -0.2972 -0.0086
20821SOL    HW163041   7.444   1.152   0.563  1.4698 -0.6596 -0.9410
20821SOL    HW263042   7.410   1.127   0.417 -1.8389 -1.4928 -0.1069
20822SOL     OW63043   5.610   4.424   2.475 -0.3893 -0.1206  0.2065
20822SOL    HW163044   5.644   4.381   2.553  1.0141  0.6941  0.0836
20822SOL    HW263045   5.673   4.494   2.457 -2.8122  2.3505  0.6884
20823SOL     OW63046   8.192   4.614   8.583  0.0944 -0.4582 -0.2141
20823SOL    HW163047   8.108   4.660   8.587  0.3921  0.1300 -0.6432
20823SOL    HW263048   8.199   4.571   8.668  0.7147  1.9545  1.0781
20824SOL     OW63049   3.294   9.892   6.607 -0.0179 -0.2000 -0.1620
20824SOL    HW163050   3.204   9.877   6.580  0.4032 -0.1219 -1.7198
20824SOL    HW263051   3.324   9.808   6.641  0.0145 -0.9132 -1.8423
20825SOL     OW63052   5.728   8.344   5.129  0.0601  0.0635 -0.2135
20825SOL    HW163053   5.817   8.363   5.161  0.2750  0.9586 -1.2916
20825SOL    HW263054   5.720   8.395   5.049 -0.7582 -1.4806 -1.1743
20826SOL     OW63055   3.313   6.865   4.492 -0.2398 -0.0834 -0.0328
20826SOL    HW163056   3.281   6.842   4.405 -0.7679 -2.9887  0.8057
20826SOL    HW263057   3.407   6.845   4.489 -0.2964 -0.3779  0.1037
20827SOL     OW63058   8.547   3.346   3.737 -0.0015  0.3202 -0.6094
20827SOL    HW163059   8.609   3.415   3.715 -1.1093  1.3118 -0.7048
20827SOL    HW263060   8.462   3.388   3.735 -0.5665 -0.6181  1.1073
20828SOL     OW63061   2.446   1.687   2.344  0.2891 -0.4170 -0.0978
20828SOL    HW163062   2.522   1.632   2.322 -0.4842 -1.0986 -1.1561
20828SOL    HW263063   2.390   1.683   2.267 -0.3799  0.8791  0.2875
20829SOL     OW63064   4.390   9.390   4.586 -0.4348 -0.4474  0.0061
20829SOL    HW163065   4.462   9.327   4.580 -0.9183 -0.9055 -1.3930
20829SOL    HW263066   4.432   9.472   4.612  0.2725 -1.2075  1.3791
20830SOL     OW63067   8.898   7.575   3.338 -0.3277  0.3858  0.1316
20830SOL    HW163068   8.884   7.485   3.367 -0.9948 -0.0700 -1.4982
20830SOL    HW263069   8.945   7.566   3.254 -0.1701  1.5671  0.0757
20831SOL     OW63070   6.486   7.280   8.360  0.3466  0.2986  0.1913
20831SOL    HW163071   6.408   7.225   8.359 -0.3609  1.2631  0.5218
20831SOL    HW263072   6.557   7.220   8.381 -0.4601 -0.4206  0.9548
20832SOL     OW63073   1.609   6.072   2.971 -0.7712  0.6203 -0.0575
20832SOL    HW163074   1.514   6.062   2.964 -0.9519  2.7759 -1.5553
20832SOL    HW263075   1.638   6.094   2.882  1.1247  0.0808  0.3855
20833SOL     OW63076   2.493   4.627   4.977 -0.3470  0.1155  0.1061
20833SOL    HW163077   2.584   4.656   4.983  0.2619 -1.5024 -0.7652
20833SOL    HW263078   2.482   4.566   5.050  0.7013 -3.1691 -2.2518
20834SOL     OW63079   4.825   2.251   8.418  0.5746  0.0065  0.1003
20834SOL    HW163080   4.899   2.214   8.369 -0.3056 -2.4289  0.4401
20834SOL    HW263081   4.843   2.227   8.509  0.5358  1.5233  0.5230
20835SOL     OW63082   9.074   4.475   5.668  0.3671 -0.5812  0.2808
20835SOL    HW163083   9.154   4.479   5.615  0.0865 -0.3602 -0.1306
20835SOL    HW263084   9.005   4.452   5.606 -0.1144  0.5384  0.3791
20836SOL     OW63085   8.431   8.766   9.426  0.2191  0.8193  0.0549
20836SOL    HW163086   8.520   8.746   9.455  0.0249  1.8367  1.4687
20836SOL    HW263087   8.434   8.858   9.402 -0.9077  1.4983  2.2328
20837SOL     OW63088   8.846   8.168   2.242  0.0858  0.8897 -0.2382
20837SOL    HW163089   8.930   8.203   2.271  0.9243 -0.4851 -0.9350
20837SOL    HW263090   8.787   8.185   2.316  1.4771  0.0067  1.1417
20838SOL     OW63091   0.630   4.331   2.269  0.0673 -0.1170  0.5631
20838SOL    HW163092   0.698   4.331   2.336 -0.1355 -1.4561  0.7856
20838SOL    HW263093   0.561   4.387   2.306  0.7251  0.6433  0.6562
20839SOL     OW63094   3.816   1.778   6.384  0.1509  0.0995  0.4207
20839SOL    HW163095   3.792   1.771   6.476 -1.3917  0.6806  0.0831
20839SOL    HW263096   3.858   1.694   6.364  0.8689  0.1168  1.7326
20840SOL     OW63097   3.567   1.121   5.611  0.4032 -0.0026 -0.0280
20840SOL    HW163098   3.653   1.091   5.641  0.3200  0.5542  0.7913
20840SOL    HW263099   3.504   1.066   5.659  0.2963 -0.3529 -0.5642
20841SOL     OW63100   3.252   6.722   7.118 -0.1580  0.2139 -0.7381
20841SOL    HW163101   3.331   6.673   7.142  0.6043  2.0454  0.7672
20841SOL    HW263102   3.181   6.674   7.160  0.4387 -0.1935 -0.1551
20842SOL     OW63103   8.336   0.780   7.783  0.3257  0.5164 -0.2245
20842SOL    HW163104   8.324   0.857   7.726 -0.1760  0.5616 -0.0696
20842SOL    HW263105   8.409   0.732   7.744 -0.3900  0.2253 -1.2719
20843SOL     OW63106   0.153   1.696   3.508  0.0159 -0.0408 -0.0709
20843SOL    HW163107   0.143   1.602   3.521  0.1118  0.0008  0.3027
20843SOL    HW263108   0.171   1.731   3.595  0.3147  0.2804 -0.2573
20844SOL     OW63109   9.302   9.416   8.227 -0.0787  0.5125 -0.6276
20844SOL    HW163110   9.308   9.365   8.307  1.3647 -0.4124 -1.2838
20844SOL    HW263111   9.284   9.505   8.256 -1.5299 -0.1425  0.5964
20845SOL     OW63112   6.316   9.386   7.446 -0.1233  0.1628  0.7515
20845SOL    HW163113   6.358   9.301   7.434  1.1264  0.7383  0.9194
20845SOL    HW263114   6.241   9.385   7.386  2.5978  0.7641 -3.0165
20846SOL     OW63115   2.511   5.632   9.913 -0.2121 -0.3820 -0.3205
20846SOL    HW163116   2.550   5.630  10.001 -1.8822 -2.5987  0.4681
20846SOL    HW263117   2.418   5.646   9.928 -0.2820  1.1852 -1.9173
20847SOL     OW63118   7.577   6.967   4.347  0.1399 -0.0399 -0.0604
20847SOL    HW163119   7.545   6.936   4.432 -0.0814  0.0009 -0.1281
20847SOL    HW263120   7.503   6.954   4.288  0.2219  0.1376 -0.2012
20848SOL     OW63121   7.390   8.715   0.200  0.2352 -0.3979  0.3176
20848SOL    HW163122   7.391   8.732   0.106  1.0969  0.4610  0.4732
20848SOL    HW263123   7.441   8.786   0.238  0.0745 -0.8567  1.4200
20849SOL     OW63124   0.589   9.469   5.143  0.0073  0.0794  0.0183
20849SOL    HW163125   0.603   9.472   5.048  0.3181  0.5874  0.0752
20849SOL    HW263126   0.607   9.558   5.172  0.6941 -0.2622  0.6680
20850SOL     OW63127   4.215   0.309   2.814  0.0098 -0.3433 -0.3629
20850SOL    HW163128   4.144   0.296   2.750 -2.4135 -1.5468  2.3407
20850SOL    HW263129   4.185   0.381   2.869  0.9578 -0.7947  0.7794
20851SOL     OW63130   1.957   7.954   8.324 -0.5047  0.5919 -0.4428
20851SOL    HW163131   2.038   7.908   8.347 -1.1369 -0.8450 -0.9573
20851SOL    HW263132   1.983   8.046   8.314  0.9242  0.2590  0.0257
20852SOL     OW63133   6.119   5.840   5.181 -0.2014 -0.0460 -0.8232
20852SOL    HW163134   6.205   5.863   5.215  1.0197 -1.9356 -2.4508
20852SOL    HW263135   6.069   5.922   5.185  1.3191  0.8701  1.0253
20853SOL     OW63136   2.205   0.673   6.338 -0.2090 -0.2699 -0.1250
20853SOL    HW163137   2.123   0.623   6.342 -1.2304  1.3562  0.1683
20853SOL    HW263138   2.193   0.743   6.401  1.3307  0.1537 -0.2703
20854SOL     OW63139   5.790   1.231   4.875 -0.2270  0.3824  0.2385
20854SOL    HW163140   5.708   1.185   4.858 -0.4327  1.0516 -0.6375
20854SOL    HW263141   5.764   1.310   4.921  0.0099  0.2166  0.6637
20855SOL     OW63142   3.227   9.874   1.083 -0.0540 -0.4559 -0.2367
20855SOL    HW163143   3.140   9.914   1.078  0.2461  0.0468 -1.7525
20855SOL    HW263144   3.266   9.889   0.997  1.6235 -0.4992  0.4759
20856SOL     OW63145   2.958   3.085   8.119  0.1373 -0.0268 -0.7493
20856SOL    HW163146   2.975   3.175   8.092 -1.3109  0.2329 -0.8811
20856SOL    HW263147   3.025   3.033   8.073 -0.1381  0.7867 -2.1374
20857SOL     OW63148   2.707   3.014   2.073  0.5530  0.2202  0.0872
20857SOL    HW163149   2.799   3.007   2.045  0.0217 -1.4177 -1.3831
20857SOL    HW263150   2.683   2.926   2.101 -0.9497  0.3278 -0.7725
20858SOL     OW63151   1.842   1.684   3.549 -0.0994  0.0632 -0.2622
20858SOL    HW163152   1.819   1.597   3.581  1.0641 -0.3006 -0.3710
20858SOL    HW263153   1.814   1.743   3.619 -0.2971 -0.4538  0.1055
20859SOL     OW63154   5.107   1.323   2.538  0.7377  0.3267 -0.0882
20859SOL    HW163155   5.155   1.385   2.593  0.1598 -0.5249  1.4627
20859SOL    HW263156   5.018   1.324   2.574  0.6388 -1.1329 -0.2254
20860SOL     OW63157   9.269   0.561   0.347  0.6011  0.3098  0.3989
20860SOL    HW163158   9.274   0.617   0.269  0.7745 -0.5949 -0.2716
20860SOL    HW263159   9.354   0.572   0.390 -0.3679  2.7044  1.8659
20861SOL     OW63160   5.797   8.426   4.371 -0.1569 -0.3993 -0.3252
20861SOL    HW163161   5.803   8.345   4.423  0.4193 -0.8564 -1.0995
20861SOL    HW263162   5.839   8.405   4.288 -0.3474  0.5857 -0.6811
20862SOL     OW63163   0.626   7.214   4.550 -0.7936  0.4033 -0.2034
20862SOL    HW163164   0.624   7.173   4.637 -0.1240 -1.8072 -1.1844
20862SOL    HW263165   0.604   7.306   4.568  2.2022  0.7496  2.6956
20863SOL     OW63166   2.756   8.900   2.211  0.4497  0.2650 -0.4373
20863SOL    HW163167   2.710   8.864   2.287 -1.8476  3.8667  0.1502
20863SOL    HW263168   2.743   8.835   2.142 -2.7168 -0.5151  0.6900
20864SOL     OW63169  -0.003   0.056   4.971  0.0480 -0.6351 -0.9174
20864SOL    HW163170  -0.032   0.026   4.885 -1.9047 -0.6953 -0.2996
20864SOL    HW263171   0.092   0.050   4.968  0.0215 -0.7617 -3.0137
20865SOL     OW63172   4.946   2.247   9.267 -0.0322 -0.1136 -0.6047
20865SOL    HW163173   4.966   2.290   9.184 -0.8735  0.5290 -0.4905
20865SOL    HW263174   5.029   2.246   9.315  0.2473  0.3432 -1.0767
20866SOL     OW63175   8.871   1.032   6.087 -0.2985  0.2696  0.0134
20866SOL    HW163176   8.799   0.969   6.077 -0.3232  0.5222 -1.6495
20866SOL    HW263177   8.866   1.086   6.008  0.3293  1.7488  0.9566
20867SOL     OW63178   7.873   3.251   8.099 -0.2891 -0.1353  0.1097
20867SOL    HW163179   7.917   3.316   8.044  0.0309 -1.7072 -1.5950
20867SOL    HW263180   7.883   3.284   8.188  0.7458  1.6122 -0.6024
20868SOL     OW63181   4.844   7.880   6.789 -0.1768  0.5325  0.0195
20868SOL    HW163182   4.808   7.885   6.877 -0.0031 -0.2014  0.1378
20868SOL    HW263183   4.835   7.788   6.764 -0.4258  0.7737 -0.8154
20869SOL     OW63184   5.564   1.740   8.044 -0.0109 -0.3025  0.3795
20869SOL    HW163185   5.548   1.729   8.138 -0.8323  0.4288  0.3349
20869SOL    HW263186   5.534   1.659   8.004  1.4681 -1.1257  0.8553
20870SOL     OW63187   2.784   3.006   5.492 -0.2793 -0.0085 -0.2493
20870SOL    HW163188   2.848   2.946   5.530 -1.9244 -0.4420  2.1135
20870SOL    HW263189   2.817   3.093   5.512 -0.4753 -0.2302  1.1211
20871SOL     OW63190   1.080   3.651   7.234 -0.4213  0.3629  0.0191
20871SOL    HW163191   1.097   3.664   7.141 -0.3615 -0.3401 -0.0776
20871SOL    HW263192   1.068   3.556   7.243  0.7969  0.2586  0.9087
20872SOL     OW63193   2.125   9.890   3.212  0.4903 -0.3066  0.2231
20872SOL    HW163194   2.036   9.901   3.177 -0.2814 -2.6670  1.2007
20872SOL    HW263195   2.119   9.921   3.302  0.6667 -0.3664  0.2555
20873SOL     OW63196   9.171   9.046   2.396 -0.3501 -0.5505 -0.0936
20873SOL    HW163197   9.076   9.056   2.396 -0.2820  0.1763  0.3917
20873SOL    HW263198   9.190   8.993   2.473 -0.2797  0.3237  0.5097
20874SOL     OW63199   5.092   7.356   5.027 -0.3297 -0.3739 -0.2886
20874SOL    HW163200   5.123   7.442   4.998  2.9450 -0.6833  1.7278
20874SOL    HW263201   4.997   7.360   5.020 -0.2798  3.3317 -0.4808
20875SOL     OW63202   4.409   9.563   0.672  0.4492  0.0472  0.1786
20875SOL    HW163203   4.426   9.507   0.748 -1.4257  0.2480  0.7930
20875SOL    HW263204   4.359   9.509   0.612 -1.8864  1.1569  1.0277
20876SOL     OW63205   9.377   3.346   8.614 -0.0408  0.6672  0.0007
20876SOL    HW163206   9.306   3.314   8.670 -0.5983  1.3940 -0.2727
20876SOL    HW263207   9.340   3.423   8.571  1.5402  2.1795  1.2362
20877SOL     OW63208   8.140   1.119   6.654  0.0983 -0.2108 -0.2752
20877SOL    HW163209   8.233   1.136   6.669  0.0992 -1.0585  0.8025
20877SOL    HW263210   8.107   1.198   6.612  0.8930  0.8707  1.0891
20878SOL     OW63211   9.511   7.783   3.461  0.0238 -0.0492 -0.7077
20878SOL    HW163212   9.420   7.777   3.490 -0.1212  0.4528 -1.0411
20878SOL    HW263213   9.506   7.777   3.366  0.1807  1.4367 -0.8407
20879SOL     OW63214   2.540   4.230   7.295 -0.7076 -0.0038 -0.2457
20879SOL    HW163215   2.571   4.244   7.384 -1.3519  0.0656 -0.0228
20879SOL    HW263216   2.596   4.285   7.241 -0.8385  0.5956  0.2148
20880SOL     OW63217   0.529   3.883   6.257  0.2968  0.3838  0.3375
20880SOL    HW163218   0.569   3.824   6.321  1.4435 -1.3028 -1.8422
20880SOL    HW263219   0.602   3.919   6.207 -0.3674  3.5798  1.3859
20881SOL     OW63220   6.905   3.231   8.387  0.0776 -0.2400  0.7512
20881SOL    HW163221   6.907   3.182   8.469  2.2157  1.8252  2.0493
20881SOL    HW263222   6.828   3.287   8.393  1.8134  2.1104  2.8496
20882SOL     OW63223   1.747   2.312   0.597 -0.5966 -0.2013  0.0018
20882SOL    HW163224   1.780   2.396   0.627 -0.1525  0.0995 -1.2927
20882SOL    HW263225   1.679   2.333   0.533 -0.1886 -0.8076 -0.6565
20883SOL     OW63226   9.080   0.740   8.822  0.0085  0.2769  0.1394
20883SOL    HW163227   9.119   0.788   8.749  0.5813  0.4209  0.5324
20883SOL    HW263228   9.007   0.692   8.783 -0.1746  0.9646 -0.3775
20884SOL     OW63229   2.789   3.368   4.917 -0.3129  0.4637  1.1190
20884SOL    HW163230   2.869   3.421   4.914 -0.3284  0.5609  2.2034
20884SOL    HW263231   2.761   3.362   4.825  1.7194 -0.8015  0.5253
20885SOL     OW63232   6.362   2.501   0.829  0.2368 -0.5818  0.0350
20885SOL    HW163233   6.353   2.508   0.924  0.2157  0.3433 -0.0291
20885SOL    HW263234   6.355   2.591   0.797  1.1486 -0.7780 -0.7639
20886SOL     OW63235   8.896   9.167   4.338 -0.2231 -0.0170 -0.4444
20886SOL    HW163236   8.916   9.165   4.244  1.8635 -1.7739 -0.0596
20886SOL    HW263237   8.813   9.119   4.345 -1.7327  2.2424 -1.5493
20887SOL     OW63238   1.392   5.035   2.090  0.2991  0.0181 -0.1421
20887SOL    HW163239   1.371   4.959   2.036 -1.1609 -0.3502  0.8895
20887SOL    HW263240   1.349   5.109   2.046  0.4302 -0.0095 -0.3177
20888SOL     OW63241   7.208   7.021   8.064 -0.0377  0.7299 -0.5648
20888SOL    HW163242   7.186   6.931   8.038  2.7281  0.1461 -1.2535
20888SOL    HW263243   7.185   7.074   7.987 -0.4870  0.4275 -0.6453
20889SOL     OW63244   5.966   3.682   0.431 -0.2966  0.4053 -0.4402
20889SOL    HW163245   5.948   3.631   0.510 -1.8907  1.7274  0.0926
20889SOL    HW263246   6.061   3.697   0.433 -0.2137 -0.1902  0.8276
20890SOL     OW63247   9.695   8.189   8.301 -0.0404 -0.4347  0.0126
20890SOL    HW163248   9.729   8.274   8.329 -1.6327  0.3946 -0.4774
20890SOL    HW263249   9.768   8.148   8.255  0.5564  0.9388 -0.3213
20891SOL     OW63250   4.761   0.759   9.623  0.1216 -0.0901  0.0384
20891SOL    HW163251   4.827   0.762   9.553  0.0008 -0.3721 -0.0888
20891SOL    HW263252   4.770   0.672   9.660  1.4279  0.6459  1.5898
20892SOL     OW63253   4.402   1.983   0.034  0.0603 -0.2910  0.7025
20892SOL    HW163254   4.463   1.988  -0.040  0.4691 -2.2505  0.8434
20892SOL    HW263255   4.437   1.912   0.088 -1.6870 -0.6408  1.4124
20893SOL     OW63256   4.282   5.174   9.844 -0.4053  0.5546  0.2935
20893SOL    HW163257   4.248   5.158   9.932  0.6235 -1.3331  0.3984
20893SOL    HW263258   4.326   5.259   9.851  1.6857 -0.5714  2.3056
20894SOL     OW63259   5.620   4.288   6.427  0.1297 -0.2919 -0.1845
20894SOL    HW163260   5.644   4.221   6.362  1.1873 -1.1681  1.0504
20894SOL    HW263261   5.525   4.291   6.425  0.0969 -1.2796 -0.8273
20895SOL     OW63262   9.643   6.848   1.669  0.7232 -0.1328 -0.3726
20895SOL    HW163263   9.652   6.763   1.710  1.9143 -1.0622 -2.4079
20895SOL    HW263264   9.551   6.854   1.645  0.9765 -1.7432 -1.9250
20896SOL     OW63265   1.257   9.712   1.366  0.2486  0.3686  0.4196
20896SOL    HW163266   1.305   9.656   1.305  0.3035  0.2085  0.6105
20896SOL    HW263267   1.305   9.795   1.366  0.8927 -0.0006  1.0927
20897SOL     OW63268   3.663   2.596   8.512  0.3132 -0.1932 -0.2363
20897SOL    HW163269   3.708   2.544   8.446 -0.3504 -0.4935 -0.4650
20897SOL    HW263270   3.733   2.642   8.558  0.8278 -0.4340 -0.7585
20898SOL     OW63271   9.392   6.697   2.939 -0.2349  0.1153  0.3117
20898SOL    HW163272   9.405   6.725   3.030 -1.1928  1.5324  0.0266
20898SOL    HW263273   9.330   6.625   2.945 -0.6834  0.5300  0.7503
20899SOL     OW63274   2.347   9.820   6.494  0.1103  0.5513 -0.0696
20899SOL    HW163275   2.259   9.856   6.481 -0.1990  0.0728  0.5851
20899SOL    HW263276   2.358   9.758   6.422 -0.7098 -0.4923  0.6681
20900SOL     OW63277   4.720   9.607   3.795  0.6442  0.4561 -0.1411
20900SOL    HW163278   4.624   9.609   3.787  0.6610 -1.7503 -2.0913
20900SOL    HW263279   4.750   9.681   3.743  0.0160  0.6210 -0.2773
20901SOL     OW63280   0.628   8.941   5.166  0.0143 -0.3134 -0.2039
20901SOL    HW163281   0.593   9.019   5.208  0.2470 -0.1420 -0.3306
20901SOL    HW263282   0.562   8.874   5.182 -1.4731  0.5322 -2.3088
20902SOL     OW63283   9.503   2.673   1.631  0.0187  0.1374  0.2009
20902SOL    HW163284   9.453   2.595   1.608  1.2638 -0.1768 -1.6007
20902SOL    HW263285   9.444   2.723   1.689 -1.4513 -1.2971  0.0056
20903SOL     OW63286   5.388   0.140   8.527 -0.3180 -0.1815  0.1044
20903SOL    HW163287   5.468   0.127   8.476 -0.2336 -0.1063  0.2213
20903SOL    HW263288   5.397   0.226   8.566 -0.3181 -0.2998  0.3681
20904SOL     OW63289   8.954   4.779   2.908  0.5103 -0.4284 -0.5957
20904SOL    HW163290   8.987   4.855   2.955 -0.7680  0.9429 -1.8202
20904SOL    HW263291   9.024   4.714   2.915  2.0444  1.1927 -0.3115
20905SOL     OW63292   4.731   5.696   4.880  0.1668  0.1095  0.2649
20905SOL    HW163293   4.757   5.704   4.788  2.2149  0.7529  0.8440
20905SOL    HW263294   4.732   5.786   4.912  2.6133 -0.3393  1.6598
20906SOL     OW63295   1.267   1.534   8.133 -0.1349 -0.0666 -0.1633
20906SOL    HW163296   1.343   1.476   8.124  0.6293  0.9960 -0.7412
20906SOL    HW263297   1.219   1.499   8.208  0.1737 -1.5892 -0.6528
20907SOL     OW63298   3.444   1.639   3.382 -0.3770  0.5322 -0.5708
20907SOL    HW163299   3.466   1.725   3.417 -0.7040  0.3853  0.0096
20907SOL    HW263300   3.405   1.657   3.296 -0.2013  0.9422 -0.5661
20908SOL     OW63301   4.559   1.478   4.405  0.0975  0.6239  0.0841
20908SOL    HW163302   4.582   1.474   4.497  0.0556 -0.8847  0.0474
20908SOL    HW263303   4.468   1.449   4.402  0.1743  0.4212 -0.4487
20909SOL     OW63304   5.979   9.523   2.166 -0.0161  0.5093 -0.3666
20909SOL    HW163305   5.946   9.476   2.243 -0.0755  0.6878 -0.2821
20909SOL    HW263306   5.944   9.612   2.176 -0.5403  0.3685 -0.9258
20910SOL     OW63307   3.938   2.805   3.409  0.3822  0.5290 -0.0686
20910SOL    HW163308   3.860   2.841   3.452  0.2463  1.0073 -0.6949
20910SOL    HW263309   3.904   2.759   3.333  0.6823  0.4063 -0.1263
20911SOL     OW63310   3.181   4.677   9.450  0.2070  0.6490  0.1047
20911SOL    HW163311   3.198   4.771   9.440 -1.3398  0.8567 -0.9231
20911SOL    HW263312   3.158   4.647   9.362 -2.2486 -0.0411  0.8802
20912SOL     OW63313   1.381   6.279   3.282 -0.4829  0.1428 -0.3180
20912SOL    HW163314   1.346   6.302   3.196 -0.0342 -0.8735 -0.7832
20912SOL    HW263315   1.314   6.224   3.322 -0.3688 -0.0063 -0.3289
20913SOL     OW63316   0.508   4.118   8.346  0.2562  0.5497  0.2007
20913SOL    HW163317   0.534   4.041   8.295  0.6550  0.0279  1.1492
20913SOL    HW263318   0.588   4.144   8.392  0.3406  2.0592 -0.7444
20914SOL     OW63319   6.820   3.256   2.187  0.5848 -0.3959 -0.2079
20914SOL    HW163320   6.769   3.332   2.159 -0.4051 -0.3625  1.5356
20914SOL    HW263321   6.904   3.292   2.216  1.4311 -0.3803 -2.4852
20915SOL     OW63322   0.866   5.038   5.514 -0.0840  0.6443 -0.1545
20915SOL    HW163323   0.945   5.091   5.524  0.0183  0.5847 -0.6247
20915SOL    HW263324   0.815   5.084   5.448  0.1230  0.0235 -0.7593
20916SOL     OW63325   1.678   2.022   6.312  0.2833  0.0758 -0.4181
20916SOL    HW163326   1.637   2.105   6.335 -1.2525 -0.5707 -0.6918
20916SOL    HW263327   1.683   1.974   6.395  1.1252  0.4086 -0.2687
20917SOL     OW63328   7.536   1.188   9.614 -0.1197 -0.3143 -0.2918
20917SOL    HW163329   7.609   1.135   9.581  0.6097 -0.5308  1.5399
20917SOL    HW263330   7.556   1.277   9.585  1.2098 -0.2738  0.6323
20918SOL     OW63331   6.946   4.370   9.445  0.3082 -0.2395  0.9217
20918SOL    HW163332   6.951   4.443   9.383  0.1807 -0.4525  0.6592
20918SOL    HW263333   7.006   4.304   9.410  0.1504 -0.4063  0.9621
20919SOL     OW63334   7.740   3.577   4.077  0.1798 -0.3636  0.7679
20919SOL    HW163335   7.801   3.518   4.032  1.5249  0.5560  1.3229
20919SOL    HW263336   7.736   3.543   4.167 -1.8016 -1.6638  0.2373
20920SOL     OW63337   0.900   9.957   4.195 -0.3835  0.4437  0.4225
20920SOL    HW163338   0.932   9.869   4.174  0.9266  1.1786 -0.8891
20920SOL    HW263339   0.888   9.999   4.109 -1.7891  1.2831  1.0021
20921SOL     OW63340   1.639   0.571   3.390 -0.3975  0.7325  0.3057
20921SOL    HW163341   1.714   0.627   3.367  0.1931 -0.2279 -0.1740
20921SOL    HW263342   1.613   0.531   3.307  0.5428 -1.3178  0.9442
20922SOL     OW63343   0.564   5.703   8.750  0.0381  0.0420 -0.4032
20922SOL    HW163344   0.471   5.719   8.764 -0.2245 -0.4295 -1.5147
20922SOL    HW263345   0.587   5.757   8.673  0.4823 -0.4800 -0.6433
20923SOL     OW63346   2.994   9.435   4.920  0.4410 -0.3122  0.2494
20923SOL    HW163347   2.955   9.512   4.960 -0.0335 -0.5546  0.2652
20923SOL    HW263348   3.006   9.374   4.993 -2.4394 -1.6052 -0.2108
20924SOL     OW63349   3.118   5.167   5.429  0.0520  0.1891  0.0783
20924SOL    HW163350   3.024   5.158   5.441 -0.1501  0.5867 -1.0691
20924SOL    HW263351   3.148   5.215   5.506 -0.5601 -0.5389  0.7896
20925SOL     OW63352   6.888   2.903   2.121 -0.4211  0.0554  0.0328
20925SOL    HW163353   6.894   2.876   2.029  0.4283 -0.4822  0.2277
20925SOL    HW263354   6.824   2.974   2.122 -0.0495  0.4202 -1.0571
20926SOL     OW63355   5.922   8.910   5.400 -0.4296 -0.5116 -0.2161
20926SOL    HW163356   5.863   8.984   5.412 -2.0190 -1.6994 -0.3351
20926SOL    HW263357   6.008   8.943   5.428 -1.0640  1.3637 -0.3149
20927SOL     OW63358   1.896   8.576   6.983 -0.3530  0.2188  0.1942
20927SOL    HW163359   1.848   8.500   6.949  2.2970 -0.1002 -3.3535
20927SOL    HW263360   1.946   8.541   7.056 -0.5366 -1.0349 -0.2428
20928SOL     OW63361   6.793   2.757   7.148 -0.1924  0.2152 -0.5473
20928SOL    HW163362   6.809   2.756   7.054 -0.0905 -1.7819 -0.5482
20928SOL    HW263363   6.871   2.718   7.186 -0.6621  0.0533  0.2747
20929SOL     OW63364   5.938   4.769   3.899 -0.3113  0.6889 -0.5846
20929SOL    HW163365   5.957   4.847   3.951  2.2734 -1.7862  2.6306
20929SOL    HW263366   5.993   4.779   3.821 -0.5480  2.3527 -0.5748
20930SOL     OW63367   1.407   7.587   5.536 -0.7054 -0.0628  0.5308
20930SOL    HW163368   1.436   7.522   5.473 -0.2959  0.2522  0.3875
20930SOL    HW263369   1.318   7.561   5.559 -0.2427 -1.1613  1.1289
20931SOL     OW63370   0.853   2.060   8.768 -0.5902 -0.3469  0.4588
20931SOL    HW163371   0.901   1.987   8.728 -1.4795 -0.3958 -0.5568
20931SOL    HW263372   0.768   2.059   8.725  0.0390  2.5507 -1.0931
20932SOL     OW63373   7.289   7.806   5.142  0.1582 -0.3536  0.0268
20932SOL    HW163374   7.240   7.869   5.194  0.0634  0.5923 -1.1810
20932SOL    HW263375   7.356   7.858   5.097 -0.5453 -0.9116 -1.7577
20933SOL     OW63376   4.745   3.341   4.830 -0.1573  0.2149 -0.3308
20933SOL    HW163377   4.794   3.314   4.752 -0.3046  0.3788 -0.4801
20933SOL    HW263378   4.810   3.385   4.884 -0.1834  0.6060 -0.6169
20934SOL     OW63379   1.090   9.694   3.756  0.7203  0.1543  0.0482
20934SOL    HW163380   1.158   9.718   3.694  0.6898 -0.6080 -0.2940
20934SOL    HW263381   1.026   9.644   3.704  0.2958  0.1910  0.5218
20935SOL     OW63382   9.653  -0.001   6.660 -0.0549  0.0898 -0.8021
20935SOL    HW163383   9.668   0.010   6.566  2.9748  0.3044 -0.3658
20935SOL    HW263384   9.558   0.012   6.670 -0.6429 -0.9047 -3.9180
20936SOL     OW63385   2.729   7.957   5.770  0.5820  0.3489  0.0463
20936SOL    HW163386   2.772   7.900   5.706  0.6418 -0.8895  1.1435
20936SOL    HW263387   2.725   7.904   5.850  1.1336  2.0840  1.2786
20937SOL     OW63388   6.605   8.690   1.056 -0.3038  0.1592 -0.1498
20937SOL    HW163389   6.558   8.735   0.986 -0.3709 -0.5559 -0.5802
20937SOL    HW263390   6.661   8.627   1.011  2.3850  2.0784  0.2297
20938SOL     OW63391   5.723   3.071   2.985  0.4873  0.0207 -0.0633
20938SOL    HW163392   5.689   3.141   2.930  0.8154  0.6929  0.5530
20938SOL    HW263393   5.801   3.110   3.026 -1.7187  0.9513  3.7562
20939SOL     OW63394   3.125   8.875   9.427 -0.1673  0.0348  0.0829
20939SOL    HW163395   3.035   8.906   9.431 -0.1555  0.4790 -1.9956
20939SOL    HW263396   3.175   8.951   9.396  0.6824 -0.6391 -0.2326
20940SOL     OW63397   5.379   3.908   1.698 -0.1442 -0.0554  0.3693
20940SOL    HW163398   5.419   3.945   1.620  0.7447 -0.5904  0.5524
20940SOL    HW263399   5.450   3.905   1.762 -1.3878  2.6156  2.0360
20941SOL     OW63400   6.273   4.955   9.078 -0.5876  0.7360 -0.0787
20941SOL    HW163401   6.292   5.002   9.160  1.1121 -0.1256  0.0665
20941SOL    HW263402   6.195   4.998   9.043 -0.3585  2.2213  1.1412
20942SOL     OW63403   4.117   1.247   4.665  0.7964 -0.2540 -0.2359
20942SOL    HW163404   4.117   1.322   4.605  0.0331  0.0630  0.1441
20942SOL    HW263405   4.087   1.283   4.748 -1.1009 -1.2707 -0.4384
20943SOL     OW63406   6.238   8.606   3.081 -0.4389  0.1114  0.1400
20943SOL    HW163407   6.193   8.541   3.026  0.7878  0.8836 -1.9098
20943SOL    HW263408   6.294   8.554   3.138 -1.6243 -0.7216  0.5887
20944SOL     OW63409   3.234   0.099   9.826  0.3032  0.5896  0.3104
20944SOL    HW163410   3.278   0.183   9.838 -0.4961  0.9533  0.7770
20944SOL    HW263411   3.197   0.079   9.912  1.0973 -0.6053  0.4053
20945SOL     OW63412   1.959   5.478   1.427  0.1051 -0.1160 -0.3506
20945SOL    HW163413   1.890   5.517   1.481 -1.5396 -0.6771 -1.9605
20945SOL    HW263414   1.988   5.402   1.477 -0.2082  0.3081  0.4949
20946SOL     OW63415   7.600   7.543   9.258 -0.0800  0.3202  0.5747
20946SOL    HW163416   7.507   7.547   9.278 -0.4303 -0.4534 -0.8188
20946SOL    HW263417   7.640   7.604   9.320 -1.7117  2.0596  0.0229
20947SOL     OW63418   9.872   3.066   8.102  0.4694  0.4302  0.5389
20947SOL    HW163419   9.825   3.148   8.117 -1.0850 -0.4567  0.8585
20947SOL    HW263420   9.802   3.003   8.082  1.4633 -1.1194  1.7213
20948SOL     OW63421   1.059   5.013   6.093 -0.1301 -0.3583 -0.2682
20948SOL    HW163422   1.049   4.919   6.107  0.8248 -0.2631  1.2385
20948SOL    HW263423   0.970   5.044   6.076 -0.4426 -1.5290 -0.8737
20949SOL     OW63424   8.604   4.319   0.994  0.1947  0.1582  0.0400
20949SOL    HW163425   8.672   4.382   0.970  0.9964 -0.1750  1.3392
20949SOL    HW263426   8.648   4.255   1.049 -1.0162 -0.5017  0.2948
20950SOL     OW63427   6.608   3.545   8.568  0.3688 -0.4526  0.3299
20950SOL    HW163428   6.703   3.561   8.571  0.3470 -0.3248  0.3322
20950SOL    HW263429   6.600   3.449   8.575  0.4846 -0.4428  0.6248
20951SOL     OW63430   8.298   3.214   3.403 -0.3489  0.1127 -0.4234
20951SOL    HW163431   8.339   3.299   3.387  0.4254 -0.2612 -0.4890
20951SOL    HW263432   8.225   3.210   3.341 -0.1365  0.5529 -0.7080
20952SOL     OW63433   8.553   7.294   9.727 -0.0416  0.0189  0.0200
20952SOL    HW163434   8.611   7.220   9.710  3.2916  2.4725 -0.5468
20952SOL    HW263435   8.504   7.305   9.645  1.9027  0.3516 -1.1680
20953SOL     OW63436   8.129   4.366   3.290 -0.2283  0.3816  0.0783
20953SOL    HW163437   8.112   4.332   3.202  0.0217 -1.3910  0.6729
20953SOL    HW263438   8.070   4.441   3.299 -1.3632 -0.3408 -1.0551
20954SOL     OW63439   2.176   6.671   2.428 -0.5002  0.2050  0.1873
20954SOL    HW163440   2.258   6.646   2.471 -0.8824  0.2202  0.9596
20954SOL    HW263441   2.132   6.727   2.493 -0.6532  1.0581 -0.6298
20955SOL     OW63442   5.829   2.350   5.278 -0.0139  0.0352  0.7237
20955SOL    HW163443   5.910   2.300   5.274 -0.5950 -0.8748 -0.2843
20955SOL    HW263444   5.777   2.317   5.204 -0.9920  1.1288  0.8986
20956SOL     OW63445   6.676   5.834   5.149  0.6337 -0.0954  0.2756
20956SOL    HW163446   6.665   5.774   5.223  3.6123  0.1345  1.0195
20956SOL    HW263447   6.668   5.778   5.071 -2.4002 -0.3632  0.6470
20957SOL     OW63448   4.996   2.758   4.016  0.0067  0.2528 -0.2581
20957SOL    HW163449   4.907   2.738   4.046  0.4222 -2.3999 -0.5859
20957SOL    HW263450   4.996   2.853   4.003 -3.3463  0.1536 -2.0255
20958SOL     OW63451   1.057   2.302   5.826 -0.5888 -0.1516 -0.8569
20958SOL    HW163452   0.994   2.270   5.891  0.2657 -2.8637 -1.2122
20958SOL    HW263453   1.011   2.293   5.742 -0.1913 -1.0231 -1.0012
20959SOL     OW63454   8.761   6.375   6.247 -0.5495 -0.0870 -0.2204
20959SOL    HW163455   8.705   6.395   6.171 -1.3480 -1.5127 -0.0409
20959SOL    HW263456   8.700   6.375   6.321  0.2912  1.7055  0.5300
20960SOL     OW63457   0.936   7.041   5.210  0.4079  0.2863  0.1301
20960SOL    HW163458   0.919   7.057   5.303 -1.4505  0.0119 -0.1284
20960SOL    HW263459   0.951   6.947   5.204  0.6182  0.3166  0.1426
20961SOL     OW63460   2.802   9.488   8.413 -0.0403  0.0074  0.5167
20961SOL    HW163461   2.897   9.493   8.428 -0.2856 -1.1109  2.9349
20961SOL    HW263462   2.766   9.463   8.498 -2.5062  0.1650 -0.4109
20962SOL     OW63463   7.055   0.869   1.241 -0.4655 -0.8150  0.1941
20962SOL    HW163464   6.995   0.794   1.238  1.1025 -2.2016  1.5990
20962SOL    HW263465   7.025   0.921   1.316 -0.4290 -1.0327  0.3589
20963SOL     OW63466   3.219   2.112   1.011 -0.4562  0.1420 -0.2802
20963SOL    HW163467   3.295   2.145   0.963  0.7134 -2.1320 -0.1273
20963SOL    HW263468   3.173   2.057   0.948 -0.5349 -0.5426  0.3634
20964SOL     OW63469   3.892   6.513   2.120  0.3206 -0.1434  0.2001
20964SOL    HW163470   3.845   6.467   2.051 -1.8890  0.0332  1.4849
20964SOL    HW263471   3.889   6.454   2.196  1.5238  0.2093  0.5455
20965SOL     OW63472   7.723   9.263   1.546 -0.0798 -0.0984  0.1685
20965SOL    HW163473   7.712   9.281   1.639  0.7048 -0.4207  0.3383
20965SOL    HW263474   7.636   9.272   1.509 -0.4036  0.0208  0.9381
20966SOL     OW63475   8.972   8.298   5.447  0.0662  0.1035  0.1928
20966SOL    HW163476   8.880   8.273   5.462  0.5963 -1.3714  1.2475
20966SOL    HW263477   9.012   8.221   5.407  0.7116  0.9719 -0.8719
20967SOL     OW63478   9.022   3.319   2.084 -0.4699 -0.1525  0.7421
20967SOL    HW163479   8.935   3.346   2.112 -1.7556 -0.4874 -2.4112
20967SOL    HW263480   9.032   3.230   2.118 -2.0836 -0.6935 -0.0955
20968SOL     OW63481   3.543   6.937   1.171 -0.1281  0.6780 -0.2292
20968SOL    HW163482   3.547   6.842   1.157 -1.8994  0.4908  0.2784
20968SOL    HW263483   3.589   6.951   1.254  0.9518  0.4119 -0.7583
20969SOL     OW63484   4.300   1.436   8.321 -0.2997  0.2188 -0.1397
20969SOL    HW163485   4.393   1.443   8.300 -0.0795 -2.0470 -0.1691
20969SOL    HW263486   4.262   1.518   8.290  1.4895  0.6682 -1.2806
20970SOL     OW63487   6.259   7.168   2.801 -0.2140  0.7342  0.8356
20970SOL    HW163488   6.175   7.128   2.820  0.0465  0.6020  1.7369
20970SOL    HW263489   6.302   7.108   2.741  0.4110 -0.6806  2.6063
20971SOL     OW63490   5.455   5.616   4.940  0.5068  0.0190 -0.1424
20971SOL    HW163491   5.413   5.634   4.856  1.5689  1.3004 -0.4405
20971SOL    HW263492   5.383   5.603   5.001 -0.2884 -0.1882 -1.1056
20972SOL     OW63493   8.666   9.556   4.583  0.4611 -0.0415  0.6828
20972SOL    HW163494   8.608   9.629   4.563  1.3973  0.2536 -1.1455
20972SOL    HW263495   8.708   9.580   4.666  1.5200  2.0287 -0.3762
20973SOL     OW63496   9.019   2.564   9.720  0.2047 -0.0113 -0.0394
20973SOL    HW163497   9.101   2.611   9.737 -0.1719  0.4134  0.6347
20973SOL    HW263498   8.976   2.617   9.653 -0.2067  0.6179  0.6997
20974SOL     OW63499   3.723   2.347   9.488  0.6017  0.0320 -0.2094
20974SOL    HW163500   3.702   2.429   9.532 -0.1102  0.3640 -1.1219
20974SOL    HW263501   3.776   2.298   9.551  1.5663  1.4419  0.1148
20975SOL     OW63502   9.958   7.659   3.404 -0.6853 -0.0532  0.4330
20975SOL    HW163503   9.957   7.566   3.428  2.4819 -0.2057  0.4341
20975SOL    HW263504   9.952   7.659   3.308  1.9279 -0.5272  0.2002
20976SOL     OW63505   1.409   7.079   2.110 -0.0035  0.5384 -0.1895
20976SOL    HW163506   1.486   7.078   2.167  1.5722 -1.0840 -2.1506
20976SOL    HW263507   1.374   7.167   2.117  1.4257  1.0235  1.5641
20977SOL     OW63508   1.409   6.777   8.867 -0.5415  0.4082 -0.6266
20977SOL    HW163509   1.505   6.770   8.873 -0.6166  0.7986  1.4111
20977SOL    HW263510   1.395   6.839   8.795  0.6970 -0.2359 -1.4658
20978SOL     OW63511   8.620   1.951   6.420  0.0723  0.0825 -0.0860
20978SOL    HW163512   8.539   1.995   6.445 -0.1066 -0.9933  1.3712
20978SOL    HW263513   8.604   1.858   6.440  1.6191 -0.1577  0.1338
20979SOL     OW63514   2.852   4.852   7.051 -0.2137  0.1626 -0.1257
20979SOL    HW163515   2.835   4.925   7.110  0.5412  0.3348 -0.1061
20979SOL    HW263516   2.807   4.777   7.091 -1.3010  0.6869 -0.3413
20980SOL     OW63517   0.003   0.017   2.945 -0.3966 -0.1004  0.1910
20980SOL    HW163518   0.054   0.097   2.937  0.2361 -0.5410 -0.3590
20980SOL    HW263519  -0.006   0.003   3.039  1.0328 -0.3270  0.3206
20981SOL     OW63520   4.226   0.498   4.153 -0.0135 -0.4706  0.4724
20981SOL    HW163521   4.279   0.552   4.095  0.2841  0.7166  1.8090
20981SOL    HW263522   4.203   0.555   4.226 -0.0791 -2.0134  1.7242
20982SOL     OW63523   7.939   6.857   9.882  0.1323 -0.0181  0.3980
20982SOL    HW163524   7.948   6.765   9.906  1.3871 -0.1836 -0.6271
20982SOL    HW263525   7.952   6.905   9.965  3.7227 -0.6049  0.3002
20983SOL     OW63526   0.257   2.231   4.481  0.4479  0.1693 -0.0995
20983SOL    HW163527   0.333   2.289   4.473 -0.7336  1.7510 -0.2278
20983SOL    HW263528   0.248   2.192   4.394  2.3366 -1.7189  0.4468
20984SOL     OW63529   2.974   2.478   7.486  0.8255 -0.2969  0.4090
20984SOL    HW163530   3.066   2.502   7.471  0.8462  0.0431  1.0773
20984SOL    HW263531   2.964   2.479   7.581 -0.5728  2.3352  0.3031
20985SOL     OW63532   0.419   9.636   4.477 -0.2731 -0.6464  0.2300
20985SOL    HW163533   0.363   9.588   4.416 -0.5420  0.4249 -0.4014
20985SOL    HW263534   0.433   9.721   4.435  1.3340 -0.6663  0.6580
20986SOL     OW63535   7.029   6.816   3.162  0.0535 -0.1303  0.4846
20986SOL    HW163536   7.056   6.766   3.085 -1.3456  0.8848 -0.7120
20986SOL    HW263537   6.942   6.783   3.182 -0.3455  0.8784  0.4816
20987SOL     OW63538   7.090   8.136   7.466 -0.3733  0.4786  0.3151
20987SOL    HW163539   7.180   8.168   7.474  0.6237 -2.0752  0.1648
20987SOL    HW263540   7.052   8.149   7.553  0.1672  1.4687  0.4181
20988SOL     OW63541   0.343   6.925   0.620  0.4037  0.6705  0.5610
20988SOL    HW163542   0.412   6.991   0.611  0.3212  0.7511  0.5089
20988SOL    HW263543   0.338   6.907   0.714  0.6102  0.5408  0.5471
20989SOL     OW63544   2.307   9.087   0.102 -0.4320  0.2207  0.6471
20989SOL    HW163545   2.338   9.001   0.128 -0.0281  0.8715  2.4457
20989SOL    HW263546   2.305   9.138   0.183 -1.9091  1.5299 -0.1496
20990SOL     OW63547   4.562   6.564   7.830  0.0435  0.3511 -0.2075
20990SOL    HW163548   4.654   6.547   7.852 -0.2550 -1.2856 -0.0589
20990SOL    HW263549   4.550   6.521   7.745 -0.6817  0.1767 -0.0221
20991SOL     OW63550   1.656   6.641   3.583 -0.1240 -0.0328 -0.1072
20991SOL    HW163551   1.629   6.679   3.500 -0.2067 -2.2919 -1.2046
20991SOL    HW263552   1.714   6.706   3.622 -2.2360  2.2659 -0.5905
20992SOL     OW63553   7.978   5.860   0.354  0.2206  0.0529 -0.2803
20992SOL    HW163554   8.030   5.921   0.406  0.4211 -1.4723  1.4241
20992SOL    HW263555   7.912   5.914   0.311  1.7930  1.7361 -0.6866
20993SOL     OW63556   8.853   5.803   7.651  0.1073  0.2578  0.3177
20993SOL    HW163557   8.782   5.771   7.595  1.1323 -1.1234 -0.2378
20993SOL    HW263558   8.815   5.806   7.739 -0.6736 -0.3438  0.0137
20994SOL     OW63559   7.013   4.621   8.375  0.0280 -0.1417 -0.5119
20994SOL    HW163560   6.975   4.690   8.321 -1.0679 -0.4699 -0.2087
20994SOL    HW263561   7.086   4.587   8.325  1.7855  2.4600  0.1164
20995SOL     OW63562   5.952   4.736   7.195  0.2962 -0.3270  0.2345
20995SOL    HW163563   5.965   4.781   7.111  0.2080  1.4043  1.0865
20995SOL    HW263564   5.863   4.761   7.221  0.1366 -1.2725  0.6072
20996SOL     OW63565   0.249   2.254   1.582 -0.8188 -0.3739  0.3779
20996SOL    HW163566   0.290   2.339   1.599 -1.3061  0.3378 -1.6821
20996SOL    HW263567   0.237   2.252   1.487 -1.1224 -2.6307  0.4179
20997SOL     OW63568   2.279   9.519   7.861 -0.8096 -0.0730  0.4625
20997SOL    HW163569   2.228   9.530   7.781 -1.2272 -1.7380  0.4694
20997SOL    HW263570   2.238   9.445   7.906  0.9459 -0.7648  0.9974
20998SOL     OW63571   9.067   0.704   2.255 -0.4347  0.2545 -0.2594
20998SOL    HW163572   9.046   0.667   2.341  0.8889  0.1258  0.0263
20998SOL    HW263573   8.982   0.711   2.211 -1.0125 -0.7141  0.6404
20999SOL     OW63574   9.262   4.957   2.778 -0.4250  0.2253  0.1471
20999SOL    HW163575   9.328   5.003   2.830  1.0817 -2.0894  0.4109
20999SOL    HW263576   9.183   4.957   2.833  0.9815 -1.7364  2.3624
21000SOL     OW63577   2.558   4.673   1.033 -0.8462 -0.1163 -0.3036
21000SOL    HW163578   2.632   4.682   0.973  1.1514  1.1551  2.1600
21000SOL    HW263579   2.510   4.755   1.024 -0.2034  0.3284  0.2249
21001SOL     OW63580   6.111   6.102   7.943 -0.1271  0.1502 -0.0991
21001SOL    HW163581   6.126   6.132   8.033 -0.2598  2.0362 -0.6708
21001SOL    HW263582   6.019   6.121   7.925  0.1816  0.8608 -1.0054
21002SOL     OW63583   7.509   1.110   2.268 -0.2192  0.4288 -0.4545
21002SOL    HW163584   7.557   1.029   2.285  0.1762  0.8736  0.6071
21002SOL    HW263585   7.437   1.083   2.210 -1.6786 -1.2309  1.9133
21003SOL     OW63586   6.027   3.930   5.988 -0.5683 -0.7307  0.1019
21003SOL    HW163587   6.009   3.980   6.068 -0.4247 -0.1497 -0.2199
21003SOL    HW263588   6.075   3.854   6.017  0.2863 -0.0640  0.4703
21004SOL     OW63589   5.339   1.431   0.107 -0.2797 -0.1575  0.0159
21004SOL    HW163590   5.362   1.397   0.194  0.4366  0.1674 -0.0431
21004SOL    HW263591   5.386   1.514   0.101  0.0518 -0.3994 -0.8688
21005SOL     OW63592   6.579   5.405   7.021 -0.4666  0.2185 -0.3254
21005SOL    HW163593   6.569   5.312   7.042 -1.5044  0.1918 -0.8631
21005SOL    HW263594   6.615   5.444   7.101 -0.9705 -0.4729  0.2553
21006SOL     OW63595   1.578   5.243   5.358 -0.2422 -0.1211  0.1370
21006SOL    HW163596   1.486   5.218   5.359 -0.6579  1.1720 -1.4327
21006SOL    HW263597   1.616   5.199   5.434 -2.3529  0.1047  1.3994
21007SOL     OW63598   5.230   6.086   8.119 -0.3271  0.0409 -0.4959
21007SOL    HW163599   5.158   6.127   8.167 -0.6006 -1.0223  0.0327
21007SOL    HW263600   5.270   6.158   8.070 -0.4762  1.0233  0.7813
21008SOL     OW63601   4.114   0.159   1.263 -0.1691  0.0665  0.1012
21008SOL    HW163602   4.087   0.067   1.260  2.0158 -0.6239  0.1618
21008SOL    HW263603   4.111   0.181   1.356  1.3197 -0.6319  0.3466
21009SOL     OW63604   5.533   6.274   0.930  0.0725 -0.5659 -0.5417
21009SOL    HW163605   5.456   6.247   0.979 -0.3537 -1.1029 -1.4806
21009SOL    HW263606   5.588   6.319   0.995 -0.9046 -0.3904  0.1924
21010SOL     OW63607   3.373   4.441   2.421 -0.0878  0.6233  0.3626
21010SOL    HW163608   3.319   4.490   2.359  2.4116  1.9356 -0.9612
21010SOL    HW263609   3.441   4.504   2.447  1.1745 -1.1038  1.4382
21011SOL     OW63610   3.434   5.602   2.641 -0.3980  0.2444  0.4568
21011SOL    HW163611   3.442   5.627   2.549  0.6509  1.4229  0.8363
21011SOL    HW263612   3.451   5.508   2.642  3.3654  0.7656 -0.1853
21012SOL     OW63613   8.587   4.056   5.721 -0.2588 -0.2970 -0.0112
21012SOL    HW163614   8.629   4.064   5.635  0.4433 -1.7871  0.1551
21012SOL    HW263615   8.494   4.046   5.700  0.1095 -2.8920 -0.8149
21013SOL     OW63616   0.597   4.024   4.256 -0.4361  0.0639  0.0535
21013SOL    HW163617   0.548   4.095   4.299 -0.8806 -0.0831 -0.2046
21013SOL    HW263618   0.677   4.067   4.225 -0.6156  0.4142  0.0613
21014SOL     OW63619   6.624   7.645   5.864 -0.5987 -0.0822 -0.0173
21014SOL    HW163620   6.609   7.551   5.862  0.3215 -0.4032  3.1698
21014SOL    HW263621   6.537   7.684   5.857 -1.1869 -1.2513  0.5463
21015SOL     OW63622   7.130   4.898   4.042 -0.0770 -0.0575  0.0124
21015SOL    HW163623   7.133   4.969   3.979 -0.3024  0.2227  0.3129
21015SOL    HW263624   7.212   4.850   4.030  0.8357  1.2206  0.9435
21016SOL     OW63625   3.468   2.673   8.084 -0.5047  0.0257 -0.5528
21016SOL    HW163626   3.395   2.705   8.136 -0.5878 -1.8391  0.5769
21016SOL    HW263627   3.427   2.643   8.002 -0.6978  0.8150 -0.7576
21017SOL     OW63628   9.905   5.010   1.903 -0.0690 -0.1184 -0.8644
21017SOL    HW163629   9.960   5.072   1.950  0.0462 -0.9603  0.1451
21017SOL    HW263630   9.935   4.924   1.932 -1.4715 -0.6105 -0.7986
21018SOL     OW63631   9.045   2.371   5.397 -0.2782 -0.2249  0.1526
21018SOL    HW163632   8.971   2.390   5.338 -0.8520  0.0777  0.9472
21018SOL    HW263633   9.010   2.306   5.458 -0.6194  1.4834  1.8785
21019SOL     OW63634   1.808   2.484   5.198 -0.1413 -0.0408 -0.7560
21019SOL    HW163635   1.886   2.536   5.221  0.0697 -0.4485 -0.5338
21019SOL    HW263636   1.755   2.483   5.277 -0.2536  0.0287 -0.8307
21020SOL     OW63637   6.019   8.687   9.182 -0.3345 -0.9762  0.4334
21020SOL    HW163638   6.059   8.713   9.099 -0.8988 -1.1782  0.0846
21020SOL    HW263639   5.927   8.672   9.159 -0.2632 -2.1586  0.8497
21021SOL     OW63640   1.570   7.569   4.872 -1.0252 -0.5289  0.1405
21021SOL    HW163641   1.638   7.582   4.806 -0.2217 -1.0176  0.8617
21021SOL    HW263642   1.520   7.651   4.870 -1.1201 -0.5869 -1.1767
21022SOL     OW63643   2.253   0.087   1.523  0.3401 -0.2442  0.1764
21022SOL    HW163644   2.214   0.017   1.575 -0.5517 -0.0003 -0.1480
21022SOL    HW263645   2.339   0.102   1.563 -0.7050  0.6353  2.2232
21023SOL     OW63646   7.595   5.836   3.022 -0.2412  0.0532  0.1800
21023SOL    HW163647   7.623   5.827   3.113 -1.4140 -0.9491  0.4817
21023SOL    HW263648   7.570   5.928   3.013  0.1599  0.2255  0.7779
21024SOL     OW63649   9.391   4.634   2.060  0.0488  0.6059 -0.0112
21024SOL    HW163650   9.432   4.715   2.090  0.4687  0.7557 -0.9919
21024SOL    HW263651   9.310   4.662   2.017 -0.0997  0.4510  0.1596
21025SOL     OW63652   7.188   1.495   9.688  0.3180 -0.6282  0.3111
21025SOL    HW163653   7.250   1.454   9.628 -1.8658 -0.4243 -2.2781
21025SOL    HW263654   7.145   1.563   9.636 -1.6694 -0.3916  2.1044
21026SOL     OW63655   6.189   9.712   9.831  0.4840  0.5394 -0.0905
21026SOL    HW163656   6.195   9.709   9.736  0.3676  2.2422 -0.1913
21026SOL    HW263657   6.277   9.736   9.861  0.7243 -0.7497  0.3126
21027SOL     OW63658   7.361   1.473   0.952  0.1063  0.4616  0.1382
21027SOL    HW163659   7.381   1.474   0.858  1.5310  0.4240  0.4202
21027SOL    HW263660   7.446   1.461   0.994 -0.7057 -1.4702  1.3785
21028SOL     OW63661   8.330   7.843   8.381 -0.5131 -0.7152 -0.0085
21028SOL    HW163662   8.311   7.901   8.455 -0.8311 -0.3904 -0.3424
21028SOL    HW263663   8.386   7.774   8.418 -0.1516 -0.2103  0.3951
21029SOL     OW63664   2.756   1.035   3.258 -0.1160 -0.7359 -0.0655
21029SOL    HW163665   2.724   0.946   3.244 -2.2759  0.1188 -0.8802
21029SOL    HW263666   2.755   1.075   3.171  0.0658  0.3415  0.4093
21030SOL     OW63667   5.482   3.655   6.339 -0.1922 -0.5799 -0.0394
21030SOL    HW163668   5.449   3.708   6.266  0.7590 -0.0871 -0.1335
21030SOL    HW263669   5.410   3.596   6.360 -0.9331  0.0980 -0.5730
21031SOL     OW63670   0.488   9.848   3.124 -0.0834 -0.5118  0.8792
21031SOL    HW163671   0.578   9.842   3.154  0.7654 -1.5560 -1.6440
21031SOL    HW263672   0.485   9.928   3.072 -1.0235  0.2560  2.0495
21032SOL     OW63673   6.107   6.364   6.568  0.9495  0.4494 -0.4522
21032SOL    HW163674   6.050   6.306   6.517 -0.6895 -0.1084  1.8776
21032SOL    HW263675   6.187   6.370   6.516  0.5752 -2.6283 -1.5813
21033SOL     OW63676   2.922   1.361   5.064 -0.0446  0.3150 -0.0341
21033SOL    HW163677   2.960   1.448   5.066  1.6580 -0.3989  1.5072
21033SOL    HW263678   2.987   1.305   5.107 -1.4722 -1.5591 -0.1707
21034SOL     OW63679   5.652   9.658   8.685  0.1890 -0.0479 -0.2312
21034SOL    HW163680   5.618   9.739   8.648 -0.1004  0.8301  1.7784
21034SOL    HW263681   5.606   9.588   8.638  0.3586  0.9378 -1.9205
21035SOL     OW63682   6.837   5.710   3.442  0.4321  0.6675  0.0881
21035SOL    HW163683   6.912   5.755   3.480 -0.1926  1.3752  0.5053
21035SOL    HW263684   6.849   5.716   3.348  1.8869 -0.9088  0.1225
21036SOL     OW63685   4.218   4.814   6.934 -0.2105  0.1775 -0.1150
21036SOL    HW163686   4.232   4.791   6.842 -1.8300  1.1536 -0.6543
21036SOL    HW263687   4.306   4.827   6.969  0.5527 -2.3534 -0.9055
21037SOL     OW63688   6.298   8.154   9.742  0.2846 -0.1561 -0.1124
21037SOL    HW163689   6.213   8.119   9.768 -0.5027  0.4884 -1.7273
21037SOL    HW263690   6.319   8.111   9.659 -0.5075  2.7058 -1.9361
21038SOL     OW63691   2.092   8.393   7.817  0.1452 -0.0633 -0.5797
21038SOL    HW163692   2.111   8.318   7.761 -1.4748 -0.0328 -1.2122
21038SOL    HW263693   2.088   8.357   7.905  0.7426 -0.4695 -0.7160
21039SOL     OW63694   5.515   0.535   5.828  0.5777  0.8571  0.3738
21039SOL    HW163695   5.521   0.608   5.890  0.1848 -0.2257  1.7215
21039SOL    HW263696   5.424   0.506   5.833  0.8411 -0.0389  0.2073
21040SOL     OW63697   2.702   9.189   1.230  0.4396 -0.1244 -0.0448
21040SOL    HW163698   2.715   9.268   1.178  0.1992  1.1472  1.7281
21040SOL    HW263699   2.607   9.182   1.240  0.3512 -1.5749 -1.4934
21041SOL     OW63700   8.853   1.560   6.723 -0.6829 -0.5574  0.3775
21041SOL    HW163701   8.769   1.519   6.743 -0.8694  0.3454  1.5752
21041SOL    HW263702   8.857   1.636   6.781  0.5379 -0.0284 -0.3509
21042SOL     OW63703   4.399   4.044   3.587  0.3673 -0.6354 -0.3189
21042SOL    HW163704   4.310   4.070   3.564  0.7393 -0.8727 -2.1306
21042SOL    HW263705   4.389   3.999   3.671 -0.6072  3.0567  1.7730
21043SOL     OW63706   4.786   6.002   9.257 -0.1841 -0.0276 -0.0782
21043SOL    HW163707   4.754   5.921   9.298 -1.6744  0.5142 -0.1128
21043SOL    HW263708   4.813   5.975   9.170  0.1468 -0.6377  0.2016
21044SOL     OW63709   0.389   7.941   1.426 -0.6008 -0.4610 -0.6890
21044SOL    HW163710   0.312   7.960   1.373 -1.2781  0.2750  0.5028
21044SOL    HW263711   0.355   7.892   1.501 -0.0897  0.6477  0.3163
21045SOL     OW63712   8.303   4.116   7.733  0.2090 -0.5631  0.1589
21045SOL    HW163713   8.306   4.206   7.702  2.3994 -0.4251  0.5520
21045SOL    HW263714   8.309   4.123   7.828 -0.1268 -1.1150  0.2248
21046SOL     OW63715   6.194   5.400   0.331  0.0336  0.5411  0.1842
21046SOL    HW163716   6.174   5.486   0.367  0.0412  0.8752 -0.5787
21046SOL    HW263717   6.221   5.418   0.241  1.1615 -0.1505  0.3684
21047SOL     OW63718   7.878   2.791   9.815 -0.1980  0.0157  0.0545
21047SOL    HW163719   7.895   2.884   9.797 -3.6277  0.1859 -3.9743
21047SOL    HW263720   7.951   2.745   9.773  0.0985  0.8505 -0.3841
21048SOL     OW63721   8.411   4.545   7.848  0.3168  0.2861  0.3286
21048SOL    HW163722   8.473   4.499   7.904  0.2858  0.4967  0.5386
21048SOL    HW263723   8.466   4.598   7.790  0.3757 -0.4908 -0.3400
21049SOL     OW63724   8.163   0.011   1.802  0.6908 -0.3843  0.0072
21049SOL    HW163725   8.085  -0.043   1.788  1.5814 -1.2136 -2.1426
21049SOL    HW263726   8.137   0.073   1.871 -2.3264  0.2625 -1.5401
21050SOL     OW63727   3.410   0.944   5.009 -0.2340  0.3507 -0.5954
21050SOL    HW163728   3.370   1.012   5.064  0.7115  0.5891 -0.1859
21050SOL    HW263729   3.438   0.991   4.930 -1.2368  0.0815 -1.1238
21051SOL     OW63730   8.152   7.401   2.697 -0.1369  0.2459  0.4509
21051SOL    HW163731   8.090   7.474   2.698  0.3443  0.6895 -0.7107
21051SOL    HW263732   8.182   7.393   2.787 -2.2201 -0.2788  1.1455
21052SOL     OW63733   9.015   5.458   9.088 -0.7894 -0.0580  0.0336
21052SOL    HW163734   9.075   5.495   9.023 -1.3298  0.7945  0.0067
21052SOL    HW263735   8.968   5.389   9.040 -0.8329  0.2278 -0.3404
21053SOL     OW63736   9.729   4.304   1.042  0.2041 -0.4370  0.0396
21053SOL    HW163737   9.799   4.251   1.004  1.0023 -0.6149  1.6516
21053SOL    HW263738   9.772   4.351   1.114 -0.5411  2.1981 -1.1345
21054SOL     OW63739   1.080   7.633   6.548  0.1991 -0.1340 -0.0706
21054SOL    HW163740   1.082   7.680   6.631 -0.1267  0.7044 -0.5251
21054SOL    HW263741   0.990   7.642   6.517  0.2893 -0.5401 -0.4644
21055SOL     OW63742   5.659   4.962   3.500  0.0429 -0.1636 -0.0730
21055SOL    HW163743   5.707   5.043   3.481 -0.7664  0.0985 -1.1127
21055SOL    HW263744   5.669   4.950   3.594  0.5096  0.9383  0.0380
21056SOL     OW63745   8.639   2.967   3.932 -0.2027  0.2021 -0.3226
21056SOL    HW163746   8.721   2.927   3.904  1.3714  2.8209  0.1735
21056SOL    HW263747   8.582   2.962   3.856  0.1635 -2.2068 -0.4950
21057SOL     OW63748   3.572   8.377   9.881  0.5831  0.1464  0.4925
21057SOL    HW163749   3.660   8.406   9.855  0.8271 -0.7742  0.2786
21057SOL    HW263750   3.559   8.295   9.834 -0.9312  0.9181 -0.5345
21058SOL     OW63751   5.885   4.035   8.327 -0.2372  0.4429  0.3932
21058SOL    HW163752   5.919   4.082   8.403 -0.1840  1.1521 -0.0568
21058SOL    HW263753   5.790   4.042   8.335 -0.2238  1.0513  0.0764
21059SOL     OW63754   9.202   6.403   7.765 -0.3646  0.1261  0.1628
21059SOL    HW163755   9.237   6.315   7.757 -0.2042  0.0202  1.7183
21059SOL    HW263756   9.131   6.407   7.701  0.9146 -0.4433 -1.3320
21060SOL     OW63757   4.589   1.493   7.648  0.1297 -0.4798 -0.2040
21060SOL    HW163758   4.670   1.474   7.697  0.3259 -0.4191 -0.5014
21060SOL    HW263759   4.522   1.442   7.693  0.1795  0.0922  0.5379
21061SOL     OW63760   5.580   6.176   2.047 -0.2072  0.4908 -0.6170
21061SOL    HW163761   5.526   6.107   2.008  0.8477  0.3715 -1.9903
21061SOL    HW263762   5.559   6.254   1.996  2.6444 -0.0882 -3.0172
21062SOL     OW63763   3.068   7.680   6.819  0.1575  0.5288 -0.1412
21062SOL    HW163764   3.079   7.585   6.809  0.8335  0.6389 -0.5524
21062SOL    HW263765   3.058   7.694   6.913  3.9743  0.3797  0.4493
21063SOL     OW63766   9.216   4.130   5.931  0.0941 -0.0572 -0.1265
21063SOL    HW163767   9.128   4.168   5.937  0.1713 -0.0031  0.9886
21063SOL    HW263768   9.246   4.128   6.022  1.3350  0.1346 -0.5237
21064SOL     OW63769   9.718   6.386   5.135  0.5546  0.4457 -0.2712
21064SOL    HW163770   9.686   6.422   5.052 -0.7175 -0.1743 -0.0680
21064SOL    HW263771   9.776   6.454   5.169 -1.5076  2.1968 -0.0592
21065SOL     OW63772   1.528   4.962   2.549  0.1787  0.4363 -0.8907
21065SOL    HW163773   1.470   4.887   2.537  0.9929 -0.2622 -0.5876
21065SOL    HW263774   1.499   5.026   2.485 -2.0155  0.8067  0.3741
21066SOL     OW63775   4.594   7.301   8.554  0.6361  0.3746 -0.2750
21066SOL    HW163776   4.520   7.290   8.615  1.5207 -2.0376  0.4847
21066SOL    HW263777   4.553   7.303   8.468 -0.4136  0.3983  0.1998
21067SOL     OW63778   0.679   7.406   6.521  0.2812 -0.5396  0.1734
21067SOL    HW163779   0.735   7.358   6.582 -0.8047 -1.7340  0.2614
21067SOL    HW263780   0.590   7.392   6.553 -0.0620  2.1080  0.5720
21068SOL     OW63781   5.452   2.506   6.136  0.3041 -0.1963 -0.0217
21068SOL    HW163782   5.519   2.451   6.095  1.7323  0.2968  1.5381
21068SOL    HW263783   5.406   2.547   6.062  2.1539 -0.0390 -1.1422
21069SOL     OW63784   2.979   7.782   4.983 -0.2836  0.0614  0.4566
21069SOL    HW163785   3.022   7.708   4.940  2.6328  1.0162  1.4633
21069SOL    HW263786   2.989   7.764   5.076  0.8157  1.8325  0.7263
21070SOL     OW63787   3.076   5.825   3.209  0.7755 -0.5912  0.3342
21070SOL    HW163788   3.039   5.738   3.223 -0.7014 -0.0883 -0.3069
21070SOL    HW263789   3.076   5.836   3.114  0.7797  0.1885  0.4219
21071SOL     OW63790   5.581   6.363   2.515 -0.2280 -0.3313  0.3178
21071SOL    HW163791   5.570   6.282   2.464 -0.1210  1.0181 -1.9998
21071SOL    HW263792   5.658   6.405   2.476 -1.0630  1.5088  0.5650
21072SOL     OW63793   6.423   3.169   7.424  0.3419  0.6695 -0.3120
21072SOL    HW163794   6.474   3.211   7.355  1.3855 -0.0496 -0.0096
21072SOL    HW263795   6.434   3.226   7.501  1.7769 -0.1191  0.1050
21073SOL     OW63796   7.945   9.386   4.390 -0.6380  0.2831  0.1008
21073SOL    HW163797   8.029   9.414   4.425 -1.5445  2.0062  1.0108
21073SOL    HW263798   7.886   9.460   4.405 -2.8586 -1.6154  1.4126
21074SOL     OW63799   3.617   9.797   7.980 -0.4292 -0.1539 -0.1552
21074SOL    HW163800   3.605   9.808   7.885 -0.1273  1.6316 -0.0257
21074SOL    HW263801   3.557   9.860   8.019 -0.2198 -0.5605  0.8308
21075SOL     OW63802   3.240   1.184   7.262 -0.0600  0.1476  0.1309
21075SOL    HW163803   3.169   1.122   7.244  1.5092 -1.3092 -1.4156
21075SOL    HW263804   3.302   1.135   7.315  1.4940  0.0947 -1.6212
21076SOL     OW63805   6.308   2.201   1.042 -0.9023  0.2349  0.1207
21076SOL    HW163806   6.337   2.186   0.952 -2.1167  1.0709 -0.4309
21076SOL    HW263807   6.215   2.180   1.041 -1.2794  1.7633  0.7973
21077SOL     OW63808   9.228   2.119   6.242  0.1008  0.2088  0.2227
21077SOL    HW163809   9.177   2.042   6.268  1.2497 -0.7005 -0.1040
21077SOL    HW263810   9.190   2.146   6.158  0.2178 -0.5349 -0.0819
21078SOL     OW63811   6.991   7.607   9.259  0.0233 -0.4527  1.0577
21078SOL    HW163812   6.918   7.668   9.253  2.4994  2.7394  0.8180
21078SOL    HW263813   7.019   7.593   9.169  3.0244  3.0003  1.2089
21079SOL     OW63814   2.924   6.039   8.482  0.2917  0.1638  0.3433
21079SOL    HW163815   3.013   6.066   8.505  0.3331 -0.3702  0.8400
21079SOL    HW263816   2.894   6.104   8.419  1.2983 -0.0571 -0.3730
21080SOL     OW63817   4.604   8.374   5.772 -0.4830  0.7275 -0.0374
21080SOL    HW163818   4.632   8.465   5.775  1.5270  0.2231 -1.5004
21080SOL    HW263819   4.671   8.326   5.821 -1.6507  0.0291  0.9399
21081SOL     OW63820   8.772   0.615   6.049  0.0774  0.4961 -0.0658
21081SOL    HW163821   8.853   0.665   6.059  1.6282 -2.0682  1.1991
21081SOL    HW263822   8.773   0.587   5.957  0.1574  1.1844 -0.2820
21082SOL     OW63823   2.449   3.192   3.187  0.0424  0.5520 -0.4223
21082SOL    HW163824   2.487   3.176   3.274 -0.0378  2.1296 -0.0808
21082SOL    HW263825   2.521   3.174   3.126 -0.5135 -2.9367 -0.2903
21083SOL     OW63826   6.052   8.098   5.072  0.0838  0.1942  0.1618
21083SOL    HW163827   5.995   8.022   5.064  0.6109 -0.2045  0.1053
21083SOL    HW263828   6.109   8.094   4.995 -0.9748  1.5909 -0.7466
21084SOL     OW63829   3.066   0.070   2.462 -0.6791  0.3549  0.2542
21084SOL    HW163830   3.039   0.009   2.531  0.3724  1.5770  1.8128
21084SOL    HW263831   2.992   0.130   2.454 -1.2257 -0.3928 -0.4376
21085SOL     OW63832   6.518   5.802   3.002 -0.4171 -0.9599 -0.2579
21085SOL    HW163833   6.497   5.849   2.922 -2.7715 -0.2348  0.7234
21085SOL    HW263834   6.454   5.731   3.005 -0.9693 -0.4264  1.4133
21086SOL     OW63835   1.614   2.266   1.434  0.0038  0.1856  0.6315
21086SOL    HW163836   1.704   2.235   1.421  0.0295 -0.1489  1.5593
21086SOL    HW263837   1.617   2.316   1.515 -0.6940 -0.0096  0.7837
21087SOL     OW63838   8.377   6.726   1.129  0.1485  0.3839 -0.1194
21087SOL    HW163839   8.469   6.739   1.150  0.0225  0.4593  0.3860
21087SOL    HW263840   8.356   6.639   1.165  0.3471 -0.1876 -1.3290
21088SOL     OW63841   0.806   0.092   2.854 -0.1963  0.3401  0.1676
21088SOL    HW163842   0.781   0.123   2.767 -3.5532 -2.4583 -0.1067
21088SOL    HW263843   0.897   0.065   2.845 -0.1706  1.0200 -2.2266
21089SOL     OW63844   1.604   2.238   4.620 -0.6707 -0.3962 -0.0954
21089SOL    HW163845   1.535   2.283   4.668 -0.5696  0.5774 -0.8301
21089SOL    HW263846   1.614   2.288   4.539 -0.1633 -1.4203 -0.6956
21090SOL     OW63847   0.146   9.251   8.573  0.0683 -0.2007  0.2840
21090SOL    HW163848   0.063   9.273   8.615 -0.0015  0.0242  0.0357
21090SOL    HW263849   0.213   9.281   8.634 -0.0302  0.2795  0.1627
21091SOL     OW63850   4.462   2.327   6.118  0.9148  0.3588 -0.5642
21091SOL    HW163851   4.482   2.407   6.166 -1.1272 -0.8037  2.5777
21091SOL    HW263852   4.512   2.259   6.163 -0.0345 -0.6102 -0.9290
21092SOL     OW63853   4.607   5.714   8.285  0.3105  0.2393  0.0705
21092SOL    HW163854   4.666   5.745   8.354  0.9203  1.9996 -1.1714
21092SOL    HW263855   4.651   5.738   8.204 -1.7003  0.8204 -0.9106
21093SOL     OW63856   4.228   7.419   4.549 -0.3679  0.5073  0.1405
21093SOL    HW163857   4.144   7.442   4.589 -0.4602  0.2188  0.1184
21093SOL    HW263858   4.220   7.447   4.458  0.1176  1.8490  0.4880
21094SOL     OW63859   7.455   6.201   5.372  0.0954  0.4508  0.0631
21094SOL    HW163860   7.414   6.159   5.447 -0.6392  1.1537  0.0634
21094SOL    HW263861   7.390   6.194   5.302 -0.4047  2.3160  0.2956
21095SOL     OW63862   3.371   9.072   7.048  0.1950  0.2286  0.0609
21095SOL    HW163863   3.328   9.135   6.991 -0.8233  0.1709  0.7417
21095SOL    HW263864   3.462   9.102   7.053  0.7856 -0.7597 -2.9713
21096SOL     OW63865   8.244   9.951   3.038 -0.4067  1.3350 -0.3430
21096SOL    HW163866   8.167   9.977   2.987  1.0042  2.0681 -2.2298
21096SOL    HW263867   8.276   9.873   2.992  0.6733  1.7722 -0.3361
21097SOL     OW63868   0.500   1.029   9.101  0.2280  0.1729 -0.1681
21097SOL    HW163869   0.449   1.094   9.053 -1.0000 -0.9906 -0.5236
21097SOL    HW263870   0.441   0.953   9.108  2.0565 -1.4224 -1.0218
21098SOL     OW63871   6.392   9.449   8.139  0.1804 -0.1432  0.1195
21098SOL    HW163872   6.396   9.354   8.149  1.7289  0.0111  1.1273
21098SOL    HW263873   6.481   9.480   8.156 -0.5164  1.5949  0.8901
21099SOL     OW63874   6.783   9.919   8.392 -0.3568 -0.1929  0.1855
21099SOL    HW163875   6.752  10.006   8.367  0.1297  0.1598  0.7807
21099SOL    HW263876   6.840   9.935   8.467  1.3363 -0.7990 -0.9185
21100SOL     OW63877   7.207   5.354   2.573 -0.0127  0.2072 -0.6082
21100SOL    HW163878   7.271   5.348   2.502 -0.0239 -0.5613 -0.5544
21100SOL    HW263879   7.162   5.270   2.573  0.1704  0.0881  0.4828
21101SOL     OW63880   1.999   5.393   9.121 -0.1238  0.2399  0.3151
21101SOL    HW163881   2.073   5.452   9.130 -1.8520  2.6357 -0.3476
21101SOL    HW263882   1.938   5.419   9.189 -1.6146  0.3204 -1.0021
21102SOL     OW63883   0.821   2.091   7.895  0.4010  0.2624  0.3060
21102SOL    HW163884   0.845   2.169   7.844  1.1949 -0.7346 -0.9129
21102SOL    HW263885   0.764   2.041   7.837 -0.0269 -0.1189  1.0408
21103SOL     OW63886   0.141   1.798   3.770 -0.0139 -0.0478 -0.5649
21103SOL    HW163887   0.173   1.884   3.797  0.0271 -0.1850 -0.1709
21103SOL    HW263888   0.141   1.746   3.850 -0.1333 -0.3871 -0.7824
21104SOL     OW63889   3.317   6.813   5.118 -0.0788  0.5052  0.6722
21104SOL    HW163890   3.357   6.873   5.054 -1.3541  1.5190  0.7873
21104SOL    HW263891   3.236   6.857   5.144 -1.6172 -1.7855 -0.0214
21105SOL     OW63892   5.753   2.770   9.290  0.1787  0.1484 -0.7834
21105SOL    HW163893   5.809   2.826   9.344  0.2982 -0.3200 -0.4255
21105SOL    HW263894   5.693   2.729   9.352 -1.6450  1.8587 -1.3146
21106SOL     OW63895   9.736   9.332   4.285  0.3148 -0.0014 -0.1471
21106SOL    HW163896   9.653   9.305   4.245  0.8562  0.7995 -1.9147
21106SOL    HW263897   9.718   9.334   4.379 -1.0679 -1.8502 -0.3104
21107SOL     OW63898   6.652   2.402   2.715  0.0298 -0.7914  0.1900
21107SOL    HW163899   6.683   2.467   2.652 -1.5660  1.4480  1.5476
21107SOL    HW263900   6.710   2.413   2.791 -1.4849  0.6173  1.2188
21108SOL     OW63901   2.665   1.898   6.539 -0.0676 -0.4967  0.0621
21108SOL    HW163902   2.601   1.956   6.498 -0.8760 -1.6796 -0.4244
21108SOL    HW263903   2.747   1.917   6.493 -0.0738  0.9402  0.6021
21109SOL     OW63904   0.881   5.432   6.738  0.5911 -0.6541 -0.4123
21109SOL    HW163905   0.964   5.468   6.706  0.5274 -2.1450 -2.3996
21109SOL    HW263906   0.861   5.360   6.679 -3.4514  1.1976 -1.7039
21110SOL     OW63907   2.950   1.356   1.919 -0.2513 -0.2739  0.4183
21110SOL    HW163908   2.971   1.341   2.012 -0.1892 -2.2545  0.1397
21110SOL    HW263909   2.998   1.287   1.873 -2.0723 -0.7333 -0.8726
21111SOL     OW63910   9.232   8.830   0.594  0.0499 -0.2323 -0.0949
21111SOL    HW163911   9.275   8.875   0.666 -0.0013 -0.3573  0.0159
21111SOL    HW263912   9.139   8.830   0.618  0.1273 -0.9613  0.2208
21112SOL     OW63913   4.549   5.055   8.434  0.4942 -0.1021 -0.4953
21112SOL    HW163914   4.564   5.150   8.432  0.7746 -0.1571 -1.1754
21112SOL    HW263915   4.538   5.031   8.343  1.2426 -0.8603 -0.3937
21113SOL     OW63916   1.616   1.625   2.333  0.1806  0.1029 -0.9993
21113SOL    HW163917   1.664   1.706   2.315  1.0260 -0.1748 -0.0816
21113SOL    HW263918   1.536   1.654   2.377  0.1400  0.4805 -1.3158
21114SOL     OW63919   9.601   4.998   4.537 -0.1010  0.2854  0.2237
21114SOL    HW163920   9.692   4.972   4.523  0.5830  2.1151  0.9053
21114SOL    HW263921   9.566   4.931   4.595  1.0490 -0.0722  0.5347
21115SOL     OW63922   0.216   1.687   6.675 -0.0180  0.2825  0.0229
21115SOL    HW163923   0.206   1.760   6.736 -0.4989 -0.1911  0.5164
21115SOL    HW263924   0.132   1.681   6.629  0.1513  0.2788 -0.2933
21116SOL     OW63925   6.118   5.713   0.837  0.2552  0.6729 -0.2524
21116SOL    HW163926   6.034   5.671   0.819 -0.3666  1.6977  0.2278
21116SOL    HW263927   6.182   5.642   0.828 -0.7039 -0.2385 -0.0794
21117SOL     OW63928   7.013   0.757   9.724 -0.5968 -0.0803 -0.4803
21117SOL    HW163929   7.040   0.846   9.746 -1.8792  0.4404 -0.9164
21117SOL    HW263930   7.054   0.702   9.790 -0.7948  0.9688  0.5433
21118SOL     OW63931   0.874   1.505   4.311  0.2264 -0.7542  0.4312
21118SOL    HW163932   0.908   1.545   4.391 -1.7329  0.9506  0.4972
21118SOL    HW263933   0.842   1.419   4.339 -1.8116  0.4040  1.8930
21119SOL     OW63934   8.712   8.068   8.902 -0.0220 -0.1995 -0.0318
21119SOL    HW163935   8.795   8.022   8.885 -0.2478 -1.0455  1.0470
21119SOL    HW263936   8.658   8.047   8.826  0.9857  1.0007 -1.1379
21120SOL     OW63937   2.680   1.868   8.438 -0.2872 -0.9648  0.2733
21120SOL    HW163938   2.743   1.833   8.501  0.1338 -1.0646 -0.1975
21120SOL    HW263939   2.681   1.962   8.454  0.3997 -0.8995 -0.0975
21121SOL     OW63940   4.578   2.837   1.674 -0.4943  0.2940 -0.4031
21121SOL    HW163941   4.628   2.825   1.755 -0.7211  0.5670 -0.2199
21121SOL    HW263942   4.581   2.931   1.658 -2.9173  0.6892  0.9120
21122SOL     OW63943   2.309   7.487   9.640 -0.4446 -0.5077  0.3442
21122SOL    HW163944   2.243   7.426   9.674 -1.1611 -0.8758 -1.5618
21122SOL    HW263945   2.291   7.491   9.546  0.6908  1.3332  0.1633
21123SOL     OW63946   2.608   4.079   5.577  0.4448  0.3141  0.1544
21123SOL    HW163947   2.692   4.122   5.564  0.1629  0.8883  0.1910
21123SOL    HW263948   2.625   4.012   5.643  0.9473  0.1902 -0.0940
21124SOL     OW63949   4.773   9.251   1.860 -0.1663  0.1463  0.0251
21124SOL    HW163950   4.845   9.295   1.906 -1.5105  3.2923 -0.6249
21124SOL    HW263951   4.735   9.318   1.804 -1.7525 -2.2080 -1.9587
21125SOL     OW63952   8.069   5.095   5.441  0.4742 -0.2579  0.2380
21125SOL    HW163953   7.993   5.147   5.467  1.0349  0.2164  0.9674
21125SOL    HW263954   8.074   5.105   5.346  0.3627  0.7363  0.3268
21126SOL     OW63955   1.203   8.955   8.611  0.7978 -0.7440  0.5805
21126SOL    HW163956   1.226   9.047   8.623 -0.2608 -0.3625 -0.2056
21126SOL    HW263957   1.285   8.908   8.625  1.6011  0.4041 -0.0863
21127SOL     OW63958   2.843   9.469   9.731  0.3820 -0.6426 -0.0141
21127SOL    HW163959   2.824   9.386   9.775 -1.5770 -0.5107 -0.5168
21127SOL    HW263960   2.803   9.536   9.787  1.2161 -0.0907 -0.0509
21128SOL     OW63961   6.449   9.492   0.742  0.2747  0.2178 -0.6045
21128SOL    HW163962   6.375   9.476   0.684 -0.1306 -0.6631  0.1305
21128SOL    HW263963   6.489   9.573   0.709 -1.0720  0.7671 -0.9398
21129SOL     OW63964   4.848   6.307   3.287  0.1158  0.3001 -0.4054
21129SOL    HW163965   4.928   6.291   3.336 -0.1466 -0.6577 -0.2766
21129SOL    HW263966   4.824   6.221   3.251 -1.4436  0.3399  0.4562
21130SOL     OW63967   0.826   8.510   5.887  0.1707  0.2085 -0.2038
21130SOL    HW163968   0.786   8.479   5.805 -0.8252 -1.3896  0.8242
21130SOL    HW263969   0.913   8.468   5.888 -0.1743 -0.5187 -0.0302
21131SOL     OW63970   6.771   5.571   2.684 -0.4199  0.3957  0.0140
21131SOL    HW163971   6.776   5.487   2.729 -0.0805 -0.2267 -1.1310
21131SOL    HW263972   6.775   5.637   2.754 -0.4500 -0.5298  0.9072
21132SOL     OW63973   6.568   4.932   2.808 -0.2747  0.0233 -0.1630
21132SOL    HW163974   6.537   4.845   2.833  1.6835 -0.9278 -0.8779
21132SOL    HW263975   6.502   4.964   2.747 -0.2272 -1.6512 -1.1497
21133SOL     OW63976   8.898   1.616   7.799  0.2733 -0.7467  0.4485
21133SOL    HW163977   8.953   1.694   7.795 -0.4980 -0.2126 -3.9064
21133SOL    HW263978   8.851   1.624   7.882  1.6471  2.3619  1.0510
21134SOL     OW63979   5.382   2.404   6.664  0.1706  0.0094 -0.1383
21134SOL    HW163980   5.472   2.370   6.672 -0.3009 -1.3157 -0.2153
21134SOL    HW263981   5.387   2.467   6.592  1.1757  0.4490  0.2935
21135SOL     OW63982   8.508   9.842   5.344  0.0881  0.3208 -0.1943
21135SOL    HW163983   8.476   9.883   5.425  1.0145 -0.5810  0.6661
21135SOL    HW263984   8.515   9.749   5.366  1.3035  0.2050 -0.9839
21136SOL     OW63985   9.699   1.991   2.914 -0.0276  0.0022 -0.5261
21136SOL    HW163986   9.770   1.947   2.962  0.5633  0.9065 -0.5624
21136SOL    HW263987   9.732   1.998   2.825  0.3826  1.5557 -0.2768
21137SOL     OW63988   2.836   0.764   9.535 -0.0908 -0.2584 -0.6211
21137SOL    HW163989   2.910   0.706   9.516  0.2301  0.3111 -1.1494
21137SOL    HW263990   2.818   0.808   9.452 -1.0491 -0.4067 -0.5097
21138SOL     OW63991   6.470   9.293   2.775  0.1867 -0.2332  0.3963
21138SOL    HW163992   6.502   9.375   2.737  0.2723  0.5609  2.0595
21138SOL    HW263993   6.529   9.226   2.741  0.0386  0.3488 -1.1033
21139SOL     OW63994   7.253   4.371   5.241 -0.1432 -0.0243  0.7923
21139SOL    HW163995   7.225   4.279   5.246 -0.9199  0.2285  1.4138
21139SOL    HW263996   7.345   4.367   5.216 -0.2031 -0.9704  0.6839
21140SOL     OW63997   5.718   5.299   3.212 -0.2407  0.0885 -0.5769
21140SOL    HW163998   5.641   5.353   3.194 -0.2447  0.1668 -0.3249
21140SOL    HW263999   5.792   5.355   3.188 -0.1700  0.8527  1.2802
21141SOL     OW64000   5.846   2.262   8.799 -0.6179  0.0532  0.1094
21141SOL    HW164001   5.843   2.186   8.857  0.0443 -0.8269 -0.9571
21141SOL    HW264002   5.756   2.293   8.795 -1.3327 -1.9702 -1.0522
21142SOL     OW64003   5.162   1.864   6.369  0.5970 -0.1129 -0.4221
21142SOL    HW164004   5.190   1.773   6.359 -1.2541 -0.6950 -0.5782
21142SOL    HW264005   5.118   1.867   6.454 -1.0166  0.1490 -1.2244
21143SOL     OW64006   2.823   9.885   8.207  0.2137 -0.4678  0.1398
21143SOL    HW164007   2.808   9.971   8.247  0.3190 -0.2107 -0.3747
21143SOL    HW264008   2.787   9.823   8.271 -0.8515  0.0108  0.0335
21144SOL     OW64009   5.212   8.772   8.880  0.1573 -0.2468  0.0358
21144SOL    HW164010   5.304   8.788   8.858  0.1991  0.3150  0.5962
21144SOL    HW264011   5.171   8.753   8.795  1.2044 -2.8014  0.0103
21145SOL     OW64012   8.318   9.190   8.207 -0.1695  0.0428 -0.4075
21145SOL    HW164013   8.324   9.175   8.113  3.1868  1.8477 -0.6317
21145SOL    HW264014   8.228   9.164   8.230 -0.9884 -0.8190 -3.9682
21146SOL     OW64015   6.167   5.514   6.397  0.5024  0.3546 -0.2240
21146SOL    HW164016   6.156   5.474   6.311 -1.2512 -0.2942  0.2600
21146SOL    HW264017   6.222   5.453   6.446  0.7814  0.2974 -0.6125
21147SOL     OW64018   7.491   4.058   7.639  0.2259  0.0810 -0.2425
21147SOL    HW164019   7.556   3.991   7.619  2.1600  1.1890  1.8047
21147SOL    HW264020   7.408   4.022   7.607  1.6353 -1.9041 -1.9260
21148SOL     OW64021   8.410   5.664   3.513  0.0695 -0.0262 -0.5921
21148SOL    HW164022   8.501   5.641   3.529 -0.3046 -0.7454  0.5929
21148SOL    HW264023   8.406   5.679   3.418  1.7886  1.8252 -0.4416
21149SOL     OW64024   5.338   7.092   1.718 -0.2996 -0.0737  0.7069
21149SOL    HW164025   5.338   7.154   1.791 -1.5838  0.3337  0.3988
21149SOL    HW264026   5.278   7.023   1.747  1.0703 -1.1776  1.0212
21150SOL     OW64027   9.426   2.045   4.517  0.1487  0.4510  0.2250
21150SOL    HW164028   9.510   2.087   4.532  0.8293 -0.7991  0.0275
21150SOL    HW264029   9.447   1.955   4.493 -1.1888  0.5058 -1.3199
21151SOL     OW64030   2.804   1.434   5.992 -0.0663  0.0541  0.6973
21151SOL    HW164031   2.748   1.371   5.946 -0.2532  1.3520 -0.9624
21151SOL    HW264032   2.874   1.454   5.930 -0.1908  1.6887  1.0409
21152SOL     OW64033   3.800   0.360   6.723  0.4593 -0.2612  0.0332
21152SOL    HW164034   3.841   0.303   6.788 -0.6247 -2.4308 -1.0445
21152SOL    HW264035   3.795   0.305   6.644 -0.6886  1.3474 -1.0715
21153SOL     OW64036   2.349   3.883   6.585 -0.0239 -0.8828 -0.6366
21153SOL    HW164037   2.359   3.797   6.624 -0.4056 -0.2764  0.8687
21153SOL    HW264038   2.258   3.887   6.556 -0.1962 -0.7493 -0.0862
21154SOL     OW64039   3.861   8.268   9.256  0.1217  0.1264 -0.1700
21154SOL    HW164040   3.826   8.235   9.173  0.5405  0.3795 -0.4508
21154SOL    HW264041   3.853   8.363   9.249 -1.3197  0.1032  0.7430
21155SOL     OW64042   6.375   3.680   1.864  0.5448  0.0765 -0.1179
21155SOL    HW164043   6.379   3.702   1.957  0.3621 -1.3781  0.2593
21155SOL    HW264044   6.291   3.634   1.854  1.1594 -0.9436 -0.7187
21156SOL     OW64045   5.947   5.030   4.491 -0.3681  0.1914  0.6970
21156SOL    HW164046   5.873   4.981   4.528 -0.0743  1.3372  3.0353
21156SOL    HW264047   6.024   4.979   4.515 -0.3159 -0.5154 -0.9052
21157SOL     OW64048   3.735   6.247   6.014  0.1133  0.7568 -0.2719
21157SOL    HW164049   3.785   6.254   5.933  0.7533  1.0964  0.1457
21157SOL    HW264050   3.794   6.202   6.075 -0.3730  0.4780  0.0002
21158SOL     OW64051   7.756   5.261   5.893  0.4368 -0.2484  0.7693
21158SOL    HW164052   7.796   5.342   5.863 -0.5932 -0.1568 -0.4481
21158SOL    HW264053   7.822   5.194   5.877  0.2076 -0.0780 -1.0267
21159SOL     OW64054   3.130   4.880   3.641 -0.1674  0.1538 -0.7764
21159SOL    HW164055   3.219   4.916   3.646 -0.5814  1.0558  2.5604
21159SOL    HW264056   3.134   4.800   3.694 -0.7918 -1.3247 -2.8372
21160SOL     OW64057   7.741   7.258   9.043  0.5056  0.0098 -0.0578
21160SOL    HW164058   7.664   7.289   8.995 -0.6087 -2.6934 -0.1888
21160SOL    HW264059   7.729   7.295   9.131  0.2582  1.4018 -0.6383
21161SOL     OW64060   2.903   5.149   9.945  0.2695 -0.2587  0.0292
21161SOL    HW164061   2.934   5.062   9.970  3.0784  0.7603  0.3638
21161SOL    HW264062   2.941   5.165   9.859 -0.3698  0.5933 -0.1130
21162SOL     OW64063   6.293   1.955   0.633  0.9664  0.0996  0.2742
21162SOL    HW164064   6.254   1.906   0.704  1.7425  1.0189  1.3684
21162SOL    HW264065   6.234   2.030   0.620 -0.5643 -1.3549 -1.8190
21163SOL     OW64066   9.011   6.690   2.205  0.0678  0.9432  0.1523
21163SOL    HW164067   9.042   6.625   2.267  1.2067  0.3234 -0.9985
21163SOL    HW264068   9.089   6.742   2.183 -0.0694  0.5530 -1.4177
21164SOL     OW64069   2.085   7.233   6.792 -0.3227  0.4448  0.3395
21164SOL    HW164070   2.171   7.213   6.830  1.2709  1.3754 -2.3993
21164SOL    HW264071   2.034   7.153   6.803  2.0651 -1.3666 -0.7678
21165SOL     OW64072   0.266   2.059   9.117  0.4386  0.3192  0.2247
21165SOL    HW164073   0.230   2.135   9.072  0.8992  0.8418  0.7323
21165SOL    HW264074   0.209   2.048   9.194  0.8240  0.6138  0.5564
21166SOL     OW64075   7.688   3.007   9.526  0.2653 -0.1491 -0.2476
21166SOL    HW164076   7.662   3.053   9.606 -0.2916  2.0238 -1.6162
21166SOL    HW264077   7.611   2.954   9.504  0.5680 -1.0933  0.8175
21167SOL     OW64078   9.596   0.402   7.968  0.7238 -0.1199 -0.2162
21167SOL    HW164079   9.622   0.457   7.894  1.0424 -2.3821 -1.9047
21167SOL    HW264080   9.539   0.335   7.929  1.7622 -2.0276  1.3498
21168SOL     OW64081   6.501   7.863   4.929 -0.2753  0.1113 -0.1896
21168SOL    HW164082   6.444   7.902   4.996 -0.4648  0.3376 -0.4783
21168SOL    HW264083   6.569   7.818   4.978 -0.2514  0.5169  0.1561
21169SOL     OW64084   0.835   1.727   7.588  0.4339 -0.2961 -0.3670
21169SOL    HW164085   0.794   1.741   7.673 -0.3587 -1.0081 -0.6270
21169SOL    HW264086   0.926   1.702   7.609  0.4205  0.1529  0.2419
21170SOL     OW64087   2.190   7.162   0.267 -0.2257  0.8007 -0.2604
21170SOL    HW164088   2.141   7.241   0.293 -0.1439  0.0076  2.7679
21170SOL    HW264089   2.282   7.188   0.275 -0.1709  0.9877 -1.4105
21171SOL     OW64090   0.741   5.102   8.045 -0.2934 -0.1439 -0.1974
21171SOL    HW164091   0.753   5.100   7.950 -1.9398  0.8782 -0.4517
21171SOL    HW264092   0.824   5.136   8.079 -0.2007  0.8568 -1.3794
21172SOL     OW64093   5.144   0.063   2.229 -0.1514  0.0070 -0.4755
21172SOL    HW164094   5.072   0.121   2.206 -0.2368 -0.1278 -0.5462
21172SOL    HW264095   5.203   0.066   2.154 -0.1283  0.0430 -0.4567
21173SOL     OW64096   8.524   6.887   5.054 -0.2028 -0.0262  0.1017
21173SOL    HW164097   8.462   6.858   5.120  0.7309 -0.0024  1.0020
21173SOL    HW264098   8.491   6.849   4.972 -2.3773  1.4158  0.2304
21174SOL     OW64099   7.846   5.267   6.191  0.2745  0.0832  0.2037
21174SOL    HW164100   7.859   5.272   6.096  0.7150  0.5078  0.2778
21174SOL    HW264101   7.931   5.292   6.227  1.1320 -3.1671  0.7100
21175SOL     OW64102   8.918   6.032   4.125 -0.0710  0.1642 -0.0237
21175SOL    HW164103   8.889   5.943   4.146 -1.8662  0.9039  0.8885
21175SOL    HW264104   8.967   6.023   4.043  0.3649 -1.7385  0.4058
21176SOL     OW64105   0.093   3.775   7.335 -0.0416 -0.1910 -0.2994
21176SOL    HW164106   0.169   3.823   7.303 -0.4613 -0.2010 -1.3644
21176SOL    HW264107   0.077   3.810   7.423  2.4994 -1.7444  0.9010
21177SOL     OW64108   8.934   8.602   5.365 -0.1577 -0.0225 -0.2256
21177SOL    HW164109   8.909   8.620   5.274  1.3166  3.1377 -0.1582
21177SOL    HW264110   9.018   8.557   5.357 -0.3322 -0.3156 -0.4299
21178SOL     OW64111   3.861   0.413   5.571  0.3967 -0.1999 -0.6429
21178SOL    HW164112   3.785   0.464   5.599  0.6118 -0.6433  0.8488
21178SOL    HW264113   3.874   0.349   5.641  2.7174  0.4794 -0.3775
21179SOL     OW64114   5.756   1.552   6.534 -0.5993 -0.5823  0.3177
21179SOL    HW164115   5.718   1.548   6.446  0.2516 -2.9715 -0.0165
21179SOL    HW264116   5.805   1.634   6.536  0.4072 -1.0554 -1.9314
21180SOL     OW64117   6.425   7.916   9.088 -0.4628  0.0339 -0.2891
21180SOL    HW164118   6.395   7.901   9.178  1.7256  0.0690  0.5125
21180SOL    HW264119   6.419   7.831   9.046  1.4909 -0.7674  0.9068
21181SOL     OW64120   4.437   2.512   2.174 -0.7849  0.5232  0.5330
21181SOL    HW164121   4.401   2.481   2.257 -0.0518 -0.0187  0.6540
21181SOL    HW264122   4.500   2.579   2.199  2.8221 -2.6679  0.8276
21182SOL     OW64123   9.290   8.633   0.420  0.0287 -0.0160  0.6465
21182SOL    HW164124   9.281   8.699   0.488  0.9399  0.7653  0.0527
21182SOL    HW264125   9.300   8.683   0.339  1.9943 -0.8052  0.3254
21183SOL     OW64126   4.854   9.502   7.730 -0.3996 -0.1665 -0.0336
21183SOL    HW164127   4.915   9.559   7.777 -1.1696 -0.6796  1.6662
21183SOL    HW264128   4.898   9.417   7.728 -0.8435 -0.4249  0.7955
21184SOL     OW64129   2.700   0.934   7.332 -0.3094 -0.0248 -0.0083
21184SOL    HW164130   2.757   0.931   7.409 -0.4887 -0.9656  0.0950
21184SOL    HW264131   2.681   1.027   7.320  0.9508  0.2828  0.1751
21185SOL     OW64132   7.348   7.955   7.296 -0.3572 -0.1809 -0.0011
21185SOL    HW164133   7.304   7.879   7.334 -0.4535 -0.3343 -0.4138
21185SOL    HW264134   7.283   8.026   7.303 -1.1324 -0.6792 -1.6504
21186SOL     OW64135   6.606   0.589   5.260  0.4963  0.0812 -0.3322
21186SOL    HW164136   6.629   0.660   5.200 -1.0206 -0.9883 -2.3024
21186SOL    HW264137   6.684   0.535   5.265  1.2839  1.2191  0.2719
21187SOL     OW64138   9.193   3.786   2.864 -0.2532 -0.2504  0.6967
21187SOL    HW164139   9.193   3.882   2.858 -2.7782  0.0953  3.6272
21187SOL    HW264140   9.285   3.763   2.875  0.3505  1.9318  0.7819
21188SOL     OW64141   3.014   6.640   3.449  0.2536  0.2220 -0.1390
21188SOL    HW164142   2.980   6.687   3.525 -1.6949  0.1343 -0.8956
21188SOL    HW264143   3.108   6.630   3.467  0.2200  1.9395  1.3136
21189SOL     OW64144   7.129   7.821   7.669 -0.1933 -0.2930 -0.1835
21189SOL    HW164145   7.161   7.886   7.732 -1.1448  0.2762 -0.2670
21189SOL    HW264146   7.115   7.743   7.722  0.2487 -0.2151  0.0598
21190SOL     OW64147   3.181   0.072   3.731  0.7274  0.2668  0.1468
21190SOL    HW164148   3.260   0.070   3.785  1.2195  0.7196 -0.5505
21190SOL    HW264149   3.120   0.014   3.777  1.5837 -0.3784  0.4974
21191SOL     OW64150   7.930   9.246   0.622 -0.2801 -0.5162  0.1284
21191SOL    HW164151   7.955   9.197   0.544  0.0000 -1.5359  0.8350
21191SOL    HW264152   7.943   9.184   0.694 -1.2054  0.1712  0.9101
21192SOL     OW64153   3.869   9.811   8.112 -0.5326  0.1510 -0.1462
21192SOL    HW164154   3.815   9.777   8.041 -1.7682  2.3529 -0.3566
21192SOL    HW264155   3.956   9.822   8.073 -0.7629 -0.2879 -0.7966
21193SOL     OW64156   4.231   5.278   2.177 -0.5541  0.5201  0.1150
21193SOL    HW164157   4.237   5.212   2.246 -0.5790  0.1596 -0.2238
21193SOL    HW264158   4.278   5.240   2.103  3.6739  2.7452  1.2938
21194SOL     OW64159   4.917   8.136   9.453  0.4619  0.1832  1.0686
21194SOL    HW164160   5.008   8.157   9.473  0.7159  0.5281 -0.3401
21194SOL    HW264161   4.889   8.206   9.393 -0.5523 -0.2380  1.0289
21195SOL     OW64162   8.824   9.427   7.987  0.5303  0.0105  0.2147
21195SOL    HW164163   8.791   9.343   7.953  3.0223 -0.7660 -0.5071
21195SOL    HW264164   8.884   9.402   8.058 -0.9077  1.3883  1.9870
21196SOL     OW64165   5.446   2.757   9.063  0.5062  0.4712 -0.0623
21196SOL    HW164166   5.475   2.747   8.973 -0.2872 -0.3061 -0.2381
21196SOL    HW264167   5.356   2.726   9.064  0.5332  0.3678  1.0192
21197SOL     OW64168   7.691   1.519   8.560  0.1681 -0.3773  0.0465
21197SOL    HW164169   7.754   1.462   8.518  0.2797 -0.6265  0.5424
21197SOL    HW264170   7.688   1.598   8.505  1.9868  0.2563  0.7891
21198SOL     OW64171   6.407   1.048   9.662 -0.1596 -0.6481  0.0678
21198SOL    HW164172   6.423   0.989   9.736 -0.3772  0.1775  0.7894
21198SOL    HW264173   6.480   1.031   9.602  0.7617 -0.3998  1.0724
21199SOL     OW64174   3.152   8.067   9.218  0.7757 -0.6188 -0.2973
21199SOL    HW164175   3.182   8.040   9.305 -0.0297 -0.9045 -0.0981
21199SOL    HW264176   3.056   8.065   9.225  0.6676  1.7057 -0.4471
21200SOL     OW64177   1.055   4.940   6.674 -0.0684  0.5075 -0.3291
21200SOL    HW164178   1.054   4.847   6.694  0.2627  0.4161 -0.7272
21200SOL    HW264179   1.105   4.980   6.745  1.2261  0.1685 -1.0372
21201SOL     OW64180   2.573   7.884   0.072  0.2970  0.1451 -0.2642
21201SOL    HW164181   2.503   7.926   0.120 -0.0125 -0.7170  0.0543
21201SOL    HW264182   2.587   7.800   0.116  0.5623 -0.3104 -1.1688
21202SOL     OW64183   3.637   2.026   9.432 -0.2518 -0.2793  0.0692
21202SOL    HW164184   3.669   2.078   9.359  1.3328 -1.6581 -0.2920
21202SOL    HW264185   3.566   2.077   9.469 -2.0539 -0.1268 -3.2443
21203SOL     OW64186   4.768   6.251   0.888 -0.0861 -0.4348 -0.4277
21203SOL    HW164187   4.784   6.286   0.975  0.8857 -2.5543  0.2997
21203SOL    HW264188   4.682   6.208   0.895 -0.8172  0.8455 -1.0463
21204SOL     OW64189   5.989   4.388   2.577  0.6822 -0.5777  0.1912
21204SOL    HW164190   6.047   4.359   2.507  2.2659 -0.5896  1.4494
21204SOL    HW264191   5.935   4.456   2.537  1.8133 -0.3114 -0.9447
21205SOL     OW64192   9.671   5.582   6.844 -0.3821 -0.6226 -0.0152
21205SOL    HW164193   9.599   5.537   6.801 -1.1788  0.4413  0.1495
21205SOL    HW264194   9.737   5.594   6.775 -1.0852 -0.1010 -0.6084
21206SOL     OW64195   6.736   6.536   4.100  0.4120  0.0145 -0.4040
21206SOL    HW164196   6.712   6.628   4.101  1.4539  0.2931 -0.1929
21206SOL    HW264197   6.829   6.535   4.077  0.8877 -0.8615  1.3545
21207SOL     OW64198   7.066   5.843   5.248 -0.0018  0.3620 -0.3457
21207SOL    HW164199   7.145   5.825   5.196  0.8925  0.5825  0.8741
21207SOL    HW264200   7.040   5.932   5.223  1.3269  1.0749  0.6308
21208SOL     OW64201   6.918   4.574   3.254  0.3654  0.0631  0.3164
21208SOL    HW164202   6.855   4.541   3.318 -0.0263 -0.5759 -0.3854
21208SOL    HW264203   6.897   4.667   3.246  1.1049  0.4151  1.8852
21209SOL     OW64204   4.225   6.037   4.236 -0.0093 -0.0206 -0.3690
21209SOL    HW164205   4.179   6.116   4.208 -0.0305 -0.8458 -2.9572
21209SOL    HW264206   4.316   6.053   4.212 -0.0289 -0.7823 -1.0052
21210SOL     OW64207   7.953   0.953   2.283 -0.4128  0.3171 -0.1622
21210SOL    HW164208   7.976   1.028   2.227  0.0740 -0.4138 -0.9635
21210SOL    HW264209   8.026   0.947   2.346  0.6862 -0.8006 -1.4787
21211SOL     OW64210   4.710   8.087   2.784  0.7436  0.4326  0.7793
21211SOL    HW164211   4.709   8.055   2.694  0.7052 -0.0210  0.9355
21211SOL    HW264212   4.715   8.007   2.837  1.4489  0.7196  1.1618
21212SOL     OW64213   6.446   3.718   8.813  0.4058  0.6058 -0.3602
21212SOL    HW164214   6.360   3.682   8.792  1.0088 -1.4033  0.4518
21212SOL    HW264215   6.428   3.807   8.845 -1.2458  0.6055 -1.2077
21213SOL     OW64216   1.868   2.680   1.903  0.1733 -0.2289  0.1870
21213SOL    HW164217   1.939   2.708   1.845 -0.0162 -0.5166 -0.1820
21213SOL    HW264218   1.908   2.614   1.959  0.6902  0.9091  1.2234
21214SOL     OW64219   1.541   5.320   6.055  0.3554 -0.0895 -0.1405
21214SOL    HW164220   1.508   5.264   6.126  0.1265 -0.2380 -0.3619
21214SOL    HW264221   1.585   5.259   5.996  1.6714  0.1982  0.5164
21215SOL     OW64222   7.058   2.065   5.240  0.1034 -0.0332  0.4604
21215SOL    HW164223   7.042   2.060   5.334  0.9501 -1.9076  0.5379
21215SOL    HW264224   7.142   2.109   5.232  2.4500 -4.0014  0.9381
21216SOL     OW64225   3.207   8.818   1.505  0.5230 -0.2833 -0.8833
21216SOL    HW164226   3.145   8.833   1.576 -0.0222  1.5800 -1.6957
21216SOL    HW264227   3.209   8.900   1.457  3.8400 -0.1544 -0.7471
21217SOL     OW64228   7.363   4.960   3.671 -0.2736 -1.0346 -0.4814
21217SOL    HW164229   7.292   4.997   3.724  1.0755 -1.5141  1.7874
21217SOL    HW264230   7.333   4.872   3.649 -0.2803 -1.3700  0.7774
21218SOL     OW64231   6.758   8.293   1.691  0.2651 -0.2482  0.2594
21218SOL    HW164232   6.780   8.337   1.773  0.6742  1.8416 -0.9146
21218SOL    HW264233   6.840   8.291   1.642  0.0455 -1.5511 -0.0919
21219SOL     OW64234   2.884   0.211   3.088  0.1872  0.1160  0.0600
21219SOL    HW164235   2.893   0.187   2.996 -1.7116 -0.7633  0.0602
21219SOL    HW264236   2.804   0.263   3.092 -0.7035 -1.2504  1.4120
21220SOL     OW64237   4.737   3.258   6.296 -0.2565 -0.1429  0.2225
21220SOL    HW164238   4.690   3.235   6.216  1.4011  0.5578 -0.9988
21220SOL    HW264239   4.727   3.353   6.303 -0.2311 -0.1788  0.7453
21221SOL     OW64240   5.232   3.741   8.496  0.4374 -0.4193  0.0888
21221SOL    HW164241   5.171   3.668   8.483  1.2684 -1.1906  0.4193
21221SOL    HW264242   5.185   3.817   8.462 -1.2311 -0.7438  1.5235
21222SOL     OW64243   7.735   6.740   2.398  0.0633 -0.2541  0.2450
21222SOL    HW164244   7.764   6.830   2.415 -1.3512  0.3692 -0.5079
21222SOL    HW264245   7.641   6.741   2.414  0.1023 -1.7438  0.7140
21223SOL     OW64246   5.124   2.307   4.006  0.5090 -0.1601 -0.0417
21223SOL    HW164247   5.029   2.302   3.996  0.6329 -0.0293 -1.4212
21223SOL    HW264248   5.150   2.376   3.945  1.2293  1.6740  2.1824
21224SOL     OW64249   0.587   9.950   1.748 -0.0960  0.3588  0.0379
21224SOL    HW164250   0.494   9.973   1.745 -0.1279  0.2915  0.4533
21224SOL    HW264251   0.623   9.986   1.667 -0.5579  0.0478 -0.3104
21225SOL     OW64252   7.275   2.749   0.203  0.1169 -0.1677  0.4760
21225SOL    HW164253   7.357   2.790   0.177 -0.5357  0.2927 -0.9676
21225SOL    HW264254   7.282   2.659   0.171 -0.8632  0.5136 -1.9015
21226SOL     OW64255   9.032   6.422   5.479  0.1134  0.1995 -0.5202
21226SOL    HW164256   9.033   6.485   5.551  0.7810 -0.9222  0.4662
21226SOL    HW264257   8.939   6.409   5.460 -0.2222 -1.4420  1.8976
21227SOL     OW64258   6.669   6.050   2.672  0.0889 -0.5392 -0.4505
21227SOL    HW164259   6.709   6.066   2.587  1.5370 -1.1664  0.0817
21227SOL    HW264260   6.718   5.976   2.708  0.3695  0.5294  1.4742
21228SOL     OW64261   2.070   6.087   8.232  0.4712 -0.1883  0.0340
21228SOL    HW164262   2.109   6.173   8.244  0.6696 -0.3068  0.2343
21228SOL    HW264263   2.079   6.069   8.138 -1.5651  0.9691 -0.4361
21229SOL     OW64264   0.011   8.237   5.548  0.2692  0.3036  0.2744
21229SOL    HW164265  -0.049   8.224   5.474  0.6198 -0.6871  0.1517
21229SOL    HW264266   0.081   8.173   5.533 -0.0021 -0.3877  1.8305
21230SOL     OW64267   1.483   0.398   7.656 -0.0194  0.4255  0.6944
21230SOL    HW164268   1.534   0.438   7.726  1.4452 -1.3594  0.7185
21230SOL    HW264269   1.432   0.330   7.699  0.2589 -0.1231  0.1759
21231SOL     OW64270   1.097   6.890   3.690  0.0251  0.0848  0.3860
21231SOL    HW164271   1.017   6.940   3.700  1.8651  3.4565 -0.3522
21231SOL    HW264272   1.079   6.829   3.618 -1.8909  0.5938  0.3939
21232SOL     OW64273   2.180   4.349  10.003 -0.6310  0.0464  0.3333
21232SOL    HW164274   2.271   4.380  10.001 -0.3541 -0.7191 -2.0770
21232SOL    HW264275   2.139   4.391   9.927 -1.9466 -0.6536  0.6340
21233SOL     OW64276   4.807   2.579   3.671 -0.2655  0.1817  0.1806
21233SOL    HW164277   4.864   2.574   3.594 -1.6758 -1.7554 -0.8429
21233SOL    HW264278   4.864   2.609   3.741  1.6910 -0.3784 -1.0779
21234SOL     OW64279   1.904   9.613   7.101  0.1986 -0.4622  0.1545
21234SOL    HW164280   1.929   9.592   7.011  0.0041 -1.0746  0.2425
21234SOL    HW264281   1.986   9.614   7.150  0.4188  0.7603 -0.1945
21235SOL     OW64282   5.273   1.603   6.361 -0.3856 -0.1898  0.1788
21235SOL    HW164283   5.324   1.528   6.331  0.5579  0.3334  0.4512
21235SOL    HW264284   5.234   1.573   6.444 -1.9429 -1.1794 -0.8571
21236SOL     OW64285   0.255   3.628   6.580  0.4981  0.5011  0.6719
21236SOL    HW164286   0.228   3.536   6.579  0.5321  0.4919 -0.6789
21236SOL    HW264287   0.350   3.625   6.576  0.4641  0.5992 -0.3257
21237SOL     OW64288   1.620   8.786   0.053 -0.1656 -0.1879 -0.0991
21237SOL    HW164289   1.644   8.701   0.014 -0.6196  0.1581 -1.1662
21237SOL    HW264290   1.655   8.782   0.142  0.5813 -1.1596 -0.4129
21238SOL     OW64291   1.821   9.142   6.454 -0.1286  0.2428  0.5493
21238SOL    HW164292   1.759   9.079   6.491  0.0933  1.1447  2.6204
21238SOL    HW264293   1.773   9.225   6.450  0.4491  0.5946  0.6818
21239SOL     OW64294   8.791   8.428   4.121 -0.0257 -0.6763 -0.0779
21239SOL    HW164295   8.854   8.426   4.193 -1.2789 -1.8004  1.0452
21239SOL    HW264296   8.749   8.342   4.123 -0.4667 -0.5412 -1.8367
21240SOL     OW64297   3.712   9.712   3.100 -0.0695 -0.3025  0.6831
21240SOL    HW164298   3.779   9.734   3.165  0.7189  1.1990 -0.5588
21240SOL    HW264299   3.725   9.619   3.084  1.9886  0.0033  0.2510
21241SOL     OW64300   2.043   8.688   7.383 -0.1764  0.5882  0.0754
21241SOL    HW164301   2.082   8.766   7.422  2.6464  0.2881 -1.8430
21241SOL    HW264302   2.065   8.617   7.445  0.2323  0.7981  0.1729
21242SOL     OW64303   5.349   3.986   6.608  0.3448 -0.3818 -0.1010
21242SOL    HW164304   5.395   4.001   6.691  1.0352  1.6007 -0.7809
21242SOL    HW264305   5.402   3.919   6.563  2.4272  1.5340 -0.6712
21243SOL     OW64306   9.236   7.295   0.750  0.2726 -0.2518 -0.2767
21243SOL    HW164307   9.226   7.204   0.777 -0.6946 -0.1304 -0.1797
21243SOL    HW264308   9.237   7.292   0.654 -0.5853 -0.2918 -0.2870
21244SOL     OW64309   5.973   0.089   9.332 -0.0690  0.2906 -0.6627
21244SOL    HW164310   5.989   0.147   9.407  0.9825 -0.2987 -0.4072
21244SOL    HW264311   6.061   0.066   9.301 -0.4874 -0.4593 -1.3205
21245SOL     OW64312   7.699   3.684   3.144 -0.1028  0.4932 -0.0990
21245SOL    HW164313   7.616   3.657   3.104  0.6010  0.2885 -1.4714
21245SOL    HW264314   7.764   3.625   3.107  0.5418 -0.0671  1.7792
21246SOL     OW64315   4.037   7.401   8.542 -0.5915 -0.2320  0.0136
21246SOL    HW164316   4.074   7.314   8.528  1.1408  0.2965  0.9649
21246SOL    HW264317   4.060   7.451   8.463 -0.9232 -0.4183 -0.2022
21247SOL     OW64318   6.602   0.848   6.766  0.3556 -0.0627  0.0759
21247SOL    HW164319   6.564   0.785   6.827  2.2877 -0.0526  1.4008
21247SOL    HW264320   6.650   0.794   6.703 -1.5050 -0.0644 -1.4361
21248SOL     OW64321   5.065   0.112   7.786  0.2510  0.1446  0.3207
21248SOL    HW164322   5.087   0.027   7.749  1.7412  0.1941  1.0187
21248SOL    HW264323   4.996   0.146   7.729 -2.1395 -2.5247  1.3673
21249SOL     OW64324   4.929   1.947   6.188  0.4136  0.0320 -0.8617
21249SOL    HW164325   4.969   1.922   6.105  0.1517 -0.5100 -0.8324
21249SOL    HW264326   4.989   1.914   6.255  0.2523 -0.2048 -0.8298
21250SOL     OW64327   3.535   4.919   8.733 -0.7306  0.1881  0.1908
21250SOL    HW164328   3.549   4.978   8.808  0.7205 -0.2091  0.2739
21250SOL    HW264329   3.515   4.834   8.773  0.5602 -0.1486  0.1780
21251SOL     OW64330   4.699   7.863   2.953 -0.0629  0.2091 -0.4036
21251SOL    HW164331   4.639   7.866   3.028  0.2142  1.8819 -0.2039
21251SOL    HW264332   4.757   7.789   2.971 -1.2418 -0.6469  0.0326
21252SOL     OW64333   9.796   8.915   6.281  0.2978 -0.7194 -0.1438
21252SOL    HW164334   9.751   8.996   6.306  1.7265  0.4098 -1.0600
21252SOL    HW264335   9.726   8.857   6.251 -0.6203  0.7280 -0.9212
21253SOL     OW64336   4.312   8.169   3.854  0.4407  0.2387  0.9330
21253SOL    HW164337   4.363   8.205   3.927 -0.5578 -0.3126  1.9345
21253SOL    HW264338   4.241   8.231   3.842  0.0101 -0.2075  1.1408
21254SOL     OW64339   9.687   3.265   8.334 -0.7269  0.5794  0.5920
21254SOL    HW164340   9.714   3.248   8.424 -1.5432  0.1345  0.7734
21254SOL    HW264341   9.716   3.354   8.316 -2.4679  1.5261  2.0724
21255SOL     OW64342   4.191   5.287   9.489  0.1326 -0.2138  0.0096
21255SOL    HW164343   4.210   5.347   9.561 -0.1413 -0.2666  0.1279
21255SOL    HW264344   4.252   5.214   9.502 -1.1913 -1.1509  1.3178
21256SOL     OW64345   6.140   9.170   6.091  1.0386 -0.5384 -0.6611
21256SOL    HW164346   6.157   9.110   6.019  0.8499 -0.6400 -0.6228
21256SOL    HW264347   6.091   9.118   6.155  0.1642 -0.1335 -0.9822
21257SOL     OW64348   3.152   0.071   7.300 -0.1794 -0.6047 -0.2436
21257SOL    HW164349   3.208   0.147   7.314 -0.9702 -0.0763  0.1542
21257SOL    HW264350   3.146   0.063   7.205 -1.5938  1.0097 -0.3471
21258SOL     OW64351   5.073   7.035   9.838  0.0589  0.8189 -0.3405
21258SOL    HW164352   5.038   7.099   9.776 -0.1485  0.1619 -0.9228
21258SOL    HW264353   5.021   7.048   9.918 -1.2539  0.1492 -1.0569
21259SOL     OW64354   6.791   1.776   4.073 -0.4805 -0.1955 -0.7772
21259SOL    HW164355   6.699   1.783   4.048 -0.4880  0.2925 -0.6142
21259SOL    HW264356   6.798   1.688   4.112 -1.4895  0.7148  1.6393
21260SOL     OW64357   6.272   0.333   5.938  0.1003  0.0953  0.1179
21260SOL    HW164358   6.337   0.264   5.928  2.1989  1.8507  0.7219
21260SOL    HW264359   6.193   0.289   5.968  2.2041 -1.7141  3.5374
21261SOL     OW64360   3.647   1.753   5.640 -0.5913  0.0576  0.4686
21261SOL    HW164361   3.561   1.766   5.678 -0.4837  0.2545  0.6489
21261SOL    HW264362   3.662   1.833   5.588 -0.2535  0.3135  0.9485
21262SOL     OW64363   9.002   1.100   3.716 -0.2550 -0.0862 -0.3083
21262SOL    HW164364   8.986   1.189   3.686 -0.0510 -0.2720 -0.9905
21262SOL    HW264365   9.040   1.056   3.640  3.3081  0.2644  1.0951
21263SOL     OW64366   6.051   3.769   2.813  0.0090 -0.1380 -0.2140
21263SOL    HW164367   6.142   3.795   2.827 -0.4015  0.5285  1.5053
21263SOL    HW264368   6.000   3.846   2.838 -1.0825 -1.0958  0.6604
21264SOL     OW64369   9.393   3.037   4.183 -0.0261  0.3289 -0.1346
21264SOL    HW164370   9.319   3.045   4.243  1.1017  0.6734  1.2758
21264SOL    HW264371   9.364   2.976   4.116 -0.9401 -1.0268  1.4283
21265SOL     OW64372   3.814   0.788   0.795 -0.3709 -0.0718  0.4350
21265SOL    HW164373   3.852   0.701   0.785 -1.6564 -0.8044  1.5279
21265SOL    HW264374   3.761   0.800   0.716  0.6767  0.2113 -0.2449
21266SOL     OW64375   5.180   3.749   2.188 -0.1423  0.3672  0.7778
21266SOL    HW164376   5.238   3.742   2.263  1.5522  1.2012 -0.3786
21266SOL    HW264377   5.219   3.817   2.134 -1.4981  0.0480 -0.6859
21267SOL     OW64378   8.504   1.602   3.703 -0.0258  0.0981 -0.1240
21267SOL    HW164379   8.509   1.598   3.799  1.7666  0.5393 -0.1648
21267SOL    HW264380   8.516   1.695   3.683 -0.5905  0.0310 -0.7659
21268SOL     OW64381   2.589   0.810   9.172  0.1857  0.0568  0.5174
21268SOL    HW164382   2.634   0.880   9.219  0.2292 -1.1617  2.3693
21268SOL    HW264383   2.497   0.835   9.173  0.2121  0.1393  1.0786
21269SOL     OW64384   3.015   6.846   3.946  0.2551  0.1210  0.0888
21269SOL    HW164385   3.098   6.861   3.991 -0.0169 -0.4561  0.8025
21269SOL    HW264386   2.952   6.826   4.016 -0.4052  0.1836 -0.4680
21270SOL     OW64387   1.552   3.378   6.286  0.2582 -0.0749 -0.0320
21270SOL    HW164388   1.515   3.294   6.259  0.1633 -0.9034  2.5096
21270SOL    HW264389   1.520   3.392   6.374  1.6060  1.8613  0.2221
21271SOL     OW64390   1.792   6.436   2.661 -0.5003  0.1920  0.7386
21271SOL    HW164391   1.747   6.520   2.664 -1.1890 -0.1590  0.2738
21271SOL    HW264392   1.733   6.375   2.704 -0.1521 -0.1264  0.7741
21272SOL     OW64393   5.219   0.912   9.251  0.0776  0.0050 -0.3417
21272SOL    HW164394   5.236   0.920   9.345 -0.1868 -0.2336 -0.2719
21272SOL    HW264395   5.215   0.818   9.234 -1.3880  0.0293 -0.3012
21273SOL     OW64396   3.031   5.599   4.980  0.2052  0.1678  0.4161
21273SOL    HW164397   3.032   5.671   4.917  2.2199 -0.6076 -0.4880
21273SOL    HW264398   3.095   5.624   5.047 -0.5964  0.1442  1.2134
21274SOL     OW64399   4.750   9.784   7.943  0.3609 -0.0047 -0.5810
21274SOL    HW164400   4.794   9.713   7.989 -2.5007 -1.4084  0.2283
21274SOL    HW264401   4.803   9.862   7.962  1.3756 -1.2019  1.8895
21275SOL     OW64402   8.278   7.167   3.773  0.2827  0.3981  0.4846
21275SOL    HW164403   8.335   7.096   3.802 -1.8494 -2.0784 -1.0391
21275SOL    HW264404   8.200   7.159   3.829 -0.9883 -0.0878 -1.2745
21276SOL     OW64405   1.185   4.636   0.260  0.3108 -0.4854  0.1433
21276SOL    HW164406   1.149   4.551   0.236 -2.2438  0.5262  0.0953
21276SOL    HW264407   1.245   4.658   0.189  1.3564 -2.3995  0.3807
21277SOL     OW64408   1.582   9.889   8.250  0.1454 -0.3172  0.6043
21277SOL    HW164409   1.494   9.898   8.215  0.7595 -0.4099 -1.0866
21277SOL    HW264410   1.592   9.961   8.312 -0.2165  1.3990 -1.2358
21278SOL     OW64411   3.280   8.626   4.715  0.2027  0.0287  0.4024
21278SOL    HW164412   3.353   8.588   4.764 -0.9693  0.3143  2.5284
21278SOL    HW264413   3.219   8.553   4.702  0.2305  0.0906 -0.0959
21279SOL     OW64414   6.820   3.966   8.005  0.2794 -0.1517 -0.2079
21279SOL    HW164415   6.793   3.920   8.085 -0.6869 -0.0455 -0.4548
21279SOL    HW264416   6.763   4.043   8.001  1.8268  1.0682  0.1558
21280SOL     OW64417   8.298   3.994   4.141 -0.8487  0.3361 -0.1604
21280SOL    HW164418   8.246   4.058   4.191 -0.7831  0.1208  0.1854
21280SOL    HW264419   8.287   3.912   4.189  0.4686  0.4512  0.3926
21281SOL     OW64420   4.337   5.763   1.759  0.0715  0.4445  0.2115
21281SOL    HW164421   4.383   5.730   1.836  0.6080  1.4006  0.3190
21281SOL    HW264422   4.247   5.777   1.788 -0.1261 -0.7226  0.2081
21282SOL     OW64423   2.120   5.544   6.980  0.1661  0.1761  0.2575
21282SOL    HW164424   2.094   5.555   7.072 -0.2365 -1.2858  0.3416
21282SOL    HW264425   2.179   5.468   6.981  2.4132  1.8044 -0.3242
21283SOL     OW64426   2.952   5.237   9.166  0.0363  0.0909 -0.4114
21283SOL    HW164427   2.869   5.278   9.190  0.4591  0.7151  0.0056
21283SOL    HW264428   2.998   5.303   9.114  0.9544  0.3753  0.7240
21284SOL     OW64429   4.300   4.524   9.451 -0.4370  0.0455  0.0520
21284SOL    HW164430   4.335   4.456   9.509  0.0172  1.1372  1.1146
21284SOL    HW264431   4.314   4.490   9.363 -2.6687 -2.4362  0.5226
21285SOL     OW64432   4.522   4.465   0.824 -0.0176  0.2326 -0.6164
21285SOL    HW164433   4.514   4.539   0.884 -0.9726 -0.1621 -0.2330
21285SOL    HW264434   4.599   4.418   0.855  0.2817  0.7654 -0.5315
21286SOL     OW64435   4.943   1.252   2.890  0.0431  0.2664  0.4960
21286SOL    HW164436   4.926   1.158   2.889  1.9893 -0.1316  0.2920
21286SOL    HW264437   4.908   1.284   2.807 -0.9038 -0.2110  0.7015
21287SOL     OW64438   0.820   5.635   8.043  0.1482 -0.5800 -0.4007
21287SOL    HW164439   0.892   5.573   8.031 -0.1083 -0.6705 -1.5693
21287SOL    HW264440   0.743   5.580   8.055  0.2352 -0.4819  0.6986
21288SOL     OW64441   9.044   3.673   1.077 -0.6293  0.0151 -0.2559
21288SOL    HW164442   9.037   3.723   1.158 -1.4942 -0.3552 -0.0867
21288SOL    HW264443   8.961   3.690   1.032 -0.6406 -0.7160 -0.5161
21289SOL     OW64444   5.411   3.157   6.695  0.7994 -0.5442 -0.4149
21289SOL    HW164445   5.353   3.121   6.628 -0.8966  1.7048 -0.2774
21289SOL    HW264446   5.461   3.225   6.650  1.6198 -0.8342  0.0298
21290SOL     OW64447   6.718   2.895   8.652  0.2436  0.0839 -0.0041
21290SOL    HW164448   6.660   2.872   8.580  1.4459 -0.4545 -0.8252
21290SOL    HW264449   6.722   2.817   8.706  0.3249  0.0709 -0.0297
21291SOL     OW64450   3.253   3.469   0.656 -0.1614  0.4169 -0.3983
21291SOL    HW164451   3.248   3.438   0.566 -0.3491  1.0630 -0.6179
21291SOL    HW264452   3.168   3.448   0.694 -0.1129  0.2228 -0.3953
21292SOL     OW64453   4.013   8.321   4.498  0.3635  0.2231  0.0523
21292SOL    HW164454   3.962   8.240   4.498 -0.4627  0.7117  1.0448
21292SOL    HW264455   3.999   8.358   4.411  0.5667 -0.5780 -0.3356
21293SOL     OW64456   4.055   7.510   4.913 -0.4013 -0.0647  0.3498
21293SOL    HW164457   4.123   7.456   4.952  0.5934  0.5399 -0.4804
21293SOL    HW264458   4.042   7.582   4.974  0.8489  0.6544 -0.1996
21294SOL     OW64459   1.880   5.744   0.957 -0.8070  0.4603  0.2637
21294SOL    HW164460   1.851   5.832   0.981 -0.2238  0.5583  0.6129
21294SOL    HW264461   1.810   5.687   0.988 -0.5232  0.6738  1.3395
21295SOL     OW64462   8.533   0.682   7.637 -0.1894 -0.2913 -0.1654
21295SOL    HW164463   8.628   0.696   7.638 -0.1703 -0.4056 -0.3275
21295SOL    HW264464   8.508   0.690   7.545 -0.4495  0.4728 -0.0370
21296SOL     OW64465   5.573   2.600   5.036 -0.0593  0.1213 -0.2257
21296SOL    HW164466   5.572   2.661   5.110 -1.2678 -2.0680  1.6928
21296SOL    HW264467   5.654   2.621   4.989  0.9298  1.4048  1.8930
21297SOL     OW64468   7.266   5.321   9.209  0.0963 -0.2944 -0.8300
21297SOL    HW164469   7.263   5.259   9.136  0.7539  0.0087 -1.1194
21297SOL    HW264470   7.237   5.404   9.172  1.1301  0.0307 -0.9356
21298SOL     OW64471   7.485   1.782   9.265  0.0254 -0.2794  0.2696
21298SOL    HW164472   7.477   1.806   9.173 -0.0982 -1.2502  0.0234
21298SOL    HW264473   7.407   1.730   9.283  1.1385 -1.9912  0.3183
21299SOL     OW64474   9.524   4.135   0.962 -0.3105  0.5537 -0.0010
21299SOL    HW164475   9.560   4.047   0.965 -1.7271 -0.0323  2.7034
21299SOL    HW264476   9.582   4.187   1.018 -0.9832  0.6992  0.5740
21300SOL     OW64477   5.286   6.771   5.206  0.4142  0.8124  0.2031
21300SOL    HW164478   5.211   6.829   5.209 -0.6312 -0.4676 -0.1157
21300SOL    HW264479   5.312   6.760   5.297  0.3564  1.4194  0.2959
21301SOL     OW64480   6.574   6.925   6.419 -0.3569  0.0586  0.1282
21301SOL    HW164481   6.581   6.951   6.327  0.7699  1.6613  0.6261
21301SOL    HW264482   6.623   6.843   6.424 -1.5386 -0.7501 -0.9232
21302SOL     OW64483   5.217   7.391   7.930  0.0040 -0.1055  0.2276
21302SOL    HW164484   5.155   7.365   7.998  0.7102  1.1191  1.3937
21302SOL    HW264485   5.299   7.403   7.976  0.2077  2.0482 -0.5946
21303SOL     OW64486   2.842   6.790   8.452  0.1550 -0.7895 -0.6014
21303SOL    HW164487   2.780   6.832   8.511 -1.3616 -2.1568 -1.1598
21303SOL    HW264488   2.815   6.817   8.365  2.5996  1.5119 -0.7785
21304SOL     OW64489   7.496   2.980   7.561  0.0453  0.5338 -0.9863
21304SOL    HW164490   7.424   3.043   7.572  0.8046  1.3345 -0.4172
21304SOL    HW264491   7.514   2.981   7.467 -2.4899 -1.7839 -1.6096
21305SOL     OW64492   3.318   5.423   7.380 -0.0856  0.0827 -0.5227
21305SOL    HW164493   3.307   5.329   7.392  0.9881 -0.0007 -0.1056
21305SOL    HW264494   3.287   5.440   7.291  2.4287 -1.1711 -1.7268
21306SOL     OW64495   8.784   7.096   4.266  0.6693  0.3135 -0.4566
21306SOL    HW164496   8.815   7.095   4.175  1.2054  0.8860 -0.2871
21306SOL    HW264497   8.853   7.141   4.315 -0.6298  2.1124 -0.1527
21307SOL     OW64498   7.944   8.139   9.604  0.6026  0.4331 -0.3171
21307SOL    HW164499   7.959   8.230   9.630  2.1475 -0.2645  1.5149
21307SOL    HW264500   8.017   8.090   9.644  0.3960 -1.4795 -2.0965
21308SOL     OW64501   5.545   6.963   7.974  0.0263 -0.0293  0.2654
21308SOL    HW164502   5.561   7.010   8.055  0.8356 -0.3216  0.2856
21308SOL    HW264503   5.516   6.876   8.002 -1.6447  0.4804  0.2292
21309SOL     OW64504   3.504   0.106   5.931  0.4143 -0.0383 -0.1391
21309SOL    HW164505   3.559   0.027   5.937  0.5481 -0.0094 -0.8938
21309SOL    HW264506   3.433   0.081   5.872  1.0494  0.7365 -1.2597
21310SOL     OW64507   1.235   2.775   9.157 -0.0757  0.2337  0.6824
21310SOL    HW164508   1.205   2.690   9.189 -1.8416  1.1731  1.6754
21310SOL    HW264509   1.321   2.787   9.198 -0.7748 -0.1199  2.3266
21311SOL     OW64510   6.586   1.499   6.291  0.1828 -0.0361 -0.1804
21311SOL    HW164511   6.562   1.478   6.201  1.5203  0.4043 -0.6486
21311SOL    HW264512   6.676   1.530   6.286  0.0731  0.5901  1.2267
21312SOL     OW64513   6.765   3.727   1.414  0.1496 -0.3958  0.2412
21312SOL    HW164514   6.836   3.751   1.355 -0.9631  2.5432 -0.0718
21312SOL    HW264515   6.772   3.790   1.486 -0.6892 -1.6293  1.4548
21313SOL     OW64516   9.508   9.483   2.369  0.2852 -0.2551 -0.2791
21313SOL    HW164517   9.425   9.436   2.365 -0.4570  1.0357 -0.9274
21313SOL    HW264518   9.568   9.432   2.315 -0.8006  0.0969 -1.8774
21314SOL     OW64519   1.356   8.976   2.369 -0.2868  0.0594 -0.2434
21314SOL    HW164520   1.374   9.070   2.369  3.1413 -0.4276 -2.2751
21314SOL    HW264521   1.376   8.948   2.458  2.4678  0.7752 -0.5469
21315SOL     OW64522   1.737   9.577   7.884 -0.0059  0.2260  0.5659
21315SOL    HW164523   1.729   9.668   7.856 -1.0269  0.1498  0.5742
21315SOL    HW264524   1.652   9.556   7.924 -0.8919 -1.5908 -1.9851
21316SOL     OW64525   2.171   2.355   3.030 -0.0928 -0.1554 -0.1165
21316SOL    HW164526   2.181   2.324   2.940 -0.9967 -1.6092  0.2551
21316SOL    HW264527   2.143   2.278   3.079  0.1341  0.6742  1.3694
21317SOL     OW64528   1.861   1.656   3.993  0.6377 -0.3080  0.4815
21317SOL    HW164529   1.945   1.670   4.036  0.9808 -0.6865 -0.0646
21317SOL    HW264530   1.877   1.589   3.927 -0.0559 -0.2777  0.2654
21318SOL     OW64531   1.865   6.098   3.662  0.1737 -0.0071 -0.0808
21318SOL    HW164532   1.853   6.177   3.610 -1.5043 -1.2981 -1.7927
21318SOL    HW264533   1.925   6.124   3.732  1.9691  2.0117 -2.2096
21319SOL     OW64534   1.769   8.321   7.955  0.2463  0.2242  0.4728
21319SOL    HW164535   1.801   8.395   8.006  0.9300 -0.0336  0.4183
21319SOL    HW264536   1.718   8.268   8.017  0.3453  0.3681  0.6745
21320SOL     OW64537   3.375   6.800   9.415  0.7694  0.0628 -0.5125
21320SOL    HW164538   3.320   6.755   9.479 -1.9451  2.0870 -1.2527
21320SOL    HW264539   3.378   6.891   9.445  2.0802  0.4071 -1.5908
21321SOL     OW64540   7.202   4.423   3.984  0.5908 -0.7046 -0.1477
21321SOL    HW164541   7.212   4.328   3.977  1.8985 -0.6602  0.7289
21321SOL    HW264542   7.288   4.454   4.012  0.3410  0.8088 -0.9638
21322SOL     OW64543   2.700   3.340   8.546  0.0033  0.5693 -0.5433
21322SOL    HW164544   2.665   3.429   8.552 -1.1555  0.0279  1.7141
21322SOL    HW264545   2.647   3.298   8.478 -1.9516  0.5954  0.8895
21323SOL     OW64546   9.711   3.193   1.187  0.0861  0.4147 -0.2738
21323SOL    HW164547   9.805   3.190   1.167  0.1770 -0.8670  0.2170
21323SOL    HW264548   9.699   3.126   1.255 -1.0428  1.1790  0.3118
21324SOL     OW64549   8.480   5.953   5.199 -0.6627  0.1945 -0.2335
21324SOL    HW164550   8.469   6.033   5.249  0.7198 -0.1936  0.7532
21324SOL    HW264551   8.394   5.912   5.200 -0.7217  0.2675  1.7551
21325SOL     OW64552   9.789   9.703   3.002  0.0120  0.2968 -0.3001
21325SOL    HW164553   9.862   9.720   3.061  0.6236 -1.6246 -0.4393
21325SOL    HW264554   9.726   9.772   3.020  1.7716  1.8961 -0.0404
21326SOL     OW64555   9.157   7.060   5.950  0.5291  0.0405 -0.1415
21326SOL    HW164556   9.075   7.104   5.927  1.1656  0.5094 -1.6709
21326SOL    HW264557   9.151   7.044   6.044 -1.0115  0.6842 -0.1073
21327SOL     OW64558   0.987   1.560   6.575 -0.3550  0.0431 -0.6203
21327SOL    HW164559   0.901   1.556   6.534 -0.3362  0.3258 -0.6943
21327SOL    HW264560   0.982   1.636   6.633  0.0661  0.4863 -1.1527
21328SOL     OW64561   9.603   7.778   7.336  0.0935  0.3755  0.1452
21328SOL    HW164562   9.584   7.807   7.425  0.5733 -1.0957  0.7537
21328SOL    HW264563   9.683   7.825   7.312 -0.8898  1.9681 -0.1336
21329SOL     OW64564   2.606   1.615   2.646  0.6160 -0.3105  0.3182
21329SOL    HW164565   2.567   1.529   2.638  1.6964 -0.8160  0.2994
21329SOL    HW264566   2.595   1.638   2.739 -0.4150 -0.0870  0.1523
21330SOL     OW64567   8.768   7.577   7.781  0.0585  0.2603  0.0999
21330SOL    HW164568   8.707   7.522   7.731 -0.9368  0.4142  1.0926
21330SOL    HW264569   8.750   7.555   7.872  2.0555 -0.2405  0.4171
21331SOL     OW64570   9.879   9.562   4.179  0.4358 -0.2104 -0.4150
21331SOL    HW164571   9.866   9.649   4.217  0.2921  0.0029 -0.9338
21331SOL    HW264572   9.838   9.502   4.241 -3.4778  0.4267 -2.0715
21332SOL     OW64573   6.568   5.107   0.143  0.5598  0.0095  0.7034
21332SOL    HW164574   6.617   5.082   0.064 -1.1570  0.4297 -0.5590
21332SOL    HW264575   6.477   5.084   0.123  0.1340 -0.3272  2.7845
21333SOL     OW64576   4.685   7.854   7.054 -0.1204 -0.0376 -0.2453
21333SOL    HW164577   4.740   7.825   7.127 -1.9112 -2.0337  0.4258
21333SOL    HW264578   4.630   7.922   7.091 -0.3340 -0.3399 -0.0046
21334SOL     OW64579   2.591   5.273   0.561  0.0663 -0.4863 -0.1819
21334SOL    HW164580   2.625   5.305   0.478  0.1316 -0.8924 -0.3115
21334SOL    HW264581   2.499   5.299   0.560  0.5689  1.5785  0.6394
21335SOL     OW64582   2.359   9.934   4.980 -0.1654  0.1099 -0.0205
21335SOL    HW164583   2.415   9.873   5.028  0.8739 -1.2041 -2.7243
21335SOL    HW264584   2.420   9.987   4.927 -1.3186  0.2999 -1.2191
21336SOL     OW64585   2.634   6.328   9.344 -0.2204 -0.4131  0.2411
21336SOL    HW164586   2.558   6.383   9.362  0.6573  1.0191 -0.2126
21336SOL    HW264587   2.642   6.272   9.422 -0.2584  1.1814  1.4506
21337SOL     OW64588   4.092   9.450   6.983 -0.6390 -0.3490 -0.2349
21337SOL    HW164589   4.116   9.404   7.063  1.0703  2.0004  0.7136
21337SOL    HW264590   4.137   9.402   6.913  0.3789 -0.6507  0.6044
21338SOL     OW64591   1.154   4.630   7.760  0.1317  0.2365 -0.0305
21338SOL    HW164592   1.234   4.682   7.753  0.1945  0.1023 -0.3129
21338SOL    HW264593   1.178   4.558   7.819  1.1712 -1.5572 -2.4837
21339SOL     OW64594   6.204   9.644   1.486 -0.8072 -0.1207  0.1486
21339SOL    HW164595   6.216   9.550   1.498  0.9060 -0.0868 -0.9827
21339SOL    HW264596   6.290   9.676   1.459 -1.9087  1.3642 -1.8998
21340SOL     OW64597   1.156   1.372   5.816  0.2210  0.4872  0.3392
21340SOL    HW164598   1.136   1.440   5.752  1.8790 -0.2058 -1.0249
21340SOL    HW264599   1.135   1.410   5.901 -0.5608  2.0245 -0.5130
21341SOL     OW64600   1.958   9.525   3.648  0.0467  0.0670 -0.0253
21341SOL    HW164601   1.870   9.493   3.670 -1.0507  1.5118 -1.9967
21341SOL    HW264602   1.968   9.604   3.700 -0.1913  0.3778 -0.4482
21342SOL     OW64603   5.792   0.697   0.895 -0.0197 -0.0683 -0.4454
21342SOL    HW164604   5.734   0.741   0.956 -1.8193 -2.5469 -0.1874
21342SOL    HW264605   5.876   0.741   0.905 -1.1260  1.7997  1.3004
21343SOL     OW64606   1.131   2.788   1.887 -0.2702  0.2933  0.1457
21343SOL    HW164607   1.208   2.735   1.865  0.4424  1.1974  0.4022
21343SOL    HW264608   1.166   2.877   1.900 -1.4295  0.8209 -0.2356
21344SOL     OW64609   7.497   5.918   3.367  0.0333  0.0435 -0.3979
21344SOL    HW164610   7.514   5.993   3.424  1.2548 -0.2357 -0.3773
21344SOL    HW264611   7.469   5.957   3.284 -1.7454  0.4563  0.3327
21345SOL     OW64612   3.852   4.723   3.024  0.4004  0.1864 -0.1933
21345SOL    HW164613   3.927   4.670   2.996 -1.0773 -2.1857  0.0229
21345SOL    HW264614   3.782   4.700   2.962 -0.4632  1.5037  0.2476
21346SOL     OW64615   9.983   8.079   6.341  0.0533 -0.2343 -0.4872
21346SOL    HW164616   9.918   8.078   6.271  0.8034  1.4324 -1.2633
21346SOL    HW264617  10.031   8.161   6.328  1.6876 -0.9597  0.6298
21347SOL     OW64618   5.274   0.916   6.555  0.2779  0.4204 -0.0677
21347SOL    HW164619   5.259   0.868   6.474  1.5076  0.3935 -0.2967
21347SOL    HW264620   5.189   0.956   6.576 -0.6340 -1.4153 -0.1420
21348SOL     OW64621   2.613   7.705   8.833 -0.6099 -0.0688  0.2772
21348SOL    HW164622   2.650   7.681   8.918  0.2656  1.1825  0.2685
21348SOL    HW264623   2.593   7.622   8.791  0.1865 -0.7250  1.1656
21349SOL     OW64624   2.186   5.884   9.015 -0.2650  0.0176  0.3438
21349SOL    HW164625   2.246   5.889   8.940 -1.1418  1.0987 -0.3051
21349SOL    HW264626   2.188   5.792   9.041 -0.0166 -0.3911 -1.0678
21350SOL     OW64627   5.192   3.703   4.671  0.0457  0.3529  0.3040
21350SOL    HW164628   5.195   3.783   4.723  0.7152 -0.5415  1.7105
21350SOL    HW264629   5.258   3.715   4.603 -1.1261  1.7119 -0.6376
21351SOL     OW64630   8.055   9.349   9.970 -0.4049  0.3847 -0.4433
21351SOL    HW164631   8.082   9.280   9.909  1.2797  0.0593  0.6323
21351SOL    HW264632   8.101   9.427   9.939  2.2760 -0.2551  1.6220
21352SOL     OW64633   4.451   4.316   2.396 -0.1506  0.1730  0.3297
21352SOL    HW164634   4.483   4.226   2.386  1.5420  0.5265  1.8912
21352SOL    HW264635   4.526   4.370   2.371 -1.3851  1.2204 -1.3398
21353SOL     OW64636   1.516   1.070   1.011 -0.4157  0.0912 -0.1774
21353SOL    HW164637   1.572   1.008   0.964 -0.1142  0.2448 -0.0255
21353SOL    HW264638   1.451   1.098   0.947 -0.0407  0.2551 -0.4859
21354SOL     OW64639   8.425   6.974   0.198 -0.6799  0.3541  0.1788
21354SOL    HW164640   8.464   7.026   0.268 -0.6080 -0.3510  0.6693
21354SOL    HW264641   8.500   6.936   0.152 -0.7511  0.1157  0.2596
21355SOL     OW64642   7.273   6.336   8.725 -0.1339 -0.0739  0.3688
21355SOL    HW164643   7.244   6.295   8.806  0.2611  0.6098  0.8785
21355SOL    HW264644   7.363   6.306   8.714 -0.3577 -0.5793 -0.1026
21356SOL     OW64645   0.630   4.907   5.062 -0.2568 -0.1342  0.4179
21356SOL    HW164646   0.649   4.906   4.969 -0.3957  0.6739  0.3810
21356SOL    HW264647   0.684   4.836   5.098  1.2704  0.7711  0.0126
21357SOL     OW64648   7.021   6.487   8.905 -0.1961 -0.0771  0.4521
21357SOL    HW164649   6.953   6.502   8.971 -0.2201 -0.1604  0.4469
21357SOL    HW264650   7.083   6.559   8.919  0.0484 -0.3654  0.8918
21358SOL     OW64651   3.580   2.253   4.554  0.1965 -0.1698  0.3127
21358SOL    HW164652   3.607   2.185   4.493  0.4759 -0.7620  1.0892
21358SOL    HW264653   3.601   2.335   4.509  1.2984 -0.6022  0.0053
21359SOL     OW64654   6.059   2.855   4.190 -0.3272  0.2578  0.4477
21359SOL    HW164655   6.071   2.863   4.096 -0.6929  0.9518  0.4539
21359SOL    HW264656   6.109   2.777   4.215  0.8882  0.8382 -0.1026
21360SOL     OW64657   7.384   9.448   2.733 -0.4520  0.6404 -0.2457
21360SOL    HW164658   7.417   9.419   2.818  0.4489  0.3802 -0.6709
21360SOL    HW264659   7.289   9.455   2.746 -0.4490 -0.3523  0.4988
21361SOL     OW64660   8.446   4.917   1.467  0.3885 -0.2578 -0.0009
21361SOL    HW164661   8.410   4.894   1.381 -1.4585  2.4010 -0.0588
21361SOL    HW264662   8.368   4.925   1.523  1.2154  1.6316  0.9574
21362SOL     OW64663   5.480   6.142   9.024 -0.0409  1.0956 -0.1523
21362SOL    HW164664   5.569   6.116   9.047  0.0717 -0.2365 -1.8918
21362SOL    HW264665   5.441   6.171   9.107  1.6284  0.5945  0.8531
21363SOL     OW64666   4.897   6.639   5.634  0.0355 -0.3506  0.7055
21363SOL    HW164667   4.976   6.586   5.636 -0.4615 -1.0939  0.7863
21363SOL    HW264668   4.910   6.704   5.704  0.0634 -1.2205  1.5198
21364SOL     OW64669   3.754   5.537   2.327 -0.0361  0.6592  0.0066
21364SOL    HW164670   3.803   5.514   2.406  0.1710  1.2368  0.0502
21364SOL    HW264671   3.675   5.579   2.359 -0.0551  0.6938 -0.0844
21365SOL     OW64672   5.542   9.222   9.120 -0.0094  0.2671  0.1344
21365SOL    HW164673   5.615   9.275   9.152  0.1467  1.5418 -2.1798
21365SOL    HW264674   5.468   9.283   9.114 -0.6212 -0.4519  0.1175
21366SOL     OW64675   6.335   5.905   6.761  0.0627 -0.0269 -0.1572
21366SOL    HW164676   6.280   5.917   6.837 -0.1545  2.1700 -0.5888
21366SOL    HW264677   6.280   5.929   6.686  0.7207 -0.6675 -0.8782
21367SOL     OW64678   2.254   9.346   8.277 -0.5208 -0.2892  0.4739
21367SOL    HW164679   2.216   9.318   8.360  0.4509  0.7956  1.3157
21367SOL    HW264680   2.185   9.330   8.212 -1.0152 -1.8883  1.3329
21368SOL     OW64681   0.280   3.322   8.727 -0.3182 -0.2371  0.7683
21368SOL    HW164682   0.187   3.304   8.741 -0.2492 -1.2564  0.1104
21368SOL    HW264683   0.325   3.274   8.797 -0.2021 -1.6451 -0.2121
21369SOL     OW64684   8.237   9.541   0.196 -0.2593 -0.8123  0.1226
21369SOL    HW164685   8.186   9.573   0.122  1.2075  0.1858 -0.4928
21369SOL    HW264686   8.171   9.528   0.265 -1.2078  2.1974 -0.0290
21370SOL     OW64687   7.536   1.328   5.759 -0.2704 -0.4889  0.4857
21370SOL    HW164688   7.607   1.391   5.770 -0.5995 -0.1960  0.9323
21370SOL    HW264689   7.460   1.369   5.800 -0.9009 -0.4556 -0.6512
21371SOL     OW64690   1.497   8.228   6.248  0.2655  0.2529 -0.1916
21371SOL    HW164691   1.578   8.229   6.300  0.9651  0.9004 -1.2590
21371SOL    HW264692   1.495   8.314   6.206 -0.8490  0.1377 -0.3939
21372SOL     OW64693   1.247   8.909   5.776 -0.4998  0.1686  0.1140
21372SOL    HW164694   1.187   8.974   5.739 -0.3306  0.9577  1.1492
21372SOL    HW264695   1.306   8.887   5.704 -1.3557  0.2067 -0.6099
21373SOL     OW64696   3.312   4.282   0.582 -0.0034 -0.1031 -0.2012
21373SOL    HW164697   3.384   4.232   0.619 -1.5622 -1.9239  0.5664
21373SOL    HW264698   3.254   4.216   0.544 -2.4773  1.0187  1.3922
21374SOL     OW64699   4.402   5.451   4.872 -0.0049  0.3756 -0.2542
21374SOL    HW164700   4.469   5.382   4.870 -0.0505  0.2389  1.5434
21374SOL    HW264701   4.420   5.504   4.794  0.8914 -0.8654 -0.9207
21375SOL     OW64702   9.801   3.229   2.634 -0.1718  0.1557 -0.1562
21375SOL    HW164703   9.752   3.147   2.641  2.2962 -1.8079 -3.0983
21375SOL    HW264704   9.873   3.221   2.696 -0.7301  0.7925  0.5904
21376SOL     OW64705   5.222   3.549   2.880  0.4121 -0.1905  0.0231
21376SOL    HW164706   5.137   3.504   2.884  1.4366 -2.2635 -0.2194
21376SOL    HW264707   5.209   3.617   2.814 -0.6658 -1.4362 -1.1182
21377SOL     OW64708   6.275   7.243   1.216  0.1106  0.3586 -0.0002
21377SOL    HW164709   6.344   7.298   1.252  0.5235 -0.5327  0.6123
21377SOL    HW264710   6.298   7.232   1.124  0.5761  0.3765  0.1151
21378SOL     OW64711   7.921   0.579   0.759 -0.4689 -0.2633 -0.0807
21378SOL    HW164712   7.922   0.603   0.667  1.0326 -2.5863 -0.7673
21378SOL    HW264713   7.828   0.575   0.782 -0.8932 -0.2326 -1.6732
21379SOL     OW64714   2.454   5.845   8.475 -0.3074  0.1059 -0.1231
21379SOL    HW164715   2.423   5.831   8.385 -4.5813 -1.2311  1.3327
21379SOL    HW264716   2.485   5.759   8.503 -4.0920 -1.0312  1.1980
21380SOL     OW64717   9.461   4.418   5.389 -0.2549  0.0640  0.3498
21380SOL    HW164718   9.538   4.451   5.436  0.6065 -0.8807 -0.3600
21380SOL    HW264719   9.422   4.354   5.449 -0.5551  0.6008  0.7420
21381SOL     OW64720   3.383   2.254   0.760  0.2576 -0.2200 -0.4840
21381SOL    HW164721   3.355   2.216   0.677  1.3817 -1.6136 -0.2540
21381SOL    HW264722   3.440   2.188   0.799  1.0766  1.1026  0.6394
21382SOL     OW64723   3.434   0.635   9.725 -0.3560 -0.1954  0.2724
21382SOL    HW164724   3.499   0.565   9.726 -0.2398 -0.1538  2.5416
21382SOL    HW264725   3.385   0.622   9.807 -1.8814  0.9768 -0.4167
21383SOL     OW64726   9.815   2.736   5.129  0.0192  0.0521 -0.0504
21383SOL    HW164727   9.728   2.764   5.099 -1.2826 -2.2375  1.2883
21383SOL    HW264728   9.815   2.752   5.223 -0.3571 -3.0285  0.5803
21384SOL     OW64729   1.871   6.868   5.910 -0.0429  0.3154 -0.0272
21384SOL    HW164730   1.866   6.791   5.967  1.7088 -0.7117 -1.1492
21384SOL    HW264731   1.896   6.833   5.825  0.6004  2.1033 -0.6292
21385SOL     OW64732   5.808   3.800   4.534 -0.0809  0.1522  0.1406
21385SOL    HW164733   5.796   3.728   4.472  0.3589 -1.3078  1.6621
21385SOL    HW264734   5.901   3.822   4.526  0.5471 -1.5624  1.7440
21386SOL     OW64735   4.616   8.886   5.171 -0.1602 -0.2029  0.2878
21386SOL    HW164736   4.538   8.916   5.125 -1.1672 -1.4514  1.1024
21386SOL    HW264737   4.591   8.885   5.264  0.7081 -0.9019  0.5364
21387SOL     OW64738   6.698   5.685   2.413 -0.1962  0.8704 -0.0066
21387SOL    HW164739   6.608   5.673   2.382  0.3953  0.1747 -1.5936
21387SOL    HW264740   6.694   5.670   2.507 -1.4235 -1.1364 -0.3298
21388SOL     OW64741   4.438   8.780   4.927  0.3743  0.1462  0.0622
21388SOL    HW164742   4.394   8.851   4.975  0.6156  0.3436 -0.0092
21388SOL    HW264743   4.478   8.823   4.851 -0.0646 -0.1761 -0.3592
21389SOL     OW64744   5.401   7.419   6.808  0.1983  0.3058  0.6127
21389SOL    HW164745   5.471   7.354   6.806 -0.9394 -0.9327 -0.2162
21389SOL    HW264746   5.404   7.460   6.721 -1.2133 -1.0087 -0.0964
21390SOL     OW64747   1.977   1.296   7.117  0.7657 -0.5075  0.0118
21390SOL    HW164748   2.065   1.291   7.079  1.5059 -0.2036  1.6108
21390SOL    HW264749   1.936   1.371   7.072  0.7150 -1.5789 -1.8489
21391SOL     OW64750   2.771   2.171   9.046 -0.0869 -0.4704 -0.5804
21391SOL    HW164751   2.738   2.085   9.019  0.8513 -1.2836  0.7627
21391SOL    HW264752   2.860   2.175   9.010 -0.2956  0.1641 -1.0489
21392SOL     OW64753   2.510   4.758   8.852  0.0794 -0.5431  0.0905
21392SOL    HW164754   2.545   4.711   8.776  0.0912 -2.2951  1.1348
21392SOL    HW264755   2.418   4.773   8.829 -0.4546 -2.8258  0.4668
21393SOL     OW64756   3.271   7.035   5.425  0.5583 -0.5717 -0.1143
21393SOL    HW164757   3.341   7.062   5.366  1.5069 -1.3713  0.5898
21393SOL    HW264758   3.199   7.010   5.368  1.5336 -1.5408 -0.9555
21394SOL     OW64759   7.437   8.365   5.527 -0.8194 -0.2425 -0.0724
21394SOL    HW164760   7.362   8.421   5.546 -0.2593  1.7256 -2.9545
21394SOL    HW264761   7.428   8.343   5.434  0.9195 -1.9529  0.0966
21395SOL     OW64762   9.117   4.549   4.002  0.7295 -0.2303 -0.0228
21395SOL    HW164763   9.106   4.576   3.911  1.9204 -0.1878 -0.1706
21395SOL    HW264764   9.039   4.497   4.021  0.8813 -0.9895 -1.3559
21396SOL     OW64765   6.797   5.676   1.497 -0.2084 -0.4675 -0.0435
21396SOL    HW164766   6.876   5.652   1.450  0.4731  1.1080  0.2448
21396SOL    HW264767   6.810   5.641   1.586  0.1643 -0.2342 -0.0029
21397SOL     OW64768   5.725   4.514   0.119 -0.3197 -0.5087  0.2115
21397SOL    HW164769   5.643   4.493   0.164 -1.2741  1.5797 -0.4183
21397SOL    HW264770   5.697   4.552   0.035  1.1713  1.9423  0.7187
21398SOL     OW64771   9.321   6.782   0.684  0.1150  0.1283  0.0365
21398SOL    HW164772   9.416   6.795   0.688  0.1780 -0.4279  0.4705
21398SOL    HW264773   9.300   6.784   0.591  0.5475  0.3125 -0.0577
21399SOL     OW64774   2.103   4.594   9.544 -0.3214 -0.0050  0.8917
21399SOL    HW164775   2.055   4.658   9.491  1.2602 -1.1926 -2.2831
21399SOL    HW264776   2.190   4.592   9.505  0.5395 -2.0086  2.7237
21400SOL     OW64777   7.574   8.255   7.325  0.2131 -0.0177  0.3360
21400SOL    HW164778   7.635   8.242   7.398  0.2687  1.8911  0.6779
21400SOL    HW264779   7.487   8.251   7.366  0.1704 -0.7326  0.1874
21401SOL     OW64780   8.854   6.114   5.280  1.1458 -0.4082 -0.0769
21401SOL    HW164781   8.821   6.026   5.260  1.0903 -0.0342 -1.7904
21401SOL    HW264782   8.949   6.107   5.273  1.1180 -0.2394 -0.7135
21402SOL     OW64783   7.954   2.134   6.366 -0.1333  0.5078  0.1006
21402SOL    HW164784   8.017   2.205   6.355 -0.3905  0.8792  0.9275
21402SOL    HW264785   7.874   2.165   6.322  0.2165  0.0630 -0.8922
21403SOL     OW64786   6.459   2.426   5.062 -0.5569  0.0873  0.3032
21403SOL    HW164787   6.370   2.395   5.045 -0.3857 -0.7551  0.8425
21403SOL    HW264788   6.501   2.427   4.976 -1.0602  0.3965  0.0585
21404SOL     OW64789   5.857   8.787   4.829  0.2263 -0.4767  0.0378
21404SOL    HW164790   5.942   8.753   4.856  0.4645 -2.2640 -2.5856
21404SOL    HW264791   5.856   8.777   4.734 -3.8364 -3.0112  0.1019
21405SOL     OW64792   5.600   2.129   9.834  0.8222  0.6460 -0.1259
21405SOL    HW164793   5.669   2.159   9.774  1.1310  0.2667  0.0330
21405SOL    HW264794   5.530   2.193   9.824  0.0531 -0.4368 -2.3848
21406SOL     OW64795   7.826   3.624   5.763  0.2505 -0.3584  0.0526
21406SOL    HW164796   7.801   3.717   5.762 -1.1359 -0.6433  2.0443
21406SOL    HW264797   7.797   3.590   5.679 -2.1441  0.3622  0.5127
21407SOL     OW64798   5.093   5.297   4.394 -0.3305 -0.2484 -0.4905
21407SOL    HW164799   5.077   5.255   4.479 -1.1642  0.0505 -0.4913
21407SOL    HW264800   5.054   5.238   4.330 -0.9160  0.1871 -0.5459
21408SOL     OW64801   2.458   5.798   7.617 -0.3791  1.0107 -0.2983
21408SOL    HW164802   2.457   5.711   7.577 -3.5657 -0.5969  2.7878
21408SOL    HW264803   2.385   5.844   7.576 -0.9886  0.8882  0.6304
21409SOL     OW64804   0.895   8.662   2.870  0.2488 -0.0739 -0.1632
21409SOL    HW164805   0.943   8.713   2.936  0.2670 -0.8964  0.4711
21409SOL    HW264806   0.948   8.670   2.791  1.1296 -0.4808  0.3764
21410SOL     OW64807   3.394   3.673   6.807 -0.3152 -0.8668 -0.4585
21410SOL    HW164808   3.370   3.755   6.765  0.5802 -0.4046 -0.0927
21410SOL    HW264809   3.359   3.679   6.896  0.3943 -0.5509 -0.1927
21411SOL     OW64810   8.713   8.088   1.224  0.5583  0.3224  0.3128
21411SOL    HW164811   8.619   8.077   1.209  0.7687  0.4839 -1.2545
21411SOL    HW264812   8.720   8.120   1.314 -1.0227  2.3053 -0.2271
21412SOL     OW64813   5.753   5.280   9.772  0.2888  0.0145 -0.1599
21412SOL    HW164814   5.692   5.345   9.807 -0.4263 -0.9807  0.4970
21412SOL    HW264815   5.698   5.222   9.718  0.6295 -0.9101  0.4551
21413SOL     OW64816   2.159   9.776   1.393 -0.0660  0.0013 -0.3710
21413SOL    HW164817   2.153   9.788   1.488  1.1331  0.1786 -0.3014
21413SOL    HW264818   2.242   9.729   1.381 -1.4658 -2.4119 -1.1413
21414SOL     OW64819   7.168   3.006   7.797  0.4724  0.5347 -0.4381
21414SOL    HW164820   7.196   3.059   7.723  0.9670 -0.6101 -1.1055
21414SOL    HW264821   7.224   3.033   7.869  0.7434  0.8851 -0.7802
21415SOL     OW64822   5.643   5.594   8.476 -0.4578  0.1951 -0.0155
21415SOL    HW164823   5.653   5.551   8.391 -0.5532  3.6267 -1.9646
21415SOL    HW264824   5.575   5.543   8.520  1.0433 -2.9535 -0.9959
21416SOL     OW64825   7.011   6.568   4.057 -0.1110  0.0112  0.3890
21416SOL    HW164826   7.059   6.534   3.981  0.7986 -0.3369  1.1014
21416SOL    HW264827   7.052   6.651   4.077 -2.7633  2.0270 -1.7590
21417SOL     OW64828   6.915   4.455   6.597 -0.3181  0.0827 -0.2789
21417SOL    HW164829   6.885   4.524   6.537  0.9913  0.8009 -0.1604
21417SOL    HW264830   6.936   4.502   6.678 -0.3860 -0.6170  0.1494
21418SOL     OW64831   3.867   7.917   6.863 -0.2163  0.3926 -0.0335
21418SOL    HW164832   3.852   7.840   6.808 -0.6230  0.7838 -0.4741
21418SOL    HW264833   3.946   7.957   6.827  1.2766 -0.9769  1.5163
21419SOL     OW64834   2.954   4.565   1.928  0.2766 -0.2351  0.4801
21419SOL    HW164835   3.024   4.535   1.987  1.3219  2.7404  0.9190
21419SOL    HW264836   2.992   4.560   1.841  1.3959  2.0005  0.7731
21420SOL     OW64837   1.699   5.283   7.265 -0.6330  0.3110 -0.6484
21420SOL    HW164838   1.650   5.212   7.222 -2.8026  1.1703  0.2651
21420SOL    HW264839   1.697   5.260   7.358 -0.6354  1.1287 -0.4419
21421SOL     OW64840   8.915   2.328   9.893 -0.1960 -0.5875 -0.3663
21421SOL    HW164841   8.960   2.244   9.892  0.6001 -0.1916  0.4141
21421SOL    HW264842   8.970   2.385   9.839 -0.0883 -0.2719  0.0638
21422SOL     OW64843   7.622   8.984   9.610  0.6060 -0.4529  0.9242
21422SOL    HW164844   7.619   8.981   9.706 -0.1097  0.1184  0.9317
21422SOL    HW264845   7.697   8.929   9.586 -1.2345 -3.5200  1.6563
21423SOL     OW64846   9.757   6.425   3.849  0.3600 -0.3898 -0.0229
21423SOL    HW164847   9.705   6.505   3.837  1.0974 -0.0350 -0.9413
21423SOL    HW264848   9.746   6.404   3.942  0.5637  1.0658  0.3605
21424SOL     OW64849   4.908   5.773   8.735  0.2668  0.3885 -0.2478
21424SOL    HW164850   4.876   5.769   8.825  0.6209  0.8115 -0.1027
21424SOL    HW264851   4.934   5.864   8.722  0.5893  0.2429 -0.6492
21425SOL     OW64852   0.905   0.554   9.529 -0.1743  0.1018  0.1538
21425SOL    HW164853   0.972   0.619   9.509 -0.1099 -0.1651 -0.5247
21425SOL    HW264854   0.874   0.525   9.443 -0.2791 -0.6842  0.4546
21426SOL     OW64855   0.083   5.176   7.339  0.7144 -0.2224  0.4119
21426SOL    HW164856   0.175   5.192   7.361  0.4411  0.7615  0.8744
21426SOL    HW264857   0.034   5.205   7.415 -0.0373 -0.0141 -0.1378
21427SOL     OW64858   1.938   4.595   1.048 -0.0064  0.3185  0.0681
21427SOL    HW164859   1.883   4.613   0.972 -1.8758  2.7367  1.7973
21427SOL    HW264860   1.998   4.670   1.052 -1.0043  1.1034  1.7440
21428SOL     OW64861   9.723   8.564   2.120 -0.1262  0.0437 -0.0594
21428SOL    HW164862   9.644   8.510   2.115  0.3681 -0.6163 -1.1029
21428SOL    HW264863   9.793   8.501   2.138  0.0926  0.7018  1.5101
21429SOL     OW64864   5.253   2.445   1.880 -0.3206 -0.1039 -0.2395
21429SOL    HW164865   5.344   2.467   1.900 -0.4108  0.3887 -0.3722
21429SOL    HW264866   5.255   2.413   1.790 -0.2513 -0.2755 -0.1780
21430SOL     OW64867   2.481   5.597   6.254  0.1530  1.2338  0.2501
21430SOL    HW164868   2.571   5.571   6.275  0.9331  3.1369 -0.4926
21430SOL    HW264869   2.444   5.522   6.208  1.8313  0.8994 -0.6125
21431SOL     OW64870   4.318   6.659   2.672  0.3460 -0.5811 -0.5832
21431SOL    HW164871   4.340   6.752   2.661 -1.1412 -0.1429 -0.1942
21431SOL    HW264872   4.396   6.620   2.709  0.8197  0.6409 -0.2418
21432SOL     OW64873   8.780   0.551   5.793 -0.2661  0.1307  0.2632
21432SOL    HW164874   8.790   0.609   5.717 -1.2407  0.0208  0.0337
21432SOL    HW264875   8.691   0.517   5.785  0.1992 -1.2138  0.5270
21433SOL     OW64876   4.295   9.577   7.984 -0.2944  0.5138 -0.3572
21433SOL    HW164877   4.364   9.606   7.924 -1.4419  1.9877 -1.0445
21433SOL    HW264878   4.244   9.514   7.933 -1.6026  2.1773 -1.2316
21434SOL     OW64879   8.238   5.644   5.032 -0.0280  0.0551  0.5138
21434SOL    HW164880   8.246   5.716   5.094 -0.1822  0.2248  0.3364
21434SOL    HW264881   8.146   5.618   5.037 -0.0873  0.2120  0.1926
21435SOL     OW64882   4.491   4.237   3.835 -0.2754 -0.0271 -0.0510
21435SOL    HW164883   4.581   4.211   3.813 -0.8433  0.1816 -2.9099
21435SOL    HW264884   4.482   4.214   3.928  1.7473 -2.7921 -0.4176
21436SOL     OW64885   3.633   4.016   0.129  0.0527 -0.1442  0.3088
21436SOL    HW164886   3.577   4.068   0.187  1.2042 -0.0429  1.3920
21436SOL    HW264887   3.722   4.038   0.157  0.6926  0.3252 -1.9037
21437SOL     OW64888   4.480   3.450   0.698  0.3855  0.4540 -0.1580
21437SOL    HW164889   4.456   3.361   0.672  0.8068  0.2154  0.2693
21437SOL    HW264890   4.473   3.450   0.793 -0.4843  1.1340 -0.2004
21438SOL     OW64891   8.403   9.724   4.865 -0.4509  0.1340  0.0439
21438SOL    HW164892   8.364   9.800   4.907 -1.7397 -0.5284  0.1001
21438SOL    HW264893   8.396   9.742   4.771  0.6110  0.7238  0.0578
21439SOL     OW64894   1.874   9.893   0.842 -0.2646  0.0055 -0.4872
21439SOL    HW164895   1.846   9.863   0.755  0.6196 -1.5820 -0.2482
21439SOL    HW264896   1.966   9.869   0.847 -0.5325 -0.7581  1.2441
21440SOL     OW64897   8.570   8.355   0.148 -0.1745 -0.0576  0.5537
21440SOL    HW164898   8.584   8.260   0.156  0.9351  0.1034  0.6791
21440SOL    HW264899   8.642   8.385   0.093  0.1107  0.8676  1.4198
21441SOL     OW64900   1.320   4.708   1.137 -0.1934 -0.2678 -0.1970
21441SOL    HW164901   1.247   4.651   1.159 -0.1269 -0.8818 -1.4682
21441SOL    HW264902   1.378   4.704   1.213 -0.4978 -1.4119 -0.0117
21442SOL     OW64903   7.657   9.727   4.646 -0.4789 -0.0269  0.1025
21442SOL    HW164904   7.696   9.808   4.612 -0.3261 -0.4047 -0.6685
21442SOL    HW264905   7.563   9.739   4.636 -0.4033 -0.9249 -2.4981
21443SOL     OW64906   7.573   7.844   1.905  0.2445 -0.3176  0.2946
21443SOL    HW164907   7.493   7.814   1.862  0.2452 -1.3287  0.9531
21443SOL    HW264908   7.549   7.850   1.998  0.7735 -0.0904  0.4180
21444SOL     OW64909   7.060   0.511   5.920  0.0585 -0.1376  0.7076
21444SOL    HW164910   7.121   0.559   5.976 -2.4421  1.1783  2.4900
21444SOL    HW264911   7.001   0.467   5.981 -0.9219 -1.1956 -0.9310
21445SOL     OW64912   3.475   7.110   0.425 -0.7269  0.0659 -0.0294
21445SOL    HW164913   3.439   7.157   0.501 -0.2871 -0.1927  0.3425
21445SOL    HW264914   3.508   7.028   0.461 -1.4250 -0.5098 -0.6637
21446SOL     OW64915   6.325   3.487   6.055  0.0652 -0.1774  0.6272
21446SOL    HW164916   6.388   3.549   6.020 -0.3929 -0.5447 -0.9704
21446SOL    HW264917   6.325   3.415   5.992 -1.9746 -0.1636  0.5231
21447SOL     OW64918   8.910   7.155   5.971 -0.0817  0.0666 -0.4612
21447SOL    HW164919   8.843   7.197   5.918 -2.6013 -0.7248  1.8348
21447SOL    HW264920   8.931   7.220   6.039 -1.0076 -0.8257  0.7282
21448SOL     OW64921   9.307   8.258   2.888 -0.6930 -0.4315  0.0841
21448SOL    HW164922   9.388   8.297   2.919 -1.3884  2.3759 -1.2812
21448SOL    HW264923   9.307   8.169   2.925  1.4329  0.5293  2.7233
21449SOL     OW64924   3.860   2.183   1.458  0.1001 -0.0518  0.2405
21449SOL    HW164925   3.824   2.149   1.539 -0.5156 -0.0346 -0.0244
21449SOL    HW264926   3.816   2.134   1.389  0.2407  0.2935 -0.1007
21450SOL     OW64927   2.351   3.339   1.237 -0.1084 -0.5492  0.3800
21450SOL    HW164928   2.270   3.353   1.287  0.7330 -1.8440  2.2100
21450SOL    HW264929   2.394   3.265   1.280  2.7971  1.0184  0.4791
21451SOL     OW64930   2.663   2.013   1.735  0.5177  0.1669  0.7101
21451SOL    HW164931   2.688   2.028   1.826 -0.5574 -1.0180  1.2355
21451SOL    HW264932   2.600   2.083   1.715 -0.5241 -0.5189  1.4526
21452SOL     OW64933   4.771   8.929   4.472  0.2554 -0.3162  0.0669
21452SOL    HW164934   4.680   8.902   4.467  0.6580 -1.6331 -0.3342
21452SOL    HW264935   4.816   8.857   4.516  0.8422  1.0277  1.8245
21453SOL     OW64936   9.801   9.415   7.508 -0.5770  0.0671  0.5425
21453SOL    HW164937   9.809   9.506   7.537  1.4556 -0.1244  0.7423
21453SOL    HW264938   9.731   9.379   7.562 -2.9253  2.0162 -0.9853
21454SOL     OW64939   8.500   6.451   7.170  0.4684  0.0329  0.2250
21454SOL    HW164940   8.493   6.539   7.208  0.0205 -0.7130  1.9466
21454SOL    HW264941   8.416   6.437   7.128  1.0308  0.9368 -1.2889
21455SOL     OW64942   0.413   9.741   8.332  0.1818  0.3715  0.5883
21455SOL    HW164943   0.343   9.677   8.323  0.7728 -0.3201  0.8324
21455SOL    HW264944   0.429   9.746   8.426  1.3313 -0.4358  0.4464
21456SOL     OW64945   1.508   6.818   3.863  0.0097 -0.5353 -0.3353
21456SOL    HW164946   1.449   6.800   3.790  1.8065 -0.7576 -1.8175
21456SOL    HW264947   1.595   6.798   3.829  0.9920 -0.0035  1.6799
21457SOL     OW64948   4.335   2.668   1.000 -0.5259 -0.4591 -0.4710
21457SOL    HW164949   4.390   2.614   0.943  1.1759  1.8896 -1.2083
21457SOL    HW264950   4.376   2.662   1.086  0.3946  0.5194 -0.8121
21458SOL     OW64951   7.915   8.536   5.173 -0.2703 -0.1875 -0.6419
21458SOL    HW164952   7.853   8.607   5.156  1.0974  0.7963 -1.8491
21458SOL    HW264953   7.910   8.480   5.096 -0.9148 -1.0847  0.0428
21459SOL     OW64954   2.571   8.636   8.203  0.1674  0.2125 -0.2741
21459SOL    HW164955   2.523   8.555   8.216  2.3341 -1.4211 -1.7039
21459SOL    HW264956   2.504   8.702   8.185 -1.8889 -0.5320  3.5893
21460SOL     OW64957   7.310   7.605   2.229  0.4844 -0.2265  0.1743
21460SOL    HW164958   7.217   7.628   2.222  0.6162 -0.0889 -1.3995
21460SOL    HW264959   7.322   7.585   2.322 -1.0080  0.2097  0.4971
21461SOL     OW64960   4.493   8.955   4.533 -0.1174 -0.1656 -0.3419
21461SOL    HW164961   4.462   8.961   4.623 -1.4672 -1.0626 -0.7285
21461SOL    HW264962   4.491   8.861   4.513  0.1069  0.0294 -1.3279
21462SOL     OW64963   1.854   9.513   0.599  0.3232 -0.4150 -0.1874
21462SOL    HW164964   1.943   9.530   0.570 -0.0629 -0.9415 -1.7880
21462SOL    HW264965   1.863   9.481   0.688  1.6878  0.0015 -0.1553
21463SOL     OW64966   6.448   6.056   0.017  0.6152  0.1902  0.2052
21463SOL    HW164967   6.513   5.986   0.025  1.1325  0.3562 -1.8411
21463SOL    HW264968   6.500   6.137   0.014  0.2911  0.3845 -0.6509
21464SOL     OW64969   3.492   0.876   6.319  0.0593 -0.4294 -0.2738
21464SOL    HW164970   3.503   0.782   6.331 -1.0994 -0.5287  0.2315
21464SOL    HW264971   3.543   0.915   6.389 -0.4168 -0.7390  0.2559
21465SOL     OW64972   8.820   3.012   2.023 -0.4509 -0.2996  0.0931
21465SOL    HW164973   8.868   3.036   1.944 -1.0673  3.8029  0.7669
21465SOL    HW264974   8.887   3.005   2.091 -0.2775 -0.3913 -0.0860
21466SOL     OW64975   6.899   6.987   4.500  0.0243 -0.3765  0.6477
21466SOL    HW164976   6.874   7.043   4.426 -0.4974  0.4317  1.4177
21466SOL    HW264977   6.876   6.899   4.472 -2.0274  0.1299  0.5803
21467SOL     OW64978   2.501   6.930   1.938  0.4228  0.5967  0.6523
21467SOL    HW164979   2.566   7.001   1.934  0.0176  0.9639  0.5824
21467SOL    HW264980   2.498   6.896   1.849  1.4465 -0.2638  0.9265
21468SOL     OW64981   2.736   6.780   4.054  0.9320  0.4723  0.1670
21468SOL    HW164982   2.720   6.851   3.991 -1.3454  0.5084  0.6981
21468SOL    HW264983   2.658   6.725   4.048  1.0337  0.0088  2.3365
21469SOL     OW64984   8.630   0.226   6.085 -0.2829  0.7203  0.1443
21469SOL    HW164985   8.670   0.262   6.164 -0.5033 -0.3238  0.7409
21469SOL    HW264986   8.544   0.196   6.113 -0.4979  0.6546 -0.5742
21470SOL     OW64987   1.544   6.426   4.905  0.4386 -0.4996 -0.2186
21470SOL    HW164988   1.589   6.434   4.989  0.9214 -0.6721 -0.4556
21470SOL    HW264989   1.613   6.440   4.840  0.0796 -0.4189 -0.5843
21471SOL     OW64990   5.438   8.965   3.636  0.0297 -0.3470 -0.2392
21471SOL    HW164991   5.461   8.950   3.544  0.6122  1.0125 -0.3288
21471SOL    HW264992   5.523   8.963   3.681 -0.1826 -0.2153  0.1591
21472SOL     OW64993   0.235   4.275   7.961  0.4908 -0.1920  0.2497
21472SOL    HW164994   0.258   4.316   7.878  2.2272  0.5844  1.0508
21472SOL    HW264995   0.316   4.278   8.012 -0.6309 -0.2713  2.1336
21473SOL     OW64996   6.304   0.097   8.773  0.0306 -0.3526  0.4146
21473SOL    HW164997   6.380   0.058   8.729 -0.9395 -0.5155 -1.2125
21473SOL    HW264998   6.292   0.046   8.853  2.4408  0.5506  1.4501
21474SOL     OW64999   8.118   2.389   7.511  0.5547 -0.1988 -0.2661
21474SOL    HW165000   8.117   2.482   7.486 -1.0670 -0.1151  0.0091
21474SOL    HW265001   8.026   2.366   7.519  0.9397 -1.0682  2.5187
21475SOL     OW65002   9.923   0.334   5.000 -0.2057 -0.1152  0.6820
21475SOL    HW165003   9.948   0.244   4.979  0.4659  0.4661 -1.1300
21475SOL    HW265004   9.963   0.350   5.085  2.1168 -0.6189 -0.2418
21476SOL     OW65005   6.322   7.470   9.112 -0.4325  0.1491 -0.1692
21476SOL    HW165006   6.344   7.545   9.057  0.9759  0.0720  0.2520
21476SOL    HW265007   6.375   7.482   9.191 -0.7047 -0.9346  0.1955
21477SOL     OW65008   9.147   2.572   1.097  0.2821  0.1483  0.1314
21477SOL    HW165009   9.225   2.612   1.059  0.6017  0.2051  0.8292
21477SOL    HW265010   9.121   2.505   1.033  0.9226  0.1014 -0.0911
21478SOL     OW65011   6.024   6.988   4.036  0.2403  1.1015  0.2412
21478SOL    HW165012   6.043   6.900   4.004  0.4652  0.7836  1.2093
21478SOL    HW265013   5.938   7.009   3.998  0.5654  0.8122 -0.6738
21479SOL     OW65014   4.020   7.984   7.796 -0.5815 -0.1235 -0.0740
21479SOL    HW165015   4.010   7.920   7.726  0.2284 -0.8000  0.4137
21479SOL    HW265016   3.949   8.047   7.782 -1.6936 -1.3798 -0.2738
21480SOL     OW65017   4.122   4.574   7.203  0.5641  0.0710  0.0450
21480SOL    HW165018   4.178   4.595   7.276  0.0940  1.7646 -0.0471
21480SOL    HW265019   4.043   4.536   7.243 -0.3496  2.3990  0.5889
21481SOL     OW65020   4.862   0.078   6.168 -0.9175 -0.7448 -0.0985
21481SOL    HW165021   4.904   0.109   6.248  0.5939 -0.3032 -1.0290
21481SOL    HW265022   4.812   0.154   6.136 -0.9795 -0.7160  0.0675
21482SOL     OW65023   5.090   2.509   5.796  0.1591 -0.2030  0.2746
21482SOL    HW165024   5.161   2.573   5.802  0.8690 -0.8433 -0.8775
21482SOL    HW265025   5.133   2.429   5.765 -0.8981 -0.9092  0.5814
21483SOL     OW65026   0.872   3.190   5.317  0.2483  0.6202 -0.2906
21483SOL    HW165027   0.881   3.285   5.326 -1.3941  0.6779  1.2320
21483SOL    HW265028   0.904   3.154   5.400 -0.6088 -0.0419 -0.2340
21484SOL     OW65029   7.787   7.934   6.676 -0.5909 -0.4442 -0.2692
21484SOL    HW165030   7.748   8.012   6.637 -1.2122 -0.3522  0.5042
21484SOL    HW265031   7.844   7.898   6.608  1.3888  1.8538  0.0606
21485SOL     OW65032   8.353   2.823   5.865  0.2365 -0.4816 -0.1906
21485SOL    HW165033   8.383   2.900   5.913  0.2612  0.0507 -1.0442
21485SOL    HW265034   8.414   2.754   5.892  0.6667 -0.0289  0.0276
21486SOL     OW65035   9.644   9.600   2.703 -0.0650  0.0589 -0.2717
21486SOL    HW165036   9.694   9.581   2.782 -1.2556 -1.1125  0.2315
21486SOL    HW265037   9.628   9.694   2.706  0.8009  0.1950  0.3208
21487SOL     OW65038   0.275   6.872   0.325  0.5862  0.4875  0.1083
21487SOL    HW165039   0.300   6.868   0.417  2.0315 -2.4481 -0.3103
21487SOL    HW265040   0.356   6.895   0.279  0.8869 -1.9094 -0.6825
21488SOL     OW65041   2.339   8.349   2.069 -0.2842 -0.2311 -0.0231
21488SOL    HW165042   2.355   8.443   2.063  1.5521 -0.4839  0.3602
21488SOL    HW265043   2.369   8.325   2.156 -0.6023 -1.1970 -0.1688
21489SOL     OW65044   2.024   7.337   2.245  0.0498 -0.1247 -0.3920
21489SOL    HW165045   2.004   7.243   2.253  0.0243 -0.1368 -0.5893
21489SOL    HW265046   2.119   7.342   2.259 -0.1328 -0.0228  0.9180
21490SOL     OW65047   5.299   6.435   6.746 -0.0231  0.1298  0.5233
21490SOL    HW165048   5.294   6.340   6.751  0.5415  0.0973  0.4796
21490SOL    HW265049   5.288   6.464   6.837 -1.4686  0.0976  0.3941
21491SOL     OW65050   1.955   0.772   0.916 -0.2385 -0.2322  0.0852
21491SOL    HW165051   1.947   0.677   0.916 -0.9607 -0.1828 -0.1253
21491SOL    HW265052   1.944   0.798   1.007  0.9912 -0.4146  0.2984
21492SOL     OW65053   5.148   9.013   6.640 -0.5745  0.2067 -0.8598
21492SOL    HW165054   5.120   9.023   6.731  1.4332  1.3462 -0.2856
21492SOL    HW265055   5.127   9.097   6.599  0.2989  0.4137 -0.9005
21493SOL     OW65056   7.878   4.965   7.444  0.2949  0.2551 -0.0042
21493SOL    HW165057   7.852   4.952   7.353 -0.5630  1.5155  0.0427
21493SOL    HW265058   7.816   4.912   7.495 -1.5089  2.2817  0.0294
21494SOL     OW65059   6.717   3.062   1.736 -0.1293 -0.2841 -0.0096
21494SOL    HW165060   6.668   3.041   1.657  0.0007 -2.2725  0.3999
21494SOL    HW265061   6.687   3.150   1.760 -1.2887 -0.2665 -1.4080
21495SOL     OW65062   2.208   0.105   4.761 -0.0257 -0.0468  0.3336
21495SOL    HW165063   2.218   0.047   4.686 -0.5716 -0.4903  0.5985
21495SOL    HW265064   2.181   0.048   4.833  0.4647  0.3767  0.8635
21496SOL     OW65065   2.304   2.728   1.036  0.3172 -0.2429  0.1827
21496SOL    HW165066   2.385   2.682   1.059 -0.5987 -0.5188  3.5023
21496SOL    HW265067   2.309   2.810   1.085 -0.3976  0.8401 -1.4811
21497SOL     OW65068   8.586   4.090   5.174 -0.3882  0.0066  0.2730
21497SOL    HW165069   8.583   4.033   5.097 -3.4768 -0.5038  0.6352
21497SOL    HW265070   8.679   4.111   5.185  0.4720 -2.1798 -1.8850
21498SOL     OW65071   0.041   0.028   7.981 -0.3294  0.0197 -0.7333
21498SOL    HW165072  -0.027   0.094   7.996 -0.9162 -0.8059  0.3011
21498SOL    HW265073   0.090   0.025   8.063  0.0467 -0.4438 -0.9706
21499SOL     OW65074   4.758   7.516   7.142 -0.2128 -0.0018  0.3756
21499SOL    HW165075   4.764   7.609   7.167 -0.2125 -0.0696  0.6312
21499SOL    HW265076   4.849   7.488   7.135 -0.2121  0.0550  0.1557
21500SOL     OW65077   4.217   2.766   3.486 -0.1119  0.8424 -0.0223
21500SOL    HW165078   4.197   2.684   3.530 -1.2868  3.1717  4.2710
21500SOL    HW265079   4.137   2.787   3.438 -0.3329  0.2165  0.0598
21501SOL     OW65080   4.961   4.856   6.797  0.8729  0.7579 -0.2980
21501SOL    HW165081   4.977   4.762   6.807 -2.8000  0.0284  0.4882
21501SOL    HW265082   4.948   4.867   6.703  0.2691  0.2217 -0.2890
21502SOL     OW65083   1.400   0.910   6.119 -0.4635 -0.1403  0.0391
21502SOL    HW165084   1.412   0.847   6.048  1.2331 -0.5600  0.6528
21502SOL    HW265085   1.333   0.970   6.086 -2.4321 -2.4417 -0.4182
21503SOL     OW65086   7.808   2.279   6.190 -0.4854  0.5423  0.6122
21503SOL    HW165087   7.763   2.302   6.109  0.7594 -0.0902 -0.3010
21503SOL    HW265088   7.798   2.356   6.246 -0.7788  1.2572 -0.3961
21504SOL     OW65089   8.336   1.619   1.973 -0.3097 -0.1945 -0.1553
21504SOL    HW165090   8.386   1.572   1.905  0.9349  0.0721  0.5451
21504SOL    HW265091   8.249   1.630   1.935 -0.3564 -2.1778 -0.7485
21505SOL     OW65092   4.258   9.326   2.899 -0.0215 -0.1586  0.5518
21505SOL    HW165093   4.218   9.389   2.959  1.2428  1.1472  0.0878
21505SOL    HW265094   4.330   9.374   2.858 -2.2587 -0.1730 -3.9210
21506SOL     OW65095   2.095   7.879   9.154  0.0206  0.4795  0.4424
21506SOL    HW165096   2.115   7.969   9.128  0.7340  0.2050  0.0117
21506SOL    HW265097   2.181   7.840   9.172 -0.3788  0.4636  2.5771
21507SOL     OW65098   3.508   2.506   7.650  0.4035 -0.1481  0.0991
21507SOL    HW165099   3.564   2.558   7.592 -0.5391 -0.5043 -1.1950
21507SOL    HW265100   3.547   2.419   7.649  0.4889 -0.1102  0.1317
21508SOL     OW65101   3.239   0.442   3.902 -0.1744 -0.1232 -0.2553
21508SOL    HW165102   3.308   0.504   3.927 -1.6520  1.2697  0.5224
21508SOL    HW265103   3.178   0.443   3.976  0.1745 -3.2564  0.2397
21509SOL     OW65104   4.095   2.970   6.792  0.1381  0.0491  0.0512
21509SOL    HW165105   4.063   2.902   6.733  1.0238  0.0739 -0.4692
21509SOL    HW265106   4.062   2.944   6.878  2.2315 -2.2701  0.2808
21510SOL     OW65107   6.529   9.565   1.985  0.1638  0.5939  0.1725
21510SOL    HW165108   6.518   9.583   1.891  0.6010 -0.8012 -0.1799
21510SOL    HW265109   6.583   9.637   2.017  2.3597 -0.2970 -1.2595
21511SOL     OW65110   4.266   0.952   5.241 -0.4510  0.1007  0.1454
21511SOL    HW165111   4.194   0.890   5.238  0.3091 -0.7700 -0.7330
21511SOL    HW265112   4.225   1.037   5.224 -1.0946 -0.5549 -1.9298
21512SOL     OW65113   4.416   3.794   7.600  0.5346 -0.7431  0.0326
21512SOL    HW165114   4.381   3.829   7.682 -0.2858 -0.1438 -0.5548
21512SOL    HW265115   4.499   3.840   7.587  0.5269 -0.6304  0.3825
21513SOL     OW65116   6.116   3.669   6.026 -0.5226  0.5347 -0.3732
21513SOL    HW165117   6.196   3.639   5.983 -0.1373  1.7883 -0.5729
21513SOL    HW265118   6.051   3.602   6.006  0.5912 -0.7429  0.2032
21514SOL     OW65119   0.699   7.628   7.375  0.1700  0.1522 -0.2185
21514SOL    HW165120   0.632   7.620   7.443  1.1963  0.4864  0.8633
21514SOL    HW265121   0.720   7.538   7.351  0.1983  0.0153  0.3112
21515SOL     OW65122   5.871   1.474   2.165 -0.5956 -0.0012 -0.6275
21515SOL    HW165123   5.845   1.539   2.230 -0.2658 -0.1388 -0.3499
21515SOL    HW265124   5.801   1.474   2.101 -0.5127  0.7594 -0.7246
21516SOL     OW65125   4.411   1.166   4.575 -0.2744 -0.0076 -0.4393
21516SOL    HW165126   4.318   1.151   4.559 -0.3428 -0.7197  0.5413
21516SOL    HW265127   4.414   1.245   4.630 -0.1773  1.0250 -1.8696
21517SOL     OW65128   0.310   5.881   6.801 -0.1462  0.2992  0.6331
21517SOL    HW165129   0.264   5.945   6.746 -0.4240  0.8522  1.5008
21517SOL    HW265130   0.296   5.911   6.890 -0.3096 -0.9991  1.0634
21518SOL     OW65131   0.874   5.189   6.596 -0.2793  0.1693 -0.4582
21518SOL    HW165132   0.897   5.151   6.511  0.1496 -0.2772 -0.1418
21518SOL    HW265133   0.814   5.126   6.635  0.0645  0.0430 -0.1330
21519SOL     OW65134   2.452   8.606   4.434  0.0231  0.4483  0.0753
21519SOL    HW165135   2.534   8.623   4.480  0.8514  0.2424 -1.2538
21519SOL    HW265136   2.395   8.679   4.457  1.1587  1.4627 -0.2415
21520SOL     OW65137   3.102   5.427   4.650  0.1661  0.2197  0.1511
21520SOL    HW165138   3.172   5.491   4.663 -0.1533  0.3847  1.1562
21520SOL    HW265139   3.021   5.476   4.667 -0.1097 -0.3109  0.3876
21521SOL     OW65140   8.582   3.880   9.614  0.1832  0.3047 -0.0489
21521SOL    HW165141   8.495   3.917   9.601 -1.3034 -2.6752  0.3812
21521SOL    HW265142   8.607   3.847   9.528  1.2081  1.7135 -0.3078
21522SOL     OW65143   3.180   7.548   5.646  0.2649  0.0295 -0.5407
21522SOL    HW165144   3.100   7.534   5.697  0.0302  1.6500 -0.3998
21522SOL    HW265145   3.172   7.487   5.573 -1.3065  0.3985 -0.7267
21523SOL     OW65146   3.367   4.901   6.373 -0.3214 -0.2563  0.1522
21523SOL    HW165147   3.462   4.916   6.369 -0.1940  0.0184  2.5276
21523SOL    HW265148   3.347   4.903   6.467 -2.2536 -3.0438 -0.0867
21524SOL     OW65149   0.650   9.550   1.331 -0.6517  0.1537 -0.3212
21524SOL    HW165150   0.582   9.512   1.387 -0.7888 -1.0723 -1.2864
21524SOL    HW265151   0.727   9.556   1.387 -0.6532 -1.4959 -0.0943
21525SOL     OW65152   7.728   2.286   8.345  0.5778  0.2661 -0.1559
21525SOL    HW165153   7.661   2.330   8.398  0.7701 -1.5242  1.6761
21525SOL    HW265154   7.811   2.319   8.381  0.6986 -0.3900  0.1808
21526SOL     OW65155   1.107   4.181   9.284 -0.1039  0.0511  0.1630
21526SOL    HW165156   1.176   4.211   9.344 -1.3374  1.7146  0.8538
21526SOL    HW265157   1.068   4.105   9.328  1.8510 -1.5198 -0.6964
21527SOL     OW65158   3.663   6.962   8.716  0.6339  0.6265  0.4133
21527SOL    HW165159   3.719   6.899   8.671 -0.6130 -1.5571  1.7381
21527SOL    HW265160   3.602   6.992   8.648  0.2847 -0.8034  0.0504
21528SOL     OW65161   0.113   6.644   2.492  0.3453  0.2562  0.3418
21528SOL    HW165162   0.121   6.549   2.496 -1.2787  0.0474 -0.4517
21528SOL    HW265163   0.196   6.677   2.526  1.0208 -1.4386  0.4177
21529SOL     OW65164   6.602   0.664   0.913  0.7916 -0.4878  0.6715
21529SOL    HW165165   6.660   0.587   0.918  1.7828  0.1840 -0.0302
21529SOL    HW265166   6.520   0.629   0.880  1.9285 -0.9636 -1.9279
21530SOL     OW65167   7.700   0.269   3.195  0.7791  0.0258 -0.1111
21530SOL    HW165168   7.649   0.320   3.258  1.7696  1.0244 -0.0948
21530SOL    HW265169   7.641   0.258   3.120  0.1765  0.2451  0.3218
21531SOL     OW65170   2.891   6.801   7.610 -0.0957 -0.1958 -0.5080
21531SOL    HW165171   2.864   6.891   7.627 -1.1543 -0.6965  0.5636
21531SOL    HW265172   2.987   6.805   7.609 -0.1067  0.8018  0.4173
21532SOL     OW65173   6.613   4.645   4.806  0.0988  0.1211 -0.0637
21532SOL    HW165174   6.660   4.610   4.882 -0.1002 -1.4537 -0.6162
21532SOL    HW265175   6.645   4.734   4.796 -0.2859  0.5487  2.1927
21533SOL     OW65176   9.755   0.668   0.462 -0.2168  0.2368  0.1432
21533SOL    HW165177   9.784   0.750   0.501 -1.3672  1.0510 -0.6450
21533SOL    HW265178   9.758   0.683   0.368  0.6563 -1.0334 -0.0536
21534SOL     OW65179   1.669   9.109   5.273  0.0737  0.2735  0.2625
21534SOL    HW165180   1.642   9.037   5.217  1.2120 -1.3563  1.7199
21534SOL    HW265181   1.588   9.155   5.293 -0.5040  0.2060 -1.7235
21535SOL     OW65182   5.307   8.817   3.233 -0.7508 -0.1943 -0.1404
21535SOL    HW165183   5.224   8.831   3.278 -0.8405 -6.4250  2.6731
21535SOL    HW265184   5.373   8.827   3.302 -0.3044 -4.0384  0.2055
21536SOL     OW65185   5.794   1.611   2.366 -0.1967  0.6607 -1.2594
21536SOL    HW165186   5.731   1.541   2.383  0.5204  0.4944  1.1738
21536SOL    HW265187   5.740   1.687   2.346 -1.1715  0.2515 -0.3066
21537SOL     OW65188   7.849   2.737   9.182  0.6680 -0.4369 -0.8667
21537SOL    HW165189   7.882   2.649   9.197  2.0258  0.1605 -0.1512
21537SOL    HW265190   7.881   2.788   9.257  2.0253  1.2134 -2.4754
21538SOL     OW65191   5.067   7.724   5.613  0.1774 -0.2879  0.5577
21538SOL    HW165192   4.987   7.677   5.636 -0.9361  0.7606 -0.9785
21538SOL    HW265193   5.137   7.661   5.627 -0.8480 -1.0881  2.3822
21539SOL     OW65194   9.774   8.227   3.529  0.1572  0.2410  0.0751
21539SOL    HW165195   9.763   8.277   3.449  1.0233  0.8380  0.3150
21539SOL    HW265196   9.701   8.165   3.530 -1.1916  1.7836  0.0016
21540SOL     OW65197   0.085   3.759   2.126  0.0008  0.5897 -0.3186
21540SOL    HW165198   0.093   3.843   2.171  1.0755  0.0383  0.5803
21540SOL    HW265199   0.166   3.752   2.075  0.7885 -0.6863  1.0445
21541SOL     OW65200   9.450   8.544   9.683  0.7630 -0.1449  0.8748
21541SOL    HW165201   9.403   8.619   9.721  0.0545  1.3574 -2.5910
21541SOL    HW265202   9.517   8.584   9.629 -0.1002 -1.9157 -1.6701
21542SOL     OW65203   6.150   8.936   5.560  0.0968 -0.3388 -0.3239
21542SOL    HW165204   6.216   8.871   5.583  0.2634  0.2453  0.9813
21542SOL    HW265205   6.084   8.929   5.629  0.5704  1.4478  0.3943
21543SOL     OW65206   1.555   4.444   0.816 -0.0237  0.0584  0.3520
21543SOL    HW165207   1.522   4.368   0.768  1.7894 -0.5136 -0.0292
21543SOL    HW265208   1.650   4.435   0.815  0.4092  3.2749 -1.3246
21544SOL     OW65209   4.275   1.244   7.124 -0.0719  0.1060  0.4015
21544SOL    HW165210   4.277   1.227   7.029  0.1306 -1.1671  0.6163
21544SOL    HW265211   4.307   1.334   7.133  0.5470  0.0189 -0.6988
21545SOL     OW65212   0.278   3.312   1.384  0.1335 -0.2794  0.1676
21545SOL    HW165213   0.210   3.254   1.419 -0.3154  0.2297  0.1563
21545SOL    HW265214   0.294   3.279   1.295  2.8640 -2.9712  1.4968
21546SOL     OW65215   4.776   4.915   3.535 -0.3163 -0.4209  0.0507
21546SOL    HW165216   4.782   4.912   3.630  2.2647 -1.1502 -0.0687
21546SOL    HW265217   4.798   4.826   3.507  2.3107  0.5569 -1.2909
21547SOL     OW65218   8.758   3.083   1.051  0.3848 -0.1610  0.0455
21547SOL    HW165219   8.721   3.122   0.971 -0.9577  2.3129  1.7429
21547SOL    HW265220   8.692   3.020   1.079 -0.9294  1.5561  1.0433
21548SOL     OW65221   5.973   7.678   8.122  0.1949  0.2672 -0.3817
21548SOL    HW165222   6.030   7.604   8.105  1.8128  1.9567 -3.1132
21548SOL    HW265223   6.024   7.755   8.095 -2.3115  2.1578 -0.1737
21549SOL     OW65224   3.266   3.058   5.713  0.0133  0.0371  0.4421
21549SOL    HW165225   3.228   3.114   5.646  0.1779 -0.6005 -0.1960
21549SOL    HW265226   3.260   3.109   5.794 -1.1687  0.3927  0.1433
21550SOL     OW65227   0.746   4.621   8.019 -0.2594 -0.4767 -0.5710
21550SOL    HW165228   0.817   4.684   8.032  0.0850 -1.2716  1.8775
21550SOL    HW265229   0.790   4.541   7.989 -0.0594 -0.9731  0.9575
21551SOL     OW65230   1.880   1.826   8.837  0.0631 -0.1361  0.1174
21551SOL    HW165231   1.952   1.889   8.835  0.6075 -0.6282  1.8381
21551SOL    HW265232   1.804   1.878   8.863  0.5255 -0.1333  1.6045
21552SOL     OW65233   3.013   4.802   5.546 -0.8539  0.5523 -0.7832
21552SOL    HW165234   2.958   4.778   5.472 -0.0222  0.6596 -1.4630
21552SOL    HW265235   3.094   4.753   5.532 -0.4529  1.0617 -0.2871
21553SOL     OW65236   0.296   5.543   0.054  0.1663 -0.4186  0.3177
21553SOL    HW165237   0.319   5.549   0.147  1.6470 -0.8904  0.0164
21553SOL    HW265238   0.357   5.602   0.010 -2.3549  2.0533 -0.1593
21554SOL     OW65239   7.036   2.269   2.143 -0.3799 -0.4961 -0.6937
21554SOL    HW165240   6.949   2.228   2.146  0.2127 -1.8011 -0.5858
21554SOL    HW265241   7.043   2.304   2.054 -1.5080  0.8091 -0.3119
21555SOL     OW65242   9.145   1.895   7.914  1.2012  0.1047 -0.0005
21555SOL    HW165243   9.172   1.840   7.840  0.2608  1.1394 -1.1619
21555SOL    HW265244   9.091   1.963   7.874 -1.9359 -0.9796  1.9445
21556SOL     OW65245   1.309   8.097   7.411 -0.2743 -0.2758  0.6180
21556SOL    HW165246   1.405   8.104   7.406 -0.3675  0.3640 -0.6684
21556SOL    HW265247   1.281   8.181   7.448 -0.4491  0.4427 -1.0470
21557SOL     OW65248   6.870   1.422   7.117  0.2967  0.2329 -0.0383
21557SOL    HW165249   6.919   1.389   7.193 -0.1124 -1.1100 -0.3344
21557SOL    HW265250   6.804   1.479   7.154 -0.6021 -1.2599  0.7501
21558SOL     OW65251   6.631   8.059   5.748 -0.0553 -0.0153 -0.3096
21558SOL    HW165252   6.552   8.082   5.700 -0.2831 -0.2120 -0.0311
21558SOL    HW265253   6.630   8.114   5.826 -1.4529 -2.0355  1.2044
21559SOL     OW65254   5.265   4.309   9.348  0.4762 -0.0531 -0.2978
21559SOL    HW165255   5.279   4.403   9.361  0.7492 -0.0726 -0.4349
21559SOL    HW265256   5.339   4.281   9.294 -0.6290  0.0248 -1.9226
21560SOL     OW65257   9.884   6.196   9.185 -0.1188 -0.1216 -0.2950
21560SOL    HW165258   9.954   6.234   9.131 -0.0697  0.1146 -0.0677
21560SOL    HW265259   9.861   6.266   9.246  0.8634 -0.8709  0.9744
21561SOL     OW65260   7.690   1.268   6.970  0.4528 -0.5636  0.0014
21561SOL    HW165261   7.679   1.281   7.064  1.4977 -1.2300  0.2400
21561SOL    HW265262   7.610   1.222   6.943  1.0654 -2.3550  1.0138
21562SOL     OW65263   3.927   8.207   5.692 -0.3728 -0.2976 -0.1886
21562SOL    HW165264   3.832   8.203   5.697 -0.3691  0.4011  0.9694
21562SOL    HW265265   3.948   8.299   5.711  0.5049 -0.3375 -0.9238
21563SOL     OW65266   2.650   8.622   5.308  0.1415  0.4087 -0.2068
21563SOL    HW165267   2.733   8.577   5.319 -0.5560 -1.9966 -3.3070
21563SOL    HW265268   2.660   8.671   5.226 -1.0887  1.2290  0.0996
21564SOL     OW65269   6.258   2.230   9.271 -0.0933  0.1419 -0.4149
21564SOL    HW165270   6.327   2.293   9.249  0.0690  1.1025  2.3832
21564SOL    HW265271   6.195   2.238   9.200  1.2979  1.3437 -1.5995
21565SOL     OW65272   1.834   7.793   2.359 -0.6856 -0.4556  0.5504
21565SOL    HW165273   1.805   7.702   2.371 -0.5532 -0.4911  0.6116
21565SOL    HW265274   1.929   7.786   2.347 -0.7896 -0.3938 -0.2985
21566SOL     OW65275   4.082   0.600   8.177  0.0534 -0.1592  0.4083
21566SOL    HW165276   4.129   0.523   8.147 -1.6594 -0.7039 -1.1149
21566SOL    HW265277   4.110   0.670   8.118  0.0136 -0.1488  0.4013
21567SOL     OW65278   7.598   7.641   0.608  0.2736  0.7269 -0.5694
21567SOL    HW165279   7.600   7.629   0.703  1.3796  0.1047 -0.6555
21567SOL    HW265280   7.505   7.637   0.586  0.0693 -0.2844  0.3603
21568SOL     OW65281   0.524   5.758   1.380  0.4953  0.3781 -0.6317
21568SOL    HW165282   0.447   5.701   1.383  0.3503  0.5694 -0.6860
21568SOL    HW265283   0.561   5.753   1.468 -1.0661  2.3149  0.1990
21569SOL     OW65284   2.210   2.646   9.591  0.0957 -0.3631  0.1857
21569SOL    HW165285   2.248   2.629   9.505 -0.1091  1.0148 -0.1885
21569SOL    HW265286   2.235   2.569   9.643  1.5187 -0.5189 -0.6610
21570SOL     OW65287   5.642   2.789   1.471 -0.4776  0.5966 -0.2004
21570SOL    HW165288   5.682   2.795   1.558 -0.2935 -0.2158 -0.2206
21570SOL    HW265289   5.703   2.836   1.413 -1.2642  2.3138  0.3002
21571SOL     OW65290   9.323   6.291   5.573 -0.1200 -0.0492  0.0389
21571SOL    HW165291   9.402   6.261   5.528  0.4055 -0.8346  1.4139
21571SOL    HW265292   9.306   6.378   5.536  1.0004 -0.1525 -0.7649
21572SOL     OW65293   8.609   2.345   1.133  0.0747 -0.5644 -0.4478
21572SOL    HW165294   8.633   2.420   1.187 -2.4479 -0.2479  0.3476
21572SOL    HW265295   8.639   2.269   1.184  0.8700 -0.1663 -0.3089
21573SOL     OW65296   1.452   0.151   0.226 -0.2707  0.4114  0.3220
21573SOL    HW165297   1.449   0.071   0.173  2.1241  0.0712  0.5889
21573SOL    HW265298   1.541   0.185   0.214 -1.1941  3.0565  0.2402
21574SOL     OW65299   0.691   9.162   8.488  0.1797 -0.0374 -0.1434
21574SOL    HW165300   0.782   9.137   8.469  0.1045  0.0070 -0.5704
21574SOL    HW265301   0.671   9.119   8.571  0.9722  0.8612  0.5402
21575SOL     OW65302   5.768   8.714   3.289 -0.6545 -0.0750 -0.0059
21575SOL    HW165303   5.763   8.659   3.367 -0.3853 -1.3964 -0.8702
21575SOL    HW265304   5.861   8.721   3.271 -0.7525 -1.8275 -1.5268
21576SOL     OW65305   8.979   8.076   6.978  0.3749 -0.4013 -0.2044
21576SOL    HW165306   9.042   8.144   6.956  1.0709 -0.5184  1.3218
21576SOL    HW265307   9.016   8.031   7.054 -0.0801 -2.4797 -1.1389
21577SOL     OW65308   8.053   7.304   5.722  0.5277  0.2118  0.0399
21577SOL    HW165309   8.142   7.336   5.710  1.2448 -2.0787 -1.4037
21577SOL    HW265310   8.030   7.331   5.810  2.3426  1.5221  0.1794
21578SOL     OW65311   4.294   9.846   3.333 -0.1086  0.7099  0.0352
21578SOL    HW165312   4.234   9.900   3.384 -1.2844 -0.6982  0.2038
21578SOL    HW265313   4.294   9.887   3.246 -0.0967  1.6185  0.4457
21579SOL     OW65314   6.795   1.040   9.833 -0.3670  0.0088 -0.1835
21579SOL    HW165315   6.755   1.081   9.909 -1.2154 -0.6707 -0.2468
21579SOL    HW265316   6.890   1.049   9.847 -0.5202  1.0917  0.2720
21580SOL     OW65317   4.758   4.967   3.159  0.4104  0.0992 -0.2372
21580SOL    HW165318   4.685   4.975   3.220  1.3292 -0.1877  0.9509
21580SOL    HW265319   4.775   4.873   3.154 -0.4662  0.0049 -1.9672
21581SOL     OW65320   7.006   5.889   1.068  0.4911 -0.0747 -0.1121
21581SOL    HW165321   7.013   5.819   1.132 -0.5424 -0.9183 -0.8793
21581SOL    HW265322   7.051   5.855   0.990 -0.0164  0.0998 -0.4882
21582SOL     OW65323   7.916   5.046   0.835 -0.5121 -0.7124 -0.3019
21582SOL    HW165324   7.904   5.033   0.740  0.9794 -1.5115 -0.4195
21582SOL    HW265325   8.009   5.030   0.849 -0.4095  0.8583  1.0955
21583SOL     OW65326   1.012   7.474   6.191 -0.1175  0.1406 -0.1434
21583SOL    HW165327   1.099   7.439   6.210 -0.0445  0.7327  0.6312
21583SOL    HW265328   0.962   7.458   6.271 -0.4699  0.6100 -0.2687
21584SOL     OW65329   2.438   4.879   9.533  0.4076 -0.7505  0.2889
21584SOL    HW165330   2.460   4.787   9.550  0.5719 -0.9357 -0.8323
21584SOL    HW265331   2.489   4.902   9.456 -0.6159 -0.1162 -0.2222
21585SOL     OW65332   0.614   2.657   0.488  0.2090 -0.7448 -0.8822
21585SOL    HW165333   0.672   2.605   0.432 -0.3159  0.3115 -2.4629
21585SOL    HW265334   0.530   2.610   0.485  0.3653 -1.0651 -0.3935
21586SOL     OW65335   5.876   8.092   2.194 -0.3850 -0.2849 -0.1351
21586SOL    HW165336   5.844   8.088   2.104  1.8339  2.2208 -1.1651
21586SOL    HW265337   5.971   8.096   2.186 -0.0513 -0.9396  2.4017
21587SOL     OW65338   0.605   2.312   9.149  0.4884 -0.2355  0.2388
21587SOL    HW165339   0.626   2.257   9.225 -1.3906 -1.4017 -0.0199
21587SOL    HW265340   0.637   2.261   9.074  2.4027  0.9442  0.1908
21588SOL     OW65341   3.256   9.927   0.557  0.3343 -0.5540  0.0438
21588SOL    HW165342   3.212  10.009   0.579 -0.0840 -1.0919  1.3250
21588SOL    HW265343   3.349   9.950   0.549  0.7319 -0.3977  3.4588
21589SOL     OW65344   9.427   8.729   9.074 -0.5165 -0.0668  0.4264
21589SOL    HW165345   9.358   8.689   9.022 -1.3217  0.4260  1.0822
21589SOL    HW265346   9.499   8.665   9.073 -0.4353  0.0004 -1.3892
21590SOL     OW65347   3.871   5.340   1.264 -0.0705 -0.0772  0.1085
21590SOL    HW165348   3.952   5.356   1.312  0.3630 -2.3997  0.2592
21590SOL    HW265349   3.897   5.344   1.172  0.0101  0.0595  0.1358
21591SOL     OW65350   9.059   7.244   1.509 -0.6275 -0.0441  0.0277
21591SOL    HW165351   8.973   7.202   1.507  0.1103 -1.5874 -0.6760
21591SOL    HW265352   9.077   7.266   1.418 -0.1355 -0.0570  0.1188
21592SOL     OW65353   0.566   8.892   0.641 -0.1355 -0.0684 -0.4256
21592SOL    HW165354   0.516   8.839   0.578 -0.8313 -0.5061  0.4712
21592SOL    HW265355   0.574   8.978   0.599 -0.9204 -0.2402 -0.9537
21593SOL     OW65356   8.840   9.957   3.605 -0.2058  0.6048  0.5453
21593SOL    HW165357   8.856  10.041   3.649  1.1484  0.9929 -0.6426
21593SOL    HW265358   8.926   9.916   3.600 -0.6318 -0.2185 -0.1889
21594SOL     OW65359   8.980   1.240   1.633  0.0294  0.1176  0.2367
21594SOL    HW165360   8.884   1.233   1.634  0.1702 -2.9857  0.0962
21594SOL    HW265361   9.001   1.255   1.541 -0.2686  0.3411  0.1990
21595SOL     OW65362   2.547   2.258   7.563 -0.1431 -0.2427 -0.4974
21595SOL    HW165363   2.464   2.244   7.608 -0.6304  1.7309 -0.6761
21595SOL    HW265364   2.613   2.227   7.625 -0.9660 -1.1799 -0.0559
21596SOL     OW65365   3.218   2.444   9.379 -0.6411  0.1108 -0.9781
21596SOL    HW165366   3.299   2.402   9.352  0.6978  1.8353  0.1460
21596SOL    HW265367   3.153   2.412   9.317  0.8615 -1.3827 -1.8679
21597SOL     OW65368   2.741   6.827   6.347 -0.2663  0.2646  0.6117
21597SOL    HW165369   2.769   6.763   6.281 -0.0651  0.0772  0.8750
21597SOL    HW265370   2.796   6.904   6.331 -0.5961  0.4164  0.2148
21598SOL     OW65371   4.732   3.645   3.006 -0.4201  0.4813  0.0944
21598SOL    HW165372   4.693   3.614   2.924 -0.8765  1.0624  0.0797
21598SOL    HW265373   4.763   3.566   3.050  1.2226  0.2627 -1.3352
21599SOL     OW65374   1.402   8.482   5.286  0.1063 -0.2369 -0.0656
21599SOL    HW165375   1.453   8.438   5.218 -0.7728  1.7216 -2.1277
21599SOL    HW265376   1.315   8.442   5.280  0.3607 -0.9753  0.8754
21600SOL     OW65377   5.181   8.897   0.207  0.7088 -0.2728 -0.2317
21600SOL    HW165378   5.231   8.816   0.202  0.2911 -0.4793 -2.3348
21600SOL    HW265379   5.226   8.950   0.272  1.2036 -2.0384  0.9165
21601SOL     OW65380   5.398   3.109   8.832 -0.5072  0.2215 -0.4806
21601SOL    HW165381   5.332   3.059   8.783 -1.0760 -0.2476  0.6951
21601SOL    HW265382   5.400   3.067   8.918  2.4435 -0.7551 -0.9072
21602SOL     OW65383   0.437   0.599   8.156  0.3946 -0.0331  0.0755
21602SOL    HW165384   0.516   0.653   8.147  0.1471  0.0827 -1.9344
21602SOL    HW265385   0.444   0.535   8.085  0.0410 -1.8621  1.6058
21603SOL     OW65386   2.212   4.917   3.533 -0.4016  0.0001 -0.7840
21603SOL    HW165387   2.218   5.009   3.507 -1.0683  0.4714  0.6451
21603SOL    HW265388   2.302   4.891   3.550 -0.3722  1.0119  0.7973
21604SOL     OW65389   0.844   8.548   8.422 -0.6403  0.4917  0.0577
21604SOL    HW165390   0.873   8.461   8.397  1.4850  1.4637 -1.1777
21604SOL    HW265391   0.754   8.553   8.391  0.0688 -0.3600 -2.3898
21605SOL     OW65392   9.590   9.227   6.764 -0.3848 -0.0712  0.2319
21605SOL    HW165393   9.600   9.307   6.713 -0.6793  0.6038  1.2147
21605SOL    HW265394   9.533   9.171   6.711  0.5649 -0.0185 -0.8884
21606SOL     OW65395   9.804   4.479   5.834 -0.3734 -0.2044  0.9556
21606SOL    HW165396   9.886   4.516   5.868 -0.1149  0.6479 -0.5266
21606SOL    HW265397   9.736   4.535   5.871 -0.0692  0.9521 -0.1629
21607SOL     OW65398   3.929   5.423   0.391  0.0304 -0.3218  0.0352
21607SOL    HW165399   3.928   5.445   0.298  0.2826 -1.9076 -0.3542
21607SOL    HW265400   3.995   5.355   0.400  1.2739  0.9891  1.6917
21608SOL     OW65401   0.123   1.102   6.246  0.4609  0.1911 -0.2887
21608SOL    HW165402   0.189   1.171   6.258  1.3519 -0.5890 -0.5539
21608SOL    HW265403   0.156   1.050   6.173  0.1229 -0.8805  0.2998
21609SOL     OW65404   6.137   6.602   9.066 -0.4137  0.3705 -0.0844
21609SOL    HW165405   6.231   6.592   9.052 -0.2952  0.2772  0.7043
21609SOL    HW265406   6.108   6.516   9.098 -0.7418  0.4308 -0.2116
21610SOL     OW65407   7.928   2.889   5.096  0.1721  0.2185  0.2364
21610SOL    HW165408   7.989   2.842   5.153  0.7387  0.9544  0.2620
21610SOL    HW265409   7.984   2.936   5.034 -0.3738  0.7324  0.1144
21611SOL     OW65410   4.867   6.999   7.585 -0.6088 -0.2337 -0.1349
21611SOL    HW165411   4.864   6.947   7.505  0.5769 -2.4004  1.1346
21611SOL    HW265412   4.954   7.039   7.585 -0.4858 -0.5038  0.2424
21612SOL     OW65413   2.955   7.007   0.120  0.0397 -0.3330 -0.0391
21612SOL    HW165414   2.908   6.924   0.111  0.1207 -0.2706 -1.3847
21612SOL    HW265415   2.969   7.018   0.214 -4.9325  0.9322  0.8364
21613SOL     OW65416   0.999   6.318   1.939 -0.5813  0.4084 -0.7220
21613SOL    HW165417   1.066   6.343   1.875  0.8130  1.8861  1.1785
21613SOL    HW265418   0.956   6.242   1.900  3.3837 -1.8166 -1.3481
21614SOL     OW65419   3.700   1.539   8.552  0.1278  0.2445 -0.3618
21614SOL    HW165420   3.703   1.598   8.477  1.9952 -0.5567 -0.9770
21614SOL    HW265421   3.668   1.456   8.517  0.9756 -0.1262 -0.2854
21615SOL     OW65422   6.417   5.541   1.815 -0.5981 -0.5962  0.3366
21615SOL    HW165423   6.463   5.489   1.880  0.7694  0.6103  0.3734
21615SOL    HW265424   6.448   5.508   1.731 -0.2676 -0.3198  0.3486
21616SOL     OW65425   5.205   3.127   3.538  0.6557  0.3406 -0.4538
21616SOL    HW165426   5.220   3.079   3.456 -0.2620  2.2129 -1.8040
21616SOL    HW265427   5.118   3.100   3.566  0.7607  0.0772 -0.3842
21617SOL     OW65428   3.946   0.097   7.759 -0.1578 -0.5878 -0.3974
21617SOL    HW165429   3.860   0.108   7.799 -0.1097 -1.3849 -0.0659
21617SOL    HW265430   3.931   0.036   7.687  0.0301 -0.3101 -0.6712
21618SOL     OW65431   5.929   5.188   4.857 -0.3631 -0.2068 -0.4223
21618SOL    HW165432   5.869   5.241   4.805  0.9133  1.5485 -0.1872
21618SOL    HW265433   5.920   5.222   4.946  0.2881 -0.5565 -0.2108
21619SOL     OW65434   0.184   8.788   9.355 -0.3467  0.0758 -0.3622
21619SOL    HW165435   0.192   8.693   9.361  1.6150  0.2463  0.1974
21619SOL    HW265436   0.089   8.804   9.358 -0.6626 -1.6600  2.6796
21620SOL     OW65437   8.349   8.699   6.796  0.4392  0.1338 -0.1861
21620SOL    HW165438   8.291   8.756   6.847 -0.6412  0.8245 -2.0758
21620SOL    HW265439   8.437   8.733   6.812 -0.0288  1.2863  0.0315
21621SOL     OW65440   2.266   6.952   0.075  0.0380 -0.0484  0.6055
21621SOL    HW165441   2.289   7.001  -0.004 -0.9401 -0.2695  0.1685
21621SOL    HW265442   2.268   7.017   0.145  2.4867 -0.1629  0.7048
21622SOL     OW65443   9.778   8.278   8.599  0.2815  0.1285  0.6535
21622SOL    HW165444   9.832   8.322   8.533 -1.4045 -0.5621 -1.2818
21622SOL    HW265445   9.727   8.348   8.640  0.1969  0.3998  0.0917
21623SOL     OW65446   4.438   8.816   7.300 -0.2813 -0.6103 -0.1749
21623SOL    HW165447   4.500   8.795   7.230  1.5587 -0.7999  1.4234
21623SOL    HW265448   4.492   8.856   7.368 -1.6654 -1.9566  1.8298
21624SOL     OW65449   7.560   4.614   2.712 -0.1935  0.4804 -0.4001
21624SOL    HW165450   7.580   4.569   2.794 -0.6216  0.9503 -0.0375
21624SOL    HW265451   7.506   4.688   2.737  0.2366  1.0241 -1.0359
21625SOL     OW65452   4.616   7.293   7.839  0.6151 -0.3144  0.2348
21625SOL    HW165453   4.664   7.374   7.818  1.1076 -1.0564 -1.7518
21625SOL    HW265454   4.525   7.321   7.846  0.8210  0.4682 -0.0490
21626SOL     OW65455   4.509   9.270   3.815  0.2370  0.0646  0.4395
21626SOL    HW165456   4.584   9.286   3.758  0.2946  1.5478  0.9025
21626SOL    HW265457   4.546   9.222   3.890  0.5712  0.0867  0.2895
21627SOL     OW65458   7.032   9.969   0.482  0.6010 -0.1691 -0.3634
21627SOL    HW165459   7.015   9.903   0.414 -0.6843 -1.0565  0.7714
21627SOL    HW265460   7.042  10.051   0.433 -1.2554 -0.6119 -1.5906
21628SOL     OW65461   1.748   7.097   9.853 -0.3167 -0.0345 -0.2345
21628SOL    HW165462   1.752   7.010   9.893 -1.4999 -0.5817 -1.2295
21628SOL    HW265463   1.734   7.080   9.760  1.5675  1.2090 -0.8087
21629SOL     OW65464   6.800   2.000   4.551  0.5641 -0.1139  0.0116
21629SOL    HW165465   6.836   1.935   4.490  0.4983 -0.8165  0.7056
21629SOL    HW265466   6.862   2.002   4.623  0.7252  0.8372 -0.1455
21630SOL     OW65467   8.404   1.588   4.853  0.1799  0.4486 -0.3632
21630SOL    HW165468   8.345   1.516   4.874  1.9401 -0.4810  1.7912
21630SOL    HW265469   8.402   1.593   4.757 -0.0293 -2.4907 -0.6083
21631SOL     OW65470   4.769   5.263   2.056 -0.1175  0.6054 -0.0123
21631SOL    HW165471   4.753   5.298   2.143 -0.2341 -0.1587  0.2849
21631SOL    HW265472   4.759   5.168   2.066  0.0453  0.4929 -0.8162
21632SOL     OW65473   0.685   8.802   9.201  0.0027  0.0663 -0.7318
21632SOL    HW165474   0.735   8.725   9.228 -1.2667  0.1479  2.2887
21632SOL    HW265475   0.633   8.773   9.126  0.3605 -1.6805 -0.3405
21633SOL     OW65476   7.893   3.089   1.576  0.2274  0.0231 -0.3411
21633SOL    HW165477   7.963   3.067   1.515  1.3047 -0.6254  1.0806
21633SOL    HW265478   7.938   3.121   1.654 -1.1325  1.3763 -0.0669
21634SOL     OW65479   7.382   9.839   2.878  0.2791  0.0442 -0.2619
21634SOL    HW165480   7.296   9.811   2.845 -0.5254  2.2221 -0.1757
21634SOL    HW265481   7.418   9.892   2.807  1.2652 -0.2558 -0.0030
21635SOL     OW65482   0.295   1.266   3.858  0.4265 -0.0818 -0.3257
21635SOL    HW165483   0.352   1.291   3.786  1.3298  1.8826  0.9886
21635SOL    HW265484   0.327   1.317   3.933 -2.4663  0.4266  0.6983
21636SOL     OW65485   5.559   3.848   9.091 -0.0900  0.1993 -0.2378
21636SOL    HW165486   5.627   3.819   9.031 -1.3487 -0.0668 -1.6031
21636SOL    HW265487   5.504   3.771   9.104 -0.4850  0.5666  0.3373
21637SOL     OW65488   4.031   0.869   6.621  0.3097 -0.4154  0.1032
21637SOL    HW165489   4.034   0.822   6.704  1.7611  0.0412  0.3248
21637SOL    HW265490   4.077   0.951   6.638  1.2276 -0.5978 -1.3231
21638SOL     OW65491   9.445   3.078   7.079 -0.3432  0.2921 -0.4992
21638SOL    HW165492   9.533   3.073   7.040 -1.0844 -0.2607 -2.2443
21638SOL    HW265493   9.435   2.995   7.126 -0.4806 -0.3605 -1.6361
21639SOL     OW65494   4.527   7.447   7.550  0.4294 -0.0091 -0.0355
21639SOL    HW165495   4.471   7.427   7.625  0.6718  1.0100  0.4325
21639SOL    HW265496   4.475   7.421   7.474 -0.3661  0.1883  0.4261
21640SOL     OW65497   1.584   9.157   7.778 -0.3229 -0.1627 -0.3342
21640SOL    HW165498   1.571   9.062   7.774 -0.7368 -0.0780 -1.5881
21640SOL    HW265499   1.495   9.193   7.779 -0.2739  0.1976  3.0302
21641SOL     OW65500   5.774   4.156   3.555 -0.0540  0.1632  0.4856
21641SOL    HW165501   5.819   4.228   3.511  0.2989 -0.3927 -0.0792
21641SOL    HW265502   5.842   4.090   3.567  0.0163  0.5478  2.4537
21642SOL     OW65503   0.947   3.375   8.743  0.8222 -0.2016 -0.3819
21642SOL    HW165504   0.885   3.384   8.816  1.1502 -0.7824 -0.0226
21642SOL    HW265505   0.891   3.365   8.666  0.4682  1.2915 -0.3450
21643SOL     OW65506   0.190   8.805   2.419  0.0007 -0.1035  0.1712
21643SOL    HW165507   0.249   8.743   2.462 -0.4491 -1.1021 -0.6195
21643SOL    HW265508   0.120   8.819   2.483 -0.0781 -0.6937  0.2178
21644SOL     OW65509   7.108   1.313   2.685  0.0179  0.1038  0.0896
21644SOL    HW165510   7.184   1.359   2.720 -0.9591  0.3674  2.0103
21644SOL    HW265511   7.131   1.293   2.594  1.9618  1.0367  0.3340
21645SOL     OW65512   3.879   5.783   8.600 -0.2393 -0.2900  0.3956
21645SOL    HW165513   3.845   5.724   8.533 -1.4152  1.4269 -0.5904
21645SOL    HW265514   3.803   5.807   8.652 -0.0875  1.3808 -0.0741
21646SOL     OW65515   0.291   5.842   8.055 -0.9595 -0.1002  0.1308
21646SOL    HW165516   0.351   5.785   8.102  1.0933 -0.5516 -2.7343
21646SOL    HW265517   0.307   5.929   8.092 -1.0661 -0.7115  1.6903
21647SOL     OW65518   1.762   8.934   8.361  0.2630  0.4985 -0.2453
21647SOL    HW165519   1.743   8.855   8.412 -0.2231 -1.4126 -3.1353
21647SOL    HW265520   1.857   8.932   8.348  0.1142 -0.4538 -1.4301
21648SOL     OW65521   7.070   2.025   6.172  0.1366 -0.1769  0.5108
21648SOL    HW165522   6.979   1.993   6.169 -0.7358  2.1182  0.6468
21648SOL    HW265523   7.120   1.949   6.202 -2.0096 -0.9876  2.4016
21649SOL     OW65524   9.104   4.715   3.188  0.3810 -0.8815 -0.2296
21649SOL    HW165525   9.016   4.678   3.181 -0.7459  1.7665 -1.5677
21649SOL    HW265526   9.143   4.700   3.101 -0.6279  2.0633 -1.2980
21650SOL     OW65527   5.110   1.998   1.204  0.0644 -0.4394 -0.3050
21650SOL    HW165528   5.138   1.944   1.279  1.9482  2.6154  1.4054
21650SOL    HW265529   5.182   2.059   1.191 -2.2604  2.2496 -1.5071
21651SOL     OW65530   6.166   4.680   5.363  0.3307 -0.3674 -0.2469
21651SOL    HW165531   6.119   4.695   5.445  0.8281 -0.2628  0.0268
21651SOL    HW265532   6.110   4.621   5.313  0.1376 -0.6312  0.2749
21652SOL     OW65533   5.511   5.229   8.028 -0.4701 -0.4155 -0.1298
21652SOL    HW165534   5.486   5.321   8.017 -2.4789 -1.1220 -2.1381
21652SOL    HW265535   5.594   5.221   7.982 -0.6938  0.2266 -0.6544
21653SOL     OW65536   3.693   6.643   5.323  0.1938 -0.3500 -0.3652
21653SOL    HW165537   3.709   6.549   5.315 -0.1133 -0.3704 -0.7859
21653SOL    HW265538   3.625   6.662   5.257 -1.3790 -0.2446  1.2164
21654SOL     OW65539   3.205   7.017   3.447  1.4036 -0.1237  0.7768
21654SOL    HW165540   3.281   6.961   3.432  1.2339 -0.6864  1.9401
21654SOL    HW265541   3.164   6.982   3.526 -0.2572 -0.0282  0.0029
21655SOL     OW65542   1.204   8.889   1.027  0.1119  0.7428  0.2563
21655SOL    HW165543   1.122   8.938   1.034 -0.0411  0.7019 -1.1591
21655SOL    HW265544   1.271   8.957   1.014 -0.1152  0.6265 -1.8346
21656SOL     OW65545   9.398   6.409   0.469  0.0067  0.4817 -0.6419
21656SOL    HW165546   9.364   6.348   0.403 -1.1453 -0.6321  0.8961
21656SOL    HW265547   9.329   6.414   0.535  1.3846  0.9862  0.8364
21657SOL     OW65548   3.206   4.655   2.303  0.1002  0.0492 -0.1277
21657SOL    HW165549   3.212   4.724   2.236  1.5236  0.5762  0.4987
21657SOL    HW265550   3.175   4.701   2.381  0.4249 -0.1534  0.1206
21658SOL     OW65551   5.292   3.301   2.673  0.1563  0.2189 -0.3051
21658SOL    HW165552   5.357   3.268   2.611  1.1565 -1.4652  1.5233
21658SOL    HW265553   5.338   3.369   2.722  0.6144 -1.0208  1.0360
21659SOL     OW65554   2.920   6.947   2.485 -0.3672  0.3378 -0.4326
21659SOL    HW165555   2.926   6.870   2.541 -0.8151  1.1350  0.7361
21659SOL    HW265556   2.996   6.939   2.426 -0.5779 -1.1352 -0.5389
21660SOL     OW65557   9.013   2.147   5.581  0.2892 -0.5997  0.2026
21660SOL    HW165558   8.980   2.110   5.663 -0.9560  0.1847  0.0883
21660SOL    HW265559   9.106   2.163   5.597  0.2176 -1.1084  1.2131
21661SOL     OW65560   9.448   2.330   8.530  0.5899  0.1047 -0.1428
21661SOL    HW165561   9.530   2.341   8.480  2.4280 -0.5129  2.5073
21661SOL    HW265562   9.464   2.253   8.585 -2.5796 -1.2069 -0.8444
21662SOL     OW65563   7.663   0.992   6.167 -0.0689 -0.2203 -0.0139
21662SOL    HW165564   7.648   1.086   6.182 -0.9425 -0.0869 -1.4985
21662SOL    HW265565   7.576   0.955   6.158  0.1733 -1.6109  2.6692
21663SOL     OW65566   5.554   5.890   4.022  0.1537  0.6665 -0.4642
21663SOL    HW165567   5.610   5.965   4.001 -0.4560  1.5315  0.9175
21663SOL    HW265568   5.614   5.825   4.058  0.4716  1.0743 -0.2522
21664SOL     OW65569   3.842   5.407   3.769 -0.5134 -0.2253 -0.1832
21664SOL    HW165570   3.877   5.322   3.795 -0.6176 -0.3804 -0.5484
21664SOL    HW265571   3.789   5.435   3.844  0.0480 -0.1799  0.2034
21665SOL     OW65572   5.334   9.128   0.050  0.2774  0.0204  0.3762
21665SOL    HW165573   5.396   9.105  -0.019 -0.3234  0.0302 -0.1724
21665SOL    HW265574   5.286   9.203   0.015  0.1974  0.2377  0.9416
21666SOL     OW65575   2.720   9.677   0.922  0.0273 -0.3346  0.3029
21666SOL    HW165576   2.741   9.670   0.829  0.8547  2.6880  0.1426
21666SOL    HW265577   2.787   9.737   0.957 -0.1116 -1.5565  2.9194
21667SOL     OW65578   2.599   4.511   5.650  0.9199 -0.3713 -0.8037
21667SOL    HW165579   2.594   4.496   5.556  0.9843  2.4908 -1.3521
21667SOL    HW265580   2.690   4.536   5.666  0.4771  0.9958 -0.3271
21668SOL     OW65581   2.419   1.701   0.321 -0.0483 -0.2514  0.7139
21668SOL    HW165582   2.434   1.663   0.234 -0.0525  0.2863  0.4723
21668SOL    HW265583   2.333   1.668   0.347 -2.2344  3.0975 -1.4585
21669SOL     OW65584   8.465   3.239   4.488  0.3351  0.6811  0.0731
21669SOL    HW165585   8.441   3.310   4.548 -0.5558  0.9254 -0.5455
21669SOL    HW265586   8.459   3.159   4.541 -4.2061  0.4002 -0.4714
21670SOL     OW65587   0.052   0.469   7.801 -0.4038 -0.0761 -0.2534
21670SOL    HW165588   0.140   0.459   7.767 -0.1869 -1.5663  0.6471
21670SOL    HW265589   0.060   0.529   7.874  0.0781 -1.0288  0.4970
21671SOL     OW65590   4.427   7.698   0.162 -0.3411  0.4862 -0.1277
21671SOL    HW165591   4.415   7.700   0.257 -0.7229  3.3053 -0.1403
21671SOL    HW265592   4.338   7.700   0.127 -0.1783  0.9061 -0.5232
21672SOL     OW65593   5.767   3.042   3.873  0.0040 -0.1048  0.2325
21672SOL    HW165594   5.786   3.136   3.864 -0.0150 -0.0812  0.4337
21672SOL    HW265595   5.750   3.012   3.784 -0.4836  0.1866  0.2291
21673SOL     OW65596   4.997   1.359   4.057 -0.3721 -0.3941  0.2910
21673SOL    HW165597   4.937   1.425   4.023  1.8690  1.6966  0.0555
21673SOL    HW265598   5.018   1.305   3.981  0.9256  1.2837 -0.6377
21674SOL     OW65599   8.109   3.284   6.261 -0.5422  0.0762 -0.1641
21674SOL    HW165600   8.076   3.306   6.348  0.1006 -0.0326  0.1144
21674SOL    HW265601   8.204   3.301   6.266 -0.7041  1.5279 -1.3051
21675SOL     OW65602   2.723   6.054   6.496  0.2242 -0.0068  0.3299
21675SOL    HW165603   2.665   6.119   6.455  0.0410 -0.0162  0.5760
21675SOL    HW265604   2.787   6.033   6.427  1.3605  1.7363  0.7961
21676SOL     OW65605   2.663   0.190   4.522  0.3393  0.0596  0.0745
21676SOL    HW165606   2.669   0.112   4.576 -1.0818 -0.2147 -0.1171
21676SOL    HW265607   2.682   0.159   4.433 -0.0372 -0.0387  0.0266
21677SOL     OW65608   1.451   3.719   0.437 -0.2354 -0.3091  0.2820
21677SOL    HW165609   1.414   3.807   0.428 -0.5336 -0.6169 -2.6386
21677SOL    HW265610   1.526   3.730   0.495 -0.3117  1.8737  0.0547
21678SOL     OW65611   4.296   3.937   0.453 -0.6812 -0.0449 -0.5324
21678SOL    HW165612   4.349   3.891   0.518  0.0084  2.3647  0.7474
21678SOL    HW265613   4.206   3.924   0.481 -0.4617 -0.1572  0.1308
21679SOL     OW65614   9.778   0.826   6.067 -0.1845  0.4063  0.0259
21679SOL    HW165615   9.781   0.766   6.142  0.3964 -0.1919 -0.4586
21679SOL    HW265616   9.839   0.788   6.004  1.8696  2.6182  0.5240
21680SOL     OW65617   1.722   2.620   5.641  0.6832 -0.2257 -0.1397
21680SOL    HW165618   1.784   2.578   5.700  0.3629 -0.7505 -0.1709
21680SOL    HW265619   1.698   2.551   5.578  1.7231  0.5531 -1.4536
21681SOL     OW65620   9.166   0.790   8.521  0.0008 -0.4951  0.4162
21681SOL    HW165621   9.203   0.874   8.547  0.6078 -0.3353 -0.8826
21681SOL    HW265622   9.074   0.808   8.504  0.3799  0.2374 -1.0876
21682SOL     OW65623   0.103   7.892   4.032  0.0103  0.1158 -0.5773
21682SOL    HW165624   0.060   7.939   3.960  0.4767 -0.7696 -1.4628
21682SOL    HW265625   0.193   7.881   4.002  0.2019 -0.3104  0.1339
21683SOL     OW65626   2.651   9.352   3.964 -0.3175  0.2912  0.0224
21683SOL    HW165627   2.639   9.275   4.019  1.6463 -0.1337 -0.0547
21683SOL    HW265628   2.618   9.326   3.878  1.4404 -0.9651 -0.3277
21684SOL     OW65629   2.418   3.339   0.317  0.5201  0.5939 -0.2146
21684SOL    HW165630   2.510   3.365   0.325  0.7525 -0.3789  0.4235
21684SOL    HW265631   2.374   3.417   0.281  2.0473  0.2285 -3.2235
21685SOL     OW65632   0.394   3.043   7.895  0.2878 -0.4099 -0.3850
21685SOL    HW165633   0.461   3.002   7.950  0.0317 -0.5930 -0.2095
21685SOL    HW265634   0.328   2.975   7.883 -0.1326 -0.0515 -0.1091
21686SOL     OW65635   8.835   5.566   1.340 -0.4094 -0.1343  0.4104
21686SOL    HW165636   8.820   5.491   1.398 -0.1276  0.0191  0.6806
21686SOL    HW265637   8.927   5.586   1.350  0.0038 -1.0334 -1.2026
21687SOL     OW65638   8.735   5.795   0.207 -0.3317 -0.2799  0.2252
21687SOL    HW165639   8.729   5.735   0.282 -1.9928 -1.5547 -0.8604
21687SOL    HW265640   8.803   5.756   0.152  0.7001  0.5114  0.9008
21688SOL     OW65641   0.138   2.412   5.024  0.4874 -0.3961  0.0497
21688SOL    HW165642   0.080   2.485   5.046  0.5398 -0.7067  1.3364
21688SOL    HW265643   0.081   2.346   4.985  0.0048 -0.5598  0.9915
21689SOL     OW65644   5.256   5.459   3.935 -0.3891 -0.0811  0.4087
21689SOL    HW165645   5.332   5.401   3.946  0.9773  1.9680  2.6962
21689SOL    HW265646   5.180   5.402   3.949  0.6517 -2.1012 -1.5348
21690SOL     OW65647   7.332   0.705   5.720  0.3810 -0.0738 -0.4207
21690SOL    HW165648   7.354   0.732   5.809  0.1106 -0.5943 -0.1987
21690SOL    HW265649   7.386   0.628   5.704 -1.2776 -1.3890  0.1412
21691SOL     OW65650   3.297   6.259   8.140 -0.3656  0.2302  0.3938
21691SOL    HW165651   3.254   6.344   8.139 -0.8647  0.0925 -3.1846
21691SOL    HW265652   3.389   6.278   8.124 -0.5210  0.1295 -0.6945
21692SOL     OW65653   3.260   8.815   3.854 -0.0111  0.3231 -0.2090
21692SOL    HW165654   3.349   8.828   3.820  0.4884  2.7439  1.7817
21692SOL    HW265655   3.245   8.889   3.912 -3.0700 -0.4508  0.1590
21693SOL     OW65656   0.678   7.772   0.094 -0.7019  0.5148  0.0964
21693SOL    HW165657   0.735   7.697   0.114 -0.5791  0.9622  1.4971
21693SOL    HW265658   0.604   7.733   0.048  0.6363 -0.1068 -1.6628
21694SOL     OW65659   1.524   9.702   4.540  0.1756 -0.6536 -0.0724
21694SOL    HW165660   1.614   9.685   4.513  0.5696  0.5937  0.3844
21694SOL    HW265661   1.525   9.693   4.636  0.6368  2.6080  0.3219
21695SOL     OW65662   5.403   9.927   7.520 -0.0846  0.4679 -0.6292
21695SOL    HW165663   5.355   9.962   7.445  0.7833  2.7465 -0.2068
21695SOL    HW265664   5.425  10.004   7.573  0.6106 -0.9145  1.2149
21696SOL     OW65665   9.678   1.477   8.608  0.8423 -0.5821 -0.6271
21696SOL    HW165666   9.670   1.383   8.590  0.8387 -0.8655  0.7373
21696SOL    HW265667   9.736   1.510   8.539 -1.5362 -0.9640 -2.9902
21697SOL     OW65668   6.259   8.934   6.355  0.4381  0.3724 -0.1532
21697SOL    HW165669   6.255   8.930   6.451  1.3921  2.1178  0.0032
21697SOL    HW265670   6.182   8.987   6.331 -0.2108 -0.6694 -0.4351
21698SOL     OW65671   6.043   6.197   2.604 -0.6391 -0.1867 -0.1887
21698SOL    HW165672   6.010   6.143   2.676  0.2065 -0.5622 -0.0779
21698SOL    HW265673   5.966   6.212   2.549 -1.3412  0.2528  0.8779
21699SOL     OW65674   1.429   8.973   6.852  0.2442 -0.0181  0.5924
21699SOL    HW165675   1.400   9.038   6.787  0.4918 -0.3720  0.1189
21699SOL    HW265676   1.511   8.938   6.816 -0.1772 -1.0017  0.5543
21700SOL     OW65677   4.262   0.135   8.678 -0.6947  0.3130  0.3124
21700SOL    HW165678   4.346   0.177   8.696 -0.7890  0.8572 -0.4397
21700SOL    HW265679   4.284   0.044   8.659 -0.2437  0.5122 -0.1441
21701SOL     OW65680   6.037   0.243   6.888 -0.4787  0.8978  0.4982
21701SOL    HW165681   6.003   0.327   6.858 -0.9323  1.0249  1.3334
21701SOL    HW265682   6.093   0.265   6.963  1.2435  0.6629 -0.6726
21702SOL     OW65683   8.842   0.082   1.678  0.0172  0.3144 -0.2134
21702SOL    HW165684   8.932   0.087   1.710  0.1677 -1.9310 -0.1839
21702SOL    HW265685   8.831  -0.008   1.649 -1.6595  1.0059 -1.9845
21703SOL     OW65686   9.734   1.960   3.950 -0.0321  0.9376  0.1727
21703SOL    HW165687   9.817   2.007   3.948 -0.3891  1.5699 -1.6023
21703SOL    HW265688   9.676   2.015   4.002 -0.0196  1.7519 -0.6492
21704SOL     OW65689   6.671   5.215   2.162 -0.0115  0.0826 -0.4983
21704SOL    HW165690   6.746   5.156   2.154  1.9776  2.1375  1.5388
21704SOL    HW265691   6.608   5.165   2.214  1.1110 -0.7133  0.1461
21705SOL     OW65692   8.542   2.874   1.978 -0.5275 -0.1858 -0.3712
21705SOL    HW165693   8.506   2.862   2.066 -0.5199  0.4642 -0.2767
21705SOL    HW265694   8.623   2.924   1.991 -1.2880  1.2415 -0.8554
21706SOL     OW65695   5.503   7.369   7.997  0.0605  0.2197  0.4522
21706SOL    HW165696   5.529   7.291   8.047  0.8388 -0.3007 -0.7170
21706SOL    HW265697   5.583   7.396   7.951 -0.9918 -0.3856 -1.8862
21707SOL     OW65698   8.229   3.637   5.407  0.1678 -0.0505 -0.1526
21707SOL    HW165699   8.270   3.556   5.374  2.0191  0.3969  0.9227
21707SOL    HW265700   8.152   3.648   5.352  1.5498 -0.8927 -2.4164
21708SOL     OW65701   7.942   2.241   4.990  0.3986 -0.2464  0.9771
21708SOL    HW165702   7.964   2.177   4.922 -3.5110 -0.5518 -0.2072
21708SOL    HW265703   7.905   2.188   5.061  0.1115  0.4451  1.3463
21709SOL     OW65704   6.919   9.438   4.670 -0.4441 -0.3694 -0.0292
21709SOL    HW165705   6.905   9.343   4.673  0.3709 -0.5192 -0.6106
21709SOL    HW265706   6.872   9.467   4.592  1.3059 -0.6918 -1.2827
21710SOL     OW65707   2.449   6.641   5.038 -0.3146 -0.0147  0.2277
21710SOL    HW165708   2.532   6.597   5.016 -0.5146  0.0313 -0.6441
21710SOL    HW265709   2.472   6.702   5.108  0.0937 -1.0613  1.0449
21711SOL     OW65710   9.078   9.792   9.392  0.8331 -0.0218  0.0321
21711SOL    HW165711   9.124   9.874   9.372 -1.2070  1.1168 -0.1946
21711SOL    HW265712   9.060   9.797   9.486 -1.6641  1.1265 -0.4413
21712SOL     OW65713   7.775   5.711   8.431  0.2910 -0.6005 -0.4254
21712SOL    HW165714   7.751   5.626   8.394 -0.6580 -0.4737 -0.1275
21712SOL    HW265715   7.722   5.774   8.382  0.2087 -0.2795  0.0668
21713SOL     OW65716   4.154   6.537   2.140 -0.1298 -0.2340  0.0263
21713SOL    HW165717   4.059   6.534   2.141 -0.1685 -0.0341 -1.3081
21713SOL    HW265718   4.176   6.629   2.153 -0.2613  0.2925 -2.7142
21714SOL     OW65719   2.663   4.021   7.555 -0.0960  0.3564  0.2584
21714SOL    HW165720   2.608   4.086   7.599 -1.0010  0.1247 -0.4950
21714SOL    HW265721   2.716   4.072   7.494  1.6470  0.7634  2.0070
21715SOL     OW65722   5.045   1.373   5.057 -0.1267  0.0445 -0.1519
21715SOL    HW165723   5.015   1.454   5.099 -0.7237 -0.5121  0.5261
21715SOL    HW265724   4.977   1.309   5.079  0.8826 -0.9155  0.2436
21716SOL     OW65725   8.518   1.836   0.706 -0.0256 -0.2794 -0.2531
21716SOL    HW165726   8.445   1.825   0.646  0.7656 -2.0873 -0.9689
21716SOL    HW265727   8.595   1.808   0.655  0.9235 -0.1291  1.0419
21717SOL     OW65728   1.826   5.907   6.855  0.0730  0.0649  0.2061
21717SOL    HW165729   1.817   5.919   6.949 -1.5820 -0.8830  0.2081
21717SOL    HW265730   1.743   5.866   6.828  1.2669 -1.4856 -1.3462
21718SOL     OW65731   1.333   0.426   6.130 -0.3553  0.2871 -0.2375
21718SOL    HW165732   1.382   0.345   6.119  1.2453  1.2749 -0.8058
21718SOL    HW265733   1.397   0.488   6.165 -1.8439  1.0064  1.3574
21719SOL     OW65734   4.720   1.507   9.166  0.2832 -0.0768 -0.3793
21719SOL    HW165735   4.652   1.484   9.103 -1.5437  0.5308  1.2641
21719SOL    HW265736   4.716   1.603   9.172 -0.5029 -0.1743  1.5439
21720SOL     OW65737   3.052   7.703   2.970  0.0013 -0.0767  0.7444
21720SOL    HW165738   3.066   7.742   2.883  0.3965  0.1249  0.8967
21720SOL    HW265739   3.087   7.614   2.961  0.6634  0.1655  0.8910
21721SOL     OW65740   8.095   8.520   4.858  0.4382 -0.2029  0.2952
21721SOL    HW165741   8.089   8.543   4.765  1.6744  2.0937  0.6987
21721SOL    HW265742   8.019   8.464   4.874  0.7988 -1.5916 -2.3145
21722SOL     OW65743   1.664   8.529   9.949 -0.7557  0.1998  0.3751
21722SOL    HW165744   1.604   8.477  10.003 -0.9608 -0.8495 -0.8004
21722SOL    HW265745   1.750   8.489   9.964 -0.8741 -0.3547 -0.3349
21723SOL     OW65746   4.821   2.195   1.973  0.1852 -0.3174 -0.2182
21723SOL    HW165747   4.798   2.168   1.884  0.0324  1.5875 -0.7973
21723SOL    HW265748   4.746   2.248   2.002  0.5800 -0.2733  0.7369
21724SOL     OW65749   3.298   0.746   3.735  0.5815  0.2426 -0.3815
21724SOL    HW165750   3.339   0.697   3.664  0.0777  1.0318 -1.2324
21724SOL    HW265751   3.320   0.837   3.718 -0.4052  0.5467 -0.1158
21725SOL     OW65752   9.100   8.619   5.718  0.3609 -0.1131 -0.2798
21725SOL    HW165753   9.048   8.539   5.715  0.7489 -0.4701  1.3662
21725SOL    HW265754   9.176   8.601   5.662 -0.2460 -0.3464 -1.0456
21726SOL     OW65755   6.176   9.665   8.808  0.2845  0.3240 -0.0026
21726SOL    HW165756   6.215   9.581   8.786 -1.0285  0.0621 -1.5009
21726SOL    HW265757   6.172   9.712   8.725 -2.1924  0.4464  0.1091
21727SOL     OW65758   4.563   3.370   3.956  0.1484 -0.3556 -0.2775
21727SOL    HW165759   4.612   3.288   3.955 -0.9220 -1.0516  0.9969
21727SOL    HW265760   4.622   3.432   3.999  2.1320  0.4178 -3.7449
21728SOL     OW65761   3.057   1.537   2.329 -0.7165  0.7407 -0.1948
21728SOL    HW165762   3.025   1.581   2.408 -1.6931  0.1672 -0.2592
21728SOL    HW265763   3.139   1.583   2.308  0.7178 -0.4323  2.3495
21729SOL     OW65764   9.621   0.585   2.882 -0.0522 -0.0607 -0.1904
21729SOL    HW165765   9.659   0.672   2.895 -0.7750 -0.1702  3.9373
21729SOL    HW265766   9.694   0.524   2.900  0.2961 -0.3970 -2.4703
21730SOL     OW65767   1.677   1.026   5.475 -0.4724 -0.2165  1.2150
21730SOL    HW165768   1.642   1.105   5.433 -0.1370 -1.0873 -0.7745
21730SOL    HW265769   1.604   0.993   5.528 -0.7079  1.2266  1.8633
21731SOL     OW65770   4.207   7.627   3.705  0.1555 -0.4660  0.1777
21731SOL    HW165771   4.212   7.705   3.650 -0.0823 -0.5590  0.0273
21731SOL    HW265772   4.120   7.591   3.690  0.7816 -1.6208 -0.9144
21732SOL     OW65773   5.960   3.056   4.502  0.6238  0.3302 -0.3111
21732SOL    HW165774   6.001   3.062   4.588  0.0768 -1.4676  0.1087
21732SOL    HW265775   6.033   3.053   4.441  1.0657 -0.2970  0.2329
21733SOL     OW65776   2.541   6.032   2.462  0.5872  0.3605 -0.0332
21733SOL    HW165777   2.568   6.099   2.525  1.0184 -0.3704  0.5771
21733SOL    HW265778   2.447   6.045   2.451  0.1797 -0.4466  1.9589
21734SOL     OW65779   4.698   3.911   3.011  0.5273 -0.1050 -0.1624
21734SOL    HW165780   4.604   3.918   3.028  0.8787  2.0795  1.4209
21734SOL    HW265781   4.713   3.818   2.994 -2.1156 -0.3047 -2.0097
21735SOL     OW65782   0.701   1.227   7.225 -0.0693 -0.1553 -0.0602
21735SOL    HW165783   0.698   1.321   7.205 -1.2491  0.0010  0.7806
21735SOL    HW265784   0.750   1.222   7.307 -0.0825 -0.2755 -0.0600
21736SOL     OW65785   9.165   6.846   8.608  0.4539 -0.1399 -0.1146
21736SOL    HW165786   9.221   6.908   8.656 -0.3353 -0.5645  1.4357
21736SOL    HW265787   9.099   6.901   8.566  0.5729  0.1728  0.1058
21737SOL     OW65788   8.710   1.471   2.054 -0.3557  0.1786  0.1744
21737SOL    HW165789   8.639   1.517   2.099 -0.6903 -1.3052  1.2113
21737SOL    HW265790   8.783   1.473   2.116  0.2980  1.0427 -0.5880
21738SOL     OW65791   9.357   9.896   8.033 -0.4479  0.4721 -0.3611
21738SOL    HW165792   9.428   9.929   7.979 -0.4841  0.6911 -0.2742
21738SOL    HW265793   9.322   9.821   7.983  0.4809 -0.2577  0.0710
21739SOL     OW65794   9.751   6.231   5.824  0.1266 -0.1374  0.5824
21739SOL    HW165795   9.772   6.323   5.814  0.7228 -0.5265 -3.5240
21739SOL    HW265796   9.828   6.192   5.866 -0.4131  1.1977  3.0121
21740SOL     OW65797   4.349   2.393   7.490  0.0869 -0.3135 -0.1231
21740SOL    HW165798   4.404   2.468   7.512 -2.1690  0.7168  2.7631
21740SOL    HW265799   4.292   2.425   7.421  0.4890 -0.0706 -0.3494
21741SOL     OW65800   8.552   2.366   2.387  0.3864  0.5499  0.5878
21741SOL    HW165801   8.569   2.458   2.408  0.7855  0.3351  1.2339
21741SOL    HW265802   8.492   2.336   2.455 -2.0992  1.0829 -1.2326
21742SOL     OW65803   1.923   5.194   4.430 -0.3263  0.0708  0.2996
21742SOL    HW165804   1.885   5.124   4.484 -0.9446 -0.0118 -0.2328
21742SOL    HW265805   1.998   5.224   4.480  0.7457 -1.8713 -0.0604
21743SOL     OW65806   0.902   5.219   6.248  0.3266  0.1497  0.1638
21743SOL    HW165807   0.948   5.149   6.294  1.3531  0.3295 -0.5715
21743SOL    HW265808   0.863   5.177   6.171  0.2935  0.2435  0.1282
21744SOL     OW65809   8.759   9.616   9.401  0.1445 -0.2974  0.5700
21744SOL    HW165810   8.823   9.682   9.427  1.7306 -1.7925  0.6610
21744SOL    HW265811   8.800   9.571   9.327 -0.0234 -2.3930  1.6851
21745SOL     OW65812   1.394   0.241   5.426  0.3076  0.0410  0.2281
21745SOL    HW165813   1.438   0.175   5.373  0.5517  1.7429 -1.8412
21745SOL    HW265814   1.302   0.237   5.399  0.0951 -0.2521  0.9785
21746SOL     OW65815   6.363   1.680   8.000  0.5267 -0.3725 -0.6390
21746SOL    HW165816   6.323   1.753   7.952 -2.7019 -1.8527 -0.4645
21746SOL    HW265817   6.341   1.696   8.091  0.0398 -1.3899 -0.5674
21747SOL     OW65818   7.149   4.899   7.741 -0.0900 -0.4172 -0.0001
21747SOL    HW165819   7.088   4.905   7.815 -1.2274 -0.7285 -0.8887
21747SOL    HW265820   7.136   4.980   7.692 -0.4216 -0.8738 -0.6722
21748SOL     OW65821   0.645   7.110   4.826 -0.6046 -0.5328  0.0644
21748SOL    HW165822   0.630   7.183   4.887  0.5871 -0.7744  0.6733
21748SOL    HW265823   0.731   7.076   4.850 -1.3320 -2.4521  0.1055
21749SOL     OW65824   4.138   6.353   8.018  0.3894  0.6912 -0.3036
21749SOL    HW165825   4.055   6.345   8.065  0.7829  0.7529  0.4188
21749SOL    HW265826   4.145   6.447   7.998  0.1755  0.6506 -0.5660
21750SOL     OW65827   4.456   1.565   9.749 -0.8863 -0.9057  0.4230
21750SOL    HW165828   4.389   1.577   9.682 -1.2908 -3.5347  0.2463
21750SOL    HW265829   4.409   1.568   9.832 -0.9790 -1.1974  0.3822
21751SOL     OW65830   9.734   1.493   1.432 -0.3385  0.4260  0.1988
21751SOL    HW165831   9.698   1.581   1.425  0.6479  0.7832 -0.6347
21751SOL    HW265832   9.766   1.473   1.345  3.2405  0.9363  1.2379
21752SOL     OW65833   6.408   9.123   0.436 -0.3746 -0.3474  0.1933
21752SOL    HW165834   6.326   9.168   0.458 -1.2467 -1.5903 -0.3528
21752SOL    HW265835   6.446   9.176   0.367 -1.4149 -0.4663 -0.4958
21753SOL     OW65836   3.771   7.104   4.550 -0.4965  0.4284 -0.3986
21753SOL    HW165837   3.680   7.126   4.529 -0.8169  0.7937  1.2021
21753SOL    HW265838   3.764   7.025   4.604 -0.0379  1.4815  1.2661
21754SOL     OW65839   6.461   0.397   8.283  0.0621 -0.2229 -0.2702
21754SOL    HW165840   6.377   0.405   8.238 -0.1378 -0.4266  0.0610
21754SOL    HW265841   6.458   0.465   8.351  0.0822 -0.3551 -0.1351
21755SOL     OW65842   6.329   9.901   3.866 -0.3121 -0.3697 -0.1086
21755SOL    HW165843   6.409   9.852   3.888  0.7813  0.2893 -2.3011
21755SOL    HW265844   6.268   9.880   3.936  2.4890  0.8763  2.9507
21756SOL     OW65845   9.615   7.537   5.470 -0.1348 -0.5202  0.2100
21756SOL    HW165846   9.524   7.541   5.440  0.4023  0.0749 -1.4808
21756SOL    HW265847   9.637   7.444   5.464 -0.7870 -0.7424  1.1536
21757SOL     OW65848   3.126   4.052   4.923 -0.2848  0.1656  0.5326
21757SOL    HW165849   3.101   4.129   4.974  0.9783  0.0825  1.2971
21757SOL    HW265850   3.051   3.993   4.931 -0.4282  0.4781  1.6243
21758SOL     OW65851   6.884   8.419   4.622 -0.5879  0.3158  0.0062
21758SOL    HW165852   6.794   8.404   4.592 -0.2078 -0.4132 -0.8131
21758SOL    HW265853   6.878   8.497   4.678 -1.8333 -0.1190  0.5084
21759SOL     OW65854   5.357   5.985   7.018  0.5252  0.2641 -0.0946
21759SOL    HW165855   5.373   6.075   6.990  2.6260  0.0342  0.1919
21759SOL    HW265856   5.352   5.935   6.937  0.0845  0.5391 -0.2354
21760SOL     OW65857   8.234   0.797   2.141 -0.3355  0.1352 -0.0941
21760SOL    HW165858   8.311   0.741   2.133  0.6896  1.5157 -0.4618
21760SOL    HW265859   8.160   0.737   2.142  0.7077 -1.2087 -0.4268
21761SOL     OW65860   6.428   6.708   9.423 -0.0447  0.4726  0.1508
21761SOL    HW165861   6.459   6.635   9.369  1.5493  0.7770  0.5937
21761SOL    HW265862   6.459   6.786   9.376 -1.1814  0.8576  0.0125
21762SOL     OW65863   9.966   0.486   2.681 -0.5335  0.1529 -0.1626
21762SOL    HW165864   9.929   0.543   2.614 -0.5414 -0.0258 -0.3105
21762SOL    HW265865  10.029   0.540   2.727 -0.8593  0.4126 -0.0156
21763SOL     OW65866   9.439   1.503   7.861  0.6409 -0.0593  0.4349
21763SOL    HW165867   9.371   1.436   7.868 -0.5006  0.7831 -1.6165
21763SOL    HW265868   9.506   1.465   7.805 -0.5726  0.8303 -1.7486
21764SOL     OW65869   2.396   1.564   0.586 -0.1109  0.7169 -0.2841
21764SOL    HW165870   2.429   1.513   0.512  0.0712  0.7635 -0.2351
21764SOL    HW265871   2.385   1.500   0.657  0.3831  0.7901 -0.1370
21765SOL     OW65872   0.567   6.773   1.890  0.1625  0.2314  0.2627
21765SOL    HW165873   0.580   6.743   1.980  0.6244  1.2289  0.5456
21765SOL    HW265874   0.654   6.770   1.850  0.3537  1.8186  0.5155
21766SOL     OW65875   4.058   6.555   4.608 -1.2715  0.3163  0.3752
21766SOL    HW165876   4.074   6.635   4.558 -2.6883  0.5439  0.2442
21766SOL    HW265877   4.087   6.575   4.697  0.3648  0.2325 -0.0946
21767SOL     OW65878   9.616   8.947   7.516  0.0265 -0.1482  0.0845
21767SOL    HW165879   9.620   8.853   7.495 -1.6556 -0.9028  2.7099
21767SOL    HW265880   9.533   8.976   7.478  0.4386  0.2257 -0.5292
21768SOL     OW65881   1.785   7.332   5.952  0.0364 -0.6509  0.5977
21768SOL    HW165882   1.797   7.251   6.000 -0.0673  0.3271  2.3699
21768SOL    HW265883   1.825   7.399   6.007 -1.8167  0.8041  0.2968
21769SOL     OW65884   3.116   0.733   1.678 -0.5138 -0.1942  0.0491
21769SOL    HW165885   3.196   0.680   1.684 -0.4074 -0.1255 -0.6774
21769SOL    HW265886   3.046   0.674   1.708 -0.1671 -0.1728  0.9388
21770SOL     OW65887   3.484   7.257   2.832 -0.2178  0.1666 -0.0407
21770SOL    HW165888   3.531   7.216   2.759 -0.6787 -1.2037  0.4009
21770SOL    HW265889   3.547   7.320   2.869  0.8189 -0.7133 -0.2524
21771SOL     OW65890   5.292   2.344   9.135  0.3467 -0.5299  0.1172
21771SOL    HW165891   5.212   2.368   9.181  1.1174 -0.0522  1.2813
21771SOL    HW265892   5.263   2.303   9.054 -1.0631  0.8258 -0.1088
21772SOL     OW65893   0.263   2.765   4.391 -0.4962  0.1653 -0.4222
21772SOL    HW165894   0.240   2.783   4.300 -1.2975 -1.0801 -0.4815
21772SOL    HW265895   0.192   2.711   4.425  0.0217  0.2050  0.8089
21773SOL     OW65896   7.278   9.655   8.130  0.1252 -0.4016  0.2758
21773SOL    HW165897   7.239   9.572   8.156  0.1192 -1.0709 -1.7630
21773SOL    HW265898   7.369   9.634   8.112  0.4600  0.3304  1.0301
21774SOL     OW65899   9.900   1.844   8.769 -0.1984 -0.1436  0.7421
21774SOL    HW165900   9.966   1.844   8.838 -0.1363 -0.0049  0.6839
21774SOL    HW265901   9.909   1.758   8.727  2.2337  1.0052 -1.4029
21775SOL     OW65902   6.310   3.966   4.609  0.8026  0.1586 -0.2685
21775SOL    HW165903   6.305   3.993   4.517 -0.1774 -0.0477 -0.2896
21775SOL    HW265904   6.246   4.021   4.654  2.2683  1.2547  0.5660
21776SOL     OW65905   0.532   1.912   6.915 -0.4795 -0.7382  0.0169
21776SOL    HW165906   0.566   1.871   6.995  1.2270  0.4225 -0.0681
21776SOL    HW265907   0.471   1.979   6.947  0.2661 -0.2153  0.3860
21777SOL     OW65908   1.546   5.182   3.066 -0.1174  0.2920  0.5542
21777SOL    HW165909   1.625   5.136   3.096 -1.1925 -2.4182 -0.4752
21777SOL    HW265910   1.573   5.225   2.985  0.0536 -1.7175 -0.5169
21778SOL     OW65911   2.414   7.136   9.190  0.0826  0.3516 -0.0105
21778SOL    HW165912   2.483   7.131   9.255 -1.6941  2.7042  2.2875
21778SOL    HW265913   2.394   7.045   9.168  2.2774 -0.4319  1.0049
21779SOL     OW65914   3.942   9.635   4.937 -0.0244  0.6585  0.2066
21779SOL    HW165915   3.975   9.581   5.009  0.3663  0.5898 -0.0250
21779SOL    HW265916   3.953   9.725   4.968 -0.3237  0.6186  0.4365
21780SOL     OW65917   5.922   6.196   6.453 -0.5909 -0.6501 -0.8541
21780SOL    HW165918   5.878   6.127   6.403 -0.6822 -0.2782 -1.2998
21780SOL    HW265919   5.933   6.268   6.390 -3.2025  0.9278  0.3216
21781SOL     OW65920   8.400   6.409   0.726 -0.8028  0.0476  0.3416
21781SOL    HW165921   8.406   6.481   0.663 -1.1277 -0.0386  0.2083
21781SOL    HW265922   8.447   6.440   0.803  0.6848 -0.3161 -0.3707
21782SOL     OW65923   2.304   7.234   5.871 -0.2145 -0.0857 -0.1240
21782SOL    HW165924   2.299   7.224   5.966  0.1113  0.4779 -0.0437
21782SOL    HW265925   2.232   7.181   5.837 -0.3972 -0.2039  0.4421
21783SOL     OW65926   1.279   6.062   3.877  0.5707 -0.2818 -0.3617
21783SOL    HW165927   1.246   6.017   3.799  1.2941 -0.6733 -0.4590
21783SOL    HW265928   1.226   6.141   3.884  0.1170 -0.5268 -0.9258
21784SOL     OW65929   1.266   2.016   5.204 -0.9713  0.4665  0.1858
21784SOL    HW165930   1.277   1.993   5.296  0.2387  0.1216 -0.0241
21784SOL    HW265931   1.347   2.063   5.181 -1.6364  1.3276 -0.4686
21785SOL     OW65932   5.319   5.837   9.017  0.3320  1.0259 -0.1751
21785SOL    HW165933   5.227   5.816   9.002  0.4090 -0.0505  0.7237
21785SOL    HW265934   5.329   5.835   9.112  1.5784 -0.3622 -0.2919
21786SOL     OW65935   7.559   9.113   7.043 -0.0165  0.4319 -0.5363
21786SOL    HW165936   7.622   9.075   7.103 -0.6908  0.0786 -0.0347
21786SOL    HW265937   7.609   9.132   6.964  1.4860  3.2512  0.9614
21787SOL     OW65938   2.370   5.394   2.814 -0.1173 -0.7660 -0.2237
21787SOL    HW165939   2.374   5.346   2.731  1.4405  0.2404 -0.7774
21787SOL    HW265940   2.283   5.433   2.815  0.1023 -0.1587 -1.7869
21788SOL     OW65941   1.571   6.296   7.519  0.2729 -0.2808 -0.0717
21788SOL    HW165942   1.646   6.251   7.558 -0.5854 -2.7405 -1.0922
21788SOL    HW265943   1.539   6.236   7.452 -0.5374  2.2049 -2.0619
21789SOL     OW65944   5.726   1.822   3.373 -0.6825  0.0394  0.3869
21789SOL    HW165945   5.661   1.886   3.345  0.4283  0.9887 -0.0949
21789SOL    HW265946   5.675   1.750   3.411 -1.9502  1.1803  0.8844
21790SOL     OW65947   4.966   9.680   1.695 -0.3740  0.1650 -0.0008
21790SOL    HW165948   4.930   9.674   1.784  0.1652 -1.4174  0.1303
21790SOL    HW265949   5.043   9.737   1.705 -0.1553 -0.2271  0.6008
21791SOL     OW65950   7.298   6.767   8.354 -0.2604  0.6017 -0.5132
21791SOL    HW165951   7.300   6.690   8.298  2.4664 -0.7908  1.2688
21791SOL    HW265952   7.364   6.826   8.316 -0.4518  0.9095 -0.3711
21792SOL     OW65953   5.940   4.443   1.672 -0.0905  0.1753  0.3701
21792SOL    HW165954   5.850   4.453   1.641 -1.2686 -1.7903  2.8368
21792SOL    HW265955   5.975   4.533   1.674 -2.3648  1.1257  0.4270
21793SOL     OW65956   1.228   5.372   1.241  0.6018  0.3717 -0.5940
21793SOL    HW165957   1.250   5.297   1.186  0.0933  1.2975 -2.1219
21793SOL    HW265958   1.147   5.406   1.203  0.6042  1.4496  0.3208
21794SOL     OW65959   0.913   9.858   7.462  0.1296 -0.2954 -0.3457
21794SOL    HW165960   0.858   9.794   7.416  1.2665 -1.8307  0.3285
21794SOL    HW265961   0.906   9.937   7.409 -0.4569 -1.3038 -1.8674
21795SOL     OW65962   7.034   0.775   0.339  0.1164 -0.0831 -0.2181
21795SOL    HW165963   6.972   0.846   0.359 -0.2793 -0.2257 -0.8919
21795SOL    HW265964   7.101   0.782   0.407 -0.7231 -0.0331  0.6281
21796SOL     OW65965   3.839   1.173   6.390  0.4156  0.5880  0.5867
21796SOL    HW165966   3.912   1.177   6.328 -1.4032  0.7115 -1.6656
21796SOL    HW265967   3.762   1.190   6.337 -1.2278  1.0846  3.0069
21797SOL     OW65968   2.610   6.685   3.312  0.2011  0.6403 -0.7297
21797SOL    HW165969   2.542   6.681   3.245 -0.9455  1.1334  0.3798
21797SOL    HW265970   2.650   6.598   3.310 -1.2012 -0.0309 -0.6570
21798SOL     OW65971   5.936   1.219   0.767  0.3538 -0.1781 -0.4911
21798SOL    HW165972   5.860   1.270   0.741 -0.6769 -1.6427 -0.5028
21798SOL    HW265973   5.996   1.283   0.806 -1.4375  0.8395  0.7473
21799SOL     OW65974   1.937   9.330   9.918 -0.8727  0.0218 -0.3451
21799SOL    HW165975   1.851   9.294   9.894 -0.9333  0.0739 -0.2052
21799SOL    HW265976   1.999   9.261   9.895 -0.6508  0.9818 -3.0408
21800SOL     OW65977   8.919   1.532   7.104 -0.1560  0.0185  0.1884
21800SOL    HW165978   8.990   1.474   7.131  0.2910  0.5604  0.1873
21800SOL    HW265979   8.961   1.598   7.049 -0.9731 -0.7822 -1.4758
21801SOL     OW65980   0.846   5.166   3.255 -0.4397 -0.2633  0.2695
21801SOL    HW165981   0.831   5.143   3.163 -0.0109  0.0362  0.1236
21801SOL    HW265982   0.904   5.242   3.252  1.7725 -1.8208  0.8251
21802SOL     OW65983   3.531   2.397   6.961 -0.6854  0.5511 -0.5210
21802SOL    HW165984   3.618   2.358   6.970 -0.9194  0.1518  0.0723
21802SOL    HW265985   3.474   2.340   7.012 -1.2090  1.1188 -0.4623
21803SOL     OW65986   9.854   1.308   0.591  0.5355 -0.3740  0.6012
21803SOL    HW165987   9.909   1.234   0.618 -1.5196 -1.4746  2.0614
21803SOL    HW265988   9.799   1.326   0.668 -0.6041  1.1799 -0.5169
21804SOL     OW65989   9.591   6.414   3.318  0.1764  0.5287  0.2243
21804SOL    HW165990   9.568   6.379   3.404 -0.3274  0.3039  0.0026
21804SOL    HW265991   9.668   6.365   3.291  1.6113  2.0160  1.4475
21805SOL     OW65992   0.280   5.297   7.673  0.0617 -0.0972 -0.0057
21805SOL    HW165993   0.304   5.308   7.581  1.0757  0.3876  0.3065
21805SOL    HW265994   0.363   5.284   7.718 -0.2296  1.6293  1.1155
21806SOL     OW65995   4.443   5.913   5.045  0.1503  0.2805  0.9089
21806SOL    HW165996   4.372   5.954   4.995  0.5316  1.1659  1.0813
21806SOL    HW265997   4.523   5.952   5.011  0.5409 -0.4654  0.9502
21807SOL     OW65998   0.606   1.399   9.328  0.0793 -0.1994 -0.2034
21807SOL    HW165999   0.692   1.390   9.287 -0.4132  0.7508 -1.5209
21807SOL    HW266000   0.547   1.421   9.256 -1.2476 -0.6402  0.7001
21808SOL     OW66001   2.261   4.232   5.197  0.4106 -0.0942 -0.8039
21808SOL    HW166002   2.333   4.289   5.224  0.1917 -0.1373 -0.1222
21808SOL    HW266003   2.246   4.175   5.272  0.5397 -0.9740 -1.4279
21809SOL     OW66004   0.055   4.883   8.179  0.3883 -0.3232  0.5386
21809SOL    HW166005   0.102   4.837   8.109  0.2893 -0.3200  0.4699
21809SOL    HW266006   0.036   4.969   8.142  1.5117  0.1625  1.0425
21810SOL     OW66007   0.735   0.071   1.948 -0.1212 -0.3554  0.3737
21810SOL    HW166008   0.703   0.041   1.863  0.1480 -1.7323  0.7202
21810SOL    HW266009   0.658   0.105   1.993 -0.7159 -1.6258  0.3734
21811SOL     OW66010   2.845   0.712   4.562  0.2959  0.0995  0.2328
21811SOL    HW166011   2.928   0.677   4.594  1.0936 -0.0017 -1.7578
21811SOL    HW266012   2.811   0.642   4.505 -1.8146 -0.3851  1.9560
21812SOL     OW66013   5.315   9.241   7.823 -0.1296  0.3114 -0.0493
21812SOL    HW166014   5.364   9.321   7.807 -1.4897  1.1932  0.0912
21812SOL    HW266015   5.379   9.180   7.861  0.7295  1.5773  0.5779
21813SOL     OW66016   6.665   2.172   4.760  0.2874  0.0476 -0.3008
21813SOL    HW166017   6.688   2.136   4.674 -1.0032 -0.1977 -0.5639
21813SOL    HW266018   6.677   2.098   4.821  0.3732 -0.0225 -0.4018
21814SOL     OW66019   3.829   7.042   2.745  0.3835  0.4680  0.0854
21814SOL    HW166020   3.899   6.999   2.696 -0.8145 -0.2493 -1.0622
21814SOL    HW266021   3.785   6.970   2.791 -1.0316  0.5406 -1.0766
21815SOL     OW66022   8.507   0.557   4.416 -0.2378  0.1875 -0.0722
21815SOL    HW166023   8.545   0.626   4.363  0.3122 -1.0249 -1.3294
21815SOL    HW266024   8.421   0.589   4.441 -0.1439  1.1455 -0.9617
21816SOL     OW66025   5.019   3.235   5.538 -0.5533 -0.3688  0.3296
21816SOL    HW166026   5.032   3.278   5.622  1.1081 -0.5169  0.1811
21816SOL    HW266027   5.027   3.305   5.473  3.1739 -0.8771  0.0155
21817SOL     OW66028   5.996   2.511   6.698  0.2423 -0.1116  0.3816
21817SOL    HW166029   6.079   2.463   6.701  0.4760  0.0131 -2.1026
21817SOL    HW266030   6.021   2.602   6.683 -0.3227 -0.0147 -0.0066
21818SOL     OW66031   3.612   4.367   6.697 -0.5026  0.2165 -0.2945
21818SOL    HW166032   3.535   4.417   6.669 -0.2368 -0.0624 -1.5793
21818SOL    HW266033   3.685   4.404   6.647  0.1569  0.2933  0.7037
21819SOL     OW66034   1.097   7.899   1.007 -0.0497  0.4096  1.1486
21819SOL    HW166035   1.130   7.941   1.086 -1.1692  1.2324  1.2132
21819SOL    HW266036   1.137   7.947   0.935 -0.2472  0.6767  1.2184
21820SOL     OW66037   7.527   7.954   7.490  0.3802 -0.6770 -0.6153
21820SOL    HW166038   7.502   7.956   7.397 -2.6299 -0.6485  0.0981
21820SOL    HW266039   7.493   7.871   7.522  1.5697 -0.7822  0.4545
21821SOL     OW66040   9.933   7.048   6.868 -0.5356 -0.1233 -0.1931
21821SOL    HW166041   9.855   7.077   6.915 -0.6590 -0.3775 -0.2394
21821SOL    HW266042   9.899   6.996   6.795 -0.2992 -1.2632  0.4781
21822SOL     OW66043   0.345   3.013   6.813 -0.1344 -0.6624  0.1597
21822SOL    HW166044   0.279   2.979   6.753  0.9910 -0.2012 -1.4122
21822SOL    HW266045   0.319   3.104   6.829  0.3653 -0.3227 -0.8725
21823SOL     OW66046   1.060   8.661   0.280 -0.5220 -0.3809  0.4342
21823SOL    HW166047   1.119   8.629   0.348 -0.0182  0.2416  0.3019
21823SOL    HW266048   1.009   8.729   0.324  1.1739  1.4449 -0.2681
21824SOL     OW66049   7.570   3.246   8.577  0.0509  0.3114  0.2821
21824SOL    HW166050   7.575   3.340   8.561 -1.9268  0.4674  0.3267
21824SOL    HW266051   7.629   3.231   8.651  1.6367  1.2115 -0.7498
21825SOL     OW66052   0.553   9.355   2.405 -0.3089 -0.2907 -0.9690
21825SOL    HW166053   0.617   9.423   2.427 -0.3483  0.2100 -2.2705
21825SOL    HW266054   0.474   9.404   2.381 -1.1080 -0.8900  0.3291
21826SOL     OW66055   9.095   1.755   2.916 -0.1113 -0.4069  0.5163
21826SOL    HW166056   9.016   1.741   2.968  0.7937  1.7463  2.6942
21826SOL    HW266057   9.078   1.836   2.867  0.1573 -0.8047 -0.2480
21827SOL     OW66058   8.929   7.114   9.980 -0.1701 -0.2455 -0.0324
21827SOL    HW166059   8.947   7.033   9.934 -0.2956 -0.8025  0.8773
21827SOL    HW266060   8.946   7.183   9.916  0.4598 -0.9631 -0.6469
21828SOL     OW66061   9.447   0.271   0.196 -0.0572 -0.6078  0.1592
21828SOL    HW166062   9.480   0.357   0.168 -1.2258  0.1051  0.8922
21828SOL    HW266063   9.352   0.283   0.204 -0.1709 -1.8014  0.8799
21829SOL     OW66064   3.435   7.955   0.268 -0.7843 -0.2250  0.2954
21829SOL    HW166065   3.417   7.892   0.337 -1.4323 -0.5788 -0.1881
21829SOL    HW266066   3.429   8.040   0.310 -2.1775 -0.3984  0.4627
21830SOL     OW66067   7.148   5.873   9.531 -0.2950 -0.2071  0.3604
21830SOL    HW166068   7.068   5.923   9.516 -0.1840  0.2839  1.2893
21830SOL    HW266069   7.129   5.820   9.609  0.7062  0.9435  1.4434
21831SOL     OW66070   9.272   2.370   4.165  0.2773  0.0824 -0.1145
21831SOL    HW166071   9.300   2.330   4.247 -0.7778 -1.5140 -0.4890
21831SOL    HW266072   9.242   2.457   4.189  1.9604  0.4412  0.8447
21832SOL     OW66073   1.938   6.151   9.863 -0.3207  0.0184  0.2929
21832SOL    HW166074   1.927   6.194   9.948  0.1341 -0.6144  0.6833
21832SOL    HW266075   1.901   6.064   9.874  1.2373 -0.6712  0.3799
21833SOL     OW66076   8.459   8.015   5.533  0.4206  0.1864  0.4310
21833SOL    HW166077   8.376   8.032   5.579 -0.6135  2.0004 -1.8709
21833SOL    HW266078   8.435   7.954   5.463  1.5820 -1.1763  1.1988
21834SOL     OW66079   2.381   6.425   9.440 -0.2950 -0.0127  0.3442
21834SOL    HW166080   2.338   6.355   9.489 -0.2310  0.4817  1.1243
21834SOL    HW266081   2.312   6.488   9.420  0.1750  1.3310  2.5572
21835SOL     OW66082   9.848   0.810   7.502  0.1608 -0.3010  0.5775
21835SOL    HW166083   9.924   0.794   7.559  0.4867 -0.1078  0.2020
21835SOL    HW266084   9.853   0.741   7.436 -0.7328 -1.0789  1.2971
21836SOL     OW66085   0.299   4.254   3.881  0.0976 -0.4391 -0.2071
21836SOL    HW166086   0.207   4.279   3.868 -0.0511 -1.4811 -1.3692
21836SOL    HW266087   0.310   4.253   3.976 -1.0823 -0.2803 -0.0454
21837SOL     OW66088   9.831   0.104   2.733 -0.1789  0.7900  0.0360
21837SOL    HW166089   9.878   0.077   2.811  1.3854 -0.9241 -1.4027
21837SOL    HW266090   9.742   0.123   2.764  0.0518 -0.9833  2.0502
21838SOL     OW66091   4.808   7.114   6.169  0.1323 -0.3489 -0.2020
21838SOL    HW166092   4.853   7.181   6.117 -1.6628  0.7292 -0.4435
21838SOL    HW266093   4.797   7.040   6.109  0.7634 -0.2783 -0.4080
21839SOL     OW66094   0.676   3.068   7.501  0.3955 -0.3379 -0.2993
21839SOL    HW166095   0.643   2.978   7.507 -0.3432 -0.0466  0.2591
21839SOL    HW266096   0.607   3.120   7.543  1.8845  0.2315  1.5646
21840SOL     OW66097   3.004   1.556   0.151  0.0463  0.0359 -0.1673
21840SOL    HW166098   2.998   1.469   0.112  0.2124  0.5232 -1.3271
21840SOL    HW266099   2.914   1.588   0.154 -0.0019 -0.1282  0.1516
21841SOL     OW66100   0.773   8.103   2.292 -0.8253  0.2654  0.2737
21841SOL    HW166101   0.733   8.034   2.238 -3.2449  0.2477  1.8978
21841SOL    HW266102   0.855   8.065   2.324 -2.0336 -1.9055  1.0256
21842SOL     OW66103   2.189   5.182   4.592  0.0435  0.2601  0.0211
21842SOL    HW166104   2.229   5.139   4.517  1.2339 -0.0502  0.8178
21842SOL    HW266105   2.248   5.164   4.665 -1.3651  0.0728  1.1705
21843SOL     OW66106   9.087   7.395   4.054 -0.2982  0.7823 -0.0449
21843SOL    HW166107   9.167   7.342   4.059  0.6911  2.0741 -1.3426
21843SOL    HW266108   9.019   7.332   4.032  0.2058 -0.4461  1.6509
21844SOL     OW66109   0.746   6.504   0.196  0.4122 -0.9428 -0.3404
21844SOL    HW166110   0.721   6.422   0.238 -0.0279 -1.0544 -0.8077
21844SOL    HW266111   0.682   6.514   0.125  1.3809 -0.9659 -1.2305
21845SOL     OW66112   1.402   2.643   8.488  0.6158  0.2273 -0.7111
21845SOL    HW166113   1.464   2.668   8.556 -1.1422  1.0608  0.6408
21845SOL    HW266114   1.414   2.548   8.478  0.6004  0.0091  1.0917
21846SOL     OW66115   1.982   7.521   5.295 -0.3746  0.5067 -0.5213
21846SOL    HW166116   1.993   7.582   5.223  2.2198 -0.7190 -1.2928
21846SOL    HW266117   2.058   7.537   5.352 -0.9899 -0.3020  0.5815
21847SOL     OW66118   8.134   6.453   3.571  0.3179 -0.0053  0.2910
21847SOL    HW166119   8.138   6.548   3.561 -1.7350 -0.0806 -2.2744
21847SOL    HW266120   8.199   6.419   3.510 -0.6844 -0.2414 -0.6791
21848SOL     OW66121   8.541   8.679   5.706 -0.1360  0.4857  0.0685
21848SOL    HW166122   8.630   8.669   5.740 -0.0535  1.3571  0.1451
21848SOL    HW266123   8.508   8.590   5.696  0.4955  0.1739  0.7112
21849SOL     OW66124   1.983   7.172   9.207 -0.1451 -0.0484  0.0170
21849SOL    HW166125   1.954   7.241   9.267 -1.5956  0.2995 -1.0198
21849SOL    HW266126   1.961   7.091   9.252  0.1125  0.1924  0.5800
21850SOL     OW66127   6.248   5.282   1.199  0.2839  0.4215  0.0704
21850SOL    HW166128   6.284   5.270   1.287  1.3888 -0.8619 -0.5130
21850SOL    HW266129   6.297   5.356   1.163 -0.7198  1.4611  0.7832
21851SOL     OW66130   6.571   9.476   9.154 -0.4013 -0.4834  0.6248
21851SOL    HW166131   6.666   9.473   9.149 -0.4654 -0.5602 -1.9167
21851SOL    HW266132   6.545   9.385   9.171 -0.0508 -0.7189 -0.0827
21852SOL     OW66133   2.499   3.448   0.759 -0.0846  0.0907  0.1673
21852SOL    HW166134   2.488   3.508   0.685  0.3055  0.0176  0.0517
21852SOL    HW266135   2.474   3.362   0.723  1.3205 -0.1654 -0.2397
21853SOL     OW66136   0.920   8.414   2.976 -0.5816 -0.1362 -0.0142
21853SOL    HW166137   0.832   8.378   2.981 -1.4795  1.9778  0.8983
21853SOL    HW266138   0.909   8.497   2.929  0.6541  0.8020  1.2519
21854SOL     OW66139   9.332   9.927   1.207  0.4023  0.0366  0.1718
21854SOL    HW166140   9.420   9.890   1.204 -0.2866 -1.7521 -3.3060
21854SOL    HW266141   9.275   9.853   1.224 -0.5715  1.0035  1.3382
21855SOL     OW66142   7.653   8.282   3.332  0.1423  0.7522 -0.0068
21855SOL    HW166143   7.624   8.191   3.322 -0.0897  0.8205  0.0303
21855SOL    HW266144   7.742   8.275   3.365 -0.0002  0.5378  0.3380
21856SOL     OW66145   0.366   3.398   3.315 -0.8657  0.0114  0.0853
21856SOL    HW166146   0.323   3.323   3.357 -0.1682 -0.9947 -0.9404
21856SOL    HW266147   0.328   3.401   3.227 -0.8917  0.8884  0.1113
21857SOL     OW66148   9.023   7.399   2.566 -0.2082 -0.5555 -0.0377
21857SOL    HW166149   9.020   7.488   2.599  1.0458 -1.2377  2.1777
21857SOL    HW266150   8.956   7.395   2.498 -1.1520  1.7049  0.6874
21858SOL     OW66151   9.176   8.928   0.937  0.3200  0.3805  0.1766
21858SOL    HW166152   9.115   8.914   0.865  0.0063 -0.7751  0.6335
21858SOL    HW266153   9.120   8.928   1.015  0.8757 -0.5488  0.5890
21859SOL     OW66154   2.499  -0.005   2.978  0.4251  0.5431  0.0852
21859SOL    HW166155   2.516   0.051   2.902  1.1430  0.1203 -0.0765
21859SOL    HW266156   2.514   0.052   3.053  2.2511  0.2927 -0.0582
21860SOL     OW66157   9.023   0.263   8.007 -0.2049  0.1365  0.2647
21860SOL    HW166158   9.081   0.339   8.001  0.1538 -0.0399  1.2841
21860SOL    HW266159   9.071   0.200   8.060  0.2832 -1.5594 -2.0448
21861SOL     OW66160   6.736   4.551   5.013 -0.4720  0.3671 -0.5219
21861SOL    HW166161   6.718   4.462   5.042  1.4551 -0.4449 -1.6279
21861SOL    HW266162   6.786   4.590   5.085  1.9603 -0.7622 -1.4664
21862SOL     OW66163   0.044   8.902   5.458 -0.1349  0.1800 -0.5186
21862SOL    HW166164  -0.009   8.975   5.426 -0.9307 -0.5521 -0.9149
21862SOL    HW266165   0.097   8.939   5.528  1.0849  1.6531 -2.1263
21863SOL     OW66166   2.502   2.740   4.655  0.3574 -0.3431  0.0688
21863SOL    HW166167   2.488   2.658   4.703  1.3624  0.0703  1.1113
21863SOL    HW266168   2.579   2.779   4.696 -0.1631  1.1815 -0.3397
21864SOL     OW66169   1.933   4.336   1.131  0.0296  0.0554  0.3162
21864SOL    HW166170   1.838   4.343   1.121  0.1295  2.2045  0.4198
21864SOL    HW266171   1.968   4.410   1.082  1.6567 -0.6254  0.3899
21865SOL     OW66172   1.381   8.041   9.932 -0.2436 -0.2377  0.4172
21865SOL    HW166173   1.360   8.000  10.016  0.2033  1.9149  1.6426
21865SOL    HW266174   1.458   7.993   9.901 -0.9187 -1.6123  0.7854
21866SOL     OW66175   7.522   8.627   7.568 -0.7470 -0.3090 -0.2506
21866SOL    HW166176   7.519   8.715   7.607  1.9576  0.5575 -1.6935
21866SOL    HW266177   7.526   8.568   7.642  0.3493  1.0328  0.8197
21867SOL     OW66178   8.634   3.250   3.365 -0.0117  0.3554  0.0475
21867SOL    HW166179   8.661   3.248   3.457 -0.6287 -0.0248  0.2325
21867SOL    HW266180   8.569   3.320   3.360  1.7214  1.9992 -0.6207
21868SOL     OW66181   4.327   6.591   3.996 -0.5198  0.2007  0.2739
21868SOL    HW166182   4.353   6.629   3.912 -1.9811  1.5814  0.4107
21868SOL    HW266183   4.410   6.567   4.037  0.2683  0.2897 -1.1975
21869SOL     OW66184   1.285   2.295   8.398  0.1514 -0.3216 -0.4102
21869SOL    HW166185   1.233   2.351   8.341 -0.0448 -1.1026 -1.0166
21869SOL    HW266186   1.281   2.208   8.357 -0.8547 -1.1571  1.3217
21870SOL     OW66187   6.824   9.005   5.583  0.0697 -0.8822  0.0971
21870SOL    HW166188   6.740   8.988   5.540  0.7512 -0.8962 -1.2833
21870SOL    HW266189   6.831   8.938   5.651 -0.8945 -1.0672  0.0244
21871SOL     OW66190   0.366   9.804   9.902 -0.2294  0.3712 -0.2106
21871SOL    HW166191   0.308   9.817   9.976 -1.3100  1.0385 -1.1449
21871SOL    HW266192   0.409   9.720   9.919 -0.4252  0.5422  1.1734
21872SOL     OW66193   0.764   1.742   7.965 -0.4740  0.3110 -0.5025
21872SOL    HW166194   0.852   1.776   7.947 -0.0108 -0.7232 -0.3202
21872SOL    HW266195   0.733   1.792   8.040  0.8288 -0.6972  0.7687
21873SOL     OW66196   9.491   3.100   5.239 -0.1908 -0.3373  0.0982
21873SOL    HW166197   9.490   3.194   5.253  0.2927 -0.3428  0.1818
21873SOL    HW266198   9.494   3.089   5.144  2.2701 -0.2205  0.0929
21874SOL     OW66199   0.946   0.849   8.393 -0.4625 -0.1971  0.0683
21874SOL    HW166200   0.893   0.785   8.345  1.3748 -0.5604 -1.6230
21874SOL    HW266201   0.924   0.933   8.354  0.6108 -0.4254 -1.1021
21875SOL     OW66202   5.042   7.513   1.677 -0.0298 -0.2543 -1.0925
21875SOL    HW166203   5.075   7.575   1.612 -0.1087 -0.9414 -1.8046
21875SOL    HW266204   5.101   7.437   1.669 -0.5598 -0.6802 -0.9640
21876SOL     OW66205   7.364   8.714   5.468 -0.2626  0.1030  0.7606
21876SOL    HW166206   7.292   8.764   5.507 -1.2791 -0.0894 -0.8113
21876SOL    HW266207   7.327   8.628   5.450  0.5911 -0.2455  0.6384
21877SOL     OW66208   3.273   0.998   0.603  0.2009  0.0675 -0.3247
21877SOL    HW166209   3.191   1.042   0.627  1.0140  0.9538  0.8929
21877SOL    HW266210   3.254   0.959   0.517 -1.6577 -0.1764  0.1374
21878SOL     OW66211   0.425   0.654   3.472 -0.5885  0.3617 -0.6438
21878SOL    HW166212   0.392   0.742   3.454 -3.0264 -0.0659  1.3357
21878SOL    HW266213   0.379   0.597   3.410 -1.1327  0.1617 -0.0648
21879SOL     OW66214   5.681   3.004   1.640 -0.3203 -0.0596 -0.3932
21879SOL    HW166215   5.587   2.985   1.630 -0.4996  1.0241 -0.9476
21879SOL    HW266216   5.692   3.091   1.601  0.9634 -0.2760 -0.5546
21880SOL     OW66217   4.512   9.853   9.588 -0.2894 -0.0007  0.8375
21880SOL    HW166218   4.505   9.877   9.496  0.0185 -0.6901  0.6276
21880SOL    HW266219   4.445   9.786   9.602  0.0355 -0.3017  0.9726
21881SOL     OW66220   0.585   7.410   0.584 -0.0080 -0.2703  0.1055
21881SOL    HW166221   0.524   7.392   0.512  1.3187 -1.6636 -0.7249
21881SOL    HW266222   0.539   7.475   0.638 -1.5340 -0.0625 -1.3455
21882SOL     OW66223   0.036   4.751   3.889 -0.4452 -0.1025  0.6055
21882SOL    HW166224   0.116   4.731   3.938  0.1512 -0.3999 -0.4328
21882SOL    HW266225   0.048   4.705   3.806 -1.7513 -0.2247  0.4662
21883SOL     OW66226   5.319   9.696   3.733  0.5124 -0.0576 -0.1937
21883SOL    HW166227   5.394   9.717   3.788 -0.3288 -1.6441  1.6581
21883SOL    HW266228   5.242   9.714   3.787 -0.3322 -2.2513 -0.5228
21884SOL     OW66229   6.216   0.501   3.632 -0.2688  0.2277  0.3250
21884SOL    HW166230   6.188   0.576   3.579  0.6535  0.0520 -0.4418
21884SOL    HW266231   6.234   0.432   3.568  2.3895  0.4870  0.6712
21885SOL     OW66232   0.478   7.548   8.444 -0.5255 -0.7711 -0.2028
21885SOL    HW166233   0.499   7.568   8.535  1.1800 -1.4430 -0.4130
21885SOL    HW266234   0.388   7.578   8.433 -0.1072  1.1912  1.1431
21886SOL     OW66235   8.905   5.658   8.776  0.3629 -0.8056  0.2076
21886SOL    HW166236   8.828   5.657   8.834  0.9797  0.1407  1.0761
21886SOL    HW266237   8.869   5.678   8.689 -0.3571 -0.1762  0.6321
21887SOL     OW66238   8.391   0.123   7.229  0.1296  0.0136 -0.3375
21887SOL    HW166239   8.456   0.054   7.245  0.8773  0.5300 -1.0486
21887SOL    HW266240   8.349   0.137   7.314 -1.3932 -2.6220 -0.5616
21888SOL     OW66241   0.830   3.046   5.942 -0.1122 -0.2377 -0.1282
21888SOL    HW166242   0.742   3.031   5.908 -0.3530  1.6593 -0.4821
21888SOL    HW266243   0.828   3.011   6.031 -1.3661  0.1816  0.0266
21889SOL     OW66244   7.698   5.975   4.774 -0.0717 -0.2047 -0.2411
21889SOL    HW166245   7.741   6.036   4.715 -0.0104 -0.9186 -0.9505
21889SOL    HW266246   7.747   5.894   4.765  0.9020  0.0761  1.9485
21890SOL     OW66247   5.716   8.886   1.937  0.1403 -0.0281 -0.1671
21890SOL    HW166248   5.634   8.932   1.956 -0.5170 -0.4629 -1.7926
21890SOL    HW266249   5.728   8.828   2.012 -1.1113 -0.0477  0.0508
21891SOL     OW66250   7.751   6.358   5.942 -0.0865 -0.5072 -0.5508
21891SOL    HW166251   7.737   6.443   5.901  0.2464 -0.9283 -1.5794
21891SOL    HW266252   7.664   6.317   5.944  0.0853 -0.9985 -2.0557
21892SOL     OW66253   9.281   9.597   9.376 -0.1333  0.2224 -0.0080
21892SOL    HW166254   9.250   9.510   9.351  1.9554  0.1317 -2.6803
21892SOL    HW266255   9.201   9.649   9.389 -1.4253 -1.0908 -2.2552
21893SOL     OW66256   0.323   2.271   9.901  0.0321  0.3636  0.3137
21893SOL    HW166257   0.235   2.245   9.927  0.9757 -2.8602  0.5882
21893SOL    HW266258   0.336   2.356   9.943 -2.0401 -0.2096  2.3111
21894SOL     OW66259   4.034   2.038   2.202  0.4347  0.0873  0.2195
21894SOL    HW166260   3.962   2.086   2.161 -0.7836  0.2064  2.3395
21894SOL    HW266261   4.085   2.004   2.129 -0.5707  1.7771 -1.3534
21895SOL     OW66262   1.871   0.943   1.513 -0.3429  0.1060  0.3740
21895SOL    HW166263   1.795   0.928   1.570 -1.0040 -0.7999 -0.7294
21895SOL    HW266264   1.836   0.936   1.424  0.8296  0.7827 -0.1572
21896SOL     OW66265   0.654   8.750   3.059  0.4108  0.2585  0.2415
21896SOL    HW166266   0.623   8.687   2.994 -0.2233 -1.1629  1.8587
21896SOL    HW266267   0.641   8.835   3.018  1.7669 -0.6103 -2.2284
21897SOL     OW66268   7.318   8.707   4.172  0.1799 -0.1886  0.1664
21897SOL    HW166269   7.400   8.757   4.180 -0.2090  0.4909 -0.0485
21897SOL    HW266270   7.276   8.743   4.094 -0.2236 -0.6892  0.1504
21898SOL     OW66271   9.759   7.958   2.427  0.0078 -0.3880 -0.2146
21898SOL    HW166272   9.829   7.968   2.362 -0.3173  0.1723 -0.4800
21898SOL    HW266273   9.799   7.986   2.510  0.7265 -2.0343  0.0324
21899SOL     OW66274   5.463   9.071   1.648 -0.3997  0.3819  0.1875
21899SOL    HW166275   5.528   9.012   1.610  0.6415  1.0754  0.8350
21899SOL    HW266276   5.511   9.119   1.715 -0.9222  2.7529 -1.0303
21900SOL     OW66277   2.034   2.966   2.030 -0.6960 -0.0485 -0.6120
21900SOL    HW166278   1.957   2.968   2.087  0.3095 -0.8639  0.8453
21900SOL    HW266279   2.035   2.878   1.994 -1.3208  0.4611 -1.9398
21901SOL     OW66280   7.908   6.635   4.700 -0.1259  0.3201  0.0910
21901SOL    HW166281   7.970   6.655   4.770  0.5373 -0.9776 -0.0785
21901SOL    HW266282   7.825   6.673   4.728  0.4837  1.0991  0.8671
21902SOL     OW66283   2.662   6.068   5.909  0.1524 -0.1446 -0.7686
21902SOL    HW166284   2.656   6.029   5.996 -0.6952  0.2196 -0.6631
21902SOL    HW266285   2.612   6.009   5.853  0.7837 -0.4352 -1.0343
21903SOL     OW66286   1.144   9.276   0.483 -0.9480 -0.3321  0.6082
21903SOL    HW166287   1.188   9.207   0.434 -1.8327 -1.2009  1.0004
21903SOL    HW266288   1.167   9.357   0.438 -2.9552 -1.1952 -2.1945
21904SOL     OW66289   4.915   8.357   8.948 -0.4279 -0.1193 -0.5950
21904SOL    HW166290   4.948   8.406   9.023 -0.6730  0.5876 -0.9394
21904SOL    HW266291   4.987   8.300   8.923 -0.2083 -0.0819 -0.0650
21905SOL     OW66292   0.388   1.715   9.431 -0.4422 -0.2873  0.8162
21905SOL    HW166293   0.441   1.687   9.506  1.8336 -1.0488 -0.9599
21905SOL    HW266294   0.351   1.634   9.396 -0.8546 -0.0343  0.6607
21906SOL     OW66295   0.041   6.850   3.101  0.1853 -0.2299  0.5270
21906SOL    HW166296   0.124   6.804   3.090  0.1460  0.1372 -2.1254
21906SOL    HW266297   0.002   6.813   3.180  1.3428 -2.8467 -0.0500
21907SOL     OW66298   9.495   0.574   0.499  0.3749  0.1432  1.1111
21907SOL    HW166299   9.509   0.480   0.515 -1.6780 -0.4675 -0.2351
21907SOL    HW266300   9.583   0.612   0.504  1.3062 -1.8759  1.4472
21908SOL     OW66301   9.579   6.785   2.733 -0.5473 -0.0663  0.2843
21908SOL    HW166302   9.671   6.780   2.761 -0.6796 -0.0932  0.7233
21908SOL    HW266303   9.529   6.767   2.813 -0.9211 -2.4205 -0.4003
21909SOL     OW66304   7.085   4.556   1.373  0.5175 -0.0085 -0.4075
21909SOL    HW166305   7.098   4.545   1.279 -1.2392 -1.2229 -0.5574
21909SOL    HW266306   7.076   4.650   1.386 -1.0862  0.0764 -1.7772
21910SOL     OW66307   9.615   1.318   0.249 -0.2276 -0.0814 -0.4864
21910SOL    HW166308   9.661   1.384   0.197  2.2541 -0.9171  0.4834
21910SOL    HW266309   9.681   1.251   0.267 -1.4423 -0.7388  2.1336
21911SOL     OW66310   9.927   0.339   5.742 -0.4043  0.3083 -0.0403
21911SOL    HW166311   9.895   0.315   5.830 -1.1709  0.4790 -0.2644
21911SOL    HW266312   9.852   0.326   5.685  0.5147 -1.2972 -0.9498
21912SOL     OW66313   2.736   0.956   4.610 -0.5694 -0.1006  0.3880
21912SOL    HW166314   2.747   0.862   4.601 -0.9653 -0.0932 -0.2515
21912SOL    HW266315   2.664   0.967   4.671 -0.7318 -0.2183  0.2177
21913SOL     OW66316   2.402   4.057   1.159 -0.0903  0.0820  0.2978
21913SOL    HW166317   2.480   4.102   1.127 -0.6147  0.9458  0.2135
21913SOL    HW266318   2.433   3.970   1.184  0.3585 -0.6594 -2.5683
21914SOL     OW66319   8.856   3.665   4.576 -0.4860 -0.5755  0.0544
21914SOL    HW166320   8.823   3.719   4.504  1.8511 -2.6516 -2.8433
21914SOL    HW266321   8.857   3.724   4.651 -0.7556  2.5546 -2.1604
21915SOL     OW66322   1.260   5.109   7.696  0.1703 -0.2793 -0.0124
21915SOL    HW166323   1.356   5.113   7.701  0.1895  0.0143 -0.5380
21915SOL    HW266324   1.243   5.067   7.612 -0.1752  1.3310 -0.7764
21916SOL     OW66325   5.589   1.047   9.349 -0.7680 -0.0422  0.0190
21916SOL    HW166326   5.604   1.050   9.444 -0.8001  1.4195  0.0005
21916SOL    HW266327   5.502   1.086   9.338 -1.0278 -0.7587 -0.5843
21917SOL     OW66328   1.282   1.989   8.856  0.3323 -0.4209  0.0565
21917SOL    HW166329   1.265   2.009   8.948  1.7995 -2.7331  0.9316
21917SOL    HW266330   1.347   2.053   8.829  1.2414 -0.8129  1.2271
21918SOL     OW66331   6.362   2.143   5.388  0.0586 -0.1301  0.6617
21918SOL    HW166332   6.290   2.112   5.334  1.3036 -1.3339 -0.3797
21918SOL    HW266333   6.398   2.218   5.341  0.6207 -0.6689  0.2097
21919SOL     OW66334   2.675   1.919   8.917  0.1735 -0.2889  0.2360
21919SOL    HW166335   2.747   1.857   8.923 -1.9959 -3.1116 -0.5292
21919SOL    HW266336   2.678   1.952   8.827 -0.1410 -1.2827 -0.1433
21920SOL     OW66337   3.224   2.389   7.598  0.1902  0.3529  0.1323
21920SOL    HW166338   3.219   2.299   7.631  0.5506  0.0509 -0.6214
21920SOL    HW266339   3.301   2.426   7.641  0.1630  0.2392  0.2807
21921SOL     OW66340   2.579   9.123   4.092  0.0467 -0.6811  0.0947
21921SOL    HW166341   2.487   9.148   4.080  0.1378  1.6948  3.1465
21921SOL    HW266342   2.576   9.049   4.152  0.1080 -0.4350  0.4054
21922SOL     OW66343   2.917   2.491   0.084  0.2268  0.0017  0.3026
21922SOL    HW166344   2.830   2.452   0.078  0.5220 -0.9079  1.4979
21922SOL    HW266345   2.901   2.585   0.091 -0.4996  0.2429 -2.8572
21923SOL     OW66346   1.914   0.069   3.708 -0.1469 -0.0761  0.1889
21923SOL    HW166347   1.981   0.138   3.712 -1.4981  1.2004  2.4752
21923SOL    HW266348   1.868   0.075   3.792 -0.7809 -3.3444  0.1964
21924SOL     OW66349   4.650   0.235   0.061 -0.5859 -0.4960  0.5554
21924SOL    HW166350   4.582   0.300   0.044  1.3739  0.9775 -2.5586
21924SOL    HW266351   4.604   0.151   0.055 -2.5375  0.4605  1.0778
21925SOL     OW66352   0.634   5.556   8.395  0.3629  0.5684 -0.0834
21925SOL    HW166353   0.720   5.520   8.371  0.1755 -0.7874  1.2008
21925SOL    HW266354   0.653   5.618   8.465 -0.0362 -3.5837  4.1498
21926SOL     OW66355   4.166   4.910   3.331  0.1976  0.1408  0.1037
21926SOL    HW166356   4.244   4.966   3.326  0.8651 -0.7014  0.7421
21926SOL    HW266357   4.187   4.835   3.275  0.5705 -0.9048  1.5769
21927SOL     OW66358   6.616   6.058   1.828  0.5790  0.4581  0.7544
21927SOL    HW166359   6.702   6.026   1.801  0.5513  1.8947 -1.2470
21927SOL    HW266360   6.616   6.050   1.924  3.3179  1.3373  0.9183
21928SOL     OW66361   9.214   4.297   3.667  0.1088 -0.4164  0.0375
21928SOL    HW166362   9.196   4.320   3.575  0.8630 -2.3125 -0.6348
21928SOL    HW266363   9.274   4.365   3.697 -0.4966  0.4820 -0.7277
21929SOL     OW66364   6.350   0.175   7.829  0.0048 -0.2835 -0.3061
21929SOL    HW166365   6.409   0.188   7.903 -1.4653 -0.0209  0.8699
21929SOL    HW266366   6.281   0.117   7.863 -0.4772 -0.5004 -1.5942
21930SOL     OW66367   8.933   6.667   7.338 -0.8480 -0.4023 -0.4818
21930SOL    HW166368   9.021   6.670   7.375 -0.8001 -1.1788 -0.5017
21930SOL    HW266369   8.911   6.758   7.321 -0.8533 -0.0148  1.3856
21931SOL     OW66370   3.489   8.833   3.121 -0.0029 -0.1512  0.1428
21931SOL    HW166371   3.426   8.761   3.121 -0.3122  0.1130  0.8961
21931SOL    HW266372   3.545   8.816   3.044  0.3073 -1.5267  0.6445
21932SOL     OW66373   5.089   6.259   3.690  0.7192 -0.1928  0.3833
21932SOL    HW166374   5.129   6.344   3.671 -1.7283  0.6182 -1.8036
21932SOL    HW266375   4.996   6.278   3.699  0.1325 -2.6148  0.1976
21933SOL     OW66376   7.713   8.234   6.431 -0.1778 -0.5838 -0.1036
21933SOL    HW166377   7.654   8.271   6.497  0.4653  0.8698 -0.3048
21933SOL    HW266378   7.676   8.262   6.347  0.4623 -0.1810 -0.2556
21934SOL     OW66379   7.519   0.013   1.564 -0.3127  0.2274 -0.1687
21934SOL    HW166380   7.536   0.101   1.530 -1.7013  0.4347 -0.3600
21934SOL    HW266381   7.452   0.026   1.632  0.4139 -0.5327  0.7292
21935SOL     OW66382   9.192   6.069   3.283 -0.1011  0.1807 -0.2263
21935SOL    HW166383   9.153   6.147   3.244  1.7062  1.6765  0.7956
21935SOL    HW266384   9.143   6.056   3.364  0.0247  0.6741 -0.0667
21936SOL     OW66385   2.106   9.655   0.755 -0.4674 -0.1485 -0.5630
21936SOL    HW166386   2.104   9.564   0.786 -1.0498 -0.4273 -1.3999
21936SOL    HW266387   2.156   9.701   0.822 -1.5335 -0.7711  0.7213
21937SOL     OW66388   0.524   0.729   6.468  0.3663 -0.1016 -0.6191
21937SOL    HW166389   0.491   0.667   6.403 -0.7134  0.7387 -0.8984
21937SOL    HW266390   0.585   0.785   6.420  0.5222 -0.2592 -0.6086
21938SOL     OW66391   7.241   0.164   6.152 -0.0274  0.3273  0.1086
21938SOL    HW166392   7.307   0.156   6.220 -1.7018  1.4136  1.9853
21938SOL    HW266393   7.226   0.258   6.143 -0.9512  0.1308 -0.6248
21939SOL     OW66394   5.874   8.468   7.026 -0.5138  0.3560  0.0963
21939SOL    HW166395   5.893   8.461   6.933 -0.8350 -0.3103  0.0747
21939SOL    HW266396   5.924   8.397   7.066 -0.3378  0.6694  0.4371
21940SOL     OW66397   2.156   6.222   8.899  0.0639 -0.0342 -0.0547
21940SOL    HW166398   2.144   6.301   8.952  0.6433  0.1168 -0.1507
21940SOL    HW266399   2.250   6.204   8.903 -0.0246 -0.5566 -0.2681
21941SOL     OW66400   9.945   8.636   8.084  0.1190  0.0817 -0.0660
21941SOL    HW166401   9.974   8.546   8.072 -0.5709 -0.3728  1.3700
21941SOL    HW266402   9.946   8.674   7.996  1.1191 -1.0953 -0.5978
21942SOL     OW66403   4.982   1.075   0.483  0.2196 -0.3320  0.0320
21942SOL    HW166404   4.949   1.002   0.431  0.3098 -0.4862  0.1933
21942SOL    HW266405   4.970   1.151   0.426  0.2147 -0.4847 -0.1736
21943SOL     OW66406   4.420   1.659   5.694  0.3312 -0.6541  0.1690
21943SOL    HW166407   4.475   1.643   5.617 -0.4866  0.5489 -0.7172
21943SOL    HW266408   4.391   1.750   5.684 -0.4522 -0.7287  1.4858
21944SOL     OW66409   6.678   9.890   9.327 -0.3919  0.0101 -0.3133
21944SOL    HW166410   6.634   9.975   9.329 -1.0038 -0.2888  1.7286
21944SOL    HW266411   6.676   9.860   9.418  2.1182 -1.0309 -0.5221
21945SOL     OW66412   9.288   7.973   5.982  0.5018  0.1161  0.0702
21945SOL    HW166413   9.289   7.920   5.902  0.5320 -0.4205  0.4183
21945SOL    HW266414   9.354   8.040   5.968  1.0626 -0.4518 -0.0456
21946SOL     OW66415   4.204   5.270   4.834  0.5309  0.0035 -0.3587
21946SOL    HW166416   4.289   5.312   4.831  0.6654 -0.3060 -1.1054
21946SOL    HW266417   4.188   5.240   4.745 -0.4119  0.1552 -0.2593
21947SOL     OW66418   4.620   9.211   4.542 -0.0458 -0.2898 -0.3585
21947SOL    HW166419   4.672   9.214   4.622 -0.1230  1.1573 -0.3310
21947SOL    HW266420   4.595   9.119   4.532  1.4697 -0.7945  0.2925
21948SOL     OW66421   4.646   8.203   7.111  0.4299 -0.9262 -0.3395
21948SOL    HW166422   4.556   8.205   7.078 -0.0533 -0.9823  0.9096
21948SOL    HW266423   4.671   8.295   7.120  1.0359 -0.8947 -2.0228
21949SOL     OW66424   5.569   6.219   7.678  0.2745 -0.1079 -0.9249
21949SOL    HW166425   5.513   6.149   7.711  1.5977  0.0046  1.7909
21949SOL    HW266426   5.526   6.300   7.706  1.4050 -0.0081  0.6123
21950SOL     OW66427   7.729   9.065   0.091 -0.0594 -0.2824  0.1279
21950SOL    HW166428   7.757   8.977   0.118 -1.0224 -0.4656  0.5693
21950SOL    HW266429   7.674   9.096   0.162  0.1689  0.6385 -0.0839
21951SOL     OW66430   7.950   4.025   5.663 -0.3034 -0.3832  0.0019
21951SOL    HW166431   7.908   4.061   5.585  0.3971  2.3813  0.7713
21951SOL    HW266432   7.980   3.938   5.637 -1.2527 -0.0669 -2.3802
21952SOL     OW66433   2.342   0.463   6.239  1.1534 -0.3998  0.5304
21952SOL    HW166434   2.300   0.536   6.284  0.7334 -0.4349  0.2058
21952SOL    HW266435   2.269   0.417   6.196  1.4803 -0.6847  0.2777
21953SOL     OW66436   6.467   1.980   7.139 -0.5011 -0.2170  0.3428
21953SOL    HW166437   6.543   2.028   7.106  0.6706 -1.6722  0.7871
21953SOL    HW266438   6.449   2.019   7.224  0.0895 -0.2097  0.4674
21954SOL     OW66439   2.126   5.053   0.609  0.5977 -0.0632 -0.2831
21954SOL    HW166440   2.059   5.031   0.544 -0.2099 -0.1010  0.5404
21954SOL    HW266441   2.174   5.126   0.570  0.5879 -0.5393 -1.2201
21955SOL     OW66442   7.373   1.933   3.702 -0.1770 -0.0198 -0.6450
21955SOL    HW166443   7.346   1.844   3.680  2.1218 -0.7129 -1.0136
21955SOL    HW266444   7.421   1.963   3.624  2.2700  0.0712  0.7882
21956SOL     OW66445   0.184   1.362   2.560  0.4749  0.5303  0.2578
21956SOL    HW166446   0.186   1.448   2.519 -0.1369  0.1477 -0.6040
21956SOL    HW266447   0.264   1.359   2.613  1.7506  0.7288 -1.5427
21957SOL     OW66448   6.513   7.535   3.000  0.6374  0.5734 -0.3092
21957SOL    HW166449   6.579   7.478   2.963  1.3978 -0.0521  1.8298
21957SOL    HW266450   6.431   7.489   2.988  1.2822 -1.3393  1.7930
21958SOL     OW66451   9.707   2.548   2.477 -0.7297  0.3687  0.4826
21958SOL    HW166452   9.665   2.615   2.531 -2.3579 -0.4747  0.3313
21958SOL    HW266453   9.665   2.466   2.503  0.4716 -0.4691 -0.0758
21959SOL     OW66454   8.758   1.006   4.584 -0.2347 -0.3912 -0.1957
21959SOL    HW166455   8.689   0.960   4.631 -1.2372  1.2532  0.0382
21959SOL    HW266456   8.749   0.977   4.493 -0.3133 -1.2390  0.0773
21960SOL     OW66457   8.167   1.780   7.302  0.0378 -0.0264 -0.0118
21960SOL    HW166458   8.126   1.693   7.302 -0.7888  0.3492  0.2262
21960SOL    HW266459   8.238   1.774   7.366  0.3056 -0.6659 -0.3610
21961SOL     OW66460   6.142   1.821   6.220  0.0329  0.0480  0.0420
21961SOL    HW166461   6.133   1.728   6.200 -2.9765  0.0390  1.0370
21961SOL    HW266462   6.152   1.824   6.315 -0.6807  0.7771  0.0988
21962SOL     OW66463   7.691   2.618   3.859  0.6760  0.2098  0.0726
21962SOL    HW166464   7.707   2.524   3.870 -1.0204 -0.1667 -0.4201
21962SOL    HW266465   7.673   2.650   3.947 -0.7922 -0.3685  0.0090
21963SOL     OW66466   0.281   8.331   9.192  0.2533  0.0012  0.1377
21963SOL    HW166467   0.367   8.363   9.216 -0.9618  2.0199  2.1636
21963SOL    HW266468   0.281   8.332   9.096  2.5988 -0.5428  0.0776
21964SOL     OW66469   4.180   6.664   3.401  0.1002 -0.3547  0.2779
21964SOL    HW166470   4.200   6.756   3.414  2.1766 -0.4059 -1.8787
21964SOL    HW266471   4.121   6.663   3.325 -0.7865 -0.7699  0.9525
21965SOL     OW66472   2.519   0.757   7.758 -0.2066 -0.3120  0.4284
21965SOL    HW166473   2.437   0.721   7.791 -0.5637 -0.9730 -1.1177
21965SOL    HW266474   2.579   0.751   7.833 -1.5612  0.2743  1.6143
21966SOL     OW66475   0.405   8.918   1.108  0.3881  0.1964 -0.6487
21966SOL    HW166476   0.378   9.009   1.093 -1.3843 -0.0380  0.7564
21966SOL    HW266477   0.487   8.925   1.157 -0.0629  1.0562  0.0131
21967SOL     OW66478   9.327   5.346   0.957 -0.3037 -0.1001  0.6992
21967SOL    HW166479   9.327   5.292   1.036 -0.1486 -0.0423  0.7401
21967SOL    HW266480   9.399   5.312   0.905  1.8255  1.9592  2.0602
21968SOL     OW66481   5.717   1.878   0.540 -0.0515  0.1442  0.3547
21968SOL    HW166482   5.684   1.967   0.527  0.0804  0.1520  0.0635
21968SOL    HW266483   5.673   1.848   0.619 -0.1936  0.4231  0.3844
21969SOL     OW66484   0.922   3.471   5.357  0.2324  0.1005 -0.2514
21969SOL    HW166485   0.917   3.470   5.453  0.7821  0.4044 -0.2098
21969SOL    HW266486   1.016   3.482   5.339  0.3542 -1.6884 -0.8451
21970SOL     OW66487   8.619   9.931   7.607  0.1840  0.2032 -0.2703
21970SOL    HW166488   8.596   9.838   7.599 -0.2989  0.1739  1.1294
21970SOL    HW266489   8.578   9.959   7.689  1.1013  1.4150 -0.1864
21971SOL     OW66490   2.907   3.918   4.864 -0.6761 -0.1356 -0.2664
21971SOL    HW166491   2.868   3.867   4.934 -1.1107 -0.4282 -0.7099
21971SOL    HW266492   2.834   3.969   4.828 -1.0900 -1.9435 -2.2169
21972SOL     OW66493   0.670   8.493   5.645 -0.3710  0.0126  0.2517
21972SOL    HW166494   0.638   8.453   5.564  0.2905  2.0707 -1.1422
21972SOL    HW266495   0.629   8.580   5.646  2.4290  1.4702  0.1170
21973SOL     OW66496   1.877   3.921   9.338  0.2135 -0.8504  0.2377
21973SOL    HW166497   1.849   3.974   9.414 -0.3522 -2.7084  1.3955
21973SOL    HW266498   1.804   3.928   9.277  0.9109  1.1264 -0.4420
21974SOL     OW66499   5.877   5.853   7.852  0.1851 -0.1745 -0.6477
21974SOL    HW166500   5.810   5.804   7.804 -0.3536 -0.4403  0.3425
21974SOL    HW266501   5.856   5.945   7.835 -0.9998 -0.2324  0.3682
21975SOL     OW66502   2.011   0.782   7.382  0.0901  0.2239  0.1862
21975SOL    HW166503   2.043   0.782   7.292  0.9304 -0.5126  0.4683
21975SOL    HW266504   2.000   0.875   7.405  0.8791  0.4444 -0.3242
21976SOL     OW66505   0.886   0.768   7.963 -0.1184 -0.3168 -0.1991
21976SOL    HW166506   0.893   0.864   7.963  3.6167 -0.4435 -0.2028
21976SOL    HW266507   0.854   0.746   7.876  0.7083  0.9217 -0.8593
21977SOL     OW66508   0.016   4.625   5.943  0.2334  0.1609  0.0050
21977SOL    HW166509   0.082   4.666   5.888  0.2973  0.5459  0.3654
21977SOL    HW266510   0.067   4.582   6.012  0.2591 -1.6553 -1.0836
21978SOL     OW66511   5.869   6.637   8.999 -0.4861  0.3324 -0.1524
21978SOL    HW166512   5.960   6.610   8.991 -0.5366  0.0692  0.1511
21978SOL    HW266513   5.819   6.557   8.982 -0.6198 -0.0292  1.7605
21979SOL     OW66514   3.357   5.831   7.387 -0.3329  0.1781 -0.4032
21979SOL    HW166515   3.269   5.837   7.423 -0.3479  1.3487 -0.5914
21979SOL    HW266516   3.383   5.922   7.371  0.5105 -0.1945 -1.3003
21980SOL     OW66517   4.782   5.851   1.100  0.2473 -0.0286 -0.4744
21980SOL    HW166518   4.824   5.936   1.086 -0.0865  0.2832  0.3159
21980SOL    HW266519   4.760   5.851   1.194 -0.3355 -0.7209 -0.6017
21981SOL     OW66520   0.397   1.025   6.746  0.4150 -0.5412 -0.4952
21981SOL    HW166521   0.460   1.094   6.727 -0.6712  0.6023 -0.0730
21981SOL    HW266522   0.334   1.065   6.806 -0.2428 -1.9038 -0.2289
21982SOL     OW66523   5.331   7.507   8.890 -0.6590  0.0565  0.0387
21982SOL    HW166524   5.284   7.465   8.818 -0.8411  2.1283 -1.1315
21982SOL    HW266525   5.404   7.552   8.848 -0.7032  1.2390  1.1630
21983SOL     OW66526   6.205   3.830   3.513 -0.1613  0.0038  0.6348
21983SOL    HW166527   6.251   3.907   3.480 -1.9412  0.8506 -0.0126
21983SOL    HW266528   6.204   3.769   3.439 -0.7551  0.3182  0.3748
21984SOL     OW66529   7.238   7.914   3.722 -0.3072 -0.6810  1.0605
21984SOL    HW166530   7.278   7.946   3.803  0.1295  0.5567  0.3787
21984SOL    HW266531   7.193   7.990   3.685  0.0875 -1.0429 -0.2250
21985SOL     OW66532   2.561   2.413   3.285 -0.3621 -0.1573  0.1958
21985SOL    HW166533   2.617   2.460   3.347  0.8865 -0.1854 -0.8693
21985SOL    HW266534   2.482   2.466   3.280  0.2322  0.7912  0.4841
21986SOL     OW66535   0.388   9.297   9.873  0.2484 -0.5049 -0.1072
21986SOL    HW166536   0.382   9.385   9.909 -0.6925 -0.4209 -0.4449
21986SOL    HW266537   0.381   9.309   9.778 -1.6384 -1.0528 -0.0822
21987SOL     OW66538   6.291   9.209   2.576  0.1945  0.0268 -0.3277
21987SOL    HW166539   6.371   9.157   2.574  0.0494 -0.3415  1.3386
21987SOL    HW266540   6.320   9.296   2.606  0.1771  0.3618 -1.2632
21988SOL     OW66541   5.216   9.773   9.598 -0.2799  0.4267 -0.2602
21988SOL    HW166542   5.208   9.679   9.616  2.5886 -0.0559 -0.9153
21988SOL    HW266543   5.140   9.794   9.544 -0.4686 -1.8033 -0.9822
21989SOL     OW66544   1.286   2.128   5.657 -0.2850  0.0561 -0.1001
21989SOL    HW166545   1.288   2.090   5.569  0.8191  2.2784 -1.1235
21989SOL    HW266546   1.223   2.200   5.650  0.0738  0.4700  0.8436
21990SOL     OW66547   3.665   1.650   9.221 -0.3117  0.2590 -0.1361
21990SOL    HW166548   3.699   1.725   9.270 -0.8742  1.0166 -0.8810
21990SOL    HW266549   3.574   1.673   9.203 -0.4899 -0.6129 -0.3778
21991SOL     OW66550   4.401   2.851   9.725 -0.4201  0.2156  0.2186
21991SOL    HW166551   4.393   2.780   9.789  1.2458  1.1554  1.5687
21991SOL    HW266552   4.494   2.873   9.726 -0.8633  2.3432 -0.2123
21992SOL     OW66553   6.462   1.763   8.831 -0.0437  0.1304  0.1867
21992SOL    HW166554   6.505   1.848   8.823  0.5647 -0.0938  0.9716
21992SOL    HW266555   6.521   1.710   8.884 -0.5220 -0.7188 -0.0932
21993SOL     OW66556   2.080   9.571   1.195  0.2697  0.1629 -0.1024
21993SOL    HW166557   2.103   9.651   1.241  0.2110 -0.5161  1.1436
21993SOL    HW266558   2.036   9.517   1.261  0.2401 -0.8644 -0.9384
21994SOL     OW66559   8.219   8.469   5.535  0.5408  0.3253  0.5362
21994SOL    HW166560   8.291   8.429   5.583  0.0797 -0.3475  0.6691
21994SOL    HW266561   8.252   8.478   5.445  0.9116  0.3500  0.6730
21995SOL     OW66562   6.075   4.508   1.015 -0.0079 -0.3712 -0.0180
21995SOL    HW166563   6.033   4.467   1.091  1.6420 -1.0025  0.5822
21995SOL    HW266564   6.052   4.452   0.941  1.4195 -1.8717  0.6340
21996SOL     OW66565   5.554   1.292   4.020  0.1737  0.1871 -0.0011
21996SOL    HW166566   5.617   1.329   3.959  0.5862 -2.1721 -1.1183
21996SOL    HW266567   5.529   1.365   4.077  0.3569  2.2965 -2.4735
21997SOL     OW66568   7.231   6.504   4.257 -0.4823  0.0809 -0.6671
21997SOL    HW166569   7.151   6.556   4.251  0.2215  1.2888  0.2004
21997SOL    HW266570   7.200   6.416   4.280 -1.4934  0.7742  0.7578
21998SOL     OW66571   1.338   8.851   3.879  0.6545 -0.1744  0.1594
21998SOL    HW166572   1.402   8.905   3.833 -0.4417  1.4694  0.4669
21998SOL    HW266573   1.370   8.846   3.969  0.6643  0.1273  0.1726
21999SOL     OW66574   4.881   9.687   0.261 -0.0886 -0.5801 -0.7953
21999SOL    HW166575   4.966   9.725   0.280 -1.0704  0.2354  2.5628
21999SOL    HW266576   4.901   9.600   0.225  2.2191 -1.2905  1.8978
22000SOL     OW66577   1.825   1.155   2.339 -0.0739 -0.2836  0.1611
22000SOL    HW166578   1.834   1.250   2.332 -1.7090 -0.0973  0.2137
22000SOL    HW266579   1.814   1.138   2.432 -2.0081 -0.2577 -0.0255
22001SOL     OW66580   9.523   0.856   9.122  0.1484 -0.2849  0.1385
22001SOL    HW166581   9.437   0.850   9.162  0.0908 -1.6140 -0.1472
22001SOL    HW266582   9.581   0.883   9.193 -0.3453 -0.2856  0.5459
22002SOL     OW66583   1.830   4.762   9.801 -0.4246 -0.0589 -0.0779
22002SOL    HW166584   1.923   4.774   9.786 -0.1993 -0.7610  0.6656
22002SOL    HW266585   1.799   4.713   9.724 -0.1284 -0.0812 -0.1833
22003SOL     OW66586   7.361   7.557   5.267  0.6901  0.1599  0.1281
22003SOL    HW166587   7.347   7.633   5.210 -1.2679 -1.1644 -1.2618
22003SOL    HW266588   7.293   7.565   5.334 -1.9920 -2.1075 -2.0738
22004SOL     OW66589   2.467   8.379   1.559  0.2894  0.4075  0.1860
22004SOL    HW166590   2.488   8.393   1.652  1.2037 -1.9637  0.4149
22004SOL    HW266591   2.535   8.426   1.511  0.6295  0.5040  0.7547
22005SOL     OW66592   9.581   3.980   5.556  0.3269  0.1139  0.3669
22005SOL    HW166593   9.623   3.935   5.483 -0.8853  0.1728 -0.3999
22005SOL    HW266594   9.603   3.928   5.633  1.9371  0.2538  0.0427
22006SOL     OW66595   8.585   8.392   3.534 -0.2960  0.2512  0.1244
22006SOL    HW166596   8.616   8.461   3.475 -0.8453  0.7626  0.4230
22006SOL    HW266597   8.665   8.349   3.564  0.0181  0.3359 -0.5683
22007SOL     OW66598   1.918   6.110   3.041 -0.1905 -0.0670 -0.1995
22007SOL    HW166599   1.951   6.075   2.958  0.6989 -0.8410  0.4675
22007SOL    HW266600   1.860   6.042   3.074  0.7457 -0.4968  0.6022
22008SOL     OW66601   3.375   6.710   5.651  0.0942  0.1638  0.4767
22008SOL    HW166602   3.318   6.786   5.659 -1.0120 -0.5082 -0.5602
22008SOL    HW266603   3.318   6.635   5.671  0.5233 -0.5484 -0.7909
22009SOL     OW66604   5.961   1.334   6.419  0.3185 -0.2990  0.4298
22009SOL    HW166605   6.017   1.259   6.438 -0.6681 -1.2335 -0.2211
22009SOL    HW266606   5.988   1.362   6.332  2.7398  2.0519  1.8048
22010SOL     OW66607   3.021   4.468   3.101 -0.0506  0.2690 -0.1968
22010SOL    HW166608   3.006   4.385   3.057  3.3655 -0.2290 -0.6919
22010SOL    HW266609   3.042   4.530   3.031 -0.7463  1.0921  0.2962
22011SOL     OW66610   6.845   3.067   2.848  0.1975  0.2638 -1.2158
22011SOL    HW166611   6.786   3.027   2.785  0.5327  0.6854 -1.8126
22011SOL    HW266612   6.790   3.087   2.924 -0.1502 -0.5134 -1.2473
22012SOL     OW66613   5.409   3.185   3.901  0.4270  0.0412  0.2070
22012SOL    HW166614   5.461   3.251   3.856 -0.4921  0.4729 -0.2180
22012SOL    HW266615   5.319   3.199   3.872 -0.3809  0.9571  2.8648
22013SOL     OW66616   2.983   3.091   9.767 -0.1290 -0.2284  0.1644
22013SOL    HW166617   2.968   3.135   9.851 -1.3873 -0.8332  0.2724
22013SOL    HW266618   3.049   3.146   9.724 -1.0888  1.3556  0.6062
22014SOL     OW66619   9.083   3.013   7.940  0.4656  0.0920  0.0513
22014SOL    HW166620   9.141   3.074   7.896  2.7634  0.0177  2.6675
22014SOL    HW266621   9.012   3.067   7.973  0.3436  0.6288 -1.0420
22015SOL     OW66622   0.489   2.658   9.561 -0.0078  0.3266  0.1358
22015SOL    HW166623   0.578   2.663   9.528 -0.1208  0.1068 -0.2097
22015SOL    HW266624   0.441   2.610   9.493 -0.1828 -0.3656  0.7440
22016SOL     OW66625   9.176   4.149   7.369  0.3416 -0.0708  0.0860
22016SOL    HW166626   9.233   4.187   7.302  2.2653 -1.6333  0.7459
22016SOL    HW266627   9.204   4.057   7.375 -0.0837 -0.0998  2.6851
22017SOL     OW66628   6.191   6.060   4.762  0.5062 -0.1627  0.2822
22017SOL    HW166629   6.116   6.042   4.705 -0.8749 -0.0022  1.9764
22017SOL    HW266630   6.159   6.041   4.850  2.1597  0.9045  1.1537
22018SOL     OW66631   4.817   3.700   8.797  0.2385 -0.1064  0.4092
22018SOL    HW166632   4.817   3.754   8.717 -3.5205 -0.9740 -0.3456
22018SOL    HW266633   4.832   3.763   8.868  2.9939  0.7784 -0.8004
22019SOL     OW66634   5.367   6.849   8.388  0.6840 -0.5153  0.1190
22019SOL    HW166635   5.354   6.791   8.463 -1.9622  0.5028  0.5578
22019SOL    HW266636   5.327   6.803   8.314 -1.6569  0.7225  0.5201
22020SOL     OW66637   2.093   8.179   6.552  0.3080 -0.1870 -0.1840
22020SOL    HW166638   2.070   8.142   6.636  0.2195  0.1255 -0.0673
22020SOL    HW266639   2.187   8.161   6.542  0.4319  0.2153  0.2122
22021SOL     OW66640   8.719   0.225   4.586  0.2276  0.2799  0.8325
22021SOL    HW166641   8.726   0.316   4.556  0.8055  0.5702  1.7710
22021SOL    HW266642   8.637   0.193   4.549  1.2551  0.3338 -1.6910
22022SOL     OW66643   6.100   5.440   5.562 -0.4789  0.3615  0.0383
22022SOL    HW166644   6.011   5.421   5.595 -0.5437  0.7132  0.0640
22022SOL    HW266645   6.154   5.442   5.641 -0.3326 -0.4766 -0.0304
22023SOL     OW66646   5.225   3.611   5.753  0.1575 -0.0872 -0.0727
22023SOL    HW166647   5.186   3.688   5.712  0.8354 -0.3834 -1.3124
22023SOL    HW266648   5.153   3.549   5.764  0.2264 -0.6458 -2.3741
22024SOL     OW66649   4.420   0.307   4.230  0.0472 -0.1686 -0.2863
22024SOL    HW166650   4.490   0.369   4.207 -0.4889  0.1194 -1.1708
22024SOL    HW266651   4.344   0.362   4.248  0.0803 -0.4732  0.8834
22025SOL     OW66652   9.154   4.094   8.031 -0.0710 -0.1861 -0.2300
22025SOL    HW166653   9.249   4.104   8.024 -0.0704  1.1741  1.1340
22025SOL    HW266654   9.133   4.023   7.970  1.1823  2.5409 -4.2102
22026SOL     OW66655   1.772   0.951   8.247  0.5895 -0.3711 -0.3263
22026SOL    HW166656   1.679   0.958   8.224  0.6130 -0.2830 -0.3937
22026SOL    HW266657   1.812   0.907   8.172  0.4554 -1.1873  0.0612
22027SOL     OW66658   2.110   3.251   0.906  0.2217  0.1693 -0.4304
22027SOL    HW166659   2.186   3.292   0.946 -0.1431  1.1556 -0.7161
22027SOL    HW266660   2.146   3.181   0.852  0.9996  1.0629 -1.1070
22028SOL     OW66661   0.966   4.663   6.656 -0.0432  0.0314 -0.1984
22028SOL    HW166662   0.899   4.594   6.649 -1.2621  1.0930  0.6437
22028SOL    HW266663   1.020   4.652   6.577  0.7619 -2.8447  0.6250
22029SOL     OW66664   6.336   2.370   4.730 -0.0503 -0.3334  0.4960
22029SOL    HW166665   6.317   2.302   4.664 -1.2104 -0.4263  0.8959
22029SOL    HW266666   6.431   2.381   4.726 -0.0700 -0.4912 -1.0410
22030SOL     OW66667   4.461   4.168   1.559 -0.2867 -0.0382 -0.1115
22030SOL    HW166668   4.495   4.136   1.643 -2.3729 -0.8294  0.4976
22030SOL    HW266669   4.385   4.220   1.583  0.5451  1.8796 -1.4027
22031SOL     OW66670   2.512   9.375   8.590  0.5324 -0.1319  0.2048
22031SOL    HW166671   2.501   9.411   8.502  2.2786 -1.1198 -0.4627
22031SOL    HW266672   2.453   9.300   8.593  0.2268  0.1000 -0.0149
22032SOL     OW66673   7.370   0.245   1.061  0.0480  0.1572 -0.3549
22032SOL    HW166674   7.344   0.193   0.985 -3.5578  2.3122 -0.7755
22032SOL    HW266675   7.344   0.192   1.137 -0.3496 -0.1536 -0.7059
22033SOL     OW66676   3.032   1.608   9.491  0.1871  0.1646  0.8155
22033SOL    HW166677   2.994   1.521   9.489  1.3809 -0.3733  0.4510
22033SOL    HW266678   2.958   1.668   9.483 -0.5108 -0.8494 -0.5267
22034SOL     OW66679   3.235   0.495   9.866  0.1684  0.0217  0.0878
22034SOL    HW166680   3.285   0.457   9.794  2.2414 -0.5007  1.6970
22034SOL    HW266681   3.147   0.460   9.855  0.7731 -1.1560 -1.3748
22035SOL     OW66682   3.451   5.480   6.019  0.1646  0.3188  0.0597
22035SOL    HW166683   3.456   5.404   6.078  0.9213 -0.2926 -0.7476
22035SOL    HW266684   3.358   5.493   6.003  0.0202 -2.7209 -2.5640
22036SOL     OW66685   5.262   0.412   5.875 -0.2909 -0.3898  0.0846
22036SOL    HW166686   5.193   0.475   5.896  0.1527  0.3823 -0.7088
22036SOL    HW266687   5.217   0.340   5.832 -0.6295  0.0592 -0.3209
22037SOL     OW66688   6.800   2.803   4.605 -0.3858 -0.5056  0.4037
22037SOL    HW166689   6.784   2.724   4.553  1.2491 -0.3867 -0.3476
22037SOL    HW266690   6.892   2.823   4.589 -0.7059  1.4022  0.8053
22038SOL     OW66691   7.297   1.303   8.889 -0.0267  0.3034 -0.5588
22038SOL    HW166692   7.391   1.321   8.898  0.2647 -1.6267  0.9115
22038SOL    HW266693   7.291   1.245   8.813  0.1029 -0.2902 -0.1244
22039SOL     OW66694   5.123   2.244   6.768 -0.0485 -0.2119 -0.0514
22039SOL    HW166695   5.152   2.212   6.853 -1.2272  0.2004  0.5169
22039SOL    HW266696   5.193   2.303   6.739  0.0247  0.2139  0.9630
22040SOL     OW66697   9.434   6.417   0.943 -0.1468  0.4954  0.4922
22040SOL    HW166698   9.515   6.459   0.915 -0.5281  2.0898  1.6178
22040SOL    HW266699   9.462   6.341   0.993  0.6747  1.0364  0.8816
22041SOL     OW66700   0.267   3.080   5.804  0.1067  0.0664  0.1684
22041SOL    HW166701   0.197   3.021   5.780 -0.1671  1.1726 -2.0305
22041SOL    HW266702   0.223   3.157   5.841  0.2846  0.0240  0.4747
22042SOL     OW66703   3.210   3.709   4.471  0.0266  0.6643  0.0470
22042SOL    HW166704   3.243   3.791   4.434  0.6664  0.6114  0.4773
22042SOL    HW266705   3.171   3.734   4.555  1.0182  0.4322  0.6051
22043SOL     OW66706   1.110   4.562   1.237 -0.2899  0.1026 -0.2979
22043SOL    HW166707   1.040   4.609   1.282  0.0307  1.4448 -1.1421
22043SOL    HW266708   1.075   4.475   1.221 -2.0902  0.9835 -1.4252
22044SOL     OW66709   6.667   1.486   8.061 -0.2076 -0.3402 -0.3767
22044SOL    HW166710   6.645   1.520   7.974  0.3215 -1.2952 -0.8930
22044SOL    HW266711   6.646   1.559   8.121 -1.0908  0.1354 -1.2326
22045SOL     OW66712   5.543   1.254   3.655  0.0011 -0.1684 -0.1032
22045SOL    HW166713   5.488   1.175   3.657 -0.4874  0.1307 -1.0542
22045SOL    HW266714   5.559   1.268   3.561  0.8977  0.3075  0.1169
22046SOL     OW66715   9.271   8.783   9.754 -0.1857  0.4874 -0.4042
22046SOL    HW166716   9.211   8.819   9.818 -1.9915 -0.8666 -1.2617
22046SOL    HW266717   9.335   8.853   9.739 -0.5330  1.3294  1.7814
22047SOL     OW66718   2.365   3.761   9.446  0.4301 -0.5312  0.1093
22047SOL    HW166719   2.398   3.678   9.482 -0.9417 -1.1673 -0.0318
22047SOL    HW266720   2.327   3.736   9.362 -1.2265 -0.0162  0.6692
22048SOL     OW66721   3.189   4.274   8.381 -0.6680  0.1136 -0.0930
22048SOL    HW166722   3.200   4.364   8.412 -2.2523  0.2357  0.1730
22048SOL    HW266723   3.264   4.227   8.417  0.9179  1.5772 -1.3254
22049SOL     OW66724   0.177   0.389   0.617 -0.1528 -0.1533  0.3730
22049SOL    HW166725   0.102   0.435   0.655  1.0424  0.8022  1.6892
22049SOL    HW266726   0.213   0.450   0.553 -0.1056 -0.3417  0.2189
22050SOL     OW66727   8.608   8.721   7.653  0.8403 -0.2639 -0.4770
22050SOL    HW166728   8.630   8.667   7.729  0.2556  0.9078  0.5548
22050SOL    HW266729   8.518   8.696   7.632  0.6648  0.0976 -0.1691
22051SOL     OW66730   4.094   3.097   1.168 -0.0951  0.1387  0.2306
22051SOL    HW166731   4.128   3.184   1.187  1.8700 -0.2144 -1.3257
22051SOL    HW266732   4.164   3.038   1.196 -0.4348 -0.7949 -0.8072
22052SOL     OW66733   0.623   4.246   4.443  0.0914  0.6118 -0.0623
22052SOL    HW166734   0.683   4.253   4.369  2.2282  0.9341  1.6043
22052SOL    HW266735   0.642   4.323   4.497 -1.4593  0.4260  0.7894
22053SOL     OW66736   7.245   2.216   5.475 -0.6284  0.4460  0.0248
22053SOL    HW166737   7.277   2.173   5.554 -1.9905 -1.6935 -0.5082
22053SOL    HW266738   7.324   2.252   5.434  0.2470  0.5467  1.7123
22054SOL     OW66739   6.760   0.410   0.947 -0.2387  0.1510 -0.2293
22054SOL    HW166740   6.706   0.369   1.014 -0.8442  2.7322  0.9771
22054SOL    HW266741   6.850   0.396   0.977 -0.4328 -0.1590  0.2232
22055SOL     OW66742   3.167   8.880   4.750 -0.2723  0.4724 -0.4421
22055SOL    HW166743   3.250   8.921   4.727  0.4503 -0.6227  0.1529
22055SOL    HW266744   3.185   8.786   4.749 -1.3830  0.2365  0.1638
22056SOL     OW66745   2.467   7.718   3.814  0.3728  0.2870  0.5878
22056SOL    HW166746   2.557   7.690   3.798 -0.2442 -0.1428 -2.7589
22056SOL    HW266747   2.470   7.813   3.805  0.4829  0.2719  0.4581
22057SOL     OW66748   2.968   4.982   3.991  0.1188 -0.1583  0.6811
22057SOL    HW166749   2.971   4.887   3.987  2.8476 -0.2218  2.2821
22057SOL    HW266750   2.980   5.003   4.083  0.6145  1.7434  0.2337
22058SOL     OW66751   2.926   3.146   2.346 -0.0444  0.1393  0.4260
22058SOL    HW166752   2.944   3.057   2.315 -0.6597 -0.3382  1.4026
22058SOL    HW266753   3.009   3.176   2.382 -0.1841 -0.6075  1.4203
22059SOL     OW66754   9.711   3.563   4.472  0.2442  0.2641 -0.0351
22059SOL    HW166755   9.669   3.478   4.486  0.0902  0.4064  0.3924
22059SOL    HW266756   9.655   3.625   4.519  0.4037  0.5874 -0.2717
22060SOL     OW66757   3.623   3.383   2.321  0.7890 -0.3070  0.9659
22060SOL    HW166758   3.702   3.331   2.332 -0.1735 -2.2558 -0.7828
22060SOL    HW266759   3.612   3.393   2.227 -2.8722 -3.2589  0.8343
22061SOL     OW66760   3.976   0.546   2.350  0.4611  0.0929  0.4703
22061SOL    HW166761   3.968   0.630   2.304  0.6578 -0.5326 -0.7412
22061SOL    HW266762   3.984   0.481   2.280 -2.0393 -1.2246  1.2893
22062SOL     OW66763   3.244   5.490   8.544 -0.5013 -0.4956  0.1278
22062SOL    HW166764   3.207   5.557   8.488  0.5133  0.3799  0.4662
22062SOL    HW266765   3.195   5.411   8.522  1.7075 -0.9613 -4.1036
22063SOL     OW66766   9.861   2.686   7.005 -0.1221 -0.4086 -0.4757
22063SOL    HW166767   9.889   2.652   6.921 -0.1326 -0.5827 -0.4089
22063SOL    HW266768   9.879   2.780   7.000  1.1399 -0.6185 -0.1638
22064SOL     OW66769   6.287   2.175   8.784  0.3785  0.0305 -0.1063
22064SOL    HW166770   6.359   2.112   8.796  0.7451  0.8713  2.9673
22064SOL    HW266771   6.208   2.121   8.787  0.7625 -0.7175 -1.9575
22065SOL     OW66772   7.160   7.770   7.393 -0.3017 -0.3989  0.1803
22065SOL    HW166773   7.227   7.701   7.383  0.3899  0.2391  0.3314
22065SOL    HW266774   7.149   7.779   7.487  1.4027  1.3661  0.2670
22066SOL     OW66775   5.724   6.353   1.663 -0.1312  0.1782 -0.1176
22066SOL    HW166776   5.818   6.343   1.677 -0.0404 -0.3541 -0.9773
22066SOL    HW266777   5.716   6.367   1.568 -1.0328 -1.7356 -0.3833
22067SOL     OW66778   6.589   5.392   0.205  0.0900 -0.5521  0.0894
22067SOL    HW166779   6.570   5.301   0.184 -0.6545 -0.7877  1.6289
22067SOL    HW266780   6.600   5.393   0.300  2.5097  0.5651 -0.1449
22068SOL     OW66781   4.722   6.317   9.825 -0.8476 -0.0675  0.8254
22068SOL    HW166782   4.756   6.370   9.897  1.4520  0.5455 -0.6461
22068SOL    HW266783   4.733   6.227   9.855  4.2319 -0.0969 -0.2273
22069SOL     OW66784   0.532   0.086   0.805  0.4775  0.1144 -0.2217
22069SOL    HW166785   0.607   0.101   0.747  0.6521 -1.9939 -0.6142
22069SOL    HW266786   0.458   0.124   0.758  0.8828 -0.1468 -1.1009
22070SOL     OW66787   2.503   0.059   2.703  0.3796  0.1725 -0.4858
22070SOL    HW166788   2.587   0.014   2.703  0.1163 -0.4003  1.2381
22070SOL    HW266789   2.490   0.086   2.612  1.9392 -0.6094 -0.9767
22071SOL     OW66790   9.214   4.526   6.052 -0.2878 -0.0161 -0.1165
22071SOL    HW166791   9.168   4.482   5.981 -1.2680 -1.8322  1.5488
22071SOL    HW266792   9.204   4.619   6.033 -0.8704 -0.4351 -2.1033
22072SOL     OW66793   5.613   2.388   7.793  0.2574 -0.1798  0.5911
22072SOL    HW166794   5.627   2.421   7.881 -0.0748  0.9838  0.2290
22072SOL    HW266795   5.535   2.333   7.800 -1.0558  1.5794  0.6672
22073SOL     OW66796   8.265   4.552   3.910  0.4590 -0.1981 -0.2611
22073SOL    HW166797   8.305   4.554   3.823  0.4490  0.1387 -0.2598
22073SOL    HW266798   8.334   4.516   3.967 -0.0841 -1.9770 -0.6765
22074SOL     OW66799   1.612   1.753   5.598  0.0299  0.0030  0.7614
22074SOL    HW166800   1.689   1.726   5.647  0.4987 -0.2134 -0.0724
22074SOL    HW266801   1.540   1.749   5.661  0.6597 -0.0089  1.4896
22075SOL     OW66802   7.149   3.450   1.649  0.0577 -0.5955  0.0363
22075SOL    HW166803   7.124   3.495   1.568  0.4966 -1.4763 -0.6024
22075SOL    HW266804   7.178   3.364   1.621 -1.5243 -1.5967  1.3112
22076SOL     OW66805   7.903   3.160   8.854  0.2552 -0.2891 -0.0392
22076SOL    HW166806   7.990   3.183   8.886  0.8514  0.2287 -1.8903
22076SOL    HW266807   7.898   3.065   8.864  1.6509 -0.5247 -1.2816
22077SOL     OW66808   7.029   0.195   5.055 -0.1912  0.1992  0.3960
22077SOL    HW166809   7.082   0.177   4.977  0.0322 -3.2441  1.1851
22077SOL    HW266810   7.077   0.265   5.100  0.7153  0.9170 -1.5328
22078SOL     OW66811   3.533   1.463   0.811 -0.5752  0.0040 -0.1209
22078SOL    HW166812   3.532   1.545   0.861  0.9246 -0.1965  0.2994
22078SOL    HW266813   3.542   1.491   0.720 -2.5305  0.3515 -0.2385
22079SOL     OW66814   8.161   9.147   2.301  0.5182 -0.2112  0.3163
22079SOL    HW166815   8.190   9.233   2.269  1.7257 -0.6049  0.3012
22079SOL    HW266816   8.106   9.113   2.231 -2.7373  1.8764  1.6233
22080SOL     OW66817   9.608   1.896   4.259  0.5199 -0.3131 -0.3006
22080SOL    HW166818   9.614   1.986   4.227  0.6527  0.1372  0.9406
22080SOL    HW266819   9.645   1.843   4.189 -1.0260  0.4235 -1.7548
22081SOL     OW66820   7.753   9.619   0.661  0.4887  0.2463 -0.0863
22081SOL    HW166821   7.719   9.554   0.600 -0.3717  1.2723 -0.7395
22081SOL    HW266822   7.845   9.594   0.674 -0.5850 -2.9969  2.3052
22082SOL     OW66823   3.039   5.723   1.827 -0.3847 -0.3096 -0.1037
22082SOL    HW166824   2.945   5.717   1.844 -0.3086  0.8453  0.8988
22082SOL    HW266825   3.055   5.817   1.813  0.9739 -0.0599  2.3971
22083SOL     OW66826   1.224   2.173   3.685  0.5358  0.2771  0.1051
22083SOL    HW166827   1.146   2.191   3.737  0.3529  0.6386 -0.2899
22083SOL    HW266828   1.259   2.259   3.664 -0.2665  0.2096 -1.6821
22084SOL     OW66829   7.181   3.986   9.056 -0.4801 -0.2657  0.0856
22084SOL    HW166830   7.248   4.050   9.034 -1.2865  0.4724 -0.2941
22084SOL    HW266831   7.229   3.907   9.078  0.5589  0.5680  0.9383
22085SOL     OW66832   7.143   4.381   4.288 -0.3882  0.1025 -0.1581
22085SOL    HW166833   7.178   4.462   4.250  1.6601 -0.0158  1.2903
22085SOL    HW266834   7.061   4.407   4.330 -0.2656  1.2069 -0.5760
22086SOL     OW66835   9.694   1.446   9.269  0.5983 -0.5567  0.0665
22086SOL    HW166836   9.688   1.541   9.256  1.2652 -0.4725  0.3422
22086SOL    HW266837   9.760   1.417   9.207 -0.0761 -0.9439 -0.4777
22087SOL     OW66838   7.434   4.401   2.217 -0.1509  0.4428  0.0478
22087SOL    HW166839   7.427   4.492   2.186  0.1531  0.6753  0.6405
22087SOL    HW266840   7.499   4.405   2.287  0.5056 -0.3798 -0.4839
22088SOL     OW66841   3.733   9.264   3.699 -0.0512 -0.4093  0.3310
22088SOL    HW166842   3.765   9.351   3.673  0.7794 -0.5411  0.8539
22088SOL    HW266843   3.804   9.228   3.753 -0.9871 -0.8364  1.3084
22089SOL     OW66844   4.746   0.654   5.432 -0.0124  0.1518 -0.2216
22089SOL    HW166845   4.839   0.663   5.411  0.2050  0.9382  1.0181
22089SOL    HW266846   4.739   0.567   5.471  0.5121  0.6762  1.1147
22090SOL     OW66847   9.472   9.280   7.531  0.9443 -0.1236 -0.7910
22090SOL    HW166848   9.500   9.265   7.621  1.5425  0.9219 -0.7941
22090SOL    HW266849   9.393   9.335   7.539  0.1824 -1.1760 -0.8680
22091SOL     OW66850   5.508   4.035   6.813 -0.6503  0.2724  0.5841
22091SOL    HW166851   5.566   4.095   6.767 -0.2876  1.3452  2.3236
22091SOL    HW266852   5.555   4.014   6.894  0.3326 -4.2811 -0.8651
22092SOL     OW66853   4.864   1.784   0.703  0.5169 -0.0517 -0.1070
22092SOL    HW166854   4.926   1.741   0.761 -0.5760  0.6085  1.6401
22092SOL    HW266855   4.860   1.874   0.735 -0.6473  0.1575 -0.7692
22093SOL     OW66856   5.912   2.005   3.159 -0.0306 -0.1899 -0.4841
22093SOL    HW166857   5.830   1.961   3.134  0.6986 -1.1738 -1.2797
22093SOL    HW266858   5.960   1.938   3.209  0.4478  0.2435 -0.3603
22094SOL     OW66859   2.492   8.955   4.453 -0.2739 -0.0917 -0.1890
22094SOL    HW166860   2.456   9.042   4.435  1.8042  1.0667  0.8286
22094SOL    HW266861   2.531   8.927   4.370  0.7145  0.8340 -0.0565
22095SOL     OW66862   0.253   6.637   8.462 -0.2455  0.2941  0.6943
22095SOL    HW166863   0.311   6.590   8.403 -0.4806  0.5199  0.2817
22095SOL    HW266864   0.310   6.665   8.534  0.7522  2.7497 -0.9203
22096SOL     OW66865   3.355   3.663   2.033  0.1200 -0.0857  0.1183
22096SOL    HW166866   3.301   3.735   2.000 -0.2974 -1.3385 -2.0701
22096SOL    HW266867   3.444   3.685   2.006  0.2463  0.3197  0.8104
22097SOL     OW66868   7.521   7.874   1.215 -0.5873  0.0488 -0.1288
22097SOL    HW166869   7.606   7.867   1.172 -0.5220 -1.5176  0.1817
22097SOL    HW266870   7.493   7.964   1.199  2.6037  1.7523  2.5184
22098SOL     OW66871   4.176   9.825   7.747  0.1634 -0.2015  0.3299
22098SOL    HW166872   4.230   9.788   7.677 -1.5175 -2.5343  0.1454
22098SOL    HW266873   4.136   9.902   7.708  0.1017 -0.8465 -0.9406
22099SOL     OW66874   4.156   1.391   1.125  0.4198  0.1014  0.2774
22099SOL    HW166875   4.213   1.461   1.095  0.1655  0.3821  0.4362
22099SOL    HW266876   4.179   1.379   1.217 -0.4006  0.8526  0.5967
22100SOL     OW66877   6.809   5.813   1.824  0.1237 -0.3964  0.1248
22100SOL    HW166878   6.764   5.765   1.893  2.7544 -2.4124  0.5925
22100SOL    HW266879   6.875   5.866   1.869 -1.2898  2.1548 -0.5692
22101SOL     OW66880   2.971   6.584   9.137  0.2516 -0.0374 -0.0053
22101SOL    HW166881   3.056   6.602   9.177  0.4817  0.2706 -0.6230
22101SOL    HW266882   2.985   6.600   9.044 -0.9592  1.8076  0.0811
22102SOL     OW66883   5.448   3.405   2.890  0.4220 -0.0399 -0.3425
22102SOL    HW166884   5.377   3.469   2.885  1.0315  0.6630 -0.1398
22102SOL    HW266885   5.467   3.397   2.983  0.0494 -0.8807 -0.3193
22103SOL     OW66886   9.638   2.020   3.381  0.4371 -0.0353 -0.0079
22103SOL    HW166887   9.573   1.959   3.347 -0.1231  1.1886 -1.2275
22103SOL    HW266888   9.611   2.105   3.348  1.8466  0.7230  0.6804
22104SOL     OW66889   9.007   2.413   5.865 -0.1895  0.1003 -0.3916
22104SOL    HW166890   9.015   2.451   5.778 -1.0286  2.0967  0.3414
22104SOL    HW266891   8.927   2.450   5.901 -0.1624 -1.1084  1.0474
22105SOL     OW66892   2.945   4.487   2.615 -0.4103 -0.1680 -0.1603
22105SOL    HW166893   2.900   4.403   2.621 -1.1522  0.2611  0.6736
22105SOL    HW266894   3.037   4.465   2.607 -0.7492 -1.0898 -2.1226
22106SOL     OW66895   6.739   2.565   2.090  0.4479  0.0183  0.0678
22106SOL    HW166896   6.727   2.659   2.077  1.5525 -0.0008 -1.2994
22106SOL    HW266897   6.724   2.526   2.004  0.0698 -1.0722  0.6005
22107SOL     OW66898   3.381   0.136   6.800  0.1536  0.9606  0.0212
22107SOL    HW166899   3.364   0.075   6.728  1.1539 -1.0848  1.4150
22107SOL    HW266900   3.347   0.220   6.769 -0.9752 -0.2072 -2.1396
22108SOL     OW66901   3.411   5.667   6.650  0.1402 -0.2494  0.0641
22108SOL    HW166902   3.429   5.604   6.580 -0.0710 -1.7318  1.2960
22108SOL    HW266903   3.346   5.623   6.705 -1.4885  1.8417 -0.0645
22109SOL     OW66904   5.455   7.937   0.702  0.2671 -0.6216  0.2610
22109SOL    HW166905   5.488   7.980   0.781 -0.0573 -0.6175  0.3957
22109SOL    HW266906   5.378   7.888   0.731  1.2446 -2.1732  0.3187
22110SOL     OW66907   1.179   3.863   9.707  0.3331  0.0293  0.0361
22110SOL    HW166908   1.169   3.847   9.801  1.3530 -1.1348 -0.0234
22110SOL    HW266909   1.255   3.811   9.683  0.4688  0.8251 -1.3208
22111SOL     OW66910   7.678   5.473   0.886  0.1727 -0.2463 -0.1279
22111SOL    HW166911   7.768   5.472   0.852  0.4972  0.0641  0.6910
22111SOL    HW266912   7.686   5.443   0.977 -0.6433 -0.8639 -0.2513
22112SOL     OW66913   3.728   6.793   0.655  0.3301 -0.0012 -0.2452
22112SOL    HW166914   3.748   6.701   0.639 -0.2868 -0.7539  2.6446
22112SOL    HW266915   3.809   6.830   0.690 -0.2334 -0.2747  1.4237
22113SOL     OW66916   6.563   9.770   9.113  0.2302 -0.2192 -0.2874
22113SOL    HW166917   6.566   9.675   9.114  1.9554 -0.1814  0.3844
22113SOL    HW266918   6.615   9.797   9.188  2.0035  1.2623 -1.9424
22114SOL     OW66919   6.988   6.089   5.190  0.7538  0.3318 -0.3181
22114SOL    HW166920   6.928   6.072   5.262  1.1117  0.1297 -0.0627
22114SOL    HW266921   7.066   6.126   5.231  1.4808 -1.0038 -0.4366
22115SOL     OW66922   1.761   2.467   6.134  0.0094  0.4974 -0.4066
22115SOL    HW166923   1.843   2.503   6.100 -0.4123  0.7533 -1.1775
22115SOL    HW266924   1.743   2.391   6.079  0.7141 -0.7326  0.9918
22116SOL     OW66925   7.392   9.835   0.854  0.0651  0.7456  0.1669
22116SOL    HW166926   7.412   9.742   0.847  1.1912  0.9450  0.5617
22116SOL    HW266927   7.477   9.878   0.851 -0.5197  1.8647 -1.3643
22117SOL     OW66928   8.225   9.282   8.923 -0.8513  0.2031  0.3525
22117SOL    HW166929   8.156   9.347   8.934  0.8519  2.0907  0.2828
22117SOL    HW266930   8.238   9.277   8.828 -1.1675 -0.4949  0.3352
22118SOL     OW66931   4.275   5.252   0.880 -0.3131  0.5037  0.1817
22118SOL    HW166932   4.340   5.202   0.831 -3.4648 -4.0525  0.0347
22118SOL    HW266933   4.302   5.243   0.972  0.7739  1.2758 -0.0437
22119SOL     OW66934   8.177   9.466   6.663  0.7137  0.2246  0.3608
22119SOL    HW166935   8.106   9.511   6.618  0.6644 -0.0265  0.1858
22119SOL    HW266936   8.134   9.397   6.713  1.0148 -1.4820 -1.6097
22120SOL     OW66937   9.763   5.738   9.319  0.6324  0.6441  0.2331
22120SOL    HW166938   9.740   5.767   9.230 -1.6428  0.5552  0.7310
22120SOL    HW266939   9.696   5.779   9.375  0.5124 -1.3105  1.6008
22121SOL     OW66940   8.099   0.508   9.938  0.0410  0.0082  0.1437
22121SOL    HW166941   8.073   0.502   9.846 -2.3338 -0.7185  0.7789
22121SOL    HW266942   8.021   0.478   9.986  1.7858 -1.3087  2.3308
22122SOL     OW66943   8.532   7.554   9.025  0.0594 -0.1339  0.3923
22122SOL    HW166944   8.581   7.497   8.965  0.3404  0.5313 -0.0253
22122SOL    HW266945   8.440   7.536   9.007  0.1183  0.8698 -1.0685
22123SOL     OW66946   6.646   5.878   5.628  0.2341 -0.1619 -0.0414
22123SOL    HW166947   6.639   5.968   5.659  0.6873 -0.0954 -0.1303
22123SOL    HW266948   6.673   5.885   5.536 -0.8907 -0.3618 -0.4176
22124SOL     OW66949   7.758   7.932   2.138  0.0620  0.9586 -0.4745
22124SOL    HW166950   7.670   7.900   2.120  0.8208  0.0960 -3.1495
22124SOL    HW266951   7.769   7.922   2.232 -1.8879 -1.0891 -0.3920
22125SOL     OW66952   5.877   3.290   2.693 -0.0544 -0.2163 -0.4426
22125SOL    HW166953   5.853   3.202   2.664 -2.4615  0.4226 -0.5371
22125SOL    HW266954   5.815   3.310   2.764 -0.1689  1.7576 -1.0461
22126SOL     OW66955   9.730   5.147   7.944 -0.5459  0.1742 -0.4206
22126SOL    HW166956   9.754   5.215   7.881  0.3226  0.9557  0.7071
22126SOL    HW266957   9.808   5.136   7.998 -1.4434 -0.0888  0.8626
22127SOL     OW66958   2.853   6.824   8.179 -0.9776 -0.3799 -0.3624
22127SOL    HW166959   2.946   6.822   8.161 -0.7531  1.3186  0.4227
22127SOL    HW266960   2.811   6.816   8.093 -0.0948 -0.1288 -0.8242
22128SOL     OW66961   8.012   4.096   6.055  0.4327 -0.1557 -0.4560
22128SOL    HW166962   7.985   4.160   6.121 -1.7602 -1.8225  0.3615
22128SOL    HW266963   8.004   4.143   5.972  1.8709  1.5405  0.2907
22129SOL     OW66964   9.355   8.554   7.867  0.2699 -0.7360 -0.6493
22129SOL    HW166965   9.357   8.569   7.962  0.3185  2.4074 -1.0237
22129SOL    HW266966   9.448   8.553   7.841  0.2356 -0.1606 -0.8096
22130SOL     OW66967   4.891   2.939   7.809  0.1849  0.5127 -0.1325
22130SOL    HW166968   4.796   2.930   7.821 -0.1769  1.8384 -1.5887
22130SOL    HW266969   4.914   2.869   7.747  0.1179  0.3095  0.0726
22131SOL     OW66970   1.543   9.879   7.004 -0.4501 -0.2038 -0.1223
22131SOL    HW166971   1.574   9.946   6.942  0.0063  0.6206  0.9674
22131SOL    HW266972   1.457   9.910   7.031 -1.1726 -1.1841 -1.2205
22132SOL     OW66973   8.672   8.500   1.752  0.3948 -0.1638  0.1112
22132SOL    HW166974   8.757   8.479   1.789 -1.0186 -1.0593  3.1486
22132SOL    HW266975   8.666   8.596   1.757  1.0722 -0.1252  0.1945
22133SOL     OW66976   6.779   3.868   8.254 -0.4098  0.4374 -0.2931
22133SOL    HW166977   6.840   3.890   8.324 -0.9662  1.8328 -0.2144
22133SOL    HW266978   6.758   3.776   8.269 -0.3348  0.6413  1.2446
22134SOL     OW66979   3.144   4.748   2.554 -0.5837  0.6345 -0.2456
22134SOL    HW166980   3.211   4.780   2.614 -1.6986  2.1389  0.2567
22134SOL    HW266981   3.094   4.684   2.605 -0.2692  0.3812 -0.2497
22135SOL     OW66982   2.833   0.259   9.334 -0.0530 -0.3334 -0.6816
22135SOL    HW166983   2.894   0.309   9.280 -0.4557  0.7197 -0.1960
22135SOL    HW266984   2.885   0.187   9.370  0.7795  0.2775 -0.6480
22136SOL     OW66985   9.564   3.641   2.558 -0.3646 -0.3349  0.0684
22136SOL    HW166986   9.635   3.579   2.542 -1.5818 -1.3695 -1.6249
22136SOL    HW266987   9.544   3.678   2.472 -1.2278  0.6770  0.6725
22137SOL     OW66988   4.947   3.350   5.045  0.1710  0.3724 -0.1889
22137SOL    HW166989   4.992   3.422   5.003  1.4201  0.6713  1.5322
22137SOL    HW266990   5.014   3.282   5.055 -0.4699 -0.2500 -0.0013
22138SOL     OW66991   2.367   1.898   1.215  0.2974  0.2447 -0.1153
22138SOL    HW166992   2.282   1.937   1.231  0.6814  1.9342 -1.8435
22138SOL    HW266993   2.349   1.822   1.159 -0.1180  0.1964  0.0823
22139SOL     OW66994   4.030   4.802   1.258 -0.5141 -0.1060  0.0228
22139SOL    HW166995   4.097   4.859   1.295  0.0657 -0.8764  0.1822
22139SOL    HW266996   3.976   4.775   1.332 -1.0361  0.5370 -0.1093
22140SOL     OW66997   3.368   4.249   5.830  0.5355  0.7891 -0.5656
22140SOL    HW166998   3.449   4.237   5.879  0.3720  1.0913 -0.2212
22140SOL    HW266999   3.345   4.341   5.843  0.4951  0.8815 -1.2155
22141SOL     OW67000   0.148   7.811   7.669  0.0594 -0.0743  0.4059
22141SOL    HW167001   0.234   7.771   7.676 -0.0745 -0.4561 -0.0163
22141SOL    HW267002   0.136   7.825   7.575 -0.5704 -0.5626  0.4003
22142SOL     OW67003   7.945   0.360   9.505  0.2492  0.1923  0.5054
22142SOL    HW167004   8.016   0.302   9.479  1.5503  1.7234  0.4613
22142SOL    HW267005   7.907   0.390   9.423  0.2665  0.2147  0.5061
22143SOL     OW67006   5.269   8.795   5.993  0.0809 -0.3142  0.4473
22143SOL    HW167007   5.310   8.748   6.066 -0.1356 -0.1990  0.6419
22143SOL    HW267008   5.340   8.847   5.955  0.7489 -2.0169 -0.7887
22144SOL     OW67009   5.965   5.801   1.040 -0.7206 -0.2142 -0.1087
22144SOL    HW167010   6.031   5.793   0.971 -0.4205 -1.1698  0.2670
22144SOL    HW267011   6.010   5.771   1.119 -1.3675 -0.1196  0.3019
22145SOL     OW67012   7.274   5.596   9.157  0.5284  0.1340  0.2691
22145SOL    HW167013   7.281   5.689   9.177  0.8490  0.5426 -1.5354
22145SOL    HW267014   7.331   5.583   9.082  1.0188 -1.6784  0.8912
22146SOL     OW67015   2.914   6.514   6.665 -0.8816  0.6435 -0.2906
22146SOL    HW167016   2.912   6.538   6.758  0.2061 -1.4201  0.3265
22146SOL    HW267017   2.982   6.570   6.627  0.9129 -0.6027  0.8967
22147SOL     OW67018   6.902   5.192   0.533  0.1529  0.1574 -0.1454
22147SOL    HW167019   6.855   5.158   0.457 -1.6146  0.5448  0.7320
22147SOL    HW267020   6.977   5.134   0.543 -1.1188 -1.6203 -0.5086
22148SOL     OW67021   8.565   1.477   3.483 -0.3061 -0.0514  0.2530
22148SOL    HW167022   8.482   1.508   3.447  0.8406  0.7367 -1.8455
22148SOL    HW267023   8.571   1.518   3.569 -1.6253  0.6567  0.0293
22149SOL     OW67024   6.820   7.611   7.208 -0.0815  0.1505  0.2070
22149SOL    HW167025   6.793   7.660   7.285 -1.5086  0.1422 -0.2578
22149SOL    HW267026   6.754   7.543   7.198  0.2362 -0.0245 -0.8568
22150SOL     OW67027   4.890   6.155   9.594 -0.1396  0.2585 -0.4969
22150SOL    HW167028   4.861   6.216   9.662 -0.2649  0.3461 -0.6286
22150SOL    HW267029   4.985   6.150   9.605 -0.4040 -2.5315  2.0767
22151SOL     OW67030   2.063   6.873   4.994  0.6928 -0.2644 -0.6610
22151SOL    HW167031   2.078   6.849   4.902 -1.7519 -0.0314 -1.2052
22151SOL    HW267032   2.092   6.964   5.000  2.8140 -0.8932 -0.6038
22152SOL     OW67033   7.018   9.043   9.054  0.2731  0.5076  0.0672
22152SOL    HW167034   6.928   9.076   9.043  0.2758  0.8488  0.9657
22152SOL    HW267035   7.036   9.055   9.147  0.5217 -1.4340  0.3075
22153SOL     OW67036   0.355   2.250   7.988 -0.8041 -0.0513  0.5734
22153SOL    HW167037   0.443   2.212   7.995 -0.3435  1.0149  0.8626
22153SOL    HW267038   0.327   2.262   8.079 -0.8036  0.5649  0.4995
22154SOL     OW67039   8.039   6.220   7.111  0.1292 -0.2801 -0.6117
22154SOL    HW167040   8.099   6.163   7.160  0.2858  0.6125  0.2834
22154SOL    HW267041   7.986   6.161   7.059 -0.7422 -1.3836  1.4018
22155SOL     OW67042   3.354   9.035   4.983 -0.1101  0.2154  0.1207
22155SOL    HW167043   3.304   8.975   4.927  1.2856 -0.5920 -0.3048
22155SOL    HW267044   3.332   9.122   4.949 -0.6551 -0.1610 -0.5269
22156SOL     OW67045   3.870   6.768   6.310 -0.1043 -0.3022 -0.2029
22156SOL    HW167046   3.934   6.780   6.240 -0.5243 -0.5103 -0.6318
22156SOL    HW267047   3.920   6.778   6.391  0.2382  0.7320 -0.5334
22157SOL     OW67048   5.623   5.689   0.165 -0.0877 -0.2243 -0.3292
22157SOL    HW167049   5.653   5.677   0.256 -0.5237  0.3795 -0.0985
22157SOL    HW267050   5.528   5.679   0.170 -0.0059 -1.3818 -0.9332
22158SOL     OW67051   3.046   4.513   5.946 -0.2151 -0.0095 -0.0924
22158SOL    HW167052   3.029   4.445   6.012 -0.7867 -0.8652 -1.0888
22158SOL    HW267053   3.141   4.512   5.935 -0.3047 -1.7813 -1.1999
22159SOL     OW67054   3.429   0.321   8.375  0.2762  0.1795  0.1508
22159SOL    HW167055   3.449   0.229   8.392 -1.0566 -0.3187 -0.8178
22159SOL    HW267056   3.391   0.353   8.456 -1.8822 -0.9360 -0.3507
22160SOL     OW67057   6.468   6.945   6.814  0.0559  0.7230 -0.7902
22160SOL    HW167058   6.562   6.961   6.803  0.2111 -0.9601 -2.3707
22160SOL    HW267059   6.426   7.013   6.761  0.4655  0.2366 -1.7617
22161SOL     OW67060   6.331   6.067   2.884 -0.0558  0.3049  0.2203
22161SOL    HW167061   6.329   6.038   2.975  0.5288  0.2842  0.2310
22161SOL    HW267062   6.261   6.018   2.841 -0.8320  0.8779  0.8181
22162SOL     OW67063   8.290   4.347   8.384  0.0959  0.3957  0.2131
22162SOL    HW167064   8.290   4.423   8.442  1.2906 -0.0119  0.7632
22162SOL    HW267065   8.351   4.371   8.314  0.0361  0.1704  0.0831
22163SOL     OW67066   7.447   2.640   5.793  0.3849 -0.0238  0.8077
22163SOL    HW167067   7.390   2.715   5.809 -0.6909 -0.0683 -2.2985
22163SOL    HW267068   7.390   2.563   5.806  0.6609 -0.2095  0.9425
22164SOL     OW67069   6.820   6.296   5.644  0.6687  0.5361  0.0757
22164SOL    HW167070   6.828   6.391   5.636  0.8396  0.4163 -1.2597
22164SOL    HW267071   6.899   6.269   5.691  1.1881  0.9361 -0.5543
22165SOL     OW67072   8.229   4.533   1.597 -0.0161 -0.2583  0.7074
22165SOL    HW167073   8.290   4.501   1.664 -0.2417 -1.3067  0.4369
22165SOL    HW267074   8.250   4.480   1.520 -0.9064 -0.2487  0.4540
22166SOL     OW67075   0.600   4.407   8.784  0.2156  0.3208 -0.0358
22166SOL    HW167076   0.506   4.405   8.801 -0.2001 -2.5402 -1.9097
22166SOL    HW267077   0.639   4.367   8.862 -0.4853 -1.4430 -0.5341
22167SOL     OW67078   9.025   2.095   0.853 -0.4196 -0.0269  0.4954
22167SOL    HW167079   8.995   2.007   0.833 -1.1668  0.2858  0.1950
22167SOL    HW267080   8.947   2.139   0.888 -0.0566  0.5171  0.6313
22168SOL     OW67081   3.859   8.966   3.836  0.3101  0.0522 -0.0483
22168SOL    HW167082   3.914   8.896   3.872 -1.1023 -0.2826  1.6131
22168SOL    HW267083   3.904   9.047   3.861 -0.0432 -0.2074  1.5596
22169SOL     OW67084   3.717   8.315   8.088 -0.2116  0.4583  0.8116
22169SOL    HW167085   3.682   8.361   8.164 -0.2377  1.8210 -0.0125
22169SOL    HW267086   3.674   8.354   8.013  1.7872  1.0162 -0.1086
22170SOL     OW67087   2.576   4.596   2.547  0.2884  0.2791  0.6749
22170SOL    HW167088   2.606   4.511   2.578 -1.0706 -0.2027  0.7329
22170SOL    HW267089   2.490   4.608   2.589  0.5017  1.7168  0.7420
22171SOL     OW67090   4.362   3.552   3.905 -0.2639  0.2873  0.1842
22171SOL    HW167091   4.386   3.573   3.995 -0.3873  1.0303  0.0502
22171SOL    HW267092   4.403   3.468   3.888 -0.7454 -0.1584  1.1390
22172SOL     OW67093   6.556   9.656   8.667 -0.6776 -0.2960 -0.9096
22172SOL    HW167094   6.634   9.624   8.712 -0.0889  1.2709 -0.7647
22172SOL    HW267095   6.483   9.612   8.712 -0.0937  0.8317  1.2980
22173SOL     OW67096   9.415   5.983   6.800 -0.5120  0.0853  0.4319
22173SOL    HW167097   9.322   5.960   6.799 -1.2561  2.7035 -0.6883
22173SOL    HW267098   9.421   6.058   6.740  2.5826 -0.8628 -0.6335
22174SOL     OW67099   8.620   4.289   4.807  0.7550  0.7912 -0.2095
22174SOL    HW167100   8.654   4.216   4.858  0.0805 -0.7811 -1.8713
22174SOL    HW267101   8.587   4.351   4.872  1.2180 -0.4400  1.2599
22175SOL     OW67102   5.894   1.983   5.403  0.4333  0.3424 -0.0276
22175SOL    HW167103   5.889   1.979   5.307  0.8909  0.8413 -0.0770
22175SOL    HW267104   5.920   1.896   5.429 -0.7603 -0.1158 -0.2795
22176SOL     OW67105   7.372   0.565   6.034  0.0995 -0.5655  0.1433
22176SOL    HW167106   7.446   0.572   6.094  0.9830  1.3344 -1.0561
22176SOL    HW267107   7.325   0.648   6.045 -0.9144 -1.0579 -0.3130
22177SOL     OW67108   8.724   5.445   9.335  0.2901  0.1668 -0.3522
22177SOL    HW167109   8.798   5.466   9.278 -0.4814  1.7946 -0.8350
22177SOL    HW267110   8.699   5.356   9.310  0.7780  0.3731 -1.6581
22178SOL     OW67111   1.522   1.033   5.743 -1.0589  0.1820 -0.4951
22178SOL    HW167112   1.550   1.077   5.824 -2.8038 -2.0602  1.4999
22178SOL    HW267113   1.463   1.095   5.701 -2.2473  0.4234  1.4140
22179SOL     OW67114   4.057   7.141   0.165 -0.3725  0.3326 -0.2270
22179SOL    HW167115   4.016   7.166   0.248 -0.1011 -3.8181  1.3879
22179SOL    HW267116   4.147   7.171   0.173 -0.2606 -0.2817  1.2014
22180SOL     OW67117   8.508   7.082   2.162  0.5555  0.0320 -0.0918
22180SOL    HW167118   8.428   7.044   2.198 -1.1389  2.6756 -0.7845
22180SOL    HW267119   8.555   7.116   2.237  0.1687 -0.0281  0.1799
22181SOL     OW67120   7.960   4.011   1.401  0.1351 -0.3139  0.5556
22181SOL    HW167121   7.946   4.058   1.483 -2.8083  1.0746 -0.6062
22181SOL    HW267122   7.921   3.925   1.414 -0.9249  0.1384  0.4380
22182SOL     OW67123   6.319   7.437   0.094 -0.1102 -0.4591  0.3661
22182SOL    HW167124   6.311   7.434   0.190  0.7963 -2.4028  0.4232
22182SOL    HW267125   6.413   7.446   0.078 -0.2750  0.0519 -0.3699
22183SOL     OW67126   8.885   2.988   6.325  1.1132 -0.3622 -0.0016
22183SOL    HW167127   8.848   2.961   6.409 -0.7901  0.2354 -0.5907
22183SOL    HW267128   8.880   2.910   6.270  1.6140 -0.5311  0.1836
22184SOL     OW67129   2.158   7.752   2.839  0.0834  0.2984  0.0309
22184SOL    HW167130   2.195   7.840   2.835 -1.1201  0.9117  1.3726
22184SOL    HW267131   2.233   7.694   2.850  1.0068  1.0026 -2.1984
22185SOL     OW67132   5.347   0.496   3.080 -0.4194 -0.1455 -0.6621
22185SOL    HW167133   5.408   0.528   3.014 -2.0963  2.3035 -1.1705
22185SOL    HW267134   5.374   0.541   3.161 -0.6493 -0.2091 -0.5492
22186SOL     OW67135   5.735   7.517   7.030  0.7002 -0.4540 -0.4708
22186SOL    HW167136   5.642   7.521   7.008  0.8758 -2.2119 -1.7710
22186SOL    HW267137   5.776   7.578   6.969  0.4004  0.6313  0.3722
22187SOL     OW67138   8.057   8.693   8.225 -0.4962 -0.4385 -0.2241
22187SOL    HW167139   8.095   8.706   8.138  1.4960  0.3933  0.7104
22187SOL    HW267140   8.047   8.781   8.260 -0.2189 -0.8108  0.8139
22188SOL     OW67141   8.616   2.158   9.876  0.4212 -0.0944  0.1820
22188SOL    HW167142   8.643   2.093   9.940 -0.7843 -0.3985  0.4115
22188SOL    HW267143   8.632   2.242   9.918 -2.2496 -0.2722  1.8078
22189SOL     OW67144   7.702   9.688   6.620 -0.0111 -0.3101 -0.4350
22189SOL    HW167145   7.678   9.645   6.702  0.1928 -0.9976 -0.7328
22189SOL    HW267146   7.641   9.653   6.555 -1.8343  2.0479 -0.1501
22190SOL     OW67147   6.597   7.899   3.819  0.7903 -0.0619 -0.2760
22190SOL    HW167148   6.549   7.960   3.876 -0.1749  0.1162 -1.2458
22190SOL    HW267149   6.547   7.818   3.824 -0.4260  0.4918 -2.2948
22191SOL     OW67150   7.637   7.098   8.598  0.5271  0.2645 -0.0819
22191SOL    HW167151   7.595   7.012   8.598 -2.2550  1.5253 -0.6156
22191SOL    HW267152   7.665   7.110   8.507  0.4415  0.1545 -0.1238
22192SOL     OW67153   2.172   1.243   9.247 -0.2252 -0.3469  0.4982
22192SOL    HW167154   2.262   1.215   9.234 -0.8027 -2.8537  1.2812
22192SOL    HW267155   2.177   1.338   9.256  1.9343 -0.0873 -2.3584
22193SOL     OW67156   8.626   7.069   8.255  0.0379 -0.7481 -0.4246
22193SOL    HW167157   8.613   7.004   8.323  1.6747 -0.6152  0.0637
22193SOL    HW267158   8.541   7.077   8.212 -0.6724 -1.8025  0.7340
22194SOL     OW67159   1.545   1.261   5.428 -0.0142 -0.1235  0.3514
22194SOL    HW167160   1.591   1.306   5.498 -2.5076 -0.5512  2.4139
22194SOL    HW267161   1.529   1.328   5.362  1.4025  0.5549  0.6654
22195SOL     OW67162   4.344   6.306   2.913 -0.2265 -0.2781 -0.3815
22195SOL    HW167163   4.256   6.307   2.950 -0.6548 -0.2057 -1.3597
22195SOL    HW267164   4.358   6.215   2.884 -0.3984 -0.0712 -1.1521
22196SOL     OW67165   6.030   0.612   4.288  0.0055  0.3987  0.0985
22196SOL    HW167166   6.064   0.627   4.376  0.5697  0.4537 -0.1220
22196SOL    HW267167   6.090   0.547   4.251  0.0438  0.7147 -0.4023
22197SOL     OW67168   5.763   2.057   8.959 -0.4278 -0.3017 -0.6369
22197SOL    HW167169   5.799   2.002   9.028 -0.4694 -1.1559 -1.2864
22197SOL    HW267170   5.689   2.007   8.925  0.1803 -0.3381 -1.9587
22198SOL     OW67171   9.965   7.778   5.985 -0.1440  0.0550  0.8457
22198SOL    HW167172   9.887   7.726   6.006 -0.2540 -0.7839 -1.3198
22198SOL    HW267173   9.934   7.868   5.977 -1.6452 -0.6099 -2.8264
22199SOL     OW67174   3.279   4.304   9.937  0.3430  0.0038  0.0992
22199SOL    HW167175   3.252   4.219   9.972 -0.7299  1.3635  2.8765
22199SOL    HW267176   3.373   4.309   9.956  0.2693 -0.2865  0.5536
22200SOL     OW67177   2.918   6.102   3.172  0.3643  0.2235  0.0517
22200SOL    HW167178   2.864   6.029   3.203  0.7840 -0.1153 -0.0064
22200SOL    HW267179   2.858   6.159   3.124  0.1234 -0.3148 -0.2849
22201SOL     OW67180   2.184   4.642   5.546  0.1045  0.2084  0.3485
22201SOL    HW167181   2.134   4.572   5.588  0.7609 -0.3868  0.1517
22201SOL    HW267182   2.195   4.613   5.456 -1.3848  1.5269 -0.3208
22202SOL     OW67183   7.416   4.887   4.289 -0.0458 -0.3446 -0.0531
22202SOL    HW167184   7.443   4.970   4.250  0.0424  0.5816  1.8805
22202SOL    HW267185   7.335   4.907   4.335 -1.1076 -1.8246 -1.1818
22203SOL     OW67186   2.493   6.545   6.393 -0.2229  0.1078 -0.0974
22203SOL    HW167187   2.573   6.590   6.367  0.6181  0.0893  2.2611
22203SOL    HW267188   2.434   6.614   6.423  0.4809 -0.1524  2.0256
22204SOL     OW67189   5.299   4.716   4.598 -0.2731 -0.5132  0.0574
22204SOL    HW167190   5.225   4.665   4.631 -0.9113 -1.5336 -2.6541
22204SOL    HW267191   5.258   4.787   4.548  0.5727 -0.5510 -0.7174
22205SOL     OW67192   7.276   8.329   6.510  0.3339 -0.1156 -0.1546
22205SOL    HW167193   7.287   8.418   6.474 -0.2084  0.0032 -0.0405
22205SOL    HW267194   7.360   8.309   6.550  0.5572  0.2330 -0.4351
22206SOL     OW67195   9.740   5.738   4.014 -0.2807 -0.1375 -0.0341
22206SOL    HW167196   9.752   5.767   3.923  0.0342  1.9807  0.6201
22206SOL    HW267197   9.649   5.708   4.017 -0.3472 -0.0904 -1.0151
22207SOL     OW67198   4.598   5.245   6.608 -0.0375  0.6217  0.2161
22207SOL    HW167199   4.637   5.175   6.661 -0.3321 -0.9133 -1.5033
22207SOL    HW267200   4.673   5.290   6.570  0.1344  0.4687  0.3680
22208SOL     OW67201   8.345   9.078   7.046 -0.2643 -0.5155 -0.6360
22208SOL    HW167202   8.419   9.138   7.034  0.3258 -1.4377 -1.7950
22208SOL    HW267203   8.318   9.055   6.957 -1.7604 -0.4479 -0.2323
22209SOL     OW67204   1.934   7.475   6.951 -0.0616 -0.1469  0.3684
22209SOL    HW167205   1.849   7.448   6.918 -0.5519  0.8760  0.7665
22209SOL    HW267206   1.997   7.432   6.893 -0.8622 -0.1001 -0.5544
22210SOL     OW67207   2.878   5.234   0.403  0.6516  0.1080 -0.3837
22210SOL    HW167208   2.889   5.202   0.493  1.2726 -0.8684 -0.7804
22210SOL    HW267209   2.913   5.323   0.405 -0.0480  0.3881  0.5020
22211SOL     OW67210   6.851   3.154   0.437  0.4521  0.3510  0.1238
22211SOL    HW167211   6.805   3.154   0.353 -1.0241  2.2055  0.8649
22211SOL    HW267212   6.832   3.069   0.475  0.4110 -0.1699 -1.0329
22212SOL     OW67213   5.140   1.098   4.884  0.5095 -0.1420 -0.2335
22212SOL    HW167214   5.135   1.180   4.835  1.2884  0.0454 -0.0172
22212SOL    HW267215   5.050   1.066   4.887  0.3132  0.3265 -0.9626
22213SOL     OW67216   7.480   0.348   4.154 -0.1533  0.0074  0.0384
22213SOL    HW167217   7.412   0.285   4.129  0.2346  0.3307 -1.9803
22213SOL    HW267218   7.455   0.429   4.109  1.1349  0.3528 -0.0944
22214SOL     OW67219   8.174   4.000   0.941 -0.4484 -0.1307  0.3541
22214SOL    HW167220   8.244   4.063   0.923  2.8357 -3.2377  1.0653
22214SOL    HW267221   8.125   4.039   1.013  0.1573  2.4514 -0.5355
22215SOL     OW67222   6.808   2.895   0.634  0.3280 -0.4066  0.0232
22215SOL    HW167223   6.822   2.945   0.715  1.2134 -0.0150 -0.3610
22215SOL    HW267224   6.802   2.804   0.663 -0.4022 -0.1745  0.6369
22216SOL     OW67225   2.312   5.455   3.369 -0.2554  0.1600 -0.3646
22216SOL    HW167226   2.389   5.447   3.425  0.3435  0.2112 -1.1620
22216SOL    HW267227   2.298   5.550   3.361 -0.1321  0.1613 -0.5745
22217SOL     OW67228   4.385   6.493   1.529  0.6494 -0.2628 -0.0306
22217SOL    HW167229   4.328   6.528   1.598  0.4085 -0.0882 -0.3172
22217SOL    HW267230   4.351   6.405   1.513  0.6740 -0.2850  0.0378
22218SOL     OW67231   2.497   0.193   9.151 -0.4306 -0.2248  0.4761
22218SOL    HW167232   2.509   0.144   9.232 -0.8841 -1.8596 -0.3959
22218SOL    HW267233   2.573   0.250   9.146  0.7306 -1.6583  1.0055
22219SOL     OW67234   9.508   3.577   6.796  0.1857 -0.1288  0.2136
22219SOL    HW167235   9.483   3.605   6.884  0.6811  0.2696  0.2303
22219SOL    HW267236   9.431   3.532   6.762 -0.4960  0.9140  0.3363
22220SOL     OW67237   0.428   5.627   0.351 -0.4191  0.0309  0.4652
22220SOL    HW167238   0.370   5.702   0.358 -0.9791 -0.3532  0.0266
22220SOL    HW267239   0.412   5.576   0.431 -1.3031 -0.5002 -0.0396
22221SOL     OW67240   6.494   8.430   6.825 -0.3224 -0.0868 -0.2683
22221SOL    HW167241   6.580   8.399   6.851 -1.0401 -1.3618  0.7337
22221SOL    HW267242   6.506   8.466   6.737  1.1984 -0.2566 -0.1563
22222SOL     OW67243   7.974   6.191   0.527 -0.0079 -0.8235 -0.2974
22222SOL    HW167244   8.007   6.274   0.561 -0.3753 -0.5710 -0.5399
22222SOL    HW267245   7.881   6.191   0.551 -0.3092 -0.5787 -1.3991
22223SOL     OW67246   0.181   7.669   0.189 -0.2245 -0.3075  0.3239
22223SOL    HW167247   0.151   7.742   0.135  1.9255 -0.5780 -1.3812
22223SOL    HW267248   0.171   7.699   0.279 -2.2320  0.8688 -0.2254
22224SOL     OW67249   9.960   7.028   6.491  0.2410 -0.1729  0.4579
22224SOL    HW167250   9.930   7.079   6.416  0.9989 -0.7430 -0.2525
22224SOL    HW267251  10.026   7.084   6.533 -0.6110  0.3935  1.0557
22225SOL     OW67252   5.901   2.514   3.164  1.0504 -0.1235 -0.5198
22225SOL    HW167253   5.920   2.420   3.162 -1.0423 -0.6659  1.1869
22225SOL    HW267254   5.954   2.548   3.235 -1.4603 -0.9787  1.9405
22226SOL     OW67255   3.600   4.682   2.442  0.5229  0.1768  0.6271
22226SOL    HW167256   3.659   4.645   2.508  2.0321  1.3352 -0.0173
22226SOL    HW267257   3.599   4.776   2.460 -0.3353  0.3060 -0.0096
22227SOL     OW67258   7.847   9.773   2.694  0.1601 -0.2649  0.1389
22227SOL    HW167259   7.924   9.828   2.681  0.2680 -0.3616  0.3547
22227SOL    HW267260   7.826   9.740   2.607  0.0471  0.1788 -0.0036
22228SOL     OW67261   1.744   0.025   5.143 -0.0909 -0.1375  0.3213
22228SOL    HW167262   1.780  -0.062   5.122 -2.2101 -1.0148  0.1278
22228SOL    HW267263   1.700   0.052   5.062 -1.1739  0.2071  1.0144
22229SOL     OW67264   4.380   3.695   1.449  0.1929 -0.5402 -0.4408
22229SOL    HW167265   4.378   3.786   1.419  2.2454  0.5268  2.2727
22229SOL    HW267266   4.454   3.655   1.403 -0.3415 -0.6831 -1.1869
22230SOL     OW67267   0.688   5.758   6.498 -0.4802 -0.0906  0.2080
22230SOL    HW167268   0.615   5.749   6.559 -1.0719 -0.7627 -0.5754
22230SOL    HW267269   0.684   5.680   6.443 -1.6326  1.6841 -2.4709
22231SOL     OW67270   4.481   0.320   5.075 -0.0093  0.1860  0.0521
22231SOL    HW167271   4.421   0.376   5.126 -0.3572 -0.5553  0.4740
22231SOL    HW267272   4.426   0.285   5.005 -0.4033 -1.4318  1.1232
22232SOL     OW67273   9.043   3.447   9.774 -0.0218  0.1959  0.0194
22232SOL    HW167274   8.983   3.518   9.797 -0.0204  0.7414 -1.5241
22232SOL    HW267275   9.085   3.423   9.856 -1.4886  0.6026  0.9309
22233SOL     OW67276   8.775   2.647   7.474 -0.7125 -0.4669 -0.1399
22233SOL    HW167277   8.728   2.612   7.399 -0.1522 -0.6016 -0.4335
22233SOL    HW267278   8.846   2.584   7.490 -0.0819  0.2006 -0.2772
22234SOL     OW67279   0.474   4.087   1.107  0.2822  0.2688  0.5658
22234SOL    HW167280   0.442   3.999   1.087 -1.0380  0.9030 -0.2676
22234SOL    HW267281   0.504   4.121   1.023  1.1780  0.4762  0.9598
22235SOL     OW67282   0.728   7.306   1.854  0.1540 -0.2439 -0.4988
22235SOL    HW167283   0.666   7.233   1.858 -0.3172  0.1905  0.6671
22235SOL    HW267284   0.711   7.347   1.769 -0.9821 -0.2829 -0.3051
22236SOL     OW67285   2.264   7.860   4.972  0.2791 -0.5160 -0.0024
22236SOL    HW167286   2.227   7.819   4.893 -0.2455 -1.5214  0.7374
22236SOL    HW267287   2.255   7.954   4.956  0.2308 -0.7003 -1.1641
22237SOL     OW67288   5.714   7.831   5.009  0.0125 -0.2239 -0.2891
22237SOL    HW167289   5.645   7.784   5.055  0.7665 -1.5889 -0.4973
22237SOL    HW267290   5.672   7.865   4.930 -0.2776 -1.7154 -0.8097
22238SOL     OW67291   6.788   4.423   7.634 -0.5799  0.1276  0.5978
22238SOL    HW167292   6.798   4.487   7.703  0.2424  0.1590  0.4552
22238SOL    HW267293   6.701   4.440   7.598 -0.7783  0.4836  1.2365
22239SOL     OW67294   6.566   6.715   4.699  0.1260  0.1086 -0.0130
22239SOL    HW167295   6.619   6.789   4.728  1.1080 -0.2254 -0.8977
22239SOL    HW267296   6.487   6.755   4.661  0.6228  0.7044 -0.4348
22240SOL     OW67297   4.776   1.565   3.934  0.0084 -0.4747  0.0534
22240SOL    HW167298   4.832   1.636   3.964 -1.6618  0.6687  0.6262
22240SOL    HW267299   4.754   1.587   3.844  1.3992 -1.5609 -0.5911
22241SOL     OW67300   8.060   5.383   6.371 -0.1058  0.2276  0.0305
22241SOL    HW167301   8.065   5.365   6.465  0.2671 -1.9659 -0.3589
22241SOL    HW267302   7.996   5.454   6.364  0.5767  1.1152  1.9983
22242SOL     OW67303   8.760   5.666   8.271  0.2810  0.0854  0.2383
22242SOL    HW167304   8.685   5.706   8.228  1.6274  0.9173 -1.4330
22242SOL    HW267305   8.745   5.681   8.365 -2.0153 -0.5232  0.0192
22243SOL     OW67306   7.573   6.518   1.101  0.4987  0.4051  0.5025
22243SOL    HW167307   7.561   6.463   1.178  1.4894 -2.3789 -1.2137
22243SOL    HW267308   7.667   6.512   1.082  0.0034 -0.4784 -1.9407
22244SOL     OW67309   2.186   5.434   8.470  0.3381  0.6346 -0.0109
22244SOL    HW167310   2.141   5.368   8.524  0.0975  0.3923 -0.4968
22244SOL    HW267311   2.246   5.477   8.531  0.5492 -0.0798  0.3058
22245SOL     OW67312   1.492   1.019   8.248 -0.7259  0.6973 -0.3407
22245SOL    HW167313   1.406   0.976   8.239 -1.2992  1.4699  1.1433
22245SOL    HW267314   1.499   1.039   8.341  1.2177  0.4036 -0.3881
22246SOL     OW67315   1.119   7.260   3.649  0.0142  0.3108 -1.0309
22246SOL    HW167316   1.214   7.266   3.651 -0.0871  2.3463  0.5157
22246SOL    HW267317   1.095   7.237   3.739 -1.0247  1.7003 -0.9289
22247SOL     OW67318   4.657   7.004   7.001  0.5031  0.5980  0.1242
22247SOL    HW167319   4.661   7.099   6.986 -0.7746  0.5744 -0.4455
22247SOL    HW267320   4.606   6.970   6.928  2.1413 -0.7373 -0.4638
22248SOL     OW67321   0.785   0.831   4.049  0.4660 -0.5807 -0.2006
22248SOL    HW167322   0.812   0.742   4.071 -0.9978 -1.1505 -0.6002
22248SOL    HW267323   0.694   0.822   4.021  0.5141  0.9433 -0.9348
22249SOL     OW67324   9.824   4.433   1.251  0.1768  0.2208 -0.3478
22249SOL    HW167325   9.747   4.429   1.309 -0.7549 -1.6369 -1.6212
22249SOL    HW267326   9.892   4.384   1.298  0.4404  1.3568  0.5102
22250SOL     OW67327   0.313   7.600   7.285  0.0300 -0.3399 -0.1345
22250SOL    HW167328   0.312   7.505   7.294  0.1237 -0.2080  2.0284
22250SOL    HW267329   0.220   7.625   7.282 -0.2067 -0.3358  3.2102
22251SOL     OW67330   5.033   1.688   0.136 -0.0721 -0.1500  0.3481
22251SOL    HW167331   4.977   1.690   0.214  0.9236 -3.5029  1.3164
22251SOL    HW267332   5.114   1.729   0.163 -0.8638  1.7641 -0.0494
22252SOL     OW67333   8.518   5.243   5.798  0.3079  0.0842 -0.2198
22252SOL    HW167334   8.544   5.335   5.807  0.7526 -0.0883  0.3630
22252SOL    HW267335   8.557   5.216   5.715  1.4422  0.0244  0.3098
22253SOL     OW67336   8.155   6.344   3.973  0.2354  0.0310 -0.0332
22253SOL    HW167337   8.106   6.323   4.053 -0.3127  0.8928 -0.1260
22253SOL    HW267338   8.088   6.346   3.904  0.8469 -1.7492 -0.7421
22254SOL     OW67339   6.620   7.357   1.675  0.3042 -0.1299  0.6927
22254SOL    HW167340   6.562   7.432   1.684  1.1914  0.8794 -1.2587
22254SOL    HW267341   6.707   7.396   1.664  0.7590 -1.4154 -0.5476
22255SOL     OW67342   3.302   1.383   2.889  0.7489 -0.0739  0.1629
22255SOL    HW167343   3.346   1.303   2.919  1.3630  0.6241  1.1797
22255SOL    HW267344   3.209   1.362   2.894  0.8561 -0.3080  1.6880
22256SOL     OW67345   6.255   0.253   0.854  0.0155 -0.3811 -0.4950
22256SOL    HW167346   6.175   0.207   0.829 -0.3806  0.6487 -1.2206
22256SOL    HW267347   6.288   0.291   0.772  0.0739  0.9766  0.1203
22257SOL     OW67348   4.722   1.869   6.881  0.1111 -0.4568  0.1966
22257SOL    HW167349   4.700   1.781   6.852  0.3035 -0.1752 -0.8489
22257SOL    HW267350   4.752   1.914   6.802 -0.5895  0.7410  0.5706
22258SOL     OW67351   2.878   4.998   9.302  0.9349  0.2024 -0.3540
22258SOL    HW167352   2.902   4.933   9.237  0.7339  0.8950 -1.1302
22258SOL    HW267353   2.890   5.082   9.259  0.6419  0.6725  0.4445
22259SOL     OW67354   9.684   3.411   8.719 -0.2919 -0.0162 -0.2358
22259SOL    HW167355   9.730   3.335   8.684  0.3572 -0.8397  2.2160
22259SOL    HW267356   9.592   3.394   8.700 -0.0705 -0.9384 -0.5554
22260SOL     OW67357   1.788   0.579   2.217 -0.3044  0.3992  0.5644
22260SOL    HW167358   1.741   0.507   2.175 -1.4395 -0.0361  2.4645
22260SOL    HW267359   1.754   0.658   2.174  0.4553 -0.1030 -1.0631
22261SOL     OW67360   0.594   5.984   1.252  0.0218 -0.2319  1.4166
22261SOL    HW167361   0.553   5.990   1.166  1.2925  1.5447  0.8940
22261SOL    HW267362   0.556   5.904   1.291 -1.0471 -0.7148 -0.5026
22262SOL     OW67363   7.917   9.264   8.664 -0.5677 -0.3845 -0.7019
22262SOL    HW167364   7.914   9.228   8.753 -0.1500  1.4436  0.1083
22262SOL    HW267365   8.010   9.265   8.642 -0.6506 -0.6028 -1.0727
22263SOL     OW67366   6.586   8.919   6.247  0.6087  0.1009 -0.0846
22263SOL    HW167367   6.509   8.903   6.192  1.2851  0.0207 -1.0221
22263SOL    HW267368   6.656   8.941   6.186  1.7778 -1.4624  0.6058
22264SOL     OW67369   2.130   4.618   6.689 -0.5353 -0.5802  0.0349
22264SOL    HW167370   2.037   4.596   6.696 -0.3608 -1.0089  1.1047
22264SOL    HW267371   2.133   4.692   6.628 -1.5051 -1.0237 -0.5742
22265SOL     OW67372   7.694   8.309   7.909  0.3745 -0.0588  0.4591
22265SOL    HW167373   7.748   8.328   7.985  0.4193  0.3427  0.3309
22265SOL    HW267374   7.644   8.231   7.933 -0.9817  1.1147  1.6346
22266SOL     OW67375   4.517   6.530   7.498  0.4576 -0.4593  0.1448
22266SOL    HW167376   4.611   6.545   7.493  0.5464 -0.7325  0.8695
22266SOL    HW267377   4.479   6.603   7.449  1.1009 -1.6303 -2.1848
22267SOL     OW67378   1.292   9.289   1.195  0.4278  0.0907  0.3979
22267SOL    HW167379   1.215   9.335   1.227  0.5921  1.3025 -0.8922
22267SOL    HW267380   1.308   9.221   1.261  0.3222  1.9984  2.4902
22268SOL     OW67381   0.920   2.554   0.118 -0.7650  0.2752  0.0389
22268SOL    HW167382   0.910   2.618   0.188  1.0205  1.5157 -0.7453
22268SOL    HW267383   0.912   2.469   0.161 -1.1623  1.0092  1.4681
22269SOL     OW67384   8.309   2.933   7.495 -0.4697  0.3395  0.1440
22269SOL    HW167385   8.401   2.954   7.511 -0.5301 -0.5209  1.9087
22269SOL    HW267386   8.261   3.005   7.535 -0.5874  1.0847 -1.2837
22270SOL     OW67387   3.146   8.408   5.286  0.6284  0.1170 -0.0161
22270SOL    HW167388   3.146   8.478   5.352 -0.0592  0.1563 -0.0547
22270SOL    HW267389   3.157   8.327   5.337  0.8010  0.2027  0.0830
22271SOL     OW67390   8.679   2.108   2.368 -0.3129 -0.1974  0.7679
22271SOL    HW167391   8.742   2.175   2.340 -0.3226 -1.1121 -1.6975
22271SOL    HW267392   8.595   2.153   2.371 -0.0572  0.2796  0.8021
22272SOL     OW67393   0.487   2.387   6.432  0.4937  0.1318  0.0056
22272SOL    HW167394   0.403   2.430   6.449  1.3831  1.8443  0.2275
22272SOL    HW267395   0.474   2.341   6.349 -0.3930  1.1575 -0.4442
22273SOL     OW67396   9.026   2.370   7.891  0.3453  0.0328  0.4004
22273SOL    HW167397   9.016   2.283   7.853 -1.3048  0.0498  0.7154
22273SOL    HW267398   9.097   2.361   7.954 -0.4936 -1.3901  1.2065
22274SOL     OW67399   5.364   5.286   2.154  0.2032 -0.3275 -0.5004
22274SOL    HW167400   5.403   5.212   2.201  0.3921 -0.7246 -1.2538
22274SOL    HW267401   5.272   5.262   2.144  0.0582 -0.0232  0.0759
22275SOL     OW67402   4.392   5.795   2.552 -0.2239  0.7948 -0.2344
22275SOL    HW167403   4.357   5.789   2.641 -0.1673 -0.7569 -0.2954
22275SOL    HW267404   4.464   5.858   2.559 -0.9780  1.5964  0.5547
22276SOL     OW67405   2.059   2.546   2.872 -0.7522  0.1879 -0.5114
22276SOL    HW167406   2.128   2.519   2.933 -0.3980  0.5788 -0.7354
22276SOL    HW267407   2.050   2.640   2.886 -0.0662  0.4467 -1.6458
22277SOL     OW67408   7.469   1.963   3.432  0.2515 -0.1008  0.6021
22277SOL    HW167409   7.535   1.907   3.391  0.3862 -1.0454  2.0472
22277SOL    HW267410   7.402   1.974   3.365 -0.7966 -3.7185  0.8607
22278SOL     OW67411   9.422   9.912   2.991 -0.5320 -0.2392 -0.1713
22278SOL    HW167412   9.360   9.984   2.987  1.1270  1.2333 -3.1819
22278SOL    HW267413   9.384   9.845   2.934 -0.0936  0.0548 -0.8209
22279SOL     OW67414   1.695   9.907   2.918  0.3176 -0.1134  0.2407
22279SOL    HW167415   1.610   9.885   2.957  0.2593  0.7547  0.6398
22279SOL    HW267416   1.678   9.910   2.824 -0.3510  1.0254  0.3768
22280SOL     OW67417   4.812   7.302   3.387  0.2937 -0.4118 -0.0626
22280SOL    HW167418   4.724   7.290   3.351  0.4905 -0.4663 -0.5328
22280SOL    HW267419   4.859   7.223   3.361 -0.3478 -1.8403  2.7715
22281SOL     OW67420   8.581   0.219   1.088  0.1588  0.7468 -0.0449
22281SOL    HW167421   8.555   0.134   1.052  3.1288 -0.4139  0.2686
22281SOL    HW267422   8.594   0.202   1.182  0.5130  1.5913  0.0680
22282SOL     OW67423   3.410   3.921   1.861  0.4723 -0.0088 -0.6068
22282SOL    HW167424   3.375   3.851   1.806  0.6248 -1.2653  0.8186
22282SOL    HW267425   3.505   3.908   1.858  0.6134  1.1184 -1.5550
22283SOL     OW67426   2.785   9.792   3.887 -0.6209  0.1385 -0.1783
22283SOL    HW167427   2.860   9.841   3.853 -1.1576  0.5325 -0.7992
22283SOL    HW267428   2.811   9.700   3.879  0.1205  0.2873  0.3750
22284SOL     OW67429   2.000   7.678   3.786 -0.5369  0.1953 -0.0825
22284SOL    HW167430   1.978   7.769   3.802 -0.2374  0.2660 -0.0552
22284SOL    HW267431   1.947   7.628   3.848  0.1228  0.4197  0.6829
22285SOL     OW67432   1.435   9.952   6.341 -0.4496  0.1207 -0.3744
22285SOL    HW167433   1.482  10.035   6.348 -1.3068  0.5653  0.3445
22285SOL    HW267434   1.422   9.924   6.432 -1.3899 -0.0977 -0.5712
22286SOL     OW67435   0.931   2.123   3.690  0.0920 -0.0367 -0.5749
22286SOL    HW167436   0.861   2.060   3.704 -0.5611  0.9386  0.8074
22286SOL    HW267437   0.945   2.123   3.595 -3.9845  1.9934 -1.3982
22287SOL     OW67438   2.566   5.609   8.547 -0.8721  0.2980  0.2873
22287SOL    HW167439   2.608   5.622   8.462 -1.8713  1.0242 -0.1195
22287SOL    HW267440   2.631   5.563   8.600 -0.8142 -1.6669 -1.3874
22288SOL     OW67441   5.756   7.053   9.116 -0.1978  0.0132  0.4058
22288SOL    HW167442   5.743   7.063   9.022 -0.2573 -1.7826  0.1808
22288SOL    HW267443   5.839   7.098   9.135  0.8523 -1.3016 -0.8827
22289SOL     OW67444   2.923   9.868   0.033 -0.2796  0.2094  0.3767
22289SOL    HW167445   2.873   9.807  -0.021 -0.2412 -0.3250  0.9344
22289SOL    HW267446   2.857   9.923   0.074 -0.2806  1.1015 -0.7503
22290SOL     OW67447   5.852   9.519   7.190  0.3584  0.0758  0.0543
22290SOL    HW167448   5.822   9.481   7.107 -0.1758  2.0771 -0.7222
22290SOL    HW267449   5.772   9.549   7.233  0.7819  0.5342  0.5262
22291SOL     OW67450   3.528   1.864   6.745 -0.0149  0.4720 -0.5036
22291SOL    HW167451   3.485   1.845   6.828  0.1335  0.0044 -0.5277
22291SOL    HW267452   3.459   1.902   6.691 -0.3054  0.0876 -0.4118
22292SOL     OW67453   3.350   2.466   0.533  1.1626  0.6943 -0.6843
22292SOL    HW167454   3.299   2.396   0.493 -0.8507  0.5646  1.8630
22292SOL    HW267455   3.430   2.422   0.563  0.0808 -0.5016  0.5809
22293SOL     OW67456   6.181   5.526   4.796 -0.2387 -0.6085  0.3693
22293SOL    HW167457   6.174   5.436   4.764 -2.1247 -0.1831 -0.5590
22293SOL    HW267458   6.094   5.546   4.830 -0.3660  1.4156 -1.0078
22294SOL     OW67459   0.391   8.347   7.458  0.0318 -0.2556 -0.6321
22294SOL    HW167460   0.432   8.309   7.536 -0.3013 -1.2312 -0.9191
22294SOL    HW267461   0.464   8.361   7.397  0.3572  0.8957 -0.0239
22295SOL     OW67462   6.019   9.474   2.548  0.2433  0.0059 -0.0306
22295SOL    HW167463   5.977   9.426   2.476 -0.1634  2.2940 -1.4656
22295SOL    HW267464   6.112   9.473   2.526  0.2738 -0.4186  0.1239
22296SOL     OW67465   5.340   8.083   3.894  0.1264 -0.1894 -0.0873
22296SOL    HW167466   5.434   8.102   3.893 -0.1284  1.4355  1.0480
22296SOL    HW267467   5.306   8.138   3.965 -1.7567 -0.3489 -0.8072
22297SOL     OW67468   0.861   4.597   0.396  0.7732  0.1087 -0.5162
22297SOL    HW167469   0.910   4.667   0.352  1.3430 -0.0005 -0.0660
22297SOL    HW267470   0.845   4.631   0.484 -0.3649  0.3281 -0.7924
22298SOL     OW67471   9.571   0.034   3.409  0.0770 -0.0522 -0.7267
22298SOL    HW167472   9.536  -0.002   3.491  1.0172 -0.3861 -0.4614
22298SOL    HW267473   9.651   0.080   3.435  0.6692 -0.6027 -1.5098
22299SOL     OW67474   2.720   0.643   7.589 -0.4913 -0.1193  0.2179
22299SOL    HW167475   2.695   0.630   7.680 -0.4196  1.1235  0.4376
22299SOL    HW267476   2.704   0.736   7.573  0.2392 -0.1513 -0.8036
22300SOL     OW67477   4.948   2.950   4.693  0.0480 -0.1610  0.0541
22300SOL    HW167478   4.897   3.003   4.756 -2.1012 -0.9966 -0.8856
22300SOL    HW267479   4.959   2.866   4.737  0.3813 -0.0723  0.1415
22301SOL     OW67480   5.663   3.232   8.175  0.3953  0.4081 -0.4901
22301SOL    HW167481   5.726   3.258   8.243 -0.6188 -1.4327  1.2882
22301SOL    HW267482   5.663   3.136   8.178 -0.1082  0.2871 -2.7637
22302SOL     OW67483   6.451   7.408   1.300  0.1338 -0.3142 -0.5116
22302SOL    HW167484   6.465   7.502   1.300  0.8986 -0.3922 -1.9414
22302SOL    HW267485   6.539   7.370   1.308 -0.1380 -0.9010 -0.2040
22303SOL     OW67486   4.765   3.447   0.500  0.2492 -0.4333  0.2095
22303SOL    HW167487   4.696   3.506   0.531 -0.8128 -0.7205 -1.4716
22303SOL    HW267488   4.780   3.387   0.573 -0.2615  0.5209  1.1208
22304SOL     OW67489   5.089   8.999   5.938 -0.2927 -0.5748 -0.2189
22304SOL    HW167490   5.146   8.935   5.980 -1.0435 -0.7928  0.5058
22304SOL    HW267491   5.013   8.948   5.909 -1.5143  0.1372  1.5390
22305SOL     OW67492   3.281   0.705   3.004  0.1524  0.4141  0.5583
22305SOL    HW167493   3.366   0.714   3.048  0.6169 -0.5061 -0.1165
22305SOL    HW267494   3.291   0.628   2.948 -0.2157  1.8610 -1.6249
22306SOL     OW67495   1.603   0.696   7.423 -0.6510  0.1739  0.2042
22306SOL    HW167496   1.644   0.780   7.401  0.6488 -0.2626  0.8775
22306SOL    HW267497   1.676   0.638   7.441 -1.5616 -0.9183  0.4625
22307SOL     OW67498   3.246   0.743   1.325 -0.2318  0.1661  0.1969
22307SOL    HW167499   3.251   0.648   1.316  0.1321  0.1022  0.9785
22307SOL    HW267500   3.256   0.776   1.236  0.4723 -0.5062  0.0173
22308SOL     OW67501   2.101   8.272   8.054 -0.2315  0.2984 -0.0424
22308SOL    HW167502   2.034   8.205   8.068  1.3123 -1.0173  1.5239
22308SOL    HW267503   2.113   8.312   8.140 -1.0271  2.5897 -0.9142
22309SOL     OW67504   8.548   1.681   8.093 -0.0730  0.0670  0.4903
22309SOL    HW167505   8.469   1.626   8.092  0.0471 -0.1166 -0.5927
22309SOL    HW267506   8.618   1.622   8.118 -0.3720  0.3910  2.1713
22310SOL     OW67507   2.772   0.404   4.173  0.0237 -0.4014  0.0927
22310SOL    HW167508   2.788   0.463   4.247  0.8172 -0.7939  0.2487
22310SOL    HW267509   2.678   0.411   4.157  0.1063  0.9639  0.0585
22311SOL     OW67510   1.104   7.232   5.065  0.2839  0.2319 -0.0007
22311SOL    HW167511   1.189   7.211   5.025  0.0507  0.1204 -0.4465
22311SOL    HW267512   1.072   7.148   5.097 -0.2174  0.0647 -0.9334
22312SOL     OW67513   1.786   1.679   0.483 -0.2163 -0.0091 -0.1702
22312SOL    HW167514   1.829   1.638   0.409 -0.1519 -1.1300  0.4584
22312SOL    HW267515   1.840   1.756   0.504 -0.2539  0.3261 -1.2755
22313SOL     OW67516   1.532   9.927   0.504  0.2953 -0.2708  0.5291
22313SOL    HW167517   1.508   9.910   0.413 -0.3777 -1.2395  0.8635
22313SOL    HW267518   1.609   9.873   0.520  0.4809 -0.0152  0.5057
22314SOL     OW67519   7.505   1.257   3.778 -0.2261 -0.2072  0.6519
22314SOL    HW167520   7.564   1.312   3.725 -1.2643 -1.1087 -1.5317
22314SOL    HW267521   7.468   1.318   3.842 -0.2603  1.3437 -0.7708
22315SOL     OW67522   5.879   1.987   8.225 -0.3666  0.1808  0.1434
22315SOL    HW167523   5.839   1.918   8.278 -0.8839 -0.1695 -0.6822
22315SOL    HW267524   5.914   2.049   8.289 -0.2602 -0.6366  0.8943
22316SOL     OW67525   4.530   7.621   0.419 -0.4266  0.5548 -0.0049
22316SOL    HW167526   4.602   7.574   0.461 -0.1358  0.5226 -0.5308
22316SOL    HW267527   4.451   7.586   0.460 -0.3259 -1.4326 -1.3542
22317SOL     OW67528   6.156   8.768   8.458 -0.7192  0.4417  0.1826
22317SOL    HW167529   6.245   8.763   8.492 -0.2807  0.6181 -0.9119
22317SOL    HW267530   6.148   8.857   8.425 -1.2771  0.4011  0.1980
22318SOL     OW67531   8.578   7.205   1.790 -0.1107  0.0803  0.3864
22318SOL    HW167532   8.606   7.122   1.829  1.8105  0.9561  0.9927
22318SOL    HW267533   8.511   7.180   1.726 -3.0435 -1.4911  3.7245
22319SOL     OW67534   5.192   9.819   7.740 -0.1460  0.2148 -0.1297
22319SOL    HW167535   5.256   9.829   7.811  0.1206 -1.9646 -0.0029
22319SOL    HW267536   5.239   9.850   7.662  1.1237 -1.3455 -0.0396
22320SOL     OW67537   2.168   4.741   1.120 -0.7454 -0.3013 -0.4721
22320SOL    HW167538   2.155   4.714   1.211 -0.6648  1.1042 -0.0051
22320SOL    HW267539   2.252   4.788   1.121 -0.9419  0.0740 -1.1851
22321SOL     OW67540   7.554   0.928   7.083  0.0064 -0.2109 -0.0498
22321SOL    HW167541   7.478   0.956   7.135  0.9405  0.7616  0.8349
22321SOL    HW267542   7.615   0.892   7.147  0.4271 -0.6988 -0.7166
22322SOL     OW67543   1.023   9.117   0.910 -0.4170  1.1368 -0.3178
22322SOL    HW167544   0.965   9.081   0.842 -0.3305 -0.1070  0.2393
22322SOL    HW267545   0.977   9.098   0.992  0.0750  1.4925  0.0400
22323SOL     OW67546   9.558   5.377   2.019 -0.5884  0.4162  0.4033
22323SOL    HW167547   9.574   5.366   2.112  0.7362  0.6199  0.2215
22323SOL    HW267548   9.612   5.310   1.977  0.8345  1.9312 -0.2976
22324SOL     OW67549   1.699   8.076   9.695  0.2906 -0.2939  0.0666
22324SOL    HW167550   1.667   8.162   9.668 -0.2551 -1.2379 -2.5488
22324SOL    HW267551   1.766   8.054   9.631  1.5923 -1.1654  1.6622
22325SOL     OW67552   6.620   6.316   6.302  0.3844 -0.2207 -0.1663
22325SOL    HW167553   6.632   6.249   6.235 -0.3604 -0.1632 -0.3668
22325SOL    HW267554   6.595   6.395   6.252  0.8801  0.1018  0.0944
22326SOL     OW67555   2.595   9.393   9.058 -0.3856 -0.3151 -0.7122
22326SOL    HW167556   2.585   9.417   9.150  0.6554  1.1840 -0.9585
22326SOL    HW267557   2.507   9.367   9.031 -1.1949  1.4024  0.1284
22327SOL     OW67558   4.111   6.178   5.067 -0.1989 -0.2275 -1.2190
22327SOL    HW167559   4.125   6.259   5.116  0.3227 -1.2243  0.3535
22327SOL    HW267560   4.102   6.206   4.976  0.1054  1.5756 -0.7277
22328SOL     OW67561   8.722   2.204   2.674  0.3414 -0.1470  0.4568
22328SOL    HW167562   8.803   2.221   2.625  0.8337 -1.3664  0.7942
22328SOL    HW267563   8.682   2.130   2.628 -0.1075 -0.1424  0.8392
22329SOL     OW67564   6.923   7.874   8.875  0.3229 -0.4495 -0.0571
22329SOL    HW167565   6.866   7.808   8.835 -0.5556  0.4646 -0.3593
22329SOL    HW267566   6.988   7.823   8.924 -0.5603 -1.5315  0.0385
22330SOL     OW67567   4.272   2.131   3.987  0.4668  0.7534  0.1366
22330SOL    HW167568   4.342   2.167   4.041  1.0358  0.1074 -0.1633
22330SOL    HW267569   4.209   2.095   4.050  0.5383  1.0890  0.3983
22331SOL     OW67570   0.086   8.669   0.856 -0.2778  0.1505  0.1092
22331SOL    HW167571   0.128   8.618   0.925  1.4478 -0.1654 -1.1186
22331SOL    HW267572   0.138   8.651   0.777 -2.1475  0.5244 -1.2807
22332SOL     OW67573   8.628   8.089   4.566  0.2857 -0.0355  0.3313
22332SOL    HW167574   8.602   8.010   4.519  0.8078  0.6394 -1.1673
22332SOL    HW267575   8.687   8.058   4.634 -0.8146 -1.0910  0.8361
22333SOL     OW67576   7.127   4.537   6.373  0.1946  0.3716  0.0470
22333SOL    HW167577   7.115   4.515   6.466  0.9887  0.6113  0.2162
22333SOL    HW267578   7.069   4.476   6.327 -0.5943  0.5870  0.7242
22334SOL     OW67579   5.269   0.581   0.923  0.4276  0.5765 -0.2326
22334SOL    HW167580   5.211   0.605   0.849  0.3957  1.5947  0.1033
22334SOL    HW267581   5.209   0.549   0.990  0.2380  1.6364  0.1170
22335SOL     OW67582   0.354   8.062   6.138  0.1496  0.3536 -0.2824
22335SOL    HW167583   0.394   7.979   6.162  0.7293  0.8526  0.5537
22335SOL    HW267584   0.383   8.123   6.207 -1.5154  0.8960 -0.0149
22336SOL     OW67585   7.986   2.804   7.659 -0.0972  0.3707 -0.1367
22336SOL    HW167586   7.945   2.723   7.688  0.1681 -0.1803 -1.2534
22336SOL    HW267587   7.912   2.863   7.642 -0.2838  0.4440  0.8525
22337SOL     OW67588   5.483   6.167   0.461 -0.0924 -0.2370 -0.6447
22337SOL    HW167589   5.429   6.243   0.442 -0.7343 -0.5348 -0.0487
22337SOL    HW267590   5.566   6.185   0.415 -1.0372 -0.2665 -2.4487
22338SOL     OW67591   6.060   1.593   7.894 -0.2219 -0.4718 -0.2322
22338SOL    HW167592   6.146   1.633   7.907 -0.1286 -0.9023  0.5301
22338SOL    HW267593   5.999   1.649   7.942 -0.7248  1.0282 -2.4345
22339SOL     OW67594   9.392   1.284   0.441 -0.0254 -0.3060 -0.0969
22339SOL    HW167595   9.409   1.250   0.529 -0.6918 -2.5510 -0.7739
22339SOL    HW267596   9.473   1.267   0.393 -0.4090 -1.1118 -0.4762
22340SOL     OW67597   3.996   9.851   2.442  0.1845 -0.1663  0.1133
22340SOL    HW167598   4.048   9.892   2.512  2.5818  0.0808 -1.6982
22340SOL    HW267599   4.034   9.764   2.431  0.7487  0.2622 -1.6956
22341SOL     OW67600   0.827   9.446   1.125 -0.5762  0.5276 -0.2828
22341SOL    HW167601   0.784   9.368   1.090  0.1863 -1.2013  2.3302
22341SOL    HW267602   0.758   9.491   1.174 -0.1472 -0.8426  1.7094
22342SOL     OW67603   9.465   3.551   4.752 -0.0613  0.5037 -0.4292
22342SOL    HW167604   9.493   3.460   4.743  0.9265  0.6871  0.6387
22342SOL    HW267605   9.479   3.590   4.666 -0.6552 -0.3902 -0.9397
22343SOL     OW67606   2.311   1.671   7.702  0.2764 -0.0233  0.2609
22343SOL    HW167607   2.392   1.632   7.736  0.6282 -0.2530 -0.7729
22343SOL    HW267608   2.241   1.617   7.737  0.5863  0.0716  1.0297
22344SOL     OW67609   5.759   0.314   4.892  0.6167  0.4851 -0.3103
22344SOL    HW167610   5.666   0.291   4.883  0.4738  0.7749  0.4019
22344SOL    HW267611   5.799   0.281   4.812 -0.0346  0.0179 -0.4516
22345SOL     OW67612   8.352   5.309   4.208  0.2349  0.0286 -0.4880
22345SOL    HW167613   8.371   5.363   4.131  1.4594  0.6535  0.2188
22345SOL    HW267614   8.432   5.259   4.222 -1.2974 -3.1311 -1.9612
22346SOL     OW67615   6.441   5.376   2.500  0.1482  0.0361  0.2891
22346SOL    HW167616   6.435   5.291   2.457  1.1174  0.1414 -0.0823
22346SOL    HW267617   6.358   5.386   2.546 -0.3627 -0.6879 -0.4471
22347SOL     OW67618   2.573   6.332   0.696  0.7068  0.4830 -0.1258
22347SOL    HW167619   2.523   6.414   0.684  0.4782  0.3645  0.0112
22347SOL    HW267620   2.625   6.325   0.616 -1.8147 -0.9974 -1.7944
22348SOL     OW67621   7.256   6.689   6.900 -0.7618 -0.4976 -0.4777
22348SOL    HW167622   7.208   6.681   6.818 -0.1876  0.3272 -0.9203
22348SOL    HW267623   7.344   6.656   6.879 -0.1052  1.2503 -0.7128
22349SOL     OW67624   0.047   1.980   0.327 -0.2672  0.0839  0.3502
22349SOL    HW167625   0.005   1.998   0.243  1.1051  0.9589 -0.1853
22349SOL    HW267626   0.139   1.968   0.305 -0.2096 -1.9131  1.4638
22350SOL     OW67627   9.011   6.899   5.126  0.7339 -0.1440  0.3708
22350SOL    HW167628   9.104   6.916   5.140  0.6049  1.5626 -0.5388
22350SOL    HW267629   8.966   6.966   5.178  0.2042  3.3366 -3.9622
22351SOL     OW67630   8.738   2.766   8.254 -0.2833 -0.1165  0.5767
22351SOL    HW167631   8.726   2.673   8.272  1.2246 -0.5062 -0.2436
22351SOL    HW267632   8.663   2.790   8.200 -0.6048 -0.8836  0.6681
22352SOL     OW67633   2.024   9.786   5.757 -0.8969  0.0077 -0.4897
22352SOL    HW167634   2.087   9.835   5.808  0.1423 -2.2414  0.5304
22352SOL    HW267635   1.941   9.796   5.804 -0.2422 -0.9199  0.9227
22353SOL     OW67636   4.926   6.399   3.990  0.6243 -0.3010  0.0857
22353SOL    HW167637   4.834   6.394   3.963  0.7558 -2.7610 -0.1632
22353SOL    HW267638   4.965   6.463   3.931 -0.6621 -0.2076 -0.7057
22354SOL     OW67639   9.278   7.898   5.709 -0.0902  0.7156 -0.1941
22354SOL    HW167640   9.197   7.853   5.734  0.4372 -0.0237  0.2304
22354SOL    HW267641   9.339   7.828   5.687  0.0371  1.2928 -1.8563
22355SOL     OW67642   1.302   4.312   2.372  0.0314 -0.4135 -0.7310
22355SOL    HW167643   1.276   4.403   2.383 -0.0112 -0.6429  1.5457
22355SOL    HW267644   1.305   4.299   2.277 -0.0832  1.8978 -1.1021
22356SOL     OW67645   1.187   3.346   5.312  0.6072 -0.2739 -0.4861
22356SOL    HW167646   1.204   3.278   5.377  1.2832  0.2804 -0.0754
22356SOL    HW267647   1.229   3.424   5.347 -0.5936  0.4954 -0.7127
22357SOL     OW67648   8.909   8.895   3.437  0.1376 -0.2532 -0.2051
22357SOL    HW167649   8.963   8.918   3.512 -0.2695 -0.9908  0.3250
22357SOL    HW267650   8.859   8.975   3.419  1.7733  0.6299 -1.0674
22358SOL     OW67651   0.638   9.483   2.082  0.3251  0.0616 -0.5994
22358SOL    HW167652   0.613   9.553   2.142  0.5875  0.1983 -0.6495
22358SOL    HW267653   0.727   9.460   2.107  0.7908  0.7678 -1.5325
22359SOL     OW67654   2.100   5.363   0.095  0.2270  0.5215  0.1368
22359SOL    HW167655   2.061   5.316   0.169 -1.3795  0.5756 -0.6382
22359SOL    HW267656   2.078   5.311   0.018  0.1115  1.5138 -0.5285
22360SOL     OW67657   1.866   8.089   3.287  0.3928  0.1377  0.3593
22360SOL    HW167658   1.805   8.064   3.218 -0.3227  0.5519  0.8288
22360SOL    HW267659   1.921   8.157   3.247 -1.3253  1.8533  0.7691
22361SOL     OW67660   3.432   5.513   1.502  0.0815 -0.2273  0.1596
22361SOL    HW167661   3.357   5.461   1.473 -1.2129  1.3354  0.5612
22361SOL    HW267662   3.428   5.509   1.598  1.3219 -1.2026  0.2004
22362SOL     OW67663   6.499   4.655   0.243 -0.4445 -0.2826  0.3032
22362SOL    HW167664   6.578   4.699   0.212 -1.3401  0.8564 -0.4539
22362SOL    HW267665   6.488   4.684   0.333 -0.6597  0.5249  0.0212
22363SOL     OW67666   0.128   9.640   5.870  0.4588 -0.1620 -0.5170
22363SOL    HW167667   0.188   9.694   5.922  0.3680  0.4259 -1.0112
22363SOL    HW267668   0.083   9.703   5.813 -3.5260  0.1237  2.4869
22364SOL     OW67669   7.418   7.584   7.976 -0.1858 -0.2900  0.1160
22364SOL    HW167670   7.442   7.534   8.054 -1.0769  0.2595  0.7488
22364SOL    HW267671   7.499   7.629   7.951  0.1516 -0.6205  0.5928
22365SOL     OW67672   8.449   7.336   7.581  0.4297  0.2856  0.0052
22365SOL    HW167673   8.455   7.393   7.505  1.8087  1.1830  0.7496
22365SOL    HW267674   8.398   7.387   7.645  2.2089  1.0389  0.9080
22366SOL     OW67675   0.515   0.303   4.714 -0.2167 -0.4548  0.1236
22366SOL    HW167676   0.541   0.336   4.800 -2.2390  1.5333  0.0473
22366SOL    HW267677   0.555   0.364   4.652 -0.5663 -0.5796 -0.2305
22367SOL     OW67678   2.696   9.893   4.589  0.4496  0.3829 -0.2234
22367SOL    HW167679   2.766   9.829   4.583 -0.7841 -0.9083 -2.1031
22367SOL    HW267680   2.648   9.885   4.506 -2.5147  0.4785  1.3265
22368SOL     OW67681   9.499   8.100   5.917 -0.3450  0.6374 -0.0295
22368SOL    HW167682   9.513   8.005   5.918 -1.4327  0.3989  2.7977
22368SOL    HW267683   9.582   8.137   5.946 -0.5821  0.3424  1.0901
22369SOL     OW67684   7.584   9.372   6.536  0.0062 -0.0311  0.4122
22369SOL    HW167685   7.535   9.438   6.487  1.8403  1.1933  0.1129
22369SOL    HW267686   7.668   9.366   6.489  0.8955 -0.6026  2.0131
22370SOL     OW67687   1.180   2.722   4.630  0.0483 -0.1259 -0.3526
22370SOL    HW167688   1.123   2.735   4.706  0.4167 -0.6392  0.0252
22370SOL    HW267689   1.151   2.639   4.593 -1.6591  1.1882 -2.1739
22371SOL     OW67690   5.240   4.050   6.164  0.8230 -0.7155  0.5724
22371SOL    HW167691   5.150   4.080   6.154  0.7277 -1.2222 -0.1621
22371SOL    HW267692   5.276   4.050   6.076  1.5189 -0.6028  0.8488
22372SOL     OW67693   9.938   5.279   0.458  0.2989  0.3565  0.7301
22372SOL    HW167694  10.019   5.329   0.471  0.4104 -0.1423  2.1236
22372SOL    HW267695   9.963   5.188   0.473 -0.2250  0.0250 -0.3115
22373SOL     OW67696   1.989   6.018   9.407  0.7020  0.6875 -0.6889
22373SOL    HW167697   1.946   6.029   9.492  1.4557  2.9234 -0.5356
22373SOL    HW267698   2.014   5.926   9.405  0.3560  0.4989  1.3738
22374SOL     OW67699   4.624   7.043   0.759 -0.2449  0.6457  0.2847
22374SOL    HW167700   4.572   6.972   0.796 -2.3480  2.3652  0.8199
22374SOL    HW267701   4.654   7.093   0.835 -0.3050  1.3569 -0.1519
22375SOL     OW67702   5.901   2.084   9.257  0.3880 -0.4375 -0.3456
22375SOL    HW167703   5.890   1.991   9.241 -0.5234 -0.4479  0.2298
22375SOL    HW267704   5.835   2.105   9.324  0.5139  0.6335 -0.5289
22376SOL     OW67705   1.493   3.059   0.952  0.1680 -0.1808 -0.4556
22376SOL    HW167706   1.535   2.991   0.899  0.0266 -1.1622  0.6585
22376SOL    HW267707   1.401   3.035   0.954  0.5341 -1.6652  2.3332
22377SOL     OW67708   6.036   0.849   7.678 -0.3327  0.0576  0.7952
22377SOL    HW167709   6.026   0.776   7.740  0.3395 -0.1873  0.6199
22377SOL    HW267710   5.960   0.905   7.695 -0.4702 -0.3095  1.4366
22378SOL     OW67711   2.665   0.624   9.707 -0.0810  0.1308 -0.0402
22378SOL    HW167712   2.750   0.663   9.690  0.8613 -0.4589  2.7716
22378SOL    HW267713   2.685   0.534   9.735 -1.6654 -0.2069  0.1017
22379SOL     OW67714   6.176   7.269   9.913  0.1313 -0.0383  0.0787
22379SOL    HW167715   6.217   7.322   9.981 -2.2133 -0.6066  2.0563
22379SOL    HW267716   6.216   7.183   9.922 -0.4638 -0.2240  1.0567
22380SOL     OW67717   0.607   3.725   0.214  0.3636 -0.2001 -0.0466
22380SOL    HW167718   0.678   3.670   0.248 -0.4395  0.2092  2.5150
22380SOL    HW267719   0.530   3.668   0.215 -0.1251  0.4673  0.9793
22381SOL     OW67720   5.752   1.748   3.709  0.2107  0.1563  0.1805
22381SOL    HW167721   5.746   1.683   3.779 -2.2057 -0.2972 -0.3808
22381SOL    HW267722   5.687   1.814   3.732  0.9114  1.1390 -0.5492
22382SOL     OW67723  -0.007   3.794   9.292  0.1146  0.1640  0.1531
22382SOL    HW167724  -0.030   3.883   9.316 -0.6257 -0.1405  0.6037
22382SOL    HW267725   0.069   3.803   9.234  1.8251  0.9367  2.3919
22383SOL     OW67726   0.549   1.035   8.041 -0.8815  0.4942  0.6175
22383SOL    HW167727   0.527   1.031   8.134 -0.1718 -0.7183  0.7635
22383SOL    HW267728   0.630   1.085   8.037 -2.2592  2.8871  0.3247
22384SOL     OW67729   1.233   8.455   5.714  0.1835 -0.1653 -0.4072
22384SOL    HW167730   1.289   8.385   5.680  0.3443 -0.7079  0.8969
22384SOL    HW267731   1.149   8.443   5.670  0.4124 -0.7759 -0.6856
22385SOL     OW67732   1.610   8.418   4.343 -0.0617 -0.2881 -0.4924
22385SOL    HW167733   1.643   8.484   4.403  0.5558 -0.5805 -0.5117
22385SOL    HW267734   1.554   8.362   4.396 -1.9299  1.1801 -0.7804
22386SOL     OW67735   0.253   0.602   9.083 -0.4940  0.4889  0.6267
22386SOL    HW167736   0.316   0.550   9.033  0.1452  2.2185 -0.4319
22386SOL    HW267737   0.296   0.617   9.167  0.6769  1.8593 -0.1745
22387SOL     OW67738   1.298   2.600   0.241  0.2000 -0.5950 -0.0905
22387SOL    HW167739   1.355   2.578   0.316  0.1047  0.9224  0.4575
22387SOL    HW267740   1.221   2.545   0.254  0.6884 -1.2274  0.2535
22388SOL     OW67741   4.370   4.119   7.573  0.2489 -0.1131 -0.0709
22388SOL    HW167742   4.446   4.091   7.624  0.3483  3.2321  1.9399
22388SOL    HW267743   4.408   4.151   7.491  0.9013  0.3988  0.4164
22389SOL     OW67744   6.372   8.069   5.596  0.3217 -0.9639  0.0858
22389SOL    HW167745   6.322   8.048   5.517 -1.8623  2.1915  0.4450
22389SOL    HW267746   6.358   7.993   5.653 -1.3523 -1.6334 -1.1154
22390SOL     OW67747   1.622   1.052   4.168  0.5525 -0.2605  0.8553
22390SOL    HW167748   1.538   1.055   4.122  0.4895  1.3005  1.0472
22390SOL    HW267749   1.626   0.962   4.203 -0.5800 -0.6609  0.0257
22391SOL     OW67750   2.893   3.867   4.170  0.2105 -0.0066  0.1254
22391SOL    HW167751   2.974   3.915   4.183 -0.6021  1.2725  0.6938
22391SOL    HW267752   2.870   3.884   4.078 -0.0248  0.6580  0.2968
22392SOL     OW67753   6.751   2.019   9.626  0.6425  0.3800 -0.5940
22392SOL    HW167754   6.839   1.982   9.620  0.4770 -0.5408  1.7492
22392SOL    HW267755   6.765   2.113   9.632  1.6950  0.1239  2.1419
22393SOL     OW67756   7.809   5.386   9.137  0.2149  0.5145 -0.1705
22393SOL    HW167757   7.861   5.413   9.213 -0.8073 -0.4043  0.8787
22393SOL    HW267758   7.830   5.452   9.070  2.5269  0.3269  0.2770
22394SOL     OW67759   0.557   3.792   8.629  0.2439  0.2744  0.2457
22394SOL    HW167760   0.487   3.785   8.565  0.8942 -0.9109 -0.3682
22394SOL    HW267761   0.638   3.784   8.578  0.7935  0.2570  1.0881
22395SOL     OW67762   2.115   9.212   8.505  0.5517 -0.0449  0.1446
22395SOL    HW167763   2.059   9.235   8.579  0.2154  1.0506 -0.4362
22395SOL    HW267764   2.060   9.156   8.450  0.7618 -0.7582  0.6418
22396SOL     OW67765   5.732   7.051   2.864 -0.2287 -0.1248 -0.1993
22396SOL    HW167766   5.664   7.075   2.801 -0.4259 -0.9644 -0.3155
22396SOL    HW267767   5.702   6.967   2.900  0.0865  0.1483  0.7126
22397SOL     OW67768   4.677   3.146   3.339  0.2925 -0.0205 -0.5714
22397SOL    HW167769   4.595   3.191   3.362  0.2657  0.8713 -2.2334
22397SOL    HW267770   4.650   3.059   3.311 -0.2995  0.6747 -2.3366
22398SOL     OW67771   9.856   7.178   8.916 -0.4135 -0.2791  0.2997
22398SOL    HW167772   9.943   7.145   8.939 -0.2965  0.3995  0.8693
22398SOL    HW267773   9.852   7.265   8.957 -0.9417  0.1612 -0.6584
22399SOL     OW67774   7.391   1.735   1.938  0.4629  0.5922  0.0062
22399SOL    HW167775   7.406   1.774   1.852 -0.4903  0.9799 -0.0018
22399SOL    HW267776   7.410   1.805   2.000 -2.3597  1.5295 -0.0478
22400SOL     OW67777   9.499   5.113   3.770  0.8374  0.1410 -0.3607
22400SOL    HW167778   9.483   5.202   3.741  0.7737  0.2379 -0.0348
22400SOL    HW267779   9.594   5.107   3.781  0.8485  0.1456 -0.4608
22401SOL     OW67780   2.590   6.566   8.680 -0.1178 -0.1122  0.3338
22401SOL    HW167781   2.536   6.645   8.683 -0.8141 -0.4066 -1.9680
22401SOL    HW267782   2.528   6.496   8.659  0.7030 -1.0380  0.9037
22402SOL     OW67783   7.452   5.984   3.999  0.4010  0.2684 -0.3887
22402SOL    HW167784   7.449   6.022   4.087  0.2421 -0.3258 -0.1306
22402SOL    HW267785   7.419   6.053   3.942 -0.8825  0.1725  0.1998
22403SOL     OW67786   2.994   0.063   1.092 -0.4392 -0.2083 -0.1782
22403SOL    HW167787   2.926   0.070   1.159  0.9196 -1.2551  1.4081
22403SOL    HW267788   2.946   0.051   1.010 -2.1671  1.4877  0.5048
22404SOL     OW67789   4.580   4.330   9.824 -0.4939 -0.4038  0.2873
22404SOL    HW167790   4.583   4.250   9.772 -0.7216 -1.2469  1.5093
22404SOL    HW267791   4.624   4.306   9.906 -1.5721  0.3662  1.1261
22405SOL     OW67792   5.672   7.144   9.464  0.7085  0.1154  0.4307
22405SOL    HW167793   5.583   7.158   9.433  1.0718  0.9166 -0.3075
22405SOL    HW267794   5.691   7.221   9.517 -0.0114 -1.3827  3.0117
22406SOL     OW67795   5.339   3.924   0.834 -0.4192  0.9312 -0.2917
22406SOL    HW167796   5.351   3.917   0.739  0.7957 -2.6076 -0.0369
22406SOL    HW267797   5.426   3.947   0.867  0.0363 -1.1352  0.0861
22407SOL     OW67798   2.065   2.757   1.736 -0.3844 -0.1025 -0.1301
22407SOL    HW167799   2.130   2.692   1.711 -1.4090 -1.5601  0.8251
22407SOL    HW267800   2.113   2.840   1.738  1.4705 -1.1281  0.6284
22408SOL     OW67801   8.636   5.925   2.887 -0.3375 -0.5161  0.6960
22408SOL    HW167802   8.720   5.956   2.854 -0.6653 -1.5977 -1.2713
22408SOL    HW267803   8.635   5.831   2.868 -1.7022 -0.6529  1.3114
22409SOL     OW67804   5.146   2.898   9.168  0.3520 -0.4257 -0.3166
22409SOL    HW167805   5.236   2.920   9.192  0.4336 -0.0588 -0.9436
22409SOL    HW267806   5.142   2.803   9.173  0.0199 -0.3653  2.3583
22410SOL     OW67807   4.598   5.330   3.275 -0.4965 -0.0391  0.0978
22410SOL    HW167808   4.604   5.290   3.362 -0.7990  0.5391  0.3892
22410SOL    HW267809   4.688   5.329   3.243 -0.1332  0.9925  0.9964
22411SOL     OW67810   6.558   6.959   8.714  0.4182  0.5943  0.5187
22411SOL    HW167811   6.610   7.016   8.771  0.2816  1.5474 -0.2663
22411SOL    HW267812   6.614   6.885   8.695  0.0922 -0.2767  2.7117
22412SOL     OW67813   4.567   7.338   2.453 -0.0234  0.1328  0.0747
22412SOL    HW167814   4.590   7.266   2.394  2.6992 -0.1749  1.3725
22412SOL    HW267815   4.603   7.313   2.538  0.1377  2.5634  0.8063
22413SOL     OW67816   7.679   0.528   6.939 -0.2818  0.3342 -0.2665
22413SOL    HW167817   7.670   0.448   6.888 -0.1664  1.3253 -1.8995
22413SOL    HW267818   7.774   0.536   6.953 -0.3361 -0.1025  0.4135
22414SOL     OW67819   2.148   0.244   7.068  0.4477 -0.0161  0.3764
22414SOL    HW167820   2.242   0.231   7.053  0.0822 -0.9418 -1.3718
22414SOL    HW267821   2.119   0.163   7.110 -0.1228 -1.2125 -2.1201
22415SOL     OW67822   7.433   2.362   3.023 -0.5894 -0.1661  0.8240
22415SOL    HW167823   7.362   2.351   3.086 -0.3286 -1.6484  0.8904
22415SOL    HW267824   7.451   2.273   2.991  0.2310  0.3760 -0.3004
22416SOL     OW67825   1.682   5.059   2.747  0.2661  0.0389 -0.1559
22416SOL    HW167826   1.645   5.030   2.663 -1.4969 -1.7801  1.1497
22416SOL    HW267827   1.617   5.119   2.783  0.7619  0.4059  0.1321
22417SOL     OW67828   4.327   8.215   7.628 -0.3278  0.0823  0.0148
22417SOL    HW167829   4.260   8.203   7.695  0.6570 -1.8300  0.7116
22417SOL    HW267830   4.335   8.310   7.619 -2.1507  0.3531  0.8830
22418SOL     OW67831   3.981   8.529   1.352  0.2009 -0.0437 -0.0598
22418SOL    HW167832   4.050   8.579   1.395 -0.2300  0.3055  0.2391
22418SOL    HW267833   3.935   8.593   1.298 -0.2874 -0.1414  0.2389
22419SOL     OW67834   5.882   3.929   0.344  0.0585  0.0752  0.0845
22419SOL    HW167835   5.884   3.931   0.248  0.2464 -1.7301  0.0286
22419SOL    HW267836   5.901   3.838   0.367  1.4046  0.7442  1.8808
22420SOL     OW67837   6.887   1.033   1.765  0.1057 -0.0610 -0.3638
22420SOL    HW167838   6.922   0.946   1.747 -0.5816 -0.3706 -0.2127
22420SOL    HW267839   6.963   1.083   1.794  0.9199 -0.0400 -2.3472
22421SOL     OW67840   8.756   9.352   0.123 -0.4608  0.1237  0.1800
22421SOL    HW167841   8.715   9.437   0.113  0.6126  0.4109 -2.6675
22421SOL    HW267842   8.685   9.289   0.110 -1.0797  0.5365  1.3924
22422SOL     OW67843   3.793   0.012   7.311  0.1305 -0.3245 -0.4734
22422SOL    HW167844   3.699   0.001   7.319  0.3539 -1.2451  1.2684
22422SOL    HW267845   3.805   0.107   7.300 -0.9231 -0.0304  0.7145
22423SOL     OW67846   6.615   7.824   6.090 -0.2153 -0.3062 -0.5551
22423SOL    HW167847   6.704   7.852   6.111  0.0880 -0.1864 -1.9245
22423SOL    HW267848   6.626   7.737   6.051 -0.8894 -1.0966  0.9178
22424SOL     OW67849   2.412   2.294   3.494  0.2867 -0.1079 -0.0712
22424SOL    HW167850   2.429   2.339   3.411  0.5325  1.6167  0.8703
22424SOL    HW267851   2.497   2.290   3.537  0.4954 -2.5567 -0.6028
22425SOL     OW67852   1.350   4.701   8.805 -0.0976  0.9266  0.0191
22425SOL    HW167853   1.352   4.612   8.841 -1.0584  0.8207 -0.1719
22425SOL    HW267854   1.420   4.702   8.740 -1.9114 -0.6322 -2.1068
22426SOL     OW67855   0.079   4.060   0.317  0.0851 -0.0974  0.0133
22426SOL    HW167856   0.159   4.111   0.331 -0.9070  1.4344  0.3558
22426SOL    HW267857   0.107   3.969   0.326  1.4566  0.4413  1.8471
22427SOL     OW67858   3.318   7.374   3.743  0.7023  0.3324  0.0260
22427SOL    HW167859   3.335   7.336   3.657  0.3536  0.6864 -0.2034
22427SOL    HW267860   3.276   7.304   3.792 -0.5010  0.5949 -0.5959
22428SOL     OW67861   0.812   3.565   2.615  0.3049 -0.0049 -0.7862
22428SOL    HW167862   0.890   3.606   2.577 -0.2751  1.3078 -0.5807
22428SOL    HW267863   0.802   3.605   2.701  0.0120 -0.9696 -0.3484
22429SOL     OW67864   5.518   8.468   8.534 -0.0993  0.0504  0.0812
22429SOL    HW167865   5.438   8.499   8.491 -0.0240 -0.3421 -0.3556
22429SOL    HW267866   5.487   8.414   8.607 -0.2279  1.0247  0.7521
22430SOL     OW67867   4.204   5.162   5.144 -0.2691 -0.3326  0.1469
22430SOL    HW167868   4.205   5.067   5.137  0.1227 -0.2874 -0.4993
22430SOL    HW267869   4.217   5.193   5.054  1.5608  0.3160  0.6022
22431SOL     OW67870   8.587   1.277   6.002 -0.0888 -0.4258  0.6037
22431SOL    HW167871   8.492   1.285   6.011 -0.2341 -1.1558 -0.1812
22431SOL    HW267872   8.608   1.194   6.045  0.0874 -0.6317  0.1284
22432SOL     OW67873   9.852   8.415   1.274  0.3898 -0.8198  0.1819
22432SOL    HW167874   9.848   8.397   1.368 -0.7357  0.0643  0.3170
22432SOL    HW267875   9.818   8.504   1.265  2.9417  0.1596 -0.7899
22433SOL     OW67876   2.485   8.068   4.053 -0.4160  0.3471  0.4271
22433SOL    HW167877   2.491   8.108   4.140 -1.3435 -1.5183  1.4098
22433SOL    HW267878   2.531   7.985   4.062 -1.0595 -0.1454 -0.6938
22434SOL     OW67879   6.620   9.659   4.605  0.5134 -0.2085  0.7494
22434SOL    HW167880   6.693   9.596   4.598  0.7412  0.1730 -0.3613
22434SOL    HW267881   6.662   9.740   4.634  0.3630 -0.2825  1.1823
22435SOL     OW67882   6.763   7.759   9.263 -0.0826  0.2291  0.4974
22435SOL    HW167883   6.699   7.769   9.334 -0.8381  0.3700 -0.1768
22435SOL    HW267884   6.779   7.849   9.233 -1.6813  0.0280 -1.1176
22436SOL     OW67885   1.825   7.649   7.132  0.4302 -0.9711  0.9548
22436SOL    HW167886   1.762   7.657   7.060  0.9765  1.1286  0.6296
22436SOL    HW267887   1.898   7.600   7.095 -0.0685 -1.4733  0.6332
22437SOL     OW67888   0.741   0.311   1.480 -0.1254  0.1836 -0.1772
22437SOL    HW167889   0.672   0.366   1.442 -1.3421 -1.7774 -0.9596
22437SOL    HW267890   0.704   0.223   1.480  1.4446 -0.5581  1.7477
22438SOL     OW67891   0.784   0.560   1.261  0.4878 -0.2322  0.1671
22438SOL    HW167892   0.733   0.491   1.305  0.3756 -1.4556 -1.7698
22438SOL    HW267893   0.718   0.618   1.224  0.4870 -1.0391 -1.1465
22439SOL     OW67894   6.948   0.706   7.432 -0.4171 -0.0045 -0.0349
22439SOL    HW167895   6.856   0.727   7.447 -0.6188 -0.0531 -1.1538
22439SOL    HW267896   6.949   0.611   7.420  0.0268 -0.2450  1.5899
22440SOL     OW67897   2.540   2.325   9.053  0.6066 -0.2797 -0.0907
22440SOL    HW167898   2.476   2.262   9.018  0.4896  0.8878 -2.1970
22440SOL    HW267899   2.624   2.280   9.048  0.3493 -0.7358 -0.3486
22441SOL     OW67900   0.457   3.982   0.241 -0.5842 -0.5331 -0.2988
22441SOL    HW167901   0.517   4.056   0.254 -2.0478  0.8648 -1.1665
22441SOL    HW267902   0.514   3.911   0.211  0.9755 -0.0265  1.2946
22442SOL     OW67903   8.368   9.248   3.507 -0.2736 -0.3779  0.0702
22442SOL    HW167904   8.360   9.343   3.518  0.5553 -0.3332  0.3908
22442SOL    HW267905   8.400   9.237   3.417  2.5226 -0.1385  0.9198
22443SOL     OW67906   9.758   0.190   8.412  0.1189 -0.4489  0.4927
22443SOL    HW167907   9.693   0.122   8.393 -1.3081  1.4750 -2.1971
22443SOL    HW267908   9.712   0.251   8.469  0.5713 -0.4788  0.9007
22444SOL     OW67909   6.442   4.024   5.283  0.1299 -0.1322 -0.3145
22444SOL    HW167910   6.536   4.010   5.279  0.0765 -1.1652  1.0859
22444SOL    HW267911   6.430   4.089   5.353 -0.2020 -0.1874 -0.3147
22445SOL     OW67912   6.417   5.410   2.996 -0.0721 -0.0781 -0.2476
22445SOL    HW167913   6.491   5.438   3.050 -0.5267 -0.1623  0.4328
22445SOL    HW267914   6.398   5.321   3.025  0.4960 -0.6186 -1.4570
22446SOL     OW67915   5.032   3.547   8.860 -0.5528  0.6563  0.4653
22446SOL    HW167916   4.943   3.581   8.844 -0.8748 -0.0775  0.6662
22446SOL    HW267917   5.040   3.472   8.800  0.7349  1.9981 -1.1408
22447SOL     OW67918   3.463   2.623   6.213 -0.2105  0.4074  0.2047
22447SOL    HW167919   3.436   2.532   6.203 -0.6397  0.5039  0.4406
22447SOL    HW267920   3.477   2.654   6.124 -0.0628  0.1125  0.1227
22448SOL     OW67921   1.962   2.538   5.787  0.0035  0.8611  0.3306
22448SOL    HW167922   2.022   2.506   5.720 -0.7012  0.0962  0.0484
22448SOL    HW267923   2.008   2.522   5.870  0.2209  0.3573  0.1145
22449SOL     OW67924   6.711   6.079   8.742 -0.8721 -0.5525 -0.2126
22449SOL    HW167925   6.729   6.054   8.651 -0.5890 -0.2925 -0.2266
22449SOL    HW267926   6.641   6.144   8.735 -1.0261 -0.7195 -0.2291
22450SOL     OW67927   6.842   7.881   3.703  0.0757 -0.4253  0.4664
22450SOL    HW167928   6.764   7.883   3.759 -0.4565  2.8904 -0.1822
22450SOL    HW267929   6.908   7.930   3.752  0.8142 -0.6534 -0.2647
22451SOL     OW67930   3.085   0.542   8.013 -0.0886 -0.5280 -0.1039
22451SOL    HW167931   3.145   0.595   7.961 -0.5217 -0.0182 -0.0969
22451SOL    HW267932   3.106   0.564   8.104  0.0286 -0.7013 -0.0888
22452SOL     OW67933   5.727   3.132   9.586  0.4742 -0.4371 -0.2446
22452SOL    HW167934   5.779   3.069   9.536 -0.2179 -1.9977  0.9044
22452SOL    HW267935   5.636   3.114   9.562  0.3093  0.6460 -0.4633
22453SOL     OW67936   9.665   5.878   6.189 -0.5478 -0.7115  0.2681
22453SOL    HW167937   9.591   5.819   6.193 -1.5161  0.5350  1.7300
22453SOL    HW267938   9.705   5.862   6.103 -1.4781 -2.5898  0.1573
22454SOL     OW67939   4.515   6.206   7.415  0.0031  0.1540 -0.7523
22454SOL    HW167940   4.505   6.259   7.336 -0.6375 -0.5500 -1.1631
22454SOL    HW267941   4.443   6.232   7.471 -0.4054 -0.3806 -1.0206
22455SOL     OW67942   2.442   7.232   0.620 -0.6755  0.6224  0.3512
22455SOL    HW167943   2.404   7.147   0.641 -0.3074 -0.1867 -1.9082
22455SOL    HW267944   2.529   7.231   0.661 -0.4900 -0.2955 -0.0602
22456SOL     OW67945   7.987   1.499   9.752 -0.2446 -0.5356 -0.4605
22456SOL    HW167946   7.957   1.510   9.661 -0.2016 -2.8328 -0.7997
22456SOL    HW267947   7.944   1.420   9.783  0.7414 -0.5051  1.1110
22457SOL     OW67948   6.911   0.210   9.607 -0.0018 -0.2021 -0.0173
22457SOL    HW167949   6.843   0.242   9.666  0.5921  1.8501 -0.3634
22457SOL    HW267950   6.990   0.256   9.634  0.6687 -0.5650 -1.2769
22458SOL     OW67951   4.276   2.755   2.377 -0.2172 -0.4319  0.3382
22458SOL    HW167952   4.262   2.755   2.282 -0.9178 -1.4160  0.4213
22458SOL    HW267953   4.348   2.695   2.391  1.3038  1.2937  0.2865
22459SOL     OW67954   7.216   9.686   1.291 -0.1792  0.0700  0.1316
22459SOL    HW167955   7.198   9.596   1.319  0.0479  0.4258  1.5276
22459SOL    HW267956   7.294   9.712   1.341 -0.1953  1.0129 -0.2994
22460SOL     OW67957   7.095   1.494   1.012 -0.2586  0.2263  0.3070
22460SOL    HW167958   7.045   1.519   0.934 -0.2985  3.2208  1.1379
22460SOL    HW267959   7.186   1.500   0.985 -0.1829  3.1780  0.8031
22461SOL     OW67960   8.984   6.618   5.131 -0.8409 -0.3135 -0.2474
22461SOL    HW167961   8.998   6.712   5.115 -0.4424 -0.2846  0.2514
22461SOL    HW267962   9.061   6.575   5.095 -0.9582 -0.4424 -0.3477
22462SOL     OW67963   6.170   1.420   4.433 -0.3932 -0.0507 -0.0374
22462SOL    HW167964   6.194   1.394   4.344 -0.1082 -0.7442  0.2343
22462SOL    HW267965   6.134   1.340   4.472 -1.6467  0.5597  0.0842
22463SOL     OW67966   5.391   8.874   6.935 -0.4472  0.3474  0.5359
22463SOL    HW167967   5.349   8.788   6.940  0.3163 -0.2403 -1.9339
22463SOL    HW267968   5.393   8.895   6.842  2.8031  1.2570  0.6656
22464SOL     OW67969   3.794   3.866   3.031  0.2797 -0.4778  0.0370
22464SOL    HW167970   3.865   3.805   3.050 -0.3218 -0.7226  1.7196
22464SOL    HW267971   3.837   3.940   2.987  1.8545 -0.0228  2.1655
22465SOL     OW67972   1.225   8.227   8.492 -0.4698  0.1600 -0.0527
22465SOL    HW167973   1.163   8.246   8.563 -0.4462 -0.3866  0.1204
22465SOL    HW267974   1.194   8.144   8.456  0.6917 -0.5966  0.6427
22466SOL     OW67975   5.124   7.987   5.003  0.0121  0.1140 -0.4471
22466SOL    HW167976   5.082   7.946   4.927 -1.4522  2.4113 -0.9983
22466SOL    HW267977   5.063   7.969   5.075 -0.5992  1.1976 -0.6769
22467SOL     OW67978   3.976   8.656   5.978  0.0072 -0.5498 -0.1804
22467SOL    HW167979   3.993   8.592   6.047  0.6751  0.4873  0.6463
22467SOL    HW267980   3.906   8.711   6.012  0.3307 -0.0393 -0.3190
22468SOL     OW67981   8.587   9.526   1.267 -0.4770 -0.1189 -0.4134
22468SOL    HW167982   8.499   9.556   1.290 -0.4537 -0.0589 -0.4041
22468SOL    HW267983   8.581   9.430   1.272  0.1705 -0.0727  2.1572
22469SOL     OW67984   5.434   8.485   3.467  0.2873  0.0173  0.1446
22469SOL    HW167985   5.377   8.530   3.404  0.7592  0.3502 -0.0484
22469SOL    HW267986   5.427   8.537   3.547 -0.5272 -0.5592  0.4713
22470SOL     OW67987   1.502   2.160   8.828 -0.3722 -0.1232 -0.2921
22470SOL    HW167988   1.557   2.090   8.792 -1.4878 -0.9477 -0.4591
22470SOL    HW267989   1.550   2.191   8.905  0.1558 -1.0563 -0.2309
22471SOL     OW67990   7.197   7.847   0.670 -0.3691  0.3697 -0.2767
22471SOL    HW167991   7.276   7.792   0.669 -0.4410  0.2418  0.4879
22471SOL    HW267992   7.225   7.929   0.631  0.3336  0.5603  0.5776
22472SOL     OW67993   2.530   0.439   0.944  0.7939  0.0154 -0.0850
22472SOL    HW167994   2.469   0.368   0.928 -2.1166  1.6179  2.7794
22472SOL    HW267995   2.591   0.405   1.009  0.7051 -0.4510 -0.2466
22473SOL     OW67996   5.502   3.794   8.236  0.5313  0.2863  0.1065
22473SOL    HW167997   5.413   3.768   8.262  0.6807 -0.7971 -0.4313
22473SOL    HW267998   5.535   3.844   8.311 -0.4356  0.4725  0.4219
22474SOL     OW67999   9.387   9.494   1.268 -0.1505  0.2321  0.6333
22474SOL    HW168000   9.480   9.502   1.289  0.1434  0.7558 -0.7485
22474SOL    HW268001   9.385   9.469   1.175 -1.3865  0.4335  0.5816
22475SOL     OW68002   5.391   4.669   9.085  0.0422 -0.6085  0.2273
22475SOL    HW168003   5.473   4.621   9.098  0.5661 -0.3479 -1.7158
22475SOL    HW268004   5.413   4.760   9.099  0.0012 -0.5786  0.1076
22476SOL     OW68005   5.989   2.283   4.533 -0.1176 -0.3870  0.5638
22476SOL    HW168006   5.977   2.280   4.628 -1.2205 -0.5121  0.4343
22476SOL    HW268007   5.967   2.374   4.510 -2.3771 -0.9794  0.1467
22477SOL     OW68008   4.555   8.553   4.369 -0.2996 -0.4032  0.0750
22477SOL    HW168009   4.507   8.505   4.437 -1.1084  0.1178 -0.1160
22477SOL    HW268010   4.600   8.484   4.319  0.8860 -0.7515  1.5506
22478SOL     OW68011   3.377   2.134   9.823 -0.3563 -0.4926  0.3402
22478SOL    HW168012   3.293   2.087   9.821 -0.3697 -0.4400 -0.9205
22478SOL    HW268013   3.425   2.094   9.896 -0.4946 -2.2777 -0.4979
22479SOL     OW68014   1.526   4.111   3.461  0.0548 -0.0404  0.7156
22479SOL    HW168015   1.615   4.108   3.496  1.0710  1.7653 -1.4541
22479SOL    HW268016   1.501   4.020   3.450  2.3285 -0.6167 -0.1782
22480SOL     OW68017   1.930   5.160   2.925  0.1889  0.5568  0.3911
22480SOL    HW168018   1.873   5.222   2.971  0.3180  0.0123  1.3039
22480SOL    HW268019   1.871   5.110   2.868 -0.1097  0.5928  0.6671
22481SOL     OW68020   8.792   7.837   7.900  0.3621 -0.4029 -0.6685
22481SOL    HW168021   8.789   7.758   7.845  1.5735 -1.1191  0.2555
22481SOL    HW268022   8.877   7.876   7.880  0.3998 -0.1445  0.0020
22482SOL     OW68023   9.715   5.790   3.735  0.8823 -0.4966 -0.1506
22482SOL    HW168024   9.643   5.738   3.697  2.5071 -2.1564 -1.1073
22482SOL    HW268025   9.791   5.767   3.682  2.0119  1.7396  0.4162
22483SOL     OW68026   5.978   3.458   3.475  0.4063  0.4280 -0.5328
22483SOL    HW168027   5.915   3.512   3.428 -0.8098  0.5694  1.1648
22483SOL    HW268028   5.972   3.372   3.435 -1.4083  0.2615  0.0410
22484SOL     OW68029   6.615   0.282   1.168 -0.0743 -0.2787  0.1980
22484SOL    HW168030   6.593   0.245   1.083 -1.4680 -0.2105  0.5177
22484SOL    HW268031   6.534   0.278   1.219 -0.3115  3.0731  0.2883
22485SOL     OW68032   5.636   9.166   1.870  0.0750 -0.2364 -0.2772
22485SOL    HW168033   5.693   9.189   1.944  0.6495  0.2242 -0.8558
22485SOL    HW268034   5.672   9.214   1.796  0.3898 -1.8225 -1.1859
22486SOL     OW68035   0.158   5.872   8.925  0.5721  0.5015  0.1485
22486SOL    HW168036   0.100   5.913   8.860  1.8352 -0.5438 -1.7146
22486SOL    HW268037   0.220   5.941   8.949  0.4991  0.7057 -0.2419
22487SOL     OW68038   4.466   5.750   5.848 -0.1332  0.6246 -0.3438
22487SOL    HW168039   4.556   5.781   5.856  0.4627 -1.1306  0.1487
22487SOL    HW268040   4.475   5.659   5.819 -1.7673  0.5603 -0.7252
22488SOL     OW68041   4.101   9.074   2.505 -0.0595 -0.1476  0.0784
22488SOL    HW168042   4.168   9.128   2.464  1.5587 -1.0904  1.3705
22488SOL    HW268043   4.066   9.128   2.575  2.0035 -0.9115  1.7819
22489SOL     OW68044   1.132   1.551   0.100 -1.0622  0.1349 -0.0608
22489SOL    HW168045   1.167   1.610   0.167  3.1666 -2.5600  0.5264
22489SOL    HW268046   1.058   1.507   0.142 -0.1549  0.3920  1.8942
22490SOL     OW68047   2.738   8.213   2.010 -0.8176  0.2385  0.4542
22490SOL    HW168048   2.704   8.124   2.023 -0.8338 -0.0359 -1.2339
22490SOL    HW268049   2.735   8.226   1.915  0.9860  1.3312  0.5104
22491SOL     OW68050   4.638   9.784   8.578  0.0507  0.0171  0.0429
22491SOL    HW168051   4.654   9.834   8.498 -0.0534 -1.7345 -1.1326
22491SOL    HW268052   4.695   9.824   8.643  2.6267 -0.5267 -1.7377
22492SOL     OW68053   5.981   1.020   4.836  0.2781 -0.5959  0.0040
22492SOL    HW168054   5.915   0.967   4.791  0.5148 -0.5951 -0.3424
22492SOL    HW268055   5.934   1.098   4.864  0.1200 -0.6193 -0.1962
22493SOL     OW68056   2.297   1.470   1.813 -1.1164 -0.4791 -0.0645
22493SOL    HW168057   2.296   1.457   1.908  0.8983 -0.3648  0.0106
22493SOL    HW268058   2.338   1.390   1.778  1.3813  0.9134 -0.5009
22494SOL     OW68059   4.355   8.997   5.099  0.0041  0.1657 -0.3259
22494SOL    HW168060   4.385   9.087   5.113 -0.4184  0.2599 -0.0302
22494SOL    HW268061   4.278   9.006   5.043 -0.9313  0.1000  0.9137
22495SOL     OW68062   6.167   3.509   1.816 -0.1953 -0.0128  0.0746
22495SOL    HW168063   6.089   3.523   1.869 -0.4129 -1.5781  0.2150
22495SOL    HW268064   6.134   3.493   1.728 -0.0286 -0.3591  0.0711
22496SOL     OW68065   4.117   8.493   8.184  0.3562  0.7340  0.1582
22496SOL    HW168066   4.086   8.561   8.244  0.3280  0.8497  0.0131
22496SOL    HW268067   4.212   8.502   8.186  0.5301 -0.8877  2.0938
22497SOL     OW68068   1.699   1.270   0.630 -0.1303  0.0879  0.1826
22497SOL    HW168069   1.662   1.209   0.693  0.0531  0.4262  0.6212
22497SOL    HW268070   1.697   1.355   0.674 -1.3558  0.6056 -0.7996
22498SOL     OW68071   7.258   0.180   4.376 -0.0241 -0.5606  0.0264
22498SOL    HW168072   7.234   0.094   4.340 -0.1995 -0.3343 -0.3989
22498SOL    HW268073   7.351   0.172   4.398 -0.2759 -1.1880  0.9446
22499SOL     OW68074   6.363   8.482   9.145 -0.2346  0.0638 -0.2978
22499SOL    HW168075   6.414   8.517   9.073 -0.1446  0.7307  0.0806
22499SOL    HW268076   6.336   8.395   9.116  0.4769  0.0052 -0.8039
22500SOL     OW68077   3.808   5.034   8.521  0.0696  0.6360 -0.2553
22500SOL    HW168078   3.878   5.042   8.457  1.0387 -2.3165  0.2603
22500SOL    HW268079   3.837   4.964   8.579 -2.2409  0.9851  1.4612
22501SOL     OW68080   0.893   7.765   5.236 -0.1103  0.1332  0.0917
22501SOL    HW168081   0.842   7.772   5.316  1.5950  1.0451  1.1389
22501SOL    HW268082   0.978   7.730   5.263  0.2763 -0.1898 -1.4158
22502SOL     OW68083   7.246   0.095   0.841  0.0028 -0.1057 -0.2746
22502SOL    HW168084   7.299   0.019   0.817 -0.0253 -0.7425  1.5678
22502SOL    HW268085   7.156   0.069   0.823  0.1181  0.1797 -1.3421
22503SOL     OW68086   2.506   8.012   1.680  0.0007  0.2705  0.1777
22503SOL    HW168087   2.504   7.917   1.691 -1.6278  0.2872  0.2132
22503SOL    HW268088   2.427   8.033   1.630  0.2784  1.6247  0.2430
22504SOL     OW68089   0.798   3.562   2.198 -0.2031  1.2154 -0.1964
22504SOL    HW168090   0.807   3.474   2.161  0.6425  0.6777  1.2100
22504SOL    HW268091   0.735   3.551   2.270  0.2905  1.6377  0.3099
22505SOL     OW68092   6.954   7.934   0.763 -0.1400 -0.8549  0.1591
22505SOL    HW168093   6.960   7.959   0.855 -0.1381 -0.0230 -0.0620
22505SOL    HW268094   7.044   7.910   0.740  0.2192  0.6203 -0.0806
22506SOL     OW68095   3.002   8.032   8.611 -0.2433 -0.0933  0.1886
22506SOL    HW168096   3.076   7.977   8.584 -0.0262 -0.7628  2.0093
22506SOL    HW268097   2.939   7.971   8.650 -1.7355  0.4895 -1.1856
22507SOL     OW68098   2.512   4.977   5.148 -0.0581 -0.3319  0.0217
22507SOL    HW168099   2.509   4.882   5.160 -0.2149 -0.3099  0.1480
22507SOL    HW268100   2.469   5.013   5.225  1.9952 -0.0718  1.1037
22508SOL     OW68101   7.242   1.760   3.521 -0.7794 -1.1378 -0.0472
22508SOL    HW168102   7.269   1.796   3.437 -2.3471 -0.3897 -0.2618
22508SOL    HW268103   7.197   1.679   3.499 -3.1587  0.1334 -0.1965
22509SOL     OW68104   3.641   1.405   7.243  0.0763  0.2348 -0.7425
22509SOL    HW168105   3.548   1.410   7.222  0.5504  0.4146 -2.9785
22509SOL    HW268106   3.678   1.349   7.175  1.6226  0.1485  0.1303
22510SOL     OW68107   2.976   4.812   7.483 -0.0402 -0.1747 -0.5149
22510SOL    HW168108   3.016   4.869   7.418  0.3804 -1.0329 -1.0259
22510SOL    HW268109   2.921   4.752   7.433 -3.2985  1.9399  0.2847
22511SOL     OW68110   5.629   6.217   7.406  0.1019 -0.9278  0.1935
22511SOL    HW168111   5.559   6.184   7.349  0.9303 -0.2752 -1.2560
22511SOL    HW268112   5.598   6.198   7.495 -1.5584 -1.3552 -0.4291
22512SOL     OW68113   5.225   3.853   7.649 -0.5089  0.3098  0.0115
22512SOL    HW168114   5.164   3.918   7.614 -0.0040  1.2713  0.8829
22512SOL    HW268115   5.278   3.900   7.713  2.3289 -0.0611 -1.8947
22513SOL     OW68116   2.236   9.522   9.994 -0.0897 -0.5684  0.2210
22513SOL    HW168117   2.234   9.591   9.927 -0.4904 -0.2960  0.5096
22513SOL    HW268118   2.156   9.471   9.978 -0.2833 -0.3907  0.6028
22514SOL     OW68119   0.636   7.903   5.330 -0.0613 -0.1187 -0.2602
22514SOL    HW168120   0.705   7.913   5.395  0.1429  0.4938 -0.5684
22514SOL    HW268121   0.555   7.904   5.381  0.1329 -0.4566  0.0606
22515SOL     OW68122   7.044   9.232   1.328  0.1020  0.7819  0.1400
22515SOL    HW168123   6.970   9.280   1.366  0.8888  0.4670  2.2101
22515SOL    HW268124   7.042   9.147   1.371 -0.4372 -0.6209 -2.4567
22516SOL     OW68125   3.552   4.898   8.075  0.6537 -0.1755 -0.6194
22516SOL    HW168126   3.623   4.890   8.139 -1.3430  2.0930  2.1473
22516SOL    HW268127   3.488   4.831   8.102 -0.4446  1.1575  0.2047
22517SOL     OW68128   6.983   5.777   7.408 -0.3745 -0.5600  0.3438
22517SOL    HW168129   6.913   5.760   7.471 -1.2526  0.3605 -0.3696
22517SOL    HW268130   7.003   5.870   7.418  0.3791 -0.6930  0.1623
22518SOL     OW68131   9.910   5.912   7.734  0.5013 -0.0142 -0.1279
22518SOL    HW168132   9.881   5.958   7.813 -0.3863 -0.4757 -0.1748
22518SOL    HW268133   9.993   5.872   7.759  0.3765  0.0909  0.4735
22519SOL     OW68134   7.626   0.562   8.318 -0.2140 -0.1006 -0.1510
22519SOL    HW168135   7.577   0.630   8.363  0.2466  0.1692 -0.0441
22519SOL    HW268136   7.705   0.550   8.371  0.0369 -0.2202 -0.5414
22520SOL     OW68137   9.618   5.998   2.816  0.3588  0.0163  0.1015
22520SOL    HW168138   9.673   5.956   2.883 -1.6261 -1.7450  0.7714
22520SOL    HW268139   9.529   5.991   2.851 -0.5750  0.4790 -2.0163
22521SOL     OW68140   5.336   9.382   7.005  0.8171  0.1602  0.1599
22521SOL    HW168141   5.277   9.431   6.947 -0.2216 -0.8663  0.3109
22521SOL    HW268142   5.377   9.318   6.947 -0.4095 -1.0324  0.5781
22522SOL     OW68143   2.463   0.673   4.754  0.0076 -0.0308 -0.6243
22522SOL    HW168144   2.484   0.668   4.848 -1.8833 -1.8918 -0.2142
22522SOL    HW268145   2.515   0.603   4.714  0.1460  0.1856 -0.8247
22523SOL     OW68146   8.511   7.669   4.019  0.2724 -0.2376 -0.5893
22523SOL    HW168147   8.436   7.646   3.963  0.0007  0.2305 -0.4248
22523SOL    HW268148   8.513   7.600   4.085  0.2703 -0.5073 -0.8693
22524SOL     OW68149   1.589   8.952   9.285 -0.1817  0.1620 -0.0998
22524SOL    HW168150   1.604   8.859   9.302  0.5441  0.1999 -0.4732
22524SOL    HW268151   1.532   8.981   9.356  1.9771  0.1036  1.7482
22525SOL     OW68152   5.603   9.041   8.936  0.4908 -0.5017  0.1610
22525SOL    HW168153   5.649   9.108   8.886 -4.3022  1.4721 -2.3115
22525SOL    HW268154   5.594   9.078   9.024  1.9082 -0.1446  0.1757
22526SOL     OW68155   7.566   0.229   5.888  0.0272  0.4455 -0.0328
22526SOL    HW168156   7.472   0.247   5.875 -0.1962 -0.7884 -0.2284
22526SOL    HW268157   7.593   0.185   5.808  0.8979  1.1788 -0.1611
22527SOL     OW68158   7.499   1.039   0.289  0.4135 -0.1375 -0.2454
22527SOL    HW168159   7.449   1.048   0.208 -0.8089 -1.3980  0.3260
22527SOL    HW268160   7.514   0.944   0.297 -0.6942 -0.2108  1.6563
22528SOL     OW68161   8.435   1.065   5.727  0.7670 -0.5190  0.0850
22528SOL    HW168162   8.448   1.157   5.705  0.6813  0.0288  2.1151
22528SOL    HW268163   8.395   1.067   5.814 -1.6090 -2.4301 -0.8587
22529SOL     OW68164   0.333   9.668   1.643 -0.1620  0.2731  0.3017
22529SOL    HW168165   0.372   9.587   1.610 -2.1802 -0.2384 -1.0617
22529SOL    HW268166   0.386   9.692   1.718  0.4634 -2.3641  0.7870
22530SOL     OW68167   7.538   7.949   4.192  0.2827 -0.1355 -0.7146
22530SOL    HW168168   7.536   7.882   4.261 -0.5241 -1.0690 -1.6116
22530SOL    HW268169   7.625   7.989   4.201 -0.4413  1.0842  2.0172
22531SOL     OW68170   4.494   6.887   4.185 -0.3531  0.1040 -0.0329
22531SOL    HW168171   4.538   6.964   4.223  2.4895 -1.9440  1.1842
22531SOL    HW268172   4.536   6.876   4.100  0.4686 -0.9822  0.4861
22532SOL     OW68173   7.505   4.269   8.018  0.5442  0.5784  0.5122
22532SOL    HW168174   7.445   4.307   7.955  0.7936 -1.1289 -0.8423
22532SOL    HW268175   7.557   4.342   8.050  0.7942  1.4247 -1.7086
22533SOL     OW68176   3.743   9.387   9.449  0.0317 -0.0127  0.1494
22533SOL    HW168177   3.778   9.298   9.448  0.2791 -0.0521 -3.6513
22533SOL    HW268178   3.651   9.377   9.423  0.0468  0.8268 -0.2468
22534SOL     OW68179   3.516   9.332   5.798 -0.1354  0.5770 -0.2307
22534SOL    HW168180   3.434   9.283   5.798  0.1856 -0.1736  2.7992
22534SOL    HW268181   3.491   9.421   5.821 -0.3293  1.0667 -2.1539
22535SOL     OW68182   5.157   3.644   0.511  0.6551  0.2360  0.2235
22535SOL    HW168183   5.199   3.729   0.496  0.7868 -0.0098 -0.8680
22535SOL    HW268184   5.075   3.648   0.462  1.4933 -0.9031 -1.3569
22536SOL     OW68185   9.603   3.986   4.599 -0.0420  0.0736  0.8059
22536SOL    HW168186   9.552   3.906   4.611  0.7907 -0.4067  1.1910
22536SOL    HW268187   9.689   3.956   4.571  0.2424  0.8398  0.8321
22537SOL     OW68188   8.278   1.231   4.446 -0.3352  0.1481  1.0005
22537SOL    HW168189   8.219   1.282   4.501  0.8791  0.9493  1.6233
22537SOL    HW268190   8.362   1.235   4.491  0.7442  0.9574 -0.9554
22538SOL     OW68191   8.988   0.789   6.119  0.0236  0.4651  0.6579
22538SOL    HW168192   8.991   0.883   6.102 -1.5412  0.6362  1.1551
22538SOL    HW268193   8.972   0.782   6.214  0.0321 -0.2932  0.6113
22539SOL     OW68194   9.819   9.661   7.603 -0.0257 -0.3324  0.0021
22539SOL    HW168195   9.796   9.742   7.557 -1.8041 -0.2955  0.8659
22539SOL    HW268196   9.876   9.688   7.674 -0.6992  0.1953  0.3524
22540SOL     OW68197   0.294   0.886   0.167  0.3965 -0.5565  0.1278
22540SOL    HW168198   0.318   0.810   0.219  1.4778  0.2984  0.9348
22540SOL    HW268199   0.215   0.860   0.120  1.4219 -2.5731 -0.5575
22541SOL     OW68200   5.002   4.347   9.023  0.6022  0.1424 -0.1559
22541SOL    HW168201   5.034   4.339   9.113  0.3760  0.2654 -0.0618
22541SOL    HW268202   5.025   4.436   8.997  0.4931  0.1726 -0.1497
22542SOL     OW68203   5.767   7.899   2.706  0.4414 -0.0268 -0.0762
22542SOL    HW168204   5.680   7.906   2.667  0.6236  1.5645 -0.2411
22542SOL    HW268205   5.753   7.920   2.799  0.3153 -1.9653  0.3873
22543SOL     OW68206   0.834   3.948   4.099  0.4179 -0.7944 -0.1956
22543SOL    HW168207   0.753   3.972   4.054 -0.4666  0.3999  1.8654
22543SOL    HW268208   0.897   3.932   4.029 -1.1533 -0.1216 -1.8381
22544SOL     OW68209   6.130   8.178   1.667  0.0610 -0.2972  0.8163
22544SOL    HW168210   6.096   8.090   1.682  0.1294 -0.4569  0.0546
22544SOL    HW268211   6.102   8.228   1.744 -0.0307 -0.9639  1.2234
22545SOL     OW68212   2.094   4.435   8.196 -0.8747 -0.1631 -0.0053
22545SOL    HW168213   2.128   4.453   8.283 -1.0636  2.7093 -0.4244
22545SOL    HW268214   2.020   4.496   8.186 -0.1693  0.4054 -2.5531
22546SOL     OW68215   1.762   0.600   6.615  0.2504  0.6304 -0.2106
22546SOL    HW168216   1.761   0.695   6.626 -0.8883  0.5741  0.2624
22546SOL    HW268217   1.676   0.579   6.581 -0.5311 -0.4991  2.2208
22547SOL     OW68218   3.347   7.232   5.218  0.0134  0.5015  0.1293
22547SOL    HW168219   3.273   7.252   5.161 -0.5962  3.4529  1.7675
22547SOL    HW268220   3.424   7.248   5.163 -0.4882 -1.2119 -1.1599
22548SOL     OW68221   5.921   6.412   2.759  0.6403 -0.1362 -0.3319
22548SOL    HW168222   5.959   6.351   2.696  0.0500 -1.2826  0.3751
22548SOL    HW268223   5.944   6.499   2.726 -0.5252 -0.6369 -2.6875
22549SOL     OW68224   2.200   8.705   0.384 -0.2144 -0.5130 -0.4111
22549SOL    HW168225   2.242   8.630   0.427 -0.6019 -1.3449 -1.4351
22549SOL    HW268226   2.149   8.747   0.453  0.2553 -1.0180  0.2485
22550SOL     OW68227   4.760   7.180   7.284  0.1543 -0.8112  0.3475
22550SOL    HW168228   4.791   7.122   7.354  1.6847  1.3640  1.5962
22550SOL    HW268229   4.833   7.241   7.270 -1.2976  0.6932 -1.0340
22551SOL     OW68230   2.520   4.130   2.851 -0.3239  0.6634 -0.3214
22551SOL    HW168231   2.476   4.046   2.838 -0.9229  0.5271  1.9883
22551SOL    HW268232   2.449   4.194   2.852  0.0797  1.1548 -1.5329
22552SOL     OW68233   5.076   8.497   2.775  0.1491  0.0845  0.1762
22552SOL    HW168234   5.049   8.561   2.842  0.1964  0.4396 -0.1421
22552SOL    HW268235   5.003   8.435   2.771 -1.6159  2.0950 -2.0545
22553SOL     OW68236   7.188   0.432   4.999 -0.3001 -0.4767  0.4145
22553SOL    HW168237   7.239   0.417   4.919 -0.1305 -0.3205  0.4918
22553SOL    HW268238   7.168   0.525   4.998 -2.1340 -0.8312 -0.5301
22554SOL     OW68239   1.891   3.237   9.621 -0.4458  0.0458 -0.7725
22554SOL    HW168240   1.821   3.303   9.620 -1.4937 -1.0141 -0.0119
22554SOL    HW268241   1.908   3.221   9.714 -0.1271 -0.6664 -0.9457
22555SOL     OW68242   5.500   8.505   9.486  0.2193  0.4513  0.5332
22555SOL    HW168243   5.424   8.480   9.435  1.2924  0.8152 -1.3232
22555SOL    HW268244   5.503   8.601   9.480  0.9726  0.4212  0.3594
22556SOL     OW68245   1.019   6.347   9.272  0.2525  0.3324 -0.3998
22556SOL    HW168246   1.022   6.310   9.360  0.6272 -1.1941 -1.0185
22556SOL    HW268247   0.942   6.307   9.232  0.3237  0.6944 -0.9109
22557SOL     OW68248   9.834   9.058   8.287 -0.5786 -0.0526  0.1379
22557SOL    HW168249   9.746   9.095   8.288 -1.1398 -0.7925 -3.9993
22557SOL    HW268250   9.892   9.133   8.296 -1.6240  0.6930  0.8717
22558SOL     OW68251   2.494   7.531   4.515 -0.1427 -0.0346  0.2844
22558SOL    HW168252   2.414   7.484   4.489  0.6532 -2.0811  1.3181
22558SOL    HW268253   2.529   7.564   4.432 -2.0283  0.9242 -0.1958
22559SOL     OW68254   6.988   7.475   8.937 -0.2012  0.3206  0.3831
22559SOL    HW168255   6.896   7.448   8.943  0.6361 -2.6727  4.4115
22559SOL    HW268256   7.022   7.427   8.861 -1.3214 -1.2721  0.8333
22560SOL     OW68257   0.902   5.960   3.847 -0.1972  0.4655  0.3393
22560SOL    HW168258   0.836   5.892   3.859 -0.9034  1.1882  0.6420
22560SOL    HW268259   0.857   6.029   3.798  0.7736  0.3277 -0.7863
22561SOL     OW68260   9.531   6.216   1.688 -0.6142  0.5236  0.1319
22561SOL    HW168261   9.503   6.282   1.624 -1.5703  1.5408  1.5546
22561SOL    HW268262   9.585   6.156   1.637 -1.2181  1.3757 -1.6045
22562SOL     OW68263   2.203   3.069   0.717 -0.1953  0.2629 -0.0573
22562SOL    HW168264   2.134   3.013   0.682 -3.0829  2.0320  2.3907
22562SOL    HW268265   2.280   3.012   0.724 -1.7846 -2.1927 -1.5139
22563SOL     OW68266   8.082   4.235   0.550 -0.0597 -0.0114 -0.0065
22563SOL    HW168267   8.164   4.188   0.568  0.1973  0.8324  1.1571
22563SOL    HW268268   8.093   4.319   0.594 -2.0727 -0.3616  1.2609
22564SOL     OW68269   1.757   8.174   0.604 -0.2607 -0.2700  0.5618
22564SOL    HW168270   1.778   8.258   0.564 -2.3275  0.9753  1.8831
22564SOL    HW268271   1.799   8.109   0.548 -0.9857  1.4733 -2.2189
22565SOL     OW68272   9.636   3.871   7.911  0.8771  0.1493 -0.1802
22565SOL    HW168273   9.557   3.902   7.869 -0.3925 -1.6184  0.7636
22565SOL    HW268274   9.644   3.924   7.990  0.7544  0.4593 -0.3755
22566SOL     OW68275   0.926   2.939   4.654  0.2872 -0.3496 -0.1493
22566SOL    HW168276   0.893   3.024   4.625 -2.1380 -1.1293  0.0941
22566SOL    HW268277   0.988   2.959   4.724  1.4983  1.2698 -1.6127
22567SOL     OW68278   7.055   5.120   9.724  0.6330  0.0829 -0.1723
22567SOL    HW168279   7.013   5.191   9.771 -1.5659 -1.0149 -0.3621
22567SOL    HW268280   7.147   5.125   9.749  0.0781  1.4700  1.7289
22568SOL     OW68281   1.663   4.986   9.766 -0.0223 -0.5018  0.3167
22568SOL    HW168282   1.720   4.927   9.815  1.3339 -0.3511 -0.9936
22568SOL    HW268283   1.621   4.929   9.701  1.1859 -0.1122 -0.8604
22569SOL     OW68284   5.538   9.885   7.950  0.2777 -0.1502  0.5147
22569SOL    HW168285   5.603   9.949   7.980  1.3177 -0.8165 -0.2529
22569SOL    HW268286   5.590   9.813   7.914 -0.8856 -1.1523  0.7911
22570SOL     OW68287   1.549   1.494   5.252 -0.0324  0.6596  0.5401
22570SOL    HW168288   1.632   1.459   5.220 -0.5678  1.2964 -1.7094
22570SOL    HW268289   1.567   1.587   5.267 -0.3021  0.7702  0.1794
22571SOL     OW68290   7.652   6.069   2.128 -0.1034  0.3779  0.2312
22571SOL    HW168291   7.747   6.066   2.122 -0.0533  1.7382  0.0593
22571SOL    HW268292   7.628   6.155   2.091 -1.3939  0.0288  0.2069
22572SOL     OW68293   9.085   4.102   0.579 -0.0746  0.0056  0.2128
22572SOL    HW168294   9.179   4.084   0.587 -0.0462  0.3540  0.6977
22572SOL    HW268295   9.059   4.057   0.499  0.3684 -0.6361  0.4263
22573SOL     OW68296   0.902   9.364   9.229  0.0125 -0.6429 -0.1097
22573SOL    HW168297   0.954   9.417   9.168 -1.3323 -0.5031 -1.1765
22573SOL    HW268298   0.947   9.279   9.231 -0.1225 -0.7796 -1.6187
22574SOL     OW68299   4.721   0.639   3.628 -0.5629  0.1873  0.1209
22574SOL    HW168300   4.673   0.586   3.691 -0.1045 -0.0659  0.2620
22574SOL    HW268301   4.658   0.704   3.598 -1.2312 -0.6348 -0.2921
22575SOL     OW68302   8.550   4.931   2.314  0.5178 -0.9649 -0.0753
22575SOL    HW168303   8.493   4.869   2.360  0.6672 -1.5289 -0.6296
22575SOL    HW268304   8.604   4.875   2.258 -0.7090 -0.1924 -2.1121
22576SOL     OW68305   0.851   9.884   0.822 -0.8366  0.2814  0.1118
22576SOL    HW168306   0.879   9.840   0.902 -0.6608 -0.9245 -0.5939
22576SOL    HW268307   0.825   9.972   0.851  2.4249  1.0862  1.0404
22577SOL     OW68308   5.845   6.880   6.919  0.2403  0.4729 -0.1347
22577SOL    HW168309   5.800   6.815   6.974 -1.0375 -0.0565 -1.7128
22577SOL    HW268310   5.835   6.962   6.966 -0.3587 -0.0503  0.6866
22578SOL     OW68311   8.969   3.474   6.294  0.1737  0.4172  0.3813
22578SOL    HW168312   9.026   3.526   6.351 -0.6002 -0.4454  2.0057
22578SOL    HW268313   8.921   3.417   6.354 -1.0989 -0.1348 -1.1084
22579SOL     OW68314   7.190   9.706   0.572  0.2020  0.1501  0.1198
22579SOL    HW168315   7.142   9.639   0.524  0.6094  0.5545 -0.8814
22579SOL    HW268316   7.151   9.789   0.543  2.9240  0.6752 -2.5370
22580SOL     OW68317   8.187   8.299   3.956 -0.3117  0.5477  0.5369
22580SOL    HW168318   8.210   8.229   3.896 -0.5732  0.6797  0.2824
22580SOL    HW268319   8.141   8.255   4.028 -1.4747  0.5820 -0.1590
22581SOL     OW68320   5.779   1.206   8.727 -0.1723 -0.0210  0.0899
22581SOL    HW168321   5.802   1.183   8.636 -1.2569 -0.9599  0.0338
22581SOL    HW268322   5.851   1.171   8.779  0.7326  0.9914 -0.4322
22582SOL     OW68323   9.616   8.807   3.833 -0.0161  0.0670 -0.0663
22582SOL    HW168324   9.691   8.773   3.784  0.2850 -0.6292  0.8351
22582SOL    HW268325   9.580   8.729   3.876 -0.7658  0.5327  0.1529
22583SOL     OW68326   1.146   7.624   5.334  0.8706 -0.0959 -0.2803
22583SOL    HW168327   1.217   7.677   5.297  0.7268 -0.2784 -0.8275
22583SOL    HW268328   1.110   7.576   5.259 -0.8962  1.1948 -0.3296
22584SOL     OW68329   7.675   9.195   9.234  0.2924 -0.6534  1.1030
22584SOL    HW168330   7.634   9.220   9.151  0.5263 -4.4454 -0.3084
22584SOL    HW268331   7.604   9.203   9.298 -0.9695 -1.1618 -0.1652
22585SOL     OW68332   7.835   4.305   3.444 -0.8422  0.9154  0.6376
22585SOL    HW168333   7.785   4.262   3.513 -0.1486  0.0282  0.6051
22585SOL    HW268334   7.878   4.233   3.397  0.9261  1.6573  1.0264
22586SOL     OW68335   9.434   9.240   4.252 -0.4748  0.1056 -0.1538
22586SOL    HW168336   9.357   9.251   4.308 -0.4324 -2.1431  0.4574
22586SOL    HW268337   9.478   9.163   4.288  1.5093  0.7380 -1.1269
22587SOL     OW68338   1.405   9.849   6.597 -0.2057 -0.2899  0.0035
22587SOL    HW168339   1.379   9.764   6.561 -0.6586  0.6763 -2.0692
22587SOL    HW268340   1.349   9.860   6.674 -0.3236 -1.7240  0.1590
22588SOL     OW68341   0.157   9.878   8.640 -0.2021  0.0148  0.0717
22588SOL    HW168342   0.116   9.797   8.611 -0.2679 -0.3752  1.2385
22588SOL    HW268343   0.117   9.897   8.725  3.4297 -1.5496  2.3748
22589SOL     OW68344   4.904   9.828   3.721 -0.0852  0.1373 -0.4433
22589SOL    HW168345   4.884   9.911   3.765 -2.7945 -1.3443  1.4087
22589SOL    HW268346   4.960   9.781   3.782 -1.1739 -0.6280 -0.0088
22590SOL     OW68347   4.475   8.964   5.431 -0.3616  0.0344 -0.2348
22590SOL    HW168348   4.447   9.035   5.489 -0.9413  0.0447 -0.5182
22590SOL    HW268349   4.569   8.979   5.418 -0.1961 -0.0518  0.8034
22591SOL     OW68350   7.972   0.791   0.348  0.3291  1.0054 -1.0817
22591SOL    HW168351   7.965   0.816   0.256 -1.6306  0.1248 -1.2317
22591SOL    HW268352   8.050   0.737   0.353  1.3584  2.3572 -1.8811
22592SOL     OW68353   7.336   3.756   0.939  0.6731 -0.2313  0.2013
22592SOL    HW168354   7.404   3.783   0.878  0.2672 -0.0929 -0.1998
22592SOL    HW268355   7.374   3.683   0.988  2.0533  1.4750  1.8032
22593SOL     OW68356   7.453   6.730   2.443 -0.2430  0.5055  0.6628
22593SOL    HW168357   7.402   6.811   2.443  0.2958  0.8520  1.0961
22593SOL    HW268358   7.414   6.678   2.514 -1.3975 -0.1565 -0.4040
22594SOL     OW68359   4.973   2.218   6.526 -0.0564  0.1448 -0.4369
22594SOL    HW168360   5.046   2.228   6.587  0.8610  0.5682 -1.5737
22594SOL    HW268361   4.932   2.135   6.551  0.8724 -0.1555  0.1472
22595SOL     OW68362   8.785   8.418   0.011 -0.8813 -0.3145  0.1207
22595SOL    HW168363   8.818   8.502  -0.020 -0.1645  0.1446  2.0197
22595SOL    HW268364   8.864   8.364   0.021 -1.2411 -0.9018 -0.1375
22596SOL     OW68365   0.471   2.504   2.156  0.1501  0.4462  0.4892
22596SOL    HW168366   0.516   2.570   2.209 -0.2848  1.5039 -0.4063
22596SOL    HW268367   0.379   2.531   2.160 -0.3479 -1.2917  1.7551
22597SOL     OW68368   2.610   8.351   0.680 -0.0627 -0.5653  0.4818
22597SOL    HW168369   2.647   8.331   0.766 -0.6939 -0.0428  0.8963
22597SOL    HW268370   2.587   8.444   0.686  1.2607 -0.1258 -0.7802
22598SOL     OW68371   6.762   9.582   7.946 -0.4448  0.2725  0.2231
22598SOL    HW168372   6.846   9.570   7.901 -0.9147  1.9524 -1.2219
22598SOL    HW268373   6.723   9.658   7.903 -3.2016 -1.0832  0.1322
22599SOL     OW68374   8.225   2.350   0.160 -0.1482 -0.2289  0.2010
22599SOL    HW168375   8.309   2.361   0.205 -0.4340  0.0835  0.6628
22599SOL    HW268376   8.189   2.268   0.194  0.0221 -0.4299 -0.0927
22600SOL     OW68377   7.794   7.264   4.248 -0.0244  0.1546 -0.5283
22600SOL    HW168378   7.770   7.356   4.258 -1.0193  0.1662 -2.4896
22600SOL    HW268379   7.887   7.267   4.223 -0.3284  0.7326 -1.6819
22601SOL     OW68380   1.921   3.679   7.249  0.2642 -0.3169 -0.8264
22601SOL    HW168381   1.845   3.690   7.307  2.0816 -1.0794  1.9021
22601SOL    HW268382   1.903   3.598   7.201 -1.1195  0.1163 -1.0942
22602SOL     OW68383   0.955   4.476   8.310  0.2815  0.3238  0.3663
22602SOL    HW168384   0.885   4.512   8.364  0.6772 -0.5871  1.5114
22602SOL    HW268385   0.911   4.412   8.253  0.3905 -1.7547  2.4669
22603SOL     OW68386   9.538   0.015   0.122  0.0754  0.0940 -0.1060
22603SOL    HW168387   9.457  -0.029   0.093 -0.6199 -0.2906  2.1888
22603SOL    HW268388   9.508   0.098   0.159  0.6358 -0.2371  1.1547
22604SOL     OW68389   6.970   8.840   0.257 -0.6257  0.4510 -0.1280
22604SOL    HW168390   7.023   8.816   0.332  0.1311  0.4757 -0.6434
22604SOL    HW268391   6.897   8.890   0.293  0.3518  1.4768  0.4780
22605SOL     OW68392   1.763   6.680   7.411 -0.5972  0.1674 -0.6355
22605SOL    HW168393   1.705   6.661   7.338 -0.9631  0.2704 -0.3732
22605SOL    HW268394   1.709   6.670   7.489 -1.0831  3.0051 -0.4762
22606SOL     OW68395   2.517   2.536   7.443  0.3509  0.0313  0.0055
22606SOL    HW168396   2.430   2.575   7.430  0.7146  0.7830 -0.2548
22606SOL    HW268397   2.555   2.587   7.515  1.2009  0.8006 -0.9680
22607SOL     OW68398   8.775   9.552   6.258  0.1804 -0.4551 -0.1745
22607SOL    HW168399   8.846   9.612   6.234 -0.9855  1.1509  0.2116
22607SOL    HW268400   8.809   9.504   6.334  0.4004  1.2664  0.8637
22608SOL     OW68401   5.527   1.616   5.474 -0.1987  0.4367 -0.2566
22608SOL    HW168402   5.610   1.576   5.500  0.4206  2.4575  1.0881
22608SOL    HW268403   5.545   1.654   5.388 -0.0340  0.0221 -0.4085
22609SOL     OW68404   5.624   7.409   4.282  0.0196  0.0734 -0.3277
22609SOL    HW168405   5.678   7.454   4.346 -2.0281  0.2239  1.4152
22609SOL    HW268406   5.608   7.323   4.321 -0.8997  0.0028 -0.8304
22610SOL     OW68407   0.236   8.492   4.775  0.0973  0.9071  0.1023
22610SOL    HW168408   0.243   8.566   4.715  0.6899  1.3959  0.7596
22610SOL    HW268409   0.323   8.454   4.778 -0.3888 -0.3589 -0.8759
22611SOL     OW68410   3.850   4.646   8.034  0.5409 -0.1582  0.3319
22611SOL    HW168411   3.820   4.619   7.947  0.6050 -1.2470  0.6284
22611SOL    HW268412   3.871   4.563   8.079 -0.5559  0.3105  1.7762
22612SOL     OW68413   5.434   1.612   9.540  0.7404 -0.0651  0.0588
22612SOL    HW168414   5.473   1.525   9.528 -0.0552 -0.3601 -0.4312
22612SOL    HW268415   5.470   1.664   9.469 -2.9136 -1.4515 -3.1349
22613SOL     OW68416   7.615   2.893   0.824 -0.0820 -0.2440 -0.0756
22613SOL    HW168417   7.591   2.927   0.910  0.8396 -0.6670  0.3590
22613SOL    HW268418   7.710   2.884   0.827 -0.0639 -0.4941 -1.0533
22614SOL     OW68419   5.281   3.943   2.024  0.3484  0.2713  0.0526
22614SOL    HW168420   5.357   3.930   1.968  0.4829 -0.1422  0.3278
22614SOL    HW268421   5.293   4.030   2.061 -0.1429  0.8807 -1.1704
22615SOL     OW68422   4.774   0.525   2.302  0.0792  0.2083 -0.6880
22615SOL    HW168423   4.866   0.528   2.326 -0.0607  1.4842 -0.2353
22615SOL    HW268424   4.753   0.432   2.298  0.7320 -0.1296  1.8235
22616SOL     OW68425   3.585   6.236   8.563  0.3858 -0.0355  0.1119
22616SOL    HW168426   3.678   6.249   8.577  0.3331  1.1514 -0.5255
22616SOL    HW268427   3.579   6.165   8.499  0.8274 -0.4119  0.4835
22617SOL     OW68428   4.350   1.983   7.981  0.0967  0.4624 -0.4871
22617SOL    HW168429   4.426   2.003   8.036  0.2844 -0.0860 -0.5436
22617SOL    HW268430   4.383   1.989   7.892 -0.0049  0.5420 -0.5189
22618SOL     OW68431   7.067   6.416   6.289  0.1823 -0.1424 -0.1929
22618SOL    HW168432   6.992   6.382   6.339  0.9578  1.0607  1.9296
22618SOL    HW268433   7.143   6.377   6.332  0.8767  0.6159 -0.7172
22619SOL     OW68434   0.037   4.142   4.235 -0.2045 -0.0732  0.2826
22619SOL    HW168435   0.061   4.055   4.268 -0.4672 -0.3106 -0.1391
22619SOL    HW268436  -0.059   4.141   4.235 -0.2257  0.5854  1.2247
22620SOL     OW68437   3.021   8.849   1.712  0.3761 -0.7555 -0.4848
22620SOL    HW168438   3.095   8.798   1.745 -0.3417 -0.8659  1.0831
22620SOL    HW268439   2.980   8.884   1.791  0.0439  1.1376 -1.4340
22621SOL     OW68440   0.634   1.097   1.375  0.1704 -0.5515  0.0503
22621SOL    HW168441   0.610   1.150   1.452 -1.1707  0.1553 -0.8260
22621SOL    HW268442   0.693   1.153   1.325  0.5883 -0.7945  0.2608
22622SOL     OW68443   2.113   0.393   1.590 -0.1949  0.2113 -0.0227
22622SOL    HW168444   2.194   0.367   1.545 -1.4686 -1.5206 -1.4525
22622SOL    HW268445   2.114   0.489   1.587  2.0305  0.2599  0.4658
22623SOL     OW68446   9.918   8.575   4.493  0.2264  0.0346  0.9853
22623SOL    HW168447  10.003   8.578   4.451 -0.2355 -0.2706 -0.0107
22623SOL    HW268448   9.913   8.486   4.530 -0.3063 -0.5499 -0.4131
22624SOL     OW68449   6.876   1.359   8.435 -0.2437  0.8586 -0.0075
22624SOL    HW168450   6.911   1.304   8.505 -1.7344  1.2437  1.0954
22624SOL    HW268451   6.942   1.428   8.425  0.6300  0.0602  0.0592
22625SOL     OW68452   3.282   9.756   2.695  0.3065  0.3376 -0.5269
22625SOL    HW168453   3.238   9.809   2.762 -0.9801 -0.3855 -0.7518
22625SOL    HW268454   3.212   9.733   2.634  1.2882  0.2520 -1.6569
22626SOL     OW68455   2.302   3.974   3.352 -0.2046 -0.9618  0.1029
22626SOL    HW168456   2.331   4.015   3.271 -0.1850 -2.6106 -0.7696
22626SOL    HW268457   2.308   4.043   3.418  2.5035 -0.3043 -0.6984
22627SOL     OW68458   8.462   1.877   4.418  0.5963 -0.2296  0.1857
22627SOL    HW168459   8.511   1.954   4.445 -0.6408  0.7547 -0.2641
22627SOL    HW268460   8.405   1.908   4.348 -2.1986 -0.7356  2.0249
22628SOL     OW68461   6.224   3.129   8.872  0.5425 -0.5977 -0.1442
22628SOL    HW168462   6.226   3.208   8.818  1.0620 -0.4418  0.0977
22628SOL    HW268463   6.230   3.057   8.808  0.4593 -0.4345 -0.3369
22629SOL     OW68464   0.170   2.412   7.004  0.6885  0.2898 -0.2692
22629SOL    HW168465   0.118   2.451   7.074  0.5536  0.1388 -0.2848
22629SOL    HW268466   0.143   2.320   7.001  1.0067  0.1927 -0.2304
22630SOL     OW68467   0.833   6.489   0.746 -0.8298 -0.1023 -0.0945
22630SOL    HW168468   0.849   6.583   0.736 -0.9784  0.2856  2.5997
22630SOL    HW268469   0.909   6.457   0.794 -0.4494 -1.5352 -1.6008
22631SOL     OW68470   6.767   7.214   5.767  0.2042  0.2735  0.9612
22631SOL    HW168471   6.812   7.130   5.759  1.2564  0.7422  1.6951
22631SOL    HW268472   6.784   7.259   5.685  0.5372  0.1907  0.9854
22632SOL     OW68473   8.291   2.577   4.791  0.4336 -0.1720 -0.1842
22632SOL    HW168474   8.385   2.590   4.777  0.5686 -0.5677  0.3450
22632SOL    HW268475   8.251   2.656   4.754  0.9125 -0.3263 -1.0791
22633SOL     OW68476   9.846   2.270   4.980  0.2288 -0.6154  0.1090
22633SOL    HW168477   9.790   2.347   4.971  0.5926 -0.3402  0.1689
22633SOL    HW268478   9.831   2.221   4.900  1.4760  0.5164 -0.8678
22634SOL     OW68479   8.253   4.740   4.617  0.6698 -0.2455  0.2813
22634SOL    HW168480   8.192   4.703   4.681 -0.5857  2.0978  0.5243
22634SOL    HW268481   8.218   4.715   4.532 -0.3030  0.5392  0.4367
22635SOL     OW68482   1.840   4.969   6.885  0.3744 -0.4752  0.0411
22635SOL    HW168483   1.748   4.995   6.872  0.5922  0.4725  0.2662
22635SOL    HW268484   1.876   5.038   6.942  1.5208 -0.2152 -0.9654
22636SOL     OW68485   8.279   0.950   6.929 -0.1218  0.2343  0.7714
22636SOL    HW168486   8.266   1.029   6.876  0.7609 -0.4057 -0.4469
22636SOL    HW268487   8.368   0.922   6.908 -0.7122 -1.5524  0.5232
22637SOL     OW68488   4.300   9.685   9.617 -0.3423  0.1954 -0.0192
22637SOL    HW168489   4.311   9.635   9.536  1.0376 -0.3303  0.4609
22637SOL    HW268490   4.267   9.621   9.681  0.6106  0.0746  0.3715
22638SOL     OW68491   6.648   0.557   4.877 -0.1697 -0.1269 -0.2369
22638SOL    HW168492   6.589   0.624   4.841  2.0145  1.0035 -1.9965
22638SOL    HW268493   6.599   0.475   4.869 -1.8534  0.8771 -0.6916
22639SOL     OW68494   5.807   2.379   2.249  0.4561  0.4139 -0.7094
22639SOL    HW168495   5.734   2.343   2.198 -0.9372  0.4675  1.1636
22639SOL    HW268496   5.843   2.304   2.295 -0.3162  0.8368  0.6207
22640SOL     OW68497   9.445   3.582   6.170  0.5123  0.2955  0.1065
22640SOL    HW168498   9.411   3.605   6.257 -0.9529  0.0536 -0.3796
22640SOL    HW268499   9.504   3.508   6.186 -0.4233 -0.3191  0.7852
22641SOL     OW68500   5.982   6.230   3.451 -0.3986  0.0958 -0.4769
22641SOL    HW168501   5.920   6.220   3.523 -2.4298 -0.1133 -2.1723
22641SOL    HW268502   5.952   6.168   3.384  0.5499  1.2973 -2.0941
22642SOL     OW68503   8.033   8.246   7.190 -0.4561 -0.3624 -0.1290
22642SOL    HW168504   8.014   8.275   7.280 -0.3941 -0.1900 -0.1706
22642SOL    HW268505   8.109   8.190   7.200  1.4433  1.9820 -0.3933
22643SOL     OW68506   0.117   2.830   7.317 -0.6791  0.1044 -0.5058
22643SOL    HW168507   0.065   2.902   7.281 -1.2228 -1.0136 -2.0687
22643SOL    HW268508   0.191   2.822   7.257 -0.5177 -0.5078 -0.2263
22644SOL     OW68509   3.492   2.218   8.426 -0.4630 -0.1504  0.2930
22644SOL    HW168510   3.465   2.288   8.486 -0.7550 -1.2203  1.4661
22644SOL    HW268511   3.527   2.263   8.350  0.3258  1.2748  1.4612
22645SOL     OW68512   0.845   3.817   6.420  0.1001 -0.3040  1.2131
22645SOL    HW168513   0.909   3.797   6.352  0.0099  1.0900  0.6817
22645SOL    HW268514   0.893   3.869   6.484 -0.6718  1.5900  0.3319
22646SOL     OW68515   9.590   9.729   9.620  0.1745  0.0184  0.6450
22646SOL    HW168516   9.533   9.763   9.688  0.3017  2.9204 -0.5545
22646SOL    HW268517   9.557   9.768   9.539  0.7089 -2.4087 -0.8599
22647SOL     OW68518   6.777   4.937   9.296 -0.1038 -0.5664  0.7933
22647SOL    HW168519   6.825   4.986   9.363 -1.1210  1.7615 -0.0724
22647SOL    HW268520   6.826   4.855   9.286  1.4766  0.0936  2.5910
22648SOL     OW68521   3.412   0.333   0.885 -0.1903 -0.5847 -0.5182
22648SOL    HW168522   3.505   0.336   0.866  0.0192  1.7770  0.5560
22648SOL    HW268523   3.408   0.309   0.978 -0.4754  1.5958  0.0864
22649SOL     OW68524   7.776   3.376   0.626 -0.1681  0.1573  0.2624
22649SOL    HW168525   7.770   3.450   0.566 -0.4560 -0.8314 -0.9875
22649SOL    HW268526   7.834   3.405   0.696  0.0141  1.4203 -0.3928
22650SOL     OW68527   6.493   4.776   7.556  0.1056  0.3049  0.1947
22650SOL    HW168528   6.517   4.720   7.482 -4.1220 -1.1913 -0.2960
22650SOL    HW268529   6.456   4.854   7.516  0.0331  0.5758  0.7821
22651SOL     OW68530   9.171   9.689   1.220  0.1856  0.3735 -0.2526
22651SOL    HW168531   9.083   9.717   1.246 -0.3565  0.4653 -2.0337
22651SOL    HW268532   9.183   9.604   1.262 -0.7491  0.3679  0.0283
22652SOL     OW68533   8.379   6.855   1.608 -0.0261  0.1656  0.3013
22652SOL    HW168534   8.457   6.805   1.631  0.9050  1.4019 -0.0996
22652SOL    HW268535   8.350   6.894   1.690  1.9907  2.7403 -0.1000
22653SOL     OW68536   7.904   3.691   2.645  0.2378 -0.4070  0.4109
22653SOL    HW168537   7.896   3.766   2.704  0.4211  0.9608 -1.2058
22653SOL    HW268538   7.961   3.723   2.574 -1.5366 -1.2693 -1.5126
22654SOL     OW68539   3.481   5.400   3.795  0.0741  0.2331 -0.3184
22654SOL    HW168540   3.541   5.382   3.723 -0.1890 -1.3329 -0.1921
22654SOL    HW268541   3.395   5.378   3.760 -0.4065  2.1500 -0.3959
22655SOL     OW68542   7.493   1.570   6.769  0.5021 -0.4580  0.1294
22655SOL    HW168543   7.483   1.615   6.685 -1.2177 -0.2628  0.3968
22655SOL    HW268544   7.440   1.490   6.760  0.0759 -0.2993  1.1082
22656SOL     OW68545   7.720   2.968   0.496  0.5654 -0.2387  0.6817
22656SOL    HW168546   7.779   3.030   0.537  0.4220 -0.1731  0.7916
22656SOL    HW268547   7.632   3.004   0.513  0.5048 -0.2234  0.3423
22657SOL     OW68548   9.138   2.538   9.243  0.2429 -0.4355 -0.0704
22657SOL    HW168549   9.077   2.472   9.276 -0.1127 -0.1515 -0.1516
22657SOL    HW268550   9.179   2.496   9.167  1.0230 -1.0685  0.6772
22658SOL     OW68551   5.546   8.892   3.374 -0.3738  0.6074 -0.3205
22658SOL    HW168552   5.574   8.980   3.347  1.5880  0.4238  0.9127
22658SOL    HW268553   5.607   8.833   3.329 -0.4534 -0.0008  0.3559
22659SOL     OW68554   5.335   7.844   0.962 -0.0042 -0.0079 -0.2149
22659SOL    HW168555   5.264   7.873   0.905 -0.4484 -0.8461 -0.1059
22659SOL    HW268556   5.341   7.912   1.029 -2.0681 -0.8734  0.9404
22660SOL     OW68557   4.027   9.133   5.644  0.3864  0.3450 -0.1844
22660SOL    HW168558   3.935   9.148   5.664  0.5975  0.4631  0.7654
22660SOL    HW268559   4.027   9.082   5.563 -0.5091  0.4233 -0.2351
22661SOL     OW68560   1.508   7.544   5.155 -0.3336  0.1076 -0.7626
22661SOL    HW168561   1.547   7.531   5.069  0.4608  0.1358 -0.4139
22661SOL    HW268562   1.472   7.633   5.153 -0.5229  0.0223 -1.1395
22662SOL     OW68563   2.207   9.460   3.474  0.4201  0.3198  0.4326
22662SOL    HW168564   2.178   9.512   3.400 -0.9158  0.1156  0.7964
22662SOL    HW268565   2.135   9.463   3.536  1.0777 -0.4109  1.2618
22663SOL     OW68566   4.330   6.592   6.200  0.8534  0.1276  0.6280
22663SOL    HW168567   4.353   6.577   6.108 -1.3859  3.3516 -0.6324
22663SOL    HW268568   4.261   6.528   6.218 -0.4776  1.0534 -0.8574
22664SOL     OW68569   9.386   7.923   0.785 -0.5361  0.4776  0.0209
22664SOL    HW168570   9.425   7.966   0.709  0.1175  0.4259  0.3171
22664SOL    HW268571   9.336   7.993   0.828 -1.9242  0.2232 -1.0990
22665SOL     OW68572   2.583   5.125   4.948  0.0070 -0.3642  0.2485
22665SOL    HW168573   2.575   5.059   5.017  1.8866 -0.1852  0.6966
22665SOL    HW268574   2.550   5.205   4.988 -1.6952 -0.8567 -0.0886
22666SOL     OW68575   1.070   4.493   3.736  0.2667  0.2988 -0.0382
22666SOL    HW168576   1.025   4.500   3.820 -0.2814  2.1447 -0.4362
22666SOL    HW268577   1.139   4.429   3.751 -0.7968 -0.5759  1.3603
22667SOL     OW68578   9.051   6.149   6.248  0.0511  0.0591 -0.1428
22667SOL    HW168579   9.010   6.073   6.207 -1.4503  0.1622  1.0837
22667SOL    HW268580   9.017   6.224   6.198 -0.2559  0.0615  0.0685
22668SOL     OW68581   0.819   9.569   3.107  0.1219  0.4074 -0.2148
22668SOL    HW168582   0.823   9.665   3.106 -1.5495  0.5345  0.9513
22668SOL    HW268583   0.869   9.543   3.184  1.0383  0.2827 -0.8346
22669SOL     OW68584   7.243   0.164   2.700  0.4721 -0.1582  0.1558
22669SOL    HW168585   7.228   0.070   2.698  0.4087 -0.1417 -0.3853
22669SOL    HW268586   7.319   0.176   2.757 -0.2506 -0.4314  1.2066
22670SOL     OW68587   1.823   6.262   6.903  0.4104 -0.5645 -0.4007
22670SOL    HW168588   1.759   6.220   6.960  0.6576 -0.7940 -0.2938
22670SOL    HW268589   1.817   6.355   6.925 -0.8010 -0.4168 -1.2917
22671SOL     OW68590   6.302   7.634   1.117  0.0508  0.2138  0.2502
22671SOL    HW168591   6.386   7.667   1.085  0.2784  1.1366  1.6931
22671SOL    HW268592   6.299   7.543   1.089  2.9056 -0.7536  2.6052
22672SOL     OW68593   3.378   7.227   3.493 -1.3649  0.4871 -0.0440
22672SOL    HW168594   3.322   7.158   3.458  0.6902 -0.5137 -1.5424
22672SOL    HW268595   3.394   7.285   3.419 -0.2692  0.6345  0.2878
22673SOL     OW68596   0.977   8.170   0.058 -0.5048  0.0275 -0.4176
22673SOL    HW168597   1.062   8.153   0.099 -0.9753 -1.3981  0.0286
22673SOL    HW268598   0.998   8.187  -0.034  0.3006  0.1770 -0.2150
22674SOL     OW68599   6.743   9.117   6.139  0.5130  0.0217  0.2986
22674SOL    HW168600   6.799   9.173   6.193  0.1571  0.0233  0.6590
22674SOL    HW268601   6.671   9.173   6.112  0.0362 -0.3282  0.8439
22675SOL     OW68602   8.565   7.484   3.271 -0.4909 -0.5285  0.0216
22675SOL    HW168603   8.652   7.525   3.273 -0.7833  0.0983  0.0260
22675SOL    HW268604   8.544   7.468   3.363 -0.7939  0.2317  0.0993
22676SOL     OW68605   1.089   1.477   3.754  0.0283 -0.3763 -0.6358
22676SOL    HW168606   1.157   1.490   3.820  1.9928 -0.5275 -2.5439
22676SOL    HW268607   1.017   1.533   3.783  0.0008 -1.8361  2.6195
22677SOL     OW68608   7.641   7.381   4.040 -0.6476 -0.0509 -0.2343
22677SOL    HW168609   7.690   7.460   4.019 -0.2157 -0.2364  0.0640
22677SOL    HW268610   7.707   7.317   4.067 -1.1180  0.1253  1.5204
22678SOL     OW68611   9.067   9.269   1.658  0.6260  0.2379  0.5457
22678SOL    HW168612   9.088   9.308   1.743  2.1802  0.9558 -0.1296
22678SOL    HW268613   9.129   9.309   1.597 -1.2503  0.6873 -1.1877
22679SOL     OW68614   8.193   5.558   9.576 -0.2774 -0.7778 -0.3050
22679SOL    HW168615   8.123   5.567   9.512 -0.5275 -1.0437 -0.0673
22679SOL    HW268616   8.194   5.642   9.622 -0.0720 -0.5698 -0.6779
22680SOL     OW68617   7.550   3.537   3.894 -0.1608  0.2168 -0.8523
22680SOL    HW168618   7.462   3.555   3.926 -0.2469 -0.9586 -0.4000
22680SOL    HW268619   7.606   3.546   3.971 -0.0988 -0.6258 -0.8006
22681SOL     OW68620   4.764   8.335   6.134 -0.6499  0.2148 -0.5219
22681SOL    HW168621   4.764   8.308   6.042  0.4325  1.0270 -0.7802
22681SOL    HW268622   4.827   8.276   6.176 -2.0967 -1.0386  0.0169
22682SOL     OW68623   4.480   4.413   4.962  0.0516 -0.0061 -0.4325
22682SOL    HW168624   4.482   4.331   4.913 -0.7644  0.5173 -1.3855
22682SOL    HW268625   4.415   4.467   4.917 -0.7123  0.5254  1.1944
22683SOL     OW68626   9.601   0.851   6.665  0.3262  0.4647  0.4351
22683SOL    HW168627   9.593   0.946   6.660 -1.6631  0.3185 -0.4421
22683SOL    HW268628   9.610   0.833   6.759  1.2285  1.5164  0.5771
22684SOL     OW68629   8.121   5.071   8.350 -0.8059 -0.2627 -0.0235
22684SOL    HW168630   8.209   5.069   8.386 -0.5389  3.5610 -0.0341
22684SOL    HW268631   8.133   5.067   8.255 -0.6613 -0.1064 -0.0118
22685SOL     OW68632   0.339   1.921   5.936  0.5442  0.0189  0.0072
22685SOL    HW168633   0.340   1.864   5.860  0.4663  0.3448 -0.2400
22685SOL    HW268634   0.292   1.999   5.907  0.5704  0.1708  0.3687
22686SOL     OW68635   9.004   5.908   5.429  0.5027 -0.0070  0.1812
22686SOL    HW168636   9.076   5.873   5.480  1.5756 -0.3081 -1.4516
22686SOL    HW268637   9.028   6.000   5.413 -0.9142  0.7401  2.0435
22687SOL     OW68638   2.150   2.052   1.779 -0.4605  0.4305 -0.0050
22687SOL    HW168639   2.067   2.016   1.746 -0.2210  1.0197 -1.3336
22687SOL    HW268640   2.218   1.999   1.736 -0.1098 -0.6242  1.7472
22688SOL     OW68641   2.332   2.508   9.163  0.3828 -0.4044  0.1462
22688SOL    HW168642   2.268   2.438   9.172 -0.4430  0.2981 -0.0625
22688SOL    HW268643   2.406   2.468   9.117  0.1667 -1.2720  0.5444
22689SOL     OW68644   0.680   1.623   4.045  0.3384  0.0732  0.3335
22689SOL    HW168645   0.634   1.669   4.115 -0.0864  1.2748 -0.7016
22689SOL    HW268646   0.758   1.587   4.088 -0.5323 -0.2917  1.6760
22690SOL     OW68647   0.731   8.569   3.217  0.4070 -0.1851 -0.1717
22690SOL    HW168648   0.686   8.554   3.301  3.2839  0.2356  1.6093
22690SOL    HW268649   0.693   8.650   3.184 -0.5794 -0.1768  0.8946
22691SOL     OW68650   6.827   8.815   1.474  0.0041  0.0420 -0.1221
22691SOL    HW168651   6.795   8.905   1.485  1.9882  0.9352 -1.0903
22691SOL    HW268652   6.798   8.790   1.386  1.8741  0.9064 -1.0592
22692SOL     OW68653   7.966   1.819   2.454 -0.6739  0.2306  0.0223
22692SOL    HW168654   7.893   1.813   2.393  0.8267 -0.9179 -1.7491
22692SOL    HW268655   7.997   1.909   2.446  0.0019 -0.1155 -1.5566
22693SOL     OW68656   4.120   7.304   5.658  0.1831  0.0871  0.0413
22693SOL    HW168657   4.199   7.313   5.711  0.3542 -2.0631  0.2517
22693SOL    HW268658   4.069   7.237   5.704 -2.9234  2.9992  1.2187
22694SOL     OW68659   4.488   1.023   5.942 -0.4207  0.4497 -0.3442
22694SOL    HW168660   4.581   1.009   5.924 -0.1478 -2.0472  2.2980
22694SOL    HW268661   4.443   0.988   5.866  0.7705  0.7679 -1.2206
22695SOL     OW68662   6.084   6.473   4.764  0.4250  0.4702  0.5855
22695SOL    HW168663   6.020   6.440   4.828 -1.3476  0.3705 -1.1240
22695SOL    HW268664   6.151   6.405   4.759  0.0379  0.0053  1.5768
22696SOL     OW68665   4.928   9.475   0.106 -0.3161 -0.3524  0.0634
22696SOL    HW168666   4.867   9.448   0.038  0.4178 -0.9521 -0.3713
22696SOL    HW268667   5.015   9.470   0.065  0.0573  0.2497  0.7373
22697SOL     OW68668   9.459   2.651   2.630  0.5507 -0.0541 -0.0172
22697SOL    HW168669   9.513   2.650   2.709 -0.6133 -0.2552  0.8046
22697SOL    HW268670   9.451   2.743   2.607 -0.3250  0.1531  0.9997
22698SOL     OW68671   5.261   9.017   8.117 -0.6307 -0.1520  0.5433
22698SOL    HW168672   5.255   9.112   8.105  0.9002 -0.1048 -0.0507
22698SOL    HW268673   5.177   8.984   8.088 -1.0405  0.9926  0.3681
22699SOL     OW68674   0.407   9.541   0.021  0.5192  0.1217  0.7092
22699SOL    HW168675   0.503   9.537   0.019  0.8122  3.4371 -2.0200
22699SOL    HW268676   0.387   9.586   0.103  1.3028 -0.0660  1.0213
22700SOL     OW68677   0.830   7.632   2.240 -0.1653 -0.0208  0.3437
22700SOL    HW168678   0.784   7.708   2.276 -0.6776 -0.1013 -0.1156
22700SOL    HW268679   0.882   7.598   2.313 -0.6549  0.2161  0.8089
22701SOL     OW68680   1.443   5.987   1.370 -0.0729  0.0267  0.1122
22701SOL    HW168681   1.452   5.932   1.293 -1.5032 -0.7165  0.4390
22701SOL    HW268682   1.486   5.939   1.440 -0.5026 -0.2410  0.1952
22702SOL     OW68683   2.028   2.902   5.847  0.6413  0.2787 -0.1808
22702SOL    HW168684   2.087   2.826   5.851  1.5619  0.9623 -0.4491
22702SOL    HW268685   1.954   2.871   5.795  1.7123  0.0052 -1.6341
22703SOL     OW68686   9.181   4.323   7.843  0.4194 -0.0167  0.4826
22703SOL    HW168687   9.273   4.341   7.824  0.4761  2.0943  2.2942
22703SOL    HW268688   9.183   4.253   7.909  0.6834 -0.4514  0.0167
22704SOL     OW68689   8.597   4.400   6.687  0.1812  0.8681 -0.1433
22704SOL    HW168690   8.667   4.334   6.685 -1.2796 -0.7189 -1.2544
22704SOL    HW268691   8.580   4.413   6.781  0.1184 -0.8007  0.1161
22705SOL     OW68692   9.421   1.866   7.916 -0.4692  0.0754  0.2473
22705SOL    HW168693   9.421   1.770   7.920 -1.4565 -0.0246 -1.3473
22705SOL    HW268694   9.329   1.890   7.911 -0.1861  0.9344 -1.8927
22706SOL     OW68695   1.953   1.143   8.307  0.0836  0.0705  0.1664
22706SOL    HW168696   1.986   1.121   8.395  1.8628  0.3032 -0.3956
22706SOL    HW268697   1.886   1.077   8.289  1.0247 -1.1404  0.9626
22707SOL     OW68698   1.999   4.926   3.858 -0.2440  0.2237  0.0863
22707SOL    HW168699   1.981   4.845   3.810  4.7026 -1.7341  0.9552
22707SOL    HW268700   1.982   4.995   3.794  1.7443 -1.9861 -3.1703
22708SOL     OW68701   3.918   9.429   8.919 -0.1090 -0.5547 -0.0137
22708SOL    HW168702   3.866   9.406   8.996 -1.3240 -0.9200 -0.9018
22708SOL    HW268703   3.878   9.511   8.887  0.8780  0.0102  0.1853
22709SOL     OW68704   6.479   0.378   7.658  0.1700 -0.1373  0.2704
22709SOL    HW168705   6.485   0.282   7.658  0.3093 -0.1522 -1.2246
22709SOL    HW268706   6.389   0.395   7.685 -0.5806 -0.8122 -1.5915
22710SOL     OW68707   6.581   0.519   2.297  0.1749 -0.1566  0.0077
22710SOL    HW168708   6.534   0.477   2.369  1.5941  1.6097  2.1255
22710SOL    HW268709   6.536   0.603   2.284  1.2343  0.5100  0.4342
22711SOL     OW68710   4.684   5.458   8.019 -0.1065  0.2454  0.8974
22711SOL    HW168711   4.686   5.392   8.088 -0.7852 -0.4214  0.3012
22711SOL    HW268712   4.612   5.431   7.962 -0.0754  1.2303  0.3681
22712SOL     OW68713   4.901   4.838   9.790  0.2386 -0.3699 -0.3456
22712SOL    HW168714   4.996   4.849   9.798  0.5217 -3.0203  0.7971
22712SOL    HW268715   4.889   4.787   9.710 -0.4820  1.8209 -1.7332
22713SOL     OW68716   4.373   2.605   8.859 -0.3083  0.6638 -0.7456
22713SOL    HW168717   4.396   2.529   8.805  0.6573 -0.8768  1.6609
22713SOL    HW268718   4.431   2.675   8.828  1.8896 -0.8373 -0.2596
22714SOL     OW68719   1.865   1.931   2.646 -0.2429 -0.1852 -0.0573
22714SOL    HW168720   1.889   1.954   2.736 -1.1427 -1.0147  0.4275
22714SOL    HW268721   1.947   1.928   2.598  0.5521 -1.9604  1.2860
22715SOL     OW68722   0.633   5.346   6.442 -0.5090 -0.5708  0.0319
22715SOL    HW168723   0.660   5.431   6.407 -0.3882  0.2285  1.9427
22715SOL    HW268724   0.698   5.327   6.509 -1.7908 -1.0895  1.1615
22716SOL     OW68725   8.147   7.586   4.076 -0.0759  0.0997 -0.3522
22716SOL    HW168726   8.206   7.557   4.145  0.6991 -1.1415 -1.4853
22716SOL    HW268727   8.196   7.653   4.029  0.4027 -0.8164 -1.1932
22717SOL     OW68728   0.127   6.891   5.023 -0.1274 -0.2909  0.6540
22717SOL    HW168729   0.062   6.849   4.966  0.7045  1.2786 -1.6263
22717SOL    HW268730   0.195   6.824   5.035  0.7338 -0.0707 -2.1378
22718SOL     OW68731   0.121   4.535   6.941 -0.7657  0.0484  0.2351
22718SOL    HW168732   0.071   4.539   6.859  0.0660 -0.0507 -0.2928
22718SOL    HW268733   0.131   4.442   6.958  0.3632  0.0291 -0.3927
22719SOL     OW68734   7.135   9.729   2.837 -0.5274  0.2750 -0.4123
22719SOL    HW168735   7.110   9.746   2.927 -1.8287  1.4751 -0.9516
22719SOL    HW268736   7.122   9.635   2.825 -1.3398  0.2761  0.3669
22720SOL     OW68737   4.584   4.764   8.874  0.5506  0.0208 -0.2905
22720SOL    HW168738   4.621   4.700   8.936  2.5145  1.2860 -0.0420
22720SOL    HW268739   4.586   4.846   8.922 -2.1561  0.3059 -0.5191
22721SOL     OW68740   7.430   6.306   0.150  0.5709  0.4757  0.4636
22721SOL    HW168741   7.383   6.304   0.067  0.2115  0.2621  0.6699
22721SOL    HW268742   7.430   6.399   0.175  0.8527  0.5682  0.1315
22722SOL     OW68743   1.979   8.061   2.826 -0.0516 -0.3119  0.6952
22722SOL    HW168744   2.030   8.100   2.897  3.0206  0.0572 -1.4772
22722SOL    HW268745   1.918   8.130   2.799 -0.0021  0.1774  1.7986
22723SOL     OW68746   3.157   2.306   2.456  0.4957  0.2086  0.0940
22723SOL    HW168747   3.195   2.220   2.474  0.7739 -0.8013 -4.2311
22723SOL    HW268748   3.070   2.287   2.420 -0.2192  1.8966  0.8328
22724SOL     OW68749   7.854   7.393   9.628  0.0922  0.2861 -0.4378
22724SOL    HW168750   7.795   7.342   9.683 -1.5341  1.1269 -1.3296
22724SOL    HW268751   7.860   7.478   9.671  1.4942 -0.1058  0.1824
22725SOL     OW68752   7.155   6.228   0.876 -0.1228 -0.0447  0.2016
22725SOL    HW168753   7.204   6.200   0.953 -0.4864  0.3448  0.5710
22725SOL    HW268754   7.130   6.146   0.833 -1.4904 -0.3191  1.4720
22726SOL     OW68755   8.921   2.909   2.513 -0.5421 -0.4395  0.1306
22726SOL    HW168756   8.827   2.928   2.517 -0.0757  1.8990  2.1764
22726SOL    HW268757   8.951   2.917   2.603  1.8843  0.2997 -0.6705
22727SOL     OW68758   1.534   0.838   5.036  0.3574 -0.4957  0.1983
22727SOL    HW168759   1.621   0.857   5.001  0.5597  0.3358  1.1224
22727SOL    HW268760   1.541   0.855   5.130 -0.6925 -0.8300  0.3486
22728SOL     OW68761   2.116   8.330   8.299  0.6830 -0.7881 -0.6530
22728SOL    HW168762   2.187   8.314   8.361 -0.4296 -1.9011  0.3847
22728SOL    HW268763   2.038   8.338   8.353 -0.0838 -0.1383 -1.8148
22729SOL     OW68764   9.720   6.296   1.067 -0.0663  0.3825  0.4550
22729SOL    HW168765   9.797   6.314   1.013  0.9390 -3.0092  0.5448
22729SOL    HW268766   9.750   6.309   1.157  0.4443 -0.9225  0.4894
22730SOL     OW68767   7.827   1.293   2.777  0.3010  0.0382  0.3685
22730SOL    HW168768   7.904   1.347   2.796  0.0988  0.5787 -0.2959
22730SOL    HW268769   7.860   1.203   2.780  1.3221  0.2995 -1.3175
22731SOL     OW68770   6.297   6.108   2.153  0.0933  0.0526 -0.0033
22731SOL    HW168771   6.363   6.139   2.215  1.5235 -3.2001  0.3240
22731SOL    HW268772   6.225   6.077   2.208 -0.5516  1.1002 -0.2335
22732SOL     OW68773   9.511   4.166   1.281 -0.2011  0.1323 -0.5874
22732SOL    HW168774   9.437   4.149   1.224  0.9661 -0.4366 -2.0084
22732SOL    HW268775   9.554   4.081   1.291  1.5762  0.8258 -1.7653
22733SOL     OW68776   1.732   7.352   6.856  0.2653 -0.8860  0.5966
22733SOL    HW168777   1.768   7.329   6.770 -1.0037 -1.6662  0.2519
22733SOL    HW268778   1.637   7.348   6.844 -0.0075  1.8589  1.2842
22734SOL     OW68779   6.771   4.242   1.050  0.2066 -0.3823  0.0184
22734SOL    HW168780   6.678   4.236   1.071  0.0445  0.2629 -0.4973
22734SOL    HW268781   6.786   4.334   1.031  1.1305 -0.3422  0.8717
22735SOL     OW68782   2.365   9.192   4.356 -0.0971  0.2855  0.1817
22735SOL    HW168783   2.334   9.169   4.268 -1.0467 -0.7939  0.7746
22735SOL    HW268784   2.301   9.255   4.388  0.5263  1.0629 -0.0768
22736SOL     OW68785   0.423   6.670   9.798 -0.2712  0.0402  0.2356
22736SOL    HW168786   0.392   6.744   9.849 -1.8889  0.7072 -1.5740
22736SOL    HW268787   0.422   6.701   9.707  1.5964 -1.3629 -0.3340
22737SOL     OW68788   1.892   3.736   3.569  0.5885 -0.0305 -0.1798
22737SOL    HW168789   1.803   3.711   3.543  0.3492  0.4235  0.2051
22737SOL    HW268790   1.925   3.789   3.496  0.5797 -0.2763 -0.3632
22738SOL     OW68791   5.708   4.140   5.857 -0.4302  0.3914  0.1158
22738SOL    HW168792   5.745   4.210   5.804 -0.5075  0.3362 -0.0125
22738SOL    HW268793   5.630   4.113   5.810  1.2456 -1.9240 -1.5697
22739SOL     OW68794   4.505   1.310   3.342 -0.2172  0.5234 -0.2740
22739SOL    HW168795   4.417   1.345   3.330 -0.3590  0.3814  0.3138
22739SOL    HW268796   4.554   1.341   3.266 -0.8574  0.3360 -0.7702
22740SOL     OW68797   4.867   8.990   1.244 -0.0152  0.2119  0.3489
22740SOL    HW168798   4.784   8.943   1.247 -0.3674  0.7503 -0.4482
22740SOL    HW268799   4.931   8.927   1.277 -0.4145 -0.9675 -1.0011
22741SOL     OW68800   2.157   4.597   2.507 -0.0246 -0.0718 -0.4583
22741SOL    HW168801   2.170   4.663   2.576  1.0628 -0.0216 -0.6983
22741SOL    HW268802   2.178   4.643   2.426 -2.3519  0.1955 -0.9827
22742SOL     OW68803   8.015   1.501   2.860 -0.0778  0.4152 -0.0502
22742SOL    HW168804   7.943   1.558   2.887 -1.1408  0.2718 -2.4220
22742SOL    HW268805   8.057   1.548   2.788  0.3429 -0.8804 -0.6678
22743SOL     OW68806   6.418   4.559   8.875  0.2574  0.1461 -0.9348
22743SOL    HW168807   6.456   4.621   8.938 -0.8733  1.0527 -1.1091
22743SOL    HW268808   6.483   4.552   8.805 -0.1430  2.1958 -1.5707
22744SOL     OW68809   0.711   8.054   3.243  0.3937 -0.5698 -0.8503
22744SOL    HW168810   0.795   8.008   3.244 -0.2456 -1.7751 -0.8934
22744SOL    HW268811   0.681   8.050   3.334  1.3078  1.6672 -0.3980
22745SOL     OW68812   3.799   8.678   8.803 -0.3131 -0.1746 -0.3434
22745SOL    HW168813   3.821   8.640   8.718 -1.1167  0.1020 -0.6905
22745SOL    HW268814   3.710   8.712   8.791 -0.1520  0.5254  0.3841
22746SOL     OW68815   5.423   7.171   2.320 -0.2433 -0.0845 -0.3071
22746SOL    HW168816   5.404   7.078   2.321  0.3029 -0.2041 -0.8117
22746SOL    HW268817   5.357   7.209   2.262  0.1768 -0.3015 -0.9286
22747SOL     OW68818   4.674   8.329   4.279 -0.6542 -0.6891  0.3381
22747SOL    HW168819   4.634   8.281   4.352  1.0529 -0.3506  1.5577
22747SOL    HW268820   4.664   8.270   4.204 -0.2922 -2.1684  1.3863
22748SOL     OW68821   4.735   0.674   8.160  0.3507  0.0676 -0.0324
22748SOL    HW168822   4.658   0.626   8.127  0.7755 -0.2363 -0.6117
22748SOL    HW268823   4.734   0.757   8.112  0.9423 -0.3549 -0.8033
22749SOL     OW68824   6.150   2.289   3.412 -0.1821 -0.0964  0.6923
22749SOL    HW168825   6.240   2.259   3.398 -0.1081  0.5117 -0.2947
22749SOL    HW268826   6.155   2.384   3.397 -0.6252  0.2624  2.5478
22750SOL     OW68827   2.382   9.092   8.654  0.5202  0.3784 -0.0578
22750SOL    HW168828   2.321   9.026   8.688 -0.0380 -0.3352 -2.2234
22750SOL    HW268829   2.383   9.076   8.559  3.0092  1.3117 -0.2504
22751SOL     OW68830   1.750   9.134   2.292  0.4213 -0.0729 -0.0224
22751SOL    HW168831   1.761   9.051   2.247  1.2085 -0.6611  1.1979
22751SOL    HW268832   1.837   9.154   2.327 -0.3974 -0.3029  2.2891
22752SOL     OW68833   9.450   3.657   5.738  0.0866 -0.3028  0.6069
22752SOL    HW168834   9.419   3.744   5.711 -0.0991 -0.4847  0.2339
22752SOL    HW268835   9.398   3.637   5.816  1.6960  0.8913  2.0695
22753SOL     OW68836   2.267   9.390   5.918 -0.3822 -0.3322  0.0025
22753SOL    HW168837   2.342   9.404   5.860 -0.5766 -0.9694 -0.4054
22753SOL    HW268838   2.302   9.340   5.992 -1.0753 -4.0431 -1.9440
22754SOL     OW68839   6.138   5.679   4.513 -0.2360  0.4523  0.0188
22754SOL    HW168840   6.045   5.699   4.527 -0.7928  0.0434 -2.5192
22754SOL    HW268841   6.184   5.731   4.579 -2.2917 -0.5609  2.4472
22755SOL     OW68842   4.317   5.953   0.781  0.0491  0.2533 -0.3378
22755SOL    HW168843   4.226   5.965   0.755  0.0148  0.9985  0.1136
22755SOL    HW268844   4.361   5.921   0.702 -0.5344  0.2193 -0.6463
22756SOL     OW68845   2.848   3.205   0.038 -0.4006 -0.5206 -0.6485
22756SOL    HW168846   2.811   3.291   0.016 -0.0510 -0.3945 -0.7536
22756SOL    HW268847   2.942   3.221   0.048 -0.2952 -0.9404 -0.9341
22757SOL     OW68848   3.755   6.772   0.933 -0.0609  0.1269 -0.6650
22757SOL    HW168849   3.836   6.769   0.883  0.5343 -0.5994  0.3254
22757SOL    HW268850   3.770   6.837   1.001 -0.2777 -0.0847 -0.4120
22758SOL     OW68851   4.821   0.745   8.854  0.2253 -0.6504 -0.4776
22758SOL    HW168852   4.741   0.768   8.901 -0.8719 -1.2837 -1.9386
22758SOL    HW268853   4.790   0.704   8.773  2.0267 -0.0412 -1.5315
22759SOL     OW68854   8.728   5.187   6.466  0.0384  0.1869  0.2523
22759SOL    HW168855   8.683   5.104   6.454 -1.7954  1.2282 -0.4078
22759SOL    HW268856   8.735   5.197   6.561  0.7802 -0.9387  0.3417
22760SOL     OW68857   0.989   7.382   3.207 -0.4721  0.0361  0.1949
22760SOL    HW168858   1.075   7.393   3.167 -0.4185 -0.2660  0.2242
22760SOL    HW268859   1.005   7.388   3.301 -0.4830 -0.0083  0.1999
22761SOL     OW68860   7.564   3.695   2.810  0.4371 -0.4073  0.0953
22761SOL    HW168861   7.529   3.648   2.886  0.8758 -0.8408  0.0349
22761SOL    HW268862   7.604   3.627   2.756 -1.9533 -0.4782 -1.7362
22762SOL     OW68863   6.885   1.437   1.858  0.9092 -0.2767  0.0476
22762SOL    HW168864   6.828   1.463   1.930  0.8730  0.3476 -0.2051
22762SOL    HW268865   6.934   1.516   1.835  0.0977 -0.1388 -1.3573
22763SOL     OW68866   2.162   8.286   4.190  0.7114 -0.3325  0.1995
22763SOL    HW168867   2.175   8.198   4.226  0.5701  0.2531  1.7205
22763SOL    HW268868   2.069   8.305   4.205  0.4629 -0.3388 -1.1439
22764SOL     OW68869   6.285   4.638   0.654  0.0568  0.2460 -0.3846
22764SOL    HW168870   6.192   4.623   0.641 -0.0364  0.3920  0.0980
22764SOL    HW268871   6.290   4.690   0.734  0.4858  1.0970 -0.9375
22765SOL     OW68872   3.653   0.832   7.468 -0.1614  0.4400 -0.1348
22765SOL    HW168873   3.678   0.842   7.376 -0.2979 -0.3980 -0.2770
22765SOL    HW268874   3.733   0.849   7.517 -0.2351  1.5194 -0.3633
22766SOL     OW68875   7.532   7.598   0.863 -0.5184 -0.0481  0.0711
22766SOL    HW168876   7.443   7.627   0.842 -0.5220 -0.3353 -0.3067
22766SOL    HW268877   7.520   7.514   0.906 -0.5481  0.7432  1.6943
22767SOL     OW68878   3.975   9.350   7.996 -0.1700  0.0188 -0.0280
22767SOL    HW168879   3.904   9.414   7.988  0.3438  0.4396 -1.4401
22767SOL    HW268880   3.995   9.324   7.906  1.5673  0.0226  0.3152
22768SOL     OW68881   8.156   7.134   5.434 -0.2925 -0.4057 -0.0399
22768SOL    HW168882   8.136   7.112   5.342 -2.2332 -1.0353  0.4678
22768SOL    HW268883   8.157   7.229   5.436  1.2072 -0.3682 -0.9601
22769SOL     OW68884   0.130   8.292   6.886  0.2743 -0.0376  0.1256
22769SOL    HW168885   0.066   8.354   6.921  1.5427  0.2467  2.0684
22769SOL    HW268886   0.077   8.219   6.854 -1.0935  0.8026  0.3818
22770SOL     OW68887   2.210   6.224   7.655 -0.5181  0.5268 -0.1964
22770SOL    HW168888   2.266   6.284   7.606 -0.9674 -0.2117 -1.6811
22770SOL    HW268889   2.271   6.158   7.690 -0.2699  0.6531 -0.3862
22771SOL     OW68890   8.304   8.086   5.138  0.7563 -0.0978 -0.1079
22771SOL    HW168891   8.209   8.083   5.149  0.9323 -3.7223  2.0974
22771SOL    HW268892   8.327   8.002   5.098  3.0249  1.0982 -1.5603
22772SOL     OW68893   8.586   9.930   0.983  0.0075  0.0612  1.0538
22772SOL    HW168894   8.616   9.934   1.074  0.5117 -1.1279  0.9607
22772SOL    HW268895   8.624   9.849   0.949 -0.4529  0.3209 -0.1220
22773SOL     OW68896   4.780   5.033   0.484 -0.2729 -0.1619 -0.0726
22773SOL    HW168897   4.875   5.033   0.471 -0.0340  4.2955  0.1143
22773SOL    HW268898   4.744   5.062   0.400 -1.4213 -1.1604  0.0558
22774SOL     OW68899   0.164   3.503   3.573 -0.0508 -0.4942  0.4268
22774SOL    HW168900   0.092   3.441   3.581  0.2408 -0.7965  0.7630
22774SOL    HW268901   0.238   3.459   3.615 -0.7502  1.5684  4.3338
22775SOL     OW68902   6.399   1.534   7.179 -0.1580 -0.0879 -0.4642
22775SOL    HW168903   6.399   1.493   7.266  1.6840 -1.4259 -1.0305
22775SOL    HW268904   6.461   1.607   7.187 -0.8209  0.4765 -0.3826
22776SOL     OW68905   3.164   2.767   3.831  0.1504 -0.0816  0.3628
22776SOL    HW168906   3.121   2.841   3.790  0.2952 -0.1829  0.0254
22776SOL    HW268907   3.253   2.767   3.796  0.6344  0.5044  1.5336
22777SOL     OW68908   8.271   3.657   9.752 -0.2152  0.0751  0.1110
22777SOL    HW168909   8.184   3.693   9.770 -1.4045 -1.1653 -2.5742
22777SOL    HW268910   8.288   3.680   9.661  1.7539 -0.7505  0.2194
22778SOL     OW68911   5.880   7.552   1.953 -0.1534  0.0507  0.1513
22778SOL    HW168912   5.838   7.543   2.039  0.8919  0.4402  0.7148
22778SOL    HW268913   5.960   7.500   1.960  0.5853  1.1155 -0.1326
22779SOL     OW68914   0.241   0.935   1.151  0.6007 -0.7629  0.0633
22779SOL    HW168915   0.242   0.873   1.224 -0.0873  0.4311  1.1327
22779SOL    HW268916   0.235   1.021   1.193  1.3382  0.0231 -1.3814
22780SOL     OW68917   1.689   5.575   0.491 -0.4961  0.1872  0.4160
22780SOL    HW168918   1.687   5.637   0.564  0.1031  0.8560 -0.1175
22780SOL    HW268919   1.621   5.606   0.432 -1.6125 -0.8889  1.0894
22781SOL     OW68920   8.909   5.040   8.064  0.4010  0.1654  0.1522
22781SOL    HW168921   8.947   5.039   7.976  1.4015 -2.5346  0.5192
22781SOL    HW268922   8.947   5.117   8.105  2.8970 -0.5352 -0.6372
22782SOL     OW68923   8.141   5.111   8.028  0.2635 -0.2389 -0.4577
22782SOL    HW168924   8.072   5.175   8.049  0.0574 -0.9651  1.3024
22782SOL    HW268925   8.181   5.144   7.948 -2.6157 -0.1905 -2.0186
22783SOL     OW68926   9.789   5.892   3.008  0.4595  0.2679 -0.2651
22783SOL    HW168927   9.829   5.876   2.922  1.9976  0.7891  0.3276
22783SOL    HW268928   9.817   5.818   3.062  1.0384  0.8912  0.2966
22784SOL     OW68929   1.533   8.244   0.382  0.4484 -0.6121 -0.4555
22784SOL    HW168930   1.613   8.242   0.331 -1.3070  0.2908 -3.5009
22784SOL    HW268931   1.493   8.329   0.361 -0.5711 -0.3409  2.2257
22785SOL     OW68932   1.293   1.898   8.570 -0.5866 -0.3583 -0.8853
22785SOL    HW168933   1.220   1.953   8.540  0.4007  1.8781  0.5971
22785SOL    HW268934   1.265   1.864   8.654  0.0617  0.5775 -0.2696
22786SOL     OW68935   9.694   2.757   0.280 -0.6017  0.3324 -0.2294
22786SOL    HW168936   9.754   2.831   0.288 -1.8341  1.6056 -1.9360
22786SOL    HW268937   9.628   2.772   0.348 -1.4626  1.4954 -1.2603
22787SOL     OW68938   1.340   6.835   2.594  0.0276 -0.7030 -0.1149
22787SOL    HW168939   1.407   6.903   2.597 -0.5421 -0.1536  1.6576
22787SOL    HW268940   1.297   6.846   2.509 -0.7782  1.9032  0.5445
22788SOL     OW68941   6.933   1.672   5.968 -0.1272  0.2063 -0.4130
22788SOL    HW168942   6.862   1.627   5.923  0.1064 -0.1572 -0.4239
22788SOL    HW268943   6.967   1.607   6.029 -0.8380  0.8781  0.7431
22789SOL     OW68944   3.715   9.394   3.396 -0.0134  0.3993  0.7128
22789SOL    HW168945   3.643   9.352   3.349 -0.0364  0.8665  0.3178
22789SOL    HW268946   3.683   9.482   3.416  0.0582  0.2614  1.4687
22790SOL     OW68947   6.594   2.717   6.851 -0.0861 -0.2623  0.2700
22790SOL    HW168948   6.506   2.712   6.887 -1.4292 -0.5188 -2.8009
22790SOL    HW268949   6.628   2.800   6.885 -1.9653  0.4500  0.5404
22791SOL     OW68950   7.430   1.030   3.967  0.2984 -0.2276  0.3547
22791SOL    HW168951   7.516   1.047   4.005  1.3757 -1.7770 -1.2843
22791SOL    HW268952   7.381   1.111   3.983  3.1438  2.1052 -1.7108
22792SOL     OW68953   1.855   6.901   1.571 -0.0981 -0.5322 -0.2357
22792SOL    HW168954   1.851   6.870   1.481 -1.8032 -0.6137 -0.1659
22792SOL    HW268955   1.895   6.830   1.620 -0.5426 -1.1033 -0.6918
22793SOL     OW68956   9.054   2.143   3.050 -0.1714 -0.0517 -0.5811
22793SOL    HW168957   9.137   2.168   3.091 -0.7503  0.7893  0.0754
22793SOL    HW268958   9.080   2.076   2.986  1.0836  0.5591 -0.7547
22794SOL     OW68959   7.090   8.232   9.387  0.5639 -0.2188  0.2305
22794SOL    HW168960   7.008   8.229   9.339  0.2143  1.8025  0.5955
22794SOL    HW268961   7.087   8.315   9.435  2.8849  0.0095  0.1178
22795SOL     OW68962   1.742   9.474   5.127 -0.0305 -0.5742  0.3887
22795SOL    HW168963   1.674   9.479   5.060  0.0440 -0.5633  0.3135
22795SOL    HW268964   1.765   9.381   5.131  1.0917 -0.3615 -0.7322
22796SOL     OW68965   7.054   9.443   6.176  0.0039  0.3935 -0.2036
22796SOL    HW168966   7.119   9.377   6.151 -0.5199  0.1400 -0.9576
22796SOL    HW268967   7.090   9.526   6.146  0.9389  0.5547  1.2708
22797SOL     OW68968   7.946   8.012   8.090  1.1772 -0.2793  0.1846
22797SOL    HW168969   7.924   8.075   8.021 -0.5251  1.2169  1.9713
22797SOL    HW268970   7.964   8.066   8.166  1.8672 -1.9208  1.2174
22798SOL     OW68971   6.527   7.163   7.973 -0.1706  0.2673  0.4662
22798SOL    HW168972   6.452   7.222   7.982  0.3623  0.9939  0.3065
22798SOL    HW268973   6.526   7.136   7.881  0.2811  1.0211  0.2230
22799SOL     OW68974   1.617   5.586   1.309 -0.3288  0.6402 -0.3768
22799SOL    HW168975   1.678   5.567   1.238 -0.3100  0.0950 -0.2229
22799SOL    HW268976   1.588   5.676   1.293  2.1046  1.6926  0.7337
22800SOL     OW68977   7.301   3.896   6.398 -0.2313 -0.2441 -0.3538
22800SOL    HW168978   7.252   3.816   6.378 -1.6807  0.4625  0.2560
22800SOL    HW268979   7.262   3.930   6.478 -0.6587  1.8655 -1.3764
22801SOL     OW68980   0.222   5.303   9.629 -0.2078 -0.4264  0.6986
22801SOL    HW168981   0.288   5.264   9.571  0.5759  1.0964  0.5359
22801SOL    HW268982   0.138   5.274   9.592  0.2795  0.2786 -1.0684
22802SOL     OW68983   0.711   0.237   7.809 -0.1789 -0.1119 -0.3322
22802SOL    HW168984   0.778   0.180   7.772 -0.4347 -1.1236  0.7206
22802SOL    HW268985   0.702   0.209   7.900  0.0415  1.9536  0.3812
22803SOL     OW68986   9.508   8.823   3.486  0.3908  0.2110 -0.7893
22803SOL    HW168987   9.481   8.819   3.394 -0.9933 -0.0084 -0.4027
22803SOL    HW268988   9.528   8.732   3.509 -0.7320  0.0220 -0.4854
22804SOL     OW68989   1.657   5.734   0.719 -0.2641  0.3717  0.2278
22804SOL    HW168990   1.663   5.649   0.762 -0.3140  0.2062 -0.0877
22804SOL    HW268991   1.677   5.797   0.788 -0.7940  0.1352  0.6038
22805SOL     OW68992   1.478   3.115   7.142 -0.7908 -0.0752 -0.2310
22805SOL    HW168993   1.483   3.020   7.147  3.1567  0.0693  2.1898
22805SOL    HW268994   1.450   3.133   7.052  0.2026 -3.5166 -1.3525
22806SOL     OW68995   4.161   6.739   2.463  0.0991 -0.2207 -0.0390
22806SOL    HW168996   4.225   6.699   2.523 -0.8061 -0.5237  0.7529
22806SOL    HW268997   4.212   6.761   2.385  0.9128 -1.6438  0.0534
22807SOL     OW68998   6.844   7.086   2.318 -0.2860 -0.1331  0.1150
22807SOL    HW168999   6.760   7.043   2.329  0.5118 -1.7424  0.2694
22807SOL    HW269000   6.900   7.048   2.386  0.3929  1.4048  0.4649
22808SOL     OW69001   1.524   1.839   0.700 -0.8205  0.5156  0.6239
22808SOL    HW169002   1.566   1.924   0.689  1.8560 -0.8175 -0.1725
22808SOL    HW269003   1.498   1.837   0.792 -0.0170  1.7764  0.9037
22809SOL     OW69004   6.999   3.175   0.729 -0.0557 -0.2744 -0.4449
22809SOL    HW169005   7.074   3.232   0.743 -1.7398  1.4945  2.2590
22809SOL    HW269006   6.975   3.189   0.637  0.8086  1.8233 -0.4004
22810SOL     OW69007   5.438   2.464   3.999  0.5840 -0.9379 -0.1401
22810SOL    HW169008   5.357   2.513   4.010  0.6033 -1.1842  1.3598
22810SOL    HW269009   5.507   2.529   4.006  0.5358 -0.7603 -1.1979
22811SOL     OW69010   2.758   3.004   9.613 -0.0423  1.0134 -0.0128
22811SOL    HW169011   2.836   3.018   9.665 -0.0415 -0.2216  0.3599
22811SOL    HW269012   2.694   3.066   9.647 -0.2294 -0.1344  1.8952
22812SOL     OW69013   6.532   9.535   2.671  0.5523  0.0170 -0.0722
22812SOL    HW169014   6.533   9.619   2.715  0.2084 -0.7957  1.5498
22812SOL    HW269015   6.557   9.555   2.580  1.8318  1.6575  0.5948
22813SOL     OW69016   0.663   0.766   9.311 -0.2957  0.9122  0.3848
22813SOL    HW169017   0.570   0.782   9.328 -0.5435  1.4199 -1.2711
22813SOL    HW269018   0.709   0.818   9.377 -1.1843  2.7063 -0.3338
22814SOL     OW69019   8.865   5.475   4.059  0.0503 -0.3518  0.4357
22814SOL    HW169020   8.804   5.401   4.053 -1.4395  0.5129  3.0872
22814SOL    HW269021   8.811   5.552   4.041  0.5793  0.3537  1.7424
22815SOL     OW69022   4.795   2.069   1.736  0.3948  0.3212 -0.1447
22815SOL    HW169023   4.748   2.046   1.656  1.4428  0.2522 -0.7575
22815SOL    HW269024   4.828   1.986   1.769  1.4050  0.5404 -0.5759
22816SOL     OW69025   5.174   9.363   0.034 -0.7941 -0.1606 -0.6662
22816SOL    HW169026   5.190   9.328   0.121 -0.2186  0.4117 -0.5403
22816SOL    HW269027   5.215   9.449   0.034 -0.9226 -0.0895 -1.4522
22817SOL     OW69028   1.308   8.396   3.318 -0.1988 -0.4407 -0.4236
22817SOL    HW169029   1.246   8.422   3.386 -0.6408 -1.1247 -0.5657
22817SOL    HW269030   1.388   8.445   3.340 -0.9747  0.9977 -0.6377
22818SOL     OW69031   0.586   2.701   2.318 -0.0019 -0.1112 -0.4967
22818SOL    HW169032   0.680   2.688   2.317  0.1693  0.7442  1.1237
22818SOL    HW269033   0.573   2.788   2.279 -0.0979 -0.1116 -0.4669
22819SOL     OW69034   9.170   3.014   3.794  0.4028  0.2916  0.1382
22819SOL    HW169035   9.115   3.054   3.726 -0.5328 -0.0366  0.6834
22819SOL    HW269036   9.141   3.054   3.875 -0.2319 -1.1094  0.6413
22820SOL     OW69037   6.423   8.781   8.596  1.0475 -0.4379 -0.0252
22820SOL    HW169038   6.406   8.705   8.651  0.3558 -0.0389  0.3322
22820SOL    HW269039   6.518   8.781   8.583  1.0661 -1.2658  0.0983
22821SOL     OW69040   7.559   6.862   0.212  0.7767 -0.1172  0.7192
22821SOL    HW169041   7.573   6.831   0.302 -1.2098  0.7451  1.3689
22821SOL    HW269042   7.467   6.887   0.208  0.6115 -0.8207 -1.8020
22822SOL     OW69043   0.923   8.927   1.094  0.1160 -0.0531 -0.0193
22822SOL    HW169044   0.839   8.915   1.048 -0.2131 -1.4726  0.8865
22822SOL    HW269045   0.902   8.985   1.167  0.3578  1.1332 -0.8596
22823SOL     OW69046   9.352   1.108   5.400 -0.0577  0.5658  0.0907
22823SOL    HW169047   9.406   1.123   5.322 -2.6626  0.3581 -1.9166
22823SOL    HW269048   9.390   1.031   5.442  1.7734  1.0306 -0.6118
22824SOL     OW69049   4.926   9.523   5.823  0.3787 -0.0498 -0.4755
22824SOL    HW169050   4.862   9.474   5.874  1.0837 -0.5046 -0.0315
22824SOL    HW269051   4.980   9.457   5.781  0.1456  0.3248 -1.3966
22825SOL     OW69052   2.980   2.058   6.496 -0.3757  0.0081 -0.8238
22825SOL    HW169053   2.929   2.105   6.431  1.1792  1.8883 -0.7670
22825SOL    HW269054   3.017   1.983   6.449 -2.1835 -0.7356 -1.1352
22826SOL     OW69055   3.816   6.105   1.096  0.4180  0.4067  0.1075
22826SOL    HW169056   3.775   6.033   1.049 -1.9762  0.7091  1.5541
22826SOL    HW269057   3.801   6.085   1.189  1.2664  1.8870  0.6037
22827SOL     OW69058   0.516   1.422   2.063 -0.2684 -0.0855 -0.4400
22827SOL    HW169059   0.511   1.337   2.105 -2.3834  1.1009  2.0235
22827SOL    HW269060   0.606   1.451   2.078  0.2670 -1.5675 -0.6806
22828SOL     OW69061   4.709   0.526   6.939 -0.6546  0.5736 -0.2153
22828SOL    HW169062   4.782   0.471   6.912 -0.5968  1.4258 -1.9158
22828SOL    HW269063   4.632   0.484   6.901 -0.9217  0.3629  0.5305
22829SOL     OW69064   9.014   0.247   6.099  0.3100 -0.5028  0.6995
22829SOL    HW169065   8.946   0.207   6.045  1.1240 -0.4649 -0.3789
22829SOL    HW269066   8.971   0.322   6.141  0.0215  0.4000 -1.1088
22830SOL     OW69067   5.499   9.109   4.065 -0.0396  0.1432  0.4338
22830SOL    HW169068   5.535   9.097   4.153 -1.1356 -1.1984  0.7316
22830SOL    HW269069   5.460   9.025   4.043  1.2151  0.0804 -1.8503
22831SOL     OW69070   6.568   3.844   2.160 -0.4006 -0.3426 -0.1588
22831SOL    HW169071   6.488   3.799   2.188 -0.3842 -0.2480  0.0457
22831SOL    HW269072   6.595   3.893   2.238  1.1152 -2.1599  0.5192
22832SOL     OW69073   8.463   6.771   8.663 -0.5593 -0.5292  0.6479
22832SOL    HW169074   8.402   6.702   8.689 -1.2975  1.0371  3.5878
22832SOL    HW269075   8.407   6.840   8.627 -0.1138 -0.5235 -0.0343
22833SOL     OW69076   6.031   3.168   0.548  0.4438 -0.0089 -0.5797
22833SOL    HW169077   6.019   3.084   0.593 -1.2581  0.2106 -0.5469
22833SOL    HW269078   5.944   3.191   0.517  1.1626  1.0056 -1.9530
22834SOL     OW69079   1.491   2.795   7.600 -0.3592 -0.2745 -0.2963
22834SOL    HW169080   1.581   2.775   7.626  1.0041  2.0409 -2.7664
22834SOL    HW269081   1.448   2.709   7.596  2.3517 -1.7102 -1.1411
22835SOL     OW69082   0.256   4.592   5.551  0.0352  0.4805 -0.3591
22835SOL    HW169083   0.244   4.507   5.509  1.9426  0.0620 -0.1473
22835SOL    HW269084   0.333   4.629   5.507  1.6928  0.3293  2.2414
22836SOL     OW69085   7.083   4.658   2.164  0.2085 -0.1491  0.3276
22836SOL    HW169086   7.142   4.733   2.168 -1.1293  0.9547  0.3027
22836SOL    HW269087   7.138   4.585   2.138  1.7086  0.6563  1.0908
22837SOL     OW69088   5.282   8.090   2.804  0.1349  0.0597 -0.4162
22837SOL    HW169089   5.225   8.083   2.728 -0.8098  1.5302  0.0965
22837SOL    HW269090   5.314   8.181   2.802  1.5806 -0.4049 -0.0622
22838SOL     OW69091   8.260   8.559   2.717 -0.3456  0.2028 -0.0940
22838SOL    HW169092   8.290   8.566   2.626 -2.8910 -0.4463 -1.0939
22838SOL    HW269093   8.339   8.567   2.769  1.1451  1.2492 -2.3365
22839SOL     OW69094   6.289   6.386   1.439  0.5003 -0.8790 -0.4554
22839SOL    HW169095   6.196   6.393   1.417  0.4747 -1.3824 -0.5292
22839SOL    HW269096   6.309   6.292   1.430  0.4601 -1.1629  1.7769
22840SOL     OW69097   1.294   0.015   7.828 -0.7580  0.0380  0.2310
22840SOL    HW169098   1.255  -0.056   7.777 -0.7832 -0.3572  0.7892
22840SOL    HW269099   1.324   0.077   7.763  0.2544 -0.9996 -0.3214
22841SOL     OW69100   6.280   3.463   5.593  0.1068 -0.2060 -0.0238
22841SOL    HW169101   6.302   3.555   5.603 -1.2100 -0.0112  1.3077
22841SOL    HW269102   6.289   3.446   5.499 -2.2355  1.9775 -0.7366
22842SOL     OW69103   9.953   9.941   4.721 -0.7247 -0.1906  0.2484
22842SOL    HW169104   9.978  10.000   4.649 -2.4873  0.6557  0.2837
22842SOL    HW269105   9.925   9.861   4.676 -1.1902  0.0922  0.0334
22843SOL     OW69106   5.069   3.543   4.911  0.3176 -0.0968  0.3018
22843SOL    HW169107   5.095   3.556   4.820 -4.5248  0.3787 -1.2965
22843SOL    HW269108   5.079   3.630   4.950  0.6905  0.1361 -0.2830
22844SOL     OW69109   7.535   0.212   2.777 -0.1539  0.1607 -0.1528
22844SOL    HW169110   7.544   0.270   2.701  0.0346  0.6659  0.2485
22844SOL    HW269111   7.571   0.129   2.748  0.7750  0.6143 -0.3313
22845SOL     OW69112   9.722   0.968   3.172 -0.1550  0.2565 -0.6719
22845SOL    HW169113   9.702   1.060   3.151  0.8248  0.7794  0.5739
22845SOL    HW269114   9.809   0.953   3.135  0.7676  0.6218  1.2162
22846SOL     OW69115   0.667   9.093   5.426  0.0034  0.5258  0.4417
22846SOL    HW169116   0.696   9.144   5.502  0.0300  0.2910  0.5904
22846SOL    HW269117   0.650   9.006   5.461 -1.8616  0.8987  0.5654
22847SOL     OW69118   5.896   5.578   0.317 -0.0563  0.2106 -0.2871
22847SOL    HW169119   5.965   5.585   0.382 -1.1559  0.3859  0.9007
22847SOL    HW269120   5.942   5.576   0.233  1.4414 -0.9351  0.5208
22848SOL     OW69121   4.059   8.637   1.061 -0.2199  0.0681  0.3956
22848SOL    HW169122   3.987   8.585   1.024  0.0223 -1.1080  1.5224
22848SOL    HW269123   4.016   8.703   1.115 -0.4789  0.1765  0.0651
22849SOL     OW69124   2.870   3.397   8.917  0.3205 -0.4771 -0.5410
22849SOL    HW169125   2.951   3.388   8.866  0.9475  1.2957  0.0552
22849SOL    HW269126   2.808   3.337   8.875  1.2359 -0.1422 -2.4897
22850SOL     OW69127   9.661   7.097   9.308  0.2551 -0.0241 -0.5583
22850SOL    HW169128   9.620   7.095   9.394  0.9861 -2.1566 -0.2179
22850SOL    HW269129   9.599   7.052   9.250  1.3430 -1.8780 -0.3523
22851SOL     OW69130   4.504   3.780   5.133 -0.1811 -0.0146  0.3390
22851SOL    HW169131   4.491   3.866   5.094 -0.0960 -0.5794 -0.9827
22851SOL    HW269132   4.594   3.782   5.166 -0.5138  0.7382  1.2298
22852SOL     OW69133   0.575   6.156   7.365 -0.2595  0.0957  0.2269
22852SOL    HW169134   0.517   6.231   7.381  0.2901  0.5119  0.2886
22852SOL    HW269135   0.559   6.132   7.274  0.5819  1.1934 -0.2368
22853SOL     OW69136   7.777   0.576   1.223  0.4205  0.2472 -0.4933
22853SOL    HW169137   7.722   0.533   1.157 -1.2406  4.4903 -2.2422
22853SOL    HW269138   7.847   0.616   1.172  1.6038  0.0786  0.9534
22854SOL     OW69139   1.826   1.458   1.122 -0.0547  0.3716 -1.4795
22854SOL    HW169140   1.739   1.432   1.092  0.5277  0.6266 -3.5118
22854SOL    HW269141   1.887   1.415   1.062  1.1221  2.1093 -1.6307
22855SOL     OW69142   6.319   3.528   1.012 -0.2177  0.2343 -0.0389
22855SOL    HW169143   6.312   3.613   0.968  0.0263  0.6788  0.7568
22855SOL    HW269144   6.402   3.492   0.981 -0.1254  0.4738 -0.0708
22856SOL     OW69145   0.434   9.919   4.367 -0.1445 -0.4550  0.5492
22856SOL    HW169146   0.448   9.971   4.289  0.3587 -1.4856 -0.0676
22856SOL    HW269147   0.504   9.944   4.426  0.4325 -0.8366  0.0329
22857SOL     OW69148   6.404   8.732   2.406 -0.8622  0.1314 -0.3516
22857SOL    HW169149   6.460   8.678   2.461 -1.3718  0.5983  0.6556
22857SOL    HW269150   6.348   8.670   2.360 -0.1053 -0.2900 -0.7285
22858SOL     OW69151   3.884   8.784   9.793  0.3139 -0.7168  0.5502
22858SOL    HW169152   3.848   8.793   9.705  0.5061  1.9593  0.6530
22858SOL    HW269153   3.809   8.763   9.848 -0.7766  2.2521  0.3768
22859SOL     OW69154   8.850   0.424   8.361 -0.0012 -0.0314  0.2433
22859SOL    HW169155   8.836   0.437   8.267  0.9639 -2.3661 -0.2998
22859SOL    HW269156   8.765   0.439   8.400 -0.6734 -0.0367 -1.1542
22860SOL     OW69157   8.222   7.622   1.564 -0.7430 -0.6833  0.2216
22860SOL    HW169158   8.147   7.653   1.513  0.6899  2.1514 -0.3773
22860SOL    HW269159   8.221   7.677   1.642  0.4126 -0.9778  0.4569
22861SOL     OW69160   9.822   4.762   3.206 -0.2375  0.3779 -0.0565
22861SOL    HW169161   9.822   4.782   3.113  0.6983  2.0309  0.2680
22861SOL    HW269162   9.912   4.736   3.226 -0.4609 -0.1030  0.3621
22862SOL     OW69163   3.378   4.992   4.793 -0.1789 -0.4002  0.2247
22862SOL    HW169164   3.287   4.962   4.795 -1.1234  2.1866 -0.2966
22862SOL    HW269165   3.375   5.081   4.828  1.7856  0.5847 -1.8544
22863SOL     OW69166   3.480   2.477   8.876  0.4934  0.1808  0.0202
22863SOL    HW169167   3.561   2.427   8.879 -0.0146 -0.6281  0.9377
22863SOL    HW269168   3.496   2.551   8.935 -0.2958 -1.4134  2.4059
22864SOL     OW69169   6.387   5.248   8.501 -1.0738 -0.2414 -0.1404
22864SOL    HW169170   6.443   5.326   8.500 -1.6947  0.2690  1.5143
22864SOL    HW269171   6.443   5.179   8.537 -1.0719 -0.0808  0.1713
22865SOL     OW69172   6.487   4.329   1.063  0.6841 -0.0584  0.3946
22865SOL    HW169173   6.482   4.347   0.969  2.1574 -0.3596  0.2290
22865SOL    HW269174   6.529   4.406   1.101 -1.5173  0.8787  1.1354
22866SOL     OW69175   4.570   4.985   9.299 -0.3732  0.1286  0.1690
22866SOL    HW169176   4.544   4.903   9.259 -0.3400  0.6186 -0.8987
22866SOL    HW269177   4.660   5.000   9.269 -0.1588  0.2436  0.8590
22867SOL     OW69178   2.073   6.501   0.885 -0.0704  0.2136  0.4659
22867SOL    HW169179   2.098   6.535   0.799 -0.3479  1.0599  0.7167
22867SOL    HW269180   2.100   6.409   0.883 -2.3198 -0.4942 -1.4512
22868SOL     OW69181   5.690   6.193   2.984 -0.3786  0.3225  0.2841
22868SOL    HW169182   5.684   6.255   2.911  0.2950 -0.7441 -0.6933
22868SOL    HW269183   5.612   6.138   2.975 -0.1811  0.0505  0.2554
22869SOL     OW69184   1.565   8.189   1.336 -0.0006  0.1349  0.1723
22869SOL    HW169185   1.543   8.096   1.344 -1.5121  0.3794 -0.7403
22869SOL    HW269186   1.515   8.231   1.406  2.4799  0.0778  2.1319
22870SOL     OW69187   9.141   6.907   5.702  0.3799 -0.0524  0.0247
22870SOL    HW169188   9.115   6.993   5.670  1.8804  0.1707 -0.6777
22870SOL    HW269189   9.160   6.921   5.795 -1.1566 -0.0545  0.3595
22871SOL     OW69190   6.142   1.392   6.195  0.1310 -1.2058  0.2548
22871SOL    HW169191   6.213   1.332   6.172 -1.0034 -1.9864 -1.4511
22871SOL    HW269192   6.129   1.445   6.117  0.5813  0.7836  1.4678
22872SOL     OW69193   3.219   2.415   6.292 -0.1691 -0.6219 -0.2467
22872SOL    HW169194   3.223   2.402   6.387 -1.5613 -0.4117 -0.1391
22872SOL    HW269195   3.292   2.363   6.258 -0.0056 -1.1701  0.8885
22873SOL     OW69196   2.335   9.109   2.425  0.3990 -0.2762  0.1838
22873SOL    HW169197   2.430   9.103   2.436  0.4211 -0.2614  0.0026
22873SOL    HW269198   2.299   9.076   2.508  0.4964 -2.9486 -0.7342
22874SOL     OW69199   2.020   9.837   9.510 -0.3301  0.0899 -0.3081
22874SOL    HW169200   1.942   9.870   9.466 -0.1715 -1.6100 -2.0359
22874SOL    HW269201   2.012   9.741   9.505  0.7677 -0.1491  1.5280
22875SOL     OW69202   7.081   2.751   7.741 -0.1319 -0.0973 -0.6406
22875SOL    HW169203   7.156   2.712   7.785 -0.3625 -1.1867 -1.1676
22875SOL    HW269204   7.099   2.844   7.739  1.1397 -0.3299 -0.6250
22876SOL     OW69205   3.953   9.201   2.259  0.1265 -0.8814 -0.3696
22876SOL    HW169206   3.900   9.206   2.338 -1.7257 -1.8227 -1.4788
22876SOL    HW269207   4.042   9.220   2.289 -0.8689  1.4689  1.4598
22877SOL     OW69208   3.087   2.686   9.370  0.0302 -0.3516 -0.3323
22877SOL    HW169209   3.168   2.636   9.367  0.9831  1.0592  0.7096
22877SOL    HW269210   3.076   2.709   9.462  0.3827  2.4658 -0.9154
22878SOL     OW69211   0.048   4.218   5.989 -0.3392  0.4362 -0.1154
22878SOL    HW169212  -0.019   4.283   6.010 -1.0414  0.4221 -2.1786
22878SOL    HW269213   0.001   4.136   5.983  0.3176 -0.0483  1.0170
22879SOL     OW69214   7.120   4.299   6.051 -0.0801 -0.4672 -0.0209
22879SOL    HW169215   7.143   4.324   5.962 -1.0273  3.3642  0.6036
22879SOL    HW269216   7.026   4.279   6.047 -0.9780  2.9142  0.4356
22880SOL     OW69217   9.010   5.129   9.022  0.0764  0.0279 -0.0508
22880SOL    HW169218   9.018   5.034   9.021 -1.7570 -0.1821  1.0697
22880SOL    HW269219   8.998   5.153   8.930 -2.6920 -1.2233 -0.1376
22881SOL     OW69220   1.043   0.987   2.722 -0.0480  0.7887 -0.1569
22881SOL    HW169221   1.098   1.020   2.794 -0.9207  0.6200  0.6010
22881SOL    HW269222   0.983   0.926   2.764 -1.7323  1.9893 -0.7215
22882SOL     OW69223   9.170   9.055   3.971  0.0559 -0.1684  0.1807
22882SOL    HW169224   9.228   9.053   4.047  0.5352 -0.9184 -0.1957
22882SOL    HW269225   9.222   9.092   3.901  0.2850 -1.3657 -0.3076
22883SOL     OW69226   2.161   8.759   0.671 -0.4480 -0.6324  0.2621
22883SOL    HW169227   2.237   8.706   0.694  2.4809  2.6325 -0.9675
22883SOL    HW269228   2.091   8.727   0.727  0.9642 -5.6195 -0.3619
22884SOL     OW69229   4.845   9.581   9.488  0.1846  0.1222  0.9631
22884SOL    HW169230   4.755   9.577   9.456  0.1792 -3.3542  1.0469
22884SOL    HW269231   4.896   9.533   9.423  1.7570  0.7434  1.6739
22885SOL     OW69232   7.524   7.054   9.780 -0.2332  0.0033 -0.0867
22885SOL    HW169233   7.433   7.031   9.803 -0.3413  1.2957  0.9125
22885SOL    HW269234   7.577   7.004   9.842 -0.3320  0.1714  0.1371
22886SOL     OW69235   3.031   7.182   6.031  0.0112  0.1794 -0.1176
22886SOL    HW169236   3.094   7.110   6.027 -1.5541 -1.4861  2.2266
22886SOL    HW269237   2.980   7.174   5.951  0.4006 -0.8191 -0.2780
22887SOL     OW69238   9.600   1.660   1.995  0.3878 -0.5118 -0.9311
22887SOL    HW169239   9.666   1.717   2.034  0.4470 -0.4438 -1.1250
22887SOL    HW269240   9.648   1.582   1.967  0.3102 -0.6493 -0.6834
22888SOL     OW69241   9.527   8.901   8.472 -0.0141  0.1768 -0.1789
22888SOL    HW169242   9.489   8.819   8.440 -0.4163  0.3756 -0.2176
22888SOL    HW269243   9.621   8.885   8.473 -0.0451 -0.0775 -0.7678
22889SOL     OW69244   0.481   1.940   4.664  0.5254 -0.1429  0.1231
22889SOL    HW169245   0.554   1.889   4.697  0.3477 -0.3577  0.1907
22889SOL    HW269246   0.502   2.030   4.687  0.0219 -0.3632  1.5733
22890SOL     OW69247   6.613   9.595   9.566  0.0810 -0.5133  0.1624
22890SOL    HW169248   6.548   9.630   9.505 -0.8194 -0.1927  1.2673
22890SOL    HW269249   6.680   9.663   9.572 -0.1841 -0.2395  0.0624
22891SOL     OW69250   8.693   6.115   6.198 -0.3422 -0.0116 -0.0904
22891SOL    HW169251   8.687   6.143   6.106  0.5361 -0.0564 -0.1716
22891SOL    HW269252   8.753   6.179   6.238 -1.0643  0.2705  0.5609
22892SOL     OW69253   5.917   0.542   5.017 -0.3685  0.4005  0.2627
22892SOL    HW169254   5.904   0.594   4.938 -0.1478 -0.5418 -0.4140
22892SOL    HW269255   5.916   0.451   4.986  0.6658  0.0449  1.2016
22893SOL     OW69256   2.109   2.843   9.393  0.2504  0.4656  0.4451
22893SOL    HW169257   2.068   2.887   9.467  0.4300  0.4213  0.5722
22893SOL    HW269258   2.181   2.902   9.367 -0.2144  0.8017 -0.1105
22894SOL     OW69259   6.503   4.085   3.669  0.7054 -0.2659 -0.0062
22894SOL    HW169260   6.459   4.156   3.622  0.1870  0.0412  0.9259
22894SOL    HW269261   6.464   4.005   3.633  0.1523 -0.0281  0.0607
22895SOL     OW69262   0.921   6.549   7.493 -0.3700  0.2912  0.2583
22895SOL    HW169263   0.896   6.525   7.582 -3.6756  0.6492 -0.4496
22895SOL    HW269264   0.911   6.468   7.442 -1.7752  0.8097 -0.3361
22896SOL     OW69265   4.316   6.062   3.166  0.1251 -0.4043  0.5382
22896SOL    HW169266   4.410   6.077   3.155  0.7143 -2.3714  2.4226
22896SOL    HW269267   4.305   6.038   3.258 -2.3765  0.6049  0.5979
22897SOL     OW69268   2.329   8.706   6.401  0.4019  0.1710  0.2539
22897SOL    HW169269   2.338   8.648   6.325  0.4073 -0.2544  0.5797
22897SOL    HW269270   2.237   8.733   6.400  0.1888 -0.5255  0.5944
22898SOL     OW69271   9.253   1.469   2.282 -0.1100  0.5660 -0.0318
22898SOL    HW169272   9.262   1.478   2.377 -0.9148  0.5520  0.0541
22898SOL    HW269273   9.339   1.492   2.247 -0.4691  3.1319  0.5534
22899SOL     OW69274   8.734   7.235   9.018  0.0814  0.4112  0.8646
22899SOL    HW169275   8.770   7.235   8.930  1.8333 -0.3138  1.5455
22899SOL    HW269276   8.640   7.251   9.005  0.2169 -0.1439 -1.1463
22900SOL     OW69277   1.107   3.994   0.532  0.2538 -0.1126  0.1324
22900SOL    HW169278   1.196   3.962   0.518  1.4286  1.4978  2.9651
22900SOL    HW269279   1.088   3.974   0.624 -2.0825  0.1422 -0.2278
22901SOL     OW69280   7.607   1.684   3.941 -1.2875  0.1783  0.5371
22901SOL    HW169281   7.634   1.604   3.985 -0.4144 -1.4184 -2.5671
22901SOL    HW269282   7.520   1.664   3.906 -0.6292  0.1228 -1.1576
22902SOL     OW69283   1.231   6.271   4.427  0.3068 -0.1468 -0.4345
22902SOL    HW169284   1.267   6.236   4.509 -0.9632  0.9385  0.6430
22902SOL    HW269285   1.293   6.340   4.402  1.2013 -1.1030 -0.9264
22903SOL     OW69286   3.465   1.535   3.654 -0.1389 -0.6273 -0.3418
22903SOL    HW169287   3.444   1.589   3.578 -0.7987  0.0301  0.2984
22903SOL    HW269288   3.560   1.538   3.659  0.0262 -1.6929 -1.8631
22904SOL     OW69289   5.239   2.572   7.846 -0.8825  0.4106 -0.1892
22904SOL    HW169290   5.153   2.539   7.820  0.0904 -1.4367 -1.2982
22904SOL    HW269291   5.287   2.580   7.763  1.0797 -1.9444  0.6004
22905SOL     OW69292   6.575   8.245   9.562 -1.0324 -0.0290 -0.0484
22905SOL    HW169293   6.488   8.233   9.602 -2.3450 -0.4365 -2.7798
22905SOL    HW269294   6.611   8.322   9.606 -3.0610  0.5226  0.7627
22906SOL     OW69295   8.816   5.321   3.131 -0.2898  0.6026  0.0056
22906SOL    HW169296   8.883   5.377   3.090  2.3126 -0.2630  2.7926
22906SOL    HW269297   8.747   5.382   3.156  0.8546  2.0331 -0.1796
22907SOL     OW69298   5.612   7.174   3.726  0.4136 -0.0586  0.1241
22907SOL    HW169299   5.630   7.081   3.717  0.8749  0.0402 -0.0146
22907SOL    HW269300   5.579   7.184   3.815 -1.5952 -0.6473 -0.4944
22908SOL     OW69301   6.986   4.823   9.061  0.1629  0.2870  0.3858
22908SOL    HW169302   6.917   4.883   9.034  0.7341  0.3284 -1.0773
22908SOL    HW269303   6.996   4.763   8.987  1.2714 -0.1040  0.8276
22909SOL     OW69304   9.192   6.559   9.185  0.0155  0.0673  0.1548
22909SOL    HW169305   9.116   6.615   9.168  0.6383  1.4244  1.6258
22909SOL    HW269306   9.241   6.560   9.103 -0.6914  0.5555 -0.2792
22910SOL     OW69307   8.199   0.653   6.775  0.3569  0.2786 -0.1981
22910SOL    HW169308   8.220   0.565   6.807 -1.5593 -1.3142 -2.8862
22910SOL    HW269309   8.280   0.685   6.736  0.5777 -1.2014 -0.9984
22911SOL     OW69310   5.402   6.484   0.798 -0.3659  0.3744 -0.1043
22911SOL    HW169311   5.461   6.435   0.855  0.4576  1.7994  0.3191
22911SOL    HW269312   5.362   6.549   0.855 -0.6164  0.9006 -0.8665
22912SOL     OW69313   9.714   6.363   8.990 -0.0900 -0.3504 -0.3724
22912SOL    HW169314   9.720   6.371   9.086 -0.4722 -0.4465 -0.3398
22912SOL    HW269315   9.626   6.393   8.969  0.1615  0.1475 -0.7478
22913SOL     OW69316   5.884   0.221   0.915  0.2960 -0.0082  0.4355
22913SOL    HW169317   5.839   0.299   0.947  0.2230 -0.3320  1.1420
22913SOL    HW269318   5.894   0.236   0.821 -2.0858 -0.3232  0.0616
22914SOL     OW69319   7.112   8.516   8.679 -0.0716  0.1728  0.0385
22914SOL    HW169320   7.190   8.520   8.624 -0.5683  1.9225 -0.6189
22914SOL    HW269321   7.098   8.422   8.694  2.6817 -0.1836  1.0005
22915SOL     OW69322   8.823   2.059   9.434  0.3969  0.5529 -0.4160
22915SOL    HW169323   8.859   2.127   9.491  2.2415  0.6950 -1.6548
22915SOL    HW269324   8.866   1.979   9.463 -1.5703 -0.1296  0.8618
22916SOL     OW69325   0.984   2.151   3.401  0.2515 -0.2200 -0.5647
22916SOL    HW169326   0.955   2.095   3.329  0.7048 -1.3198  0.0830
22916SOL    HW269327   1.079   2.159   3.387  0.0891  1.0172 -1.0688
22917SOL     OW69328   3.446   6.386   3.321 -0.1842  0.0887 -0.5524
22917SOL    HW169329   3.486   6.416   3.239  2.2615 -1.2386  0.0264
22917SOL    HW269330   3.405   6.463   3.358 -0.5653  0.9239 -2.5769
22918SOL     OW69331   4.395   3.949   1.834  0.1049 -0.0899 -0.0268
22918SOL    HW169332   4.345   4.005   1.894  0.7685 -0.0309  0.4839
22918SOL    HW269333   4.483   3.986   1.835  0.0490  0.1223 -1.3182
22919SOL     OW69334   1.065   7.592   6.840  0.8041  0.2029  0.1331
22919SOL    HW169335   0.979   7.621   6.870  0.4941 -0.9089  0.3594
22919SOL    HW269336   1.125   7.621   6.909  0.6034  0.8479  0.0478
22920SOL     OW69337   3.011   5.991   5.432 -0.6893 -0.7832  0.2370
22920SOL    HW169338   3.050   6.052   5.495  0.5155 -2.1769  0.8999
22920SOL    HW269339   2.955   5.934   5.486 -0.3413 -1.4284 -0.0700
22921SOL     OW69340   7.908   6.830   0.627  0.0754  0.5709  0.4680
22921SOL    HW169341   7.836   6.801   0.682 -1.2747  0.1093 -1.4218
22921SOL    HW269342   7.934   6.915   0.662 -0.2784  0.0237  2.1527
22922SOL     OW69343   6.312   2.811   5.487 -0.7290  0.4970 -0.1097
22922SOL    HW169344   6.315   2.834   5.394  0.6733  0.2677 -0.1417
22922SOL    HW269345   6.281   2.720   5.488  1.3590 -0.2825 -0.5510
22923SOL     OW69346   2.753   2.863   8.432  0.0979  0.3390 -0.1564
22923SOL    HW169347   2.731   2.907   8.350  0.6693  1.6080  0.3494
22923SOL    HW269348   2.676   2.810   8.452  0.0206 -0.1465 -1.5949
22924SOL     OW69349   0.493   9.204   7.239 -0.0929  0.2709 -0.3605
22924SOL    HW169350   0.572   9.176   7.193 -0.4630  0.2730 -1.0156
22924SOL    HW269351   0.467   9.128   7.291 -0.9822 -0.5885 -1.9757
22925SOL     OW69352   2.847   7.938   9.965  0.1291  0.7133 -0.3019
22925SOL    HW169353   2.768   7.892   9.994  0.9890  0.1549  1.2636
22925SOL    HW269354   2.815   8.003   9.902 -1.4911  0.0831 -0.1757
22926SOL     OW69355   8.898   6.905   1.114 -0.0692 -0.6361  0.5217
22926SOL    HW169356   8.986   6.868   1.122  1.4423  2.6368  0.7305
22926SOL    HW269357   8.899   6.952   1.031 -1.7259 -0.6408  0.4564
22927SOL     OW69358   5.830   1.132   1.821  0.4197 -0.0259 -0.2506
22927SOL    HW169359   5.846   1.162   1.910 -2.0322  1.7014 -0.2673
22927SOL    HW269360   5.879   1.193   1.766  0.1366  0.3126 -0.1296
22928SOL     OW69361   9.828   0.190   9.718  0.2423  0.3415 -0.3805
22928SOL    HW169362   9.779   0.131   9.776 -1.5810  1.5397 -0.5976
22928SOL    HW269363   9.844   0.138   9.639  0.6070 -0.5380  0.2609
22929SOL     OW69364   8.724   3.303   7.758  0.2433  0.4159  0.0327
22929SOL    HW169365   8.757   3.323   7.670 -0.9774  0.6218 -0.3980
22929SOL    HW269366   8.775   3.358   7.816 -0.8442  2.4273 -0.8210
22930SOL     OW69367   2.576   9.894   0.150 -0.5029 -0.1971 -0.6052
22930SOL    HW169368   2.597   9.818   0.094 -0.9393  0.6745 -2.0099
22930SOL    HW269369   2.507   9.862   0.208  0.3196 -1.2817 -0.1803
22931SOL     OW69370   5.311   6.047   1.663 -0.6199 -0.0667 -0.1748
22931SOL    HW169371   5.296   6.124   1.718 -1.1153  0.1108 -0.5539
22931SOL    HW269372   5.244   6.052   1.595 -0.1469 -0.3970 -0.6757
22932SOL     OW69373   9.224   1.827   1.520  0.3567 -0.1634  0.8379
22932SOL    HW169374   9.235   1.896   1.455 -0.4375 -0.7098  0.0993
22932SOL    HW269375   9.286   1.759   1.492 -0.4771 -0.6881  0.2330
22933SOL     OW69376   0.916   2.658   5.384 -1.0482 -0.5557 -0.2602
22933SOL    HW169377   1.011   2.654   5.374 -1.0075 -1.0116  0.2610
22933SOL    HW269378   0.901   2.640   5.477 -1.4138  3.2730  0.5905
22934SOL     OW69379   0.576   7.178   9.842  0.2282 -0.0888  0.1216
22934SOL    HW169380   0.583   7.200   9.935  0.8737 -1.1006  0.3262
22934SOL    HW269381   0.600   7.085   9.837  1.1320  0.1883 -1.1811
22935SOL     OW69382   3.119   1.260   2.565 -0.4323 -0.2560  0.4559
22935SOL    HW169383   3.082   1.183   2.521 -0.1666  1.4324 -3.1114
22935SOL    HW269384   3.055   1.281   2.633  0.0487 -4.1649  2.3902
22936SOL     OW69385   8.524   8.839   3.204 -0.2263  0.4289  0.3551
22936SOL    HW169386   8.543   8.924   3.243  2.4897  0.3219 -0.5447
22936SOL    HW269387   8.462   8.857   3.133 -1.4511  1.2709  1.5864
22937SOL     OW69388   5.635   3.533   6.942 -0.0432 -0.0416 -0.1205
22937SOL    HW169389   5.654   3.523   7.035 -1.3874 -1.5109  0.0519
22937SOL    HW269390   5.696   3.474   6.899  1.7213  1.8781 -0.3545
22938SOL     OW69391   8.064   6.575   5.595  0.1608  0.1289  0.0536
22938SOL    HW169392   8.099   6.629   5.666 -1.2739  2.3056 -0.7790
22938SOL    HW269393   8.071   6.486   5.628  2.1268  0.8171  1.7562
22939SOL     OW69394   3.756   8.925   0.116 -0.4410 -0.5353 -0.4894
22939SOL    HW169395   3.666   8.893   0.119 -0.9984  0.7771 -2.1119
22939SOL    HW269396   3.754   9.006   0.167 -0.1654 -0.4866 -0.5573
22940SOL     OW69397   7.322   4.352   0.044  0.5614 -0.9136 -0.1447
22940SOL    HW169398   7.384   4.338  -0.027  0.9225  0.8365 -0.2210
22940SOL    HW269399   7.241   4.311   0.014  1.2370 -1.8331 -0.7400
22941SOL     OW69400   8.546   8.275   7.767 -0.0903  0.5226  0.2718
22941SOL    HW169401   8.595   8.355   7.750  1.5554 -0.6116 -0.5800
22941SOL    HW269402   8.590   8.235   7.842 -1.0424  0.5078  0.8395
22942SOL     OW69403   2.685   4.471   9.603 -0.1938  0.3224  0.0800
22942SOL    HW169404   2.748   4.542   9.615  0.3099  0.2268 -1.7031
22942SOL    HW269405   2.730   4.393   9.636 -0.3997  0.6570  1.1931
22943SOL     OW69406   8.808   4.208   1.635  0.1177 -0.4707  0.1237
22943SOL    HW169407   8.762   4.216   1.552 -0.4858  2.4572  0.6046
22943SOL    HW269408   8.886   4.263   1.625  0.2938 -0.4595  1.3061
22944SOL     OW69409   6.742   6.789   2.413  0.2183  0.2087  0.3319
22944SOL    HW169410   6.691   6.709   2.425 -0.3662  0.5556  0.1683
22944SOL    HW269411   6.677   6.857   2.395  0.7577  0.5600 -0.3553
22945SOL     OW69412   1.940   7.263   9.979 -0.1648  0.0393  0.1086
22945SOL    HW169413   2.014   7.210  10.008  1.9158  1.8555 -1.4130
22945SOL    HW269414   1.880   7.202   9.937  1.5460 -1.2781 -0.5135
22946SOL     OW69415   5.946   3.191   4.870  0.6874  0.3296  0.2119
22946SOL    HW169416   5.946   3.277   4.828  0.6606 -0.6849 -2.0526
22946SOL    HW269417   5.858   3.157   4.855  1.7835 -1.6997 -2.7764
22947SOL     OW69418   3.871   1.458   0.622 -0.7167 -0.2533  0.0932
22947SOL    HW169419   3.962   1.473   0.647 -0.3601 -1.0641 -0.6297
22947SOL    HW269420   3.832   1.415   0.697 -0.1840 -0.9211  0.0041
22948SOL     OW69421   1.899   1.803   1.487  0.2946 -0.9208 -0.5115
22948SOL    HW169422   1.858   1.877   1.444 -0.5498 -0.6677  0.6712
22948SOL    HW269423   1.827   1.747   1.516  0.6674 -0.2882  1.9163
22949SOL     OW69424   5.354   9.679   7.272  0.6544 -0.4001  0.2762
22949SOL    HW169425   5.311   9.748   7.322  0.0792 -0.4342 -0.1617
22949SOL    HW269426   5.305   9.599   7.293  0.4015 -0.4129 -0.3425
22950SOL     OW69427   8.519   1.701   7.313 -0.3874  0.1481  0.1352
22950SOL    HW169428   8.464   1.722   7.388  2.1135  0.0722  2.1197
22950SOL    HW269429   8.503   1.772   7.251 -1.6230  0.8823  1.2489
22951SOL     OW69430   7.420   6.999   6.111  0.2496 -0.7435 -0.0659
22951SOL    HW169431   7.387   6.963   6.029  0.5980  1.5848 -1.2985
22951SOL    HW269432   7.513   6.976   6.113  0.8008  1.1277 -1.5306
22952SOL     OW69433   1.508   9.537   0.145  0.4323  0.3054  0.6671
22952SOL    HW169434   1.560   9.534   0.064 -0.8842 -1.2070 -0.1754
22952SOL    HW269435   1.558   9.485   0.207  0.6290  0.0529  0.3024
22953SOL     OW69436   8.448   5.278   8.090  0.0764  0.4673  0.1517
22953SOL    HW169437   8.494   5.230   8.022 -0.3725  0.0400  0.1443
22953SOL    HW269438   8.366   5.306   8.048 -2.1380 -3.1887  1.5443
22954SOL     OW69439   5.137   6.502   3.515  0.3520  0.0094  0.0081
22954SOL    HW169440   5.073   6.568   3.489 -1.5756 -1.9052 -0.3994
22954SOL    HW269441   5.113   6.424   3.465  2.2301 -1.1593  0.8155
22955SOL     OW69442   7.057   5.469   6.837  0.4396  0.3187 -0.2911
22955SOL    HW169443   6.974   5.452   6.882  0.2173  0.5575 -0.6133
22955SOL    HW269444   7.094   5.544   6.882  0.3626  0.3685 -0.3117
22956SOL     OW69445   8.120   0.987   8.247  0.2055 -0.0711  0.1462
22956SOL    HW169446   8.122   1.015   8.338  0.9687  0.8115 -0.1296
22956SOL    HW269447   8.185   0.917   8.242  0.5190  0.2167  0.1759
22957SOL     OW69448   8.249   3.484   2.528 -0.0025  0.0622  0.2669
22957SOL    HW169449   8.164   3.442   2.514  1.5383 -3.1983 -0.0686
22957SOL    HW269450   8.265   3.476   2.622  0.0594  0.4415  0.2898
22958SOL     OW69451   0.337   0.087   5.462  0.0824  0.0095  0.3800
22958SOL    HW169452   0.337  -0.000   5.502 -0.4823 -0.5159 -0.7113
22958SOL    HW269453   0.295   0.143   5.526  0.9606 -0.4023  1.3347
22959SOL     OW69454   2.296   7.095   0.866  0.0187  0.0049 -0.2219
22959SOL    HW169455   2.306   7.090   0.961 -3.8889 -0.3005  0.3471
22959SOL    HW269456   2.214   7.143   0.854 -1.5680 -3.0618 -3.2681
22960SOL     OW69457   0.050   2.945   3.109  0.0730 -0.6986 -0.4034
22960SOL    HW169458   0.123   2.902   3.154  0.9556  1.4186  0.2948
22960SOL    HW269459   0.015   2.877   3.050  2.1893 -1.9688 -0.2981
22961SOL     OW69460   1.518   0.384   3.557  0.4352  0.8640 -0.2995
22961SOL    HW169461   1.432   0.413   3.526  1.2941 -0.8846 -5.0719
22961SOL    HW269462   1.577   0.455   3.533  0.9952 -0.1762 -2.2366
22962SOL     OW69463   3.899   7.598   8.108  0.1769 -0.0643 -0.0995
22962SOL    HW169464   3.974   7.656   8.098 -0.3868  0.2755 -3.3002
22962SOL    HW269465   3.923   7.520   8.058  0.2066 -2.0004  2.6880
22963SOL     OW69466   1.212   9.220   0.728  0.1403 -0.2880  0.3228
22963SOL    HW169467   1.153   9.162   0.777  0.5748 -0.7262  0.3367
22963SOL    HW269468   1.167   9.236   0.645  0.4299 -1.4197 -0.0748
22964SOL     OW69469   1.126   4.985   9.040 -0.0389 -0.6090 -0.4020
22964SOL    HW169470   1.124   4.928   8.963 -1.0037 -1.0810 -0.0509
22964SOL    HW269471   1.038   5.024   9.042  0.5189  0.7154 -0.4946
22965SOL     OW69472   3.665   4.525   6.046 -0.2107  0.0395  0.2157
22965SOL    HW169473   3.598   4.594   6.045  2.4065  2.8319  0.6794
22965SOL    HW269474   3.694   4.522   6.137  1.1105 -0.1853 -0.1989
22966SOL     OW69475   2.270   3.962   4.313 -0.0367 -0.6140  0.2887
22966SOL    HW169476   2.328   3.978   4.387  0.4936 -2.9074  0.4452
22966SOL    HW269477   2.329   3.955   4.237 -0.5742  1.7621 -0.4439
22967SOL     OW69478   7.128   0.586   6.699  0.7488 -0.2899 -0.2368
22967SOL    HW169479   7.207   0.537   6.677  0.6056  0.3096 -2.2366
22967SOL    HW269480   7.128   0.661   6.640  0.3623  1.5735  1.9588
22968SOL     OW69481   4.514   7.783   6.810 -0.3946 -0.9817  0.1342
22968SOL    HW169482   4.602   7.777   6.848 -1.1473 -2.5432  1.7646
22968SOL    HW269483   4.507   7.707   6.752 -0.4090 -0.4014 -0.6482
22969SOL     OW69484   2.645   9.743   4.126 -0.2695 -0.1294  0.5474
22969SOL    HW169485   2.702   9.768   4.053 -0.1083  1.6163  1.2245
22969SOL    HW269486   2.688   9.667   4.164  1.3872  0.8659  0.7544
22970SOL     OW69487   4.353   7.002   0.971  0.3772 -0.1922  0.1220
22970SOL    HW169488   4.436   7.031   0.935  0.6797 -1.3435 -0.1408
22970SOL    HW269489   4.377   6.954   1.050 -0.0711 -0.1458  0.2885
22971SOL     OW69490   3.715   4.611   0.213  0.0429 -0.6275 -0.0103
22971SOL    HW169491   3.631   4.580   0.247  0.6681 -1.0125  1.2627
22971SOL    HW269492   3.780   4.559   0.261  1.0881  1.5873  1.1079
22972SOL     OW69493   6.641   2.087   3.919  0.0127  0.1864 -0.0939
22972SOL    HW169494   6.584   2.103   3.844  0.0302  0.9283  0.0400
22972SOL    HW269495   6.633   1.993   3.936 -0.1826  0.0549 -0.8655
22973SOL     OW69496   7.336   7.866   8.049 -0.0293 -0.2969  0.5037
22973SOL    HW169497   7.376   7.792   8.003  0.3192  0.1490  0.0812
22973SOL    HW269498   7.357   7.851   8.141  2.3718  0.6467  0.1887
22974SOL     OW69499   2.658   2.072   5.242  0.0642  0.4356 -0.6020
22974SOL    HW169500   2.711   2.129   5.186 -0.4364  1.2840 -0.2314
22974SOL    HW269501   2.718   2.041   5.309  0.7448 -0.8037 -1.7195
22975SOL     OW69502   6.617   0.337   7.208  0.0120  0.0172  0.0599
22975SOL    HW169503   6.577   0.390   7.139  1.5736  0.5239 -0.4917
22975SOL    HW269504   6.569   0.361   7.288 -1.1871  0.1209 -0.6614
22976SOL     OW69505   8.940   9.288   6.915 -0.0557 -0.0795 -0.4805
22976SOL    HW169506   8.991   9.208   6.927  1.4101  0.7307 -1.0158
22976SOL    HW269507   8.977   9.329   6.836 -2.1145  0.1424 -1.4035
22977SOL     OW69508   8.359   4.019   9.553  0.2738 -0.3938  0.1427
22977SOL    HW169509   8.268   4.012   9.580 -0.2905 -0.7394 -1.6845
22977SOL    HW269510   8.368   3.955   9.483  1.2353  1.3267 -1.3894
22978SOL     OW69511   7.137   7.823   5.790  0.1605 -0.0946 -0.2693
22978SOL    HW169512   7.144   7.738   5.833  2.8296  0.5182  0.6988
22978SOL    HW269513   7.174   7.885   5.853 -2.3828  1.9595 -0.6396
22979SOL     OW69514   5.067   0.535   9.382 -0.1870  0.4466  0.1698
22979SOL    HW169515   5.059   0.539   9.477  0.4191  2.3040  0.1716
22979SOL    HW269516   5.002   0.597   9.349 -3.5494 -3.2214 -0.9202
22980SOL     OW69517   8.744   2.666   5.188  0.0635 -0.2306  0.0913
22980SOL    HW169518   8.748   2.573   5.210  0.3915 -0.1697  0.2856
22980SOL    HW269519   8.714   2.709   5.269  1.4676  0.0158  0.4989
22981SOL     OW69520   2.346   2.797   2.479 -0.7021  0.5854  0.3152
22981SOL    HW169521   2.388   2.719   2.443 -1.9999 -0.0768  0.1846
22981SOL    HW269522   2.365   2.793   2.572  1.1053  1.3208  0.0193
22982SOL     OW69523   7.825   2.331   7.605  0.2785 -0.7005  0.0510
22982SOL    HW169524   7.773   2.283   7.541  0.0258 -0.2307 -0.0979
22982SOL    HW269525   7.828   2.273   7.681  0.3672 -1.1514 -0.2920
22983SOL     OW69526   2.760   0.227   0.797  0.4288 -0.3376  0.6223
22983SOL    HW169527   2.794   0.296   0.854  0.0497 -0.2674  0.7658
22983SOL    HW269528   2.740   0.272   0.715 -0.3144 -0.1637  0.8869
22984SOL     OW69529   3.517   4.951   4.140 -0.1632  0.3574  0.0112
22984SOL    HW169530   3.501   5.022   4.077  0.0144 -0.1755 -0.6455
22984SOL    HW269531   3.611   4.933   4.132 -0.3844 -0.5943 -0.5167
22985SOL     OW69532   9.957   8.540   6.760 -0.4337  0.0664 -0.1674
22985SOL    HW169533   9.952   8.462   6.705  2.0579  0.5190 -1.2162
22985SOL    HW269534   9.978   8.507   6.847 -0.2961 -0.4930 -0.4067
22986SOL     OW69535   2.718   1.497   3.688 -0.2447  0.1879  0.1028
22986SOL    HW169536   2.683   1.418   3.728 -1.1216  0.4241 -0.1799
22986SOL    HW269537   2.764   1.466   3.610  1.2945 -0.2504  1.1528
22987SOL     OW69538   3.047   3.883   0.175 -0.5070 -0.2259  0.2544
22987SOL    HW169539   2.973   3.873   0.116 -0.2322  0.9076 -0.2974
22987SOL    HW269540   3.015   3.853   0.260 -1.2243 -0.8618 -0.2356
22988SOL     OW69541   6.212   7.204   6.618  0.0636 -0.4345 -0.3501
22988SOL    HW169542   6.175   7.196   6.707  0.4863  3.0899  0.2808
22988SOL    HW269543   6.284   7.142   6.617 -0.4891 -1.1832  1.4716
22989SOL     OW69544   5.837   5.325   8.962 -0.6337 -0.1212  0.1008
22989SOL    HW169545   5.758   5.369   8.930 -0.9660 -1.5076 -1.0565
22989SOL    HW269546   5.849   5.251   8.903  0.7290 -0.7646  1.1370
22990SOL     OW69547   6.501   6.542   9.220  0.0519 -0.2601  0.0736
22990SOL    HW169548   6.464   6.590   9.146  1.0703  0.5103  0.0465
22990SOL    HW269549   6.459   6.456   9.215 -0.9834  0.2530 -0.5234
22991SOL     OW69550   1.848   8.608   7.780  0.1499 -0.0813 -0.3243
22991SOL    HW169551   1.917   8.674   7.773 -0.3890  0.9786  2.7983
22991SOL    HW269552   1.894   8.528   7.807  0.3390  0.3644  0.7555
22992SOL     OW69553   2.541   2.632   9.863 -0.1430  0.3203  0.1560
22992SOL    HW169554   2.543   2.547   9.819 -0.0362  0.2055  0.3823
22992SOL    HW269555   2.626   2.639   9.907 -0.7119 -0.1208  1.3808
22993SOL     OW69556   4.327   6.140   6.331  0.2256  0.3012  0.2077
22993SOL    HW169557   4.308   6.049   6.306 -1.4556  0.6608  0.0336
22993SOL    HW269558   4.309   6.143   6.425  2.9256 -0.1507  0.8167
22994SOL     OW69559   7.980   8.447   6.277 -0.4543  0.1453 -0.1884
22994SOL    HW169560   8.046   8.401   6.226 -1.5495  0.2501 -1.7567
22994SOL    HW269561   8.023   8.529   6.303  0.2035 -0.0105 -0.7556
22995SOL     OW69562   7.039   1.751   3.190  0.1809 -0.0854  0.0278
22995SOL    HW169563   7.099   1.696   3.139 -0.0565 -1.6216  1.2952
22995SOL    HW269564   6.972   1.778   3.128 -1.6275 -4.1060 -0.0882
22996SOL     OW69565   6.550   8.106   7.392  0.0518 -0.1930  0.1634
22996SOL    HW169566   6.643   8.128   7.396  0.0812 -0.5157  2.1075
22996SOL    HW269567   6.517   8.158   7.319  1.9566 -0.9243 -1.3048
22997SOL     OW69568   9.939   7.212   7.586  0.4200 -0.3278  0.7639
22997SOL    HW169569   9.963   7.119   7.592 -1.9324 -0.9906  0.9283
22997SOL    HW269570   9.849   7.211   7.553  0.7869  1.9765 -0.4873
22998SOL     OW69571   4.980   7.250   9.701  0.3790 -0.6292  0.1131
22998SOL    HW169572   4.946   7.327   9.748 -0.6841 -0.0730 -1.4824
22998SOL    HW269573   4.982   7.278   9.609 -1.8922 -3.0920 -0.8184
22999SOL     OW69574   9.560   6.175   8.756  0.1119  0.2353  1.0717
22999SOL    HW169575   9.516   6.109   8.811  1.7542 -1.9148 -0.0250
22999SOL    HW269576   9.648   6.182   8.794  1.3744 -1.4945 -1.2908
23000SOL     OW69577   8.326   6.610   3.159  0.6044  0.1970 -0.4226
23000SOL    HW169578   8.383   6.542   3.195  0.3059  0.3118  0.3050
23000SOL    HW269579   8.385   6.671   3.116  1.0786  0.4854  0.5987
23001SOL     OW69580   5.835   2.324   6.205 -0.4428  0.8587  0.1359
23001SOL    HW169581   5.828   2.419   6.195  2.7645  1.2621  0.7980
23001SOL    HW269582   5.866   2.312   6.295 -1.2828 -0.8873  0.2328
23002SOL     OW69583   2.228   5.880   4.987 -0.2178 -0.1105  0.2403
23002SOL    HW169584   2.161   5.947   5.005 -0.1124  0.2856 -0.7575
23002SOL    HW269585   2.200   5.804   5.037  0.4071  1.0949  2.5668
23003SOL     OW69586   7.037   1.594   4.237  0.1848  0.5468  0.0250
23003SOL    HW169587   7.109   1.600   4.174  2.3628 -0.9166  2.1889
23003SOL    HW269588   7.030   1.682   4.274  0.3838  0.8668 -0.6832
23004SOL     OW69589   3.977   8.651   4.162 -0.2904  0.3271  0.0157
23004SOL    HW169590   3.900   8.696   4.129  0.1559  1.1465  0.0465
23004SOL    HW269591   3.943   8.580   4.216 -1.0294  1.3060  0.8714
23005SOL     OW69592   8.242   1.662   0.796  0.1175 -0.7936 -0.1527
23005SOL    HW169593   8.288   1.724   0.739  1.0677 -2.0897 -0.8617
23005SOL    HW269594   8.152   1.661   0.764 -0.3640  1.4012  0.9180
23006SOL     OW69595   0.210   6.934   6.315  0.3631  0.5280  0.6708
23006SOL    HW169596   0.130   6.941   6.368 -0.8533 -0.0837 -1.0035
23006SOL    HW269597   0.193   6.989   6.239  1.4590  0.2301  0.1957
23007SOL     OW69598   3.608   4.440   5.401 -0.6289 -0.3890 -0.1878
23007SOL    HW169599   3.676   4.416   5.338 -1.6251 -0.7105 -1.1909
23007SOL    HW269600   3.607   4.536   5.400 -0.4903 -0.3900 -0.5100
23008SOL     OW69601   8.387   7.549   8.697 -0.1958  0.3544  0.2529
23008SOL    HW169602   8.340   7.466   8.707  1.5154 -0.5530  1.1201
23008SOL    HW269603   8.336   7.611   8.748 -0.8664 -0.4178  0.5512
23009SOL     OW69604   3.351   1.303   0.912 -0.6317  0.2156  0.4516
23009SOL    HW169605   3.417   1.360   0.871 -0.1872 -0.1060  0.7007
23009SOL    HW269606   3.402   1.250   0.974 -0.6458 -1.9290 -1.2442
23010SOL     OW69607   2.665   4.272   4.422 -0.3015  0.0102 -0.2188
23010SOL    HW169608   2.753   4.310   4.425 -1.2627  2.4212  0.0401
23010SOL    HW269609   2.662   4.227   4.338  0.7827  0.9759 -0.8213
23011SOL     OW69610   5.438   0.867   1.631  0.3173 -0.1662  0.8203
23011SOL    HW169611   5.427   0.958   1.604 -1.2982 -0.0006  1.9235
23011SOL    HW269612   5.480   0.825   1.556 -2.3403  0.6558 -1.2941
23012SOL     OW69613   0.946   5.533   1.541 -0.0483  0.2564 -0.0631
23012SOL    HW169614   0.927   5.578   1.459  1.5669  1.0764 -0.0161
23012SOL    HW269615   1.013   5.468   1.519 -0.9392 -0.8181  0.2661
23013SOL     OW69616   6.969   5.222   5.266  0.5969 -0.2920 -0.2284
23013SOL    HW169617   7.039   5.157   5.267  1.0604  0.1999  0.2097
23013SOL    HW269618   7.011   5.301   5.232  0.4531  0.2097  0.7139
23014SOL     OW69619   4.616   8.379   0.081  0.1439 -0.3734  1.3146
23014SOL    HW169620   4.711   8.370   0.071  0.0313  0.3704 -0.8507
23014SOL    HW269621   4.579   8.331   0.007 -1.1146  0.5284  1.3263
23015SOL     OW69622   0.636   3.907   0.734 -0.1240 -0.5817  0.0242
23015SOL    HW169623   0.597   3.833   0.780  0.4106 -0.5495  0.5546
23015SOL    HW269624   0.656   3.970   0.803  0.4106 -0.3993 -0.2896
23016SOL     OW69625   7.294   0.331   3.271  0.5319 -0.2297 -0.1938
23016SOL    HW169626   7.235   0.369   3.206  1.3919  0.6542 -0.4854
23016SOL    HW269627   7.241   0.326   3.351  0.4630  2.0002 -0.0284
23017SOL     OW69628   7.910   4.478   9.726 -0.1979 -0.2464 -0.1840
23017SOL    HW169629   7.959   4.471   9.644  1.7799  2.0944  0.6624
23017SOL    HW269630   7.872   4.566   9.724 -0.2718 -0.2106  1.2820
23018SOL     OW69631   5.097   1.874   7.477  0.7967  0.5301  0.3971
23018SOL    HW169632   5.172   1.868   7.418 -0.1033  0.6681 -0.8112
23018SOL    HW269633   5.076   1.784   7.499  2.9390  0.5260  2.9783
23019SOL     OW69634   0.565   2.724   8.434  0.0594 -0.4353  0.2817
23019SOL    HW169635   0.600   2.813   8.434 -2.5982  0.7261 -0.0923
23019SOL    HW269636   0.523   2.714   8.519  0.1525 -1.2739  0.2437
23020SOL     OW69637   8.464   6.375   6.809 -0.6198  0.4050  0.0137
23020SOL    HW169638   8.455   6.413   6.896 -1.1762  0.1926  0.0552
23020SOL    HW269639   8.434   6.284   6.819  2.6873 -0.7748  0.4109
23021SOL     OW69640   8.592   2.151   3.728 -0.4061  0.1129  0.3574
23021SOL    HW169641   8.560   2.153   3.818 -0.8544  0.9697  0.1827
23021SOL    HW269642   8.568   2.236   3.692  0.3884  0.0398 -0.3623
23022SOL     OW69643   9.519   8.941   9.336 -0.5337 -0.4253  0.4223
23022SOL    HW169644   9.585   8.974   9.397 -2.2188 -1.8587  3.1959
23022SOL    HW269645   9.549   8.853   9.313 -0.7988 -0.5566  0.5823
23023SOL     OW69646   4.565   0.832   4.668  0.0123  0.1950 -0.4377
23023SOL    HW169647   4.532   0.886   4.596 -0.3602 -1.5099 -1.6229
23023SOL    HW269648   4.653   0.807   4.640  0.3153  0.4736  0.2633
23024SOL     OW69649   8.518   4.451   9.060  0.3151 -0.4620  0.0008
23024SOL    HW169650   8.506   4.376   9.002  0.5658 -1.6066  1.3922
23024SOL    HW269651   8.592   4.427   9.116  1.5807  1.5770 -0.6873
23025SOL     OW69652   5.701   7.201   3.396 -0.4279  0.4370 -0.0500
23025SOL    HW169653   5.613   7.237   3.386 -0.8635 -0.3197  0.8988
23025SOL    HW269654   5.733   7.239   3.478 -0.0745  0.2972 -0.1239
23026SOL     OW69655   2.346   7.560   2.873  0.3872  0.5261  0.5124
23026SOL    HW169656   2.376   7.553   2.963 -1.4102  0.5023  1.1599
23026SOL    HW269657   2.291   7.483   2.860 -0.0157  0.9441 -0.3273
23027SOL     OW69658   3.772   4.610   6.906 -0.0399  0.2848  0.3793
23027SOL    HW169659   3.698   4.667   6.926 -3.1304 -2.8857 -0.9926
23027SOL    HW269660   3.783   4.618   6.811 -1.5135 -2.2642 -0.0877
23028SOL     OW69661   9.473   3.534   3.791  0.0612 -0.0855 -0.0231
23028SOL    HW169662   9.403   3.553   3.853 -0.9769 -0.6630 -0.9605
23028SOL    HW269663   9.532   3.609   3.796 -0.3958  0.2095  1.1049
23029SOL     OW69664   1.108   9.247   3.221 -0.1163  0.4210  0.6379
23029SOL    HW169665   1.176   9.204   3.273 -0.9671 -0.0301  1.4219
23029SOL    HW269666   1.139   9.243   3.131  0.8550  0.1663  0.9764
23030SOL     OW69667   1.025   0.287   1.090  0.2544  0.3196 -0.5236
23030SOL    HW169668   1.044   0.354   1.155 -1.3036 -0.8534  1.2418
23030SOL    HW269669   1.100   0.289   1.030  0.4939  3.2438 -0.2662
23031SOL     OW69670   2.938   4.231   2.720  0.3349  0.0855  0.3120
23031SOL    HW169671   2.950   4.228   2.815  0.3412  0.3943  0.3197
23031SOL    HW269672   2.918   4.140   2.696 -1.2715  0.2717  0.8254
23032SOL     OW69673   3.571   3.164   7.610  0.2277 -0.1353 -0.2561
23032SOL    HW169674   3.539   3.075   7.599  2.9002 -1.4369  1.3854
23032SOL    HW269675   3.660   3.154   7.644  1.2052  3.1709 -1.3800
23033SOL     OW69676   0.386   4.005   9.895  0.1924  0.4135 -0.4539
23033SOL    HW169677   0.405   4.057   9.817  1.1868  0.6500 -0.0664
23033SOL    HW269678   0.338   4.065   9.952  1.2122  0.8834 -0.0663
23034SOL     OW69679   5.408   6.081   6.454 -0.2826 -0.0834 -0.1273
23034SOL    HW169680   5.452   6.086   6.539 -0.3905  1.3384 -0.1319
23034SOL    HW269681   5.445   6.002   6.413  0.5629 -0.1908  0.7911
23035SOL     OW69682   8.975   5.778   1.583  0.2949  0.1738 -0.0645
23035SOL    HW169683   8.922   5.844   1.627  1.4983  1.3822 -0.3332
23035SOL    HW269684   8.951   5.696   1.624 -1.0696  0.8128  0.4703
23036SOL     OW69685   5.894   7.853   6.508  0.0057 -0.1464  0.5811
23036SOL    HW169686   5.957   7.781   6.500  0.8387  0.4242  1.7115
23036SOL    HW269687   5.895   7.895   6.422  1.8640  0.3855  0.8131
23037SOL     OW69688   9.743   9.991   8.159  0.1293 -0.0789  0.0669
23037SOL    HW169689   9.810   9.938   8.203  0.7274  1.6425  1.3144
23037SOL    HW269690   9.661   9.964   8.199  0.2667 -0.8994 -0.1749
23038SOL     OW69691   6.345   3.049   6.780 -0.0277 -0.0559  0.0205
23038SOL    HW169692   6.291   3.007   6.712 -0.2856 -2.0864  1.3901
23038SOL    HW269693   6.425   3.075   6.733 -0.4652 -0.8013 -1.2110
23039SOL     OW69694   6.852   0.789   4.922 -0.5242  0.2517  0.2438
23039SOL    HW169695   6.935   0.757   4.885 -1.5165 -1.6346 -0.5121
23039SOL    HW269696   6.797   0.711   4.927 -2.2386  1.4451  0.8104
23040SOL     OW69697   2.253   8.976   2.183 -0.2287  0.0267  0.1901
23040SOL    HW169698   2.321   9.021   2.234  0.6440 -1.0232 -0.0006
23040SOL    HW269699   2.232   8.898   2.234  0.3413 -0.8141 -0.8254
23041SOL     OW69700   0.958   2.337   5.300  0.3662  0.4360 -0.5855
23041SOL    HW169701   1.042   2.354   5.344 -0.0354  1.6150 -0.2319
23041SOL    HW269702   0.952   2.404   5.233  0.3703 -0.5627 -1.6107
23042SOL     OW69703   9.883   1.916   6.581 -0.1349  0.3397  0.2350
23042SOL    HW169704   9.959   1.912   6.523 -0.7482  2.5588 -0.8302
23042SOL    HW269705   9.822   1.852   6.545  0.3516  0.1197 -0.2159
23043SOL     OW69706   6.831   3.093   1.149  0.2474 -0.2810  0.2147
23043SOL    HW169707   6.881   3.059   1.075 -0.8725  0.2614 -0.8397
23043SOL    HW269708   6.820   3.018   1.207 -1.1199 -1.4817 -1.4643
23044SOL     OW69709   0.783   1.980   4.213 -0.4004 -0.3057  0.0094
23044SOL    HW169710   0.744   1.967   4.126 -1.0894  1.9941 -0.0920
23044SOL    HW269711   0.865   2.026   4.196  0.2864 -1.3041  0.5070
23045SOL     OW69712   5.391   6.624   1.630  0.4934  0.3977  0.5350
23045SOL    HW169713   5.477   6.588   1.608  0.3452 -0.2180  0.9174
23045SOL    HW269714   5.334   6.595   1.559 -0.1488 -2.2193  1.9552
23046SOL     OW69715   3.263   0.838   1.054  0.2649  0.0679 -0.2755
23046SOL    HW169716   3.317   0.908   1.017 -2.9159  2.7645 -0.3158
23046SOL    HW269717   3.313   0.758   1.039  2.9210  1.9880 -2.7449
23047SOL     OW69718   6.701   9.050   2.095 -0.1547 -0.0102 -0.3597
23047SOL    HW169719   6.726   8.977   2.151  0.6442  0.0964 -0.5674
23047SOL    HW269720   6.740   9.127   2.137 -3.0874  0.7383  1.2975
23048SOL     OW69721   2.896   5.620   0.782  0.1478 -0.4678  0.3959
23048SOL    HW169722   2.971   5.674   0.756 -1.2179  1.0016 -0.7472
23048SOL    HW269723   2.867   5.657   0.866 -0.9480  0.8624 -0.5119
23049SOL     OW69724   0.407   6.024   4.044 -1.0062 -0.1518 -0.8815
23049SOL    HW169725   0.376   6.104   4.087 -0.7539 -0.0949 -0.8011
23049SOL    HW269726   0.367   6.027   3.957 -1.3280 -0.1472 -0.7350
23050SOL     OW69727   2.296   3.423   1.989  0.3759  0.1825  0.2753
23050SOL    HW169728   2.386   3.428   2.021  0.4071  2.4739 -0.0150
23050SOL    HW269729   2.291   3.339   1.944  2.7056  0.4902 -0.6748
23051SOL     OW69730   0.998   8.697   3.476  0.2527 -0.4523  0.2104
23051SOL    HW169731   1.048   8.694   3.394  0.3339 -1.0911  0.2769
23051SOL    HW269732   1.042   8.764   3.528 -0.4578  0.7551 -0.6767
23052SOL     OW69733   8.589   5.997   4.132 -0.3601 -0.1578  0.3795
23052SOL    HW169734   8.680   5.971   4.146 -0.5280 -0.2514  1.3812
23052SOL    HW269735   8.559   5.942   4.060  0.5141  0.2358 -0.3090
23053SOL     OW69736   8.228   8.374   3.070  0.1641  0.0082  0.7137
23053SOL    HW169737   8.177   8.305   3.111  0.2846 -2.0373 -2.2382
23053SOL    HW269738   8.319   8.349   3.086  0.3932  2.1313  3.5567
23054SOL     OW69739   2.185   0.317   5.099 -0.0181 -0.3693 -0.0151
23054SOL    HW169740   2.184   0.224   5.075 -1.2136 -1.2099  2.9043
23054SOL    HW269741   2.193   0.318   5.194  1.8852  2.6278 -0.0524
23055SOL     OW69742   9.487   8.991   5.406 -0.6096 -0.3383  0.0831
23055SOL    HW169743   9.472   8.949   5.491 -2.3386 -2.6607 -1.2533
23055SOL    HW269744   9.530   8.923   5.354  0.6112  1.1116 -0.8853
23056SOL     OW69745   4.754   1.542   5.025  0.0971  0.0695  0.1999
23056SOL    HW169746   4.691   1.579   4.964  1.9344  3.0068 -0.1110
23056SOL    HW269747   4.703   1.526   5.105 -1.2910  1.0882 -0.4434
23057SOL     OW69748   8.918   6.757   5.387 -0.4654 -0.2449 -0.2457
23057SOL    HW169749   8.931   6.706   5.307  2.8153  0.5656 -0.3881
23057SOL    HW269750   8.910   6.847   5.357 -2.2232 -0.2167  0.2290
23058SOL     OW69751   4.610   5.806   1.948 -0.3364 -0.0455  0.1203
23058SOL    HW169752   4.672   5.758   1.892  0.0729  1.0187 -0.3838
23058SOL    HW269753   4.547   5.741   1.976  0.0949 -0.8339 -0.6916
23059SOL     OW69754   3.640   9.459   2.121  0.7707 -0.0778  0.0730
23059SOL    HW169755   3.619   9.537   2.172  0.8071  1.2041 -1.7646
23059SOL    HW269756   3.580   9.392   2.155 -1.8597  1.7228 -0.6460
23060SOL     OW69757   2.674   5.078   4.555  0.1377 -0.0267  0.2353
23060SOL    HW169758   2.710   4.990   4.543  1.0130  0.1341  1.4551
23060SOL    HW269759   2.684   5.120   4.470 -0.2485 -1.0801 -0.3536
23061SOL     OW69760   9.112   6.709   4.776 -0.1186  0.3449  0.0933
23061SOL    HW169761   9.061   6.768   4.831 -1.1858 -0.8743  0.4516
23061SOL    HW269762   9.150   6.646   4.837 -1.1988 -0.9410 -0.5199
23062SOL     OW69763   0.530   5.082   1.034 -0.1977  0.3032  0.3457
23062SOL    HW169764   0.523   5.089   1.129 -1.5760  0.5269  0.2524
23062SOL    HW269765   0.620   5.107   1.014  0.3117 -0.4093  1.6480
23063SOL     OW69766   2.614   0.678   0.788 -0.3810 -0.0861 -0.1910
23063SOL    HW169767   2.595   0.631   0.869  0.0347 -0.3195 -0.2240
23063SOL    HW269768   2.700   0.717   0.803 -1.1813  1.6082  0.2591
23064SOL     OW69769   1.928   2.744   6.781 -0.4490  0.2823  0.0007
23064SOL    HW169770   1.974   2.739   6.697 -1.3875 -0.2241 -0.4936
23064SOL    HW269771   1.882   2.661   6.788  0.6836 -0.2700  1.6697
23065SOL     OW69772   7.275   9.161   9.710 -0.0540  0.5902 -0.4669
23065SOL    HW169773   7.261   9.102   9.635  0.7107  0.4860 -0.5297
23065SOL    HW269774   7.347   9.121   9.758 -2.7879 -1.4045  2.3938
23066SOL     OW69775   5.945   4.045   2.792 -0.2087  0.4335  0.1778
23066SOL    HW169776   5.887   4.051   2.716 -1.3918 -0.7316  0.9441
23066SOL    HW269777   5.886   4.032   2.866  1.0103 -3.4153  0.7131
23067SOL     OW69778   4.852   7.990   8.750 -0.1931  0.1739  0.1972
23067SOL    HW169779   4.838   7.969   8.658  0.1268 -1.2149  0.4345
23067SOL    HW269780   4.764   8.002   8.785 -0.2689  3.1756 -0.7594
23068SOL     OW69781   9.014   4.349   3.228 -0.3238  0.2107  0.7456
23068SOL    HW169782   8.948   4.291   3.191 -0.8843  0.9230  0.6118
23068SOL    HW269783   8.976   4.437   3.221  1.7014  1.0354 -1.8782
23069SOL     OW69784   1.887   5.361   6.811  0.4030  0.3530  0.1533
23069SOL    HW169785   1.798   5.326   6.823  0.5791 -1.2084 -2.2083
23069SOL    HW269786   1.903   5.414   6.888 -2.7245  0.9939  0.4962
23070SOL     OW69787   1.779   8.148   9.132  0.5560  0.1888  0.0017
23070SOL    HW169788   1.798   8.057   9.107 -3.3951 -1.0657  0.8140
23070SOL    HW269789   1.813   8.200   9.060  0.6798 -2.1977 -1.8027
23071SOL     OW69790   6.777   6.036   9.215  0.1006 -1.0084  0.2757
23071SOL    HW169791   6.735   6.004   9.135 -2.7024  0.3874  1.0467
23071SOL    HW269792   6.751   6.128   9.221  2.3257 -0.3724  1.5491
23072SOL     OW69793   7.698   2.643   3.395 -0.3050 -0.0101  0.4425
23072SOL    HW169794   7.761   2.683   3.335 -2.1783  0.0275 -1.6345
23072SOL    HW269795   7.737   2.559   3.419  1.3691  0.8193  0.7907
23073SOL     OW69796   7.160   2.390   9.698  0.1682  0.1278 -0.1784
23073SOL    HW169797   7.111   2.448   9.756  0.0594 -0.2181  0.0790
23073SOL    HW269798   7.187   2.317   9.755  1.4739  0.5930 -0.1719
23074SOL     OW69799   5.367   7.908   3.255 -0.8040  0.2754  0.2962
23074SOL    HW169800   5.349   7.838   3.318  0.9086  1.3566  2.0786
23074SOL    HW269801   5.434   7.962   3.296  0.5704  0.9615 -2.5389
23075SOL     OW69802   2.544   9.505   1.419  0.4974 -0.1760  0.3716
23075SOL    HW169803   2.484   9.495   1.345 -0.3318  2.3562  0.6371
23075SOL    HW269804   2.520   9.435   1.479  0.0758 -1.2516 -0.9979
23076SOL     OW69805   2.384   4.065   5.424  0.3572  0.7152  0.1431
23076SOL    HW169806   2.454   4.081   5.487 -0.2258 -0.0449  1.0209
23076SOL    HW269807   2.384   3.970   5.411  0.1247  0.8092 -0.6015
23077SOL     OW69808   1.686   5.776   5.796  0.5267  0.0840  0.2419
23077SOL    HW169809   1.692   5.844   5.729 -0.2306 -0.5368 -0.4844
23077SOL    HW269810   1.595   5.779   5.825  0.5884 -0.3545  0.4853
23078SOL     OW69811   4.194   5.932   6.169 -0.4368 -0.4993 -0.4831
23078SOL    HW169812   4.206   5.861   6.106 -0.5982 -1.6310  0.7142
23078SOL    HW269813   4.198   6.011   6.117  1.5875 -1.2865 -1.6253
23079SOL     OW69814   9.570   0.671   2.009 -0.4424  0.1825 -0.4751
23079SOL    HW169815   9.613   0.756   2.024 -1.5502  0.4654  1.4599
23079SOL    HW269816   9.633   0.607   2.042 -0.8333  0.4950  0.9637
23080SOL     OW69817   6.654   0.452   4.008 -0.0409  0.4819 -0.1693
23080SOL    HW169818   6.704   0.482   4.084  0.6075  0.1620 -0.4536
23080SOL    HW269819   6.692   0.366   3.987  1.0443  1.3125 -1.9136
23081SOL     OW69820   6.186   4.004   5.567  0.2473 -0.0229 -0.5692
23081SOL    HW169821   6.128   4.020   5.641 -0.8543 -1.2302 -1.1260
23081SOL    HW269822   6.129   4.011   5.490  0.6458 -1.9934 -1.0931
23082SOL     OW69823   2.957   5.404   1.553 -0.0550 -0.3447 -0.2498
23082SOL    HW169824   3.011   5.325   1.563  0.0304 -0.1847  0.6147
23082SOL    HW269825   2.996   5.450   1.479 -0.2759 -1.2404 -0.9523
23083SOL     OW69826   3.954   6.463   2.983  0.0450 -0.4007 -0.8162
23083SOL    HW169827   4.028   6.515   2.953 -0.2366  1.5725  1.5443
23083SOL    HW269828   3.989   6.409   3.054 -0.5946  0.0686 -0.1232
23084SOL     OW69829   2.383   3.716   3.352 -0.0501  0.1153  0.3344
23084SOL    HW169830   2.370   3.809   3.333  0.7569  0.2986  0.6416
23084SOL    HW269831   2.402   3.676   3.267  0.7901  0.4451  0.3634
23085SOL     OW69832   7.573   4.109   3.012  0.1654  0.2493 -0.3611
23085SOL    HW169833   7.627   4.044   3.057 -1.0308 -0.4459  0.1186
23085SOL    HW269834   7.608   4.113   2.923  2.1489  1.1555  0.3912
23086SOL     OW69835   6.559   6.150   9.414  0.6939 -0.6065 -0.7430
23086SOL    HW169836   6.510   6.094   9.353 -0.9268 -0.3500  0.2717
23086SOL    HW269837   6.611   6.207   9.357 -1.4106  0.2136 -1.9874
23087SOL     OW69838   3.479   4.379   3.899  0.1388  0.4992  0.0598
23087SOL    HW169839   3.448   4.468   3.880  1.2104  0.7407 -0.6769
23087SOL    HW269840   3.573   4.383   3.883  0.0656 -1.0041 -0.9356
23088SOL     OW69841   3.974   3.418   1.687 -0.2741 -0.3353 -0.2193
23088SOL    HW169842   3.901   3.454   1.738 -1.2778 -0.6157 -1.4256
23088SOL    HW269843   4.041   3.487   1.690 -0.9900  0.3649  0.0392
23089SOL     OW69844   1.432   9.602   0.475  0.4522  0.6237  0.4482
23089SOL    HW169845   1.511   9.563   0.439  0.6981  0.8633  0.7206
23089SOL    HW269846   1.361   9.568   0.421  0.6920  0.0237  0.5080
23090SOL     OW69847   8.287   9.389   2.227 -0.0249  0.0648  0.6286
23090SOL    HW169848   8.323   9.476   2.242 -1.0264  0.7482 -0.7901
23090SOL    HW269849   8.337   9.355   2.152  0.0683 -0.4177  0.9024
23091SOL     OW69850   2.668   5.619   4.794  0.5610  0.0658 -0.6054
23091SOL    HW169851   2.689   5.656   4.879  2.1755  0.4058 -1.1268
23091SOL    HW269852   2.588   5.665   4.767  0.4124  0.4286  0.4155
23092SOL     OW69853   3.331   3.737   6.459 -0.4709 -0.0115 -0.0692
23092SOL    HW169854   3.326   3.754   6.365 -0.2746  1.2975  0.1383
23092SOL    HW269855   3.314   3.644   6.467 -1.0488 -0.0410 -1.3575
23093SOL     OW69856   7.989   1.588   0.219 -0.3919  0.0789 -0.4877
23093SOL    HW169857   7.928   1.581   0.293 -0.7944  0.0613 -0.8175
23093SOL    HW269858   8.041   1.508   0.224 -0.3308  0.1367 -0.1470
23094SOL     OW69859   2.796   4.757   1.264 -0.2299 -0.3113 -0.2328
23094SOL    HW169860   2.804   4.681   1.321  1.3058  0.3670  0.5268
23094SOL    HW269861   2.754   4.724   1.185 -0.8525 -1.6359  0.6190
23095SOL     OW69862   1.091   3.120   2.860  0.8566 -0.0710  0.4424
23095SOL    HW169863   1.069   3.103   2.952 -2.9207  0.4955 -0.1914
23095SOL    HW269864   1.099   3.215   2.854 -0.1437 -0.0017  0.0029
23096SOL     OW69865   4.430   8.210   3.298  0.5271 -0.5596 -0.7724
23096SOL    HW169866   4.508   8.212   3.353 -0.0528  0.3025  0.0576
23096SOL    HW269867   4.456   8.252   3.216  0.8845 -0.1040 -0.4251
23097SOL     OW69868   9.049   0.800   0.399 -0.2295 -0.1686 -0.0391
23097SOL    HW169869   9.092   0.734   0.344 -0.0070 -0.0765  0.0194
23097SOL    HW269870   9.121   0.857   0.427 -0.5319  0.5364 -0.6900
23098SOL     OW69871   3.608   3.443   7.686  0.1510  0.6064 -0.0828
23098SOL    HW169872   3.621   3.511   7.620 -0.8022  1.7294  0.8429
23098SOL    HW269873   3.547   3.381   7.645  0.0498  0.9643 -0.4832
23099SOL     OW69874   2.206   0.908   2.221 -0.2345 -0.7548  0.0100
23099SOL    HW169875   2.248   0.976   2.168  0.0792  0.8961  2.2507
23099SOL    HW269876   2.114   0.911   2.195 -0.0761 -0.0161 -0.4897
23100SOL     OW69877   0.884   7.103   3.484 -0.7218  0.0161  0.0550
23100SOL    HW169878   0.841   7.141   3.407 -1.0342 -0.8965 -0.2292
23100SOL    HW269879   0.966   7.068   3.451  0.0408  1.2846  0.5023
23101SOL     OW69880   6.049   7.330   8.839  0.2113  0.0829 -0.3376
23101SOL    HW169881   6.070   7.306   8.749  0.2069 -0.7503 -0.1213
23101SOL    HW269882   6.133   7.324   8.886  0.1165  0.0069 -0.1755
23102SOL     OW69883   5.157   2.089   1.943 -0.0994  0.0026 -0.6398
23102SOL    HW169884   5.126   2.105   1.854 -0.1964  0.5039 -0.5228
23102SOL    HW269885   5.078   2.070   1.993  0.1107 -2.0682 -0.9995
23103SOL     OW69886   4.651   1.196   0.853  0.2301 -0.3873  0.1526
23103SOL    HW169887   4.681   1.276   0.810 -0.0446  0.3380  1.2811
23103SOL    HW269888   4.711   1.128   0.821  2.2346  0.7649  1.2753
23104SOL     OW69889   9.474   3.042   4.707 -0.3836 -0.0509 -0.2867
23104SOL    HW169890   9.432   2.957   4.694 -2.1153  0.8407 -1.0258
23104SOL    HW269891   9.510   3.064   4.621  1.4015 -0.6579  0.2637
23105SOL     OW69892   7.279   6.142   7.056  0.2089  0.3246 -0.0911
23105SOL    HW169893   7.196   6.099   7.038 -0.0502  1.0232 -0.5834
23105SOL    HW269894   7.304   6.109   7.143 -0.8152  0.4775  0.2774
23106SOL     OW69895   2.695   3.475   6.396  0.2699 -0.1354 -0.3411
23106SOL    HW169896   2.675   3.383   6.414 -1.6236  0.5636  1.5370
23106SOL    HW269897   2.647   3.496   6.316 -0.1358 -0.5082 -0.1944
23107SOL     OW69898   5.911   7.137   7.090 -0.2405  0.2841  1.2598
23107SOL    HW169899   5.928   7.227   7.115  1.1872  0.2052  0.6738
23107SOL    HW269900   5.955   7.085   7.158  1.2517  0.0682  0.1828
23108SOL     OW69901   3.368   2.104   5.901  0.5013 -0.1337 -0.7024
23108SOL    HW169902   3.385   2.199   5.900  1.7391 -0.3316 -0.1470
23108SOL    HW269903   3.333   2.087   5.988  1.1329 -0.3060 -0.4718
23109SOL     OW69904   8.911   7.157   7.671  0.1291 -0.5287 -0.1620
23109SOL    HW169905   8.969   7.119   7.605 -1.4193 -1.4112 -1.0380
23109SOL    HW269906   8.833   7.103   7.669 -2.5871  3.0628 -2.0562
23110SOL     OW69907   9.353   1.517   7.404  0.0836 -0.0623 -0.1958
23110SOL    HW169908   9.279   1.513   7.344 -1.6667  1.1241  1.7224
23110SOL    HW269909   9.359   1.610   7.427  0.7496 -0.4568  1.3281
23111SOL     OW69910   2.664   1.358   6.373  0.4478  0.3573 -0.4826
23111SOL    HW169911   2.616   1.287   6.416  1.6891  0.0180  0.3911
23111SOL    HW269912   2.635   1.437   6.418  0.2090  0.2355 -0.4200
23112SOL     OW69913   8.601   7.821   0.666  0.2842 -0.3890 -0.1271
23112SOL    HW169914   8.617   7.790   0.755  0.1461 -1.4967 -0.4776
23112SOL    HW269915   8.529   7.884   0.675  0.0781 -0.7120  0.5015
23113SOL     OW69916   6.626   8.246   5.918 -0.1894  0.1040 -0.3874
23113SOL    HW169917   6.563   8.304   5.875 -1.0428 -0.6658 -0.1933
23113SOL    HW269918   6.675   8.303   5.977 -0.4910  0.7646 -0.7631
23114SOL     OW69919   8.870   1.712   3.087 -0.0352 -0.6097 -0.1033
23114SOL    HW169920   8.819   1.671   3.156  1.2107 -2.2509 -0.0906
23114SOL    HW269921   8.824   1.794   3.067  0.3446  0.6945  3.6748
23115SOL     OW69922   0.819   1.158   7.686  0.2723 -0.1951  0.0867
23115SOL    HW169923   0.729   1.128   7.698 -0.0071  0.7804  0.5574
23115SOL    HW269924   0.861   1.089   7.635 -0.6488 -0.8210  0.1521
23116SOL     OW69925   7.308   0.973   8.429  0.1868 -0.1649  0.2774
23116SOL    HW169926   7.271   0.915   8.496 -0.1338  0.3815  0.5767
23116SOL    HW269927   7.249   0.965   8.354 -0.0496  0.0345  0.4408
23117SOL     OW69928   0.516   8.229   0.599 -0.2799  0.4303 -0.0098
23117SOL    HW169929   0.522   8.138   0.569 -0.8738  0.2910  0.2895
23117SOL    HW269930   0.592   8.241   0.655  1.5984  1.0611 -2.4761
23118SOL     OW69931   4.815   9.329   6.909 -0.1111  0.0086 -0.0013
23118SOL    HW169932   4.745   9.268   6.933 -1.1689  1.2901  0.2813
23118SOL    HW269933   4.809   9.399   6.974  1.2624  0.2876 -0.1456
23119SOL     OW69934   3.274   7.911   6.624  0.5488  0.5551 -0.2758
23119SOL    HW169935   3.180   7.892   6.635  1.2074 -3.2039  0.2804
23119SOL    HW269936   3.304   7.930   6.713  0.8276 -1.7375  0.1934
23120SOL     OW69937   0.935   3.294   5.877 -0.5632 -0.5592  0.2796
23120SOL    HW169938   0.970   3.309   5.965 -2.5494 -0.3731  1.0854
23120SOL    HW269939   0.883   3.214   5.886  0.1836 -1.2233 -1.0453
23121SOL     OW69940   8.855   4.786   5.405 -0.4738  0.3733  0.1639
23121SOL    HW169941   8.893   4.795   5.317  0.0864  2.0275  0.5332
23121SOL    HW269942   8.931   4.774   5.462 -0.8592 -1.1163  0.4105
23122SOL     OW69943   4.261   8.125   4.874 -0.0585 -0.2158  1.1437
23122SOL    HW169944   4.228   8.104   4.787  1.9498 -0.1667  0.3099
23122SOL    HW269945   4.258   8.043   4.922 -1.8389 -0.0927  1.2868
23123SOL     OW69946   8.608   6.977   1.939  0.3634  0.0916  0.3762
23123SOL    HW169947   8.673   6.962   2.007  1.4542  0.7585 -0.4876
23123SOL    HW269948   8.529   7.003   1.987  1.2200  0.9564  1.3707
23124SOL     OW69949   7.542   7.787   8.989  0.5099 -0.4525 -0.1356
23124SOL    HW169950   7.560   7.871   9.030 -0.0272 -0.3546 -0.0889
23124SOL    HW269951   7.484   7.742   9.051  2.7901 -1.9113  1.0606
23125SOL     OW69952   1.247   3.828   1.190 -0.1447  0.3310  0.0954
23125SOL    HW169953   1.316   3.762   1.195  0.8274  1.3632  1.0484
23125SOL    HW269954   1.165   3.779   1.202  0.3650 -0.9614 -1.4300
23126SOL     OW69955   0.209   6.826   4.576  0.0711 -0.0403 -0.0898
23126SOL    HW169956   0.261   6.877   4.638 -0.2704 -0.6496  0.7005
23126SOL    HW269957   0.139   6.787   4.628 -0.8912  0.3411 -1.0410
23127SOL     OW69958   0.104   5.834   7.468 -0.8158  0.4718  0.8305
23127SOL    HW169959   0.151   5.916   7.482 -2.8894  1.5281  2.1263
23127SOL    HW269960   0.026   5.859   7.418 -2.2155 -0.4013  2.4722
23128SOL     OW69961   0.507   5.260   5.942 -0.2282  0.2041  0.3689
23128SOL    HW169962   0.512   5.208   6.022  1.1215  0.5985  0.5703
23128SOL    HW269963   0.593   5.250   5.902  0.2070  2.5434  0.6049
23129SOL     OW69964   8.244   9.847   5.180  0.0474 -0.3488 -0.2428
23129SOL    HW169965   8.221   9.756   5.200  1.4114 -0.1274  2.9280
23129SOL    HW269966   8.335   9.855   5.208 -0.2740  2.1877  0.2988
23130SOL     OW69967   9.753   1.859   5.129 -0.5646  0.0857 -0.4102
23130SOL    HW169968   9.711   1.889   5.049 -0.4757  0.4181 -0.3349
23130SOL    HW269969   9.786   1.939   5.170  0.4648 -0.1974 -0.6465
23131SOL     OW69970   9.643   9.753   2.100 -0.0617 -0.0477 -0.2999
23131SOL    HW169971   9.661   9.803   2.180 -1.8600  1.2244 -0.6271
23131SOL    HW269972   9.590   9.679   2.130  0.0204 -0.0625 -0.1912
23132SOL     OW69973   3.939   6.148   6.208  0.1957  0.5774 -0.5813
23132SOL    HW169974   4.008   6.211   6.228 -0.2184  0.6221  0.8003
23132SOL    HW269975   3.985   6.065   6.196  0.5643  0.7730 -0.5252
23133SOL     OW69976   7.412   6.678   4.392 -0.4281  0.1795  0.0587
23133SOL    HW169977   7.486   6.681   4.331  1.1528 -1.3525  1.7610
23133SOL    HW269978   7.346   6.625   4.347 -0.2646  1.0386 -1.2434
23134SOL     OW69979   0.112   9.099   6.824  0.0004 -0.1604  0.2251
23134SOL    HW169980   0.147   9.176   6.868 -0.4402  1.0032 -1.3821
23134SOL    HW269981   0.018   9.115   6.817 -0.4172 -1.7347  1.5220
23135SOL     OW69982   2.337   5.219   2.617 -0.2655 -0.4742  0.0153
23135SOL    HW169983   2.373   5.132   2.600  1.1442 -0.5779  2.9941
23135SOL    HW269984   2.242   5.208   2.610 -0.0797 -2.0835 -0.2840
23136SOL     OW69985   0.768   3.852   3.689  0.3280 -0.2421 -0.0391
23136SOL    HW169986   0.693   3.824   3.741 -1.7229 -0.2155 -2.7605
23136SOL    HW269987   0.732   3.918   3.630  1.2948 -3.2108 -4.4203
23137SOL     OW69988   4.071   5.590   8.746 -0.1829  0.5088 -0.1059
23137SOL    HW169989   4.022   5.520   8.790  1.9448 -0.4776  0.8248
23137SOL    HW269990   4.047   5.582   8.654 -0.5808 -0.9464  0.0977
23138SOL     OW69991   8.944   9.568   2.733  0.0184  0.1781  0.7461
23138SOL    HW169992   9.021   9.587   2.679  0.0192 -0.9394  0.3154
23138SOL    HW269993   8.873   9.618   2.694  0.3084  0.4096  0.5147
23139SOL     OW69994   4.378   3.313   8.515 -0.6144  0.0106 -0.1800
23139SOL    HW169995   4.356   3.392   8.565 -2.6260 -2.1078  2.6092
23139SOL    HW269996   4.305   3.302   8.455 -0.9858 -0.3406  0.3199
23140SOL     OW69997   6.204   9.384   1.503  0.7991 -0.2136  0.0269
23140SOL    HW169998   6.189   9.393   1.597 -0.8040 -1.6245 -0.0516
23140SOL    HW269999   6.117   9.370   1.466  1.5532 -1.1540 -1.4850
23141SOL     OW70000   5.560   9.950   3.556  0.8594  0.7492 -0.5431
23141SOL    HW170001   5.476   9.904   3.545  0.9323  0.0673  1.3282
23141SOL    HW270002   5.626   9.883   3.536  1.0012  1.3385 -2.2071
23142SOL     OW70003   4.554   2.513   9.064 -0.1099  0.5205 -0.0435
23142SOL    HW170004   4.500   2.563   9.002 -1.7743 -0.0934  0.8250
23142SOL    HW270005   4.525   2.543   9.150 -0.0414 -0.8226  0.4655
23143SOL     OW70006   3.848   2.532   9.873 -0.0320 -0.5223 -0.4446
23143SOL    HW170007   3.855   2.508   9.780  1.2120 -1.4766 -0.1409
23143SOL    HW270008   3.892   2.617   9.879  2.0039 -1.5205 -0.3818
23144SOL     OW70009   9.649   7.555   0.288 -0.0531  0.2672 -0.6133
23144SOL    HW170010   9.676   7.552   0.380 -1.6039  0.3769 -0.1132
23144SOL    HW270011   9.709   7.496   0.243  1.3475  0.9407  0.2891
23145SOL     OW70012   2.615   9.789   2.398  0.0009  0.1806  0.4323
23145SOL    HW170013   2.558   9.866   2.392 -0.5462 -0.3112 -1.0535
23145SOL    HW270014   2.606   9.759   2.488  0.8297  2.2960  1.2955
23146SOL     OW70015   4.122   3.874   8.663  0.3801 -0.4316 -0.1662
23146SOL    HW170016   4.167   3.956   8.641  0.7256 -0.5978 -0.0814
23146SOL    HW270017   4.037   3.903   8.698  0.5316 -0.1031 -0.0590
23147SOL     OW70018   6.634   7.469   0.152 -0.3749 -0.6093 -0.3600
23147SOL    HW170019   6.706   7.530   0.138 -0.8022 -0.1448 -0.5620
23147SOL    HW270020   6.649   7.399   0.089  0.4510 -1.0232  0.2841
23148SOL     OW70021   1.238   6.385   3.063 -0.1769  0.5487 -0.4585
23148SOL    HW170022   1.331   6.374   3.045 -0.2084 -0.6735 -0.0243
23148SOL    HW270023   1.197   6.383   2.977 -0.0151 -1.7328 -0.5563
23149SOL     OW70024   8.098   8.937   5.358  0.1962 -0.4655  0.0930
23149SOL    HW170025   8.141   8.897   5.283 -1.4896 -2.3722  0.0489
23149SOL    HW270026   8.012   8.894   5.362 -0.0858  0.1756  2.6172
23150SOL     OW70027   1.110   1.375   3.194 -0.2251 -0.2318 -0.3949
23150SOL    HW170028   1.176   1.393   3.261  0.5200 -0.3229 -1.0846
23150SOL    HW270029   1.028   1.368   3.242  0.3164 -0.4333  0.5264
23151SOL     OW70030   2.354   1.045   6.700  0.5374 -0.1161  0.4063
23151SOL    HW170031   2.413   0.976   6.731  0.5574 -1.1757 -1.7929
23151SOL    HW270032   2.269   1.023   6.738  1.1802  0.5291  2.3269
23152SOL     OW70033   4.772   1.680   5.811  0.1688  0.6975  0.3407
23152SOL    HW170034   4.820   1.628   5.875 -0.9543  0.3317  0.9043
23152SOL    HW270035   4.765   1.767   5.852 -1.7780  0.0898  1.3845
23153SOL     OW70036   1.244   8.033   4.661  0.2357 -0.1826  0.2267
23153SOL    HW170037   1.301   8.109   4.655  0.3675 -0.1625  1.4108
23153SOL    HW270038   1.156   8.069   4.650  0.0350  0.6757  3.5426
23154SOL     OW70039   3.352   8.342   6.280 -0.2727 -0.8731  0.2093
23154SOL    HW170040   3.426   8.393   6.314 -0.0299 -0.5907 -0.7161
23154SOL    HW270041   3.349   8.264   6.336 -0.7836  0.2232  1.7929
23155SOL     OW70042   6.747   3.884   1.957  0.3989  0.1597 -0.3466
23155SOL    HW170043   6.706   3.966   1.929 -0.7177 -0.2280  0.0866
23155SOL    HW270044   6.712   3.869   2.045 -1.3449 -1.9935 -1.3225
23156SOL     OW70045   4.999   0.910   1.264 -0.0583  0.5981 -0.3053
23156SOL    HW170046   5.072   0.888   1.206  0.4600  0.8098  0.2539
23156SOL    HW270047   5.029   0.986   1.313 -0.5904  0.5872  0.0474
23157SOL     OW70048   9.344   5.855   4.575 -0.6534  0.2822 -0.0240
23157SOL    HW170049   9.283   5.921   4.605 -0.2099  1.1244 -0.9016
23157SOL    HW270050   9.315   5.774   4.617 -0.8988  1.1119  1.4842
23158SOL     OW70051   8.063   3.810   6.791 -0.0060  0.2423  0.3164
23158SOL    HW170052   8.110   3.865   6.854  1.0684 -1.7730  1.4006
23158SOL    HW270053   7.974   3.803   6.828 -1.1805  3.6046 -1.4456
23159SOL     OW70054   6.076   7.365   5.617 -0.1426 -0.2970 -0.1197
23159SOL    HW170055   6.128   7.420   5.559 -0.6948 -0.1134 -0.4386
23159SOL    HW270056   6.042   7.296   5.560 -0.1431 -0.4946  0.1185
23160SOL     OW70057   8.472   8.419   6.800  0.1058  0.1232  0.3207
23160SOL    HW170058   8.437   8.508   6.810 -0.9865 -0.0431 -1.5230
23160SOL    HW270059   8.403   8.362   6.835  1.0018 -0.0354  1.9401
23161SOL     OW70060   5.019   9.357   1.883  0.2889 -0.7345  0.0354
23161SOL    HW170061   5.112   9.377   1.872  0.2823 -0.9438 -0.4343
23161SOL    HW270062   5.008   9.272   1.841 -0.3651 -0.1383 -1.0681
23162SOL     OW70063   3.315   2.566   9.625  0.3840 -0.2508  0.5437
23162SOL    HW170064   3.318   2.515   9.705 -1.0276 -0.2072  0.6468
23162SOL    HW270065   3.222   2.579   9.608  0.6813  0.8382 -0.3997
23163SOL     OW70066   5.953   2.037   4.414 -0.3762 -0.7753  0.4033
23163SOL    HW170067   5.874   2.051   4.361 -0.7552 -0.0745  1.1229
23163SOL    HW270068   5.961   2.117   4.465  1.0128 -0.7026  0.0883
23164SOL     OW70069   5.836   2.921   6.697  0.3150 -0.0255  0.1478
23164SOL    HW170070   5.904   2.868   6.655  0.1022  0.3617 -0.7071
23164SOL    HW270071   5.828   2.885   6.785  0.5093 -1.0953 -0.2610
23165SOL     OW70072   7.941   0.276   3.048  0.4707 -0.6027 -0.3230
23165SOL    HW170073   7.885   0.256   3.123 -0.5176 -0.7954 -1.0935
23165SOL    HW270074   7.931   0.370   3.035 -0.9134 -0.8759 -1.4056
23166SOL     OW70075   4.137   6.958   0.623  0.1088 -0.0133  0.5197
23166SOL    HW170076   4.083   6.903   0.678 -1.1285 -0.8555 -1.4227
23166SOL    HW270077   4.216   6.906   0.606 -1.5310 -1.8272 -2.2208
23167SOL     OW70078   4.659   0.785   6.600 -0.1883 -0.0455 -0.0317
23167SOL    HW170079   4.565   0.807   6.600  0.0803  1.6865  3.0015
23167SOL    HW270080   4.662   0.692   6.621 -1.2145 -0.3720 -1.2150
23168SOL     OW70081   9.847   2.674   2.056  0.3092  0.2617 -0.3759
23168SOL    HW170082   9.892   2.743   2.106  1.6786  0.7549 -2.1582
23168SOL    HW270083   9.808   2.720   1.982  0.1467 -0.6993 -0.9062
23169SOL     OW70084   2.888   2.132   0.462  0.5043  0.5927  0.0245
23169SOL    HW170085   2.830   2.095   0.396 -0.0176  0.9980  0.2468
23169SOL    HW270086   2.930   2.057   0.503 -1.4552  0.1378  1.3275
23170SOL     OW70087   6.947   4.991   4.219 -0.0213 -0.2479 -0.1655
23170SOL    HW170088   6.928   5.084   4.209  0.9187 -0.1583 -1.1767
23170SOL    HW270089   7.011   4.971   4.151  0.1397 -1.5361  0.3318
23171SOL     OW70090   2.182   3.115   0.043  0.3214  0.0591 -0.2639
23171SOL    HW170091   2.126   3.182   0.004 -3.1425 -2.6768 -0.4948
23171SOL    HW270092   2.251   3.100  -0.021 -1.3637  0.3895 -2.2435
23172SOL     OW70093   2.923   2.166   4.869  0.4734 -0.4546  0.7236
23172SOL    HW170094   2.941   2.257   4.848  0.4094 -0.7608 -0.7667
23172SOL    HW270095   2.981   2.116   4.811 -1.7582 -1.3827 -0.8632
23173SOL     OW70096   9.683   9.813   6.128 -0.2736  0.2529  0.5930
23173SOL    HW170097   9.731   9.837   6.049 -0.4380  1.9657  0.9810
23173SOL    HW270098   9.602   9.863   6.123 -0.4862  0.0344  1.6267
23174SOL     OW70099   2.615   2.752   8.103 -0.0640 -0.0752 -0.1557
23174SOL    HW170100   2.553   2.742   8.175 -1.8016 -0.4190 -1.6190
23174SOL    HW270101   2.607   2.844   8.078 -0.9327 -0.3811 -1.1033
23175SOL     OW70102   8.011   6.895   9.239  0.3609 -0.7246  0.0280
23175SOL    HW170103   7.967   6.979   9.229  0.5422 -0.6436 -0.0953
23175SOL    HW270104   8.011   6.857   9.151  0.8709 -0.5557 -0.0470
23176SOL     OW70105   7.794   2.338   3.905  0.5948 -0.1489 -0.5469
23176SOL    HW170106   7.809   2.245   3.885  1.3607 -0.6709  2.0871
23176SOL    HW270107   7.881   2.375   3.914  0.2871  0.7475 -1.1524
23177SOL     OW70108   3.586   2.570   0.361 -0.2554  0.2063  0.3573
23177SOL    HW170109   3.579   2.547   0.454 -0.3085 -0.3710  0.2149
23177SOL    HW270110   3.595   2.485   0.316  1.5774  0.5530 -0.0198
23178SOL     OW70111   7.868   2.164   7.802 -0.8655 -0.0164  0.4826
23178SOL    HW170112   7.963   2.151   7.798 -0.8433 -0.2869  1.5438
23178SOL    HW270113   7.853   2.196   7.891 -1.4107  3.2623 -0.6405
23179SOL     OW70114   2.759   1.552   7.628  0.0525  0.2885 -0.1728
23179SOL    HW170115   2.731   1.525   7.541  0.8420  0.8492 -0.6173
23179SOL    HW270116   2.771   1.647   7.621  1.5830  0.1439  0.1059
23180SOL     OW70117   3.539   3.714   9.768 -0.3569  0.5618  0.4442
23180SOL    HW170118   3.479   3.787   9.784  1.4614  2.4938 -0.9845
23180SOL    HW270119   3.610   3.727   9.831  0.5964  0.8278 -0.6407
23181SOL     OW70120   0.217   7.362   8.084 -0.4709 -0.2627  0.0358
23181SOL    HW170121   0.259   7.317   8.157 -1.5222  0.3875  1.0813
23181SOL    HW270122   0.161   7.427   8.125 -0.9527  0.2513 -1.3700
23182SOL     OW70123   6.021   8.740   3.222 -0.4220  0.4936  0.1286
23182SOL    HW170124   6.085   8.691   3.170 -0.7104  1.5657 -1.3049
23182SOL    HW270125   6.073   8.803   3.271 -0.2281  0.1285  0.3958
23183SOL     OW70126   0.113   7.339   4.550  0.3160  0.2720 -0.3960
23183SOL    HW170127   0.144   7.337   4.640 -0.5772  0.5661 -0.0797
23183SOL    HW270128   0.052   7.413   4.547  0.5647  0.4582 -1.3157
23184SOL     OW70129   9.229   7.015   6.834 -0.5253 -0.4242 -0.4555
23184SOL    HW170130   9.306   6.990   6.783 -0.8786 -0.9096 -0.7616
23184SOL    HW270131   9.262   7.026   6.923  0.1410  0.6524 -0.8190
23185SOL     OW70132   4.985   7.367   9.463 -0.2604 -0.5420 -0.3412
23185SOL    HW170133   5.031   7.451   9.458 -1.6840  0.2906  0.0216
23185SOL    HW270134   5.001   7.326   9.378 -0.4660  0.5909 -0.9463
23186SOL     OW70135   9.560   2.776   0.524  0.0803  0.3354  0.4211
23186SOL    HW170136   9.601   2.861   0.537 -0.9525  1.1592 -1.3042
23186SOL    HW270137   9.548   2.741   0.612 -0.6249  2.5408  1.2562
23187SOL     OW70138   2.814   8.692   3.593  0.1586 -0.0613 -0.1785
23187SOL    HW170139   2.738   8.712   3.647  0.2112 -0.3792  0.0135
23187SOL    HW270140   2.809   8.597   3.578 -1.2688  0.3287 -2.8252
23188SOL     OW70141   9.965   6.019   4.345  0.0397 -0.3573  0.7971
23188SOL    HW170142   9.960   6.016   4.250 -0.0671 -0.6085  0.8098
23188SOL    HW270143   9.907   6.090   4.371  1.1603  0.6687  0.5952
23189SOL     OW70144   6.517   0.652   1.849 -0.0600 -0.4227 -0.4740
23189SOL    HW170145   6.581   0.621   1.913  1.3229 -1.6931 -2.3599
23189SOL    HW270146   6.434   0.652   1.896  1.2438  1.2179  2.0377
23190SOL     OW70147   4.109   6.791   1.045  0.2324  0.3344 -0.0904
23190SOL    HW170148   4.187   6.842   1.021  0.6563 -0.7869 -1.2014
23190SOL    HW270149   4.143   6.717   1.095 -0.4042  1.2134  1.7339
23191SOL     OW70150   2.707   7.833   9.158  0.5741 -0.1366  0.2961
23191SOL    HW170151   2.762   7.888   9.102  2.5927  0.0164  2.2780
23191SOL    HW270152   2.657   7.896   9.211  0.0049 -0.2625 -0.0867
23192SOL     OW70153   6.822   1.276   8.856 -0.1322 -0.4219  0.0318
23192SOL    HW170154   6.812   1.211   8.926 -1.9884  1.7291  1.8981
23192SOL    HW270155   6.735   1.282   8.816 -0.0120  0.9031 -0.0712
23193SOL     OW70156   2.158   7.392   4.770 -0.5565  0.0282  0.1042
23193SOL    HW170157   2.178   7.327   4.702  1.9962  0.9787 -0.1957
23193SOL    HW270158   2.063   7.404   4.765 -0.7105 -1.4654 -1.8800
23194SOL     OW70159   9.446   7.409   9.954  0.2656 -0.0377 -0.6721
23194SOL    HW170160   9.506   7.334   9.951 -1.3312 -1.3806 -1.1407
23194SOL    HW270161   9.396   7.402   9.873  0.1120  1.5893 -0.7372
23195SOL     OW70162   7.719   2.437   2.325  0.1018 -0.4597  0.1682
23195SOL    HW170163   7.773   2.365   2.356  0.8518  0.3490  0.7692
23195SOL    HW270164   7.770   2.478   2.256 -0.8477 -1.2276 -1.0341
23196SOL     OW70165   5.579   5.819   5.967  0.4934 -0.4593 -0.0626
23196SOL    HW170166   5.523   5.816   6.044  2.3976  0.4041  1.4309
23196SOL    HW270167   5.532   5.766   5.901 -1.9994  0.1947  1.0707
23197SOL     OW70168   2.787   1.710   1.390  0.4954  0.6062 -0.0564
23197SOL    HW170169   2.771   1.803   1.372 -0.2352  0.9072  1.9067
23197SOL    HW270170   2.877   1.707   1.422  0.8482  0.4744 -1.0287
23198SOL     OW70171   3.635   2.649   2.149 -0.0487  0.1297 -0.3837
23198SOL    HW170172   3.589   2.669   2.231 -0.5396  0.5789 -0.7582
23198SOL    HW270173   3.726   2.636   2.174  0.2107  2.3249 -0.0239
23199SOL     OW70174   0.178   4.977   6.487 -0.2590 -0.4206  0.1308
23199SOL    HW170175   0.134   4.911   6.540  1.5366  0.3225  2.7207
23199SOL    HW270176   0.110   5.042   6.468 -1.4706 -1.8055 -0.4405
23200SOL     OW70177   5.086   8.927   9.911  0.4888  0.2232 -0.0998
23200SOL    HW170178   5.058   9.014   9.880  0.0320 -0.2159 -0.9388
23200SOL    HW270179   5.125   8.944   9.997  0.4962  1.2764 -0.2972
23201SOL     OW70180   3.332   4.645   4.128  0.2613 -0.3168 -0.2712
23201SOL    HW170181   3.392   4.589   4.177  0.6360  0.4208  0.1315
23201SOL    HW270182   3.388   4.699   4.073 -0.0734 -0.1092 -0.4119
23202SOL     OW70183   9.641   7.033   5.037 -0.2752 -0.2192  0.9724
23202SOL    HW170184   9.585   6.955   5.039  0.4311 -0.7400  0.6959
23202SOL    HW270185   9.710   7.012   4.974 -0.3462  0.8211  0.5159
23203SOL     OW70186   0.738   6.948   9.666 -0.1120  0.3663 -0.3449
23203SOL    HW170187   0.655   6.971   9.624 -0.7437  0.1350  0.7291
23203SOL    HW270188   0.721   6.959   9.760  1.2644  0.8943 -0.1409
23204SOL     OW70189   1.552   1.695   1.331 -0.2545 -0.6340 -0.4279
23204SOL    HW170190   1.621   1.638   1.365 -0.2666  0.8194  2.3021
23204SOL    HW270191   1.475   1.638   1.325 -0.4447 -0.8947  2.8388
23205SOL     OW70192   2.074   8.582   0.978  0.3092  0.2775  0.1728
23205SOL    HW170193   2.115   8.619   1.057  0.4744  1.5771 -0.4948
23205SOL    HW270194   2.079   8.488   0.991  2.0279  0.4159  0.8764
23206SOL     OW70195   0.787   7.242   2.906 -0.4822 -0.3008 -0.2314
23206SOL    HW170196   0.764   7.186   2.980  1.1358 -1.2608 -0.3933
23206SOL    HW270197   0.728   7.316   2.913 -1.1529 -0.9279  1.3449
23207SOL     OW70198   5.364   8.625   5.025  0.3418  0.0193 -0.3526
23207SOL    HW170199   5.282   8.642   5.071  0.4950  1.1399 -0.4565
23207SOL    HW270200   5.423   8.591   5.092  0.8470  2.4629  0.5546
23208SOL     OW70201   3.760   1.428   1.694 -0.3156 -0.3138 -0.4288
23208SOL    HW170202   3.824   1.482   1.648  0.7069  0.0129  1.2713
23208SOL    HW270203   3.696   1.403   1.627  0.7665  0.6034 -1.8580
23209SOL     OW70204   1.194   0.651   2.353  0.2216  0.0774 -0.2044
23209SOL    HW170205   1.119   0.669   2.410 -0.0766 -0.8223 -0.2967
23209SOL    HW270206   1.243   0.733   2.350 -0.4683  0.5100  0.2973
23210SOL     OW70207   0.329   0.257   9.448 -0.4219 -0.5740 -0.1233
23210SOL    HW170208   0.261   0.258   9.516 -0.1592 -1.8287  0.1885
23210SOL    HW270209   0.349   0.164   9.437  1.8950 -0.1890  0.4594
23211SOL     OW70210   2.745   5.616   0.555 -0.2632  0.9178  0.8253
23211SOL    HW170211   2.679   5.681   0.576  1.1121  2.5931  0.1750
23211SOL    HW270212   2.802   5.613   0.631 -0.3008  0.4546  0.8433
23212SOL     OW70213   4.970   6.117   0.405  0.0054  0.2199  0.0328
23212SOL    HW170214   5.033   6.049   0.380 -1.0174 -0.9083  0.4257
23212SOL    HW270215   4.884   6.074   0.396 -0.5500  0.3597  3.3976
23213SOL     OW70216   1.413   2.689   4.343 -0.2684 -0.0648 -0.5025
23213SOL    HW170217   1.466   2.685   4.423  0.4371  0.6821 -0.9256
23213SOL    HW270218   1.357   2.765   4.355 -1.3634 -0.9295  0.0002
23214SOL     OW70219   9.703   3.603   7.984  0.1075 -0.1557 -0.1262
23214SOL    HW170220   9.670   3.693   7.985  0.0717 -0.1709  1.2076
23214SOL    HW270221   9.637   3.553   7.936  0.9070  0.7780 -2.3715
23215SOL     OW70222   9.075   7.957   7.884  0.4349  0.3581 -0.1515
23215SOL    HW170223   9.167   7.966   7.906  0.8283 -0.5258 -1.3499
23215SOL    HW270224   9.047   8.046   7.861  1.1797  0.5064 -0.5099
23216SOL     OW70225   3.931   5.326   4.941  0.4314 -0.5537 -0.3209
23216SOL    HW170226   4.014   5.290   4.911  0.0745 -1.8892  0.2240
23216SOL    HW270227   3.928   5.415   4.904  0.6100 -1.6138 -3.1004
23217SOL     OW70228   6.808   0.311   1.955 -0.1919  0.2824 -0.4301
23217SOL    HW170229   6.777   0.401   1.962 -1.7183 -0.2114 -0.5284
23217SOL    HW270230   6.861   0.311   1.875  0.4211  1.2377 -0.0500
23218SOL     OW70231   6.711   2.299   3.248 -0.2172  0.0371 -0.2010
23218SOL    HW170232   6.762   2.350   3.310  0.5392  1.7558 -2.1060
23218SOL    HW270233   6.636   2.355   3.227 -0.9953 -0.9457 -0.1011
23219SOL     OW70234   0.608   0.116   6.686  0.3532 -0.4204 -0.0097
23219SOL    HW170235   0.699   0.103   6.713  0.8811  1.6890 -0.5928
23219SOL    HW270236   0.556   0.069   6.751  1.7981 -0.2340  1.3350
23220SOL     OW70237   5.917   8.434   7.895 -0.2668  0.0846  0.1083
23220SOL    HW170238   5.934   8.526   7.874  1.8547 -0.0662  0.9127
23220SOL    HW270239   5.845   8.437   7.959 -0.5450  1.1393 -0.2336
23221SOL     OW70240   8.177   8.761   5.876  0.2016  0.8688 -0.1954
23221SOL    HW170241   8.086   8.749   5.849  0.6044  1.3498 -1.8913
23221SOL    HW270242   8.222   8.789   5.796  1.5336  2.1635  0.9454
23222SOL     OW70243   2.776   3.581   0.937  0.0911  0.2545  0.3935
23222SOL    HW170244   2.852   3.525   0.952 -0.8767 -1.3250 -0.4416
23222SOL    HW270245   2.716   3.561   1.009  0.2101  1.1059  0.7496
23223SOL     OW70246   2.057   3.735   5.629 -1.0671  0.6208  0.0830
23223SOL    HW170247   2.108   3.805   5.588 -1.2645  1.0896  0.6269
23223SOL    HW270248   2.011   3.778   5.701 -1.7769  0.0767 -0.0438
23224SOL     OW70249   9.195   2.609   6.225  0.0393 -0.4840 -0.0682
23224SOL    HW170250   9.267   2.672   6.230  0.1565 -0.3293 -2.4123
23224SOL    HW270251   9.226   2.534   6.276  0.5675  0.6960  1.4324
23225SOL     OW70252   2.041   8.584   2.014 -0.8918  0.1458  0.4622
23225SOL    HW170253   2.028   8.520   2.084  1.6741 -0.5656  0.3937
23225SOL    HW270254   1.999   8.663   2.046  0.1382 -0.1806  2.8121
23226SOL     OW70255   2.844   9.017   5.852  0.4631 -0.3214 -0.3745
23226SOL    HW170256   2.840   9.068   5.771 -0.1688  0.0013 -0.1505
23226SOL    HW270257   2.801   8.934   5.831  1.0786 -0.5875 -0.6085
23227SOL     OW70258   3.480   7.507   5.293  0.4395 -0.1775 -0.4768
23227SOL    HW170259   3.513   7.419   5.271  0.9485  0.3323 -1.9207
23227SOL    HW270260   3.528   7.531   5.372  0.1875 -1.2526  0.0236
23228SOL     OW70261   1.422   6.050   3.541  0.3485 -0.2564  0.2684
23228SOL    HW170262   1.405   5.957   3.524  0.9482 -0.3178 -0.0146
23228SOL    HW270263   1.468   6.051   3.626  3.3442 -0.5445 -1.1986
23229SOL     OW70264   8.266   5.566   7.523 -0.2772 -0.1474  0.5582
23229SOL    HW170265   8.197   5.527   7.469 -0.4305 -0.9616  1.3112
23229SOL    HW270266   8.309   5.491   7.563 -0.1585  0.4374  1.5494
23230SOL     OW70267   5.977   9.367   8.645 -0.2417 -0.4371  0.5341
23230SOL    HW170268   6.030   9.347   8.568 -0.3865  0.8954  0.0565
23230SOL    HW270269   5.953   9.459   8.635 -0.2490 -0.2128  2.1779
23231SOL     OW70270   1.655   3.156   6.713  0.3215  0.0698 -0.0827
23231SOL    HW170271   1.573   3.117   6.684 -0.4014  1.8189 -0.5569
23231SOL    HW270272   1.701   3.086   6.758 -0.8432 -1.3120 -0.9628
23232SOL     OW70273   2.454   6.930   7.281 -0.1599  0.3625 -0.0613
23232SOL    HW170274   2.392   6.951   7.351 -0.7508 -0.7394 -0.2283
23232SOL    HW270275   2.534   6.904   7.326 -0.1072  0.9222  0.1732
23233SOL     OW70276   8.929   3.017   6.829 -0.6205 -0.1153  0.6729
23233SOL    HW170277   9.023   3.031   6.840 -0.5573  1.9567 -1.7174
23233SOL    HW270278   8.892   3.029   6.917  1.2448 -0.3465  1.5332
23234SOL     OW70279   3.621   1.623   4.174  0.1161 -0.0101  0.4122
23234SOL    HW170280   3.634   1.597   4.083  2.3146 -1.5682  1.1038
23234SOL    HW270281   3.654   1.713   4.179 -0.5113  0.2795 -0.4036
23235SOL     OW70282   0.455   4.195   3.132 -0.4098 -0.3024  0.4797
23235SOL    HW170283   0.466   4.280   3.090  3.1951 -0.6644  0.3356
23235SOL    HW270284   0.447   4.215   3.225  2.0262  0.2757  0.6450
23236SOL     OW70285   8.076   2.712   8.568 -0.4475 -0.3336  0.2663
23236SOL    HW170286   8.041   2.706   8.479  1.3162  2.2396 -0.7193
23236SOL    HW270287   8.113   2.625   8.585  1.1408 -0.3132 -2.4706
23237SOL     OW70288   7.351   9.130   6.235 -0.2531  0.3523  0.4148
23237SOL    HW170289   7.444   9.109   6.227 -0.3100 -0.3472  1.3873
23237SOL    HW270290   7.335   9.195   6.167  0.8942  0.3158  0.0880
23238SOL     OW70291   3.892   0.995   0.416 -0.5858 -0.4618 -0.1317
23238SOL    HW170292   3.933   1.078   0.438  1.9041 -0.8537 -2.7439
23238SOL    HW270293   3.844   1.013   0.334  1.5364 -1.8861 -1.7975
23239SOL     OW70294   4.998   2.512   9.486 -0.2794 -0.0450 -0.1676
23239SOL    HW170295   5.079   2.495   9.535 -0.7917 -0.9904  0.3922
23239SOL    HW270296   5.026   2.522   9.395  0.4539 -0.5372 -0.0070
23240SOL     OW70297   1.630   2.579   7.954  0.2749  0.1527  0.1899
23240SOL    HW170298   1.663   2.494   7.983  1.5507  0.5957  0.0866
23240SOL    HW270299   1.589   2.617   8.032 -1.3068 -0.9865 -0.0256
23241SOL     OW70300   6.012   3.232   5.152 -0.4004  0.1808 -0.3898
23241SOL    HW170301   6.060   3.315   5.160 -0.8408  0.5320 -1.2386
23241SOL    HW270302   6.012   3.214   5.058  0.0131 -0.9885 -0.1756
23242SOL     OW70303   4.930   4.083   3.021 -0.2222  0.1086  0.2726
23242SOL    HW170304   4.950   4.104   2.930 -2.2062  2.9880  0.3686
23242SOL    HW270305   4.866   4.012   3.017 -0.5284  0.4260 -0.6089
23243SOL     OW70306   3.574   1.417   1.106  0.0779  0.2212  0.2359
23243SOL    HW170307   3.659   1.443   1.141 -0.6731  3.3251  0.0828
23243SOL    HW270308   3.535   1.499   1.075 -2.9094 -1.1061  0.1382
23244SOL     OW70309   4.082   9.498   8.214 -0.1666 -0.5598 -0.0882
23244SOL    HW170310   4.125   9.582   8.198 -2.2807  0.5733 -0.2291
23244SOL    HW270311   4.077   9.456   8.128 -1.1258  0.2298 -0.4317
23245SOL     OW70312   3.727   1.908   7.126 -0.4036  0.0668  0.7095
23245SOL    HW170313   3.736   1.830   7.072  1.2852  1.0178 -0.4876
23245SOL    HW270314   3.683   1.972   7.069  0.0410  0.6125  0.9665
23246SOL     OW70315   3.812   9.384   4.679 -0.1159 -0.0168  0.3104
23246SOL    HW170316   3.749   9.345   4.618 -0.0599 -0.8357  0.7670
23246SOL    HW270317   3.779   9.473   4.693  0.2801  0.4499 -1.4905
23247SOL     OW70318   3.063   2.966   4.970 -0.1974 -0.1098  0.2275
23247SOL    HW170319   3.100   2.887   5.011 -2.6587 -1.4234  0.1068
23247SOL    HW270320   3.130   2.996   4.909  2.2245 -0.0401  2.7574
23248SOL     OW70321   5.545   5.494   0.711 -0.1035 -0.3584  0.3934
23248SOL    HW170322   5.518   5.560   0.775 -3.0610  0.4188 -1.4438
23248SOL    HW270323   5.526   5.410   0.754  0.9597  0.0220  1.6670
23249SOL     OW70324   8.824   0.750   5.597 -0.1856  0.3106  0.9279
23249SOL    HW170325   8.905   0.793   5.572 -0.6945  0.2514 -1.0003
23249SOL    HW270326   8.756   0.796   5.547 -1.0336 -1.1386  0.6933
23250SOL     OW70327   6.532   9.339   5.122 -0.4057  0.0518 -0.1285
23250SOL    HW170328   6.506   9.349   5.031 -2.2328  1.4509  0.4891
23250SOL    HW270329   6.478   9.266   5.155 -0.2387 -0.0106  0.0106
23251SOL     OW70330   2.106   1.261   8.849 -0.5787  0.8119  0.2951
23251SOL    HW170331   2.106   1.246   8.943  0.3662 -0.5800  0.1053
23251SOL    HW270332   2.154   1.343   8.838 -0.2943  0.7450  0.9982
23252SOL     OW70333   5.203   1.153   3.789 -0.2438 -0.2529 -0.8568
23252SOL    HW170334   5.271   1.126   3.728  0.3265 -1.2001  0.1574
23252SOL    HW270335   5.247   1.158   3.874  0.2451  5.8822 -1.0638
23253SOL     OW70336   6.174   8.253   5.286  0.2850 -0.2644  0.2013
23253SOL    HW170337   6.125   8.227   5.208 -0.7920  0.1903  0.6988
23253SOL    HW270338   6.263   8.268   5.255 -0.2448  0.4350 -1.0618
23254SOL     OW70339   2.070   9.969   3.464 -0.4857 -0.7403  0.1474
23254SOL    HW170340   2.153   9.973   3.511 -0.1722  3.7693 -0.2884
23254SOL    HW270341   2.010   9.925   3.523  1.3116 -0.6965  2.1096
23255SOL     OW70342   4.893   9.459   1.559 -0.0081  0.3888  0.5868
23255SOL    HW170343   4.936   9.519   1.620  0.8517  0.4233 -0.0303
23255SOL    HW270344   4.899   9.503   1.474 -0.7687  0.1261  0.3837
23256SOL     OW70345   1.029   5.748   8.673 -0.1481 -0.1923 -0.1554
23256SOL    HW170346   1.069   5.808   8.737  1.0770 -0.1451 -0.9396
23256SOL    HW270347   0.978   5.687   8.727  1.3361 -0.5347  0.9513
23257SOL     OW70348   1.720   2.791   4.968  0.1666  0.2562  0.0531
23257SOL    HW170349   1.732   2.809   4.875 -3.4135 -1.1311 -0.8521
23257SOL    HW270350   1.713   2.696   4.974  0.6867  0.2899  1.8432
23258SOL     OW70351   7.975   0.299   7.104 -0.1020 -0.4806  0.6916
23258SOL    HW170352   7.935   0.212   7.095 -1.1329  0.0713 -0.3665
23258SOL    HW270353   7.985   0.311   7.198  0.6025 -1.9758  0.8361
23259SOL     OW70354   6.816   4.132   2.770 -0.4690  0.4177 -0.1551
23259SOL    HW170355   6.894   4.177   2.739 -0.6974 -0.1857 -1.6699
23259SOL    HW270356   6.848   4.072   2.838 -0.0419  2.1554  1.2739
23260SOL     OW70357   2.121   9.162   5.827 -0.7853 -0.0696  0.1008
23260SOL    HW170358   2.157   9.240   5.869  0.5071 -0.1011 -0.9035
23260SOL    HW270359   2.176   9.090   5.858 -1.7159 -0.5389  0.6996
23261SOL     OW70360   3.852   7.935   5.703  0.6027  0.2109  0.0630
23261SOL    HW170361   3.870   8.028   5.717  0.4132  0.7466 -2.6949
23261SOL    HW270362   3.938   7.893   5.707  0.7714  0.6185  0.6657
23262SOL     OW70363   6.794   9.789   0.508 -0.1368  0.1220 -0.3859
23262SOL    HW170364   6.844   9.750   0.436  0.0713  0.4951 -0.4475
23262SOL    HW270365   6.828   9.878   0.515 -0.0487  0.0423  0.2823
23263SOL     OW70366   1.891   4.868   8.895 -0.0230  0.0163 -0.4856
23263SOL    HW170367   1.967   4.890   8.949 -0.7616  0.2029  0.4967
23263SOL    HW270368   1.820   4.923   8.929 -0.5622 -0.0161 -1.5102
23264SOL     OW70369   9.395   5.190   8.157 -0.4934  0.0378 -0.4016
23264SOL    HW170370   9.317   5.234   8.192 -1.0598 -0.0146 -1.5771
23264SOL    HW270371   9.468   5.230   8.206 -1.3735 -1.7711  2.6755
23265SOL     OW70372   4.979   3.654   0.738 -0.3956  0.4017  0.3479
23265SOL    HW170373   5.053   3.604   0.703  0.1958  0.0478  2.0345
23265SOL    HW270374   4.973   3.627   0.830 -2.2290  0.9046  0.4072
23266SOL     OW70375   9.659   8.661   0.657  0.0174  0.2494  0.0755
23266SOL    HW170376   9.691   8.751   0.649  0.2343  0.2520  0.8701
23266SOL    HW270377   9.596   8.665   0.729 -0.3467 -0.1354 -0.2198
23267SOL     OW70378   6.981   9.779   7.723  0.1193  0.0100  0.0523
23267SOL    HW170379   6.965   9.874   7.726  0.9684  0.1572  0.3169
23267SOL    HW270380   6.983   9.753   7.816 -1.5911 -0.5456 -0.0372
23268SOL     OW70381   5.998   7.452   4.769 -0.8291 -0.0650 -0.1989
23268SOL    HW170382   5.916   7.402   4.771 -0.8434 -0.0506 -0.3511
23268SOL    HW270383   5.987   7.519   4.836 -0.0654 -1.4135  1.3319
23269SOL     OW70384   7.743   7.651   9.468 -0.0541  1.0886  0.4177
23269SOL    HW170385   7.791   7.732   9.455 -0.5831  1.6558  1.7763
23269SOL    HW270386   7.778   7.615   9.550 -0.5781  0.5193  0.3970
23270SOL     OW70387   1.328   4.122   2.831 -0.2339 -0.4543 -0.0109
23270SOL    HW170388   1.272   4.143   2.757  0.5833  1.2681 -0.2117
23270SOL    HW270389   1.416   4.145   2.801  0.8040 -3.8749 -0.0261
23271SOL     OW70390   8.581   7.672   1.341 -0.0798  0.3411  0.4085
23271SOL    HW170391   8.556   7.586   1.308  0.3215 -0.0320  1.0417
23271SOL    HW270392   8.665   7.690   1.299  0.2807  0.0051  0.9675
23272SOL     OW70393   3.927   4.811   8.594  0.3356  0.4939 -0.2171
23272SOL    HW170394   3.999   4.774   8.544  1.8513  1.0997  1.4148
23272SOL    HW270395   3.871   4.735   8.614  1.8056 -0.4290  0.5308
23273SOL     OW70396   1.213   2.367   5.434 -0.0859 -0.0031 -0.3563
23273SOL    HW170397   1.220   2.414   5.516 -1.5214  0.8237 -0.6770
23273SOL    HW270398   1.304   2.346   5.410  0.2901 -2.4820  2.6433
23274SOL     OW70399   5.242   5.572   5.096  0.2741 -0.4349  0.1959
23274SOL    HW170400   5.244   5.485   5.135  2.0172 -0.4141  0.1955
23274SOL    HW270401   5.241   5.632   5.170  0.4739 -0.4335  0.1967
23275SOL     OW70402   1.218   7.814   7.420  0.3733  0.7716  0.2133
23275SOL    HW170403   1.188   7.902   7.396 -0.9495  0.6309  1.2150
23275SOL    HW270404   1.277   7.828   7.494  0.5586  0.8517  0.0506
23276SOL     OW70405   4.255   2.007   8.519  0.2265  0.1196  0.5208
23276SOL    HW170406   4.223   1.930   8.472  1.1293  0.2396 -0.3280
23276SOL    HW270407   4.251   2.077   8.454  0.6836  0.4882  0.8857
23277SOL     OW70408   8.728   1.116   4.162 -0.3441  0.4378 -0.0292
23277SOL    HW170409   8.674   1.123   4.083 -0.8944  0.9138  0.3805
23277SOL    HW270410   8.730   1.204   4.198  0.5828  0.3902  0.0596
23278SOL     OW70411   4.126   6.607   4.898  0.6149  0.4838  0.6895
23278SOL    HW170412   4.098   6.541   4.961  0.6979 -0.2863 -0.0693
23278SOL    HW270413   4.219   6.618   4.914  0.2291  1.9261  2.1831
23279SOL     OW70414   8.679   3.604   3.393 -0.4606  0.0298  0.5681
23279SOL    HW170415   8.758   3.550   3.389 -0.1327  0.5038  0.5651
23279SOL    HW270416   8.665   3.618   3.487 -0.8260 -0.4582  0.5918
23280SOL     OW70417   9.316   3.821   9.845 -0.3466 -0.1082  0.2743
23280SOL    HW170418   9.236   3.867   9.869  0.1715  0.9637  0.0464
23280SOL    HW270419   9.336   3.853   9.756 -0.1686 -1.0725 -0.0409
23281SOL     OW70420   3.418   2.881   8.840 -0.2302  0.1502 -0.3238
23281SOL    HW170421   3.348   2.818   8.859 -1.6754  1.6576 -0.4099
23281SOL    HW270422   3.498   2.829   8.839 -1.0757 -1.3249  1.8369
23282SOL     OW70423   4.184   4.730   8.454  0.2914  0.3383 -0.0275
23282SOL    HW170424   4.216   4.661   8.395  1.2121 -0.5458  1.4549
23282SOL    HW270425   4.260   4.788   8.467 -0.3695  1.4623 -0.9650
23283SOL     OW70426   1.469   8.531   4.878 -0.1191 -0.6946 -0.8960
23283SOL    HW170427   1.463   8.539   4.782  0.5389 -0.9809 -0.9673
23283SOL    HW270428   1.561   8.550   4.897 -0.3200 -0.3362 -0.2866
23284SOL     OW70429   2.656   0.560   4.417  0.4759  0.0460  0.3641
23284SOL    HW170430   2.612   0.505   4.481 -0.9987 -1.0238 -1.4697
23284SOL    HW270431   2.593   0.630   4.398  0.8991  0.3645  0.1137
23285SOL     OW70432   7.496   8.784   1.051  1.0334 -0.0481  0.2269
23285SOL    HW170433   7.453   8.780   0.966  0.7343 -0.3597  0.3937
23285SOL    HW270434   7.576   8.835   1.034  0.0912  1.4636  0.1457
23286SOL     OW70435   5.896   1.327   5.730  0.0068 -0.2456  0.0430
23286SOL    HW170436   5.924   1.377   5.806  0.2570 -2.2120  1.3309
23286SOL    HW270437   5.854   1.248   5.766  0.1884 -1.2872 -1.8384
23287SOL     OW70438   2.814   2.950   8.695 -0.1187  0.7369  0.0058
23287SOL    HW170439   2.750   2.884   8.721  0.9103 -0.3438 -0.1069
23287SOL    HW270440   2.823   2.939   8.601 -0.5091  1.5710 -0.1320
23288SOL     OW70441   2.260   4.409   0.406  0.4243 -0.3347  0.0427
23288SOL    HW170442   2.175   4.427   0.366  0.4368 -2.8701 -1.3345
23288SOL    HW270443   2.242   4.340   0.470  1.5062 -1.4798 -0.8233
23289SOL     OW70444   9.015   8.612   0.175 -0.3584  0.6216 -0.4684
23289SOL    HW170445   9.051   8.692   0.214  0.8384  1.7090 -3.4957
23289SOL    HW270446   8.981   8.640   0.090 -0.5968 -1.9578 -1.3024
23290SOL     OW70447   5.339   8.108   8.529  0.1037 -0.0290  0.5174
23290SOL    HW170448   5.271   8.158   8.484 -0.7647 -0.4383  1.3473
23290SOL    HW270449   5.413   8.108   8.468 -0.0739  1.7480  0.2422
23291SOL     OW70450   9.563   1.395   2.720 -0.4692  0.1022 -0.3160
23291SOL    HW170451   9.549   1.489   2.710 -0.0270  0.1203 -0.7652
23291SOL    HW270452   9.543   1.378   2.812 -1.3061  0.4967 -0.4185
23292SOL     OW70453   6.740   4.002   7.159 -0.0913 -0.4017 -0.0773
23292SOL    HW170454   6.727   4.052   7.240 -0.9484 -1.0703  0.2110
23292SOL    HW270455   6.814   3.944   7.179 -0.4814 -0.7650  0.3323
23293SOL     OW70456   2.602   6.110   1.336  0.3097 -0.0119 -0.0585
23293SOL    HW170457   2.547   6.088   1.411  0.1257  3.0224  0.8256
23293SOL    HW270458   2.680   6.150   1.375  0.9572  0.1478 -1.4452
23294SOL     OW70459   1.050   6.467   4.193  0.3870  0.5003 -0.3243
23294SOL    HW170460   1.080   6.377   4.199 -0.1281  0.1406 -2.4226
23294SOL    HW270461   1.131   6.519   4.193  0.7046  0.0204  0.4479
23295SOL     OW70462   1.217   6.725   1.868 -0.0804  0.4172  0.0525
23295SOL    HW170463   1.245   6.816   1.864 -1.4080  0.8333 -0.9745
23295SOL    HW270464   1.264   6.682   1.796  0.3458  0.3462  0.3708
23296SOL     OW70465   4.113   7.484   0.666 -0.1399 -0.0094 -0.3384
23296SOL    HW170466   4.035   7.518   0.710  0.5021  0.6872  0.3089
23296SOL    HW270467   4.094   7.391   0.651  0.0351 -0.6008  2.5144
23297SOL     OW70468   9.564   8.480   0.063  0.0508 -0.2107 -0.8556
23297SOL    HW170469   9.473   8.452   0.055 -0.4040  0.1546  1.9830
23297SOL    HW270470   9.608   8.440  -0.012 -1.8866 -2.7287 -0.7697
23298SOL     OW70471   5.330   3.411   4.889  0.1280 -0.9297  0.3298
23298SOL    HW170472   5.318   3.323   4.924 -0.3306 -0.7759  0.5700
23298SOL    HW270473   5.250   3.458   4.914  0.4364 -0.4008  0.3493
23299SOL     OW70474   3.850   8.359   5.430 -0.0751 -0.5011 -0.0894
23299SOL    HW170475   3.789   8.303   5.477  0.9857 -1.9480 -0.3885
23299SOL    HW270476   3.904   8.299   5.379  1.4571  0.7536 -0.0090
23300SOL     OW70477   1.753   7.957   5.586 -0.6666 -0.0524  0.3245
23300SOL    HW170478   1.708   7.875   5.565 -0.1950 -0.1886 -0.1686
23300SOL    HW270479   1.820   7.966   5.518  0.4307 -0.1478  1.3452
23301SOL     OW70480   8.949   9.511   3.641  0.4833 -0.2460  0.4846
23301SOL    HW170481   9.038   9.528   3.609  0.6041 -0.5455  0.6545
23301SOL    HW270482   8.937   9.573   3.712  0.9419 -0.8898  1.1384
23302SOL     OW70483   9.396   3.438   1.596  0.3115  0.5750 -0.0223
23302SOL    HW170484   9.413   3.430   1.502 -0.0675  1.1083 -0.1425
23302SOL    HW270485   9.467   3.493   1.629 -0.0787  1.1948 -0.1803
23303SOL     OW70486   6.328   6.745   9.917 -0.2541 -0.2084 -0.0465
23303SOL    HW170487   6.360   6.717  10.003  1.2781 -0.7522 -0.7503
23303SOL    HW270488   6.367   6.682   9.856  1.7622  2.2598 -1.5128
23304SOL     OW70489   6.027   6.450   2.397 -0.3434  0.0383  0.5664
23304SOL    HW170490   6.095   6.443   2.463 -1.5064 -0.1525  1.7998
23304SOL    HW270491   6.040   6.374   2.341 -1.0557 -1.4379  2.3027
23305SOL     OW70492   0.490   4.002   3.702 -0.1030  0.2835 -0.0735
23305SOL    HW170493   0.552   4.067   3.670  1.2315 -1.2708 -0.7698
23305SOL    HW270494   0.451   3.965   3.623 -0.5866  0.0043  0.2948
23306SOL     OW70495   3.378   1.372   3.377  0.4183  0.1627  0.0664
23306SOL    HW170496   3.422   1.457   3.384  1.1779 -0.3254  1.8607
23306SOL    HW270497   3.446   1.309   3.401  0.0036 -1.0212 -1.7275
23307SOL     OW70498   1.958   8.936   3.820  0.4129  0.0382  0.0258
23307SOL    HW170499   2.046   8.938   3.784 -0.5470  2.0914 -2.4828
23307SOL    HW270500   1.904   8.900   3.750 -1.5489  4.2377 -0.8980
23308SOL     OW70501   5.058   8.574   1.420  0.0738 -0.6502  0.0489
23308SOL    HW170502   5.000   8.543   1.350 -0.1422  0.4531 -0.2743
23308SOL    HW270503   5.065   8.500   1.480 -0.1274 -1.4520 -0.8934
23309SOL     OW70504   7.109   7.590   9.684 -0.2166 -0.1285 -0.0100
23309SOL    HW170505   7.110   7.539   9.603 -0.9476 -2.2285  1.2175
23309SOL    HW270506   7.200   7.593   9.712  0.1429  1.1761 -1.1822
23310SOL     OW70507   6.334   6.853   0.396  0.0532 -0.2016 -0.5866
23310SOL    HW170508   6.342   6.947   0.380  1.9924 -0.2692 -0.3508
23310SOL    HW270509   6.391   6.813   0.330 -0.1888 -1.1641 -0.2222
23311SOL     OW70510   7.197   2.295   1.438  0.2474 -0.3007 -0.0443
23311SOL    HW170511   7.134   2.228   1.467  1.0175 -0.6210  0.9575
23311SOL    HW270512   7.143   2.360   1.393 -0.7345 -0.8300  0.3200
23312SOL     OW70513   1.003   9.530   7.479 -1.0389 -0.9182 -0.3260
23312SOL    HW170514   1.008   9.434   7.485 -0.1619 -0.8526  0.0676
23312SOL    HW270515   1.058   9.552   7.403 -1.1943 -0.7183 -0.3817
23313SOL     OW70516   9.401   0.948   2.864 -0.1145  0.0442 -0.0230
23313SOL    HW170517   9.364   1.002   2.934 -0.7507 -1.9611  1.2560
23313SOL    HW270518   9.454   0.883   2.909  0.4246 -0.5997 -1.5097
23314SOL     OW70519   4.716   6.013   2.799 -0.1110 -0.0408  0.5283
23314SOL    HW170520   4.719   5.924   2.833  0.2774  0.0193  0.6484
23314SOL    HW270521   4.791   6.057   2.839  2.9134 -1.0312 -3.4301
23315SOL     OW70522   1.235   5.941   1.782 -0.2911 -0.2507 -0.1653
23315SOL    HW170523   1.290   6.017   1.765 -0.7592 -0.1509 -1.2821
23315SOL    HW270524   1.255   5.879   1.712 -0.1335 -1.0586  0.5610
23316SOL     OW70525   9.251   8.863   6.957  0.6815 -0.3458 -0.1143
23316SOL    HW170526   9.162   8.831   6.943 -0.0694  0.9021  1.5445
23316SOL    HW270527   9.264   8.855   7.051  2.1086  0.0947 -0.2584
23317SOL     OW70528   7.642   6.821   9.917  0.7318  0.0203 -0.1983
23317SOL    HW170529   7.736   6.806   9.912  1.1869  2.7107 -1.4073
23317SOL    HW270530   7.623   6.821  10.011  2.0717  0.2216  0.0886
23318SOL     OW70531   5.284   1.694   2.536 -0.0540 -0.3859 -0.5090
23318SOL    HW170532   5.205   1.694   2.589 -0.1350 -1.9033 -0.6032
23318SOL    HW270533   5.260   1.744   2.458 -1.1218 -1.3061 -0.8017
23319SOL     OW70534   2.570   5.918   9.108  0.4154  0.0734 -0.0804
23319SOL    HW170535   2.617   5.882   9.033 -0.4830 -2.9244  0.6556
23319SOL    HW270536   2.592   6.011   9.108  1.2305  0.0089 -3.4411
23320SOL     OW70537   3.005   0.788   5.869  0.1396  0.5886  0.1887
23320SOL    HW170538   2.984   0.705   5.913  1.2327  0.6358  0.8398
23320SOL    HW270539   3.031   0.761   5.781 -1.5199  0.4423 -0.2867
23321SOL     OW70540   9.648   1.772   9.789  0.0534 -0.2330 -0.0850
23321SOL    HW170541   9.613   1.801   9.705  2.3631  3.0938 -0.1101
23321SOL    HW270542   9.571   1.765   9.846 -1.1285  3.6420 -0.8980
23322SOL     OW70543   0.802   3.573   6.042  0.7845 -0.3828  0.3923
23322SOL    HW170544   0.863   3.501   6.058  1.1841 -0.3578 -0.9364
23322SOL    HW270545   0.734   3.535   5.987  1.1020  0.2831 -0.4872
23323SOL     OW70546   0.234   8.915   2.764  0.1991 -0.1296 -0.0731
23323SOL    HW170547   0.283   8.908   2.846  0.3059 -1.1182 -0.2066
23323SOL    HW270548   0.206   8.825   2.746 -1.4221  0.3599 -0.1481
23324SOL     OW70549   0.813   6.565   4.092 -0.5398  0.1745  0.4530
23324SOL    HW170550   0.879   6.606   4.035 -0.7587 -0.3413 -0.1901
23324SOL    HW270551   0.863   6.507   4.149 -0.4708 -0.6696 -0.4346
23325SOL     OW70552   7.329   9.671   9.246  0.2099  0.4068 -0.4771
23325SOL    HW170553   7.254   9.731   9.240 -0.2157 -0.0151  0.4247
23325SOL    HW270554   7.303   9.607   9.312  1.2045  0.0037 -0.4605
23326SOL     OW70555   7.400   5.708   3.946  0.1880 -0.1343  0.1947
23326SOL    HW170556   7.478   5.664   3.980 -0.7130 -1.5654  0.4640
23326SOL    HW270557   7.403   5.795   3.986  2.7157  0.6237 -1.3901
23327SOL     OW70558   9.132   7.977   9.887 -0.1850  0.9682 -0.3490
23327SOL    HW170559   9.215   8.004   9.926 -0.0787 -0.0242  0.1516
23327SOL    HW270560   9.088   7.927   9.956 -2.4707  3.7232  0.3914
23328SOL     OW70561   4.819   5.446   8.449  0.0020 -0.3724  0.3338
23328SOL    HW170562   4.914   5.436   8.443  0.0419  0.6047 -1.5874
23328SOL    HW270563   4.785   5.403   8.370 -0.9859  0.7075  0.1290
23329SOL     OW70564   3.825   2.566   5.703  0.0319  0.2356 -0.7106
23329SOL    HW170565   3.911   2.590   5.670  0.6437 -0.2461  0.4533
23329SOL    HW270566   3.776   2.538   5.626  0.8118  0.7897 -1.4276
23330SOL     OW70567   5.557   7.233   3.986 -0.1676 -0.3433 -0.1626
23330SOL    HW170568   5.624   7.301   3.997  1.2424 -1.8391  1.0091
23330SOL    HW270569   5.504   7.238   4.066 -0.3467 -0.3394 -0.2801
23331SOL     OW70570   7.110   4.980   0.548 -0.6548  0.8877 -0.0112
23331SOL    HW170571   7.205   4.978   0.560 -0.7848 -2.1376  1.7568
23331SOL    HW270572   7.095   4.944   0.461 -0.2192  3.0022 -1.0238
23332SOL     OW70573   4.934   8.814   4.111  0.0315  0.5741 -0.1124
23332SOL    HW170574   4.949   8.729   4.154  1.4058  1.3718  1.0808
23332SOL    HW270575   4.990   8.811   4.033  0.0311  0.3633 -0.1059
23333SOL     OW70576   9.940   4.496   6.703 -0.3333 -0.1336  0.1098
23333SOL    HW170577   9.880   4.562   6.669 -0.8871 -0.9817 -0.6201
23333SOL    HW270578   9.883   4.435   6.751 -0.2330 -1.5028 -1.4487
23334SOL     OW70579   7.723   7.424   2.876 -0.1545  0.0321 -0.4486
23334SOL    HW170580   7.730   7.334   2.908  2.1941  0.3574  0.1800
23334SOL    HW270581   7.752   7.419   2.784 -0.2508  0.1070 -0.4829
23335SOL     OW70582   0.109   4.763   1.986  0.6512  0.0415  0.0044
23335SOL    HW170583   0.134   4.801   2.070 -1.0303  1.3008 -0.0086
23335SOL    HW270584   0.101   4.669   2.003 -1.1340  0.4427  1.6714
23336SOL     OW70585   6.209   8.787   5.069  0.0358  0.2602  0.4082
23336SOL    HW170586   6.122   8.779   5.109  0.0236  0.5590  0.4476
23336SOL    HW270587   6.200   8.859   5.007 -0.2554 -0.9483 -1.0013
23337SOL     OW70588   0.886   3.639   1.874 -0.4417 -0.1802  0.1430
23337SOL    HW170589   0.947   3.675   1.938  1.2512  0.9961 -2.0175
23337SOL    HW270590   0.867   3.712   1.815 -0.2809 -1.7161 -1.9087
23338SOL     OW70591   6.910   6.975   5.796  0.1083  0.1303  0.0118
23338SOL    HW170592   6.871   6.916   5.860  3.1012 -1.8926  0.1203
23338SOL    HW270593   6.890   6.935   5.711  1.4199 -0.6018  0.0391
23339SOL     OW70594   3.088   2.570   2.941  0.4710  0.0742 -0.3040
23339SOL    HW170595   2.997   2.542   2.938 -0.0645  1.6413  0.2629
23339SOL    HW270596   3.131   2.506   2.997 -0.4064 -0.3552 -0.1075
23340SOL     OW70597   2.082   6.576   2.750 -0.1042 -0.0014  0.0381
23340SOL    HW170598   2.035   6.630   2.686 -0.6197 -1.7670 -1.1508
23340SOL    HW270599   2.035   6.493   2.750  1.8522 -1.1659  0.2789
23341SOL     OW70600   8.381   5.675   8.863  0.6804 -0.0970  0.5690
23341SOL    HW170601   8.393   5.584   8.890 -0.4706  0.1130  1.8241
23341SOL    HW270602   8.364   5.723   8.944 -0.6362  0.9172 -0.2659
23342SOL     OW70603   7.744   8.796   1.969 -0.1011  0.2145 -0.1294
23342SOL    HW170604   7.692   8.832   1.897 -1.3289  0.8371  1.0210
23342SOL    HW270605   7.715   8.705   1.975  1.0460 -0.2584 -1.3054
23343SOL     OW70606   4.153   9.485   9.790 -0.3578 -0.4173 -0.0016
23343SOL    HW170607   4.077   9.431   9.812 -0.4946 -0.0400  0.4873
23343SOL    HW270608   4.181   9.522   9.873 -0.2184  0.1917 -0.3074
23344SOL     OW70609   9.401   3.752   5.160  0.2018 -0.8875 -0.0140
23344SOL    HW170610   9.394   3.822   5.225 -1.0576 -0.1940 -0.8517
23344SOL    HW270611   9.495   3.743   5.144  0.3455  1.5555 -0.8643
23345SOL     OW70612   5.406   6.092   2.947  0.1276 -0.2709  0.0076
23345SOL    HW170613   5.330   6.044   2.914  1.2470 -2.7771  0.8176
23345SOL    HW270614   5.397   6.087   3.043  2.4431 -2.8560  0.2354
23346SOL     OW70615   6.264   8.296   3.015  0.7874  0.1647  0.3466
23346SOL    HW170616   6.218   8.299   3.099  2.4412 -0.5911  1.3240
23346SOL    HW270617   6.276   8.202   2.998  0.6511  0.3125 -0.6547
23347SOL     OW70618   8.799   0.457   9.917  0.2405  0.0276 -0.1205
23347SOL    HW170619   8.780   0.371   9.881  4.4939 -1.2823  0.2362
23347SOL    HW270620   8.788   0.447  10.011  1.6220 -0.4950  0.0116
23348SOL     OW70621   8.526   7.143   4.094  0.1172  0.3462 -0.3035
23348SOL    HW170622   8.559   7.083   4.027 -1.1016 -2.6271  1.6109
23348SOL    HW270623   8.570   7.117   4.174 -0.6210  1.9096  0.6535
23349SOL     OW70624   8.635   2.690   9.283  0.1341 -0.2955 -0.3041
23349SOL    HW170625   8.725   2.692   9.250  0.8471 -0.5489  1.5457
23349SOL    HW270626   8.617   2.597   9.297  0.5118 -0.1028  1.6820
23350SOL     OW70627   0.314   8.581   0.747  0.6217  0.3117  0.0707
23350SOL    HW170628   0.317   8.521   0.672  0.0139  0.4624 -0.0860
23350SOL    HW270629   0.400   8.574   0.787  0.5179 -0.7861  0.1445
23351SOL     OW70630   9.193   4.181   9.150  0.6172 -0.0156  0.4899
23351SOL    HW170631   9.150   4.266   9.146  2.2627  0.8730  0.6014
23351SOL    HW270632   9.207   4.156   9.059  0.4345 -0.0120  0.4609
23352SOL     OW70633   5.054   9.718   3.494  0.0389 -0.1737 -0.2109
23352SOL    HW170634   4.983   9.782   3.491 -0.3798 -0.6647 -1.2131
23352SOL    HW270635   5.032   9.660   3.567  1.7746  2.3088  2.4978
23353SOL     OW70636   0.344   3.724   9.628  0.3304  0.1865 -0.0882
23353SOL    HW170637   0.308   3.811   9.611 -0.6052 -0.3405 -0.8830
23353SOL    HW270638   0.400   3.705   9.553  0.3015 -0.0142 -0.0612
23354SOL     OW70639   4.022   5.721   5.395 -0.2627 -0.3182  0.1307
23354SOL    HW170640   4.066   5.789   5.344  2.0038  0.4289  2.8476
23354SOL    HW270641   4.081   5.646   5.392  0.6355  0.2110  2.6652
23355SOL     OW70642   0.754   2.207   1.555  0.0948 -0.2172  0.0144
23355SOL    HW170643   0.727   2.275   1.616  2.7454  0.7684  0.2013
23355SOL    HW270644   0.704   2.225   1.476 -1.2087  0.2812  0.9170
23356SOL     OW70645   0.854   3.879   1.746 -0.3323 -0.2556 -0.3741
23356SOL    HW170646   0.793   3.942   1.784  0.0045 -0.3064  0.2591
23356SOL    HW270647   0.931   3.931   1.723  0.0611 -0.4725  0.4161
23357SOL     OW70648   7.528   1.890   0.702 -0.3784 -0.2331  0.0157
23357SOL    HW170649   7.575   1.812   0.733 -0.4381 -0.6171 -0.8262
23357SOL    HW270650   7.456   1.901   0.764 -0.4681 -0.9471  0.0447
23358SOL     OW70651   4.264   2.665   5.058 -0.4372  0.4146 -0.2981
23358SOL    HW170652   4.341   2.702   5.014  0.3745  1.0128  1.5271
23358SOL    HW270653   4.204   2.738   5.066 -0.1895  0.5496  0.3975
23359SOL     OW70654   9.177   7.795   8.965 -0.0278  0.1074 -0.3186
23359SOL    HW170655   9.099   7.838   8.931 -0.3617 -0.3683 -0.1675
23359SOL    HW270656   9.246   7.860   8.958  0.0841 -0.1878 -2.5546
23360SOL     OW70657   5.361   5.888   4.231  0.1268 -0.1150 -0.3675
23360SOL    HW170658   5.422   5.916   4.162  1.7212 -0.1669  0.9459
23360SOL    HW270659   5.314   5.814   4.192 -0.0568  0.7733 -1.8885
23361SOL     OW70660   4.121   4.141   4.322 -0.4552  0.0848  0.3666
23361SOL    HW170661   4.111   4.161   4.415  1.1234 -0.0004  0.5892
23361SOL    HW270662   4.109   4.046   4.316 -0.6878  0.1081  0.4555
23362SOL     OW70663   6.584   8.854   3.901 -0.7505 -0.6359 -0.2394
23362SOL    HW170664   6.598   8.893   3.814 -1.8785  1.7428  0.5555
23362SOL    HW270665   6.519   8.786   3.885 -2.4573  1.0624 -1.0732
23363SOL     OW70666   8.179   6.133   7.794  0.0538 -0.3544 -0.0531
23363SOL    HW170667   8.104   6.172   7.839  0.1567 -0.2666  0.0411
23363SOL    HW270668   8.248   6.129   7.861 -0.1724 -1.3351  0.1375
23364SOL     OW70669   4.705   7.869   3.583  0.4657 -0.1244 -0.5265
23364SOL    HW170670   4.791   7.871   3.626 -0.1457 -1.7049  0.8738
23364SOL    HW270671   4.649   7.921   3.640  0.2322 -0.0236 -0.8446
23365SOL     OW70672   3.458   9.597   5.825 -0.1059 -0.1260 -0.4932
23365SOL    HW170673   3.399   9.614   5.751 -2.2076 -1.2854  0.8215
23365SOL    HW270674   3.401   9.562   5.893  1.8769  0.3025  1.4804
23366SOL     OW70675   1.978   5.451   3.610 -0.3885  0.5560 -0.3784
23366SOL    HW170676   1.914   5.469   3.542 -0.5540  0.7014 -0.1864
23366SOL    HW270677   2.060   5.488   3.577  0.4714 -2.5414 -2.1716
23367SOL     OW70678   7.930  10.005   7.112 -0.5391  0.6203  0.1762
23367SOL    HW170679   7.853   9.952   7.089 -0.5199 -0.2730  2.0190
23367SOL    HW270680   8.005   9.953   7.082 -0.5779  0.5088  0.2754
23368SOL     OW70681   2.184   5.943  -0.009  0.4417 -0.9676  0.1265
23368SOL    HW170682   2.256   5.930   0.054  0.5024 -1.2933 -0.0107
23368SOL    HW270683   2.140   6.022   0.022  0.5943 -1.0130  0.4662
23369SOL     OW70684   4.423   0.678   4.851  0.4789 -0.4894  0.2033
23369SOL    HW170685   4.490   0.725   4.802 -0.9969  1.2515 -0.2622
23369SOL    HW270686   4.471   0.630   4.918  2.2706 -0.3503 -0.9403
23370SOL     OW70687   5.021   7.299   8.108 -0.3791 -0.5687  0.6031
23370SOL    HW170688   4.989   7.326   8.194 -1.6810 -0.4570  0.1055
23370SOL    HW270689   4.950   7.246   8.071 -0.8513  1.2803 -1.3309
23371SOL     OW70690   5.377   2.270   5.900  0.0711 -0.0367 -0.0062
23371SOL    HW170691   5.458   2.309   5.932  0.8529 -0.4046 -1.4094
23371SOL    HW270692   5.319   2.268   5.975  1.1154  0.9148  0.8522
23372SOL     OW70693   9.282   5.462   9.975  0.6446 -0.4140 -0.1018
23372SOL    HW170694   9.327   5.541   9.946  1.0611 -0.6244 -0.0332
23372SOL    HW270695   9.277   5.407   9.897 -1.0237  0.3052 -0.5452
23373SOL     OW70696   5.803   7.447   8.265  0.0932 -0.1954  0.1930
23373SOL    HW170697   5.733   7.499   8.225  0.4802 -0.0681 -0.3229
23373SOL    HW270698   5.868   7.436   8.196  1.6708  1.6298  1.2848
23374SOL     OW70699   8.358   8.580   3.298  0.7059  0.0568  0.7820
23374SOL    HW170700   8.271   8.600   3.262  0.0389 -1.5989  1.4097
23374SOL    HW270701   8.384   8.661   3.342 -0.0145  0.9426 -0.3541
23375SOL     OW70702   9.219   9.617   7.958  0.1701  0.4409  0.3524
23375SOL    HW170703   9.202   9.639   8.050 -1.0082 -0.7921  0.4530
23375SOL    HW270704   9.132   9.608   7.919  0.6576  0.6452 -0.8257
23376SOL     OW70705   3.898   2.220   0.211 -0.1717 -0.7112  0.3693
23376SOL    HW170706   3.897   2.131   0.173 -0.4842 -0.2494 -0.7509
23376SOL    HW270707   3.984   2.254   0.188  0.5194 -1.2016  2.0370
23377SOL     OW70708   6.376   3.412   5.350  0.0549 -0.1517 -0.1415
23377SOL    HW170709   6.411   3.495   5.317  0.5451 -0.5769 -0.7066
23377SOL    HW270710   6.445   3.348   5.332 -1.1172 -1.0727 -1.5802
23378SOL     OW70711   3.907   6.381   4.922  0.0842 -0.0835  0.1516
23378SOL    HW170712   3.852   6.315   4.880 -0.9561  0.4634  0.6358
23378SOL    HW270713   3.996   6.357   4.896 -0.2618 -1.7005  0.3541
23379SOL     OW70714   3.851   3.536   7.081 -0.3505 -0.6264 -0.4040
23379SOL    HW170715   3.891   3.480   7.147  2.1990  1.4221 -0.0616
23379SOL    HW270716   3.808   3.606   7.130 -0.0684 -0.1309 -0.8388
23380SOL     OW70717   2.070   4.931   2.356  0.2771 -0.0425 -0.4575
23380SOL    HW170718   2.022   4.944   2.274 -2.2787 -0.2118  0.9200
23380SOL    HW270719   2.123   4.852   2.340 -0.3031 -0.1807 -1.8818
23381SOL     OW70720   0.104   4.494   2.037  0.3418  0.1092  0.2088
23381SOL    HW170721   0.065   4.489   2.125 -0.9054  1.6542 -0.2138
23381SOL    HW270722   0.176   4.431   2.039 -2.2486 -3.0769  0.9958
23382SOL     OW70723   6.946   3.184   0.130  0.7223  0.4327  0.5799
23382SOL    HW170724   6.881   3.133   0.084 -0.9738  1.8920  1.2377
23382SOL    HW270725   6.963   3.135   0.210  1.5691 -0.6839 -0.2555
23383SOL     OW70726   0.929   7.368   9.544 -0.8875 -0.2401 -0.2763
23383SOL    HW170727   0.967   7.286   9.576 -1.2330 -0.3657 -0.1865
23383SOL    HW270728   0.834   7.352   9.543 -1.1022  0.6693  1.2566
23384SOL     OW70729   9.062   9.524   4.834  0.6739  0.5992 -0.0034
23384SOL    HW170730   9.055   9.432   4.860  5.1397 -0.0905 -0.3887
23384SOL    HW270731   9.065   9.522   4.738 -0.9264  1.4069 -0.0963
23385SOL     OW70732   9.780   4.360   7.106  0.2215 -0.4510  0.6241
23385SOL    HW170733   9.846   4.342   7.039 -0.5723  1.7176 -0.8369
23385SOL    HW270734   9.713   4.411   7.061 -1.1972 -0.3788  2.6866
23386SOL     OW70735   6.071   4.311   0.501  0.4220  0.4043 -0.1022
23386SOL    HW170736   6.006   4.369   0.462  1.4849  1.6271 -0.1201
23386SOL    HW270737   6.036   4.223   0.487 -1.6935  1.0456  0.7340
23387SOL     OW70738   0.963   6.115   7.247 -0.1748 -0.0284  0.0279
23387SOL    HW170739   0.999   6.064   7.319 -0.6601 -1.3607 -0.6375
23387SOL    HW270740   0.963   6.054   7.173  1.1769  1.5520 -1.3662
23388SOL     OW70741   0.043   8.657   1.919 -0.2357  0.2347 -0.4079
23388SOL    HW170742   0.036   8.751   1.908  1.6284  0.5454  0.7124
23388SOL    HW270743   0.054   8.645   2.014 -0.4154 -1.1001 -0.5390
23389SOL     OW70744   8.260   4.281   4.273  0.2998  0.5249  0.0616
23389SOL    HW170745   8.167   4.299   4.288  0.1385 -0.6115  0.4956
23389SOL    HW270746   8.287   4.347   4.208 -0.2879  2.1945  1.4289
23390SOL     OW70747   6.524   4.542   3.387 -0.4975  0.3811  0.3043
23390SOL    HW170748   6.459   4.588   3.335  1.1264  3.3256  0.6206
23390SOL    HW270749   6.593   4.607   3.402  1.8812 -2.1175  1.1340
23391SOL     OW70750   6.513   0.952   4.536 -0.1941 -0.2249  0.7773
23391SOL    HW170751   6.568   0.957   4.457 -0.0330 -0.8413  0.8496
23391SOL    HW270752   6.454   0.879   4.519 -0.4187 -0.1141  1.0738
23392SOL     OW70753   8.530   3.267   4.001 -0.1193 -0.0771 -0.0432
23392SOL    HW170754   8.617   3.254   4.039 -0.3984 -2.3153 -0.0110
23392SOL    HW270755   8.545   3.271   3.907  0.1048  0.6203  0.0165
23393SOL     OW70756   8.640   6.838   6.031  0.3988 -0.2040  0.3388
23393SOL    HW170757   8.735   6.843   6.030  0.4974 -1.3847  1.8125
23393SOL    HW270758   8.612   6.920   5.989  2.0404 -0.8138 -2.1374
23394SOL     OW70759   9.394   9.771   4.730  0.0979 -0.3484  0.4261
23394SOL    HW170760   9.396   9.692   4.784 -0.6247  1.2798  3.0266
23394SOL    HW270761   9.308   9.810   4.748 -0.5943 -0.1382 -2.6971
23395SOL     OW70762   3.119   3.518   2.695  0.0535 -0.8317 -0.2133
23395SOL    HW170763   3.186   3.515   2.763 -0.2774 -1.5702  0.0946
23395SOL    HW270764   3.061   3.590   2.721  2.2071  1.7208 -1.9492
23396SOL     OW70765   5.094   6.903   6.457  0.0983  0.2794  0.4084
23396SOL    HW170766   5.097   6.830   6.519  0.7245 -0.2104 -0.1804
23396SOL    HW270767   5.001   6.912   6.435  0.0920 -0.9100 -0.1561
23397SOL     OW70768   7.207   2.427   7.841 -0.0333  0.0186 -0.2361
23397SOL    HW170769   7.240   2.515   7.858 -1.1549  0.8641 -2.1114
23397SOL    HW270770   7.276   2.385   7.788  0.9126 -0.6174  1.4118
23398SOL     OW70771   9.290   0.319   2.553 -0.2524 -0.3023 -0.4605
23398SOL    HW170772   9.345   0.272   2.491  0.0852 -2.7570  1.5417
23398SOL    HW270773   9.349   0.385   2.591  0.2727 -0.4930 -0.9256
23399SOL     OW70774   5.210   5.573   4.739 -0.5584  0.2243 -0.5767
23399SOL    HW170775   5.139   5.614   4.788 -0.1970  0.5402 -0.3157
23399SOL    HW270776   5.220   5.628   4.661 -1.1949 -0.3300 -1.0621
23400SOL     OW70777   6.869   1.373   7.923 -0.4101 -0.5125  0.5034
23400SOL    HW170778   6.791   1.408   7.968  0.3734 -0.5235  1.9361
23400SOL    HW270779   6.939   1.383   7.987  0.7288 -0.7342 -0.6776
23401SOL     OW70780   1.837   3.546   2.454  0.2086  0.2561 -0.2997
23401SOL    HW170781   1.777   3.486   2.410 -0.7312  0.0287  1.2387
23401SOL    HW270782   1.840   3.623   2.396  1.4225 -1.1877 -2.2847
23402SOL     OW70783   1.380   2.275   9.290  0.0767 -0.1711 -0.4347
23402SOL    HW170784   1.473   2.275   9.311  0.1316  0.2056 -0.6644
23402SOL    HW270785   1.341   2.217   9.354  0.3019  0.5764  0.4043
23403SOL     OW70786   7.645   4.429   0.553  0.2673 -0.9600 -0.2623
23403SOL    HW170787   7.714   4.401   0.491  1.2128  1.5556 -0.4475
23403SOL    HW270788   7.690   4.435   0.637  0.1050 -0.0439 -0.2322
23404SOL     OW70789   5.834   2.320   2.649  0.0565 -0.0392 -0.2379
23404SOL    HW170790   5.843   2.308   2.743 -1.6880  1.4363  0.1748
23404SOL    HW270791   5.916   2.360   2.621 -0.2209  1.5432  1.0756
23405SOL     OW70792   9.209   9.531   3.579 -0.3757  0.6682  0.8718
23405SOL    HW170793   9.270   9.545   3.506 -1.9252  1.3274 -0.3593
23405SOL    HW270794   9.263   9.543   3.658  0.9300  1.9926 -0.1512
23406SOL     OW70795   3.921   7.295   2.659  0.0969 -0.0311  0.0705
23406SOL    HW170796   3.867   7.226   2.699 -0.1395  1.0559  1.7252
23406SOL    HW270797   4.002   7.293   2.710 -0.6896  2.2177  1.5360
23407SOL     OW70798   3.428   5.589   9.536 -0.0854  0.2562 -0.1093
23407SOL    HW170799   3.369   5.537   9.591  0.6731  0.4330  0.8902
23407SOL    HW270800   3.456   5.527   9.468 -0.4562 -0.1778  0.1226
23408SOL     OW70801   8.881   1.937   5.462  0.3753 -0.1052  0.0495
23408SOL    HW170802   8.939   2.002   5.501  1.5839 -0.1931 -1.5013
23408SOL    HW270803   8.864   1.874   5.532 -0.0723  1.3703  1.3081
23409SOL     OW70804   9.310   7.563   5.133 -0.5042 -0.0239  0.3601
23409SOL    HW170805   9.292   7.645   5.179 -0.2991  0.1362  0.1517
23409SOL    HW270806   9.227   7.540   5.092 -0.2671  0.6631 -0.5171
23410SOL     OW70807   2.075   0.530   8.106  0.0138  0.8815  0.7476
23410SOL    HW170808   1.997   0.498   8.060  0.5013 -0.5409  0.8517
23410SOL    HW270809   2.135   0.455   8.105  0.8001  1.4710  1.9795
23411SOL     OW70810   2.297   5.155   7.575 -0.2462  0.1423  0.4087
23411SOL    HW170811   2.288   5.118   7.663 -0.7556  0.2377  0.3991
23411SOL    HW270812   2.386   5.190   7.573  0.3572 -1.3031  0.3373
23412SOL     OW70813   7.206   6.784   4.015 -0.2194  0.1140  0.3663
23412SOL    HW170814   7.136   6.842   3.985 -0.5361 -0.5683 -0.2400
23412SOL    HW270815   7.253   6.760   3.935 -1.1234 -1.7954  0.3507
23413SOL     OW70816   7.602   0.595   5.687 -0.7210  0.0371 -0.2698
23413SOL    HW170817   7.645   0.554   5.762 -2.2836 -1.1499  0.0337
23413SOL    HW270818   7.585   0.685   5.715 -0.6786 -0.2039  0.5454
23414SOL     OW70819   2.008   4.390   7.078  0.1153 -0.0281 -0.6685
23414SOL    HW170820   2.093   4.394   7.122  1.2015  0.2053 -2.6688
23414SOL    HW270821   1.947   4.428   7.140  1.1679 -1.6226  1.4580
23415SOL     OW70822   2.784   7.353   8.476  0.3790 -0.3828 -0.0003
23415SOL    HW170823   2.784   7.295   8.400  0.6240  1.9168 -1.8889
23415SOL    HW270824   2.704   7.405   8.466  0.2400 -0.2531  1.5421
23416SOL     OW70825   9.437   3.468   7.710  0.0327 -0.2184  0.3486
23416SOL    HW170826   9.354   3.507   7.736 -0.8761 -0.7975 -1.5347
23416SOL    HW270827   9.436   3.470   7.614  3.3100  2.0925  0.1660
23417SOL     OW70828   2.957   2.540   4.686  0.1179 -0.2132  0.6565
23417SOL    HW170829   3.013   2.617   4.678  0.3241 -0.4448 -0.3872
23417SOL    HW270830   2.955   2.503   4.597 -0.2935 -1.1810  1.0498
23418SOL     OW70831   5.319   6.027   5.342  0.5785 -0.0636  0.2167
23418SOL    HW170832   5.374   6.041   5.419  2.0518 -1.9155 -0.4349
23418SOL    HW270833   5.380   6.013   5.271 -0.7528 -0.8460 -0.8217
23419SOL     OW70834   6.450   4.981   3.363 -0.3522 -0.7586 -0.1993
23419SOL    HW170835   6.363   5.018   3.349  0.1269 -0.5812 -3.9460
23419SOL    HW270836   6.510   5.055   3.354  0.2606 -1.2397 -0.1819
23420SOL     OW70837   1.861   9.817   3.123  0.3101 -0.1475  0.5985
23420SOL    HW170838   1.787   9.805   3.182  0.1656  0.8462  0.6428
23420SOL    HW270839   1.823   9.854   3.044  0.8692  1.4613  1.0355
23421SOL     OW70840   0.020   9.228   4.166  0.2356  0.0465 -0.4273
23421SOL    HW170841   0.075   9.299   4.133  0.6859 -0.4990 -0.8554
23421SOL    HW270842  -0.052   9.273   4.211  0.9402  0.7612 -0.0020
23422SOL     OW70843   1.799   2.389   0.227 -0.1285  0.6060 -0.0327
23422SOL    HW170844   1.776   2.328   0.297 -0.8518  0.3968 -0.4550
23422SOL    HW270845   1.762   2.473   0.256 -2.4258  0.0679 -1.1905
23423SOL     OW70846   3.495   6.112   5.930 -0.7325  0.3455  0.7326
23423SOL    HW170847   3.531   6.041   5.983  1.1203 -0.0704 -0.9769
23423SOL    HW270848   3.555   6.185   5.943 -1.0653  0.6979  0.3182
23424SOL     OW70849   0.855   7.650   7.100  0.0887 -0.2902 -0.2099
23424SOL    HW170850   0.788   7.621   7.163 -0.5526  1.1180 -0.2098
23424SOL    HW270851   0.806   7.667   7.020  0.6989 -0.7414 -0.6839
23425SOL     OW70852   4.232   3.137   9.404 -0.2116 -0.3311 -0.1010
23425SOL    HW170853   4.311   3.088   9.424  0.0545  0.7948  1.9112
23425SOL    HW270854   4.262   3.226   9.385 -0.8971 -0.2183 -0.7325
23426SOL     OW70855   8.353   7.351   9.941 -0.1017  0.1725  0.2569
23426SOL    HW170856   8.416   7.323   9.875 -1.1214 -0.1843 -0.5924
23426SOL    HW270857   8.342   7.445   9.925 -0.5194  0.0434 -0.2462
23427SOL     OW70858   5.565   8.741   5.707 -0.0522 -0.4405  0.3939
23427SOL    HW170859   5.539   8.816   5.760 -0.5655  0.8612 -1.6168
23427SOL    HW270860   5.636   8.700   5.757 -2.2289 -0.9199  3.3902
23428SOL     OW70861   9.056   9.875   7.774  0.3592 -0.3658  0.6632
23428SOL    HW170862   9.087   9.794   7.814 -1.1833 -1.2636  0.1042
23428SOL    HW270863   9.103   9.880   7.691  0.2554 -0.8354  0.5746
23429SOL     OW70864   2.129   4.630   2.832 -0.0374 -0.0998 -0.3209
23429SOL    HW170865   2.112   4.723   2.846  1.0083 -0.1248  1.5141
23429SOL    HW270866   2.223   4.621   2.850  0.4061 -1.1430 -2.8016
23430SOL     OW70867   7.032   5.026   1.943 -0.2639 -0.3628 -0.4032
23430SOL    HW170868   6.972   4.965   1.987  0.9169 -0.1875  1.5863
23430SOL    HW270869   7.110   4.974   1.925  0.7599  0.4637  1.3247
23431SOL     OW70870   2.983   8.045   0.766 -0.4116  0.1860 -0.5256
23431SOL    HW170871   2.918   8.072   0.831 -1.0574 -0.7794 -0.7529
23431SOL    HW270872   2.951   8.082   0.683  0.9150  2.2515 -0.2011
23432SOL     OW70873   4.417   3.414   5.429  0.3219 -0.3432  0.6282
23432SOL    HW170874   4.483   3.380   5.368  0.3417 -0.3950  0.6782
23432SOL    HW270875   4.366   3.338   5.454  0.0332 -0.2456  0.3357
23433SOL     OW70876   2.979   2.527   2.362  0.3338  0.2012 -0.4374
23433SOL    HW170877   3.060   2.551   2.317  1.5224 -2.4652  0.0785
23433SOL    HW270878   2.999   2.537   2.455  0.3260 -1.0728 -0.2820
23434SOL     OW70879   3.526   7.090   8.920 -0.4243 -0.2526  0.6619
23434SOL    HW170880   3.559   7.036   8.849  1.1564 -1.6284  2.3325
23434SOL    HW270881   3.477   7.030   8.976 -1.0836  0.6514  1.0771
23435SOL     OW70882   4.521   0.482   2.901  0.4865 -0.3586  0.3496
23435SOL    HW170883   4.493   0.566   2.938 -0.2974 -0.8978  1.0278
23435SOL    HW270884   4.555   0.504   2.815 -0.3321  0.5784  0.2432
23436SOL     OW70885   1.177   7.410   4.545 -0.2179 -0.3669 -0.5910
23436SOL    HW170886   1.146   7.336   4.597 -1.6328  1.5101  1.4278
23436SOL    HW270887   1.218   7.468   4.609 -0.8716  1.4581 -1.7474
23437SOL     OW70888   8.911   7.131   4.005  0.1181 -0.2402 -1.0629
23437SOL    HW170889   8.829   7.116   3.957  0.3688 -0.1031 -1.5370
23437SOL    HW270890   8.976   7.080   3.956  0.3417 -0.2442 -0.7605
23438SOL     OW70891   3.423   8.973   8.040 -0.1149 -0.2773 -0.3062
23438SOL    HW170892   3.344   9.000   7.993 -0.1290  0.1025 -0.0691
23438SOL    HW270893   3.392   8.944   8.126  0.0401  0.2716 -0.0584
23439SOL     OW70894   5.373   3.884   4.283  0.0540  0.2742 -0.0773
23439SOL    HW170895   5.438   3.828   4.325  1.7565 -0.3420 -3.2099
23439SOL    HW270896   5.377   3.966   4.332  4.0627  0.6475 -0.6831
23440SOL     OW70897   4.599   2.547   0.297  0.0669 -0.3968 -0.3613
23440SOL    HW170898   4.534   2.599   0.249  0.9275 -0.5815 -1.7985
23440SOL    HW270899   4.549   2.503   0.366 -0.9731  0.9578 -0.2186
23441SOL     OW70900   2.759   1.658   2.144  0.0372 -0.8487 -0.1777
23441SOL    HW170901   2.712   1.674   2.063  1.3981  0.0728 -0.8274
23441SOL    HW270902   2.852   1.663   2.120  0.4970  0.6783  1.6166
23442SOL     OW70903   9.899   9.740   6.877 -0.0438  0.1762  0.3080
23442SOL    HW170904   9.959   9.669   6.855  0.9148  0.8380  0.7457
23442SOL    HW270905   9.812   9.700   6.872  0.3210 -0.4926 -1.5605
23443SOL     OW70906   3.388   6.211   1.754 -0.9290 -0.1333  0.3013
23443SOL    HW170907   3.314   6.237   1.698 -0.4086  0.9163  0.0873
23443SOL    HW270908   3.354   6.218   1.843 -0.6390  1.9140  0.2922
23444SOL     OW70909   8.565   6.657   1.693 -0.4603  0.0421 -0.2423
23444SOL    HW170910   8.617   6.658   1.773  0.0283 -3.8135 -0.3541
23444SOL    HW270911   8.627   6.684   1.624 -0.6359  2.4058  0.4194
23445SOL     OW70912   7.891   3.876   4.981 -0.2191  0.2875 -0.2875
23445SOL    HW170913   7.809   3.884   5.030 -0.7610 -1.5290 -0.8153
23445SOL    HW270914   7.954   3.842   5.044 -0.0182  1.0906 -0.0419
23446SOL     OW70915   2.208   0.470   7.615 -0.2372  0.0427  0.1881
23446SOL    HW170916   2.144   0.447   7.548 -1.1835  1.3204  0.6136
23446SOL    HW270917   2.291   0.474   7.569 -0.7667  0.2252 -0.7733
23447SOL     OW70918   1.312   3.622   2.756  0.3156 -0.4333  0.0682
23447SOL    HW170919   1.389   3.566   2.749  1.7325  1.4093  0.2498
23447SOL    HW270920   1.287   3.618   2.848 -0.2382 -1.5419 -0.1129
23448SOL     OW70921   6.382   1.211   6.184  0.5394  0.4340 -0.1911
23448SOL    HW170922   6.438   1.261   6.126 -1.4619  1.2126 -1.5844
23448SOL    HW270923   6.435   1.136   6.211  2.6824  1.8445 -0.2480
23449SOL     OW70924   6.490   7.949   1.956  0.0965  0.3943  0.3647
23449SOL    HW170925   6.491   8.014   2.026  0.5803 -0.4764  1.1917
23449SOL    HW270926   6.398   7.933   1.938 -0.0400  2.1034 -0.6310
23450SOL     OW70927   2.463   4.297   5.729  0.0852  0.2134 -0.0193
23450SOL    HW170928   2.507   4.374   5.692  2.6356 -0.8518  0.5424
23450SOL    HW270929   2.483   4.226   5.667 -1.8406 -0.1478 -0.2952
23451SOL     OW70930   5.733   9.395   9.298 -0.6870  0.3794  0.7755
23451SOL    HW170931   5.800   9.329   9.277 -1.4039 -1.0579  2.7348
23451SOL    HW270932   5.776   9.478   9.281  0.9656 -0.5352  0.1977
23452SOL     OW70933   2.891   7.015   9.266 -0.2934  0.1978  0.9501
23452SOL    HW170934   2.923   6.939   9.218  0.7474 -0.9387  3.2759
23452SOL    HW270935   2.941   7.089   9.231  0.2136 -0.5224  0.1283
23453SOL     OW70936   6.177   8.955   8.011 -0.7553  0.1683 -0.4782
23453SOL    HW170937   6.255   9.011   8.015 -0.9668  0.3771  1.4343
23453SOL    HW270938   6.204   8.881   7.957  1.0477 -0.1501  0.7640
23454SOL     OW70939   2.665   6.723   4.356  0.6109 -0.5212  0.7874
23454SOL    HW170940   2.662   6.765   4.270 -0.3545  1.5657  1.7682
23454SOL    HW270941   2.720   6.646   4.343  2.3997  0.9603 -1.1971
23455SOL     OW70942   3.030   7.992   6.359  0.2629  0.6378  0.0360
23455SOL    HW170943   3.036   8.073   6.308  1.3706 -0.5026 -1.7235
23455SOL    HW270944   2.991   7.928   6.299 -0.0537 -0.2968  1.1986
23456SOL     OW70945   5.727   4.620   4.033  0.6742 -0.0504  0.1679
23456SOL    HW170946   5.793   4.636   3.966  0.2367  1.1389 -0.0052
23456SOL    HW270947   5.753   4.677   4.106  1.8035 -2.1663  1.5136
23457SOL     OW70948   5.509   3.305   9.781 -0.3157 -0.2516 -0.1279
23457SOL    HW170949   5.445   3.233   9.778  0.6401 -1.1194 -0.0293
23457SOL    HW270950   5.593   3.263   9.763  0.3600  0.7134  0.7174
23458SOL     OW70951   1.896   1.993   2.916 -0.1760 -0.0656 -0.5149
23458SOL    HW170952   1.980   1.946   2.914 -1.2893 -2.1953 -2.1220
23458SOL    HW270953   1.920   2.085   2.923  2.2857 -0.6412 -0.5216
23459SOL     OW70954   6.739   9.493   1.064  0.4718 -0.1358  0.0658
23459SOL    HW170955   6.792   9.420   1.031  1.0411  0.2381  0.1446
23459SOL    HW270956   6.792   9.571   1.047  0.4478  0.1390  1.1803
23460SOL     OW70957   5.362   0.236   2.365 -0.2812 -0.3168 -0.3105
23460SOL    HW170958   5.391   0.165   2.422  0.5678  0.2647  0.0093
23460SOL    HW270959   5.297   0.283   2.417 -0.0269 -0.2066 -0.0869
23461SOL     OW70960   3.791   2.756   4.684  0.4669  0.2878 -0.4086
23461SOL    HW170961   3.784   2.708   4.767 -0.9771 -0.0104 -0.6709
23461SOL    HW270962   3.864   2.715   4.638  0.7027 -0.1376  0.3309
23462SOL     OW70963   7.969   1.602   6.810 -0.2034  0.3129 -0.0492
23462SOL    HW170964   8.018   1.683   6.828  0.6055  0.1749 -1.4639
23462SOL    HW270965   7.883   1.617   6.850  0.2293  1.5140  0.4865
23463SOL     OW70966   6.793   9.919   8.736  0.4575 -0.3641  0.2140
23463SOL    HW170967   6.860   9.867   8.692 -0.7494 -0.2543 -1.8989
23463SOL    HW270968   6.823  10.010   8.728  0.0112 -0.2987 -0.8990
23464SOL     OW70969   1.345   1.973   6.585  0.4567  0.3373  0.0920
23464SOL    HW170970   1.437   1.948   6.577  0.7108  1.2421  0.1060
23464SOL    HW270971   1.334   1.995   6.677  0.3743  0.7828 -0.0217
23465SOL     OW70972   5.147   0.837   7.954 -0.4177  0.5455  0.3124
23465SOL    HW170973   5.053   0.852   7.947 -0.1772  2.0460 -0.0274
23465SOL    HW270974   5.181   0.855   7.866  0.2685  0.6045  0.5793
23466SOL     OW70975   9.239   9.081   6.191 -0.0957 -0.2757  0.1441
23466SOL    HW170976   9.332   9.100   6.182 -0.3964  2.0452  1.0552
23466SOL    HW270977   9.229   9.054   6.282 -0.1836 -1.5651 -0.2371
23467SOL     OW70978   3.340   1.778   6.946  0.5034  0.2273 -0.2011
23467SOL    HW170979   3.270   1.838   6.921 -0.2818  0.5292  2.4259
23467SOL    HW270980   3.300   1.691   6.944 -0.3192  0.4890  2.2220
23468SOL     OW70981   6.529   5.955   3.280  0.3901 -0.1962  0.0679
23468SOL    HW170982   6.550   5.914   3.196 -0.0242 -0.9032  0.2909
23468SOL    HW270983   6.580   6.035   3.282  0.1313  0.0166 -1.0209
23469SOL     OW70984   4.766   2.217   3.389  0.5528  0.3504 -0.0028
23469SOL    HW170985   4.753   2.246   3.298 -1.6344  0.4245  0.2914
23469SOL    HW270986   4.836   2.152   3.383 -1.1536 -1.4553 -2.1484
23470SOL     OW70987   7.542   3.475   8.862  0.0534 -0.0073 -0.4441
23470SOL    HW170988   7.574   3.386   8.872  2.0112  0.4346 -2.1861
23470SOL    HW270989   7.545   3.492   8.767 -1.4244  1.5101 -0.2794
23471SOL     OW70990   2.218   4.547   8.743 -0.1490 -0.6228  0.1851
23471SOL    HW170991   2.165   4.490   8.687 -0.0226  0.3666 -0.9815
23471SOL    HW270992   2.281   4.488   8.785  0.3352 -1.2956 -1.4036
23472SOL     OW70993   7.075   4.044   7.897 -0.3846  0.2349 -0.1877
23472SOL    HW170994   7.124   3.972   7.937 -1.2598 -0.1998  0.1301
23472SOL    HW270995   6.986   4.034   7.931 -0.5459  1.4051 -0.2347
23473SOL     OW70996   8.549   5.719   0.564 -0.2938  0.1223  0.1033
23473SOL    HW170997   8.621   5.666   0.533  0.9514  1.7381  0.1083
23473SOL    HW270998   8.543   5.700   0.658 -0.4267 -0.6166 -0.0510
23474SOL     OW70999   7.241   7.351   4.936 -0.0297 -0.0594 -0.5158
23474SOL    HW171000   7.151   7.382   4.929  0.2428  1.3265  1.3111
23474SOL    HW271001   7.274   7.353   4.846 -1.9559 -1.1661 -1.3041
23475SOL     OW71002   0.891   8.247   0.979 -0.7575  0.9421  0.2448
23475SOL    HW171003   0.892   8.154   0.957  0.1820  1.3414 -1.6353
23475SOL    HW271004   0.801   8.264   1.007 -1.1754 -0.3509 -0.2428
23476SOL     OW71005   2.013   9.157   2.414 -0.1078  0.1955 -0.3895
23476SOL    HW171006   2.080   9.095   2.444 -0.6317  0.5548  1.7119
23476SOL    HW271007   2.017   9.229   2.477 -1.2972  1.0531 -1.2510
23477SOL     OW71008   5.633   8.609   0.318 -0.1037 -0.0150  0.0634
23477SOL    HW171009   5.728   8.602   0.307  0.0478 -0.1441  1.2926
23477SOL    HW271010   5.619   8.695   0.357 -0.1401 -1.1848  2.9066
23478SOL     OW71011   7.707   7.634   8.205 -0.0740 -0.2539  0.6932
23478SOL    HW171012   7.708   7.591   8.120 -2.0825  0.1283  0.4228
23478SOL    HW271013   7.627   7.603   8.247 -0.3384  1.3419  1.4584
23479SOL     OW71014   0.739   7.704   9.211  0.4936 -0.4679  0.3442
23479SOL    HW171015   0.768   7.671   9.296  0.7162  0.3076  0.5725
23479SOL    HW271016   0.807   7.766   9.185 -0.9600  1.4556  0.9362
23480SOL     OW71017   2.180   4.510   5.966  0.0446  0.0361 -0.4598
23480SOL    HW171018   2.246   4.579   5.960 -0.9789  0.9852 -1.6176
23480SOL    HW271019   2.099   4.552   5.935 -0.6918 -1.5874 -0.8570
23481SOL     OW71020   2.005   6.931   8.605 -0.1461  0.3873 -0.4127
23481SOL    HW171021   2.025   7.024   8.587  0.7560  0.3185  0.1437
23481SOL    HW271022   1.963   6.932   8.690 -0.3155  0.3018 -0.4954
23482SOL     OW71023   9.439   6.816   9.447  0.2160  0.2068 -0.6769
23482SOL    HW171024   9.441   6.912   9.446  0.3052  0.2050 -1.0344
23482SOL    HW271025   9.350   6.795   9.417 -0.2390  0.1822  0.6195
23483SOL     OW71026   5.282   2.898   5.043  0.1644 -0.2761  0.0780
23483SOL    HW171027   5.312   2.808   5.046  1.0619  0.0370  0.9921
23483SOL    HW271028   5.323   2.940   5.119 -0.2823  0.8823 -0.2961
23484SOL     OW71029   5.507   2.996   9.872 -0.0267  0.5906 -0.2107
23484SOL    HW171030   5.458   2.993   9.954  1.2405 -0.6539  0.5574
23484SOL    HW271031   5.564   2.919   9.876 -1.5489 -0.8786 -3.3319
23485SOL     OW71032   4.040   0.225   5.286 -0.3920 -0.3255 -0.1359
23485SOL    HW171033   4.090   0.156   5.330 -0.7592 -0.4877  0.0268
23485SOL    HW271034   4.058   0.304   5.337  1.2169  0.0262 -1.1738
23486SOL     OW71035   4.971   5.842   0.334  0.6017  0.1670  0.7937
23486SOL    HW171036   5.015   5.866   0.252 -1.0911 -0.1266 -0.2559
23486SOL    HW271037   5.004   5.754   0.353 -0.8669 -0.8553 -1.0320
23487SOL     OW71038   3.434   6.477   7.213 -0.6935  0.4239 -0.0389
23487SOL    HW171039   3.412   6.547   7.275 -0.6767  1.6708 -1.3836
23487SOL    HW271040   3.515   6.439   7.247 -1.9434 -0.6167  2.0268
23488SOL     OW71041   8.005   7.340   4.107  0.5573  0.0246  0.6373
23488SOL    HW171042   8.096   7.326   4.133  0.9063  0.6826 -0.2034
23488SOL    HW271043   8.009   7.406   4.039 -0.3426 -1.6083 -1.0890
23489SOL     OW71044   0.472   0.042   4.087 -0.0968  0.2439 -0.2416
23489SOL    HW171045   0.439  -0.003   4.009  2.3151  0.4213 -1.4464
23489SOL    HW271046   0.566   0.052   4.071  0.7259 -0.8016  3.2736
23490SOL     OW71047   1.819   2.729   7.519  0.3366 -0.2769 -0.2931
23490SOL    HW171048   1.876   2.801   7.492  1.2689 -0.2830  1.5317
23490SOL    HW271049   1.816   2.734   7.614  1.2348 -3.2296  0.0078
23491SOL     OW71050   9.424   4.196   5.179  0.2425 -0.0404 -0.0585
23491SOL    HW171051   9.496   4.248   5.215  0.0440 -0.2896  0.7197
23491SOL    HW271052   9.465   4.143   5.111  0.6257  0.4604 -0.2180
23492SOL     OW71053   4.658   9.018   9.640 -0.2221 -0.6868 -0.1858
23492SOL    HW171054   4.693   8.991   9.554  2.3295 -0.2035  0.6135
23492SOL    HW271055   4.708   8.966   9.703 -0.4640  0.5515  1.0744
23493SOL     OW71056   2.533   1.127   2.672  0.4139  0.2740  0.5470
23493SOL    HW171057   2.575   1.045   2.644  0.3548  0.5287 -0.3027
23493SOL    HW271058   2.453   1.099   2.715  0.5343 -0.1346  0.5098
23494SOL     OW71059   4.672   0.030   0.510  0.5930  0.2603 -0.0291
23494SOL    HW171060   4.716   0.078   0.439  0.2047 -0.2778 -0.6415
23494SOL    HW271061   4.657  -0.058   0.474  1.6393 -0.4588  1.2075
23495SOL     OW71062   9.565   6.789   3.674  0.4484 -0.0971  0.5805
23495SOL    HW171063   9.536   6.698   3.665 -0.2915  0.2224 -0.4877
23495SOL    HW271064   9.552   6.809   3.767 -1.4783 -0.4293  0.4364
23496SOL     OW71065   7.441   2.764   8.735 -0.3947  0.2992 -0.1457
23496SOL    HW171066   7.460   2.676   8.704  1.5745  0.2239  1.0630
23496SOL    HW271067   7.487   2.821   8.673 -0.3508  0.3773 -0.0427
23497SOL     OW71068   6.385   6.930   9.184  0.1558  0.2748  0.2152
23497SOL    HW171069   6.478   6.938   9.203  0.3304  2.6194 -1.2179
23497SOL    HW271070   6.342   6.987   9.247 -0.1189  0.6956 -0.3441
23498SOL     OW71071   6.983   4.612   5.852 -0.3184  0.4519  0.5227
23498SOL    HW171072   7.023   4.567   5.778 -0.7036 -0.3630  0.7974
23498SOL    HW271073   6.915   4.667   5.814 -0.9731 -0.4867  0.3345
23499SOL     OW71074   2.313   7.835   1.889 -0.0995  0.3127 -0.0220
23499SOL    HW171075   2.228   7.872   1.911  0.0677  0.3357  0.6096
23499SOL    HW271076   2.376   7.901   1.917  0.1821 -0.2467  0.7188
23500SOL     OW71077   7.277   4.727   2.440  0.1819 -0.9018 -0.6711
23500SOL    HW171078   7.238   4.657   2.491  0.0089  0.2693  0.8988
23500SOL    HW271079   7.248   4.808   2.483  2.5438  0.0737 -0.7252
23501SOL     OW71080   1.572   4.028   1.397 -0.1268 -0.1645  0.0847
23501SOL    HW171081   1.600   3.957   1.340  0.5473 -0.8632  1.2454
23501SOL    HW271082   1.646   4.088   1.401  0.2941 -0.7340  1.1621
23502SOL     OW71083   4.675   4.608   9.086  0.2595 -0.0672  0.2425
23502SOL    HW171084   4.723   4.528   9.064 -1.0145 -0.7122 -0.2625
23502SOL    HW271085   4.697   4.624   9.178  1.5325 -0.2671 -0.0069
23503SOL     OW71086   7.552   8.871   2.975 -0.1243 -0.4059  0.1219
23503SOL    HW171087   7.559   8.865   3.071  1.8887 -1.0929 -0.0275
23503SOL    HW271088   7.479   8.813   2.953 -1.9033  1.2241  1.3377
23504SOL     OW71089   4.297   8.600   2.647  0.4055  0.1270 -0.4297
23504SOL    HW171090   4.242   8.544   2.593  0.9682 -0.1167 -0.7501
23504SOL    HW271091   4.268   8.582   2.737  1.3274 -1.5297 -0.4263
23505SOL     OW71092   5.351   0.396   2.004  0.3180 -0.1968 -0.4096
23505SOL    HW171093   5.373   0.376   2.095 -2.2796 -2.4524 -0.1233
23505SOL    HW271094   5.379   0.319   1.955  0.4524  0.4057 -1.3119
23506SOL     OW71095   2.547   7.437   4.880  1.0096 -0.1120  0.0303
23506SOL    HW171096   2.475   7.472   4.932 -0.7763 -0.4869 -2.0487
23506SOL    HW271097   2.570   7.507   4.820  1.4172 -0.4833 -0.2584
23507SOL     OW71098   2.159   3.466   0.684  0.2311 -0.0014  0.1243
23507SOL    HW171099   2.234   3.413   0.657  0.4118 -0.3351  1.2254
23507SOL    HW271100   2.116   3.414   0.752 -2.0352 -0.6243 -1.6466
23508SOL     OW71101   5.138   7.218   3.570  0.1995  0.2099 -0.1156
23508SOL    HW171102   5.096   7.304   3.579  0.3470  0.0542  3.0171
23508SOL    HW271103   5.102   7.166   3.641  2.3301 -1.3968 -0.1199
23509SOL     OW71104   7.070   2.626   2.930 -0.3607  0.7059 -0.6819
23509SOL    HW171105   7.155   2.625   2.885 -0.6511  0.8868 -1.2420
23509SOL    HW271106   7.089   2.592   3.017  0.1815  0.1910 -0.9951
23510SOL     OW71107   8.258   8.874   2.739  0.0661  0.6307  0.7977
23510SOL    HW171108   8.267   8.924   2.658  1.4213 -1.5154 -0.4840
23510SOL    HW271109   8.189   8.810   2.720  0.8158 -0.2833  1.0971
23511SOL     OW71110   3.325   2.895   2.525  0.5216  0.2580  0.7427
23511SOL    HW171111   3.401   2.881   2.469 -0.2663 -0.7893 -0.1326
23511SOL    HW271112   3.358   2.943   2.601  1.1377  4.7530 -1.9961
23512SOL     OW71113   4.916   0.376   9.986  0.8681  0.1506 -0.3833
23512SOL    HW171114   4.842   0.319   9.966  1.4824 -0.6709 -0.3326
23512SOL    HW271115   4.993   0.320   9.980  1.4397  0.8427  0.2108
23513SOL     OW71116   0.257   9.699   5.279  0.6825  0.0213 -0.2384
23513SOL    HW171117   0.264   9.709   5.184  1.7577 -0.9024 -0.2858
23513SOL    HW271118   0.251   9.605   5.292  0.0967  0.1711  0.5912
23514SOL     OW71119   5.330   4.738   0.746  0.3278 -0.7924 -0.5118
23514SOL    HW171120   5.258   4.676   0.752  0.6899 -1.3215 -1.4648
23514SOL    HW271121   5.407   4.688   0.774  0.2739 -0.0739  1.0675
23515SOL     OW71122   7.115   4.136   6.285  0.6489 -1.0071 -0.1288
23515SOL    HW171123   7.152   4.160   6.199  0.3056 -3.2133 -0.9576
23515SOL    HW271124   7.180   4.167   6.348  1.7742 -0.8777 -1.2970
23516SOL     OW71125   6.834   1.846   1.749  0.3936 -0.7939 -0.1710
23516SOL    HW171126   6.899   1.831   1.681 -3.2203 -2.1875 -3.7113
23516SOL    HW271127   6.750   1.845   1.703 -2.3181 -0.3323  4.1699
23517SOL     OW71128   3.537   8.471   4.078 -0.2961  0.1081 -0.2975
23517SOL    HW171129   3.557   8.548   4.025 -0.2483 -0.3956 -1.0352
23517SOL    HW271130   3.563   8.495   4.167  3.0953 -0.2473 -1.0335
23518SOL     OW71131   4.836   7.603   4.222 -0.1342  0.0620  0.0190
23518SOL    HW171132   4.810   7.665   4.153 -1.6591 -0.2448  0.2926
23518SOL    HW271133   4.897   7.544   4.178 -0.7678  0.1192 -0.9672
23519SOL     OW71134   8.862   6.210   3.370 -0.1071 -0.1988 -0.2466
23519SOL    HW171135   8.909   6.283   3.330  1.7049  0.1643  2.3075
23519SOL    HW271136   8.836   6.155   3.296  0.4533  1.8503 -2.0850
23520SOL     OW71137   8.769   0.946   0.672 -0.2477  0.4658 -0.1834
23520SOL    HW171138   8.803   0.903   0.751 -0.4790 -1.5831 -1.1320
23520SOL    HW271139   8.846   0.957   0.617 -0.4077 -0.1305 -0.5388
23521SOL     OW71140   5.715   6.394   4.661 -0.0758 -0.1053  0.4205
23521SOL    HW171141   5.782   6.408   4.727  0.1526 -2.0520  0.6803
23521SOL    HW271142   5.633   6.411   4.705  0.0392 -1.9348  1.4495
23522SOL     OW71143   2.976   3.163   0.375  0.5007 -0.2123  0.1730
23522SOL    HW171144   2.948   3.254   0.375  1.2537  0.0860 -2.0647
23522SOL    HW271145   3.001   3.145   0.466  1.3792  2.1391  0.4564
23523SOL     OW71146   5.202   1.769   5.573  0.5648 -0.0721 -0.5921
23523SOL    HW171147   5.127   1.722   5.537 -1.0488  1.5273  0.5388
23523SOL    HW271148   5.264   1.772   5.500 -1.5343  0.8227 -2.4823
23524SOL     OW71149   2.305   9.989   4.212  0.0329  0.0521  0.5886
23524SOL    HW171150   2.222  10.031   4.191 -0.2150  0.2015  1.7940
23524SOL    HW271151   2.281   9.917   4.271  0.5062 -1.4585 -0.9678
23525SOL     OW71152   7.968   2.442   0.456 -0.7011 -0.2029 -0.2612
23525SOL    HW171153   7.906   2.481   0.394 -0.1011 -0.9314 -1.3480
23525SOL    HW271154   7.929   2.357   0.477  0.7087 -1.4200 -2.2867
23526SOL     OW71155   2.522   7.802   5.655 -0.2051 -0.0180 -0.8176
23526SOL    HW171156   2.560   7.873   5.602  1.0587  1.2697  1.6554
23526SOL    HW271157   2.595   7.741   5.668  0.9701  1.8894  2.9736
23527SOL     OW71158   6.309   5.908   6.179  0.0244 -0.1058  0.5032
23527SOL    HW171159   6.299   5.873   6.267  1.8818 -0.1926  0.7207
23527SOL    HW271160   6.402   5.897   6.159 -0.2696  0.3039 -1.3064
23528SOL     OW71161   7.605   8.537   9.786  0.0287 -0.3846  0.1129
23528SOL    HW171162   7.685   8.490   9.811 -0.1241  0.1930  1.8091
23528SOL    HW271163   7.579   8.496   9.703  2.4297 -0.1375 -0.8571
23529SOL     OW71164   6.658   0.396   6.422 -0.1501  0.4109  0.2077
23529SOL    HW171165   6.591   0.330   6.436 -0.3740  0.8662  1.4231
23529SOL    HW271166   6.723   0.380   6.491  1.4946 -0.5960 -1.4853
23530SOL     OW71167   7.954   2.315   1.190  0.5852 -0.1062  0.2724
23530SOL    HW171168   8.043   2.338   1.216  0.6675 -1.8376  1.7486
23530SOL    HW271169   7.947   2.221   1.207 -1.2371 -0.1979 -0.6976
23531SOL     OW71170   5.469   2.139   2.773  0.4748  0.3729  0.4900
23531SOL    HW171171   5.493   2.231   2.757  0.5263  0.1126 -1.0704
23531SOL    HW271172   5.518   2.090   2.707 -1.8046 -0.4941 -0.6481
23532SOL     OW71173   3.274   4.326   3.455 -0.1676 -0.4156 -0.0144
23532SOL    HW171174   3.208   4.394   3.472  1.4584  1.0073  0.9258
23532SOL    HW271175   3.265   4.308   3.362 -1.3134  0.3581 -0.0868
23533SOL     OW71176   8.090   5.175   3.608 -0.2586  0.1409  0.2057
23533SOL    HW171177   8.085   5.243   3.540  0.9235 -1.4552 -1.5957
23533SOL    HW271178   7.998   5.154   3.626 -0.6149  0.3154 -1.2447
23534SOL     OW71179   6.345   3.207   4.978 -0.0297 -0.0315  0.8293
23534SOL    HW171180   6.280   3.137   4.979 -0.4991  0.3096 -1.2063
23534SOL    HW271181   6.294   3.286   4.959  1.0201  0.0917 -1.9097
23535SOL     OW71182   3.223   0.838   6.261  0.0267 -0.1934  0.3782
23535SOL    HW171183   3.312   0.847   6.295  0.1403 -1.3558  0.4005
23535SOL    HW271184   3.228   0.871   6.171  0.5854 -0.6672  0.2305
23536SOL     OW71185   3.527   4.692   9.315 -0.1995 -0.5550 -0.5194
23536SOL    HW171186   3.612   4.734   9.326 -0.3297 -0.1915 -0.8944
23536SOL    HW271187   3.486   4.740   9.243 -1.8833  1.1372  1.4598
23537SOL     OW71188   1.946   0.307   6.885 -0.2085  0.6379  0.3846
23537SOL    HW171189   2.029   0.277   6.924  0.2850  2.5741  0.9306
23537SOL    HW271190   1.879   0.265   6.939  0.4511  1.1059  1.6189
23538SOL     OW71191   2.964   3.133   1.653 -0.0255  0.4693  0.0423
23538SOL    HW171192   3.004   3.203   1.705  1.7869 -1.1514  0.9715
23538SOL    HW271193   2.880   3.116   1.696  0.0202  1.2970  0.4769
23539SOL     OW71194   2.541   6.838   6.518 -0.7224 -0.2211 -0.0716
23539SOL    HW171195   2.583   6.801   6.595  0.2485  1.8610  0.4708
23539SOL    HW271196   2.609   6.835   6.450 -0.7413  0.2056 -0.1139
23540SOL     OW71197   0.811   5.374   5.510  0.1583 -0.1837 -0.0629
23540SOL    HW171198   0.903   5.354   5.528  0.1205  0.3119  0.7137
23540SOL    HW271199   0.809   5.396   5.416  1.4213  2.8234  0.4881
23541SOL     OW71200   1.756   3.218   4.460 -0.1110 -0.0333  0.3122
23541SOL    HW171201   1.665   3.210   4.433  0.5849 -0.4644 -2.2508
23541SOL    HW271202   1.783   3.305   4.430  0.7067 -0.5098 -0.4041
23542SOL     OW71203   2.991   8.628   8.033  0.7754  0.1450 -0.3902
23542SOL    HW171204   2.988   8.656   8.125 -0.3251 -2.8188  0.5986
23542SOL    HW271205   3.083   8.610   8.017  0.9254  0.2340  0.3107
23543SOL     OW71206   3.529   0.603   6.443 -0.6601  0.4223 -0.4634
23543SOL    HW171207   3.494   0.594   6.532 -0.5366  1.5285 -0.2935
23543SOL    HW271208   3.621   0.626   6.456 -0.2804 -0.7865 -0.8989
23544SOL     OW71209   6.357   9.103   7.434 -0.3821 -0.3156  0.0445
23544SOL    HW171210   6.336   9.089   7.527 -2.1508 -1.5882 -0.4887
23544SOL    HW271211   6.279   9.072   7.387  0.2205  0.8741 -1.8547
23545SOL     OW71212   5.784   9.477   3.245 -0.4850 -0.2482  0.1799
23545SOL    HW171213   5.740   9.416   3.185 -1.0622 -1.1566  1.4718
23545SOL    HW271214   5.716   9.501   3.309  0.5031 -0.6117  1.4193
23546SOL     OW71215   6.557   7.948   5.316  0.5708 -0.2975 -0.2334
23546SOL    HW171216   6.504   7.869   5.326  0.5351 -0.1005  1.3971
23546SOL    HW271217   6.511   8.000   5.250 -1.1141 -0.2833  0.8943
23547SOL     OW71218   7.437   6.078   9.882  0.3448 -0.0076 -0.5924
23547SOL    HW171219   7.412   6.043   9.797 -1.1678 -0.7052  0.0991
23547SOL    HW271220   7.368   6.141   9.904 -0.3438 -1.2044  0.9062
23548SOL     OW71221   6.618   6.041   1.324  0.4776  0.2574 -0.2033
23548SOL    HW171222   6.652   5.969   1.270 -0.0527 -0.6592  0.6563
23548SOL    HW271223   6.645   6.019   1.413 -1.2327  0.1813  0.3163
23549SOL     OW71224   5.028   7.549   0.306  0.0529 -0.4357 -0.0511
23549SOL    HW171225   4.950   7.530   0.254  0.1639  1.0964 -0.8529
23549SOL    HW271226   5.093   7.578   0.242  0.7538 -0.1432  0.7748
23550SOL     OW71227   9.037   7.324   8.042  0.2012  0.2178 -0.4255
23550SOL    HW171228   8.969   7.264   8.011 -0.7670  0.6549  0.7809
23550SOL    HW271229   9.118   7.286   8.009 -0.5448 -0.8145 -1.1457
23551SOL     OW71230   0.912   9.942   5.096 -0.0418  0.6704 -0.2629
23551SOL    HW171231   0.873   9.972   5.014 -0.3955  0.4870 -0.1617
23551SOL    HW271232   0.838   9.934   5.156  0.3259  1.7184  0.3574
23552SOL     OW71233   3.982   2.742   9.349 -0.2198 -0.0719  0.3206
23552SOL    HW171234   3.947   2.674   9.291 -0.7235  0.4323  0.0150
23552SOL    HW271235   4.028   2.802   9.290  0.0831 -0.0662  0.5663
23553SOL     OW71236   8.741   3.770   2.671  0.3318  0.2988  0.3018
23553SOL    HW171237   8.688   3.731   2.740 -2.2104  0.7766 -1.2344
23553SOL    HW271238   8.798   3.833   2.716 -0.8105  0.1625  2.0166
23554SOL     OW71239   2.074   2.022   8.767 -0.4373  0.3181  0.0989
23554SOL    HW171240   2.033   2.015   8.680 -0.8804 -0.2532  0.3504
23554SOL    HW271241   2.161   2.057   8.749  0.2284 -1.6645 -0.7950
23555SOL     OW71242   3.997   6.255   9.084  0.3876 -0.6374  0.2777
23555SOL    HW171243   4.020   6.167   9.055  0.0350 -0.7298  0.2684
23555SOL    HW271244   3.921   6.279   9.030  1.5773  0.3961 -0.9991
23556SOL     OW71245   4.722   9.869   2.753 -0.0507  0.0506 -0.3919
23556SOL    HW171246   4.676   9.878   2.837 -0.3715 -0.8411 -0.4601
23556SOL    HW271247   4.808   9.909   2.768 -0.6778  1.3570 -0.1338
23557SOL     OW71248   8.818   0.505   3.830 -0.1705  0.4917  0.4790
23557SOL    HW171249   8.887   0.526   3.893  1.1367  0.3639 -0.8316
23557SOL    HW271250   8.866   0.486   3.749 -1.6623 -1.3145 -0.0487
23558SOL     OW71251   4.290   1.602   7.667 -0.1738  0.0619 -0.3309
23558SOL    HW171252   4.337   1.613   7.750  0.2850 -1.3947 -0.3726
23558SOL    HW271253   4.201   1.580   7.693 -0.3063  0.6634 -0.2468
23559SOL     OW71254   9.222   3.675   0.232  0.3002  0.5005 -0.5797
23559SOL    HW171255   9.141   3.701   0.188  0.5317  1.1405 -0.6284
23559SOL    HW271256   9.225   3.728   0.311 -1.1646 -2.0925  1.3581
23560SOL     OW71257   5.954   4.932   1.388 -0.4174  0.2765 -0.0051
23560SOL    HW171258   5.964   4.845   1.351  1.8341  0.6244 -0.3915
23560SOL    HW271259   5.860   4.950   1.385 -0.6920 -1.2392 -1.9623
23561SOL     OW71260   8.301   4.568   5.734 -0.1699  0.2256 -0.6119
23561SOL    HW171261   8.315   4.645   5.677  1.0357  2.2122  2.1586
23561SOL    HW271262   8.208   4.571   5.755 -1.0979 -1.6422 -3.7495
23562SOL     OW71263   7.570   1.306   7.550  0.0189  0.5599  0.3949
23562SOL    HW171264   7.583   1.227   7.602 -1.6821  0.3641  0.5544
23562SOL    HW271265   7.567   1.377   7.615 -0.0163  0.5743  0.3774
23563SOL     OW71266   7.427   3.430   0.373  0.2505  0.3972 -0.3036
23563SOL    HW171267   7.430   3.335   0.361  0.4975 -0.2340  3.4031
23563SOL    HW271268   7.334   3.450   0.378  0.2022  0.1705 -0.2741
23564SOL     OW71269   7.623   2.268   7.181  0.3101  0.0833  0.0284
23564SOL    HW171270   7.668   2.183   7.185 -0.6604 -0.6370 -2.3918
23564SOL    HW271271   7.566   2.268   7.258  0.7278 -1.2483  0.3666
23565SOL     OW71272   4.056   8.055   8.962 -0.0566  0.3734  0.2225
23565SOL    HW171273   4.064   7.961   8.978 -1.3034  0.2078 -0.0546
23565SOL    HW271274   3.966   8.076   8.985  0.7652  1.9357  2.3542
23566SOL     OW71275   4.460   3.120   3.549  0.2701  0.2616 -0.6754
23566SOL    HW171276   4.365   3.126   3.535 -0.1772  1.8685  2.0588
23566SOL    HW271277   4.475   3.028   3.571 -1.1943  0.4100  1.3323
23567SOL     OW71278   6.093   8.010   8.836 -0.4090 -0.3840  0.3115
23567SOL    HW171279   6.028   8.077   8.856 -1.8826 -1.3167 -1.1150
23567SOL    HW271280   6.177   8.052   8.856 -1.0307  2.8253 -2.7371
23568SOL     OW71281   2.229   2.097   6.787 -0.2631 -0.1177  0.8675
23568SOL    HW171282   2.203   2.163   6.723 -0.6861 -0.2576  0.8915
23568SOL    HW271283   2.313   2.129   6.821 -0.2131  0.1416  0.5093
23569SOL     OW71284   3.470   5.530   4.966 -0.0353  0.0148  0.2558
23569SOL    HW171285   3.532   5.465   4.931 -1.0245 -0.6001 -0.3980
23569SOL    HW271286   3.422   5.483   5.034 -0.5701  0.1367 -0.0343
23570SOL     OW71287   1.758   3.462   4.120 -0.0174  0.5813 -0.1961
23570SOL    HW171288   1.830   3.498   4.068  1.2510 -1.4919  0.0103
23570SOL    HW271289   1.781   3.484   4.210  1.4279 -1.6354  0.0579
23571SOL     OW71290   4.546   2.175   6.850 -0.2448 -0.3159  0.2505
23571SOL    HW171291   4.541   2.242   6.919 -1.1973 -1.0431  0.9088
23571SOL    HW271292   4.624   2.123   6.872  0.7833  0.8259 -0.5303
23572SOL     OW71293   4.152   1.115   4.330 -0.8174  0.0614  0.2268
23572SOL    HW171294   4.060   1.105   4.353 -0.7752 -0.5366  0.1564
23572SOL    HW271295   4.162   1.208   4.310 -1.3857  0.1445  0.3171
23573SOL     OW71296   3.825   9.469   6.891  0.3275 -0.1828  0.1351
23573SOL    HW171297   3.765   9.461   6.965  0.5077 -3.2715  0.0756
23573SOL    HW271298   3.912   9.473   6.931  0.3209  0.4102  0.1076
23574SOL     OW71299   5.007   7.885   7.614  0.6056  0.7289  0.1012
23574SOL    HW171300   5.096   7.913   7.592  0.2874  1.8867  0.2274
23574SOL    HW271301   4.951   7.938   7.558 -0.0755  1.4318  1.4107
23575SOL     OW71302   4.178   1.799   4.886 -0.8843  0.3219  0.4381
23575SOL    HW171303   4.206   1.790   4.795 -0.1089  1.2111  0.5713
23575SOL    HW271304   4.086   1.826   4.880 -1.3862 -1.3601 -0.0267
23576SOL     OW71305   0.415   3.930   0.524 -0.0173  0.1715 -0.3215
23576SOL    HW171306   0.432   3.955   0.433 -0.8803  3.3904  0.2761
23576SOL    HW271307   0.320   3.917   0.527 -0.1218  0.9820  0.2651
23577SOL     OW71308   1.431   9.753   2.927  0.0168 -0.3195 -0.7601
23577SOL    HW171309   1.367   9.824   2.921  0.2802 -0.0388 -0.3479
23577SOL    HW271310   1.381   9.674   2.907 -0.0952  0.0646 -2.0642
23578SOL     OW71311   2.763   5.728   5.057  0.0404 -0.6309 -0.4086
23578SOL    HW171312   2.835   5.769   5.104 -2.0335 -0.1554  2.6961
23578SOL    HW271313   2.790   5.637   5.046  1.4694 -0.2631 -0.1350
23579SOL     OW71314   2.200   3.184   8.641  0.5261  0.2315  0.7715
23579SOL    HW171315   2.281   3.139   8.668  1.2298  1.1181  0.2040
23579SOL    HW271316   2.200   3.177   8.545  0.7775  1.6142  0.6510
23580SOL     OW71317   3.053   0.680   3.988 -0.2120  0.1300 -0.2929
23580SOL    HW171318   3.047   0.671   3.893 -0.8320  1.2839 -0.3869
23580SOL    HW271319   3.036   0.592   4.022  3.2624 -1.1084 -1.3011
23581SOL     OW71320   3.274   5.900   4.560 -0.1751  0.7319 -0.1731
23581SOL    HW171321   3.255   5.978   4.612 -0.3812  0.3595  0.3184
23581SOL    HW271322   3.367   5.883   4.576  0.1024  1.3776 -0.9805
23582SOL     OW71323   0.442   5.451   1.674  0.0320 -0.5321 -0.1682
23582SOL    HW171324   0.529   5.435   1.637  1.0595 -2.4128  2.7197
23582SOL    HW271325   0.456   5.524   1.735 -0.6029 -0.3953 -0.1861
23583SOL     OW71326   9.688   3.843   5.339  0.2188 -0.0536 -0.0971
23583SOL    HW171327   9.687   3.751   5.367  0.4687  0.1825  0.7325
23583SOL    HW271328   9.746   3.845   5.264  0.6882 -0.4816  0.2484
23584SOL     OW71329   9.892   6.507   7.478  0.7547 -0.0357  0.3560
23584SOL    HW171330   9.879   6.580   7.538  3.6244  0.0288  1.0750
23584SOL    HW271331   9.903   6.431   7.535  1.5658 -0.3242 -0.1642
23585SOL     OW71332   9.866   2.103   5.196 -0.9736  0.0959 -0.7921
23585SOL    HW171333   9.936   2.069   5.139  0.6544  1.6208  0.2241
23585SOL    HW271334   9.850   2.191   5.164  0.9883  1.5525  1.8665
23586SOL     OW71335   0.471   5.004   6.503 -0.4219  0.3400  0.0557
23586SOL    HW171336   0.385   4.966   6.488 -0.7339  0.7482  0.7346
23586SOL    HW271337   0.519   4.988   6.422 -1.8737  2.0924 -1.2503
23587SOL     OW71338   2.534   2.483   6.583 -0.2074  0.3186  0.1565
23587SOL    HW171339   2.550   2.408   6.640  2.0412  0.2232 -0.4740
23587SOL    HW271340   2.535   2.447   6.495  1.2968  1.0673 -0.1829
23588SOL     OW71341   1.636   7.462   1.105  0.0486 -0.1649 -0.2428
23588SOL    HW171342   1.649   7.557   1.109  0.8524 -0.3106  2.0691
23588SOL    HW271343   1.657   7.431   1.193 -1.1509 -2.3941 -0.6656
23589SOL     OW71344   3.127   6.544   7.555  0.4847  0.1636  0.1338
23589SOL    HW171345   3.036   6.563   7.578  0.5326 -0.1643  0.6120
23589SOL    HW271346   3.147   6.604   7.483 -0.3820 -0.3659 -0.5675
23590SOL     OW71347   9.653   0.539   8.724  0.2851  0.7117 -0.0317
23590SOL    HW171348   9.672   0.581   8.641 -1.2042  0.9309 -0.2979
23590SOL    HW271349   9.652   0.445   8.704  0.3357  0.7422 -0.1781
23591SOL     OW71350   7.394   5.966   5.894 -0.2710  0.1391  0.3037
23591SOL    HW171351   7.304   5.960   5.927 -0.4949 -1.2336 -0.4831
23591SOL    HW271352   7.392   5.921   5.810  1.0986  0.3407  0.1403
23592SOL     OW71353   2.726   3.451   0.034 -0.3831 -0.3228  0.1056
23592SOL    HW171354   2.654   3.511   0.013  0.5509  0.9375  0.3818
23592SOL    HW271355   2.730   3.452   0.130  2.0103  2.2007  0.1118
23593SOL     OW71356   7.637   1.132   4.668  0.5366 -0.1889  0.2800
23593SOL    HW171357   7.695   1.056   4.654 -0.6437 -1.1060  0.2186
23593SOL    HW271358   7.596   1.115   4.752 -0.8461 -0.3894 -0.4047
23594SOL     OW71359   1.285   3.034   3.438 -0.0685 -0.1509  0.0041
23594SOL    HW171360   1.293   3.025   3.533 -0.1557 -0.5166 -0.0238
23594SOL    HW271361   1.226   3.108   3.425  1.1079  0.8661  0.2304
23595SOL     OW71362   2.414   2.164   0.420 -0.2888  0.5431 -0.2514
23595SOL    HW171363   2.396   2.144   0.512  0.0652  1.1447 -0.0450
23595SOL    HW271364   2.438   2.257   0.420  1.3138  0.1701 -0.7090
23596SOL     OW71365   3.780   7.496   9.343 -0.1468  0.6253  0.1864
23596SOL    HW171366   3.764   7.528   9.432 -3.2083 -0.9468  0.3319
23596SOL    HW271367   3.722   7.421   9.334  3.0847 -1.8970 -1.7793
23597SOL     OW71368   7.538   1.958   6.955  0.1869 -0.3145 -0.2716
23597SOL    HW171369   7.613   1.975   6.897 -0.1658  0.4230 -0.5341
23597SOL    HW271370   7.527   1.863   6.954  0.2239 -0.3185 -1.3846
23598SOL     OW71371   9.056   9.940   5.301 -0.7058  0.3245 -0.6565
23598SOL    HW171372   9.096  10.009   5.248  0.4241  0.0024 -0.2598
23598SOL    HW271373   9.008   9.887   5.238 -0.4360  0.6789 -1.1735
23599SOL     OW71374   6.648   4.057   2.348 -0.4398 -0.2422 -0.2315
23599SOL    HW171375   6.647   4.036   2.442 -1.1990 -1.2347 -0.4490
23599SOL    HW271376   6.653   4.152   2.345  2.5479 -0.2495  0.7977
23600SOL     OW71377   0.446   6.174   3.225 -0.1257  0.1231  0.1940
23600SOL    HW171378   0.380   6.178   3.156  1.2792  2.1616 -1.1443
23600SOL    HW271379   0.509   6.109   3.194  0.2469  0.6769 -0.2296
23601SOL     OW71380   2.974   9.888   7.702  0.7785  0.2841  0.8961
23601SOL    HW171381   2.958   9.972   7.660 -0.0236  0.1954  1.0147
23601SOL    HW271382   2.955   9.904   7.795 -1.3484 -0.5161  0.6435
23602SOL     OW71383   0.998   8.476   9.850 -0.2052  0.3450  0.0422
23602SOL    HW171384   0.913   8.445   9.881 -0.1145 -0.8689 -0.8684
23602SOL    HW271385   1.060   8.407   9.874  0.1731  0.2556 -1.1183
23603SOL     OW71386   7.251   3.809   9.281 -0.0515  0.3274  0.3880
23603SOL    HW171387   7.274   3.735   9.225  0.2171  0.3632  0.4480
23603SOL    HW271388   7.327   3.819   9.339 -0.6383 -0.1921  1.2670
23604SOL     OW71389   6.533   6.205   2.999  0.1727  0.5667  0.4724
23604SOL    HW171390   6.467   6.158   2.948  0.0038  2.5838 -1.3107
23604SOL    HW271391   6.488   6.232   3.079 -0.5142  0.1078  0.2509
23605SOL     OW71392   2.938   3.455   0.320  0.0932 -0.6149  0.0800
23605SOL    HW171393   2.922   3.544   0.288  1.3558  0.8896  3.1606
23605SOL    HW271394   3.025   3.433   0.285  1.0233  0.5992  1.4662
23606SOL     OW71395   8.465   9.153   8.567 -0.5353  0.8844 -0.0491
23606SOL    HW171396   8.560   9.161   8.575 -0.3808 -1.0777  0.5450
23606SOL    HW271397   8.452   9.099   8.489 -1.1018  0.1135  0.5700
23607SOL     OW71398   6.098   5.118   8.638 -0.0893  0.2625  0.1238
23607SOL    HW171399   6.002   5.121   8.637 -0.1827 -1.3799  0.9433
23607SOL    HW271400   6.124   5.209   8.654 -1.4467  0.9563 -1.2802
23608SOL     OW71401   1.737   6.429   8.093  0.0384  0.4280  0.2832
23608SOL    HW171402   1.791   6.473   8.158 -0.8012  0.3807  1.0304
23608SOL    HW271403   1.796   6.415   8.018  0.6653  1.6557  0.5196
23609SOL     OW71404   0.726   7.376   1.208 -0.5526 -0.4012  0.4528
23609SOL    HW171405   0.807   7.377   1.257  0.9399  0.6898 -1.8510
23609SOL    HW271406   0.700   7.283   1.207  1.4103 -0.9984  0.1153
23610SOL     OW71407   8.912   9.801   1.251  0.2350 -0.1353  0.9373
23610SOL    HW171408   8.947   9.886   1.280 -1.7530  0.7608  0.8745
23610SOL    HW271409   8.839   9.784   1.311  1.5959 -2.6621  2.0294
23611SOL     OW71410   8.754   9.206   3.910 -0.0740  0.5167 -0.4542
23611SOL    HW171411   8.841   9.227   3.943 -0.6717  0.3106  1.3476
23611SOL    HW271412   8.717   9.291   3.885 -0.1796  0.8919  0.9197
23612SOL     OW71413   5.675   2.647   8.279  0.1399 -0.2233  0.1116
23612SOL    HW171414   5.713   2.681   8.360  1.4709 -3.4676  1.0066
23612SOL    HW271415   5.739   2.669   8.211  1.4334 -1.5999  0.8229
23613SOL     OW71416   5.642   6.641   1.508 -0.0387 -0.3282 -0.1136
23613SOL    HW171417   5.614   6.724   1.548  0.2807 -0.3165  0.0886
23613SOL    HW271418   5.736   6.637   1.525  0.1433 -0.2302 -1.0305
23614SOL     OW71419   8.893   6.734   0.568 -0.8591  0.1399  0.0735
23614SOL    HW171420   8.856   6.666   0.624 -3.3106  1.8138  0.6381
23614SOL    HW271421   8.853   6.815   0.599  0.4049  1.5985 -1.8793
23615SOL     OW71422   8.036   8.052   2.413 -0.6581  0.0474 -0.2404
23615SOL    HW171423   7.968   7.995   2.375 -1.6288  1.0481 -0.0567
23615SOL    HW271424   7.998   8.083   2.495 -1.0936  2.6748 -1.3387
23616SOL     OW71425   8.550   7.416   1.258  0.0450 -0.1620 -0.3578
23616SOL    HW171426   8.536   7.333   1.304 -0.3335 -0.0718 -0.3049
23616SOL    HW271427   8.642   7.414   1.232 -0.3549 -1.3566 -1.8354
23617SOL     OW71428   9.132   9.589   6.371  0.0160  0.1608 -0.6367
23617SOL    HW171429   9.216   9.551   6.346  0.2981  0.2039  0.2133
23617SOL    HW271430   9.146   9.622   6.459 -1.0993 -0.4722 -0.2026
23618SOL     OW71431   7.840   9.019   5.541  0.8983  0.6588 -0.0160
23618SOL    HW171432   7.906   8.951   5.552  0.5663 -0.0299 -1.9006
23618SOL    HW271433   7.757   8.971   5.539  0.6574  1.0981 -1.3641
23619SOL     OW71434   7.270   6.993   9.535  0.4162  0.3648 -0.0956
23619SOL    HW171435   7.244   7.025   9.621 -1.4440 -1.1734 -0.0128
23619SOL    HW271436   7.307   7.069   9.491 -3.1852  2.5365  0.2911
23620SOL     OW71437   6.424   5.155   6.320 -0.1591  0.0379 -0.3953
23620SOL    HW171438   6.463   5.194   6.242 -0.4521  0.9007 -0.1281
23620SOL    HW271439   6.417   5.062   6.300 -0.8662  0.3497 -1.6582
23621SOL     OW71440   1.926   4.059   3.075 -0.0132  0.2224  0.0316
23621SOL    HW171441   1.852   4.101   3.031 -0.9480 -1.2474  0.1431
23621SOL    HW271442   1.924   4.093   3.164  0.4469  1.4051 -0.3894
23622SOL     OW71443   9.678   4.205   4.905  0.4304  0.1856 -0.1478
23622SOL    HW171444   9.661   4.245   4.819 -2.0775 -0.9702 -0.2939
23622SOL    HW271445   9.624   4.125   4.905  1.6423 -0.7102  1.8948
23623SOL     OW71446   9.734   5.193   5.660  0.0341 -0.1046  0.5348
23623SOL    HW171447   9.771   5.236   5.583  0.7998 -0.8311  0.4829
23623SOL    HW271448   9.785   5.113   5.670 -0.8803 -0.6440  1.0632
23624SOL     OW71449  -0.013   6.822   0.459 -0.2131  0.2647  0.0152
23624SOL    HW171450  -0.050   6.741   0.424 -0.3362 -0.0369  0.8402
23624SOL    HW271451   0.073   6.829   0.417  0.3304 -0.9524  0.8876
23625SOL     OW71452   5.328   6.488   2.458  0.6002  0.1190 -0.5767
23625SOL    HW171453   5.260   6.426   2.431 -0.8806  1.2013  0.4744
23625SOL    HW271454   5.403   6.433   2.481 -0.2953 -1.2073 -0.7210
23626SOL     OW71455   1.100   9.215   5.940  0.2426  0.3188  0.0537
23626SOL    HW171456   1.193   9.207   5.961  0.1083 -1.6247  0.1349
23626SOL    HW271457   1.061   9.132   5.970 -1.2827  0.5601 -1.1007
23627SOL     OW71458   2.915   8.832   4.665 -0.2964 -0.1302 -0.0985
23627SOL    HW171459   3.006   8.857   4.682 -0.4818  0.5761 -0.1009
23627SOL    HW271460   2.905   8.841   4.570 -1.2363  3.0296  0.1611
23628SOL     OW71461   7.124   3.351   0.025  0.3709 -0.5506 -0.4380
23628SOL    HW171462   7.084   3.285   0.080  0.2793  1.2741  1.8445
23628SOL    HW271463   7.065   3.361  -0.049  0.1724 -2.6487 -0.6051
23629SOL     OW71464   3.008   6.899   6.504 -0.5234  0.4059 -0.0800
23629SOL    HW171465   3.010   6.829   6.439 -1.8557  0.8712 -0.6732
23629SOL    HW271466   3.028   6.856   6.587 -1.4940 -0.7316 -0.4015
23630SOL     OW71467   1.779   4.106   3.530  0.1893 -0.6586  0.0986
23630SOL    HW171468   1.837   4.177   3.501  2.7476 -2.9916 -0.9781
23630SOL    HW271469   1.821   4.073   3.610 -0.4881 -1.4669  0.1307
23631SOL     OW71470   3.062   4.317   2.366 -0.1096 -0.1797 -0.3522
23631SOL    HW171471   3.100   4.374   2.433 -1.1835 -2.4591  2.4173
23631SOL    HW271472   2.969   4.342   2.364  0.0904  0.5519 -1.8218
23632SOL     OW71473   1.657   1.740   3.059 -0.0972 -0.4450 -0.3548
23632SOL    HW171474   1.731   1.693   3.021  0.1633 -2.4065  2.3005
23632SOL    HW271475   1.688   1.767   3.145 -2.1414 -0.4084  0.4179
23633SOL     OW71476   8.219   6.080   6.453  0.1969 -0.5537  0.3361
23633SOL    HW171477   8.216   5.987   6.474 -0.4732 -0.4466  0.7351
23633SOL    HW271478   8.309   6.095   6.423  0.0176 -1.5513 -0.7724
23634SOL     OW71479   8.832   4.582   5.984 -0.2548  0.1775  0.0257
23634SOL    HW171480   8.760   4.639   6.012  1.1939  1.7007  0.7467
23634SOL    HW271481   8.858   4.617   5.898 -0.1841 -0.2037 -0.1107
23635SOL     OW71482   9.947   2.170   3.225  0.1050 -0.2419  0.3826
23635SOL    HW171483   9.853   2.154   3.240  0.5769 -2.5124  1.2042
23635SOL    HW271484   9.991   2.114   3.288  2.0651  0.5708 -0.1949
23636SOL     OW71485   0.213   2.044   8.302  0.6882 -0.0211  0.1295
23636SOL    HW171486   0.255   1.990   8.235  5.0097  2.3217  0.5594
23636SOL    HW271487   0.220   1.993   8.383  0.5991 -0.6057 -0.2303
23637SOL     OW71488   8.862   0.557   8.712 -0.2912  0.9620 -0.0671
23637SOL    HW171489   8.809   0.637   8.706 -2.4067 -0.3023  0.8106
23637SOL    HW271490   8.819   0.504   8.778 -1.2872 -2.5406 -3.1945
23638SOL     OW71491   2.697   1.313   3.943 -0.3837 -0.1179 -0.5424
23638SOL    HW171492   2.687   1.308   4.038  0.3975 -0.2175 -0.4595
23638SOL    HW271493   2.786   1.280   3.926 -0.4628  0.0333 -1.2918
23639SOL     OW71494   3.905   7.165   0.411 -0.4889 -0.1626  0.3147
23639SOL    HW171495   3.911   7.070   0.421 -2.4306 -0.3243  0.2712
23639SOL    HW271496   3.934   7.200   0.495  1.9170 -0.6762 -0.2307
23640SOL     OW71497   9.272   2.175   5.684  0.1554  0.6801 -0.4334
23640SOL    HW171498   9.325   2.149   5.608  0.2304 -1.4230  0.2700
23640SOL    HW271499   9.320   2.248   5.723  1.4622  0.1519 -0.9940
23641SOL     OW71500   2.167   6.118   3.615 -0.4060  0.2992  0.1723
23641SOL    HW171501   2.251   6.116   3.570 -0.2542  0.4534  0.4494
23641SOL    HW271502   2.102   6.124   3.545 -0.2441 -0.9305 -0.0938
23642SOL     OW71503   9.605   0.812   4.321 -0.3627  0.2335  0.1909
23642SOL    HW171504   9.617   0.717   4.328  2.1688  0.5568  1.2952
23642SOL    HW271505   9.587   0.828   4.229  1.3436 -1.1663 -0.4288
23643SOL     OW71506   3.029   4.088   8.921  0.0048  0.0115  0.0863
23643SOL    HW171507   3.013   4.169   8.970  0.9048 -0.0416  0.4885
23643SOL    HW271508   3.083   4.035   8.979  0.7776 -0.2137 -0.8141
23644SOL     OW71509   7.234   4.646   4.198 -0.2627 -0.2758  0.0746
23644SOL    HW171510   7.271   4.676   4.115  1.5218 -1.3139  0.4371
23644SOL    HW271511   7.244   4.720   4.257  1.6239 -0.6025  0.2407
23645SOL     OW71512   0.132   4.879   2.530  0.7228  0.3638  0.3637
23645SOL    HW171513   0.204   4.828   2.493 -0.8814 -0.8676 -1.2579
23645SOL    HW271514   0.054   4.826   2.514 -0.7895  2.3914  0.5140
23646SOL     OW71515   8.188   7.017   3.418 -0.5277 -0.0739  0.1267
23646SOL    HW171516   8.155   6.941   3.465 -2.7211  0.5649 -0.3000
23646SOL    HW271517   8.257   7.052   3.475  0.0451 -1.9395  0.6403
23647SOL     OW71518   1.370   8.317   4.629  0.2339  0.7992 -0.3213
23647SOL    HW171519   1.346   8.399   4.587 -0.2085  0.4419 -0.7714
23647SOL    HW271520   1.462   8.305   4.606  0.5143  1.5232  0.3513
23648SOL     OW71521   0.063   5.346   8.244 -0.5409 -0.2426  0.0811
23648SOL    HW171522   0.114   5.427   8.244  0.9308 -1.1058  1.2574
23648SOL    HW271523   0.078   5.309   8.331 -1.3296 -1.6824 -0.3671
23649SOL     OW71524   7.577   6.167   3.556  0.3777  0.1626 -0.4534
23649SOL    HW171525   7.571   6.241   3.495  1.5575  0.3999 -0.3152
23649SOL    HW271526   7.487   6.148   3.580  0.0898  2.1598  0.2244
23650SOL     OW71527   0.857   4.138   3.221  0.8723 -0.5864 -0.6105
23650SOL    HW171528   0.926   4.204   3.211  0.7227 -0.2464  0.4909
23650SOL    HW271529   0.898   4.067   3.271  0.8433 -1.0571 -1.2336
23651SOL     OW71530   8.135   2.269   9.210 -0.7163 -0.2639 -0.2377
23651SOL    HW171531   8.128   2.259   9.305 -2.0522  1.9305 -0.0507
23651SOL    HW271532   8.215   2.320   9.198 -0.1496 -1.1617 -0.3741
23652SOL     OW71533   5.818   4.978   8.070  0.6477  0.4184 -0.2967
23652SOL    HW171534   5.735   4.989   8.118  1.1699  0.7483  0.5549
23652SOL    HW271535   5.821   4.885   8.049  0.0211  0.4183 -0.4089
23653SOL     OW71536   0.892   7.483   1.998 -0.5830  0.2437  0.0414
23653SOL    HW171537   0.827   7.418   1.971  0.1539 -0.0517 -1.0548
23653SOL    HW271538   0.865   7.507   2.087 -0.7834 -1.6810  0.5428
23654SOL     OW71539   6.644   6.794   2.769 -0.1377 -0.4340 -0.1759
23654SOL    HW171540   6.565   6.773   2.719 -1.7658 -1.3335  2.5988
23654SOL    HW271541   6.695   6.714   2.769  0.7141  0.0637 -1.7246
23655SOL     OW71542   2.203   8.988   3.687 -0.3119 -0.3133  0.0099
23655SOL    HW171543   2.223   9.081   3.698  1.8909 -0.7065 -0.0719
23655SOL    HW271544   2.230   8.968   3.598  1.8473 -1.5376  0.8463
23656SOL     OW71545   2.014   3.921   3.438  0.2420  0.7777  0.0416
23656SOL    HW171546   2.105   3.903   3.418  0.1177  0.7651 -0.5210
23656SOL    HW271547   2.008   4.017   3.444  0.3871  0.7573  0.5515
23657SOL     OW71548   1.537   9.780   0.264  0.4898 -0.2762 -0.2186
23657SOL    HW171549   1.453   9.818   0.239 -0.2447 -1.3828  0.4769
23657SOL    HW271550   1.527   9.687   0.244  0.9115 -0.7162  1.4675
23658SOL     OW71551   2.309   9.435   4.499 -0.2078  0.3968 -0.0799
23658SOL    HW171552   2.225   9.472   4.525  0.0192  1.6249 -0.9967
23658SOL    HW271553   2.370   9.508   4.507  0.3299  0.1422 -1.5916
23659SOL     OW71554   4.334   9.862   6.891 -0.1763 -0.0037  0.2691
23659SOL    HW171555   4.413   9.863   6.945  0.2556  2.0473 -0.3226
23659SOL    HW271556   4.345   9.785   6.835  1.9606  0.8080 -0.5272
23660SOL     OW71557   0.670   3.375   0.120 -0.1907 -0.1910  0.5115
23660SOL    HW171558   0.651   3.337   0.206 -0.8723 -0.8422  0.0759
23660SOL    HW271559   0.734   3.445   0.139 -0.6930 -0.0081  1.6053
23661SOL     OW71560   2.057   0.199   9.259 -0.1610  0.1152 -0.6924
23661SOL    HW171561   2.112   0.256   9.206  0.0327  1.0094  0.4503
23661SOL    HW271562   2.025   0.254   9.330 -1.6832 -0.6568 -0.7232
23662SOL     OW71563   2.155   5.646   9.197  0.3657 -0.2685  0.2536
23662SOL    HW171564   2.109   5.684   9.271  0.2890  0.1301  0.0009
23662SOL    HW271565   2.248   5.657   9.218  0.3441 -0.0366  0.2304
23663SOL     OW71566   2.104   6.238   5.787  0.5734  0.1514  0.4483
23663SOL    HW171567   2.119   6.144   5.791 -1.5127 -0.2192  0.7522
23663SOL    HW271568   2.192   6.277   5.785  1.4981 -1.8370 -1.3458
23664SOL     OW71569   3.698   0.747   2.326 -0.6916  0.2842 -0.1989
23664SOL    HW171570   3.638   0.810   2.286  1.0577  1.5094 -1.0111
23664SOL    HW271571   3.695   0.767   2.419 -0.8561  0.9360 -0.3387
23665SOL     OW71572   3.444   4.025   8.040 -0.0422  0.3306 -0.1181
23665SOL    HW171573   3.385   4.074   7.983 -2.4501 -2.2751 -0.0684
23665SOL    HW271574   3.463   3.945   7.992  1.8010  0.1477  0.8101
23666SOL     OW71575   4.192   6.075   9.371 -0.1079 -0.4467  0.0781
23666SOL    HW171576   4.119   6.041   9.422 -1.2492  1.5869 -0.0970
23666SOL    HW271577   4.167   6.061   9.280 -0.3610  0.3195  0.0162
23667SOL     OW71578   6.230   1.481   6.980 -0.1189 -0.1473 -0.3334
23667SOL    HW171579   6.271   1.433   6.907 -0.0925 -0.7175  0.0551
23667SOL    HW271580   6.298   1.483   7.048 -0.2959  0.0105 -0.1622
23668SOL     OW71581   2.999   7.164   3.331  0.5329  0.5521  0.0731
23668SOL    HW171582   2.915   7.124   3.356 -0.4109  2.4703  0.1561
23668SOL    HW271583   3.065   7.111   3.376 -0.6296 -0.9262  0.1146
23669SOL     OW71584   1.347   6.568   5.144 -0.3019 -0.0059  0.2745
23669SOL    HW171585   1.384   6.490   5.103 -0.1393 -0.0159  0.4374
23669SOL    HW271586   1.414   6.596   5.206  1.1760  2.1696 -2.0656
23670SOL     OW71587   2.000   9.569   3.293 -0.3400 -0.0429  0.4736
23670SOL    HW171588   1.995   9.658   3.256 -1.8164 -0.4114 -0.3002
23670SOL    HW271589   2.038   9.516   3.223  0.1879 -0.0975  0.7989
23671SOL     OW71590   4.014   4.416   7.827  0.2598 -0.8046 -0.4413
23671SOL    HW171591   4.023   4.502   7.787  0.7169 -0.7850 -0.3082
23671SOL    HW271592   3.920   4.399   7.830  0.1683 -0.2879 -0.4254
23672SOL     OW71593   8.615   1.053   7.815 -0.4023 -0.1330 -0.0582
23672SOL    HW171594   8.604   1.022   7.725  1.8246 -1.4934  0.0630
23672SOL    HW271595   8.690   1.112   7.811 -0.4181 -0.0381  0.8755
23673SOL     OW71596   4.144   3.562   2.153  0.3207  0.4777  0.0132
23673SOL    HW171597   4.203   3.616   2.206 -0.1375  0.3516  0.6481
23673SOL    HW271598   4.118   3.490   2.210 -0.7175  0.7130 -0.1493
23674SOL     OW71599   1.295   6.089   8.803  0.4210  0.0431 -0.3408
23674SOL    HW171600   1.324   6.072   8.713  1.2256  0.8362 -0.2451
23674SOL    HW271601   1.352   6.036   8.858  0.8557  0.6050 -0.2317
23675SOL     OW71602   8.768   4.873   1.235  1.0802 -0.0358  0.5117
23675SOL    HW171603   8.677   4.854   1.214  0.9264  1.8196 -0.7677
23675SOL    HW271604   8.770   4.875   1.331  0.1912 -1.8094  0.6021
23676SOL     OW71605   8.750   9.078   3.300  0.4165 -0.2010 -0.3635
23676SOL    HW171606   8.747   9.159   3.351  1.5489 -0.7963  0.7163
23676SOL    HW271607   8.705   9.099   3.218 -1.2042  0.8684  0.7441
23677SOL     OW71608   7.191   3.622   5.143 -0.1894 -0.6121 -0.1690
23677SOL    HW171609   7.234   3.650   5.223 -0.0191  2.4825 -1.2240
23677SOL    HW271610   7.111   3.674   5.138  0.4043  0.2210 -2.5544
23678SOL     OW71611   0.144   2.807   8.300  0.2818 -0.3886 -0.6926
23678SOL    HW171612   0.218   2.794   8.241 -0.4145 -1.0530 -1.4497
23678SOL    HW271613   0.149   2.899   8.325  2.8608 -0.9562  1.3615
23679SOL     OW71614   2.961   9.561   2.706 -0.3465  0.2334  0.6261
23679SOL    HW171615   2.891   9.497   2.715  0.6774 -0.8559  1.0360
23679SOL    HW271616   3.038   9.510   2.679  0.1268  1.5024 -0.5803
23680SOL     OW71617   1.532   8.377   7.846 -0.3493  0.0930 -0.1904
23680SOL    HW171618   1.502   8.286   7.836 -1.4294  0.3146  0.8834
23680SOL    HW271619   1.622   8.368   7.876  0.4566 -0.5896 -2.5799
23681SOL     OW71620   8.723   7.436   2.815 -0.1425 -0.1022  0.2760
23681SOL    HW171621   8.812   7.468   2.807 -0.0244 -0.2559  0.8839
23681SOL    HW271622   8.714   7.414   2.908  0.0781 -2.6867 -0.2363
23682SOL     OW71623   5.133   8.078   3.370 -0.2126 -0.2012  0.1726
23682SOL    HW171624   5.228   8.083   3.359 -0.3594  0.9374 -0.8130
23682SOL    HW271625   5.116   8.130   3.449 -0.2816  2.8216 -1.6493
23683SOL     OW71626   7.104   2.827   9.668 -0.6939 -0.7968 -0.3747
23683SOL    HW171627   7.135   2.804   9.756  1.4075 -1.6082 -1.2515
23683SOL    HW271628   7.112   2.746   9.619 -0.2294  0.0313 -1.7108
23684SOL     OW71629   1.081   6.225   6.576 -0.0024 -0.2670 -0.3026
23684SOL    HW171630   1.011   6.273   6.530  0.3884  0.8887  0.2717
23684SOL    HW271631   1.157   6.233   6.519 -0.3623 -1.6899 -1.0194
23685SOL     OW71632   2.686   2.147   3.199 -0.2765 -0.0868 -0.3519
23685SOL    HW171633   2.672   2.227   3.250  2.1862  0.1795  0.0238
23685SOL    HW271634   2.620   2.086   3.231  0.8636  0.2085  2.8873
23686SOL     OW71635   4.891   2.668   4.461 -0.1828  0.2477 -0.1370
23686SOL    HW171636   4.905   2.580   4.426 -0.7992 -0.1464  0.5875
23686SOL    HW271637   4.954   2.676   4.532  0.1001  0.5194 -0.4160
23687SOL     OW71638   8.200   4.179   0.265  0.4495 -0.3744  0.1751
23687SOL    HW171639   8.230   4.221   0.345 -0.3459  0.2990  0.1398
23687SOL    HW271640   8.211   4.246   0.197  0.4086 -0.6741 -0.1305
23688SOL     OW71641   9.178   7.094   7.841 -0.5821  0.1661 -0.0973
23688SOL    HW171642   9.201   7.026   7.904  1.9858  0.2838 -0.8104
23688SOL    HW271643   9.146   7.046   7.764 -0.4533 -0.1509  0.0454
23689SOL     OW71644   0.609   1.030   5.831 -0.5136 -0.6715 -0.0797
23689SOL    HW171645   0.660   1.036   5.750 -1.0303 -0.6304 -0.4095
23689SOL    HW271646   0.644   0.953   5.876  1.5529  0.7761  0.9331
23690SOL     OW71647   0.320   2.085   7.425  0.3175 -0.1052 -0.3330
23690SOL    HW171648   0.280   2.168   7.400 -3.0578 -1.5968 -0.4889
23690SOL    HW271649   0.263   2.019   7.386 -0.6177 -2.5416  4.4445
23691SOL     OW71650   7.452   7.377   5.486 -0.3039  0.5619  0.1623
23691SOL    HW171651   7.363   7.362   5.519 -0.8951  1.1720 -1.0664
23691SOL    HW271652   7.439   7.416   5.399  1.1166 -2.1999 -1.4512
23692SOL     OW71653   8.221   3.961   2.050 -0.5106 -0.3521 -0.4303
23692SOL    HW171654   8.163   4.017   1.997 -1.0854  0.2590  0.7964
23692SOL    HW271655   8.302   3.956   1.999 -0.4134  1.6768 -0.5773
23693SOL     OW71656   3.350   4.071   3.456 -0.5755  0.4054 -0.2891
23693SOL    HW171657   3.271   4.038   3.412 -0.3043  1.2818 -1.4868
23693SOL    HW271658   3.335   4.165   3.465  0.9831  0.8926 -2.0638
23694SOL     OW71659   0.177   9.383   7.320 -0.3691 -0.1864  0.0786
23694SOL    HW171660   0.161   9.391   7.414 -2.7744 -0.8088 -0.2159
23694SOL    HW271661   0.181   9.289   7.304 -0.7064 -0.0991 -0.5440
23695SOL     OW71662   3.456   9.320   2.486  0.3355 -0.2010  0.0444
23695SOL    HW171663   3.508   9.400   2.479  1.3648 -0.6686  1.6561
23695SOL    HW271664   3.455   9.301   2.580 -1.9437 -0.7780 -0.0443
23696SOL     OW71665   6.100   6.051   6.647 -0.5502  0.0450 -0.2154
23696SOL    HW171666   6.036   5.994   6.690  0.1505 -0.5787  0.0439
23696SOL    HW271667   6.048   6.120   6.607 -1.3884 -0.5007 -0.1026
23697SOL     OW71668   9.586   7.922   4.270  0.1047 -0.1474 -1.0237
23697SOL    HW171669   9.647   7.855   4.242 -1.4570 -1.7531 -0.7511
23697SOL    HW271670   9.514   7.917   4.206 -0.4260  0.6969 -0.5223
23698SOL     OW71671   8.300   3.804   9.404  0.3173  0.9740 -0.4058
23698SOL    HW171672   8.305   3.798   9.308  0.1754  0.9623 -0.4140
23698SOL    HW271673   8.206   3.805   9.422  0.3158 -0.5800 -0.1702
23699SOL     OW71674   0.899   4.620   0.041 -0.0857  0.2265  0.4946
23699SOL    HW171675   0.805   4.602   0.050  0.4297 -1.8798  2.3569
23699SOL    HW271676   0.938   4.536   0.016  1.1847  1.4290 -1.9351
23700SOL     OW71677   0.444   2.952   9.406  0.2120  0.5486  0.1280
23700SOL    HW171678   0.359   2.931   9.367  0.4605  0.5860 -0.4413
23700SOL    HW271679   0.442   3.046   9.420  1.0975  0.9619 -2.2087
23701SOL     OW71680   1.245   1.533   3.464 -0.0718  0.0140  0.1740
23701SOL    HW171681   1.233   1.614   3.515  1.9040  0.3104  0.2657
23701SOL    HW271682   1.298   1.477   3.521  0.7896 -0.2899 -0.8895
23702SOL     OW71683   5.940   7.123   4.486  0.3028 -0.1688 -0.5555
23702SOL    HW171684   5.995   7.156   4.414  0.2502  0.0447 -0.4973
23702SOL    HW271685   5.957   7.029   4.487 -0.0318 -0.2449 -1.1369
23703SOL     OW71686   6.084   9.758   4.866 -0.1644  0.3760  0.0706
23703SOL    HW171687   6.088   9.814   4.944  0.4736 -2.1740  2.0348
23703SOL    HW271688   6.176   9.750   4.838 -0.0911 -0.5716  0.5403
23704SOL     OW71689   7.887   5.584   2.269 -0.2125 -0.1835  0.2286
23704SOL    HW171690   7.838   5.633   2.335 -1.0689  0.7185 -1.0492
23704SOL    HW271691   7.884   5.638   2.190  1.3690 -0.9244 -0.3918
23705SOL     OW71692   6.791   3.419   3.885  0.0366 -0.1991 -0.2357
23705SOL    HW171693   6.754   3.414   3.973 -0.4593 -1.2246 -0.4873
23705SOL    HW271694   6.771   3.508   3.856 -1.3947 -0.4176  0.0116
23706SOL     OW71695   1.764   5.762   5.025 -0.2793 -0.1032 -0.0490
23706SOL    HW171696   1.772   5.756   5.120  0.9158 -1.3389 -0.1955
23706SOL    HW271697   1.769   5.855   5.006 -0.6227  0.1642  1.0967
23707SOL     OW71698   4.898   4.012   9.865  0.0859  0.3414 -0.3001
23707SOL    HW171699   4.917   3.997   9.772  0.5381  0.4137 -0.2207
23707SOL    HW271700   4.976   3.979   9.910  0.3855  1.4027 -0.0200
23708SOL     OW71701   8.797   1.696   6.229  0.6682  0.4956 -0.5023
23708SOL    HW171702   8.781   1.655   6.144  0.3384 -2.1316  0.7600
23708SOL    HW271703   8.861   1.640   6.271 -0.8724  0.3957  1.8838
23709SOL     OW71704   2.714   1.955   9.823  0.0037 -0.0444 -0.7899
23709SOL    HW171705   2.768   2.034   9.826  2.0376 -1.3749  0.0466
23709SOL    HW271706   2.638   1.976   9.877  1.4574  0.7110  1.0656
23710SOL     OW71707   8.926   3.931   3.537  0.1511 -0.2849 -0.5342
23710SOL    HW171708   8.999   3.983   3.573 -1.0455  0.0290  1.6402
23710SOL    HW271709   8.873   3.995   3.490 -1.0751  0.5035  1.7544
23711SOL     OW71710   4.720   6.711   0.931  0.6788  0.5323  0.3867
23711SOL    HW171711   4.799   6.749   0.892  1.0346  0.0776  0.6560
23711SOL    HW271712   4.669   6.679   0.856  1.7037 -1.0111  0.3044
23712SOL     OW71713   7.311   9.703   3.170  0.0089  0.0456  0.0854
23712SOL    HW171714   7.369   9.778   3.186 -0.2621  0.8496 -2.3139
23712SOL    HW271715   7.233   9.741   3.130 -0.7308 -1.4019  0.0729
23713SOL     OW71716   7.687   5.353   1.123 -0.6226  0.3426 -0.1715
23713SOL    HW171717   7.658   5.269   1.157  1.1466 -0.7189 -1.1339
23713SOL    HW271718   7.624   5.417   1.158 -1.5343 -1.2581  1.2234
23714SOL     OW71719   4.651   9.818   6.672  0.0922  0.4792  0.5758
23714SOL    HW171720   4.584   9.848   6.610  0.9351  1.8303  0.2882
23714SOL    HW271721   4.638   9.872   6.750 -0.7007 -0.9408  1.4829
23715SOL     OW71722   9.746   1.630   4.792  0.3156  0.0492 -0.2602
23715SOL    HW171723   9.786   1.687   4.858 -0.0646 -0.4731  0.4232
23715SOL    HW271724   9.654   1.625   4.816  0.3117 -0.7238 -0.4098
23716SOL     OW71725   7.583   6.999   0.565  0.4310 -0.4881 -0.0166
23716SOL    HW171726   7.532   7.079   0.551  2.3010  0.5850 -1.1747
23716SOL    HW271727   7.547   6.961   0.644 -0.4635  1.5863  0.6454
23717SOL     OW71728   3.685   5.538   1.347 -0.4067 -0.2817 -0.3148
23717SOL    HW171729   3.737   5.473   1.299 -1.3192 -0.7788 -0.6554
23717SOL    HW271730   3.624   5.486   1.400 -0.7372  0.2893 -0.1304
23718SOL     OW71731   7.879   5.946   1.354  0.6213 -0.5907  0.1826
23718SOL    HW171732   7.877   5.884   1.281  2.4326 -0.0208 -0.4211
23718SOL    HW271733   7.797   5.932   1.401 -0.9223 -0.5460 -2.3192
23719SOL     OW71734   5.912   7.653   4.990 -0.4161  0.4226 -0.5254
23719SOL    HW171735   5.904   7.610   5.075 -0.9934 -0.3030 -0.9277
23719SOL    HW271736   5.839   7.716   4.988 -0.7022  0.0917 -0.6699
23720SOL     OW71737   4.803   4.036   3.741  0.0151 -0.5356  0.3164
23720SOL    HW171738   4.757   4.093   3.681  1.5138 -1.3939 -1.7584
23720SOL    HW271739   4.819   4.090   3.819 -1.5147  0.7691 -0.2406
23721SOL     OW71740   0.218   1.219   9.511 -0.1405 -0.1135  0.2039
23721SOL    HW171741   0.198   1.228   9.604 -1.5473 -0.1719 -0.0671
23721SOL    HW271742   0.132   1.215   9.468  0.4763 -0.7393 -1.0333
23722SOL     OW71743   8.345   6.779   0.861 -0.0371 -0.1094  0.1700
23722SOL    HW171744   8.332   6.785   0.955 -0.0308  0.1850  0.1544
23722SOL    HW271745   8.439   6.771   0.850  0.1390  1.5634  0.1233
23723SOL     OW71746   0.734   1.636   2.649  0.3152 -0.5470 -0.6102
23723SOL    HW171747   0.773   1.563   2.602  1.0504  0.8079 -2.2027
23723SOL    HW271748   0.808   1.690   2.676 -0.2164 -0.3421  0.5078
23724SOL     OW71749   7.124   7.656   6.525 -0.1710 -0.5784 -0.0732
23724SOL    HW171750   7.191   7.719   6.497 -1.5518  0.9600 -0.0831
23724SOL    HW271751   7.160   7.617   6.604  0.4498  0.7802  0.3566
23725SOL     OW71752   3.994   0.976   4.640 -0.4118  0.4840 -0.1861
23725SOL    HW171753   4.058   0.911   4.608 -0.7955  0.3202 -0.6251
23725SOL    HW271754   4.039   1.060   4.630 -0.6852  0.4837 -1.5868
23726SOL     OW71755   0.479   4.568   8.146 -0.3562  0.6864  0.1525
23726SOL    HW171756   0.455   4.651   8.187 -0.4866  1.2760 -1.0562
23726SOL    HW271757   0.556   4.590   8.093 -0.4464  0.0569 -0.2416
23727SOL     OW71758   2.303   4.891   5.388 -0.0743 -0.9722  0.0668
23727SOL    HW171759   2.255   4.926   5.313 -1.3565  2.7048  2.3538
23727SOL    HW271760   2.269   4.802   5.399 -0.2615 -1.4187 -3.2533
23728SOL     OW71761   3.151   4.461   2.118 -0.2316  0.3707  0.3194
23728SOL    HW171762   3.228   4.515   2.102 -1.0033  1.1664 -0.8335
23728SOL    HW271763   3.139   4.466   2.213  0.9321  0.4998  0.4798
23729SOL     OW71764   7.014   3.889   3.454  0.2701  0.1289  0.3302
23729SOL    HW171765   7.082   3.938   3.408 -0.1251 -0.0012 -0.4109
23729SOL    HW271766   6.966   3.956   3.503 -1.3717  0.8193 -2.0434
23730SOL     OW71767   8.677   4.038   5.457 -0.1142  0.3100  0.0363
23730SOL    HW171768   8.620   3.977   5.410  0.3297  0.0033 -0.1172
23730SOL    HW271769   8.733   4.075   5.389  2.0004 -1.7394  0.5434
23731SOL     OW71770   6.407   3.121   3.405  0.1350  0.7214 -0.0682
23731SOL    HW171771   6.492   3.087   3.433 -0.4901  1.2086  2.7062
23731SOL    HW271772   6.401   3.208   3.445 -1.8836  0.4707  0.3099
23732SOL     OW71773   9.931   4.259   7.937  0.2832  0.5063  0.4166
23732SOL    HW171774  10.026   4.268   7.948  0.5475 -1.0609 -0.3741
23732SOL    HW271775   9.898   4.348   7.947  1.7695  1.0036  1.2626
23733SOL     OW71776   2.431   9.738   1.330  0.5092  0.4161  0.1832
23733SOL    HW171777   2.488   9.671   1.368 -0.1373 -0.4656 -0.3370
23733SOL    HW271778   2.479   9.769   1.253  0.4242 -0.1226 -0.0969
23734SOL     OW71779   7.362   5.246   2.356  0.5212 -0.5552 -0.1207
23734SOL    HW171780   7.427   5.176   2.359  1.1836 -0.0407 -1.6020
23734SOL    HW271781   7.285   5.205   2.316  0.4412 -0.7816  0.2641
23735SOL     OW71782   8.588   9.967   4.086  0.2325 -0.2567  0.4039
23735SOL    HW171783   8.542   9.936   4.164 -0.0484  1.1131  0.8097
23735SOL    HW271784   8.519   9.992   4.026  0.4473 -1.5333 -0.4030
23736SOL     OW71785   3.026   3.003   2.702  0.7126 -0.4303  0.4976
23736SOL    HW171786   2.944   3.035   2.665  1.9275  1.1009 -1.0479
23736SOL    HW271787   3.030   3.042   2.789  0.2903  0.3560  0.1723
23737SOL     OW71788   3.647   9.136   0.216 -0.4084 -0.3975 -0.5978
23737SOL    HW171789   3.574   9.135   0.154 -1.0250 -3.1766  0.0507
23737SOL    HW271790   3.605   9.145   0.301  0.0274 -1.4857 -0.2586
23738SOL     OW71791   2.913   5.620   3.206 -0.1108 -0.4313  0.4516
23738SOL    HW171792   2.940   5.554   3.143 -0.7090 -0.6815  0.4538
23738SOL    HW271793   2.876   5.571   3.279 -0.3715 -0.1028  0.5447
23739SOL     OW71794   6.507   7.573   0.725  0.2188 -0.1408  0.4095
23739SOL    HW171795   6.523   7.492   0.675  1.3210  1.7759 -2.5848
23739SOL    HW271796   6.594   7.604   0.748 -0.1766  0.4734  1.0912
23740SOL     OW71797   2.108   7.640   3.092 -0.0179  0.6090  0.6760
23740SOL    HW171798   2.090   7.731   3.115  1.1540  1.0568 -0.0895
23740SOL    HW271799   2.126   7.642   2.998  1.1576 -0.2261  0.8660
23741SOL     OW71800   9.613   0.007   0.458  0.0248  0.6302 -0.4464
23741SOL    HW171801   9.703  -0.020   0.437  0.2168  0.8087  0.1171
23741SOL    HW271802   9.577   0.035   0.374  0.1301 -0.4576 -0.8791
23742SOL     OW71803   1.419   1.031   4.848  0.5042  0.2044  0.4369
23742SOL    HW171804   1.438   0.962   4.911 -0.3945  0.3949  0.9347
23742SOL    HW271805   1.358   0.991   4.786  1.6411 -0.0863 -0.5394
23743SOL     OW71806   5.558   5.445   1.742 -0.1538 -0.2431  0.9017
23743SOL    HW171807   5.653   5.449   1.739 -0.1190  0.1079  2.1896
23743SOL    HW271808   5.529   5.503   1.671  0.5666 -1.7174 -0.6876
23744SOL     OW71809   4.632   1.188   1.122 -0.1380  0.4393  0.0326
23744SOL    HW171810   4.630   1.170   1.028 -3.7228 -1.0476  0.2098
23744SOL    HW271811   4.543   1.168   1.152  1.1643 -0.3913  3.9760
23745SOL     OW71812   1.523   6.977   5.039  0.2103 -0.2735 -0.7564
23745SOL    HW171813   1.558   6.964   4.951 -0.6968  0.3773 -1.2276
23745SOL    HW271814   1.429   6.990   5.026  0.0882 -0.0153  0.2937
23746SOL     OW71815   8.111   8.573   2.338  0.2284  0.4577 -0.0706
23746SOL    HW171816   8.163   8.638   2.385  0.3032 -0.1468  0.6999
23746SOL    HW271817   8.051   8.538   2.404  0.8322 -0.9319 -0.2233
23747SOL     OW71818   2.622   7.944   5.166 -0.2787 -0.3091  0.2523
23747SOL    HW171819   2.615   7.971   5.257 -2.0964 -0.4688  0.1955
23747SOL    HW271820   2.613   8.025   5.116 -1.3834 -0.4467  0.1931
23748SOL     OW71821   2.710   2.645   0.329  0.1547 -0.0164 -0.3197
23748SOL    HW171822   2.656   2.707   0.280 -0.0247 -0.2173 -0.3816
23748SOL    HW271823   2.798   2.682   0.329 -0.1085  0.6287  0.3125
23749SOL     OW71824   6.078   0.677   4.565 -0.5382 -0.3155  0.1622
23749SOL    HW171825   6.116   0.642   4.645 -0.8648 -0.6531  0.1729
23749SOL    HW271826   5.993   0.713   4.592  0.6564  2.4644  0.5819
23750SOL     OW71827   5.059   1.509   8.601  0.0538 -0.2592  0.1984
23750SOL    HW171828   4.978   1.545   8.638 -0.3868 -0.8373 -0.1920
23750SOL    HW271829   5.070   1.424   8.643 -0.5145 -0.9809 -1.0240
23751SOL     OW71830   1.448   5.039   4.140  0.1188  0.0430 -0.5001
23751SOL    HW171831   1.456   4.954   4.182  0.8099 -0.0026 -0.7203
23751SOL    HW271832   1.370   5.078   4.179 -0.2055 -0.6921 -0.4064
23752SOL     OW71833   7.863   0.644   7.448 -0.0049 -0.0748  0.4512
23752SOL    HW171834   7.944   0.695   7.447  0.6519 -1.1011  0.2911
23752SOL    HW271835   7.851   0.615   7.358  0.0694 -0.8685  0.6867
23753SOL     OW71836   6.462   5.175   9.786 -0.0672 -0.1177 -0.0858
23753SOL    HW171837   6.473   5.193   9.880  1.0560 -0.1161 -0.2017
23753SOL    HW271838   6.537   5.120   9.763 -0.3174 -0.0971 -0.9917
23754SOL     OW71839   0.748   9.691   1.881 -0.5463  0.5555  0.5529
23754SOL    HW171840   0.707   9.717   1.799  0.5465 -1.9925 -0.8997
23754SOL    HW271841   0.688   9.626   1.918 -0.2551  0.5380  1.0000
23755SOL     OW71842   2.799   4.403   9.187  0.8161  0.3652 -0.1007
23755SOL    HW171843   2.815   4.400   9.281  2.2759 -0.6426 -0.3366
23755SOL    HW271844   2.807   4.495   9.164 -1.5506  0.9182  1.0347
23756SOL     OW71845   0.268   6.827   2.623 -0.0762 -0.1606  0.5004
23756SOL    HW171846   0.281   6.915   2.658 -1.0076 -0.3989  1.5052
23756SOL    HW271847   0.350   6.806   2.578  0.3660  0.9894  0.7508
23757SOL     OW71848   7.417   5.074   7.754  0.2084  0.3414 -0.1211
23757SOL    HW171849   7.496   5.105   7.711 -0.8412  0.0932 -2.3598
23757SOL    HW271850   7.361   5.151   7.760  0.5080  0.4688  1.2589
23758SOL     OW71851   6.902   6.686   1.089  0.4218  0.1356  0.1492
23758SOL    HW171852   6.909   6.596   1.121 -1.6934  0.1740  0.8941
23758SOL    HW271853   6.947   6.739   1.155 -0.6296 -0.1558  1.1323
23759SOL     OW71854   4.364   3.378   9.348 -0.4045  0.2326  0.1603
23759SOL    HW171855   4.419   3.369   9.270 -0.1437 -0.1015  0.3779
23759SOL    HW271856   4.391   3.461   9.387  0.2606 -0.1373  0.5045
23760SOL     OW71857   8.762   5.118   3.658 -0.1720 -0.0547 -0.2984
23760SOL    HW171858   8.698   5.047   3.664 -1.6261  1.0566 -1.6447
23760SOL    HW271859   8.840   5.077   3.621 -1.2905 -0.7965 -1.9433
23761SOL     OW71860   7.596   4.980   9.369  0.7136 -0.7912  0.0079
23761SOL    HW171861   7.584   4.910   9.433  0.4777 -0.9870 -0.2452
23761SOL    HW271862   7.511   5.025   9.368  1.4343  0.7044  1.5666
23762SOL     OW71863   0.654   3.485   5.573 -0.1515 -0.0518 -0.1541
23762SOL    HW171864   0.705   3.405   5.576  0.7303  0.5214  0.6963
23762SOL    HW271865   0.581   3.465   5.513  0.8613 -0.9956 -1.1118
23763SOL     OW71866   5.580   1.320   7.785 -0.0944  0.0103 -0.0381
23763SOL    HW171867   5.526   1.388   7.826  0.7032 -1.0070  3.0386
23763SOL    HW271868   5.662   1.365   7.764 -0.4177  0.5107 -0.2538
23764SOL     OW71869   2.381   6.940   4.015 -0.7706 -0.4740 -0.4299
23764SOL    HW171870   2.415   6.932   4.104  0.1345 -0.1523 -0.7360
23764SOL    HW271871   2.457   6.962   3.962 -1.3313 -0.4890 -1.2615
23765SOL     OW71872   0.447   7.954   7.690 -0.1098 -0.0054  0.4090
23765SOL    HW171873   0.459   7.930   7.782  3.7143 -0.5376 -0.0467
23765SOL    HW271874   0.417   7.873   7.648  0.0717 -0.3178  0.8767
23766SOL     OW71875   6.643   6.515   3.403 -0.1281 -0.1785 -0.3980
23766SOL    HW171876   6.569   6.532   3.461  0.6664 -0.4621  0.7200
23766SOL    HW271877   6.622   6.564   3.323 -0.8586  0.8778  0.4125
23767SOL     OW71878   6.968   2.644   4.269 -0.3596 -0.5298 -0.3153
23767SOL    HW171879   6.886   2.661   4.222 -0.7208 -0.4545  0.3331
23767SOL    HW271880   7.022   2.721   4.252 -0.4675 -0.5249 -0.6433
23768SOL     OW71881   9.310   2.227   2.753  0.4317  0.1224 -0.2613
23768SOL    HW171882   9.374   2.210   2.822 -0.7301 -1.9630  0.3839
23768SOL    HW271883   9.310   2.147   2.700 -1.3026  0.2166 -0.4740
23769SOL     OW71884   4.543   2.580   5.685 -0.0506  0.5073  0.8850
23769SOL    HW171885   4.451   2.574   5.709  0.0380 -0.1782  1.0709
23769SOL    HW271886   4.588   2.523   5.747  0.3504 -0.1166  0.0333
23770SOL     OW71887   2.515   9.059   9.424 -0.5630 -0.0727  0.3945
23770SOL    HW171888   2.561   9.139   9.449 -1.0629  0.5190 -0.5172
23770SOL    HW271889   2.580   9.009   9.375 -0.2775 -0.1859  0.8849
23771SOL     OW71890   8.924   7.887   8.889  0.3572 -0.7694 -0.1376
23771SOL    HW171891   8.866   7.824   8.845  0.0527 -0.0014 -0.8604
23771SOL    HW271892   8.917   7.865   8.981 -1.6467 -0.2758 -0.1254
23772SOL     OW71893   9.302   8.403   6.070 -0.5577 -0.3161  0.0792
23772SOL    HW171894   9.234   8.464   6.043 -0.1274  0.8504  1.5209
23772SOL    HW271895   9.299   8.404   6.165  0.3538 -1.5403  0.1424
23773SOL     OW71896   0.271   4.199   8.426 -0.2818  0.3732 -0.6262
23773SOL    HW171897   0.213   4.123   8.419 -1.3725  1.3570 -4.1145
23773SOL    HW271898   0.356   4.166   8.397 -0.7081  0.3734 -1.9458
23774SOL     OW71899   3.811   5.694   4.402  0.4867  0.0508  0.1275
23774SOL    HW171900   3.824   5.611   4.447 -0.1062 -0.0720  0.0762
23774SOL    HW271901   3.854   5.683   4.317 -1.0153 -0.8057 -0.5568
23775SOL     OW71902   4.938   3.947   2.254  0.3108  0.1900 -0.2473
23775SOL    HW171903   5.020   3.986   2.227  0.4512  0.4406  0.4976
23775SOL    HW271904   4.909   3.895   2.179  2.2283 -1.6647  0.1968
23776SOL     OW71905   4.291   9.131   7.596 -0.2087 -0.2643  0.2453
23776SOL    HW171906   4.321   9.042   7.617  1.2306  0.6605  2.4761
23776SOL    HW271907   4.371   9.179   7.576 -1.0076  0.4906 -1.2657
23777SOL     OW71908   2.544   1.178   7.009  0.3797 -0.7161 -0.4879
23777SOL    HW171909   2.463   1.229   7.007  0.7420 -0.1372 -2.3047
23777SOL    HW271910   2.603   1.226   6.951  2.5724 -0.2628  1.9451
23778SOL     OW71911   1.427   9.744   9.159 -0.3177  0.1228  0.1658
23778SOL    HW171912   1.379   9.662   9.175 -0.6167  0.0897 -0.8224
23778SOL    HW271913   1.485   9.723   9.086  1.0193  0.2506  1.1608
23779SOL     OW71914   2.508   9.619   4.507  0.2936  0.3284 -0.1248
23779SOL    HW171915   2.532   9.621   4.600 -0.7814 -2.3462  0.2797
23779SOL    HW271916   2.514   9.711   4.480  0.3135  1.2579  2.6503
23780SOL     OW71917   1.848   0.061   6.118  0.0452  0.3539 -0.1744
23780SOL    HW171918   1.858  -0.034   6.115  1.9547  0.4995  0.5186
23780SOL    HW271919   1.855   0.089   6.027  0.3072 -0.0899 -0.2921
23781SOL     OW71920   6.330   1.610   1.697 -0.2883  0.4000  0.6458
23781SOL    HW171921   6.379   1.613   1.779 -1.0497  0.4717  1.1070
23781SOL    HW271922   6.265   1.680   1.705 -0.7259  0.0527  0.2139
23782SOL     OW71923   9.718   3.679   0.413 -0.0084  0.2148  0.3914
23782SOL    HW171924   9.711   3.707   0.322 -1.6011  0.3355  0.5235
23782SOL    HW271925   9.742   3.758   0.461  2.2877 -0.1380 -0.0577
23783SOL     OW71926   6.276   8.645   3.470  0.0356  0.5011  0.7726
23783SOL    HW171927   6.244   8.735   3.461 -0.0878  0.3212 -0.8324
23783SOL    HW271928   6.199   8.590   3.458  0.5948  0.1157 -1.5433
23784SOL     OW71929   6.092   5.022   5.447  0.3519 -0.0614  0.3371
23784SOL    HW171930   6.086   4.999   5.354 -0.7421  0.5523  0.2393
23784SOL    HW271931   6.063   4.944   5.493 -0.8659  0.2380  0.0961
23785SOL     OW71932   9.107   8.362   9.195  0.3592 -0.4313 -0.2986
23785SOL    HW171933   9.199   8.343   9.174  0.6080  0.3156  0.0870
23785SOL    HW271934   9.096   8.327   9.284  0.1884 -0.7821 -0.4577
23786SOL     OW71935   3.408   4.322   6.250 -0.5748 -0.4543  0.1696
23786SOL    HW171936   3.466   4.296   6.178  1.0750 -2.2192  2.0141
23786SOL    HW271937   3.338   4.256   6.248 -0.1501 -0.9273  0.5783
23787SOL     OW71938   6.517   2.799   0.959 -0.3115  1.0003 -0.3136
23787SOL    HW171939   6.535   2.885   0.997 -1.0684  1.1469 -0.2817
23787SOL    HW271940   6.485   2.818   0.871 -2.4685  0.8714  0.3995
23788SOL     OW71941   5.887   6.820   2.057  0.0015  0.0424  0.0716
23788SOL    HW171942   5.805   6.789   2.095  0.2371  0.1584  0.6870
23788SOL    HW271943   5.862   6.858   1.973 -0.3391 -1.4675 -0.5365
23789SOL     OW71944   2.857   6.279   5.056  0.5829 -0.3326  0.2665
23789SOL    HW171945   2.838   6.247   5.144  0.7740  0.0056  0.4349
23789SOL    HW271946   2.847   6.203   4.999 -1.5868 -0.1147  0.2902
23790SOL     OW71947   0.340   2.529   0.502 -0.6905  0.1415 -0.1193
23790SOL    HW171948   0.280   2.463   0.468 -0.1762 -0.4443  0.0857
23790SOL    HW271949   0.323   2.529   0.596 -0.0438 -0.3770  0.0061
23791SOL     OW71950   9.175   8.419   3.986 -0.1037  0.1407  0.1201
23791SOL    HW171951   9.155   8.329   4.011  0.1025 -0.2617 -1.0880
23791SOL    HW271952   9.229   8.411   3.907  0.4300  1.3145  0.3348
23792SOL     OW71953   5.463   4.685  -0.011  0.2347  0.2083  0.4102
23792SOL    HW171954   5.410   4.720   0.061  0.0382  0.4141  0.1650
23792SOL    HW271955   5.433   4.595  -0.021 -0.1154  0.3425  0.2299
23793SOL     OW71956   4.478   9.621   4.350  0.4902 -0.2578  0.3240
23793SOL    HW171957   4.513   9.626   4.439  1.1520  0.2774  0.0475
23793SOL    HW271958   4.548   9.657   4.295 -0.1869  0.0755 -0.3367
23794SOL     OW71959   2.254   4.926   9.222 -0.0170 -0.2734  0.1407
23794SOL    HW171960   2.245   4.956   9.313  3.4638 -0.5733  0.7076
23794SOL    HW271961   2.248   4.831   9.227  0.3128 -0.2982  0.0669
23795SOL     OW71962   5.214   6.169   6.820 -0.3602  0.4061 -0.2000
23795SOL    HW171963   5.178   6.098   6.766 -0.7528  0.6463 -0.2649
23795SOL    HW271964   5.137   6.219   6.846 -0.1448  0.4540  0.3559
23796SOL     OW71965   8.948   1.797   1.506  0.7709 -0.2884 -0.1161
23796SOL    HW171966   9.024   1.805   1.563  0.6517 -1.6051  0.2537
23796SOL    HW271967   8.919   1.887   1.492  0.6205  0.0777  2.1532
23797SOL     OW71968   9.732   3.100   6.292  0.1316 -0.7818  0.9154
23797SOL    HW171969   9.641   3.073   6.280  0.5652 -1.9851  0.1051
23797SOL    HW271970   9.768   3.036   6.354  0.5356 -0.5607  0.9092
23798SOL     OW71971   7.501   1.591   9.679 -0.1544 -0.3550 -0.0364
23798SOL    HW171972   7.572   1.611   9.740  0.0161  0.6963 -0.5432
23798SOL    HW271973   7.447   1.670   9.679 -0.1887 -0.3513 -1.1723
23799SOL     OW71974   4.253   8.968   9.407 -0.1544 -0.2128  0.2235
23799SOL    HW171975   4.287   8.880   9.388 -0.2654 -0.9092  2.8416
23799SOL    HW271976   4.238   8.968   9.502 -2.0680  1.9891  0.0145
23800SOL     OW71977   6.659   9.332   3.749 -0.0094 -0.1833 -0.0359
23800SOL    HW171978   6.729   9.279   3.711 -1.7442 -3.7052  1.2834
23800SOL    HW271979   6.610   9.365   3.673  1.4299  0.1031 -0.8960
23801SOL     OW71980   8.420   8.564   0.078 -0.4847 -0.4257  0.1627
23801SOL    HW171981   8.479   8.490   0.089 -0.2105 -0.5781 -1.9720
23801SOL    HW271982   8.362   8.538   0.007 -1.0030  1.0184  0.0315
23802SOL     OW71983   4.370   4.895   8.558  0.3665  0.5450  0.1967
23802SOL    HW171984   4.439   4.960   8.542 -1.0126  1.6508 -1.6921
23802SOL    HW271985   4.308   4.940   8.615 -0.0514  0.5036 -0.2215
23803SOL     OW71986   4.424   1.768   9.038  0.0737 -0.2486  0.7720
23803SOL    HW171987   4.414   1.698   8.974  0.4321 -0.3154  0.7854
23803SOL    HW271988   4.517   1.764   9.063  0.0671  0.1535  0.8606
23804SOL     OW71989   4.062   5.955   0.690 -0.0585  0.2830 -0.4548
23804SOL    HW171990   3.996   6.021   0.709 -0.1916 -0.3237  1.3419
23804SOL    HW271991   4.012   5.877   0.667  0.0289 -0.0506  0.4683
23805SOL     OW71992   7.953   0.988   7.547 -0.7220  0.4660  0.0402
23805SOL    HW171993   8.037   0.948   7.524  0.7592  1.7088  2.7872
23805SOL    HW271994   7.891   0.916   7.546  0.9729 -1.0859  0.6742
23806SOL     OW71995   5.687   5.718   1.066 -0.0918 -0.1675  0.3819
23806SOL    HW171996   5.781   5.738   1.069 -0.5537  3.1507 -1.9010
23806SOL    HW271997   5.646   5.788   1.117 -1.4204 -0.1455 -0.6554
23807SOL     OW71998   4.047   2.739   3.814  0.0047  0.3785 -0.1301
23807SOL    HW171999   4.112   2.698   3.872  0.4637  0.3859 -0.6243
23807SOL    HW272000   4.089   2.820   3.787 -0.3401  0.5240 -0.2201
23808SOL     OW72001   7.093   6.707   7.477  0.0343  0.1869  0.2371
23808SOL    HW172002   7.129   6.618   7.476 -0.0319  0.1599  0.2692
23808SOL    HW272003   7.069   6.722   7.569  1.0946  0.6582  0.4573
23809SOL     OW72004   6.832   2.245   1.669  0.0911  0.2366  0.3737
23809SOL    HW172005   6.913   2.204   1.640  0.5272  0.1223  1.6848
23809SOL    HW272006   6.763   2.191   1.629  0.5774  1.5201 -2.4034
23810SOL     OW72007   7.636   8.839   5.585 -0.6930 -0.2519  0.0982
23810SOL    HW172008   7.582   8.853   5.507  0.7220  0.1079 -0.8571
23810SOL    HW272009   7.625   8.746   5.606 -0.5015 -0.5364 -0.9995
23811SOL     OW72010   2.780   3.703   3.451  0.0676  0.0284 -0.0467
23811SOL    HW172011   2.752   3.634   3.391 -0.7081  0.8940 -0.7172
23811SOL    HW272012   2.788   3.659   3.536 -0.9232 -0.7851 -0.3496
23812SOL     OW72013   7.213   4.436   2.042  1.0114  0.5061  0.2137
23812SOL    HW172014   7.308   4.432   2.050  1.0949  1.5420 -0.0969
23812SOL    HW272015   7.194   4.396   1.957  1.2465  0.9566 -0.0585
23813SOL     OW72016   7.412   0.113   3.377 -0.0895 -0.2695 -0.2724
23813SOL    HW172017   7.395   0.178   3.309  0.3376 -0.8254 -0.9250
23813SOL    HW272018   7.327   0.073   3.394 -0.0695 -0.6612 -1.0455
23814SOL     OW72019   7.274   6.465   6.678 -0.1909  0.0465  0.0415
23814SOL    HW172020   7.198   6.486   6.623 -0.1628 -0.7404 -0.3182
23814SOL    HW272021   7.245   6.391   6.731  1.3678 -2.6730 -2.6069
23815SOL     OW72022   4.969   0.115   1.183 -0.0129 -0.5834  0.1386
23815SOL    HW172023   5.034   0.081   1.245 -0.0186  0.3284  0.6678
23815SOL    HW272024   4.900   0.048   1.182  0.4120 -1.0368  0.4197
23816SOL     OW72025   5.904   9.066   8.348 -0.1543 -0.3985 -0.2026
23816SOL    HW172026   5.846   9.011   8.400 -0.4927 -0.6563 -0.8390
23816SOL    HW272027   5.884   9.043   8.257  2.3719 -1.9981 -0.4671
23817SOL     OW72028   4.720   2.425   8.778  0.0606 -0.1433  0.6183
23817SOL    HW172029   4.625   2.428   8.775 -0.0052 -1.8528  0.1315
23817SOL    HW272030   4.744   2.347   8.727  1.6819 -0.0447  1.1641
23818SOL     OW72031   1.341   0.658   1.287 -0.1309 -0.1907 -0.0728
23818SOL    HW172032   1.383   0.649   1.201 -0.7525  0.5125 -0.4630
23818SOL    HW272033   1.261   0.707   1.269 -1.7899 -2.5241  0.4585
23819SOL     OW72034   4.756   1.901   4.296 -0.2885  0.2959 -0.7507
23819SOL    HW172035   4.755   1.805   4.287 -1.3777 -0.0233  1.9083
23819SOL    HW272036   4.847   1.925   4.282  0.4099 -1.4127  0.4485
23820SOL     OW72037   4.955   1.414   0.113  0.1276 -0.7430  0.3964
23820SOL    HW172038   4.877   1.421   0.058 -1.2929 -1.3420  2.2327
23820SOL    HW272039   4.989   1.504   0.118 -1.1033 -0.2596  0.4716
23821SOL     OW72040   9.742   6.685   2.338  0.3013 -0.4862 -0.6466
23821SOL    HW172041   9.768   6.711   2.427 -0.4089 -1.2007 -0.2278
23821SOL    HW272042   9.758   6.591   2.335  0.0361 -0.5139 -1.1771
23822SOL     OW72043   9.484   3.348   0.070 -0.1108  0.1067 -0.2048
23822SOL    HW172044   9.504   3.339  -0.023  0.4822  0.0897 -0.0758
23822SOL    HW272045   9.441   3.433   0.077 -3.4595 -1.3596 -1.0436
23823SOL     OW72046   3.388   9.909   3.848  0.3595  0.5562  0.4194
23823SOL    HW172047   3.391   9.986   3.904  0.6491  0.2522  0.8354
23823SOL    HW272048   3.408   9.836   3.907  1.1669  0.2776 -0.1725
23824SOL     OW72049   7.919   4.549   3.477 -0.3583  0.2428 -0.0648
23824SOL    HW172050   7.873   4.467   3.463  1.0482 -0.5786 -0.0885
23824SOL    HW272051   7.865   4.615   3.434 -2.9815 -0.1765  2.3049
23825SOL     OW72052   8.127   9.746   3.626  0.3027 -0.2253  0.0196
23825SOL    HW172053   8.078   9.734   3.545  0.1845  0.4047 -0.0127
23825SOL    HW272054   8.198   9.805   3.602  1.0458 -1.0747  0.0809
23826SOL     OW72055   2.220   2.970   1.680 -0.7750  0.1256  0.0529
23826SOL    HW172056   2.316   2.970   1.687 -0.7541  1.0091 -0.2155
23826SOL    HW272057   2.195   3.062   1.686 -1.4409  0.1270 -2.0083
23827SOL     OW72058   0.384   3.917   8.001 -0.4117  0.2030  0.3059
23827SOL    HW172059   0.294   3.949   7.991 -0.6468  0.4653  2.5921
23827SOL    HW272060   0.383   3.830   7.962 -1.8439 -0.0476  0.8218
23828SOL     OW72061   0.050   5.565   4.477  0.6566 -0.1608  0.1906
23828SOL    HW172062  -0.024   5.507   4.463  0.4207 -0.2795  1.8254
23828SOL    HW272063   0.011   5.649   4.502  1.0667 -0.3639  1.5687
23829SOL     OW72064   0.316   3.474   3.912 -0.3552  0.1887  0.0475
23829SOL    HW172065   0.342   3.521   3.832 -0.4858  2.4353  1.2397
23829SOL    HW272066   0.228   3.505   3.930  0.2462  0.9801  1.8989
23830SOL     OW72067   4.329   6.531   3.215  0.3261 -0.4674  0.2704
23830SOL    HW172068   4.397   6.490   3.268 -1.4044 -2.4161  1.0997
23830SOL    HW272069   4.290   6.598   3.272  0.9365  0.0549  0.0900
23831SOL     OW72070   0.764   1.073   9.120  0.1827 -0.2115 -0.2529
23831SOL    HW172071   0.669   1.067   9.131 -0.0391  0.0495 -1.8854
23831SOL    HW272072   0.796   0.986   9.145 -0.5571 -0.5229 -0.3448
23832SOL     OW72073   3.691   7.798   7.883 -0.2367  0.3491 -0.5096
23832SOL    HW172074   3.756   7.741   7.842  0.4118  1.2127 -0.7183
23832SOL    HW272075   3.681   7.763   7.972  0.2164 -0.0382 -0.6091
23833SOL     OW72076   2.387   4.888   8.012  0.1747 -0.1291  0.0388
23833SOL    HW172077   2.452   4.852   8.073  0.4183 -0.2484 -0.2838
23833SOL    HW272078   2.322   4.930   8.068  0.2580 -0.4627  0.3925
23834SOL     OW72079   2.214   4.310   6.755 -0.3334 -0.4421 -0.3340
23834SOL    HW172080   2.199   4.350   6.840  1.0027  2.0718 -1.2014
23834SOL    HW272081   2.170   4.368   6.693  1.2654 -0.5240 -1.6026
23835SOL     OW72082   9.931   2.095   1.117 -0.2552 -0.4227 -0.2016
23835SOL    HW172083  10.010   2.092   1.063 -0.6560  1.4206 -0.9760
23835SOL    HW272084   9.891   2.179   1.095 -0.6741  0.2236  2.6603
23836SOL     OW72085   5.251   8.217   5.708  0.0381  0.4618 -0.3038
23836SOL    HW172086   5.340   8.233   5.675  0.6823  0.3118  1.2527
23836SOL    HW272087   5.233   8.126   5.685  0.7439  0.1545  0.3073
23837SOL     OW72088   5.418   3.317   8.371  0.5590 -0.2101 -0.0503
23837SOL    HW172089   5.431   3.402   8.412  1.3851 -0.9317  1.2306
23837SOL    HW272090   5.486   3.312   8.304  1.0274 -0.1896  0.4201
23838SOL     OW72091   6.253   7.663   5.029  0.0517  0.0293  0.1421
23838SOL    HW172092   6.266   7.692   4.938  0.4681 -0.9209 -0.1225
23838SOL    HW272093   6.332   7.613   5.049  1.3322  2.5553  2.0292
23839SOL     OW72094   5.790   9.135   2.917 -0.2094  0.1216 -0.1576
23839SOL    HW172095   5.845   9.068   2.957 -0.5563  1.0730  2.0681
23839SOL    HW272096   5.851   9.190   2.868 -0.0289 -2.2373 -2.8159
23840SOL     OW72097   5.506   4.848   1.800  0.0313 -0.1477  0.0522
23840SOL    HW172098   5.437   4.791   1.834 -0.7358  0.1580 -0.9178
23840SOL    HW272099   5.496   4.929   1.850 -0.4600 -0.0365 -0.2107
23841SOL     OW72100   0.949   4.595   4.939  0.1877  0.7213  0.1214
23841SOL    HW172101   0.977   4.678   4.978 -1.0200  1.4615 -0.5195
23841SOL    HW272102   0.972   4.529   5.004  1.8507  1.4577  0.3338
23842SOL     OW72103   3.302   4.213   2.227  0.0783 -0.3756  0.7317
23842SOL    HW172104   3.214   4.250   2.217  0.4267  0.8264  1.8024
23842SOL    HW272105   3.328   4.237   2.316  2.4775  1.5438 -0.3675
23843SOL     OW72106   0.739   2.720   3.658  0.1101  0.0337  0.5371
23843SOL    HW172107   0.830   2.698   3.643 -0.6142 -2.1287 -1.0564
23843SOL    HW272108   0.705   2.746   3.572 -1.2826 -1.3328  0.6240
23844SOL     OW72109   6.660   9.606   5.504  0.5923 -0.3932  0.8712
23844SOL    HW172110   6.703   9.645   5.580 -1.2181 -0.4793  2.0016
23844SOL    HW272111   6.731   9.590   5.441  1.6393  3.5815  0.7776
23845SOL     OW72112   5.330   8.995   1.136  0.1151 -0.4202 -0.2789
23845SOL    HW172113   5.401   9.035   1.185 -1.2052  1.2593  0.3647
23845SOL    HW272114   5.260   9.060   1.137 -0.7579 -1.1932 -2.5611
23846SOL     OW72115   4.273   7.933   9.220 -0.1457 -0.1984  0.4164
23846SOL    HW172116   4.258   7.873   9.293  0.6429  1.3793  1.9135
23846SOL    HW272117   4.337   7.888   9.165 -0.8714 -1.4707  0.5557
23847SOL     OW72118   3.366   1.957   3.489 -0.1103  0.1574 -0.4499
23847SOL    HW172119   3.375   2.048   3.459  0.6796  0.0823 -0.4754
23847SOL    HW272120   3.293   1.959   3.551 -0.1701  0.7882 -0.5328
23848SOL     OW72121   4.817   9.496   0.510  0.2835 -0.0288  0.2681
23848SOL    HW172122   4.876   9.437   0.463  0.0421 -0.3543  0.3656
23848SOL    HW272123   4.759   9.530   0.443  0.7915  0.5499  0.1200
23849SOL     OW72124   2.173   5.174   5.509  0.4254  0.1303 -0.3682
23849SOL    HW172125   2.138   5.103   5.456 -0.2710  0.9254 -1.0015
23849SOL    HW272126   2.268   5.164   5.502  0.3346 -0.7591 -0.4072
23850SOL     OW72127   9.123   7.275   9.852 -0.1218  0.5744 -0.2915
23850SOL    HW172128   9.064   7.346   9.877 -3.2401 -1.6359 -0.6654
23850SOL    HW272129   9.176   7.311   9.782 -1.6407  2.5306 -0.5312
23851SOL     OW72130   4.554   0.052   4.294 -0.5037 -0.1447  0.0388
23851SOL    HW172131   4.522   0.142   4.301  0.3192  0.0506  1.6457
23851SOL    HW272132   4.631   0.059   4.238 -0.1737  0.2261  0.5364
23852SOL     OW72133   9.373   7.958   4.082 -0.3345 -0.7952 -0.0292
23852SOL    HW172134   9.413   7.994   4.003 -0.2960  0.6113  0.6136
23852SOL    HW272135   9.387   7.863   4.075  1.1865 -0.5329 -0.8743
23853SOL     OW72136   1.582   9.061   0.249  0.1244  0.3908  0.7596
23853SOL    HW172137   1.589   9.083   0.342  0.8977  0.8680  0.5875
23853SOL    HW272138   1.660   9.009   0.230  1.1714  2.2009 -0.1500
23854SOL     OW72139   2.927   6.388   7.093 -0.1308 -0.1795 -0.1194
23854SOL    HW172140   3.011   6.409   7.133  0.1806  0.0352 -0.8661
23854SOL    HW272141   2.894   6.315   7.145  2.5161 -3.2301 -2.2950
23855SOL     OW72142   0.821   1.972   1.026  0.4594  1.0741 -0.0459
23855SOL    HW172143   0.791   2.055   0.988 -0.4427  0.8721  0.2025
23855SOL    HW272144   0.742   1.933   1.063  0.9467  0.2743  0.1671
23856SOL     OW72145   3.056   6.249   0.748  0.2444 -0.0702  0.1437
23856SOL    HW172146   3.104   6.310   0.692 -0.5203  0.6287  0.2233
23856SOL    HW272147   2.987   6.303   0.788  0.8097 -0.5381  1.8112
23857SOL     OW72148   9.189   9.236   2.734  0.3759  0.4070 -0.1141
23857SOL    HW172149   9.192   9.141   2.734  2.1304  0.4035 -1.1251
23857SOL    HW272150   9.107   9.259   2.778 -0.3268 -1.5625 -0.3340
23858SOL     OW72151   0.606   8.245   6.059 -0.1806 -0.1894  0.2702
23858SOL    HW172152   0.641   8.322   6.105 -2.4523  0.0706  1.7755
23858SOL    HW272153   0.540   8.210   6.119 -0.2925 -2.4330 -1.0546
23859SOL     OW72154   1.945   4.069   8.513  0.5316 -0.1340  0.2583
23859SOL    HW172155   1.905   4.120   8.442 -2.3230 -0.7570  1.2884
23859SOL    HW272156   1.981   3.992   8.469 -0.3634 -0.0771 -0.6162
23860SOL     OW72157   3.029   2.471   4.400  0.3188  0.4576  0.3630
23860SOL    HW172158   2.954   2.416   4.380 -0.0590  0.6936  1.1227
23860SOL    HW272159   3.021   2.545   4.340  1.5029 -0.8558 -1.5578
23861SOL     OW72160   4.385   1.488   7.142  0.0831 -0.2739  0.0774
23861SOL    HW172161   4.365   1.573   7.179 -1.0125 -0.4469 -0.0813
23861SOL    HW272162   4.470   1.464   7.180 -1.1566 -0.6286  2.8352
23862SOL     OW72163   3.255   9.861   7.725 -0.4365 -0.1993 -0.4641
23862SOL    HW172164   3.164   9.869   7.696 -0.3687 -1.9166 -1.2575
23862SOL    HW272165   3.277   9.769   7.709  0.2459 -0.8188  3.2805
23863SOL     OW72166   3.854   5.458   2.604  0.3362  0.0529 -0.3793
23863SOL    HW172167   3.830   5.437   2.695  2.1474  4.0792  1.2590
23863SOL    HW272168   3.949   5.473   2.607  0.9622 -2.1056 -3.6311
23864SOL     OW72169   8.094   9.570   2.071  1.0031  0.8721 -0.0419
23864SOL    HW172170   8.132   9.522   1.998  1.7573  1.6991 -0.2022
23864SOL    HW272171   8.106   9.513   2.147 -0.0600 -0.1292 -0.5912
23865SOL     OW72172   0.125   6.894   8.854 -0.1454 -0.3436  0.0980
23865SOL    HW172173   0.044   6.921   8.809 -0.2922 -0.4302  0.3072
23865SOL    HW272174   0.164   6.976   8.883  0.6935 -0.1641 -1.4250
23866SOL     OW72175   9.525   7.190   5.216  0.0509  0.0177  0.2316
23866SOL    HW172176   9.562   7.124   5.157  2.2966  0.2761  1.2534
23866SOL    HW272177   9.494   7.139   5.292  0.7787  0.0117  0.5349
23867SOL     OW72178   7.551   8.081   8.011  0.6799 -0.4613 -0.0911
23867SOL    HW172179   7.492   8.055   8.082 -1.2637  0.4961 -1.2634
23867SOL    HW272180   7.577   7.998   7.971 -0.0894 -0.9137  0.3169
23868SOL     OW72181   2.207   3.474   4.552 -0.1196  0.0890 -0.3455
23868SOL    HW172182   2.194   3.565   4.579  0.6658 -0.1065  0.8071
23868SOL    HW272183   2.301   3.469   4.532  0.0403 -0.6759  0.5254
23869SOL     OW72184   9.828   1.314   3.311 -0.2204  0.2498  0.4241
23869SOL    HW172185   9.822   1.358   3.396 -0.3796 -1.7047  1.4697
23869SOL    HW272186   9.912   1.267   3.314 -1.0076 -1.2280  0.2272
23870SOL     OW72187   3.171   2.134   3.036 -0.2437  0.2136 -0.6440
23870SOL    HW172188   3.215   2.219   3.041 -0.4392  0.3498 -1.1621
23870SOL    HW272189   3.079   2.154   3.053  0.1724 -0.4057  3.0393
23871SOL     OW72190   2.297   9.011   6.260  0.3345 -0.7967  0.4580
23871SOL    HW172191   2.281   8.919   6.239  0.0669 -0.4583 -0.9658
23871SOL    HW272192   2.265   9.022   6.350  0.2171 -2.0507  0.5758
23872SOL     OW72193   0.298   4.233   4.157 -0.0764 -0.1408 -0.4379
23872SOL    HW172194   0.205   4.219   4.174 -0.3526  0.7100 -1.1372
23872SOL    HW272195   0.333   4.146   4.137 -0.7526 -0.4429 -0.3260
23873SOL     OW72196   7.895   6.521   8.389 -0.3247 -0.0659  0.2134
23873SOL    HW172197   7.916   6.442   8.439 -2.1611 -0.7209  0.0406
23873SOL    HW272198   7.862   6.487   8.305  0.6634  0.9558 -0.6168
23874SOL     OW72199   2.596   7.070   0.352  0.0947 -0.3758  0.1252
23874SOL    HW172200   2.525   7.113   0.304 -0.0358 -1.7318 -0.9806
23874SOL    HW272201   2.676   7.110   0.318 -0.0944  1.6397  1.8606
23875SOL     OW72202   6.033   7.477   9.179  0.2969  0.8939  0.3023
23875SOL    HW172203   6.008   7.566   9.156 -0.6353  0.5166 -0.2087
23875SOL    HW272204   6.120   7.465   9.141 -0.6490  0.7264 -1.9539
23876SOL     OW72205   6.907   8.389   0.941  0.0920  0.3444 -0.2255
23876SOL    HW172206   6.885   8.353   0.855  2.0553 -1.2896 -0.1204
23876SOL    HW272207   6.829   8.371   0.995 -0.3274 -0.5828 -1.1121
23877SOL     OW72208   9.917   7.626   1.918  0.3147 -0.0215  0.3330
23877SOL    HW172209   9.904   7.532   1.928  2.0937 -0.2313  0.9906
23877SOL    HW272210   9.829   7.660   1.898 -0.4049 -1.7642  0.3162
23878SOL     OW72211   0.734   7.875   0.714 -0.1346  0.2971  0.3481
23878SOL    HW172212   0.652   7.896   0.670 -0.9890 -1.2041  1.1429
23878SOL    HW272213   0.802   7.916   0.660 -1.3782  1.4519 -0.3972
23879SOL     OW72214   5.664   5.717   2.096  0.0921 -0.5391 -0.1926
23879SOL    HW172215   5.618   5.634   2.107  0.4619 -0.5694  1.4115
23879SOL    HW272216   5.661   5.734   2.002 -2.0830 -1.1488 -0.2886
23880SOL     OW72217   5.039   1.612   5.978 -0.1281  1.2408  0.1187
23880SOL    HW172218   5.015   1.570   5.895  2.3306  1.1687 -0.6391
23880SOL    HW272219   5.034   1.706   5.959 -1.6999  1.2943  0.6102
23881SOL     OW72220   9.548   7.110   2.134  0.5136 -0.4228 -0.1901
23881SOL    HW172221   9.545   7.040   2.070 -1.0384 -1.4857  0.9794
23881SOL    HW272222   9.525   7.189   2.085  2.6525 -0.5763 -1.5991
23882SOL     OW72223   1.368   4.307   5.411 -0.5392  0.1203  0.4569
23882SOL    HW172224   1.427   4.248   5.459 -2.2829 -1.2058  1.1051
23882SOL    HW272225   1.330   4.252   5.342 -1.8060  0.6139  0.7321
23883SOL     OW72226   5.459   9.706   9.780  0.0834 -0.1140 -0.4137
23883SOL    HW172227   5.452   9.611   9.792 -0.4621  0.1329  1.6320
23883SOL    HW272228   5.402   9.726   9.707 -1.1050 -1.1839  0.1884
23884SOL     OW72229   4.252   1.797   5.399  0.1450 -0.1943  0.1126
23884SOL    HW172230   4.234   1.756   5.315  2.3055 -0.5283 -0.2319
23884SOL    HW272231   4.347   1.809   5.401  0.6417 -2.9001  3.6776
23885SOL     OW72232   4.525   7.549   6.601 -0.7093 -0.1257 -0.0050
23885SOL    HW172233   4.484   7.475   6.556  0.4005 -0.1157 -1.1197
23885SOL    HW272234   4.593   7.509   6.655 -0.2659  0.0366 -0.4284
23886SOL     OW72235   5.172   6.240   9.476 -0.8540  0.1618  0.6060
23886SOL    HW172236   5.125   6.324   9.468 -1.0313 -0.0995 -2.1972
23886SOL    HW272237   5.126   6.182   9.416 -0.5009 -1.8999  2.2308
23887SOL     OW72238   2.880   6.276   6.106  0.2570 -0.9809  0.1259
23887SOL    HW172239   2.975   6.283   6.119  0.4273 -0.4575 -1.2686
23887SOL    HW272240   2.866   6.306   6.017 -1.1140 -1.9954 -0.0242
23888SOL     OW72241   7.511   0.122   9.710 -0.3512 -0.4205  0.1172
23888SOL    HW172242   7.474   0.167   9.634  0.4143  1.9918  1.0478
23888SOL    HW272243   7.495   0.029   9.694 -1.2854  0.0902 -2.3803
23889SOL     OW72244   3.864   2.670   7.166 -0.2401  0.1748 -0.0899
23889SOL    HW172245   3.883   2.578   7.185 -2.7453 -0.7572 -1.6204
23889SOL    HW272246   3.863   2.712   7.252 -1.3586 -1.7531  0.9098
23890SOL     OW72247   7.919   4.102   3.288  0.4609 -0.1090 -0.1324
23890SOL    HW172248   7.879   4.031   3.237 -0.4059  0.4424 -0.2443
23890SOL    HW272249   7.972   4.150   3.225  1.3879 -0.8777  0.0284
23891SOL     OW72250   8.801   4.624   0.523  0.2603  0.3977  0.4534
23891SOL    HW172251   8.866   4.693   0.526  1.7314 -0.9526  1.2140
23891SOL    HW272252   8.806   4.589   0.434  2.1857 -1.0987  1.0763
23892SOL     OW72253   6.269   2.306   8.541 -1.0428  0.2252  0.2137
23892SOL    HW172254   6.213   2.369   8.586  0.2131  2.1760 -0.8075
23892SOL    HW272255   6.299   2.247   8.610 -2.4153  0.6213  1.1765
23893SOL     OW72256   6.633   2.735   9.253 -0.5938  0.6155  0.2525
23893SOL    HW172257   6.681   2.658   9.224  0.1244  1.1759 -0.0674
23893SOL    HW272258   6.696   2.806   9.248 -1.3653  1.3087  0.1426
23894SOL     OW72259   9.276   2.215   1.957 -0.2437 -0.7603  0.2434
23894SOL    HW172260   9.323   2.151   1.903  1.4293  0.5970  0.0060
23894SOL    HW272261   9.341   2.283   1.975 -2.1591  1.2627 -0.1419
23895SOL     OW72262   8.213   3.889   7.593  0.4651  0.4997 -0.5308
23895SOL    HW172263   8.250   3.974   7.618 -0.2449  0.1025  2.1169
23895SOL    HW272264   8.243   3.829   7.660 -2.2131 -0.5307 -0.1405
23896SOL     OW72265   3.894   1.279   9.704  1.0359 -0.0511 -0.1809
23896SOL    HW172266   3.835   1.211   9.736  1.2424  0.0508  0.4225
23896SOL    HW272267   3.861   1.300   9.617 -0.8919  1.2264  0.7848
23897SOL     OW72268   7.263   4.278   0.669 -0.0227 -0.3547  0.5003
23897SOL    HW172269   7.320   4.220   0.619  0.3306  0.3378  0.0843
23897SOL    HW272270   7.322   4.327   0.726  0.0500  1.6015 -1.1466
23898SOL     OW72271   8.371   4.222   0.904  0.3402 -0.4025 -0.1878
23898SOL    HW172272   8.447   4.251   0.953 -0.4619  0.0718  0.8216
23898SOL    HW272273   8.326   4.303   0.880 -1.2318 -0.6784  1.5404
23899SOL     OW72274   8.791   3.454   1.493 -0.2364 -0.1494  0.0932
23899SOL    HW172275   8.703   3.485   1.473  0.3747  0.4751 -1.8830
23899SOL    HW272276   8.801   3.375   1.440 -0.3288 -1.4731  1.9597
23900SOL     OW72277   1.302   7.859   6.885  0.3180 -0.2504  0.0855
23900SOL    HW172278   1.364   7.872   6.956 -0.6981  1.4180  0.7266
23900SOL    HW272279   1.218   7.846   6.929 -0.8505  3.4788 -0.6948
23901SOL     OW72280   5.957   0.225   7.893  0.5107  0.6291 -0.1767
23901SOL    HW172281   5.918   0.300   7.937  2.0438  0.8704  0.8212
23901SOL    HW272282   6.031   0.261   7.844  1.6027 -0.2811  0.7521
23902SOL     OW72283   4.491   2.676   8.336 -0.4826  0.2000 -0.2250
23902SOL    HW172284   4.427   2.743   8.357 -2.7580 -1.8872 -0.0650
23902SOL    HW272285   4.519   2.697   8.247 -0.0535  2.0923  0.3000
23903SOL     OW72286   5.459   9.944   5.844  0.0296  0.1895  0.0835
23903SOL    HW172287   5.480  10.037   5.837 -0.5838  0.4894  1.7425
23903SOL    HW272288   5.363   9.942   5.848  0.0772 -0.3630  1.5343
23904SOL     OW72289   6.134   0.580   3.900 -1.0908  0.6707  0.0663
23904SOL    HW172290   6.216   0.609   3.941 -1.0991  1.0137 -0.1594
23904SOL    HW272291   6.163   0.535   3.820 -1.0149 -0.8042  0.8798
23905SOL     OW72292   3.716   5.707   8.909 -0.4091 -0.0539 -0.5183
23905SOL    HW172293   3.685   5.770   8.845 -0.3981  0.8393  0.3289
23905SOL    HW272294   3.691   5.622   8.873 -0.6191  0.4384 -1.5748
23906SOL     OW72295   7.985   3.733   0.273 -0.3059  0.8891  0.2519
23906SOL    HW172296   7.938   3.807   0.235 -1.0135  1.6954  2.5069
23906SOL    HW272297   7.938   3.714   0.354  0.1867 -1.7245  0.0183
23907SOL     OW72298   5.912   1.504   5.940 -0.0936 -0.3806  0.1897
23907SOL    HW172299   5.873   1.571   5.996 -0.5248  1.0381 -1.7290
23907SOL    HW272300   6.006   1.521   5.944 -0.2398  0.8564 -0.8285
23908SOL     OW72301   4.117   1.878   8.124 -0.3874  0.7109  0.0310
23908SOL    HW172302   4.191   1.918   8.078 -1.3328  2.2009 -0.2609
23908SOL    HW272303   4.070   1.952   8.162 -0.1516 -0.4103  2.6968
23909SOL     OW72304   6.718   6.453   9.468 -0.1257 -0.5413  0.1714
23909SOL    HW172305   6.782   6.385   9.449 -1.8560 -2.3476  0.4802
23909SOL    HW272306   6.660   6.453   9.392 -1.5281 -1.1067  1.2119
23910SOL     OW72307   5.208   7.861   0.392 -0.3591  0.2687 -0.9302
23910SOL    HW172308   5.150   7.867   0.316 -0.5451  1.9730 -0.7014
23910SOL    HW272309   5.164   7.800   0.451 -0.8681 -0.0721 -1.6542
23911SOL     OW72310   3.023   9.316   3.635  0.4971  0.8705 -0.5038
23911SOL    HW172311   2.946   9.374   3.631  0.0662  0.3688  0.3503
23911SOL    HW272312   2.996   9.244   3.692  0.3801 -1.1318 -2.9282
23912SOL     OW72313   2.509   9.791   9.101 -0.1107 -0.1328 -0.2043
23912SOL    HW172314   2.423   9.808   9.062 -0.9122 -0.9383  1.1525
23912SOL    HW272315   2.568   9.786   9.026 -1.1006  1.1595 -1.1171
23913SOL     OW72316   9.453   9.133   1.656  0.4967 -0.3298 -0.0163
23913SOL    HW172317   9.403   9.077   1.716  0.2358  1.0757  1.1304
23913SOL    HW272318   9.387   9.193   1.620  1.2532  1.4137  1.3499
23914SOL     OW72319   5.946   7.114   9.436 -0.4769 -0.0576 -0.2505
23914SOL    HW172320   5.952   7.163   9.518 -0.4215 -1.3164  0.5104
23914SOL    HW272321   5.852   7.112   9.416 -0.5064  0.0759 -0.1261
23915SOL     OW72322   5.515   0.532   0.829 -0.3614 -0.5055  0.4591
23915SOL    HW172323   5.545   0.578   0.750 -1.9034 -0.9217 -0.4069
23915SOL    HW272324   5.428   0.568   0.847 -1.8395 -3.2747 -0.5135
23916SOL     OW72325   8.137   6.704   5.368  0.2754 -0.3529  0.0698
23916SOL    HW172326   8.128   6.647   5.445 -1.0220  0.6973  0.7430
23916SOL    HW272327   8.083   6.661   5.301 -1.5799  0.5369  0.8967
23917SOL     OW72328   3.871   2.280   7.749  0.1486 -0.0459 -0.5990
23917SOL    HW172329   3.796   2.265   7.690 -1.2815  0.7831  0.9146
23917SOL    HW272330   3.857   2.220   7.821 -0.1568  1.4378  0.6318
23918SOL     OW72331   1.723   5.700   9.840  0.2690 -0.5524  0.2375
23918SOL    HW172332   1.744   5.616   9.799  1.3805 -0.7745  1.1999
23918SOL    HW272333   1.650   5.680   9.899 -0.7816 -0.4018 -0.9757
23919SOL     OW72334   6.046   7.128   1.382  0.2843 -0.0287  0.3247
23919SOL    HW172335   6.113   7.148   1.316 -0.3052  1.4054  0.1093
23919SOL    HW272336   5.975   7.086   1.333 -0.8653  2.4806 -0.3812
23920SOL     OW72337   8.329   8.016   0.735 -0.8442 -0.1916  0.4821
23920SOL    HW172338   8.296   7.927   0.746  0.7117 -1.1527 -1.9772
23920SOL    HW272339   8.301   8.061   0.815 -1.7889 -2.8096  1.7518
23921SOL     OW72340   2.528   5.402   5.037 -0.3648  0.4130 -0.2277
23921SOL    HW172341   2.612   5.447   5.047  0.3177 -1.3673  3.8026
23921SOL    HW272342   2.463   5.472   5.043  0.7507  1.4086  0.8642
23922SOL     OW72343   0.247   5.570   9.478 -0.2693  0.0534  0.2878
23922SOL    HW172344   0.247   5.526   9.564  1.1156  0.0660  0.3205
23922SOL    HW272345   0.255   5.663   9.499  0.6319  0.0157  0.1467
23923SOL     OW72346   6.730   6.433   0.469  0.8280  0.0618 -0.4218
23923SOL    HW172347   6.681   6.397   0.394  2.3865 -1.4872 -0.7729
23923SOL    HW272348   6.687   6.395   0.546  0.4708  0.0216 -0.6363
23924SOL     OW72349   1.384   9.584   1.135 -0.3233 -0.1435  0.3127
23924SOL    HW172350   1.465   9.577   1.186  0.1046 -0.1120 -0.3459
23924SOL    HW272351   1.343   9.498   1.144  1.2592 -1.1827 -1.7305
23925SOL     OW72352   9.947   1.560   8.349 -0.3567  0.1318  0.0833
23925SOL    HW172353   9.963   1.513   8.267 -1.4750  1.4805 -0.9765
23925SOL    HW272354   9.854   1.583   8.345 -0.1192  1.3983  1.0790
23926SOL     OW72355   2.790   5.323   0.149  0.4872  0.1927  0.0298
23926SOL    HW172356   2.833   5.256   0.096 -0.8917 -1.4675  0.9403
23926SOL    HW272357   2.791   5.288   0.238 -0.6182  1.1964  0.4650
23927SOL     OW72358   4.424   8.083   0.315  0.0262 -0.1839 -0.4417
23927SOL    HW172359   4.411   8.102   0.222 -1.3243  1.0514 -0.0267
23927SOL    HW272360   4.511   8.118   0.335  0.7341 -1.3056 -1.4300
23928SOL     OW72361   6.597   2.425   4.809  0.4904  0.3767 -0.3031
23928SOL    HW172362   6.676   2.480   4.807  0.8762 -0.1601 -3.1025
23928SOL    HW272363   6.629   2.336   4.794 -0.5285 -0.0432 -0.0688
23929SOL     OW72364   1.326   6.924   8.061  0.7447 -0.5603 -0.1133
23929SOL    HW172365   1.391   6.934   8.130  2.1092  0.2631 -1.4676
23929SOL    HW272366   1.242   6.940   8.105  1.3802 -2.0596  1.7428
23930SOL     OW72367   9.031   3.057   5.676  0.1049 -0.5540 -0.0915
23930SOL    HW172368   8.989   3.105   5.604 -0.2774  0.1616  0.5907
23930SOL    HW272369   9.123   3.082   5.672  0.0975 -0.5687 -0.3708
23931SOL     OW72370   8.132   5.496   2.372 -0.2635  0.3084  0.2237
23931SOL    HW172371   8.194   5.539   2.312 -0.6536 -2.7002 -2.6209
23931SOL    HW272372   8.046   5.514   2.334 -0.9548  1.6108  2.2312
23932SOL     OW72373   0.888   8.844   0.459  0.3852 -0.5799 -0.0152
23932SOL    HW172374   0.881   8.924   0.407  1.5951 -0.5406 -0.1542
23932SOL    HW272375   0.817   8.788   0.428 -1.4598  1.0021  1.1454
23933SOL     OW72376   8.700   2.448   4.685 -0.3096 -0.6662 -0.2600
23933SOL    HW172377   8.717   2.537   4.715  3.5133 -0.5075 -2.3482
23933SOL    HW272378   8.725   2.393   4.758  1.7432 -0.0831 -0.4657
23934SOL     OW72379   6.056   1.226   4.594  0.3650 -0.2983 -0.1821
23934SOL    HW172380   6.097   1.142   4.573  0.1151 -0.3448 -0.5020
23934SOL    HW272381   6.033   1.220   4.686  1.2239 -0.2090  0.0421
23935SOL     OW72382   8.906   1.182   9.793 -0.3645  0.5266  0.6292
23935SOL    HW172383   8.998   1.182   9.817 -0.6410 -0.6869  1.8112
23935SOL    HW272384   8.876   1.272   9.810  0.7380  1.1187 -0.4469
23936SOL     OW72385   5.249   2.560   4.665 -0.2674  0.3325  0.1322
23936SOL    HW172386   5.237   2.469   4.637 -0.1825 -0.0153  1.2019
23936SOL    HW272387   5.254   2.610   4.583  2.4936 -0.9587 -0.5774
23937SOL     OW72388   7.049   9.331   8.414  0.4896 -0.4586 -0.5536
23937SOL    HW172389   6.977   9.275   8.384  1.0975 -1.9978  0.7401
23937SOL    HW272390   7.005   9.407   8.453 -0.3577 -0.1514 -2.0188
23938SOL     OW72391   6.171   5.512   2.521 -0.5188 -0.1290 -0.0561
23938SOL    HW172392   6.163   5.484   2.430 -0.1459  0.1455 -0.1760
23938SOL    HW272393   6.084   5.498   2.558 -0.9302  0.6571 -0.7057
23939SOL     OW72394   3.429   3.294   0.033  0.4562 -0.2820 -0.5071
23939SOL    HW172395   3.464   3.302  -0.056 -3.4927 -0.8900 -2.3073
23939SOL    HW272396   3.438   3.201   0.053 -0.1330 -0.4384 -0.9591
23940SOL     OW72397   5.630   5.767   5.097  0.4476 -0.9737  0.4541
23940SOL    HW172398   5.689   5.716   5.153 -0.1771 -1.9478  0.2565
23940SOL    HW272399   5.581   5.701   5.048 -0.0175 -0.1601 -0.2038
23941SOL     OW72400   3.709   3.775   7.040  0.3317  0.1427 -0.6988
23941SOL    HW172401   3.776   3.752   6.976 -0.4351 -0.8150 -1.1851
23941SOL    HW272402   3.663   3.849   7.002  0.8783  0.5815 -0.5213
23942SOL     OW72403   9.485   1.300   4.479  0.5138 -0.3159 -0.7590
23942SOL    HW172404   9.409   1.242   4.475  0.6393 -0.5326  0.0093
23942SOL    HW272405   9.552   1.250   4.525 -0.4276  1.5516  3.0295
23943SOL     OW72406   4.828   5.904   2.411 -0.3967 -0.5509 -0.4977
23943SOL    HW172407   4.827   5.947   2.325  0.3248 -0.2504 -0.3589
23943SOL    HW272408   4.826   5.811   2.391  1.7619 -0.5584 -0.9265
23944SOL     OW72409   5.743   6.792   7.804  0.3972 -0.3448 -0.2612
23944SOL    HW172410   5.651   6.767   7.794  0.4284  0.0063 -1.6817
23944SOL    HW272411   5.791   6.714   7.775  0.4937  0.7718 -3.5572
23945SOL     OW72412   5.383   8.044   9.877  0.5271  0.5359  0.1565
23945SOL    HW172413   5.413   8.045   9.968 -1.0011 -0.8668  0.7327
23945SOL    HW272414   5.331   8.124   9.868 -1.2890 -0.4317  1.3087
23946SOL     OW72415   3.717   0.413   5.336 -0.4470 -0.3105 -0.6043
23946SOL    HW172416   3.739   0.341   5.276 -1.1777 -3.2399  2.3695
23946SOL    HW272417   3.764   0.393   5.416 -1.6032  1.9486  0.7438
23947SOL     OW72418   7.273   7.683   0.884  0.3983  0.8698  0.1165
23947SOL    HW172419   7.223   7.759   0.853 -0.4380  0.1219 -0.4100
23947SOL    HW272420   7.211   7.633   0.937  1.2909  1.1659  1.5266
23948SOL     OW72421   4.482   9.239   5.123 -0.4516 -0.1996 -0.2373
23948SOL    HW172422   4.559   9.191   5.154 -0.0641  0.6332  0.1176
23948SOL    HW272423   4.516   9.295   5.053 -0.8002 -0.1028 -0.3277
23949SOL     OW72424   7.794   9.819   0.475  0.2053  0.3174 -0.2709
23949SOL    HW172425   7.778   9.757   0.546  1.8471  0.4184  0.2072
23949SOL    HW272426   7.744   9.897   0.499 -2.0241 -0.7996 -0.9574
23950SOL     OW72427   3.833   4.827   8.235  0.4498 -0.2655  0.7332
23950SOL    HW172428   3.848   4.752   8.178 -0.2312  1.3395 -1.6964
23950SOL    HW272429   3.914   4.878   8.229  0.5317 -0.2689  1.5840
23951SOL     OW72430   9.286   9.295   1.473 -0.4121 -0.2355  0.2932
23951SOL    HW172431   9.253   9.236   1.405 -1.8097  2.3951 -1.4633
23951SOL    HW272432   9.327   9.367   1.425  2.1336 -0.1459  2.3531
23952SOL     OW72433   8.029   8.091   0.846  0.3148  0.1244  0.2127
23952SOL    HW172434   8.086   8.104   0.922  0.4751 -0.8546  0.2732
23952SOL    HW272435   7.942   8.116   0.876  0.4960  0.4306  0.4924
23953SOL     OW72436   6.290   7.252   7.425  0.0496 -0.7026 -0.1544
23953SOL    HW172437   6.227   7.256   7.353 -1.2085  1.5534  0.9616
23953SOL    HW272438   6.305   7.343   7.449  1.9728 -1.3071  1.1752
23954SOL     OW72439   8.419   6.853   5.783 -0.0072 -0.1253  0.3109
23954SOL    HW172440   8.388   6.777   5.832 -4.1666  1.5114  0.6254
23954SOL    HW272441   8.488   6.890   5.837  0.3738 -2.2307  1.3648
23955SOL     OW72442   7.511   2.695   1.196  0.1684  0.0526  0.2985
23955SOL    HW172443   7.588   2.750   1.212 -0.1147  0.9323 -1.1318
23955SOL    HW272444   7.542   2.627   1.135 -0.0125 -0.0244  0.2921
23956SOL     OW72445   1.763   6.372   6.183 -0.0148  0.2775 -0.0163
23956SOL    HW172446   1.720   6.409   6.260 -1.6514 -0.4192 -0.5599
23956SOL    HW272447   1.698   6.313   6.145  1.4993 -0.9598 -0.7874
23957SOL     OW72448   7.430   2.942   6.095 -0.4283  0.7708  0.3178
23957SOL    HW172449   7.348   2.927   6.048  0.8891 -2.5055 -1.3001
23957SOL    HW272450   7.442   2.862   6.147  1.0200  1.8512  1.7495
23958SOL     OW72451   4.182   4.358   6.656 -0.4685 -0.5418  0.2621
23958SOL    HW172452   4.088   4.367   6.641 -0.7508 -2.6190  0.4264
23958SOL    HW272453   4.195   4.389   6.746 -1.0954 -0.6710  0.4069
23959SOL     OW72454   4.690   2.658   9.428  0.8614  1.0465 -0.7232
23959SOL    HW172455   4.732   2.578   9.395  0.8809  0.3847  0.8130
23959SOL    HW272456   4.597   2.635   9.436  1.0325  0.7828  0.7632
23960SOL     OW72457   7.275   8.560   1.477  0.4179  0.2735 -0.1159
23960SOL    HW172458   7.323   8.610   1.411 -1.1752 -0.1019 -1.6338
23960SOL    HW272459   7.199   8.525   1.430  1.1642 -3.1870  0.9355
23961SOL     OW72460   1.874   3.428   5.783  0.2888  0.0245  0.2390
23961SOL    HW172461   1.858   3.461   5.694  3.7573  0.7821 -0.2508
23961SOL    HW272462   1.828   3.488   5.840  2.5001  2.9972 -0.8755
23962SOL     OW72463   7.434   8.260   4.254 -0.3957  0.0482  0.1567
23962SOL    HW172464   7.413   8.259   4.160  0.0200  0.2445  0.0590
23962SOL    HW272465   7.509   8.202   4.262  0.3691  1.0252  0.1702
23963SOL     OW72466   7.790   4.106   5.452  0.0361  0.6159 -0.0992
23963SOL    HW172467   7.711   4.051   5.444  0.1152  0.4909 -0.0242
23963SOL    HW272468   7.756   4.195   5.459 -0.0971  0.5678 -0.1299
23964SOL     OW72469   0.892   5.098   7.389  0.3439 -0.1190  0.0301
23964SOL    HW172470   0.798   5.103   7.405  0.2274  0.3601 -0.7910
23964SOL    HW272471   0.905   5.013   7.346  0.3247 -0.3082  0.3985
23965SOL     OW72472   9.536   7.878   2.285 -0.2952  0.3126  0.2815
23965SOL    HW172473   9.601   7.918   2.343 -1.6211  0.3558  1.7682
23965SOL    HW272474   9.489   7.816   2.339 -0.8373 -0.4819 -1.0447
23966SOL     OW72475   7.863   8.325   4.658 -0.0674  0.2825 -0.1596
23966SOL    HW172476   7.929   8.395   4.663  1.2938 -0.8731 -1.2426
23966SOL    HW272477   7.795   8.360   4.600  0.5740  0.7277 -0.6490
23967SOL     OW72478   0.920   5.016   7.011 -0.3467  0.4761 -0.3261
23967SOL    HW172479   0.900   5.086   6.949  0.1744  0.8886 -0.0421
23967SOL    HW272480   0.896   4.936   6.965 -2.1406  0.8868 -0.1949
23968SOL     OW72481   4.231   1.908   4.192  0.4670  0.3648 -0.0583
23968SOL    HW172482   4.175   1.843   4.234  0.1864 -1.3715 -2.9005
23968SOL    HW272483   4.302   1.857   4.152  1.9135  2.1293  0.0991
23969SOL     OW72484   9.598   2.314   2.596  0.5534 -0.0412  0.1916
23969SOL    HW172485   9.649   2.255   2.651  0.5691 -0.3183 -0.1220
23969SOL    HW272486   9.563   2.259   2.526 -1.0769 -0.1015  0.9847
23970SOL     OW72487   6.609   7.757   2.477 -0.5626 -0.4808  0.0335
23970SOL    HW172488   6.538   7.695   2.492 -0.2412 -1.4171 -2.0191
23970SOL    HW272489   6.684   7.718   2.523 -0.9622 -0.2963  0.8632
23971SOL     OW72490   6.011   2.943   6.963 -0.1107 -0.3691  0.1888
23971SOL    HW172491   5.953   3.015   6.936 -0.6948 -1.0107 -0.2960
23971SOL    HW272492   5.989   2.928   7.054  1.0938  1.0739  0.7678
23972SOL     OW72493   9.023   2.554   3.161 -0.2145 -0.8324  0.4692
23972SOL    HW172494   8.950   2.512   3.116  1.9071 -4.1270 -0.2963
23972SOL    HW272495   9.013   2.528   3.252 -0.7761  0.0108  0.6586
23973SOL     OW72496   7.479   2.165   6.021 -0.4931  0.2610 -0.6479
23973SOL    HW172497   7.518   2.081   6.042  0.0833  0.4718 -0.8670
23973SOL    HW272498   7.549   2.215   5.980 -0.0531  1.7527  1.7031
23974SOL     OW72499   5.739   0.577   6.082 -0.3534  0.0969  1.3625
23974SOL    HW172500   5.768   0.631   6.156 -2.3102  0.6008  1.8259
23974SOL    HW272501   5.676   0.632   6.036 -3.0383 -1.9749  2.3079
23975SOL     OW72502   6.826   6.232   7.945  0.5621  0.6401 -0.2616
23975SOL    HW172503   6.821   6.183   8.027  1.6588  1.1895  0.1612
23975SOL    HW272504   6.830   6.324   7.973 -0.6518  0.9261 -1.0033
23976SOL     OW72505   1.408   6.984   5.388 -0.2444  0.1111  0.2325
23976SOL    HW172506   1.488   6.968   5.439 -0.0875 -0.5223 -0.1897
23976SOL    HW272507   1.429   7.059   5.334  0.3418 -0.4977 -0.4107
23977SOL     OW72508   5.118   6.154   9.939 -0.2636  0.2802 -0.0562
23977SOL    HW172509   5.156   6.118   9.859 -0.4781 -1.0917  0.4274
23977SOL    HW272510   5.169   6.233   9.957  1.3027 -0.6356 -0.3011
23978SOL     OW72511   0.129   2.609   4.709  0.0717 -0.4725 -0.1689
23978SOL    HW172512   0.167   2.563   4.783  0.9377  0.4428 -0.0249
23978SOL    HW272513   0.102   2.694   4.744  0.5880  0.0130 -0.9231
23979SOL     OW72514   7.946   1.540   1.120  0.1962 -0.3220 -0.2899
23979SOL    HW172515   8.014   1.534   1.187 -1.5159  1.0535  1.6777
23979SOL    HW272516   7.865   1.521   1.166 -0.9230 -0.7919 -2.3255
23980SOL     OW72517   8.042   0.853   3.507  0.5039  0.2541 -0.0900
23980SOL    HW172518   8.000   0.801   3.439  3.3599 -2.4090 -0.0683
23980SOL    HW272519   7.970   0.882   3.564 -1.6774  0.3077 -2.6801
23981SOL     OW72520   3.862   9.882   3.296 -0.2835 -0.2092 -0.3538
23981SOL    HW172521   3.942   9.901   3.344 -0.3374 -0.5018 -0.1465
23981SOL    HW272522   3.792   9.898   3.359 -0.4642  1.2403 -0.8909
23982SOL     OW72523   4.429   2.221   1.850 -0.9158 -0.2616 -0.5239
23982SOL    HW172524   4.472   2.138   1.873 -1.6421 -0.3725  0.5441
23982SOL    HW272525   4.463   2.284   1.913 -2.4631 -0.4130  0.5221
23983SOL     OW72526   6.775   7.977   4.055  0.0225  0.2769  0.1906
23983SOL    HW172527   6.824   8.011   4.131 -0.7815  0.9554  0.4202
23983SOL    HW272528   6.778   8.048   3.991  0.0333  0.0025 -0.1129
23984SOL     OW72529   6.111   8.457   2.896 -0.0222 -0.5162  0.1006
23984SOL    HW172530   6.178   8.398   2.931 -0.8615 -0.0497  2.7404
23984SOL    HW272531   6.079   8.413   2.818  2.4604 -1.3312 -0.5610
23985SOL     OW72532   0.544   8.797   6.083  0.0976  0.0674  0.2192
23985SOL    HW172533   0.559   8.890   6.101 -2.5132  0.4043  1.0615
23985SOL    HW272534   0.568   8.753   6.164 -1.4216  0.3632  0.8470
23986SOL     OW72535   9.858   5.451   0.049  0.2532 -0.3918 -0.1327
23986SOL    HW172536   9.797   5.413  -0.015  0.8093  1.1811 -1.6718
23986SOL    HW272537   9.945   5.436   0.012  0.6343 -0.0344  0.5899
23987SOL     OW72538   1.165   2.447   0.402  0.1545 -0.2496  0.1293
23987SOL    HW172539   1.200   2.445   0.491  2.0434 -1.9723 -0.5876
23987SOL    HW272540   1.083   2.397   0.408  0.4889 -0.7277  0.8080
23988SOL     OW72541  10.006   2.834   6.465  0.4188  0.2968  0.7640
23988SOL    HW172542   9.913   2.854   6.479 -0.1704 -0.0139 -2.1405
23988SOL    HW272543  10.006   2.755   6.412  2.3204  0.9034 -0.2440
23989SOL     OW72544   1.930   4.789   0.587 -0.2867  0.0821 -0.0271
23989SOL    HW172545   1.987   4.827   0.654  0.6425 -0.7427 -0.3453
23989SOL    HW272546   1.988   4.766   0.515 -1.0972 -0.2735 -0.5873
23990SOL     OW72547   8.255   2.676   7.763 -0.4176  0.5838 -0.0464
23990SOL    HW172548   8.226   2.681   7.672  1.7388  1.9309 -0.7231
23990SOL    HW272549   8.251   2.766   7.795 -2.4472 -0.0353  1.6965
23991SOL     OW72550   6.880   1.395   3.356  0.9456 -0.9560  0.3938
23991SOL    HW172551   6.798   1.385   3.308  1.8381 -0.3706 -1.3271
23991SOL    HW272552   6.882   1.319   3.414 -0.9623 -0.8014  0.7417
23992SOL     OW72553   8.819   8.261   9.237 -0.4353 -0.0144 -0.0687
23992SOL    HW172554   8.795   8.298   9.152 -0.1515  0.9274  0.2558
23992SOL    HW272555   8.808   8.332   9.299  2.4519  0.3310  0.2067
23993SOL     OW72556   3.895   2.073   6.828 -0.2551  0.4473  0.0403
23993SOL    HW172557   3.873   2.061   6.735 -0.7620 -2.5375  0.4308
23993SOL    HW272558   3.946   1.996   6.850 -0.3665  0.9657  2.3277
23994SOL     OW72559   5.864   1.693   0.420  0.3551  0.2062 -0.1106
23994SOL    HW172560   5.952   1.731   0.422  0.3277  0.7167 -3.2162
23994SOL    HW272561   5.810   1.757   0.467  1.6201 -0.3055  2.1803
23995SOL     OW72562   5.875   5.026   3.739  0.5347 -0.2264  0.1759
23995SOL    HW172563   5.799   4.990   3.784 -0.5013  0.1840 -1.1726
23995SOL    HW272564   5.897   5.105   3.789  0.2489 -0.4987  0.7379
23996SOL     OW72565   4.343   7.428   7.808 -0.4944 -0.0968  0.0819
23996SOL    HW172566   4.299   7.369   7.870  0.1292 -0.9056 -0.2200
23996SOL    HW272567   4.280   7.498   7.791 -0.5828  0.3014  1.8498
23997SOL     OW72568   6.802   8.123   1.973  0.5058 -0.0797 -0.3065
23997SOL    HW172569   6.896   8.140   1.965  0.3650  0.7709 -0.1460
23997SOL    HW272570   6.768   8.196   2.024 -0.1723 -0.6328  0.0540
23998SOL     OW72571   3.550   0.591   6.721 -0.2721  0.8271 -0.4113
23998SOL    HW172572   3.618   0.603   6.787  0.2564  0.8736 -0.9583
23998SOL    HW272573   3.484   0.657   6.741 -0.5300  0.2866  0.5826
23999SOL     OW72574   1.701   9.934   1.385 -0.3641  0.0913 -0.2053
23999SOL    HW172575   1.660  10.018   1.364 -1.1392 -0.4771 -1.0460
23999SOL    HW272576   1.786   9.937   1.342  0.3689  1.1315  1.2339
24000SOL     OW72577   4.183   6.447   9.929 -0.1751  1.0327  0.1126
24000SOL    HW172578   4.268   6.467   9.967 -0.1551 -1.1783  1.4097
24000SOL    HW272579   4.148   6.532   9.902  1.9690  2.1113  0.5029
24001SOL     OW72580   7.001   0.227   6.861 -0.1691 -0.2385 -0.1752
24001SOL    HW172581   6.910   0.205   6.843 -0.1456  1.1823 -2.3379
24001SOL    HW272582   7.001   0.322   6.873  1.2916  0.1112 -2.4424
24002SOL     OW72583   6.632   1.551   0.850  0.0301 -0.1822 -0.3486
24002SOL    HW172584   6.631   1.643   0.874 -0.2639 -0.0570 -0.8336
24002SOL    HW272585   6.683   1.509   0.919 -1.9403 -0.0523  1.2926
24003SOL     OW72586   9.178   0.806   3.120  0.1878  0.4370  0.3530
24003SOL    HW172587   9.272   0.827   3.120  0.3784 -0.3760 -0.2210
24003SOL    HW272588   9.172   0.722   3.074 -0.6948 -0.0920  1.3711
24004SOL     OW72589   2.853   5.967   1.864  0.4136  0.2650 -0.0089
24004SOL    HW172590   2.887   6.016   1.789  1.1774 -0.5188 -0.1925
24004SOL    HW272591   2.819   5.886   1.826  2.8529 -1.1682  0.6796
24005SOL     OW72592   7.874   2.649   6.748 -0.0204 -0.1178 -0.3336
24005SOL    HW172593   7.886   2.562   6.785 -0.0426 -0.4389 -1.0652
24005SOL    HW272594   7.943   2.702   6.788 -0.2600 -0.3729  0.4188
24006SOL     OW72595   7.412   7.623   1.205 -0.1123  0.3681  0.1840
24006SOL    HW172596   7.435   7.708   1.168  1.2074 -0.5534 -1.2581
24006SOL    HW272597   7.322   7.608   1.178  0.3426  0.3861 -1.4347
24007SOL     OW72598   2.797   7.674   6.701 -0.3218  0.2343  0.4031
24007SOL    HW172599   2.774   7.667   6.608  0.2413  0.3475  0.2461
24007SOL    HW272600   2.874   7.731   6.701  0.1042 -0.3384  0.8719
24008SOL     OW72601   5.914   5.555   4.925  0.0029 -0.0958 -0.3847
24008SOL    HW172602   5.895   5.527   5.014  1.8099  1.9688  0.7438
24008SOL    HW272603   5.833   5.539   4.877 -1.5990  0.2713  2.0269
24009SOL     OW72604   2.210   7.579   9.044  0.3998 -0.2092  0.0381
24009SOL    HW172605   2.280   7.641   9.066  0.6162 -0.5400  0.2827
24009SOL    HW272606   2.135   7.635   9.022  0.8444  0.1474 -0.5776
24010SOL     OW72607   2.295   7.724   2.430 -0.1504  0.5299  0.2655
24010SOL    HW172608   2.337   7.741   2.515 -2.6135 -1.7690  2.0877
24010SOL    HW272609   2.359   7.757   2.366  2.4320  1.1630  2.9008
24011SOL     OW72610   8.288   2.278   9.746 -0.0149  0.7961  0.1032
24011SOL    HW172611   8.378   2.251   9.732  0.4602  2.7203 -0.8680
24011SOL    HW272612   8.294   2.354   9.803 -0.8776  1.9584 -1.2971
24012SOL     OW72613   1.646   1.386   3.403 -0.1084  0.0632  0.2616
24012SOL    HW172614   1.738   1.369   3.425 -0.1899 -1.0599 -0.2118
24012SOL    HW272615   1.621   1.313   3.346 -1.6000 -0.2130  1.2292
24013SOL     OW72616   4.368   1.190   1.923  0.0474 -0.4512  0.6217
24013SOL    HW172617   4.400   1.255   1.985 -0.4565  1.8845 -1.3934
24013SOL    HW272618   4.446   1.143   1.894  0.4075 -0.8851  2.2097
24014SOL     OW72619   3.868   6.125   3.647 -0.5442  0.4393 -0.1168
24014SOL    HW172620   3.940   6.103   3.706 -1.1689 -3.2500 -0.4887
24014SOL    HW272621   3.898   6.098   3.561 -2.3175 -1.2885 -0.2653
24015SOL     OW72622   4.079   9.779   0.226 -0.2926 -0.0192 -0.5115
24015SOL    HW172623   4.095   9.868   0.258  1.1470 -0.3035 -0.3717
24015SOL    HW272624   3.984   9.771   0.224 -0.4356  1.1633  0.4709
24016SOL     OW72625   2.816   2.313   4.357  0.2846  0.1617  0.2028
24016SOL    HW172626   2.753   2.363   4.409  0.8894  0.1337  0.9710
24016SOL    HW272627   2.772   2.230   4.338  0.7798 -0.6429  2.3576
24017SOL     OW72628   9.205   7.201   9.397  0.4089 -0.2957  0.2917
24017SOL    HW172629   9.165   7.172   9.314 -1.2043 -1.9538  1.5702
24017SOL    HW272630   9.158   7.152   9.464  1.5437  1.1673  2.2295
24018SOL     OW72631   2.071   9.044   1.374  0.1066 -0.2838 -0.1161
24018SOL    HW172632   2.122   8.990   1.314 -2.0863 -2.0104 -0.5613
24018SOL    HW272633   2.085   9.004   1.460  0.6121  0.1367  0.0029
24019SOL     OW72634   6.002   6.973   6.336  0.4283  0.5681 -0.3967
24019SOL    HW172635   5.938   6.906   6.361 -0.2909  0.2006 -2.9420
24019SOL    HW272636   6.052   6.932   6.265  2.3246  1.5024  0.3507
24020SOL     OW72637   3.342   4.853   9.187  0.2460  0.1701  0.4475
24020SOL    HW172638   3.284   4.855   9.111  0.3222 -1.1111  0.3317
24020SOL    HW272639   3.302   4.914   9.249  0.3865  1.5143 -0.7384
24021SOL     OW72640   1.001   3.652   8.631  0.7549  0.6752 -0.2876
24021SOL    HW172641   1.095   3.657   8.620  0.8405  0.3723  0.2477
24021SOL    HW272642   0.983   3.559   8.647  0.0610  0.3036 -2.8147
24022SOL     OW72643   7.341   7.249   7.592 -0.1909 -0.3686 -0.5379
24022SOL    HW172644   7.311   7.162   7.620  0.9992 -0.2520  1.3479
24022SOL    HW272645   7.422   7.232   7.545  0.3945 -0.2769  0.4039
24023SOL     OW72646   4.767   2.994   6.661 -0.2113 -0.1253 -1.0874
24023SOL    HW172647   4.699   3.056   6.684  1.9260  1.3603  1.8549
24023SOL    HW272648   4.764   2.927   6.729  1.4491  0.1836 -0.6500
24024SOL     OW72649   2.415   2.347   7.207 -0.4000  0.8051  0.0221
24024SOL    HW172650   2.468   2.369   7.284 -1.7079 -0.9841  1.5205
24024SOL    HW272651   2.400   2.253   7.215 -0.8791  0.6388 -2.2720
24025SOL     OW72652   7.327   8.458   0.082  0.4500 -0.4576 -0.4106
24025SOL    HW172653   7.350   8.527   0.144  3.3324 -1.4769 -0.1602
24025SOL    HW272654   7.250   8.416   0.120  0.3459  0.8129  0.8974
24026SOL     OW72655   8.637   0.154   8.636 -0.3124 -0.6048 -0.1536
24026SOL    HW172656   8.572   0.211   8.594  1.1904  1.5067  0.1936
24026SOL    HW272657   8.695   0.128   8.564 -0.2253 -0.5796 -0.0926
24027SOL     OW72658   3.167   4.292   7.471  0.0808  0.3269 -0.6037
24027SOL    HW172659   3.249   4.343   7.466 -0.1092  0.8430  0.8866
24027SOL    HW272660   3.180   4.220   7.410  1.3322  0.8400 -0.9853
24028SOL     OW72661   3.227   5.304   7.127 -0.5975 -0.2001  0.3880
24028SOL    HW172662   3.316   5.293   7.095 -1.0613 -0.6896 -0.8198
24028SOL    HW272663   3.209   5.398   7.117 -0.8245 -0.3687 -1.1589
24029SOL     OW72664   9.934   3.596   7.191 -0.1925 -0.3376  0.1170
24029SOL    HW172665   9.983   3.661   7.241 -0.5836  1.7585 -2.0201
24029SOL    HW272666   9.862   3.570   7.248 -0.8611  2.2482  0.6026
24030SOL     OW72667   2.717   5.864   2.102 -0.6281 -0.0942 -0.6239
24030SOL    HW172668   2.788   5.907   2.055  0.5586 -0.6491  0.5742
24030SOL    HW272669   2.743   5.772   2.106  0.7689  0.2675  3.3509
24031SOL     OW72670   8.590   5.936   7.915 -0.1600  0.4724 -0.4322
24031SOL    HW172671   8.670   5.885   7.905 -0.0569  0.1694  1.5036
24031SOL    HW272672   8.563   5.957   7.826  0.9306 -1.1958 -1.1922
24032SOL     OW72673   2.204   5.316   0.467 -0.2623 -1.0149 -0.6358
24032SOL    HW172674   2.244   5.358   0.391  0.8300 -0.2443  0.3225
24032SOL    HW272675   2.112   5.341   0.464  0.2701  1.1813 -0.3081
24033SOL     OW72676   8.874   4.762   5.135  0.4248 -0.9365 -0.0085
24033SOL    HW172677   8.861   4.844   5.087  1.0114  0.1625  1.5908
24033SOL    HW272678   8.912   4.702   5.072 -0.2219 -0.0470 -1.2847
24034SOL     OW72679   4.565   7.629   1.426  0.0472  0.1290  0.1671
24034SOL    HW172680   4.659   7.613   1.411 -0.1037  0.0771 -0.7779
24034SOL    HW272681   4.546   7.708   1.376 -0.8105 -0.8989 -1.2117
24035SOL     OW72682   7.439   6.090   9.132  0.5673 -0.2458  0.2166
24035SOL    HW172683   7.397   6.018   9.181 -2.1866  2.0865  1.5775
24035SOL    HW272684   7.383   6.166   9.148  3.5906  2.3968 -0.7474
24036SOL     OW72685   3.969   1.417   0.353 -0.4688  0.2344  0.0361
24036SOL    HW172686   4.045   1.368   0.386  0.7573  2.1508  0.1947
24036SOL    HW272687   3.911   1.425   0.429 -0.5668 -0.7065  0.0735
24037SOL     OW72688   3.096   9.187   2.597 -0.5670  1.0378 -0.1564
24037SOL    HW172689   3.061   9.102   2.625  1.3311  0.2222 -0.0943
24037SOL    HW272690   3.175   9.165   2.547  0.9882  2.8109  1.3631
24038SOL     OW72691   0.619   6.542   7.948  0.0625  0.0451 -0.3255
24038SOL    HW172692   0.659   6.595   8.017 -0.7169  2.4164 -1.5820
24038SOL    HW272693   0.634   6.592   7.868 -0.7606 -1.6578 -1.5988
24039SOL     OW72694   3.441   3.662   3.790 -0.1761 -0.0722  0.9080
24039SOL    HW172695   3.381   3.724   3.749  1.0335  0.0633 -0.7361
24039SOL    HW272696   3.527   3.701   3.780  0.4174 -1.1740  1.5048
24040SOL     OW72697   6.031   5.196   9.257  0.2953 -0.1372  0.5439
24040SOL    HW172698   5.950   5.241   9.282  0.7768  0.2945  1.3454
24040SOL    HW272699   6.101   5.252   9.289  0.9269 -0.4718 -0.2121
24041SOL     OW72700   0.520   1.807   0.389 -0.3388 -0.0781 -0.1265
24041SOL    HW172701   0.601   1.837   0.430  0.1194  1.0893 -1.7831
24041SOL    HW272702   0.462   1.883   0.392 -0.8208 -0.4341 -0.3041
24042SOL     OW72703   5.397   8.678   0.187  0.4060 -0.0832 -0.3037
24042SOL    HW172704   5.422   8.663   0.096  0.8449 -0.4153 -0.1322
24042SOL    HW272705   5.474   8.651   0.237 -0.3112 -1.1655  0.2407
24043SOL     OW72706   1.321   0.584   9.541 -0.5422 -0.9621  0.1125
24043SOL    HW172707   1.391   0.518   9.547 -0.4861 -0.8498  0.8789
24043SOL    HW272708   1.252   0.541   9.491 -0.1966 -1.3280 -0.0584
24044SOL     OW72709   2.131   7.320   9.723 -0.5623  0.4129  0.3250
24044SOL    HW172710   2.138   7.268   9.643  1.4891  1.3607 -0.1616
24044SOL    HW272711   2.036   7.330   9.736 -0.9570 -0.6457 -1.3850
24045SOL     OW72712   4.240   3.420   1.932 -0.1384 -0.0044  0.1161
24045SOL    HW172713   4.191   3.474   1.993  1.1631  2.0833 -0.5765
24045SOL    HW272714   4.327   3.410   1.973  0.4639  0.6832 -0.9528
24046SOL     OW72715   8.061   0.511   2.277  0.2017 -0.3059  0.3376
24046SOL    HW172716   8.050   0.601   2.246  2.3149  0.8873  2.6565
24046SOL    HW272717   8.105   0.466   2.204  1.6396  1.3299  0.1335
24047SOL     OW72718   7.848   1.511   4.490  0.4046  0.1970 -0.2202
24047SOL    HW172719   7.853   1.430   4.440  3.3512  0.2783 -0.2091
24047SOL    HW272720   7.801   1.572   4.433 -2.0187 -1.4794 -0.1583
24048SOL     OW72721   1.129   5.893   3.661  1.0029  0.4200  0.2609
24048SOL    HW172722   1.193   5.926   3.598 -1.9574  0.5145 -2.9817
24048SOL    HW272723   1.062   5.961   3.665  0.0148 -0.5868  1.8381
24049SOL     OW72724   0.944   5.198   4.606 -0.6235 -0.1722 -0.1869
24049SOL    HW172725   0.979   5.130   4.665 -0.5347 -2.3093 -2.5043
24049SOL    HW272726   0.851   5.201   4.625 -0.2968  0.6979  1.4358
24050SOL     OW72727   3.906   4.500   5.867 -0.1047  0.0527 -0.5387
24050SOL    HW172728   3.848   4.523   5.940 -0.2744  1.3453 -1.0537
24050SOL    HW272729   3.847   4.470   5.798 -0.0539  0.1533 -0.6257
24051SOL     OW72730   8.948   0.294   1.914  0.5151  0.4568  0.5363
24051SOL    HW172731   8.994   0.261   1.836 -1.0308  0.2913 -0.3442
24051SOL    HW272732   9.002   0.367   1.945  1.9544 -0.4400  0.2259
24052SOL     OW72733   4.316   8.843   1.205  0.0597  0.1663 -0.0294
24052SOL    HW172734   4.280   8.904   1.269 -1.4963 -1.0047  0.2673
24052SOL    HW272735   4.271   8.864   1.123 -0.8631 -0.8689  0.1866
24053SOL     OW72736   0.339   5.785   5.581 -0.4486  0.0209  0.2393
24053SOL    HW172737   0.321   5.802   5.489  3.4511  0.4480 -0.6046
24053SOL    HW272738   0.346   5.872   5.621  3.4411  0.2433 -0.4940
24054SOL     OW72739   7.208   8.698   2.161 -0.2918 -0.3182 -0.3853
24054SOL    HW172740   7.163   8.642   2.096 -2.9114 -0.2328  1.2110
24054SOL    HW272741   7.166   8.676   2.244  1.5134  1.0856  0.9624
24055SOL     OW72742   0.960   2.714   1.645 -0.6602 -0.4990 -0.0156
24055SOL    HW172743   1.031   2.764   1.685 -1.3208  0.8223 -0.4071
24055SOL    HW272744   0.945   2.641   1.704 -1.0701  0.9306  1.7314
24056SOL     OW72745   4.161   1.002   5.925  0.1461 -0.3245  0.1998
24056SOL    HW172746   4.183   1.094   5.935 -1.1725  0.0688 -0.2593
24056SOL    HW272747   4.218   0.971   5.855 -1.3987  0.9384 -1.7395
24057SOL     OW72748   2.963   8.107   8.178 -0.4756 -0.0091  0.2449
24057SOL    HW172749   2.922   8.193   8.172 -0.6998 -0.1591 -0.4550
24057SOL    HW272750   2.941   8.064   8.095 -0.4539 -0.7785  0.6271
24058SOL     OW72751   9.059   5.227   5.802  0.0013  0.0602 -0.2471
24058SOL    HW172752   8.987   5.233   5.740 -0.1254  0.2311 -0.0850
24058SOL    HW272753   9.136   5.206   5.748 -0.1576 -0.0576 -0.4260
24059SOL     OW72754   2.581   0.295   8.442 -0.1580  0.4198 -0.7169
24059SOL    HW172755   2.496   0.325   8.411 -2.1585 -1.1765  2.5864
24059SOL    HW272756   2.626   0.375   8.469 -0.8006  1.2526 -2.0382
24060SOL     OW72757   9.517   9.298   7.006  0.1747  1.0297 -0.1629
24060SOL    HW172758   9.561   9.279   6.923 -0.3537  1.9298 -0.6657
24060SOL    HW272759   9.424   9.300   6.984 -0.2013 -1.0181  0.9166
24061SOL     OW72760   3.772   7.584   1.485 -0.3571 -0.3501 -0.2500
24061SOL    HW172761   3.780   7.571   1.390 -1.2567 -1.7245 -0.1663
24061SOL    HW272762   3.681   7.606   1.499 -0.5021 -1.2657  0.3879
24062SOL     OW72763   2.034   3.855   0.961 -0.2281  0.1105  0.2092
24062SOL    HW172764   2.068   3.932   1.008 -1.5290  1.5233 -1.0316
24062SOL    HW272765   2.111   3.816   0.920  0.7526 -0.4656  2.4952
24063SOL     OW72766   8.919   9.855   2.289 -0.2307 -0.8383  0.8241
24063SOL    HW172767   9.009   9.821   2.290 -0.3658 -1.3272 -0.5735
24063SOL    HW272768   8.878   9.810   2.215 -0.5562  2.0464 -0.8999
24064SOL     OW72769   3.287   0.402   1.930 -0.0784 -0.3714 -0.2197
24064SOL    HW172770   3.213   0.462   1.920 -0.8320 -0.9999  1.2674
24064SOL    HW272771   3.306   0.403   2.024  1.6329 -0.4403 -0.5404
24065SOL     OW72772   9.967   9.433   3.350  0.2637 -0.7927  0.1244
24065SOL    HW172773   9.882   9.439   3.395  0.2491  0.9934 -0.0425
24065SOL    HW272774   9.946   9.447   3.257  0.5642 -2.0928 -0.1597
24066SOL     OW72775   1.928   0.209   0.530  0.1156  0.2386 -0.3254
24066SOL    HW172776   1.834   0.214   0.549 -0.0162  0.5544 -1.0439
24066SOL    HW272777   1.943   0.119   0.503  0.1708 -0.0232  0.5465
24067SOL     OW72778   1.290   5.753   6.236 -0.5718 -0.6159  0.4255
24067SOL    HW172779   1.327   5.687   6.178 -0.5858 -1.5712  1.4515
24067SOL    HW272780   1.353   5.825   6.236 -0.5236 -0.6522 -0.6601
24068SOL     OW72781   7.312   5.806   7.780 -0.4007 -0.0341 -0.1444
24068SOL    HW172782   7.395   5.825   7.824 -1.6923 -0.9016  2.9723
24068SOL    HW272783   7.247   5.852   7.833 -1.9951  0.2530 -2.2348
24069SOL     OW72784   6.148   9.153   2.341 -1.1572 -0.4806 -0.1263
24069SOL    HW172785   6.221   9.096   2.318 -0.9678  0.0450 -0.8474
24069SOL    HW272786   6.173   9.191   2.425 -0.6670 -0.4079 -0.3018
24070SOL     OW72787   8.711   7.348   6.866  0.3084  0.4045  0.6527
24070SOL    HW172788   8.712   7.444   6.860  1.5986  0.3996  0.5716
24070SOL    HW272789   8.803   7.322   6.860 -0.0586 -0.8824  0.2063
24071SOL     OW72790   0.842   0.850   8.798 -0.2226  0.2303  0.9227
24071SOL    HW172791   0.893   0.772   8.780  1.2666  1.1704  0.8891
24071SOL    HW272792   0.780   0.824   8.866 -1.1721 -1.4993 -0.5227
24072SOL     OW72793   8.851   2.161   8.799 -0.0051  0.3702  0.1149
24072SOL    HW172794   8.863   2.092   8.734  0.3573  0.5899 -0.0535
24072SOL    HW272795   8.939   2.178   8.832 -0.1903  0.2426  0.6838
24073SOL     OW72796   9.143   4.086   4.891 -0.1235 -0.3874 -0.1561
24073SOL    HW172797   9.165   4.002   4.930  0.9514 -0.2574 -0.4682
24073SOL    HW272798   9.125   4.143   4.966  2.7466  0.0914  0.2487
24074SOL     OW72799   9.361   3.626   9.023  0.3307 -0.1435 -0.1001
24074SOL    HW172800   9.382   3.664   8.938 -1.2240 -1.8932 -1.3457
24074SOL    HW272801   9.266   3.635   9.030  0.2618 -1.3306  0.7784
24075SOL     OW72802   7.220   2.977   7.139 -0.4745 -0.1735 -0.1445
24075SOL    HW172803   7.258   2.902   7.183  0.8492  0.6137  0.1005
24075SOL    HW272804   7.127   2.974   7.162 -0.6320 -2.1918 -0.8264
24076SOL     OW72805   0.921   3.814   1.015 -0.5704 -0.8143  0.0281
24076SOL    HW172806   0.980   3.757   0.966 -0.5783 -0.6766 -0.1393
24076SOL    HW272807   0.900   3.764   1.094 -1.6188 -1.6247 -0.7230
24077SOL     OW72808   5.709   8.012   8.715  0.4796  0.1125  0.0710
24077SOL    HW172809   5.751   7.943   8.663  1.5561 -0.4786  1.6498
24077SOL    HW272810   5.723   8.092   8.665  0.9886 -0.5129 -0.8179
24078SOL     OW72811   7.571   9.948   0.546 -0.7321  0.0809  0.1284
24078SOL    HW172812   7.524   9.865   0.556 -1.2618  0.4094  0.3980
24078SOL    HW272813   7.540   9.983   0.463  1.6957 -1.3756 -1.5345
24079SOL     OW72814   9.890   3.674   3.052  0.1090  0.1930  0.5318
24079SOL    HW172815   9.824   3.737   3.024  0.1421 -0.2514 -0.6016
24079SOL    HW272816   9.964   3.688   2.992  0.5874 -0.1033  1.0404
24080SOL     OW72817   3.487   2.893   7.614 -0.0291  0.1219 -0.0802
24080SOL    HW172818   3.541   2.829   7.661 -0.8127 -1.2263 -0.9571
24080SOL    HW272819   3.399   2.881   7.648 -0.0722  1.2943  0.2876
24081SOL     OW72820   5.456   8.990   9.287 -0.1511  0.2157  0.4096
24081SOL    HW172821   5.529   8.999   9.348  0.1971 -1.2058  0.2408
24081SOL    HW272822   5.469   9.060   9.224  1.8493 -0.7647 -0.3645
24082SOL     OW72823   6.511   8.558   8.904  0.2962  0.4381 -0.0835
24082SOL    HW172824   6.607   8.560   8.908  0.2562  2.8111  1.0997
24082SOL    HW272825   6.491   8.549   8.811  1.6191 -1.9772 -0.2085
24083SOL     OW72826   1.194   8.271   5.286 -0.3698  0.5351  0.2281
24083SOL    HW172827   1.168   8.186   5.322  3.9420 -1.1647 -0.0684
24083SOL    HW272828   1.220   8.252   5.196  1.7814  1.8309  0.5007
24084SOL     OW72829   5.559   6.942   5.777  0.0575  0.1166  0.4328
24084SOL    HW172830   5.539   7.029   5.813 -2.0059 -0.1536  0.0784
24084SOL    HW272831   5.527   6.946   5.687  1.8734 -0.3722 -0.2684
24085SOL     OW72832   5.051   2.875   0.392  0.0146  0.2244 -0.1289
24085SOL    HW172833   5.096   2.952   0.359  0.7201  0.2553  0.8783
24085SOL    HW272834   4.998   2.845   0.318  0.3810  1.1741 -0.7922
24086SOL     OW72835   8.428   1.364   7.238  0.0900  0.3321  0.0243
24086SOL    HW172836   8.390   1.443   7.276  1.2937  0.0254  1.9909
24086SOL    HW272837   8.485   1.397   7.168  1.7318  1.3865  1.7703
24087SOL     OW72838   5.793   0.321   2.548  0.7619  0.1524 -0.2068
24087SOL    HW172839   5.775   0.231   2.575 -1.0480  1.1568  2.3849
24087SOL    HW272840   5.715   0.348   2.499  1.0997  0.4428 -0.5881
24088SOL     OW72841   0.092   9.837   2.519  0.0295 -0.2073  0.7401
24088SOL    HW172842   0.166   9.897   2.517  0.2332 -0.3754  2.3112
24088SOL    HW272843   0.081   9.814   2.611 -2.9876  1.0574  0.8319
24089SOL     OW72844   7.035   1.114   5.555 -0.0981  0.4012  0.6059
24089SOL    HW172845   6.953   1.133   5.601 -0.6022 -0.1424 -0.0341
24089SOL    HW272846   7.019   1.143   5.466  0.2618 -0.0756  0.3822
24090SOL     OW72847   9.346   9.734   5.606  0.5598  0.3870 -0.0430
24090SOL    HW172848   9.313   9.724   5.695  2.4245  0.0735  0.6669
24090SOL    HW272849   9.344   9.646   5.570 -0.3022  0.5315 -0.3709
24091SOL     OW72850   6.219   0.866   2.329  0.3567 -0.0551  0.5290
24091SOL    HW172851   6.154   0.877   2.260  0.1977  0.2109  0.7199
24091SOL    HW272852   6.216   0.948   2.378  2.4370  0.8974 -0.8215
24092SOL     OW72853   8.845   1.201   7.822  0.4366 -0.2450  0.2256
24092SOL    HW172854   8.927   1.214   7.775 -0.5604  0.7901 -1.3398
24092SOL    HW272855   8.785   1.265   7.784 -0.7022  0.0618  2.3572
24093SOL     OW72856   4.520   7.259   9.865  0.0817 -0.2813  0.0670
24093SOL    HW172857   4.461   7.311   9.920  1.3826 -0.9606  2.2374
24093SOL    HW272858   4.536   7.314   9.789 -2.8966  0.1335 -0.4131
24094SOL     OW72859   1.585   8.459   9.284  0.1471 -0.2095 -0.2603
24094SOL    HW172860   1.657   8.457   9.221 -0.6940  0.2129 -1.2673
24094SOL    HW272861   1.584   8.550   9.315 -0.7326  0.1296 -1.2158
24095SOL     OW72862   3.793   2.435   8.029 -0.1791  0.1293  0.3530
24095SOL    HW172863   3.774   2.517   7.983  0.1200 -1.8952 -3.8749
24095SOL    HW272864   3.885   2.441   8.053 -0.1592  1.0146  0.0724
24096SOL     OW72865   2.416   0.054   2.139  0.2310 -0.1284 -0.1137
24096SOL    HW172866   2.496   0.003   2.149 -1.2046 -2.9792 -1.6288
24096SOL    HW272867   2.424   0.096   2.054 -0.4434 -1.7846 -1.0610
24097SOL     OW72868   5.791   7.306   2.888 -0.2424  0.5180 -0.0943
24097SOL    HW172869   5.757   7.217   2.884  0.9344  0.0691 -0.7886
24097SOL    HW272870   5.732   7.353   2.947 -0.5872 -0.8501  0.6736
24098SOL     OW72871   4.525   7.288   1.558 -0.0183  0.3299  0.2133
24098SOL    HW172872   4.532   7.364   1.616  0.1292  2.1489 -2.0468
24098SOL    HW272873   4.589   7.305   1.489 -1.4356 -0.8190 -1.4572
24099SOL     OW72874   0.629   5.957   7.531 -0.0689 -0.1792  0.1692
24099SOL    HW172875   0.600   6.018   7.463 -0.8911 -2.0230 -1.2459
24099SOL    HW272876   0.683   5.893   7.484  0.2859 -0.8775  1.4709
24100SOL     OW72877   1.548   4.903   6.279  0.2145 -0.3378  0.6629
24100SOL    HW172878   1.624   4.961   6.275 -0.8063  0.9691 -0.6777
24100SOL    HW272879   1.505   4.926   6.361  1.4588 -1.4174  1.6720
24101SOL     OW72880   5.482   1.151   2.674  0.2928  0.2326 -0.5309
24101SOL    HW172881   5.445   1.076   2.721 -0.0539 -0.7549 -2.2659
24101SOL    HW272882   5.432   1.226   2.705  0.7254 -0.1986  1.3399
24102SOL     OW72883   6.321   9.557   9.090 -0.0239 -0.3791  0.2642
24102SOL    HW172884   6.273   9.475   9.101  0.1309 -0.6340 -0.8371
24102SOL    HW272885   6.412   9.535   9.113 -0.1479 -0.2844  0.8512
24103SOL     OW72886   5.379   5.498   8.021 -0.0192  0.2451  0.1606
24103SOL    HW172887   5.395   5.590   7.999  0.0705  0.3285  0.5619
24103SOL    HW272888   5.286   5.494   8.043  0.1583  0.4189  0.9789
24104SOL     OW72889   5.789   4.342   4.143 -0.8454  0.0892 -0.1519
24104SOL    HW172890   5.750   4.417   4.098 -2.3375  0.0323  0.9692
24104SOL    HW272891   5.815   4.376   4.229 -1.6532 -0.6635  0.4161
24105SOL     OW72892   6.526   8.522   2.181  0.3698 -0.3900 -0.1345
24105SOL    HW172893   6.461   8.588   2.204  0.2237 -0.2051 -1.0323
24105SOL    HW272894   6.510   8.504   2.088  3.0167  1.2584 -0.9911
24106SOL     OW72895   7.154   5.155   7.288 -0.8771  0.4334  0.3001
24106SOL    HW172896   7.133   5.095   7.360 -2.1507  0.6715  0.1628
24106SOL    HW272897   7.236   5.197   7.314 -0.6277 -0.4557  0.9823
24107SOL     OW72898   4.420   8.069   2.559  0.2652 -0.4416 -0.8775
24107SOL    HW172899   4.453   8.077   2.469  0.6698  0.7024 -0.6460
24107SOL    HW272900   4.473   8.130   2.609 -0.7844 -0.1595 -0.0860
24108SOL     OW72901   9.062   3.096   2.691 -0.1745 -0.3219  0.3294
24108SOL    HW172902   9.129   3.039   2.727  1.7024  1.4199 -0.1933
24108SOL    HW272903   9.013   3.127   2.767 -0.8604 -2.1112  0.6620
24109SOL     OW72904   4.039   5.812   3.038  0.0950  0.3615  0.0510
24109SOL    HW172905   4.060   5.745   2.973 -1.0259  0.7702 -0.7724
24109SOL    HW272906   3.982   5.768   3.101 -2.6433  1.0065 -1.7692
24110SOL     OW72907   4.674   4.059   0.325 -0.1709 -0.3713  0.5948
24110SOL    HW172908   4.699   4.103   0.407 -1.3561 -1.3178  1.4818
24110SOL    HW272909   4.740   3.990   0.314 -0.5142 -0.8077  1.2262
24111SOL     OW72910   3.092   2.236   5.792  0.2291  0.1669  0.1433
24111SOL    HW172911   3.047   2.319   5.810 -1.0642 -0.6293  0.7647
24111SOL    HW272912   3.094   2.191   5.876  1.9519  0.0239  0.0582
24112SOL     OW72913   7.452   6.916   0.798 -0.1529  1.1404  0.1778
24112SOL    HW172914   7.395   6.991   0.817 -1.2540  0.8206 -1.5823
24112SOL    HW272915   7.393   6.841   0.798  0.3805  0.6948 -0.9546
24113SOL     OW72916   2.817   5.305   3.617  0.6254 -0.8858  0.3307
24113SOL    HW172917   2.780   5.326   3.703  1.3273  0.2964  0.3557
24113SOL    HW272918   2.871   5.228   3.632  2.2860  0.4267  1.3824
24114SOL     OW72919   4.534   2.208   7.521 -0.0713 -0.2974 -0.0284
24114SOL    HW172920   4.534   2.187   7.428 -0.8954 -1.9747  0.3120
24114SOL    HW272921   4.465   2.274   7.531  0.4606  0.3768 -0.6752
24115SOL     OW72922   6.066   3.451   7.334  0.1157 -0.0130 -0.7867
24115SOL    HW172923   6.083   3.358   7.317 -0.5874  0.0590 -1.9270
24115SOL    HW272924   6.105   3.497   7.259  0.3939  0.6184 -0.2683
24116SOL     OW72925   7.180   5.580   2.805 -0.0853  0.3654  0.1803
24116SOL    HW172926   7.148   5.503   2.759  0.2417  0.0747  0.4341
24116SOL    HW272927   7.272   5.561   2.823  0.9432  2.1198 -2.5734
24117SOL     OW72928   3.185   1.334   7.979  0.7578 -0.2341  0.6302
24117SOL    HW172929   3.160   1.287   8.059  0.1913  1.1795  1.3146
24117SOL    HW272930   3.240   1.406   8.010  1.7279 -0.5059 -0.4140
24118SOL     OW72931   7.519   8.371   0.390  0.2536  0.4372  0.2043
24118SOL    HW172932   7.570   8.297   0.423  1.1591 -0.0145 -2.0060
24118SOL    HW272933   7.462   8.333   0.323  0.0529  1.5836 -0.3005
24119SOL     OW72934   6.307   8.018   9.509  0.8823 -0.8181 -0.0453
24119SOL    HW172935   6.310   7.953   9.438 -1.9866 -0.8721 -0.2199
24119SOL    HW272936   6.279   8.098   9.466  1.6701 -0.1529  0.6538
24120SOL     OW72937   6.540   7.688   6.635 -0.3705  0.1033  0.1614
24120SOL    HW172938   6.521   7.744   6.711  1.8614  0.8450  0.2492
24120SOL    HW272939   6.547   7.600   6.671  0.7617  0.4592  0.8881
24121SOL     OW72940   1.343   3.819   0.119  0.6469  0.2093 -0.7752
24121SOL    HW172941   1.249   3.823   0.099  0.7902  0.9044 -1.3723
24121SOL    HW272942   1.372   3.735   0.082  0.2758  0.0171 -0.6368
24122SOL     OW72943   1.501   8.519   6.255 -0.4422  0.0296  0.2423
24122SOL    HW172944   1.546   8.590   6.301  0.2300 -0.2120 -0.0196
24122SOL    HW272945   1.409   8.546   6.253 -0.3596  0.4001  1.0469
24123SOL     OW72946   6.377   9.128   2.955  0.0491  0.1092  0.3102
24123SOL    HW172947   6.381   9.183   2.878 -1.4439 -0.1945 -0.0171
24123SOL    HW272948   6.467   9.122   2.986  0.7804 -0.2579 -1.7528
24124SOL     OW72949   8.587   0.342   3.765  0.0481  0.1955 -0.0200
24124SOL    HW172950   8.661   0.400   3.777  0.5889 -0.5175  0.1564
24124SOL    HW272951   8.613   0.284   3.693 -0.2400 -0.2017  0.1898
24125SOL     OW72952   7.396   0.457   5.200 -0.1291  0.1809  0.7101
24125SOL    HW172953   7.371   0.547   5.219 -0.4799  0.6681 -1.7932
24125SOL    HW272954   7.331   0.426   5.137  0.2937 -1.6628  1.1051
24126SOL     OW72955   2.855   3.310   2.107 -0.0893 -0.5973 -0.1209
24126SOL    HW172956   2.890   3.398   2.122 -0.6135 -0.5815  1.1872
24126SOL    HW272957   2.862   3.267   2.192 -0.8197 -1.4616 -0.4842
24127SOL     OW72958   2.479   5.142   0.167 -0.1927 -0.3667 -0.7473
24127SOL    HW172959   2.425   5.221   0.171 -0.8024 -0.7843 -0.5832
24127SOL    HW272960   2.441   5.083   0.232  0.9767 -0.3599 -0.0158
24128SOL     OW72961   8.257   5.483   7.948 -0.2483  0.1497  0.5364
24128SOL    HW172962   8.278   5.531   7.869 -1.0351 -2.2339 -1.2584
24128SOL    HW272963   8.182   5.530   7.986 -0.1427  1.0761 -0.3695
24129SOL     OW72964   3.467   4.508   0.293  0.4748 -0.5799 -0.2294
24129SOL    HW172965   3.408   4.540   0.224 -1.4614 -1.0447  1.1177
24129SOL    HW272966   3.422   4.531   0.374  2.2256 -0.9095  0.8733
24130SOL     OW72967   5.700   5.021   4.362 -0.0520  0.2102  0.5489
24130SOL    HW172968   5.711   5.109   4.324 -1.6236 -0.1188 -0.8057
24130SOL    HW272969   5.692   5.037   4.456  3.4829  1.1079  0.8467
24131SOL     OW72970   0.115   6.040   2.819 -0.5090 -0.2603  0.8196
24131SOL    HW172971   0.031   6.083   2.808 -0.4161 -0.5838 -1.7967
24131SOL    HW272972   0.121   6.021   2.913 -3.7465 -1.0843  0.9533
24132SOL     OW72973   9.875   5.436   6.961  0.3336  0.1220  0.2824
24132SOL    HW172974   9.827   5.385   7.027 -0.2007  0.7630  0.3928
24132SOL    HW272975   9.812   5.499   6.928  1.2206  1.2822  0.7480
24133SOL     OW72976   3.752   9.604   5.339 -0.3362 -0.4724  0.4573
24133SOL    HW172977   3.757   9.524   5.392 -1.8679 -0.7915  0.1549
24133SOL    HW272978   3.753   9.573   5.249 -0.6662 -0.1360  0.3353
24134SOL     OW72979   3.463   6.163   9.648 -0.2496 -0.4819  0.8528
24134SOL    HW172980   3.401   6.157   9.575 -0.2189 -0.2970  0.8126
24134SOL    HW272981   3.421   6.221   9.711  0.0483 -0.0569  0.6612
24135SOL     OW72982   2.922   0.273   1.409  0.4622 -0.1907  0.0482
24135SOL    HW172983   2.909   0.362   1.376  1.3410 -0.3748 -0.8269
24135SOL    HW272984   2.908   0.217   1.334 -2.0145 -0.9825  1.0000
24136SOL     OW72985   7.380   0.181   8.646 -0.0467  0.6186 -0.5086
24136SOL    HW172986   7.403   0.218   8.561  0.7215  0.7510 -0.2502
24136SOL    HW272987   7.296   0.221   8.667  0.9773  2.6583 -0.0097
24137SOL     OW72988   0.764   8.308   6.626  0.0697 -0.1281  0.0236
24137SOL    HW172989   0.793   8.391   6.664  2.7119 -0.2579 -1.4460
24137SOL    HW272990   0.744   8.329   6.535  0.6969 -1.0745 -0.3439
24138SOL     OW72991   1.195   3.690   6.942 -0.0207 -0.3959  0.4722
24138SOL    HW172992   1.283   3.657   6.962 -0.3569 -0.7638  1.3681
24138SOL    HW272993   1.209   3.781   6.917  0.6720 -0.5964  0.0822
24139SOL     OW72994   6.407   1.540   1.175  0.0947  0.2291  0.3210
24139SOL    HW172995   6.493   1.531   1.135  0.7250 -0.3990  1.7316
24139SOL    HW272996   6.402   1.632   1.202  0.4777  0.1908  0.5327
24140SOL     OW72997   6.619   1.622   3.485  0.2545 -0.4207  0.6737
24140SOL    HW172998   6.547   1.586   3.433 -0.3621  2.1417 -0.4360
24140SOL    HW272999   6.693   1.625   3.424  0.3224  0.0495  0.7723
24141SOL     OW73000   3.795   7.064   2.475  0.3693 -0.1674  0.5148
24141SOL    HW173001   3.786   7.045   2.568  0.0891  1.7030  0.9122
24141SOL    HW273002   3.888   7.046   2.456  0.3560 -0.8462  1.0692
24142SOL     OW73003   7.085   8.933   1.085 -0.3047 -0.4253 -0.2354
24142SOL    HW173004   7.134   8.981   1.152 -0.8028 -1.1978  0.7000
24142SOL    HW273005   7.136   8.946   1.005 -0.4593  1.6986 -0.0367
24143SOL     OW73006   8.307   1.258   6.855  0.6631 -0.2486 -0.5392
24143SOL    HW173007   8.324   1.344   6.894 -1.1269 -0.5691  1.1280
24143SOL    HW273008   8.212   1.248   6.862  0.8792 -2.5287 -0.3176
24144SOL     OW73009   5.614   3.573   1.884 -0.1029 -0.3838  0.5272
24144SOL    HW173010   5.641   3.489   1.922  0.5856 -0.0774  0.7242
24144SOL    HW273011   5.572   3.620   1.956 -0.4265 -0.5224  0.4342
24145SOL     OW73012   8.934   6.830   0.243 -0.1057  0.4819 -0.0782
24145SOL    HW173013   8.969   6.753   0.198  1.0284  0.8705  0.1069
24145SOL    HW273014   8.913   6.799   0.331  2.3163  0.8139  0.6796
24146SOL     OW73015   5.732   2.511   0.888 -0.0215 -0.3673  0.1928
24146SOL    HW173016   5.682   2.430   0.899  0.2200 -0.6328 -0.5937
24146SOL    HW273017   5.667   2.581   0.895 -0.2553 -0.6297  0.7213
24147SOL     OW73018   8.603   0.728   0.628 -0.0629 -0.3378 -0.4010
24147SOL    HW173019   8.542   0.727   0.554 -3.4918  2.1470  2.0431
24147SOL    HW273020   8.635   0.818   0.631 -2.3181  0.5300  2.6099
24148SOL     OW73021   3.952   3.270   5.108  0.4564  0.4100  0.0032
24148SOL    HW173022   3.971   3.308   5.023  1.2533  0.0604  0.0117
24148SOL    HW273023   4.028   3.213   5.126  0.6284  1.0088  1.2497
24149SOL     OW73024   5.947   9.599   5.215  0.0163  0.2248  0.2371
24149SOL    HW173025   5.973   9.639   5.299 -0.4361  1.5014 -0.2059
24149SOL    HW273026   5.965   9.506   5.226 -0.8369  0.2354  2.0715
24150SOL     OW73027   5.006   0.736   1.528  0.4576  0.2418 -0.7287
24150SOL    HW173028   4.924   0.707   1.570  0.7255  0.3462 -0.1191
24150SOL    HW273029   5.004   0.831   1.536  1.2881  0.1739  0.5592
24151SOL     OW73030   3.764   5.666   5.248 -0.6708 -0.1854 -0.2945
24151SOL    HW173031   3.780   5.573   5.260 -3.0425 -0.4250  1.7646
24151SOL    HW273032   3.791   5.706   5.330  1.1400  1.1490 -1.4538
24152SOL     OW73033   4.910   5.602   9.536  0.0394  0.7884 -0.7180
24152SOL    HW173034   4.906   5.527   9.477 -2.6408  0.2415  0.0436
24152SOL    HW273035   4.832   5.654   9.515 -0.1859  1.3436  1.3073
24153SOL     OW73036   7.965   6.390   4.152  0.1003  0.0272 -0.3175
24153SOL    HW173037   7.916   6.312   4.180 -0.4012  0.7529  0.9127
24153SOL    HW273038   7.974   6.442   4.232  2.8122 -0.0125 -0.5087
24154SOL     OW73039   5.944   8.834   3.928 -0.3585  0.1386 -0.9858
24154SOL    HW173040   5.935   8.927   3.905  0.3227  0.9910  1.7933
24154SOL    HW273041   6.037   8.824   3.949 -0.1540 -1.5469 -2.5020
24155SOL     OW73042   2.639   5.145   6.464 -0.0167  0.1880  0.1004
24155SOL    HW173043   2.675   5.073   6.412  0.3209 -0.1271  0.7484
24155SOL    HW273044   2.606   5.208   6.400  1.9583  0.6259 -0.5506
24156SOL     OW73045   9.757   3.508   8.247  0.1717 -0.1263 -0.0301
24156SOL    HW173046   9.768   3.515   8.153 -0.7229 -0.2284 -0.1476
24156SOL    HW273047   9.696   3.578   8.270  1.6684  0.9844  0.7274
24157SOL     OW73048   6.809   0.505   2.434  0.3446 -0.0266  0.5631
24157SOL    HW173049   6.870   0.445   2.391 -0.1261  0.4322 -0.7996
24157SOL    HW273050   6.735   0.511   2.375  2.0128  5.0699 -1.6384
24158SOL     OW73051   8.567   2.397   8.647  0.3226  0.1082  0.3966
24158SOL    HW173052   8.610   2.326   8.694  0.3339 -1.8183 -2.2676
24158SOL    HW273053   8.520   2.354   8.575 -0.2724  2.7355 -0.9462
24159SOL     OW73054   9.398   6.056   8.932 -0.0203 -0.3394 -0.3576
24159SOL    HW173055   9.360   6.134   8.971  0.2598 -0.8539  1.0186
24159SOL    HW273056   9.341   5.984   8.960  0.8813 -0.8768  0.1491
24160SOL     OW73057   1.666   0.898   3.049 -0.0562 -0.2145 -0.4621
24160SOL    HW173058   1.670   0.888   3.144  1.4166  0.5247 -0.4151
24160SOL    HW273059   1.756   0.884   3.020 -0.1792  1.1113 -1.5762
24161SOL     OW73060   4.861   9.317   5.584  0.3272 -0.2406  0.1327
24161SOL    HW173061   4.865   9.221   5.586  1.6886 -0.2150  0.0167
24161SOL    HW273062   4.785   9.339   5.637 -0.8386 -1.4154 -0.9813
24162SOL     OW73063   9.556   6.384   7.736 -0.4286 -0.0279 -0.0441
24162SOL    HW173064   9.625   6.386   7.803 -1.0997  0.2794  0.6578
24162SOL    HW273065   9.531   6.476   7.725 -0.8825 -0.1562 -0.1146
24163SOL     OW73066   8.215   4.423   8.078 -0.3659  0.7599  0.5851
24163SOL    HW173067   8.242   4.452   7.991 -0.2076  1.2402  0.7918
24163SOL    HW273068   8.289   4.446   8.135  1.3492 -3.1067  0.2430
24164SOL     OW73069   4.126   5.475   3.499  0.2349  0.0150 -0.7126
24164SOL    HW173070   4.097   5.512   3.582  3.0992  0.3586  0.2306
24164SOL    HW273071   4.133   5.550   3.440  1.4193  0.3042 -0.2284
24165SOL     OW73072   1.565   0.812   1.432 -0.1975  0.1591  0.2816
24165SOL    HW173073   1.478   0.777   1.417 -0.7906  1.3437  0.7876
24165SOL    HW273074   1.623   0.758   1.379 -1.6273  1.4009 -2.8037
24166SOL     OW73075   8.699   8.360   8.820 -0.3894  0.3266  0.0149
24166SOL    HW173076   8.698   8.269   8.850  0.6417  0.5498  0.7484
24166SOL    HW273077   8.792   8.382   8.813 -0.6199  0.9717 -1.2749
24167SOL     OW73078   9.042   4.488   8.174 -0.1314 -0.1157  0.1671
24167SOL    HW173079   9.073   4.424   8.238  0.1810  1.2792  1.4615
24167SOL    HW273080   8.954   4.511   8.204 -0.0523  0.4150 -0.0002
24168SOL     OW73081   3.173   2.918   7.985 -0.1148  0.1466 -0.9846
24168SOL    HW173082   3.226   2.938   7.908  1.5647 -2.1421 -0.5323
24168SOL    HW273083   3.237   2.898   8.053 -1.5712  0.6976  0.6309
24169SOL     OW73084   5.422   2.653   7.282 -0.0685 -0.0217 -0.6941
24169SOL    HW173085   5.500   2.678   7.332  0.3350  1.3287 -1.9300
24169SOL    HW273086   5.450   2.657   7.191 -1.3828 -0.2971 -1.1312
24170SOL     OW73087   5.593   0.343   8.110  0.7829 -0.1937 -0.2262
24170SOL    HW173088   5.630   0.420   8.155  0.9616 -1.1796  1.3810
24170SOL    HW273089   5.525   0.380   8.053  0.7117  1.1498  0.6644
24171SOL     OW73090   1.047   0.526   9.893 -0.4040  0.0853 -0.2268
24171SOL    HW173091   1.046   0.533   9.797  0.7265  1.0990 -0.1869
24171SOL    HW273092   1.038   0.432   9.910 -0.0888 -0.1643 -1.3421
24172SOL     OW73093   1.960   2.169   8.957 -0.1947 -0.3555 -0.1743
24172SOL    HW173094   2.023   2.144   9.025  0.6480  0.1349 -0.7676
24172SOL    HW273095   1.992   2.126   8.878  0.1111  0.9079 -0.7596
24173SOL     OW73096   1.772   4.129   9.063 -0.1602  0.1922  0.7885
24173SOL    HW173097   1.689   4.171   9.088 -1.5000 -1.2207 -0.9850
24173SOL    HW273098   1.760   4.037   9.083  0.8646 -0.0897  0.1812
24174SOL     OW73099   2.384   3.587   5.348 -0.1511  0.2115  0.3078
24174SOL    HW173100   2.450   3.646   5.384 -0.2206  1.3354 -1.2953
24174SOL    HW273101   2.432   3.509   5.321 -0.0801 -0.6160  2.6024
24175SOL     OW73102   5.389   0.124   2.112  0.1051  0.1611 -0.0423
24175SOL    HW173103   5.476   0.096   2.142 -0.5179  0.2950  2.0604
24175SOL    HW273104   5.343   0.149   2.193 -2.2190 -0.8009 -0.9841
24176SOL     OW73105   0.449   2.500   9.785 -0.1646 -0.9842 -0.1553
24176SOL    HW173106   0.409   2.443   9.720 -0.1993 -0.5649 -0.4986
24176SOL    HW273107   0.487   2.572   9.735 -0.4107 -0.5291  0.3063
24177SOL     OW73108   4.420   1.473   2.429 -0.4495 -1.0546 -0.0772
24177SOL    HW173109   4.404   1.423   2.510  1.4355  0.1023  1.0819
24177SOL    HW273110   4.462   1.410   2.371  1.8163 -0.9791  1.3381
24178SOL     OW73111   9.991   7.741   8.048  0.9270 -0.0172 -0.2334
24178SOL    HW173112   9.952   7.661   8.083  0.0933  0.8113  0.8029
24178SOL    HW273113   9.941   7.759   7.969  1.5221 -0.8330 -0.8147
24179SOL     OW73114   6.363   9.129   1.167  0.2458  0.2712 -0.2550
24179SOL    HW173115   6.447   9.158   1.132  0.4107  0.6163  0.4143
24179SOL    HW273116   6.371   9.141   1.262 -0.9181  1.2937 -0.2624
24180SOL     OW73117   1.615   7.229   1.360 -0.4545 -0.9562  0.0950
24180SOL    HW173118   1.536   7.217   1.308 -0.0010 -0.3705 -0.7629
24180SOL    HW273119   1.621   7.323   1.374  1.3680 -0.6749 -1.9865
24181SOL     OW73120   1.684   2.787   0.017  0.5223  0.3031  0.1208
24181SOL    HW173121   1.608   2.804   0.073  0.1071  0.4289 -0.4690
24181SOL    HW273122   1.668   2.839  -0.062  2.2808  2.0574  0.8622
24182SOL     OW73123   9.627   4.608   7.917 -0.3241  0.4647 -0.2076
24182SOL    HW173124   9.551   4.554   7.938  0.5768  0.2122  3.0187
24182SOL    HW273125   9.615   4.687   7.971  0.8320  1.2146 -1.0037
24183SOL     OW73126   7.675   6.442   1.470 -0.2977  0.1375 -0.3242
24183SOL    HW173127   7.594   6.427   1.422 -0.8045  0.4257  0.4388
24183SOL    HW273128   7.661   6.524   1.516  0.0143 -0.3647  0.6894
24184SOL     OW73129   0.474   0.400   3.597  0.1950 -0.0162 -0.1401
24184SOL    HW173130   0.446   0.490   3.581  0.5204  0.0567 -0.3173
24184SOL    HW273131   0.564   0.397   3.564 -0.2376 -0.7444 -1.3109
24185SOL     OW73132   6.186   0.964   1.896  0.5899  0.1739  0.2809
24185SOL    HW173133   6.271   1.008   1.903 -0.5206  2.3154  1.2737
24185SOL    HW273134   6.159   0.979   1.805  0.9487  0.1571  0.1732
24186SOL     OW73135   9.090   9.488   4.563 -0.4313 -0.2237 -0.6010
24186SOL    HW173136   9.113   9.546   4.490 -0.4033  0.7236  0.1426
24186SOL    HW273137   9.015   9.438   4.531 -0.6222  0.4052 -1.1730
24187SOL     OW73138   3.016   3.128   2.948  0.0084 -0.4104 -0.3117
24187SOL    HW173139   3.005   3.044   2.992  0.4391 -1.0908 -1.4537
24187SOL    HW273140   3.108   3.151   2.961 -0.1592  0.0021  0.1827
24188SOL     OW73141   2.484   4.025   9.011  0.3031 -0.4340  0.3195
24188SOL    HW173142   2.514   4.048   9.099 -1.2912  0.8475  0.5918
24188SOL    HW273143   2.522   3.939   8.994  0.9467 -0.5494  2.1121
24189SOL     OW73144   0.146   8.316   1.383  0.2345 -0.5204  0.2581
24189SOL    HW173145   0.156   8.384   1.317 -1.8420 -0.2898  0.1024
24189SOL    HW273146   0.084   8.254   1.344  1.3177 -1.9895  0.8001
24190SOL     OW73147   9.109   1.028   6.648 -0.2794  1.0167 -0.2466
24190SOL    HW173148   9.156   1.111   6.639 -0.8581  1.4811  0.8625
24190SOL    HW273149   9.176   0.961   6.632  0.5532  1.6765  0.3916
24191SOL     OW73150   8.118   8.711   4.219 -0.2537  0.7310  0.3669
24191SOL    HW173151   8.207   8.746   4.222 -0.0274  0.2211 -0.1923
24191SOL    HW273152   8.112   8.669   4.133  0.1084 -2.2087  1.6538
24192SOL     OW73153   8.274   1.391   2.303  0.6839 -0.1876 -0.0451
24192SOL    HW173154   8.207   1.391   2.234  0.1535  0.5121  0.4463
24192SOL    HW273155   8.225   1.370   2.383  0.8264  1.5039  0.5100
24193SOL     OW73156   7.056   4.585   5.355  0.4500  0.1723  0.5418
24193SOL    HW173157   6.978   4.531   5.368 -0.4107  0.5159 -2.3893
24193SOL    HW273158   7.116   4.528   5.306  0.7042  0.9209 -0.0313
24194SOL     OW73159   9.812   9.911   2.458  0.1682 -0.4545  0.7106
24194SOL    HW173160   9.907   9.911   2.472  0.0939 -0.1164  1.2276
24194SOL    HW273161   9.790   9.819   2.445  0.5925 -0.5146  0.3928
24195SOL     OW73162   5.527   9.273   3.835  0.9758 -0.0884 -0.7640
24195SOL    HW173163   5.549   9.199   3.892  1.7294  0.8403  0.2096
24195SOL    HW273164   5.433   9.266   3.821  0.7816 -0.4185  0.5288
24196SOL     OW73165   6.295   5.524   1.095  0.1789 -0.4287  0.1482
24196SOL    HW173166   6.369   5.577   1.066 -0.6933  1.1189  0.6683
24196SOL    HW273167   6.264   5.481   1.015  0.7288  0.0638 -0.3386
24197SOL     OW73168   7.318   3.152   8.506  0.6031  0.4109  0.0787
24197SOL    HW173169   7.411   3.173   8.501  0.8929 -0.6461  0.6680
24197SOL    HW273170   7.278   3.228   8.547  1.5942 -0.0959  2.0885
24198SOL     OW73171   1.461   4.858   1.631 -0.5915  0.4607  0.2003
24198SOL    HW173172   1.504   4.926   1.579  0.2739  0.4931  0.9311
24198SOL    HW273173   1.515   4.850   1.710 -0.3880 -1.4291 -0.0796
24199SOL     OW73174   8.567   0.975   7.556 -0.0707 -0.1493 -0.4166
24199SOL    HW173175   8.552   0.908   7.489  1.1060 -0.3992 -0.4453
24199SOL    HW273176   8.596   1.052   7.506  0.1124 -0.1119 -0.2531
24200SOL     OW73177   8.990   6.149   2.469  0.2849  0.3427 -0.0762
24200SOL    HW173178   8.911   6.096   2.481  0.4448 -0.6686 -2.8309
24200SOL    HW273179   8.970   6.232   2.514 -1.1138 -0.9440  1.8420
24201SOL     OW73180   4.073   4.515   1.764  0.1736 -0.0548 -0.3276
24201SOL    HW173181   4.145   4.529   1.826  0.1925 -0.5388 -0.2375
24201SOL    HW273182   4.002   4.478   1.817  0.9576 -2.7076 -0.9391
24202SOL     OW73183   5.043   2.153   1.642 -0.8616  0.3008 -0.0937
24202SOL    HW173184   5.009   2.219   1.581 -0.8862  0.4587  0.0932
24202SOL    HW273185   4.970   2.135   1.701 -0.8018  0.2252 -0.0432
24203SOL     OW73186   3.040   2.031   4.650  0.2114 -0.3370  0.8355
24203SOL    HW173187   3.073   2.110   4.608 -1.6744  0.4105  0.6867
24203SOL    HW273188   3.118   1.976   4.661  1.1906  0.5349 -1.2022
24204SOL     OW73189   3.125   5.503   1.950 -0.0108  0.3452 -0.5364
24204SOL    HW173190   3.169   5.457   1.879  1.5991  1.6141 -0.4187
24204SOL    HW273191   3.079   5.575   1.908 -0.8964 -0.2052 -0.5174
24205SOL     OW73192   9.342   1.601   5.368 -0.7781  0.1235  0.2282
24205SOL    HW173193   9.388   1.684   5.350  0.6035 -0.9709 -1.7612
24205SOL    HW273194   9.256   1.612   5.328 -0.0906  0.1574 -1.3458
24206SOL     OW73195   7.512   0.455   3.339 -0.3793  0.5258  0.1546
24206SOL    HW173196   7.441   0.403   3.301  0.1279  0.2086 -0.3819
24206SOL    HW273197   7.471   0.504   3.410 -0.7721 -1.0325  1.0530
24207SOL     OW73198   5.619   4.599   3.477  0.0442 -0.0224  0.0484
24207SOL    HW173199   5.637   4.693   3.479  1.1346 -0.2165 -0.0862
24207SOL    HW273200   5.684   4.561   3.536  1.2116 -0.9170 -1.7138
24208SOL     OW73201   5.614   0.708   5.360  0.2884 -0.2091 -0.5808
24208SOL    HW173202   5.698   0.751   5.348 -0.2814  0.7496 -1.2499
24208SOL    HW273203   5.613   0.683   5.452  2.1159 -2.0276 -0.9909
24209SOL     OW73204   4.629   2.211   6.579  0.0957 -0.0944  0.0217
24209SOL    HW173205   4.601   2.223   6.669  1.8049 -0.2073  0.6033
24209SOL    HW273206   4.657   2.299   6.551 -0.1539 -0.1144 -0.2924
24210SOL     OW73207   9.923   3.192   9.448  0.3548 -0.4402 -0.0524
24210SOL    HW173208   9.929   3.162   9.357  1.4145  0.6307 -0.3675
24210SOL    HW273209  10.008   3.233   9.465 -0.6374  1.4636  0.6353
24211SOL     OW73210   5.262   6.767   7.797 -0.1414 -0.2681  0.2331
24211SOL    HW173211   5.235   6.710   7.869 -1.0880  0.2352  0.2857
24211SOL    HW273212   5.231   6.854   7.822  1.2073  0.2767  0.1099
24212SOL     OW73213   6.398   2.379   0.133 -0.4294 -0.2529 -0.4267
24212SOL    HW173214   6.422   2.292   0.166 -0.4074 -0.6085 -1.3347
24212SOL    HW273215   6.421   2.439   0.204 -1.6212 -1.1035  0.7187
24213SOL     OW73216   9.143   7.785   5.199 -0.3338  0.1610  0.3285
24213SOL    HW173217   9.146   7.843   5.123  0.2373 -0.6698 -0.3003
24213SOL    HW273218   9.058   7.741   5.193  0.2797 -0.9436 -0.6430
24214SOL     OW73219   5.213   9.227   8.977  0.3836 -0.0104 -0.2552
24214SOL    HW173220   5.269   9.296   9.012 -1.0866  1.3056 -0.4001
24214SOL    HW273221   5.163   9.195   9.053 -0.5640  0.6851 -0.5635
24215SOL     OW73222   6.952   6.013   8.882 -0.0623  0.3395  0.1292
24215SOL    HW173223   6.910   6.089   8.842  2.0053  1.5114  0.0294
24215SOL    HW273224   6.891   5.941   8.868 -0.8949  1.4053 -2.2075
24216SOL     OW73225   9.628   0.922   4.069 -0.2781 -0.1587 -0.5212
24216SOL    HW173226   9.709   0.954   4.030 -0.1589 -0.0713 -0.2031
24216SOL    HW273227   9.560   0.980   4.032  0.0203  0.9650  0.6154
24217SOL     OW73228   5.257   6.798   9.657 -0.3545 -0.0002  0.9238
24217SOL    HW173229   5.207   6.718   9.675 -0.4150 -0.1000  0.3309
24217SOL    HW273230   5.198   6.852   9.605 -0.2760  0.3902  1.2348
24218SOL     OW73231   8.427   2.097   1.756  0.0134 -0.6745  0.3994
24218SOL    HW173232   8.483   2.131   1.686  0.6911 -2.0690  0.2248
24218SOL    HW273233   8.468   2.127   1.837 -0.1551  0.0359  0.2221
24219SOL     OW73234   4.997   3.831   0.207 -0.0781  0.3880  0.0921
24219SOL    HW173235   4.903   3.843   0.215 -0.1599 -0.1795  0.0086
24219SOL    HW273236   5.034   3.880   0.280 -0.3358  1.8684 -0.7314
24220SOL     OW73237   3.523   5.993   6.281  0.0455  0.4229  0.3022
24220SOL    HW173238   3.535   5.900   6.302  1.3253  0.1078 -1.5914
24220SOL    HW273239   3.437   5.998   6.241 -0.2790  0.1787  0.9467
24221SOL     OW73240   6.607   1.068   7.374  0.5784 -0.2008 -0.1773
24221SOL    HW173241   6.648   1.145   7.412 -1.4208  0.6085  0.4781
24221SOL    HW273242   6.570   1.098   7.291  0.5681 -0.6797 -0.3524
24222SOL     OW73243   4.873   4.317   2.289  0.2424  0.1014 -0.2100
24222SOL    HW173244   4.877   4.243   2.228 -1.2468 -0.8338  0.7646
24222SOL    HW273245   4.963   4.328   2.319  0.8356 -0.0211 -1.8266
24223SOL     OW73246   6.530   9.290   6.135 -0.5204  0.0392 -0.1248
24223SOL    HW173247   6.589   9.360   6.164 -0.5859  0.1719 -0.3074
24223SOL    HW273248   6.445   9.332   6.129 -0.4420  0.0997 -0.8465
24224SOL     OW73249   5.836   4.838   9.757  0.2938 -0.6218 -0.0892
24224SOL    HW173250   5.857   4.869   9.845 -0.5477  0.6245 -0.2998
24224SOL    HW273251   5.876   4.904   9.699 -1.3382 -0.0081 -0.5579
24225SOL     OW73252   4.319   5.716   2.292  0.0980 -0.2058  0.0680
24225SOL    HW173253   4.229   5.745   2.275  0.6645  1.6229 -0.0784
24225SOL    HW273254   4.342   5.758   2.375  0.4532 -1.6015  0.7014
24226SOL     OW73255   6.199   8.903   3.617  0.0630 -0.4622 -0.7208
24226SOL    HW173256   6.148   8.827   3.644  0.8306 -0.7337  0.0283
24226SOL    HW273257   6.149   8.978   3.649 -0.3059 -0.6853 -0.7733
24227SOL     OW73258   1.085   7.920   5.922  0.0034  0.4715 -0.4470
24227SOL    HW173259   1.159   7.957   5.874  0.0842  0.6564 -0.1807
24227SOL    HW273260   1.063   7.986   5.987  1.6605 -0.9175  1.6446
24228SOL     OW73261   2.728   2.217   0.125 -0.1363 -0.0530  0.3291
24228SOL    HW173262   2.634   2.233   0.115 -0.1613 -0.6576 -0.5622
24228SOL    HW273263   2.747   2.241   0.216 -0.6672  2.3284 -0.1317
24229SOL     OW73264   2.086   2.796   4.775  0.4592  0.3471 -0.6676
24229SOL    HW173265   2.035   2.725   4.735 -1.0981  1.0434 -0.0015
24229SOL    HW273266   2.156   2.813   4.712  1.3550 -2.2764 -0.4942
24230SOL     OW73267   0.271   0.824   2.410  0.7083 -0.1178 -0.2377
24230SOL    HW173268   0.213   0.762   2.366  1.2179 -2.1322  1.7562
24230SOL    HW273269   0.212   0.885   2.454 -0.1899 -3.1659  3.2343
24231SOL     OW73270   6.098   9.928   2.210 -0.1459  0.2407 -0.2570
24231SOL    HW173271   6.028   9.948   2.148 -0.7411 -0.6670  0.1005
24231SOL    HW273272   6.178   9.927   2.156 -0.3145  1.7366 -0.5864
24232SOL     OW73273   8.505   2.617   0.901 -0.1347  0.2273 -0.4820
24232SOL    HW173274   8.464   2.553   0.843  4.3366 -0.8511 -2.8954
24232SOL    HW273275   8.513   2.572   0.985  1.4811 -1.8869 -1.6879
24233SOL     OW73276   7.861   1.754   3.883  0.3997 -0.3071 -0.2208
24233SOL    HW173277   7.902   1.758   3.970 -0.4642  1.0960  0.1580
24233SOL    HW273278   7.775   1.715   3.900  0.3740 -0.3772 -0.5094
24234SOL     OW73279   2.743   3.570   7.622 -0.1918  0.6068 -0.5846
24234SOL    HW173280   2.788   3.496   7.663 -2.3849  0.1790  1.2555
24234SOL    HW273281   2.753   3.554   7.528  0.1097 -1.5867 -0.2428
24235SOL     OW73282   7.740   8.317   9.891 -0.4560 -0.2857 -0.1895
24235SOL    HW173283   7.713   8.226   9.878 -0.1013 -0.6019  1.1411
24235SOL    HW273284   7.767   8.321   9.983 -1.4760  1.4129  0.0805
24236SOL     OW73285   3.956   0.915   1.130  0.2892 -0.0519  0.1836
24236SOL    HW173286   3.904   0.948   1.056 -1.5266 -0.1436  1.3575
24236SOL    HW273287   3.969   0.991   1.186  0.2245 -0.3175  0.5652
24237SOL     OW73288   6.556   0.662   7.201  0.1193  0.2674  0.2356
24237SOL    HW173289   6.633   0.720   7.200 -0.3601  0.9441  1.3527
24237SOL    HW273290   6.568   0.606   7.277  2.5766 -4.0237 -2.8257
24238SOL     OW73291   0.050   1.766   2.676 -0.2089 -0.1946 -0.5433
24238SOL    HW173292   0.037   1.846   2.727  0.4546  0.5086 -1.4438
24238SOL    HW273293   0.091   1.705   2.737 -0.8004  0.1036  0.1766
24239SOL     OW73294   1.968   5.465   8.182  0.0748  0.2071  0.5876
24239SOL    HW173295   1.978   5.462   8.087  0.6575  1.3151  0.6047
24239SOL    HW273296   2.057   5.455   8.216  0.0783  1.3936  0.9674
24240SOL     OW73297   5.705   0.391   0.983 -0.0131  0.0155 -0.2601
24240SOL    HW173298   5.656   0.443   0.919 -0.5226 -1.8155 -1.4289
24240SOL    HW273299   5.640   0.364   1.047 -0.1333 -0.7383 -0.6962
24241SOL     OW73300   3.967   4.247   9.683 -0.2062  0.2688  0.2507
24241SOL    HW173301   3.949   4.334   9.719  1.0227  0.1934  1.1143
24241SOL    HW273302   4.054   4.225   9.716 -0.0638 -0.8609 -0.8001
24242SOL     OW73303   3.701   3.501   8.893  0.1698 -0.4711 -0.0537
24242SOL    HW173304   3.675   3.431   8.953 -1.1540  0.7756  0.8746
24242SOL    HW273305   3.620   3.547   8.872  1.1740  1.7010  0.5235
24243SOL     OW73306   3.310   3.311   4.752 -0.2605  0.5718  0.3729
24243SOL    HW173307   3.335   3.361   4.673 -1.6067 -1.2950 -1.3361
24243SOL    HW273308   3.393   3.288   4.793  0.4841  1.6144 -0.4842
24244SOL     OW73309   3.935   2.985   0.080 -0.8913 -0.2931  0.6046
24244SOL    HW173310   4.024   2.995   0.112  0.2889 -2.4204 -1.6967
24244SOL    HW273311   3.921   3.062   0.025 -0.1371 -0.3536  0.3145
24245SOL     OW73312   1.937   7.755   2.690  0.5989  0.0483  0.4430
24245SOL    HW173313   2.017   7.752   2.742  2.0796  0.3716 -1.6404
24245SOL    HW273314   1.877   7.695   2.733  2.0448 -0.3913  1.9446
24246SOL     OW73315   8.007   7.289   9.253  0.0357 -0.3882 -0.3601
24246SOL    HW173316   8.054   7.369   9.275  0.9856 -1.1324  0.4213
24246SOL    HW273317   7.914   7.313   9.259  0.2713  1.2248 -2.4175
24247SOL     OW73318   2.785   8.677   2.650  0.2122 -0.3551  0.0029
24247SOL    HW173319   2.803   8.650   2.740  0.7811  0.4312  0.1318
24247SOL    HW273320   2.872   8.690   2.611  0.0416  2.7329  0.3947
24248SOL     OW73321   7.129   5.264   8.338 -0.4520 -0.0478 -0.3920
24248SOL    HW173322   7.212   5.293   8.374  0.4924 -1.2264 -1.5369
24248SOL    HW273323   7.080   5.345   8.321 -0.1892  0.6106  1.6785
24249SOL     OW73324   0.913   9.335   2.064  0.5269  0.3922 -0.0460
24249SOL    HW173325   0.995   9.288   2.075 -0.3714 -2.3825 -3.5624
24249SOL    HW273326   0.845   9.273   2.092 -0.5715  0.4990 -2.2629
24250SOL     OW73327   7.392   9.794   5.549  0.0980 -0.1598  0.1076
24250SOL    HW173328   7.351   9.861   5.495 -0.8297 -0.4834  0.4050
24250SOL    HW273329   7.320   9.745   5.587  0.7494 -0.5882  0.8310
24251SOL     OW73330   8.877   3.907   7.206 -0.6792  0.5662  0.2136
24251SOL    HW173331   8.814   3.943   7.143  0.9145  3.2496  0.0348
24251SOL    HW273332   8.867   3.962   7.284 -1.8911 -2.0563  2.0443
24252SOL     OW73333   0.110   9.599   7.963  0.0312 -0.2455  0.0406
24252SOL    HW173334   0.014   9.592   7.962 -0.1052  1.2118 -0.8155
24252SOL    HW273335   0.130   9.654   7.887  1.4083  1.0430  1.2715
24253SOL     OW73336   0.012   6.499   8.445 -0.9229 -0.2100  0.3782
24253SOL    HW173337  -0.038   6.511   8.526 -1.9469  1.0979 -0.4161
24253SOL    HW273338   0.090   6.554   8.457 -0.6974 -0.6011  0.7583
24254SOL     OW73339   8.683   7.076   9.675 -0.2030 -0.3244 -0.0740
24254SOL    HW173340   8.660   7.045   9.587  0.1751 -0.6725 -0.0527
24254SOL    HW273341   8.664   7.001   9.732 -3.3480  0.8283  0.6038
24255SOL     OW73342   9.859   6.075   7.960  0.1213  0.5460 -0.0023
24255SOL    HW173343   9.829   5.998   8.007  1.0193  0.5968  0.6652
24255SOL    HW273344   9.834   6.149   8.016  0.1017  0.6867 -0.1920
24256SOL     OW73345   2.833   2.958   7.811 -0.2579  0.4084  0.2213
24256SOL    HW173346   2.876   2.997   7.887  2.5572 -2.5681  0.3508
24256SOL    HW273347   2.846   3.022   7.741  3.0551  0.4364  0.7054
24257SOL     OW73348   6.087   3.825   8.858 -0.3627  0.0850  0.0699
24257SOL    HW173349   6.124   3.880   8.927 -0.9250  0.1291  0.3438
24257SOL    HW273350   6.096   3.736   8.891  3.7321 -0.4210 -1.8158
24258SOL     OW73351   9.467   0.140   8.430 -0.0575 -0.1748  0.3393
24258SOL    HW173352   9.404   0.129   8.501  0.6876 -0.0678  1.0350
24258SOL    HW273353   9.434   0.214   8.379  0.2959  0.8766  1.5822
24259SOL     OW73354   8.452   3.250   6.850 -0.2897  0.2079  0.5995
24259SOL    HW173355   8.535   3.268   6.806 -0.2158 -0.1256  0.6057
24259SOL    HW273356   8.471   3.181   6.913 -0.8908 -1.0336 -0.5046
24260SOL     OW73357   5.823   5.852   6.044  0.3031  0.6347 -0.3852
24260SOL    HW173358   5.862   5.771   6.078 -0.2627  0.5499  0.0719
24260SOL    HW273359   5.737   5.825   6.011 -0.2850  1.2079  0.6338
24261SOL     OW73360   6.577   9.315   8.892 -0.2073 -0.1944  0.0450
24261SOL    HW173361   6.592   9.309   8.798 -2.3595  0.4571 -0.4055
24261SOL    HW273362   6.606   9.403   8.916  1.3183 -0.7174  0.2431
24262SOL     OW73363   1.725   8.997   1.728 -0.0745 -0.1216 -0.6082
24262SOL    HW173364   1.645   9.026   1.683  0.3355  0.2083 -1.1504
24262SOL    HW273365   1.754   8.921   1.678 -0.5260 -0.7886  0.1261
24263SOL     OW73366   1.273   6.623   4.068 -0.1876 -0.2626 -0.2075
24263SOL    HW173367   1.293   6.530   4.072 -0.7903 -0.4089 -0.4864
24263SOL    HW273368   1.350   6.662   4.027 -0.1217 -0.7002 -0.5092
24264SOL     OW73369   5.550   1.335   9.796 -0.2182 -0.6397  0.6461
24264SOL    HW173370   5.534   1.368   9.707  0.2633  1.3325  1.2505
24264SOL    HW273371   5.483   1.268   9.808 -3.4229  2.2629  0.4324
24265SOL     OW73372   7.459   5.867   3.680  0.1179  0.5542  0.7980
24265SOL    HW173373   7.529   5.862   3.745 -0.1643 -0.5964  1.0420
24265SOL    HW273374   7.496   5.825   3.601 -0.3232 -0.1935  0.9749
24266SOL     OW73375   8.653   5.835   4.751  0.9454  0.2276 -0.2825
24266SOL    HW173376   8.563   5.803   4.754 -0.3112  3.3815  0.6660
24266SOL    HW273377   8.681   5.834   4.843  1.1197  1.0907 -0.3204
24267SOL     OW73378   1.803   6.630   1.708  0.0431  0.3729 -0.1549
24267SOL    HW173379   1.740   6.571   1.749  2.0050 -0.9123  1.2100
24267SOL    HW273380   1.764   6.652   1.623 -1.2960 -2.0579 -0.2631
24268SOL     OW73381   0.652   9.063   7.050  0.0937 -0.3827 -0.5149
24268SOL    HW173382   0.674   9.138   6.994 -0.0624  0.2922  0.3096
24268SOL    HW273383   0.736   9.024   7.073  0.1756 -0.4587 -0.9347
24269SOL     OW73384   7.253   2.618   1.111  0.1679  0.4118 -0.1965
24269SOL    HW173385   7.253   2.523   1.104  0.9905  0.2965  1.0455
24269SOL    HW273386   7.330   2.638   1.164 -0.7325  1.6839  0.6935
24270SOL     OW73387   0.636   3.796   2.055 -0.2190  0.2576  0.1718
24270SOL    HW173388   0.726   3.790   2.086  0.1245  1.5712 -0.4829
24270SOL    HW273389   0.583   3.759   2.126  0.8567 -0.9817  0.3490
24271SOL     OW73390   2.008   8.927   8.247  0.3645  0.1802  0.2281
24271SOL    HW173391   1.995   9.019   8.226  0.9615  0.4195  0.8967
24271SOL    HW273392   2.024   8.886   8.162 -0.4699  0.5862 -0.1370
24272SOL     OW73393   8.523   7.443   4.652  0.6805  0.6635  0.0015
24272SOL    HW173394   8.589   7.503   4.687  1.1996 -0.5998  1.2583
24272SOL    HW273395   8.549   7.430   4.561 -0.1176  3.2157 -0.6812
24273SOL     OW73396   8.803   5.786   7.944 -0.2418  0.3893 -0.3429
24273SOL    HW173397   8.825   5.703   7.986  0.3292 -0.0180 -1.3997
24273SOL    HW273398   8.876   5.844   7.966  0.8692 -0.2944 -2.0015
24274SOL     OW73399   6.371   4.309   8.286 -0.3418  0.3154  0.3441
24274SOL    HW173400   6.288   4.357   8.294 -1.7418 -1.7712 -0.5832
24274SOL    HW273401   6.384   4.299   8.192 -0.7370 -1.9809  0.4597
24275SOL     OW73402   2.038   4.388   2.865  0.3612 -0.4229  0.1646
24275SOL    HW173403   2.051   4.483   2.861  0.8748 -0.5463 -1.6643
24275SOL    HW273404   1.960   4.372   2.812  0.9437 -1.1277 -0.5020
24276SOL     OW73405   9.074   1.102   8.339 -0.5708 -0.2046  0.0813
24276SOL    HW173406   9.158   1.056   8.337 -0.7749 -0.5689 -0.7319
24276SOL    HW273407   9.085   1.174   8.278 -0.6988  0.0283  0.3337
24277SOL     OW73408   3.941   7.674   2.883 -0.0408  0.1255 -0.0974
24277SOL    HW173409   3.859   7.716   2.908 -1.1866 -1.5446 -0.8918
24277SOL    HW273410   3.932   7.657   2.789  1.5647  0.6032 -0.3765
24278SOL     OW73411   3.388   8.199   6.051 -0.2793  0.3068  0.3474
24278SOL    HW173412   3.348   8.113   6.065  0.4331 -0.2865 -1.0924
24278SOL    HW273413   3.385   8.241   6.137  0.7135 -1.7389  1.4441
24279SOL     OW73414   2.783   1.217   1.666 -0.0649  0.0848 -0.2587
24279SOL    HW173415   2.768   1.299   1.620 -1.2769 -0.7528 -1.4508
24279SOL    HW273416   2.848   1.171   1.614  3.0600  1.4976  2.0844
24280SOL     OW73417   1.196   7.263   8.163  0.0410  0.4619  0.2401
24280SOL    HW173418   1.182   7.169   8.176 -0.0321  0.6611  1.7650
24280SOL    HW273419   1.219   7.296   8.250 -1.3781  2.1015  0.0493
24281SOL     OW73420   6.617   8.969   5.410 -0.8856  0.2395  0.1995
24281SOL    HW173421   6.678   8.946   5.341  0.1754  0.2894  1.1028
24281SOL    HW273422   6.550   8.900   5.406 -0.1900 -0.4359 -0.0889
24282SOL     OW73423   5.665   7.403   6.633 -0.0403  0.1714  0.0414
24282SOL    HW173424   5.758   7.407   6.656 -0.6906 -1.1644  3.4575
24282SOL    HW273425   5.652   7.315   6.598 -0.3560 -0.4586  1.6636
24283SOL     OW73426   8.375   7.099   8.158  0.6254  0.0013  0.6039
24283SOL    HW173427   8.315   7.129   8.226  0.2937 -1.6559  1.0672
24283SOL    HW273428   8.322   7.093   8.079  1.0809  2.2453  0.0355
24284SOL     OW73429   8.352   4.060   8.799  0.2820  0.8399 -0.2552
24284SOL    HW173430   8.281   4.118   8.774 -0.2952 -0.2413 -1.1962
24284SOL    HW273431   8.373   4.085   8.889  0.6333  3.0564 -0.8917
24285SOL     OW73432   2.030   7.998   2.565 -0.5388 -0.2608  0.1513
24285SOL    HW173433   2.041   8.018   2.658 -3.2512  1.4939  0.1947
24285SOL    HW273434   2.029   7.903   2.561 -1.1532 -0.3791  2.0483
24286SOL     OW73435   6.868   3.370   6.745 -0.1310 -0.1917  0.3681
24286SOL    HW173436   6.816   3.352   6.823 -1.2023  1.0152 -0.0298
24286SOL    HW273437   6.852   3.463   6.727 -0.2699 -0.5518 -1.5388
24287SOL     OW73438   4.178   5.004   5.427 -0.5113  0.1584 -0.4283
24287SOL    HW173439   4.131   5.009   5.510  0.2542  0.8247 -0.0354
24287SOL    HW273440   4.187   5.095   5.398  0.7455  0.0614 -0.3833
24288SOL     OW73441   4.097   8.515   9.747  0.4579  0.0329 -0.1663
24288SOL    HW173442   4.162   8.582   9.725  1.8758 -0.8332  1.1635
24288SOL    HW273443   4.149   8.438   9.768 -1.0073 -0.6924  0.9689
24289SOL     OW73444   6.057   9.632   5.836 -0.0572  0.6258 -0.1132
24289SOL    HW173445   6.070   9.566   5.768  0.4888  1.0476 -0.4226
24289SOL    HW273446   5.989   9.690   5.801  1.4059  1.8382 -1.0737
24290SOL     OW73447   5.738   2.917   1.003 -0.0690  0.3769 -0.3315
24290SOL    HW173448   5.739   2.990   0.941 -0.4566 -0.9536 -1.9626
24290SOL    HW273449   5.656   2.872   0.985  0.3737 -0.7331  0.3379
24291SOL     OW73450   2.422   1.461   9.055  0.2092  0.8218 -0.1507
24291SOL    HW173451   2.368   1.520   9.109 -0.9153 -0.9402  0.7470
24291SOL    HW273452   2.395   1.481   8.965 -0.6268  1.2418  0.1729
24292SOL     OW73453   0.422   9.126   3.279  0.4087  0.0790  0.2313
24292SOL    HW173454   0.491   9.183   3.311 -0.6302  0.9324  1.0361
24292SOL    HW273455   0.342   9.159   3.321 -0.2613 -1.8514  0.5850
24293SOL     OW73456   6.853   7.350   9.604 -0.6380  0.4567  0.7424
24293SOL    HW173457   6.905   7.377   9.529 -1.5097 -0.6144 -0.2748
24293SOL    HW273458   6.913   7.299   9.658 -0.3218  0.2219  0.1706
24294SOL     OW73459   3.243   2.145   0.559  0.5431 -0.3796 -0.0412
24294SOL    HW173460   3.195   2.182   0.485  0.4455 -1.3455 -0.4730
24294SOL    HW273461   3.177   2.136   0.628 -0.2445 -2.7307 -0.9763
24295SOL     OW73462   7.851   0.365   3.591  0.5311 -0.4953  0.0839
24295SOL    HW173463   7.798   0.435   3.629  1.2852  0.9388 -1.3826
24295SOL    HW273464   7.787   0.303   3.556 -0.1518 -0.3965  1.1190
24296SOL     OW73465   2.731   2.152   7.746 -0.1860  0.1416 -0.0957
24296SOL    HW173466   2.827   2.159   7.741 -0.0353 -0.8699  1.0940
24296SOL    HW273467   2.714   2.117   7.834 -1.6076 -0.5151 -0.6131
24297SOL     OW73468   7.687   7.885   9.225 -0.3590  0.2158  0.2286
24297SOL    HW173469   7.595   7.862   9.238  0.0515 -1.1897  0.8452
24297SOL    HW273470   7.720   7.906   9.312 -0.2185  1.3104 -0.0677
24298SOL     OW73471   2.805   5.872   1.338 -0.1209  0.0614 -0.4184
24298SOL    HW173472   2.741   5.944   1.334  0.0303  0.8888  4.8705
24298SOL    HW273473   2.883   5.907   1.296 -0.7389  2.2439  0.1118
24299SOL     OW73474   7.200   7.933   4.249 -0.1690  0.8446 -0.0532
24299SOL    HW173475   7.246   7.963   4.328 -0.4235 -0.9141  0.8232
24299SOL    HW273476   7.116   7.977   4.251 -0.4708  0.2467  1.0983
24300SOL     OW73477   2.034   8.499   4.509 -0.3110  0.0850 -0.6819
24300SOL    HW173478   2.025   8.536   4.421 -1.1567 -0.3513 -0.7861
24300SOL    HW273479   2.101   8.432   4.500  0.4891  0.8604 -0.7151
24301SOL     OW73480   8.057   8.924   2.487 -0.4883  0.2210  0.2651
24301SOL    HW173481   7.967   8.957   2.487  0.3426  2.8032  1.6885
24301SOL    HW273482   8.106   8.988   2.435  0.8463 -0.0404  1.1447
24302SOL     OW73483   3.570   6.791   4.459 -0.1306  0.3231 -0.0565
24302SOL    HW173484   3.608   6.740   4.531 -2.0658  0.8349  1.4192
24302SOL    HW273485   3.630   6.778   4.386  2.6181  0.8076  1.9674
24303SOL     OW73486   8.536   1.645   2.195  0.5584  0.3659  0.2439
24303SOL    HW173487   8.502   1.650   2.106  0.5073  0.8508  0.2914
24303SOL    HW273488   8.477   1.698   2.247 -0.2648 -1.0784  0.8457
24304SOL     OW73489   2.144   9.334   6.521  0.1299 -0.3703 -0.2475
24304SOL    HW173490   2.119   9.299   6.607 -2.2008  2.5420  0.4013
24304SOL    HW273491   2.085   9.289   6.460 -0.6518  0.0568  0.1669
24305SOL     OW73492   1.896   1.638   2.969 -0.0888 -0.2853  0.0744
24305SOL    HW173493   1.901   1.587   2.888 -0.4447 -1.2188  0.6235
24305SOL    HW273494   1.961   1.708   2.957  1.4514 -1.6980 -0.1251
24306SOL     OW73495   5.419   3.025   9.080  0.4856 -0.2134 -0.1022
24306SOL    HW173496   5.441   2.933   9.093 -0.4191 -0.5223 -0.6820
24306SOL    HW273497   5.456   3.069   9.157  1.9549 -0.8713 -0.4094
24307SOL     OW73498   3.390   3.371   2.476  0.0826 -0.2243  0.2385
24307SOL    HW173499   3.466   3.364   2.418  0.7024  0.3312  0.9576
24307SOL    HW273500   3.379   3.466   2.489 -1.0760 -0.2715 -0.2953
24308SOL     OW73501   6.897   3.879   2.256 -0.6390 -0.0654  0.5527
24308SOL    HW173502   6.847   3.960   2.267 -0.1816  0.1416  1.1542
24308SOL    HW273503   6.843   3.812   2.298 -0.0173  0.3110  2.0106
24309SOL     OW73504   0.005   5.313   7.580 -0.2053 -0.1325 -0.1987
24309SOL    HW173505  -0.001   5.399   7.540 -1.0269 -0.3805 -0.6386
24309SOL    HW273506   0.097   5.305   7.607 -0.0571  0.7519 -0.4167
24310SOL     OW73507   8.206   7.341   2.958 -0.0198  0.5401  0.4502
24310SOL    HW173508   8.200   7.348   3.053 -1.7676 -2.0439  0.6131
24310SOL    HW273509   8.300   7.347   2.939  0.4341  0.1568  2.4266
24311SOL     OW73510   6.886   6.624   0.752  0.1387 -0.1383 -0.4391
24311SOL    HW173511   6.966   6.583   0.785  1.0534  0.7808 -1.4334
24311SOL    HW273512   6.898   6.626   0.657 -0.2382  1.6349 -0.4793
24312SOL     OW73513   6.734   3.551   8.015 -0.6098  0.2957  0.1815
24312SOL    HW173514   6.727   3.613   8.087 -0.1239  1.5475 -0.8199
24312SOL    HW273515   6.648   3.554   7.972 -0.8214 -0.2717  0.5544
24313SOL     OW73516   9.032   5.266   8.179  0.1326  0.4666  0.0990
24313SOL    HW173517   8.949   5.300   8.214 -0.3946 -0.1920 -0.4847
24313SOL    HW273518   9.099   5.314   8.227 -0.5868  2.3302 -0.6802
24314SOL     OW73519   9.891   9.086   2.344 -0.0466 -0.1614  0.4397
24314SOL    HW173520   9.799   9.073   2.367 -0.3087  2.9599  1.7110
24314SOL    HW273521   9.939   9.038   2.410 -0.8086  0.2100  1.2867
24315SOL     OW73522   9.154   1.684   6.974 -0.6557 -0.3975  0.3351
24315SOL    HW173523   9.148   1.725   6.888  2.5852 -0.8505 -0.2171
24315SOL    HW273524   9.221   1.733   7.020  0.2924 -2.4059  1.2184
24316SOL     OW73525   1.084   7.237   1.129 -0.7493  0.4159 -0.1387
24316SOL    HW173526   1.015   7.188   1.175 -1.4024  2.3270  1.0188
24316SOL    HW273527   1.040   7.277   1.055 -0.3238 -0.2590 -0.7798
24317SOL     OW73528   5.499   9.359   5.865 -0.3695 -0.1896  0.3843
24317SOL    HW173529   5.588   9.395   5.871 -0.3173 -0.5272  2.6083
24317SOL    HW273530   5.504   9.295   5.795  0.4561  1.5547 -1.2461
24318SOL     OW73531   1.130   4.179   5.574 -0.2999  0.2980 -0.2019
24318SOL    HW173532   1.114   4.272   5.554 -1.3587  0.2167  0.2446
24318SOL    HW273533   1.044   4.139   5.574 -0.2884 -0.0169  2.9592
24319SOL     OW73534   4.101   5.936   8.583 -0.5175  0.1861 -0.1348
24319SOL    HW173535   4.015   5.895   8.576 -0.1421 -0.9559  1.4752
24319SOL    HW273536   4.160   5.874   8.538 -0.1719 -0.3345  1.0083
24320SOL     OW73537   3.282   2.518   5.285  0.2682 -0.0519  0.4392
24320SOL    HW173538   3.292   2.561   5.370 -1.0491  0.7357  0.2267
24320SOL    HW273539   3.206   2.460   5.296 -0.7969  1.0799 -0.5474
24321SOL     OW73540   5.715   6.991   4.980 -0.2041  0.1644 -0.4714
24321SOL    HW173541   5.739   6.901   5.001  0.9243  0.4422 -0.5111
24321SOL    HW273542   5.795   7.041   4.995 -0.3234  0.9042 -2.1012
24322SOL     OW73543   1.998   9.300   7.096 -0.2104  0.6697  0.3838
24322SOL    HW173544   2.036   9.236   7.156 -0.9327 -0.4003 -0.2806
24322SOL    HW273545   1.913   9.322   7.134 -0.4756  0.3313 -0.0103
24323SOL     OW73546   2.549   8.054   7.530 -0.3213  0.0202 -0.1410
24323SOL    HW173547   2.555   7.959   7.521 -0.4822 -0.1023  0.9582
24323SOL    HW273548   2.551   8.070   7.624  5.3584  1.4633 -0.0879
24324SOL     OW73549   2.738   1.140   8.959  0.0843  0.3459 -0.1143
24324SOL    HW173550   2.739   1.105   9.048 -0.7488 -0.7269 -0.5070
24324SOL    HW273551   2.793   1.080   8.909 -1.6454 -0.6746 -0.8678
24325SOL     OW73552   1.685   5.270   2.373  0.4925 -0.1960  0.2321
24325SOL    HW173553   1.701   5.298   2.283  0.9106  0.5009  0.5210
24325SOL    HW273554   1.612   5.209   2.366  0.8267 -0.5170 -0.6381
24326SOL     OW73555   2.796   0.221   7.211  0.0401 -0.0413  0.1361
24326SOL    HW173556   2.760   0.278   7.278 -1.5499 -1.0302  0.1697
24326SOL    HW273557   2.870   0.270   7.175  0.4755  0.8228  2.0767
24327SOL     OW73558   7.713   6.086   0.426 -0.0526 -0.1524  0.0549
24327SOL    HW173559   7.620   6.104   0.413  0.0027 -0.8570 -1.6363
24327SOL    HW273560   7.757   6.167   0.400 -0.2162  1.0276  3.0554
24328SOL     OW73561   8.594   2.650   2.432 -0.0676 -0.0987 -0.6334
24328SOL    HW173562   8.676   2.699   2.437 -1.0035  1.4618  0.1537
24328SOL    HW273563   8.532   2.711   2.392 -1.1097 -0.8882 -0.2695
24329SOL     OW73564   7.619   9.982   6.214  0.7400  0.1960 -0.3193
24329SOL    HW173565   7.546   9.931   6.177  0.6107  0.7311 -0.8190
24329SOL    HW273566   7.607   9.975   6.309  1.1606 -1.3269 -0.3443
24330SOL     OW73567   4.925   0.289   6.330 -0.0331  0.8437  0.0439
24330SOL    HW173568   4.838   0.322   6.351  0.0947  0.5773  1.0729
24330SOL    HW273569   4.985   0.343   6.382  0.2038 -0.6738  1.4430
24331SOL     OW73570   1.869   5.468   7.147 -0.0541  0.0887 -1.0110
24331SOL    HW173571   1.777   5.483   7.123 -0.4609 -0.6486  0.0189
24331SOL    HW273572   1.866   5.391   7.205  1.1651  0.3005 -0.6518
24332SOL     OW73573   9.582   4.704   8.780 -0.4206  0.3264  0.0403
24332SOL    HW173574   9.666   4.689   8.738 -0.8397 -1.1159 -0.3519
24332SOL    HW273575   9.599   4.774   8.843  1.1909 -0.2248  0.2860
24333SOL     OW73576   1.739   0.935   0.857 -0.3846 -0.1295  0.6718
24333SOL    HW173577   1.675   0.863   0.851  0.1242 -0.5664  0.3984
24333SOL    HW273578   1.824   0.891   0.862 -0.1903  0.3924  2.7230
24334SOL     OW73579   1.284   4.251   5.794 -0.2889  0.1864  0.2598
24334SOL    HW173580   1.347   4.179   5.789 -0.1293  0.4481 -2.9435
24334SOL    HW273581   1.204   4.216   5.753 -0.1377  1.8370 -1.5665
24335SOL     OW73582   1.305   2.968   2.156  0.5571  0.5380 -0.2196
24335SOL    HW173583   1.299   3.004   2.067  3.2858  2.4728  0.2457
24335SOL    HW273584   1.227   3.001   2.201 -2.6771 -3.1028 -2.5380
24336SOL     OW73585   6.149   6.367   0.522 -0.1929  0.0986 -0.0897
24336SOL    HW173586   6.224   6.418   0.489  0.7099 -0.5900  0.8327
24336SOL    HW273587   6.189   6.293   0.566 -1.4587 -0.5949 -0.0737
24337SOL     OW73588   9.493   9.599   5.983 -0.1636 -0.0945 -0.3031
24337SOL    HW173589   9.496   9.689   5.951 -1.0562  0.3144  0.7076
24337SOL    HW273590   9.571   9.590   6.037 -0.3337  0.2439  0.0052
24338SOL     OW73591   7.724   9.789   9.177  0.1717 -0.4198 -0.0950
24338SOL    HW173592   7.679   9.725   9.123  1.0224  0.8457 -2.4900
24338SOL    HW273593   7.817   9.766   9.169  0.3191 -0.1825  0.8289
24339SOL     OW73594   2.165   8.938   8.761  0.7358 -0.3472  0.0543
24339SOL    HW173595   2.176   8.930   8.855 -1.7242 -1.3661  0.3336
24339SOL    HW273596   2.109   9.014   8.749  0.3834 -0.6792 -0.4976
24340SOL     OW73597   4.982   0.916   3.987  0.1673  0.0513  0.7566
24340SOL    HW173598   4.949   0.900   3.898  0.5260  1.8739  0.2492
24340SOL    HW273599   4.924   0.984   4.022  0.7231  0.1483  1.5036
24341SOL     OW73600   8.415   8.035   1.676  0.4710 -0.5856 -0.1305
24341SOL    HW173601   8.353   7.973   1.639  1.9011 -1.5327 -1.0297
24341SOL    HW273602   8.478   8.052   1.605  1.4181  0.0986  0.8361
24342SOL     OW73603   6.449   0.103   3.634 -0.2479 -0.6683 -0.2169
24342SOL    HW173604   6.381   0.036   3.640 -0.3037 -0.4820  1.6715
24342SOL    HW273605   6.404   0.186   3.650  0.0266 -0.2754 -1.3608
24343SOL     OW73606   7.269   4.863   9.000  0.1308 -0.2812 -0.4645
24343SOL    HW173607   7.178   4.837   8.992 -0.0749  0.4186 -0.4688
24343SOL    HW273608   7.306   4.851   8.912  0.0478 -0.5769 -0.4584
24344SOL     OW73609   8.489   8.689   1.539 -0.4000  0.5759  0.0752
24344SOL    HW173610   8.490   8.722   1.450  1.3932 -0.8128 -0.4685
24344SOL    HW273611   8.458   8.599   1.531  0.7709  0.1007  0.7061
24345SOL     OW73612   2.839   5.003   9.571  0.2973 -0.0049 -0.4830
24345SOL    HW173613   2.773   5.070   9.586  0.0762 -0.3343  0.0335
24345SOL    HW273614   2.827   4.978   9.479 -0.5572 -0.3335 -0.2905
24346SOL     OW73615   2.252   6.210   1.978  0.3848 -0.0745 -0.0613
24346SOL    HW173616   2.221   6.294   2.013  1.1914  0.1197  0.2141
24346SOL    HW273617   2.334   6.194   2.025  0.0159 -1.2379  0.2014
24347SOL     OW73618   7.212   0.688   0.538 -0.6479 -0.5237 -0.2590
24347SOL    HW173619   7.244   0.750   0.603 -1.9461  0.3571 -0.4273
24347SOL    HW273620   7.174   0.617   0.589 -1.2216 -0.0683 -0.0374
24348SOL     OW73621   2.446   6.724   7.946 -0.1258 -0.5805 -0.2096
24348SOL    HW173622   2.481   6.787   8.008 -0.3459  1.2751 -1.8854
24348SOL    HW273623   2.433   6.644   7.997  1.5914  0.2497  1.6272
24349SOL     OW73624   1.256   3.116   4.621  0.0464 -0.0057 -0.5988
24349SOL    HW173625   1.241   3.128   4.715  0.7121 -1.2388 -0.3068
24349SOL    HW273626   1.251   3.204   4.584 -0.8717  0.4167  0.4922
24350SOL     OW73627   2.743   9.233   5.978 -0.0240 -0.1695  0.0566
24350SOL    HW173628   2.787   9.154   5.946 -0.0393 -0.1974  0.1051
24350SOL    HW273629   2.652   9.222   5.950  0.4119  0.9024 -1.9687
24351SOL     OW73630   0.683   7.778   1.244 -0.7913  0.8191 -0.2540
24351SOL    HW173631   0.650   7.852   1.193 -1.0174  0.2968 -0.8866
24351SOL    HW273632   0.753   7.741   1.190 -1.5135 -0.1762 -0.5472
24352SOL     OW73633   1.066   5.716   7.611  0.2631  0.6369  0.1575
24352SOL    HW173634   1.033   5.727   7.700 -1.2022  0.4502 -0.3423
24352SOL    HW273635   1.007   5.652   7.572 -1.3757  3.2617 -2.0401
24353SOL     OW73636   9.338   5.533   9.252  0.1983 -0.1439  0.2143
24353SOL    HW173637   9.321   5.567   9.164 -0.2141 -0.9589 -0.0268
24353SOL    HW273638   9.431   5.513   9.253 -0.0586 -1.4502 -0.5112
24354SOL     OW73639   5.902   4.083   6.772  0.0580 -0.6092 -0.4427
24354SOL    HW173640   5.923   3.993   6.746 -0.6660 -1.2460  1.0552
24354SOL    HW273641   5.985   4.119   6.803  0.1581 -1.1077 -0.1179
24355SOL     OW73642   7.615   0.629   0.528  0.0203  0.1541 -0.5592
24355SOL    HW173643   7.589   0.557   0.585  0.1172 -0.7325 -1.6111
24355SOL    HW273644   7.590   0.708   0.576 -0.5942 -0.5844  0.3651
24356SOL     OW73645   7.686   4.068   6.011  0.0069 -0.2819 -0.8686
24356SOL    HW173646   7.748   4.119   6.063 -0.3495  0.1346 -0.8490
24356SOL    HW273647   7.672   4.121   5.932 -0.6103 -0.1970 -0.7047
24357SOL     OW73648   7.774   0.092   5.058 -0.0107  0.3821  0.1747
24357SOL    HW173649   7.816   0.119   5.139  0.0526  0.5867  0.0756
24357SOL    HW273650   7.702   0.153   5.046  0.3219  0.7137 -0.2113
24358SOL     OW73651   5.451   4.388   2.856  0.4749  0.3585  0.5813
24358SOL    HW173652   5.527   4.415   2.804  0.5562 -0.5190  0.2312
24358SOL    HW273653   5.436   4.461   2.915  0.3685  1.4104 -0.6902
24359SOL     OW73654   9.875   7.897   9.543  0.0132 -0.4834  0.0580
24359SOL    HW173655   9.955   7.887   9.491  0.2070 -0.6076  0.3795
24359SOL    HW273656   9.804   7.889   9.479  0.2809  1.4578 -0.5463
24360SOL     OW73657  -0.010   8.996   9.555  0.5423  0.8440 -0.2356
24360SOL    HW173658   0.026   9.007   9.642  2.7728 -1.8278 -0.6880
24360SOL    HW273659   0.033   9.063   9.502 -0.4972  2.1878  0.5525
24361SOL     OW73660   7.250   7.653   3.715  0.5469  0.2603  0.0893
24361SOL    HW173661   7.233   7.744   3.737 -0.8077  0.2618 -0.8429
24361SOL    HW273662   7.344   7.650   3.697  1.1184  0.9119  2.5556
24362SOL     OW73663   8.132   4.579   8.855 -0.9391 -0.1860  0.1471
24362SOL    HW173664   8.125   4.526   8.935 -0.3377 -0.6131 -0.0700
24362SOL    HW273665   8.081   4.658   8.874 -0.6371 -0.1854  1.0292
24363SOL     OW73666   6.589   0.038   4.167 -0.1907 -0.4890  0.4298
24363SOL    HW173667   6.539  -0.040   4.193  0.1768  0.2797  4.0016
24363SOL    HW273668   6.563   0.105   4.231  1.2486  1.6222 -1.0840
24364SOL     OW73669   3.067   7.412   8.470 -0.6503  0.2874  0.3033
24364SOL    HW173670   3.100   7.477   8.409 -0.2657 -0.8794 -0.7661
24364SOL    HW273671   2.982   7.386   8.435  0.3225 -1.6449 -0.7526
24365SOL     OW73672   2.130   4.949   8.998  0.0752  0.5285 -0.6241
24365SOL    HW173673   2.172   4.934   9.083  1.1399  3.1253 -0.5831
24365SOL    HW273674   2.195   4.920   8.934  0.0791  0.3563 -0.5420
24366SOL     OW73675   3.972   3.056   8.192  0.5292 -0.3820  0.4430
24366SOL    HW173676   3.944   3.112   8.119 -3.8312  0.2584  2.2980
24366SOL    HW273677   3.930   2.972   8.174 -0.5381 -0.2334  2.0592
24367SOL     OW73678   6.765   5.141   2.724  0.0321  0.4658  0.0506
24367SOL    HW173679   6.736   5.052   2.743  1.7988  0.2760  2.2021
24367SOL    HW273680   6.689   5.196   2.745 -0.4685 -0.4024  0.5484
24368SOL     OW73681   7.096   2.512   2.528 -0.7253  0.1059  0.3050
24368SOL    HW173682   7.140   2.438   2.569  1.0912  1.3549  0.7269
24368SOL    HW273683   7.062   2.477   2.446 -1.9845 -1.7497  1.5292
24369SOL     OW73684   2.508   4.630   2.273 -0.1700  0.2662  0.6328
24369SOL    HW173685   2.549   4.596   2.353  1.5210  1.2349  0.2171
24369SOL    HW273686   2.560   4.706   2.250 -1.7651  1.0927 -0.3984
24370SOL     OW73687   3.317   7.981   0.528  0.1378  0.3750  0.0612
24370SOL    HW173688   3.233   7.980   0.482  0.8477  1.6714 -1.3465
24370SOL    HW273689   3.352   7.893   0.515 -1.1377 -0.3160  1.0074
24371SOL     OW73690   0.081   7.722   7.276 -0.4396 -0.1763  0.3545
24371SOL    HW173691   0.111   7.774   7.351 -0.7416  1.0005 -0.3139
24371SOL    HW273692  -0.006   7.692   7.300 -0.1075 -0.7090  0.9068
24372SOL     OW73693   9.796   4.345   6.107 -0.3543 -0.2325 -0.6193
24372SOL    HW173694   9.773   4.428   6.147  2.0530  0.1174  0.1960
24372SOL    HW273695   9.745   4.280   6.156  0.4289  0.4575  1.2026
24373SOL     OW73696   9.047   7.485   7.785  0.6196  0.6461 -0.4843
24373SOL    HW173697   8.955   7.513   7.783  0.9640  2.0143  1.0765
24373SOL    HW273698   9.048   7.413   7.847  0.4290 -0.2055 -1.4342
24374SOL     OW73699   2.910   6.775   9.968  0.3540 -0.1020  0.4060
24374SOL    HW173700   2.815   6.763   9.965  0.1002  1.8378 -1.2690
24374SOL    HW273701   2.940   6.759   9.879  1.5784 -0.3078  0.8284
24375SOL     OW73702   8.371   5.183   9.531 -0.3994 -0.0043  0.4993
24375SOL    HW173703   8.322   5.101   9.532 -2.2284  0.9875 -1.2545
24375SOL    HW273704   8.460   5.157   9.555 -0.9001 -2.5081  0.0114
24376SOL     OW73705   5.586   1.028   7.577  0.1311 -0.1897  0.5047
24376SOL    HW173706   5.583   1.024   7.482 -0.9742 -2.2229  0.5616
24376SOL    HW273707   5.519   1.093   7.600 -0.4276 -0.5341 -0.0969
24377SOL     OW73708   0.156   9.108   9.882 -0.5305  0.0342 -0.1540
24377SOL    HW173709   0.211   9.185   9.899 -0.8245  0.1594  0.2478
24377SOL    HW273710   0.114   9.090   9.966 -1.1741 -0.0049 -0.4782
24378SOL     OW73711   3.517   6.172   4.017  0.4241  0.6697  0.3105
24378SOL    HW173712   3.549   6.152   4.105 -0.4351  0.4372  0.5802
24378SOL    HW273713   3.595   6.198   3.969  1.0532 -0.0702  0.8904
24379SOL     OW73714   8.531   2.170   8.810  0.4939 -0.3931  0.2756
24379SOL    HW173715   8.530   2.238   8.877  2.0033 -0.9062  0.8729
24379SOL    HW273716   8.613   2.123   8.826  0.8507 -0.5950 -1.8537
24380SOL     OW73717   1.929   5.055   7.730 -0.3077 -0.9403 -0.2272
24380SOL    HW173718   1.933   5.001   7.808  0.7903 -1.9156 -0.9356
24380SOL    HW273719   1.842   5.094   7.733 -0.5015 -1.4186  1.1661
24381SOL     OW73720  -0.000   2.128   8.153  0.3532 -0.0262 -0.0030
24381SOL    HW173721   0.075   2.162   8.105 -0.0624  0.0071 -0.6407
24381SOL    HW273722   0.037   2.065   8.215  0.9342  0.2118 -0.1069
24382SOL     OW73723   9.505   9.874   7.708  0.2087 -1.0611  0.7106
24382SOL    HW173724   9.549   9.949   7.748 -1.2710 -0.2637  0.9453
24382SOL    HW273725   9.533   9.799   7.760  1.2662 -0.5909  0.8409
24383SOL     OW73726   1.703   1.552   0.735 -0.2650 -0.7913 -0.4702
24383SOL    HW173727   1.688   1.570   0.828 -1.5215 -1.9103 -0.4336
24383SOL    HW273728   1.722   1.638   0.697  1.6087 -0.4864  1.0380
24384SOL     OW73729   9.901   1.419   9.652 -0.4057 -0.4657  0.3961
24384SOL    HW173730   9.812   1.388   9.636 -0.0377 -0.7553 -1.2288
24384SOL    HW273731   9.943   1.419   9.566  0.7807  0.9159  0.9300
24385SOL     OW73732   7.609   7.160   7.905  0.2243 -0.1708 -0.1932
24385SOL    HW173733   7.675   7.207   7.854  0.8893 -1.2200 -0.3233
24385SOL    HW273734   7.526   7.202   7.881  0.5772 -0.3411 -1.8028
24386SOL     OW73735   7.155   2.761   1.455 -0.0822  0.2506 -0.2058
24386SOL    HW173736   7.244   2.734   1.435  0.0930  0.6739  0.0008
24386SOL    HW273737   7.150   2.853   1.427 -0.6501  0.0387 -0.8327
24387SOL     OW73738   2.715   7.432   1.536  0.0989 -0.2149  0.6821
24387SOL    HW173739   2.758   7.349   1.517 -1.5803 -0.8902 -0.3764
24387SOL    HW273740   2.627   7.408   1.565  0.0209  1.1579  1.7120
24388SOL     OW73741   2.310   6.997   8.547 -0.1694 -0.1271 -0.2225
24388SOL    HW173742   2.319   7.079   8.498 -1.4188  0.2876  0.1927
24388SOL    HW273743   2.232   6.955   8.509 -1.2550  0.2708  1.4505
24389SOL     OW73744   6.860   0.659   8.063  0.5197  0.2385  0.4453
24389SOL    HW173745   6.909   0.677   8.144  0.9912 -0.9048  0.4472
24389SOL    HW273746   6.773   0.694   8.079  0.0384 -1.5746  2.2195
24390SOL     OW73747   0.449   5.264   0.847  0.2448  0.3289  0.2211
24390SOL    HW173748   0.411   5.237   0.763  0.6106  0.4855  0.0012
24390SOL    HW273749   0.478   5.182   0.887 -0.4547  0.1936  0.4584
24391SOL     OW73750   2.874   6.295   9.762 -0.0665 -0.6464 -0.2443
24391SOL    HW173751   2.832   6.280   9.847  0.8028  0.3641  0.3981
24391SOL    HW273752   2.954   6.343   9.784  0.1927 -0.4127 -1.6417
24392SOL     OW73753   3.519   8.542   4.800  0.5243  0.3183  0.1370
24392SOL    HW173754   3.574   8.562   4.876  1.4828 -1.3222 -0.0891
24392SOL    HW273755   3.543   8.453   4.775 -1.1236  0.1280 -0.9529
24393SOL     OW73756   3.594   8.503   5.738 -0.7880  0.4135 -0.5906
24393SOL    HW173757   3.548   8.487   5.821  1.9184 -0.0041  0.9353
24393SOL    HW273758   3.597   8.598   5.729  0.1562  0.5114  0.5830
24394SOL     OW73759   3.942   8.935   7.847 -0.5986  0.8255 -0.3927
24394SOL    HW173760   4.009   8.909   7.783  0.5704  2.6657 -0.0112
24394SOL    HW273761   3.965   8.887   7.926 -0.8019  0.1062 -0.7657
24395SOL     OW73762   1.752   0.451   8.364  0.2557  0.0014 -0.3844
24395SOL    HW173763   1.824   0.513   8.359  1.3840 -1.1923  0.5681
24395SOL    HW273764   1.763   0.395   8.287  0.0266  0.1281 -0.5135
24396SOL     OW73765   0.686   7.954   9.042 -0.7670 -0.0662  0.4086
24396SOL    HW173766   0.738   8.025   9.080  1.7009  0.0080 -2.6787
24396SOL    HW273767   0.610   7.947   9.099  0.2628  3.1360  2.4611
24397SOL     OW73768   9.664   1.969   8.654  0.5541  0.0702  0.0405
24397SOL    HW173769   9.687   2.007   8.569  0.1158  2.9218  1.0727
24397SOL    HW273770   9.749   1.949   8.695  0.8682  0.9440 -0.1591
24398SOL     OW73771   9.559   1.802   8.874  0.1867  0.0043  0.1574
24398SOL    HW173772   9.611   1.724   8.892  1.4855  1.0810  1.3603
24398SOL    HW273773   9.615   1.857   8.820  0.5552  1.3684  1.8263
24399SOL     OW73774   5.132   2.611   5.129  0.0775 -0.4231  0.5025
24399SOL    HW173775   5.196   2.620   5.200 -1.4156  2.5322  1.5975
24399SOL    HW273776   5.183   2.623   5.049  1.3425 -1.1682  1.1582
24400SOL     OW73777   2.159   2.626   8.139  0.1807 -0.1902 -0.2547
24400SOL    HW173778   2.231   2.630   8.077  0.1974 -0.9030 -0.2815
24400SOL    HW273779   2.200   2.603   8.223  0.1600  0.7679  0.0324
24401SOL     OW73780   4.693   1.475   5.607 -0.0912  0.1796 -0.0680
24401SOL    HW173781   4.763   1.486   5.543  1.0987 -1.2882  0.9149
24401SOL    HW273782   4.725   1.522   5.685  0.1423 -1.0453  0.5993
24402SOL     OW73783   5.866   2.578   0.244 -0.6119  0.3844 -0.2467
24402SOL    HW173784   5.859   2.654   0.302 -1.9018  0.3155 -0.2944
24402SOL    HW273785   5.819   2.604   0.165 -1.5039 -0.6532 -0.0697
24403SOL     OW73786   8.394   8.406   4.781 -0.0381 -0.4302  0.1810
24403SOL    HW173787   8.435   8.490   4.760  0.6197 -0.9181 -0.5430
24403SOL    HW273788   8.306   8.429   4.812 -0.4799  0.4342 -1.5976
24404SOL     OW73789   4.167   5.741   6.817  0.1003 -0.2354 -0.2749
24404SOL    HW173790   4.204   5.708   6.735  1.4041  1.9624 -0.6439
24404SOL    HW273791   4.241   5.778   6.864 -0.9609  0.3637  0.9932
24405SOL     OW73792   8.590   9.192   9.739  0.4806 -0.3089 -0.8508
24405SOL    HW173793   8.611   9.285   9.727  0.7713 -0.2110  0.3395
24405SOL    HW273794   8.521   9.175   9.674  2.8746 -0.1912 -3.6392
24406SOL     OW73795   4.517   2.498   0.868 -0.7741  0.3201 -0.2578
24406SOL    HW173796   4.464   2.419   0.857  1.9376 -1.8379  0.8914
24406SOL    HW273797   4.586   2.472   0.928 -0.4494  4.0068  1.2639
24407SOL     OW73798   5.552   1.821   0.290  0.2458 -0.2085  0.1581
24407SOL    HW173799   5.559   1.894   0.229  0.1236  0.3037  0.7470
24407SOL    HW273800   5.621   1.838   0.355 -0.6092  0.0683  1.0052
24408SOL     OW73801   3.311   4.221   8.928  0.3023 -0.7920 -0.2740
24408SOL    HW173802   3.349   4.199   9.014  0.0691  1.2479  0.3932
24408SOL    HW273803   3.218   4.200   8.937  0.5314 -2.0023 -0.5610
24409SOL     OW73804   8.087   2.279   8.463 -0.3142  0.6396 -0.1506
24409SOL    HW173805   8.116   2.233   8.385  3.6798  3.4839 -0.6928
24409SOL    HW273806   8.124   2.229   8.536 -0.0093  0.4675 -0.4211
24410SOL     OW73807   6.762   8.645   1.274 -0.1055  0.1104  0.5162
24410SOL    HW173808   6.767   8.554   1.246 -1.2519 -0.2018  1.2547
24410SOL    HW273809   6.694   8.684   1.219  1.5427  1.0075 -0.9808
24411SOL     OW73810   5.433   3.077   9.566  0.5113  0.6552  0.5632
24411SOL    HW173811   5.378   3.010   9.527  2.2097 -1.2291  1.2190
24411SOL    HW273812   5.419   3.068   9.660  1.3306  0.6426  0.6985
24412SOL     OW73813   0.309   0.062   9.806  0.6962 -0.1759  0.2264
24412SOL    HW173814   0.342  -0.021   9.840  1.5504  0.4198  0.9101
24412SOL    HW273815   0.384   0.122   9.813 -0.1699  0.8901  0.6268
24413SOL     OW73816   1.605   5.859   1.553  0.7560 -0.6926  0.0661
24413SOL    HW173817   1.662   5.866   1.629  0.4082  1.9771  0.1757
24413SOL    HW273818   1.659   5.888   1.479 -0.2801  1.6172  0.1329
24414SOL     OW73819   5.745   5.227   1.917 -0.2334 -0.0256  0.0516
24414SOL    HW173820   5.808   5.155   1.915 -0.3381 -0.1434  0.7447
24414SOL    HW273821   5.738   5.251   2.009  0.6353  1.6155 -0.2662
24415SOL     OW73822   9.541   9.934   5.216  0.2072 -0.5155 -0.1294
24415SOL    HW173823   9.582   9.931   5.302 -0.5579  0.5032  0.2801
24415SOL    HW273824   9.459   9.887   5.226  1.6089 -3.4106 -1.1939
24416SOL     OW73825   5.744   5.187   6.734 -0.0410 -0.1412 -0.1714
24416SOL    HW173826   5.817   5.177   6.795 -0.5099  0.9088  0.6045
24416SOL    HW273827   5.691   5.258   6.771  0.0961  1.1379 -2.2309
24417SOL     OW73828   7.852   2.206   8.893  0.3197 -0.1427  0.3368
24417SOL    HW173829   7.789   2.167   8.953 -0.3692 -0.3613 -0.5022
24417SOL    HW273830   7.836   2.301   8.899  0.3207 -0.1583  0.5676
24418SOL     OW73831   1.417   6.296   2.012 -0.0346  0.4021  0.4382
24418SOL    HW173832   1.415   6.386   2.045 -1.0267  0.6371 -0.2525
24418SOL    HW273833   1.363   6.247   2.074 -0.2439  0.4564  0.2983
24419SOL     OW73834   4.182   4.726   9.264 -0.1480  0.1762 -0.0307
24419SOL    HW173835   4.148   4.747   9.351  0.6085  0.9468  0.0947
24419SOL    HW273836   4.129   4.652   9.235 -1.5804  1.0038  0.3657
24420SOL     OW73837   0.315   0.295   8.754 -0.1113 -0.7249 -0.3369
24420SOL    HW173838   0.378   0.263   8.690  0.1370 -2.1807  0.5967
24420SOL    HW273839   0.312   0.227   8.821 -0.8266  0.4649  0.8869
24421SOL     OW73840   7.438   4.630   8.832  0.2124 -0.2396  0.1327
24421SOL    HW173841   7.390   4.628   8.915  0.6027 -0.1218  0.3674
24421SOL    HW273842   7.404   4.706   8.786  1.0833  0.6224  0.8662
24422SOL     OW73843   9.269   0.745   0.169 -0.1601  0.3784 -0.0401
24422SOL    HW173844   9.184   0.744   0.124 -0.5870 -0.1924  0.7606
24422SOL    HW273845   9.331   0.769   0.101 -0.6841 -1.2194 -1.1580
24423SOL     OW73846   6.339   3.562   8.581  0.0194  0.2259  0.2810
24423SOL    HW173847   6.432   3.541   8.589 -0.1375 -0.1194  1.3218
24423SOL    HW273848   6.335   3.658   8.583  0.1624  0.2258  2.9331
24424SOL     OW73849   8.838   6.283   4.485 -0.1120  0.1707 -0.3879
24424SOL    HW173850   8.802   6.235   4.560  1.1320  0.7666  0.6315
24424SOL    HW273851   8.923   6.241   4.468  2.6456  3.8267  2.6466
24425SOL     OW73852   2.276   2.457   3.812 -0.3805  0.3772  0.0543
24425SOL    HW173853   2.194   2.418   3.782 -0.8485  1.5328 -0.1987
24425SOL    HW273854   2.269   2.454   3.908  0.0286 -1.0338  0.0681
24426SOL     OW73855   7.748   5.339   0.127 -0.1513 -0.1916 -0.3451
24426SOL    HW173856   7.783   5.427   0.142  1.0391 -0.6095 -0.5394
24426SOL    HW273857   7.670   5.334   0.181 -0.1846  0.9604 -0.2776
24427SOL     OW73858   4.140   9.063   9.899 -0.1420  0.3051  0.3488
24427SOL    HW173859   4.117   8.986   9.951 -1.3345 -0.6009 -1.4114
24427SOL    HW273860   4.104   9.137   9.947 -0.6039 -0.4233  1.1437
24428SOL     OW73861   2.251   8.235   1.240  0.3493  0.9100  0.8860
24428SOL    HW173862   2.285   8.148   1.222  1.3699  0.7024  3.3684
24428SOL    HW273863   2.157   8.223   1.252  0.6886 -0.2151  2.8253
24429SOL     OW73864   7.730   7.553   1.694  0.1171  0.6013 -0.4033
24429SOL    HW173865   7.732   7.648   1.697 -0.9400  0.6867 -1.7360
24429SOL    HW273866   7.816   7.526   1.725  0.1613  1.9557  0.7391
24430SOL     OW73867   1.479   8.308   8.544  0.1208  0.4242  0.4307
24430SOL    HW173868   1.490   8.359   8.624  0.2077  0.8997  0.1198
24430SOL    HW273869   1.387   8.281   8.544  0.0870  0.5421  0.6194
24431SOL     OW73870   2.475   2.165   5.411  0.3747  0.1744  0.0773
24431SOL    HW173871   2.551   2.148   5.355  1.4033  0.0241  1.4962
24431SOL    HW273872   2.464   2.085   5.462  0.8623  1.1065  1.7136
24432SOL     OW73873   2.841   6.907   5.610 -0.0713  0.2659  0.3068
24432SOL    HW173874   2.784   6.831   5.624  0.7268 -0.3565  0.2485
24432SOL    HW273875   2.819   6.937   5.522 -0.2074 -0.0573  0.2278
24433SOL     OW73876   1.140   4.635   9.604  0.1144  0.6615  0.5279
24433SOL    HW173877   1.181   4.616   9.688  0.6321 -0.5235  0.0234
24433SOL    HW273878   1.055   4.674   9.627 -0.1983 -0.5888  1.6145
24434SOL     OW73879   2.169   8.470   6.596 -0.0809  0.0194  0.2249
24434SOL    HW173880   2.167   8.407   6.523 -0.6432  0.0612  0.1989
24434SOL    HW273881   2.240   8.439   6.652 -1.8283 -2.0673  1.4642
24435SOL     OW73882   8.191   1.935   7.079  0.4252  0.0458  0.2185
24435SOL    HW173883   8.165   1.888   7.159  0.3486 -1.5514 -0.7163
24435SOL    HW273884   8.242   2.010   7.111 -2.1579  1.2196  1.9354
24436SOL     OW73885   9.155   9.666   2.510 -0.1006  0.3039  0.1671
24436SOL    HW173886   9.248   9.683   2.521  0.0819 -0.0633 -0.7058
24436SOL    HW273887   9.136   9.693   2.420 -0.1187 -2.5804 -0.8026
24437SOL     OW73888   4.471   6.190   0.833 -0.0530 -0.1890 -0.7312
24437SOL    HW173889   4.430   6.256   0.888  0.1390 -0.5109 -0.1868
24437SOL    HW273890   4.417   6.112   0.846  1.0149 -0.7764  0.4301
24438SOL     OW73891   8.052   1.866   8.446  0.0753 -0.1828  0.4694
24438SOL    HW173892   8.021   1.948   8.408  0.7163  0.0687  0.4765
24438SOL    HW273893   8.049   1.880   8.540  1.9404  0.5214  0.4603
24439SOL     OW73894   6.302   4.996   6.005 -0.3584  0.0200 -0.1729
24439SOL    HW173895   6.210   5.022   6.011  0.0959  1.7891 -0.4223
24439SOL    HW273896   6.340   5.057   5.942  1.1074 -0.3728  0.3049
24440SOL     OW73897   5.875   0.234   4.668  0.0495 -0.0180 -0.3944
24440SOL    HW173898   5.943   0.252   4.604 -2.3614 -0.6368 -3.3485
24440SOL    HW273899   5.825   0.160   4.631 -0.8017 -1.2480  2.8062
24441SOL     OW73900   7.926   1.520   3.634  0.4232 -0.0662  0.0407
24441SOL    HW173901   8.008   1.481   3.604 -0.2580 -1.4751 -0.1125
24441SOL    HW273902   7.952   1.599   3.681  2.0508 -1.5492  1.8243
24442SOL     OW73903   1.407   3.014   0.355 -0.2357  0.2162 -0.1015
24442SOL    HW173904   1.462   3.089   0.380 -2.9348  2.1571  0.4063
24442SOL    HW273905   1.409   2.957   0.432  0.5819  0.5396  0.1344
24443SOL     OW73906   4.503   0.503   2.258  0.1796 -0.2613 -0.1514
24443SOL    HW173907   4.473   0.439   2.322 -0.0379  3.3522  3.7293
24443SOL    HW273908   4.587   0.534   2.292 -0.7040  2.9763 -0.6290
24444SOL     OW73909   0.383   8.067   5.032  0.3248 -0.4071 -0.2012
24444SOL    HW173910   0.390   8.162   5.038 -1.0250 -0.3780  1.6398
24444SOL    HW273911   0.473   8.035   5.045  0.3685  0.5405  2.4694
24445SOL     OW73912   3.599   5.810   8.685 -0.1168  0.6182  0.3008
24445SOL    HW173913   3.556   5.726   8.670 -2.2440  1.3484  1.7573
24445SOL    HW273914   3.578   5.862   8.608  1.5798 -0.2550 -0.8125
24446SOL     OW73915   4.499   9.965   0.061  0.0472  0.4340 -0.1873
24446SOL    HW173916   4.458   9.999   0.140  1.0242  1.3391 -0.0413
24446SOL    HW273917   4.579   9.923   0.092  0.7322  1.3065 -0.7353
24447SOL     OW73918   6.497   9.868   8.128 -0.3863  0.0749  0.2619
24447SOL    HW173919   6.562   9.938   8.124 -2.2284  1.8152 -1.1990
24447SOL    HW273920   6.537   9.803   8.186  1.0132  2.7332  2.5744
24448SOL     OW73921   5.445   7.624   6.362  0.1050 -0.3731 -0.0529
24448SOL    HW173922   5.433   7.615   6.268  2.0953 -0.1288 -0.3773
24448SOL    HW273923   5.468   7.716   6.375  0.3246 -0.5114  0.6115
24449SOL     OW73924   9.145   8.361   7.861  0.0247 -0.0489 -0.6477
24449SOL    HW173925   9.220   8.411   7.828 -0.5581  1.5121  0.2947
24449SOL    HW273926   9.164   8.348   7.954 -0.9466  0.5125 -0.3658
24450SOL     OW73927   1.471   1.274   7.053  0.3910 -0.1445 -0.3607
24450SOL    HW173928   1.430   1.225   6.981  1.4139  0.0464 -1.0946
24450SOL    HW273929   1.560   1.291   7.023  0.5813  0.6777  0.6122
24451SOL     OW73930   2.350   8.525   0.497  0.1400 -0.2274  0.3839
24451SOL    HW173931   2.301   8.483   0.567  3.4221 -1.7810  2.0038
24451SOL    HW273932   2.435   8.546   0.537  2.0553 -0.8331 -2.9963
24452SOL     OW73933   5.712   4.973   6.555 -0.3331  0.1866 -0.4989
24452SOL    HW173934   5.705   5.059   6.596 -1.3964  0.1639 -0.6197
24452SOL    HW273935   5.720   4.992   6.461  2.2768  0.2466 -0.3389
24453SOL     OW73936   1.204   0.550   0.148  0.3364 -0.0754  0.4873
24453SOL    HW173937   1.164   0.559   0.061 -0.3954  1.0720  0.9297
24453SOL    HW273938   1.289   0.594   0.139 -0.9551  2.7427  1.1172
24454SOL     OW73939   1.213   6.145   2.148  0.0796  0.6298 -0.2455
24454SOL    HW173940   1.257   6.078   2.201 -0.6444 -0.1332 -0.5935
24454SOL    HW273941   1.234   6.123   2.058 -1.6827 -0.2631 -0.4766
24455SOL     OW73942   1.353   9.806   5.381 -0.3818 -0.0135 -0.1549
24455SOL    HW173943   1.268   9.836   5.413 -0.7260 -1.2476  0.1598
24455SOL    HW273944   1.376   9.734   5.441  2.1852  2.0114  1.5221
24456SOL     OW73945   2.949   1.028   9.402 -0.4828  0.1066 -0.3638
24456SOL    HW173946   3.038   1.046   9.430 -0.2889 -1.0569 -0.1671
24456SOL    HW273947   2.894   1.078   9.462  0.0311  1.0581 -0.6688
24457SOL     OW73948   4.234   2.529   8.276  0.2891 -0.4690 -0.3044
24457SOL    HW173949   4.240   2.568   8.189 -1.1252  1.5872  0.4296
24457SOL    HW273950   4.312   2.561   8.322  1.0410 -1.5632 -0.7721
24458SOL     OW73951   1.430   4.475   7.629  0.1861  0.0736 -0.6193
24458SOL    HW173952   1.459   4.540   7.693  0.3806  0.0562 -0.6874
24458SOL    HW273953   1.405   4.526   7.553 -0.8808  0.1559 -0.2252
24459SOL     OW73954   8.545   3.845   4.411 -0.7605  0.0752  0.2577
24459SOL    HW173955   8.551   3.836   4.506 -0.3924 -0.0039  0.2290
24459SOL    HW273956   8.491   3.922   4.397  0.6619  1.1714  0.5566
24460SOL     OW73957   2.464   6.540   3.583 -0.6543 -0.2255 -0.0323
24460SOL    HW173958   2.532   6.550   3.649 -1.2240 -0.2416  0.5679
24460SOL    HW273959   2.446   6.629   3.553 -2.0029  0.0669  1.5044
24461SOL     OW73960   1.731   9.658   4.805 -0.1164  0.3207 -0.8737
24461SOL    HW173961   1.717   9.578   4.753 -0.1551  1.3296 -2.5071
24461SOL    HW273962   1.644   9.681   4.836 -0.3602  0.5484 -1.6960
24462SOL     OW73963   3.338   3.010   9.412 -0.1621 -0.3324  0.4202
24462SOL    HW173964   3.375   3.098   9.406 -1.1485  0.0571 -0.2124
24462SOL    HW273965   3.321   2.998   9.505  1.1262 -0.3592  0.6727
24463SOL     OW73966   2.250   4.826   8.798  0.0465  0.1799 -0.0621
24463SOL    HW173967   2.228   4.735   8.780  1.4359 -0.0926 -0.5118
24463SOL    HW273968   2.280   4.861   8.714 -0.4693  1.0584  0.1054
24464SOL     OW73969   6.752   7.229   7.433 -0.3397 -0.5176  0.1107
24464SOL    HW173970   6.844   7.247   7.451 -0.3754  0.6157 -0.7148
24464SOL    HW273971   6.708   7.240   7.518 -0.1675  2.2436 -0.0736
24465SOL     OW73972   6.031   9.738   1.863  0.2198  0.2076 -0.3193
24465SOL    HW173973   6.076   9.820   1.843 -1.5218  1.1354 -0.6506
24465SOL    HW273974   6.021   9.739   1.958  0.1695  0.4098 -0.3248
24466SOL     OW73975   9.730   0.643   0.917 -0.0106  0.2355 -0.3561
24466SOL    HW173976   9.681   0.725   0.905 -0.9312 -0.3087 -0.3727
24466SOL    HW273977   9.665   0.574   0.907  0.3565 -0.4638  1.5945
24467SOL     OW73978   9.895   2.737   1.440 -0.4151  0.1716  0.1951
24467SOL    HW173979   9.806   2.761   1.466 -0.7478 -0.1035 -0.6741
24467SOL    HW273980   9.892   2.733   1.345 -0.5050 -3.6514  0.2342
24468SOL     OW73981   0.540   0.976   8.316  0.1149  0.2179 -0.2539
24468SOL    HW173982   0.504   1.039   8.378 -0.9763 -0.4060 -0.2358
24468SOL    HW273983   0.465   0.923   8.288  0.8975 -0.6875 -0.7157
24469SOL     OW73984   1.930   2.153   0.511 -0.2927 -0.1644  0.5226
24469SOL    HW173985   2.011   2.203   0.525 -0.0275 -0.8755  1.6014
24469SOL    HW273986   1.861   2.209   0.547 -0.1094 -0.1802  0.9014
24470SOL     OW73987   2.442   4.957   2.609  0.3525  0.8650  0.4299
24470SOL    HW173988   2.356   4.920   2.630  0.4201  0.6109  0.2574
24470SOL    HW273989   2.452   4.943   2.515  0.6514  0.7480  0.4784
24471SOL     OW73990   7.792   9.555   3.233  0.6133 -0.7132  0.1785
24471SOL    HW173991   7.862   9.559   3.168 -0.1349 -1.0195 -0.6690
24471SOL    HW273992   7.786   9.463   3.258  1.0798 -0.5563  0.9000
24472SOL     OW73993   1.750   5.925   4.259 -0.2697  0.5608  0.1975
24472SOL    HW173994   1.703   5.846   4.284  0.6916  0.0974  0.5890
24472SOL    HW273995   1.777   5.965   4.342 -2.2024  2.2490  0.0929
24473SOL     OW73996   7.567   2.114   0.546  0.3102  0.3467 -0.1055
24473SOL    HW173997   7.539   2.047   0.608 -1.0163  0.0648 -0.9722
24473SOL    HW273998   7.511   2.101   0.470  2.8162 -0.2670 -1.9968
24474SOL     OW73999   1.106   5.493   6.607 -0.7648 -0.7131 -0.5671
24474SOL    HW174000   1.039   5.523   6.545 -0.3740 -2.5282 -1.9424
24474SOL    HW274001   1.180   5.551   6.592 -1.2580 -0.0734 -0.5828
24475SOL     OW74002   6.056   3.731   8.115 -0.0950 -0.1286 -0.0267
24475SOL    HW174003   5.965   3.756   8.128  0.3174  1.1654  0.5018
24475SOL    HW274004   6.055   3.635   8.120 -1.1202 -0.0707  2.0792
24476SOL     OW74005   5.379   4.567   6.832 -0.6076  0.2736 -0.3284
24476SOL    HW174006   5.466   4.556   6.795 -0.6795 -1.1750 -0.1244
24476SOL    HW274007   5.348   4.651   6.796  1.2303  1.3287  0.3787
24477SOL     OW74008   8.123   1.517   1.403  0.4420  0.0434  0.1464
24477SOL    HW174009   8.052   1.522   1.467  0.2943 -0.0474 -0.0071
24477SOL    HW274010   8.161   1.605   1.402 -1.3940  0.9009 -1.6998
24478SOL     OW74011   1.098   9.644   2.947  0.1700 -0.4178  0.3309
24478SOL    HW174012   1.149   9.610   2.874  0.1280  0.4204 -0.1097
24478SOL    HW274013   1.152   9.627   3.024  2.7339  3.1729 -0.3619
24479SOL     OW74014   4.456   1.219   3.688 -0.1806  0.1101  0.1495
24479SOL    HW174015   4.495   1.304   3.667  0.4539 -0.3432 -0.5251
24479SOL    HW274016   4.517   1.179   3.750 -0.2638 -0.0333  0.1397
24480SOL     OW74017   2.632   6.289   0.261 -0.0893  0.2523 -0.2978
24480SOL    HW174018   2.564   6.348   0.229  0.6915  1.5298  0.3262
24480SOL    HW274019   2.661   6.328   0.343 -0.2988 -1.5986  0.7104
24481SOL     OW74020   3.536   2.718   0.646 -0.2605 -0.1745 -0.6968
24481SOL    HW174021   3.530   2.632   0.689  0.1795 -1.8471 -3.6689
24481SOL    HW274022   3.447   2.735   0.616 -0.6083  1.0806  0.9284
24482SOL     OW74023   5.709   6.813   5.504 -0.1905 -0.3127 -0.4691
24482SOL    HW174024   5.783   6.821   5.444  0.5482 -2.3886  0.0823
24482SOL    HW274025   5.740   6.852   5.586  1.0612 -2.7242  0.3157
24483SOL     OW74026   8.315   0.401   6.516 -0.0900  0.7540 -0.3374
24483SOL    HW174027   8.371   0.474   6.542 -0.4005  1.6254 -1.9416
24483SOL    HW274028   8.300   0.352   6.597  2.4035  0.8559  0.2845
24484SOL     OW74029   1.241   9.387   1.532  0.0107 -0.3761 -0.0133
24484SOL    HW174030   1.197   9.439   1.464  2.6043  0.1792 -1.3704
24484SOL    HW274031   1.247   9.445   1.607 -1.1129 -0.3274  0.0693
24485SOL     OW74032   6.647   6.279   8.416 -0.1927  0.1005 -0.1471
24485SOL    HW174033   6.555   6.306   8.411 -0.3697 -0.4269  0.2338
24485SOL    HW274034   6.689   6.349   8.466 -0.4855  0.1059  0.1002
24486SOL     OW74035   6.443   5.813   4.379  0.0038  0.6092  0.5637
24486SOL    HW174036   6.489   5.884   4.423  0.0478 -0.2180  1.9378
24486SOL    HW274037   6.486   5.734   4.411 -1.0358 -0.0946  0.2623
24487SOL     OW74038   4.448   3.137   8.706  0.0896 -0.1348  0.3195
24487SOL    HW174039   4.425   3.049   8.676 -2.9527  0.3022  1.0748
24487SOL    HW274040   4.409   3.195   8.642 -0.1874  0.6860  1.2116
24488SOL     OW74041   8.983   2.310   6.804  0.2282 -0.0779 -0.3005
24488SOL    HW174042   9.012   2.398   6.777  1.1289  0.2139  1.4838
24488SOL    HW274043   9.048   2.282   6.868 -2.3714 -0.1950  2.5211
24489SOL     OW74044   3.565   0.477   1.983  0.1319 -0.2641  0.4169
24489SOL    HW174045   3.509   0.404   1.958  0.5398 -0.2348 -0.6293
24489SOL    HW274046   3.518   0.555   1.956  0.1138 -0.1779  0.6905
24490SOL     OW74047   7.607   3.446   2.642  0.4692 -0.3057 -0.7516
24490SOL    HW174048   7.513   3.437   2.662  0.6123 -0.0750  0.0454
24490SOL    HW274049   7.620   3.392   2.564  0.4046 -3.3922  1.2280
24491SOL     OW74050   7.576   5.125   3.223  0.1481  0.2885  0.5530
24491SOL    HW174051   7.594   5.192   3.158 -0.5559 -0.8044 -0.8124
24491SOL    HW274052   7.553   5.174   3.302  0.9241  1.6383 -0.0292
24492SOL     OW74053   5.014   5.655   4.924  0.6540 -0.1954 -0.4510
24492SOL    HW174054   4.921   5.671   4.942  0.4545 -1.9774  0.3422
24492SOL    HW274055   5.056   5.663   5.010  1.1419 -0.0650 -0.6983
24493SOL     OW74056   5.560   7.882   8.004  0.5056 -0.4232  0.3986
24493SOL    HW174057   5.602   7.919   7.927 -0.1207  0.7971  0.6147
24493SOL    HW274058   5.612   7.805   8.026  2.5533  0.9445  0.5865
24494SOL     OW74059   7.146   7.411   4.090 -0.2369  0.1599  0.0923
24494SOL    HW174060   7.217   7.369   4.042  0.4175  1.3421 -0.0296
24494SOL    HW274061   7.169   7.504   4.089  0.1671  0.1879  3.2717
24495SOL     OW74062   1.170   5.670   3.919  0.0559 -0.3310  0.2521
24495SOL    HW174063   1.135   5.700   3.835  0.9303  2.1869  0.7034
24495SOL    HW274064   1.247   5.725   3.934 -0.2832 -0.4492  2.8709
24496SOL     OW74065   8.976   6.561   2.868  0.6995  0.2657  0.0126
24496SOL    HW174066   8.901   6.505   2.887 -0.4282  1.5012 -0.5843
24496SOL    HW274067   8.938   6.639   2.826  2.3232  0.9167 -0.3447
24497SOL     OW74068   4.232   3.023   9.869  0.0694  0.4022 -0.6449
24497SOL    HW174069   4.294   2.974   9.816  0.0932  1.4539 -1.6412
24497SOL    HW274070   4.160   3.043   9.809 -1.4900 -1.2013  0.6060
24498SOL     OW74071   8.045   7.199   0.545  0.4082 -0.1849  0.3937
24498SOL    HW174072   7.950   7.210   0.535  0.4120 -0.3176  0.1927
24498SOL    HW274073   8.061   7.211   0.638  0.1772 -0.2708  0.4461
24499SOL     OW74074   6.033   6.804   7.895  0.1218 -0.4647 -0.7023
24499SOL    HW174075   6.045   6.775   7.804 -3.0832 -2.4111 -0.6740
24499SOL    HW274076   5.944   6.841   7.896  0.5384  0.6129  1.4336
24500SOL     OW74077   7.422   0.645   8.736 -0.5525 -0.1707  0.1136
24500SOL    HW174078   7.399   0.590   8.811 -0.6807 -1.1188 -0.6016
24500SOL    HW274079   7.513   0.668   8.751 -0.3697 -0.9333  0.2184
24501SOL     OW74080   2.787   0.046   1.275 -0.1042  0.0928  0.5396
24501SOL    HW174081   2.699   0.014   1.257 -0.8741  1.9082  0.9269
24501SOL    HW274082   2.797   0.036   1.370  0.3996 -0.7468  0.4151
24502SOL     OW74083   0.802   7.314   7.620  0.1703 -0.0928  0.4646
24502SOL    HW174084   0.890   7.349   7.636  0.5959  0.4680 -2.5557
24502SOL    HW274085   0.816   7.223   7.594 -0.0552  0.1470 -0.5434
24503SOL     OW74086   2.477   8.724   4.015  0.2343  0.0336 -0.3815
24503SOL    HW174087   2.411   8.788   3.991 -0.8134 -0.9513 -0.2339
24503SOL    HW274088   2.428   8.643   4.031  1.1840 -0.1184  2.1817
24504SOL     OW74089   1.791   4.159   6.955 -0.5046  0.2803 -0.8507
24504SOL    HW174090   1.827   4.080   6.995 -1.1240  0.8889  1.0103
24504SOL    HW274091   1.862   4.223   6.961 -0.3600  0.1710 -1.3853
24505SOL     OW74092   1.498   9.007   8.389 -0.0378  0.1277  0.4203
24505SOL    HW174093   1.591   9.011   8.367 -0.8157  0.6505 -3.4211
24505SOL    HW274094   1.479   8.914   8.396  0.7997  0.0186  1.8170
24506SOL     OW74095   2.730   2.550   4.048 -0.4344 -0.0088  0.1869
24506SOL    HW174096   2.812   2.599   4.046 -0.0015 -0.5806  2.1491
24506SOL    HW274097   2.757   2.458   4.046 -1.0916 -0.2028 -0.2429
24507SOL     OW74098   9.136   4.794   6.083  0.0984  0.1771  0.2831
24507SOL    HW174099   9.169   4.807   6.172 -0.2509  0.8049  0.3263
24507SOL    HW274100   9.060   4.852   6.077 -1.9489 -2.2968  0.6934
24508SOL     OW74101   9.273   6.882   2.531 -0.2326  0.1986 -0.0154
24508SOL    HW174102   9.186   6.918   2.514  0.3913  0.9322 -1.9131
24508SOL    HW274103   9.325   6.909   2.455  1.7098 -0.0339  1.1790
24509SOL     OW74104   9.202   3.449   0.711  0.2934  0.2112  1.3331
24509SOL    HW174105   9.282   3.472   0.663  1.4563 -1.8056  2.1644
24509SOL    HW274106   9.150   3.530   0.711  1.7342  1.2206 -0.3546
24510SOL     OW74107   9.465   9.806   1.827 -0.4804 -0.2112  0.4797
24510SOL    HW174108   9.458   9.729   1.770  0.6025 -1.6399  2.1483
24510SOL    HW274109   9.503   9.772   1.908  1.5233  2.3815  0.7450
24511SOL     OW74110   3.059   6.053   3.480  0.1180  0.5291 -0.3215
24511SOL    HW174111   3.019   6.035   3.395 -0.7514  1.7381 -0.1943
24511SOL    HW274112   2.992   6.102   3.528  0.2302 -0.9094  1.4109
24512SOL     OW74113   8.529   6.595   3.523 -0.6553 -0.1346  0.1000
24512SOL    HW174114   8.591   6.564   3.588  0.4690  0.7535 -0.5173
24512SOL    HW274115   8.537   6.533   3.450  1.1364  1.1456 -0.8745
24513SOL     OW74116   6.622   6.789   5.974 -0.2482 -0.3795 -0.4042
24513SOL    HW174117   6.709   6.749   5.970 -0.8839 -2.0651  1.2001
24513SOL    HW274118   6.639   6.883   5.977  1.4700 -0.6401 -0.8297
24514SOL     OW74119   3.570   2.201   1.769 -0.5968  0.0322  0.2289
24514SOL    HW174120   3.531   2.261   1.705  0.9454  0.3175 -0.4825
24514SOL    HW274121   3.578   2.253   1.849 -1.5961 -0.0142  0.3703
24515SOL     OW74122   7.421   5.030   8.468  0.1334  0.0167 -0.2518
24515SOL    HW174123   7.334   5.068   8.474  0.2532  0.2129  0.3160
24515SOL    HW274124   7.415   4.965   8.398  0.2411  1.9302 -2.1124
24516SOL     OW74125   3.030   9.028   4.956 -0.2663  0.1018  0.0476
24516SOL    HW174126   2.945   9.061   4.925 -0.7291 -0.4777  0.6754
24516SOL    HW274127   3.068   8.985   4.879 -1.4457 -1.3929  0.2496
24517SOL     OW74128   4.653   5.253   4.877  0.3299 -0.1221  0.1951
24517SOL    HW174129   4.716   5.182   4.868  2.0278  1.3003  0.1257
24517SOL    HW274130   4.707   5.332   4.879 -1.4012  1.1050  1.2843
24518SOL     OW74131   7.871   1.354   2.309  0.3298  0.6017  0.6142
24518SOL    HW174132   7.899   1.295   2.239 -1.3027  0.3076  0.1537
24518SOL    HW274133   7.950   1.371   2.360  0.9372 -1.6964  0.5459
24519SOL     OW74134   5.003   0.496   9.659 -0.2204  0.4535  0.0118
24519SOL    HW174135   4.944   0.528   9.727  0.6780  1.9449  0.1308
24519SOL    HW274136   5.091   0.506   9.695  0.2314  0.4422 -1.0280
24520SOL     OW74137   2.530   3.231   2.166 -0.0569  0.2120 -0.4124
24520SOL    HW174138   2.481   3.212   2.246  1.2482 -2.1632 -0.0968
24520SOL    HW274139   2.581   3.152   2.149 -1.0564  0.1529 -4.2026
24521SOL     OW74140   7.320   8.796   3.304 -0.2090 -0.3968 -0.0631
24521SOL    HW174141   7.290   8.857   3.237 -2.0292  0.7013  1.6784
24521SOL    HW274142   7.319   8.710   3.260 -2.3997  0.1286 -1.1588
24522SOL     OW74143   2.148   8.189   6.093 -0.1453 -0.0882 -0.3216
24522SOL    HW174144   2.111   8.247   6.026 -1.3856 -1.5150 -0.9215
24522SOL    HW274145   2.229   8.156   6.053  0.1978  0.6401 -0.2597
24523SOL     OW74146   2.554   0.733   1.112  0.3467 -0.0624  0.8048
24523SOL    HW174147   2.487   0.667   1.124  2.1682 -2.4928 -1.2777
24523SOL    HW274148   2.562   0.775   1.198 -2.0093 -1.4169  1.7737
24524SOL     OW74149   3.382   0.791   6.683 -0.1079 -0.4910  0.3726
24524SOL    HW174150   3.386   0.866   6.623 -0.7349  0.8734  1.9661
24524SOL    HW274151   3.332   0.823   6.758 -1.7612 -2.9923  0.4652
24525SOL     OW74152   2.474   3.098   4.539  0.8275 -0.1988  0.0609
24525SOL    HW174153   2.382   3.124   4.536  1.0461  0.5185 -1.8576
24525SOL    HW274154   2.478   3.034   4.610 -0.9848  0.3297  0.7128
24526SOL     OW74155   1.338   4.475   4.180  0.1506  0.2428 -0.0814
24526SOL    HW174156   1.400   4.439   4.117 -0.4730 -0.4354 -0.3286
24526SOL    HW274157   1.357   4.430   4.262 -0.5148 -0.5472 -0.3481
24527SOL     OW74158   0.290   1.684   3.277  0.0932 -0.0102 -0.1087
24527SOL    HW174159   0.278   1.720   3.366 -1.8295  1.1015 -0.7574
24527SOL    HW274160   0.349   1.746   3.235 -1.6192  1.3722 -0.5892
24528SOL     OW74161   6.601   2.383   6.699 -0.7096 -0.3242  0.1120
24528SOL    HW174162   6.546   2.407   6.774 -0.1418 -0.7343  0.6659
24528SOL    HW274163   6.691   2.387   6.732 -0.3846  0.4444 -0.8113
24529SOL     OW74164   8.004   0.062   7.861  0.0766 -0.4640 -0.2878
24529SOL    HW174165   7.981   0.050   7.768 -0.5774 -1.9758  0.0485
24529SOL    HW274166   7.930   0.110   7.898  0.5073  0.4712 -0.6106
24530SOL     OW74167   3.303   5.999   8.102  0.8427 -0.9914 -0.4528
24530SOL    HW174168   3.376   6.004   8.039  1.4159 -0.8758  0.2032
24530SOL    HW274169   3.281   6.090   8.120  0.2925 -1.0277 -0.9110
24531SOL     OW74170   0.224   4.738   6.764 -0.0133  0.2853 -1.0159
24531SOL    HW174171   0.196   4.702   6.848  0.9403 -0.4094 -0.9769
24531SOL    HW274172   0.144   4.771   6.724 -1.4221 -3.7561 -1.9856
24532SOL     OW74173   5.458   9.214   6.817  0.0155 -0.1971 -0.5849
24532SOL    HW174174   5.523   9.281   6.796 -0.2790  0.1256 -0.4652
24532SOL    HW274175   5.475   9.145   6.752  1.1129 -0.5624  0.0532
24533SOL     OW74176   3.061   7.760   9.093  0.5901  0.4285 -0.8409
24533SOL    HW174177   3.094   7.725   9.176  1.0894  1.4030 -0.6202
24533SOL    HW274178   3.139   7.775   9.040  0.4149  1.5177 -0.8067
24534SOL     OW74179   3.224   1.511   6.932 -0.0791 -0.3710  0.7334
24534SOL    HW174180   3.139   1.503   6.974  0.7035 -1.8753  2.1259
24534SOL    HW274181   3.212   1.472   6.846 -1.1815  0.8934  0.2817
24535SOL     OW74182   2.746   4.092   3.081  0.3176 -0.3117 -0.2229
24535SOL    HW174183   2.661   4.106   3.040 -0.4878 -2.6619  0.5058
24535SOL    HW274184   2.779   4.012   3.041  0.8607 -1.0111  1.5287
24536SOL     OW74185   0.005   3.626   8.968 -0.5441 -0.1861 -0.3273
24536SOL    HW174186   0.099   3.639   8.957 -0.6261  0.3328 -0.4890
24536SOL    HW274187  -0.027   3.609   8.879 -0.1223 -4.0489  0.1084
24537SOL     OW74188   7.453   6.244   3.869 -0.2770  0.1342 -0.1045
24537SOL    HW174189   7.390   6.208   3.807 -1.1744 -1.3496  1.5697
24537SOL    HW274190   7.414   6.327   3.898 -0.2090  0.4643 -0.9403
24538SOL     OW74191   6.855   8.743   3.498  0.3512 -0.2851  0.1007
24538SOL    HW174192   6.897   8.787   3.571  0.8601 -0.5730 -0.0096
24538SOL    HW274193   6.767   8.722   3.529  0.9601 -1.5307  1.1041
24539SOL     OW74194   3.904   0.232   4.716 -0.8113  0.0257 -0.2302
24539SOL    HW174195   3.944   0.290   4.652  0.3240 -1.1400 -0.6057
24539SOL    HW274196   3.889   0.151   4.669 -1.7726 -0.2277  0.4715
24540SOL     OW74197   7.892   2.909   3.979  0.3333 -0.6356 -0.1152
24540SOL    HW174198   7.875   3.002   4.000 -1.4365 -0.7238 -0.9443
24540SOL    HW274199   7.821   2.885   3.920  0.4744 -2.6783  0.4755
24541SOL     OW74200   0.630   6.581   6.895 -0.0454  0.1469  0.2995
24541SOL    HW174201   0.545   6.582   6.850  0.9498  1.2110 -1.6659
24541SOL    HW274202   0.656   6.489   6.895 -0.9920 -0.1316  0.5416
24542SOL     OW74203   1.278   1.348   5.245 -0.2225 -0.0206  0.1336
24542SOL    HW174204   1.361   1.393   5.229 -0.3467  0.6533  1.2844
24542SOL    HW274205   1.214   1.397   5.194 -0.0701  0.0005 -0.0401
24543SOL     OW74206   4.161   7.529   3.276 -0.0360  0.2257  0.3272
24543SOL    HW174207   4.079   7.489   3.303  0.7361 -0.2220  2.1330
24543SOL    HW274208   4.187   7.480   3.198 -0.9993 -0.2490  0.2894
24544SOL     OW74209   2.573   9.487   6.680  0.2881 -0.5556  0.2662
24544SOL    HW174210   2.502   9.479   6.616 -0.0096 -2.4991  0.7589
24544SOL    HW274211   2.532   9.529   6.756 -0.1677 -1.0507  0.3005
24545SOL     OW74212   9.621   3.021   2.682  0.1215 -0.4077 -0.0424
24545SOL    HW174213   9.552   2.983   2.629 -1.0382  1.6620 -0.1174
24545SOL    HW274214   9.577   3.087   2.735  1.9500  0.5982  0.3126
24546SOL     OW74215   8.060   6.017   9.144  0.4221 -0.4839 -0.1123
24546SOL    HW174216   8.037   6.064   9.224  1.1494 -3.0356  1.7540
24546SOL    HW274217   8.145   6.051   9.119  0.5104 -0.1297  0.6404
24547SOL     OW74218   5.518   4.671   9.504 -0.5151  0.6867 -0.2786
24547SOL    HW174219   5.499   4.722   9.583 -1.1194 -0.1016  0.0960
24547SOL    HW274220   5.588   4.720   9.460 -0.1682  1.1351  0.7473
24548SOL     OW74221   9.140   0.611   3.474  0.0793  0.1482  0.1439
24548SOL    HW174222   9.116   0.695   3.434  1.6992  0.9299  0.7037
24548SOL    HW274223   9.205   0.574   3.414 -0.4045 -0.5743  0.0569
24549SOL     OW74224   2.234   9.750   4.362  0.3372  0.1056  0.2342
24549SOL    HW174225   2.267   9.691   4.293 -0.1923  1.7590 -1.5423
24549SOL    HW274226   2.173   9.696   4.412  0.3638 -1.0410 -0.8978
24550SOL     OW74227   8.620   6.791   0.834 -0.3636 -0.3230  0.0180
24550SOL    HW174228   8.633   6.736   0.757  1.2611  0.9321 -0.6641
24550SOL    HW274229   8.666   6.872   0.814 -1.1093  0.5948  1.7498
24551SOL     OW74230   7.635   7.806   5.059 -0.7014 -0.0550 -0.3711
24551SOL    HW174231   7.615   7.726   5.011  1.0462 -0.7133 -0.0696
24551SOL    HW274232   7.730   7.804   5.071 -0.9980  0.2869  2.7272
24552SOL     OW74233   6.063   5.094   6.558 -0.1394 -0.1951 -0.4570
24552SOL    HW174234   6.057   4.999   6.570 -0.7222 -0.1737 -0.5547
24552SOL    HW274235   5.986   5.117   6.505  0.9564  0.0867 -1.9977
24553SOL     OW74236   5.953   9.088   7.979 -0.0718 -0.0334  0.5227
24553SOL    HW174237   5.958   9.150   7.905 -1.5576  0.3234  0.6860
24553SOL    HW274238   6.024   9.027   7.963  0.1087  0.4761 -0.8165
24554SOL     OW74239   7.216   2.508   9.202  0.3783  0.4117 -0.1984
24554SOL    HW174240   7.229   2.478   9.112  0.0788 -0.3123 -0.0107
24554SOL    HW274241   7.258   2.593   9.206 -1.0868  1.2443 -1.5050
24555SOL     OW74242   8.357   9.962   2.197 -0.8847  0.2712 -0.1774
24555SOL    HW174243   8.265   9.961   2.174 -0.8675  0.0425 -0.2435
24555SOL    HW274244   8.403   9.975   2.114 -0.8312 -0.3502 -0.2504
24556SOL     OW74245   8.802   8.843   7.889 -0.4224  0.3369 -0.1164
24556SOL    HW174246   8.712   8.836   7.859 -0.3946 -2.1849  0.2015
24556SOL    HW274247   8.848   8.884   7.816 -1.7471  1.4239 -0.3789
24557SOL     OW74248   1.716   7.172   8.987  0.4348  0.1730 -0.2944
24557SOL    HW174249   1.743   7.111   9.056 -2.2271  0.2084  0.8887
24557SOL    HW274250   1.794   7.225   8.970  1.5524 -0.7069  1.7394
24558SOL     OW74251   9.490   1.010   7.143  0.1684  0.3265 -0.4715
24558SOL    HW174252   9.457   0.947   7.208 -0.7115  1.9801  0.7542
24558SOL    HW274253   9.462   0.974   7.059  1.0535 -1.7123  0.0361
24559SOL     OW74254   8.738   8.794   8.593 -0.1270  0.1924 -0.2176
24559SOL    HW174255   8.702   8.782   8.505 -2.7815  1.1682  0.6376
24559SOL    HW274256   8.754   8.889   8.600 -2.0336  0.4881  1.0040
24560SOL     OW74257   0.570   1.271   1.607  0.6502 -0.5846  0.3575
24560SOL    HW174258   0.498   1.272   1.671 -1.0319 -1.0069 -1.4214
24560SOL    HW274259   0.649   1.278   1.660 -0.6040 -1.6601  2.5478
24561SOL     OW74260   2.796   4.824   5.375 -0.1621 -0.0397  0.2306
24561SOL    HW174261   2.708   4.840   5.408 -0.8279 -2.0499 -0.4667
24561SOL    HW274262   2.824   4.909   5.341 -0.5346  1.4595  3.2442
24562SOL     OW74263   9.649   8.310   7.925 -0.4586  0.3985 -0.5148
24562SOL    HW174264   9.638   8.345   8.013  0.3065  0.0175 -0.2661
24562SOL    HW274265   9.646   8.215   7.936  3.4193  0.1681 -0.3224
24563SOL     OW74266   9.155   5.498   7.188 -0.8942  0.0427 -0.4079
24563SOL    HW174267   9.188   5.530   7.104 -1.6419  2.1817  0.0478
24563SOL    HW274268   9.234   5.481   7.240 -0.4432 -0.5367 -1.2551
24564SOL     OW74269   2.722   3.305   0.637  0.1083 -0.2335  0.0793
24564SOL    HW174270   2.698   3.349   0.718 -0.1127 -0.6658  0.2503
24564SOL    HW274271   2.674   3.353   0.569  0.4049  0.2160  0.1843
24565SOL     OW74272   7.430   9.216   2.237 -0.6703  0.0553 -0.7646
24565SOL    HW174273   7.454   9.231   2.328 -0.2548  1.2785 -1.0536
24565SOL    HW274274   7.436   9.121   2.226  0.5902 -0.0032  0.1293
24566SOL     OW74275   0.043   8.048   6.758  0.7568 -0.1806 -0.0859
24566SOL    HW174276  -0.001   8.011   6.835 -0.0935  0.1094 -0.4181
24566SOL    HW274277   0.129   8.006   6.758  0.8861  0.0279  1.1874
24567SOL     OW74278   0.789   2.525   2.062  0.3503  0.6805  0.0440
24567SOL    HW174279   0.863   2.573   2.098 -0.2137 -0.2421  2.6534
24567SOL    HW274280   0.764   2.463   2.131 -2.1450  0.1877 -1.1725
24568SOL     OW74281   1.307   7.217   0.190 -0.0682 -0.8319  0.1595
24568SOL    HW174282   1.259   7.137   0.168 -0.8106 -0.4298  0.2703
24568SOL    HW274283   1.273   7.283   0.129  0.3047 -0.5233  0.2798
24569SOL     OW74284   2.474   8.243   4.279 -0.6050 -0.3102  0.7025
24569SOL    HW174285   2.558   8.218   4.318  0.1222 -2.5783 -2.0278
24569SOL    HW274286   2.490   8.330   4.242  1.2976 -1.4585 -1.4648
24570SOL     OW74287   6.340   9.755   4.819 -0.0432 -0.1849 -0.0989
24570SOL    HW174288   6.421   9.793   4.787  0.6710 -2.0976 -0.7046
24570SOL    HW274289   6.366   9.701   4.894 -0.9437  0.1023  0.4443
24571SOL     OW74290   6.118   7.964   1.295  0.0314  0.4643  0.1484
24571SOL    HW174291   6.096   7.902   1.364  1.0644 -0.8558 -0.6649
24571SOL    HW274292   6.052   8.034   1.303 -3.2084 -2.2011 -0.8332
24572SOL     OW74293   2.535   3.575   8.572  0.2996  0.0075 -0.1017
24572SOL    HW174294   2.545   3.666   8.545  0.9560 -0.6805 -2.3733
24572SOL    HW274295   2.460   3.542   8.522 -1.0211 -0.3052  1.9474
24573SOL     OW74296   2.587   0.901   6.920  0.0413 -0.2046 -0.4577
24573SOL    HW174297   2.574   0.992   6.946 -2.2872 -1.3443  2.9150
24573SOL    HW274298   2.670   0.876   6.962 -0.2861 -0.1645  0.2163
24574SOL     OW74299   9.856   0.291   7.942  0.5891  0.3886 -0.0860
24574SOL    HW174300   9.784   0.350   7.961 -0.6071 -0.6494 -1.2035
24574SOL    HW274301   9.921   0.347   7.899  0.6912  1.4310  1.3616
24575SOL     OW74302   7.611   0.540   7.705 -0.0235  0.0338 -0.1122
24575SOL    HW174303   7.597   0.449   7.730  0.7540  0.4837  2.2962
24575SOL    HW274304   7.554   0.590   7.763  1.3061  1.1543  0.3095
24576SOL     OW74305   1.996   9.751   8.756 -0.7013  0.3754 -0.2860
24576SOL    HW174306   1.989   9.840   8.720 -0.6198  0.7267  0.5441
24576SOL    HW274307   2.011   9.696   8.680  0.7640  1.2647 -0.6813
24577SOL     OW74308   3.437   3.969   0.607 -0.6036 -0.6752  0.0841
24577SOL    HW174309   3.457   3.875   0.598 -1.4489 -0.8404 -0.1263
24577SOL    HW274310   3.360   3.982   0.553  0.5423  0.5338 -1.3298
24578SOL     OW74311   8.132   5.405   2.649 -0.4106  0.0726  0.7310
24578SOL    HW174312   8.136   5.491   2.691 -1.2514  0.8238 -0.6457
24578SOL    HW274313   8.120   5.424   2.556  0.5400 -1.5362  0.2322
24579SOL     OW74314   8.843   3.882   6.813 -0.6384  0.6669 -0.0751
24579SOL    HW174315   8.839   3.898   6.719 -0.9942 -1.6044 -0.5182
24579SOL    HW274316   8.927   3.919   6.840 -1.0256  2.3455 -1.0367
24580SOL     OW74317   8.818   2.775   9.499 -0.0819  0.0465  0.5355
24580SOL    HW174318   8.907   2.742   9.483 -0.0587  0.5574 -0.4936
24580SOL    HW274319   8.804   2.839   9.429 -1.4641 -0.4183  0.3721
24581SOL     OW74320   2.168   3.253   5.378  0.1888  0.4305 -0.5859
24581SOL    HW174321   2.217   3.174   5.356  2.2955  1.8454 -1.3226
24581SOL    HW274322   2.217   3.292   5.451 -2.4428 -0.3153  1.7690
24582SOL     OW74323   7.652   8.461   2.925 -0.1146  0.3842 -0.3696
24582SOL    HW174324   7.578   8.437   2.980  0.0237 -1.5141 -0.9438
24582SOL    HW274325   7.618   8.528   2.866 -0.7455  1.1425  0.8180
24583SOL     OW74326   3.809   2.205   6.281  0.3034  0.2203  0.7159
24583SOL    HW174327   3.773   2.246   6.202  1.3388 -0.7302 -0.2732
24583SOL    HW274328   3.796   2.271   6.349  1.2466  1.9166 -0.6639
24584SOL     OW74329   7.415   6.430   5.614  0.3656 -0.2839 -0.4112
24584SOL    HW174330   7.440   6.414   5.523  0.7551 -0.8861 -0.2033
24584SOL    HW274331   7.468   6.369   5.665 -0.5167 -0.5990  0.1533
24585SOL     OW74332   7.380   4.586   7.949  0.3515  0.0517  0.0322
24585SOL    HW174333   7.395   4.516   7.886 -0.1012  0.5642 -0.6649
24585SOL    HW274334   7.328   4.651   7.901 -2.0687 -0.5893  1.6042
24586SOL     OW74335   1.345   3.961   0.392  0.2101 -0.4601 -0.1158
24586SOL    HW174336   1.432   3.999   0.380  1.1522 -2.3584  0.3731
24586SOL    HW274337   1.329   3.911   0.312 -0.7761  0.4261 -0.5079
24587SOL     OW74338   5.354   7.751   2.378 -0.1836 -0.1986  0.0315
24587SOL    HW174339   5.315   7.796   2.452 -1.3808 -0.3469 -0.4813
24587SOL    HW274340   5.392   7.820   2.324  0.1024 -0.0324  0.4453
24588SOL     OW74341   3.453   4.990   0.502  0.8091  0.4517 -0.7940
24588SOL    HW174342   3.381   5.013   0.559  1.8282 -0.6573  1.0368
24588SOL    HW274343   3.526   5.044   0.531  1.7231 -1.1198 -0.0580
24589SOL     OW74344   0.326   6.930   1.715  0.1203 -0.0870 -0.3431
24589SOL    HW174345   0.266   6.876   1.664 -1.6581  2.3500 -1.0127
24589SOL    HW274346   0.407   6.879   1.719 -1.5154 -2.9042 -0.5856
24590SOL     OW74347   4.209   5.351   6.506 -0.1747  0.3356  0.9517
24590SOL    HW174348   4.165   5.273   6.541 -1.1348 -0.1696 -1.2224
24590SOL    HW274349   4.141   5.419   6.505 -0.9836 -0.3751 -2.1787
24591SOL     OW74350   2.043   3.134   8.246  0.4287 -0.2128  0.5673
24591SOL    HW174351   2.006   3.053   8.211 -1.1425  0.6272  0.1908
24591SOL    HW274352   2.032   3.198   8.176  0.3307  0.6822  1.3709
24592SOL     OW74353   8.605   9.596   7.184 -0.3673  0.0808 -0.2516
24592SOL    HW174354   8.584   9.534   7.255 -1.4935  0.8093  0.0801
24592SOL    HW274355   8.679   9.556   7.139 -0.0692 -0.7423  0.9137
24593SOL     OW74356   0.905   7.152   9.280  0.0721 -0.6707  0.2150
24593SOL    HW174357   0.913   7.183   9.190 -0.4886 -0.6828  0.1566
24593SOL    HW274358   0.957   7.214   9.331 -1.3001  0.5921  0.1487
24594SOL     OW74359   5.017   3.222   0.600  0.3993 -0.3976 -0.6116
24594SOL    HW174360   5.027   3.300   0.547  2.4276  0.8957  1.5034
24594SOL    HW274361   4.925   3.223   0.627  0.9089  2.8223  1.5090
24595SOL     OW74362   0.368   5.248   6.949 -0.4736  0.3296 -0.2629
24595SOL    HW174363   0.374   5.253   6.854 -0.9330  0.4153 -0.2897
24595SOL    HW274364   0.298   5.309   6.972  1.5378  2.5499  0.3991
24596SOL     OW74365   6.582   0.826   0.452  0.1492 -0.1953  0.0938
24596SOL    HW174366   6.595   0.734   0.429  0.9985 -0.3275  1.0474
24596SOL    HW274367   6.500   0.850   0.409 -0.9662 -1.8695  1.1795
24597SOL     OW74368   1.915   9.730   6.209 -0.1278 -0.2800  0.5932
24597SOL    HW174369   1.981   9.697   6.148 -0.7431  0.4234 -0.5032
24597SOL    HW274370   1.852   9.659   6.218  0.0974 -0.4785  0.5873
24598SOL     OW74371   5.599   9.580   7.279  0.0806  0.0979 -0.2006
24598SOL    HW174372   5.507   9.601   7.261 -0.5279 -1.0637  1.3611
24598SOL    HW274373   5.638   9.663   7.306 -0.6164  0.5118 -0.4323
24599SOL     OW74374   6.088   4.063   6.466 -0.1789  0.1990  0.2872
24599SOL    HW174375   6.100   4.155   6.489 -0.3186  0.7025 -1.4604
24599SOL    HW274376   6.164   4.019   6.504  1.4389  1.5320 -1.1730
24600SOL     OW74377   2.110   4.097   5.477  0.3696 -0.3495  0.4407
24600SOL    HW174378   2.203   4.096   5.453  0.9861  1.2851  2.4984
24600SOL    HW274379   2.065   4.073   5.396  2.4498  1.3149 -1.3536
24601SOL     OW74380   1.298   8.516   4.460  0.0815 -0.4359  0.2823
24601SOL    HW174381   1.304   8.595   4.513  3.0734 -0.2844 -0.0773
24601SOL    HW274382   1.287   8.548   4.370  1.8576 -0.3362  0.0677
24602SOL     OW74383   0.415   6.107   2.380 -0.4765  0.6203 -0.3428
24602SOL    HW174384   0.405   6.105   2.476  0.3395 -0.4340 -0.2587
24602SOL    HW274385   0.462   6.026   2.360  0.3106  1.3457 -1.5284
24603SOL     OW74386   6.817   6.067   7.706  0.5504  0.2155 -0.0444
24603SOL    HW174387   6.831   6.114   7.788  0.5337  0.3543 -0.1198
24603SOL    HW274388   6.792   6.136   7.644  2.3950  0.3853 -0.6373
24604SOL     OW74389   2.976   8.085   6.795  0.6830 -0.2014 -0.1243
24604SOL    HW174390   3.027   8.132   6.729 -0.5038  0.3477 -0.6743
24604SOL    HW274391   2.965   7.997   6.758  1.1240 -0.2846 -0.0576
24605SOL     OW74392   7.466   9.064   3.642  0.6662 -0.1874 -0.2727
24605SOL    HW174393   7.470   8.978   3.600 -0.6479  0.3418 -1.5734
24605SOL    HW274394   7.511   9.052   3.726  0.0326 -2.2916 -0.1672
24606SOL     OW74395   0.701   3.218   5.629 -0.0782  0.1777  0.2135
24606SOL    HW174396   0.618   3.223   5.677 -0.7778 -3.2464 -0.3586
24606SOL    HW274397   0.675   3.191   5.541  1.6373 -0.7279 -0.0413
24607SOL     OW74398   4.655   8.552   9.015 -0.1499 -0.3933 -0.4888
24607SOL    HW174399   4.603   8.475   9.040  2.0370 -1.2154  2.0701
24607SOL    HW274400   4.690   8.531   8.929 -0.9926 -1.4535 -0.5995
24608SOL     OW74401   5.139   6.575   6.277 -0.1641  0.0791  0.1355
24608SOL    HW174402   5.188   6.657   6.265 -1.8160  0.9659 -0.9356
24608SOL    HW274403   5.059   6.602   6.323  0.2371 -1.3223  1.7555
24609SOL     OW74404   2.363   7.134   8.301 -0.4039  0.3417 -0.1909
24609SOL    HW174405   2.404   7.079   8.235 -2.0937 -0.4290 -0.6417
24609SOL    HW274406   2.302   7.190   8.252 -2.8547 -1.3099  0.7741
24610SOL     OW74407   4.173   0.857   3.074 -0.3041 -0.1195  0.1074
24610SOL    HW174408   4.099   0.898   3.029 -0.5195 -1.3649 -0.7205
24610SOL    HW274409   4.203   0.923   3.136 -1.8910  0.5248  0.2259
24611SOL     OW74410   4.652   4.133   6.686  0.5201  0.5883 -0.3502
24611SOL    HW174411   4.730   4.101   6.640  0.9130  2.2835 -0.9557
24611SOL    HW274412   4.579   4.090   6.642  1.0947 -1.2096  0.3782
24612SOL     OW74413   9.082   8.401   0.885 -0.0599  0.8408 -0.2034
24612SOL    HW174414   9.010   8.389   0.947 -0.4501  0.3727 -0.7375
24612SOL    HW274415   9.055   8.352   0.808  1.3992 -0.4132  0.0293
24613SOL     OW74416   3.965   1.135   7.642 -0.2190  0.1649 -0.1332
24613SOL    HW174417   3.981   1.121   7.735  0.2218 -0.9064 -0.3626
24613SOL    HW274418   3.919   1.219   7.639  1.7075  1.3295  0.8726
24614SOL     OW74419   6.394   1.846   8.510  0.5006  0.3135  0.2111
24614SOL    HW174420   6.334   1.913   8.476 -0.4637 -0.6573 -0.0534
24614SOL    HW274421   6.364   1.832   8.600 -0.3744 -0.9189 -0.2454
24615SOL     OW74422   1.972   8.685   3.059 -0.0828  0.5280 -0.1181
24615SOL    HW174423   2.061   8.651   3.072 -0.6117 -1.1218 -0.5504
24615SOL    HW274424   1.979   8.779   3.076  1.5732  0.2967  0.6415
24616SOL     OW74425   2.217   3.182   4.424  0.0833 -0.1802  0.6006
24616SOL    HW174426   2.202   3.266   4.468  1.7323  0.9498 -0.8771
24616SOL    HW274427   2.221   3.204   4.331 -1.9415 -2.3026 -0.1090
24617SOL     OW74428   3.396   1.610   8.562  0.6193  0.0406 -0.6591
24617SOL    HW174429   3.488   1.633   8.552  0.3756  1.2639 -0.3416
24617SOL    HW274430   3.395   1.518   8.585  1.7935  0.1476 -0.1538
24618SOL     OW74431   6.515   0.957   6.167  0.6064 -0.2999  0.3523
24618SOL    HW174432   6.444   0.912   6.213  2.8122 -0.2513  4.3039
24618SOL    HW274433   6.593   0.906   6.188  2.3425  1.9847 -0.1802
24619SOL     OW74434   5.880   6.790   3.087 -0.2733 -0.0931 -0.3814
24619SOL    HW174435   5.841   6.812   3.003  0.1189  0.3622 -0.4516
24619SOL    HW274436   5.841   6.853   3.148  0.4930  0.4960 -0.4895
24620SOL     OW74437   1.613   3.750   0.718 -0.1370  0.0007 -0.5914
24620SOL    HW174438   1.638   3.684   0.781  0.0352 -2.0477 -2.6734
24620SOL    HW274439   1.664   3.828   0.743 -0.3063 -0.6155  1.8782
24621SOL     OW74440   8.783   1.282   8.783  0.4906  0.0819 -0.4863
24621SOL    HW174441   8.815   1.345   8.848 -1.2724  1.8757 -1.2483
24621SOL    HW274442   8.765   1.203   8.833  0.4886  0.9690  0.9672
24622SOL     OW74443   3.133   0.043   0.087  0.2888  0.4041  0.4932
24622SOL    HW174444   3.054  -0.006   0.064  1.2030 -0.2049 -1.5669
24622SOL    HW274445   3.111   0.088   0.169 -2.0602  0.0019  0.1370
24623SOL     OW74446   4.620   4.121   1.192 -0.0188  0.7003  0.3028
24623SOL    HW174447   4.684   4.054   1.171 -1.0676 -0.5651  1.0114
24623SOL    HW274448   4.543   4.073   1.223 -1.3970  2.1458 -0.7039
24624SOL     OW74449   5.213   0.842   1.105  0.0680 -0.6249  0.3293
24624SOL    HW174450   5.298   0.804   1.131  1.4578 -0.5228 -3.4753
24624SOL    HW274451   5.161   0.767   1.077 -0.1000 -0.4346  0.1291
24625SOL     OW74452   7.224   0.592   8.314  0.1048 -0.2993  0.5863
24625SOL    HW174453   7.285   0.666   8.317  0.8530 -0.7512 -1.7702
24625SOL    HW274454   7.197   0.586   8.223 -4.6056  0.7087  1.6079
24626SOL     OW74455   4.405   3.221   6.280  0.1532 -0.2667 -0.2247
24626SOL    HW174456   4.454   3.261   6.208 -0.7351 -1.0800 -1.3217
24626SOL    HW274457   4.469   3.168   6.327  0.8388  0.6284 -0.1404
24627SOL     OW74458   7.434   4.976   5.805 -0.2361  0.1340 -0.0054
24627SOL    HW174459   7.489   4.911   5.761  1.6420 -0.1814  2.6327
24627SOL    HW274460   7.463   5.060   5.769 -0.5948 -0.2284 -1.2204
24628SOL     OW74461   3.037   2.026   9.754  0.0675  0.2576 -0.0707
24628SOL    HW174462   2.985   2.068   9.686  1.7539  1.1903 -0.8256
24628SOL    HW274463   3.069   1.945   9.713 -0.6515 -0.2574  0.3556
24629SOL     OW74464   7.693   9.119   0.383 -0.1793  0.4879 -0.6420
24629SOL    HW174465   7.649   9.166   0.453  2.3418 -0.9270  2.0791
24629SOL    HW274466   7.786   9.138   0.394  0.4444 -0.8411 -2.8203
24630SOL     OW74467   0.442   2.364   5.788  0.0850 -0.2487 -0.2633
24630SOL    HW174468   0.433   2.453   5.753  1.2797 -0.1167 -0.2822
24630SOL    HW274469   0.504   2.321   5.730  0.6325 -0.6267  0.5700
24631SOL     OW74470   3.748   1.641   8.796  0.2694 -0.1917 -0.4289
24631SOL    HW174471   3.744   1.607   8.706  1.6817 -1.6416  0.0038
24631SOL    HW274472   3.664   1.619   8.834 -0.3963  0.5402 -1.4068
24632SOL     OW74473   3.187   0.170   0.758 -0.3866  0.6938 -0.0337
24632SOL    HW174474   3.150   0.243   0.808 -0.2675 -0.3222  1.6380
24632SOL    HW274475   3.259   0.139   0.813 -0.3918 -0.6244 -0.7437
24633SOL     OW74476   4.220   9.775   5.530  0.3065  0.4959 -0.0852
24633SOL    HW174477   4.279   9.727   5.588 -3.6229 -1.4484  2.8391
24633SOL    HW274478   4.181   9.707   5.474 -0.0112  1.4932 -1.1004
24634SOL     OW74479   6.555   3.416   0.963 -0.4400  0.3796 -0.0814
24634SOL    HW174480   6.611   3.401   1.040 -1.9996 -0.3855  0.9509
24634SOL    HW274481   6.559   3.334   0.914 -0.1040  0.5850 -0.4126
24635SOL     OW74482   0.780   8.661   1.055  0.6090 -0.0774 -0.0198
24635SOL    HW174483   0.806   8.616   0.975  0.7096  0.6290 -0.3937
24635SOL    HW274484   0.855   8.651   1.114  0.2382 -1.2444  0.2671
24636SOL     OW74485   0.938   0.808   5.736  0.3875  0.9694 -0.4902
24636SOL    HW174486   0.951   0.716   5.756  0.2000  1.3308  1.5301
24636SOL    HW274487   1.015   0.852   5.772  0.9247  1.5284 -2.2524
24637SOL     OW74488   8.763   6.919   7.406 -0.3395  0.1352 -0.3985
24637SOL    HW174489   8.849   6.956   7.387  0.7761 -1.5619  0.9829
24637SOL    HW274490   8.714   6.991   7.446  1.0779  0.6587  0.4523
24638SOL     OW74491   8.173   7.086   7.126 -0.5897  0.2642  0.0685
24638SOL    HW174492   8.119   7.009   7.141 -0.1279 -0.1926 -0.6146
24638SOL    HW274493   8.192   7.086   7.032  0.0563  0.7781  0.1864
24639SOL     OW74494   4.887   7.226   6.582 -0.1530 -0.6816  0.6349
24639SOL    HW174495   4.807   7.280   6.579  2.0318  2.8236 -1.6769
24639SOL    HW274496   4.866   7.151   6.527 -2.2411 -0.5076  1.0832
24640SOL     OW74497   0.883   2.468   1.759  0.1316 -0.1070  0.2830
24640SOL    HW174498   0.802   2.459   1.709  0.6896  1.6308 -1.0795
24640SOL    HW274499   0.863   2.434   1.846 -1.9935  0.1248 -0.0711
24641SOL     OW74500   9.897   9.778   9.916 -0.4128  0.1780  0.8221
24641SOL    HW174501   9.851   9.706   9.960  0.6018 -1.4553 -0.6088
24641SOL    HW274502   9.929   9.834   9.986 -1.9024 -0.3301  1.9585
24642SOL     OW74503   0.834   6.174   1.763 -0.5647  0.2095  0.7371
24642SOL    HW174504   0.805   6.254   1.718 -1.0835  0.1346  0.9254
24642SOL    HW274505   0.900   6.137   1.705  0.8230  1.5684  1.3730
24643SOL     OW74506   7.583   0.290   5.074 -0.8270 -0.1648  0.0655
24643SOL    HW174507   7.509   0.229   5.081 -1.1354  0.3108  1.1721
24643SOL    HW274508   7.564   0.359   5.138  0.2942  0.2665 -0.0373
24644SOL     OW74509   0.088   0.982   4.613 -0.0258 -0.0981  0.1829
24644SOL    HW174510   0.179   0.965   4.589 -0.0513 -0.3009  0.2300
24644SOL    HW274511   0.045   1.003   4.530 -0.2263 -1.3059 -0.0325
24645SOL     OW74512   9.853   5.940   3.345 -0.7018 -0.1372  0.2261
24645SOL    HW174513   9.843   6.035   3.357 -2.2214 -0.5397  2.9156
24645SOL    HW274514   9.943   5.921   3.371 -0.4389  0.5391 -0.1720
24646SOL     OW74515   4.912   9.407   0.905  0.6913  0.2549  0.0856
24646SOL    HW174516   4.823   9.388   0.874  1.3352 -0.0958 -1.6771
24646SOL    HW274517   4.919   9.358   0.987  0.1147 -1.9615 -1.0801
24647SOL     OW74518   4.066   2.128   4.820  0.2097 -0.1317 -0.5785
24647SOL    HW174519   4.154   2.153   4.792  0.5527  0.7335  1.1188
24647SOL    HW274520   4.026   2.210   4.850 -0.0992 -0.9376  1.3990
24648SOL     OW74521   6.244   7.653   8.355  0.1374 -0.1196  0.2297
24648SOL    HW174522   6.154   7.686   8.354 -0.5887 -1.8895  1.6181
24648SOL    HW274523   6.269   7.648   8.263 -1.6927 -0.8382 -0.2594
24649SOL     OW74524   7.826   5.066   8.306  0.1844  0.4347 -0.0255
24649SOL    HW174525   7.916   5.070   8.336  0.0008  0.3079  0.5636
24649SOL    HW274526   7.777   5.030   8.381 -0.3433  0.4581 -0.3500
24650SOL     OW74527   1.385   0.121   0.915 -0.0558  0.8008 -0.3589
24650SOL    HW174528   1.323   0.071   0.968 -0.3985  0.2754 -1.2364
24650SOL    HW274529   1.385   0.077   0.830  0.5899  1.5425 -0.7549
24651SOL     OW74530   2.086   6.304   1.720  0.0750  0.2680  1.1373
24651SOL    HW174531   2.169   6.297   1.767  1.5061 -0.5783 -1.3236
24651SOL    HW274532   2.046   6.218   1.729  0.1797  0.2142  1.0857
24652SOL     OW74533   6.971   6.645   8.194  0.3721  0.3640 -0.0092
24652SOL    HW174534   6.916   6.569   8.178 -1.0476  1.1787  0.8017
24652SOL    HW274535   6.977   6.651   8.289  2.0854  0.1632 -0.0746
24653SOL     OW74536   5.148   4.102   2.231  0.2067 -0.0299  0.0873
24653SOL    HW174537   5.123   4.152   2.309 -0.9151  0.3614 -0.4988
24653SOL    HW274538   5.231   4.140   2.204 -0.0885  0.7969  0.2926
24654SOL     OW74539   5.476   9.670   4.173 -0.3748 -0.9350  0.9437
24654SOL    HW174540   5.431   9.729   4.233  0.4657  1.3837 -0.5709
24654SOL    HW274541   5.569   9.685   4.190 -0.1367 -2.0486  0.7032
24655SOL     OW74542   5.887   2.244   7.269  0.2031 -0.4105  1.0030
24655SOL    HW174543   5.925   2.324   7.303  0.2049  0.0676 -0.0778
24655SOL    HW274544   5.929   2.174   7.319  0.2302  0.2510  1.9236
24656SOL     OW74545   8.994   1.920   7.651 -0.3372  0.2604  0.4354
24656SOL    HW174546   8.974   1.975   7.727  0.6106 -1.3024  1.8737
24656SOL    HW274547   8.920   1.934   7.591 -0.4171  2.6179  0.9730
24657SOL     OW74548   1.382   3.425   6.522  0.3194  0.5465  0.0812
24657SOL    HW174549   1.295   3.388   6.514  0.4277  0.2160  0.4196
24657SOL    HW274550   1.368   3.517   6.543  0.0508  0.4314  0.4129
24658SOL     OW74551   0.268   2.750   3.738 -0.0200 -0.3743  0.0242
24658SOL    HW174552   0.328   2.824   3.750  0.7886 -0.7738 -1.2797
24658SOL    HW274553   0.199   2.764   3.802 -0.7016  2.3599 -1.1711
24659SOL     OW74554   1.823   9.113   1.156 -0.7197  0.4291  0.5621
24659SOL    HW174555   1.868   9.039   1.199 -0.1257  0.9515  0.8518
24659SOL    HW274556   1.758   9.071   1.100 -0.5305 -0.3164  0.8799
24660SOL     OW74557   6.956   4.592   6.839  0.1841 -0.0719 -0.3323
24660SOL    HW174558   7.000   4.572   6.921  1.1766  0.8773 -0.6141
24660SOL    HW274559   6.887   4.653   6.864  1.9896  2.1484 -0.4586
24661SOL     OW74560   8.389   1.157   0.225 -0.0228  0.7324  1.2009
24661SOL    HW174561   8.449   1.173   0.153 -1.1615 -1.1151 -0.2626
24661SOL    HW274562   8.350   1.242   0.244 -2.5326  0.8127 -3.0692
24662SOL     OW74563   4.245   7.975   8.190  0.2473 -0.0655  0.2076
24662SOL    HW174564   4.238   7.967   8.286 -2.9878 -0.2594  0.0761
24662SOL    HW274565   4.246   8.070   8.175  1.5751 -0.0227  0.4053
24663SOL     OW74566   2.915   9.280   2.201 -0.0516  0.4122 -0.2786
24663SOL    HW174567   2.898   9.299   2.293 -1.6225  0.1186 -0.4886
24663SOL    HW274568   2.997   9.230   2.202  0.6726  1.5640  0.8127
24664SOL     OW74569   4.935   7.934   5.201 -0.2082 -0.2836 -0.0752
24664SOL    HW174570   4.932   7.848   5.241 -1.0316 -0.1070  0.2595
24664SOL    HW274571   4.888   7.991   5.262  0.4099  0.4287 -0.2396
24665SOL     OW74572   9.049   9.273   7.285  0.4487  0.3670 -0.3377
24665SOL    HW174573   9.143   9.287   7.271  0.1991  0.9583 -1.4722
24665SOL    HW274574   9.029   9.195   7.234  0.4707 -0.2640  0.5822
24666SOL     OW74575   0.198   2.017   3.916 -0.2051  0.1107  0.0927
24666SOL    HW174576   0.203   2.003   4.011 -0.9540  1.8736  0.4356
24666SOL    HW274577   0.107   2.040   3.900  0.1309  0.8255 -0.8947
24667SOL     OW74578   4.681   1.651   4.197 -0.1389  0.3476  0.2436
24667SOL    HW174579   4.717   1.611   4.117 -1.9626  1.0655 -1.0143
24667SOL    HW274580   4.664   1.578   4.255  0.3236 -0.2991 -0.4156
24668SOL     OW74581   4.727   3.650   4.439  0.7742 -0.1816  0.1033
24668SOL    HW174582   4.787   3.638   4.512  0.7919 -3.1445 -0.2741
24668SOL    HW274583   4.685   3.734   4.456  1.6936 -0.1695  2.8220
24669SOL     OW74584   2.609   8.736   3.793  0.0826  0.0194  0.2402
24669SOL    HW174585   2.552   8.734   3.870 -0.3003  1.6848  0.0381
24669SOL    HW274586   2.572   8.670   3.734  0.4883 -1.4192  1.5190
24670SOL     OW74587   4.476   9.495   2.843  0.1767  0.1087 -0.2030
24670SOL    HW174588   4.424   9.566   2.880  0.6389  0.1272  0.4307
24670SOL    HW274589   4.510   9.531   2.761  2.2168  1.4720  1.1435
24671SOL     OW74590   5.345   2.174   5.441  0.2324 -0.6610 -0.3192
24671SOL    HW174591   5.435   2.152   5.420  0.5861 -0.6614  1.0753
24671SOL    HW274592   5.317   2.232   5.370  1.2240 -0.9034 -0.9215
24672SOL     OW74593   6.281   7.016   3.886 -0.1496  0.1915  0.1226
24672SOL    HW174594   6.214   7.040   3.823  2.0133  2.0459 -1.6830
24672SOL    HW274595   6.235   7.012   3.970 -2.6834  0.0953 -1.1727
24673SOL     OW74596   7.697   8.440   9.526 -0.4357 -0.2210  0.1543
24673SOL    HW174597   7.776   8.424   9.579 -1.6498 -2.4093  1.4897
24673SOL    HW274598   7.701   8.374   9.457 -0.5800  0.3838 -0.4413
24674SOL     OW74599   9.663   4.030   6.840 -0.3249  0.3906  0.1408
24674SOL    HW174600   9.567   4.026   6.847 -0.2398 -0.2424  1.1542
24674SOL    HW274601   9.687   3.951   6.793 -0.1356 -0.8227  2.1731
24675SOL     OW74602   7.548   0.739   5.324 -0.1734  0.6127 -0.1097
24675SOL    HW174603   7.543   0.723   5.418 -0.9350  0.9518 -0.0870
24675SOL    HW274604   7.620   0.683   5.294 -2.0435 -2.1450  0.1431
24676SOL     OW74605   7.893   8.829   4.285  0.0296 -0.6868 -0.2720
24676SOL    HW174606   7.963   8.767   4.266  1.0404  0.9726 -2.3692
24676SOL    HW274607   7.879   8.877   4.203 -0.2603  2.2224  1.3185
24677SOL     OW74608   1.948   1.818   6.125 -0.5500 -0.3819  0.0261
24677SOL    HW174609   2.012   1.758   6.088 -0.3186  1.2304 -2.3608
24677SOL    HW274610   1.993   1.857   6.201  1.3639  0.7068 -1.5791
24678SOL     OW74611   6.940   9.357   1.580 -0.6972  0.0914 -0.6547
24678SOL    HW174612   7.025   9.396   1.601  0.1409 -1.1265 -1.5894
24678SOL    HW274613   6.876   9.421   1.610  0.5087  0.5807  1.0303
24679SOL     OW74614   5.036   2.657   1.018 -0.2277 -0.0966  0.0167
24679SOL    HW174615   5.033   2.695   0.930 -1.1392 -2.6911 -1.1788
24679SOL    HW274616   5.129   2.638   1.033 -0.1471 -0.2925 -0.7111
24680SOL     OW74617   6.530   2.257   1.938  0.0789  0.5659  0.4152
24680SOL    HW174618   6.455   2.206   1.906  0.0091 -1.6353  3.5895
24680SOL    HW274619   6.495   2.308   2.011  0.9299  2.5982 -0.5189
24681SOL     OW74620   9.602   8.999   2.386  0.0104  0.3144  0.3290
24681SOL    HW174621   9.549   8.980   2.463 -0.5811  0.7484  0.0365
24681SOL    HW274622   9.539   9.028   2.320  0.3228 -1.3256 -0.7708
24682SOL     OW74623   7.722   3.669   1.910 -0.3478  0.8465 -0.0954
24682SOL    HW174624   7.636   3.631   1.924  1.2831 -2.8917  1.1241
24682SOL    HW274625   7.762   3.671   1.997  1.1588  1.6079 -0.7528
24683SOL     OW74626   2.160   6.332   2.985  0.3626  0.4138  0.2357
24683SOL    HW174627   2.192   6.296   2.902  0.7922  2.1070 -0.3795
24683SOL    HW274628   2.156   6.257   3.044 -1.1460 -1.1000 -1.6417
24684SOL     OW74629   4.697   0.478   0.830  0.4723 -0.5125  0.1511
24684SOL    HW174630   4.780   0.461   0.876  1.2323  1.8975 -0.1996
24684SOL    HW274631   4.657   0.550   0.878 -0.3569 -0.1860 -0.9839
24685SOL     OW74632   5.904   8.268   5.640  0.7617 -0.1495 -0.1971
24685SOL    HW174633   5.850   8.246   5.564  0.6658 -0.7283  0.0386
24685SOL    HW274634   5.979   8.315   5.603  0.7582 -0.4985 -0.6572
24686SOL     OW74635   4.144   2.312   6.201 -0.3247  0.3621  0.8332
24686SOL    HW174636   4.111   2.236   6.154 -0.6512  1.7467 -1.2887
24686SOL    HW274637   4.237   2.314   6.183 -0.3492  0.5690  0.7263
24687SOL     OW74638   4.432   6.380   4.888 -0.0824  0.3884  0.6007
24687SOL    HW174639   4.484   6.441   4.836  3.3981 -2.6503  0.1302
24687SOL    HW274640   4.466   6.388   4.977 -0.3081 -0.1557  0.7417
24688SOL     OW74641   1.845   0.463   7.952  0.5516  0.0931  0.6755
24688SOL    HW174642   1.750   0.457   7.968  0.3500  3.1759  1.1122
24688SOL    HW274643   1.865   0.382   7.904 -2.5499 -0.0750 -0.6455
24689SOL     OW74644   4.467   0.615   4.354  0.0897 -0.4596  0.6115
24689SOL    HW174645   4.418   0.598   4.434 -1.7950  0.9120 -0.1690
24689SOL    HW274646   4.415   0.680   4.307  0.1332 -2.4801 -2.5765
24690SOL     OW74647   7.300   0.016   2.379  0.0319  0.0353  0.2609
24690SOL    HW174648   7.214   0.015   2.336  0.0001 -2.1104  0.2930
24690SOL    HW274649   7.281   0.004   2.472  0.3417  0.1889  0.3455
24691SOL     OW74650   5.082   0.235   5.706 -0.4583 -0.0895  0.1527
24691SOL    HW174651   4.989   0.221   5.725 -0.0783 -0.8581  1.5948
24691SOL    HW274652   5.093   0.198   5.618 -1.5614  0.2783 -0.1669
24692SOL     OW74653   9.534   5.349   3.572  0.0645 -0.3613 -0.0910
24692SOL    HW174654   9.442   5.374   3.581  0.7856  2.8873 -0.4762
24692SOL    HW274655   9.571   5.363   3.659  0.6367  0.6033 -0.4761
24693SOL     OW74656   7.960   3.283   5.303 -0.9132 -0.3824  0.2062
24693SOL    HW174657   7.897   3.223   5.343  1.0205 -0.6802  3.1164
24693SOL    HW274658   7.969   3.354   5.367  0.6463  0.3386 -0.7579
24694SOL     OW74659   7.102   8.908   6.649  0.2547  0.0489  0.5143
24694SOL    HW174660   7.007   8.902   6.649  0.2145  0.6287 -0.1289
24694SOL    HW274661   7.121   9.002   6.650  0.8282 -0.0669  1.6042
24695SOL     OW74662   6.203   5.293   9.686  0.7172  0.1324 -0.4449
24695SOL    HW174663   6.293   5.277   9.716  1.1463  0.8087 -1.3074
24695SOL    HW274664   6.175   5.369   9.736  0.2167 -0.7235  0.6059
24696SOL     OW74665   8.409   1.360   3.917  0.1624  0.0538  0.1003
24696SOL    HW174666   8.319   1.393   3.917  0.2424  0.4427  2.2665
24696SOL    HW274667   8.430   1.347   3.825 -1.1695  2.5676 -0.6684
24697SOL     OW74668   3.499   2.714   5.971  0.1023 -0.0383 -0.3343
24697SOL    HW174669   3.420   2.691   5.922 -0.9363  0.0330  1.2254
24697SOL    HW274670   3.571   2.672   5.923 -0.9769 -0.8742 -1.2704
24698SOL     OW74671   3.812   6.910   0.128  0.1435 -0.5424 -0.1199
24698SOL    HW174672   3.778   6.999   0.123 -0.5666 -0.8588 -1.2318
24698SOL    HW274673   3.853   6.905   0.215  0.9864  1.1263 -0.3836
24699SOL     OW74674   6.621   3.112   6.744  0.0881  0.2930  0.0533
24699SOL    HW174675   6.687   3.093   6.677  1.3569  1.8266  0.8179
24699SOL    HW274676   6.641   3.053   6.816  1.3047  1.4388  0.6894
24700SOL     OW74677   5.067   8.656   0.009  0.1197 -0.0291 -0.3696
24700SOL    HW174678   5.081   8.751   0.005 -0.4476  0.0278 -3.6813
24700SOL    HW274679   5.012   8.644   0.087 -1.8057  2.6976 -1.1181
24701SOL     OW74680   2.909   3.098   9.353  0.2623 -0.2007 -0.7287
24701SOL    HW174681   2.849   3.134   9.288  0.7851  0.6480 -0.7498
24701SOL    HW274682   2.851   3.057   9.418 -0.2931 -0.3278 -1.2891
24702SOL     OW74683   3.044   6.204   1.788  0.9521  0.1151  0.5093
24702SOL    HW174684   3.091   6.123   1.765  0.0303  0.0455 -1.3683
24702SOL    HW274685   2.978   6.213   1.719 -0.7069  1.0872  2.1367
24703SOL     OW74686   4.366   9.772   9.898 -0.0480  0.1500 -0.0024
24703SOL    HW174687   4.414   9.843   9.941 -0.9305  0.3840  0.6149
24703SOL    HW274688   4.396   9.775   9.807  0.2082  1.0653  0.1002
24704SOL     OW74689   3.322   4.273   3.175  0.2312  0.1151 -0.1379
24704SOL    HW174690   3.411   4.258   3.207 -0.0996 -0.3124  0.6418
24704SOL    HW274691   3.326   4.255   3.081  0.4482 -2.5119  0.2876
24705SOL     OW74692   3.230   4.602   3.267  0.1254  0.0284  0.2478
24705SOL    HW174693   3.184   4.536   3.215 -0.1971  0.4200  0.0292
24705SOL    HW274694   3.198   4.590   3.356  1.0608 -0.9873  0.4709
24706SOL     OW74695   2.887   6.680   7.856 -0.0561  0.1132 -0.4224
24706SOL    HW174696   2.866   6.731   7.778  0.2133  1.8437  0.5762
24706SOL    HW274697   2.975   6.709   7.881 -0.8503  1.0611  1.5612
24707SOL     OW74698   7.674   6.368   5.387  0.0045  0.0163  0.0312
24707SOL    HW174699   7.698   6.326   5.470 -1.1351 -1.2386 -0.2450
24707SOL    HW274700   7.594   6.323   5.360 -1.1315  2.1908 -0.4360
24708SOL     OW74701   4.344   6.420   8.549  0.2732  0.1930  0.2168
24708SOL    HW174702   4.369   6.490   8.610 -1.6873  0.0068  1.3085
24708SOL    HW274703   4.270   6.377   8.591  0.9655 -2.1087 -0.7798
24709SOL     OW74704   9.134   2.997   6.547  0.0839 -0.2458  0.8265
24709SOL    HW174705   9.115   3.016   6.455  1.3783 -0.9507  0.3765
24709SOL    HW274706   9.051   2.968   6.584 -0.1625 -1.4009 -0.5261
24710SOL     OW74707   2.500   1.385   6.141 -0.5469 -0.3459 -0.4138
24710SOL    HW174708   2.542   1.327   6.204  2.9085  0.7345 -1.4805
24710SOL    HW274709   2.506   1.338   6.058 -1.9513 -0.3265 -0.5554
24711SOL     OW74710   8.365   6.802   4.785  0.2520 -0.3545 -0.4204
24711SOL    HW174711   8.293   6.847   4.740  0.7233 -1.0976 -1.9845
24711SOL    HW274712   8.354   6.710   4.762  1.6994 -0.4761 -0.6910
24712SOL     OW74713   8.795   1.093   8.963  0.0813  0.1184  0.2727
24712SOL    HW174714   8.780   1.140   9.045 -1.2790 -1.6511  1.1124
24712SOL    HW274715   8.882   1.054   8.973  1.2483  2.3945 -0.4587
24713SOL     OW74716   5.467   0.310   9.543 -0.3744 -0.6019  0.6428
24713SOL    HW174717   5.436   0.359   9.467 -0.2393  1.6930  2.0070
24713SOL    HW274718   5.553   0.277   9.517 -0.3995  0.0098 -0.2503
24714SOL     OW74719   2.790   3.040   4.382  0.2665  0.0912 -0.4472
24714SOL    HW174720   2.802   3.134   4.392 -0.7083  0.2076 -0.2352
24714SOL    HW274721   2.708   3.021   4.428  1.3126 -1.1448  1.0195
24715SOL     OW74722   1.994   0.703   2.684 -0.2620 -0.3495 -0.2341
24715SOL    HW174723   1.966   0.639   2.620  0.2848 -0.6487 -0.1774
24715SOL    HW274724   2.006   0.653   2.765  2.0784 -0.5961 -0.6425
24716SOL     OW74725   7.914   2.938   9.396 -0.1227 -0.4379 -0.6538
24716SOL    HW174726   7.972   2.911   9.467  0.6689 -0.9635 -1.4809
24716SOL    HW274727   7.832   2.961   9.440  0.4947 -0.3023  0.4716
24717SOL     OW74728   5.626   4.451   6.787 -0.9510  0.1081  0.2158
24717SOL    HW174729   5.620   4.356   6.777  0.5318 -0.2049  1.7243
24717SOL    HW274730   5.659   4.483   6.703 -1.2112 -0.7460 -0.2167
24718SOL     OW74731   6.019   2.939   3.939  0.0603  0.5359  0.0977
24718SOL    HW174732   6.083   3.011   3.932  1.9678 -1.1378 -0.7717
24718SOL    HW274733   5.936   2.979   3.915  0.3809  3.1974  2.7444
24719SOL     OW74734   4.173   6.914   0.078  0.3665  0.2068  0.3078
24719SOL    HW174735   4.118   6.982   0.117 -0.6467 -1.2516  1.5171
24719SOL    HW274736   4.223   6.961   0.011 -0.8454  1.9942  0.5521
24720SOL     OW74737   5.499   1.506   4.298 -0.0150  0.3315 -0.0627
24720SOL    HW174738   5.421   1.487   4.246 -0.2705  1.8235 -0.2501
24720SOL    HW274739   5.465   1.529   4.384  0.1092  2.2061 -0.4840
24721SOL     OW74740   8.879   6.710   1.493 -0.4943 -0.2800 -0.1391
24721SOL    HW174741   8.856   6.671   1.577 -3.3804  0.0676 -0.6744
24721SOL    HW274742   8.897   6.802   1.512 -1.1832 -0.1933  0.1051
24722SOL     OW74743   1.032   7.695   3.597  0.0849  0.3366  0.6466
24722SOL    HW174744   1.087   7.679   3.674 -0.0052 -1.2800  0.4133
24722SOL    HW274745   1.052   7.786   3.572  1.1576  0.4341  1.7366
24723SOL     OW74746   8.820   2.608   3.604  0.1576  0.3937 -0.2692
24723SOL    HW174747   8.877   2.682   3.622  0.2148  0.2749  0.0511
24723SOL    HW274748   8.866   2.557   3.538  0.3333  0.4028 -0.1536
24724SOL     OW74749   2.422   9.706   5.783 -0.2256  0.1385 -0.3590
24724SOL    HW174750   2.355   9.741   5.841 -0.8896 -0.2402 -0.8740
24724SOL    HW274751   2.378   9.699   5.698  0.5673  0.1928 -0.7773
24725SOL     OW74752   8.448   3.460   7.054 -0.3265 -0.1532 -0.4550
24725SOL    HW174753   8.377   3.520   7.077 -0.4487 -0.7997  0.9395
24725SOL    HW274754   8.403   3.383   7.018 -0.4098 -0.8830  1.1504
24726SOL     OW74755   3.902   7.507   3.945 -0.1757 -0.3405  0.4111
24726SOL    HW174756   3.925   7.560   3.869  1.2482 -0.7729  0.5196
24726SOL    HW274757   3.808   7.521   3.956 -0.1535  0.7736 -0.6127
24727SOL     OW74758   8.524   9.325   6.231  0.5594  0.1863  0.3978
24727SOL    HW174759   8.602   9.273   6.208  1.4983  1.8818 -0.4431
24727SOL    HW274760   8.514   9.387   6.159 -2.3096 -0.7051 -0.0903
24728SOL     OW74761   6.879   6.426   3.460  0.2037  0.2223  0.6954
24728SOL    HW174762   6.937   6.483   3.510 -0.6256  0.4136  1.4781
24728SOL    HW274763   6.794   6.470   3.464 -0.2880 -0.7214  0.7168
24729SOL     OW74764   6.275   1.825   1.081  0.0569 -0.0983  0.5707
24729SOL    HW174765   6.220   1.781   1.146 -2.1865  1.6809  0.0206
24729SOL    HW274766   6.348   1.860   1.132 -0.3531 -0.8501  1.7084
24730SOL     OW74767   8.397   7.163   2.610 -0.1296  0.0569  0.2645
24730SOL    HW174768   8.430   7.245   2.574 -0.1718  0.2540  0.6633
24730SOL    HW274769   8.460   7.139   2.678 -0.5510  0.1923  0.7086
24731SOL     OW74770   5.316   5.252   0.584  0.3899  0.3138  0.1627
24731SOL    HW174771   5.356   5.172   0.618 -0.6009  0.0521  0.7693
24731SOL    HW274772   5.238   5.221   0.537  0.5529  0.8503 -0.4612
24732SOL     OW74773   0.904   4.336  -0.003  0.3764 -0.5356  0.3014
24732SOL    HW174774   0.872   4.251  -0.034 -3.7713  0.5007  1.1105
24732SOL    HW274775   0.842   4.361   0.065  1.2415  3.2740 -0.1133
24733SOL     OW74776   2.275   0.657   3.632 -0.1081  0.6178  0.7674
24733SOL    HW174777   2.354   0.608   3.655 -0.2132 -0.4140 -0.8730
24733SOL    HW274778   2.210   0.629   3.696  0.5356  0.5684  1.4070
24734SOL     OW74779   1.299   5.572   1.015 -0.0870 -0.0460  0.2122
24734SOL    HW174780   1.339   5.485   1.018 -0.6164 -0.2772  1.5638
24734SOL    HW274781   1.294   5.593   0.922 -0.2226 -1.5954 -0.1687
24735SOL     OW74782   6.607   4.840   1.664 -0.0833 -0.2611 -0.0508
24735SOL    HW174783   6.615   4.760   1.613  1.3093  1.2661 -2.4295
24735SOL    HW274784   6.697   4.866   1.682 -0.5319  0.1042  1.8556
24736SOL     OW74785   1.803   6.163   8.122 -0.2355  0.2083 -0.3647
24736SOL    HW174786   1.898   6.168   8.112 -0.3587  2.0283 -0.9188
24736SOL    HW274787   1.770   6.236   8.070 -1.8344  0.7992  1.3998
24737SOL     OW74788   1.042   8.425   4.426 -0.5879  0.1896  0.3540
24737SOL    HW174789   1.052   8.333   4.399 -0.9748  0.1833  0.2239
24737SOL    HW274790   1.131   8.459   4.427 -0.4685 -0.1031  0.0984
24738SOL     OW74791   5.835   2.337   9.123  0.1158 -0.8723 -0.0218
24738SOL    HW174792   5.919   2.378   9.105  1.8644 -3.7029  1.0719
24738SOL    HW274793   5.852   2.243   9.122 -3.2194 -1.6233 -0.4854
24739SOL     OW74794   3.147   1.999   6.224 -0.1090 -0.0676  0.1080
24739SOL    HW174795   3.096   1.942   6.282 -1.9292 -0.5532 -1.8421
24739SOL    HW274796   3.227   2.017   6.273 -0.9455 -1.5455  2.1834
24740SOL     OW74797   5.102   7.144   3.848  0.4028 -0.1569  0.5266
24740SOL    HW174798   5.162   7.218   3.837 -0.9154  0.7239 -1.1888
24740SOL    HW274799   5.065   7.157   3.935 -1.2911  2.4536 -0.4464
24741SOL     OW74800   0.323   3.238   2.772 -0.3383  0.4813  0.2715
24741SOL    HW174801   0.295   3.150   2.748 -0.9287  0.6120  0.4417
24741SOL    HW274802   0.378   3.267   2.699  2.5507 -1.1995  1.6085
24742SOL     OW74803   1.419   2.807   4.956 -0.0013  0.3015  0.2597
24742SOL    HW174804   1.514   2.800   4.964 -0.1298 -3.5929  0.1408
24742SOL    HW274805   1.404   2.833   4.865  1.0434 -2.6520 -0.8756
24743SOL     OW74806   9.626   8.473   1.080 -0.3184  0.3491  0.0990
24743SOL    HW174807   9.546   8.439   1.120 -0.6303  1.6860  0.6882
24743SOL    HW274808   9.691   8.404   1.092 -1.9856 -1.9608 -2.7863
24744SOL     OW74809   9.910   8.778   3.010 -0.9305  0.7175  0.7429
24744SOL    HW174810   9.889   8.768   2.918  2.2217  1.9305 -0.2486
24744SOL    HW274811   9.835   8.826   3.047 -2.3875 -0.0721 -1.0385
24745SOL     OW74812   9.880   0.748   6.873 -0.3693 -0.5524 -0.0444
24745SOL    HW174813   9.903   0.744   6.780  2.9853  1.4593  0.5168
24745SOL    HW274814   9.828   0.828   6.881 -1.3931 -1.1817 -0.2761
24746SOL     OW74815   8.147   7.797   7.724 -0.6394 -0.3021  0.6868
24746SOL    HW174816   8.192   7.756   7.798  0.2808  0.5765  0.6335
24746SOL    HW274817   8.114   7.723   7.673  0.5120 -0.9814  0.8816
24747SOL     OW74818   6.423   7.738   3.947  0.0496  0.0417  0.1172
24747SOL    HW174819   6.335   7.774   3.961 -0.0441  0.5316 -1.4875
24747SOL    HW274820   6.466   7.747   4.032 -1.7524 -1.1200  1.2227
24748SOL     OW74821   6.516   0.414   5.492  0.3000  0.4994  0.2252
24748SOL    HW174822   6.516   0.477   5.420  1.2177  0.8031  0.4789
24748SOL    HW274823   6.443   0.441   5.548 -1.3827 -0.6237 -1.3181
24749SOL     OW74824   5.091   8.607   2.510 -0.0508  0.0836 -0.2356
24749SOL    HW174825   5.061   8.695   2.536 -2.9966 -0.9699  0.3465
24749SOL    HW274826   5.110   8.563   2.593 -2.3030 -0.9630 -0.2120
24750SOL     OW74827   9.543   9.578   1.637  0.4384  0.2384 -0.5569
24750SOL    HW174828   9.589   9.548   1.558 -0.7002 -2.5978 -0.2804
24750SOL    HW274829   9.600   9.550   1.709 -0.3024 -0.6492 -0.3005
24751SOL     OW74830   9.618   0.003   0.749 -0.2535  0.2363  0.2586
24751SOL    HW174831   9.629   0.020   0.656  1.5011  1.9602  0.7118
24751SOL    HW274832   9.605   0.089   0.789  1.0914 -0.2153  1.8126
24752SOL     OW74833   0.510   4.042   7.737 -0.1644 -0.0519 -0.0141
24752SOL    HW174834   0.502   4.025   7.831 -0.6539 -0.7498 -0.1764
24752SOL    HW274835   0.580   3.983   7.708 -1.0564 -0.9661 -0.3607
24753SOL     OW74836   0.986   0.617   8.728  0.2775 -0.3603 -0.2200
24753SOL    HW174837   1.013   0.561   8.801  2.0984  0.4441 -0.2342
24753SOL    HW274838   0.939   0.558   8.669 -1.2036 -1.0391  1.5323
24754SOL     OW74839   6.780   9.221   5.152  0.1004 -0.5604 -0.3497
24754SOL    HW174840   6.723   9.260   5.218 -0.3606 -0.6129 -0.7083
24754SOL    HW274841   6.770   9.126   5.164  0.6481 -0.5707  0.0386
24755SOL     OW74842   6.009   9.603   0.776  0.1938  1.3268 -0.0457
24755SOL    HW174843   6.089   9.644   0.743  0.0771 -0.2442 -2.5550
24755SOL    HW274844   6.025   9.593   0.870  2.4135  2.1792 -0.2541
24756SOL     OW74845   2.034   8.489   9.707 -0.3903  0.0886  0.1004
24756SOL    HW174846   2.059   8.399   9.689 -0.7923  0.1119 -0.6215
24756SOL    HW274847   2.117   8.535   9.721 -0.1475 -0.2474 -0.2252
24757SOL     OW74848   9.083   0.474   9.907  0.0966  1.0599  0.0840
24757SOL    HW174849   9.112   0.562   9.931  0.6514  0.9115 -0.0144
24757SOL    HW274850   8.988   0.481   9.899  0.1660  1.7263 -0.2336
24758SOL     OW74851   2.872   3.242   7.768 -0.5159 -0.0352 -0.5273
24758SOL    HW174852   2.921   3.224   7.689 -0.2892  1.7615 -0.8415
24758SOL    HW274853   2.915   3.318   7.807 -1.4603 -0.0287  0.5855
24759SOL     OW74854   1.774   3.309   1.898  0.3934 -0.8732 -0.1203
24759SOL    HW174855   1.780   3.401   1.926 -0.4539 -1.9847  4.4924
24759SOL    HW274856   1.859   3.272   1.922  0.4536 -1.4949 -1.2563
24760SOL     OW74857   0.449   2.710   7.128  0.2686 -0.3897  0.2518
24760SOL    HW174858   0.373   2.667   7.167  1.4270 -1.0818  1.8511
24760SOL    HW274859   0.417   2.797   7.104 -1.8743 -1.7073 -2.2114
24761SOL     OW74860   5.278   2.249   0.524  0.4624  0.1417 -0.6185
24761SOL    HW174861   5.305   2.213   0.440  2.1830  0.6955 -0.3511
24761SOL    HW274862   5.240   2.175   0.571  2.0861 -0.8876 -0.8253
24762SOL     OW74863   0.683   3.355   2.780  0.0850 -0.3463  0.8462
24762SOL    HW174864   0.721   3.383   2.696 -1.5291  1.0497  0.5193
24762SOL    HW274865   0.627   3.429   2.806 -1.6296 -1.8943  1.7430
24763SOL     OW74866   2.926   6.684   2.587  0.3365 -0.4528  0.2775
24763SOL    HW174867   2.871   6.642   2.653  1.4577 -2.2135  0.1681
24763SOL    HW274868   3.003   6.626   2.580  2.1927  1.8489  0.4075
24764SOL     OW74869   4.111   7.478   8.273  0.0841  0.5436  0.3720
24764SOL    HW174870   4.188   7.512   8.226 -0.9114  2.6184  0.1277
24764SOL    HW274871   4.050   7.453   8.204  0.7514 -1.8518  0.5502
24765SOL     OW74872   9.558   0.459   1.644 -0.0778 -0.2523  0.0554
24765SOL    HW174873   9.578   0.368   1.624  0.3426  0.1749 -1.6437
24765SOL    HW274874   9.491   0.484   1.579  0.1504  0.7669  0.1914
24766SOL     OW74875   1.330   1.787   7.243 -0.4770 -0.6888  0.6306
24766SOL    HW174876   1.408   1.750   7.286 -0.1764  0.8877  1.5448
24766SOL    HW274877   1.258   1.732   7.273  0.0490 -1.0478  1.2717
24767SOL     OW74878   4.815   6.622   2.909  0.2863  0.3320 -0.0719
24767SOL    HW174879   4.768   6.576   2.839  1.3717  0.5396 -0.9660
24767SOL    HW274880   4.882   6.561   2.938  0.8205  0.7973 -0.2867
24768SOL     OW74881   4.461   9.111   6.734  0.2606  0.4169  0.0021
24768SOL    HW174882   4.383   9.058   6.722  0.3734  0.0810  0.7095
24768SOL    HW274883   4.502   9.113   6.647 -0.5959  0.7189 -0.4075
24769SOL     OW74884   3.671   0.294   0.829  0.1355  0.3081 -0.2620
24769SOL    HW174885   3.726   0.226   0.792  0.4057  0.4225 -0.0754
24769SOL    HW274886   3.707   0.309   0.917 -0.4815  0.0507  0.0472
24770SOL     OW74887   9.382   5.163   9.163 -0.8722  0.0137 -0.8436
24770SOL    HW174888   9.468   5.135   9.193 -1.0204 -0.6756 -1.0388
24770SOL    HW274889   9.400   5.238   9.107 -0.4514  0.2346 -0.4227
24771SOL     OW74890   3.763   5.720   8.089 -0.5133 -0.8443  0.3196
24771SOL    HW174891   3.854   5.705   8.062 -0.6681 -1.9234  0.3307
24771SOL    HW274892   3.766   5.799   8.143  0.2629 -0.3136 -0.4670
24772SOL     OW74893   1.536   3.567   8.370 -0.3450  0.1777  0.0711
24772SOL    HW174894   1.521   3.544   8.462 -1.6305 -0.3604 -0.2582
24772SOL    HW274895   1.450   3.591   8.337  0.5062  2.9492 -0.3411
24773SOL     OW74896   3.731   1.629   3.915  0.1863  0.3749  0.0190
24773SOL    HW174897   3.714   1.559   3.852 -1.0642  0.4345  0.2625
24773SOL    HW274898   3.783   1.693   3.866  0.5120 -0.2695 -0.4913
24774SOL     OW74899   0.131   1.938   7.282 -0.4751  0.0581 -0.2041
24774SOL    HW174900   0.076   1.883   7.337 -0.5384  0.9973  0.7045
24774SOL    HW274901   0.164   1.879   7.214  0.9760 -1.5394  1.7934
24775SOL     OW74902   1.680   5.100   0.112  0.1667  0.5077 -0.3734
24775SOL    HW174903   1.643   5.019   0.077  1.2106  0.0851 -0.5503
24775SOL    HW274904   1.703   5.079   0.203  0.4328  0.6034 -0.4172
24776SOL     OW74905   3.636   9.929   1.505  0.0139 -0.2469 -0.0429
24776SOL    HW174906   3.559   9.982   1.524  0.4759  0.5149 -0.2780
24776SOL    HW274907   3.708   9.974   1.550  0.1488 -1.5547  1.1151
24777SOL     OW74908   4.346   2.919   3.302 -0.6349 -0.2145 -0.2961
24777SOL    HW174909   4.320   2.844   3.356 -0.5636 -1.0029 -1.3152
24777SOL    HW274910   4.334   2.995   3.358 -1.2431 -0.9428  0.5849
24778SOL     OW74911   7.736   9.178   8.485  0.5747 -0.6121  0.1753
24778SOL    HW174912   7.803   9.200   8.549  0.5138  1.1022 -0.2901
24778SOL    HW274913   7.749   9.085   8.467 -0.0921 -1.4611  3.4194
24779SOL     OW74914   9.519   5.007   6.902  0.2515 -0.0302 -0.1503
24779SOL    HW174915   9.603   5.052   6.909  0.3481 -0.0172 -1.1775
24779SOL    HW274916   9.463   5.068   6.853 -0.0233 -0.4654 -0.3875
24780SOL     OW74917   5.177   1.255   8.772 -0.0457  0.1661 -0.3595
24780SOL    HW174918   5.111   1.187   8.759  0.5979 -0.2172 -1.8355
24780SOL    HW274919   5.238   1.243   8.700  0.6970  1.6167 -0.0087
24781SOL     OW74920   6.421   2.558   8.412  0.1434  0.0044 -0.6941
24781SOL    HW174921   6.326   2.554   8.414  0.0806  0.5617 -1.9885
24781SOL    HW274922   6.449   2.471   8.383 -0.0073  0.0949 -1.1114
24782SOL     OW74923   0.123   1.326   5.903  0.0431  0.2198  0.3463
24782SOL    HW174924   0.190   1.257   5.900  1.3225  1.3937  0.6020
24782SOL    HW274925   0.117   1.350   5.995 -0.5148  0.3412  0.2847
24783SOL     OW74926   8.258   8.099   1.360  0.3866  0.0100 -0.3932
24783SOL    HW174927   8.252   8.161   1.287  1.7158  0.4607 -0.1482
24783SOL    HW274928   8.293   8.019   1.320  0.9510  0.2016 -0.2940
24784SOL     OW74929   0.401   9.601   5.515  0.2321 -0.4107 -0.4858
24784SOL    HW174930   0.359   9.686   5.529  3.7081  1.5699 -1.0230
24784SOL    HW274931   0.363   9.544   5.582  0.2359  2.5358  2.2738
24785SOL     OW74932   2.961   3.537   4.764 -0.1471  0.3153  0.4896
24785SOL    HW174933   3.015   3.617   4.762  0.1459  0.1285  0.9371
24785SOL    HW274934   3.020   3.469   4.796 -0.1981 -0.2395 -0.5473
24786SOL     OW74935   8.027   1.720   6.425 -0.1709  0.6784  0.1517
24786SOL    HW174936   8.002   1.790   6.365 -0.2789 -0.0047 -0.6157
24786SOL    HW274937   7.947   1.668   6.437  0.3374 -0.3375 -0.7034
24787SOL     OW74938   1.014   5.943   4.108 -0.4252  0.0184  0.2228
24787SOL    HW174939   1.057   5.858   4.095 -2.1653 -0.9714  0.5546
24787SOL    HW274940   0.970   5.960   4.024 -3.5141 -1.5252  1.3905
24788SOL     OW74941   9.923   2.379   8.252  0.1726  0.0997 -0.1173
24788SOL    HW174942   9.902   2.297   8.206 -0.8160  0.4652 -0.3219
24788SOL    HW274943  10.019   2.383   8.249  0.1528  0.1467 -2.2159
24789SOL     OW74944   0.236   7.961   8.934 -0.1002  0.4661 -0.2728
24789SOL    HW174945   0.253   7.976   9.027  0.3104  0.6629 -0.3807
24789SOL    HW274946   0.288   8.027   8.889 -1.6746  1.5743 -0.5781
24790SOL     OW74947   1.354   4.771   4.725 -0.0380  0.0678  0.2390
24790SOL    HW174948   1.435   4.746   4.680  0.1121 -2.8612  1.8879
24790SOL    HW274949   1.309   4.689   4.742 -2.4139  1.4513  1.1817
24791SOL     OW74950   7.168   0.397   4.229 -0.4923  0.1449  0.1930
24791SOL    HW174951   7.193   0.327   4.289 -0.6015  0.4800  0.6384
24791SOL    HW274952   7.196   0.477   4.274 -0.2385  0.3768 -0.3714
24792SOL     OW74953   9.683   4.301   0.165 -0.1559 -0.4718  0.1889
24792SOL    HW174954   9.661   4.224   0.218 -1.2886 -1.1131 -1.1298
24792SOL    HW274955   9.604   4.318   0.114  1.1810 -0.5448 -2.0459
24793SOL     OW74956   6.765   8.705   7.606  0.3642 -0.6828 -0.3151
24793SOL    HW174957   6.788   8.646   7.533  0.6383 -0.5928 -0.2992
24793SOL    HW274958   6.847   8.720   7.652  0.0966 -1.1621  0.3276
24794SOL     OW74959   6.179   7.440   4.356  0.2502 -0.6717 -0.1254
24794SOL    HW174960   6.274   7.445   4.347  0.3765  0.1613  1.4031
24794SOL    HW274961   6.157   7.351   4.329  1.5273 -1.0497  0.0265
24795SOL     OW74962   1.011   3.241   6.855  0.5823 -0.3555 -0.4319
24795SOL    HW174963   1.064   3.169   6.822  2.2669 -0.2825  1.8435
24795SOL    HW274964   1.062   3.320   6.835  0.5237 -0.1319  0.2716
24796SOL     OW74965   3.132   4.569   9.164 -0.2130 -0.5625 -0.3337
24796SOL    HW174966   3.162   4.636   9.102  0.7331  1.3909  2.0612
24796SOL    HW274967   3.213   4.524   9.191 -0.3385 -0.1731  0.7547
24797SOL     OW74968   3.373   9.545   3.386 -0.0942 -0.0344 -0.2571
24797SOL    HW174969   3.352   9.526   3.294 -2.8201 -1.1643  0.4895
24797SOL    HW274970   3.302   9.603   3.415  0.7328  0.3142  1.1541
24798SOL     OW74971   1.836   6.663   6.091 -0.2940 -0.0445 -0.2146
24798SOL    HW174972   1.818   6.575   6.056  0.6293  0.6111 -2.5335
24798SOL    HW274973   1.927   6.660   6.118 -0.0098  0.4058 -1.0818
24799SOL     OW74974   2.531   8.328   3.034 -0.0242 -0.5130  0.0233
24799SOL    HW174975   2.498   8.397   3.092  1.8724  0.1966  0.3639
24799SOL    HW274976   2.626   8.340   3.036  0.3518 -3.0045 -0.0976
24800SOL     OW74977   6.747   7.513   2.838  0.5038  0.1092 -0.0100
24800SOL    HW174978   6.706   7.596   2.861 -1.1675 -0.6724 -0.0861
24800SOL    HW274979   6.805   7.535   2.765 -4.2423  0.3606 -4.2254
24801SOL     OW74980   8.530   8.392   3.866  0.1586 -0.1695 -0.0441
24801SOL    HW174981   8.479   8.333   3.921 -0.3879 -0.1207 -0.4926
24801SOL    HW274982   8.468   8.426   3.802 -0.0687  2.5343  1.4711
24802SOL     OW74983   0.589   6.363   5.141 -0.0338  0.3948 -0.0849
24802SOL    HW174984   0.620   6.452   5.155 -0.4658  0.4970  0.2507
24802SOL    HW274985   0.569   6.330   5.229 -2.1231  0.7942 -0.3552
24803SOL     OW74986   6.958   1.416   4.889  0.1847  0.3559 -0.1316
24803SOL    HW174987   6.957   1.337   4.943 -0.2849  0.9138  0.6952
24803SOL    HW274988   6.866   1.441   4.881  0.4070  1.5893  0.7978
24804SOL     OW74989  -0.013   6.136   5.285 -0.1050 -0.1330  0.7699
24804SOL    HW174990   0.003   6.054   5.237  1.4508 -1.0345  2.7128
24804SOL    HW274991   0.029   6.203   5.232 -2.5662 -0.2500 -1.5769
24805SOL     OW74992   7.722   2.086   7.485  0.1682  0.6289 -0.8256
24805SOL    HW174993   7.818   2.076   7.481  0.1162 -1.8476  1.5860
24805SOL    HW274994   7.689   2.008   7.441 -0.7736  1.0423 -0.8642
24806SOL     OW74995   8.664   6.794   1.137 -0.4390  0.0593  0.0579
24806SOL    HW174996   8.754   6.820   1.156 -1.1303  1.4649  1.7134
24806SOL    HW274997   8.661   6.786   1.042  1.2648  0.6304 -0.0868
24807SOL     OW74998   4.734   0.557   6.005 -0.0908  0.0190  0.3472
24807SOL    HW174999   4.656   0.591   5.962 -0.3419 -1.6426 -0.6204
24807SOL    HW275000   4.806   0.608   5.969 -0.5470  0.2380 -0.2711
24808SOL     OW75001   2.920   7.706   1.009  0.3504  0.0784 -0.6787
24808SOL    HW175002   2.901   7.642   1.078  0.1155 -0.0803 -0.8892
24808SOL    HW275003   2.839   7.711   0.958  0.9676 -0.8365 -1.7856
24809SOL     OW75004   6.383   0.295   1.311  0.1013  0.1424  0.3654
24809SOL    HW175005   6.314   0.238   1.345 -1.1510  1.9752  1.0787
24809SOL    HW275006   6.353   0.384   1.332  1.6174  1.1223 -1.3153
24810SOL     OW75007   8.773   5.976   9.638 -0.2708 -0.0781  0.2023
24810SOL    HW175008   8.802   6.056   9.595  1.0953 -2.0205 -2.8588
24810SOL    HW275009   8.829   5.968   9.715  0.0300  1.5350  0.1779
24811SOL     OW75010   6.612   6.084   5.072 -0.3789 -0.8870  0.3751
24811SOL    HW175011   6.674   6.016   5.101 -0.7285 -0.7836  1.4030
24811SOL    HW275012   6.663   6.138   5.011  1.6644  1.1039  3.5060
24812SOL     OW75013   3.535   3.322   0.270 -0.0994 -0.2177  0.1549
24812SOL    HW175014   3.487   3.331   0.187 -0.4351 -0.4739  0.3183
24812SOL    HW275015   3.606   3.261   0.250 -0.0432 -0.1053  0.0016
24813SOL     OW75016   8.053   9.277   3.226 -0.1888 -0.2689 -0.4950
24813SOL    HW175017   7.979   9.265   3.167 -0.1754 -2.3785 -0.1666
24813SOL    HW275018   8.056   9.371   3.242 -2.2447 -0.0219 -1.2254
24814SOL     OW75019   1.181   6.590   7.418 -0.5050 -0.1400  0.5602
24814SOL    HW175020   1.097   6.607   7.462 -0.5961 -3.5165  1.9776
24814SOL    HW275021   1.227   6.530   7.476  2.7416  1.1481 -0.4582
24815SOL     OW75022   6.295   0.217   1.858 -0.3668  0.7245 -0.1917
24815SOL    HW175023   6.349   0.216   1.779  0.8685  0.6713  0.6397
24815SOL    HW275024   6.280   0.309   1.876 -0.6777  0.7365 -0.4890
24816SOL     OW75025   6.335   0.536   1.451 -0.2878 -0.4797 -0.1317
24816SOL    HW175026   6.253   0.522   1.498 -0.4208  0.7241  0.0072
24816SOL    HW275027   6.325   0.621   1.408  1.1007 -0.0345  0.3604
24817SOL     OW75028   7.705   3.834   5.873 -0.1158 -0.0433 -0.0047
24817SOL    HW175029   7.668   3.762   5.924 -1.0879  1.4701  1.5472
24817SOL    HW275030   7.716   3.905   5.936  1.8809  0.8277 -1.2429
24818SOL     OW75031   9.632   2.747   4.185  0.1735 -0.0649  0.1557
24818SOL    HW175032   9.726   2.763   4.177 -0.2344  2.7277 -0.2815
24818SOL    HW275033   9.613   2.677   4.123  1.7965  0.1962 -0.6757
24819SOL     OW75034   5.529   2.189   6.402  0.2083  0.2174 -0.2132
24819SOL    HW175035   5.457   2.147   6.355 -0.8783  1.9784 -0.2181
24819SOL    HW275036   5.607   2.167   6.352 -0.4710 -0.8420 -0.8265
24820SOL     OW75037   7.621   1.341   2.200  0.2322  0.2077  0.2469
24820SOL    HW175038   7.703   1.346   2.250 -1.2809  0.6270  2.8774
24820SOL    HW275039   7.587   1.253   2.219 -0.9891  0.8247  1.1085
24821SOL     OW75040   7.807   9.721   0.151  0.2835 -0.0241  0.4376
24821SOL    HW175041   7.878   9.745   0.211 -0.7387  0.6607  1.4090
24821SOL    HW275042   7.766   9.804   0.127 -0.1255 -0.4037 -0.2069
24822SOL     OW75043   9.648   3.686   9.321  0.4088  0.5334  0.0650
24822SOL    HW175044   9.571   3.640   9.355  1.2436  0.2129  1.6193
24822SOL    HW275045   9.616   3.731   9.243 -0.9680 -0.8655 -0.2339
24823SOL     OW75046   8.453   7.766   9.720  0.3580  0.4302 -0.7034
24823SOL    HW175047   8.546   7.751   9.703  0.4533  0.4781 -0.2335
24823SOL    HW275048   8.445   7.861   9.727  0.1854  0.4570 -1.2281
24824SOL     OW75049   3.641   5.672   0.461  0.0237  0.0492  0.2532
24824SOL    HW175050   3.727   5.671   0.420 -0.3145  0.0233 -0.4792
24824SOL    HW275051   3.581   5.693   0.389 -0.4583  1.3337  0.9966
24825SOL     OW75052   4.832   8.387   7.909  0.0448 -0.0491  0.8345
24825SOL    HW175053   4.811   8.383   7.816  0.7810  0.3924  0.6418
24825SOL    HW275054   4.846   8.296   7.935  3.8832 -0.0376 -0.4734
24826SOL     OW75055   8.171   5.039   8.670 -0.2017 -0.6615 -0.4577
24826SOL    HW175056   8.174   4.946   8.645 -1.2064 -1.0467  0.7845
24826SOL    HW275057   8.263   5.067   8.668  0.1345 -1.7315 -0.6321
24827SOL     OW75058   9.621   8.421   7.414  0.1718  0.3021  0.5107
24827SOL    HW175059   9.629   8.413   7.509  0.9472  0.6955  0.4875
24827SOL    HW275060   9.656   8.508   7.394 -0.6470  0.5150 -0.0665
24828SOL     OW75061   2.722   4.141   6.082 -0.3820  0.6331 -0.1899
24828SOL    HW175062   2.658   4.071   6.094  0.3387 -0.0003  0.0613
24828SOL    HW275063   2.787   4.126   6.151  1.4267 -0.3297 -2.0007
24829SOL     OW75064   2.240   1.866   3.909 -0.4863 -0.9104  0.2389
24829SOL    HW175065   2.191   1.824   3.979 -1.9824 -1.5288 -1.1146
24829SOL    HW275066   2.220   1.959   3.919 -0.6188 -0.9832  0.6842
24830SOL     OW75067   9.838   2.890   0.042 -0.0077  0.3927  0.3171
24830SOL    HW175068   9.778   2.931  -0.020 -0.7364  0.0079  0.7550
24830SOL    HW275069   9.901   2.959   0.065 -0.0421  0.6844 -0.4457
24831SOL     OW75070   9.466   8.256   4.369  0.3544  0.2971  0.0962
24831SOL    HW175071   9.397   8.196   4.339 -0.4311  1.0087  0.4293
24831SOL    HW275072   9.531   8.254   4.299 -0.3005  0.0859 -0.5205
24832SOL     OW75073   0.876   6.521   5.033  0.1720  0.0197 -0.3962
24832SOL    HW175074   0.889   6.445   5.089  2.0075  0.8588  0.3845
24832SOL    HW275075   0.944   6.514   4.966  1.4967  1.8163  0.6847
24833SOL     OW75076   8.336   0.593   2.396 -0.2727 -0.2609  0.0493
24833SOL    HW175077   8.378   0.523   2.346  2.2694  1.3149 -0.1894
24833SOL    HW275078   8.309   0.551   2.478  2.4391 -1.2860  0.5054
24834SOL     OW75079   4.038   3.392   8.687  0.1251 -0.1460 -0.0487
24834SOL    HW175080   4.104   3.456   8.659 -0.6890 -0.0040 -1.7403
24834SOL    HW275081   4.059   3.313   8.636  0.0838 -0.6985  0.7690
24835SOL     OW75082   6.717   0.401   2.955  0.0954  0.6248 -0.0870
24835SOL    HW175083   6.670   0.403   3.038  1.0846 -0.4997  0.5180
24835SOL    HW275084   6.647   0.401   2.889 -0.7959 -1.1879  0.7866
24836SOL     OW75085   3.005   8.841   8.850 -0.0380  0.3583 -0.0776
24836SOL    HW175086   3.068   8.909   8.827 -0.3326  1.1123  1.1977
24836SOL    HW275087   3.034   8.810   8.936  0.0478 -1.0975 -0.6150
24837SOL     OW75088   8.869   6.538   4.569  0.8894  0.2816  0.1564
24837SOL    HW175089   8.847   6.450   4.539  2.0586  0.4091 -1.1828
24837SOL    HW275090   8.947   6.526   4.624  0.1945  0.3423  1.1941
24838SOL     OW75091   4.234   6.659   9.012  0.2468  0.0966 -0.0359
24838SOL    HW175092   4.274   6.576   9.041 -0.3236 -0.2652 -0.2693
24838SOL    HW275093   4.262   6.723   9.077  1.0777 -0.1847 -0.1028
24839SOL     OW75094   3.793   3.207   4.433 -0.6876  0.0547  0.1913
24839SOL    HW175095   3.849   3.182   4.359  0.3677  0.9365  0.6642
24839SOL    HW275096   3.765   3.125   4.472 -0.0867 -0.4046 -0.3353
24840SOL     OW75097   9.157   1.401   7.825  0.0308  0.0335  0.3552
24840SOL    HW175098   9.160   1.328   7.763  2.5527  1.6193 -1.5938
24840SOL    HW275099   9.073   1.444   7.806 -1.5503 -2.2803  1.6216
24841SOL     OW75100   6.179   8.465   0.540  0.5735 -0.9809 -0.2652
24841SOL    HW175101   6.210   8.376   0.522  0.9623 -1.0049  0.4614
24841SOL    HW275102   6.187   8.473   0.635  0.3876 -0.2257 -0.3146
24842SOL     OW75103   7.957   8.016   7.792 -0.3229 -0.2751  0.3270
24842SOL    HW175104   8.015   7.942   7.774 -0.6277 -0.4676  0.1313
24842SOL    HW275105   7.900   8.021   7.715  0.0848  0.5401  0.0603
24843SOL     OW75106   1.864   9.066   9.633  0.1527  0.3773  0.5801
24843SOL    HW175107   1.818   9.086   9.552  1.1764 -1.5531 -0.5322
24843SOL    HW275108   1.813   9.111   9.701 -0.9082  1.7677 -1.0560
24844SOL     OW75109   8.902   9.495   6.480 -0.0843  0.3872 -0.9242
24844SOL    HW175110   8.929   9.406   6.505 -2.3883  0.0067  0.6033
24844SOL    HW275111   8.983   9.541   6.462  1.2463 -1.7528 -0.7214
24845SOL     OW75112   1.166   4.282   4.807 -0.3052 -0.2303  0.0492
24845SOL    HW175113   1.209   4.363   4.780  0.2498 -0.5787 -0.1268
24845SOL    HW275114   1.078   4.309   4.832 -0.0206  0.4776  0.3062
24846SOL     OW75115   4.583   9.558   9.430  0.1701 -0.1031 -0.0107
24846SOL    HW175116   4.493   9.526   9.436  0.5586 -0.9953  1.7249
24846SOL    HW275117   4.601   9.560   9.336 -1.1570 -1.3750 -0.3313
24847SOL     OW75118   0.303   6.127   3.819  0.1483 -0.1557  0.1552
24847SOL    HW175119   0.394   6.132   3.790 -0.4648 -0.8155 -2.1025
24847SOL    HW275120   0.252   6.163   3.746 -1.5385 -2.0771  0.2790
24848SOL     OW75121   4.626   2.461   4.962  0.5037  0.1956  0.2275
24848SOL    HW175122   4.586   2.406   5.030  1.3151 -0.8464 -0.1035
24848SOL    HW275123   4.570   2.538   4.957  0.2535  0.1455  1.8609
24849SOL     OW75124   8.199   6.831   0.401  0.1464  0.1405  0.1729
24849SOL    HW175125   8.175   6.888   0.328  0.1137 -0.6158 -0.4224
24849SOL    HW275126   8.238   6.889   0.466  0.8095  0.7315 -0.7401
24850SOL     OW75127   5.584   0.298   1.783  0.1692  0.5863 -0.3567
24850SOL    HW175128   5.661   0.341   1.745  2.8315 -3.6471 -0.4376
24850SOL    HW275129   5.555   0.237   1.715 -1.6507  0.2384  0.6591
24851SOL     OW75130   1.422   3.617   1.068 -0.7419 -0.0479  0.5724
24851SOL    HW175131   1.421   3.523   1.050 -0.7087 -0.2211  1.4440
24851SOL    HW275132   1.407   3.658   0.982  1.5568 -0.7792 -0.2505
24852SOL     OW75133   8.774   6.536   7.076  0.4879 -0.1346 -0.1838
24852SOL    HW175134   8.692   6.514   7.120  0.0481  0.4177 -0.7108
24852SOL    HW275135   8.841   6.526   7.144 -0.2974  1.7491  0.9478
24853SOL     OW75136   6.677   5.109   1.520 -0.4562  0.2247 -0.0007
24853SOL    HW175137   6.710   5.022   1.537  0.6015  0.3419 -1.3429
24853SOL    HW275138   6.751   5.158   1.485 -1.6065  0.9563 -1.5737
24854SOL     OW75139   5.368   0.067   1.392  0.1492  0.1106 -0.4371
24854SOL    HW175140   5.300   0.135   1.382  0.7819  0.8076 -0.0710
24854SOL    HW275141   5.320  -0.015   1.380 -0.8573  0.5655  0.2880
24855SOL     OW75142   8.400   3.228   8.800  0.0494 -0.5186  0.0196
24855SOL    HW175143   8.397   3.140   8.838  2.1323 -1.0348 -0.8481
24855SOL    HW275144   8.491   3.238   8.772  0.5255  2.8826  2.3110
24856SOL     OW75145   7.173   5.566   3.302 -0.1755 -0.0430  0.1289
24856SOL    HW175146   7.253   5.618   3.305 -1.0759  1.3685  2.3293
24856SOL    HW275147   7.103   5.630   3.285 -1.2279 -0.5730  2.1306
24857SOL     OW75148   9.645   6.561   5.785 -0.0369  0.2070 -0.3134
24857SOL    HW175149   9.641   6.545   5.879 -0.1370  0.0072 -0.3513
24857SOL    HW275150   9.646   6.657   5.776 -1.7974  0.2623 -0.1932
24858SOL     OW75151   1.490   4.320   5.108 -0.2593  0.0265  0.2695
24858SOL    HW175152   1.559   4.267   5.149  1.4174  1.7015 -0.2525
24858SOL    HW275153   1.524   4.409   5.110 -1.8239  0.7162 -1.2811
24859SOL     OW75154   5.335   9.237   7.476  0.2741  0.2600  0.1393
24859SOL    HW175155   5.339   9.331   7.496  1.1433  0.4605 -0.8724
24859SOL    HW275156   5.350   9.232   7.381  0.9833 -0.9491  0.2954
24860SOL     OW75157   1.706   9.484   7.238  0.3799  0.2008  0.2174
24860SOL    HW175158   1.784   9.529   7.203  1.1067 -0.8050  0.5001
24860SOL    HW275159   1.710   9.501   7.332 -0.3838  1.0928  0.1023
24861SOL     OW75160   7.860   3.069   5.649  0.0587  0.2787 -0.2416
24861SOL    HW175161   7.781   3.092   5.599  0.4554  1.9337 -0.1543
24861SOL    HW275162   7.873   2.976   5.630 -2.1801 -0.1820  0.1143
24862SOL     OW75163   4.919   4.117   6.481 -0.4528  0.0423  0.2714
24862SOL    HW175164   4.939   4.143   6.391 -0.6721  1.8054  0.7054
24862SOL    HW275165   4.977   4.043   6.497  1.5057  1.3394 -0.4689
24863SOL     OW75166   4.473   9.126   5.657  0.3746  0.0008 -0.3931
24863SOL    HW175167   4.453   9.199   5.715 -1.1279 -0.7880  0.1302
24863SOL    HW275168   4.414   9.056   5.685  2.6303 -1.8801 -0.0442
24864SOL     OW75169   1.105   0.129   8.266  0.0221  0.3856 -0.1419
24864SOL    HW175170   1.052   0.176   8.201  0.7984  0.7591 -0.5228
24864SOL    HW275171   1.096   0.181   8.346  0.1721  0.6965 -0.3262
24865SOL     OW75172   6.440   0.665   8.072 -0.0354 -0.2789  0.2268
24865SOL    HW175173   6.396   0.598   8.019 -0.4412 -0.2105  0.4738
24865SOL    HW275174   6.397   0.660   8.157 -0.9627  1.1869 -0.1289
24866SOL     OW75175   8.995   7.030   8.455  0.3637 -0.1379  0.1801
24866SOL    HW175176   8.951   6.975   8.389  0.3425 -1.3237  1.1445
24866SOL    HW275177   8.940   7.108   8.462 -0.2541 -0.5119 -0.3863
24867SOL     OW75178   6.239   4.450   4.865  0.5610  0.2052  0.1062
24867SOL    HW175179   6.243   4.380   4.800  1.1197 -0.4935  0.8685
24867SOL    HW275180   6.247   4.531   4.814  1.3401 -0.3360 -0.6611
24868SOL     OW75181   6.464   2.661   9.480 -0.3871 -0.3740 -0.1783
24868SOL    HW175182   6.497   2.574   9.458 -0.2638 -0.4507  0.2917
24868SOL    HW275183   6.511   2.720   9.420  0.6194 -0.4824  0.4709
24869SOL     OW75184   2.459   1.052   2.996 -0.3752 -0.1037  0.0413
24869SOL    HW175185   2.406   1.066   2.917 -1.0228 -0.5627  0.3868
24869SOL    HW275186   2.413   1.102   3.064 -1.0503 -1.4422  0.6118
24870SOL     OW75187   5.642   5.004   4.635  0.6050  0.0128 -0.5951
24870SOL    HW175188   5.633   5.076   4.697  0.2633  0.7179 -1.4495
24870SOL    HW275189   5.591   4.932   4.673 -0.5501  0.8056 -0.6263
24871SOL     OW75190   9.223   8.000   4.536 -0.2844  0.1071  0.1558
24871SOL    HW175191   9.235   8.047   4.454 -0.8185  0.7631  0.4472
24871SOL    HW275192   9.295   7.936   4.537  0.7938  1.2619 -0.0041
24872SOL     OW75193   1.685   8.781   0.337  0.3277 -0.5440 -0.3534
24872SOL    HW175194   1.772   8.746   0.318  1.0297  2.0387 -2.5231
24872SOL    HW275195   1.683   8.792   0.432  2.3190 -0.7207 -0.2668
24873SOL     OW75196   0.251   2.839   9.233 -0.0999 -0.0395  0.7548
24873SOL    HW175197   0.271   2.746   9.225  0.4587  0.2334 -1.4821
24873SOL    HW275198   0.159   2.846   9.209  0.2671  0.1481 -0.6834
24874SOL     OW75199   4.828   0.738   0.562 -0.5292  0.4263 -0.0092
24874SOL    HW175200   4.745   0.690   0.557  0.1106 -0.7049 -0.0918
24874SOL    HW275201   4.842   0.771   0.473  0.9346 -2.6243 -1.0747
24875SOL     OW75202   5.885   7.686   1.100  0.1361  0.3248 -0.1903
24875SOL    HW175203   5.973   7.660   1.072 -0.3308 -0.8491 -0.6293
24875SOL    HW275204   5.863   7.760   1.043  0.1839 -0.4606 -1.2678
24876SOL     OW75205   4.570   6.296   1.901 -0.0289  1.1506  0.4446
24876SOL    HW175206   4.567   6.230   1.970 -1.1749 -0.8975 -1.4418
24876SOL    HW275207   4.490   6.348   1.914 -1.0287 -0.1897 -0.2046
24877SOL     OW75208   9.222   1.055   0.310  0.3674  0.2104 -0.5427
24877SOL    HW175209   9.174   1.033   0.389 -2.0019  1.5500 -1.5107
24877SOL    HW275210   9.296   1.108   0.341  0.4987 -0.7491  0.8752
24878SOL     OW75211   7.608   5.555   5.150  0.5360 -0.2989  0.0061
24878SOL    HW175212   7.515   5.578   5.153  0.6597  0.1418  1.7239
24878SOL    HW275213   7.651   5.635   5.118  0.5933  0.6667  2.3083
24879SOL     OW75214   4.475   5.239   1.570 -0.0401 -0.2660  0.0241
24879SOL    HW175215   4.538   5.195   1.513 -0.9054 -0.0014 -1.1782
24879SOL    HW275216   4.517   5.241   1.656  1.8241  0.4082 -0.8634
24880SOL     OW75217   4.779   5.622   1.813 -0.1893  0.3698  0.4470
24880SOL    HW175218   4.860   5.673   1.815  0.6684 -0.7959 -1.5456
24880SOL    HW275219   4.801   5.543   1.763 -3.2897  1.3444 -2.8755
24881SOL     OW75220   0.738   2.412   0.441 -0.5636  0.1816  0.2471
24881SOL    HW175221   0.791   2.424   0.520 -0.4451 -2.9542  0.7618
24881SOL    HW275222   0.802   2.391   0.372 -0.9013 -0.9476  0.2564
24882SOL     OW75223   2.039   7.726   0.347  0.2592  0.6272 -0.4832
24882SOL    HW175224   2.011   7.793   0.284 -2.6469  0.1611  0.1414
24882SOL    HW275225   1.965   7.718   0.407  2.0738 -0.4426  1.7706
24883SOL     OW75226   9.424   5.688   0.469 -0.4164  0.4098 -0.2842
24883SOL    HW175227   9.416   5.594   0.483 -1.2578  0.5645  0.3907
24883SOL    HW275228   9.402   5.727   0.554 -0.1035  1.2120 -0.5613
24884SOL     OW75229   1.704   8.123   4.171 -0.0386  0.2632  0.1643
24884SOL    HW175230   1.742   8.089   4.090 -1.3605  1.8815 -1.1930
24884SOL    HW275231   1.771   8.182   4.205 -0.6408  1.9288 -1.4042
24885SOL     OW75232   4.508   6.673   9.317  0.2679  0.7259 -0.1501
24885SOL    HW175233   4.432   6.718   9.355  1.0064  0.0564  2.3410
24885SOL    HW275234   4.565   6.656   9.392  1.9141 -0.6850 -1.6298
24886SOL     OW75235   8.567   7.396   2.552 -0.3900 -0.1211  0.0527
24886SOL    HW175236   8.620   7.349   2.616 -0.9410 -0.4230  0.2900
24886SOL    HW275237   8.622   7.471   2.526 -0.9480  1.1579  2.3499
24887SOL     OW75238   2.948   8.614   2.232 -0.5869  0.0640  0.0700
24887SOL    HW175239   3.005   8.656   2.167 -0.5770  1.2721  0.8354
24887SOL    HW275240   2.865   8.600   2.186 -0.3499  0.2296 -0.4188
24888SOL     OW75241   7.119   9.757  -0.015  1.3848 -0.2829 -0.2739
24888SOL    HW175242   7.103   9.846   0.017 -1.5960 -0.8988  0.2584
24888SOL    HW275243   7.165   9.713   0.056  0.3360  0.0769  0.6528
24889SOL     OW75244   1.268   1.652   2.295 -0.0242  0.0033  0.7057
24889SOL    HW175245   1.203   1.627   2.229 -1.3962 -1.3661  2.4596
24889SOL    HW275246   1.262   1.747   2.299  2.5552  0.5925 -3.4479
24890SOL     OW75247   5.828   9.588   1.003  0.0553  0.5089 -0.1199
24890SOL    HW175248   5.895   9.646   1.040  1.4769 -0.3481 -1.2454
24890SOL    HW275249   5.764   9.578   1.073 -0.5600  3.8197 -0.0175
24891SOL     OW75250   7.173   7.684   4.103 -0.0654 -0.2935  0.1258
24891SOL    HW175251   7.256   7.676   4.055 -0.3453  0.0973 -0.4367
24891SOL    HW275252   7.186   7.761   4.159 -0.6820  0.9158 -1.3173
24892SOL     OW75253   6.912   3.933   6.365 -0.3003 -0.2332  0.1714
24892SOL    HW175254   6.837   3.980   6.401 -0.7248  0.5341 -1.6141
24892SOL    HW275255   6.976   4.001   6.344  1.7998 -0.9905  3.4361
24893SOL     OW75256   7.039   6.716   4.347 -0.2181 -0.1664  0.4723
24893SOL    HW175257   7.091   6.787   4.385  0.7658 -0.9453  0.6300
24893SOL    HW275258   6.961   6.712   4.403 -0.1935  0.6587  0.5778
24894SOL     OW75259   6.442   1.702   5.888  0.0735 -0.3853 -0.0791
24894SOL    HW175260   6.502   1.746   5.948 -1.7319  0.7973  0.9699
24894SOL    HW275261   6.438   1.760   5.811 -1.7549  1.0570  1.0068
24895SOL     OW75262   4.604   0.107   1.036  0.2827  0.5714  0.3198
24895SOL    HW175263   4.608   0.197   1.068 -0.2312  1.4496 -1.8912
24895SOL    HW275264   4.623   0.114   0.943 -1.0976 -1.4303 -0.1858
24896SOL     OW75265   7.638   3.803   1.599  0.0451 -0.2095  0.3480
24896SOL    HW175266   7.618   3.728   1.654  0.4536 -0.0331  0.7467
24896SOL    HW275267   7.575   3.798   1.527  2.4358 -3.0696 -1.7475
24897SOL     OW75268   0.329   8.314   1.844 -0.3807 -0.2823 -0.4151
24897SOL    HW175269   0.332   8.225   1.879  1.0742  0.0435  0.3759
24897SOL    HW275270   0.321   8.301   1.749 -0.1396 -1.2597 -0.3215
24898SOL     OW75271   4.889   3.031   6.319  0.2003 -0.2155 -0.0756
24898SOL    HW175272   4.828   3.104   6.332 -0.5043 -0.7565 -0.2810
24898SOL    HW275273   4.845   2.956   6.358  0.5364 -0.7067 -0.6257
24899SOL     OW75274   4.651   9.157   4.859 -0.0990  0.2527  0.9966
24899SOL    HW175275   4.739   9.128   4.884  0.5707  1.5211  0.1929
24899SOL    HW275276   4.651   9.251   4.877 -1.1425  0.3468  0.5590
24900SOL     OW75277   8.672   4.752   6.837  0.1142 -0.5548 -0.0938
24900SOL    HW175278   8.745   4.690   6.838  0.8166  0.2193 -1.4933
24900SOL    HW275279   8.676   4.795   6.922  2.0110  0.2804 -0.5649
24901SOL     OW75280   7.097   0.298   8.559 -0.5495  0.1769 -0.2421
24901SOL    HW175281   7.144   0.371   8.600  0.1944 -0.3184 -0.1969
24901SOL    HW275282   7.043   0.339   8.491  0.2966  0.7157 -0.5975
24902SOL     OW75283   3.227   6.134   1.420 -0.2516 -0.0330 -0.3216
24902SOL    HW175284   3.254   6.198   1.354  1.5799 -0.7476 -0.3137
24902SOL    HW275285   3.223   6.183   1.502  0.4978  0.2180 -0.4314
24903SOL     OW75286   0.863   8.054   6.622 -0.5153 -0.5177 -0.0500
24903SOL    HW175287   0.829   8.143   6.613 -0.3059 -0.4023  0.3082
24903SOL    HW275288   0.957   8.065   6.637 -0.0075 -0.8763 -2.5186
24904SOL     OW75289   7.448   6.140   4.723  0.0290 -0.3397 -0.3232
24904SOL    HW175290   7.534   6.103   4.743 -0.1759 -0.6759 -0.0702
24904SOL    HW275291   7.443   6.219   4.779 -0.0249 -0.5862  0.0247
24905SOL     OW75292   5.895   2.030   0.241  0.2261 -0.3324  0.3708
24905SOL    HW175293   5.869   2.086   0.168 -0.1396 -0.8093  0.1359
24905SOL    HW275294   5.988   2.050   0.254  0.0150  0.5963  0.5254
24906SOL     OW75295   2.023   7.594   2.474  0.4507  0.1141 -0.0902
24906SOL    HW175296   1.983   7.639   2.549 -0.3650 -1.9269  0.7622
24906SOL    HW275297   2.116   7.615   2.481  0.2883  0.5356  1.0701
24907SOL     OW75298   0.037   0.138   4.254 -0.4388 -0.3371 -0.3479
24907SOL    HW175299   0.087   0.200   4.202 -0.7783 -1.2982 -1.8952
24907SOL    HW275300  -0.029   0.191   4.298  0.3764  0.6094 -0.2223
24908SOL     OW75301   2.242   0.333   9.102 -0.7883  0.3660  0.6473
24908SOL    HW175302   2.335   0.316   9.112 -0.9409 -2.0890 -1.1429
24908SOL    HW275303   2.233   0.367   9.013 -1.8359 -2.2768 -0.3301
24909SOL     OW75304   9.320   0.836   6.503 -0.0926 -0.4223  0.5342
24909SOL    HW175305   9.360   0.884   6.431 -1.0819  0.7231  0.6997
24909SOL    HW275306   9.390   0.824   6.567  0.1086  1.2092  0.6638
24910SOL     OW75307   9.266   9.294   6.930 -0.5371 -0.3424 -0.0230
24910SOL    HW175308   9.235   9.215   6.886  0.9648 -0.0403 -1.7393
24910SOL    HW275309   9.243   9.366   6.871  1.8852  0.0246 -0.6304
24911SOL     OW75310   9.730   2.539   9.411  0.9663  0.1664  0.3631
24911SOL    HW175311   9.789   2.514   9.482  0.3795  1.9730  1.5697
24911SOL    HW275312   9.681   2.459   9.391  3.2252 -1.1732 -0.1574
24912SOL     OW75313   3.059   5.910   1.202  0.1958  0.5334  0.0108
24912SOL    HW175314   3.120   5.873   1.138 -0.0094  0.6832 -0.2705
24912SOL    HW275315   3.098   5.888   1.287 -0.7927 -1.8376 -0.0923
24913SOL     OW75316   6.816   1.884   0.653 -0.5145  0.4557  1.0287
24913SOL    HW175317   6.866   1.918   0.727  0.4951  1.2142  0.0307
24913SOL    HW275318   6.881   1.837   0.600 -1.6445 -2.1124  1.7595
24914SOL     OW75319   5.613   0.136   8.370 -0.1390 -0.1989  0.1700
24914SOL    HW175320   5.577   0.097   8.290 -1.7105  1.5700 -0.0480
24914SOL    HW275321   5.680   0.197   8.339  1.1247 -1.4020  0.4141
24915SOL     OW75322   0.076   6.817   1.331  0.3599  0.1166  0.3718
24915SOL    HW175323   0.007   6.755   1.308 -0.4192  1.0096  0.2500
24915SOL    HW275324   0.077   6.817   1.426 -0.0065  0.3245  0.3747
24916SOL     OW75325   4.050   7.737   7.323 -0.1342  0.4500  0.0253
24916SOL    HW175326   4.034   7.650   7.289 -0.8117  0.2363  0.8611
24916SOL    HW275327   4.081   7.787   7.247  0.7370 -0.6248 -0.3562
24917SOL     OW75328   6.532   1.129   8.981 -0.0252 -0.0956 -0.2449
24917SOL    HW175329   6.558   1.188   8.910  1.2648 -0.9756 -0.5374
24917SOL    HW275330   6.614   1.104   9.022 -0.7093 -0.1506  1.1308
24918SOL     OW75331   2.535   4.311   6.026  0.0893 -0.5923  0.9900
24918SOL    HW175332   2.618   4.264   6.014  1.0560  1.1670  0.2868
24918SOL    HW275333   2.493   4.307   5.940  0.9034  1.0497  0.4733
24919SOL     OW75334   2.148   1.643   6.060 -0.1780 -0.2583  0.3270
24919SOL    HW175335   2.159   1.565   6.114 -1.4408 -0.0992  0.8612
24919SOL    HW275336   2.224   1.698   6.080  0.3732 -1.0577  0.4498
24920SOL     OW75337   4.126   6.741   7.463 -0.3884 -0.0739 -0.7720
24920SOL    HW175338   4.157   6.673   7.403 -0.7390 -1.2379  0.3115
24920SOL    HW275339   4.204   6.790   7.488  0.3235 -1.6964  0.3690
24921SOL     OW75340   5.093   3.451   9.135  0.6326 -0.1226 -0.2335
24921SOL    HW175341   5.066   3.467   9.045 -1.5481  1.8529  0.6803
24921SOL    HW275342   5.071   3.359   9.151 -1.1527  0.1288 -1.0262
24922SOL     OW75343   5.388   7.925   8.220 -0.3416 -0.1248 -0.5389
24922SOL    HW175344   5.433   7.921   8.136  0.3427 -1.7102 -0.1479
24922SOL    HW275345   5.412   8.010   8.257  2.2978 -0.8452 -0.4188
24923SOL     OW75346   5.112   6.694   2.579  0.1836 -0.2276 -0.1274
24923SOL    HW175347   5.142   6.735   2.660 -1.3628  0.2834  0.2005
24923SOL    HW275348   5.104   6.601   2.601  2.1593 -0.5189 -0.4325
24924SOL     OW75349   9.458   1.433   9.785  0.4373 -0.4399  0.0372
24924SOL    HW175350   9.502   1.489   9.850 -0.5026 -0.4334  0.6779
24924SOL    HW275351   9.529   1.380   9.747  1.7163  2.4123 -1.9442
24925SOL     OW75352   5.697   6.576   6.219  0.0714  0.0592  0.1918
24925SOL    HW175353   5.759   6.610   6.154  1.3334 -2.5407 -0.0977
24925SOL    HW275354   5.641   6.517   6.170  0.7708 -1.6183  1.3237
24926SOL     OW75355   3.881   0.657   4.831 -0.2610 -0.7146  0.2796
24926SOL    HW175356   3.852   0.729   4.776  1.0988  0.4283  1.0033
24926SOL    HW275357   3.902   0.697   4.915  0.0656 -2.0334  0.8529
24927SOL     OW75358   8.178   9.269   9.447 -0.4715 -0.0992  0.4233
24927SOL    HW175359   8.150   9.262   9.356 -1.8641  0.1062  0.8194
24927SOL    HW275360   8.135   9.347   9.480  0.9339  0.4827  0.9592
24928SOL     OW75361   2.994   1.412   2.999 -0.1035  0.5928 -0.6871
24928SOL    HW175362   2.995   1.413   3.095  0.7624  0.6539 -0.6915
24928SOL    HW275363   3.039   1.492   2.974 -0.2616  0.5400 -1.1456
24929SOL     OW75364   3.879   3.150   6.343 -0.3076 -0.7171  0.1007
24929SOL    HW175365   3.942   3.081   6.324 -0.4996 -0.9914  0.4523
24929SOL    HW275366   3.930   3.231   6.337  0.1751 -0.9622  0.7626
24930SOL     OW75367   9.680   5.638   7.703 -0.2605  0.6647  0.6154
24930SOL    HW175368   9.638   5.625   7.617  0.9970  1.0557 -0.0856
24930SOL    HW275369   9.608   5.661   7.761 -1.4119 -1.3363  0.0830
24931SOL     OW75370   2.492   3.803   5.492  0.3070  0.6099  0.3008
24931SOL    HW175371   2.584   3.805   5.467  0.0749  0.0760 -0.6219
24931SOL    HW275372   2.492   3.828   5.585  1.2675  1.6384  0.0407
24932SOL     OW75373   2.861   1.943   7.211 -0.2143 -0.2047 -0.0164
24932SOL    HW175374   2.834   1.852   7.197 -0.5442 -0.0680 -0.2763
24932SOL    HW275375   2.943   1.936   7.260 -0.4397 -0.6355  0.3111
24933SOL     OW75376   1.573   3.727   6.206 -0.3188  0.3698  0.2044
24933SOL    HW175377   1.628   3.692   6.136 -0.1881  3.8190 -1.6098
24933SOL    HW275378   1.624   3.712   6.286  2.1481  1.1696 -1.1051
24934SOL     OW75379   3.696   1.571   1.325 -0.0712  0.1426 -0.1034
24934SOL    HW175380   3.609   1.575   1.365  0.2450  0.6053  0.5568
24934SOL    HW275381   3.756   1.560   1.399  0.4076 -0.5775 -0.5812
24935SOL     OW75382   5.342   8.406   8.962 -0.9681  0.1444 -0.6343
24935SOL    HW175383   5.314   8.338   9.023 -2.3369  0.2249 -1.1354
24935SOL    HW275384   5.268   8.468   8.960 -0.3884  0.8300 -1.3583
24936SOL     OW75385   4.528   9.192   2.414  0.4224  0.1312 -0.1878
24936SOL    HW175386   4.607   9.171   2.364  0.6009  0.7612 -0.1777
24936SOL    HW275387   4.471   9.115   2.402  0.4167  0.3091 -1.4450
24937SOL     OW75388   3.962   0.356   3.601 -0.2777 -0.1845 -0.1952
24937SOL    HW175389   4.004   0.325   3.681  0.0950  1.2064  0.1671
24937SOL    HW275390   4.034   0.385   3.545 -0.6011 -0.1192 -0.5911
24938SOL     OW75391   1.766   3.935   0.861  0.6259 -0.4661 -0.7298
24938SOL    HW175392   1.714   3.969   0.933  1.5485  2.3327 -1.2916
24938SOL    HW275393   1.814   3.861   0.898 -0.6144 -0.4931  0.8839
24939SOL     OW75394   1.917   3.568   8.076 -0.2948  0.2471  0.2328
24939SOL    HW175395   1.880   3.620   8.005  0.2631  3.3731  2.0355
24939SOL    HW275396   2.006   3.601   8.087  0.8125 -2.4961  0.2981
24940SOL     OW75397   7.583   2.488   2.840  0.1405  0.2689 -0.1461
24940SOL    HW175398   7.550   2.430   2.908  0.0781 -0.0221 -0.4189
24940SOL    HW275399   7.576   2.436   2.759 -0.5960  0.9086 -0.5032
24941SOL     OW75400   7.263   5.840   9.266 -0.6712  0.2063 -0.8645
24941SOL    HW175401   7.242   5.834   9.360  0.8343  1.1418 -0.4429
24941SOL    HW275402   7.203   5.907   9.233  0.7672  2.0542  0.0931
24942SOL     OW75403   7.095   2.794   5.488  0.3902  0.1139 -0.2241
24942SOL    HW175404   7.008   2.800   5.527  0.6020  0.8294  0.1417
24942SOL    HW275405   7.105   2.701   5.468 -0.2455 -0.0563  0.2091
24943SOL     OW75406   0.154   8.740   8.261 -0.0787  0.2098 -0.9807
24943SOL    HW175407   0.112   8.678   8.200  1.1555 -0.5174 -1.1307
24943SOL    HW275408   0.171   8.817   8.208  0.8813 -0.3757 -1.5572
24944SOL     OW75409   1.044   9.265   0.045 -0.2948 -0.9084  0.1577
24944SOL    HW175410   1.124   9.213   0.049  1.2315  1.3365  2.9333
24944SOL    HW275411   1.044   9.303  -0.043  1.1202 -1.7781 -0.2400
24945SOL     OW75412   6.524   1.419   6.542 -0.4595 -0.2302 -0.4231
24945SOL    HW175413   6.563   1.453   6.461  1.2574  0.4635  0.6473
24945SOL    HW275414   6.442   1.468   6.552 -0.5920 -0.1793 -1.6100
24946SOL     OW75415   9.801   4.618   2.461  0.5660  0.7969 -0.2409
24946SOL    HW175416   9.775   4.707   2.435  0.3540  0.5947 -0.7305
24946SOL    HW275417   9.809   4.623   2.556  0.3177  1.2793 -0.2390
24947SOL     OW75418   0.636   1.002   3.307 -0.1247  0.2506  0.6100
24947SOL    HW175419   0.700   1.065   3.274  0.1153 -0.1052  0.3955
24947SOL    HW275420   0.563   1.056   3.338 -0.5598  0.5884 -0.9085
24948SOL     OW75421   1.151   6.831   1.394 -0.1413  1.0152  0.2549
24948SOL    HW175422   1.093   6.792   1.329  1.4475  0.8322 -1.1273
24948SOL    HW275423   1.092   6.875   1.456 -1.7650  0.0132 -0.5172
24949SOL     OW75424   3.482   0.262   7.124  0.4721  0.0638 -0.3271
24949SOL    HW175425   3.546   0.221   7.065  0.0245  0.5095 -1.1471
24949SOL    HW275426   3.484   0.209   7.203  2.0117  0.1939 -0.2514
24950SOL     OW75427   6.737   9.075   2.434  0.2680  0.5519  0.1088
24950SOL    HW175428   6.732   8.982   2.455 -0.3832  0.5589  0.0078
24950SOL    HW275429   6.830   9.092   2.423  0.2837 -0.8904 -3.4756
24951SOL     OW75430   9.452   3.535   8.167 -0.0932  0.3954  0.2405
24951SOL    HW175431   9.467   3.444   8.143 -0.6803  0.3652 -0.0223
24951SOL    HW275432   9.421   3.577   8.087  0.9431  1.0212  0.1473
24952SOL     OW75433   4.685   2.224   8.952  0.4895 -0.0819 -0.2154
24952SOL    HW175434   4.684   2.305   8.902 -1.1896  0.2144  0.2379
24952SOL    HW275435   4.666   2.155   8.888  0.5646  0.0424 -0.3691
24953SOL     OW75436   1.672   8.276   3.755 -0.0850 -0.5245  0.0074
24953SOL    HW175437   1.583   8.240   3.750 -0.4746  0.3035  0.7717
24953SOL    HW275438   1.660   8.363   3.791  0.9773 -0.1192 -0.5980
24954SOL     OW75439   4.600   6.485   0.254  0.4572  0.0187 -1.0638
24954SOL    HW175440   4.587   6.508   0.162  0.3933  1.6363 -0.6859
24954SOL    HW275441   4.695   6.482   0.266  0.4843  0.8853 -0.9631
24955SOL     OW75442   6.915   5.254   8.725 -0.1816  0.2166  0.1326
24955SOL    HW175443   6.984   5.231   8.787 -1.4352 -0.1057  1.4747
24955SOL    HW275444   6.912   5.180   8.664  0.3494  0.0305  0.3276
24956SOL     OW75445   8.195   3.587   4.667 -1.0245 -0.0119  0.1184
24956SOL    HW175446   8.253   3.597   4.591 -0.3081  1.8976  0.8381
24956SOL    HW275447   8.165   3.496   4.664  2.0016 -1.1017 -0.3052
24957SOL     OW75448   3.795   0.738   2.057  0.1669 -0.5828 -0.3384
24957SOL    HW175449   3.836   0.657   2.025 -0.2849 -0.5775 -0.9617
24957SOL    HW275450   3.784   0.723   2.151  1.1124 -0.7878 -0.2445
24958SOL     OW75451   7.282   8.922   2.699  0.5630  0.1185  0.1170
24958SOL    HW175452   7.290   8.858   2.771  0.3528 -0.1284 -0.0766
24958SOL    HW275453   7.370   8.929   2.664  0.5842 -0.0831  0.1276
24959SOL     OW75454   4.223   0.870   4.850 -0.3819  0.2989 -0.7200
24959SOL    HW175455   4.258   0.939   4.793 -1.4821  0.5340 -1.1337
24959SOL    HW275456   4.287   0.799   4.842 -0.5989  0.2359 -2.4472
24960SOL     OW75457   5.540   1.418   4.687 -0.2709  0.1872 -0.6006
24960SOL    HW175458   5.515   1.329   4.662  0.6996 -0.1262 -0.4951
24960SOL    HW275459   5.627   1.430   4.649  1.0413 -0.1122  2.0835
24961SOL     OW75460   2.144   9.279   0.670 -0.6076 -0.1057 -0.0787
24961SOL    HW175461   2.172   9.320   0.752 -0.2000 -0.3904 -0.0753
24961SOL    HW275462   2.168   9.187   0.679  0.6883  0.1029 -1.0643
24962SOL     OW75463   8.635   9.608   8.342  0.2226 -0.1238 -0.3425
24962SOL    HW175464   8.701   9.646   8.400  1.3402  0.2937 -1.8176
24962SOL    HW275465   8.579   9.557   8.400  0.7738  0.9388  1.2115
24963SOL     OW75466   7.403   8.370   3.420  0.1513  0.6973  0.0238
24963SOL    HW175467   7.472   8.313   3.389 -1.4998 -0.2815 -2.1442
24963SOL    HW275468   7.384   8.428   3.346 -1.7803  0.4815  0.2972
24964SOL     OW75469   4.159   6.341   6.237 -0.0884  0.0950 -0.2440
24964SOL    HW175470   4.216   6.267   6.257 -1.1856 -0.8100 -0.3693
24964SOL    HW275471   4.167   6.351   6.142  0.8896  0.8499 -0.0950
24965SOL     OW75472   9.752   0.503   9.205  0.0839 -0.4820 -0.0043
24965SOL    HW175473   9.839   0.542   9.210 -0.6583  1.5340 -1.4301
24965SOL    HW275474   9.745   0.470   9.115 -0.5777 -0.7201  0.1231
24966SOL     OW75475   9.843   2.239   0.879  0.0633 -0.2390  0.1232
24966SOL    HW175476   9.939   2.244   0.875  0.0997  0.0131  1.0280
24966SOL    HW275477   9.814   2.275   0.795  0.7275  1.7556  0.6787
24967SOL     OW75478   2.099   8.305   0.990  0.2350  0.2335  0.0177
24967SOL    HW175479   2.081   8.270   1.077  1.2894 -0.2895  0.0484
24967SOL    HW275480   2.030   8.271   0.935 -0.1763  0.1872  0.5578
24968SOL     OW75481   5.058   6.101   9.297 -0.0964 -0.2451 -0.0163
24968SOL    HW175482   4.971   6.069   9.319 -0.8668  0.7542 -1.4339
24968SOL    HW275483   5.048   6.141   9.211  0.7908  3.4646  1.3936
24969SOL     OW75484   4.066   6.269   1.792 -0.3346  0.4266  0.1834
24969SOL    HW175485   4.045   6.180   1.763 -2.9741  1.4585 -1.5177
24969SOL    HW275486   4.120   6.305   1.721  1.6321 -0.0559  1.3557
24970SOL     OW75487   1.110   5.994   2.907 -0.6187 -0.0190 -0.5079
24970SOL    HW175488   1.078   5.907   2.931 -2.0115  0.6739  0.2952
24970SOL    HW275489   1.100   6.046   2.988 -0.3567  1.0179 -1.1262
24971SOL     OW75490   3.705   2.960   0.690  0.8306  0.3499  0.0077
24971SOL    HW175491   3.782   2.967   0.633  0.5336  0.1666 -0.4255
24971SOL    HW275492   3.659   2.882   0.659  0.4585  0.4690  0.2496
24972SOL     OW75493   6.409   9.939   5.595 -0.0227 -0.1713  0.4788
24972SOL    HW175494   6.415   9.848   5.622 -1.1980 -0.1301  0.9156
24972SOL    HW275495   6.458   9.943   5.512  2.1927 -0.6401  1.6766
24973SOL     OW75496   7.664   7.563   5.426  0.6216  0.1058  0.3003
24973SOL    HW175497   7.611   7.484   5.433  0.1357  0.4893  1.1298
24973SOL    HW275498   7.722   7.560   5.502  0.6335  0.5202  0.3096
24974SOL     OW75499   4.969   0.579   3.295  0.1543 -0.3663 -0.3088
24974SOL    HW175500   4.948   0.588   3.202  1.1445 -0.1812 -0.5310
24974SOL    HW275501   4.932   0.495   3.320 -0.0131 -0.4745 -0.9099
24975SOL     OW75502   3.819   5.715   7.730  0.2598 -0.8142  0.1746
24975SOL    HW175503   3.839   5.808   7.738 -1.1344 -0.4591 -0.2479
24975SOL    HW275504   3.887   5.671   7.782  1.4129  0.3744 -0.2894
24976SOL     OW75505   3.252   5.179   5.947 -0.4016  0.5157  0.1873
24976SOL    HW175506   3.205   5.148   6.024 -2.9641  0.3472 -1.3459
24976SOL    HW275507   3.249   5.105   5.886 -0.9971  1.6098 -1.1459
24977SOL     OW75508   1.981   0.803   4.045  0.3611  0.3988  0.0130
24977SOL    HW175509   1.966   0.772   4.135 -0.0855 -1.0547 -0.5429
24977SOL    HW275510   1.995   0.897   4.055  1.3951  0.1208  1.7400
24978SOL     OW75511   0.981   8.868   1.419  0.2760  0.0340  0.9205
24978SOL    HW175512   0.987   8.859   1.324 -0.6855  2.6825  0.5039
24978SOL    HW275513   0.897   8.830   1.442  0.5909 -0.7761  0.7592
24979SOL     OW75514   0.691   5.927   5.309 -0.1771  0.1799 -0.1771
24979SOL    HW175515   0.672   5.838   5.338  2.5835 -0.1421  0.8893
24979SOL    HW275516   0.757   5.917   5.241 -0.6586  1.3820 -0.8510
24980SOL     OW75517   5.556   0.685   1.422  0.5678  0.2348 -1.0847
24980SOL    HW175518   5.648   0.706   1.408  0.6152  0.0830 -0.9998
24980SOL    HW275519   5.554   0.590   1.435  0.4530  0.2936 -0.6629
24981SOL     OW75520   0.526   5.349   3.581  0.1064  0.3799 -0.1882
24981SOL    HW175521   0.489   5.359   3.668 -0.1549  2.1981 -0.4540
24981SOL    HW275522   0.619   5.372   3.591  0.4766 -1.0581 -0.1063
24982SOL     OW75523   0.949   2.802   0.583 -0.2546 -0.6205  0.1656
24982SOL    HW175524   0.858   2.822   0.604  0.1651 -1.6160  3.6585
24982SOL    HW275525   0.999   2.872   0.625  0.6544 -0.6768 -0.7790
24983SOL     OW75526   0.571   6.099   3.778  0.3294  0.0364 -0.1367
24983SOL    HW175527   0.629   6.166   3.742 -1.2849  1.2590 -0.5519
24983SOL    HW275528   0.578   6.110   3.873  0.5184  0.3993 -0.1903
24984SOL     OW75529   5.246   1.797   7.977 -0.3713  0.0259 -0.8336
24984SOL    HW175530   5.257   1.743   8.056  0.5401 -1.7574 -2.1124
24984SOL    HW275531   5.209   1.879   8.009  0.9868 -0.2191  1.6030
24985SOL     OW75532   4.761   9.791   4.823 -0.9686  0.4543  0.0639
24985SOL    HW175533   4.844   9.743   4.831  0.7114  3.4145  2.4784
24985SOL    HW275534   4.777   9.854   4.753 -1.4461  0.6057  0.0890
24986SOL     OW75535   0.890   0.977   3.058 -0.3303  0.2014 -0.2807
24986SOL    HW175536   0.855   1.041   3.120 -0.9796 -1.1219  0.7933
24986SOL    HW275537   0.984   0.997   3.053 -0.4540  0.9974  0.3084
24987SOL     OW75538   4.217   0.476   2.527 -0.1315 -0.2340 -0.1565
24987SOL    HW175539   4.244   0.384   2.517 -0.4699 -0.4153  0.5551
24987SOL    HW275540   4.122   0.473   2.530 -0.1836  0.2448 -1.0772
24988SOL     OW75541   7.451   2.544   7.209  0.3823 -0.8438 -0.0777
24988SOL    HW175542   7.409   2.490   7.141  0.6405  0.8864 -1.7021
24988SOL    HW275543   7.537   2.505   7.221  0.4019 -1.0726 -0.8870
24989SOL     OW75544   9.359   1.697   3.560 -0.3450 -0.3157 -0.0086
24989SOL    HW175545   9.398   1.754   3.493 -1.4453  0.4037 -0.0605
24989SOL    HW275546   9.351   1.754   3.637  1.7933 -1.3822  1.1055
24990SOL     OW75547   1.992   9.184   4.153  0.0669  0.0428  0.0477
24990SOL    HW175548   1.953   9.206   4.068 -0.2075 -1.0428 -0.1152
24990SOL    HW275549   1.917   9.165   4.209  0.2691  0.3087  0.4098
24991SOL     OW75550   2.832   1.519   1.592  0.4427  0.2011  0.1107
24991SOL    HW175551   2.902   1.507   1.528  0.3923  0.9589 -0.0874
24991SOL    HW275552   2.753   1.531   1.539 -0.0020 -1.4870  0.3257
24992SOL     OW75553   5.591   0.199   3.712 -0.2768 -0.4868 -0.0533
24992SOL    HW175554   5.589   0.111   3.674  1.1498 -0.4568 -0.2634
24992SOL    HW275555   5.565   0.257   3.640 -1.0837 -0.7053  0.0473
24993SOL     OW75556   2.065   4.147   4.212 -0.0260  0.0528  0.0648
24993SOL    HW175557   2.122   4.084   4.256 -1.3716 -0.4705  1.1111
24993SOL    HW275558   2.092   4.232   4.248  1.1754  0.0108 -0.6721
24994SOL     OW75559   2.833   0.886   3.648  0.2628 -0.7205  0.2781
24994SOL    HW175560   2.784   0.809   3.619  0.4095  0.2908 -3.1274
24994SOL    HW275561   2.908   0.851   3.696  1.2867 -2.9146 -2.6142
24995SOL     OW75562   2.698   6.971   3.868 -0.4658 -0.4824  0.4382
24995SOL    HW175563   2.671   7.052   3.910 -1.0160 -0.3394 -0.1696
24995SOL    HW275564   2.632   6.956   3.800  1.0474 -0.0554 -1.2138
24996SOL     OW75565   0.323   2.625   0.786  0.1309  0.3238 -0.0307
24996SOL    HW175566   0.402   2.642   0.837  0.8426 -0.7025 -0.7552
24996SOL    HW275567   0.296   2.711   0.754  2.0124  0.5219 -1.2621
24997SOL     OW75568   4.001   0.591   4.019 -0.1583  0.0730  0.3791
24997SOL    HW175569   4.073   0.534   4.047  0.2750 -0.3470 -1.4837
24997SOL    HW275570   4.037   0.679   4.022  0.2428 -0.0787  0.0283
24998SOL     OW75571   9.815   7.511   8.424  0.2183 -0.1025 -0.3472
24998SOL    HW175572   9.729   7.470   8.433  0.0564  0.0331 -1.1469
24998SOL    HW275573   9.798   7.605   8.435  0.2006 -0.0430 -0.8385
24999SOL     OW75574   6.923   9.461   0.745  0.2815 -0.1091 -0.8489
24999SOL    HW175575   7.009   9.486   0.780 -1.1022  2.8914  0.8428
24999SOL    HW275576   6.885   9.404   0.811  0.0798  0.5167 -0.4150
25000SOL     OW75577   3.877   1.948   9.496  0.5635 -0.1952  0.3330
25000SOL    HW175578   3.786   1.976   9.491  0.3006 -0.5297  2.4274
25000SOL    HW275579   3.927   2.026   9.472 -0.2362  0.9873  2.3121
25001SOL     OW75580   0.200   3.994   3.775 -0.1917 -1.1765  0.5959
25001SOL    HW175581   0.177   4.063   3.837 -0.1392  1.2289 -1.8663
25001SOL    HW275582   0.296   3.988   3.781  0.1660  1.3019 -1.3303
25002SOL     OW75583   5.853   9.526   9.697  0.0573 -0.1628  0.1552
25002SOL    HW175584   5.763   9.505   9.723  0.2254  0.2471  1.1225
25002SOL    HW275585   5.868   9.614   9.733  0.6111  0.0589 -0.6085
25003SOL     OW75586   0.336   7.995   4.244  0.0316 -0.7608  0.0163
25003SOL    HW175587   0.427   7.968   4.235  0.0239 -0.8266  0.1241
25003SOL    HW275588   0.330   8.078   4.197  0.6580  0.3589  1.8003
25004SOL     OW75589   1.418   5.452   7.465  0.0508 -0.5282  0.2290
25004SOL    HW175590   1.465   5.470   7.383 -2.3574 -0.9735 -1.3636
25004SOL    HW275591   1.459   5.511   7.529  2.3717 -0.5409 -1.1211
25005SOL     OW75592   8.228   7.109   7.585  0.3570 -0.2180  0.1088
25005SOL    HW175593   8.298   7.174   7.581 -0.6983  1.0812  1.4572
25005SOL    HW275594   8.172   7.129   7.509  0.9553 -0.6809 -0.4594
25006SOL     OW75595   7.310   3.211   6.491 -0.0157  0.1770  0.0178
25006SOL    HW175596   7.219   3.227   6.514 -0.3527  1.3242 -1.8544
25006SOL    HW275597   7.306   3.145   6.421  0.5532  0.5257 -0.3511
25007SOL     OW75598   2.537   6.343   2.325  0.5050 -0.4498 -0.1591
25007SOL    HW175599   2.619   6.383   2.354  0.4035 -0.5768  0.3061
25007SOL    HW275600   2.504   6.297   2.402 -0.2523  0.0138 -0.1998
25008SOL     OW75601   9.415   5.019   8.717 -0.8972 -0.2039  0.0690
25008SOL    HW175602   9.357   5.026   8.792 -2.6990 -1.6720 -1.1093
25008SOL    HW275603   9.503   5.014   8.755 -1.5274  1.5794  1.9177
25009SOL     OW75604   1.359   5.743   1.609 -0.0162 -0.3449  1.0874
25009SOL    HW175605   1.363   5.651   1.635  0.4617 -0.3662  0.9485
25009SOL    HW275606   1.450   5.773   1.615  0.0145 -0.1995 -0.0220
25010SOL     OW75607   3.875   3.935   9.119 -0.3942 -0.7134  0.3404
25010SOL    HW175608   3.904   3.896   9.037  0.2878 -1.1703  0.7944
25010SOL    HW275609   3.949   3.926   9.178 -0.4884  0.5973  0.6903
25011SOL     OW75610   3.229   1.104   0.192 -0.0913  0.2845 -0.1278
25011SOL    HW175611   3.154   1.125   0.136  1.0995  1.8849 -1.2245
25011SOL    HW275612   3.304   1.099   0.131  0.6698 -1.6724  0.8710
25012SOL     OW75613   9.184   3.374   8.065 -0.2430  0.4026 -0.1292
25012SOL    HW175614   9.162   3.313   8.136 -0.3965  0.9947  0.3489
25012SOL    HW275615   9.206   3.318   7.991 -0.5409 -0.2302  0.2475
25013SOL     OW75616   1.062   5.245   5.524 -0.5551  0.3375  0.3823
25013SOL    HW175617   1.106   5.309   5.469 -2.0209  1.6361  0.6431
25013SOL    HW275618   1.105   5.252   5.609 -0.1555  0.3842  0.1745
25014SOL     OW75619   2.328   8.240   8.530  0.4589  0.1842  0.3505
25014SOL    HW175620   2.387   8.289   8.587  0.2150  0.4080  0.4156
25014SOL    HW275621   2.385   8.189   8.473  0.7148  0.4403  0.3789
25015SOL     OW75622   7.057   9.708   5.862  0.0302  0.5910 -0.2182
25015SOL    HW175623   7.096   9.796   5.865 -1.8115  1.4380  0.1006
25015SOL    HW275624   7.070   9.673   5.951  1.1395  0.3271 -0.4588
25016SOL     OW75625   3.412   8.342   7.020  1.1344 -0.0199  0.3850
25016SOL    HW175626   3.430   8.434   7.039  1.9079 -0.1436  0.2996
25016SOL    HW275627   3.337   8.319   7.075 -0.6903  1.3324 -1.3977
25017SOL     OW75628   6.469   9.700   1.420 -0.2909  0.1473 -0.4748
25017SOL    HW175629   6.554   9.687   1.379 -0.4377 -1.9667 -0.2312
25017SOL    HW275630   6.475   9.786   1.462  2.0256 -0.3052  0.2581
25018SOL     OW75631   4.385   4.862   9.954 -0.1888 -0.9563 -0.1926
25018SOL    HW175632   4.366   4.868   9.861 -0.0026  0.8399 -0.1436
25018SOL    HW275633   4.438   4.783   9.963 -0.2728 -1.1887 -1.5881
25019SOL     OW75634   0.182   2.748   5.514 -0.0982 -0.5378  0.3821
25019SOL    HW175635   0.099   2.790   5.494  1.1768  1.4979 -0.9879
25019SOL    HW275636   0.232   2.753   5.433  1.3538 -1.7679  1.1493
25020SOL     OW75637   6.570   1.554   9.247  0.2428 -0.2417 -0.1963
25020SOL    HW175638   6.479   1.577   9.266  0.1776 -0.4257 -0.2875
25020SOL    HW275639   6.609   1.536   9.333  1.1900  3.3688  0.3174
25021SOL     OW75640   3.724   5.479   1.779  0.0584  0.6362 -0.0474
25021SOL    HW175641   3.755   5.450   1.864  2.1687  3.7485  0.3932
25021SOL    HW275642   3.802   5.480   1.724 -1.2952 -1.5588 -2.2356
25022SOL     OW75643   5.969   2.553   1.892 -0.2897 -0.1214 -0.1165
25022SOL    HW175644   5.913   2.475   1.896 -1.2747  0.6142  1.7104
25022SOL    HW275645   5.970   2.587   1.981  1.3624  1.1215 -0.5504
25023SOL     OW75646   1.883   9.709   1.758  0.0387  0.1141 -0.5526
25023SOL    HW175647   1.835   9.708   1.676 -0.4853  0.4618 -0.2514
25023SOL    HW275648   1.906   9.617   1.773 -0.6658 -0.0815 -0.6244
25024SOL     OW75649   9.710   6.989   5.525  0.1169 -0.7885 -0.3099
25024SOL    HW175650   9.737   6.978   5.616  2.0677 -1.9871 -0.9635
25024SOL    HW275651   9.772   6.935   5.475 -0.7642 -0.0034 -2.3688
25025SOL     OW75652   4.138   9.076   4.949  0.0014 -0.6628 -0.1597
25025SOL    HW175653   4.166   9.162   4.920  2.2754 -0.9385  0.9378
25025SOL    HW275654   4.049   9.066   4.916  0.7773  0.8255 -2.9614
25026SOL     OW75655   4.129   3.413   5.895 -0.3889  0.2792 -0.2202
25026SOL    HW175656   4.114   3.428   5.988  1.3197 -0.3476  0.1926
25026SOL    HW275657   4.182   3.488   5.867 -0.8918  0.4633 -0.6980
25027SOL     OW75658   8.381   4.255   5.210 -0.2115 -0.5710  0.0529
25027SOL    HW175659   8.420   4.316   5.274  0.9922 -1.1328 -0.1140
25027SOL    HW275660   8.451   4.193   5.190 -0.2340  0.1224 -2.5364
25028SOL     OW75661   5.203   4.310   7.640  0.6653 -0.6499  0.7077
25028SOL    HW175662   5.130   4.372   7.637 -0.2922 -1.7509  0.2652
25028SOL    HW275663   5.271   4.356   7.688 -0.3038  0.4344  1.1064
25029SOL     OW75664   2.223   3.259   6.133  0.0792 -0.0939 -0.2168
25029SOL    HW175665   2.270   3.191   6.183  0.0560  0.7459  0.9950
25029SOL    HW275666   2.160   3.210   6.080  2.2580 -1.2850 -1.9326
25030SOL     OW75667   2.918   2.372   6.202 -0.5634  0.7472  0.0378
25030SOL    HW175668   2.904   2.278   6.203  1.6498  0.3361 -1.3188
25030SOL    HW275669   2.964   2.391   6.284  2.5072 -0.0747 -1.3699
25031SOL     OW75670   0.986   3.027   8.278  0.3651  0.3813 -0.3111
25031SOL    HW175671   1.075   3.057   8.295  0.7175  0.9372 -2.7665
25031SOL    HW275672   0.972   2.955   8.340  1.9754  1.1907  1.0680
25032SOL     OW75673   4.893   9.496   2.590 -0.2919 -0.3449 -0.1714
25032SOL    HW175674   4.895   9.476   2.684 -0.5425 -1.8132 -0.4528
25032SOL    HW275675   4.954   9.569   2.579 -1.4425  0.9125  1.3656
25033SOL     OW75676   0.515   6.856   0.178  0.0489  0.3765  0.0170
25033SOL    HW175677   0.494   6.765   0.154 -1.1737  0.6130  0.1548
25033SOL    HW275678   0.575   6.847   0.252  1.4804 -0.3261 -1.1585
25034SOL     OW75679   8.481   9.512   8.577 -0.1583 -0.2075 -0.5880
25034SOL    HW175680   8.496   9.444   8.643  1.0434  0.2328 -0.3918
25034SOL    HW275681   8.495   9.595   8.623 -1.2087  0.1755 -0.9266
25035SOL     OW75682   3.851   7.664   7.518  0.0814 -0.0074  0.1151
25035SOL    HW175683   3.773   7.684   7.466  0.9371  2.3819 -0.3482
25035SOL    HW275684   3.924   7.697   7.465  1.4522 -2.0206  0.6127
25036SOL     OW75685   3.842   6.007   6.544  0.3133  0.0823 -0.0429
25036SOL    HW175686   3.876   5.966   6.623  0.2581  1.0815  0.5055
25036SOL    HW275687   3.748   5.987   6.545  0.0211  1.3683  0.9614
25037SOL     OW75688   7.038   9.971   2.326 -0.1131  0.0652  0.5333
25037SOL    HW175689   6.957   9.923   2.307 -0.3293  0.4376  0.4979
25037SOL    HW275690   7.011  10.037   2.389  0.1771  0.1562  0.5596
25038SOL     OW75691   6.951   4.656   4.835  0.4316 -0.1811  0.1704
25038SOL    HW175692   6.906   4.609   4.906  0.6401  0.6026  0.8362
25038SOL    HW275693   6.899   4.735   4.822  0.5389 -0.2018 -0.3873
25039SOL     OW75694   1.638   0.869   0.144  0.4922 -0.1741  0.0237
25039SOL    HW175695   1.587   0.930   0.197  1.1849 -0.2438  0.7963
25039SOL    HW275696   1.587   0.789   0.143  0.0083  0.1322 -0.2387
25040SOL     OW75697   7.675   1.059   5.811  1.1775 -0.5036  0.5914
25040SOL    HW175698   7.654   1.152   5.804  1.6321 -0.4812 -0.7403
25040SOL    HW275699   7.768   1.054   5.791  1.0083 -1.3165 -0.0323
25041SOL     OW75700   1.441   0.683   8.514  0.4486 -0.4530 -0.0586
25041SOL    HW175701   1.444   0.621   8.441 -0.8565  0.3941 -0.8696
25041SOL    HW275702   1.533   0.700   8.535  0.8447 -0.7695 -1.4505
25042SOL     OW75703   0.570   1.495   2.954 -0.6805  0.1015  0.2034
25042SOL    HW175704   0.662   1.516   2.970 -0.6860 -1.1893  2.2367
25042SOL    HW275705   0.522   1.575   2.976 -0.1509  0.4346  0.1673
25043SOL     OW75706   7.093   4.966   4.770  0.1565  0.3799  0.3457
25043SOL    HW175707   7.058   4.957   4.859 -1.8530 -0.1407 -0.4532
25043SOL    HW275708   7.131   4.880   4.751 -0.7726  0.0045  0.1588
25044SOL     OW75709   6.019   2.947   7.241  0.1208 -0.4775 -1.0628
25044SOL    HW175710   6.103   2.901   7.246  0.0206 -0.5764 -0.0206
25044SOL    HW275711   5.971   2.918   7.319 -1.6681 -1.9185 -2.5913
25045SOL     OW75712   3.340   5.331   2.379 -0.4980 -0.1191 -0.5957
25045SOL    HW175713   3.415   5.290   2.335 -0.8231  0.1471 -1.4132
25045SOL    HW275714   3.370   5.346   2.469  0.9108  1.2412 -1.2558
25046SOL     OW75715   0.295   4.507   9.516  0.2451 -0.0797 -0.1026
25046SOL    HW175716   0.366   4.489   9.578 -0.2823  1.2013  0.9180
25046SOL    HW275717   0.234   4.434   9.529 -1.7775  1.9981  3.8322
25047SOL     OW75718   5.237   3.037   6.309  0.0158  0.2026  0.1946
25047SOL    HW175719   5.294   3.113   6.296 -0.6358  0.5079 -0.9586
25047SOL    HW275720   5.250   3.013   6.401  2.8001 -0.3903 -0.2705
25048SOL     OW75721   7.550   6.565   5.052 -0.4238  0.3176 -0.1130
25048SOL    HW175722   7.468   6.616   5.052 -0.8277 -0.3121  0.6671
25048SOL    HW275723   7.608   6.613   5.111 -0.3342  0.5902 -0.4175
25049SOL     OW75724   2.114   1.884   2.555 -0.3075 -0.5527  0.3803
25049SOL    HW175725   2.204   1.903   2.583 -0.9143  1.9169  0.9318
25049SOL    HW275726   2.109   1.789   2.552  1.8989 -0.7855  1.7379
25050SOL     OW75727   9.441   0.224   2.326 -0.2887  0.2472 -0.3177
25050SOL    HW175728   9.479   0.236   2.239  0.6661  0.1981  0.0831
25050SOL    HW275729   9.511   0.185   2.378 -0.3250  1.6741  0.8814
25051SOL     OW75730   8.200   3.314   7.246 -0.3390 -0.1187  0.8495
25051SOL    HW175731   8.136   3.347   7.183 -0.6400  0.4710  1.4528
25051SOL    HW275732   8.180   3.221   7.254  1.4709 -0.8788 -2.0109
25052SOL     OW75733   1.638   9.311   4.055  0.0685  0.4328 -0.3351
25052SOL    HW175734   1.560   9.338   4.007  0.0064  0.1523 -0.3953
25052SOL    HW275735   1.617   9.222   4.085  0.7093  0.0137 -1.0962
25053SOL     OW75736   1.142   1.160   8.472 -0.3232 -0.0338 -0.0598
25053SOL    HW175737   1.163   1.253   8.457  0.3365 -0.3019 -0.8383
25053SOL    HW275738   1.213   1.128   8.527 -1.7987  0.4933  2.2900
25054SOL     OW75739   7.129   4.249   4.949 -0.1828 -0.2253 -0.2524
25054SOL    HW175740   7.160   4.339   4.958 -0.1327 -0.2069 -0.6024
25054SOL    HW275741   7.048   4.256   4.898  0.4324 -0.4758 -1.3091
25055SOL     OW75742   9.788   9.790   0.850  0.3142  0.1077  0.4586
25055SOL    HW175743   9.722   9.851   0.816 -0.0198 -0.3936  0.2056
25055SOL    HW275744   9.866   9.845   0.864  0.1515  0.5079 -0.1853
25056SOL     OW75745   0.184   5.573   1.739 -0.2703 -0.5831 -0.2791
25056SOL    HW175746   0.237   5.494   1.731 -0.1222 -0.6814  1.2582
25056SOL    HW275747   0.142   5.583   1.654  1.3208 -1.1405 -1.1646
25057SOL     OW75748   1.181   0.062   3.505 -0.0165 -0.4292 -0.2883
25057SOL    HW175749   1.222   0.072   3.592  1.0875  0.9350 -0.9181
25057SOL    HW275750   1.229   0.124   3.450 -2.3853  0.6006 -1.2922
25058SOL     OW75751   9.288   4.997   9.360 -0.0255  0.1210 -0.4065
25058SOL    HW175752   9.313   5.073   9.307  0.1606  0.0709 -0.3927
25058SOL    HW275753   9.197   4.981   9.337 -0.3143  0.8539  0.2111
25059SOL     OW75754   2.668   1.826   4.459  0.6824 -0.4871 -0.1921
25059SOL    HW175755   2.574   1.822   4.474  0.6527 -0.9401 -0.4738
25059SOL    HW275756   2.687   1.749   4.405  0.7315  1.1437 -2.6784
25060SOL     OW75757   0.485   3.673   1.200 -0.6505 -0.0745  0.1828
25060SOL    HW175758   0.424   3.734   1.157 -0.1737 -1.1340 -2.1856
25060SOL    HW275759   0.440   3.647   1.281 -1.9693  1.4836  0.0001
25061SOL     OW75760   6.512   4.894   3.621 -0.2152  0.0649 -0.6037
25061SOL    HW175761   6.494   4.924   3.532 -0.9873  3.1162  0.4489
25061SOL    HW275762   6.595   4.936   3.644 -0.9227  0.8375  0.6710
25062SOL     OW75763   1.088   5.303   8.987 -0.3079 -0.1852 -0.5695
25062SOL    HW175764   1.094   5.266   8.899 -1.1405 -0.1670 -0.6451
25062SOL    HW275765   0.994   5.321   8.999 -0.0816  0.7178 -0.0481
25063SOL     OW75766   5.378   3.048   3.032 -0.2105 -0.2993 -0.2851
25063SOL    HW175767   5.465   3.077   3.002 -0.1676  0.3066  0.3920
25063SOL    HW275768   5.346   2.992   2.961  1.5288 -2.0952  0.2445
25064SOL     OW75769   6.900   6.160   0.978 -0.7229 -0.0242  0.0711
25064SOL    HW175770   6.928   6.072   1.000 -1.2467 -0.0692  0.5735
25064SOL    HW275771   6.805   6.155   0.971 -0.9590  0.8376  1.8323
25065SOL     OW75772   4.249   8.890   1.934 -0.3985  0.7265 -0.2072
25065SOL    HW175773   4.182   8.958   1.942 -1.2930 -0.1656  0.0969
25065SOL    HW275774   4.278   8.875   2.023 -1.3844 -0.4226 -0.0579
25066SOL     OW75775   0.047   0.116   1.774  0.5668 -0.2622 -0.0294
25066SOL    HW175776  -0.015   0.143   1.706  1.7294 -1.5327 -1.6896
25066SOL    HW275777  -0.007   0.073   1.841 -0.7434  2.0203  0.4885
25067SOL     OW75778   0.258   6.331   6.374 -0.5202  0.0578  0.1372
25067SOL    HW175779   0.197   6.262   6.401 -0.1324 -0.5899 -0.6110
25067SOL    HW275780   0.205   6.411   6.377 -0.5451  0.0275  2.6207
25068SOL     OW75781   3.774   0.675   5.305  0.3677  0.3216  0.2747
25068SOL    HW175782   3.737   0.589   5.326  1.4279 -0.1151  0.3956
25068SOL    HW275783   3.735   0.697   5.220 -0.0963 -0.1706  0.3528
25069SOL     OW75784   2.592   4.698   1.695 -0.1461  0.4938 -0.5529
25069SOL    HW175785   2.501   4.669   1.688 -0.0884  0.4938 -1.3275
25069SOL    HW275786   2.643   4.628   1.655  0.1511  0.7336 -0.6016
25070SOL     OW75787   8.918   1.536   9.704 -0.7550 -0.0846  0.4430
25070SOL    HW175788   8.885   1.508   9.789  1.1429  0.1972  1.3274
25070SOL    HW275789   9.005   1.497   9.698 -0.4841  0.6741 -0.9474
25071SOL     OW75790   2.000   4.514   4.451 -0.3911 -0.0385 -0.3731
25071SOL    HW175791   1.976   4.448   4.516  0.8240  0.3316  0.4757
25071SOL    HW275792   1.983   4.598   4.494 -1.1877  0.2345 -1.1685
25072SOL     OW75793   9.334   6.730   4.983 -0.4327 -0.1959 -0.4964
25072SOL    HW175794   9.276   6.772   5.047 -0.7414 -0.3883 -0.6434
25072SOL    HW275795   9.296   6.643   4.972 -0.8494  0.1050 -1.5290
25073SOL     OW75796   1.153   2.422   7.006 -0.7730 -0.2500  0.2142
25073SOL    HW175797   1.138   2.380   6.921 -0.7541 -0.2851  0.2281
25073SOL    HW275798   1.185   2.351   7.062  0.7592  0.1113 -0.1787
25074SOL     OW75799   0.135   1.918   9.421  0.0520  0.3478  0.2420
25074SOL    HW175800   0.076   1.925   9.497  2.5909  3.3541  2.1734
25074SOL    HW275801   0.219   1.891   9.458  0.6776 -0.9780 -1.9856
25075SOL     OW75802   2.025   6.085   6.824 -0.3476  0.1144  0.2991
25075SOL    HW175803   1.970   6.153   6.865  0.9987  0.9772  0.7386
25075SOL    HW275804   1.972   6.006   6.827 -1.3699  0.8081  1.1682
25076SOL     OW75805   8.559   1.902   8.458 -0.2038  0.0208 -0.7380
25076SOL    HW175806   8.601   1.829   8.502  0.7819 -0.6993 -2.7573
25076SOL    HW275807   8.470   1.903   8.494  0.2933 -1.0318  0.6112
25077SOL     OW75808   1.330   9.122   0.096  0.5925  0.0960  0.0912
25077SOL    HW175809   1.404   9.120   0.156  2.4304  1.9163 -1.9366
25077SOL    HW275810   1.369   9.127   0.009 -1.9429 -1.6007 -1.2834
25078SOL     OW75811   2.897   3.540   8.526 -0.3275 -0.1473  0.0019
25078SOL    HW175812   2.825   3.480   8.505  0.4327 -0.5452 -1.6451
25078SOL    HW275813   2.953   3.538   8.448  0.8988  0.9884  0.8158
25079SOL     OW75814   9.457   4.229   8.379  0.2440 -0.4807 -0.0531
25079SOL    HW175815   9.516   4.160   8.411 -0.2534 -0.4681  0.9242
25079SOL    HW275816   9.399   4.247   8.453  0.9763  1.6773  0.0663
25080SOL     OW75817   5.065   8.743   4.913  0.4103 -0.3876  0.1954
25080SOL    HW175818   5.128   8.814   4.914  1.5364 -1.3505  0.5175
25080SOL    HW275819   5.001   8.766   4.981  1.6889 -0.4717  1.4847
25081SOL     OW75820   8.659   2.512   2.926  0.6183  0.2612 -0.1944
25081SOL    HW175821   8.684   2.473   3.010  0.9632 -0.3398 -0.5700
25081SOL    HW275822   8.741   2.544   2.889  0.4966  0.3281 -0.4103
25082SOL     OW75823   1.953   9.190   8.236  0.4120  0.4550 -0.8006
25082SOL    HW175824   1.891   9.197   8.163  1.9221 -0.9534 -2.2862
25082SOL    HW275825   1.925   9.259   8.297 -0.3664  2.3015 -3.0977
25083SOL     OW75826   5.036   4.147   7.786  0.0201  0.0380 -0.1084
25083SOL    HW175827   5.096   4.163   7.714  0.7384  0.4953  0.5827
25083SOL    HW275828   4.959   4.200   7.766  0.7475  1.2039  0.1090
25084SOL     OW75829   1.938   8.614   6.664  0.4344  0.0801  0.8403
25084SOL    HW175830   2.012   8.553   6.653 -0.8785 -1.5186  0.3917
25084SOL    HW275831   1.867   8.558   6.694 -0.0750  1.9168  3.3525
25085SOL     OW75832   9.183   9.743   7.356  0.0806  0.6784  0.5306
25085SOL    HW175833   9.225   9.795   7.425  1.3815  1.1418 -0.5687
25085SOL    HW275834   9.211   9.784   7.275  0.9294 -1.5429 -0.3751
25086SOL     OW75835   7.062   5.137   7.600  0.4283  0.7645 -0.2214
25086SOL    HW175836   7.056   5.228   7.573 -1.6361  0.1575 -2.1902
25086SOL    HW275837   6.972   5.112   7.620  0.6974 -1.1999 -1.1640
25087SOL     OW75838   0.739   3.021   4.960 -0.8001 -0.1246  1.0515
25087SOL    HW175839   0.818   3.054   5.004 -0.2968  1.4274 -0.9053
25087SOL    HW275840   0.762   2.931   4.935  1.1554  0.8968 -1.1836
25088SOL     OW75841   6.220   6.938   4.675  0.1792  0.0330 -0.0638
25088SOL    HW175842   6.230   6.995   4.751 -0.3336  1.3723 -0.9567
25088SOL    HW275843   6.180   6.859   4.709 -1.1772  1.0756  0.8983
25089SOL     OW75844   5.488   2.530   2.374  0.5893  0.0786  0.3169
25089SOL    HW175845   5.541   2.471   2.321  2.0215  2.1202 -0.6934
25089SOL    HW275846   5.551   2.594   2.409 -0.9791  1.6949  0.3738
25090SOL     OW75847   2.584   9.824   5.117  0.5006 -0.2411  0.3622
25090SOL    HW175848   2.560   9.773   5.193  3.5957 -0.5051  1.2872
25090SOL    HW275849   2.668   9.865   5.140  2.1416 -1.1486 -3.1812
25091SOL     OW75850   2.167   2.221   9.732  0.5356  0.3241  0.1275
25091SOL    HW175851   2.222   2.144   9.719  2.1201  1.4846 -0.3724
25091SOL    HW275852   2.114   2.226   9.653 -0.8452 -1.1765  0.8927
25092SOL     OW75853   2.137   6.171   3.196 -0.1635  0.8414  0.1550
25092SOL    HW175854   2.118   6.153   3.288  1.9476  0.1210  0.5094
25092SOL    HW275855   2.052   6.166   3.152 -1.4672  2.6932  2.2410
25093SOL     OW75856   8.788   2.893   8.974  0.5600  0.0018  0.1836
25093SOL    HW175857   8.798   2.912   9.068 -1.3526  0.5167  0.3236
25093SOL    HW275858   8.866   2.842   8.952  0.2434 -1.6404  2.4497
25094SOL     OW75859   4.030   4.848   2.170  0.2000  0.3908 -0.0605
25094SOL    HW175860   3.958   4.883   2.118  0.2607  1.5681  0.6076
25094SOL    HW275861   4.098   4.826   2.106 -0.7929 -0.8968 -0.7111
25095SOL     OW75862   6.496   1.901   9.589  0.0911  0.2086  0.5278
25095SOL    HW175863   6.580   1.941   9.610  0.2718 -0.0704  0.3466
25095SOL    HW275864   6.504   1.811   9.620  0.3131 -0.1722 -0.5990
25096SOL     OW75865   3.894   5.079   6.126 -0.3549 -0.0957 -0.1523
25096SOL    HW175866   3.857   5.116   6.205 -0.6276  0.9462 -0.7532
25096SOL    HW275867   3.985   5.110   6.125 -0.7547  1.1122 -0.9695
25097SOL     OW75868   8.891   3.839   4.778  0.2395  0.2380 -0.0532
25097SOL    HW175869   8.875   3.933   4.791  1.6891  0.5343 -0.3082
25097SOL    HW275870   8.911   3.806   4.866  0.6496  0.3591 -0.0990
25098SOL     OW75871   2.855   5.379   7.321  0.1652  0.8755 -0.1334
25098SOL    HW175872   2.922   5.315   7.344  0.4331  0.5053 -1.7683
25098SOL    HW275873   2.790   5.328   7.272  0.9293  1.9966 -2.4469
25099SOL     OW75874   9.651   8.659   6.026 -0.1775 -0.0962  0.0759
25099SOL    HW175875   9.722   8.665   5.963 -0.0363  0.5483  0.2797
25099SOL    HW275876   9.688   8.611   6.100  0.3409  0.9839  0.5465
25100SOL     OW75877   6.670   6.716   0.469  0.0895  0.1796  0.1189
25100SOL    HW175878   6.623   6.743   0.548 -0.5751  0.6271 -0.4097
25100SOL    HW275879   6.685   6.623   0.480 -1.2663 -0.0560  0.1563
25101SOL     OW75880   8.865   3.482   3.017  0.2224  0.2205  0.1178
25101SOL    HW175881   8.906   3.452   2.936  0.1571  0.9678 -0.2028
25101SOL    HW275882   8.874   3.577   3.014 -0.2237  0.2890  0.7545
25102SOL     OW75883   4.525   5.443   5.216  0.0822 -0.1626  0.2785
25102SOL    HW175884   4.555   5.522   5.171  1.5359 -1.5152 -1.2778
25102SOL    HW275885   4.525   5.376   5.148  0.7148 -1.9324  1.9425
25103SOL     OW75886   6.948   2.983   8.566  0.0413  0.5935 -0.6580
25103SOL    HW175887   6.861   2.960   8.598 -0.2339  2.0298 -0.2622
25103SOL    HW275888   6.989   3.028   8.641  1.0901  0.0117 -0.8656
25104SOL     OW75889   4.174   0.677   0.828 -0.3532  0.4548  0.1848
25104SOL    HW175890   4.087   0.706   0.799 -0.4419 -0.7055 -0.7736
25104SOL    HW275891   4.184   0.589   0.792  2.1417  1.3874 -1.7073
25105SOL     OW75892   5.938   3.434   8.307 -0.0838  0.2211 -0.3627
25105SOL    HW175893   6.029   3.451   8.284 -0.1470 -0.0193 -0.8193
25105SOL    HW275894   5.895   3.520   8.299  0.2405  0.4745  0.5616
25106SOL     OW75895   5.932   0.785   3.716 -0.1716 -0.4130 -0.9023
25106SOL    HW175896   5.953   0.712   3.774  0.3768  0.0673 -0.4706
25106SOL    HW275897   5.840   0.805   3.734 -0.2186 -0.7553 -0.7526
25107SOL     OW75898   1.773   8.052   3.920 -0.0924  0.0079  0.1827
25107SOL    HW175899   1.745   8.115   3.854  1.3434  0.6568  0.1569
25107SOL    HW275900   1.865   8.035   3.899  0.3673  0.1385  1.9180
25108SOL     OW75901   8.054   9.207   8.357 -0.3153 -0.0963  0.0622
25108SOL    HW175902   8.017   9.247   8.279  1.8819  0.1199 -0.9411
25108SOL    HW275903   8.023   9.116   8.355 -1.2763  0.2316 -0.3643
25109SOL     OW75904   9.747   1.078   5.535  0.0101  0.1746 -0.3119
25109SOL    HW175905   9.659   1.093   5.571 -0.3769 -0.8240 -0.8044
25109SOL    HW275906   9.795   1.035   5.605  0.4877  1.7206  0.3670
25110SOL     OW75907   7.700   7.188   4.885  0.2130 -0.8913  0.5691
25110SOL    HW175908   7.640   7.262   4.876  1.4480 -0.0396 -1.4725
25110SOL    HW275909   7.735   7.195   4.973 -0.4264  0.3765  0.7418
25111SOL     OW75910   8.023   1.699   9.961 -0.5649 -0.1735  0.5466
25111SOL    HW175911   7.998   1.663  10.046  1.4616 -1.2653  0.7452
25111SOL    HW275912   8.009   1.628   9.899  2.1245 -0.9845  0.7252
25112SOL     OW75913   8.367   9.476   9.922 -0.5537 -0.6005  0.0108
25112SOL    HW175914   8.458   9.448   9.907 -0.6962  0.4640 -3.8346
25112SOL    HW275915   8.375   9.561   9.964  0.5865  1.3974 -3.7771
25113SOL     OW75916   1.956   1.517   1.772 -0.7809 -0.2974 -0.4045
25113SOL    HW175917   1.990   1.563   1.695  2.4426  1.2199  1.7022
25113SOL    HW275918   1.974   1.425   1.755  1.2804  0.1492 -0.9215
25114SOL     OW75919   0.759   6.338   9.796  0.2322 -0.3594  0.0705
25114SOL    HW175920   0.744   6.277   9.723 -0.0615  1.9642 -1.9578
25114SOL    HW275921   0.852   6.330   9.816  0.4260 -0.6888 -0.9267
25115SOL     OW75922   9.603   1.014   6.140 -0.0104  0.0208  0.5487
25115SOL    HW175923   9.676   0.959   6.110  0.2774  0.8991 -0.4530
25115SOL    HW275924   9.646   1.095   6.170 -0.4294 -0.2433  1.9317
25116SOL     OW75925   9.150   8.542   2.461  0.0594 -0.1145 -0.4955
25116SOL    HW175926   9.088   8.604   2.421 -0.6559 -0.9798 -0.7553
25116SOL    HW275927   9.120   8.534   2.551 -0.1462 -0.4585 -0.5946
25117SOL     OW75928   4.961   5.450   5.174 -0.2167 -0.4183  0.6937
25117SOL    HW175929   5.046   5.446   5.217  0.7598  0.0192 -1.1236
25117SOL    HW275930   4.963   5.380   5.109 -1.0499 -0.0628  0.2673
25118SOL     OW75931   4.086   4.720   1.514  0.3669 -0.7792  0.4012
25118SOL    HW175932   4.145   4.793   1.533  0.4965 -0.6463 -0.4843
25118SOL    HW275933   4.110   4.652   1.577  0.7263 -0.3248  0.7597
25119SOL     OW75934   8.813   6.355   7.783  0.6464  0.2923  0.5352
25119SOL    HW175935   8.849   6.273   7.747 -0.1358  0.5445 -0.8967
25119SOL    HW275936   8.748   6.326   7.846 -0.9504 -0.2932 -1.2619
25120SOL     OW75937   6.514   7.676   7.118 -0.1934  0.4318  0.3543
25120SOL    HW175938   6.546   7.596   7.159  1.2318  0.2588 -1.0010
25120SOL    HW275939   6.495   7.735   7.191  0.2356 -0.5822  1.3088
25121SOL     OW75940   3.925   3.629   4.456 -0.5526  0.1105 -0.4769
25121SOL    HW175941   3.843   3.600   4.415 -0.3775 -0.4334 -0.4476
25121SOL    HW275942   3.992   3.573   4.417  0.4923  3.1497 -3.6316
25122SOL     OW75943   1.401   5.225   0.544  0.0994 -0.0025  0.2743
25122SOL    HW175944   1.421   5.159   0.609 -1.5446 -0.5374  0.2847
25122SOL    HW275945   1.330   5.187   0.492 -1.2920  1.9442  0.6423
25123SOL     OW75946   4.718   3.168   9.936 -0.6937 -0.3824  0.0776
25123SOL    HW175947   4.650   3.190   9.872 -1.0412 -0.6453  0.3596
25123SOL    HW275948   4.727   3.247   9.989  1.4115  0.8287 -1.8763
25124SOL     OW75949   6.763   9.778   2.980  0.2156  0.2945 -0.5651
25124SOL    HW175950   6.695   9.779   3.047  1.8983  2.6324  1.2755
25124SOL    HW275951   6.745   9.854   2.926  2.0852  1.8488  0.8582
25125SOL     OW75952   9.491   6.528   3.650  0.2336  0.2011  0.1301
25125SOL    HW175953   9.399   6.516   3.675  0.9628 -2.8704  1.8119
25125SOL    HW275954   9.519   6.441   3.621  3.1120  0.5496  1.5416
25126SOL     OW75955   5.533   1.197   5.663 -0.6700 -0.5103  0.2083
25126SOL    HW175956   5.584   1.273   5.692 -1.0663 -0.2840  0.3255
25126SOL    HW275957   5.560   1.183   5.572 -2.0477  1.0318 -0.4908
25127SOL     OW75958   2.524   5.264   6.257  0.2422  1.0414 -0.5529
25127SOL    HW175959   2.599   5.257   6.198  1.5533  0.9709  1.0380
25127SOL    HW275960   2.448   5.274   6.199  1.2700 -0.4954 -2.2542
25128SOL     OW75961   3.435   6.332   7.840  0.2916  0.2643  0.3501
25128SOL    HW175962   3.511   6.374   7.881  0.4977  1.0875 -0.8117
25128SOL    HW275963   3.419   6.254   7.893  1.9476  0.0688  0.6158
25129SOL     OW75964   8.088   2.147   5.308  0.3357 -0.7342  0.0101
25129SOL    HW175965   8.128   2.089   5.243  0.5046 -0.3156 -0.2568
25129SOL    HW275966   8.152   2.152   5.379  0.6410 -0.2778 -0.2975
25130SOL     OW75967   6.168   5.263   4.710 -0.0713 -0.0077 -0.7017
25130SOL    HW175968   6.083   5.233   4.745 -0.4547 -0.5310 -2.0278
25130SOL    HW275969   6.193   5.194   4.648  2.1061 -0.6516  0.8069
25131SOL     OW75970   7.818   7.497   3.645  0.2345 -0.3124  0.5076
25131SOL    HW175971   7.771   7.434   3.699 -1.4929  1.5783  1.3104
25131SOL    HW275972   7.774   7.494   3.560  2.0143 -2.2031 -0.4565
25132SOL     OW75973   5.862   5.886   3.740  0.3695  0.0368  0.2914
25132SOL    HW175974   5.955   5.889   3.717  0.2006  0.6568 -0.3645
25132SOL    HW275975   5.836   5.797   3.718  0.4599  0.3110 -1.0253
25133SOL     OW75976   6.612   4.502   8.424 -0.5076  0.2877  0.3424
25133SOL    HW175977   6.565   4.572   8.378 -1.8645  0.3951  1.8099
25133SOL    HW275978   6.601   4.425   8.369 -1.1225  0.6742 -0.0870
25134SOL     OW75979   6.828   9.246   8.214 -0.1243  0.7753  0.1718
25134SOL    HW175980   6.748   9.296   8.203 -1.0565 -0.5471  0.6953
25134SOL    HW275981   6.800   9.164   8.255  0.9198 -1.3172 -2.9385
25135SOL     OW75982   5.900   7.500   2.455  0.2585  0.8105  0.5638
25135SOL    HW175983   5.981   7.531   2.414  1.1573 -1.1992  0.7170
25135SOL    HW275984   5.929   7.452   2.532 -1.1723  1.0412  1.2646
25136SOL     OW75985   1.941   2.089   9.803  0.3470  0.3249  0.9251
25136SOL    HW175986   1.882   2.153   9.843 -0.4861  0.9638 -1.1743
25136SOL    HW275987   2.025   2.135   9.797 -0.0669  1.0050  0.0788
25137SOL     OW75988   7.555   3.534   8.602  0.3135 -0.7507 -0.9239
25137SOL    HW175989   7.608   3.613   8.605  0.7135 -1.0161 -1.0253
25137SOL    HW275990   7.468   3.565   8.576 -0.1838 -0.0092  1.3568
25138SOL     OW75991   7.714   5.118   6.383 -0.4967  0.3727 -0.3636
25138SOL    HW175992   7.770   5.169   6.325 -0.7833  0.5622 -0.4782
25138SOL    HW275993   7.649   5.181   6.415  0.6695  0.7063  1.5519
25139SOL     OW75994   7.897   8.057   4.725  0.4224 -0.3817  0.3990
25139SOL    HW175995   7.978   8.013   4.703 -0.4862 -0.8925 -2.3810
25139SOL    HW275996   7.895   8.134   4.667 -1.1654 -0.5408  0.1795
25140SOL     OW75997   4.225   6.610   1.732 -0.5257 -0.1897 -0.0947
25140SOL    HW175998   4.253   6.592   1.822 -1.4105 -1.0859  0.0154
25140SOL    HW275999   4.141   6.653   1.741 -1.0209 -1.0439 -0.5056
25141SOL     OW76000   7.347   9.744   5.157  0.1158  0.5268  0.2495
25141SOL    HW176001   7.407   9.745   5.082 -1.4581 -0.4607 -1.0891
25141SOL    HW276002   7.402   9.769   5.231  1.7142  1.6937 -1.2283
25142SOL     OW76003   5.607   3.377   5.762 -0.1772  0.1341  0.1736
25142SOL    HW176004   5.681   3.434   5.741 -0.1370 -0.1910 -0.6050
25142SOL    HW276005   5.647   3.296   5.792 -0.2076 -0.0265 -0.2065
25143SOL     OW76006   5.185   2.511   0.580  0.2141 -0.2522 -0.4577
25143SOL    HW176007   5.167   2.514   0.673 -1.5247  0.3303 -0.7825
25143SOL    HW276008   5.201   2.419   0.561  1.5873 -0.2564  0.5623
25144SOL     OW76009   8.311   1.327   3.302  0.8393  0.7959  0.0856
25144SOL    HW176010   8.273   1.259   3.246  0.7039  0.5095  0.5252
25144SOL    HW276011   8.331   1.398   3.241  0.0494  0.7632 -0.2325
25145SOL     OW76012   6.379   4.034   1.997  0.7143  0.4121 -0.0020
25145SOL    HW176013   6.344   4.095   2.062 -0.8663 -0.9695  0.5244
25145SOL    HW276014   6.394   3.953   2.045  1.3721 -0.0652 -0.9751
25146SOL     OW76015   2.899   4.259   5.780  0.4159 -0.0910 -0.2219
25146SOL    HW176016   2.885   4.166   5.763 -0.6701  0.0655 -0.2539
25146SOL    HW276017   2.952   4.261   5.860 -0.5709 -0.7370  0.4852
25147SOL     OW76018   8.408   1.924   8.845 -0.2651 -0.5983  0.8401
25147SOL    HW176019   8.326   1.920   8.895 -0.3322  1.6447  1.0171
25147SOL    HW276020   8.429   2.018   8.841  1.5910 -1.0132 -0.3627
25148SOL     OW76021   5.276   0.880   3.149 -0.0439 -0.6303 -0.3442
25148SOL    HW176022   5.208   0.888   3.082 -0.9213 -0.5367  0.5317
25148SOL    HW276023   5.280   0.966   3.190  0.3230 -0.7483 -0.1286
25149SOL     OW76024   6.724   2.687   9.970  0.1556  0.3418  0.6779
25149SOL    HW176025   6.812   2.703  10.004 -0.1384  3.7882  0.1166
25149SOL    HW276026   6.738   2.653   9.881  0.8960  0.0690  0.8943
25150SOL     OW76027   7.740   2.942   2.576  0.2174 -0.0131 -0.0794
25150SOL    HW176028   7.730   2.863   2.522  1.6374  0.9114 -1.8101
25150SOL    HW276029   7.748   3.013   2.512 -1.7724  1.6832  1.4209
25151SOL     OW76030   5.261   7.313   9.833  0.0498  0.0021  0.1714
25151SOL    HW176031   5.312   7.379   9.786  0.8820  0.0554  1.1395
25151SOL    HW276032   5.192   7.289   9.771  1.6765 -0.6517 -1.4965
25152SOL     OW76033   9.955   2.975   1.875  0.4609 -0.5614 -0.1618
25152SOL    HW176034   9.888   2.995   1.809 -0.0895 -2.2046 -0.1510
25152SOL    HW276035  10.035   2.963   1.826  0.9056  1.8023 -0.1436
25153SOL     OW76036   3.718   0.698   6.907  0.3387 -0.0262  0.0330
25153SOL    HW176037   3.725   0.790   6.881 -0.3394 -0.3149 -1.3003
25153SOL    HW276038   3.649   0.697   6.973 -0.6432  0.2624 -0.9607
25154SOL     OW76039   9.718   9.395   3.481 -0.3279 -0.3045 -0.5633
25154SOL    HW176040   9.667   9.319   3.457  0.7690 -1.5167  0.7664
25154SOL    HW276041   9.658   9.469   3.469 -1.0334 -1.1752 -3.0760
25155SOL     OW76042   7.305   4.250   6.436 -0.0401  0.6812 -0.1491
25155SOL    HW176043   7.287   4.306   6.511  0.3036  0.4901  0.0768
25155SOL    HW276044   7.372   4.190   6.466 -0.2710  0.2652 -0.4501
25156SOL     OW76045   0.775   1.652   3.044 -0.0986  0.5076 -0.0518
25156SOL    HW176046   0.771   1.747   3.042 -0.3918  0.4942 -0.2360
25156SOL    HW276047   0.865   1.631   3.070 -0.0938  0.8341  0.1978
25157SOL     OW76048   1.675   4.461   4.200 -0.5369  0.1542 -0.2349
25157SOL    HW176049   1.668   4.367   4.216  0.6290  0.0449 -0.2961
25157SOL    HW276050   1.646   4.472   4.109  0.1382 -0.2679 -0.5095
25158SOL     OW76051   0.809   1.321   1.727 -0.6700 -0.3128  0.1305
25158SOL    HW176052   0.841   1.409   1.709 -1.5638  0.2163  0.9839
25158SOL    HW276053   0.862   1.291   1.801 -1.1505 -0.0113  0.6050
25159SOL     OW76054   2.265   9.135   4.062  0.4813 -0.3771 -0.1092
25159SOL    HW176055   2.175   9.126   4.094 -0.1991  1.2475 -1.4603
25159SOL    HW276056   2.273   9.227   4.038  3.0894 -0.0593  1.5994
25160SOL     OW76057   9.369   9.178   6.489  0.0367  0.0391  0.2286
25160SOL    HW176058   9.276   9.162   6.505  0.0819 -1.0523 -0.4646
25160SOL    HW276059   9.381   9.272   6.505 -1.2255  0.2336  0.1231
25161SOL     OW76060   5.520   3.157   2.757 -0.4413 -0.1193 -0.3292
25161SOL    HW176061   5.475   3.232   2.797 -0.8079 -1.1988  1.3908
25161SOL    HW276062   5.540   3.185   2.668 -0.7498  1.9414  0.2114
25162SOL     OW76063   9.602   7.285   4.352 -0.1790  0.0973  0.4044
25162SOL    HW176064   9.574   7.222   4.419 -0.9174 -0.8227 -0.7262
25162SOL    HW276065   9.663   7.236   4.297 -0.0204  0.6727  0.0653
25163SOL     OW76066   7.126   4.191   9.307  0.6684 -0.0352  0.3722
25163SOL    HW176067   7.155   4.100   9.295  0.6110  0.2535 -2.8981
25163SOL    HW276068   7.170   4.240   9.237 -1.4949  1.8914  0.2276
25164SOL     OW76069   4.524   5.692   7.680 -0.6122  0.3331  0.2826
25164SOL    HW176070   4.602   5.731   7.721 -0.4715  0.2439  0.0981
25164SOL    HW276071   4.465   5.766   7.668 -0.0071  0.6524 -0.8581
25165SOL     OW76072   6.228   2.939   8.260 -0.2428 -0.0281 -0.0229
25165SOL    HW176073   6.310   2.965   8.301 -1.0366  0.0436  1.5859
25165SOL    HW276074   6.251   2.923   8.168  1.5943 -0.2051  0.4299
25166SOL     OW76075   6.676   6.664   6.395 -0.0516 -0.3647 -0.5381
25166SOL    HW176076   6.598   6.617   6.363 -0.4494  0.3488 -0.6217
25166SOL    HW276077   6.749   6.625   6.347 -0.2342 -1.6800  0.1964
25167SOL     OW76078   7.982   3.356   2.962  0.0374  0.0205  0.2973
25167SOL    HW176079   8.028   3.272   2.957 -0.6069 -0.3196 -0.1621
25167SOL    HW276080   7.927   3.357   2.883  0.2175  0.9842  0.1822
25168SOL     OW76081   4.393   8.130   2.976  0.0631 -0.0068  0.2006
25168SOL    HW176082   4.437   8.187   2.913 -0.4113  2.2622  1.7937
25168SOL    HW276083   4.308   8.112   2.936 -0.1149  1.1519  0.0018
25169SOL     OW76084   0.495   0.070   2.062  0.2328  0.3345  0.1831
25169SOL    HW176085   0.431   0.053   2.131 -0.5702 -1.5988 -0.9649
25169SOL    HW276086   0.443   0.071   1.981  1.8077 -3.6883 -1.0691
25170SOL     OW76087   5.100   1.501   0.835 -0.5620 -0.2843  0.0228
25170SOL    HW176088   5.042   1.493   0.911  1.0579 -0.6675  1.2804
25170SOL    HW276089   5.171   1.558   0.865  1.0437 -1.8868 -0.5840
25171SOL     OW76090   5.678   8.761   6.108  0.1326 -0.7110 -0.6379
25171SOL    HW176091   5.651   8.711   6.184 -0.7114  0.0206 -0.4404
25171SOL    HW276092   5.689   8.696   6.039 -2.0040 -1.0922 -0.6866
25172SOL     OW76093   8.328   2.541   8.472  0.0506  0.0206  0.0230
25172SOL    HW176094   8.330   2.626   8.429  1.6645 -0.4223 -0.8506
25172SOL    HW276095   8.341   2.560   8.564  0.2517  0.7360 -0.1483
25173SOL     OW76096   2.871   6.655   2.279  0.0332  0.1873 -0.0419
25173SOL    HW176097   2.844   6.613   2.198  1.5376 -0.4226 -0.2642
25173SOL    HW276098   2.863   6.749   2.261 -2.4993  0.0540  0.1543
25174SOL     OW76099   1.220   4.972   4.600 -0.2474 -0.0824 -0.5460
25174SOL    HW176100   1.276   4.895   4.611 -0.3601 -0.3087 -1.4529
25174SOL    HW276101   1.160   4.969   4.675  0.4559 -0.2558  0.0199
25175SOL     OW76102   7.849   3.901   7.000  0.1996  0.0051  0.1441
25175SOL    HW176103   7.791   3.892   7.075  0.9284 -0.3022  0.6766
25175SOL    HW276104   7.875   3.993   7.001 -1.6967  0.6163 -1.1761
25176SOL     OW76105   3.428   2.689   0.989 -0.0053 -0.1007 -0.1784
25176SOL    HW176106   3.430   2.635   0.911  3.1262 -1.6272  0.7967
25176SOL    HW276107   3.448   2.777   0.958 -1.6344 -0.0939 -1.3475
25177SOL     OW76108   0.196   9.327   6.993 -0.5626  0.0560  0.6434
25177SOL    HW176109   0.184   9.422   6.993 -0.2531  0.0989  1.7808
25177SOL    HW276110   0.198   9.302   7.085 -0.6667 -1.0675  0.3607
25178SOL     OW76111   5.770   2.267   0.707 -0.0255 -0.1886  0.2909
25178SOL    HW176112   5.854   2.241   0.744 -0.4037 -3.1217 -0.6689
25178SOL    HW276113   5.774   2.240   0.615 -1.6556  0.4880 -0.0213
25179SOL     OW76114   5.172   0.569   7.602 -0.0278  0.4053  0.0529
25179SOL    HW176115   5.161   0.520   7.683 -1.3865 -2.9526 -1.9530
25179SOL    HW276116   5.255   0.538   7.566 -0.5787 -0.0097 -0.9250
25180SOL     OW76117   2.697   4.983   0.101  0.0846 -0.1767  0.2088
25180SOL    HW176118   2.622   5.040   0.119 -0.2840 -0.8931  1.0025
25180SOL    HW276119   2.666   4.923   0.033 -0.9698 -2.1203  2.2803
25181SOL     OW76120   1.060   6.060   9.737 -0.4059  0.8441  0.3611
25181SOL    HW176121   0.975   6.065   9.780 -0.6237 -0.6433  0.1759
25181SOL    HW276122   1.058   5.977   9.689  0.9552  1.0233 -0.0688
25182SOL     OW76123   8.857   9.726   3.890 -0.2397 -0.0727 -0.5638
25182SOL    HW176124   8.932   9.769   3.849  1.3365 -0.7852  1.3924
25182SOL    HW276125   8.781   9.756   3.840  1.1013  2.4082 -1.2530
25183SOL     OW76126   1.229   5.250   1.967  0.1278  0.8154 -0.1605
25183SOL    HW176127   1.177   5.307   2.024  0.6844  0.9074  0.2611
25183SOL    HW276128   1.168   5.224   1.898 -1.4815 -1.7170  2.0509
25184SOL     OW76129   0.166   0.747   5.415 -0.1070 -0.7357  0.6302
25184SOL    HW176130   0.250   0.778   5.448  0.2791 -1.4800  0.3653
25184SOL    HW276131   0.101   0.793   5.469  0.4993 -1.5148  2.0625
25185SOL     OW76132   5.763   6.471   2.362  0.1251 -0.2084 -0.2431
25185SOL    HW176133   5.857   6.457   2.374 -0.1327 -0.6316  1.5325
25185SOL    HW276134   5.757   6.556   2.319  1.3360 -0.4620 -0.9612
25186SOL     OW76135   7.346   8.802   6.497 -0.5695 -0.3207 -0.2462
25186SOL    HW176136   7.282   8.834   6.561  0.7451 -0.5224  1.2135
25186SOL    HW276137   7.406   8.749   6.548  0.4492 -0.6037 -1.6961
25187SOL     OW76138   5.065   6.905   4.674 -0.3675  0.3184 -0.6567
25187SOL    HW176139   5.116   6.903   4.755  0.3339  1.8854 -1.0236
25187SOL    HW276140   5.023   6.991   4.674 -2.4669 -0.6406 -0.7312
25188SOL     OW76141   1.070   2.105   1.177  0.3738 -0.3745  0.7583
25188SOL    HW176142   1.134   2.034   1.171 -1.0631 -1.7609  0.9289
25188SOL    HW276143   0.987   2.064   1.150 -0.6054  1.1091  1.3900
25189SOL     OW76144   9.645   6.134   5.156 -0.4939  0.2323  0.4515
25189SOL    HW176145   9.668   6.227   5.162 -0.4532  0.1560  1.9340
25189SOL    HW276146   9.719   6.094   5.110 -0.6390  0.9675 -0.4448
25190SOL     OW76147   4.714   4.330   2.588 -0.2207 -0.0710 -0.1872
25190SOL    HW176148   4.634   4.281   2.607 -0.8337  1.1115  0.3359
25190SOL    HW276149   4.692   4.421   2.605  1.2427  0.2847 -0.0337
25191SOL     OW76150   7.870   8.393   4.939 -0.2233 -0.2746  1.0143
25191SOL    HW176151   7.826   8.319   4.982 -0.3614 -0.3595  0.7286
25191SOL    HW276152   7.847   8.384   4.847  1.0313 -0.7939  0.7260
25192SOL     OW76153   0.055   5.214   5.662 -0.6648 -0.3125  0.2040
25192SOL    HW176154   0.145   5.202   5.690 -0.7379 -2.7176 -0.3962
25192SOL    HW276155   0.056   5.296   5.612  0.8181  0.5303  1.5379
25193SOL     OW76156   3.029   3.947   2.656 -0.1850 -0.7784 -0.1433
25193SOL    HW176157   2.987   3.862   2.673  0.1865 -1.4521 -2.3119
25193SOL    HW276158   3.047   3.946   2.562  0.4577  1.4417 -0.0847
25194SOL     OW76159   9.711   5.398   3.171  0.6669 -0.3718 -0.3821
25194SOL    HW176160   9.755   5.367   3.251  2.5560 -1.7096 -1.8508
25194SOL    HW276161   9.630   5.346   3.167  0.6497 -0.4318  0.5424
25195SOL     OW76162   9.452   6.895   7.436 -0.1979 -0.0261 -0.5099
25195SOL    HW176163   9.409   6.825   7.387 -2.5455  1.0738 -0.1736
25195SOL    HW276164   9.381   6.935   7.487  1.6157  0.7080  1.5820
25196SOL     OW76165   8.647   8.346   3.032 -0.3538 -0.2355 -0.5369
25196SOL    HW176166   8.581   8.339   3.101  1.8370 -1.8798  1.5819
25196SOL    HW276167   8.667   8.439   3.027  1.0397 -0.2219  2.8487
25197SOL     OW76168   8.856   1.000   0.413  0.2406  0.3634 -0.0865
25197SOL    HW176169   8.876   0.908   0.426  1.1945  0.5403 -0.1776
25197SOL    HW276170   8.779   1.001   0.356 -0.4260 -0.3712  0.7851
25198SOL     OW76171   0.313   3.656   0.866  0.3166 -0.1680  0.2246
25198SOL    HW176172   0.355   3.672   0.781 -0.1250 -0.2345 -0.0081
25198SOL    HW276173   0.326   3.562   0.881  0.1091 -0.2208  0.0752
25199SOL     OW76174   5.682   1.617   4.134  0.8094  0.6009 -0.2718
25199SOL    HW176175   5.746   1.549   4.153 -0.6201 -0.6568  0.1985
25199SOL    HW276176   5.610   1.601   4.195 -1.0552  0.4224 -2.3620
25200SOL     OW76177   9.496   1.331   1.221  0.2428 -0.1786  0.4342
25200SOL    HW176178   9.409   1.372   1.216 -0.5709 -1.9509 -0.7541
25200SOL    HW276179   9.495   1.284   1.304  0.0956 -0.1383  0.4569
25201SOL     OW76180   6.195   0.577   9.446  0.1979  0.7344 -0.8155
25201SOL    HW176181   6.200   0.563   9.541 -0.6972 -1.4682 -1.0225
25201SOL    HW276182   6.139   0.654   9.436 -0.8088  0.2016  0.4420
25202SOL     OW76183   6.318   2.997   5.684 -0.9549  0.0339 -0.2334
25202SOL    HW176184   6.322   2.931   5.614 -0.6359 -0.1506 -0.0480
25202SOL    HW276185   6.393   2.976   5.740 -0.6136  0.8102 -0.3939
25203SOL     OW76186   0.669   8.448   7.117 -0.4162  0.5437  0.4150
25203SOL    HW176187   0.575   8.461   7.108 -0.6695 -0.7380  0.9800
25203SOL    HW276188   0.681   8.353   7.109  1.0546  0.8267 -1.5171
25204SOL     OW76189   1.182   6.540   5.399 -0.4488  0.5084 -0.1182
25204SOL    HW176190   1.173   6.522   5.305 -3.0316 -0.9188  0.3022
25204SOL    HW276191   1.174   6.635   5.406 -2.7413  0.4614 -1.1999
25205SOL     OW76192   3.425   6.427   4.034  0.0098  0.3312 -0.5079
25205SOL    HW176193   3.346   6.419   3.980 -0.5728 -1.8511  0.5713
25205SOL    HW276194   3.461   6.338   4.036  1.9715  1.1004 -0.1706
25206SOL     OW76195   0.008   4.210   1.802  0.0538 -0.3394  0.3106
25206SOL    HW176196   0.036   4.216   1.893 -0.5202  0.7117  0.4308
25206SOL    HW276197  -0.038   4.126   1.796  0.0685 -0.3999  0.9909
25207SOL     OW76198   6.612   6.252   3.280 -0.9874  0.2885 -0.4161
25207SOL    HW176199   6.700   6.216   3.292 -1.1693  0.0353  0.1930
25207SOL    HW276200   6.616   6.339   3.319 -1.4743 -0.3918  1.2608
25208SOL     OW76201   7.541   1.900   4.648  0.1102 -0.3058  0.2521
25208SOL    HW176202   7.584   1.966   4.594 -1.3773  1.8495  1.6011
25208SOL    HW276203   7.565   1.922   4.737  0.1721 -2.0819  0.7262
25209SOL     OW76204   6.145   8.854   2.757  0.5799 -0.6406 -0.7391
25209SOL    HW176205   6.103   8.935   2.729  0.0637 -0.8889 -0.7070
25209SOL    HW276206   6.079   8.811   2.813  1.3353 -0.4699  0.2982
25210SOL     OW76207   0.048   3.747   5.878  0.0515  0.6832 -0.2842
25210SOL    HW176208  -0.011   3.806   5.830 -0.3760  1.3122  0.9763
25210SOL    HW276209   0.039   3.773   5.969 -0.1873 -1.4124  0.3187
25211SOL     OW76210   5.381   2.843   4.756 -0.1914  0.2548 -0.8854
25211SOL    HW176211   5.331   2.762   4.764  1.2389 -0.6774 -1.1937
25211SOL    HW276212   5.329   2.907   4.806 -0.6334 -1.1583  0.5671
25212SOL     OW76213   1.200   5.078   4.249  0.1461 -0.1379 -0.1225
25212SOL    HW176214   1.204   5.114   4.338  2.3322  1.6268 -0.8290
25212SOL    HW276215   1.169   5.150   4.195  1.0628 -0.4359 -1.0842
25213SOL     OW76216   3.167   9.697   2.411  0.1602  0.3917 -0.8987
25213SOL    HW176217   3.092   9.665   2.361 -0.0269  0.6936 -0.8185
25213SOL    HW276218   3.223   9.739   2.346  1.6037 -2.1380 -1.4264
25214SOL     OW76219   0.848   1.979   6.726 -0.0921  0.2520 -0.4635
25214SOL    HW176220   0.762   2.014   6.704 -0.6390 -0.4408  0.4919
25214SOL    HW276221   0.871   1.923   6.652 -0.3285  0.6627 -0.8526
25215SOL     OW76222   1.615   2.932   3.687  0.2429 -0.1017  0.3604
25215SOL    HW176223   1.684   2.885   3.641 -1.3789  0.2426 -2.7162
25215SOL    HW276224   1.634   3.025   3.670 -0.0079  0.0743  1.0130
25216SOL     OW76225   5.513   6.026   9.730  0.0055 -0.1206  0.2987
25216SOL    HW176226   5.606   6.047   9.731  0.7165 -2.7389 -1.3990
25216SOL    HW276227   5.496   5.989   9.817  0.4309  0.7128  0.7467
25217SOL     OW76228   3.328   8.705   7.735  0.0063  0.3864 -0.3954
25217SOL    HW176229   3.294   8.783   7.690 -0.9769  1.1322  1.5238
25217SOL    HW276230   3.258   8.641   7.729  0.9608 -0.5626 -2.3081
25218SOL     OW76231   2.999   0.631   0.286 -0.2083  0.1926  0.4113
25218SOL    HW176232   2.971   0.673   0.205  1.2566  0.2643 -0.0982
25218SOL    HW276233   2.996   0.537   0.268 -0.2449  0.1981  0.3904
25219SOL     OW76234   3.186   7.759   8.085  0.4008 -0.6170 -0.2161
25219SOL    HW176235   3.093   7.773   8.065  0.3100 -0.4858  0.2622
25219SOL    HW276236   3.223   7.847   8.089  0.9321 -0.7293 -2.0901
25220SOL     OW76237   8.497   0.829   4.706 -0.3009  0.0272 -0.2283
25220SOL    HW176238   8.427   0.829   4.772 -0.2172  3.7870  0.0888
25220SOL    HW276239   8.573   0.794   4.752 -1.0538 -0.6005  0.5832
25221SOL     OW76240   4.772   9.167   8.262  0.0203  0.0536  0.1324
25221SOL    HW176241   4.775   9.259   8.289 -1.1042  0.2146 -0.1932
25221SOL    HW276242   4.719   9.124   8.329 -1.7570  0.2153 -1.0876
25222SOL     OW76243   0.347   8.637   3.251 -0.2814 -0.6226  0.5412
25222SOL    HW176244   0.373   8.651   3.160 -2.0321  0.5329  0.1749
25222SOL    HW276245   0.346   8.542   3.261 -2.8499 -0.9181 -1.5532
25223SOL     OW76246   4.324   6.651   6.541  0.3162 -0.4417 -0.4762
25223SOL    HW176247   4.384   6.583   6.512  0.2327 -0.6411 -0.1849
25223SOL    HW276248   4.324   6.715   6.470 -0.8079 -1.4902 -1.4817
25224SOL     OW76249   1.257   9.710   2.489 -0.1115 -0.7474  0.6313
25224SOL    HW176250   1.259   9.658   2.409  0.8836 -1.7344  1.2633
25224SOL    HW276251   1.294   9.795   2.463  0.0506 -0.9999  0.0067
25225SOL     OW76252   2.816   3.586   7.934 -0.6318 -0.1719 -0.2558
25225SOL    HW176253   2.800   3.579   7.840 -2.0758  1.3123 -0.1697
25225SOL    HW276254   2.818   3.681   7.951  2.0332 -0.3495  0.8586
25226SOL     OW76255   5.164   6.006   2.853  0.5868 -0.0708  0.3128
25226SOL    HW176256   5.081   6.048   2.879 -0.4792 -2.3647  0.8608
25226SOL    HW276257   5.138   5.940   2.788  2.0477 -0.5778  0.2170
25227SOL     OW76258   3.602   3.263   2.656 -0.6259  0.1012 -0.4299
25227SOL    HW176259   3.565   3.272   2.744 -0.5100  2.1508 -0.5515
25227SOL    HW276260   3.532   3.291   2.598 -0.6429 -1.0842 -1.0227
25228SOL     OW76261   6.780   0.813   3.518 -0.4027  0.2088  0.3092
25228SOL    HW176262   6.857   0.756   3.515  0.8600  1.8655 -1.9787
25228SOL    HW276263   6.712   0.763   3.474  0.4531  0.0849 -0.9305
25229SOL     OW76264   0.853   2.244   0.742 -0.7082  0.0795  0.0762
25229SOL    HW176265   0.860   2.192   0.663 -0.3517  0.4956 -0.1684
25229SOL    HW276266   0.905   2.322   0.725 -1.8187  0.8696  0.1494
25230SOL     OW76267   5.361   8.465   1.124  0.0018  0.1637 -0.5300
25230SOL    HW176268   5.343   8.443   1.032 -3.8058  1.0347 -0.1759
25230SOL    HW276269   5.358   8.560   1.127 -1.6337  0.1183  0.7039
25231SOL     OW76270   5.169   7.451   8.682  0.1465 -0.3907  0.9207
25231SOL    HW176271   5.220   7.474   8.604  1.9666 -0.4858  2.0315
25231SOL    HW276272   5.078   7.469   8.657  0.6936 -0.1835 -1.1274
25232SOL     OW76273   8.591   4.796   5.349  0.4398 -0.0565  0.0795
25232SOL    HW176274   8.582   4.891   5.346  2.3712  0.1915  0.9100
25232SOL    HW276275   8.683   4.781   5.369  0.5826 -2.1392 -1.7541
25233SOL     OW76276   0.486   1.173   8.853  0.7873 -0.2902 -0.5252
25233SOL    HW176277   0.558   1.231   8.825  2.2295  1.0075  4.6974
25233SOL    HW276278   0.527   1.087   8.862  0.2895 -0.7394 -2.1458
25234SOL     OW76279   0.858   6.491   7.144 -0.0683 -0.2406  0.4221
25234SOL    HW176280   0.801   6.525   7.213 -0.0027 -0.0613  0.3904
25234SOL    HW276281   0.863   6.397   7.160 -0.2063 -0.2266  0.5483
25235SOL     OW76282   3.333   2.086   5.615  0.2335  0.3773  0.0767
25235SOL    HW176283   3.294   2.095   5.702 -0.5073  2.5130 -0.4162
25235SOL    HW276284   3.411   2.141   5.618  0.4461  0.1117 -0.4935
25236SOL     OW76285   9.591   2.109   7.231 -0.2368  0.2947  0.3855
25236SOL    HW176286   9.634   2.166   7.295  0.6483  1.3817 -1.1174
25236SOL    HW276287   9.661   2.051   7.200 -0.7099 -0.3749  0.5565
25237SOL     OW76288   0.652   8.332   1.080  0.4919 -0.1438  0.0910
25237SOL    HW176289   0.576   8.277   1.061  1.0477 -0.5242 -1.1834
25237SOL    HW276290   0.617   8.408   1.126 -0.8467  0.2692 -1.5281
25238SOL     OW76291   4.479   6.121   4.123 -1.0324 -0.0116 -0.3544
25238SOL    HW176292   4.515   6.034   4.139 -1.1157 -0.0883 -0.5834
25238SOL    HW276293   4.555   6.175   4.102 -0.9059  0.1179  0.3982
25239SOL     OW76294   8.772   7.676   0.072  0.0574  0.1908 -0.1689
25239SOL    HW176295   8.726   7.629   0.141  1.7335 -0.7361  0.3896
25239SOL    HW276296   8.756   7.625  -0.007 -2.1571  1.4489 -0.5936
25240SOL     OW76297   0.788   9.648   7.355  0.1768 -0.6343  0.8529
25240SOL    HW176298   0.845   9.600   7.416  2.5442 -1.0516 -1.5065
25240SOL    HW276299   0.772   9.586   7.284 -1.1765  0.3550  0.2520
25241SOL     OW76300   9.892   8.235   2.534 -0.8734  0.3654  0.1587
25241SOL    HW176301   9.928   8.314   2.494 -0.1415  0.1770  0.4305
25241SOL    HW276302   9.797   8.248   2.530 -0.7645  1.2779  0.2585
25242SOL     OW76303   7.284   4.697   2.767  0.6098  0.1722 -0.2092
25242SOL    HW176304   7.283   4.680   2.861  3.9382 -0.4783 -0.1661
25242SOL    HW276305   7.276   4.611   2.726 -0.0051  0.3702 -0.5248
25243SOL     OW76306   0.487   4.254   9.204  0.0027 -0.1339  0.0749
25243SOL    HW176307   0.522   4.220   9.286 -0.6285 -1.0155 -0.0054
25243SOL    HW276308   0.563   4.283   9.155  0.3948  0.3523  0.9383
25244SOL     OW76309   6.948   0.370   8.326  0.5662  0.0507 -0.0272
25244SOL    HW176310   6.882   0.328   8.271  1.2752 -1.7243  0.4101
25244SOL    HW276311   7.031   0.353   8.280  1.2681 -2.1208  1.8542
25245SOL     OW76312   3.346   8.482   5.083  0.0746  0.1577  0.1238
25245SOL    HW176313   3.277   8.452   5.142 -0.3082  0.1691 -0.3119
25245SOL    HW276314   3.428   8.461   5.128 -0.1902 -0.9852  0.1032
25246SOL     OW76315   4.289   3.440   2.954  0.0397 -0.1302 -0.5881
25246SOL    HW176316   4.274   3.499   2.880  1.8953 -0.1246 -1.0263
25246SOL    HW276317   4.353   3.486   3.008  1.9015 -1.8705 -1.1831
25247SOL     OW76318   1.002   7.959   7.267  0.2738 -0.5961 -0.5259
25247SOL    HW176319   0.987   7.886   7.327 -0.4826 -0.0437 -0.0294
25247SOL    HW276320   0.935   8.023   7.290  1.8393  0.8967  0.0643
25248SOL     OW76321   8.501   6.733   0.340  0.2662 -0.2580 -0.2130
25248SOL    HW176322   8.487   6.820   0.377  2.3285 -0.8057  2.1483
25248SOL    HW276323   8.417   6.709   0.301 -0.8538  2.0831  0.6100
25249SOL     OW76324   2.659   9.617   2.155 -0.3881 -0.1096  0.1023
25249SOL    HW176325   2.569   9.586   2.143 -0.4138  0.4209 -1.2148
25249SOL    HW276326   2.660   9.653   2.244 -1.8934  1.2124 -0.3690
25250SOL     OW76327   9.219   5.856   1.007  0.3156 -0.0088 -0.6021
25250SOL    HW176328   9.186   5.773   1.040  1.3647 -0.0809  0.3533
25250SOL    HW276329   9.312   5.840   0.991  0.1444  0.4692 -2.1988
25251SOL     OW76330   3.012   9.470   3.341 -0.8505 -0.2367  0.0737
25251SOL    HW176331   3.013   9.490   3.248  0.3480  1.7880  0.4506
25251SOL    HW276332   2.945   9.402   3.351 -0.1458 -1.3860 -2.3941
25252SOL     OW76333   0.999   9.373   9.795 -0.5002 -0.1350 -0.6170
25252SOL    HW176334   1.011   9.336   9.707 -1.4924  0.9956 -1.2628
25252SOL    HW276335   1.048   9.455   9.793  1.5809 -1.2481  0.7565
25253SOL     OW76336   5.554   4.261   0.157  0.5294  0.1245  0.1145
25253SOL    HW176337   5.564   4.228   0.247 -0.0529 -1.3882 -0.3377
25253SOL    HW276338   5.634   4.233   0.113  0.3465 -0.0585 -0.1006
25254SOL     OW76339   5.975   3.233   7.948  0.0113 -0.0653  0.0693
25254SOL    HW176340   5.963   3.288   8.026  0.8011  1.0661 -0.5736
25254SOL    HW276341   6.052   3.179   7.968 -0.0147 -0.0463  0.2199
25255SOL     OW76342   4.876   6.882   9.606  0.0020 -0.1106  0.3831
25255SOL    HW176343   4.833   6.856   9.525 -0.1306 -1.6806  0.9130
25255SOL    HW276344   4.963   6.911   9.578 -0.8683  1.7686 -0.5470
25256SOL     OW76345   1.296   0.473   2.539 -0.3797 -0.3067  0.1352
25256SOL    HW176346   1.287   0.559   2.498 -0.2344 -0.2299  0.2612
25256SOL    HW276347   1.281   0.490   2.632  0.9403 -0.1844  0.3424
25257SOL     OW76348   1.921   6.727   5.658  0.1032 -0.8102  0.4882
25257SOL    HW176349   1.969   6.737   5.576 -0.2119 -0.9029  0.2907
25257SOL    HW276350   1.984   6.687   5.718  1.0612  1.3129  0.9873
25258SOL     OW76351   8.013   3.597   3.721 -0.1967 -0.7740  0.0100
25258SOL    HW176352   8.009   3.691   3.704 -0.3041 -0.8663 -0.4862
25258SOL    HW276353   7.927   3.564   3.694 -0.2290 -0.9865  0.3657
25259SOL     OW76354   4.332   9.851   8.639  0.2390  0.1487 -0.0747
25259SOL    HW176355   4.309   9.761   8.662 -0.3654  0.9850  3.1251
25259SOL    HW276356   4.424   9.860   8.665  0.7758  0.0848 -1.8278
25260SOL     OW76357   1.082   0.136   5.434 -0.6226  0.1848 -0.1210
25260SOL    HW176358   1.132   0.085   5.499  0.2166  1.4237  0.2380
25260SOL    HW276359   0.991   0.123   5.459 -0.3006  0.9797  1.6186
25261SOL     OW76360   7.149   0.794   6.499  0.3895 -0.2842 -0.0463
25261SOL    HW176361   7.233   0.754   6.520 -0.1527 -1.2418  0.3735
25261SOL    HW276362   7.128   0.761   6.412 -1.1252 -2.8951  1.1649
25262SOL     OW76363   2.844   5.612   2.131 -0.4043 -0.0070  0.0620
25262SOL    HW176364   2.802   5.534   2.094 -2.5106  1.2699 -0.3982
25262SOL    HW276365   2.811   5.617   2.221 -0.1133  0.2426  0.1568
25263SOL     OW76366   8.649   6.885   0.057  0.9130  0.2392  0.2917
25263SOL    HW176367   8.731   6.851   0.092  0.4065 -0.9955  0.3148
25263SOL    HW276368   8.667   6.978   0.040  1.3064  0.8509  3.4801
25264SOL     OW76369   8.589   4.899   4.068  0.2680  0.3799  0.0887
25264SOL    HW176370   8.566   4.982   4.026  0.4867  0.2323 -0.3334
25264SOL    HW276371   8.507   4.850   4.071  0.4001  0.0766 -0.9015
25265SOL     OW76372   0.208   0.902   0.899 -0.3799  0.3253  0.2438
25265SOL    HW176373   0.254   0.982   0.873 -1.2747  0.6834 -0.2819
25265SOL    HW276374   0.198   0.910   0.994 -0.0355  0.6056  0.2569
25266SOL     OW76375   6.942   0.321   6.154 -0.1546 -0.9145  0.3166
25266SOL    HW176376   6.857   0.365   6.160  0.6369  1.0858 -1.4804
25266SOL    HW276377   6.934   0.264   6.077 -0.1469 -1.4367  0.6988
25267SOL     OW76378   1.330   2.725   2.342  0.0681  0.0206  0.0682
25267SOL    HW176379   1.339   2.803   2.286  0.8100  0.1213  0.3115
25267SOL    HW276380   1.317   2.653   2.281  0.2482  0.2169 -0.2056
25268SOL     OW76381   1.805   9.163   3.755  0.6331  0.0354  0.0868
25268SOL    HW176382   1.837   9.243   3.797 -1.1809 -0.4983  2.7276
25268SOL    HW276383   1.853   9.093   3.800 -0.4052 -0.4982  0.3786
25269SOL     OW76384   1.856   3.762   2.279  0.6141  0.0136 -0.1310
25269SOL    HW176385   1.945   3.766   2.246  0.9857  1.1598  0.9407
25269SOL    HW276386   1.811   3.836   2.237  0.4379  0.0282  0.0771
25270SOL     OW76387   5.172   7.651   7.815 -0.4983  0.3787  0.0417
25270SOL    HW176388   5.169   7.561   7.846  0.9450  0.1258 -0.5167
25270SOL    HW276389   5.083   7.668   7.783 -0.2709 -1.5793 -1.8462
25271SOL     OW76390   3.489   0.077   7.333 -0.0103  0.1570 -0.3549
25271SOL    HW176391   3.458  -0.014   7.340 -2.6774  0.8950 -1.5070
25271SOL    HW276392   3.476   0.113   7.421  0.2896 -0.3369 -0.1014
25272SOL     OW76393   0.649   6.926   1.402  0.5240  0.2260 -0.3778
25272SOL    HW176394   0.716   6.858   1.407  0.1018 -0.4488 -2.9360
25272SOL    HW276395   0.566   6.878   1.398 -0.0387  1.0177  0.8675
25273SOL     OW76396   2.217   1.351   2.548  0.1052 -0.0325  0.3263
25273SOL    HW176397   2.296   1.363   2.601  0.6835 -0.5714 -0.3999
25273SOL    HW276398   2.241   1.383   2.461 -0.8729  0.9549  0.3915
25274SOL     OW76399   9.534   0.886   1.795 -0.0991  0.2456 -0.2429
25274SOL    HW176400   9.599   0.914   1.731 -2.5321 -0.3347 -3.1740
25274SOL    HW276401   9.582   0.884   1.878  3.4967  0.1357 -2.1144
25275SOL     OW76402   6.340   1.181   6.900  0.1409  0.1314 -0.2810
25275SOL    HW176403   6.303   1.223   6.822 -1.2748  1.8678  1.2484
25275SOL    HW276404   6.392   1.108   6.865 -1.1737  0.2793 -2.7755
25276SOL     OW76405   9.538   1.293   1.986 -0.8108 -0.5415  0.2357
25276SOL    HW176406   9.548   1.264   2.076  2.6794 -3.2788 -0.7935
25276SOL    HW276407   9.492   1.221   1.942 -0.4717 -0.2599 -0.6050
25277SOL     OW76408   1.554   0.434   9.838  0.5084 -0.4163  0.1742
25277SOL    HW176409   1.505   0.355   9.817 -0.4128  0.6103 -1.7800
25277SOL    HW276410   1.615   0.407   9.907 -0.7108 -2.4657  0.5309
25278SOL     OW76411   8.290   4.510   2.002  0.3689  0.2266  0.4406
25278SOL    HW176412   8.356   4.500   1.933  1.0531  1.4614  0.8831
25278SOL    HW276413   8.300   4.600   2.032 -1.1277  0.2542  0.9445
25279SOL     OW76414   1.374   4.813   8.185 -0.2026 -0.2528  0.5305
25279SOL    HW176415   1.397   4.757   8.259  1.8291 -0.7019 -0.3488
25279SOL    HW276416   1.428   4.892   8.197  0.4000 -0.4679 -0.5880
25280SOL     OW76417   5.539   1.737   0.929  0.0055  0.6509  0.6797
25280SOL    HW176418   5.612   1.680   0.905  0.2278  0.4148  1.8451
25280SOL    HW276419   5.540   1.806   0.863  0.3071 -0.1943 -0.2214
25281SOL     OW76420   3.609   3.863   9.151  0.0822  0.3422  0.0286
25281SOL    HW176421   3.696   3.887   9.120  0.8237 -1.5731  0.4742
25281SOL    HW276422   3.549   3.902   9.087  1.1773  2.3493  0.1447
25282SOL     OW76423   6.752   2.274   7.984 -0.2930 -0.1413  0.4799
25282SOL    HW176424   6.724   2.361   8.014  0.1683  0.1466  0.0911
25282SOL    HW276425   6.837   2.289   7.943  1.5952 -1.2982  3.5895
25283SOL     OW76426   1.259   3.580   8.602 -0.2967 -0.5392 -0.6495
25283SOL    HW176427   1.265   3.673   8.622 -1.3630 -0.5442 -0.2642
25283SOL    HW276428   1.347   3.546   8.618  0.2489  0.4929 -1.3287
25284SOL     OW76429   8.569   3.295   0.222  0.1811  0.2295  0.4450
25284SOL    HW176430   8.577   3.265   0.312 -0.3679  0.4566  0.5801
25284SOL    HW276431   8.505   3.236   0.183  0.9362 -0.3020 -0.0023
25285SOL     OW76432   1.673   2.125   2.603 -0.1055  0.6003 -0.0347
25285SOL    HW176433   1.717   2.042   2.621 -0.3053  0.9044  2.2070
25285SOL    HW276434   1.741   2.191   2.613 -0.9009  1.1183  3.9418
25286SOL     OW76435   6.526   1.409   5.766  0.0315  0.5297  0.2081
25286SOL    HW176436   6.551   1.387   5.676 -1.4187  0.7169 -0.2642
25286SOL    HW276437   6.438   1.374   5.776  0.8662 -1.1751  2.2130
25287SOL     OW76438   1.428   7.310   2.298  0.1084  0.6433  0.3030
25287SOL    HW176439   1.503   7.255   2.318  0.4347  1.2787  0.8554
25287SOL    HW276440   1.380   7.316   2.381 -0.7061  0.0228 -0.1073
25288SOL     OW76441   8.646   4.795   7.112  0.6046  0.7592 -0.2025
25288SOL    HW176442   8.568   4.748   7.140 -0.4723  0.8624 -2.7183
25288SOL    HW276443   8.717   4.761   7.167 -1.0059 -0.1290  1.4015
25289SOL     OW76444   5.552   0.703   9.447  0.2837  0.2541  0.0596
25289SOL    HW176445   5.588   0.789   9.470 -0.7444  0.6504  0.2555
25289SOL    HW276446   5.490   0.722   9.376 -0.7885 -0.1483  0.8638
25290SOL     OW76447   7.169   1.468   6.418  0.0504 -0.1740  0.1135
25290SOL    HW176448   7.098   1.440   6.476  0.2346 -0.0997  0.3755
25290SOL    HW276449   7.182   1.560   6.439  0.4189 -0.2590  0.2736
25291SOL     OW76450   6.752   7.444   9.831 -0.3930 -0.7393  0.1666
25291SOL    HW176451   6.789   7.417   9.747 -1.2123 -0.2025 -0.3921
25291SOL    HW276452   6.771   7.538   9.837 -1.0861 -0.5918  0.1664
25292SOL     OW76453   0.624   4.555   8.408 -0.9139  0.0088  0.0937
25292SOL    HW176454   0.621   4.577   8.315 -1.4509 -1.0676 -0.1591
25292SOL    HW276455   0.543   4.592   8.445 -1.0590 -0.2014 -0.0143
25293SOL     OW76456   7.929   2.690   8.844  0.2428 -0.3235 -0.3689
25293SOL    HW176457   7.969   2.700   8.757  0.1013 -0.6629 -0.4773
25293SOL    HW276458   7.994   2.640   8.893  0.3334 -0.1096 -0.2701
25294SOL     OW76459   6.666   9.500   6.644 -0.0655 -0.4609  0.0452
25294SOL    HW176460   6.619   9.516   6.726  1.4209  1.4608  0.5823
25294SOL    HW276461   6.745   9.454   6.671  0.7439  0.7520 -0.2033
25295SOL     OW76462   2.405   3.353   7.280  0.0349  0.3541 -0.1533
25295SOL    HW176463   2.386   3.443   7.255  1.6341  0.9536  0.6294
25295SOL    HW276464   2.364   3.343   7.366  1.8478  1.1714  0.8696
25296SOL     OW76465   1.660   6.879   0.562  0.3298  0.1135 -0.2598
25296SOL    HW176466   1.622   6.963   0.537  0.4235 -0.1651 -1.3741
25296SOL    HW276467   1.631   6.865   0.652 -1.6082  0.2452 -0.8249
25297SOL     OW76468   6.288   1.475   2.518  0.0372 -0.0212 -0.0155
25297SOL    HW176469   6.208   1.498   2.472  0.6574  1.3639 -0.4224
25297SOL    HW276470   6.258   1.444   2.604 -0.9139  0.8549 -0.0204
25298SOL     OW76471   1.987   8.221   1.242 -0.0085  0.2972  0.4743
25298SOL    HW176472   1.935   8.284   1.293 -1.0900 -0.1960 -0.0084
25298SOL    HW276473   1.923   8.163   1.202  0.9971 -2.1621  2.2048
25299SOL     OW76474   6.835   6.092   3.303  0.1732 -0.7000  0.1967
25299SOL    HW176475   6.803   6.074   3.391  0.8069 -1.3662  0.3022
25299SOL    HW276476   6.927   6.118   3.315 -0.0030  0.1295 -0.1881
25300SOL     OW76477   0.217   8.733   1.147  0.0422 -0.1689 -0.6685
25300SOL    HW176478   0.136   8.776   1.120 -0.0137 -0.3889 -0.8586
25300SOL    HW276479   0.287   8.784   1.107  0.1667  1.6195  1.6096
25301SOL     OW76480   4.329   1.176   3.007 -0.3379  0.1182 -0.0787
25301SOL    HW176481   4.299   1.267   3.015 -1.2394 -0.2065  0.3211
25301SOL    HW276482   4.255   1.129   2.970 -0.4405 -0.7460  1.1697
25302SOL     OW76483   0.434   2.002   2.310 -0.6364 -0.6843  0.3034
25302SOL    HW176484   0.440   1.925   2.253 -2.5782 -0.5356 -0.1672
25302SOL    HW276485   0.436   2.077   2.249 -1.3241 -0.4774  0.5227
25303SOL     OW76486   4.714   9.416   7.373  0.0733 -0.2918 -0.3884
25303SOL    HW176487   4.705   9.325   7.402 -0.7660 -0.1438 -0.1427
25303SOL    HW276488   4.712   9.467   7.453 -0.7569  0.0203 -0.5968
25304SOL     OW76489   4.116   2.628   1.179  0.7479  0.3809 -0.5475
25304SOL    HW176490   4.154   2.649   1.094 -1.0704 -0.4808 -1.6345
25304SOL    HW276491   4.025   2.607   1.160  0.5372 -0.8232  1.4806
25305SOL     OW76492   7.988   8.194   2.641 -0.5528  0.1956 -0.0883
25305SOL    HW176493   7.930   8.191   2.717 -0.0244  2.2471  0.4723
25305SOL    HW276494   8.075   8.177   2.676 -0.3548  0.7596 -0.2907
25306SOL     OW76495   5.860   9.903   0.099  0.4323 -0.1871  0.2689
25306SOL    HW176496   5.919   9.972   0.069  0.0353 -0.1963 -0.5552
25306SOL    HW276497   5.773   9.938   0.084  0.2235 -0.9406 -0.3339
25307SOL     OW76498   2.799   7.384   7.344 -0.4292 -0.1374 -0.0133
25307SOL    HW176499   2.749   7.342   7.414  1.5823  1.2606  2.4747
25307SOL    HW276500   2.742   7.453   7.312 -1.1931 -0.4056  0.7307
25308SOL     OW76501   2.988   4.130   4.393  0.3655  0.2417 -0.1487
25308SOL    HW176502   2.959   4.217   4.366  1.1534  0.3497 -0.6531
25308SOL    HW276503   3.064   4.111   4.338  0.1514 -0.8018 -0.1078
25309SOL     OW76504   2.085   7.826   2.266  0.5028  0.0192 -0.1831
25309SOL    HW176505   2.134   7.752   2.303  1.1412 -0.6443 -2.2096
25309SOL    HW276506   2.150   7.896   2.257  0.4241  0.0778 -0.3078
25310SOL     OW76507   8.198   2.676   7.469  0.1785  0.3819 -0.0884
25310SOL    HW176508   8.231   2.764   7.484 -0.2619  0.6577 -0.6827
25310SOL    HW276509   8.124   2.688   7.409  0.5098 -0.4419 -0.6849
25311SOL     OW76510   1.703   2.414   3.287  0.5298 -0.1355  0.0234
25311SOL    HW176511   1.788   2.380   3.312  0.2229 -0.8107  0.1766
25311SOL    HW276512   1.707   2.421   3.191  0.0900 -2.1035 -0.1892
25312SOL     OW76513   6.967   7.553   6.310 -0.5747 -0.6478 -0.4868
25312SOL    HW176514   6.990   7.577   6.399 -0.2243 -0.4625 -0.6279
25312SOL    HW276515   6.994   7.627   6.257  1.2840 -1.6585 -1.0419
25313SOL     OW76516   2.649   4.296   0.163 -0.0485  0.0231  0.5181
25313SOL    HW176517   2.576   4.332   0.112 -1.7230 -2.9351  0.5408
25313SOL    HW276518   2.725   4.304   0.106 -1.4247 -1.1498 -1.6350
25314SOL     OW76519   2.003   9.337   9.483 -0.1875 -0.0087  0.1378
25314SOL    HW176520   1.925   9.323   9.429 -1.1486  0.0284  1.4793
25314SOL    HW276521   2.044   9.251   9.487 -1.0662 -0.4144  0.7632
25315SOL     OW76522   1.999   2.184   8.264 -0.4961 -0.0723  0.2942
25315SOL    HW176523   2.023   2.222   8.349 -0.5744  0.0338  0.2700
25315SOL    HW276524   1.958   2.257   8.216 -0.6365 -0.1838  0.2434
25316SOL     OW76525   3.588   9.608   8.689  0.2962  0.0948 -0.3517
25316SOL    HW176526   3.493   9.611   8.703  0.3252 -1.4802  0.3573
25316SOL    HW276527   3.600   9.644   8.601 -0.7545  2.0381  0.2181
25317SOL     OW76528   3.711   9.728   4.139  0.4781  0.1017  0.0750
25317SOL    HW176529   3.696   9.667   4.067  0.4475  0.8581 -0.5597
25317SOL    HW276530   3.709   9.815   4.099  3.2598  0.4590  0.4795
25318SOL     OW76531   3.493   3.544   9.092  0.1183 -1.0934  0.1036
25318SOL    HW176532   3.427   3.541   9.161 -2.0825 -0.8506 -1.8606
25318SOL    HW276533   3.547   3.620   9.114 -2.4046  0.8332  0.0127
25319SOL     OW76534   1.320   5.479   0.145 -0.2230  0.0372  0.5122
25319SOL    HW176535   1.397   5.422   0.140 -2.6133 -3.3786 -1.5555
25319SOL    HW276536   1.315   5.520   0.059 -0.0731  1.2919  1.0798
25320SOL     OW76537   0.311   4.330   9.738 -0.4044 -0.6638  0.3587
25320SOL    HW176538   0.359   4.267   9.684  1.7377  0.4225  0.8856
25320SOL    HW276539   0.345   4.316   9.827 -2.8800 -1.4931  1.2668
25321SOL     OW76540   8.533   7.768   9.196 -0.5836 -0.6901  0.1826
25321SOL    HW176541   8.530   7.704   9.124  0.7889 -0.2203 -0.3242
25321SOL    HW276542   8.549   7.852   9.153 -1.5872 -0.1104  0.9117
25322SOL     OW76543   8.841   4.803   4.100  0.4647  0.3973 -0.1035
25322SOL    HW176544   8.898   4.876   4.124 -0.6244  1.0722  0.4689
25322SOL    HW276545   8.753   4.841   4.095  0.2367 -0.2637 -2.6153
25323SOL     OW76546   5.989   6.026   7.225 -0.5455 -0.0516 -0.3143
25323SOL    HW176547   5.950   5.989   7.304 -0.2797  0.7973  0.2322
25323SOL    HW276548   6.061   6.081   7.257  0.4798 -0.7911 -1.2319
25324SOL     OW76549   9.024   2.622   4.600 -0.0819 -0.4247  0.3829
25324SOL    HW176550   9.060   2.710   4.592 -1.5446  0.4199  2.4852
25324SOL    HW276551   8.964   2.614   4.526 -0.8878  0.8515  0.8731
25325SOL     OW76552   5.722   8.534   3.061 -0.1939 -0.1394  0.1156
25325SOL    HW176553   5.753   8.617   3.096 -1.6775 -0.4436  2.3232
25325SOL    HW276554   5.627   8.537   3.071 -0.2004 -2.6433  1.6389
25326SOL     OW76555   9.241   9.410   9.765  0.3059  0.1440 -0.4014
25326SOL    HW176556   9.306   9.398   9.835 -1.5745 -1.4178  1.1974
25326SOL    HW276557   9.277   9.361   9.691  0.2724 -2.1003  0.9688
25327SOL     OW76558   4.989   0.396   4.253  0.3995  0.3677  0.2969
25327SOL    HW176559   5.045   0.473   4.237  0.4590  0.5823  1.4673
25327SOL    HW276560   5.003   0.340   4.176 -0.0760  1.7689 -0.8656
25328SOL     OW76561   2.474   9.379   0.048 -0.1219 -0.6695  0.3242
25328SOL    HW176562   2.391   9.423   0.032  2.0714  3.1772 -1.8796
25328SOL    HW276563   2.489   9.326  -0.031  0.4429  0.4117 -0.3212
25329SOL     OW76564   5.221   9.051   5.272 -0.0349 -0.4019 -0.4680
25329SOL    HW176565   5.184   9.137   5.255 -1.5503 -1.0555 -0.6665
25329SOL    HW276566   5.308   9.053   5.231 -0.3682  0.7622 -1.1498
25330SOL     OW76567   1.145   1.312   2.084  0.2971 -0.1454 -0.4077
25330SOL    HW176568   1.182   1.227   2.105  0.1280  0.2846  1.8643
25330SOL    HW276569   1.218   1.374   2.090 -0.1412  0.2713  1.0473
25331SOL     OW76570   2.913   7.564   0.074 -0.0087  0.0806  0.0049
25331SOL    HW176571   2.949   7.523   0.153  1.0309 -0.9010 -0.9456
25331SOL    HW276572   2.985   7.616   0.039 -0.3242  0.1588 -0.5448
25332SOL     OW76573   5.119   3.338   8.666  0.1802  0.1684  0.7282
25332SOL    HW176574   5.152   3.288   8.741  0.4896 -0.0805  0.4296
25332SOL    HW276575   5.093   3.272   8.602 -1.4566  0.3444  1.1714
25333SOL     OW76576   0.181   5.396   5.934  0.7872  0.2062  0.6818
25333SOL    HW176577   0.207   5.464   5.873 -1.3031  0.5199  0.0464
25333SOL    HW276578   0.230   5.415   6.014  3.3759 -0.0558 -0.7357
25334SOL     OW76579   6.188   4.238   1.119 -0.2916  0.2232  0.1643
25334SOL    HW176580   6.273   4.199   1.099  0.0414  0.8619  0.3094
25334SOL    HW276581   6.209   4.326   1.150 -1.1220  1.3656 -2.2820
25335SOL     OW76582   0.217   0.157   3.699 -0.2662  0.2270  0.1601
25335SOL    HW176583   0.228   0.083   3.639 -1.7546 -0.7454  1.0263
25335SOL    HW276584   0.127   0.186   3.685 -0.2674  0.7073  1.1307
25336SOL     OW76585   0.987   6.723   7.165 -0.0246  0.6071 -1.1033
25336SOL    HW176586   0.944   6.771   7.235 -0.7384  0.7479 -1.6280
25336SOL    HW276587   0.971   6.631   7.185  0.8971  0.5946 -0.3801
25337SOL     OW76588   7.078   9.664   3.548 -0.2894 -0.1475 -0.3089
25337SOL    HW176589   7.157   9.626   3.510 -0.5460 -2.1983  1.0401
25337SOL    HW276590   7.009   9.645   3.485  0.0107  0.3667 -0.8100
25338SOL     OW76591   0.677   3.116   9.133 -0.2025 -0.2027 -0.1699
25338SOL    HW176592   0.586   3.087   9.122 -0.4186  0.5065 -0.3243
25338SOL    HW276593   0.722   3.083   9.055 -0.7449  0.9876 -1.0282
25339SOL     OW76594   5.089   5.161   1.248  0.6608  0.0169  0.0254
25339SOL    HW176595   5.123   5.075   1.271 -0.4949 -0.1698  1.1268
25339SOL    HW276596   5.036   5.146   1.170 -1.1865 -0.6731  1.3664
25340SOL     OW76597   1.778   7.459   3.549 -0.4923  0.4865 -0.1836
25340SOL    HW176598   1.830   7.406   3.608  1.3126  2.4401  0.0723
25340SOL    HW276599   1.834   7.474   3.473 -1.0746  1.7484 -0.3958
25341SOL     OW76600   9.028   9.723   8.827  0.0273 -0.7424 -0.2575
25341SOL    HW176601   8.987   9.642   8.858 -1.7374 -0.2646 -1.1731
25341SOL    HW276602   8.977   9.793   8.868  0.2630 -0.1073 -1.0154
25342SOL     OW76603   2.805   2.170   5.689  0.4963 -0.0501  0.0429
25342SOL    HW176604   2.827   2.077   5.676 -0.3395 -0.1641 -0.7314
25342SOL    HW276605   2.884   2.208   5.727  0.7641 -1.1335  0.6237
25343SOL     OW76606   5.372   6.391   2.860 -0.6171  0.3757 -0.2106
25343SOL    HW176607   5.337   6.440   2.934 -3.1481 -3.3598  1.3881
25343SOL    HW276608   5.467   6.392   2.873 -0.7717  2.5153  1.1681
25344SOL     OW76609   6.282   6.427   1.865 -0.5256 -0.4249  0.0842
25344SOL    HW176610   6.331   6.350   1.838  0.9260  0.1444  1.0213
25344SOL    HW276611   6.291   6.488   1.792  2.3292  0.6273  1.1919
25345SOL     OW76612   7.080   8.012   6.005  0.4548 -0.4940  0.5458
25345SOL    HW176613   7.033   7.975   5.931  1.0951 -0.1519 -0.0490
25345SOL    HW276614   7.012   8.053   6.059 -0.1466 -1.7090  0.7366
25346SOL     OW76615   8.749   4.813   0.772  0.4073 -0.1323  0.2609
25346SOL    HW176616   8.702   4.896   0.761  0.5343 -0.1256 -0.2550
25346SOL    HW276617   8.839   4.833   0.746  0.5523 -0.3086  0.6175
25347SOL     OW76618   2.316   0.103   9.936 -0.9713  0.6026 -0.5053
25347SOL    HW176619   2.249   0.155   9.980 -1.3078 -1.0428  1.0584
25347SOL    HW276620   2.312   0.017   9.979  2.0879  0.4069 -0.3400
25348SOL     OW76621   8.717   9.506   5.406 -0.6313 -0.0990  0.2832
25348SOL    HW176622   8.806   9.474   5.392  0.0988  1.7648  0.3885
25348SOL    HW276623   8.694   9.475   5.494 -0.4382 -1.3161 -0.0847
25349SOL     OW76624   6.425   5.733   4.038  0.4049 -0.3526 -0.9227
25349SOL    HW176625   6.366   5.721   4.113  0.0277 -1.2638 -1.3574
25349SOL    HW276626   6.409   5.823   4.011  1.7590  0.5835  1.0933
25350SOL     OW76627   3.490   7.857   1.263  0.6846 -0.2438  0.2967
25350SOL    HW176628   3.406   7.900   1.244  0.1343 -1.7652 -0.8492
25350SOL    HW276629   3.555   7.916   1.225  0.1345  0.7880  0.9012
25351SOL     OW76630   7.208   8.020   9.748 -0.7080  0.1718 -0.3566
25351SOL    HW176631   7.198   8.111   9.722  3.8717  1.3337  0.9547
25351SOL    HW276632   7.223   7.973   9.666  0.5881  1.3472 -0.8286
25352SOL     OW76633   9.403   4.773   3.211  0.2378 -0.2930  0.4268
25352SOL    HW176634   9.318   4.765   3.169  0.0842  1.0058  0.4387
25352SOL    HW276635   9.466   4.749   3.143 -0.0585  0.6244 -0.1881
25353SOL     OW76636   3.534   4.814   3.408  0.0382 -0.4600  0.2684
25353SOL    HW176637   3.555   4.721   3.416  1.5205 -0.2035 -0.2809
25353SOL    HW276638   3.607   4.851   3.359 -0.6693  0.9504  0.2236
25354SOL     OW76639   0.523   9.016   9.848  0.1020 -0.8076  0.2597
25354SOL    HW176640   0.483   9.100   9.872 -0.8727 -1.6532  1.7816
25354SOL    HW276641   0.463   8.978   9.784 -1.6070 -2.0095  2.4334
25355SOL     OW76642   7.392   1.415   8.534  0.5380 -0.1797 -0.2933
25355SOL    HW176643   7.408   1.333   8.581  1.2962 -0.2931 -0.7410
25355SOL    HW276644   7.478   1.443   8.504  0.3951  1.1851  0.4953
25356SOL     OW76645   5.936   4.915   6.938  0.4220 -0.6259 -0.5962
25356SOL    HW176646   5.948   5.010   6.946 -0.9448 -0.5601  1.3985
25356SOL    HW276647   5.845   4.900   6.963  1.2644 -2.6747  1.6285
25357SOL     OW76648   9.663   2.591   6.733 -0.7753  0.4744  0.1534
25357SOL    HW176649   9.650   2.685   6.750  0.5330  0.5000  1.1514
25357SOL    HW276650   9.746   2.587   6.686  0.3611 -0.3384  2.1479
25358SOL     OW76651   7.534   2.455   0.090  0.1649 -0.2200  0.2151
25358SOL    HW176652   7.524   2.360   0.085  1.1290 -0.3838  1.0216
25358SOL    HW276653   7.604   2.475   0.027 -0.6217  0.0858 -0.5928
25359SOL     OW76654   0.425   9.103   2.638  0.1940 -0.2419 -0.2539
25359SOL    HW176655   0.402   9.180   2.587 -1.4439 -0.8793 -0.5421
25359SOL    HW276656   0.341   9.066   2.666  0.9740 -1.2342  0.9235
25360SOL     OW76657   7.091   6.040   9.150  0.2559 -0.5993 -0.1623
25360SOL    HW176658   7.024   6.044   9.081  0.7033 -0.8975 -0.6237
25360SOL    HW276659   7.119   6.131   9.161  0.1176 -0.5371 -0.3209
25361SOL     OW76660   1.247   8.114   3.860  0.0573 -0.7291 -0.3060
25361SOL    HW176661   1.222   8.035   3.908 -1.8816  0.5178  0.8621
25361SOL    HW276662   1.284   8.172   3.926 -1.6804  0.6131 -0.4525
25362SOL     OW76663   2.364   4.166   0.321  0.1684  0.1818  0.4825
25362SOL    HW176664   2.358   4.124   0.407 -2.0091  0.8417  0.7145
25362SOL    HW276665   2.373   4.259   0.341 -2.7928  0.6442  0.1172
25363SOL     OW76666   1.851   0.548   1.644  0.1847 -0.3915  0.3225
25363SOL    HW176667   1.784   0.564   1.711  0.7426  1.7150  0.4688
25363SOL    HW276668   1.803   0.507   1.572 -1.0376 -0.0489  0.8994
25364SOL     OW76669   2.610   1.612   6.468  0.4412 -0.3077 -0.0414
25364SOL    HW176670   2.611   1.693   6.520  0.0655 -1.5828  2.0819
25364SOL    HW276671   2.605   1.642   6.377 -2.7757  2.0910  0.7255
25365SOL     OW76672   2.112   0.226   2.559 -0.0208 -0.4705  0.2631
25365SOL    HW176673   2.063   0.263   2.632  0.6552 -0.4837  0.7393
25365SOL    HW276674   2.161   0.153   2.597 -0.9351 -1.5425 -0.5616
25366SOL     OW76675   2.542   7.484   8.562 -0.0911  0.1539  0.2330
25366SOL    HW176676   2.457   7.527   8.569 -0.6360 -0.5996 -1.2365
25366SOL    HW276677   2.535   7.406   8.617 -0.3160  0.1637  0.2187
25367SOL     OW76678   3.682   5.765   2.166 -0.1636 -0.1107 -0.2541
25367SOL    HW176679   3.720   5.677   2.159 -0.3907 -0.1384 -1.2286
25367SOL    HW276680   3.590   5.753   2.140 -0.9670 -0.0893  2.2527
25368SOL     OW76681   8.503   0.040   6.412  0.1762 -0.2688 -0.5988
25368SOL    HW176682   8.437   0.099   6.376 -0.8717 -1.3652 -0.5468
25368SOL    HW276683   8.501  -0.036   6.353 -0.6994 -1.5753  1.0219
25369SOL     OW76684   0.387   8.750   7.999 -0.1043  0.8069  0.3150
25369SOL    HW176685   0.296   8.780   7.995  0.0289  1.0618 -1.9024
25369SOL    HW276686   0.425   8.776   7.916  0.9169 -2.7108 -0.4948
25370SOL     OW76687   6.270   0.164   4.228 -0.0771 -0.2489 -0.1001
25370SOL    HW176688   6.311   0.249   4.247 -1.2910  0.9196 -2.2799
25370SOL    HW276689   6.215   0.147   4.305 -0.5978  1.4871 -0.0392
25371SOL     OW76690   5.255   0.049   0.503 -0.1376  0.5111  0.5363
25371SOL    HW176691   5.225   0.119   0.560  0.1590  0.4919  0.7152
25371SOL    HW276692   5.224  -0.031   0.545  0.8326  0.4379  1.1434
25372SOL     OW76693   6.409   6.681   9.030  0.0279 -0.5022 -0.5093
25372SOL    HW176694   6.378   6.770   9.049 -0.9962 -0.6318 -1.4443
25372SOL    HW276695   6.457   6.690   8.948 -0.2961 -0.8524 -0.7390
25373SOL     OW76696   0.481   8.538   6.472  0.1767 -0.0852 -0.3007
25373SOL    HW176697   0.560   8.484   6.463  0.6350  0.4076  0.5785
25373SOL    HW276698   0.514   8.627   6.480 -0.3890  0.0281  1.1171
25374SOL     OW76699   7.979   7.581   8.847 -0.5133 -0.7161  0.3747
25374SOL    HW176700   7.938   7.503   8.810  0.1518 -2.1448  2.4918
25374SOL    HW276701   7.915   7.615   8.910 -1.4607  1.4524 -1.5805
25375SOL     OW76702   3.967   2.015   9.063  0.0766  0.0763  0.9694
25375SOL    HW176703   3.901   2.005   8.995  0.1780  0.3753  0.8227
25375SOL    HW276704   4.024   1.938   9.053  0.6250  0.5720  0.1158
25376SOL     OW76705   3.157   1.896   8.142  0.0829 -0.1049  0.6035
25376SOL    HW176706   3.095   1.966   8.123 -0.4247 -0.8881 -0.7715
25376SOL    HW276707   3.243   1.936   8.133 -0.2088  0.4718  0.3524
25377SOL     OW76708   0.231   8.365   6.517  0.3498  0.3058  0.3018
25377SOL    HW176709   0.275   8.449   6.505 -2.0301  1.7105  0.6292
25377SOL    HW276710   0.199   8.342   6.429 -1.5793  1.3742  0.6496
25378SOL     OW76711   9.168   0.592   2.952  0.3248  0.7401 -0.1483
25378SOL    HW176712   9.257   0.578   2.984 -0.2872 -0.8054  1.0480
25378SOL    HW276713   9.160   0.532   2.877  0.2197  0.6744 -0.0852
25379SOL     OW76714   5.174   9.317   5.213  0.2803 -0.7631  0.0841
25379SOL    HW176715   5.139   9.370   5.285  2.4193  0.7043  0.1264
25379SOL    HW276716   5.179   9.377   5.139  2.5530 -0.8782  0.0669
25380SOL     OW76717   9.644   1.906   6.849 -0.2201 -0.3087 -0.0607
25380SOL    HW176718   9.609   1.845   6.914  0.4259 -0.7591 -0.1200
25380SOL    HW276719   9.739   1.902   6.862 -0.1728  0.7071 -0.0534
25381SOL     OW76720   1.340   3.989   1.536 -0.2766  0.8652  0.1245
25381SOL    HW176721   1.418   3.997   1.481  1.7868  0.2309  2.7673
25381SOL    HW276722   1.338   3.897   1.563 -3.1220  0.3534 -1.3581
25382SOL     OW76723   4.496   7.648   3.531  0.0125 -0.3768 -0.3483
25382SOL    HW176724   4.582   7.687   3.547 -0.1650  1.2767 -2.9246
25382SOL    HW276725   4.442   7.677   3.604  0.8267  1.2337 -0.3541
25383SOL     OW76726   1.258   8.462   6.682 -0.0576  0.6279  0.6304
25383SOL    HW176727   1.227   8.404   6.751  0.6994 -2.2442 -1.2572
25383SOL    HW276728   1.332   8.415   6.643  0.8459  3.0671 -0.8230
25384SOL     OW76729   4.026   0.855   2.291  0.3426  0.2300  0.6890
25384SOL    HW176730   4.088   0.919   2.329 -0.9673  1.1943  1.2727
25384SOL    HW276731   4.072   0.820   2.215  1.5707  0.9865  1.0426
25385SOL     OW76732   5.552   6.839   7.495 -0.6374 -0.9527 -0.1435
25385SOL    HW176733   5.512   6.787   7.565 -1.3246  0.0615  0.2420
25385SOL    HW276734   5.510   6.808   7.415 -1.8541 -0.2602  0.2045
25386SOL     OW76735   8.640   4.352   6.033  0.8286 -0.0375 -0.0188
25386SOL    HW176736   8.706   4.420   6.023  0.6303  0.1727  0.0872
25386SOL    HW276737   8.683   4.272   6.003  0.6522  0.3570 -1.3868
25387SOL     OW76738   0.441   5.217   6.691  0.2223 -0.5867  0.0873
25387SOL    HW176739   0.429   5.143   6.631  0.2475  1.0473 -2.0554
25387SOL    HW276740   0.523   5.257   6.663 -0.4649  1.0325  0.3082
25388SOL     OW76741   2.750   0.494   8.546  0.0770  0.1333  0.1243
25388SOL    HW176742   2.769   0.510   8.639  2.1097 -0.5549 -0.1192
25388SOL    HW276743   2.834   0.465   8.509 -0.9697 -0.8030 -1.6703
25389SOL     OW76744   2.729   3.985   0.773 -0.4123  0.1332  0.7870
25389SOL    HW176745   2.704   4.035   0.695  0.1306  1.5755  1.4875
25389SOL    HW276746   2.647   3.946   0.803 -0.3533 -1.9733 -1.4658
25390SOL     OW76747   4.045   7.016   4.390  0.1234  0.5005 -0.3240
25390SOL    HW176748   4.023   7.067   4.468 -2.4753 -0.6294 -0.1788
25390SOL    HW276749   4.104   6.948   4.422 -0.6724  0.2311  0.6608
25391SOL     OW76750   4.505   8.407   6.077 -0.1917  0.0219 -0.2153
25391SOL    HW176751   4.600   8.406   6.087 -0.3031  0.4568  1.0908
25391SOL    HW276752   4.480   8.315   6.068  0.1605 -0.2995  1.7177
25392SOL     OW76753   2.339   9.874   3.956 -0.0310  0.1811 -0.0344
25392SOL    HW176754   2.316   9.783   3.937 -1.0686  0.7184 -1.5814
25392SOL    HW276755   2.306   9.889   4.044 -0.6925 -0.6790 -0.1158
25393SOL     OW76756   3.806   7.953   0.174 -0.2465 -0.3143 -0.2109
25393SOL    HW176757   3.769   7.969   0.261  2.2339 -1.2643  1.1118
25393SOL    HW276758   3.812   7.858   0.168  2.3637 -0.2296 -0.0887
25394SOL     OW76759   2.743   1.695   9.691 -0.7012  0.2901 -0.0845
25394SOL    HW176760   2.723   1.775   9.740 -1.2172  0.8869 -1.2221
25394SOL    HW276761   2.772   1.726   9.605 -0.7409 -0.7484 -0.4908
25395SOL     OW76762   2.670   2.565   7.191  0.2861  0.4351 -0.0298
25395SOL    HW176763   2.607   2.557   7.263  0.3778  2.5798  0.3583
25395SOL    HW276764   2.741   2.506   7.214  0.4161  1.2446  1.8017
25396SOL     OW76765   2.485   1.400   4.424 -0.0561  0.0816  0.0754
25396SOL    HW176766   2.580   1.396   4.437  0.3251  0.9526 -2.1200
25396SOL    HW276767   2.454   1.454   4.497  0.9944 -0.7850  1.2300
25397SOL     OW76768   7.131   1.135   4.227 -0.2536 -0.5372  0.9382
25397SOL    HW176769   7.090   1.054   4.259 -0.9098 -0.7624 -0.4085
25397SOL    HW276770   7.061   1.181   4.181  0.1144  0.8246  1.6769
25398SOL     OW76771   3.986   5.182   3.176  0.1257 -0.0840  0.5372
25398SOL    HW176772   4.043   5.187   3.252  1.4227 -0.3104 -0.3839
25398SOL    HW276773   3.932   5.260   3.181  1.5445  0.9319  0.6760
25399SOL     OW76774   7.799   8.620   9.348 -0.2605  0.5967  0.6025
25399SOL    HW176775   7.778   8.582   9.433  0.8603 -0.0986  0.5944
25399SOL    HW276776   7.889   8.592   9.331 -0.5917  0.4064 -0.9976
25400SOL     OW76777   3.413   2.711   3.687  0.1628  0.3731 -0.0648
25400SOL    HW176778   3.504   2.681   3.686  0.4659  1.2471  0.4137
25400SOL    HW276779   3.411   2.782   3.622 -0.2738  0.1050 -0.3498
25401SOL     OW76780   9.032   3.172   4.014  0.4196  0.3586  0.2863
25401SOL    HW176781   9.072   3.259   4.016 -0.8978  1.1675 -2.9406
25401SOL    HW276782   8.938   3.188   4.011  0.0191 -1.3196  1.7489
25402SOL     OW76783   7.206   6.038   4.657  0.1079 -0.2346 -0.0904
25402SOL    HW176784   7.294   6.064   4.685  0.5713 -2.0700  0.2831
25402SOL    HW276785   7.182   5.967   4.717 -0.8300 -1.0628 -1.3902
25403SOL     OW76786   9.462   9.108   1.024  0.3385 -0.5502 -0.2578
25403SOL    HW176787   9.541   9.105   0.969  1.0989 -1.1284  0.8328
25403SOL    HW276788   9.490   9.073   1.108 -0.7037  0.6937  0.6458
25404SOL     OW76789   6.889   5.761   7.062  0.4470 -0.2695 -0.5433
25404SOL    HW176790   6.862   5.674   7.032 -1.2665 -0.2214  0.7829
25404SOL    HW276791   6.949   5.744   7.135 -0.7475 -0.3581  0.4383
25405SOL     OW76792   2.617   1.841   7.778 -0.6940 -0.1638 -0.3415
25405SOL    HW176793   2.668   1.874   7.704  0.4066 -1.6848 -0.3133
25405SOL    HW276794   2.681   1.830   7.849 -1.7099  1.1815  0.8446
25406SOL     OW76795   2.347   1.113   3.394 -0.2031 -0.1136  0.3654
25406SOL    HW176796   2.351   1.171   3.469 -0.5832 -0.1055  0.3808
25406SOL    HW276797   2.384   1.030   3.425  0.8153  0.2623  0.1998
25407SOL     OW76798   7.882   4.941   4.337  0.2449 -0.1658  0.0542
25407SOL    HW176799   7.813   4.904   4.391 -1.2727 -0.8946 -2.2106
25407SOL    HW276800   7.835   4.992   4.270  1.7943 -1.2080 -1.9530
25408SOL     OW76801   1.348   7.343   9.730  0.2490 -0.0818 -0.1158
25408SOL    HW176802   1.349   7.251   9.755 -1.1017 -0.1518 -0.2345
25408SOL    HW276803   1.402   7.348   9.652 -0.8015 -1.0356 -0.9315
25409SOL     OW76804   3.547   4.459   6.407 -0.0859  0.5482  0.3297
25409SOL    HW176805   3.481   4.434   6.343  0.1595  0.8301 -0.0400
25409SOL    HW276806   3.497   4.494   6.481 -0.3250  2.2048 -0.5582
25410SOL     OW76807   9.334   2.412   2.177  0.1136 -0.6012  0.3465
25410SOL    HW176808   9.259   2.424   2.118 -0.6525 -0.9946  1.2081
25410SOL    HW276809   9.401   2.471   2.144  0.0345 -1.4528 -1.4567
25411SOL     OW76810   4.480   0.497   3.364 -0.2515 -0.0330 -0.0655
25411SOL    HW176811   4.554   0.465   3.312  0.2330 -1.5061  1.4447
25411SOL    HW276812   4.448   0.420   3.411  0.2119  1.4228  2.8771
25412SOL     OW76813   4.041   6.406   8.686 -0.0162 -0.2510  0.1123
25412SOL    HW176814   4.128   6.393   8.725 -0.2774 -0.8906  0.4966
25412SOL    HW276815   4.026   6.500   8.692 -0.2041 -0.3636  1.9265
25413SOL     OW76816   6.875   9.742   1.714 -0.4391  0.2389 -0.5270
25413SOL    HW176817   6.884   9.696   1.798  2.6593 -0.5214 -1.1260
25413SOL    HW276818   6.828   9.680   1.658 -0.4426 -0.2453  0.0010
25414SOL     OW76819   2.860   8.205   9.153 -0.1268  0.3510 -0.0950
25414SOL    HW176820   2.842   8.156   9.073  0.7193  1.1719 -0.8049
25414SOL    HW276821   2.789   8.181   9.212 -0.8580 -0.1368 -1.1479
25415SOL     OW76822   9.387   2.617   5.338 -0.0146 -0.1498 -0.1346
25415SOL    HW176823   9.347   2.696   5.303  0.6821  0.4910  0.4849
25415SOL    HW276824   9.384   2.554   5.266  0.7414  0.9046 -1.1200
25416SOL     OW76825   8.555   2.309   7.281 -0.7354  0.0242 -0.1156
25416SOL    HW176826   8.567   2.403   7.271 -1.0349 -0.0353 -1.1503
25416SOL    HW276827   8.540   2.296   7.375  1.8692  0.6917  0.4678
25417SOL     OW76828   4.875   0.502   2.749 -0.2977 -0.0151  0.3131
25417SOL    HW176829   4.793   0.486   2.703 -0.1039  1.1815 -0.4927
25417SOL    HW276830   4.928   0.424   2.731 -0.6185 -0.0300 -0.5963
25418SOL     OW76831   4.100   7.553   9.899 -0.6716  0.9757  0.4582
25418SOL    HW176832   4.093   7.536   9.805 -1.8053 -1.2490  0.8623
25418SOL    HW276833   4.046   7.485   9.939  0.2048  1.5472  2.7611
25419SOL     OW76834   0.816   9.438   4.967  0.5718 -0.4028 -0.0589
25419SOL    HW176835   0.878   9.415   5.037  0.3840  1.4921  0.7993
25419SOL    HW276836   0.862   9.506   4.917 -0.9949  1.5535  1.0180
25420SOL     OW76837   0.418   8.446   4.123  0.1524  0.1078  0.4139
25420SOL    HW176838   0.479   8.481   4.188 -1.4379  0.3602  1.8705
25420SOL    HW276839   0.413   8.515   4.056  2.6909 -0.6497 -0.6610
25421SOL     OW76840   2.568   0.512   3.383  0.3026 -0.3457  0.0639
25421SOL    HW176841   2.488   0.474   3.347 -0.9195  0.3200  1.9424
25421SOL    HW276842   2.630   0.439   3.386 -0.3208 -0.9520 -1.0672
25422SOL     OW76843   8.913   8.283   2.529 -0.3129  0.8082 -0.8987
25422SOL    HW176844   8.902   8.197   2.569  1.0542  0.5040 -1.1447
25422SOL    HW276845   8.942   8.339   2.601  0.0838  0.7576 -1.0208
25423SOL     OW76846   8.906   4.893   2.119  0.1488 -0.7626  0.0202
25423SOL    HW176847   8.975   4.910   2.183  0.1394 -2.2645  0.4637
25423SOL    HW276848   8.951   4.895   2.034  0.0311  1.9937 -0.0830
25424SOL     OW76849   4.049   9.220   5.189 -0.1438  0.4595 -0.2369
25424SOL    HW176850   4.045   9.148   5.127 -2.5646 -1.0065  1.4367
25424SOL    HW276851   3.977   9.277   5.164 -1.8461 -0.7004  1.7162
25425SOL     OW76852   0.177   6.009   6.042 -0.0063 -0.3243 -0.5688
25425SOL    HW176853   0.180   5.989   6.136 -0.8068  0.8663 -0.2537
25425SOL    HW276854   0.220   5.935   6.000  0.5311 -0.8028  0.7510
25426SOL     OW76855   3.393   7.567   8.029 -0.1641  0.2514 -0.1555
25426SOL    HW176856   3.320   7.627   8.010  0.0056  0.2457 -0.8546
25426SOL    HW276857   3.419   7.589   8.118  0.0449  1.3821 -0.4825
25427SOL     OW76858   3.847   5.640   5.698  0.5809  0.4889  0.3089
25427SOL    HW176859   3.846   5.707   5.630  0.4592 -0.1559 -0.3359
25427SOL    HW276860   3.755   5.617   5.710  0.6110  0.5313  0.6170
25428SOL     OW76861   4.608   1.789   9.394 -0.0157 -0.7866  0.3919
25428SOL    HW176862   4.522   1.750   9.382  0.3875 -2.0576  1.3450
25428SOL    HW276863   4.591   1.883   9.405 -1.0123 -0.6219 -2.0173
25429SOL     OW76864   0.421   1.263   2.410  0.4384 -0.2916 -0.6334
25429SOL    HW176865   0.423   1.199   2.481 -1.8055 -0.8626 -0.9804
25429SOL    HW276866   0.473   1.223   2.340  1.7284 -0.2319  0.2702
25430SOL     OW76867   8.438   3.212   5.734 -0.1837  0.3165 -0.4652
25430SOL    HW176868   8.527   3.243   5.722  0.5509 -1.6025 -0.2345
25430SOL    HW276869   8.384   3.291   5.731  1.4813  1.4655 -0.9061
25431SOL     OW76870   4.216   0.297   0.223 -0.0206 -0.0487  0.1740
25431SOL    HW176871   4.154   0.365   0.248 -0.5590  0.4980 -2.4063
25431SOL    HW276872   4.299   0.324   0.264 -0.9872  0.1987  2.1062
25432SOL     OW76873   1.387   4.770   5.858 -0.6874 -0.0048  0.2922
25432SOL    HW176874   1.321   4.704   5.836  0.3001 -0.7149 -0.6211
25432SOL    HW276875   1.471   4.723   5.854 -0.0253  1.1426  0.3358
25433SOL     OW76876   1.797   4.186   6.428  0.1303 -0.0957 -0.6659
25433SOL    HW176877   1.703   4.169   6.432  0.2340 -0.5846 -0.0382
25433SOL    HW276878   1.823   4.161   6.340 -0.0407 -1.5748 -0.3292
25434SOL     OW76879   6.709   4.329   3.347 -0.1678 -0.0109 -0.4333
25434SOL    HW176880   6.638   4.393   3.358 -0.9073 -1.1195  1.7921
25434SOL    HW276881   6.668   4.254   3.304 -0.1358 -0.3427  0.1172
25435SOL     OW76882   7.166   1.485   0.078  0.3595  0.1604  0.4660
25435SOL    HW176883   7.117   1.433   0.015  1.3484  0.5840 -0.7053
25435SOL    HW276884   7.251   1.441   0.084  0.5640  0.5995  0.8739
25436SOL     OW76885   7.323   0.925   4.511  0.2141  0.2383  0.4341
25436SOL    HW176886   7.304   1.015   4.536 -0.0119  0.3409 -0.1188
25436SOL    HW276887   7.339   0.928   4.417  1.3992 -0.1042  0.6064
25437SOL     OW76888   8.874   3.763   0.868 -0.2637  0.3776  0.2597
25437SOL    HW176889   8.887   3.855   0.846 -0.2070  0.8426  2.0859
25437SOL    HW276890   8.822   3.764   0.949  0.5466 -1.1408  0.8473
25438SOL     OW76891   7.819   5.134   9.343 -0.3196  0.2111  0.1382
25438SOL    HW176892   7.811   5.194   9.269  1.2323  0.5393  0.2011
25438SOL    HW276893   7.745   5.075   9.334  1.3026 -1.5753 -3.3808
25439SOL     OW76894   9.318   1.529   6.454 -0.2487  0.0571  0.2961
25439SOL    HW176895   9.391   1.470   6.471  0.9595  0.3937 -2.9909
25439SOL    HW276896   9.342   1.611   6.497  1.1022  0.0021 -0.3089
25440SOL     OW76897   1.873   0.211   8.233 -0.3454  0.5633 -0.0792
25440SOL    HW176898   1.816   0.181   8.162  0.9896 -1.4852 -0.3839
25440SOL    HW276899   1.956   0.232   8.189 -0.0562  0.9713  0.6602
25441SOL     OW76900   7.247   1.839   2.632  0.1073  0.5117 -0.0752
25441SOL    HW176901   7.323   1.817   2.686  1.1079  0.7341 -1.3523
25441SOL    HW276902   7.185   1.767   2.647  0.1647  0.7811  1.6711
25442SOL     OW76903   0.078   6.732   2.829  0.0260  0.1338  0.0107
25442SOL    HW176904   0.101   6.762   2.917  2.2326  1.1955 -0.8544
25442SOL    HW276905   0.134   6.784   2.771 -2.1320  0.2422 -2.1207
25443SOL     OW76906   0.979   4.525   2.348  0.0498  0.0058 -0.6460
25443SOL    HW176907   0.975   4.430   2.349  0.0904 -0.0276  1.9871
25443SOL    HW276908   0.888   4.553   2.336 -0.1899 -0.3897  0.1898
25444SOL     OW76909   2.426   4.881   1.397  0.3446  0.0097 -0.1237
25444SOL    HW176910   2.481   4.950   1.358  1.4771  0.4103  2.0255
25444SOL    HW276911   2.488   4.821   1.439 -0.7630  0.2112  1.9683
25445SOL     OW76912   0.640   6.052   0.970 -0.4571 -0.0432  0.4712
25445SOL    HW176913   0.688   6.120   1.018 -1.9516  0.0753  1.8756
25445SOL    HW276914   0.624   6.090   0.883 -0.6681  1.1298  1.0116
25446SOL     OW76915   0.135   8.985   5.106 -0.0239 -0.2667 -0.5731
25446SOL    HW176916   0.197   9.029   5.164 -0.1389  1.6636 -1.7898
25446SOL    HW276917   0.057   9.041   5.109 -0.7346 -1.2041 -1.0955
25447SOL     OW76918   9.091   0.910   6.906  0.1257  1.2399 -0.7129
25447SOL    HW176919   9.078   0.946   6.818 -0.0285  2.9715 -0.0160
25447SOL    HW276920   9.051   0.974   6.964  0.9014  0.5032  0.6825
25448SOL     OW76921   2.777   3.961   7.167 -0.0169  0.7207 -0.1681
25448SOL    HW176922   2.780   3.874   7.208  1.4067  1.5905  1.7651
25448SOL    HW276923   2.700   3.958   7.110  0.1106 -1.8585 -0.3323
25449SOL     OW76924   3.792   8.833   5.642 -0.1263  0.5270  0.2060
25449SOL    HW176925   3.728   8.892   5.603  2.6410  2.1930 -2.1557
25449SOL    HW276926   3.821   8.778   5.570  2.4006  1.0781  0.7166
25450SOL     OW76927   9.643   2.436   2.833  0.6263 -1.0639 -0.1718
25450SOL    HW176928   9.599   2.401   2.756 -0.0088  1.8973 -1.2840
25450SOL    HW276929   9.732   2.402   2.827  0.9900  0.1134 -3.0309
25451SOL     OW76930   7.001   7.974   4.975  0.1220  0.1810 -0.0119
25451SOL    HW176931   7.000   8.010   4.886 -1.2967 -0.8108 -0.4379
25451SOL    HW276932   7.005   8.050   5.032  0.5629  0.8545 -0.9180
25452SOL     OW76933   6.967   6.803   4.894  0.0446  0.0719 -0.3497
25452SOL    HW176934   6.998   6.882   4.939 -0.7915 -0.0054  0.3832
25452SOL    HW276935   6.872   6.804   4.906  0.0850 -1.3907  0.2472
25453SOL     OW76936   1.260   1.844   7.526 -0.0110 -0.5853 -0.1599
25453SOL    HW176937   1.218   1.914   7.575 -1.4118 -0.7555 -1.0409
25453SOL    HW276938   1.248   1.869   7.434  2.6003 -0.2352 -0.4855
25454SOL     OW76939   7.763   5.471   5.549 -0.2959 -0.0057 -0.6055
25454SOL    HW176940   7.741   5.426   5.468 -1.7281 -3.3939  1.4457
25454SOL    HW276941   7.845   5.429   5.578 -1.6136 -1.5091  1.3029
25455SOL     OW76942   6.586   1.121   6.505 -0.4368 -0.3985 -1.2766
25455SOL    HW176943   6.516   1.062   6.533  0.1930 -0.5960 -0.0093
25455SOL    HW276944   6.576   1.198   6.561 -0.1677 -0.0733 -1.6761
25456SOL     OW76945   7.070   0.751   9.429 -0.5387 -0.1145  0.0195
25456SOL    HW176946   7.030   0.736   9.514 -0.2020  0.7778  0.3493
25456SOL    HW276947   7.005   0.721   9.366 -0.1051 -2.4392  0.5882
25457SOL     OW76948   3.553   7.039   7.448  0.2719  0.4414  0.1219
25457SOL    HW176949   3.643   7.011   7.435  0.3757 -0.3715  2.2615
25457SOL    HW276950   3.557   7.099   7.523 -0.4943  3.3120 -1.9662
25458SOL     OW76951   0.999   3.119   1.812 -0.1774  0.0797 -0.1446
25458SOL    HW176952   0.956   3.061   1.750  0.1081 -0.3967  0.0905
25458SOL    HW276953   1.031   3.192   1.759 -0.1145 -0.2219 -0.5275
25459SOL     OW76954   4.876   8.437   9.689 -0.2267  0.5482  0.0039
25459SOL    HW176955   4.933   8.367   9.718  1.4202  0.6918 -2.4964
25459SOL    HW276956   4.905   8.514   9.738  1.3713  0.4667 -0.7327
25460SOL     OW76957   0.914   4.710   8.801  0.4364 -0.5889  0.3429
25460SOL    HW176958   0.926   4.646   8.730  0.3658 -1.9768  1.5309
25460SOL    HW276959   0.945   4.664   8.879 -0.5731  0.4835  1.4010
25461SOL     OW76960   0.678   6.268   0.370 -0.1085 -0.3645 -0.3927
25461SOL    HW176961   0.736   6.201   0.405 -0.0679 -0.7135 -1.1108
25461SOL    HW276962   0.669   6.332   0.441 -1.0669 -1.6822  0.7120
25462SOL     OW76963   6.729   9.944   5.556 -0.0954 -0.5492 -0.0816
25462SOL    HW176964   6.678   9.997   5.494 -1.8945 -2.1847 -0.1059
25462SOL    HW276965   6.781   9.886   5.500 -1.4493 -1.7764 -0.1375
25463SOL     OW76966   8.869   6.298   3.709  0.0906  0.4933  0.2583
25463SOL    HW176967   8.940   6.287   3.646 -1.2789 -0.6013 -1.1781
25463SOL    HW276968   8.906   6.354   3.777  1.7987  1.3113 -1.2496
25464SOL     OW76969   9.354   5.049   6.300 -0.1762 -0.6446 -0.5195
25464SOL    HW176970   9.432   5.033   6.247 -0.9390 -1.5378 -1.4244
25464SOL    HW276971   9.308   4.965   6.302 -0.0760 -0.7043  1.7809
25465SOL     OW76972   9.924   9.169   0.521 -0.3733 -0.8971  0.1401
25465SOL    HW176973   9.971   9.236   0.471 -2.2263 -0.3883 -1.0540
25465SOL    HW276974   9.991   9.105   0.545  0.9900  0.0066 -1.0718
25466SOL     OW76975   4.458   0.289   7.165  0.1889  0.1629 -0.6434
25466SOL    HW176976   4.521   0.220   7.144 -0.5739  0.4708 -4.7194
25466SOL    HW276977   4.373   0.243   7.166 -0.0489  0.5951 -0.7554
25467SOL     OW76978   6.773   5.394   8.071  0.3615 -0.2326  0.0317
25467SOL    HW176979   6.737   5.319   8.023 -2.7749  0.8072  0.5566
25467SOL    HW276980   6.716   5.467   8.048  1.8217  1.4536  1.4727
25468SOL     OW76981   3.720   5.264   0.112 -0.8134 -0.1080 -0.3210
25468SOL    HW176982   3.683   5.176   0.106  0.4223 -0.5528 -2.0807
25468SOL    HW276983   3.644   5.321   0.114 -1.6556 -1.1934  1.3705
25469SOL     OW76984   8.910   5.360   8.846  0.3840  0.3153 -0.9800
25469SOL    HW176985   8.873   5.447   8.838 -0.8486  0.0806  1.3102
25469SOL    HW276986   8.857   5.305   8.788 -1.0091  0.5265  0.0453
25470SOL     OW76987   0.556   2.284   7.035 -0.3422 -0.1146 -0.0198
25470SOL    HW176988   0.637   2.264   6.988  0.0724  0.0762  0.6005
25470SOL    HW276989   0.537   2.375   7.013  0.8246  0.5590  1.5455
25471SOL     OW76990   0.323   8.032   1.909 -0.4004 -0.2712 -0.2029
25471SOL    HW176991   0.376   7.952   1.912 -1.3819 -0.9336 -0.1867
25471SOL    HW276992   0.235   8.002   1.884 -0.7431  0.8239 -0.3709
25472SOL     OW76993   5.866   2.594   1.309  0.3901  0.1264  0.4372
25472SOL    HW176994   5.910   2.540   1.243  1.1549 -1.1820  1.9487
25472SOL    HW276995   5.889   2.684   1.285 -0.9761 -0.1376 -2.1812
25473SOL     OW76996   5.964   0.856   7.087 -0.1501  0.4757  0.1602
25473SOL    HW176997   5.928   0.770   7.065 -0.0654  0.6028 -0.5132
25473SOL    HW276998   6.032   0.870   7.021 -0.1118  1.0276  0.3146
25474SOL     OW76999   7.989   6.881   6.996 -0.0246  0.2178 -0.2394
25474SOL    HW177000   7.986   6.963   6.947  0.2112 -1.0222 -2.4558
25474SOL    HW277001   7.910   6.834   6.970 -0.0220 -0.3887  0.7861
25475SOL     OW77002   0.849   6.069   7.686 -0.1479  0.1728 -0.2474
25475SOL    HW177003   0.850   6.073   7.782 -1.9817  2.1535 -0.2350
25475SOL    HW277004   0.764   6.031   7.664 -0.0819  0.4845 -1.0863
25476SOL     OW77005   8.791   3.026   5.215  0.1358 -0.1965 -0.4381
25476SOL    HW177006   8.867   2.990   5.168  1.4358 -0.4736  1.7583
25476SOL    HW277007   8.716   2.987   5.170  1.3017 -0.8625 -1.9339
25477SOL     OW77008   1.741   2.263   1.739 -0.0718  0.0602 -0.4510
25477SOL    HW177009   1.802   2.333   1.715  0.1123 -0.9141 -3.0869
25477SOL    HW277010   1.686   2.302   1.808  0.6440  2.4661 -1.1537
25478SOL     OW77011   6.732   8.349   1.187  0.3341  0.0437  0.4896
25478SOL    HW177012   6.689   8.321   1.267  0.6925 -0.6763  0.4447
25478SOL    HW277013   6.718   8.276   1.126 -2.4823  1.7360 -1.1187
25479SOL     OW77014   8.282   6.402   5.383  0.6875  0.1487 -0.4648
25479SOL    HW177015   8.319   6.468   5.442  0.5123  0.6141 -0.8648
25479SOL    HW277016   8.283   6.444   5.297 -0.7055  0.1677 -0.5028
25480SOL     OW77017   2.891   8.379   4.747 -0.1607  0.0899 -0.4895
25480SOL    HW177018   2.889   8.433   4.669 -0.6883  0.5836 -0.1418
25480SOL    HW277019   2.959   8.419   4.802 -0.0721 -0.0150 -0.5221
25481SOL     OW77020   8.577   9.799   9.164 -0.2179 -0.2723 -0.0746
25481SOL    HW177021   8.570   9.802   9.260 -2.0262  0.8745 -0.2024
25481SOL    HW277022   8.662   9.839   9.145 -0.6328  1.1737  0.9813
25482SOL     OW77023   8.584   4.095   7.949  0.1329 -0.2949  0.4608
25482SOL    HW177024   8.571   4.065   8.039 -0.4888  0.4193  0.6112
25482SOL    HW277025   8.647   4.167   7.957  1.4637 -1.3773  0.1210
25483SOL     OW77026   6.692   6.962   7.088  0.1671 -0.2665 -0.2603
25483SOL    HW177027   6.776   7.007   7.079  0.8748 -1.6054 -0.6286
25483SOL    HW277028   6.649   7.005   7.161  0.2634  1.8232 -1.3604
25484SOL     OW77029   6.777   4.680   9.800 -0.2694 -0.3414 -0.3999
25484SOL    HW177030   6.816   4.759   9.763 -0.3377 -0.1791 -0.1278
25484SOL    HW277031   6.851   4.624   9.821 -0.2125 -0.2692 -0.4107
25485SOL     OW77032   2.925   6.675   6.907 -0.1236 -0.7023  0.4341
25485SOL    HW177033   2.852   6.727   6.940 -1.5221 -0.5588 -2.5219
25485SOL    HW277034   2.914   6.589   6.948 -1.4692 -0.4365  0.6792
25486SOL     OW77035   8.283   4.668   9.511  0.2246  0.0569 -0.5865
25486SOL    HW177036   8.198   4.691   9.472  0.1197  1.8735  0.6449
25486SOL    HW277037   8.346   4.723   9.466  0.4211  0.4582  0.1698
25487SOL     OW77038   1.374   8.809   4.827 -0.0565 -0.6204  0.1964
25487SOL    HW177039   1.412   8.812   4.739  0.1136 -0.5607  0.2714
25487SOL    HW277040   1.418   8.736   4.869  0.1526 -0.4007  0.3640
25488SOL     OW77041   8.611   1.429   9.426  0.3257 -0.4588 -0.8548
25488SOL    HW177042   8.647   1.364   9.486  0.4531 -1.5818 -2.0739
25488SOL    HW277043   8.606   1.383   9.342 -3.9249 -0.4819 -0.8403
25489SOL     OW77044   7.780   9.313   7.174  0.1083  0.3490  0.4801
25489SOL    HW177045   7.809   9.257   7.102  1.8366  1.2331  0.4343
25489SOL    HW277046   7.752   9.394   7.132 -1.6785 -0.1491  0.6099
25490SOL     OW77047   0.670   6.900   6.136 -0.0637  0.0176 -0.4190
25490SOL    HW177048   0.645   6.808   6.152 -0.3536  0.0064 -0.9249
25490SOL    HW277049   0.710   6.899   6.049  0.9476  0.1863  0.0299
25491SOL     OW77050   1.949   8.956   3.139 -0.3074  0.1802  0.5056
25491SOL    HW177051   1.900   8.989   3.064  0.9227  1.3035  0.1844
25491SOL    HW277052   1.924   9.013   3.211  0.3258  0.5909  0.4011
25492SOL     OW77053   3.756   9.535   7.938  0.2383  0.0673 -0.5986
25492SOL    HW177054   3.708   9.610   7.974  1.1119  0.3042  0.1129
25492SOL    HW277055   3.834   9.573   7.899 -0.1762 -0.3042 -1.8408
25493SOL     OW77056   4.267   6.201   6.593  0.8651  0.2235  0.1315
25493SOL    HW177057   4.289   6.251   6.671  1.4404 -0.6414  0.5434
25493SOL    HW277058   4.209   6.131   6.624 -0.5462  1.0539 -0.5574
25494SOL     OW77059   9.759   4.924   5.375 -0.4555 -0.1131  0.4372
25494SOL    HW177060   9.709   5.005   5.385 -0.6049 -0.1069 -0.2513
25494SOL    HW277061   9.697   4.863   5.334 -0.1774 -0.3941  0.4323
25495SOL     OW77062   5.091   1.707   4.582 -0.1863  0.1240 -0.0037
25495SOL    HW177063   5.126   1.715   4.493  0.3193  1.2949  0.2793
25495SOL    HW277064   5.166   1.678   4.634 -0.0870  0.9011  0.2938
25496SOL     OW77065   1.369   0.293   9.593  0.0948  0.1840 -0.5751
25496SOL    HW177066   1.276   0.299   9.612 -0.0220  0.2402 -1.1455
25496SOL    HW277067   1.373   0.259   9.503  0.6014  1.0445 -0.8906
25497SOL     OW77068   6.108   2.377   0.882 -0.7375  0.1412  0.2371
25497SOL    HW177069   6.198   2.407   0.872 -0.6643  0.2397  1.0706
25497SOL    HW277070   6.057   2.433   0.823  0.1320 -2.3939 -3.2310
25498SOL     OW77071   3.858   7.105   3.066  0.0612  0.5884 -0.1637
25498SOL    HW177072   3.885   7.033   3.122 -0.9085  1.5483  1.6415
25498SOL    HW277073   3.799   7.065   3.002 -2.6988  0.0592  2.4855
25499SOL     OW77074   8.450   3.024   3.533  0.5974 -0.2828 -0.6543
25499SOL    HW177075   8.427   3.094   3.472  2.9755  1.9501  0.7942
25499SOL    HW277076   8.385   3.031   3.602 -0.3038 -0.8042 -1.4294
25500SOL     OW77077   7.900   5.230   8.096  0.5429  0.0717 -0.8248
25500SOL    HW177078   7.846   5.182   8.158  0.8118  0.4152 -0.3196
25500SOL    HW277079   7.837   5.277   8.041  0.3248  2.0972  1.0532
25501SOL     OW77080   0.969   5.431   6.090 -0.0292  0.3780  0.5417
25501SOL    HW177081   0.930   5.372   6.154  0.4130 -1.7397 -1.0223
25501SOL    HW277082   1.049   5.387   6.062  0.6575  2.0377 -0.2496
25502SOL     OW77083   7.188   8.462   4.123  0.0505  0.1699 -0.2240
25502SOL    HW177084   7.236   8.543   4.107 -0.3496  0.0816 -2.1083
25502SOL    HW277085   7.245   8.393   4.090 -0.4718 -0.1183 -0.5436
25503SOL     OW77086   8.791   6.270   4.207  0.1470  0.4205 -0.4779
25503SOL    HW177087   8.821   6.283   4.297 -0.1554 -2.5009  0.1520
25503SOL    HW277088   8.843   6.196   4.175 -1.3041 -0.0508 -1.8872
25504SOL     OW77089   0.188   5.629   6.875 -0.1294  0.0905  0.0127
25504SOL    HW177090   0.263   5.679   6.844  1.1442 -0.2784  2.3235
25504SOL    HW277091   0.178   5.558   6.812  1.2482  0.3270 -0.4951
25505SOL     OW77092   1.292   4.592   1.689  0.7010  0.1912  0.1095
25505SOL    HW177093   1.290   4.683   1.657  0.8754  0.9699  2.1459
25505SOL    HW277094   1.364   4.551   1.642  0.1737  0.9019 -1.3610
25506SOL     OW77095   0.737   2.838   7.914 -0.1755  0.1641  0.5015
25506SOL    HW177096   0.766   2.921   7.874 -2.0649  0.7210  0.1655
25506SOL    HW277097   0.796   2.772   7.878  0.1954  1.1117 -0.7010
25507SOL     OW77098   1.715   4.400   0.065  0.1096  0.5088 -0.4484
25507SOL    HW177099   1.691   4.430  -0.022 -0.7704  0.4816 -0.2240
25507SOL    HW277100   1.752   4.313   0.052  0.4844  0.7256 -0.8451
25508SOL     OW77101   0.738   0.948   7.195  0.2265  0.4783  0.3588
25508SOL    HW177102   0.737   0.960   7.100 -1.5127 -0.4679  0.2283
25508SOL    HW277103   0.728   1.037   7.231  0.1195  0.7491 -0.3346
25509SOL     OW77104   8.034   4.097   4.853  0.3564 -0.4371 -0.0343
25509SOL    HW177105   8.129   4.099   4.849  0.3781 -1.4387 -0.5037
25509SOL    HW277106   8.014   4.016   4.901 -0.2508 -0.5437 -0.4477
25510SOL     OW77107   0.825   6.283   5.421 -0.0780  0.5102  0.1553
25510SOL    HW177108   0.844   6.314   5.510  0.2265  0.2045  0.1980
25510SOL    HW277109   0.732   6.260   5.424 -0.0551  0.4406  0.4136
25511SOL     OW77110   6.335   5.928   7.682 -0.1708  0.1634 -0.1416
25511SOL    HW177111   6.254   5.941   7.633  0.8395  2.0029 -1.4537
25511SOL    HW277112   6.401   5.975   7.631  1.5133 -0.3858  1.4484
25512SOL     OW77113   2.792   6.041   4.309  0.5217 -0.3633 -0.1434
25512SOL    HW177114   2.851   5.967   4.324 -0.8862 -1.9336 -1.8034
25512SOL    HW277115   2.709   6.000   4.284 -0.9101  1.7800  0.8207
25513SOL     OW77116   7.224   7.198   6.159 -0.5788  0.0707 -0.0293
25513SOL    HW177117   7.287   7.127   6.146  1.7963  1.9895  0.2874
25513SOL    HW277118   7.189   7.183   6.247 -0.4440 -0.9488 -0.1405
25514SOL     OW77119   6.676   5.614   5.379  0.0758 -0.5232  0.1546
25514SOL    HW177120   6.584   5.624   5.354 -0.5317 -2.0235  1.5973
25514SOL    HW277121   6.672   5.570   5.465  2.1298 -0.1787  0.4575
25515SOL     OW77122   9.403   2.852   1.835 -0.3601  0.3169 -0.2192
25515SOL    HW177123   9.328   2.829   1.891 -2.2486  0.5330 -2.5140
25515SOL    HW277124   9.396   2.946   1.823 -0.5919  0.1457 -1.5769
25516SOL     OW77125   3.596   9.172   8.027  0.5197 -0.8209  0.3959
25516SOL    HW177126   3.643   9.156   8.108 -1.1607 -0.3488  1.5080
25516SOL    HW277127   3.536   9.098   8.018  0.2224 -0.5342 -0.0637
25517SOL     OW77128   0.573   6.074   5.546  0.5650 -0.1001 -0.5199
25517SOL    HW177129   0.623   6.077   5.627  0.7663  2.4948 -0.6493
25517SOL    HW277130   0.621   6.014   5.489  1.2743 -0.7468  0.7395
25518SOL     OW77131   3.247   8.727   8.531 -0.6670 -0.3625 -0.0883
25518SOL    HW177132   3.229   8.765   8.617 -2.4409 -2.0437  0.3546
25518SOL    HW277133   3.308   8.789   8.490  0.1232  0.5746  2.2853
25519SOL     OW77134   3.297   9.268   3.686  0.3621  0.6270 -0.0019
25519SOL    HW177135   3.325   9.280   3.595 -1.0146 -0.6768 -0.6378
25519SOL    HW277136   3.207   9.301   3.687  0.1038 -0.0917  0.6907
25520SOL     OW77137   7.553   8.364   2.038 -0.3315  0.6795  0.1980
25520SOL    HW177138   7.542   8.326   1.951  2.7020 -1.8072  0.7345
25520SOL    HW277139   7.641   8.400   2.038 -0.5381  1.2924  2.0271
25521SOL     OW77140   4.695   7.336   6.286  0.0394  0.7503 -0.9314
25521SOL    HW177141   4.713   7.260   6.232 -1.6832  1.3464 -2.4340
25521SOL    HW277142   4.600   7.334   6.300  0.0751  2.1442 -0.2869
25522SOL     OW77143   2.461   3.823   4.973 -0.3964 -0.0214 -0.1984
25522SOL    HW177144   2.402   3.872   5.030 -0.8999 -0.0918 -0.6513
25522SOL    HW277145   2.424   3.735   4.970 -0.9199  0.2264 -1.3832
25523SOL     OW77146   9.087   1.925   9.162 -0.5007  0.3790 -0.1615
25523SOL    HW177147   9.087   1.859   9.231 -0.4959  1.1621  0.5991
25523SOL    HW277148   9.020   1.894   9.100  0.2204 -0.8634 -0.3446
25524SOL     OW77149   9.033   0.600   3.981  0.1462 -0.2513  0.0451
25524SOL    HW177150   9.103   0.596   3.915 -0.0658 -0.9160 -0.1489
25524SOL    HW277151   9.063   0.541   4.051  0.0574 -0.0672  0.2408
25525SOL     OW77152   6.389   3.545   3.731  0.8030 -0.0855 -0.0246
25525SOL    HW177153   6.377   3.621   3.673  2.4845 -0.1662 -0.5488
25525SOL    HW277154   6.466   3.568   3.784  1.8471 -1.7307 -0.7467
25526SOL     OW77155   0.684   0.295   8.870  0.0944  0.2273 -0.2900
25526SOL    HW177156   0.686   0.228   8.802 -0.5266 -1.4981  1.3262
25526SOL    HW277157   0.730   0.256   8.944  0.2182  1.8163  0.5163
25527SOL     OW77158   8.050   4.059   9.605  0.2297 -0.0071 -0.4016
25527SOL    HW177159   7.986   4.119   9.567  0.9323  0.8345 -0.2997
25527SOL    HW277160   8.022   4.051   9.697  0.4331  0.6085 -0.2764
25528SOL     OW77161   8.007   1.901   5.883  0.1451 -0.6951  0.1538
25528SOL    HW177162   7.930   1.884   5.828  0.7621  0.4276 -1.1227
25528SOL    HW277163   7.988   1.985   5.925  0.5112 -0.5982  0.1260
25529SOL     OW77164   4.803   7.514   7.462 -0.3931  0.6625 -0.1067
25529SOL    HW177165   4.788   7.482   7.373  1.1608 -1.4931  0.3281
25529SOL    HW277166   4.727   7.483   7.512 -0.2576  0.0208 -0.2829
25530SOL     OW77167   0.899   2.621   2.378 -0.5277 -0.1289  0.3058
25530SOL    HW177168   0.956   2.647   2.306  1.0379 -0.9062  1.2054
25530SOL    HW277169   0.876   2.530   2.360 -0.0904 -0.3426  0.7957
25531SOL     OW77170   4.103   0.364   8.076 -0.3719 -0.4645  0.0011
25531SOL    HW177171   4.115   0.366   7.981  1.5875 -0.9343  0.1944
25531SOL    HW277172   4.136   0.278   8.103  0.6174  0.2649  1.2564
25532SOL     OW77173   2.779   1.627   1.852 -0.1905  0.3670  0.7814
25532SOL    HW177174   2.787   1.594   1.762 -0.5139 -0.5447  1.0754
25532SOL    HW277175   2.835   1.569   1.904 -0.7624  0.2776  1.3074
25533SOL     OW77176   4.140   4.671   5.956  0.8126 -0.4345  0.0233
25533SOL    HW177177   4.058   4.624   5.943  2.4303 -4.2930  2.1029
25533SOL    HW277178   4.123   4.728   6.031  0.4484 -2.7547  1.8175
25534SOL     OW77179   4.251   7.734   7.512 -0.1029  0.2729 -0.4901
25534SOL    HW177180   4.174   7.742   7.455  0.1520  0.5192 -0.8016
25534SOL    HW277181   4.312   7.800   7.479  0.7504 -0.7770 -1.0473
25535SOL     OW77182   7.428   2.949   2.941  0.2220 -0.3002 -0.2758
25535SOL    HW177183   7.417   2.977   2.850 -1.1751 -1.0351 -0.3637
25535SOL    HW277184   7.475   2.866   2.935  1.1446  0.2046 -0.2369
25536SOL     OW77185   1.795   1.338   7.339 -0.5279  0.0508  0.6980
25536SOL    HW177186   1.709   1.297   7.325  0.1925 -1.4013  0.3842
25536SOL    HW277187   1.841   1.326   7.257 -0.0888  1.0649  0.7769
25537SOL     OW77188   3.520   6.860   0.505 -0.4233  0.2238  0.0490
25537SOL    HW177189   3.440   6.822   0.541 -1.4068  0.8759 -1.3266
25537SOL    HW277190   3.589   6.831   0.564 -1.4861 -1.4382  0.5631
25538SOL     OW77191   8.413   1.113   6.685  0.4058 -0.4377  0.7560
25538SOL    HW177192   8.507   1.104   6.700  0.5999 -0.6814 -0.5095
25538SOL    HW277193   8.383   1.170   6.756  1.6015  0.0986  0.8533
25539SOL     OW77194   4.304   3.311   8.031  0.0554  0.8354  0.2709
25539SOL    HW177195   4.359   3.386   8.006 -0.9331  1.8503  1.0069
25539SOL    HW277196   4.233   3.311   7.967  0.4016  0.1098 -0.1174
25540SOL     OW77197   9.563   6.142   0.402  0.1050  0.2989  0.0638
25540SOL    HW177198   9.551   6.078   0.332  1.9862  1.4107 -1.3708
25540SOL    HW277199   9.475   6.171   0.423 -0.6255 -1.1952 -0.7287
25541SOL     OW77200   8.829   1.190   5.834  0.3478  0.0496  0.0487
25541SOL    HW177201   8.739   1.212   5.858  0.3430  0.6828 -0.5140
25541SOL    HW277202   8.820   1.143   5.751  0.5099 -0.2557  0.2015
25542SOL     OW77203   5.964   3.402   5.458 -0.0377  0.0085  0.3463
25542SOL    HW177204   6.038   3.462   5.448  0.0325  0.2310  1.8482
25542SOL    HW277205   6.003   3.322   5.495 -0.4088 -0.2301  0.2311
25543SOL     OW77206   4.058   3.885   4.316  0.2701  0.0086 -0.1254
25543SOL    HW177207   4.009   3.862   4.395  0.9622 -0.1821  0.2532
25543SOL    HW277208   4.101   3.804   4.290  0.0458  0.0732 -0.6970
25544SOL     OW77209   2.752   1.334   4.504  0.4559  0.2438  0.4972
25544SOL    HW177210   2.774   1.410   4.557  1.1794  1.2308 -1.1212
25544SOL    HW277211   2.836   1.289   4.491  0.3998  0.3235 -0.2141
25545SOL     OW77212   7.950   5.847   6.425  0.3570  0.0208  0.0406
25545SOL    HW177213   8.044   5.845   6.445  0.1257 -1.7694  1.2286
25545SOL    HW277214   7.945   5.879   6.335  2.0551  0.7467  0.1639
25546SOL     OW77215   1.645   6.730   6.255 -0.7798 -0.0430 -0.4957
25546SOL    HW177216   1.570   6.766   6.209 -0.3740  0.9126 -0.4289
25546SOL    HW277217   1.713   6.721   6.188 -0.5668  0.2383 -0.3179
25547SOL     OW77218   8.108   4.976   4.545 -0.4922  0.4705 -0.3304
25547SOL    HW177219   8.084   4.999   4.455  1.0951 -0.1756 -0.9489
25547SOL    HW277220   8.188   4.924   4.536 -0.0228  0.8178  1.4869
25548SOL     OW77221   5.094   5.191   2.151  0.1691 -0.5893 -0.2502
25548SOL    HW177222   5.066   5.275   2.116 -0.2366 -0.6952 -0.1944
25548SOL    HW277223   5.033   5.174   2.223 -0.3483 -1.3637 -0.8462
25549SOL     OW77224   4.817   9.180   8.969 -0.0878 -0.8670 -0.0905
25549SOL    HW177225   4.873   9.102   8.977  1.0881 -0.0796 -0.5138
25549SOL    HW277226   4.738   9.147   8.926  0.7423 -1.6729 -1.0550
25550SOL     OW77227   6.250   4.887   9.707  1.0303 -0.3882  0.2397
25550SOL    HW177228   6.242   4.797   9.737 -0.4272 -0.2358  0.3813
25550SOL    HW277229   6.273   4.937   9.786  0.5761 -0.4554  0.4125
25551SOL     OW77230   0.005   1.048   9.907 -0.2486  0.0223  0.1794
25551SOL    HW177231   0.070   1.112   9.877 -1.0875  1.0159  0.4594
25551SOL    HW277232  -0.044   1.093   9.975 -1.0219 -0.8427  0.2117
25552SOL     OW77233   6.081   4.368   5.478  0.6486 -0.1936 -0.1617
25552SOL    HW177234   6.004   4.311   5.473  0.0586  0.6189 -0.6996
25552SOL    HW277235   6.082   4.414   5.394  1.3178  0.3298  0.1184
25553SOL     OW77236   9.890   8.352   2.156  0.1328 -0.4880 -0.0086
25553SOL    HW177237   9.959   8.304   2.203 -0.1428 -0.1046  0.7974
25553SOL    HW277238   9.918   8.350   2.065  1.0500 -0.6211  0.2655
25554SOL     OW77239   0.678   4.469   5.295  0.0497  0.4977 -0.1746
25554SOL    HW177240   0.670   4.534   5.226 -1.1350 -0.3617 -0.8932
25554SOL    HW277241   0.754   4.416   5.270  0.5654  1.1381  0.0220
25555SOL     OW77242   8.930   9.799   1.619  0.6006 -0.4783 -0.6082
25555SOL    HW177243   8.986   9.846   1.558  0.2633  0.1697 -0.4344
25555SOL    HW277244   8.902   9.720   1.572  1.2213 -0.5358 -0.8833
25556SOL     OW77245   1.516   3.479   8.619 -0.1987  0.2140 -0.1157
25556SOL    HW177246   1.604   3.445   8.634 -0.6487 -0.1870  1.8810
25556SOL    HW277247   1.501   3.540   8.691 -1.9602 -0.5538  0.2197
25557SOL     OW77248   8.569   5.966   1.839  0.5214  0.0981  0.3836
25557SOL    HW177249   8.616   5.939   1.918 -0.1550  1.6357  1.3684
25557SOL    HW277250   8.493   5.908   1.835  1.6479 -1.4034 -0.3832
25558SOL     OW77251   9.057   4.970   8.668  0.3428  0.2246  0.0636
25558SOL    HW177252   8.990   4.934   8.609  0.6235  0.0763 -0.1676
25558SOL    HW277253   9.092   4.893   8.714  0.9025  0.2047 -0.3870
25559SOL     OW77254   3.894   3.223   8.903  0.2702  1.0596 -0.4908
25559SOL    HW177255   3.888   3.203   8.810 -1.2698 -0.9629 -0.0389
25559SOL    HW277256   3.846   3.306   8.913 -2.3162 -0.2644 -1.1402
25560SOL     OW77257   6.207   2.961   9.109  0.0044 -0.0701  0.0969
25560SOL    HW177258   6.188   2.995   9.022 -0.6739 -1.4749 -0.3232
25560SOL    HW277259   6.141   2.893   9.124  1.1923 -1.0674  0.9824
25561SOL     OW77260   3.936   7.988   2.693 -0.0139 -0.1844 -0.1390
25561SOL    HW177261   3.930   7.969   2.787  0.5847 -0.0322 -0.0643
25561SOL    HW277262   3.850   7.967   2.658 -0.5637  0.7353  0.6291
25562SOL     OW77263   2.500   9.200   9.817 -0.1752 -0.2276 -0.2085
25562SOL    HW177264   2.495   9.108   9.841 -1.1176  0.1571  1.1344
25562SOL    HW277265   2.410   9.225   9.796  0.0866  0.3751 -0.6641
25563SOL     OW77266   9.374   7.552   0.506 -0.2976 -0.0425  0.1675
25563SOL    HW177267   9.431   7.487   0.548 -1.2258 -0.8090  0.2795
25563SOL    HW277268   9.359   7.517   0.419 -2.1677 -0.8825  0.7804
25564SOL     OW77269   1.238   5.588   8.042  0.4728  0.4150 -0.1522
25564SOL    HW177270   1.284   5.522   8.093 -0.3917  0.0713  0.2029
25564SOL    HW277271   1.147   5.557   8.040  0.2803  1.0069 -0.9440
25565SOL     OW77272   6.342   7.691   8.950  0.4449  0.1218 -0.2889
25565SOL    HW177273   6.398   7.666   8.877  0.6871  0.0947 -0.0953
25565SOL    HW277274   6.261   7.722   8.909  0.6664  0.3242 -0.5782
25566SOL     OW77275   9.491   4.837   7.298 -0.1384 -0.1493  0.1559
25566SOL    HW177276   9.584   4.824   7.320 -0.3731 -1.7909  0.2991
25566SOL    HW277277   9.444   4.815   7.378 -0.7595 -1.6991 -0.5902
25567SOL     OW77278   5.864   5.912   8.125 -0.7601  0.6120 -0.2420
25567SOL    HW177279   5.936   5.974   8.140 -0.7501  0.3367  0.9815
25567SOL    HW277280   5.878   5.879   8.037  1.4509 -0.4787  0.4467
25568SOL     OW77281   6.011   2.381   4.236  0.3692  0.0333  0.2316
25568SOL    HW177282   5.922   2.361   4.267  0.8290 -4.3889 -0.5838
25568SOL    HW277283   6.068   2.324   4.288  2.5431  1.2482 -0.6770
25569SOL     OW77284   4.719   2.831   8.551  0.4463 -0.0279  0.2819
25569SOL    HW177285   4.751   2.921   8.547  2.0692 -0.5904  0.0241
25569SOL    HW277286   4.691   2.811   8.462  0.0764  0.2134  0.3417
25570SOL     OW77287   4.742   1.265   8.446 -0.4234 -0.3687 -0.2230
25570SOL    HW177288   4.723   1.177   8.476 -0.1044 -1.3596 -2.6915
25570SOL    HW277289   4.821   1.256   8.392  0.5096  1.7086  0.6528
25571SOL     OW77290   8.850   7.412   4.665 -0.0561  0.4085 -0.2922
25571SOL    HW177291   8.783   7.372   4.610  0.3902 -0.4556 -0.2255
25571SOL    HW277292   8.831   7.506   4.662 -1.4675  0.1557  0.0064
25572SOL     OW77293   9.880   9.338   0.033 -0.5136 -0.3057  0.2184
25572SOL    HW177294   9.860   9.269  -0.030 -2.4382 -0.5919  1.0663
25572SOL    HW277295   9.800   9.392   0.035  0.3296  0.9682  0.8013
25573SOL     OW77296   6.312   3.303   9.444 -0.1949 -0.7435  0.0878
25573SOL    HW177297   6.405   3.300   9.465 -0.4308  1.1723  1.6188
25573SOL    HW277298   6.268   3.314   9.528 -1.7018 -0.0743 -0.7390
25574SOL     OW77299   9.738   3.873   2.977  0.1629  0.0472 -0.2463
25574SOL    HW177300   9.718   3.898   2.887  0.4242  0.6301 -0.1479
25574SOL    HW277301   9.687   3.934   3.030 -0.6068 -0.8031  0.0092
25575SOL     OW77302   3.232   7.576   9.558 -0.1305  0.0911 -0.5770
25575SOL    HW177303   3.166   7.511   9.580 -0.8489  0.5527 -1.2698
25575SOL    HW277304   3.315   7.534   9.576 -0.6144 -0.2912  0.8968
25576SOL     OW77305   7.739   7.837   1.698  0.4793 -0.4859  0.0106
25576SOL    HW177306   7.692   7.835   1.782 -0.0477  0.3695 -0.2468
25576SOL    HW277307   7.761   7.930   1.686  1.4454 -0.7487 -0.3133
25577SOL     OW77308   3.599   2.044   8.739 -0.4433  0.1053  0.0850
25577SOL    HW177309   3.596   1.990   8.661 -0.9227 -1.1290  0.9274
25577SOL    HW277310   3.667   2.004   8.793 -0.5702  0.5462  0.5756
25578SOL     OW77311   6.156   2.382   9.969 -0.1261 -0.6710 -0.2260
25578SOL    HW177312   6.241   2.392  10.012 -0.2742 -0.8009  0.1076
25578SOL    HW277313   6.177   2.359   9.879  0.1931 -0.5291 -0.1902
25579SOL     OW77314   3.553   9.672   9.345  0.0240  0.0284  0.0641
25579SOL    HW177315   3.495   9.715   9.409 -1.5175  0.7113 -1.6900
25579SOL    HW277316   3.623   9.736   9.329 -0.2764  0.3840  0.1490
25580SOL     OW77317   1.736   7.472   4.297 -0.1071  0.2577  0.0995
25580SOL    HW177318   1.832   7.476   4.292 -0.1638  0.7415 -0.8668
25580SOL    HW277319   1.708   7.563   4.296 -0.6005  0.1059 -0.3474
25581SOL     OW77320   0.133   2.913   1.645 -0.1920  0.0169  0.4304
25581SOL    HW177321   0.069   2.850   1.613 -1.3372  1.7309 -0.7906
25581SOL    HW277322   0.218   2.873   1.624 -0.8719 -1.2276 -0.0567
25582SOL     OW77323   2.099   5.578   3.083  0.3100  0.0084  0.4666
25582SOL    HW177324   2.108   5.488   3.115  0.9275 -0.7849 -1.7237
25582SOL    HW277325   2.135   5.575   2.994 -1.6057  1.9407 -0.4550
25583SOL     OW77326   6.373   3.131   2.735 -0.0349 -0.0328  0.2496
25583SOL    HW177327   6.294   3.181   2.756  0.5584  0.7511  0.6865
25583SOL    HW277328   6.424   3.134   2.816  0.5053 -0.4044 -0.0791
25584SOL     OW77329   5.806   7.558   4.482  0.1400  0.5973  0.7132
25584SOL    HW177330   5.893   7.593   4.501  1.3277 -1.6629 -0.1768
25584SOL    HW277331   5.796   7.485   4.544 -0.3860 -0.2218 -0.3112
25585SOL     OW77332   3.473   2.508   3.913  0.1665 -0.0132  0.3669
25585SOL    HW177333   3.540   2.555   3.863 -0.2665 -0.2941 -0.5050
25585SOL    HW277334   3.432   2.449   3.849  0.4655 -1.3435  1.3596
25586SOL     OW77335   8.333   0.472   1.281 -0.3790 -0.3090 -0.2199
25586SOL    HW177336   8.253   0.421   1.266 -2.5884  2.3539  1.5522
25586SOL    HW277337   8.379   0.425   1.351 -1.6749 -0.5933  0.4676
25587SOL     OW77338   6.623   2.011   5.497  0.2026  0.0406 -0.1536
25587SOL    HW177339   6.645   2.095   5.457 -0.8768  0.4925  0.1671
25587SOL    HW277340   6.593   2.034   5.585 -0.8346 -0.5917 -0.3236
25588SOL     OW77341   5.062   7.610   7.370  0.4183 -0.2608 -0.6599
25588SOL    HW177342   4.999   7.568   7.427 -1.1823  2.0581 -0.6019
25588SOL    HW277343   5.138   7.628   7.426 -1.2529  2.3135  1.0142
25589SOL     OW77344   3.148   0.501   3.224  0.4817 -0.0592 -0.5171
25589SOL    HW177345   3.107   0.575   3.268 -0.7559 -1.4079  0.6847
25589SOL    HW277346   3.133   0.517   3.131  1.2143  1.7329 -0.3586
25590SOL     OW77347   3.968   1.574   8.470  0.3981  0.0756 -0.7010
25590SOL    HW177348   3.893   1.626   8.498  0.7113 -0.4091  1.2045
25590SOL    HW277349   3.933   1.486   8.457  0.6003 -0.1509  0.1896
25591SOL     OW77350   9.115   7.652   5.454  0.1173  0.4907 -0.0274
25591SOL    HW177351   9.193   7.600   5.471  0.3771  1.1696  0.9520
25591SOL    HW277352   9.125   7.683   5.364  1.8325  1.9662  0.6076
25592SOL     OW77353   6.684   7.914   1.507  0.4768 -0.6047  0.3641
25592SOL    HW177354   6.708   7.919   1.600 -0.3777  1.2183  0.5285
25592SOL    HW277355   6.609   7.856   1.505  0.0594 -0.1076  0.9401
25593SOL     OW77356   4.271   0.349   9.644 -0.1435 -0.2881 -0.4494
25593SOL    HW177357   4.339   0.416   9.642 -0.5902  0.1701 -0.9205
25593SOL    HW277358   4.312   0.273   9.686  0.3776  0.2728  0.0721
25594SOL     OW77359   0.098   9.736   3.138 -0.5189 -0.1238 -0.4249
25594SOL    HW177360   0.123   9.675   3.208 -1.5822 -2.0079 -1.5947
25594SOL    HW277361   0.175   9.739   3.081 -0.0371  0.5916  0.2372
25595SOL     OW77362   0.645   2.876   6.517 -0.6980  1.0887 -0.4109
25595SOL    HW177363   0.580   2.880   6.447 -1.4272  0.3891  0.2045
25595SOL    HW277364   0.697   2.798   6.498  0.5030  2.0723 -1.3358
25596SOL     OW77365   3.810   3.612   0.758  1.0605  0.2305  0.5911
25596SOL    HW177366   3.804   3.599   0.853  1.2106  1.5627  0.7944
25596SOL    HW277367   3.813   3.523   0.723 -2.6795 -0.4763  1.5717
25597SOL     OW77368   4.986   4.575   3.960 -0.3483 -0.2881 -0.1015
25597SOL    HW177369   5.039   4.496   3.975 -0.8660 -0.5885  0.1872
25597SOL    HW277370   4.904   4.558   4.008 -0.4630  0.4256 -0.0340
25598SOL     OW77371   9.114   9.891   3.480  0.3650 -0.0539 -0.4053
25598SOL    HW177372   9.175   9.959   3.450  1.8903 -0.8838  0.6441
25598SOL    HW277373   9.103   9.834   3.404  0.3729  0.4575 -0.8000
25599SOL     OW77374   4.172   4.469   3.144  0.4188 -0.6533  0.3236
25599SOL    HW177375   4.191   4.548   3.194 -2.8286 -0.0866  0.8934
25599SOL    HW277376   4.139   4.501   3.060 -0.9612 -1.3177  0.5715
25600SOL     OW77377   9.622   5.651   1.369 -0.3206  0.6142  0.4258
25600SOL    HW177378   9.640   5.730   1.318  0.7911 -0.3249 -0.6918
25600SOL    HW277379   9.555   5.605   1.320 -1.3275  1.0709  1.3335
25601SOL     OW77380   9.314   5.541   3.331 -0.1530  0.4247  0.2371
25601SOL    HW177381   9.219   5.530   3.326  0.1339 -2.2572 -1.4813
25601SOL    HW277382   9.330   5.626   3.290 -1.8544  1.7665  2.1464
25602SOL     OW77383   9.125   8.756   7.992 -0.2340  0.6220 -0.2315
25602SOL    HW177384   9.062   8.809   8.040  3.4211  2.0436  3.6235
25602SOL    HW277385   9.164   8.816   7.929 -2.1970 -0.1508 -2.3244
25603SOL     OW77386   7.072   5.132   2.520 -0.1860 -0.3797  0.5556
25603SOL    HW177387   7.093   5.048   2.561  1.2166 -0.2413  0.1935
25603SOL    HW277388   6.985   5.120   2.483  0.4102 -2.0664 -0.4342
25604SOL     OW77389   5.361   1.205   9.383 -0.3725 -0.1712  0.1310
25604SOL    HW177390   5.309   1.176   9.457 -1.0184 -0.4864 -0.4326
25604SOL    HW277391   5.307   1.272   9.341  1.4037  2.5415  1.8561
25605SOL     OW77392   9.724   2.123   3.622  0.3152  0.7548 -0.1797
25605SOL    HW177393   9.792   2.058   3.637 -1.7543 -1.2166  1.2648
25605SOL    HW277394   9.688   2.102   3.536  0.1686  0.4856 -0.0525
25606SOL     OW77395   5.918   0.447   7.289  0.0313 -0.4103 -0.1863
25606SOL    HW177396   5.976   0.394   7.235 -0.0013 -0.5491 -0.0873
25606SOL    HW277397   5.972   0.520   7.319  0.4640 -1.1003  0.7802
25607SOL     OW77398   0.685   4.156   9.817  0.4171  0.0156  0.0992
25607SOL    HW177399   0.730   4.072   9.808  0.8625  0.3597 -1.1612
25607SOL    HW277400   0.719   4.209   9.745 -2.5410  0.0576 -1.4444
25608SOL     OW77401   8.405   3.012   4.628 -0.1842  0.0636  0.1329
25608SOL    HW177402   8.338   3.021   4.696 -0.0644  1.4022  0.1003
25608SOL    HW277403   8.358   2.974   4.553 -0.2197 -1.8393  1.0558
25609SOL     OW77404   0.788   0.465   4.698 -0.3307 -0.1560  0.3294
25609SOL    HW177405   0.874   0.435   4.726  0.1196 -0.3353 -1.1358
25609SOL    HW277406   0.779   0.432   4.608 -2.0627 -0.4227  0.5631
25610SOL     OW77407   3.842   4.141   1.783  0.2220 -0.1581  0.2741
25610SOL    HW177408   3.863   4.214   1.724  2.2685 -0.8074  0.1152
25610SOL    HW277409   3.926   4.100   1.801 -0.7349 -1.7733  1.3193
25611SOL     OW77410   0.167   0.619   4.620 -0.0101 -0.1582  0.2868
25611SOL    HW177411   0.227   0.614   4.546 -0.2223 -0.8627  0.1520
25611SOL    HW277412   0.089   0.663   4.585 -0.3278 -0.9765 -0.0718
25612SOL     OW77413   4.184   6.291   4.817 -0.1876 -0.1694 -0.4776
25612SOL    HW177414   4.270   6.321   4.848 -0.8631  1.0712  0.2658
25612SOL    HW277415   4.198   6.269   4.725  1.2610 -1.4390 -0.0069
25613SOL     OW77416   2.577   1.539   5.210  0.0635  0.3631  0.0713
25613SOL    HW177417   2.485   1.533   5.237  0.3828 -0.8259  0.9761
25613SOL    HW277418   2.616   1.602   5.271 -0.2153  1.1237 -0.5266
25614SOL     OW77419   2.796   6.976   4.241 -0.1417  0.0032 -0.1521
25614SOL    HW177420   2.773   6.899   4.189 -0.8956  0.5465 -0.6397
25614SOL    HW277421   2.887   6.961   4.267 -0.1150 -0.8046 -0.6841
25615SOL     OW77422   4.477   4.441   6.822 -0.4315  0.0248 -0.6460
25615SOL    HW177423   4.535   4.387   6.875 -0.7689 -0.8694 -1.1662
25615SOL    HW277424   4.389   4.412   6.845 -0.5921 -0.1648 -1.4636
25616SOL     OW77425   6.762   0.589   4.445 -1.0565  0.1324  0.0817
25616SOL    HW177426   6.817   0.646   4.499  0.3152 -0.4564 -0.6198
25616SOL    HW277427   6.804   0.503   4.452 -0.5612  0.1239 -2.2049
25617SOL     OW77428   2.412   3.529   9.053  0.4262  0.4098 -0.1476
25617SOL    HW177429   2.340   3.478   9.015 -0.7464  0.6622  1.6332
25617SOL    HW277430   2.486   3.513   8.994 -0.2659 -2.2119 -0.4296
25618SOL     OW77431   7.674   0.462   9.083  0.1129  0.0463 -0.6460
25618SOL    HW177432   7.586   0.494   9.103  0.3768  1.1762 -1.2024
25618SOL    HW277433   7.688   0.488   8.992  0.9511 -0.2960 -0.6225
25619SOL     OW77434   8.410   2.773   3.423  0.3084 -0.1052 -0.1028
25619SOL    HW177435   8.444   2.857   3.453 -0.2369 -0.0103  0.2584
25619SOL    HW277436   8.315   2.784   3.422  0.3128  0.3355 -3.1606
25620SOL     OW77437   3.262   8.743   5.043  0.3178  0.1696 -0.1653
25620SOL    HW177438   3.271   8.773   5.133 -1.3943  0.6761 -0.1273
25620SOL    HW277439   3.294   8.653   5.044 -1.1893 -0.3925  1.3286
25621SOL     OW77440   8.059   8.533   9.321  0.0670  0.0713 -0.4364
25621SOL    HW177441   8.111   8.486   9.385  0.5468  1.1926  0.0368
25621SOL    HW277442   8.066   8.481   9.241  1.8888  0.1440 -0.3743
25622SOL     OW77443   2.050   2.370   6.781 -0.4116 -0.5435  0.1049
25622SOL    HW177444   2.127   2.425   6.793 -1.7036  1.3797  0.0581
25622SOL    HW277445   2.027   2.341   6.870 -2.0364  2.4504  0.8378
25623SOL     OW77446   6.345   2.188   1.548  0.2913  0.2541 -0.7075
25623SOL    HW177447   6.331   2.102   1.587  0.1533  0.8866  0.7054
25623SOL    HW277448   6.433   2.183   1.511  0.4507 -0.3720 -0.2718
25624SOL     OW77449   5.878   7.652   3.247 -0.2905 -0.1319 -0.0470
25624SOL    HW177450   5.854   7.685   3.333  1.1241  0.9179 -0.0283
25624SOL    HW277451   5.909   7.729   3.199  0.1269 -0.9112 -1.0673
25625SOL     OW77452   4.875   2.516   1.729 -0.3093  0.3339  0.4386
25625SOL    HW177453   4.878   2.509   1.825 -0.2015 -0.2081  0.3945
25625SOL    HW277454   4.790   2.478   1.705 -0.3859  0.5730  0.3269
25626SOL     OW77455   5.743   6.038   7.096 -0.2739  0.0590 -0.1492
25626SOL    HW177456   5.826   6.028   7.142 -1.1371  2.1958  2.1435
25626SOL    HW277457   5.688   5.967   7.129 -0.1817  0.2462  0.4199
25627SOL     OW77458   1.606   1.355   1.003  0.2738 -0.4184 -0.0059
25627SOL    HW177459   1.520   1.314   1.001 -0.4592  1.0468  0.1457
25627SOL    HW277460   1.666   1.287   0.973 -1.1816 -0.8963 -2.0182
25628SOL     OW77461   4.201   4.517   9.917 -0.1207 -1.1869  0.4633
25628SOL    HW177462   4.227   4.447   9.976  1.3387  0.9495  2.5526
25628SOL    HW277463   4.283   4.560   9.893 -0.7597 -1.3941 -2.4874
25629SOL     OW77464   8.139   6.549   9.814  0.6044  0.1866 -0.1071
25629SOL    HW177465   8.213   6.555   9.875  0.5300  1.1230 -0.0861
25629SOL    HW277466   8.129   6.456   9.798  1.0079 -0.0415  0.8542
25630SOL     OW77467   6.331   4.895   6.346 -1.1064  0.8102  0.1817
25630SOL    HW177468   6.269   4.958   6.310 -2.9907 -1.2765 -0.5091
25630SOL    HW277469   6.308   4.812   6.304 -0.8533 -1.0144  3.3196
25631SOL     OW77470   1.580   4.891   7.393  0.5975  0.2094 -0.5177
25631SOL    HW177471   1.669   4.910   7.419  0.7096  1.3686 -1.6756
25631SOL    HW277472   1.556   4.961   7.332 -1.2697  0.2045  0.1245
25632SOL     OW77473   8.105   3.556   0.076 -0.0709  0.2362 -0.9014
25632SOL    HW177474   8.078   3.594  -0.007  0.1580  1.0420 -0.6101
25632SOL    HW277475   8.073   3.616   0.143 -1.3035 -1.0048 -0.3190
25633SOL     OW77476   0.188   6.161   5.064  0.0061 -0.5933 -0.6889
25633SOL    HW177477   0.183   6.240   5.011  0.6982 -0.9707 -1.3494
25633SOL    HW277478   0.275   6.163   5.102 -0.6124 -0.1447  0.7634
25634SOL     OW77479   5.622   8.127   9.206  0.1939  0.3114 -0.1109
25634SOL    HW177480   5.614   8.064   9.277 -1.9463 -1.3153 -1.6578
25634SOL    HW277481   5.698   8.097   9.155 -0.9002 -1.1850 -0.9202
25635SOL     OW77482   6.847   9.750   2.350  0.4115  0.4569  0.1131
25635SOL    HW177483   6.814   9.702   2.274  0.8260  1.0941 -0.4683
25635SOL    HW277484   6.791   9.720   2.422 -0.6253  0.5858 -0.6231
25636SOL     OW77485   3.525   5.028   0.095 -0.5222  0.5956  0.1352
25636SOL    HW177486   3.500   5.064   0.010 -1.2268 -1.6424 -0.6911
25636SOL    HW277487   3.453   5.050   0.153 -0.8284  0.7151 -0.2848
25637SOL     OW77488   9.369   7.669   4.404 -0.1919  0.4056  0.3661
25637SOL    HW177489   9.278   7.652   4.427 -0.1632  1.1232  1.0708
25637SOL    HW277490   9.402   7.724   4.476  0.8838 -0.1064  0.2847
25638SOL     OW77491   4.634   6.419   4.346 -0.2905 -0.0000 -0.0139
25638SOL    HW177492   4.548   6.403   4.385  0.8288 -0.3447  2.5056
25638SOL    HW277493   4.617   6.424   4.252 -3.0803  0.1957  0.4149
25639SOL     OW77494   3.911   6.311   0.930  0.1112 -0.6015  0.0133
25639SOL    HW177495   3.891   6.281   1.019 -1.3235  0.5109  0.1084
25639SOL    HW277496   3.838   6.279   0.877  1.2763 -1.8102 -0.9263
25640SOL     OW77497   3.028   4.337   6.138  0.5485  0.0208  0.5674
25640SOL    HW177498   3.088   4.293   6.197  0.1940  0.1737  1.0518
25640SOL    HW277499   2.943   4.296   6.154 -0.0853  1.7654  2.0307
25641SOL     OW77500   9.623   7.227   9.826  0.4278 -0.1265 -0.4479
25641SOL    HW177501   9.673   7.158   9.783  1.5000  0.3465  0.0037
25641SOL    HW277502   9.686   7.298   9.840 -0.5477  0.7828 -0.5149
25642SOL     OW77503   3.781   3.760   4.654  0.0458  0.2265 -0.0018
25642SOL    HW177504   3.758   3.841   4.608  0.8274 -0.1989 -1.2122
25642SOL    HW277505   3.835   3.712   4.591  0.2737 -0.8724  0.9992
25643SOL     OW77506   8.834   6.202   8.881  0.1289  0.3833 -0.3241
25643SOL    HW177507   8.868   6.151   8.807  0.4414  0.3481 -0.1546
25643SOL    HW277508   8.745   6.169   8.893 -0.4985  1.4547 -1.6811
25644SOL     OW77509   2.633   9.913   7.324 -0.2086  0.1861  0.5828
25644SOL    HW177510   2.721   9.937   7.294 -0.7048 -0.8096 -1.8859
25644SOL    HW277511   2.645   9.829   7.367  0.2188  0.7024  1.5171
25645SOL     OW77512   6.865   0.734   3.249  0.4601 -0.0623  0.0298
25645SOL    HW177513   6.845   0.694   3.164  0.4812  0.5504 -0.2718
25645SOL    HW277514   6.788   0.717   3.303  0.5298 -0.6272 -0.0510
25646SOL     OW77515   9.134   6.202   9.753  0.0851 -1.0944 -0.0169
25646SOL    HW177516   9.156   6.295   9.752 -1.0957 -0.7853 -1.3793
25646SOL    HW277517   9.203   6.162   9.805  0.4803  0.5719  0.8283
25647SOL     OW77518   2.049   4.202   3.359 -0.1674  0.1641  0.0143
25647SOL    HW177519   2.005   4.287   3.361 -0.8632 -0.2003  0.8914
25647SOL    HW277520   2.111   4.209   3.286  0.5784  1.7975  0.7512
25648SOL     OW77521   5.923   3.236   0.123  0.0812 -0.6575 -0.1085
25648SOL    HW177522   5.873   3.156   0.142 -0.5571 -0.1590  0.3376
25648SOL    HW277523   5.897   3.297   0.192  1.4757 -0.4523  0.2583
25649SOL     OW77524   1.472   8.132   4.290  0.2342 -0.1159 -0.0130
25649SOL    HW177525   1.552   8.139   4.239 -0.1621  1.6625 -0.4473
25649SOL    HW277526   1.407   8.183   4.241 -0.0217  2.1975  2.4882
25650SOL     OW77527   8.989   1.360   4.516  0.3323  0.0370 -0.2452
25650SOL    HW177528   9.006   1.452   4.498 -2.4263  0.5935 -0.4513
25650SOL    HW277529   8.958   1.358   4.606  0.0484 -0.6141 -0.3488
25651SOL     OW77530   1.829   7.801   7.345 -0.2014 -0.0812  0.4644
25651SOL    HW177531   1.763   7.865   7.318  0.0963 -0.1453 -0.4526
25651SOL    HW277532   1.837   7.742   7.270  0.6416 -0.2744  0.6947
25652SOL     OW77533   1.084   0.748   6.219  0.7699 -0.3555  0.5261
25652SOL    HW177534   1.114   0.695   6.145 -1.6749 -0.4135 -0.5351
25652SOL    HW277535   1.130   0.713   6.295  1.5968 -1.8783 -0.6301
25653SOL     OW77536   9.226   1.105   9.060 -0.2706 -0.0209  0.1285
25653SOL    HW177537   9.316   1.080   9.083 -0.5296 -0.2880  0.8833
25653SOL    HW277538   9.227   1.201   9.062 -0.2379 -0.0276  1.1268
25654SOL     OW77539   6.534   6.518   8.515  0.4816 -0.3166 -0.4921
25654SOL    HW177540   6.442   6.539   8.499  0.8304  1.8449  0.0151
25654SOL    HW277541   6.582   6.571   8.452  1.4543  0.7299  1.0709
25655SOL     OW77542   4.600   4.050   5.090  0.4309 -0.5702  0.1469
25655SOL    HW177543   4.572   4.102   5.165 -0.0203 -0.1892 -0.2758
25655SOL    HW277544   4.673   4.099   5.053 -1.7373  1.3549 -1.9329
25656SOL     OW77545   7.108   1.731   1.279  0.1571 -0.6408  0.6573
25656SOL    HW177546   7.025   1.693   1.251 -0.1671 -0.4093  1.2915
25656SOL    HW277547   7.156   1.659   1.319 -0.0502 -0.6110  0.9652
25657SOL     OW77548   5.979   7.353   1.591 -0.3120 -0.1551  0.0828
25657SOL    HW177549   6.057   7.362   1.646  0.3758 -2.8180 -0.3283
25657SOL    HW277550   6.013   7.330   1.504 -1.5309 -1.3696 -0.1121
25658SOL     OW77551   6.227   3.551   9.609  0.2776  0.2262  0.6933
25658SOL    HW177552   6.248   3.623   9.669 -0.0766 -0.7798  2.0741
25658SOL    HW277553   6.159   3.587   9.551  0.3498  1.1095  1.1404
25659SOL     OW77554   4.980   1.353   6.455 -0.4096 -0.2457 -0.0099
25659SOL    HW177555   4.917   1.417   6.487  0.7372  0.7062  0.4493
25659SOL    HW277556   5.004   1.384   6.368 -1.2038 -1.0955 -0.5474
25660SOL     OW77557   7.176   4.814   1.497 -0.7108 -0.5083  0.0044
25660SOL    HW177558   7.176   4.868   1.418  0.1022 -0.5786 -0.0519
25660SOL    HW277559   7.171   4.876   1.570 -0.1580 -0.3772 -0.0697
25661SOL     OW77560   7.180   8.315   0.734  0.2046 -0.2641  0.5391
25661SOL    HW177561   7.166   8.303   0.640  2.0076 -1.8497  0.4221
25661SOL    HW277562   7.092   8.311   0.772 -0.5324  0.1980 -1.0402
25662SOL     OW77563   7.767   9.052   3.225 -0.1386  0.3445  0.1585
25662SOL    HW177564   7.785   9.060   3.319 -0.2671  0.5230  0.1699
25662SOL    HW277565   7.676   9.081   3.216 -0.8254 -1.6180  0.2681
25663SOL     OW77566   7.066   5.179   3.982 -0.2420 -0.4148  0.2097
25663SOL    HW177567   7.134   5.246   3.986 -0.2812 -0.3923  0.4682
25663SOL    HW277568   6.995   5.213   4.035 -1.2349  0.4395 -1.5700
25664SOL     OW77569   4.559   9.987   1.596 -0.3396  0.0341  0.3312
25664SOL    HW177570   4.557   9.964   1.503 -1.9137  1.8978 -0.1481
25664SOL    HW277571   4.545   9.903   1.641 -0.3071 -0.7778 -1.1056
25665SOL     OW77572   8.258   7.482   8.974  0.0976 -0.3121 -0.1524
25665SOL    HW177573   8.240   7.389   8.961 -0.9031  0.1071 -2.2396
25665SOL    HW277574   8.172   7.523   8.980  0.4814  0.2847  3.2577
25666SOL     OW77575   3.226   9.001   8.807  0.1753 -0.2062  0.7019
25666SOL    HW177576   3.303   8.960   8.845  1.4770 -1.2600 -2.6907
25666SOL    HW277577   3.242   9.095   8.814  0.9036 -0.3922  1.6546
25667SOL     OW77578   6.566   9.954   0.528 -0.0800  0.5858 -0.1330
25667SOL    HW177579   6.610  10.001   0.599  0.6252  1.8977 -1.3917
25667SOL    HW277580   6.623   9.880   0.509  1.2151  1.7983 -1.1814
25668SOL     OW77581   1.886   8.518   5.776  0.0561  0.2520 -0.0010
25668SOL    HW177582   1.959   8.580   5.772 -1.3649  2.1242  1.0686
25668SOL    HW277583   1.818   8.559   5.722 -1.3689  0.3168  1.7584
25669SOL     OW77584   8.425   4.080   3.112 -0.1209 -0.5321 -0.3245
25669SOL    HW177585   8.430   4.165   3.067 -2.6149 -0.3970 -0.4506
25669SOL    HW277586   8.493   4.027   3.070  0.9257  1.1048 -0.8149
25670SOL     OW77587   9.769   9.536   7.937  0.0106  0.7601 -0.3609
25670SOL    HW177588   9.802   9.555   8.025 -1.5119  2.0229 -0.0078
25670SOL    HW277589   9.677   9.565   7.940 -0.3344 -0.0579 -2.0856
25671SOL     OW77590   9.325   7.485   5.409 -0.4110 -0.2687  0.6229
25671SOL    HW177591   9.346   7.452   5.322  0.2473 -2.4630  1.5501
25671SOL    HW277592   9.325   7.408   5.465  2.8344  1.3995  3.3103
25672SOL     OW77593   9.747   6.411   2.331  0.0605 -0.4954  0.3169
25672SOL    HW177594   9.746   6.398   2.426  0.3492 -2.3629  0.0964
25672SOL    HW277595   9.658   6.394   2.303  0.3003 -1.4539  0.0958
25673SOL     OW77596   7.282   2.667   2.410  0.2392 -0.6819 -0.5089
25673SOL    HW177597   7.243   2.750   2.383  0.9704  0.1517  0.8304
25673SOL    HW277598   7.208   2.615   2.442 -0.0798 -0.0619 -0.2186
25674SOL     OW77599   5.643   0.525   7.002 -0.2177 -0.4743  0.2261
25674SOL    HW177600   5.672   0.446   6.957  0.1661  0.4796 -1.2750
25674SOL    HW277601   5.646   0.594   6.935 -1.0728  0.7059  1.3397
25675SOL     OW77602   9.016   9.082   5.394  0.6201 -0.7071 -0.1447
25675SOL    HW177603   9.054   9.120   5.473 -0.0143 -1.4484  0.5332
25675SOL    HW277604   8.947   9.024   5.426  0.6961 -1.4130 -1.2184
25676SOL     OW77605   9.451   3.401   5.236  0.4438 -0.0619 -0.0692
25676SOL    HW177606   9.375   3.376   5.288 -0.3093  0.3433 -0.9440
25676SOL    HW277607   9.421   3.474   5.183  1.0207 -0.8005 -1.4654
25677SOL     OW77608   4.115   9.878   3.549 -0.2890 -0.6095 -0.4266
25677SOL    HW177609   4.168   9.922   3.615  0.8707 -0.6352 -1.3145
25677SOL    HW277610   4.143   9.787   3.553  0.6285 -0.4088 -1.7093
25678SOL     OW77611   9.200   4.392   1.105 -0.2995 -0.1165 -0.2297
25678SOL    HW177612   9.191   4.327   1.036  0.7302 -0.7319  0.1936
25678SOL    HW277613   9.290   4.424   1.096  0.1651 -0.8813  1.3855
25679SOL     OW77614   5.897   1.618   7.527  0.0307  1.1316  0.0427
25679SOL    HW177615   5.835   1.597   7.458 -0.7853 -0.9473  1.3296
25679SOL    HW277616   5.848   1.674   7.587 -0.7633 -0.6784  1.1670
25680SOL     OW77617   8.833   0.987   8.264  0.2586 -0.4951  0.2105
25680SOL    HW177618   8.907   1.033   8.304  1.5109 -1.8494 -0.4335
25680SOL    HW277619   8.858   0.979   8.172  0.4647 -3.0562  0.4172
25681SOL     OW77620   3.387   7.263   7.901  0.3228  0.4883  0.4654
25681SOL    HW177621   3.422   7.179   7.931 -1.0886 -0.0727  0.6472
25681SOL    HW277622   3.442   7.329   7.942  0.2654 -0.3213  1.8991
25682SOL     OW77623   8.841   5.749   9.238  0.0589  0.0252 -0.0865
25682SOL    HW177624   8.811   5.735   9.148  1.8261  2.1147 -1.0967
25682SOL    HW277625   8.935   5.730   9.235 -0.1698 -1.6898  1.8161
25683SOL     OW77626   7.681  -0.001   0.179  0.4795 -0.4293 -0.3112
25683SOL    HW177627   7.745   0.035   0.241 -0.0651  1.0224 -0.5711
25683SOL    HW277628   7.596   0.018   0.218  0.1461 -0.0307 -1.2136
25684SOL     OW77629   7.494   2.183   2.132  0.0594 -0.5791  0.0867
25684SOL    HW177630   7.431   2.238   2.180  0.6506  0.6401 -0.4838
25684SOL    HW277631   7.580   2.217   2.158  0.4414 -1.2143 -0.3175
25685SOL     OW77632   3.524   2.077   0.212 -0.1194  0.0979  0.3330
25685SOL    HW177633   3.534   2.029   0.129 -0.8192  3.3424 -1.8205
25685SOL    HW277634   3.430   2.085   0.224 -0.1115  3.0216 -0.8360
25686SOL     OW77635   5.698   5.824   5.418  0.3680  0.1439  0.4582
25686SOL    HW177636   5.672   5.878   5.343 -1.1400  0.0202  0.8617
25686SOL    HW277637   5.791   5.844   5.430  0.0765  1.9785  0.0253
25687SOL     OW77638   6.934   1.060   1.472  0.1120  0.2824  0.1817
25687SOL    HW177639   6.868   0.991   1.469  0.0782  0.1825  2.0072
25687SOL    HW277640   6.960   1.064   1.564  1.8322  1.1015 -0.3003
25688SOL     OW77641   7.014   3.054   5.786  0.2551 -0.0956  0.0739
25688SOL    HW177642   7.092   3.002   5.768 -0.3543 -1.3510  0.9224
25688SOL    HW277643   7.047   3.132   5.831  1.0281 -0.6189  0.4339
25689SOL     OW77644   7.436   9.280   4.648 -0.0397 -0.3819  0.1764
25689SOL    HW177645   7.455   9.240   4.732 -1.6274 -3.2866 -0.7433
25689SOL    HW277646   7.358   9.334   4.663  1.3975  1.5835  1.1286
25690SOL     OW77647   0.327   4.635   7.226  0.2450 -0.6235  0.0418
25690SOL    HW177648   0.240   4.667   7.203 -0.1555 -1.5327  0.2256
25690SOL    HW277649   0.321   4.617   7.320  0.8722  0.0428  0.2101
25691SOL     OW77650   7.424   7.837   1.457  0.3851 -0.4821 -0.1685
25691SOL    HW177651   7.465   7.848   1.371 -1.0095  0.0322 -0.8000
25691SOL    HW277652   7.370   7.758   1.449  0.2665 -0.4469  0.2414
25692SOL     OW77653   7.687   3.894   7.224 -0.2780  0.2372 -0.4516
25692SOL    HW177654   7.710   3.973   7.272 -0.0284 -0.9582  1.5120
25692SOL    HW277655   7.592   3.896   7.219 -0.4890 -0.6327  2.0633
25693SOL     OW77656   2.829   3.687   0.260  0.0613  0.3572  0.2058
25693SOL    HW177657   2.848   3.774   0.295 -2.1724  1.3443 -0.9143
25693SOL    HW277658   2.791   3.702   0.174  0.2554 -1.7806 -0.3230
25694SOL     OW77659   8.074   5.622   7.758  0.5692 -0.2243  0.1718
25694SOL    HW177660   8.009   5.600   7.691  2.3236 -1.7671 -1.1305
25694SOL    HW277661   8.110   5.706   7.730 -0.1464  0.1470  0.3486
25695SOL     OW77662   8.760   6.829   2.144  0.4466  0.0464 -0.1622
25695SOL    HW177663   8.712   6.748   2.124  0.2672 -0.7327  2.8674
25695SOL    HW277664   8.849   6.800   2.162  0.4607  0.5368  0.6032
25696SOL     OW77665   7.992   2.661   1.588  0.5336 -0.0444 -0.0918
25696SOL    HW177666   7.985   2.702   1.674  0.2224  0.7168 -0.4675
25696SOL    HW277667   7.912   2.609   1.579  0.6900 -0.3371  0.1782
25697SOL     OW77668   8.935   8.057   9.376  0.3689  0.1057 -0.6721
25697SOL    HW177669   9.019   8.095   9.403 -0.3611  1.1572  0.1994
25697SOL    HW277670   8.887   8.130   9.337 -1.1490  0.1818  1.2248
25698SOL     OW77671   9.108   3.262   4.503  0.0353 -0.1446  0.0361
25698SOL    HW177672   9.106   3.259   4.599  1.1326  0.7211  0.1133
25698SOL    HW277673   9.042   3.328   4.480 -2.2220 -2.2985  0.0023
25699SOL     OW77674   8.622   3.360   6.324 -0.7574  0.0275 -0.4214
25699SOL    HW177675   8.541   3.395   6.361 -0.9080 -1.6401  0.9222
25699SOL    HW277676   8.597   3.276   6.287  0.4841 -0.8703  0.6986
25700SOL     OW77677   8.168   1.473   3.080 -0.0573 -0.3465 -0.0871
25700SOL    HW177678   8.156   1.548   3.137 -0.4475 -0.4264 -0.0620
25700SOL    HW277679   8.137   1.502   2.994 -0.0953 -0.4390 -0.1050
25701SOL     OW77680   4.292   0.139   6.842 -0.4404 -0.5144 -0.2324
25701SOL    HW177681   4.240   0.142   6.762  0.3897 -0.2445 -0.7684
25701SOL    HW277682   4.314   0.046   6.853  1.0319 -0.3268 -1.3681
25702SOL     OW77683   3.818   4.206   2.949  0.2941  0.3580  0.0441
25702SOL    HW177684   3.838   4.279   2.889 -3.7767  1.3223 -0.4196
25702SOL    HW277685   3.786   4.249   3.028 -0.8701 -0.8899  0.2865
25703SOL     OW77686   9.085   4.693  -0.018  0.2367  0.1469 -0.5631
25703SOL    HW177687   8.997   4.722  -0.043 -0.4866 -1.7587 -0.4513
25703SOL    HW277688   9.103   4.739   0.064 -0.1561  1.4271 -1.1777
25704SOL     OW77689   0.323   0.518   4.878  0.4207 -0.2029 -0.5277
25704SOL    HW177690   0.268   0.537   4.802  0.7653  0.6983 -0.5623
25704SOL    HW277691   0.412   0.519   4.845  0.6181  0.8145 -0.0027
25705SOL     OW77692   0.551   0.082   7.490  0.1815 -0.3005 -0.3929
25705SOL    HW177693   0.517   0.007   7.539 -0.4310  0.1106 -0.1812
25705SOL    HW277694   0.536   0.059   7.398 -1.8910  0.4110 -0.2868
25706SOL     OW77695   4.869   0.528   9.018  0.1734 -0.1347 -0.1917
25706SOL    HW177696   4.899   0.581   8.943 -0.5454 -0.4558 -0.7167
25706SOL    HW277697   4.816   0.589   9.070  0.1145 -0.0893 -0.3036
25707SOL     OW77698   7.474   3.764   8.239  0.1979 -0.2757 -0.6666
25707SOL    HW177699   7.549   3.740   8.294 -1.6491  0.6732  2.5616
25707SOL    HW277700   7.495   3.850   8.205  0.9826 -0.4525 -0.6336
25708SOL     OW77701   1.486   7.330   9.429 -0.0634  0.1839  0.3916
25708SOL    HW177702   1.522   7.413   9.399  1.1925  0.3902  2.2525
25708SOL    HW277703   1.504   7.269   9.358 -0.7436  1.4110 -0.8818
25709SOL     OW77704   4.686   4.149   8.602  0.5482  0.5095 -0.5757
25709SOL    HW177705   4.625   4.174   8.533 -1.2900  0.3309  0.9023
25709SOL    HW277706   4.676   4.217   8.669  0.0495 -0.8488  0.7951
25710SOL     OW77707   4.555   3.048   6.455  1.1197  0.5686  0.2603
25710SOL    HW177708   4.627   3.017   6.510 -0.3320 -2.2666  0.7497
25710SOL    HW277709   4.480   3.055   6.515 -0.0487 -0.8237 -0.9429
25711SOL     OW77710   8.011   2.955   6.577  0.3895 -0.0700  0.1953
25711SOL    HW177711   8.029   2.905   6.657  0.7566 -0.2233  0.0210
25711SOL    HW277712   7.921   2.931   6.554 -0.4753  1.5443  1.6803
25712SOL     OW77713   0.349   2.801   1.523  0.1289 -0.7279 -0.5376
25712SOL    HW177714   0.427   2.854   1.534 -0.4298 -0.0683  0.4093
25712SOL    HW277715   0.337   2.795   1.428  0.4296  0.5186 -0.6727
25713SOL     OW77716   6.875   7.700   9.667 -0.0820  0.5942  0.4444
25713SOL    HW177717   6.872   7.778   9.611 -0.3434 -1.5950 -2.8384
25713SOL    HW277718   6.968   7.677   9.671 -0.1735  0.1657  0.0689
25714SOL     OW77719   2.204   2.700   5.029 -0.0556 -0.0739  0.2727
25714SOL    HW177720   2.206   2.790   5.061 -0.8601  0.3561 -0.8242
25714SOL    HW277721   2.146   2.703   4.953 -0.8390 -1.6887  0.7483
25715SOL     OW77722   6.059   8.466   1.556 -0.1522 -0.2367 -0.5097
25715SOL    HW177723   6.000   8.404   1.598 -0.6162 -0.3356 -1.2790
25715SOL    HW277724   6.131   8.412   1.524 -0.2614 -0.2987 -0.6546
25716SOL     OW77725   7.266   2.993   9.406  0.0072  0.7870 -0.0969
25716SOL    HW177726   7.278   2.943   9.486 -1.1083  2.2694  1.0521
25716SOL    HW277727   7.172   3.008   9.399  0.0526  0.5303 -1.8047
25717SOL     OW77728   7.395   6.585   5.868 -0.5543 -0.3950  0.3446
25717SOL    HW177729   7.401   6.553   5.778 -0.3344 -0.0253  0.2271
25717SOL    HW277730   7.329   6.528   5.908 -0.5352 -0.6709  0.0001
25718SOL     OW77731   3.670   8.955   7.762  0.0093  0.6719  0.1214
25718SOL    HW177732   3.655   9.048   7.779  2.2027  1.2364 -0.7431
25718SOL    HW277733   3.751   8.935   7.808 -0.0161 -0.6108 -0.3606
25719SOL     OW77734   1.644   9.946   1.926  0.4677  0.5708  0.0923
25719SOL    HW177735   1.699  10.000   1.870  0.2529  0.3297 -0.3512
25719SOL    HW277736   1.627   9.866   1.875 -0.7856  0.8878 -0.0249
25720SOL     OW77737   0.816   8.909   7.530  0.5315  0.9000  0.1946
25720SOL    HW177738   0.897   8.911   7.580  0.7453  0.4985 -0.1270
25720SOL    HW277739   0.774   8.993   7.549  1.3704  1.4291 -0.1999
25721SOL     OW77740   0.564   2.448   5.368  0.0665  0.0670  0.7015
25721SOL    HW177741   0.634   2.473   5.308 -0.8147 -1.4360 -1.0503
25721SOL    HW277742   0.485   2.490   5.332 -0.1509  0.9263  2.0866
25722SOL     OW77743   4.524   3.553   6.060 -0.1933  0.6036 -0.4769
25722SOL    HW177744   4.497   3.645   6.055  0.5335  0.9027  0.7063
25722SOL    HW277745   4.579   3.540   5.982 -0.4464  1.1169 -0.7468
25723SOL     OW77746   2.430   6.386   3.086  0.1654  0.1786 -0.7895
25723SOL    HW177747   2.479   6.416   3.163  1.0892  0.5934 -1.5218
25723SOL    HW277748   2.343   6.366   3.120  0.0866  1.8326  0.0889
25724SOL     OW77749   6.125   7.809   0.388  0.1357 -0.5416 -0.0997
25724SOL    HW177750   6.207   7.798   0.339  0.9740  0.0312  1.1076
25724SOL    HW277751   6.148   7.782   0.477 -1.3046 -1.4266  0.0258
25725SOL     OW77752   0.024   5.745   7.034  0.3856  0.9824  0.0178
25725SOL    HW177753   0.002   5.671   7.092 -0.4858  2.2620  1.3979
25725SOL    HW277754   0.084   5.707   6.969  0.0185 -0.9171  0.7044
25726SOL     OW77755   2.608   2.743   8.720  0.1450  0.5977  0.3610
25726SOL    HW177756   2.662   2.665   8.705  1.1643  1.6266 -1.7787
25726SOL    HW277757   2.518   2.712   8.710  0.4947 -0.4427  0.2840
25727SOL     OW77758   3.176   4.054   0.469 -0.0382  0.0125 -0.1212
25727SOL    HW177759   3.115   4.061   0.543 -0.7328  0.5169 -0.7320
25727SOL    HW277760   3.124   4.014   0.399  1.0744 -2.0796  0.1501
25728SOL     OW77761   6.368   6.084   3.510 -0.0173  0.3463 -0.6324
25728SOL    HW177762   6.443   6.119   3.462  0.7476 -0.0949  0.1958
25728SOL    HW277763   6.368   5.991   3.489 -0.9706  0.5116 -1.4327
25729SOL     OW77764   2.383   0.810   3.282  0.5271 -0.4855 -0.3360
25729SOL    HW177765   2.371   0.831   3.190 -1.8183  0.0634  0.0326
25729SOL    HW277766   2.307   0.755   3.305  0.6875 -0.0519  1.4034
25730SOL     OW77767   4.424   0.838   8.660  0.1729 -0.5377 -0.0459
25730SOL    HW177768   4.471   0.896   8.600  0.2542  0.7861  1.2559
25730SOL    HW277769   4.332   0.863   8.650  0.0566 -1.1143 -0.4538
25731SOL     OW77770   9.453   8.088   3.184 -0.1802 -0.1429 -0.5033
25731SOL    HW177771   9.397   8.045   3.119 -1.0847  0.1778  0.0407
25731SOL    HW277772   9.453   8.180   3.159  1.6730 -0.3869 -1.6064
25732SOL     OW77773   4.252   1.063   8.693  0.4719 -0.0505  0.0400
25732SOL    HW177774   4.288   1.101   8.612  2.7343  0.5272  1.2194
25732SOL    HW277775   4.224   1.139   8.744 -2.5843 -0.4762 -0.7925
25733SOL     OW77776   0.403   8.627   2.619  0.0830  0.2235  0.1561
25733SOL    HW177777   0.449   8.619   2.535 -1.6590 -0.4573 -0.7911
25733SOL    HW277778   0.473   8.636   2.684  1.5177 -0.2166 -1.2570
25734SOL     OW77779   9.335   9.367   2.176  0.1878 -0.1413  0.6584
25734SOL    HW177780   9.410   9.308   2.174  1.1987  1.0772 -1.9450
25734SOL    HW277781   9.264   9.318   2.133 -0.1908 -0.8350  2.0176
25735SOL     OW77782   1.961   2.425   1.671 -0.4651  0.1526  0.1569
25735SOL    HW177783   1.991   2.361   1.735  0.4134 -2.1107 -2.3274
25735SOL    HW277784   2.041   2.465   1.637 -0.3404 -2.1071 -2.7104
25736SOL     OW77785   3.731   1.841   2.811 -0.0194 -0.0440 -0.1974
25736SOL    HW177786   3.773   1.922   2.783  1.1712 -1.3767 -2.6037
25736SOL    HW277787   3.642   1.847   2.778 -0.2295  0.6411  0.4601
25737SOL     OW77788   8.598   4.427   1.580 -0.1732  0.2192 -0.4062
25737SOL    HW177789   8.590   4.498   1.516 -0.9593 -1.2087 -1.9663
25737SOL    HW277790   8.640   4.355   1.532  1.0152 -0.2787  1.2534
25738SOL     OW77791   7.211   1.254   9.146  0.3941  0.2141 -0.6244
25738SOL    HW177792   7.210   1.255   9.050 -0.5443 -0.3139 -0.6337
25738SOL    HW277793   7.295   1.293   9.169  0.4702  0.7155 -1.6559
25739SOL     OW77794   5.575   8.536   7.055  0.2675 -0.2953  0.6666
25739SOL    HW177795   5.634   8.472   7.017 -1.1150 -2.4543  1.9363
25739SOL    HW277796   5.590   8.616   7.004 -0.2361 -2.4506 -3.2432
25740SOL     OW77797   8.042   9.955   0.016 -0.3502  0.0994 -0.5229
25740SOL    HW177798   7.996   9.943   0.099 -0.4901 -1.5759 -0.7938
25740SOL    HW277799   8.091  10.036   0.026 -0.0877 -0.2548  1.3263
25741SOL     OW77800   9.065   1.557   1.689  0.3015 -0.1497 -0.4420
25741SOL    HW177801   9.002   1.607   1.741  1.3600  1.0939 -0.3228
25741SOL    HW277802   9.039   1.466   1.702 -0.0796  0.1893  1.4603
25742SOL     OW77803   2.107   4.878   6.630  0.1898 -0.2059  0.4166
25742SOL    HW177804   2.159   4.860   6.708  1.5797  0.1719 -0.3840
25742SOL    HW277805   2.073   4.966   6.642  2.4154  0.8372 -0.4146
25743SOL     OW77806   5.473   8.396   0.330 -0.6366  0.3047 -0.0413
25743SOL    HW177807   5.535   8.469   0.326  1.0755 -1.0753 -0.0947
25743SOL    HW277808   5.519   8.329   0.381 -2.1059 -0.7983 -0.0962
25744SOL     OW77809   7.347   1.311   9.937  0.1430 -0.3581  0.3042
25744SOL    HW177810   7.358   1.350   9.850 -2.2548 -1.8855 -0.7576
25744SOL    HW277811   7.436   1.285   9.963  1.2183  2.0375 -0.6838
25745SOL     OW77812   9.387   8.188   9.463  0.2023  0.8092  0.3000
25745SOL    HW177813   9.401   8.176   9.557 -0.3213 -0.0324  0.2848
25745SOL    HW277814   9.439   8.119   9.423  0.1454  0.9465 -0.0076
25746SOL     OW77815   8.277   7.434   2.235 -0.1605 -0.6730  0.0673
25746SOL    HW177816   8.286   7.436   2.331  1.1234  0.9807 -0.0541
25746SOL    HW277817   8.354   7.479   2.203 -1.3958  0.2692 -1.7097
25747SOL     OW77818   3.317   0.311   1.672 -0.0337 -0.5475  0.3574
25747SOL    HW177819   3.324   0.342   1.762 -0.7475  0.7046  0.0130
25747SOL    HW277820   3.224   0.289   1.661 -0.1394  0.1396 -0.2949
25748SOL     OW77821   4.290   4.851   2.566  0.2403 -0.1797 -0.1350
25748SOL    HW177822   4.310   4.787   2.635 -0.7560 -0.8091 -0.4078
25748SOL    HW277823   4.229   4.912   2.607 -0.0812 -0.3562 -0.3372
25749SOL     OW77824   7.814   3.457   6.974 -0.4585  0.1722  0.1912
25749SOL    HW177825   7.779   3.514   6.906 -1.8346 -0.1900  0.5697
25749SOL    HW277826   7.889   3.505   7.009 -1.8943  2.0326  0.8743
25750SOL     OW77827   3.091   6.304   8.685 -0.1675 -0.1547  0.3373
25750SOL    HW177828   2.998   6.302   8.664 -0.0642  2.5285 -0.7605
25750SOL    HW277829   3.130   6.241   8.624 -1.0826  0.0020 -0.4357
25751SOL     OW77830   0.440   2.978   9.076  0.2813  0.6709 -0.6196
25751SOL    HW177831   0.378   2.967   9.148  1.4980  1.1583  0.5518
25751SOL    HW277832   0.485   2.894   9.070  0.7493  0.8932 -0.2515
25752SOL     OW77833   1.164   7.918   0.309 -0.1711  0.8104 -0.2195
25752SOL    HW177834   1.071   7.895   0.318  0.2248 -0.4919  0.9548
25752SOL    HW277835   1.165   8.014   0.313 -1.4020  0.8264  0.4465
25753SOL     OW77836   5.453   1.317   0.411  0.2195 -0.5332 -0.3007
25753SOL    HW177837   5.462   1.285   0.500  0.6777 -0.4530 -0.3125
25753SOL    HW277838   5.476   1.410   0.416 -0.5535 -0.3292 -0.3637
25754SOL     OW77839   6.269   2.084   2.606 -0.0343 -0.4008  0.4581
25754SOL    HW177840   6.279   2.175   2.634  1.3698 -1.0949  2.3771
25754SOL    HW277841   6.331   2.034   2.660  1.0644 -2.2154 -2.2513
25755SOL     OW77842   7.152   4.154   3.723 -0.0916 -0.1074 -0.7655
25755SOL    HW177843   7.081   4.150   3.660 -1.2352  0.3943  0.4477
25755SOL    HW277844   7.158   4.065   3.759 -0.7098  0.0578 -0.2405
25756SOL     OW77845   8.844   5.841   3.382 -0.3098  0.3697 -0.0163
25756SOL    HW177846   8.841   5.752   3.418  0.0236  0.3796  0.0380
25756SOL    HW277847   8.834   5.829   3.288  2.0050  0.0757 -0.2822
25757SOL     OW77848   3.688   1.554   5.837  0.0182 -0.0852  0.2083
25757SOL    HW177849   3.666   1.619   5.770  1.9857 -1.0363 -1.4538
25757SOL    HW277850   3.784   1.555   5.841  0.0118 -1.5195  1.5453
25758SOL     OW77851   6.726   8.788   4.611  0.2080 -0.3191  0.1051
25758SOL    HW177852   6.709   8.816   4.522  0.1301 -1.1528 -0.1518
25758SOL    HW277853   6.819   8.806   4.625  0.1353  0.1593 -0.0082
25759SOL     OW77854   2.568   3.181   5.395 -0.4708 -0.1976 -0.2277
25759SOL    HW177855   2.655   3.149   5.418 -0.0280  0.4993 -0.8872
25759SOL    HW277856   2.563   3.269   5.434 -0.4617  0.1983 -1.1062
25760SOL     OW77857   3.485   4.028   4.596 -0.2748 -0.0333  0.4998
25760SOL    HW177858   3.435   3.990   4.668 -0.8423 -0.3834 -0.0616
25760SOL    HW277859   3.575   4.029   4.627 -0.2952 -1.4881  0.6998
25761SOL     OW77860   9.448   7.743   8.338 -0.1923 -0.3796 -0.2428
25761SOL    HW177861   9.449   7.834   8.368 -0.9674 -0.9665  1.7256
25761SOL    HW277862   9.375   7.739   8.276 -1.6178 -0.1026  1.3412
25762SOL     OW77863   1.955   6.013   1.557 -0.0359  0.2416 -0.4429
25762SOL    HW177864   1.887   6.004   1.491  0.1048  0.3038 -0.5989
25762SOL    HW277865   1.982   5.923   1.576  0.3687  0.2506 -0.9441
25763SOL     OW77866   4.226   1.827   4.609 -0.6147  0.2273  0.1260
25763SOL    HW177867   4.321   1.822   4.599 -0.6912 -0.7165 -0.2471
25763SOL    HW277868   4.192   1.809   4.522 -1.1556 -1.2963  0.6210
25764SOL     OW77869   7.446   3.191   5.842 -0.1487  0.3540 -0.0914
25764SOL    HW177870   7.521   3.143   5.879  0.1432  0.3911 -0.6263
25764SOL    HW277871   7.395   3.218   5.919  0.2849  0.1644  0.2695
25765SOL     OW77872   0.565   0.614   7.815 -0.0039  0.3120  0.0916
25765SOL    HW177873   0.588   0.560   7.891 -1.2785  1.4528  1.3356
25765SOL    HW277874   0.512   0.557   7.760  0.6233 -0.4116  0.2134
25766SOL     OW77875   6.562   8.189   0.156 -0.3970 -0.2900  0.2814
25766SOL    HW177876   6.529   8.103   0.181  0.8345 -0.7629  0.3482
25766SOL    HW277877   6.600   8.177   0.070 -1.9458  0.6619 -0.5840
25767SOL     OW77878   1.788   5.809   8.500  0.1042 -0.1669 -0.4714
25767SOL    HW177879   1.722   5.849   8.444 -1.1754 -1.3185  0.1344
25767SOL    HW277880   1.748   5.810   8.587  1.5869  0.5763  0.2324
25768SOL     OW77881   4.017   5.657   8.056  0.2999 -0.1230  0.4763
25768SOL    HW177882   4.047   5.587   7.999  0.4633  0.1127  0.2664
25768SOL    HW277883   4.085   5.724   8.049 -0.5038  0.6408 -0.4159
25769SOL     OW77884   0.379   7.677   7.030 -0.6165 -0.2481 -0.5179
25769SOL    HW177885   0.319   7.642   6.964  0.2823  0.4081 -1.7083
25769SOL    HW277886   0.352   7.633   7.111 -3.0711  0.4444 -0.8765
25770SOL     OW77887   7.825   1.071   1.942  0.8609  0.1806 -0.0361
25770SOL    HW177888   7.732   1.068   1.922  0.6069  1.5704  0.7558
25770SOL    HW277889   7.865   1.113   1.866  0.7871 -0.0429 -0.1989
25771SOL     OW77890   7.422   9.724   7.863 -0.0817  0.6468 -0.0736
25771SOL    HW177891   7.502   9.729   7.916 -0.9587 -1.1407  1.5304
25771SOL    HW277892   7.365   9.792   7.898  0.0306  0.6793  0.0471
25772SOL     OW77893   5.552   8.624   2.121  0.2393 -0.2418  0.2221
25772SOL    HW177894   5.632   8.677   2.118 -1.0490  1.7670 -2.2660
25772SOL    HW277895   5.513   8.644   2.206  1.5228  0.0296  0.7696
25773SOL     OW77896   4.455   5.706   4.705 -0.2188  0.1490 -0.3158
25773SOL    HW177897   4.479   5.779   4.762  1.1364 -0.7965  0.3752
25773SOL    HW277898   4.398   5.745   4.638  0.9336  1.9456 -0.3037
25774SOL     OW77899   5.276   1.645   1.033 -0.1081  0.3696 -0.2438
25774SOL    HW177900   5.362   1.681   1.012 -0.4778  0.2657 -2.1972
25774SOL    HW277901   5.219   1.722   1.039 -0.4213  0.3077 -1.9500
25775SOL     OW77902   9.280   1.023   2.234 -0.0188  0.1121 -0.3790
25775SOL    HW177903   9.185   1.032   2.237 -0.3694 -2.8969  1.6659
25775SOL    HW277904   9.295   0.953   2.170  0.3966 -2.1899  2.0733
25776SOL     OW77905   1.366   8.737   8.356  0.1377  0.0825 -0.0100
25776SOL    HW177906   1.432   8.668   8.361 -0.2031 -0.3475 -1.1569
25776SOL    HW277907   1.306   8.709   8.286 -2.4679 -0.5636  2.3097
25777SOL     OW77908   1.453   1.640   6.612  0.6923 -0.1137  0.2069
25777SOL    HW177909   1.440   1.653   6.706 -1.0655  1.7246 -0.2293
25777SOL    HW277910   1.375   1.592   6.584 -0.0901  1.6261 -0.7108
25778SOL     OW77911   7.730   2.427   5.446 -0.4212 -0.2524  0.0909
25778SOL    HW177912   7.793   2.457   5.381  0.8615 -1.7387  0.5932
25778SOL    HW277913   7.710   2.337   5.422  0.8245 -1.1863  2.2128
25779SOL     OW77914   8.371   2.564   3.019 -0.3507  0.0522 -0.3649
25779SOL    HW177915   8.452   2.518   2.997 -0.4519 -0.0830 -0.4532
25779SOL    HW277916   8.364   2.556   3.114  0.5327  1.3709 -0.1648
25780SOL     OW77917   3.165   6.342   6.075  0.4328  0.0802  0.5536
25780SOL    HW177918   3.203   6.341   5.988  1.0967  0.4280  0.8306
25780SOL    HW277919   3.238   6.324   6.134  0.0281  0.0278  1.0512
25781SOL     OW77920   8.562   9.708   6.676 -0.3397  0.0338 -0.2436
25781SOL    HW177921   8.621   9.641   6.709 -0.3718  0.0221 -0.2090
25781SOL    HW277922   8.606   9.741   6.597  0.0847  0.5570  0.2042
25782SOL     OW77923   5.451   7.851   2.789 -0.3351  0.0025  0.1389
25782SOL    HW177924   5.405   7.811   2.715  1.3159  0.3843 -1.1500
25782SOL    HW277925   5.423   7.943   2.786 -0.5479 -0.0586  0.2176
25783SOL     OW77926   0.633   6.589   6.003  0.0600 -0.3855  0.1874
25783SOL    HW177927   0.549   6.548   5.981  0.0772 -0.3253  0.0064
25783SOL    HW277928   0.625   6.612   6.096 -0.1682 -0.2701  0.1408
25784SOL     OW77929   5.480   1.632   2.710  0.1184 -0.1416  0.2038
25784SOL    HW177930   5.406   1.630   2.650 -0.3877 -1.7437  0.8407
25784SOL    HW277931   5.519   1.719   2.698 -2.2595  1.0007  0.3328
25785SOL     OW77932   3.426   0.613   4.365 -0.1242 -0.2947  0.6073
25785SOL    HW177933   3.469   0.529   4.376  1.1694  0.4890  1.8879
25785SOL    HW277934   3.332   0.593   4.371  0.0994 -1.8059 -0.5706
25786SOL     OW77935   3.103   9.464   5.921  0.3756  0.7405  0.2027
25786SOL    HW177936   3.120   9.550   5.960 -1.0540  1.3040 -0.3843
25786SOL    HW277937   3.015   9.441   5.950  0.8237 -0.6417  0.5259
25787SOL     OW77938   2.906   3.297   5.924  0.1082  0.1608 -0.1193
25787SOL    HW177939   2.834   3.258   5.874  0.0269  0.1370  0.0147
25787SOL    HW277940   2.908   3.246   6.005 -0.7019  1.1155  0.5296
25788SOL     OW77941   5.522   8.659   2.409 -0.3353 -0.1797 -0.3993
25788SOL    HW177942   5.588   8.590   2.398  0.1287  0.0749  0.6747
25788SOL    HW277943   5.488   8.647   2.497  0.7626  1.7952  0.3674
25789SOL     OW77944   5.645   7.119   4.355  0.1892 -0.1791 -0.3006
25789SOL    HW177945   5.657   7.047   4.292 -1.0625 -0.1070 -0.6517
25789SOL    HW277946   5.727   7.121   4.405  1.2074 -0.2690 -1.8916
25790SOL     OW77947   1.743   7.714   6.398 -0.7678 -0.7963  0.1190
25790SOL    HW177948   1.686   7.667   6.459 -0.7014  0.2363  1.0008
25790SOL    HW277949   1.696   7.710   6.314 -1.4213 -1.2310  0.4952
25791SOL     OW77950   9.432   2.287   3.582 -0.0222  0.0756  0.0784
25791SOL    HW177951   9.435   2.211   3.640 -1.9499  1.2811  1.8963
25791SOL    HW277952   9.349   2.277   3.534 -0.3416  1.0339  0.4071
25792SOL     OW77953   2.043   1.552   8.016 -0.0738 -0.0300  0.3571
25792SOL    HW177954   2.029   1.458   8.001 -0.9232  0.3240 -1.3184
25792SOL    HW277955   2.032   1.563   8.111  0.3601 -1.6582  0.6301
25793SOL     OW77956   9.722   1.619   6.745  0.2466 -0.0747  0.9394
25793SOL    HW177957   9.794   1.566   6.779 -0.3578 -1.0079  0.7894
25793SOL    HW277958   9.727   1.700   6.796  1.2914 -0.1891  1.0488
25794SOL     OW77959   9.020   3.647   3.826  0.3803  0.1350  0.3628
25794SOL    HW177960   9.025   3.654   3.731  0.9418 -0.9261  0.2926
25794SOL    HW277961   9.086   3.708   3.858  0.7669 -0.1043  0.0370
25795SOL     OW77962   0.234   6.990   3.324  0.4417 -0.0785 -0.2581
25795SOL    HW177963   0.191   7.075   3.335 -1.4971 -0.9290 -0.7173
25795SOL    HW277964   0.251   6.960   3.413 -1.7530 -0.5422  0.0599
25796SOL     OW77965   6.238   3.761   0.821  0.1258  0.2801  0.0343
25796SOL    HW177966   6.322   3.807   0.825 -0.4200  1.4164 -1.1886
25796SOL    HW277967   6.230   3.732   0.730 -1.5949  1.7459 -0.3245
25797SOL     OW77968   0.662   7.301   9.610 -0.0798 -0.2713  0.2969
25797SOL    HW177969   0.649   7.276   9.701  1.3096 -0.2311  0.5135
25797SOL    HW277970   0.580   7.274   9.567 -0.2789 -1.3933  1.3143
25798SOL     OW77971   2.305   0.911   4.768  0.1118 -0.2897 -0.0367
25798SOL    HW177972   2.354   0.834   4.739 -0.8187 -0.5330 -1.0250
25798SOL    HW277973   2.267   0.885   4.852 -1.1090 -1.3533 -0.8685
25799SOL     OW77974   2.362   6.869   2.165 -0.1696 -0.0813  0.1138
25799SOL    HW177975   2.423   6.853   2.237 -0.8266 -0.2984  0.6325
25799SOL    HW277976   2.417   6.903   2.094  0.8683 -2.1463 -0.1417
25800SOL     OW77977   8.478   9.106   7.546  0.0686  0.5896 -0.2907
25800SOL    HW177978   8.536   9.086   7.473  0.1217 -2.8973  0.4936
25800SOL    HW277979   8.402   9.148   7.505  0.7380  0.0997 -2.1646
25801SOL     OW77980   6.924   9.863   5.149 -0.0916  0.3573  0.2531
25801SOL    HW177981   6.985   9.920   5.196 -0.3979  2.1597 -1.4287
25801SOL    HW277982   6.974   9.783   5.133  0.6569  0.4541  1.8504
25802SOL     OW77983   2.517   4.237   7.622  0.6791 -0.2582 -0.1119
25802SOL    HW177984   2.579   4.307   7.643 -0.0507  0.8252 -1.3749
25802SOL    HW277985   2.452   4.241   7.693 -0.2694  1.5184 -1.0035
25803SOL     OW77986   8.670   7.161   0.035 -0.9564  0.2744 -0.4292
25803SOL    HW177987   8.765   7.157   0.038 -0.8448  2.2337  2.5056
25803SOL    HW277988   8.650   7.227  -0.031 -0.2980  0.0963 -0.8127
25804SOL     OW77989   6.697   9.935   9.976 -0.2908  0.1483 -0.0025
25804SOL    HW177990   6.692   9.875   9.901  2.0321 -0.0665 -0.0683
25804SOL    HW277991   6.621   9.913  10.030 -0.8042 -1.1892 -1.2044
25805SOL     OW77992   1.582   1.193   9.524  0.2484  0.4246  0.2309
25805SOL    HW177993   1.657   1.238   9.564 -0.1614 -0.8847  2.6898
25805SOL    HW277994   1.506   1.225   9.573 -0.3746 -0.7832  0.1024
25806SOL     OW77995   3.406   2.006   2.900  0.2575 -0.6072 -0.0071
25806SOL    HW177996   3.460   1.988   2.978 -0.7229  0.1986  0.8784
25806SOL    HW277997   3.334   2.060   2.932 -0.1207 -0.1768 -1.5067
25807SOL     OW77998   5.985   9.839   2.639  0.2616  0.2711  0.4113
25807SOL    HW177999   6.038   9.786   2.579 -1.4852  0.0100 -0.9837
25807SOL    HW278000   5.919   9.779   2.673 -0.6413  1.1023  0.1971
25808SOL     OW78001   4.947   7.216   1.717  0.6910 -0.2312 -0.4018
25808SOL    HW178002   4.998   7.181   1.644 -0.5305 -0.9951 -0.9178
25808SOL    HW278003   4.856   7.192   1.697  0.3939 -1.0998  1.7047
25809SOL     OW78004   4.278   3.021   2.671 -0.2239  0.1607 -0.4771
25809SOL    HW178005   4.223   3.013   2.593  1.1234  0.6116 -1.5161
25809SOL    HW278006   4.262   2.940   2.720 -2.4262  0.6536 -0.2862
25810SOL     OW78007   8.162   5.796   2.266  0.2720 -0.0795  0.1806
25810SOL    HW178008   8.101   5.731   2.301 -0.4644  0.2712 -0.4254
25810SOL    HW278009   8.108   5.853   2.211  0.5438  2.1355  2.0403
25811SOL     OW78010   7.328   7.246   1.617  0.1082  0.1705 -0.2107
25811SOL    HW178011   7.416   7.258   1.652 -0.2456  0.6473  0.5408
25811SOL    HW278012   7.272   7.295   1.676 -0.6851 -0.2380 -0.6087
25812SOL     OW78013   3.811   7.865   1.788 -0.1700 -0.6197  0.7745
25812SOL    HW178014   3.830   7.826   1.703  1.1879  1.8498 -0.1700
25812SOL    HW278015   3.758   7.943   1.767  0.5599  0.2801  2.1073
25813SOL     OW78016   3.773   3.384   5.395  0.2819 -0.2232 -0.4816
25813SOL    HW178017   3.740   3.457   5.342 -1.4880  0.5944  1.6234
25813SOL    HW278018   3.863   3.409   5.417 -0.0033  0.9002 -0.5340
25814SOL     OW78019   0.532   2.533   6.903 -0.3313  0.4346  0.0994
25814SOL    HW178020   0.524   2.611   6.958  0.4839  2.4375 -2.3997
25814SOL    HW278021   0.626   2.520   6.892 -0.4592 -0.8345  0.3216
25815SOL     OW78022   4.010   7.872   2.452 -1.0549 -0.4405  0.4596
25815SOL    HW178023   3.965   7.920   2.522 -1.2105 -0.1673  0.1772
25815SOL    HW278024   4.062   7.807   2.498  0.3921  1.0019  0.9608
25816SOL     OW78025   4.277   3.925   0.961  0.1905 -0.0415  0.1566
25816SOL    HW178026   4.260   3.876   1.041  0.7195  0.2282  0.4341
25816SOL    HW278027   4.218   4.000   0.965  1.8631  1.2829  1.4619
25817SOL     OW78028   7.440   8.512   6.343  0.1109 -0.0740 -0.5080
25817SOL    HW178029   7.492   8.544   6.417 -0.0556 -3.3146  1.1896
25817SOL    HW278030   7.496   8.447   6.301 -0.2819  0.8310 -2.5652
25818SOL     OW78031   6.313   1.042   3.114  0.3505  0.4189  0.0888
25818SOL    HW178032   6.398   0.999   3.105  0.1027  0.1829 -1.4054
25818SOL    HW278033   6.332   1.136   3.104  0.4795  0.4036  0.1895
25819SOL     OW78034   3.795   3.476   2.597 -0.3533  0.3903  0.3887
25819SOL    HW178035   3.747   3.422   2.660  0.4691 -1.0587 -0.1799
25819SOL    HW278036   3.736   3.483   2.522 -0.0919 -0.5645  0.0793
25820SOL     OW78037   2.010   6.744   6.931  0.1286  0.0302 -0.1299
25820SOL    HW178038   1.952   6.799   6.879 -0.7132 -1.7957 -1.2278
25820SOL    HW278039   2.042   6.802   7.000 -1.5322  1.5899 -0.5822
25821SOL     OW78040   0.911   5.617   6.449  0.1537 -0.1920 -0.2926
25821SOL    HW178041   0.863   5.676   6.506  1.1582  0.8687 -0.5106
25821SOL    HW278042   0.914   5.661   6.365  0.7032 -0.6574 -0.5277
25822SOL     OW78043   6.681   8.000   0.522 -0.1058  0.1321  0.0819
25822SOL    HW178044   6.691   8.070   0.458  1.4288  1.6524  1.8639
25822SOL    HW278045   6.734   7.928   0.487 -0.1114  0.5668 -0.8385
25823SOL     OW78046   3.563   6.614   2.135  0.1383 -0.0693 -0.1191
25823SOL    HW178047   3.607   6.641   2.215 -1.8684  0.7297  0.7844
25823SOL    HW278048   3.562   6.518   2.139 -0.1522 -0.0266  0.9256
25824SOL     OW78049   8.874   9.817   5.114 -0.0969  0.3176  0.1873
25824SOL    HW178050   8.786   9.856   5.108 -1.5383 -2.7773 -1.0871
25824SOL    HW278051   8.858   9.723   5.118  3.2104 -0.4237 -0.8074
25825SOL     OW78052   7.490   9.791   8.741  0.6261 -1.1608 -0.5141
25825SOL    HW178053   7.483   9.860   8.807  0.1052  0.3277 -2.0505
25825SOL    HW278054   7.417   9.733   8.758  0.3753 -0.6699  0.0994
25826SOL     OW78055   1.128   9.147   2.349  0.0742  0.1251  0.4374
25826SOL    HW178056   1.147   9.189   2.264  0.9486 -0.7657  0.1815
25826SOL    HW278057   1.146   9.055   2.335  1.0274  0.0735  1.8350
25827SOL     OW78058   1.683   0.123   6.831  0.2402  0.2578 -0.2285
25827SOL    HW178059   1.669   0.095   6.740  1.9946 -0.1586 -0.4141
25827SOL    HW278060   1.615   0.188   6.847 -0.3913  0.0004 -1.6855
25828SOL     OW78061   0.976   1.729   6.797  0.1466 -0.4672  0.0517
25828SOL    HW178062   0.980   1.820   6.768  0.2710 -0.1328  1.0749
25828SOL    HW278063   0.923   1.732   6.877 -0.8072 -1.4616 -0.5151
25829SOL     OW78064   6.353   6.284   8.420  0.3233  0.6645 -0.0644
25829SOL    HW178065   6.317   6.200   8.447 -0.2184  1.2327  1.0785
25829SOL    HW278066   6.281   6.329   8.377 -0.3314  1.6905  1.9725
25830SOL     OW78067   5.161   0.783   9.739 -0.7419  0.5920 -0.3550
25830SOL    HW178068   5.097   0.778   9.811 -0.0490 -1.5307  0.1979
25830SOL    HW278069   5.221   0.710   9.756  0.8910  1.5415 -1.7588
25831SOL     OW78070   9.486   2.199   1.057  0.4431 -0.0620 -0.0603
25831SOL    HW178071   9.534   2.154   0.987  0.3616  0.4429 -0.4534
25831SOL    HW278072   9.405   2.228   1.014 -0.5217 -1.4700  0.7582
25832SOL     OW78073   0.670   4.474   4.599 -0.0352 -0.5522  0.6914
25832SOL    HW178074   0.611   4.458   4.673  1.3402 -0.4912  1.8365
25832SOL    HW278075   0.756   4.488   4.639  0.3983  1.4367 -0.7790
25833SOL     OW78076   2.622   4.139   8.759 -0.3547 -0.1736  0.1930
25833SOL    HW178077   2.570   4.086   8.819  0.7708 -0.8221  0.6025
25833SOL    HW278078   2.618   4.092   8.676  1.4678 -1.4938  0.7959
25834SOL     OW78079   8.521   5.484   5.139 -0.5920  0.1075 -0.3713
25834SOL    HW178080   8.457   5.525   5.081 -1.1403  0.7324  0.6324
25834SOL    HW278081   8.605   5.517   5.109 -0.8671  0.4137 -0.8208
25835SOL     OW78082   6.161   3.454   5.192  0.5249  0.4830 -0.3573
25835SOL    HW178083   6.137   3.535   5.237 -1.2098 -0.6290  0.8028
25835SOL    HW278084   6.251   3.438   5.219  0.4011  1.2554  0.5673
25836SOL     OW78085   7.487   6.491   6.314 -0.4120  0.0221 -0.0806
25836SOL    HW178086   7.487   6.544   6.234  0.0073 -0.5508 -0.4681
25836SOL    HW278087   7.526   6.408   6.287  0.9171  0.2666  1.0004
25837SOL     OW78088   7.394   2.195   8.698  0.5707 -0.2165 -0.6319
25837SOL    HW178089   7.439   2.124   8.744  0.1284 -0.5329 -0.6845
25837SOL    HW278090   7.355   2.152   8.622 -0.5477 -0.1090 -0.1277
25838SOL     OW78091   8.616   1.474   4.982 -0.0819  0.6449 -0.0018
25838SOL    HW178092   8.669   1.425   4.919  1.5608  1.8619  0.3903
25838SOL    HW278093   8.546   1.513   4.929  1.3321  1.7431 -1.1306
25839SOL     OW78094   3.774   4.627   8.789 -0.3535 -0.2005 -0.1061
25839SOL    HW178095   3.773   4.550   8.732  0.7794 -0.4747  0.2267
25839SOL    HW278096   3.837   4.606   8.858  0.4961  1.2841 -0.3761
25840SOL     OW78097   8.313   4.985   9.950  0.2787  0.3669  0.3097
25840SOL    HW178098   8.219   5.002   9.941  0.0631 -0.8633  0.0223
25840SOL    HW278099   8.331   4.999  10.043 -0.8711 -2.3182  1.0390
25841SOL     OW78100   1.471   5.435   1.992  0.5227  0.3461 -0.1925
25841SOL    HW178101   1.412   5.362   2.009  1.5389 -0.0950  1.7351
25841SOL    HW278102   1.476   5.441   1.896  1.1056 -2.6746 -0.4268
25842SOL     OW78103   5.362   0.370   5.043  0.1296 -0.0509 -0.1376
25842SOL    HW178104   5.296   0.365   5.112  1.0175 -1.4663  0.6696
25842SOL    HW278105   5.427   0.431   5.077  0.4956 -0.6384  0.2421
25843SOL     OW78106   0.870   7.612   3.036 -0.8197 -0.5618  0.2148
25843SOL    HW178107   0.834   7.559   3.107  0.4497 -0.6738  0.7837
25843SOL    HW278108   0.873   7.701   3.071 -0.6769 -0.5294  0.1203
25844SOL     OW78109   5.312   8.366   2.866 -0.4365  0.7666 -0.2395
25844SOL    HW178110   5.331   8.336   2.954  0.6927 -0.3934 -0.8509
25844SOL    HW278111   5.225   8.405   2.872 -1.2420 -1.1080  0.9584
25845SOL     OW78112   4.686   1.826   4.676  0.1125  0.3412  0.5864
25845SOL    HW178113   4.670   1.841   4.769  1.4285 -0.4134  0.9595
25845SOL    HW278114   4.773   1.864   4.660 -0.3021  0.9069 -0.4622
25846SOL     OW78115   5.002   7.703   4.627 -0.1486  0.0324 -0.4306
25846SOL    HW178116   4.936   7.673   4.564  2.1277 -0.2092 -2.8697
25846SOL    HW278117   5.082   7.713   4.575  1.4842  1.4260  2.1491
25847SOL     OW78118   3.798   1.500   4.993 -0.5613  0.2703 -0.0643
25847SOL    HW178119   3.744   1.551   4.933  0.3517  0.8938 -0.3844
25847SOL    HW278120   3.744   1.424   5.016 -1.3234  0.5596 -0.8454
25848SOL     OW78121   7.920   0.279   5.596 -0.3066  0.0125  0.6941
25848SOL    HW178122   7.889   0.367   5.617  0.5707 -0.0681  2.4636
25848SOL    HW278123   7.981   0.292   5.523 -1.3878  0.6525 -0.1230
25849SOL     OW78124   4.524   9.087   0.015 -0.1700 -0.6179  0.1624
25849SOL    HW178125   4.520   9.123   0.103 -1.5622 -1.5820  0.5305
25849SOL    HW278126   4.443   9.036   0.006  0.6705 -1.8102 -1.1197
25850SOL     OW78127   3.714   0.788   0.527  0.0660  0.2418  0.0405
25850SOL    HW178128   3.744   0.705   0.490 -2.6479 -0.2851 -1.2195
25850SOL    HW278129   3.751   0.854   0.469  0.3165 -0.2358 -0.3592
25851SOL     OW78130   2.982   6.431   9.360  0.3302 -0.7506  0.2107
25851SOL    HW178131   2.959   6.487   9.286  0.3435 -0.1739  0.6405
25851SOL    HW278132   3.035   6.361   9.321  2.1056  0.6703 -0.0427
25852SOL     OW78133   8.426   7.918   1.215 -0.0971 -0.3387 -0.5825
25852SOL    HW178134   8.468   7.912   1.129  0.2482 -0.6709 -0.3917
25852SOL    HW278135   8.434   7.830   1.251  1.4319  0.2416  0.5853
25853SOL     OW78136   6.491   2.925   5.880 -0.5214  0.2167 -0.1020
25853SOL    HW178137   6.547   2.920   5.957 -1.3148  0.8754  0.5449
25853SOL    HW278138   6.403   2.907   5.914 -0.9868  1.2811 -0.7045
25854SOL     OW78139   4.131   5.536   0.582 -0.4002  0.1149 -0.2294
25854SOL    HW178140   4.075   5.487   0.523 -0.9216  0.8768 -0.3786
25854SOL    HW278141   4.217   5.535   0.539 -0.4865 -0.3604 -0.3988
25855SOL     OW78142   2.723   1.437   2.924 -0.0131 -0.4797  0.1646
25855SOL    HW178143   2.632   1.461   2.940 -0.4631 -1.1930 -1.1484
25855SOL    HW278144   2.771   1.476   2.996 -1.4358 -0.6447  1.2605
25856SOL     OW78145   0.932   5.480   5.828 -0.3331  0.0476 -0.1854
25856SOL    HW178146   0.864   5.420   5.797  0.4240 -1.5150  1.0182
25856SOL    HW278147   0.931   5.471   5.923  1.1498  0.4455 -0.0999
25857SOL     OW78148   6.914   8.034   4.315 -0.2921  0.0819 -0.2965
25857SOL    HW178149   6.952   8.109   4.360 -0.2083 -0.3604  0.3785
25857SOL    HW278150   6.879   7.979   4.385 -2.0730  0.4089 -0.8689
25858SOL     OW78151   9.348   0.547   1.473 -0.5068 -0.0924 -0.2593
25858SOL    HW178152   9.383   0.562   1.385  0.3399 -0.1304  0.0538
25858SOL    HW278153   9.347   0.634   1.513  1.0255 -0.3218  0.3559
25859SOL     OW78154   4.033   9.104   4.585  0.1004  0.1804 -0.0420
25859SOL    HW178155   3.964   9.057   4.632 -0.0654  1.4340  1.0221
25859SOL    HW278156   4.114   9.073   4.625  0.0155  0.4080  0.3181
25860SOL     OW78157   0.048   1.352   3.904 -0.6428 -0.1249  0.3504
25860SOL    HW178158   0.073   1.433   3.949 -0.2273  0.1754 -0.3955
25860SOL    HW278159   0.130   1.301   3.901 -0.6556 -0.1163 -0.1138
25861SOL     OW78160   3.726   4.072   4.328 -0.0364  0.2722 -0.3728
25861SOL    HW178161   3.756   4.142   4.386  3.3882 -2.3631  1.4463
25861SOL    HW278162   3.764   4.093   4.243 -0.8652  1.6447 -0.4276
25862SOL     OW78163   9.484   0.480   0.939 -0.1245 -0.0886  0.8021
25862SOL    HW178164   9.439   0.487   1.023 -1.7344  1.2836 -0.1045
25862SOL    HW278165   9.418   0.506   0.875  1.1693 -0.7571 -0.8635
25863SOL     OW78166   7.731   6.715   0.794 -0.0974 -0.3509 -0.2324
25863SOL    HW178167   7.710   6.621   0.788  0.8201 -0.5419 -0.6624
25863SOL    HW278168   7.647   6.757   0.811 -0.7566 -1.1345 -1.3744
25864SOL     OW78169   4.280   4.234   3.155  0.1866 -0.4002  0.2619
25864SOL    HW178170   4.264   4.320   3.193 -0.9439 -0.9748  1.1412
25864SOL    HW278171   4.354   4.248   3.096 -0.3958  1.3098 -0.1317
25865SOL     OW78172   5.789   9.790   0.837 -0.1663  0.2460  0.2303
25865SOL    HW178173   5.780   9.856   0.906  2.3198  2.1124 -1.1174
25865SOL    HW278174   5.808   9.709   0.885 -1.2649  0.8572  1.8175
25866SOL     OW78175   4.138   3.355   1.246  0.2516 -0.0429  0.2358
25866SOL    HW178176   4.164   3.367   1.337  0.6770 -0.4023  0.1662
25866SOL    HW278177   4.108   3.441   1.217 -0.5873 -0.0859  0.9279
25867SOL     OW78178   7.280   8.413   2.066 -0.4440  0.3098 -0.4369
25867SOL    HW178179   7.365   8.369   2.058 -1.0893 -1.2155  0.5554
25867SOL    HW278180   7.292   8.497   2.023  2.0309  0.7852  0.9805
25868SOL     OW78181   1.668   3.630   4.369  0.1752  0.1933 -0.5116
25868SOL    HW178182   1.613   3.692   4.320 -1.3417 -0.0753  0.7686
25868SOL    HW278183   1.607   3.586   4.428  1.6413 -0.8020  0.3153
25869SOL     OW78184   1.481   9.218   3.250 -0.0054  0.1587  0.4266
25869SOL    HW178185   1.525   9.271   3.184  0.2302 -0.7830 -0.2020
25869SOL    HW278186   1.482   9.129   3.214 -0.2616 -0.3053  1.5056
25870SOL     OW78187   5.193   9.336   0.968 -0.1798 -0.1303 -0.0912
25870SOL    HW178188   5.175   9.256   0.919 -0.9564  0.7013 -1.2246
25870SOL    HW278189   5.146   9.325   1.051  2.2527 -2.1299  1.1309
25871SOL     OW78190   2.979   2.115   8.894 -0.2449 -0.1877  0.4547
25871SOL    HW178191   2.979   2.020   8.901  1.3864 -0.6398 -3.2239
25871SOL    HW278192   2.912   2.134   8.828  0.7529  1.0037 -0.2464
25872SOL     OW78193   9.296   0.219   2.002  0.2606  0.4781  0.4033
25872SOL    HW178194   9.289   0.126   1.982  0.6375  0.0309  2.1519
25872SOL    HW278195   9.210   0.242   2.039  0.7640  0.3294  1.7235
25873SOL     OW78196   8.333   0.731   1.223  0.1280 -0.4257 -0.4234
25873SOL    HW178197   8.366   0.647   1.254 -1.0152 -1.1861 -1.1974
25873SOL    HW278198   8.262   0.752   1.284  0.6713  0.1894  0.0094
25874SOL     OW78199   9.384   6.181   4.012  0.2364  0.1334 -0.3644
25874SOL    HW178200   9.343   6.166   3.927  0.8218 -1.2343 -0.4316
25874SOL    HW278201   9.437   6.103   4.028  1.4419  1.0700  0.5116
25875SOL     OW78202   3.069   9.617   6.493  0.2075 -0.0248  0.5002
25875SOL    HW178203   3.120   9.566   6.556  0.6709 -0.3765 -0.1459
25875SOL    HW278204   3.026   9.551   6.438  0.8795  0.2541 -0.3993
25876SOL     OW78205   9.872   9.812   4.255  0.3565 -0.5402  0.0271
25876SOL    HW178206   9.964   9.834   4.271 -0.1863  1.5535  0.6048
25876SOL    HW278207   9.833   9.895   4.228 -1.9881 -0.6590  2.6467
25877SOL     OW78208   6.084   7.979   5.702  0.1785 -0.2704 -0.1651
25877SOL    HW178209   6.165   7.939   5.672  1.5197  1.9233  0.3390
25877SOL    HW278210   6.058   8.038   5.631 -0.6031 -0.4367 -0.0312
25878SOL     OW78211   7.976   4.978   0.423  0.1411  0.2593 -0.0558
25878SOL    HW178212   7.978   4.896   0.372  1.5818  0.0689  0.2427
25878SOL    HW278213   8.031   5.038   0.372 -2.4502  1.7425 -1.3030
25879SOL     OW78214   4.785   6.256   5.129 -0.2408 -0.2423 -0.5229
25879SOL    HW178215   4.708   6.278   5.076  0.7836  1.0342 -1.5415
25879SOL    HW278216   4.832   6.339   5.139  1.4535 -1.1314 -0.6749
25880SOL     OW78217   5.004   9.456   2.877  0.2343  0.7005  0.3670
25880SOL    HW178218   4.935   9.389   2.876  1.8549 -1.0450 -0.0370
25880SOL    HW278219   5.046   9.445   2.963  0.7409  0.9491  0.1530
25881SOL     OW78220   7.381   4.169   8.981  0.2726 -0.2772 -0.6458
25881SOL    HW178221   7.354   4.197   8.894  1.7716  1.4026 -0.6247
25881SOL    HW278222   7.443   4.099   8.967  1.6107  0.9403 -1.0461
25882SOL     OW78223  -0.003   5.715   6.135 -0.1064  0.0860  0.6694
25882SOL    HW178224  -0.049   5.649   6.187 -0.8575  0.5888  0.6576
25882SOL    HW278225   0.078   5.672   6.107  0.2086 -0.2738  2.0664
25883SOL     OW78226   2.330   8.837   8.412  0.0235  0.4956  0.0246
25883SOL    HW178227   2.419   8.839   8.448  0.4356 -0.3205 -0.9034
25883SOL    HW278228   2.304   8.929   8.407  0.9807  0.7689 -0.1000
25884SOL     OW78229   1.448   3.130   6.139  0.2839  0.1553 -0.5666
25884SOL    HW178230   1.368   3.103   6.184 -0.3728  0.5823 -1.4494
25884SOL    HW278231   1.485   3.048   6.106  0.8727 -0.1817  0.8729
25885SOL     OW78232   5.768   6.977   3.251  0.1091 -0.3981  0.2558
25885SOL    HW178233   5.698   6.996   3.189 -0.6354 -0.7303  0.9708
25885SOL    HW278234   5.756   7.041   3.321  0.3762 -0.6037  0.4925
25886SOL     OW78235   5.062   4.037   7.482 -0.6947 -0.4479  0.1683
25886SOL    HW178236   5.022   4.105   7.428  1.7703  0.1289 -1.0897
25886SOL    HW278237   5.020   3.956   7.453 -1.9714  0.2423 -0.0113
25887SOL     OW78238   5.246   6.541   1.372 -0.0655 -0.4942 -0.0734
25887SOL    HW178239   5.306   6.480   1.328  1.9739  1.9230 -0.8147
25887SOL    HW278240   5.169   6.543   1.314  1.2072  0.1060 -1.8360
25888SOL     OW78241   0.073   9.225   1.906  0.4515  0.0144  0.9409
25888SOL    HW178242   0.055   9.213   1.999  0.4903  0.9234  1.0770
25888SOL    HW278243   0.139   9.295   1.903 -0.8939  1.3082  0.1673
25889SOL     OW78244   9.192   4.338   0.680 -0.0047  0.0214  0.0784
25889SOL    HW178245   9.136   4.267   0.648  1.3142 -2.1206  2.1911
25889SOL    HW278246   9.133   4.396   0.727 -1.0275  0.0341 -1.1712
25890SOL     OW78247   7.628   0.360   1.054 -0.6158 -0.1674 -0.1858
25890SOL    HW178248   7.546   0.311   1.062  0.0479 -1.3516 -0.3878
25890SOL    HW278249   7.616   0.414   0.975  0.0389 -2.9546 -2.3698
25891SOL     OW78250   2.506   4.390   0.577 -0.1704 -0.3094 -0.0576
25891SOL    HW178251   2.585   4.444   0.583 -0.3054 -0.1486  0.2948
25891SOL    HW278252   2.442   4.445   0.533 -0.7338  0.3306  1.4926
25892SOL     OW78253   7.670   9.479   7.845 -0.8007 -0.8686 -0.4645
25892SOL    HW178254   7.608   9.412   7.818 -0.0109 -0.9119 -2.3198
25892SOL    HW278255   7.714   9.506   7.764 -0.3720  1.1664  0.3617
25893SOL     OW78256   3.060   3.080   8.683  0.3982 -0.2465  0.2192
25893SOL    HW178257   2.992   3.019   8.711 -0.6069  0.4067 -0.7289
25893SOL    HW278258   3.062   3.146   8.752  0.6680 -0.7085  0.6647
25894SOL     OW78259   2.554   3.667   4.012  0.6349 -0.0847  0.4194
25894SOL    HW178260   2.631   3.645   4.065  1.8834  2.1185 -0.3680
25894SOL    HW278261   2.585   3.664   3.922 -0.6174 -0.5669 -0.0219
25895SOL     OW78262   8.825   5.982   8.257  0.2398  0.2977 -0.0544
25895SOL    HW178263   8.843   5.975   8.350 -0.8916 -0.3223  0.1382
25895SOL    HW278264   8.740   5.941   8.246  1.2081 -1.4325 -1.6539
25896SOL     OW78265   4.811   3.481   1.680  0.0923 -0.0427  0.2814
25896SOL    HW178266   4.836   3.388   1.678  0.2848  0.0029  0.4709
25896SOL    HW278267   4.862   3.520   1.609  2.2811  0.4579  1.9962
25897SOL     OW78268   0.520   0.803   1.964 -0.4206  0.4539 -0.0847
25897SOL    HW178269   0.490   0.858   2.036  0.0111  0.6940 -0.0812
25897SOL    HW278270   0.513   0.713   1.997  1.2334  0.6254  0.8447
25898SOL     OW78271   1.859   4.822   6.583 -0.5511  0.0770  0.0749
25898SOL    HW178272   1.814   4.789   6.661  1.1819  3.2028  2.6262
25898SOL    HW278273   1.948   4.840   6.612  0.1226  1.5914 -2.5807
25899SOL     OW78274   2.542   4.316   1.624  0.2310  0.2704  0.0560
25899SOL    HW178275   2.624   4.305   1.576  0.7800  1.0275  0.7916
25899SOL    HW278276   2.475   4.277   1.567  1.2025 -1.1059 -0.1865
25900SOL     OW78277   4.317   5.824   2.840  0.1612  0.3191 -0.0735
25900SOL    HW178278   4.241   5.767   2.852  1.1640 -1.7528 -2.6203
25900SOL    HW278279   4.351   5.838   2.929 -2.1873 -0.0494  0.9557
25901SOL     OW78280   5.724   5.678   5.649  0.1880  0.4089 -0.3278
25901SOL    HW178281   5.663   5.737   5.694  2.4318  2.1132  0.7293
25901SOL    HW278282   5.739   5.720   5.564 -0.9817 -0.6515 -1.0795
25902SOL     OW78283   9.169   3.882   5.061 -0.0543  0.3514 -0.2284
25902SOL    HW178284   9.251   3.836   5.080 -0.7207 -0.9217 -0.3497
25902SOL    HW278285   9.140   3.915   5.146  1.0243  1.6119 -0.3175
25903SOL     OW78286   9.684   3.054   7.295 -0.1689 -0.1106 -0.3380
25903SOL    HW178287   9.665   3.146   7.276  2.6899  0.3599 -1.3942
25903SOL    HW278288   9.601   3.019   7.328 -1.2453  2.9262  0.5379
25904SOL     OW78289   1.665   8.859   2.202 -0.3198  0.0393  0.2732
25904SOL    HW178290   1.634   8.777   2.163 -1.1661  1.3764 -2.0179
25904SOL    HW278291   1.643   8.851   2.295 -0.3511 -2.3088  0.1292
25905SOL     OW78292   9.938   8.212   0.300  0.0111  0.1610  0.2131
25905SOL    HW178293   9.946   8.156   0.377  0.4975  0.3913  0.3284
25905SOL    HW278294   9.856   8.184   0.259  0.0371 -0.3481  0.5028
25906SOL     OW78295   7.959   6.365   3.798  0.3480 -0.0361 -0.0906
25906SOL    HW178296   7.865   6.348   3.800  0.1873  0.8297  0.2282
25906SOL    HW278297   7.975   6.408   3.714  0.1989  1.1918  0.4979
25907SOL     OW78298   1.119   5.609   9.320 -0.3047 -0.3637  0.1990
25907SOL    HW178299   1.128   5.561   9.237  0.8737  0.3588 -0.1238
25907SOL    HW278300   1.120   5.701   9.294 -2.2216 -0.1288  0.8350
25908SOL     OW78301   4.632   2.031   8.021 -0.3152 -0.3080  0.2550
25908SOL    HW178302   4.656   1.939   8.032 -0.3306 -0.3302  0.0948
25908SOL    HW278303   4.684   2.061   7.947  0.2966  0.0245  0.8030
25909SOL     OW78304   0.420   1.756   6.526 -0.5253  0.1601 -0.6367
25909SOL    HW178305   0.356   1.732   6.594 -0.7427 -0.4066 -1.0302
25909SOL    HW278306   0.385   1.836   6.488 -0.6356  0.2346 -0.3847
25910SOL     OW78307   2.831   9.069   0.651 -0.1500 -0.5612 -0.3681
25910SOL    HW178308   2.760   9.125   0.682 -0.1480 -0.5595 -0.3666
25910SOL    HW278309   2.862   9.113   0.571  1.5262  0.8179  0.9676
25911SOL     OW78310   9.725   1.226   5.951 -0.4487  0.0256  0.1799
25911SOL    HW178311   9.789   1.157   5.972 -0.4761 -0.3030 -0.7905
25911SOL    HW278312   9.759   1.268   5.873 -0.7885  0.6818  0.3755
25912SOL     OW78313   1.036   6.803   5.680 -1.0367 -0.0441 -0.3244
25912SOL    HW178314   1.112   6.839   5.724 -0.6754 -2.2593  1.0440
25912SOL    HW278315   1.062   6.796   5.588  0.3683 -0.5867  0.0866
25913SOL     OW78316   0.272   0.451   7.650  0.4094  0.1170 -0.2195
25913SOL    HW178317   0.346   0.392   7.636 -0.3834 -0.5474 -2.0283
25913SOL    HW278318   0.303   0.537   7.623  0.7570  0.0044 -0.1822
25914SOL     OW78319   1.330   0.709   5.917  0.6366  0.5530 -0.3721
25914SOL    HW178320   1.388   0.638   5.889 -1.5337 -1.2890 -0.5084
25914SOL    HW278321   1.285   0.736   5.836 -2.3236 -1.6434  0.3494
25915SOL     OW78322   4.124   3.643   8.553 -0.4589  0.1919  1.1394
25915SOL    HW178323   4.148   3.732   8.577  0.2411  0.5157 -0.5904
25915SOL    HW278324   4.053   3.654   8.489 -0.4608 -0.4913  1.0167
25916SOL     OW78325   3.817   5.158   3.460 -0.1050  0.4747  0.3634
25916SOL    HW178326   3.850   5.076   3.422  0.8993  0.3500  1.4719
25916SOL    HW278327   3.850   5.226   3.402  0.0538  0.1861  0.1078
25917SOL     OW78328   0.159   1.382   5.510  0.1395  0.0452  0.8524
25917SOL    HW178329   0.162   1.416   5.420  0.9514 -1.1582  0.3915
25917SOL    HW278330   0.089   1.317   5.508 -0.8417  1.0450  1.5060
25918SOL     OW78331   8.921   8.269   4.856  0.0886  0.7271 -0.3203
25918SOL    HW178332   8.884   8.319   4.783  0.0312 -1.4069 -1.8391
25918SOL    HW278333   8.992   8.218   4.817  0.8415  0.4236  1.3689
25919SOL     OW78334   6.699   3.348   0.587 -0.3784  0.4454  0.0640
25919SOL    HW178335   6.677   3.276   0.645 -2.0994 -2.2578 -3.5320
25919SOL    HW278336   6.790   3.331   0.562 -0.8421 -0.7590 -0.9427
25920SOL     OW78337   6.554   5.088   5.454  0.0049 -0.1555 -0.1207
25920SOL    HW178338   6.614   5.160   5.433 -0.4131  0.1653 -0.2172
25920SOL    HW278339   6.478   5.103   5.398 -0.2562 -0.4490  0.1539
25921SOL     OW78340   3.116   1.174   9.736 -0.0240 -0.3900 -0.2131
25921SOL    HW178341   3.058   1.107   9.774 -1.2581  1.1424  0.6996
25921SOL    HW278342   3.151   1.221   9.811 -1.1587  1.5928 -0.8629
25922SOL     OW78343   9.340   1.632   6.018  0.3311 -0.5452 -0.5458
25922SOL    HW178344   9.397   1.622   6.093 -0.0740 -0.0342 -0.1632
25922SOL    HW278345   9.316   1.543   5.993  0.6478 -0.7214 -0.2120
25923SOL     OW78346   1.040   8.941   9.095 -0.2067  0.5597 -0.4724
25923SOL    HW178347   1.131   8.939   9.065  0.1960  0.5767  0.7123
25923SOL    HW278348   1.006   8.854   9.072 -0.0607  0.7372 -1.3955
25924SOL     OW78349   1.298   6.767   2.940  0.1458  0.2255  0.2526
25924SOL    HW178350   1.237   6.841   2.941 -0.9550 -0.6497 -0.4022
25924SOL    HW278351   1.324   6.760   2.848  2.3508  1.4518  0.7189
25925SOL     OW78352   9.948   6.238   8.641  0.2733 -0.1454 -0.2546
25925SOL    HW178353   9.981   6.326   8.659 -1.8556  0.4539  1.1670
25925SOL    HW278354   9.967   6.189   8.721 -1.7044  0.1004  0.4317
25926SOL     OW78355   0.057   1.473   3.646  0.3502 -0.8524  0.0037
25926SOL    HW178356  -0.035   1.453   3.628  0.0284  0.3426  0.2383
25926SOL    HW278357   0.071   1.442   3.736 -0.8069  1.9217  1.2551
25927SOL     OW78358   2.355   0.114   9.681 -0.2598 -0.0447 -0.4740
25927SOL    HW178359   2.323   0.203   9.666 -1.5551 -0.7063 -1.9081
25927SOL    HW278360   2.344   0.100   9.776 -0.0435  1.2918 -0.2318
25928SOL     OW78361   9.635   5.601   2.770  0.1180 -0.2424 -0.0574
25928SOL    HW178362   9.597   5.685   2.744  0.9765 -0.1387 -1.0276
25928SOL    HW278363   9.729   5.615   2.765  0.3228 -0.6208  1.9160
25929SOL     OW78364   5.759   6.742   3.525 -0.1499  0.5253  0.9078
25929SOL    HW178365   5.846   6.757   3.488 -1.2720  0.8081 -1.8749
25929SOL    HW278366   5.747   6.813   3.588  1.4750  0.7063  1.0489
25930SOL     OW78367   3.439   2.441   8.601 -0.5122 -0.0854  0.2473
25930SOL    HW178368   3.513   2.500   8.582  0.0460 -1.0475 -0.6401
25930SOL    HW278369   3.440   2.432   8.697 -0.0078  0.5792  0.3119
25931SOL     OW78370   8.922   7.337   7.451 -0.1489 -0.2561 -0.1637
25931SOL    HW178371   8.850   7.393   7.422  0.8197  0.6713 -0.8708
25931SOL    HW278372   8.903   7.319   7.543 -0.9434  0.5225 -0.1592
25932SOL     OW78373   5.898   2.618   2.375  0.4207 -0.6085 -0.4655
25932SOL    HW178374   5.965   2.562   2.416 -0.1110 -0.7371  0.2479
25932SOL    HW278375   5.852   2.559   2.315  0.0830 -0.8605  0.0333
25933SOL     OW78376   0.340   7.497   9.857 -0.1552  0.5682 -0.0749
25933SOL    HW178377   0.275   7.529   9.794  0.7855  0.6591 -1.0281
25933SOL    HW278378   0.378   7.420   9.814  2.6654  2.3739 -1.0363
25934SOL     OW78379   3.404   9.200   3.451 -0.5299 -0.3283  0.0937
25934SOL    HW178380   3.413   9.114   3.410 -0.7780 -0.4103  0.2103
25934SOL    HW278381   3.451   9.259   3.392  0.1431 -0.6339  0.3125
25935SOL     OW78382   9.703   6.090   6.523  0.0019  0.6712 -0.1433
25935SOL    HW178383   9.711   6.178   6.561 -0.1674  1.0404 -0.9227
25935SOL    HW278384   9.695   6.106   6.429 -1.2312 -0.1102 -0.1994
25936SOL     OW78385   8.455   3.520   7.590  0.0340  0.1137 -0.2446
25936SOL    HW178386   8.445   3.474   7.507 -0.5883  0.5762 -0.4300
25936SOL    HW278387   8.494   3.604   7.566  0.1500  0.1210 -0.0306
25937SOL     OW78388   3.699   5.774   3.315  0.4975 -0.0374  0.5070
25937SOL    HW178389   3.615   5.779   3.359 -0.3387 -1.9863 -0.7203
25937SOL    HW278390   3.755   5.725   3.375 -0.5627 -2.4675 -0.3581
25938SOL     OW78391   9.018   9.028   7.178  0.5588 -0.5742  0.2776
25938SOL    HW178392   9.067   8.961   7.226  0.0038 -0.9521  0.3369
25938SOL    HW278393   8.926   9.000   7.188  0.1561  1.0910  1.7332
25939SOL     OW78394   2.159   7.041   2.206  0.4005 -0.2165  0.1041
25939SOL    HW178395   2.191   7.111   2.149 -1.7712 -0.2957 -1.3283
25939SOL    HW278396   2.213   6.965   2.184  0.4984  0.1177 -0.8585
25940SOL     OW78397   3.606   6.140   3.697  0.5167 -0.6915 -0.0384
25940SOL    HW178398   3.671   6.117   3.630  0.0576  0.7068 -1.0273
25940SOL    HW278399   3.657   6.176   3.769  0.8983  0.4456 -0.8314
25941SOL     OW78400   1.651   5.310   0.436  0.5600  0.1078  0.8524
25941SOL    HW178401   1.649   5.405   0.424 -0.6137 -0.2267 -2.5046
25941SOL    HW278402   1.564   5.289   0.470  0.6427  0.1807  1.1111
25942SOL     OW78403   0.554   2.735   8.996 -0.4201  0.4554  0.4279
25942SOL    HW178404   0.602   2.652   9.001  0.6718  0.9161 -1.6070
25942SOL    HW278405   0.463   2.709   8.980 -0.2201 -0.3408  0.5448
25943SOL     OW78406   0.905   1.251   3.780 -0.4856  0.1345 -0.1115
25943SOL    HW178407   0.978   1.189   3.781 -0.8041 -0.2926 -1.2914
25943SOL    HW278408   0.944   1.335   3.756 -0.2543  0.0879  0.1018
25944SOL     OW78409   8.394   1.129   4.810  0.3309  0.3515 -0.0194
25944SOL    HW178410   8.473   1.165   4.771  1.1094 -0.5245  0.6981
25944SOL    HW278411   8.425   1.083   4.889 -0.9786  0.6298  0.6855
25945SOL     OW78412   5.822   8.249   1.630  0.0039  0.2723  0.2721
25945SOL    HW178413   5.825   8.309   1.705 -1.5502  1.8005 -0.8007
25945SOL    HW278414   5.827   8.306   1.554 -0.5305 -1.0632 -0.7982
25946SOL     OW78415   3.523   0.186   3.347  0.2008  0.7414  0.4589
25946SOL    HW178416   3.587   0.120   3.374  0.2457  0.3106 -0.6170
25946SOL    HW278417   3.439   0.153   3.378  0.4120  0.9889  1.3196
25947SOL     OW78418   1.086   8.084   7.840 -0.1696 -0.1003  0.4763
25947SOL    HW178419   1.004   8.093   7.792  0.2849 -1.1549 -0.5674
25947SOL    HW278420   1.152   8.126   7.784  0.0680  0.4474  1.1467
25948SOL     OW78421   8.231   3.319   9.423  0.3711  0.1219 -0.2357
25948SOL    HW178422   8.323   3.314   9.447  0.1421  0.6209  0.8024
25948SOL    HW278423   8.186   3.339   9.505 -0.5319  1.1213 -0.9464
25949SOL     OW78424   2.897   5.130   6.158  0.0537 -0.1751  0.0476
25949SOL    HW178425   2.856   5.062   6.212 -0.3656  0.7096  0.8890
25949SOL    HW278426   2.981   5.093   6.132  0.4634 -0.4931  1.6907
25950SOL     OW78427   7.119   4.808   0.319  0.2641 -0.2095  0.3795
25950SOL    HW178428   7.148   4.865   0.247 -0.8410  1.1676  0.9841
25950SOL    HW278429   7.121   4.720   0.281  1.3072  0.2833 -0.8132
25951SOL     OW78430   0.888   4.860   0.557 -0.0704 -0.4760  0.8212
25951SOL    HW178431   0.893   4.857   0.653 -0.5593  0.0825  0.8683
25951SOL    HW278432   0.900   4.953   0.535  0.4874 -0.6620  0.3112
25952SOL     OW78433   1.449   2.751   6.530 -0.4233 -0.4388  0.5654
25952SOL    HW178434   1.463   2.781   6.440 -1.4770  0.8707  0.8023
25952SOL    HW278435   1.512   2.680   6.542  0.4999  0.1009 -0.8474
25953SOL     OW78436   8.788   0.409   6.243  0.3875  0.0935 -0.5436
25953SOL    HW178437   8.768   0.485   6.189 -0.8216 -0.1448 -0.4671
25953SOL    HW278438   8.876   0.424   6.275  1.6832 -0.3143 -3.5496
25954SOL     OW78439   8.754   5.018   2.691 -0.1935  0.2560  0.3877
25954SOL    HW178440   8.693   5.081   2.653  1.1168  0.8424 -0.8144
25954SOL    HW278441   8.790   5.061   2.768  0.7198  1.0298 -0.4472
25955SOL     OW78442   9.486   1.228   2.238 -0.1137  0.0459  0.6559
25955SOL    HW178443   9.407   1.175   2.250 -1.4929  1.9493  0.4608
25955SOL    HW278444   9.511   1.254   2.327  0.1136 -0.2956  0.6934
25956SOL     OW78445   3.497   8.850   0.457 -0.1750  0.0445 -0.1065
25956SOL    HW178446   3.474   8.939   0.483  0.1511  0.0437  0.1860
25956SOL    HW278447   3.447   8.794   0.517  0.7755  0.0433  0.7153
25957SOL     OW78448   5.926   3.377   2.120 -0.5858 -0.3567 -0.1539
25957SOL    HW178449   5.837   3.349   2.100 -1.0275  0.0300  1.1401
25957SOL    HW278450   5.967   3.300   2.161  0.0040 -0.8406 -1.5917
25958SOL     OW78451   2.376   3.696   6.297 -0.1949 -0.2375  0.3569
25958SOL    HW178452   2.397   3.760   6.365 -0.0096  0.1371 -0.0513
25958SOL    HW278453   2.369   3.613   6.344  2.1671 -0.3841  0.5379
25959SOL     OW78454   7.074   0.501   3.206  0.1432 -0.0351  0.5894
25959SOL    HW178455   6.999   0.444   3.223  0.3617 -1.0205 -1.4726
25959SOL    HW278456   7.035   0.579   3.165  0.1601 -0.1852  0.2855
25960SOL     OW78457   5.464   5.196   8.911 -0.2224  0.4262 -0.2175
25960SOL    HW178458   5.516   5.216   8.989 -0.6157  1.7885 -0.2817
25960SOL    HW278459   5.527   5.191   8.840  0.1049 -0.5214  0.1266
25961SOL     OW78460   6.124   8.230   3.705  0.7363 -0.1885 -0.0310
25961SOL    HW178461   6.170   8.196   3.628  1.1834  0.9378 -0.2817
25961SOL    HW278462   6.112   8.153   3.761  2.9591 -0.5633  0.0561
25962SOL     OW78463   4.239   6.748   5.794 -0.8757  0.0674  0.1890
25962SOL    HW178464   4.281   6.682   5.848 -0.6061 -0.0855 -0.2014
25962SOL    HW278465   4.291   6.827   5.806 -1.5095  0.3713  1.0756
25963SOL     OW78466   6.761   0.829   0.195 -0.5005  0.4849 -0.2795
25963SOL    HW178467   6.823   0.897   0.220 -2.2396  1.9803  0.1528
25963SOL    HW278468   6.740   0.783   0.276  0.8678 -0.8077 -0.6100
25964SOL     OW78469   7.194   2.565   5.103  0.1669  0.1649  0.0255
25964SOL    HW178470   7.136   2.599   5.034  1.3369  2.6535  0.1571
25964SOL    HW278471   7.204   2.473   5.082 -2.3591  0.0330 -1.0496
25965SOL     OW78472   4.485   4.594   7.292 -0.3674  0.4322  0.6410
25965SOL    HW178473   4.565   4.641   7.317 -0.4238  0.4969  0.6996
25965SOL    HW278474   4.517   4.518   7.244 -0.2540  0.3020  0.9158
25966SOL     OW78475   1.048   0.790   9.442 -0.0091  0.4735 -0.4010
25966SOL    HW178476   1.058   0.855   9.512  1.4457  0.6150 -0.6937
25966SOL    HW278477   1.083   0.834   9.364  0.8212 -0.5689 -0.6424
25967SOL     OW78478   8.053   7.621   0.878 -0.4426  0.4043 -0.7580
25967SOL    HW178479   8.006   7.600   0.797 -2.1547 -0.3169  0.3641
25967SOL    HW278480   8.034   7.548   0.936  0.1196  1.2691  0.5562
25968SOL     OW78481   9.769   3.443   7.755  0.5237 -0.5430  0.1343
25968SOL    HW178482   9.734   3.385   7.687 -0.2964  0.1405 -0.0366
25968SOL    HW278483   9.798   3.521   7.708  0.8915 -0.4833  0.4541
25969SOL     OW78484   3.567   1.204   0.308 -0.3312  0.1347  0.0989
25969SOL    HW178485   3.481   1.246   0.303 -0.6844 -0.5998 -0.1482
25969SOL    HW278486   3.585   1.197   0.402 -0.1468  1.0533  0.1464
25970SOL     OW78487   5.450   9.407   5.249  0.5220 -0.6872 -0.0571
25970SOL    HW178488   5.368   9.378   5.212  0.5430  0.7713 -1.3594
25970SOL    HW278489   5.425   9.477   5.310  0.7575 -0.4595 -0.2175
25971SOL     OW78490   2.899   6.141   1.106  0.1216 -0.2403  0.2686
25971SOL    HW178491   2.932   6.069   1.051  0.0852  0.3753 -0.5787
25971SOL    HW278492   2.976   6.193   1.127  0.0112 -0.0166  0.1199
25972SOL     OW78493   1.449   5.525   3.284 -0.2463 -0.2632  0.1345
25972SOL    HW178494   1.369   5.486   3.249 -0.9149  0.3337  0.9523
25972SOL    HW278495   1.491   5.454   3.334 -0.6811 -0.3661  0.3613
25973SOL     OW78496   1.456   5.840   1.096  0.5465 -0.3452  0.0406
25973SOL    HW178497   1.429   5.749   1.085  1.9170 -0.8611  0.6417
25973SOL    HW278498   1.382   5.891   1.064 -0.2911 -1.6647 -0.2262
25974SOL     OW78499   5.669   2.945   7.036 -0.4338  0.2930 -0.0653
25974SOL    HW178500   5.599   2.950   7.102 -2.3118  0.1200 -1.9189
25974SOL    HW278501   5.710   3.031   7.038 -1.4944  0.8108  0.2615
25975SOL     OW78502   9.088   7.645   4.438  0.0996 -0.2802  0.3866
25975SOL    HW178503   9.055   7.734   4.428  1.1411  0.1671  0.7687
25975SOL    HW278504   9.072   7.603   4.353 -0.0975  0.3715  0.0995
25976SOL     OW78505   3.587   5.399   8.378  0.0470 -0.4232 -0.1935
25976SOL    HW178506   3.621   5.422   8.292  1.6047  1.1857  0.7843
25976SOL    HW278507   3.542   5.316   8.364 -1.2415  0.6115 -2.8663
25977SOL     OW78508   2.630   8.108   9.269 -1.0686  0.3695  0.5708
25977SOL    HW178509   2.591   8.063   9.344  0.1526  1.0017  1.6028
25977SOL    HW278510   2.606   8.199   9.281 -0.3743  0.5633  0.5108
25978SOL     OW78511   7.823   9.500   9.750 -0.0165  0.1305  0.0950
25978SOL    HW178512   7.747   9.522   9.698  0.8621  2.5083 -0.3170
25978SOL    HW278513   7.789   9.445   9.821 -2.4392  2.4350  0.8848
25979SOL     OW78514   7.581   9.961   7.678  0.0737 -0.6653  0.2328
25979SOL    HW178515   7.591   9.991   7.769 -0.3421 -0.8048  0.3251
25979SOL    HW278516   7.487   9.963   7.662  0.2581  2.0327 -1.1147
25980SOL     OW78517   5.981   8.853   5.771  0.4656 -0.0985 -0.1002
25980SOL    HW178518   5.917   8.910   5.728  0.2948  0.2057  0.5524
25980SOL    HW278519   5.941   8.830   5.854 -0.2204 -2.5807 -1.0358
25981SOL     OW78520   4.080   6.113   0.452 -0.6659 -0.0747  0.6774
25981SOL    HW178521   4.063   6.055   0.526 -0.1959 -0.8636  0.1889
25981SOL    HW278522   4.158   6.075   0.410 -2.7682 -1.6160 -2.1419
25982SOL     OW78523   9.200   6.731   7.456  0.0272 -0.2341 -0.2429
25982SOL    HW178524   9.256   6.654   7.463 -0.9722 -0.9755 -0.0692
25982SOL    HW278525   9.167   6.744   7.545  0.2933  0.4852 -0.2430
25983SOL     OW78526   7.052   5.106   8.117 -0.5803 -1.1039 -0.1562
25983SOL    HW178527   7.076   5.151   8.197 -1.8325 -2.4351  1.0241
25983SOL    HW278528   7.085   5.162   8.047  0.1639  0.3074  1.2640
25984SOL     OW78529   2.689   7.429   0.313 -0.0976  0.0192 -0.7950
25984SOL    HW178530   2.698   7.522   0.333  0.9294 -0.6450  2.6185
25984SOL    HW278531   2.775   7.392   0.334 -0.9899 -1.9111 -0.3358
25985SOL     OW78532   1.685   0.690   8.655 -0.0299 -0.2579  0.0719
25985SOL    HW178533   1.724   0.628   8.593  0.0878 -0.6542  0.5362
25985SOL    HW278534   1.757   0.750   8.677  0.5266 -1.3578  1.4014
25986SOL     OW78535   0.294   1.370   3.535 -0.6113  0.1134  0.2780
25986SOL    HW178536   0.239   1.448   3.546  0.1000  0.4769  1.5405
25986SOL    HW278537   0.247   1.301   3.581 -1.3772 -0.3094 -1.0737
25987SOL     OW78538   6.768   0.662   7.006 -0.3197  0.0928 -0.2702
25987SOL    HW178539   6.832   0.704   6.948 -0.6156 -1.7110 -2.0120
25987SOL    HW278540   6.753   0.726   7.075  2.3646  1.1201 -0.5161
25988SOL     OW78541   3.613   6.488   6.343 -0.2147  0.3777 -0.6595
25988SOL    HW178542   3.661   6.409   6.367  1.2284  1.6719  0.9860
25988SOL    HW278543   3.678   6.544   6.300 -1.3274  0.5154 -2.2521
25989SOL     OW78544   6.970   3.360   1.337 -0.5921 -0.6936  0.2467
25989SOL    HW178545   7.002   3.276   1.369  0.7302 -1.2867 -2.3423
25989SOL    HW278546   6.884   3.371   1.377  0.1457 -2.1855  2.3687
25990SOL     OW78547   2.546   1.629   8.440  0.0731 -0.7642 -0.3215
25990SOL    HW178548   2.563   1.718   8.412 -1.9375 -0.0931  0.3860
25990SOL    HW278549   2.621   1.578   8.408  1.2124  1.1377 -0.8005
25991SOL     OW78550   8.476   0.154   9.498  0.1720 -0.3506  0.4383
25991SOL    HW178551   8.506   0.242   9.475 -0.4077 -0.0943  0.6381
25991SOL    HW278552   8.415   0.168   9.570 -0.7471 -0.8008 -0.2248
25992SOL     OW78553   4.872   1.582   6.551 -0.0752 -0.4109 -0.4327
25992SOL    HW178554   4.839   1.652   6.494  0.7080 -1.4547 -2.2455
25992SOL    HW278555   4.950   1.619   6.591 -0.8022  0.4429  0.2494
25993SOL     OW78556   3.856   0.524   4.537  0.1137  0.4976 -0.3544
25993SOL    HW178557   3.815   0.440   4.555 -0.3084  0.7953  0.0851
25993SOL    HW278558   3.784   0.585   4.524  0.4158  0.8618 -0.3593
25994SOL     OW78559   9.860   7.855   9.246  0.7474 -0.2559 -0.5398
25994SOL    HW178560   9.799   7.895   9.184 -0.3061 -0.0034  0.6182
25994SOL    HW278561   9.933   7.826   9.192 -0.2256 -0.2371 -1.9283
25995SOL     OW78562   4.107   3.124   8.586  0.5103 -0.7490  0.1127
25995SOL    HW178563   4.090   3.064   8.659  0.8199  0.3344  1.1127
25995SOL    HW278564   4.042   3.101   8.520 -0.2372 -1.2928  1.0183
25996SOL     OW78565   7.608   5.392   9.790  0.3113 -0.1178 -0.0031
25996SOL    HW178566   7.651   5.354   9.714 -0.0514 -0.6127  0.0306
25996SOL    HW278567   7.579   5.316   9.841  1.3694  0.2006  1.1064
25997SOL     OW78568   5.594   6.195   4.503 -0.5670  0.1333  0.0150
25997SOL    HW178569   5.625   6.270   4.553  1.1826 -0.4240 -0.1631
25997SOL    HW278570   5.584   6.229   4.414 -0.1549  0.2667  0.0151
25998SOL     OW78571   0.368   5.814   2.522 -0.6028 -0.3217  0.0992
25998SOL    HW178572   0.345   5.886   2.581 -0.8864 -0.4911  0.1961
25998SOL    HW278573   0.292   5.803   2.465 -0.6686 -0.7175  0.2585
25999SOL     OW78574   5.523   7.580   1.744  0.1748 -0.5652 -0.3449
25999SOL    HW178575   5.608   7.553   1.709  0.1830  0.1282 -0.8832
25999SOL    HW278576   5.493   7.505   1.796  0.5043 -1.3389 -1.2487
26000SOL     OW78577   1.465   4.187   1.788  0.2446  0.1709 -0.3121
26000SOL    HW178578   1.422   4.103   1.804 -1.2528  0.7959 -0.8397
26000SOL    HW278579   1.407   4.252   1.829  0.2411  1.1126 -1.7338
26001SOL     OW78580   2.407   9.879   8.751 -0.1814 -0.1705 -0.3520
26001SOL    HW178581   2.385   9.935   8.826  0.6682 -0.1242 -0.1287
26001SOL    HW278582   2.348   9.804   8.760 -0.7885  0.3075 -0.2144
26002SOL     OW78583   2.188   3.039   3.399  0.1757 -0.6165 -0.4767
26002SOL    HW178584   2.188   3.135   3.404  1.6267 -0.5508 -1.3466
26002SOL    HW278585   2.099   3.017   3.372  0.4901  0.6829 -2.8681
26003SOL     OW78586   1.724   5.548   1.553  0.0053  0.0677  0.3220
26003SOL    HW178587   1.677   5.572   1.473  0.9343  0.4272 -0.1306
26003SOL    HW278588   1.725   5.628   1.606 -0.6847 -0.1937  0.7393
26004SOL     OW78589   0.676   8.707   7.681  0.0144 -0.6072 -0.0649
26004SOL    HW178590   0.750   8.745   7.634 -0.6399  1.1992  0.3019
26004SOL    HW278591   0.628   8.659   7.614 -0.7181  1.6426 -1.2558
26005SOL     OW78592   8.759   9.784   5.538  0.6037 -0.1297 -0.2431
26005SOL    HW178593   8.694   9.731   5.493  1.0199 -0.9487  0.0995
26005SOL    HW278594   8.716   9.869   5.552 -0.0572 -0.3591 -0.8192
26006SOL     OW78595   2.589   4.447   2.095  0.3677 -0.4824 -0.1134
26006SOL    HW178596   2.538   4.459   2.015 -2.3076 -1.5994  1.2812
26006SOL    HW278597   2.547   4.506   2.158  1.2634 -0.9414  0.9365
26007SOL     OW78598   5.970   2.062   9.828  0.0866  0.1220  0.2884
26007SOL    HW178599   5.934   2.078   9.740 -0.1871  1.0094  0.5480
26007SOL    HW278600   6.062   2.087   9.821  0.0157  0.3973  0.2989
26008SOL     OW78601   6.990   2.468   7.640  0.1745 -0.1450  0.0342
26008SOL    HW178602   7.023   2.502   7.724  0.0931  0.7983 -0.3075
26008SOL    HW278603   7.000   2.373   7.648  1.4883  0.0075  0.5665
26009SOL     OW78604   0.115   4.628   9.726  0.0484  0.0062  0.1173
26009SOL    HW178605   0.033   4.603   9.682 -0.0970 -1.3979  1.1233
26009SOL    HW278606   0.176   4.645   9.655 -1.2061  1.4992 -0.6706
26010SOL     OW78607   6.149   3.219   6.123 -0.0771 -0.0450 -0.0157
26010SOL    HW178608   6.165   3.255   6.035 -1.9413  0.8161 -0.0373
26010SOL    HW278609   6.058   3.241   6.142  0.1885 -0.5212  2.0159
26011SOL     OW78610   4.433   4.528   3.950  0.2898 -0.1709 -0.3859
26011SOL    HW178611   4.339   4.530   3.966  0.1527 -1.7226 -0.8599
26011SOL    HW278612   4.445   4.462   3.882  1.5697  1.1988 -1.5653
26012SOL     OW78613   2.427   8.401   8.227 -0.8472  0.1017  0.3760
26012SOL    HW178614   2.506   8.363   8.189 -1.2896  1.3002 -1.9027
26012SOL    HW278615   2.355   8.361   8.178 -1.6602 -0.4282  1.9223
26013SOL     OW78616   6.254   7.791   2.415 -0.6665 -0.7506  0.1785
26013SOL    HW178617   6.193   7.721   2.392 -0.4329 -0.8591 -0.1105
26013SOL    HW278618   6.321   7.788   2.347 -1.1910  0.4221 -0.4204
26014SOL     OW78619   4.090   4.154   0.273  0.1803 -0.5029 -0.1204
26014SOL    HW178620   4.018   4.165   0.335 -1.5957 -1.0165 -1.9929
26014SOL    HW278621   4.130   4.071   0.297 -0.5430 -0.7382  0.2910
26015SOL     OW78622   3.341   1.829   5.481 -0.1340 -0.0933  0.1775
26015SOL    HW178623   3.364   1.917   5.511  1.7878 -0.0216 -1.2470
26015SOL    HW278624   3.257   1.839   5.436  0.3970  1.2016 -0.5802
26016SOL     OW78625   0.116   8.069   2.593 -0.4077  0.0878  0.0136
26016SOL    HW178626   0.078   8.017   2.664  1.3065 -2.0953 -0.5675
26016SOL    HW278627   0.052   8.139   2.579 -1.5125 -0.2447  2.6828
26017SOL     OW78628   4.093   8.514   5.251  0.3280  1.0509  0.5821
26017SOL    HW178629   4.076   8.420   5.262 -1.2418  1.4453  1.9918
26017SOL    HW278630   4.183   8.519   5.220  1.2741 -0.8551  2.7193
26018SOL     OW78631   3.357   8.352   1.659 -0.1603 -0.7157 -0.1789
26018SOL    HW178632   3.297   8.404   1.606  1.1878  1.0832 -0.0274
26018SOL    HW278633   3.360   8.266   1.615  0.5561  0.5445 -2.8207
26019SOL     OW78634   8.997   1.445   5.533  0.8245  0.7377  0.1703
26019SOL    HW178635   9.037   1.455   5.447 -0.3906  1.5057 -0.3402
26019SOL    HW278636   9.039   1.511   5.587  1.5508  0.2932  0.1636
26020SOL     OW78637   4.906   8.959   0.249 -0.0645 -0.0837 -0.3058
26020SOL    HW178638   4.995   8.936   0.222  0.4595  0.5274  0.8384
26020SOL    HW278639   4.861   8.981   0.167  0.7588 -0.6411 -0.9225
26021SOL     OW78640   5.301   2.291   2.481  0.0810  0.4901 -0.1195
26021SOL    HW178641   5.384   2.323   2.514 -0.6676  1.2196  1.1456
26021SOL    HW278642   5.237   2.314   2.549 -0.8819 -1.6009 -0.2186
26022SOL     OW78643   6.181   5.660   5.427 -0.1437  0.3142 -0.4061
26022SOL    HW178644   6.247   5.682   5.492  1.1309 -1.1752 -1.1177
26022SOL    HW278645   6.135   5.585   5.464 -0.8169  0.7682 -0.3181
26023SOL     OW78646   2.213   4.038   6.813 -0.4943  0.0405 -0.6768
26023SOL    HW178647   2.198   4.021   6.720 -1.5546  0.5945 -0.6371
26023SOL    HW278648   2.221   4.133   6.819 -0.6784  0.0331 -0.1821
26024SOL     OW78649   3.504   6.352   7.563  0.5278 -0.4424 -0.9218
26024SOL    HW178650   3.466   6.304   7.637  2.2877 -0.7146 -0.1337
26024SOL    HW278651   3.542   6.284   7.508  3.0513 -0.0529  0.2069
26025SOL     OW78652   7.864   0.001   5.599 -0.0517  0.1556  0.2600
26025SOL    HW178653   7.841  -0.022   5.689  0.2714  0.6165  0.4607
26025SOL    HW278654   7.900   0.089   5.605 -1.3049  0.7464 -0.5126
26026SOL     OW78655   0.365   4.418   8.916  0.5567  0.3158  0.4127
26026SOL    HW178656   0.325   4.335   8.943  1.7322 -0.5423 -0.3769
26026SOL    HW278657   0.315   4.445   8.839 -0.1318  0.6145  0.9460
26027SOL     OW78658   8.524   0.300   5.474 -0.0057  0.2605  0.5813
26027SOL    HW178659   8.488   0.309   5.386 -2.3502 -0.3898  1.4156
26027SOL    HW278660   8.619   0.297   5.461 -0.3385 -1.0017 -2.0247
26028SOL     OW78661   1.487   7.183   2.735  0.4123  0.3889  0.2322
26028SOL    HW178662   1.490   7.148   2.824 -1.3294  1.1397  0.6220
26028SOL    HW278663   1.395   7.177   2.710  0.6323  1.5765 -0.9500
26029SOL     OW78664   8.433   9.016   4.961  0.3933 -0.9734  0.0886
26029SOL    HW178665   8.347   9.052   4.981  1.2055  2.8606 -2.1899
26029SOL    HW278666   8.432   9.003   4.866  2.7834  1.1395 -0.3582
26030SOL     OW78667   7.235   3.606   0.064  0.4245 -0.3107  0.1579
26030SOL    HW178668   7.239   3.663  -0.012 -1.2890  1.0681  1.0054
26030SOL    HW278669   7.233   3.517   0.029  3.3182  0.0494 -1.1996
26031SOL     OW78670   6.758   9.140   0.254  0.2597  0.6031 -0.1686
26031SOL    HW178671   6.662   9.135   0.251  0.1105  1.6188  1.6621
26031SOL    HW278672   6.785   9.132   0.162 -1.6890  1.9353 -0.9346
26032SOL     OW78673   2.014   2.416   8.825 -0.1778 -0.2798 -1.3910
26032SOL    HW178674   1.990   2.331   8.862  0.7727 -0.3270 -0.8364
26032SOL    HW278675   2.019   2.474   8.900 -0.3536  0.1492 -1.7120
26033SOL     OW78676   0.846   2.341   3.009  0.5455  0.6471  0.2192
26033SOL    HW178677   0.914   2.408   3.007  0.3475  0.8437 -0.3830
26033SOL    HW278678   0.764   2.390   3.008  0.3945  0.3992 -1.0268
26034SOL     OW78679   7.419   2.555   8.472  0.1582  0.4923  0.2136
26034SOL    HW178680   7.377   2.636   8.441  1.3678  1.8046  1.7669
26034SOL    HW278681   7.488   2.538   8.408 -0.3666  0.4378 -0.3486
26035SOL     OW78682   0.486   0.628   5.929  0.8192 -0.2516  0.1331
26035SOL    HW178683   0.452   0.679   5.856 -1.1315  0.3093  1.3682
26035SOL    HW278684   0.411   0.577   5.959  1.9408 -1.5033  0.9067
26036SOL     OW78685   3.645   2.499   4.451 -0.4403  0.0522 -0.0427
26036SOL    HW178686   3.646   2.512   4.356 -2.3547 -0.4338 -0.1811
26036SOL    HW278687   3.605   2.580   4.485  0.2044  0.2073  0.3557
26037SOL     OW78688   6.444   7.122   5.035  0.3143 -0.7413 -0.2948
26037SOL    HW178689   6.403   7.136   5.120  1.2078  0.7252 -0.0788
26037SOL    HW278690   6.532   7.091   5.055  1.5626  2.3316 -0.5311
26038SOL     OW78691   4.614   6.659   6.746  0.4524 -0.2426  0.0191
26038SOL    HW178692   4.643   6.577   6.706 -1.8602 -1.5231  0.7688
26038SOL    HW278693   4.544   6.633   6.806 -0.6766  2.3368 -0.0431
26039SOL     OW78694   0.658   5.398   7.447  0.7506  0.2644  0.1360
26039SOL    HW178695   0.646   5.303   7.450  3.8722 -0.2098  0.6312
26039SOL    HW278696   0.583   5.430   7.395 -0.9412 -2.2913  0.8224
26040SOL     OW78697   5.028   7.269   2.638  0.0210 -0.2586 -0.2085
26040SOL    HW178698   5.106   7.303   2.681 -0.8138  0.1735  1.0132
26040SOL    HW278699   5.018   7.181   2.674 -0.3650 -0.1052  0.0628
26041SOL     OW78700   9.295   7.866   0.346 -0.3748 -0.6217 -0.2524
26041SOL    HW178701   9.239   7.821   0.410  0.0897  0.0978  0.6846
26041SOL    HW278702   9.284   7.815   0.265 -0.8574 -1.6472  0.4321
26042SOL     OW78703   0.107   5.307   1.681 -0.1382 -0.0591 -0.1254
26042SOL    HW178704   0.014   5.328   1.682 -0.1472  0.0025  1.8818
26042SOL    HW278705   0.120   5.249   1.756  1.3246 -0.6778 -0.8063
26043SOL     OW78706   7.169   5.230   7.889 -0.1146  0.3541  0.2567
26043SOL    HW178707   7.216   5.311   7.872 -0.1619  0.3570  0.1388
26043SOL    HW278708   7.141   5.200   7.803  1.5400 -0.7910  0.0723
26044SOL     OW78709   4.042   9.379   4.541  0.1140  0.0242 -0.7728
26044SOL    HW178710   3.962   9.401   4.587  1.0261  1.7070  0.0885
26044SOL    HW278711   4.058   9.288   4.564  0.0066  0.5162  1.4772
26045SOL     OW78712   4.687   7.767   6.416  0.6705 -0.3291 -0.1141
26045SOL    HW178713   4.749   7.703   6.382  1.6874  0.0094  1.0387
26045SOL    HW278714   4.627   7.715   6.471  1.3366 -0.3556  0.6089
26046SOL     OW78715   2.564   4.043   6.682 -0.7095  0.5285  0.4688
26046SOL    HW178716   2.531   4.124   6.643  0.0886  0.3823 -0.5810
26046SOL    HW278717   2.516   3.973   6.637 -1.7728  0.3945  1.7345
26047SOL     OW78718   8.807   0.326   5.384 -0.0925  0.0117 -0.0412
26047SOL    HW178719   8.839   0.306   5.472 -0.5621 -0.5769  0.0007
26047SOL    HW278720   8.825   0.419   5.372 -0.4081  0.1904  0.8414
26048SOL     OW78721   8.423   7.005   9.130 -0.0354 -0.2614  0.0632
26048SOL    HW178722   8.362   6.971   9.065 -1.3869 -0.6814  1.4877
26048SOL    HW278723   8.509   6.971   9.102 -0.1048  1.6267 -2.8371
26049SOL     OW78724   1.595   3.301   1.239 -0.2452 -0.6272 -0.0767
26049SOL    HW178725   1.538   3.352   1.296  0.1857  0.7150 -0.7942
26049SOL    HW278726   1.551   3.301   1.154  0.6423  0.1586 -0.5549
26050SOL     OW78727   0.983   3.859   7.383 -0.3818 -0.3003 -0.0999
26050SOL    HW178728   0.994   3.790   7.317  0.3667 -0.7189  0.4544
26050SOL    HW278729   0.918   3.823   7.443 -3.9104  1.4903 -2.4484
26051SOL     OW78730   1.488   9.073   4.894  0.0119 -0.7691 -0.6309
26051SOL    HW178731   1.487   9.102   4.986  2.0125 -1.6759 -0.2557
26051SOL    HW278732   1.447   8.987   4.896 -1.8378  0.0579 -0.9855
26052SOL     OW78733   8.929   8.540   9.149 -0.3422  0.2670  0.8821
26052SOL    HW178734   8.994   8.470   9.141 -0.1202  0.6007 -0.6419
26052SOL    HW278735   8.932   8.565   9.241  0.6976 -0.6584  1.1282
26053SOL     OW78736   9.369   7.033   2.784  0.4564  0.3956 -0.3916
26053SOL    HW178737   9.379   6.989   2.699 -0.1114  0.2483 -0.3866
26053SOL    HW278738   9.412   6.974   2.846  0.2088  0.1314 -0.4697
26054SOL     OW78739   4.893   1.768   9.849  0.2395  0.2064 -0.3941
26054SOL    HW178740   4.929   1.781   9.762  1.0646 -2.5465 -0.5569
26054SOL    HW278741   4.964   1.727   9.899 -0.5337  0.8333  1.3141
26055SOL     OW78742   0.455   7.297   4.944 -0.2161  0.4967  0.2958
26055SOL    HW178743   0.445   7.206   4.972 -0.2280  0.6263  0.7186
26055SOL    HW278744   0.515   7.336   5.008  0.9512  0.4189 -0.6960
26056SOL     OW78745   3.195   5.372   0.650  0.3510  0.2806  0.0888
26056SOL    HW178746   3.162   5.427   0.580 -1.2405  0.5614  1.0113
26056SOL    HW278747   3.244   5.432   0.706 -0.3061  0.5261  0.4127
26057SOL     OW78748   4.154   7.977   4.343  0.4876  0.0390 -0.0132
26057SOL    HW178749   4.123   8.014   4.260  0.2081 -0.0166  0.0660
26057SOL    HW278750   4.095   7.904   4.360 -0.3393  0.9039  0.9480
26058SOL     OW78751   5.893   5.677   2.729 -0.3176 -0.4458  1.1060
26058SOL    HW178752   5.912   5.630   2.810 -0.5012 -0.4822  1.1303
26058SOL    HW278753   5.909   5.612   2.660  1.1182 -0.0234  1.0199
26059SOL     OW78754   9.696   2.399   3.528 -0.2559  0.5662 -0.0023
26059SOL    HW178755   9.617   2.358   3.564  0.1262 -0.4213 -0.2360
26059SOL    HW278756   9.762   2.389   3.597  0.1684 -0.3283 -0.5058
26060SOL     OW78757   4.807   4.263   7.674  0.5780  0.6358 -0.4997
26060SOL    HW178758   4.725   4.215   7.678  1.8599 -1.6865  0.0532
26060SOL    HW278759   4.791   4.335   7.612 -1.3441 -0.7548 -1.7123
26061SOL     OW78760   9.564   9.339   2.601  0.1388  0.4910  0.3815
26061SOL    HW178761   9.541   9.366   2.512  1.2169  0.4939  0.0922
26061SOL    HW278762   9.589   9.420   2.645 -1.4111  0.6512  1.0329
26062SOL     OW78763   2.799   7.667   3.389 -0.0471 -0.2488 -0.3286
26062SOL    HW178764   2.761   7.617   3.318  0.6966 -1.6338  0.2153
26062SOL    HW278765   2.877   7.618   3.415  1.6119  1.9623 -0.7637
26063SOL     OW78766   2.046   6.898   8.346 -0.2944 -0.0171 -0.1169
26063SOL    HW178767   2.012   6.931   8.430 -0.3355  1.2086 -0.5958
26063SOL    HW278768   1.991   6.940   8.280 -0.8175 -1.6294 -0.7596
26064SOL     OW78769   5.587   9.112   1.147 -0.2641  0.2434  0.4176
26064SOL    HW178770   5.613   9.201   1.173  0.1609 -0.2105  1.6165
26064SOL    HW278771   5.669   9.066   1.133 -0.4675 -0.1966  0.6432
26065SOL     OW78772   9.698   5.613   8.296  0.5399  0.7628  0.2820
26065SOL    HW178773   9.788   5.646   8.294  0.8445  0.0727  1.5701
26065SOL    HW278774   9.699   5.538   8.237  0.7397  0.9163  0.0884
26066SOL     OW78775   0.483   0.786   4.003  0.2370  0.3257 -0.2027
26066SOL    HW178776   0.401   0.831   4.023  0.7259  1.1351  0.0457
26066SOL    HW278777   0.499   0.804   3.910 -0.2160 -0.4231 -0.4320
26067SOL     OW78778   9.283   8.404   6.343  0.1202 -0.6500  0.5090
26067SOL    HW178779   9.357   8.458   6.369  0.7118 -1.4805  0.5942
26067SOL    HW278780   9.206   8.458   6.362  0.6932  0.1951  0.4785
26068SOL     OW78781   0.685   4.573   5.041  0.2627  0.6010  0.4204
26068SOL    HW178782   0.767   4.597   4.998 -0.9186  1.8163 -1.2629
26068SOL    HW278783   0.623   4.562   4.969 -0.8624 -1.2228  1.5866
26069SOL     OW78784   4.415   6.495   4.519 -0.7485  0.3744 -0.1756
26069SOL    HW178785   4.474   6.515   4.593 -0.2578  0.1958 -0.5131
26069SOL    HW278786   4.427   6.569   4.459 -0.9222  0.3696 -0.2155
26070SOL     OW78787   8.210   4.705   6.304 -0.0665  0.0227 -0.3036
26070SOL    HW178788   8.196   4.618   6.343 -0.8788  0.7136  1.0192
26070SOL    HW278789   8.212   4.688   6.210  1.1349 -1.6064 -0.0406
26071SOL     OW78790   5.836   6.447   3.241 -0.5194  0.4084  0.0930
26071SOL    HW178791   5.803   6.365   3.205 -1.1732  0.5098  0.4417
26071SOL    HW278792   5.758   6.503   3.248 -0.6447  0.0084  2.7235
26072SOL     OW78793   4.902   6.418   0.304 -0.3566  0.3361 -0.2744
26072SOL    HW178794   4.939   6.330   0.306  1.3468  0.9039 -2.5847
26072SOL    HW278795   4.942   6.463   0.378 -1.3194 -0.8083  0.9869
26073SOL     OW78796   5.862   2.788   5.769 -0.1633  0.2428 -0.0262
26073SOL    HW178797   5.805   2.711   5.772  0.9208 -0.5633  0.5580
26073SOL    HW278798   5.906   2.781   5.684 -1.5200  1.3302 -0.8581
26074SOL     OW78799   4.190   8.241   8.325 -0.3204 -0.2836 -0.5121
26074SOL    HW178800   4.144   8.318   8.294  3.6003  1.6049 -2.3643
26074SOL    HW278801   4.241   8.272   8.401  1.2452 -0.9905 -1.2206
26075SOL     OW78802   6.395   4.651   3.640  0.3661 -0.0556  1.5886
26075SOL    HW178803   6.467   4.610   3.592  1.3239  1.6634  1.4556
26075SOL    HW278804   6.418   4.744   3.641 -3.8854  1.4153 -2.2521
26076SOL     OW78805   8.897   0.833   5.251  0.7304 -0.2663  0.2215
26076SOL    HW178806   8.978   0.867   5.289  1.9265 -0.9255 -1.5939
26076SOL    HW278807   8.913   0.739   5.240 -0.7691 -0.6387  0.9483
26077SOL     OW78808   6.896   5.532   4.628 -0.2805 -0.5163 -0.3202
26077SOL    HW178809   6.981   5.513   4.589  0.2041  0.9314 -0.0232
26077SOL    HW278810   6.832   5.491   4.569  0.3928  1.8543 -2.8900
26078SOL     OW78811   7.765   3.179   3.371  0.4953 -0.3556  0.3928
26078SOL    HW178812   7.713   3.217   3.299 -1.4295 -0.0532  1.8427
26078SOL    HW278813   7.702   3.168   3.442  1.9291 -2.3598  1.4567
26079SOL     OW78814   2.422   8.246   2.295 -0.2537 -0.5768 -0.7697
26079SOL    HW178815   2.507   8.214   2.324  0.6601  0.9559 -1.6058
26079SOL    HW278816   2.385   8.286   2.374  0.3999 -0.0802 -0.7013
26080SOL     OW78817   5.250   3.051   5.341 -0.4269 -0.1780 -0.5538
26080SOL    HW178818   5.229   3.141   5.317 -0.6628  0.3420  1.4251
26080SOL    HW278819   5.315   3.059   5.410 -1.9193 -1.4202  1.0813
26081SOL     OW78820   5.745   1.731   4.412 -0.3471 -0.2502 -0.1713
26081SOL    HW178821   5.700   1.784   4.477  0.7263 -1.0053  1.2445
26081SOL    HW278822   5.750   1.644   4.451  0.4331 -0.7050 -1.2212
26082SOL     OW78823   4.536   3.600   9.389  0.2059  0.0293 -0.2173
26082SOL    HW178824   4.528   3.627   9.298  0.9943 -0.9497 -0.5962
26082SOL    HW278825   4.582   3.516   9.386 -1.2437 -0.8694  0.9709
26083SOL     OW78826   2.644   6.193   7.558  0.3687 -1.0703 -0.4670
26083SOL    HW178827   2.639   6.110   7.510  1.1507 -1.1051 -0.4963
26083SOL    HW278828   2.735   6.222   7.547  0.3044 -0.6007  0.1980
26084SOL     OW78829   3.146   1.767   6.727  0.0916 -0.0937  0.5984
26084SOL    HW178830   3.053   1.747   6.720  0.0472  0.6263 -1.3935
26084SOL    HW278831   3.149   1.852   6.771 -0.0324 -1.1272  2.7354
26085SOL     OW78832   7.021   3.842   7.437  0.0832  0.4290 -0.1121
26085SOL    HW178833   6.938   3.826   7.391 -0.2181  1.4045  0.0752
26085SOL    HW278834   6.996   3.893   7.514  0.4083 -2.1431  1.8328
26086SOL     OW78835   1.281   8.872   0.472  0.6455  0.1423  0.2559
26086SOL    HW178836   1.334   8.839   0.399  1.7968  0.8910  0.7348
26086SOL    HW278837   1.228   8.941   0.433  1.9480  1.2007  0.2896
26087SOL     OW78838   2.312   0.760   8.622  0.4014 -0.1214 -0.2630
26087SOL    HW178839   2.294   0.849   8.653  1.4151  0.6236 -1.7418
26087SOL    HW278840   2.367   0.722   8.691 -0.8374  0.0152  0.8544
26088SOL     OW78841   1.775   1.994   7.956  0.0052  0.3572 -0.0242
26088SOL    HW178842   1.684   1.991   7.986 -0.9305  1.5277 -2.5263
26088SOL    HW278843   1.819   1.929   8.011 -2.2038  0.0706  1.5871
26089SOL     OW78844   2.980   8.971   6.837  0.5465  0.2020 -0.4542
26089SOL    HW178845   2.899   8.998   6.879  0.3817 -2.3266  1.0366
26089SOL    HW278846   3.043   8.962   6.909  1.6691  0.4044 -1.3734
26090SOL     OW78847   7.608   2.990   5.503  0.0597  0.1122 -0.5549
26090SOL    HW178848   7.603   2.903   5.542 -1.3196 -0.5030 -1.9866
26090SOL    HW278849   7.516   3.017   5.492  0.4228  0.9996 -1.6853
26091SOL     OW78850   7.293   6.285   9.314 -0.8067 -0.6381 -0.1948
26091SOL    HW178851   7.209   6.313   9.351 -0.1286  0.1658  0.8245
26091SOL    HW278852   7.342   6.252   9.389  0.0787 -0.3285 -0.6173
26092SOL     OW78853   4.370   3.411   2.350  0.3390  0.4795  0.0864
26092SOL    HW178854   4.389   3.406   2.256 -1.0274  0.6975 -0.2122
26092SOL    HW278855   4.440   3.466   2.385  1.6354 -0.6911 -0.5606
26093SOL     OW78856   5.244   0.231   0.691  0.3625  0.2189  0.1835
26093SOL    HW178857   5.260   0.325   0.682 -0.7821  0.2887 -1.5241
26093SOL    HW278858   5.162   0.225   0.740  0.1508  0.1419 -0.1737
26094SOL     OW78859   9.246   3.893   9.140  0.5920 -0.0322  0.1253
26094SOL    HW178860   9.162   3.887   9.095  0.2968 -1.6832  0.8420
26094SOL    HW278861   9.269   3.986   9.135 -1.5102  0.5466  0.3547
26095SOL     OW78862   0.862   3.057   9.383  0.1105  0.8711 -0.4704
26095SOL    HW178863   0.948   3.030   9.353  0.0530  0.6461 -0.4369
26095SOL    HW278864   0.813   3.078   9.303  0.4484  1.7809 -0.4484
26096SOL     OW78865   9.688   0.007   6.982  0.3305 -0.1420 -0.3259
26096SOL    HW178866   9.780   0.008   7.004  0.0295  0.8215  0.9793
26096SOL    HW278867   9.678   0.074   6.914  0.1062  2.1854  1.8559
26097SOL     OW78868   6.209   9.043   4.919  0.2370 -0.1792  0.0825
26097SOL    HW178869   6.243   9.035   4.830  0.8968  0.8282  0.2249
26097SOL    HW278870   6.162   9.127   4.920  2.3612  1.1028  1.3004
26098SOL     OW78871   3.724   6.371   6.885  0.4377 -0.6339  0.1046
26098SOL    HW178872   3.682   6.286   6.898 -1.1042 -0.0736 -0.8598
26098SOL    HW278873   3.816   6.350   6.869  0.2104 -2.0731  0.5178
26099SOL     OW78874   3.048   5.939   2.270 -0.4096  0.3749 -0.3636
26099SOL    HW178875   3.048   6.009   2.205  1.2113 -1.5978 -2.6854
26099SOL    HW278876   3.083   5.863   2.223 -2.1938 -2.0700  1.9305
26100SOL     OW78877   7.033   5.804   3.225 -0.0597 -0.2282  0.2472
26100SOL    HW178878   7.055   5.898   3.224  0.2555 -0.2968  0.5509
26100SOL    HW278879   6.996   5.787   3.139 -1.5794  0.5250  0.7113
26101SOL     OW78880   9.318   3.422   6.675  0.2681  0.2755 -0.2826
26101SOL    HW178881   9.324   3.327   6.667  2.2383  0.0927  2.1241
26101SOL    HW278882   9.228   3.438   6.705  0.7919 -1.2144  2.3739
26102SOL     OW78883   3.381   6.710   6.757 -0.7556  0.4227  0.1392
26102SOL    HW178884   3.436   6.705   6.835 -3.0394  0.1724  1.7998
26102SOL    HW278885   3.356   6.620   6.739  0.6981  0.3031 -1.7006
26103SOL     OW78886   8.608   6.467   3.292  0.0184 -0.6333 -0.0101
26103SOL    HW178887   8.585   6.390   3.240 -0.1860  1.6274 -3.7030
26103SOL    HW278888   8.692   6.495   3.257 -1.7131  2.9812 -1.9485
26104SOL     OW78889   3.052   4.491   4.155  0.1447 -0.1503  0.4078
26104SOL    HW178890   3.079   4.538   4.234  0.4362 -0.5933  0.5781
26104SOL    HW278891   3.131   4.443   4.128 -0.0173 -0.1795 -0.0243
26105SOL     OW78892   7.717   9.025   8.193 -0.2332 -0.3898 -0.6264
26105SOL    HW178893   7.702   8.949   8.248  1.6652  0.4163  1.1479
26105SOL    HW278894   7.631   9.065   8.182 -0.8001 -1.0624  1.0707
26106SOL     OW78895   9.629   7.167   1.034  0.3749 -0.0818 -0.1324
26106SOL    HW178896   9.614   7.134   0.946  1.6194 -0.2567 -0.2972
26106SOL    HW278897   9.608   7.260   1.030 -1.9164 -0.5411  0.0111
26107SOL     OW78898   4.160   7.504   4.037 -0.1760 -0.0455 -0.3359
26107SOL    HW178899   4.188   7.595   4.040 -0.8271  0.1736 -0.6223
26107SOL    HW278900   4.069   7.508   4.007 -0.3000 -0.7709 -0.0844
26108SOL     OW78901   9.096   8.985   8.260 -0.8583  0.4703  0.8986
26108SOL    HW178902   9.026   8.929   8.227 -0.8956  1.3381 -0.5681
26108SOL    HW278903   9.101   9.057   8.198  0.1502  1.3567  1.9575
26109SOL     OW78904   4.884   1.316   7.624 -0.5688 -1.0688  0.3310
26109SOL    HW178905   4.836   1.316   7.541  2.4654  0.7192 -1.6154
26109SOL    HW278906   4.921   1.228   7.629 -2.0113 -1.6843  0.6292
26110SOL     OW78907   2.454   5.862   9.777  0.4703 -0.0840  0.0462
26110SOL    HW178908   2.474   5.790   9.836 -1.5085 -0.2453  0.6076
26110SOL    HW278909   2.441   5.821   9.692  0.2433 -0.2851  0.1759
26111SOL     OW78910   8.434   4.422   4.108  0.0193 -0.2140  0.2882
26111SOL    HW178911   8.481   4.353   4.062  0.6766 -0.8806  1.8897
26111SOL    HW278912   8.497   4.494   4.114 -0.1718 -0.0105 -0.1111
26112SOL     OW78913   2.071   5.265   7.434  0.4885  0.1053 -0.0201
26112SOL    HW178914   2.007   5.314   7.486  1.6204  1.3970  0.2331
26112SOL    HW278915   2.119   5.212   7.497  1.1642  0.8849  0.1527
26113SOL     OW78916   0.987   5.485   4.513 -0.3085 -0.1190  0.0278
26113SOL    HW178917   0.905   5.520   4.477  0.0803  1.0012  0.1806
26113SOL    HW278918   0.980   5.390   4.502 -1.8416 -0.0853  0.4694
26114SOL     OW78919   4.399   2.238   3.468  0.4122  0.0250  0.4934
26114SOL    HW178920   4.467   2.300   3.443  1.0135 -0.6154  0.5183
26114SOL    HW278921   4.318   2.276   3.433  0.7395  0.9228  0.6908
26115SOL     OW78922   9.786   5.347   3.436 -0.3599 -0.2366  0.0932
26115SOL    HW178923   9.836   5.277   3.477 -1.4303 -0.9368  0.2385
26115SOL    HW278924   9.703   5.350   3.484  0.2201  2.1654  1.0884
26116SOL     OW78925   4.687   8.550   7.375  0.2171  0.2586  0.1015
26116SOL    HW178926   4.741   8.620   7.338  1.6306 -0.3220  0.9969
26116SOL    HW278927   4.687   8.482   7.307  1.0397  0.0654  0.2803
26117SOL     OW78928   1.786   2.612   2.586  0.3100 -0.1565  0.1787
26117SOL    HW178929   1.746   2.684   2.636  1.4339  0.3603  0.3704
26117SOL    HW278930   1.731   2.603   2.509  0.8043  1.7339 -0.4481
26118SOL     OW78931   5.578   5.814   3.507  0.3375 -0.4993 -0.1384
26118SOL    HW178932   5.572   5.721   3.486  2.4147 -0.3634 -1.6230
26118SOL    HW278933   5.664   5.824   3.548  0.2153  0.7967 -0.1530
26119SOL     OW78934   3.329   9.609   7.582  0.1938 -0.2970  0.1747
26119SOL    HW178935   3.274   9.677   7.543  0.1608  0.3643  1.3305
26119SOL    HW278936   3.357   9.555   7.508 -1.5369 -0.3125 -0.5011
26120SOL     OW78937   1.236   1.427   1.645  0.4332  0.0828  0.1636
26120SOL    HW178938   1.285   1.499   1.685 -1.3001  0.1588  2.3316
26120SOL    HW278939   1.170   1.469   1.590 -0.7193  0.2095  1.5997
26121SOL     OW78940   6.211   0.321   7.128  0.4315 -0.1651  0.3658
26121SOL    HW178941   6.227   0.319   7.222  0.5476 -1.3584  0.3402
26121SOL    HW278942   6.269   0.254   7.092  1.1576  0.9970 -0.6973
26122SOL     OW78943   2.010   2.746   9.788 -0.2560 -0.4225 -0.4483
26122SOL    HW178944   2.093   2.738   9.742 -0.6551 -1.6664 -1.0018
26122SOL    HW278945   2.031   2.794   9.868  0.7839  0.2018 -1.0762
26123SOL     OW78946   9.810   3.636   1.130  0.1564  0.4074 -0.1636
26123SOL    HW178947   9.801   3.657   1.222  0.3899 -1.2420  0.2761
26123SOL    HW278948   9.905   3.635   1.114  0.1039  1.3774 -0.6143
26124SOL     OW78949   4.369   7.674   8.858 -0.2344  0.5324 -0.3254
26124SOL    HW178950   4.419   7.722   8.924  1.1876 -0.1643 -0.8540
26124SOL    HW278951   4.317   7.611   8.908  0.3062  0.4764  0.1683
26125SOL     OW78952   9.681   5.043   6.602  0.0752  0.8149  0.1716
26125SOL    HW178953   9.679   4.985   6.526  1.3453 -1.3731  1.6846
26125SOL    HW278954   9.605   5.100   6.592 -0.2140  0.0701 -2.3002
26126SOL     OW78955   0.769   9.556   6.994 -0.6309  0.2518 -0.8340
26126SOL    HW178956   0.761   9.520   6.905  0.3162 -1.5383 -0.2360
26126SOL    HW278957   0.679   9.577   7.019 -1.4152 -2.6180 -0.9021
26127SOL     OW78958   1.928   8.227   9.350  0.6274  0.1078  0.3338
26127SOL    HW178959   1.990   8.204   9.281  1.0472  0.1814  0.6759
26127SOL    HW278960   1.842   8.216   9.311  0.8532 -0.3212 -0.0492
26128SOL     OW78961   3.307   8.458   3.706 -0.0839  0.2760  0.3531
26128SOL    HW178962   3.293   8.375   3.661  2.4256  0.1902 -0.3730
26128SOL    HW278963   3.293   8.524   3.638 -3.0549  0.6135  1.1486
26129SOL     OW78964   5.934   2.643   7.818 -0.3595 -0.9053  0.2593
26129SOL    HW178965   5.976   2.584   7.754  1.0147 -1.7437  1.8740
26129SOL    HW278966   5.870   2.692   7.766  2.2266  0.0885 -2.2376
26130SOL     OW78967   8.843   9.839   4.649  0.2305 -0.6452 -0.0421
26130SOL    HW178968   8.881   9.905   4.707  0.3147 -0.3018 -0.4867
26130SOL    HW278969   8.848   9.877   4.562  1.9075 -1.9300 -0.5634
26131SOL     OW78970   5.010   6.459   9.429  1.0161 -0.1247 -0.1604
26131SOL    HW178971   4.981   6.550   9.439  0.9770 -0.2765  1.2822
26131SOL    HW278972   4.956   6.425   9.358 -0.7063  0.2875  0.9062
26132SOL     OW78973   8.279   2.561   4.461 -0.4671  0.0252  0.3234
26132SOL    HW178974   8.263   2.587   4.370  0.2423 -1.0505 -0.1321
26132SOL    HW278975   8.304   2.642   4.505  1.1733  0.2562 -0.9238
26133SOL     OW78976   6.127   3.043   4.711 -0.4342  0.0054 -0.2430
26133SOL    HW178977   6.101   3.097   4.785 -0.0202 -0.0744 -0.0339
26133SOL    HW278978   6.205   2.996   4.742 -2.7029 -3.4128  0.8695
26134SOL     OW78979   0.410   4.796   4.714 -0.1071 -0.4520 -0.1337
26134SOL    HW178980   0.404   4.870   4.775  0.2887 -2.5951  2.7385
26134SOL    HW278981   0.344   4.733   4.745 -3.1618 -0.0028 -4.7631
26135SOL     OW78982   0.464   3.212   8.915  0.2506 -0.3461  0.6064
26135SOL    HW178983   0.499   3.292   8.955  0.9004 -0.1820 -0.2473
26135SOL    HW278984   0.504   3.141   8.964  0.5308 -0.1476  0.6666
26136SOL     OW78985   4.541   1.967   3.640  0.0403 -0.1112 -0.2144
26136SOL    HW178986   4.508   1.901   3.702  0.5242 -0.3796 -0.2357
26136SOL    HW278987   4.489   2.045   3.658 -0.7641 -0.5941 -0.4070
26137SOL     OW78988   5.191   4.390   3.963  0.8790  0.2043 -0.0659
26137SOL    HW178989   5.151   4.352   3.884  0.9459 -0.3187  0.1459
26137SOL    HW278990   5.274   4.426   3.931  0.8540  0.0965 -0.2595
26138SOL     OW78991   1.704   6.108   6.642 -0.1474  0.1088 -0.3399
26138SOL    HW178992   1.619   6.138   6.672 -0.0155 -0.0142  0.1602
26138SOL    HW278993   1.751   6.084   6.722  0.7060  1.0852 -0.5224
26139SOL     OW78994   2.865   5.778   4.417 -0.0779 -0.2600  0.3667
26139SOL    HW178995   2.821   5.808   4.496  0.4205 -0.9435  0.9133
26139SOL    HW278996   2.826   5.693   4.398  0.1078 -0.2944  0.1286
26140SOL     OW78997   9.383   1.000   6.288  0.2409 -0.7109  0.2410
26140SOL    HW178998   9.440   1.008   6.211  1.3023  1.0330  1.1416
26140SOL    HW278999   9.328   1.079   6.285  0.3576 -0.5792  1.3060
26141SOL     OW79000   6.984   6.135   8.503 -0.3199  0.3128  0.2747
26141SOL    HW179001   6.891   6.156   8.506 -0.4024 -0.0303  0.1114
26141SOL    HW279002   7.027   6.214   8.536 -0.4717  1.7580 -2.6795
26142SOL     OW79003   4.006   8.648   8.361  0.3530 -0.0084  0.3762
26142SOL    HW179004   4.008   8.743   8.347  2.0203 -0.3354 -2.2121
26142SOL    HW279005   3.913   8.625   8.357  0.0233  1.3555 -0.3324
26143SOL     OW79006   2.314   7.976   1.130  0.6675 -0.0715  0.3775
26143SOL    HW179007   2.337   7.976   1.037 -0.5504  0.7314  0.0482
26143SOL    HW279008   2.228   7.934   1.133  0.5433  0.2268  1.0879
26144SOL     OW79009   8.995   5.286   6.493 -0.1806 -0.1996  0.1963
26144SOL    HW179010   9.030   5.341   6.423  1.1102 -1.3814 -0.1459
26144SOL    HW279011   8.906   5.264   6.465  0.0438 -0.0092 -0.6824
26145SOL     OW79012   2.168   5.906   4.417 -0.1290 -0.0151  0.2880
26145SOL    HW179013   2.161   5.889   4.323 -0.2654 -0.7456  0.4268
26145SOL    HW279014   2.086   5.875   4.454  0.7084 -1.6412  0.9066
26146SOL     OW79015   6.558   3.164   5.373 -0.1729  0.2013  0.0178
26146SOL    HW179016   6.514   3.081   5.360  0.7496 -0.3661  0.3934
26146SOL    HW279017   6.633   3.143   5.429  1.2193  0.9039 -1.4735
26147SOL     OW79018   6.775   0.408   8.570  0.6058 -0.5038 -0.1964
26147SOL    HW179019   6.841   0.382   8.506 -1.0722 -0.0228 -2.2438
26147SOL    HW279020   6.732   0.483   8.530  0.9780  1.3401  2.5937
26148SOL     OW79021   8.531   5.032   9.272  0.1092  0.0072  0.6079
26148SOL    HW179022   8.469   5.094   9.236  0.6615 -0.7169 -1.7589
26148SOL    HW279023   8.615   5.057   9.234  0.5613 -1.3566  0.6589
26149SOL     OW79024   4.295   1.003   2.368 -0.2940  0.0925 -0.2935
26149SOL    HW179025   4.298   0.921   2.416 -0.3536 -0.0466 -0.5262
26149SOL    HW279026   4.387   1.029   2.359 -0.0442 -1.2676 -2.4590
26150SOL     OW79027   6.436   4.071   6.173  0.2858 -0.0789 -0.1431
26150SOL    HW179028   6.435   4.075   6.269  1.4880 -0.5326 -0.0861
26150SOL    HW279029   6.457   4.161   6.146 -2.8248  0.7629 -0.1413
26151SOL     OW79030   6.540   2.366   0.622 -1.0670  0.5966 -0.1756
26151SOL    HW179031   6.576   2.430   0.561 -0.5503  0.8908  0.4284
26151SOL    HW279032   6.474   2.414   0.671 -0.5571  0.7337  0.3988
26152SOL     OW79033   6.809   3.569   0.899 -0.1143 -0.4466 -0.1033
26152SOL    HW179034   6.749   3.640   0.918 -2.2322 -2.1151 -0.1539
26152SOL    HW279035   6.805   3.512   0.976 -0.3338 -1.7136 -1.0147
26153SOL     OW79036   8.667   4.543   3.941  0.1436  0.0897 -0.0036
26153SOL    HW179037   8.742   4.594   3.971 -0.4545  1.1552 -0.2781
26153SOL    HW279038   8.633   4.591   3.866 -1.1998 -0.0142  0.5111
26154SOL     OW79039   6.242   2.398   7.872 -0.5063  0.1876 -0.4698
26154SOL    HW179040   6.311   2.344   7.835  0.2592  0.6377  0.2880
26154SOL    HW279041   6.278   2.486   7.875 -0.3755  0.1071  1.7146
26155SOL     OW79042   8.582   2.609   4.973  0.2837 -0.6456 -0.9679
26155SOL    HW179043   8.545   2.680   4.921 -0.8383 -0.5269 -0.0417
26155SOL    HW279044   8.638   2.652   5.037  1.0299 -0.7376 -1.5442
26156SOL     OW79045   3.051   0.416   5.173  0.0891  0.4237 -0.6638
26156SOL    HW179046   2.970   0.450   5.135  0.0020 -0.0610 -0.9178
26156SOL    HW279047   3.094   0.493   5.210  0.6528  1.1082 -2.6033
26157SOL     OW79048   5.039   1.331   4.318  0.7914 -0.3335  0.1638
26157SOL    HW179049   5.060   1.352   4.227 -0.5722 -1.9288 -0.5775
26157SOL    HW279050   4.961   1.383   4.337  1.9098  1.1403  0.9764
26158SOL     OW79051   2.671   8.446   2.186 -0.3348 -0.1287 -0.3659
26158SOL    HW179052   2.664   8.406   2.272  2.4640  1.0405  0.5577
26158SOL    HW279053   2.682   8.373   2.125  2.7876 -0.9680  1.0210
26159SOL     OW79054   6.297   8.154   6.696 -0.4939  0.6293 -0.0368
26159SOL    HW179055   6.388   8.163   6.670 -0.2803 -0.4974  0.2513
26159SOL    HW279056   6.252   8.125   6.617 -0.2681 -0.5335  0.2467
26160SOL     OW79057   0.827   8.062   8.215 -0.5207 -0.1086  0.4030
26160SOL    HW179058   0.847   7.987   8.158  1.5769  0.0598  0.8443
26160SOL    HW279059   0.741   8.042   8.252  0.3426 -2.7422  1.1750
26161SOL     OW79060   7.483   1.753   0.352  0.2883 -0.0597  0.4766
26161SOL    HW179061   7.506   1.774   0.442  0.1823  0.6967  0.3388
26161SOL    HW279062   7.439   1.668   0.357 -1.2927  0.7537  1.3899
26162SOL     OW79063   6.929   1.871   9.471  0.0480 -0.4388 -0.1659
26162SOL    HW179064   6.876   1.793   9.459  0.2327 -0.4675 -0.8134
26162SOL    HW279065   6.915   1.923   9.392 -1.6482  1.1549  1.0856
26163SOL     OW79066   4.084   2.031   9.978 -0.8540 -0.3893 -0.4572
26163SOL    HW179067   4.079   1.996   9.889  1.1351 -0.5490 -0.5416
26163SOL    HW279068   4.174   2.015  10.005 -1.4909 -0.6161  1.7184
26164SOL     OW79069   6.967   1.932   0.892  0.4650  0.1746 -0.4600
26164SOL    HW179070   6.991   2.003   0.951  0.9903  0.0349 -0.5042
26164SOL    HW279071   7.005   1.853   0.931 -1.2245 -0.3096  0.2844
26165SOL     OW79072   4.474   7.787   5.924  0.2982  0.7702  0.3373
26165SOL    HW179073   4.411   7.779   5.996  0.2600  1.1023  0.3395
26165SOL    HW279074   4.539   7.719   5.943 -0.8613 -0.6369 -0.4918
26166SOL     OW79075   6.776   5.977   1.557  0.3784 -0.5557 -0.2288
26166SOL    HW179076   6.769   5.883   1.576 -0.0334 -0.8559 -1.6867
26166SOL    HW279077   6.848   5.983   1.494  0.4711  0.1260 -0.0633
26167SOL     OW79078   7.359   7.628   5.680 -0.0840  0.7982  0.0510
26167SOL    HW179079   7.342   7.652   5.772 -0.4432  2.1718 -0.3469
26167SOL    HW279080   7.450   7.599   5.680 -0.3512 -0.1010  1.0024
26168SOL     OW79081   8.221   5.901   0.550  0.0712  0.1312 -0.0217
26168SOL    HW179082   8.225   5.994   0.569 -0.6347  0.0619  0.5218
26168SOL    HW279083   8.307   5.867   0.573  0.8159  0.8781 -1.5737
26169SOL     OW79084   3.067   7.781   7.108 -0.0022 -0.3013 -0.7496
26169SOL    HW179085   3.157   7.813   7.101  0.4353 -1.1899  0.3073
26169SOL    HW279086   3.016   7.857   7.135  0.8491 -0.2446  0.8255
26170SOL     OW79087   4.404   8.503   4.088  0.7229 -0.0180  0.3361
26170SOL    HW179088   4.346   8.554   4.033 -1.4389  0.5342  2.9244
26170SOL    HW279089   4.481   8.559   4.101 -0.2072  1.2410  0.5495
26171SOL     OW79090   6.055   9.372   6.838 -0.0121 -0.5123 -0.0624
26171SOL    HW179091   6.089   9.394   6.925  0.6838 -3.1967  0.4348
26171SOL    HW279092   5.971   9.331   6.854 -1.4403  1.8462 -0.9744
26172SOL     OW79093   0.287   9.311   8.293 -0.1897 -0.3302  0.2141
26172SOL    HW179094   0.322   9.245   8.233  1.2431 -1.4798  2.2121
26172SOL    HW279095   0.359   9.332   8.352 -1.6083  0.5258  1.7415
26173SOL     OW79096   0.397   0.028   2.799 -0.5062  0.0874 -0.3927
26173SOL    HW179097   0.479   0.060   2.838  0.7277 -1.1375 -1.8234
26173SOL    HW279098   0.329   0.060   2.857  1.0204  0.8337  1.0898
26174SOL     OW79099   2.990   6.862   2.830  0.1247 -0.4845  0.0268
26174SOL    HW179100   2.899   6.858   2.861  0.4166 -0.1390  0.9512
26174SOL    HW279101   2.997   6.949   2.790 -0.6154 -1.3921 -2.2534
26175SOL     OW79102   1.534   7.773   3.733  0.5067  0.3173 -0.4047
26175SOL    HW179103   1.529   7.678   3.741  0.7829  0.2650 -0.8389
26175SOL    HW279104   1.444   7.801   3.719 -0.2434  0.5035  3.6632
26176SOL     OW79105   6.554   2.711   3.669 -0.0809  0.4219  0.2909
26176SOL    HW179106   6.638   2.673   3.694  0.0658  1.7176  1.9191
26176SOL    HW279107   6.560   2.803   3.696 -1.9043  0.6125  0.1731
26177SOL     OW79108   1.945   1.528   4.662 -0.0527  0.0490  0.0711
26177SOL    HW179109   1.993   1.608   4.644 -0.6390  0.2901 -0.4599
26177SOL    HW279110   1.877   1.525   4.595 -1.7206  0.4804  1.6946
26178SOL     OW79111   4.392   4.728   1.258 -0.0657  0.1413  0.4088
26178SOL    HW179112   4.335   4.804   1.255  0.8349  0.7848 -1.4306
26178SOL    HW279113   4.443   4.739   1.339 -1.0055  0.6617  0.9421
26179SOL     OW79114   5.343   7.060   9.917 -0.1227  0.2625  1.1322
26179SOL    HW179115   5.271   6.998   9.903 -1.8739  2.1450  1.2207
26179SOL    HW279116   5.304   7.146   9.897  2.3400  1.2895  0.4720
26180SOL     OW79117   9.520   2.643   1.162 -0.2909  0.0735  0.3008
26180SOL    HW179118   9.583   2.593   1.110 -2.0570  0.5008 -2.4470
26180SOL    HW279119   9.531   2.734   1.133 -0.4476  0.5580  1.6700
26181SOL     OW79120   8.754   7.734   2.060  0.2835 -0.0833  0.6306
26181SOL    HW179121   8.682   7.797   2.063 -0.0169 -0.4160  0.4395
26181SOL    HW279122   8.818   7.769   2.122  0.4243  0.7840  0.0247
26182SOL     OW79123   0.426   5.535   5.344  0.3976 -0.4943  0.0764
26182SOL    HW179124   0.514   5.567   5.361  0.8477 -1.9747  0.6881
26182SOL    HW279125   0.437   5.465   5.280 -0.2271 -1.2305  0.7459
26183SOL     OW79126   1.006   6.069   7.934  0.0054  0.0347  0.5708
26183SOL    HW179127   0.995   5.984   7.892  1.1323  1.0147 -1.8866
26183SOL    HW279128   1.052   6.050   8.015 -0.1654 -1.7397  0.2870
26184SOL     OW79129   2.141   5.253   2.314  0.2604 -0.0802 -0.4257
26184SOL    HW179130   2.220   5.214   2.352 -0.4563 -0.6769  0.5046
26184SOL    HW279131   2.143   5.227   2.222  0.1509 -1.8061  0.0241
26185SOL     OW79132   0.536   0.281   0.577  0.0831  0.2325  0.0054
26185SOL    HW179133   0.564   0.338   0.505 -1.4228 -0.1486 -0.9156
26185SOL    HW279134   0.613   0.226   0.595  0.5001  0.3763 -1.2561
26186SOL     OW79135   2.838   7.734   7.478 -0.0351 -0.1200  0.0767
26186SOL    HW179136   2.861   7.692   7.396 -0.9187 -0.1885 -0.1393
26186SOL    HW279137   2.888   7.686   7.544  0.1954 -0.4665 -0.3457
26187SOL     OW79138   4.151   7.640   7.804  0.3418 -0.0744 -0.2606
26187SOL    HW179139   4.179   7.681   7.721 -1.8972  0.4903 -0.7981
26187SOL    HW279140   4.186   7.698   7.872  0.8002  0.3765 -0.8633
26188SOL     OW79141   9.923   0.941   5.350  0.0919 -0.0561  0.0765
26188SOL    HW179142   9.860   0.991   5.404 -0.1557 -1.2135  0.8910
26188SOL    HW279143   9.868   0.889   5.292  0.3580  0.8509 -1.0324
26189SOL     OW79144   1.351   6.618   1.375 -0.4606  0.0056  0.0592
26189SOL    HW179145   1.294   6.694   1.385 -1.2921 -0.5915 -0.0163
26189SOL    HW279146   1.399   6.612   1.457 -1.5673 -0.3244  0.7013
26190SOL     OW79147   7.282   3.048   0.494  0.0039  0.9344 -0.4366
26190SOL    HW179148   7.209   2.997   0.459  1.7652 -1.9470 -0.2362
26190SOL    HW279149   7.251   3.139   0.492 -2.7135  0.0910 -2.4046
26191SOL     OW79150   0.963   4.313   4.496 -0.5869  0.0967  0.1412
26191SOL    HW179151   0.949   4.377   4.427  1.4220 -0.4747 -0.8602
26191SOL    HW279152   0.985   4.365   4.573 -0.2704  0.6718 -0.3295
26192SOL     OW79153   7.948   2.624   6.144 -0.0337 -0.3137  0.5939
26192SOL    HW179154   7.891   2.571   6.200  0.7160 -0.7928  0.9212
26192SOL    HW279155   7.939   2.713   6.179  0.5099 -0.6228  1.5675
26193SOL     OW79156   3.131   2.582   8.472  0.3214 -0.0818  0.0995
26193SOL    HW179157   3.154   2.598   8.564  0.8718  0.5245 -0.1368
26193SOL    HW279158   3.105   2.668   8.439  2.4586  0.2198 -0.9646
26194SOL     OW79159   3.533   3.250   4.388 -0.4563  0.4718 -0.0450
26194SOL    HW179160   3.618   3.262   4.430 -0.5905  0.1435  0.3231
26194SOL    HW279161   3.550   3.269   4.296 -0.1501  1.1420  0.1410
26195SOL     OW79162   0.718   5.307   5.749  0.1245 -0.6498  0.2147
26195SOL    HW179163   0.749   5.329   5.661  0.6248 -0.3545  0.4568
26195SOL    HW279164   0.723   5.211   5.752 -0.4278 -0.6986 -0.2638
26196SOL     OW79165   9.104   5.699   2.090 -0.2928  0.0315 -0.2507
26196SOL    HW179166   9.028   5.751   2.115  0.5522  1.0671  0.2355
26196SOL    HW279167   9.180   5.751   2.118  0.5981 -1.8185  1.0637
26197SOL     OW79168   6.222   8.311   7.101  0.2396 -0.4811 -0.0164
26197SOL    HW179169   6.190   8.330   7.013 -0.3442 -0.7365  0.1311
26197SOL    HW279170   6.144   8.279   7.148  0.7517 -1.2831  0.3075
26198SOL     OW79171   1.010   1.430   1.454 -0.2591 -0.2296 -0.6437
26198SOL    HW179172   0.995   1.339   1.431  0.8328 -0.3713 -0.8473
26198SOL    HW279173   1.025   1.474   1.371  2.3575 -0.4877 -0.3752
26199SOL     OW79174   7.921   0.945   4.185 -0.0013 -0.1131 -0.0840
26199SOL    HW179175   7.992   0.967   4.125 -1.2491  0.4087 -1.4292
26199SOL    HW279176   7.965   0.923   4.267  1.6138  3.4708  0.1897
26200SOL     OW79177   8.511   2.402   4.489 -0.0834  0.3786  0.5805
26200SOL    HW179178   8.435   2.458   4.500 -0.1769  0.2605  0.5337
26200SOL    HW279179   8.573   2.432   4.555  0.3785  1.3951 -0.2758
26201SOL     OW79180   0.532   0.675   1.186  0.1353 -0.4983  0.2561
26201SOL    HW179181   0.484   0.746   1.229  0.7012  0.5232 -0.7608
26201SOL    HW279182   0.535   0.700   1.094 -0.6051 -2.3891 -0.3304
26202SOL     OW79183   2.832   0.537   8.810  0.0442  0.0139  0.0019
26202SOL    HW179184   2.925   0.561   8.815  0.3763 -0.6206 -2.1833
26202SOL    HW279185   2.786   0.620   8.822  0.8718  0.3859  0.8083
26203SOL     OW79186   7.769   2.026   7.194  0.4118  0.3038 -0.0065
26203SOL    HW179187   7.740   1.938   7.171 -1.0476  0.8962 -0.5558
26203SOL    HW279188   7.837   2.013   7.260 -0.7325 -1.1988  0.9369
26204SOL     OW79189   8.996   3.803   1.308  0.5903  0.0436  0.0836
26204SOL    HW179190   8.908   3.840   1.315  0.2261 -0.0582 -2.6531
26204SOL    HW279191   8.998   3.733   1.373 -0.3185  1.8110  2.1432
26205SOL     OW79192   7.267   7.716   9.395 -0.3749  0.0280  0.7201
26205SOL    HW179193   7.201   7.775   9.430  0.4253  2.8189 -2.0591
26205SOL    HW279194   7.346   7.735   9.444 -0.5852 -0.2328  1.1698
26206SOL     OW79195   3.016   4.618   6.557 -0.6014 -0.1040  0.1349
26206SOL    HW179196   2.969   4.540   6.589  1.1345 -1.2584 -0.0017
26206SOL    HW279197   3.052   4.591   6.473 -1.1719  1.3567 -0.5923
26207SOL     OW79198   6.409   4.290   2.992  0.4959  0.2708  0.0600
26207SOL    HW179199   6.349   4.233   2.944  1.6830  0.7067 -2.0996
26207SOL    HW279200   6.363   4.373   2.999  0.5541  0.4044 -0.9747
26208SOL     OW79201   5.470   5.441   9.448  0.0230  0.5824  1.0026
26208SOL    HW179202   5.545   5.385   9.429 -1.2167 -0.2232 -2.1916
26208SOL    HW279203   5.421   5.393   9.515  0.5822 -0.6254  0.5658
26209SOL     OW79204   2.648   0.849   5.462 -0.2745  0.6086  0.5924
26209SOL    HW179205   2.708   0.776   5.472 -3.7225 -3.1321 -2.1929
26209SOL    HW279206   2.593   0.846   5.540 -0.5074  0.0357  0.4143
26210SOL     OW79207   8.679   8.187   5.536 -0.0408 -0.0409 -0.2027
26210SOL    HW179208   8.650   8.278   5.543 -1.1533 -0.4684  1.3033
26210SOL    HW279209   8.606   8.142   5.492  1.1583  0.0430 -2.3961
26211SOL     OW79210   1.007   4.499   8.950  0.4157 -0.6334  0.2425
26211SOL    HW179211   1.018   4.411   8.913  0.8972 -0.9409  1.0808
26211SOL    HW279212   0.979   4.483   9.040  1.6831  0.0296  0.7874
26212SOL     OW79213   1.228   9.528   2.301  0.8699 -1.0714 -0.2974
26212SOL    HW179214   1.221   9.557   2.210  0.0224 -1.2642 -0.2996
26212SOL    HW279215   1.141   9.495   2.322  0.8961 -0.5064  0.7586
26213SOL     OW79216   1.822   2.061   1.574 -0.0143 -0.2582 -0.4093
26213SOL    HW179217   1.802   2.115   1.650  0.3837  0.6865 -0.9543
26213SOL    HW279218   1.755   1.993   1.574 -0.5890  0.2978  0.2407
26214SOL     OW79219   8.708   0.210   9.815 -0.2233  0.8052 -0.2437
26214SOL    HW179220   8.686   0.140   9.876 -0.7666  1.9232  0.8930
26214SOL    HW279221   8.792   0.183   9.777  1.3957  1.0804  2.7366
26215SOL     OW79222   6.226   9.769   6.498 -0.5356 -0.0323  0.3455
26215SOL    HW179223   6.220   9.775   6.402  0.3855 -0.2117  0.2641
26215SOL    HW279224   6.196   9.855   6.529  1.4160  0.9159 -0.2355
26216SOL     OW79225   6.336   2.914   7.312  0.7044  0.5943 -0.2315
26216SOL    HW179226   6.379   2.986   7.359  0.0020  0.4878  0.5969
26216SOL    HW279227   6.339   2.941   7.220  1.6788  1.0295 -0.0889
26217SOL     OW79228   5.197   5.287   4.649  0.0629 -1.0490 -0.5719
26217SOL    HW179229   5.196   5.351   4.720 -1.0453 -1.1609 -0.4711
26217SOL    HW279230   5.286   5.290   4.615 -0.0554  0.8016 -0.7970
26218SOL     OW79231   2.475   5.749   9.508  0.3947  0.3769  0.5040
26218SOL    HW179232   2.513   5.700   9.436 -1.5926 -0.6692  0.0838
26218SOL    HW279233   2.435   5.826   9.467 -1.0774 -0.4168  0.3726
26219SOL     OW79234   9.183   0.291   5.497 -0.6977 -0.4615 -0.2842
26219SOL    HW179235   9.105   0.309   5.551  0.3555  1.1310  0.7929
26219SOL    HW279236   9.220   0.211   5.534  0.0784  0.6675  1.5229
26220SOL     OW79237   8.380   5.723   6.941  0.4275  0.0293 -0.4055
26220SOL    HW179238   8.428   5.693   7.019 -0.2625 -0.2996 -0.0941
26220SOL    HW279239   8.444   5.773   6.891  0.7449  0.7190  0.6460
26221SOL     OW79240   8.341   2.764   8.342 -0.0569 -0.3879 -0.2768
26221SOL    HW179241   8.281   2.771   8.268 -0.0908 -0.6164 -0.2717
26221SOL    HW279242   8.339   2.851   8.382  0.8138  0.0697 -1.1861
26222SOL     OW79243   8.490   8.168   0.499  1.0539  0.0281 -0.0422
26222SOL    HW179244   8.462   8.145   0.587  2.2113 -0.9067  0.1131
26222SOL    HW279245   8.494   8.084   0.452 -2.5058  0.7411 -1.9672
26223SOL     OW79246   1.917   4.236   7.450  0.2029 -0.5160 -0.0026
26223SOL    HW179247   2.003   4.273   7.431 -1.1694  2.3823 -1.2623
26223SOL    HW279248   1.908   4.163   7.389  0.4129  1.4749 -2.5774
26224SOL     OW79249   6.279   7.840   9.304 -0.2592  0.1506 -0.3296
26224SOL    HW179250   6.197   7.838   9.255 -0.4332 -1.2188 -0.0231
26224SOL    HW279251   6.295   7.749   9.328  0.4471  0.6289  1.1264
26225SOL     OW79252   2.706   0.333   9.753  0.1238  0.0661  0.9316
26225SOL    HW179253   2.660   0.307   9.832 -0.9038  1.1098  0.7034
26225SOL    HW279254   2.636   0.353   9.690  0.9033  0.3479  0.1341
26226SOL     OW79255   3.481   4.216   5.345 -0.2196 -0.1803  0.0628
26226SOL    HW179256   3.533   4.289   5.379 -1.2769  1.9601 -2.5514
26226SOL    HW279257   3.540   4.172   5.284 -0.0508 -0.6164  0.5356
26227SOL     OW79258   2.756   0.885   5.116  0.3196  0.0909  0.2511
26227SOL    HW179259   2.781   0.961   5.168  0.0344 -0.0745  0.6495
26227SOL    HW279260   2.838   0.847   5.087  0.4353  1.5437 -1.4578
26228SOL     OW79261   6.896   6.808   5.568  0.3013  0.6593 -0.2390
26228SOL    HW179262   6.984   6.772   5.576  0.3328  0.6347 -0.6944
26228SOL    HW279263   6.883   6.819   5.474  0.6541  2.7025 -0.0940
26229SOL     OW79264   5.844   8.594   8.914  0.1319  0.4340 -0.2407
26229SOL    HW179265   5.839   8.506   8.952 -1.9248  0.2034 -0.8848
26229SOL    HW279266   5.840   8.579   8.819  1.8088  1.1627 -0.4644
26230SOL     OW79267   1.234   9.544   5.551 -1.2092  0.3565  0.5286
26230SOL    HW179268   1.240   9.537   5.456  0.6393  0.3397  0.6049
26230SOL    HW279269   1.145   9.515   5.572 -1.0597 -1.4723 -1.0463
26231SOL     OW79270   0.450   1.056   2.868 -0.1250 -0.0430  0.8144
26231SOL    HW179271   0.453   1.147   2.899  0.8985  0.0326  0.5220
26231SOL    HW279272   0.542   1.032   2.855 -0.4583 -0.2471 -1.6105
26232SOL     OW79273   9.752   1.783   6.106  0.1578  0.2077  0.4472
26232SOL    HW179274   9.773   1.701   6.061 -1.1508 -0.5051  1.0506
26232SOL    HW279275   9.695   1.830   6.046 -0.1713  0.0475  0.6260
26233SOL     OW79276   6.786   5.069   0.321 -0.2084 -0.1396  0.0044
26233SOL    HW179277   6.710   5.083   0.264 -0.2882  0.0517  0.1546
26233SOL    HW279278   6.859   5.058   0.260 -0.3927 -0.5569 -0.1440
26234SOL     OW79279   1.301   8.794   3.091 -0.4607  0.3129  0.0400
26234SOL    HW179280   1.234   8.750   3.143  0.7063  0.3296  1.6357
26234SOL    HW279281   1.319   8.735   3.018 -0.7390 -0.6464  0.7384
26235SOL     OW79282   5.859   3.549   9.547  0.2994 -0.2335 -0.1785
26235SOL    HW179283   5.878   3.477   9.607  1.5609 -0.3225 -0.6563
26235SOL    HW279284   5.944   3.569   9.506 -0.1355  1.1425 -0.4647
26236SOL     OW79285   8.803   3.751   3.067 -0.0499 -0.3675 -0.2122
26236SOL    HW179286   8.783   3.776   3.158  1.4903 -0.6074  0.2320
26236SOL    HW279287   8.751   3.811   3.014 -1.7822 -0.9037  0.8124
26237SOL     OW79288   6.026   5.489   9.088 -0.0564  0.1714 -0.2818
26237SOL    HW179289   5.974   5.421   9.045 -0.2928  0.4552 -0.4483
26237SOL    HW279290   6.003   5.481   9.181 -0.6078  0.4716 -0.3896
26238SOL     OW79291   8.808   2.269   7.681  0.9072 -0.1868 -0.8996
26238SOL    HW179292   8.718   2.279   7.647  1.5355 -1.1688 -3.0419
26238SOL    HW279293   8.854   2.347   7.650  0.5909  0.8853  1.1567
26239SOL     OW79294   3.353   4.607   8.560  0.0859 -0.1145  0.0091
26239SOL    HW179295   3.405   4.593   8.481  0.6598 -1.6738  0.6337
26239SOL    HW279296   3.414   4.649   8.621  0.3102 -0.9750  0.3827
26240SOL     OW79297   7.252   5.898   3.034  0.3614 -0.0098 -0.5243
26240SOL    HW179298   7.212   5.962   3.093  0.7579 -0.4798  0.2792
26240SOL    HW279299   7.295   5.951   2.966  1.1403  0.6163  0.4213
26241SOL     OW79300   1.454   3.436   2.538  0.2837  0.3875  0.1197
26241SOL    HW179301   1.519   3.463   2.602 -2.1109 -0.8852  3.3797
26241SOL    HW279302   1.458   3.340   2.538  0.2711  0.3410 -1.8052
26242SOL     OW79303   5.977   8.689   2.890 -0.1843 -0.1384  0.0874
26242SOL    HW179304   6.027   8.611   2.866 -0.1095 -0.9349  2.4949
26242SOL    HW279305   5.886   8.660   2.890 -0.3553  0.3554 -0.9287
26243SOL     OW79306   0.392   7.131   4.446  0.7985 -0.2705  0.3634
26243SOL    HW179307   0.348   7.208   4.410 -2.2024 -1.6285  0.8896
26243SOL    HW279308   0.476   7.165   4.477 -0.6692  2.9563  1.2820
26244SOL     OW79309   4.625   8.874   8.247  0.2130  0.0943  0.0649
26244SOL    HW179310   4.705   8.829   8.275  0.6203  0.9439  0.2973
26244SOL    HW279311   4.626   8.956   8.295  0.1164  0.9008 -1.2720
26245SOL     OW79312   0.445   0.563   2.102 -0.3589  0.3332 -0.0578
26245SOL    HW179313   0.360   0.561   2.057 -0.8912  0.4116  0.9165
26245SOL    HW279314   0.445   0.485   2.158  0.5839 -0.1387 -0.6815
26246SOL     OW79315   3.648   6.481   9.754 -0.1720 -0.5422  0.3676
26246SOL    HW179316   3.577   6.461   9.815 -0.4665 -1.0524 -0.1387
26246SOL    HW279317   3.726   6.444   9.795 -0.4730 -1.4471  0.1371
26247SOL     OW79318   0.891   9.059   3.240 -0.1383 -0.0654  0.1300
26247SOL    HW179319   0.935   9.142   3.258 -1.1430  0.5769 -0.3202
26247SOL    HW279320   0.856   9.032   3.325  0.0813  0.0298  0.2522
26248SOL     OW79321   6.709   3.506   5.920 -0.6677 -0.1892 -0.3395
26248SOL    HW179322   6.626   3.553   5.908 -0.6911 -0.3788 -0.9779
26248SOL    HW279323   6.684   3.413   5.918 -0.6421 -0.2406  1.0701
26249SOL     OW79324   6.875   0.383   7.108 -0.1580 -0.4320 -0.0984
26249SOL    HW179325   6.781   0.370   7.125 -0.1592 -0.9342 -0.4804
26249SOL    HW279326   6.880   0.471   7.070 -0.2050  0.5487  2.0229
26250SOL     OW79327   3.999   4.489   9.255 -0.1121 -0.3836 -0.0539
26250SOL    HW179328   3.976   4.396   9.258  0.3960 -0.5061  0.0377
26250SOL    HW279329   3.969   4.524   9.340 -1.0541 -0.2810 -0.4173
26251SOL     OW79330   0.398   0.973   7.390 -0.3046 -0.1584 -0.4378
26251SOL    HW179331   0.306   0.964   7.414 -0.3985  0.4009 -0.5738
26251SOL    HW279332   0.402   0.937   7.301 -0.4854  0.2258 -0.6063
26252SOL     OW79333   2.073   3.230   7.161 -0.0086  0.3474  0.5031
26252SOL    HW179334   2.032   3.183   7.089  0.5954 -0.7021  0.8192
26252SOL    HW279335   2.012   3.301   7.181 -1.1929 -0.5830  0.3293
26253SOL     OW79336   7.682   7.442   7.992  0.1250 -0.1098 -0.2274
26253SOL    HW179337   7.644   7.429   7.905  0.3012 -2.9899  0.0403
26253SOL    HW279338   7.777   7.436   7.979  0.1857  0.2516  0.0405
26254SOL     OW79339   7.614   8.646   6.492  0.1605  0.2946 -0.1135
26254SOL    HW179340   7.679   8.615   6.430 -0.2847 -0.6406 -0.1275
26254SOL    HW279341   7.663   8.664   6.572  0.4111 -0.6366 -0.0452
26255SOL     OW79342   9.415   6.267   3.120  0.1213  0.2444  0.2751
26255SOL    HW179343   9.494   6.213   3.117  0.4751  0.7936 -0.9146
26255SOL    HW279344   9.432   6.331   3.188 -0.4267 -1.2946  1.9210
26256SOL     OW79345   8.787   6.669   4.862  0.0162  0.1777  0.0657
26256SOL    HW179346   8.798   6.754   4.905 -0.6378  0.0224  0.5480
26256SOL    HW279347   8.823   6.682   4.775  1.4926  0.4708  0.6775
26257SOL     OW79348   8.298   2.167   5.766  0.4629 -0.5392 -0.0165
26257SOL    HW179349   8.236   2.219   5.816  1.3176  0.3795  0.1310
26257SOL    HW279350   8.269   2.176   5.675  0.5023  0.0717  0.0244
26258SOL     OW79351   5.758   4.805   0.642  0.0500  0.4366 -0.2569
26258SOL    HW179352   5.852   4.812   0.660  0.2398  0.3505 -1.2098
26258SOL    HW279353   5.730   4.894   0.620  0.1183  0.2803 -0.9846
26259SOL     OW79354   0.375   2.026   9.574  0.4234 -0.3057  0.0105
26259SOL    HW179355   0.379   2.027   9.478 -0.5409 -1.1275 -0.0457
26259SOL    HW279356   0.460   1.993   9.601  1.2512  1.2842 -0.5000
26260SOL     OW79357   6.116   7.033   0.198  0.1477  0.1512 -0.3134
26260SOL    HW179358   6.047   6.971   0.219  0.7729 -1.0494 -1.6760
26260SOL    HW279359   6.070   7.116   0.185 -1.0498 -0.6081 -1.1214
26261SOL     OW79360   5.672   4.186   6.685 -0.1030  0.0414  0.3655
26261SOL    HW179361   5.754   4.141   6.702 -0.1630  0.1689  1.0105
26261SOL    HW279362   5.677   4.212   6.593  1.8157  2.5061  1.0607
26262SOL     OW79363   1.365   6.335   5.517 -0.0312  0.0695  0.4557
26262SOL    HW179364   1.344   6.417   5.471  0.3910  0.4592  0.9400
26262SOL    HW279365   1.287   6.281   5.508 -0.1431  0.3410 -0.2781
26263SOL     OW79366   5.010   8.200   2.977  0.2153 -0.3501  0.3402
26263SOL    HW179367   5.004   8.181   2.883 -0.2767 -2.4947  0.7478
26263SOL    HW279368   5.071   8.135   3.011 -0.4590 -0.3277  1.6709
26264SOL     OW79369   0.362   6.012   5.728  0.1303 -0.3260 -0.4261
26264SOL    HW179370   0.439   6.035   5.677 -1.1628  1.2903 -1.7395
26264SOL    HW279371   0.292   6.067   5.694 -1.5579 -1.4813  0.9507
26265SOL     OW79372   2.875   1.705   3.409  0.3138 -0.0470  0.4186
26265SOL    HW179373   2.951   1.657   3.442 -0.4358 -0.5234  1.5065
26265SOL    HW279374   2.862   1.671   3.320 -0.4813 -2.2601  1.3076
26266SOL     OW79375   0.868   6.366   7.721  0.2717 -0.0959 -0.0006
26266SOL    HW179376   0.857   6.286   7.670  1.5058  0.1729 -0.7220
26266SOL    HW279377   0.951   6.354   7.767  0.3870  0.6897  0.0127
26267SOL     OW79378   2.719   8.147   4.335  0.1629  0.2656 -0.1618
26267SOL    HW179379   2.774   8.149   4.257  0.6143  0.1326  0.1498
26267SOL    HW279380   2.780   8.146   4.408 -0.2281 -0.9205  0.1791
26268SOL     OW79381   9.036   3.029   9.026 -0.4138 -0.4219 -0.1801
26268SOL    HW179382   9.019   3.050   8.934 -0.2407  0.6350  0.0217
26268SOL    HW279383   9.085   2.947   9.022  1.9252  0.9076 -1.2126
26269SOL     OW79384   0.612   9.196   1.272  0.0956  0.1357  0.1857
26269SOL    HW179385   0.599   9.110   1.313 -1.1468  0.6088  0.8407
26269SOL    HW279386   0.536   9.206   1.214 -0.3422  1.2132  0.9095
26270SOL     OW79387   3.321   1.732   6.339 -0.0472 -1.0520  0.4914
26270SOL    HW179388   3.280   1.738   6.252  0.9742 -1.9209 -0.0772
26270SOL    HW279389   3.413   1.713   6.320  0.4437 -0.0541  1.7547
26271SOL     OW79390   9.230   4.008   1.692 -0.3897  0.6215  0.3365
26271SOL    HW179391   9.236   4.086   1.636 -1.5400  1.2590  1.0753
26271SOL    HW279392   9.227   4.042   1.781  1.1145 -0.3794  0.8026
26272SOL     OW79393   0.409   1.781   9.879 -0.7874 -0.0705 -0.0117
26272SOL    HW179394   0.411   1.691   9.845  2.1209 -0.3074  0.4847
26272SOL    HW279395   0.469   1.779   9.954  1.6342  2.8455 -1.6537
26273SOL     OW79396   7.396   3.996   8.050 -0.1168 -0.3547 -0.7987
26273SOL    HW179397   7.438   4.082   8.059 -0.1545 -0.3745 -0.4073
26273SOL    HW279398   7.445   3.952   7.981  0.6899 -0.4955 -0.1388
26274SOL     OW79399   9.922   6.912   7.602  0.2410  0.2707  0.1436
26274SOL    HW179400   9.833   6.877   7.597  0.0685  0.7452 -0.1639
26274SOL    HW279401   9.967   6.873   7.528  0.4604 -0.4448  0.6509
26275SOL     OW79402   5.569   2.646   4.452  0.1682  0.2741  0.1468
26275SOL    HW179403   5.577   2.741   4.452  2.2493  0.2493 -2.6802
26275SOL    HW279404   5.659   2.614   4.449 -0.4945 -1.6761 -1.3132
26276SOL     OW79405   7.715   6.612   3.905 -0.3235 -0.0578 -0.3035
26276SOL    HW179406   7.638   6.554   3.903  1.4677 -2.7012  0.8256
26276SOL    HW279407   7.738   6.624   3.813 -1.8742  0.5294 -0.6507
26277SOL     OW79408   7.702   5.583   9.437  0.3196  0.2928 -0.3441
26277SOL    HW179409   7.673   5.653   9.378  0.3463 -0.4779 -1.2895
26277SOL    HW279410   7.648   5.508   9.415 -0.1491  0.1753  1.1111
26278SOL     OW79411   8.474   1.817   0.964 -0.2898  0.4559 -0.1075
26278SOL    HW179412   8.554   1.766   0.974 -0.5495 -0.2646 -1.4225
26278SOL    HW279413   8.462   1.825   0.869 -0.0432  3.3449  0.0157
26279SOL     OW79414   4.278   3.896   4.604 -0.0441 -0.0552  0.9277
26279SOL    HW179415   4.267   3.813   4.557  0.2242  0.2923  0.2412
26279SOL    HW279416   4.357   3.935   4.567 -0.4647  0.7586  0.8629
26280SOL     OW79417   8.762   9.529   0.643 -0.5839 -0.1667 -0.2580
26280SOL    HW179418   8.791   9.438   0.643  1.1458  0.3294  0.8778
26280SOL    HW279419   8.674   9.527   0.680  0.4051 -1.1336  2.2213
26281SOL     OW79420   3.887   2.784   9.847 -0.2281 -0.2356 -0.4745
26281SOL    HW179421   3.849   2.844   9.782  0.5611  0.7001 -0.0860
26281SOL    HW279422   3.919   2.841   9.917 -2.6724 -1.3009  1.6742
26282SOL     OW79423   0.459   1.494   5.788 -0.4827  0.7751 -0.0880
26282SOL    HW179424   0.457   1.491   5.692  1.2303 -0.3644 -0.1446
26282SOL    HW279425   0.411   1.416   5.816 -0.5484  0.8303 -0.0491
26283SOL     OW79426   8.379   8.632   0.516 -0.0565 -0.5570 -0.6392
26283SOL    HW179427   8.363   8.677   0.433  0.0252  0.6699 -0.0107
26283SOL    HW279428   8.390   8.540   0.491 -1.3303 -0.4213 -1.8441
26284SOL     OW79429   5.919   6.100   5.182  0.4357  0.3692  0.5589
26284SOL    HW179430   6.010   6.117   5.159  1.2132 -1.1589  2.2807
26284SOL    HW279431   5.877   6.077   5.099  1.8553  0.1584 -0.1206
26285SOL     OW79432   8.024   6.405   7.648  0.0219  0.3183  0.3369
26285SOL    HW179433   8.057   6.332   7.596  2.5200  0.7915  1.1064
26285SOL    HW279434   7.983   6.363   7.724 -0.5120 -0.2977 -0.2774
26286SOL     OW79435   9.428   4.016   8.755 -0.7651  0.4240  0.6861
26286SOL    HW179436   9.521   3.994   8.755 -1.4259 -3.3639 -1.6029
26286SOL    HW279437   9.414   4.064   8.674 -0.8970  0.4699  0.7360
26287SOL     OW79438   2.568   7.754   7.494  0.2678  0.1136 -0.1905
26287SOL    HW179439   2.660   7.728   7.487  0.1402 -0.2938 -0.3824
26287SOL    HW279440   2.539   7.718   7.578 -0.2600 -1.5182 -1.0199
26288SOL     OW79441   2.926   4.434   6.849  0.2878  0.2138  0.3325
26288SOL    HW179442   2.977   4.369   6.896 -0.1143  0.3337  0.9500
26288SOL    HW279443   2.915   4.398   6.761  1.6818  0.3291  0.1035
26289SOL     OW79444   9.947   9.380   1.588 -0.3040  0.1924  1.0516
26289SOL    HW179445   9.877   9.433   1.550 -0.4685 -1.0573 -0.4987
26289SOL    HW279446   9.999   9.441   1.640 -0.7487  1.7654 -0.2875
26290SOL     OW79447   3.860   8.744   2.686 -0.3139  0.4807  0.0059
26290SOL    HW179448   3.902   8.723   2.603 -0.7986  0.0425 -0.1355
26290SOL    HW279449   3.773   8.775   2.662 -0.6671 -0.2037  0.3765
26291SOL     OW79450   8.388   2.916   5.367 -0.0433  0.1641 -0.5559
26291SOL    HW179451   8.448   2.988   5.389 -0.6941  0.0525  1.8017
26291SOL    HW279452   8.312   2.930   5.422 -0.4553 -1.9910 -0.4901
26292SOL     OW79453   3.251   2.408   8.240 -0.2702 -0.3230 -0.1115
26292SOL    HW179454   3.342   2.387   8.261 -0.5295 -0.8570  0.5123
26292SOL    HW279455   3.217   2.448   8.321 -0.6612 -0.3576 -0.2577
26293SOL     OW79456   8.370   4.053   4.431  0.3419  0.2671  0.8449
26293SOL    HW179457   8.396   4.106   4.506 -0.4387  0.9645  0.6438
26293SOL    HW279458   8.357   4.117   4.360  1.4491 -0.4154 -0.0087
26294SOL     OW79459   3.099   3.328   9.279 -0.3412 -0.2900 -0.2810
26294SOL    HW179460   3.067   3.303   9.366  0.3417 -0.2324 -0.0037
26294SOL    HW279461   3.186   3.365   9.296 -0.6631  0.7812 -0.8598
26295SOL     OW79462   5.405   6.345   1.159 -0.2653 -0.2286 -0.3147
26295SOL    HW179463   5.390   6.297   1.240 -3.3834 -0.3291 -0.8447
26295SOL    HW279464   5.445   6.428   1.187  3.1464 -2.0470  0.7928
26296SOL     OW79465   9.472   0.732   3.789  0.8331 -0.5933  0.1363
26296SOL    HW179466   9.511   0.802   3.737  0.4683  0.1329  0.8237
26296SOL    HW279467   9.379   0.753   3.791  0.5710 -1.6502 -0.4862
26297SOL     OW79468   7.051   1.135   5.272 -0.4198  0.4476  0.3564
26297SOL    HW179469   7.061   1.228   5.253 -0.7797  0.5808  0.7851
26297SOL    HW279470   6.978   1.107   5.217 -1.0775  0.6969  1.0811
26298SOL     OW79471   9.498   8.442   8.508 -0.2614  0.3763  0.1253
26298SOL    HW179472   9.495   8.530   8.472  1.5271  0.5447  0.2777
26298SOL    HW279473   9.571   8.444   8.570 -0.5742 -1.0551  0.5846
26299SOL     OW79474   2.683   1.177   0.795  0.7896 -0.0619 -0.1381
26299SOL    HW179475   2.687   1.098   0.742 -0.1470  0.1978 -0.6203
26299SOL    HW279476   2.706   1.149   0.883  1.0649 -0.7515 -0.4304
26300SOL     OW79477   3.730   1.475   3.294  0.8839  0.2316  0.4964
26300SOL    HW179478   3.695   1.386   3.299 -0.3995  0.7376  1.0784
26300SOL    HW279479   3.673   1.519   3.230  1.2814  0.7395  0.4881
26301SOL     OW79480   6.747   5.384   1.619 -0.2020 -0.6426 -0.5335
26301SOL    HW179481   6.802   5.437   1.676 -1.1300  0.5310 -0.6934
26301SOL    HW279482   6.746   5.297   1.660  1.6353 -0.6761 -0.4672
26302SOL     OW79483   0.515   5.718   2.735  0.7567  0.3594  0.1453
26302SOL    HW179484   0.570   5.647   2.702  0.9039 -0.0729  1.2627
26302SOL    HW279485   0.444   5.725   2.673 -0.0504 -1.7508  0.7493
26303SOL     OW79486   9.827   7.222   5.261  0.2511  0.4406  0.4417
26303SOL    HW179487   9.781   7.140   5.279  1.1683 -0.0313  0.7137
26303SOL    HW279488   9.911   7.194   5.222 -0.0812  1.2999 -0.9801
26304SOL     OW79489   7.876   9.736   2.154 -0.1816  0.0728 -0.0789
26304SOL    HW179490   7.934   9.677   2.108  0.1495 -0.0511  0.4875
26304SOL    HW279491   7.800   9.746   2.097  0.4761  0.3903 -0.9129
26305SOL     OW79492   4.907   0.897   6.561 -0.2332  0.3591  0.3499
26305SOL    HW179493   4.977   0.834   6.578 -0.7437 -0.2928  0.0761
26305SOL    HW279494   4.827   0.849   6.579 -0.7606  0.0779 -2.3051
26306SOL     OW79495   8.503   8.711   3.910  0.4272 -0.4622 -0.0599
26306SOL    HW179496   8.501   8.685   3.818 -1.7955  1.9977 -0.8313
26306SOL    HW279497   8.585   8.760   3.919  1.3389 -1.8873 -0.3160
26307SOL     OW79498   3.758   1.277   7.009 -0.4794 -0.0241 -0.2510
26307SOL    HW179499   3.830   1.241   7.061 -0.2254 -0.5462 -0.9492
26307SOL    HW279500   3.799   1.344   6.955 -0.2066 -1.3326 -1.7282
26308SOL     OW79501   3.875   9.429   6.306 -0.2705  0.1398 -0.2259
26308SOL    HW179502   3.916   9.490   6.246 -0.2678 -0.0957 -0.4671
26308SOL    HW279503   3.808   9.480   6.351 -3.2743 -0.6283 -3.4651
26309SOL     OW79504   1.306   7.473   5.954  0.2127  0.2266  0.5086
26309SOL    HW179505   1.267   7.402   6.004 -1.1295  0.6886  0.1602
26309SOL    HW279506   1.255   7.550   5.978  1.4295  1.0186  0.6303
26310SOL     OW79507   4.690   0.837   6.327 -0.3495 -0.5157  0.2233
26310SOL    HW179508   4.601   0.817   6.299 -0.7735  1.4143  0.0340
26310SOL    HW279509   4.689   0.824   6.422 -1.3029  0.9654  0.4449
26311SOL     OW79510   1.281   4.654   3.956 -0.2561  0.3524 -0.4388
26311SOL    HW179511   1.222   4.724   3.984 -1.6951 -0.4254 -1.4061
26311SOL    HW279512   1.303   4.608   4.037 -2.0553 -0.1278 -0.1783
26312SOL     OW79513   1.703   2.330   7.420 -0.3256 -0.3785 -0.1598
26312SOL    HW179514   1.789   2.364   7.398 -0.7046  0.1030 -0.9323
26312SOL    HW279515   1.646   2.406   7.420 -0.9717 -0.8501 -0.7976
26313SOL     OW79516   6.196   9.479   1.777 -0.0506 -0.2964  0.3792
26313SOL    HW179517   6.167   9.569   1.785 -1.1695 -0.7873  2.5845
26313SOL    HW279518   6.206   9.448   1.867 -0.2840 -2.5486 -0.2884
26314SOL     OW79519   4.536   0.488   5.694  0.5307  0.1059  0.5548
26314SOL    HW179520   4.554   0.565   5.748  1.7154  1.6315 -1.8846
26314SOL    HW279521   4.441   0.485   5.686  0.2874 -0.3125  2.8129
26315SOL     OW79522   9.527   9.651   7.414  0.0263  0.0047  0.4029
26315SOL    HW179523   9.577   9.689   7.485  0.8256  1.4231 -0.8581
26315SOL    HW279524   9.515   9.723   7.352  1.1061 -1.6161 -1.8406
26316SOL     OW79525   4.473   0.377   6.885 -0.2113  0.0394  0.6371
26316SOL    HW179526   4.453   0.404   6.795  3.8030  0.5868 -0.2817
26316SOL    HW279527   4.423   0.297   6.897 -1.5463  0.4080 -1.7447
26317SOL     OW79528   9.425   0.381   4.069  0.2709  0.1223  0.4642
26317SOL    HW179529   9.435   0.288   4.046  1.2569  0.3943 -0.2543
26317SOL    HW279530   9.345   0.384   4.122  0.8595 -1.3214  1.5182
26318SOL     OW79531   7.477   5.683   1.962  0.6697  0.2031 -0.0882
26318SOL    HW179532   7.477   5.741   1.886 -1.4320  0.4073  0.0108
26318SOL    HW279533   7.485   5.742   2.037  1.5713  0.0979 -0.0963
26319SOL     OW79534   1.897   0.746   8.422  0.2524 -0.7363  0.1111
26319SOL    HW179535   1.975   0.732   8.369  0.4613  2.2315 -0.5809
26319SOL    HW279536   1.848   0.814   8.374 -1.6311 -0.9097  1.6595
26320SOL     OW79537   8.985   2.857   2.908 -0.2932 -0.1916  0.3345
26320SOL    HW179538   9.067   2.884   2.949 -0.2269  1.2232 -0.6520
26320SOL    HW279539   9.012   2.805   2.832 -0.2240  1.3061 -0.7094
26321SOL     OW79540   2.479   8.863   7.083  0.1489 -0.1250 -0.3571
26321SOL    HW179541   2.564   8.820   7.094  1.1794  1.5677 -1.2536
26321SOL    HW279542   2.483   8.901   6.995 -2.5300 -2.0477 -1.4319
26322SOL     OW79543   4.941   3.643   3.889  0.1083 -0.9049  0.3319
26322SOL    HW179544   5.031   3.664   3.915 -0.3267 -0.2470  1.3670
26322SOL    HW279545   4.926   3.697   3.811  0.2686 -0.2282  0.7598
26323SOL     OW79546   2.204   3.872   0.187 -0.0247 -0.3867 -0.0789
26323SOL    HW179547   2.198   3.847   0.095 -0.9180 -0.7266  0.0639
26323SOL    HW279548   2.278   3.822   0.221  0.3582 -0.2030 -0.6240
26324SOL     OW79549   9.436   3.913   7.727  0.2577  0.2407  0.0935
26324SOL    HW179550   9.344   3.938   7.713  0.8314  2.0912 -0.5890
26324SOL    HW279551   9.458   3.859   7.651  0.1695  1.0797 -0.5387
26325SOL     OW79552   1.964   5.660   4.301 -0.5530 -0.0891  0.0396
26325SOL    HW179553   1.919   5.718   4.364 -0.4819  0.0984 -0.0818
26325SOL    HW279554   2.037   5.624   4.351  0.6568  1.5496 -0.4665
26326SOL     OW79555   2.780   4.413   2.300  0.0434 -0.7526 -0.0607
26326SOL    HW179556   2.741   4.366   2.374 -0.0165 -0.1511  0.2944
26326SOL    HW279557   2.712   4.412   2.233 -0.0130 -1.0396 -0.0026
26327SOL     OW79558   4.457   0.062   5.516 -0.1742 -0.0574  0.0878
26327SOL    HW179559   4.540   0.053   5.563 -0.3151 -1.9550  0.0817
26327SOL    HW279560   4.480   0.050   5.424 -0.1305  1.9897 -0.2019
26328SOL     OW79561   8.744   1.814   3.541  0.1645 -0.4368 -0.2136
26328SOL    HW179562   8.750   1.881   3.473 -1.0017 -0.4292 -0.3217
26328SOL    HW279563   8.668   1.839   3.594  0.6169 -0.8478  0.6558
26329SOL     OW79564   1.877   2.280   7.011 -0.2556  0.8207 -1.0785
26329SOL    HW179565   1.922   2.259   7.094  0.5891 -2.3109 -2.1903
26329SOL    HW279566   1.784   2.277   7.033 -0.0397  0.3454 -0.1646
26330SOL     OW79567   4.516   0.784   3.286  0.4627 -0.5730 -0.0087
26330SOL    HW179568   4.601   0.795   3.328 -0.2733  0.6969  1.2619
26330SOL    HW279569   4.488   0.696   3.312  1.0691 -0.7313  0.1369
26331SOL     OW79570   1.963   1.818   5.542 -0.1904 -0.2317 -0.6652
26331SOL    HW179571   1.976   1.742   5.486 -0.7647 -1.5720  0.9483
26331SOL    HW279572   2.022   1.804   5.616  2.1876  2.5818 -1.8581
26332SOL     OW79573   3.167   7.816   7.444 -0.3394  0.4022 -0.1505
26332SOL    HW179574   3.106   7.744   7.430 -0.4497  0.7668 -1.7298
26332SOL    HW279575   3.238   7.779   7.496  0.3660 -1.2735 -2.1870
26333SOL     OW79576   5.013   7.202   7.031 -0.4860  0.3162  0.1099
26333SOL    HW179577   5.023   7.266   7.101  0.2989  0.9095 -0.5209
26333SOL    HW279578   5.091   7.213   6.977 -1.2507  0.1646 -1.0835
26334SOL     OW79579   5.359   0.187   5.587  0.2134 -0.3518  0.1100
26334SOL    HW179580   5.341   0.097   5.614  0.6411  0.2192  2.4857
26334SOL    HW279581   5.443   0.208   5.627  1.2883  0.4158 -2.3130
26335SOL     OW79582   5.570   3.399   3.164 -0.2842  0.3576  0.1794
26335SOL    HW179583   5.640   3.351   3.209  0.4776 -0.6022 -1.8729
26335SOL    HW279584   5.607   3.486   3.148 -0.4089  0.5703  1.0258
26336SOL     OW79585   0.814   4.566   9.537  0.5958 -0.2913  0.3089
26336SOL    HW179586   0.826   4.622   9.614  1.4904 -0.9282  0.6526
26336SOL    HW279587   0.813   4.627   9.464 -0.1447  0.3172  0.8111
26337SOL     OW79588   6.797   8.961   4.080  0.1826 -0.1475 -0.0797
26337SOL    HW179589   6.712   8.921   4.058  1.0242 -1.6539 -0.7380
26337SOL    HW279590   6.825   8.916   4.159 -0.3732  1.5594  1.1613
26338SOL     OW79591   2.778   1.203   9.796 -0.1846 -0.6790 -0.0411
26338SOL    HW179592   2.726   1.178   9.873  2.6172 -0.5479  2.0434
26338SOL    HW279593   2.790   1.298   9.805 -0.6453 -0.4816 -1.2588
26339SOL     OW79594   4.936   2.458   7.004 -0.2050 -0.1717 -0.4318
26339SOL    HW179595   4.907   2.397   7.072  1.6075 -0.8553 -0.2134
26339SOL    HW279596   4.910   2.416   6.922 -1.2897  0.0504 -0.2107
26340SOL     OW79597   2.796   6.863   2.075 -0.0521  0.3922  0.5942
26340SOL    HW179598   2.796   6.958   2.061 -0.8142  0.2829 -0.3115
26340SOL    HW279599   2.709   6.844   2.110  0.3272  0.0972  1.4008
26341SOL     OW79600   1.819   1.267   0.122 -0.5355  0.3806  0.2347
26341SOL    HW179601   1.799   1.199   0.186 -0.3190  0.8277  0.7809
26341SOL    HW279602   1.765   1.341   0.147  1.4676  1.4886  1.5255
26342SOL     OW79603   0.849   8.887   6.268 -0.7625 -0.0032 -0.3837
26342SOL    HW179604   0.808   8.826   6.329 -0.7706 -0.2030 -0.5847
26342SOL    HW279605   0.859   8.968   6.317 -2.1625  0.3131 -0.5609
26343SOL     OW79606   6.864   4.316   3.909  0.6021  0.3135  0.1616
26343SOL    HW179607   6.864   4.258   3.833 -2.5119  1.3473 -0.7741
26343SOL    HW279608   6.887   4.402   3.873 -0.1389  0.6725  0.5318
26344SOL     OW79609   2.643   3.203   3.391 -0.0979  0.2208  0.1064
26344SOL    HW179610   2.730   3.198   3.431  0.6956  1.7157 -1.3696
26344SOL    HW279611   2.597   3.127   3.427  1.3442  0.1496  1.9753
26345SOL     OW79612   1.000   9.803   1.909  0.6130  0.2662  0.5110
26345SOL    HW179613   0.988   9.850   1.991 -1.4296  0.5826  0.0771
26345SOL    HW279614   0.917   9.758   1.894  1.4047 -0.8546 -0.7311
26346SOL     OW79615   8.084  10.013   8.629  0.4571  0.5514 -0.0473
26346SOL    HW179616   8.133   9.932   8.616 -1.5867 -0.5471 -1.4966
26346SOL    HW279617   8.024   9.994   8.701  0.1534  0.8362 -0.2181
26347SOL     OW79618   4.536   3.167   6.721  0.1111  0.3271  0.2954
26347SOL    HW179619   4.579   3.246   6.690  0.2513  0.0157 -0.3124
26347SOL    HW279620   4.447   3.195   6.743  0.2674  0.7232  0.4332
26348SOL     OW79621   3.195   8.024   4.707  0.0370  0.3211 -0.5934
26348SOL    HW179622   3.101   8.025   4.724  0.2854  3.1372  1.3881
26348SOL    HW279623   3.229   7.956   4.765 -0.4446  2.0877  1.9335
26349SOL     OW79624   7.649   9.669   2.869  0.1579 -0.4939 -0.1989
26349SOL    HW179625   7.565   9.714   2.879 -0.4954 -0.9925 -2.8011
26349SOL    HW279626   7.707   9.735   2.831  0.3830 -0.7155 -0.2400
26350SOL     OW79627   3.364   7.989   5.682  0.7314 -0.2824 -0.6039
26350SOL    HW179628   3.425   7.947   5.743  0.7727 -0.7146 -0.9458
26350SOL    HW279629   3.403   7.977   5.596  0.6170  0.2398 -0.7335
26351SOL     OW79630   7.514   8.709   5.045  0.3301 -0.1522  0.6874
26351SOL    HW179631   7.476   8.629   5.008 -0.1061  0.7496 -0.8565
26351SOL    HW279632   7.532   8.685   5.136 -0.4560 -1.7867  0.4660
26352SOL     OW79633   8.118   4.689   1.055 -0.1764  0.9296  0.6059
26352SOL    HW179634   8.175   4.668   0.981  1.7287 -0.1003  2.2535
26352SOL    HW279635   8.029   4.673   1.022  0.7006 -1.7843 -0.7947
26353SOL     OW79636   3.118   9.536   5.485 -0.2935 -0.1755 -0.0612
26353SOL    HW179637   3.091   9.627   5.494  1.4745  0.2328  1.7445
26353SOL    HW279638   3.047   9.495   5.435 -2.5209  1.5387  1.4813
26354SOL     OW79639   0.439   8.292   2.373  0.0917 -0.2878  0.1288
26354SOL    HW179640   0.451   8.243   2.291 -1.3202  0.2781 -0.4539
26354SOL    HW279641   0.433   8.384   2.345 -0.3301 -0.0826  0.8679
26355SOL     OW79642   7.029   9.742   7.170  0.4587 -0.3558  0.6262
26355SOL    HW179643   7.085   9.810   7.130 -0.4871  0.7303  1.0905
26355SOL    HW279644   7.026   9.765   7.263 -0.8872 -0.2914  0.5847
26356SOL     OW79645   1.804   3.519   8.330 -0.2959  0.3901  0.0408
26356SOL    HW179646   1.834   3.539   8.241 -1.5527 -3.2284 -1.3770
26356SOL    HW279647   1.710   3.539   8.329 -0.4200 -0.1521  0.3732
26357SOL     OW79648   9.194   3.603   1.694  0.1064 -0.0814 -0.5483
26357SOL    HW179649   9.250   3.533   1.659  0.3364  0.4877 -1.3556
26357SOL    HW279650   9.150   3.563   1.769  0.0117 -1.1830 -1.1666
26358SOL     OW79651   1.167   7.225   1.589 -0.3070  0.3569  0.1034
26358SOL    HW179652   1.174   7.295   1.524 -1.5083  0.6101  0.2307
26358SOL    HW279653   1.085   7.243   1.635  0.6339  0.3422  1.8940
26359SOL     OW79654   9.492   0.386   4.506 -0.2370  0.4071  0.4916
26359SOL    HW179655   9.553   0.345   4.568  1.5699  0.7056 -0.9842
26359SOL    HW279656   9.414   0.403   4.557  0.8080 -0.2584  2.4315
26360SOL     OW79657   0.473   2.787   4.992 -0.2273 -0.6157 -0.3626
26360SOL    HW179658   0.470   2.715   4.928  1.9912  0.0206 -1.2574
26360SOL    HW279659   0.478   2.866   4.939 -0.7684  0.0985  0.6257
26361SOL     OW79660   9.066   0.086   0.011 -0.5328  0.9418  0.2522
26361SOL    HW179661   8.979   0.074   0.050 -0.8595  2.0865 -0.1036
26361SOL    HW279662   9.100   0.164   0.052 -0.0538  1.0233 -0.2909
26362SOL     OW79663   5.242   5.810   5.964  0.0099 -0.2144  0.4849
26362SOL    HW179664   5.314   5.778   5.909 -0.6838 -0.0897 -0.5254
26362SOL    HW279665   5.184   5.735   5.973 -1.1931  0.4586 -1.1758
26363SOL     OW79666   3.762   7.183   6.319 -0.1191 -0.2796 -0.5238
26363SOL    HW179667   3.774   7.097   6.277  1.1933  0.0063 -0.7904
26363SOL    HW279668   3.719   7.236   6.252  1.3719 -0.0174 -1.3164
26364SOL     OW79669   2.256   5.310   8.247 -0.1512  0.4822  0.3733
26364SOL    HW179670   2.311   5.366   8.193  1.0066 -0.6703  0.3134
26364SOL    HW279671   2.249   5.356   8.331 -0.4047  1.3783 -0.1285
26365SOL     OW79672   8.078   0.978   3.980  0.0850 -0.1345 -0.7071
26365SOL    HW179673   8.154   0.939   3.937  0.4864  0.7963 -0.8701
26365SOL    HW279674   8.004   0.958   3.922  0.7503  1.8878 -2.3913
26366SOL     OW79675   6.185   2.784   3.744 -0.5647  0.0865  0.4343
26366SOL    HW179676   6.251   2.759   3.810 -0.3466  0.0258  0.1937
26366SOL    HW279677   6.124   2.841   3.792 -1.2684 -1.1791  1.0853
26367SOL     OW79678   6.163   0.027   2.722 -0.2622  0.3687  0.8460
26367SOL    HW179679   6.095  -0.025   2.680  0.8767  2.5038 -4.3715
26367SOL    HW279680   6.116   0.100   2.762 -1.2882  0.7040 -0.8518
26368SOL     OW79681   1.262   1.529   5.581  0.1986 -0.7791 -0.0008
26368SOL    HW179682   1.353   1.522   5.553  0.2325 -1.3482  0.2443
26368SOL    HW279683   1.248   1.623   5.594  0.9896 -0.7510  0.7446
26369SOL     OW79684   7.868   3.807   4.703 -0.1583  0.2818 -0.1132
26369SOL    HW179685   7.798   3.742   4.700 -0.3118  0.4089  0.4455
26369SOL    HW279686   7.888   3.816   4.797  0.3133  0.5530 -0.2354
26370SOL     OW79687   2.712   0.264   3.381  0.3212  0.6833 -0.2620
26370SOL    HW179688   2.680   0.220   3.460 -0.5828 -0.2207 -1.1046
26370SOL    HW279689   2.797   0.300   3.406  2.0731 -3.1634 -0.0267
26371SOL     OW79690   9.878   5.399   2.960 -0.8495 -0.5071  0.0354
26371SOL    HW179691   9.961   5.434   2.992 -1.7580  1.6004  0.2568
26371SOL    HW279692   9.829   5.377   3.038 -0.5190 -1.7374 -0.0953
26372SOL     OW79693   2.157   0.876   9.696 -0.7028  0.4863 -0.2680
26372SOL    HW179694   2.067   0.892   9.724 -0.6596  1.5429 -0.6850
26372SOL    HW279695   2.150   0.812   9.625 -1.0737  0.1647  0.0574
26373SOL     OW79696   9.195   0.092   7.013  0.1734 -0.1225 -0.3394
26373SOL    HW179697   9.193   0.122   7.104 -1.0078 -0.2009 -0.3249
26373SOL    HW279698   9.264   0.145   6.972  0.4341  0.2027  0.4941
26374SOL     OW79699   4.111   5.023   9.681 -0.0160  0.1077  0.7646
26374SOL    HW179700   4.165   5.074   9.741  1.1836 -0.6521  0.3616
26374SOL    HW279701   4.145   4.934   9.687 -0.4175 -0.1485 -0.4179
26375SOL     OW79702   6.345   4.283   9.315 -0.5417 -0.7061  0.2009
26375SOL    HW179703   6.367   4.366   9.358 -0.0195 -1.9017  2.3829
26375SOL    HW279704   6.334   4.306   9.223  0.2982  1.6537  0.6215
26376SOL     OW79705   6.234   2.001   7.394 -0.0794  0.4587  0.5377
26376SOL    HW179706   6.151   2.020   7.438  0.2505 -0.3570  1.5544
26376SOL    HW279707   6.224   1.913   7.360 -0.0378  0.7913 -0.3611
26377SOL     OW79708   7.835   1.648   5.540  0.2069  0.0978  0.0955
26377SOL    HW179709   7.741   1.638   5.556  0.1263  0.2704 -0.2663
26377SOL    HW279710   7.841   1.710   5.468  0.4851 -1.8826 -1.6689
26378SOL     OW79711   5.321   7.474   3.159 -0.3753 -0.1826 -0.5793
26378SOL    HW179712   5.357   7.548   3.111  0.5773  0.1439  0.5829
26378SOL    HW279713   5.228   7.472   3.136 -0.6664  2.0480  0.1786
26379SOL     OW79714   5.628   1.870   2.620  0.1394  0.7583 -0.2689
26379SOL    HW179715   5.716   1.901   2.644  0.4867 -0.3459 -0.0062
26379SOL    HW279716   5.626   1.877   2.525  1.3327 -1.0921 -0.5058
26380SOL     OW79717   6.041   8.905   6.786 -0.6838  0.3681  0.4546
26380SOL    HW179718   6.088   8.986   6.765 -0.8461  0.0579 -1.2339
26380SOL    HW279719   5.950   8.924   6.764 -1.2816  0.6763  2.8853
26381SOL     OW79720   9.593   0.549   4.317 -0.2568  0.0736  0.7748
26381SOL    HW179721   9.554   0.492   4.383  2.8314 -2.4760  0.6321
26381SOL    HW279722   9.564   0.512   4.234  1.0172 -0.8311  0.6981
26382SOL     OW79723   0.362   1.516   1.356  0.3977 -0.0414 -0.5836
26382SOL    HW179724   0.408   1.556   1.282  0.0500  0.5817 -0.4685
26382SOL    HW279725   0.319   1.589   1.400  1.7565 -0.1941  1.0797
26383SOL     OW79726   7.521   9.158   3.181 -0.5625  0.2837  0.4813
26383SOL    HW179727   7.448   9.133   3.238  0.7152 -2.1539  1.1792
26383SOL    HW279728   7.547   9.245   3.211 -0.9108 -0.3010  2.6064
26384SOL     OW79729   5.502   1.773   9.324  0.1636  0.5652 -0.4433
26384SOL    HW179730   5.595   1.783   9.303  0.4235  0.2267  0.5106
26384SOL    HW279731   5.469   1.863   9.332  0.6677  0.6903  0.2951
26385SOL     OW79732   9.104   9.269   5.610  0.1278  0.4528  0.2588
26385SOL    HW179733   9.069   9.244   5.696 -0.5398 -0.1630 -0.1837
26385SOL    HW279734   9.199   9.259   5.620 -0.0263 -1.0576  0.4950
26386SOL     OW79735   5.570   7.267   6.286 -0.1025 -0.2980 -0.0409
26386SOL    HW179736   5.600   7.176   6.293  0.1189 -0.2473 -0.3425
26386SOL    HW279737   5.649   7.320   6.300 -0.3521 -0.1362  0.8326
26387SOL     OW79738   1.210   2.135   2.520  0.0092  0.3004 -0.1695
26387SOL    HW179739   1.193   2.078   2.595 -2.1108  0.4085 -0.5018
26387SOL    HW279740   1.174   2.220   2.546  0.0359  0.5672 -0.9808
26388SOL     OW79741   4.585   3.241   7.337  0.0595  0.7405  0.3239
26388SOL    HW179742   4.599   3.192   7.418  0.6324  2.8657  1.5991
26388SOL    HW279743   4.498   3.281   7.347 -0.2513  0.3142 -0.5322
26389SOL     OW79744   0.904   7.793   7.452  0.4959 -0.4455 -0.0858
26389SOL    HW179745   0.928   7.786   7.544  1.3546  0.6950 -0.2076
26389SOL    HW279746   0.848   7.716   7.436  1.1555 -1.2042  1.1220
26390SOL     OW79747   8.643   3.111   6.218 -0.5369  0.2560 -0.3030
26390SOL    HW179748   8.711   3.062   6.264 -1.3523  1.6684  2.5966
26390SOL    HW279749   8.692   3.171   6.162  0.5205 -0.6994 -0.4555
26391SOL     OW79750   4.139   4.075   6.128 -0.1437  0.2405 -0.0855
26391SOL    HW179751   4.174   4.141   6.068 -1.0417 -0.3104 -1.2450
26391SOL    HW279752   4.211   4.057   6.189  0.9988  0.3656 -1.3615
26392SOL     OW79753   9.261   1.558   5.701  0.1251  0.1137 -0.1143
26392SOL    HW179754   9.297   1.506   5.630  1.2785  0.3919  0.2441
26392SOL    HW279755   9.332   1.562   5.766 -1.1142 -0.6907  1.3585
26393SOL     OW79756   2.119   0.727   8.296  0.1044  0.2672 -0.6596
26393SOL    HW179757   2.095   0.667   8.226 -0.9259  0.5962 -0.6085
26393SOL    HW279758   2.184   0.786   8.256 -0.8995  0.8191 -1.5201
26394SOL     OW79759   5.785   2.756   5.432 -0.1338  0.3765 -0.1946
26394SOL    HW179760   5.802   2.850   5.442  1.6217 -0.0004  0.7516
26394SOL    HW279761   5.862   2.714   5.469 -2.1561 -1.5077  2.1575
26395SOL     OW79762   0.646   0.488   2.784  0.0543  0.1511  0.1489
26395SOL    HW179763   0.673   0.497   2.693 -0.6362 -2.3489 -0.3785
26395SOL    HW279764   0.728   0.488   2.834  0.4364  1.4843 -0.4301
26396SOL     OW79765   0.830   4.264   8.128 -0.7789  0.1785  0.1877
26396SOL    HW179766   0.802   4.259   8.220 -0.4511  0.8556  0.3296
26396SOL    HW279767   0.769   4.208   8.081 -0.3420 -0.9867  0.9622
26397SOL     OW79768   3.140   2.832   3.395  0.2855  0.2019  0.2042
26397SOL    HW179769   3.203   2.862   3.461  0.3769  0.2098  0.1133
26397SOL    HW279770   3.063   2.888   3.409  1.2403  2.0620 -1.4156
26398SOL     OW79771   2.380   1.017   0.797  0.2314  0.3833 -0.3658
26398SOL    HW179772   2.440   1.049   0.730 -0.2828 -0.4167 -1.2247
26398SOL    HW279773   2.341   0.938   0.760 -0.2750  0.0766  0.7639
26399SOL     OW79774   6.135   7.535   2.270 -0.1989 -0.5040  0.3386
26399SOL    HW179775   6.167   7.445   2.278 -0.4488 -0.7015 -0.7299
26399SOL    HW279776   6.131   7.551   2.175 -2.3801 -0.1859  0.4211
26400SOL     OW79777   5.702   8.329   9.417 -0.1238 -0.2326 -0.1708
26400SOL    HW179778   5.634   8.384   9.455  0.3463  0.7695 -0.7446
26400SOL    HW279779   5.661   8.291   9.339 -0.3211 -0.3637 -0.0029
26401SOL     OW79780   5.535   7.647   6.646  0.2969  0.7638 -0.7210
26401SOL    HW179781   5.603   7.580   6.641 -0.6493 -0.2042 -1.0279
26401SOL    HW279782   5.484   7.635   6.566 -2.2787 -0.8145  1.0174
26402SOL     OW79783   9.093   7.042   3.755  0.4539 -0.1450 -0.0623
26402SOL    HW179784   9.044   6.966   3.724  1.2401 -1.2829  1.4112
26402SOL    HW279785   9.181   7.010   3.773  0.3993  0.7219  2.0707
26403SOL     OW79786   8.802   6.260   9.894  0.5095  0.3013  0.1166
26403SOL    HW179787   8.836   6.329   9.951 -0.5585  0.5583  0.4731
26403SOL    HW279788   8.778   6.190   9.955  0.6622  0.0136 -0.1540
26404SOL     OW79789   1.038   1.593   1.209  0.1390 -0.6705  0.0291
26404SOL    HW179790   1.117   1.550   1.177  0.6932 -0.2330  0.7443
26404SOL    HW279791   1.065   1.684   1.222 -0.5689 -0.4539 -0.0045
26405SOL     OW79792   1.395   6.524   2.630 -0.2416  0.2911  0.7062
26405SOL    HW179793   1.362   6.479   2.553  0.0519  0.2763  0.5855
26405SOL    HW279794   1.374   6.616   2.616 -2.0289  0.0424  1.5671
26406SOL     OW79795   5.875   1.724   0.149  0.7796 -0.2278  0.1408
26406SOL    HW179796   5.863   1.693   0.238 -0.2417  1.2872  0.5804
26406SOL    HW279797   5.870   1.820   0.156  1.1387 -0.0502 -1.4777
26407SOL     OW79798   0.874   5.512   7.577  0.3358  0.4635  0.0559
26407SOL    HW179799   0.904   5.439   7.631  1.5168 -1.2965 -2.7244
26407SOL    HW279800   0.789   5.483   7.543 -0.1854  1.3493  0.5712
26408SOL     OW79801   1.869   7.946   6.351 -0.3424  0.6912 -0.4756
26408SOL    HW179802   1.862   7.994   6.434 -0.1316 -0.3947  0.1938
26408SOL    HW279803   1.829   7.861   6.370  2.9275 -0.9710 -0.3664
26409SOL     OW79804   8.508   6.011   5.553 -0.0659  0.4892  0.2187
26409SOL    HW179805   8.485   6.034   5.643 -0.5787 -0.7930  0.4403
26409SOL    HW279806   8.446   6.060   5.500  0.6739  1.7797  0.5124
26410SOL     OW79807   9.881   3.958   7.198  0.1764  0.4679  0.0438
26410SOL    HW179808   9.947   3.890   7.211 -0.6279 -0.1272  1.2645
26410SOL    HW279809   9.884   4.010   7.278 -0.9083  0.3453  0.1809
26411SOL     OW79810   6.700   8.587   3.716 -0.0231  0.1546 -0.5108
26411SOL    HW179811   6.736   8.503   3.743 -0.2739  0.4157  0.6914
26411SOL    HW279812   6.619   8.565   3.670  0.8648 -0.3486 -1.9156
26412SOL     OW79813   1.107   0.326   7.409 -0.3238 -0.5102  0.4981
26412SOL    HW179814   1.029   0.311   7.463  1.4997 -0.8204  3.2260
26412SOL    HW279815   1.131   0.417   7.426  0.2700 -0.6008  0.1793
26413SOL     OW79816   7.879   2.880   1.816  0.2169  0.0046 -0.0979
26413SOL    HW179817   7.866   2.968   1.781 -1.6593  0.0307  0.5808
26413SOL    HW279818   7.810   2.827   1.776  1.8249 -1.4187 -1.1724
26414SOL     OW79819   0.727   7.741   3.375 -0.0577  0.1185  0.2128
26414SOL    HW179820   0.721   7.754   3.469 -1.4525  2.2520 -0.0803
26414SOL    HW279821   0.818   7.759   3.354 -0.2501  2.2554  0.9063
26415SOL     OW79822   2.423   0.556   5.797 -0.3690  0.6636  0.1423
26415SOL    HW179823   2.472   0.531   5.875  0.9672  1.2979 -0.4550
26415SOL    HW279824   2.481   0.618   5.752 -1.7642  1.4777 -0.5731
26416SOL     OW79825   8.929   1.149   9.203  0.1834 -0.4491 -0.5918
26416SOL    HW179826   9.012   1.159   9.157 -0.5310  2.0883 -1.4954
26416SOL    HW279827   8.932   1.215   9.272 -1.9416  1.3820 -2.1100
26417SOL     OW79828   1.718   8.254   6.487  0.5220  0.2639  0.1291
26417SOL    HW179829   1.762   8.170   6.496  0.8309  0.5100  0.9351
26417SOL    HW279830   1.756   8.310   6.555 -0.6768  0.6333  0.5314
26418SOL     OW79831   2.813   1.668   8.951  0.3938  0.0269  0.1951
26418SOL    HW179832   2.802   1.583   8.994  1.7160 -1.0754 -1.5152
26418SOL    HW279833   2.776   1.656   8.864  1.7425  0.7833 -0.5171
26419SOL     OW79834   7.066   6.283   9.700  0.0739  0.3928  0.6254
26419SOL    HW179835   7.002   6.228   9.746  0.1045  0.5110  0.8086
26419SOL    HW279836   7.073   6.361   9.754 -1.6604  1.5993 -0.7522
26420SOL     OW79837   6.737   9.228   0.502  0.6857  0.0990 -0.0655
26420SOL    HW179838   6.721   9.320   0.480  2.1368  0.3100 -0.3608
26420SOL    HW279839   6.780   9.193   0.424  0.5449 -0.7151  0.2194
26421SOL     OW79840   0.030   1.664   2.188 -0.0315 -0.5343  0.0279
26421SOL    HW179841   0.028   1.617   2.271  1.7640 -2.0494 -0.7114
26421SOL    HW279842   0.123   1.669   2.165 -0.3293  1.4683 -1.0265
26422SOL     OW79843   9.573   7.381   0.626  0.0461 -0.6245 -0.2110
26422SOL    HW179844   9.622   7.323   0.567 -0.1073 -0.3960 -0.5653
26422SOL    HW279845   9.514   7.322   0.673  1.1866 -1.0134  0.7797
26423SOL     OW79846   8.286   8.138   9.393 -0.8686 -0.3207 -0.1264
26423SOL    HW179847   8.192   8.123   9.387 -1.2990  1.4135  1.3475
26423SOL    HW279848   8.325   8.051   9.384 -2.5344 -0.9818 -1.5102
26424SOL     OW79849   7.615   3.979   2.312  0.4161 -0.8218 -0.4525
26424SOL    HW179850   7.636   3.920   2.385 -2.0798 -1.2968 -0.0413
26424SOL    HW279851   7.615   4.066   2.351 -1.2034 -1.1003  0.2367
26425SOL     OW79852   9.923   0.131   9.154  0.1317 -0.3551 -0.1983
26425SOL    HW179853   9.929   0.131   9.058  0.2713 -1.4377 -0.2021
26425SOL    HW279854   9.977   0.204   9.182 -2.4098  2.0203 -1.0563
26426SOL     OW79855   5.965   1.362   7.013 -0.4185 -0.3418 -0.1347
26426SOL    HW179856   5.984   1.288   7.070  0.5792  0.1272  0.1595
26426SOL    HW279857   6.049   1.404   6.999 -1.2172  2.0965  1.6036
26427SOL     OW79858   8.315   9.621   5.584 -0.1579 -0.4193  0.3139
26427SOL    HW179859   8.365   9.700   5.603  0.0936 -0.6704  0.7115
26427SOL    HW279860   8.227   9.652   5.564  0.1585  0.0320 -0.4354
26428SOL     OW79861   5.670   1.055   3.966  0.0179 -0.1757 -0.3595
26428SOL    HW179862   5.608   1.119   4.000 -0.1232 -0.4897 -0.0229
26428SOL    HW279863   5.690   1.086   3.877 -1.8719 -0.9459 -1.1151
26429SOL     OW79864   7.964   8.805   6.140  0.4468  0.0632  0.4629
26429SOL    HW179865   8.000   8.890   6.115 -1.4454  0.5885 -0.7555
26429SOL    HW279866   8.033   8.764   6.192  2.1768  1.5416 -0.5195
26430SOL     OW79867   1.088   9.818   2.179 -0.2592  0.2497  0.4351
26430SOL    HW179868   1.176   9.810   2.142 -0.6720 -1.1686 -0.3098
26430SOL    HW279869   1.082   9.909   2.208  1.4912  0.3389  0.6202
26431SOL     OW79870   1.746   9.158   9.406 -0.4416  0.5180 -0.2148
26431SOL    HW179871   1.691   9.104   9.349  0.3895  0.3042 -0.8259
26431SOL    HW279872   1.795   9.214   9.346  1.2961 -0.5020  0.1784
26432SOL     OW79873   7.602   2.116   4.185 -0.0333  0.0710  0.1270
26432SOL    HW179874   7.635   2.205   4.177  2.3050 -0.7464 -0.2385
26432SOL    HW279875   7.576   2.091   4.097  0.6204 -0.0580 -0.0329
26433SOL     OW79876   2.647   8.588   8.906 -0.0781  0.0091 -0.4625
26433SOL    HW179877   2.711   8.552   8.845 -1.6611 -2.7135 -0.6769
26433SOL    HW279878   2.575   8.619   8.851 -0.2277  0.3177 -0.1008
26434SOL     OW79879   8.935   0.546   5.227  0.4273  0.1908  0.2159
26434SOL    HW179880   8.888   0.470   5.192  0.1361 -0.0717  1.1520
26434SOL    HW279881   9.018   0.546   5.179  0.0298 -0.1331 -0.4978
26435SOL     OW79882   7.162   5.895   6.494  0.1909  0.4665 -1.1564
26435SOL    HW179883   7.167   5.947   6.574 -0.3736 -1.5303  0.2606
26435SOL    HW279884   7.217   5.818   6.512 -1.3787 -0.9034 -1.9330
26436SOL     OW79885   6.477   9.562   5.913 -0.4570 -0.0087 -0.2444
26436SOL    HW179886   6.427   9.513   5.978 -1.5183  1.3830  0.0258
26436SOL    HW279887   6.462   9.654   5.935 -0.9317  0.5212 -2.4936
26437SOL     OW79888   8.431   5.417   8.581 -0.4634  0.5655  0.0583
26437SOL    HW179889   8.385   5.399   8.499  0.6240 -0.9681 -0.2434
26437SOL    HW279890   8.479   5.337   8.601  1.8377  1.9653  0.5174
26438SOL     OW79891   5.415   4.130   4.410  0.3835 -0.6784  0.0983
26438SOL    HW179892   5.508   4.108   4.405  0.7901  0.2247  2.4598
26438SOL    HW279893   5.413   4.226   4.406 -0.6666 -0.7386 -1.9423
26439SOL     OW79894   1.114   4.171   4.048  0.2572 -0.2579  0.2357
26439SOL    HW179895   1.162   4.100   4.005  1.4685 -0.8070  2.3610
26439SOL    HW279896   1.130   4.158   4.141 -2.3644  0.7891  0.9257
26440SOL     OW79897   8.894   3.450   7.934  0.3864 -0.5859  0.0809
26440SOL    HW179898   8.947   3.479   8.008  2.4600 -0.2874 -1.4380
26440SOL    HW279899   8.852   3.530   7.902  1.1698 -0.3320 -0.3320
26441SOL     OW79900   1.108   4.780   3.661  0.3679  0.0253 -0.1317
26441SOL    HW179901   1.142   4.736   3.739 -0.4937 -0.1770  0.1419
26441SOL    HW279902   1.015   4.759   3.661  0.1710  0.8661 -0.6622
26442SOL     OW79903   2.711   9.153   8.296  0.3930  0.0461 -0.1613
26442SOL    HW179904   2.685   9.061   8.300  0.7080 -0.0069  1.3485
26442SOL    HW279905   2.638   9.197   8.252 -0.8913 -0.5758  1.2527
26443SOL     OW79906   0.672   9.935   5.225  0.2647  0.6662  0.0041
26443SOL    HW179907   0.627   9.860   5.262  1.3104  0.4277  0.8174
26443SOL    HW279908   0.612   9.968   5.157 -0.8904  0.0652  0.7144
26444SOL     OW79909   4.812   7.764   7.295 -0.0001  0.0847  0.5050
26444SOL    HW179910   4.770   7.804   7.371  0.9611  0.6578  0.7552
26444SOL    HW279911   4.899   7.739   7.326  1.2117  2.2411 -0.9150
26445SOL     OW79912   7.473   8.034   9.335  0.0240 -0.1830 -0.4052
26445SOL    HW179913   7.423   8.092   9.277 -1.7332 -1.2268  0.0021
26445SOL    HW279914   7.407   7.991   9.388  1.4571 -0.9477  0.8108
26446SOL     OW79915   3.377   0.210   4.812 -0.0507  0.1970 -0.1180
26446SOL    HW179916   3.463   0.206   4.855  0.0589 -1.0335 -0.4242
26446SOL    HW279917   3.387   0.279   4.746  1.0285 -0.5975 -0.8160
26447SOL     OW79918   9.650   2.528   4.034 -0.2223 -0.0979 -0.4672
26447SOL    HW179919   9.617   2.476   3.961 -1.4079  0.6034 -0.4603
26447SOL    HW279920   9.625   2.479   4.112 -1.0131  0.2705 -0.4739
26448SOL     OW79921   9.029   8.568   6.751  0.2089 -0.5075  0.1127
26448SOL    HW179922   9.037   8.646   6.807 -0.4117  0.2850 -0.8689
26448SOL    HW279923   8.938   8.540   6.763 -0.9804  1.5979 -2.8794
26449SOL     OW79924   1.723   8.945   8.899 -0.0269  0.0158  0.2234
26449SOL    HW179925   1.752   9.021   8.848 -1.9999 -0.1623 -1.3189
26449SOL    HW279926   1.777   8.873   8.867 -1.0574 -0.0411 -1.5506
26450SOL     OW79927   6.632   6.520   1.044 -0.1421  0.0782  0.2760
26450SOL    HW179928   6.700   6.576   1.082  0.0933 -0.9859  1.4838
26450SOL    HW279929   6.654   6.432   1.074 -2.2113 -0.2697  0.9142
26451SOL     OW79930   1.680   3.942   6.701  0.1703  0.6213 -0.0605
26451SOL    HW179931   1.704   3.867   6.756 -0.2080  0.7584  0.2944
26451SOL    HW279932   1.684   4.017   6.760 -0.5240  0.7312 -0.1522
26452SOL     OW79933   8.468   8.134   8.748  0.4556 -0.2595 -0.0757
26452SOL    HW179934   8.480   8.210   8.690  2.1974  0.3500  1.0119
26452SOL    HW279935   8.412   8.167   8.818 -0.7305 -0.6804 -0.8009
26453SOL     OW79936   7.362   4.271   1.046 -0.7641  0.9217 -0.1138
26453SOL    HW179937   7.423   4.297   0.977 -1.0404  1.4212 -0.1734
26453SOL    HW279938   7.305   4.207   1.003  1.3392 -1.6447  0.6404
26454SOL     OW79939   3.010   3.912   2.375  0.2847 -0.3543  0.0816
26454SOL    HW179940   3.042   3.824   2.391  1.1009  0.0561  0.7346
26454SOL    HW279941   3.040   3.933   2.287  0.5117 -0.5393  0.1159
26455SOL     OW79942   1.642   4.399   7.331  0.4037  0.2810 -0.0781
26455SOL    HW179943   1.649   4.322   7.275 -2.9546 -0.2385  0.0506
26455SOL    HW279944   1.593   4.463   7.279  1.6448  1.7403  0.4502
26456SOL     OW79945   7.924   8.744   1.214  0.3601  0.1895  0.1260
26456SOL    HW179946   7.987   8.813   1.192  1.1562 -0.7221 -0.5701
26456SOL    HW279947   7.849   8.790   1.250  0.8588  1.4155 -0.3566
26457SOL     OW79948   9.161   3.219   2.474  0.0184  0.0741  0.3741
26457SOL    HW179949   9.134   3.165   2.548 -0.2520  1.5217  1.3728
26457SOL    HW279950   9.098   3.291   2.473  1.1049  1.0485 -0.1322
26458SOL     OW79951   7.985   8.866   1.844  0.4280  0.1876 -0.5334
26458SOL    HW179952   7.895   8.840   1.862  1.3021 -1.1600  2.4666
26458SOL    HW279953   8.012   8.808   1.772 -0.4330 -0.9327  0.0126
26459SOL     OW79954   9.509   5.522   1.774  0.0979  0.2882  0.6349
26459SOL    HW179955   9.559   5.573   1.837 -0.1828 -0.5910  1.5907
26459SOL    HW279956   9.428   5.500   1.819  0.3059 -1.2022  0.3505
26460SOL     OW79957   7.983   4.951   9.459 -0.0054  0.1738  0.5201
26460SOL    HW179958   8.043   4.983   9.392  0.1867 -1.7975 -0.2941
26460SOL    HW279959   7.898   4.989   9.436  0.6650  2.1738  1.1148
26461SOL     OW79960   5.818   5.039   0.901  0.1266  0.1426  0.2352
26461SOL    HW179961   5.738   5.011   0.856  0.6310  0.9981 -1.2754
26461SOL    HW279962   5.789   5.066   0.988 -0.4785 -4.4243  1.7038
26462SOL     OW79963   9.875   4.566   1.552 -0.4911 -0.0985 -0.2506
26462SOL    HW179964   9.928   4.549   1.630 -1.5067 -0.5614  0.3528
26462SOL    HW279965   9.848   4.480   1.522 -0.2466  0.0904 -1.0247
26463SOL     OW79966   3.014   9.154   3.395  0.4682  0.0170 -0.0985
26463SOL    HW179967   2.980   9.067   3.415  0.0964  0.1675 -0.0555
26463SOL    HW279968   3.029   9.194   3.481  0.2868  0.1275 -0.1180
26464SOL     OW79969   1.117   4.218   8.291  0.2318  0.2521 -0.2520
26464SOL    HW179970   1.169   4.179   8.361  1.1509 -0.1804 -1.1391
26464SOL    HW279971   1.116   4.312   8.311  0.0865  0.0772  0.5833
26465SOL     OW79972   9.889   5.904   0.860 -0.4851 -0.0338  0.6219
26465SOL    HW179973   9.878   5.857   0.778  0.2503 -0.5875  0.8260
26465SOL    HW279974   9.846   5.988   0.845 -1.2181 -0.5022  0.0179
26466SOL     OW79975   0.929   5.811   7.862 -0.3892 -0.4217  0.0504
26466SOL    HW179976   0.839   5.840   7.843 -0.7989 -0.6893  1.5101
26466SOL    HW279977   0.922   5.762   7.944  1.3915  1.1812  1.2442
26467SOL     OW79978   2.898   6.663   3.773 -0.2896  0.3797  0.6618
26467SOL    HW179979   2.987   6.631   3.757  0.6884  2.6677  1.1782
26467SOL    HW279980   2.909   6.732   3.838 -2.5424  0.3407  1.1482
26468SOL     OW79981   3.034   2.398   5.397  0.1893  0.3890 -0.1211
26468SOL    HW179982   2.947   2.391   5.358 -1.0446  1.9270  2.1392
26468SOL    HW279983   3.050   2.312   5.434  0.7178 -0.6203 -2.4967
26469SOL     OW79984   6.944   2.732   8.131 -0.2833 -0.2473 -0.4092
26469SOL    HW179985   6.961   2.813   8.179  1.5439  0.0551 -1.4485
26469SOL    HW279986   6.915   2.761   8.045  0.7998 -0.6384 -0.9360
26470SOL     OW79987   7.406   5.050   2.820 -0.1103  0.1276  0.0976
26470SOL    HW179988   7.440   5.014   2.902  0.2097  1.3937  0.5460
26470SOL    HW279989   7.426   4.983   2.754 -0.1902 -0.8186  1.0059
26471SOL     OW79990   4.189   1.624   2.539 -0.3381 -0.7637 -0.4884
26471SOL    HW179991   4.250   1.563   2.497  0.4001 -0.1093 -0.3969
26471SOL    HW279992   4.183   1.593   2.629 -1.3599 -1.7420 -0.8724
26472SOL     OW79993   2.334   0.625   7.998  0.3005  0.1180 -0.0818
26472SOL    HW179994   2.356   0.606   8.089  2.3784  3.4102  0.2493
26472SOL    HW279995   2.238   0.628   7.998  0.1555 -2.0426  1.4488
26473SOL     OW79996   9.010   7.567   1.603 -0.1758  0.2712 -0.0683
26473SOL    HW179997   9.009   7.617   1.685 -0.2504 -0.0740  0.1443
26473SOL    HW279998   8.936   7.507   1.611 -1.2836  1.4258 -1.1446
26474SOL     OW79999   5.697   0.598   3.147  0.1009  0.0045 -0.1750
26474SOL    HW180000   5.726   0.614   3.057 -0.9732  1.1309 -0.3479
26474SOL    HW280001   5.678   0.504   3.150  1.0543 -0.2187 -0.8412
26475SOL     OW80002   6.671   7.514   5.481 -0.1826 -0.0226 -0.6367
26475SOL    HW180003   6.695   7.551   5.396  0.4366  2.2955  0.4567
26475SOL    HW280004   6.679   7.588   5.542  1.1900 -1.9917  1.7634
26476SOL     OW80005   6.083   8.746   0.919 -0.2003 -0.0490 -0.0173
26476SOL    HW180006   6.025   8.774   0.848 -0.2951 -1.7324 -0.6588
26476SOL    HW280007   6.025   8.710   0.985 -0.0507  0.7231  0.5440
26477SOL     OW80008   5.404   1.961   3.013 -0.0072 -0.0144 -0.3893
26477SOL    HW180009   5.421   2.022   2.941  1.0818 -1.3086 -1.2725
26477SOL    HW280010   5.342   1.897   2.977 -0.5651  0.1264  0.2920
26478SOL     OW80011   6.209   2.491   7.055  0.5560  0.0324 -0.1749
26478SOL    HW180012   6.114   2.484   7.052  0.5890 -0.1577 -1.4981
26478SOL    HW280013   6.236   2.424   7.118 -0.2457  1.0373  1.2797
26479SOL     OW80014   3.536   0.612   2.725  0.2501  0.0824  0.7835
26479SOL    HW180015   3.473   0.579   2.661  0.8864 -1.6785  1.0197
26479SOL    HW280016   3.617   0.622   2.676  0.7199 -1.2006  1.2629
26480SOL     OW80017   4.740   3.721   7.154  0.2549  0.1002 -0.4002
26480SOL    HW180018   4.686   3.645   7.175  2.1367 -0.5917  2.5840
26480SOL    HW280019   4.803   3.690   7.090  1.0855 -0.9590  0.8836
26481SOL     OW80020   2.414   4.356   4.476  0.1198 -0.1550 -0.5481
26481SOL    HW180021   2.442   4.413   4.547 -1.2061 -0.9898  0.6915
26481SOL    HW280022   2.493   4.311   4.448  0.7640  0.6483 -0.0439
26482SOL     OW80023   2.349   6.891   1.270  0.9563 -0.0029 -0.2211
26482SOL    HW180024   2.315   6.970   1.229  0.0215  0.4935  1.4401
26482SOL    HW280025   2.350   6.826   1.199  0.4605  1.1014 -1.2812
26483SOL     OW80026   7.452   7.945   3.515  0.8600 -0.7033  0.4075
26483SOL    HW180027   7.409   7.935   3.600  0.7514 -1.7816  0.2338
26483SOL    HW280028   7.545   7.938   3.534  0.9487  0.7914  0.6636
26484SOL     OW80029   8.125   5.253   0.626  0.4975 -0.1137  1.0862
26484SOL    HW180030   8.148   5.169   0.586 -1.3433 -0.0711 -0.2130
26484SOL    HW280031   8.067   5.295   0.562 -0.1474  1.3071  2.5275
26485SOL     OW80032   9.522   8.365   2.120 -0.3023  0.0909  0.4077
26485SOL    HW180033   9.554   8.295   2.177 -2.4699 -1.2409  0.0852
26485SOL    HW280034   9.559   8.344   2.034 -1.2994 -0.9848  0.2097
26486SOL     OW80035   0.067   8.749   4.768 -0.2806 -0.2994  0.5365
26486SOL    HW180036   0.079   8.699   4.687 -1.0608 -1.9651  1.4216
26486SOL    HW280037  -0.026   8.771   4.769  0.2439  2.3850 -0.4702
26487SOL     OW80038   8.201   2.152   7.391  0.0177  0.0413 -0.0282
26487SOL    HW180039   8.209   2.241   7.426 -0.2551  0.5621 -1.2322
26487SOL    HW280040   8.247   2.156   7.307 -0.8487 -0.6854 -0.5491
26488SOL     OW80041   3.042   0.739   5.138 -0.5431 -0.2054 -0.0413
26488SOL    HW180042   3.065   0.812   5.195 -1.3229  0.8245 -1.0034
26488SOL    HW280043   3.118   0.681   5.141  0.1236  0.6841  0.6746
26489SOL     OW80044   4.699   1.412   2.322 -0.3101  0.6187  0.1651
26489SOL    HW180045   4.763   1.468   2.367 -0.0293 -0.5923  1.3585
26489SOL    HW280046   4.657   1.470   2.259  0.9660  1.8099  0.3399
26490SOL     OW80047   4.622   0.480   2.617 -0.2308  0.1465 -0.1882
26490SOL    HW180048   4.596   0.420   2.547 -0.5834 -0.8892  0.7828
26490SOL    HW280049   4.623   0.566   2.576 -3.1904 -0.0048 -0.8280
26491SOL     OW80050   8.662   8.301   6.572 -0.4176 -0.0208  0.2156
26491SOL    HW180051   8.633   8.346   6.652  0.6563 -0.2714  0.7647
26491SOL    HW280052   8.581   8.276   6.528 -1.0453  1.4148  0.4826
26492SOL     OW80053   4.651   8.322   2.945 -0.2668 -0.1073  0.0116
26492SOL    HW180054   4.690   8.235   2.956  1.0174  0.5788  1.4188
26492SOL    HW280055   4.593   8.314   2.870 -0.7032 -2.3495  0.5222
26493SOL     OW80056   0.476   8.967   7.377  0.3402 -0.1676  0.2946
26493SOL    HW180057   0.387   8.935   7.366 -0.0192  0.3126  1.6155
26493SOL    HW280058   0.531   8.898   7.342 -0.5180 -0.8357  0.2300
26494SOL     OW80059   4.350   8.732   3.488 -0.4086 -0.3556  0.1755
26494SOL    HW180060   4.358   8.662   3.553  0.4713 -1.3895 -1.0055
26494SOL    HW280061   4.431   8.728   3.437 -1.2181  0.1717 -1.2211
26495SOL     OW80062   5.209   1.813   3.606 -0.1884  0.2515 -0.2350
26495SOL    HW180063   5.199   1.861   3.688  0.3669 -0.0002 -0.0159
26495SOL    HW280064   5.126   1.767   3.594  0.6856 -1.9834  1.6581
26496SOL     OW80065   5.394   7.884   9.114 -0.0077 -0.1894 -0.3718
26496SOL    HW180066   5.396   7.855   9.023  0.8604 -1.9984  0.1622
26496SOL    HW280067   5.446   7.965   9.114  0.3115 -0.3714 -1.4244
26497SOL     OW80068   1.699   1.185   6.943 -0.2873  0.2112  0.2252
26497SOL    HW180069   1.666   1.184   6.853  1.7336  1.6258 -0.5965
26497SOL    HW280070   1.728   1.095   6.959 -0.5786 -0.0313 -0.5689
26498SOL     OW80071   6.422   4.500   9.852 -0.3935  0.2410 -0.5239
26498SOL    HW180072   6.354   4.440   9.883  0.0995 -0.2500 -0.4011
26498SOL    HW280073   6.496   4.444   9.829 -0.4255  0.6676 -1.7354
26499SOL     OW80074   9.339   4.712   1.459 -0.3744  0.1455  0.0930
26499SOL    HW180075   9.246   4.698   1.443 -0.3309  0.2552 -0.2622
26499SOL    HW280076   9.347   4.805   1.481 -0.3446  0.1400  0.1069
26500SOL     OW80077   2.620   3.754   4.373 -0.0562  0.3976 -0.0402
26500SOL    HW180078   2.675   3.791   4.443 -2.2973  0.2701  1.9352
26500SOL    HW280079   2.578   3.829   4.332  0.4975  0.4137 -0.5827
26501SOL     OW80080   6.017   6.669   4.221  0.0868 -0.8823 -0.3659
26501SOL    HW180081   6.066   6.704   4.146 -4.1216 -1.2974 -3.7029
26501SOL    HW280082   6.013   6.575   4.204  0.1582 -1.1800  1.1933
26502SOL     OW80083   7.381   3.296   9.654 -0.1362 -0.0990 -0.1463
26502SOL    HW180084   7.405   3.304   9.561  0.0317  1.3216 -0.0016
26502SOL    HW280085   7.372   3.202   9.668 -2.0613 -0.2849 -2.0727
26503SOL     OW80086   0.767   3.590   1.199  0.5324  0.1597 -0.0350
26503SOL    HW180087   0.677   3.621   1.203  0.7412  0.7123  0.5304
26503SOL    HW280088   0.765   3.503   1.238  0.0221 -0.3811 -1.2119
26504SOL     OW80089   3.705   1.194   6.054 -0.1338  0.4564 -0.7329
26504SOL    HW180090   3.627   1.144   6.077  0.9938 -0.7568  0.6274
26504SOL    HW280091   3.762   1.131   6.011  0.4695  1.1046 -0.8948
26505SOL     OW80092   0.218   3.846   3.187 -0.1250  1.0530 -0.4806
26505SOL    HW180093   0.208   3.789   3.263 -0.5692  1.5941 -0.1264
26505SOL    HW280094   0.313   3.850   3.172 -0.1061 -0.0613 -0.7363
26506SOL     OW80095   9.921   5.277   4.451  0.2852  0.2888  0.1575
26506SOL    HW180096   9.962   5.269   4.537 -0.2865 -0.1430  0.3959
26506SOL    HW280097   9.964   5.211   4.397  1.7730  1.6158 -0.3580
26507SOL     OW80098   7.205   4.517   1.096  0.0126  0.6901 -0.6106
26507SOL    HW180099   7.115   4.513   1.065  0.2987  0.2476 -1.4050
26507SOL    HW280100   7.238   4.428   1.086  0.9900  1.1413 -1.7262
26508SOL     OW80101   9.892   8.999   6.546 -0.4636  0.2055 -0.7129
26508SOL    HW180102   9.860   8.936   6.482  0.9369 -1.9094  0.5537
26508SOL    HW280103   9.884   8.953   6.630  0.4153  1.8019  0.2897
26509SOL     OW80104   0.791   5.375   0.948 -0.1023  0.4625 -0.1583
26509SOL    HW180105   0.775   5.412   0.861  1.9458  2.3112  0.1549
26509SOL    HW280106   0.732   5.423   1.006 -0.0726  0.6343 -0.2688
26510SOL     OW80107   9.981   0.638   9.544 -0.0573 -0.2718 -0.0009
26510SOL    HW180108   9.888   0.643   9.521 -0.2436 -1.7790  0.3648
26510SOL    HW280109  10.027   0.661   9.463 -0.7299  0.2019 -0.2604
26511SOL     OW80110   0.116   1.848   6.439  0.1142 -0.1534 -0.2011
26511SOL    HW180111   0.081   1.863   6.351 -1.2307  0.1105  0.3539
26511SOL    HW280112   0.160   1.930   6.462  0.0922 -0.0672 -0.4665
26512SOL     OW80113   3.100   9.145   0.518 -0.5944 -0.0225 -0.5424
26512SOL    HW180114   3.051   9.227   0.525 -1.9164 -0.8368  0.2644
26512SOL    HW280115   3.130   9.127   0.607  0.7827  0.2109 -0.9424
26513SOL     OW80116   2.663   4.038   1.112  0.3233 -0.0305  0.7798
26513SOL    HW180117   2.628   4.065   1.027 -1.4213  0.8242  1.7294
26513SOL    HW280118   2.729   3.972   1.090 -0.6915 -0.4804 -1.1959
26514SOL     OW80119   2.148   8.485   8.831 -0.1661  0.0018 -0.0956
26514SOL    HW180120   2.163   8.552   8.764  1.2577  0.8497  1.0299
26514SOL    HW280121   2.232   8.440   8.840 -0.2361  0.1165  1.3517
26515SOL     OW80122   3.264   4.940   6.647  0.3243 -0.4510 -0.0026
26515SOL    HW180123   3.181   4.926   6.601  0.5192  1.6794 -1.1054
26515SOL    HW280124   3.237   4.961   6.737 -0.2980 -0.5087 -0.1679
26516SOL     OW80125   6.789   6.221   4.279  0.4427 -0.2649  0.1155
26516SOL    HW180126   6.832   6.306   4.282  0.8463 -0.4190 -0.7656
26516SOL    HW280127   6.852   6.160   4.317 -0.0769 -0.0921  1.2786
26517SOL     OW80128   1.383   7.343   0.997 -0.0606  0.2799  0.5620
26517SOL    HW180129   1.468   7.385   1.008 -0.5847  1.2295  1.1735
26517SOL    HW280130   1.377   7.281   1.069 -0.2030  0.7859  0.9931
26518SOL     OW80131   4.704   0.489   6.638 -0.0785  1.0374  0.1159
26518SOL    HW180132   4.615   0.456   6.647  0.5087 -0.5290  0.4635
26518SOL    HW280133   4.728   0.471   6.548  0.6368 -0.5931  0.6000
26519SOL     OW80134   9.848   2.124   9.093 -1.0670  0.0597 -0.3630
26519SOL    HW180135   9.930   2.168   9.070 -0.3039 -0.1778  1.7310
26519SOL    HW280136   9.780   2.183   9.062 -0.1008  0.8351 -1.0726
26520SOL     OW80137   1.287   4.994   0.863 -0.0219  0.1985 -0.1611
26520SOL    HW180138   1.278   4.993   0.768 -1.5450 -0.3647 -0.0361
26520SOL    HW280139   1.221   4.932   0.895  1.9645 -1.3749  1.1774
26521SOL     OW80140   7.130   6.948   6.959 -0.3896 -0.5841  0.0629
26521SOL    HW180141   7.130   6.877   7.023  1.1432  0.2943  1.1088
26521SOL    HW280142   7.129   6.904   6.874  0.1287 -1.8499  0.6836
26522SOL     OW80143   8.298   3.902   3.888 -0.1894 -0.5699  0.4749
26522SOL    HW180144   8.282   3.931   3.977 -0.7121 -0.2440  0.2806
26522SOL    HW280145   8.393   3.898   3.880 -0.1085  0.7595  0.6158
26523SOL     OW80146   3.194   7.471   0.697  0.3586 -0.1622 -0.7744
26523SOL    HW180147   3.117   7.526   0.712 -0.3778 -0.6316 -2.5788
26523SOL    HW280148   3.195   7.411   0.771 -2.6234 -1.8998 -1.9673
26524SOL     OW80149   3.362   7.376   6.796 -0.0416 -0.1256  0.4636
26524SOL    HW180150   3.273   7.400   6.823 -0.4715 -0.0515 -0.9230
26524SOL    HW280151   3.357   7.282   6.778 -0.4223  0.2327 -1.5892
26525SOL     OW80152   1.280   6.900   6.435 -0.3396  0.8389 -0.0831
26525SOL    HW180153   1.264   6.910   6.529 -0.1753  0.5076 -0.0173
26525SOL    HW280154   1.369   6.863   6.431 -0.3405  0.8720 -0.3685
26526SOL     OW80155   0.573   2.202   0.443 -0.3130  0.1966  0.4981
26526SOL    HW180156   0.620   2.132   0.490 -1.4591  0.0321  1.4408
26526SOL    HW280157   0.631   2.278   0.451 -0.2406  0.0370  1.7730
26527SOL     OW80158   9.265   9.299   0.942  0.2242  0.3868 -0.8182
26527SOL    HW180159   9.345   9.252   0.965  0.2532  0.5828 -0.5081
26527SOL    HW280160   9.195   9.249   0.985  0.3082  0.9289 -0.0308
26528SOL     OW80161   0.539   2.432   8.781  0.3219  0.2024 -0.0406
26528SOL    HW180162   0.480   2.505   8.762  0.5093  0.4571  0.3661
26528SOL    HW280163   0.505   2.360   8.727 -0.4409  0.3097  0.2872
26529SOL     OW80164   9.831   4.851   1.554  0.1288  0.3726 -0.0232
26529SOL    HW180165   9.800   4.798   1.481  0.1838  0.1931  0.0829
26529SOL    HW280166   9.873   4.788   1.613  1.8916  0.7757 -0.7888
26530SOL     OW80167   4.455   0.036   8.142  0.3835 -0.4765 -0.0396
26530SOL    HW180168   4.533   0.054   8.195  0.5264 -1.9612  0.3267
26530SOL    HW280169   4.382   0.065   8.196  0.5873 -1.0346  0.5520
26531SOL     OW80170   2.820   2.263   3.784 -0.0892  0.6934  0.5577
26531SOL    HW180171   2.801   2.271   3.877 -0.7498  0.8320  0.4096
26531SOL    HW280172   2.749   2.308   3.740 -0.5652 -0.6126 -0.0672
26532SOL     OW80173   0.539   3.770   7.397 -0.1862 -0.0653  0.7809
26532SOL    HW180174   0.458   3.811   7.428 -0.7221 -0.9328  0.5905
26532SOL    HW280175   0.609   3.825   7.431 -0.8063 -0.1641  2.3215
26533SOL     OW80176   8.051   1.012   0.996  0.5115 -0.4121  0.6343
26533SOL    HW180177   8.075   1.098   0.962 -0.9599 -0.3785 -0.3811
26533SOL    HW280178   8.114   0.952   0.955  0.7339  0.0132  0.3440
26534SOL     OW80179   1.792   1.195   0.893  0.3635  0.3096  0.4530
26534SOL    HW180180   1.876   1.171   0.934  0.1622  0.6775  1.0802
26534SOL    HW280181   1.757   1.112   0.860  1.2804  0.2388 -0.4070
26535SOL     OW80182   0.750   4.130   4.710  0.4974 -0.0589 -0.5231
26535SOL    HW180183   0.797   4.134   4.626 -0.4949 -0.4407 -1.1187
26535SOL    HW280184   0.666   4.092   4.687 -0.3910  1.2829  0.3978
26536SOL     OW80185   7.900   1.155   7.771  0.3868 -0.3188  0.0330
26536SOL    HW180186   7.956   1.097   7.821 -0.8338  0.4679  2.4808
26536SOL    HW280187   7.895   1.116   7.684 -0.5016 -3.9871  1.5688
26537SOL     OW80188   9.548   8.078   4.751  0.1125  0.3715  0.5111
26537SOL    HW180189   9.566   8.109   4.840  1.2439  2.3583 -0.3175
26537SOL    HW280190   9.591   8.143   4.695 -1.6220 -0.1233 -1.5179
26538SOL     OW80191   2.015   6.506   4.873 -0.3963  0.5907 -0.3137
26538SOL    HW180192   2.109   6.497   4.887 -0.5944  0.5498  1.1567
26538SOL    HW280193   2.007   6.568   4.800  0.7577  0.0185 -0.9599
26539SOL     OW80194   8.191   0.031   4.135 -0.1426 -0.3567 -0.0142
26539SOL    HW180195   8.109   0.049   4.180  0.0935  0.2832  0.1747
26539SOL    HW280196   8.165  -0.017   4.056 -0.6091 -0.9662  0.5014
26540SOL     OW80197   4.231   7.192   7.931 -0.7456 -0.1351  0.6982
26540SOL    HW180198   4.219   7.146   7.848 -0.8023  0.4666  0.3695
26540SOL    HW280199   4.290   7.136   7.981  1.3865  0.7028 -0.7331
26541SOL     OW80200   7.602   7.197   3.507 -0.0545  0.6439  0.3479
26541SOL    HW180201   7.628   7.250   3.583 -0.2628 -0.0897  0.9436
26541SOL    HW280202   7.506   7.200   3.508 -0.1698 -1.4459  1.6677
26542SOL     OW80203   2.982   4.282   0.819 -0.4011  0.1271  0.3727
26542SOL    HW180204   3.039   4.334   0.875 -2.2071  0.7513  1.7433
26542SOL    HW280205   2.971   4.199   0.865 -0.7318  0.0768  0.2064
26543SOL     OW80206   7.307   3.925   5.847 -0.5077 -0.2556 -0.2855
26543SOL    HW180207   7.230   3.959   5.801 -1.7003 -1.9131  0.3849
26543SOL    HW280208   7.277   3.910   5.937  1.3779  1.5952  0.7366
26544SOL     OW80209   3.625   5.970   8.468 -0.1738  0.8399  0.7064
26544SOL    HW180210   3.694   6.020   8.425 -0.2283 -0.0649 -0.4865
26544SOL    HW280211   3.604   5.900   8.406  2.8382 -3.4031  3.8972
26545SOL     OW80212   2.027   0.796   9.131  0.4981 -0.0360  0.0677
26545SOL    HW180213   2.014   0.787   9.037  1.6133  0.2308 -0.1245
26545SOL    HW280214   1.955   0.746   9.170  0.2881 -0.5272 -0.9226
26546SOL     OW80215   4.777   9.266   5.906  0.2137  0.1685 -0.8793
26546SOL    HW180216   4.689   9.247   5.937  0.6277 -3.2579 -1.4892
26546SOL    HW280217   4.835   9.231   5.974  1.1698  1.8710 -0.7541
26547SOL     OW80218   7.001   3.235   5.492 -0.1634 -0.1956  0.6219
26547SOL    HW180219   7.080   3.288   5.490 -0.5554  0.4316 -1.8002
26547SOL    HW280220   7.008   3.178   5.415 -1.4271 -1.0963  1.1319
26548SOL     OW80221   1.927   0.357   6.130  0.2981 -0.0419 -0.9670
26548SOL    HW180222   1.927   0.261   6.130 -0.2042 -0.0567  0.2009
26548SOL    HW280223   1.885   0.381   6.047  0.0538 -0.8370 -1.0813
26549SOL     OW80224   3.439   4.506   1.400 -0.2920 -0.2612 -0.2243
26549SOL    HW180225   3.427   4.496   1.306  2.2521 -1.0166 -0.5563
26549SOL    HW280226   3.470   4.596   1.412 -1.3360  0.0760 -0.0028
26550SOL     OW80227   6.432   0.389   4.219 -0.3259  0.3912 -0.2076
26550SOL    HW180228   6.450   0.483   4.228  0.5151  0.1535  0.8738
26550SOL    HW280229   6.450   0.370   4.127  0.9892  1.0237 -0.1096
26551SOL     OW80230   0.963   4.282   2.722 -0.3273 -0.8690  0.6318
26551SOL    HW180231   1.011   4.236   2.653 -0.2791  0.6012 -0.3660
26551SOL    HW280232   0.894   4.220   2.748  0.9925 -2.3083  0.8541
26552SOL     OW80233   2.826   0.567   1.614 -0.5019 -0.5241 -0.0757
26552SOL    HW180234   2.883   0.539   1.686 -0.3841  0.1831  0.1125
26552SOL    HW280235   2.882   0.560   1.536 -0.2814 -0.2339  0.0525
26553SOL     OW80236   1.375   8.798   1.770 -0.6830  0.8626 -0.4411
26553SOL    HW180237   1.329   8.838   1.696 -0.3503  0.9963 -0.5798
26553SOL    HW280238   1.412   8.872   1.817 -0.9549  0.7810 -0.0972
26554SOL     OW80239   3.990   1.218   5.531 -0.2560  0.1944 -0.2956
26554SOL    HW180240   3.910   1.232   5.582  0.2151  0.3745  0.3972
26554SOL    HW280241   4.009   1.124   5.542 -0.6166  0.0551 -0.8286
26555SOL     OW80242   4.676   6.894   9.290  0.1983 -0.1846 -0.4865
26555SOL    HW180243   4.625   6.814   9.283  0.7777 -0.4867 -1.5703
26555SOL    HW280244   4.622   6.953   9.342  0.3126 -1.7104  1.4877
26556SOL     OW80245   7.826   3.697   7.547  0.7212 -0.2546  0.3882
26556SOL    HW180246   7.796   3.781   7.580  1.4484 -0.5810  2.0003
26556SOL    HW280247   7.827   3.640   7.624 -0.9644 -2.1199 -0.8841
26557SOL     OW80248   1.111   6.178   5.742  0.5710  0.0064  0.0105
26557SOL    HW180249   1.136   6.127   5.665 -0.0209  0.4965 -0.5266
26557SOL    HW280250   1.062   6.252   5.706 -0.5294 -0.2485  0.9219
26558SOL     OW80251   3.105   8.519   7.201  0.3375  0.3976 -0.3153
26558SOL    HW180252   3.041   8.499   7.269  2.9094 -0.9900  1.9163
26558SOL    HW280253   3.114   8.436   7.152 -0.1061  0.8206 -1.1338
26559SOL     OW80254   1.715   9.557   6.229 -0.2042 -0.1485  0.0716
26559SOL    HW180255   1.652   9.536   6.159 -0.1987 -0.8780  0.2823
26559SOL    HW280256   1.779   9.487   6.226 -0.6907 -0.6794  1.3912
26560SOL     OW80257   1.452   3.240   3.846  0.3875  0.0907 -0.0321
26560SOL    HW180258   1.438   3.334   3.828  0.9087  0.0725 -0.5727
26560SOL    HW280259   1.531   3.237   3.900 -0.0636  0.0067  0.6362
26561SOL     OW80260   8.690   5.695   3.957  0.3069 -0.0337 -0.7287
26561SOL    HW180261   8.648   5.614   3.930  0.0696 -0.7818  1.7274
26561SOL    HW280262   8.620   5.760   3.954 -0.6459 -0.8813  1.5219
26562SOL     OW80263   5.169   8.610   8.093  0.1899  0.1027  0.6004
26562SOL    HW180264   5.128   8.551   8.029  1.0263 -2.8446  2.5684
26562SOL    HW280265   5.095   8.653   8.136 -0.5189 -0.3510 -0.1245
26563SOL     OW80266   1.676   7.654   9.950 -0.6908 -0.1943 -0.1287
26563SOL    HW180267   1.681   7.635  10.044  1.2237 -0.9497 -0.3456
26563SOL    HW280268   1.612   7.590   9.917  0.3719 -1.5480  0.3102
26564SOL     OW80269   0.600   9.653   9.283 -0.0453 -0.4770 -0.1648
26564SOL    HW180270   0.696   9.649   9.285  0.0001  0.4546  1.0425
26564SOL    HW280271   0.576   9.620   9.197  1.3752 -0.5650 -0.5493
26565SOL     OW80272   8.759   6.971   0.631 -0.0499 -0.0119  0.1842
26565SOL    HW180273   8.671   6.962   0.595 -0.1749  1.5144  0.0328
26565SOL    HW280274   8.802   7.036   0.575  0.7119  0.2783  1.0616
26566SOL     OW80275   0.338   5.207   5.700  0.2031 -0.1509  0.4374
26566SOL    HW180276   0.359   5.261   5.623  2.8736 -0.9256  0.5478
26566SOL    HW280277   0.393   5.242   5.770 -1.4613 -0.1102  1.7906
26567SOL     OW80278   3.274   7.148   8.447 -0.2918 -0.2154  0.0636
26567SOL    HW180279   3.286   7.191   8.532 -0.2560 -1.1741  0.5653
26567SOL    HW280280   3.321   7.204   8.385 -0.5460  0.6421  0.6255
26568SOL     OW80281   2.418   1.808   4.441 -0.0393  0.6572  0.7260
26568SOL    HW180282   2.352   1.741   4.458 -0.1361  0.6600  0.3690
26568SOL    HW280283   2.377   1.890   4.468 -0.5431  0.7828 -0.3578
26569SOL     OW80284   1.249   0.897   8.222 -0.2455 -0.1912 -0.4515
26569SOL    HW180285   1.177   0.864   8.276 -0.2745  0.5529 -0.0177
26569SOL    HW280286   1.215   0.895   8.132 -0.0085 -1.9422 -0.5313
26570SOL     OW80287   9.177   2.282   1.338 -0.1451  0.0876  0.5362
26570SOL    HW180288   9.219   2.365   1.315  0.2034  0.0828  1.1303
26570SOL    HW280289   9.111   2.269   1.271  0.3598  0.4292 -0.0352
26571SOL     OW80290   2.627   5.826   4.232 -0.4038 -0.9013  0.5509
26571SOL    HW180291   2.535   5.797   4.239 -0.5508 -1.3395 -2.2551
26571SOL    HW280292   2.678   5.746   4.243 -0.5433 -1.2474 -1.1038
26572SOL     OW80293   0.418   6.427   3.312 -1.1185 -0.3399 -0.7346
26572SOL    HW180294   0.440   6.336   3.292  1.1483  0.0306 -0.2028
26572SOL    HW280295   0.476   6.450   3.385 -2.5130  1.1824 -0.0329
26573SOL     OW80296   5.974   4.066   6.228  0.1972  0.5401  0.8094
26573SOL    HW180297   6.040   4.052   6.297  1.4358  1.5999 -0.1091
26573SOL    HW280298   5.935   4.151   6.250  0.0127  0.4969  0.6470
26574SOL     OW80299   5.590   9.513   0.053 -0.2661  0.1242  0.0218
26574SOL    HW180300   5.580   9.427   0.094 -1.6400  0.5519  0.6646
26574SOL    HW280301   5.506   9.557   0.070 -0.0730  1.1144 -1.4302
26575SOL     OW80302   5.979   6.577   1.846  0.4212  0.2675  0.1995
26575SOL    HW180303   5.972   6.637   1.772  2.5652 -0.9428 -1.0918
26575SOL    HW280304   6.049   6.613   1.899  0.8574 -0.4082  0.0883
26576SOL     OW80305   1.303   4.992   5.496  0.1899  0.3217  0.0651
26576SOL    HW180306   1.336   4.905   5.477  2.5376  1.2756 -0.6016
26576SOL    HW280307   1.210   4.979   5.513  0.0971 -2.0757 -1.7312
26577SOL     OW80308   1.248   2.268   9.963  0.1144  0.4565  0.0627
26577SOL    HW180309   1.215   2.329   9.897  0.0335 -1.2515 -1.5414
26577SOL    HW280310   1.171   2.218   9.990  0.5263 -0.3296 -0.1939
26578SOL     OW80311   4.767   7.023   8.622 -0.6925 -0.3103 -0.3038
26578SOL    HW180312   4.770   7.018   8.718  0.9954 -2.2718 -0.4049
26578SOL    HW280313   4.785   7.115   8.602  0.6888 -0.2035  1.2366
26579SOL     OW80314   4.164   7.169   8.474  0.0507  0.0812  0.4968
26579SOL    HW180315   4.172   7.107   8.401 -0.3695 -0.1099  0.6129
26579SOL    HW280316   4.159   7.114   8.552 -0.5414  0.2498  0.5833
26580SOL     OW80317   4.835   6.844   7.094 -0.3798  0.7242  0.2254
26580SOL    HW180318   4.764   6.891   7.052 -1.6897 -1.3793 -0.0402
26580SOL    HW280319   4.910   6.855   7.035 -0.4971  2.7376  0.3862
26581SOL     OW80320   8.339   4.006   6.188  0.1208  0.0901 -0.5726
26581SOL    HW180321   8.404   3.945   6.152 -1.5625 -0.1723 -3.5476
26581SOL    HW280322   8.285   4.029   6.112 -2.6894  0.9930  1.5515
26582SOL     OW80323   7.534   3.801   0.757 -0.4425 -0.3336 -0.3491
26582SOL    HW180324   7.624   3.799   0.790 -0.2909 -1.8398 -0.7907
26582SOL    HW280325   7.535   3.744   0.680 -0.9034  2.6756 -2.7563
26583SOL     OW80326   2.166   6.678   5.180 -0.4285 -0.2840  0.1841
26583SOL    HW180327   2.125   6.738   5.118  0.5761  0.1049 -0.1297
26583SOL    HW280328   2.260   6.685   5.161 -0.1681 -0.7006  1.2743
26584SOL     OW80329   6.704   2.465   4.203 -0.0266 -0.3018 -0.0006
26584SOL    HW180330   6.675   2.546   4.162  2.0049  0.7306  0.4423
26584SOL    HW280331   6.759   2.423   4.137 -0.4408 -0.9425  0.0530
26585SOL     OW80332   3.971   9.635   1.850  0.2929 -0.5466 -0.6233
26585SOL    HW180333   3.979   9.571   1.920  1.3698  0.1100 -0.1292
26585SOL    HW280334   3.933   9.585   1.777 -1.6532 -1.0329  0.6536
26586SOL     OW80335   0.330   2.521   5.265 -0.0297  0.2630 -0.0688
26586SOL    HW180336   0.301   2.430   5.271  0.0992  0.1358 -1.1637
26586SOL    HW280337   0.253   2.568   5.235  0.3775  0.2160 -1.2304
26587SOL     OW80338   7.564   9.448   8.328 -0.0283  0.0394 -0.1658
26587SOL    HW180339   7.638   9.401   8.291 -2.1149 -0.3695 -4.3504
26587SOL    HW280340   7.556   9.527   8.274 -2.9318 -0.2168 -0.2580
26588SOL     OW80341   9.693   2.214   8.029  0.2027  0.0660  0.3592
26588SOL    HW180342   9.765   2.155   8.052  1.4379  1.4046  0.0204
26588SOL    HW280343   9.733   2.301   8.024 -1.6347  1.0064  1.1455
26589SOL     OW80344   7.070   8.267   5.370 -0.3244 -0.6235 -0.1668
26589SOL    HW180345   7.164   8.264   5.388  0.1444  0.6428 -2.0532
26589SOL    HW280346   7.030   8.214   5.439  1.8350 -1.8923  0.1987
26590SOL     OW80347   1.873   9.727   0.383 -0.2807 -0.0697 -0.0700
26590SOL    HW180348   1.865   9.642   0.338  0.3943 -0.5114  0.6178
26590SOL    HW280349   1.791   9.736   0.431 -0.1387 -0.6231  0.3028
26591SOL     OW80350   5.012   1.864   6.600 -0.2708  0.1174  0.1522
26591SOL    HW180351   4.923   1.895   6.584 -0.0789  0.4244 -0.3343
26591SOL    HW280352   5.018   1.857   6.695 -0.0709  2.3304  0.3530
26592SOL     OW80353   3.938   1.899   4.757  0.2227  0.1532 -0.3832
26592SOL    HW180354   4.005   1.966   4.773  0.0739  0.7852 -2.1807
26592SOL    HW280355   3.858   1.949   4.742 -0.3426 -0.5383  0.3005
26593SOL     OW80356   0.687   1.708   9.232  0.1077 -0.0045 -0.4393
26593SOL    HW180357   0.599   1.689   9.200 -0.3038  1.1016 -0.0212
26593SOL    HW280358   0.683   1.686   9.325  0.4023 -0.3406 -0.5052
26594SOL     OW80359   5.842   1.691   8.078 -0.1141 -0.4755 -0.2500
26594SOL    HW180360   5.857   1.607   8.122  0.9302  0.5331  1.4193
26594SOL    HW280361   5.748   1.706   8.086  0.1032 -0.0554  2.2627
26595SOL     OW80362   9.748   4.328   3.952  0.3940  0.1184 -0.1979
26595SOL    HW180363   9.771   4.306   4.042  3.9839  1.3162 -0.6557
26595SOL    HW280364   9.748   4.244   3.906  3.9309 -0.1400 -0.0051
26596SOL     OW80365   7.659   0.257   7.100  0.0447 -0.3330  0.3806
26596SOL    HW180366   7.684   0.347   7.121 -0.8542  0.1126 -0.3795
26596SOL    HW280367   7.659   0.254   7.004 -1.9260 -0.5335  0.3481
26597SOL     OW80368   9.603   4.423   5.172  0.2179  0.1543 -0.0320
26597SOL    HW180369   9.542   4.439   5.100  0.6115 -1.0325 -0.6541
26597SOL    HW280370   9.551   4.438   5.251  0.0532  2.5107 -0.5125
26598SOL     OW80371   5.659   3.682   4.867 -0.1587  0.0493 -0.2622
26598SOL    HW180372   5.740   3.702   4.820  0.8247 -1.8407  0.5462
26598SOL    HW280373   5.678   3.704   4.958 -1.4167  1.8624 -0.3704
26599SOL     OW80374   7.797   7.641   9.741  0.5528 -0.2760  0.2042
26599SOL    HW180375   7.851   7.717   9.719 -3.3622  2.4670 -1.0552
26599SOL    HW280376   7.765   7.660   9.830 -1.2062  0.1747 -0.4807
26600SOL     OW80377   5.136   8.206   1.480  0.7108 -0.4380 -0.1081
26600SOL    HW180378   5.108   8.279   1.535 -1.0820 -1.6974  0.7513
26600SOL    HW280379   5.231   8.216   1.473  0.8906  0.3523  2.4230
26601SOL     OW80380   5.551   5.490   7.210 -0.0177 -0.0333 -0.2161
26601SOL    HW180381   5.631   5.530   7.177 -1.3380  1.3915 -1.9173
26601SOL    HW280382   5.554   5.504   7.304  1.6670  0.0527 -0.2544
26602SOL     OW80383   1.640   4.706   5.727  0.0450 -0.0582  0.0946
26602SOL    HW180384   1.685   4.742   5.804  1.5643 -0.1831 -0.7135
26602SOL    HW280385   1.634   4.780   5.666 -0.3556 -0.1895 -0.0286
26603SOL     OW80386   6.424   5.142   2.320  0.0588 -0.0726  0.0218
26603SOL    HW180387   6.356   5.156   2.254 -1.7380 -0.9354  1.5844
26603SOL    HW280388   6.407   5.055   2.354  1.1398  0.2082  1.3923
26604SOL     OW80389   7.791   5.988   5.260 -0.2353  0.0093 -0.1631
26604SOL    HW180390   7.766   6.070   5.220  0.6347  0.5681  0.3933
26604SOL    HW280391   7.749   5.920   5.207 -1.0085  0.8088 -0.5845
26605SOL     OW80392   9.589   4.419   3.536  0.4372  0.5479 -0.0450
26605SOL    HW180393   9.571   4.326   3.525 -0.9768  1.0098 -2.0873
26605SOL    HW280394   9.542   4.444   3.616 -0.4943 -0.1782 -0.3547
26606SOL     OW80395   1.402   1.171   6.809  0.4328  0.3186 -0.0883
26606SOL    HW180396   1.320   1.220   6.804  0.9818  1.1348 -1.6838
26606SOL    HW280397   1.391   1.098   6.748  0.6793  0.0908  0.1357
26607SOL     OW80398   6.150   2.586   8.480 -0.5503  0.7982  0.1195
26607SOL    HW180399   6.120   2.677   8.485  0.2388  1.1202 -0.7903
26607SOL    HW280400   6.130   2.550   8.567  0.7269  2.3660  1.1400
26608SOL     OW80401   7.405   3.184   9.054 -0.2570  0.1685  0.1236
26608SOL    HW180402   7.451   3.101   9.042 -1.2475 -0.1650 -1.8862
26608SOL    HW280403   7.471   3.244   9.089  1.7238 -0.3084 -2.4952
26609SOL     OW80404   5.408   9.128   1.990  0.4928 -0.2271  0.0092
26609SOL    HW180405   5.362   9.206   1.958 -0.1103 -0.6676 -0.2059
26609SOL    HW280406   5.496   9.136   1.953 -0.0282 -0.4442 -1.3388
26610SOL     OW80407   1.672   3.571   2.660  0.0022 -0.5686 -0.5066
26610SOL    HW180408   1.738   3.561   2.592  1.6137 -2.8261  1.2419
26610SOL    HW280409   1.691   3.656   2.700  0.6484 -0.3760 -1.2009
26611SOL     OW80410   5.381   0.707   0.351 -0.1037  0.0483  0.1198
26611SOL    HW180411   5.378   0.648   0.276  1.5800 -0.4801  0.4135
26611SOL    HW280412   5.346   0.790   0.319  1.1124  0.0045 -1.4367
26612SOL     OW80413   4.136   6.367   9.333 -0.6182  0.1924  0.2479
26612SOL    HW180414   4.195   6.292   9.333  1.0279  1.4008 -1.2323
26612SOL    HW280415   4.078   6.352   9.258  0.2477  0.7469 -0.5574
26613SOL     OW80416   7.047   6.053   6.735 -0.1283 -0.7553  0.0778
26613SOL    HW180417   6.982   5.984   6.752  1.3873 -2.4586 -0.6545
26613SOL    HW280418   7.021   6.125   6.792 -1.6180 -2.0539  1.1271
26614SOL     OW80419   0.232   2.981   0.284 -0.3599  0.0398  0.1920
26614SOL    HW180420   0.172   3.032   0.338 -0.5105  0.1450 -0.0713
26614SOL    HW280421   0.308   2.967   0.339 -0.1525  0.8916  0.1364
26615SOL     OW80422   2.683   7.898   6.503 -0.3498 -0.0407 -0.4535
26615SOL    HW180423   2.710   7.850   6.425  0.3547 -0.5874  0.1152
26615SOL    HW280424   2.588   7.895   6.501 -0.3725  0.6920 -1.7409
26616SOL     OW80425   2.979   7.792   6.176 -0.1816  0.0362  0.1825
26616SOL    HW180426   2.998   7.722   6.239 -0.8369 -1.3604 -1.0933
26616SOL    HW280427   3.045   7.781   6.107  0.1717  1.1762  0.3184
26617SOL     OW80428   6.069   2.985   1.432  0.4061  0.3818 -0.0238
26617SOL    HW180429   6.076   2.889   1.428 -0.6224  0.2974 -0.0680
26617SOL    HW280430   6.112   3.008   1.514  4.3636  0.3147 -1.8612
26618SOL     OW80431   9.919   0.626   6.604 -0.2415  0.2340  0.5231
26618SOL    HW180432   9.974   0.548   6.601  0.6857  0.8555  0.7779
26618SOL    HW280433   9.846   0.607   6.545  1.4182  0.2507 -1.6332
26619SOL     OW80434   7.071   9.646   6.467 -0.2014 -0.2854  0.0988
26619SOL    HW180435   6.990   9.594   6.458 -0.2434 -0.3244  0.6460
26619SOL    HW280436   7.102   9.657   6.378 -1.3176  0.5426 -0.2182
26620SOL     OW80437   6.060   2.498   9.067 -0.2867 -0.5239 -0.0532
26620SOL    HW180438   6.058   2.591   9.092 -0.0588 -0.4163 -0.4301
26620SOL    HW280439   6.127   2.494   8.999 -0.7404 -0.8618 -0.4715
26621SOL     OW80440   2.328   7.174   6.918  0.0753  0.4407  0.5938
26621SOL    HW180441   2.358   7.084   6.903 -1.1531  0.3184 -1.4920
26621SOL    HW280442   2.393   7.228   6.873  0.6306  0.5954  1.5635
26622SOL     OW80443   8.623   8.949   6.291 -0.0814  0.0009  0.0869
26622SOL    HW180444   8.610   9.018   6.227 -1.3982  0.4204  0.7663
26622SOL    HW280445   8.535   8.922   6.316  0.4055 -1.5108  0.2935
26623SOL     OW80446   2.792   2.271   8.077  0.1655  0.0670 -0.5735
26623SOL    HW180447   2.861   2.235   8.133 -1.4174 -1.8480  0.2835
26623SOL    HW280448   2.767   2.353   8.118  1.0989  0.1857 -0.2229
26624SOL     OW80449   9.934   7.752   9.791  0.2979 -0.2699 -0.1514
26624SOL    HW180450   9.923   7.794   9.876  1.8654 -0.6661  0.2889
26624SOL    HW280451   9.915   7.821   9.727 -3.5877 -0.6289  0.3651
26625SOL     OW80452   7.453   2.839   9.549 -0.1527 -0.1091  0.0752
26625SOL    HW180453   7.468   2.763   9.493  1.1783  0.8822 -0.9962
26625SOL    HW280454   7.490   2.815   9.633  2.5260  0.1538 -0.9215
26626SOL     OW80455   5.773   4.081   7.049 -0.6400  0.2339 -0.3281
26626SOL    HW180456   5.821   4.118   6.975 -0.3841 -1.0370 -0.8419
26626SOL    HW280457   5.763   3.988   7.026  2.7777 -1.1628  2.8870
26627SOL     OW80458   7.596   3.877   6.851  0.0908  0.6782  0.3884
26627SOL    HW180459   7.682   3.859   6.814 -1.4149 -0.7144 -2.8509
26627SOL    HW280460   7.582   3.809   6.916  1.0256  0.2876  0.1890
26628SOL     OW80461   0.984   9.607   2.649  0.2814  0.3332 -0.4122
26628SOL    HW180462   1.033   9.664   2.590  4.2562  0.3456  2.5065
26628SOL    HW280463   0.972   9.526   2.598  1.7842  0.9814 -1.9187
26629SOL     OW80464   0.624   2.405   1.677  0.1492  0.7137  0.4425
26629SOL    HW180465   0.568   2.445   1.610  0.1346  2.5514  1.5083
26629SOL    HW280466   0.580   2.423   1.759  1.2374  0.3187  1.1351
26630SOL     OW80467   8.129   7.408   5.317  0.0799  0.5750  0.2804
26630SOL    HW180468   8.045   7.453   5.310  0.4254  1.4816  1.5150
26630SOL    HW280469   8.184   7.469   5.368  0.5266 -1.3073  2.1713
26631SOL     OW80470   0.984   5.786   1.727 -0.0477  0.2160  0.2067
26631SOL    HW180471   0.980   5.697   1.693 -1.5423  0.5707 -0.6470
26631SOL    HW280472   1.062   5.824   1.687 -0.5344 -0.0798 -1.0649
26632SOL     OW80473   5.238   3.164   7.717  0.8125  0.2728  0.0503
26632SOL    HW180474   5.256   3.070   7.719  0.8839  0.2773 -0.3810
26632SOL    HW280475   5.194   3.181   7.800  2.6057  0.2239  1.0567
26633SOL     OW80476   8.788   9.709   8.554 -0.5579  0.4772 -0.3614
26633SOL    HW180477   8.723   9.734   8.619  1.7832 -1.1085  2.8815
26633SOL    HW280478   8.847   9.784   8.549  1.1497 -0.5867  2.1048
26634SOL     OW80479   3.269   0.760   7.893  0.1675  0.1594  0.0738
26634SOL    HW180480   3.301   0.689   7.838  1.6391  1.4277 -0.7819
26634SOL    HW280481   3.344   0.819   7.903 -0.3325  0.5140  2.5904
26635SOL     OW80482   0.500   1.285   6.706  0.0997  0.2604  0.3185
26635SOL    HW180483   0.482   1.373   6.739 -0.6531  0.5890 -0.9069
26635SOL    HW280484   0.587   1.291   6.667  0.9575 -0.1073  2.0737
26636SOL     OW80485   8.864   8.531   2.806 -0.5006  0.0557 -0.3560
26636SOL    HW180486   8.948   8.490   2.784 -1.2983 -0.6741 -2.1634
26636SOL    HW280487   8.802   8.459   2.808 -1.3088  0.7431 -0.0972
26637SOL     OW80488   2.950   8.435   0.408  0.5509  0.0409 -0.4572
26637SOL    HW180489   3.042   8.441   0.382  0.4681 -1.2803 -1.1242
26637SOL    HW280490   2.949   8.368   0.476  0.4445  1.9699  1.5624
26638SOL     OW80491   2.205   9.074   7.886  0.0277  0.6491  0.0257
26638SOL    HW180492   2.224   9.115   7.801  1.8288 -1.4984 -0.7070
26638SOL    HW280493   2.238   8.985   7.877 -2.8498 -0.7336  1.8410
26639SOL     OW80494   8.643   5.613   6.047  0.8771  0.3284  0.1175
26639SOL    HW180495   8.733   5.627   6.018  0.5208 -1.5447 -2.1572
26639SOL    HW280496   8.636   5.519   6.061 -0.3593  0.6189  1.7013
26640SOL     OW80497   6.463   6.694   0.691 -0.2421 -0.4349  0.1302
26640SOL    HW180498   6.415   6.624   0.735 -1.3442  1.8349  2.9038
26640SOL    HW280499   6.410   6.773   0.708  2.1197  1.4536 -0.6954
26641SOL     OW80500   9.069   5.997   2.675  0.6211  0.2157  0.2583
26641SOL    HW180501   9.069   5.916   2.625 -0.4597 -0.0864  0.7035
26641SOL    HW280502   9.063   6.067   2.610 -0.7237 -0.1663 -0.0584
26642SOL     OW80503   1.531   2.468   2.749 -0.2118 -0.4956  0.1675
26642SOL    HW180504   1.591   2.468   2.824 -0.6725 -0.1218  0.5449
26642SOL    HW280505   1.492   2.555   2.749 -1.0206 -0.8471  0.1484
26643SOL     OW80506   8.808   0.145   6.922  0.0869 -0.0796  0.3962
26643SOL    HW180507   8.771   0.074   6.974  1.3974  0.6246  2.3901
26643SOL    HW280508   8.827   0.214   6.985 -0.5291  1.8279 -1.3844
26644SOL     OW80509   1.641   9.768   3.280  0.4631  0.2111  0.0338
26644SOL    HW180510   1.673   9.734   3.363  0.5689  0.9438  0.2974
26644SOL    HW280511   1.563   9.715   3.261  0.8415 -0.4368  0.2347
26645SOL     OW80512   0.026   4.115   2.083  0.1085  0.4608  0.1040
26645SOL    HW180513   0.107   4.077   2.118 -0.2267  0.8393  1.3406
26645SOL    HW280514  -0.017   4.154   2.159 -0.7030  1.2404 -0.7304
26646SOL     OW80515   7.058   6.798   9.184 -0.2263  0.0535  0.3141
26646SOL    HW180516   7.003   6.877   9.188  0.2914  0.3926  1.1046
26646SOL    HW280517   7.099   6.801   9.098  1.0488  1.5470  0.9219
26647SOL     OW80518   9.555   0.279   7.594  0.0745 -0.1257 -0.1949
26647SOL    HW180519   9.486   0.328   7.549  1.2319  1.1946 -0.6218
26647SOL    HW280520   9.623   0.268   7.527  1.5731  1.3337  0.9991
26648SOL     OW80521   4.558   8.848   3.139  0.2274  0.1992 -0.0909
26648SOL    HW180522   4.541   8.905   3.064 -0.6495  1.6204  1.1166
26648SOL    HW280523   4.592   8.907   3.207  0.8142 -1.0063  0.7038
26649SOL     OW80524   9.299   7.813   6.984 -0.9581 -0.0263  0.1859
26649SOL    HW180525   9.311   7.883   7.047 -0.3847 -1.8960  2.2830
26649SOL    HW280526   9.205   7.814   6.965 -0.8024  1.9736 -0.7462
26650SOL     OW80527   8.703   2.635   0.416  1.0787 -0.1332 -0.1286
26650SOL    HW180528   8.786   2.683   0.418  1.4260 -0.7097 -0.6453
26650SOL    HW280529   8.717   2.559   0.471  0.9938 -0.3840 -0.4464
26651SOL     OW80530   5.585   3.429   3.838  0.4919  0.4795 -0.1952
26651SOL    HW180531   5.497   3.413   3.804 -0.1095 -0.4104  1.6497
26651SOL    HW280532   5.579   3.514   3.882  0.3926  0.1659  0.4061
26652SOL     OW80533   5.729   9.788   4.259 -0.1924  0.0415  1.2526
26652SOL    HW180534   5.756   9.719   4.320 -0.4434 -0.3974  0.8712
26652SOL    HW280535   5.753   9.755   4.173 -1.7957 -0.3189  0.9061
26653SOL     OW80536   9.870   0.448   2.944 -0.0678 -0.0676  0.3992
26653SOL    HW180537   9.875   0.460   2.849  0.6454  0.6119  0.5060
26653SOL    HW280538   9.954   0.407   2.967  0.2085  0.7360  0.8560
26654SOL     OW80539   3.643   6.370   1.720  0.0556  0.5394  0.2499
26654SOL    HW180540   3.579   6.413   1.777  0.1767  1.0582  0.0047
26654SOL    HW280541   3.596   6.295   1.684 -0.5083  1.0528 -0.1166
26655SOL     OW80542   9.564   6.491   6.493  0.0076 -0.0673  0.2658
26655SOL    HW180543   9.494   6.495   6.427  0.0237  1.0261  0.2991
26655SOL    HW280544   9.521   6.454   6.570 -0.5289  0.5320  0.2640
26656SOL     OW80545   0.149   0.453   8.588  0.4123 -0.1579 -0.4907
26656SOL    HW180546   0.131   0.371   8.542  0.1822 -1.1461  1.2492
26656SOL    HW280547   0.210   0.428   8.658  1.0557  1.3393 -0.4721
26657SOL     OW80548   0.989   5.329   4.275 -0.6231 -0.7100  0.0515
26657SOL    HW180549   0.898   5.330   4.245 -0.9302  0.6428  0.9414
26657SOL    HW280550   1.039   5.298   4.199 -1.5970  0.6208 -1.1898
26658SOL     OW80551   5.994   4.621   0.555  0.0656 -0.3303 -0.2000
26658SOL    HW180552   5.902   4.596   0.546 -0.2779  0.9435 -0.5149
26658SOL    HW280553   5.992   4.717   0.556  1.4450 -0.2793 -0.7676
26659SOL     OW80554   8.838   6.280   8.502  0.1053  0.2763  0.5918
26659SOL    HW180555   8.746   6.257   8.517  0.1818 -0.4834 -0.0429
26659SOL    HW280556   8.851   6.269   8.408  1.2400 -1.1450  0.8779
26660SOL     OW80557   7.514   3.137   7.002 -0.1511 -0.2195  0.5334
26660SOL    HW180558   7.464   3.129   6.921 -0.2137 -0.9283  0.6351
26660SOL    HW280559   7.448   3.150   7.070 -0.0130  2.6994  0.2372
26661SOL     OW80560   5.084   9.764   1.268 -0.1610  0.0571 -0.2903
26661SOL    HW180561   4.992   9.762   1.242 -0.8730 -3.6433  1.7160
26661SOL    HW280562   5.128   9.707   1.205  0.3170  0.0447  0.0493
26662SOL     OW80563   7.208   0.623   4.382 -0.1461  0.3145 -0.0842
26662SOL    HW180564   7.187   0.713   4.359 -1.5461 -0.3091 -1.4266
26662SOL    HW280565   7.147   0.600   4.451 -0.0133  0.2916  0.0259
26663SOL     OW80566   1.243   2.175   3.328 -0.0043 -0.0403  0.6566
26663SOL    HW180567   1.337   2.158   3.327  0.1004  0.5074  0.1865
26663SOL    HW280568   1.217   2.172   3.236 -0.2380  0.8647  0.6812
26664SOL     OW80569   7.187   6.719   8.929 -0.2562 -0.0357 -0.4751
26664SOL    HW180570   7.272   6.699   8.968 -0.1400  0.6815 -0.3495
26664SOL    HW280571   7.206   6.734   8.836  0.0446  1.8690 -0.1343
26665SOL     OW80572   6.452   5.715   6.365 -0.0261  0.2071  0.0801
26665SOL    HW180573   6.369   5.742   6.406 -0.7879 -0.1635 -1.1488
26665SOL    HW280574   6.460   5.623   6.386 -0.8406 -0.1924 -1.2161
26666SOL     OW80575   8.804   0.371   2.818 -0.0288 -0.1858 -0.3046
26666SOL    HW180576   8.799   0.466   2.825  0.9882 -0.2116  1.4574
26666SOL    HW280577   8.730   0.339   2.871  1.6501 -0.3387  2.1106
26667SOL     OW80578   2.533   2.354   9.784  0.0226  0.2681  0.4736
26667SOL    HW180579   2.581   2.317   9.857  0.8811 -0.1755 -0.2994
26667SOL    HW280580   2.508   2.279   9.731  0.1181  0.6440 -0.1140
26668SOL     OW80581   5.277   8.555   8.364 -0.0924 -0.7026  0.0162
26668SOL    HW180582   5.282   8.573   8.270 -1.9415 -1.8427 -0.3418
26668SOL    HW280583   5.215   8.620   8.398  1.3100  0.3566  0.6867
26669SOL     OW80584   9.704   3.981   2.020 -0.0793 -0.1310  0.2396
26669SOL    HW180585   9.777   3.960   1.962 -3.6115 -2.1747 -4.0523
26669SOL    HW280586   9.702   4.077   2.021  0.3348  0.0130 -3.0044
26670SOL     OW80587   1.657   5.697   4.607  0.2436 -0.0505 -0.0356
26670SOL    HW180588   1.671   5.695   4.513 -0.1555 -0.3247 -0.0892
26670SOL    HW280589   1.652   5.604   4.633 -1.7293  0.0167 -0.0584
26671SOL     OW80590   9.947   3.943   4.792 -0.5345  0.4972 -0.1522
26671SOL    HW180591   9.951   4.011   4.724 -1.5692 -0.3660 -1.1192
26671SOL    HW280592   9.990   3.983   4.868 -0.3007  1.8915 -0.9743
26672SOL     OW80593   5.638   9.258   3.100 -0.6853  0.0068 -0.1553
26672SOL    HW180594   5.617   9.197   3.170  0.6107  0.4737  0.6683
26672SOL    HW280595   5.681   9.205   3.033 -1.6441 -0.3810 -0.4852
26673SOL     OW80596   6.641   9.303   7.663 -0.6219  0.4943 -0.3043
26673SOL    HW180597   6.716   9.355   7.632 -0.8237  1.8143  1.2760
26673SOL    HW280598   6.662   9.213   7.638 -0.3501  1.2939 -3.3389
26674SOL     OW80599   3.878   4.905   2.640  0.0133 -0.4837  0.0581
26674SOL    HW180600   3.957   4.922   2.691  0.4412  0.4473 -0.8767
26674SOL    HW280601   3.889   4.957   2.560 -1.6667 -0.1145  0.0193
26675SOL     OW80602   3.794   9.976   5.922 -0.3048  0.0131  0.1514
26675SOL    HW180603   3.749   9.932   5.995  0.5059 -1.0007  0.0664
26675SOL    HW280604   3.754   9.939   5.844 -1.9799  1.9290  0.0048
26676SOL     OW80605   1.481   2.798   0.203 -0.7314 -0.1472 -0.5005
26676SOL    HW180606   1.439   2.884   0.206 -1.3254 -0.4136 -1.0118
26676SOL    HW280607   1.425   2.742   0.257  1.4557  0.4989  2.7554
26677SOL     OW80608   2.529   8.805   5.504  0.2109  0.3779 -0.0611
26677SOL    HW180609   2.562   8.751   5.432 -0.8606  0.5384 -0.7056
26677SOL    HW280610   2.521   8.893   5.466  0.1616  0.5801  0.4162
26678SOL     OW80611   8.240   5.294   1.685  0.2692 -0.1098 -0.6917
26678SOL    HW180612   8.153   5.328   1.707  0.0619 -1.4883  0.8262
26678SOL    HW280613   8.244   5.298   1.590 -1.3022  0.3372 -0.7706
26679SOL     OW80614   7.172   5.257   2.889 -0.3623 -0.5425 -0.2957
26679SOL    HW180615   7.203   5.328   2.945  0.8485 -1.0267 -0.3161
26679SOL    HW280616   7.245   5.240   2.829 -1.1662 -0.8591 -1.2132
26680SOL     OW80617   7.970   8.825   0.548  0.1275  0.0342  0.1281
26680SOL    HW180618   7.965   8.755   0.613  0.6827 -1.9376 -1.8153
26680SOL    HW280619   8.008   8.783   0.470  0.2014  2.4400 -1.2427
26681SOL     OW80620   0.740   1.233   4.656 -0.2729  0.4170  0.1578
26681SOL    HW180621   0.656   1.206   4.618 -0.0445 -0.0475 -0.0267
26681SOL    HW280622   0.721   1.249   4.748 -0.9015  1.8624 -0.1966
26682SOL     OW80623   0.838   9.310   1.703  0.1458 -0.5053  0.1004
26682SOL    HW180624   0.746   9.320   1.727 -0.0195 -1.9297  0.0985
26682SOL    HW280625   0.883   9.297   1.786  0.5331  1.2997  0.2149
26683SOL     OW80626   8.921   9.475   0.982 -0.4363 -0.4220 -0.3377
26683SOL    HW180627   8.897   9.437   1.066  1.7590  1.7197  1.4217
26683SOL    HW280628   8.849   9.534   0.961 -0.6146 -0.3294  0.5009
26684SOL     OW80629   9.895   0.540   1.438  0.5135 -0.0284 -0.0672
26684SOL    HW180630   9.974   0.508   1.395 -0.5205 -0.1010 -2.0495
26684SOL    HW280631   9.846   0.583   1.368 -1.0217  0.3474  1.1871
26685SOL     OW80632   5.637   3.017   5.711  0.5551 -0.0604 -0.3269
26685SOL    HW180633   5.703   2.971   5.762  0.4854  0.4928  0.2783
26685SOL    HW280634   5.671   3.015   5.621  1.2658 -0.0223 -0.0709
26686SOL     OW80635   1.436   6.152   7.940  0.2976  0.1855  0.2131
26686SOL    HW180636   1.438   6.088   8.011 -0.3109 -0.5153 -0.3870
26686SOL    HW280637   1.452   6.236   7.983  0.2071 -0.2575  1.1366
26687SOL     OW80638   0.602   3.496   6.958  0.2842 -0.2235 -0.1408
26687SOL    HW180639   0.696   3.513   6.950  0.2273  0.6136  0.7086
26687SOL    HW280640   0.596   3.405   6.986  0.7863 -0.6315 -1.3301
26688SOL     OW80641   1.644   6.140   7.058 -0.2666  0.3415  0.2773
26688SOL    HW180642   1.637   6.130   7.153 -0.3232 -0.7997  0.1694
26688SOL    HW280643   1.563   6.103   7.024  0.4066 -0.6461 -0.2849
26689SOL     OW80644   3.815   5.567   9.754  0.0067 -0.0650 -0.4940
26689SOL    HW180645   3.887   5.507   9.735  0.4940 -0.2627  1.6640
26689SOL    HW280646   3.744   5.510   9.783  1.2117  0.2481  3.9154
26690SOL     OW80647   8.316   3.489   8.741  0.2739  0.2100  0.2813
26690SOL    HW180648   8.313   3.499   8.836 -2.5472  1.3127  0.1769
26690SOL    HW280649   8.329   3.395   8.728  1.0288  0.0800  1.7360
26691SOL     OW80650   6.235   9.640   3.041  0.8984  0.5817  0.5389
26691SOL    HW180651   6.201   9.725   3.014  3.0865  1.8012  1.4179
26691SOL    HW280652   6.302   9.660   3.106 -0.0344 -1.9481  2.4348
26692SOL     OW80653   8.225   3.013   0.626  0.1867  0.3303 -0.0239
26692SOL    HW180654   8.298   2.957   0.602  0.1648  0.5044 -0.5185
26692SOL    HW280655   8.228   3.019   0.721  0.6971  0.1779 -0.0328
26693SOL     OW80656   1.328   7.035   3.997  0.2028 -0.4403  0.2429
26693SOL    HW180657   1.382   6.956   3.989  0.3769 -0.1818 -1.4271
26693SOL    HW280658   1.247   7.005   4.038  0.9201 -1.1579  1.1819
26694SOL     OW80659   2.552   6.397   3.349 -0.0257 -0.0664 -0.0401
26694SOL    HW180660   2.632   6.347   3.366 -0.7393 -1.3544 -0.3553
26694SOL    HW280661   2.526   6.429   3.435 -0.4300 -1.6261  0.4546
26695SOL     OW80662   7.873   4.446   3.029  0.3502  0.0066  0.0549
26695SOL    HW180663   7.781   4.455   3.004  0.7151 -0.6189 -1.6897
26695SOL    HW280664   7.914   4.526   2.998  0.5851 -0.1911 -0.1431
26696SOL     OW80665   1.665   3.251   6.967 -0.8593 -0.1061  0.1326
26696SOL    HW180666   1.665   3.215   6.878 -0.0853  0.8873 -0.2849
26696SOL    HW280667   1.692   3.177   7.023  0.5370 -0.2418 -0.6870
26697SOL     OW80668   0.731   4.638   2.358 -0.1527  0.1822 -0.1669
26697SOL    HW180669   0.737   4.701   2.430  0.4648 -2.1973  1.9962
26697SOL    HW280670   0.643   4.649   2.323 -0.5729  1.2113  1.1356
26698SOL     OW80671   8.610   5.159   4.335 -0.1201 -0.1681 -0.4675
26698SOL    HW180672   8.663   5.186   4.409  0.8403 -1.4441 -0.6559
26698SOL    HW280673   8.557   5.087   4.368  0.0580 -0.5145 -0.9239
26699SOL     OW80674   7.814   1.808   5.319  0.5000 -0.1487  0.0920
26699SOL    HW180675   7.747   1.872   5.296 -1.6844 -2.2986  0.0382
26699SOL    HW280676   7.866   1.798   5.240  0.7030  1.3035  0.0135
26700SOL     OW80677   5.552   9.152   8.146 -0.1749  0.0391 -0.2462
26700SOL    HW180678   5.545   9.135   8.240 -0.1040  0.1346 -0.2234
26700SOL    HW280679   5.514   9.240   8.134  0.5955  0.3897 -0.1779
26701SOL     OW80680   3.429   7.447   9.294 -0.1509  0.4702  0.2802
26701SOL    HW180681   3.352   7.390   9.296  0.4069 -0.3392  3.0555
26701SOL    HW280682   3.458   7.445   9.203 -2.8331  0.0537 -0.6392
26702SOL     OW80683   1.969   7.126   1.620 -0.7051  0.6538 -0.1240
26702SOL    HW180684   1.930   7.041   1.601 -1.3367  1.0830 -0.7967
26702SOL    HW280685   2.029   7.109   1.693  0.7146 -0.7738 -1.5568
26703SOL     OW80686   8.180   3.843   5.086 -0.0909 -0.2885 -0.4343
26703SOL    HW180687   8.137   3.872   5.166  0.2848 -0.8882  0.0001
26703SOL    HW280688   8.232   3.918   5.058 -0.9149  0.2216 -0.6110
26704SOL     OW80689   1.187   7.978   9.285 -0.1835  0.3278 -0.4410
26704SOL    HW180690   1.173   7.884   9.296 -0.9812  0.2417 -1.9983
26704SOL    HW280691   1.206   8.009   9.374 -0.6591 -1.1715  0.2227
26705SOL     OW80692   8.376   4.888   0.634 -0.1069 -0.3084  0.1286
26705SOL    HW180693   8.404   4.807   0.591  0.8123  0.1798 -0.2194
26705SOL    HW280694   8.458   4.930   0.661 -0.4869  1.1211 -0.8373
26706SOL     OW80695   9.924   9.926   9.583  0.3783  0.4413 -0.2866
26706SOL    HW180696   9.896   9.835   9.574 -0.5565  0.9335 -4.7212
26706SOL    HW280697  10.018   9.924   9.570  0.5693 -0.0036  1.1107
26707SOL     OW80698   4.388   6.825   7.397  0.3762  0.3814 -0.6421
26707SOL    HW180699   4.406   6.896   7.459  0.0567  1.5449 -1.8348
26707SOL    HW280700   4.451   6.838   7.326 -0.1918 -0.0571 -1.2415
26708SOL     OW80701   8.549   1.938   7.676 -0.5306  0.0305 -0.0067
26708SOL    HW180702   8.475   1.973   7.726 -0.6509 -0.6510  0.3014
26708SOL    HW280703   8.594   1.879   7.737 -0.0748 -0.0096 -0.3770
26709SOL     OW80704   8.523   3.038   8.534  0.4933 -0.4219  0.5296
26709SOL    HW180705   8.586   3.045   8.463  0.3755 -0.4971  0.4167
26709SOL    HW280706   8.569   3.070   8.611  0.5193 -0.0402  0.3574
26710SOL     OW80707   8.942   8.004   1.105  0.2748 -0.0381 -0.0742
26710SOL    HW180708   8.855   8.011   1.145 -0.7010 -2.9143 -1.4313
26710SOL    HW280709   9.001   7.989   1.178 -0.5344  0.7460  0.7678
26711SOL     OW80710   9.548   2.167   3.057  0.3031  0.8343 -0.2355
26711SOL    HW180711   9.602   2.200   3.128 -2.0705  0.4782  1.8478
26711SOL    HW280712   9.609   2.118   3.001  2.3596  1.7603  1.0989
26712SOL     OW80713   8.785   2.238   0.940 -0.4927  0.1735 -0.0318
26712SOL    HW180714   8.732   2.254   1.018  0.2545 -1.1266  0.7772
26712SOL    HW280715   8.725   2.200   0.877 -0.7754 -0.1984  0.4588
26713SOL     OW80716   3.099   4.768   0.535 -0.6876 -0.1829 -0.0438
26713SOL    HW180717   3.155   4.692   0.552 -1.5557 -0.5082  1.6334
26713SOL    HW280718   3.145   4.817   0.467  0.1987 -1.8849 -0.7340
26714SOL     OW80719   2.763   5.699   1.791  0.2070  0.0330  0.3675
26714SOL    HW180720   2.719   5.618   1.816  2.7530 -1.1770  1.3429
26714SOL    HW280721   2.739   5.713   1.700 -0.0044 -2.0604  0.0547
26715SOL     OW80722   3.440   1.469   4.893 -0.0724  0.0568  0.0519
26715SOL    HW180723   3.512   1.410   4.870  0.7360  1.2544 -0.5782
26715SOL    HW280724   3.448   1.542   4.832 -0.4207  1.3119  1.4504
26716SOL     OW80725   3.854   4.148   6.042 -0.2272 -0.1335 -0.3192
26716SOL    HW180726   3.875   4.107   6.126  1.3129  0.5578 -0.3249
26716SOL    HW280727   3.900   4.094   5.978 -0.2843  0.1208 -0.5719
26717SOL     OW80728   0.261   5.596   6.119  0.0780  0.2047  0.3180
26717SOL    HW180729   0.292   5.621   6.206 -2.7622  1.5250  1.0826
26717SOL    HW280730   0.309   5.653   6.059  0.7330  0.5975  1.1956
26718SOL     OW80731   8.752   4.873   6.211  0.2222  0.0304  0.2151
26718SOL    HW180732   8.796   4.955   6.188 -0.2053 -0.0658 -1.0515
26718SOL    HW280733   8.820   4.817   6.247  0.6454  0.7050  0.4829
26719SOL     OW80734   6.997   1.734   6.288  0.3549  0.8376  0.5216
26719SOL    HW180735   6.980   1.642   6.308 -0.2774  0.7850 -0.1870
26719SOL    HW280736   6.930   1.782   6.336 -0.8947  0.7387 -1.0466
26720SOL     OW80737   3.977   7.735   9.024  0.4496 -0.4101 -0.3204
26720SOL    HW180738   4.035   7.690   8.962 -0.5280 -0.1383 -1.4636
26720SOL    HW280739   3.971   7.675   9.098  2.4235 -0.3134 -0.0105
26721SOL     OW80740   2.095   3.410   0.308 -0.2065 -0.7098 -0.4529
26721SOL    HW180741   2.007   3.392   0.276  0.0492 -1.1646 -0.9056
26721SOL    HW280742   2.102   3.358   0.389 -0.9764  0.7160  0.5806
26722SOL     OW80743   3.311   8.151   7.624  0.2274 -0.2363  0.2642
26722SOL    HW180744   3.366   8.225   7.652 -0.3498  1.1215 -1.8872
26722SOL    HW280745   3.251   8.136   7.697  2.0015 -0.3037  1.7807
26723SOL     OW80746   4.150   7.510   2.983 -0.0135  0.1694 -0.2258
26723SOL    HW180747   4.059   7.530   2.963 -0.0104 -0.7998 -1.3063
26723SOL    HW280748   4.200   7.568   2.926  0.0718  0.9446  0.6113
26724SOL     OW80749   4.303   5.220   1.154 -0.1003  0.5222 -0.7095
26724SOL    HW180750   4.370   5.153   1.165 -1.0894 -0.3948 -0.1125
26724SOL    HW280751   4.345   5.301   1.181  1.8189  0.5762 -3.5043
26725SOL     OW80752   9.673   5.001   8.243 -0.4833  0.1304 -0.3494
26725SOL    HW180753   9.616   5.057   8.191 -0.3980 -0.1687 -0.7733
26725SOL    HW280754   9.761   5.033   8.224 -0.4992  0.6253  0.3435
26726SOL     OW80755   5.638   1.526   9.104  0.2903 -0.0866 -0.1252
26726SOL    HW180756   5.723   1.523   9.062 -0.3076  1.6395 -1.5990
26726SOL    HW280757   5.593   1.447   9.075  1.0045 -0.4814 -0.1760
26727SOL     OW80758   0.319   7.421   9.599 -0.2694  0.0183 -0.5839
26727SOL    HW180759   0.278   7.506   9.615  2.5113  1.0255  2.0321
26727SOL    HW280760   0.318   7.412   9.504 -1.0794  2.7373 -0.9250
26728SOL     OW80761   7.591   2.180   3.579 -0.0834  0.4989  0.3715
26728SOL    HW180762   7.531   2.126   3.528  0.5406  0.1124  0.0387
26728SOL    HW280763   7.534   2.232   3.636 -0.7947  0.9727 -0.7442
26729SOL     OW80764   0.940   9.879   2.497  0.2350 -0.0279 -0.1256
26729SOL    HW180765   0.899   9.812   2.443 -2.0222 -0.3256  1.8003
26729SOL    HW280766   0.962   9.949   2.435 -1.2297 -0.7831 -1.5716
26730SOL     OW80767   7.505   3.540   1.604  0.4308 -0.1817 -0.0376
26730SOL    HW180768   7.556   3.522   1.525  0.9839 -0.2627  0.3360
26730SOL    HW280769   7.426   3.486   1.595  0.8699 -0.8091 -0.1481
26731SOL     OW80770   9.577   2.858   6.795  0.0307  0.0739  0.3310
26731SOL    HW180771   9.621   2.896   6.871 -1.8783  1.0983  0.9957
26731SOL    HW280772   9.615   2.904   6.720  0.9880  0.0082  0.7588
26732SOL     OW80773   6.944   2.791   0.116 -0.1950 -0.7173 -0.3286
26732SOL    HW180774   6.974   2.859   0.175 -0.6546 -0.5787 -0.2470
26732SOL    HW280775   6.988   2.711   0.146 -1.8985 -1.0642  1.4645
26733SOL     OW80776   3.900   1.704   2.453  0.2434 -0.0670 -0.9683
26733SOL    HW180777   3.835   1.633   2.448  1.4942 -1.2582 -1.1126
26733SOL    HW280778   3.978   1.661   2.487  0.9802  1.3153 -0.8892
26734SOL     OW80779   3.248   2.130   2.025  0.3019 -0.5664 -0.3173
26734SOL    HW180780   3.262   2.036   2.016 -0.5464 -0.8453  0.8931
26734SOL    HW280781   3.281   2.168   1.944  1.6526 -1.7899 -0.3813
26735SOL     OW80782   4.177   6.207   0.902 -0.3870  0.1545 -0.3139
26735SOL    HW180783   4.161   6.119   0.935 -0.3945  0.2692 -0.0097
26735SOL    HW280784   4.091   6.239   0.876 -0.6186  0.6471  1.0125
26736SOL     OW80785   7.040   1.484   9.338 -0.1941  0.2919  0.1977
26736SOL    HW180786   7.055   1.420   9.268  0.3317 -0.6674  1.1724
26736SOL    HW280787   7.077   1.444   9.416 -1.6758  0.9000  1.2575
26737SOL     OW80788   1.868   6.177   5.305  0.0458  0.1293  0.2083
26737SOL    HW180789   1.775   6.188   5.325 -0.0785 -0.9790  0.3173
26737SOL    HW280790   1.906   6.144   5.386 -0.1148 -2.5798 -0.7058
26738SOL     OW80791   8.615   3.625   2.877 -0.2284  0.3372 -0.2051
26738SOL    HW180792   8.541   3.660   2.927 -0.1763 -0.3544  0.3814
26738SOL    HW280793   8.674   3.588   2.943  0.7703  1.0888 -0.6430
26739SOL     OW80794   6.950   8.838   0.706  0.3217 -0.3386 -0.1613
26739SOL    HW180795   6.909   8.912   0.751  1.3608  0.3097 -0.2426
26739SOL    HW280796   6.897   8.825   0.628  0.0201  0.2127 -0.0531
26740SOL     OW80797   1.706   3.451   9.492  0.0186 -0.3148  0.6207
26740SOL    HW180798   1.763   3.527   9.486  0.4919 -0.7527 -1.1253
26740SOL    HW280799   1.659   3.462   9.575  1.0579  1.1573  1.0522
26741SOL     OW80800   4.048   9.900   1.043  0.2583 -0.4496  0.5927
26741SOL    HW180801   4.054   9.987   1.005  0.9250 -0.8844 -0.3499
26741SOL    HW280802   4.139   9.878   1.065  0.4983 -1.8839 -1.5207
26742SOL     OW80803   2.976   1.245   0.069 -0.2990  0.6514 -0.3071
26742SOL    HW180804   2.982   1.154   0.040  0.8782  0.7782 -0.5025
26742SOL    HW280805   3.027   1.294   0.005  1.5417  1.0691  1.3938
26743SOL     OW80806   2.783   3.557   7.310  0.3680 -0.1022 -0.0594
26743SOL    HW180807   2.778   3.462   7.312 -0.2913 -0.0633  2.0934
26743SOL    HW280808   2.731   3.582   7.233 -2.2611 -1.3922  1.1543
26744SOL     OW80809   5.344   7.568   8.503 -0.7736  0.7332  0.2181
26744SOL    HW180810   5.308   7.656   8.493 -1.1429  0.4888 -0.7831
26744SOL    HW280811   5.416   7.564   8.440 -1.0794  0.1712 -0.1108
26745SOL     OW80812   9.949   9.882   5.422  0.2892 -0.4262  0.2851
26745SOL    HW180813   9.896   9.888   5.343  0.2288 -2.6715  0.1047
26745SOL    HW280814  10.038   9.866   5.391  0.1458 -2.0958  0.6275
26746SOL     OW80815   4.057   4.395   4.993  0.9861  0.5950 -0.4030
26746SOL    HW180816   4.095   4.401   5.081 -0.4976  2.3196  0.1706
26746SOL    HW280817   3.988   4.461   4.992  0.3141 -0.0682 -2.5581
26747SOL     OW80818   1.756   3.478   0.643  0.9155  0.2483 -0.4027
26747SOL    HW180819   1.770   3.389   0.611 -0.6315  0.1258 -0.8027
26747SOL    HW280820   1.702   3.467   0.721  2.2948  0.7390  0.6598
26748SOL     OW80821   4.174   5.743   7.649  0.1706  0.4074  0.0010
26748SOL    HW180822   4.195   5.690   7.572 -2.0845  1.6193 -1.5418
26748SOL    HW280823   4.234   5.818   7.643  0.1391  0.3986 -0.4507
26749SOL     OW80824   2.195   8.671   3.442  0.0123  0.2408  0.1646
26749SOL    HW180825   2.161   8.644   3.528 -2.3632 -1.6946 -1.2526
26749SOL    HW280826   2.131   8.734   3.410 -0.2699 -0.6071 -0.9929
26750SOL     OW80827   5.940   2.510   4.017 -0.2577 -0.2021  0.2113
26750SOL    HW180828   5.996   2.571   4.065 -0.3936 -0.0928  0.2318
26750SOL    HW280829   5.953   2.426   4.061  0.8883 -0.4761 -0.5898
26751SOL     OW80830   0.729   8.323   7.510 -0.0192 -0.1490 -0.0741
26751SOL    HW180831   0.756   8.243   7.464  1.3009 -2.2037  3.8540
26751SOL    HW280832   0.654   8.297   7.563  1.1455  0.7917  2.1723
26752SOL     OW80833   4.962   5.304   2.408  0.2446 -0.5480 -0.0675
26752SOL    HW180834   4.974   5.260   2.492  1.0363 -1.0938 -0.4534
26752SOL    HW280835   5.039   5.360   2.399  0.3775 -0.8091 -0.6124
26753SOL     OW80836   6.553   9.239   8.422 -0.1289  0.4952  0.0231
26753SOL    HW180837   6.585   9.149   8.424 -1.3969  0.0424  0.9801
26753SOL    HW280838   6.542   9.259   8.329 -0.6077 -0.6235 -0.1747
26754SOL     OW80839   4.589   4.237   3.055 -0.2087 -0.3565  0.2422
26754SOL    HW180840   4.552   4.165   3.004  0.7762 -0.9674  0.3576
26754SOL    HW280841   4.662   4.197   3.102 -0.2074  0.5282  1.0071
26755SOL     OW80842   7.916   1.901   8.087  0.0521  0.1314 -0.0282
26755SOL    HW180843   7.888   1.944   8.168  0.0161 -1.2470  0.7275
26755SOL    HW280844   8.001   1.862   8.109  0.0325 -0.2639 -0.6434
26756SOL     OW80845   2.193   0.430   3.914 -0.0125 -0.8234  0.2405
26756SOL    HW180846   2.147   0.497   3.864  0.7690  0.1928  0.8439
26756SOL    HW280847   2.241   0.478   3.982  1.1527 -1.9133  0.2475
26757SOL     OW80848   9.920   8.316   5.076  0.1025 -1.2858 -0.2085
26757SOL    HW180849   9.920   8.242   5.015  0.6100 -0.5569 -1.1142
26757SOL    HW280850  10.012   8.325   5.101  0.1532 -0.5390 -0.6439
26758SOL     OW80851   3.642   2.318   0.274  0.6741  0.3924  0.3118
26758SOL    HW180852   3.600   2.233   0.258  0.8794  0.3280  0.0921
26758SOL    HW280853   3.733   2.304   0.247  0.9119  0.4396  1.0784
26759SOL     OW80854   1.363   2.639   1.909 -0.2741  0.0839 -0.0668
26759SOL    HW180855   1.370   2.593   1.993 -0.6056  0.7928  0.3540
26759SOL    HW280856   1.454   2.652   1.881 -0.1615 -0.0317  0.2470
26760SOL     OW80857   3.459   7.065   9.930 -0.2176 -0.4950  0.2350
26760SOL    HW180858   3.489   7.125   9.999 -0.5865 -0.6093  0.4953
26760SOL    HW280859   3.376   7.031   9.962  0.0773 -1.2890  0.1689
26761SOL     OW80860   6.928   6.849   1.331 -0.0342  0.0825 -0.0367
26761SOL    HW180861   6.868   6.775   1.344  1.1966 -0.8810  0.4312
26761SOL    HW280862   6.987   6.845   1.407  1.2191  0.3815 -0.9524
26762SOL     OW80863   5.157   6.697   2.287 -0.2236 -0.1675  0.3677
26762SOL    HW180864   5.141   6.713   2.380  2.2623  0.5715  0.7280
26762SOL    HW280865   5.144   6.603   2.276 -2.5935  0.0130  0.9432
26763SOL     OW80866   9.230   6.378   8.439 -0.3855 -0.0228 -0.0719
26763SOL    HW180867   9.270   6.381   8.352  1.1051  0.9162  0.5945
26763SOL    HW280868   9.281   6.314   8.487 -1.2688 -0.6163  0.0968
26764SOL     OW80869   1.886   0.782   3.475  0.3896 -0.3863 -0.5605
26764SOL    HW180870   1.948   0.851   3.497 -1.9482  0.8181  3.0389
26764SOL    HW280871   1.902   0.713   3.539 -1.6150 -0.2055  0.2224
26765SOL     OW80872   5.847   7.112   8.841  0.1871 -0.4518 -0.1160
26765SOL    HW180873   5.901   7.178   8.883 -1.7663  0.3998  1.1706
26765SOL    HW280874   5.901   7.033   8.842  0.8843 -0.0194  2.4211
26766SOL     OW80875   9.678   3.134   0.838 -0.2517  0.1170 -0.3681
26766SOL    HW180876   9.634   3.082   0.771 -0.9949  0.9262 -0.5154
26766SOL    HW280877   9.610   3.190   0.875  0.8074  2.1025 -1.2709
26767SOL     OW80878   6.738   4.729   3.084  0.2513 -0.1450 -0.2312
26767SOL    HW180879   6.688   4.751   3.162 -0.1109 -1.1779 -0.1568
26767SOL    HW280880   6.693   4.653   3.047  1.2447 -0.5478 -0.6580
26768SOL     OW80881   3.964   2.251   3.141  0.4002 -0.0088  0.1199
26768SOL    HW180882   3.922   2.209   3.066  0.4854 -0.7305  0.4649
26768SOL    HW280883   3.894   2.264   3.204  0.5892 -0.7260  0.4837
26769SOL     OW80884   3.516   4.130   6.559 -0.3417  0.2981  0.7831
26769SOL    HW180885   3.526   4.114   6.465  0.7519 -0.4155  1.0015
26769SOL    HW280886   3.558   4.214   6.574  0.1061  0.0880  0.7324
26770SOL     OW80887   0.038   7.470   8.627  0.0984  0.5316 -0.0688
26770SOL    HW180888  -0.019   7.509   8.694 -1.0011 -0.2339 -0.5192
26770SOL    HW280889  -0.006   7.488   8.544  2.6469  3.5690 -0.9229
26771SOL     OW80890   2.487   6.670   2.522  0.2009 -0.5520 -0.0209
26771SOL    HW180891   2.523   6.589   2.558 -1.0965 -0.6618  1.1220
26771SOL    HW280892   2.510   6.737   2.586  0.0116 -0.2775 -0.2372
26772SOL     OW80893   0.594   5.891   3.150 -0.1136  0.8775 -0.2078
26772SOL    HW180894   0.679   5.869   3.188 -0.0169  0.0995 -0.8417
26772SOL    HW280895   0.541   5.812   3.163 -0.3831  0.9574 -0.7815
26773SOL     OW80896   1.225   7.896   9.026  0.4367 -0.8682 -0.1601
26773SOL    HW180897   1.166   7.821   9.024  0.2423 -0.7519  0.7996
26773SOL    HW280898   1.205   7.941   9.108  2.6819 -1.5111  0.8411
26774SOL     OW80899   0.835   7.101   2.669 -0.0153  0.3270 -0.1757
26774SOL    HW180900   0.795   7.173   2.620 -0.3535  1.0611  1.1186
26774SOL    HW280901   0.837   7.133   2.760  1.6820 -0.4986  0.1085
26775SOL     OW80902   0.178   7.068   5.470 -0.4261 -0.0029 -0.3299
26775SOL    HW180903   0.186   7.162   5.487 -0.4570  0.2118 -1.3973
26775SOL    HW280904   0.112   7.063   5.401 -0.2781 -0.7973 -0.4161
26776SOL     OW80905   2.218   8.458   0.026 -0.5827 -0.2584  0.0063
26776SOL    HW180906   2.231   8.364   0.036 -1.9522 -0.8363 -2.6388
26776SOL    HW280907   2.304   8.492   0.001 -0.6071 -1.3244 -1.7004
26777SOL     OW80908   6.715   3.297   8.156  0.6452 -0.3647 -0.1627
26777SOL    HW180909   6.716   3.392   8.139 -2.9725 -0.2733 -0.5483
26777SOL    HW280910   6.756   3.259   8.078 -0.7597  0.8035 -1.5277
26778SOL     OW80911   4.800   3.516   3.396  0.2821  0.2005 -0.2120
26778SOL    HW180912   4.839   3.599   3.371  1.1998 -0.7234 -2.0603
26778SOL    HW280913   4.741   3.537   3.469  0.8881  2.3476 -0.3004
26779SOL     OW80914   3.223   7.216   8.971 -0.5157  0.1043 -0.0854
26779SOL    HW180915   3.187   7.303   8.987  1.6304  0.8404  1.2459
26779SOL    HW280916   3.215   7.204   8.876  0.5494  2.4871 -0.5633
26780SOL     OW80917   2.934   6.504   8.428  0.3605  0.4517 -0.2028
26780SOL    HW180918   3.010   6.519   8.483 -1.1058 -0.2617  2.1686
26780SOL    HW280919   2.897   6.591   8.413  1.7876  0.8480 -1.7109
26781SOL     OW80920   7.931   0.145   2.562  0.4956  0.1231  0.6055
26781SOL    HW180921   7.919   0.221   2.505  0.1490 -0.2764  0.1300
26781SOL    HW280922   7.980   0.083   2.509 -0.1559 -0.4002  0.6019
26782SOL     OW80923   2.411   8.580   7.552 -0.3714  0.2429  0.5735
26782SOL    HW180924   2.488   8.537   7.515 -0.7056 -0.2527  0.4350
26782SOL    HW280925   2.423   8.673   7.531 -0.5551 -0.0179 -0.8151
26783SOL     OW80926   4.897   3.177   5.993 -0.5681  0.3505  0.3766
26783SOL    HW180927   4.874   3.140   5.908  0.0756  1.5490 -0.3315
26783SOL    HW280928   4.864   3.266   5.991  2.6231  1.6437 -0.0768
26784SOL     OW80929   2.304   6.943   0.615 -0.0329  0.0479  0.1201
26784SOL    HW180930   2.296   6.974   0.706  1.0031 -0.1684  0.2999
26784SOL    HW280931   2.241   6.997   0.566  0.6130  1.3617  0.6804
26785SOL     OW80932   2.884   0.776   0.073 -0.0709  0.1139 -0.1929
26785SOL    HW180933   2.793   0.804   0.087 -0.2290  0.2098 -1.2988
26785SOL    HW280934   2.877   0.692   0.028  0.4149 -1.3759  2.3076
26786SOL     OW80935   9.409   5.774   2.965 -0.2132 -0.1791 -0.2223
26786SOL    HW180936   9.487   5.796   3.016  0.2132 -1.4153 -0.3024
26786SOL    HW280937   9.397   5.680   2.980 -2.0370  0.1005  0.2624
26787SOL     OW80938   2.986   9.193   8.166  0.2045  0.2276 -0.1911
26787SOL    HW180939   2.916   9.248   8.202  0.8605  1.9024 -1.3110
26787SOL    HW280940   2.969   9.191   8.072  1.7982  0.9877 -0.5432
26788SOL     OW80941   4.024   3.891   1.411  0.2480  0.4656 -0.4150
26788SOL    HW180942   3.987   3.979   1.417 -2.0550 -0.4632  0.3602
26788SOL    HW280943   4.085   3.886   1.484 -0.3704  1.1048  0.1673
26789SOL     OW80944   3.706   3.204   3.943  0.4415  0.1004 -0.0220
26789SOL    HW180945   3.761   3.277   3.914  0.2791 -0.1073 -0.8810
26789SOL    HW280946   3.757   3.126   3.921  0.9745 -0.0638  1.6154
26790SOL     OW80947   4.808   3.194   6.989  0.1135 -0.3971  0.0040
26790SOL    HW180948   4.775   3.279   6.963 -0.1956 -1.2304 -2.5679
26790SOL    HW280949   4.903   3.204   6.991  0.1494 -0.3048 -1.5836
26791SOL     OW80950   2.992   0.897   2.049 -0.0240  0.8869  0.1529
26791SOL    HW180951   3.042   0.960   1.996  0.8474  1.0320  1.1148
26791SOL    HW280952   2.904   0.898   2.011  0.8628  0.0825 -2.0470
26792SOL     OW80953   1.780   6.766   3.796 -0.3652  0.0401 -0.5888
26792SOL    HW180954   1.758   6.686   3.844  1.1560 -0.0815 -0.0460
26792SOL    HW280955   1.809   6.827   3.863  0.3228  0.3939 -1.2007
26793SOL     OW80956   4.902   3.589   7.787 -0.6420 -0.2852  0.2282
26793SOL    HW180957   4.974   3.576   7.726  0.5271  2.0155  0.9943
26793SOL    HW280958   4.824   3.600   7.732  0.3237  1.4193 -0.8788
26794SOL     OW80959   4.213   0.131   0.005 -0.3679 -0.1927  0.0607
26794SOL    HW180960   4.188   0.177   0.085 -0.9315  0.1271 -0.2934
26794SOL    HW280961   4.143   0.151  -0.057  0.6840  0.6137 -0.9166
26795SOL     OW80962   1.104   1.263   7.454 -0.1514  0.3561  0.2247
26795SOL    HW180963   1.184   1.315   7.455  1.4684 -1.9976  1.0153
26795SOL    HW280964   1.107   1.213   7.535 -1.3954 -1.2578 -0.6684
26796SOL     OW80965   4.237   0.280   6.040 -0.1166  0.5015  0.1216
26796SOL    HW180966   4.258   0.326   5.959  0.2566  0.8933  0.4282
26796SOL    HW280967   4.142   0.282   6.045 -0.1672  0.0376 -0.5461
26797SOL     OW80968   7.171   4.004   2.623 -0.5444  0.2527 -0.4688
26797SOL    HW180969   7.104   4.051   2.673 -0.3386  0.4790 -0.4020
26797SOL    HW280970   7.237   3.979   2.688 -0.3923  0.3406 -0.5861
26798SOL     OW80971   6.425   1.189   1.382  0.0482 -0.5386  0.2207
26798SOL    HW180972   6.360   1.143   1.328 -0.9457  0.0141  0.9124
26798SOL    HW280973   6.397   1.281   1.380  0.9974 -0.2354  0.2826
26799SOL     OW80974   3.275   1.110   7.655  0.2048 -0.0837  0.1288
26799SOL    HW180975   3.206   1.175   7.644  0.8532  1.0536  2.2693
26799SOL    HW280976   3.232   1.037   7.699 -0.2462 -0.6376 -1.1779
26800SOL     OW80977   4.345   7.083   5.041 -0.2793 -0.2718 -0.4102
26800SOL    HW180978   4.333   7.175   5.063  0.3756 -0.2885  0.0278
26800SOL    HW280979   4.327   7.078   4.947 -0.9818  0.1767 -0.3085
26801SOL     OW80980   8.031   7.070   6.497 -0.0267  0.3221 -0.0449
26801SOL    HW180981   7.958   7.024   6.455  0.7134  0.2422 -1.3055
26801SOL    HW280982   8.061   7.132   6.431  2.8463 -1.5891 -0.7357
26802SOL     OW80983   6.752   1.975   3.293  0.1260 -0.3198  0.0108
26802SOL    HW180984   6.832   1.963   3.344  0.5411 -0.9363 -0.7605
26802SOL    HW280985   6.744   2.070   3.284  0.0234 -0.1913  1.2271
26803SOL     OW80986   4.726   7.335   1.396 -0.2261 -0.2571  0.1311
26803SOL    HW180987   4.804   7.280   1.399 -1.5158 -2.2802 -1.4436
26803SOL    HW280988   4.733   7.383   1.313 -1.2991 -1.5585 -0.7590
26804SOL     OW80989   3.995   6.698   5.195 -0.2951  0.4812  0.3598
26804SOL    HW180990   3.904   6.689   5.222 -1.3896  0.4069 -2.8846
26804SOL    HW280991   4.013   6.791   5.201  0.2411  0.2753  3.1182
26805SOL     OW80992   6.169   8.178   2.105 -0.4450 -0.4465  0.6676
26805SOL    HW180993   6.193   8.085   2.099 -1.5035 -0.6584 -0.9947
26805SOL    HW280994   6.220   8.220   2.035 -0.1914  0.1970  1.2214
26806SOL     OW80995   8.272   6.605   8.756 -0.4606  0.3035 -0.1284
26806SOL    HW180996   8.188   6.630   8.794 -0.1230  0.2297  0.6717
26806SOL    HW280997   8.284   6.514   8.781 -0.2560  0.2351 -0.4625
26807SOL     OW80998   8.701   9.684   1.080  0.5498  0.2743 -0.0930
26807SOL    HW180999   8.645   9.648   1.149 -0.9460  1.4364 -0.6362
26807SOL    HW281000   8.787   9.694   1.121 -0.1415  0.3265  1.4126
26808SOL     OW81001   5.829   9.515   8.043 -0.3677  0.0229  0.2059
26808SOL    HW181002   5.908   9.472   8.011  0.8850  1.8015  0.7533
26808SOL    HW281003   5.820   9.485   8.134  0.1447  0.3988  0.3885
26809SOL     OW81004   2.532   2.229   4.543  0.2770 -0.2478  0.4424
26809SOL    HW181005   2.513   2.317   4.511  1.8352  0.9379  2.5558
26809SOL    HW281006   2.490   2.225   4.629  2.4260 -0.5503  1.5315
26810SOL     OW81007   8.851   5.206   7.068  0.4149 -0.2356 -0.4015
26810SOL    HW181008   8.898   5.262   7.007 -1.3331 -1.0342 -2.6070
26810SOL    HW281009   8.799   5.267   7.121 -0.3493  0.3360 -1.7714
26811SOL     OW81010   1.950   1.821   8.055 -0.1210 -0.2937  0.0309
26811SOL    HW181011   1.939   1.734   8.017  0.9492  0.3225 -1.8128
26811SOL    HW281012   1.997   1.806   8.137 -0.4574 -1.4844  0.0215
26812SOL     OW81013   8.823   4.781   9.832 -0.1626 -0.0802 -0.9993
26812SOL    HW181014   8.741   4.740   9.858  0.7468 -0.5832  1.3455
26812SOL    HW281015   8.806   4.875   9.838  0.0347 -0.1255  2.0400
26813SOL     OW81016   7.681   0.226   0.663  0.0967 -0.3869  0.1362
26813SOL    HW181017   7.728   0.232   0.745  2.5097 -1.1281 -1.0946
26813SOL    HW281018   7.656   0.134   0.657  3.0034 -1.2059 -1.4162
26814SOL     OW81019   4.801   7.802   4.014 -0.1304  0.1527 -0.1015
26814SOL    HW181020   4.787   7.743   3.940 -2.2909  1.3685 -0.7588
26814SOL    HW281021   4.880   7.851   3.992 -1.9844  2.2143 -2.9581
26815SOL     OW81022   3.528   3.457   6.441  0.0007  0.4345 -0.2674
26815SOL    HW181023   3.523   3.416   6.355 -2.7810 -2.2037  0.9595
26815SOL    HW281024   3.438   3.454   6.474  1.1461  0.0159  3.2520
26816SOL     OW81025   5.663   2.674   6.759  0.3334 -0.0597 -0.1764
26816SOL    HW181026   5.692   2.683   6.668 -0.7090 -0.9210 -0.6107
26816SOL    HW281027   5.605   2.749   6.774 -0.6553 -0.7097 -0.6971
26817SOL     OW81028   7.958   7.441   4.805 -0.3694 -0.4877 -0.0263
26817SOL    HW181029   7.920   7.354   4.800  1.0416 -1.0730 -1.7900
26817SOL    HW281030   7.974   7.466   4.714 -1.1609  1.8425  0.3916
26818SOL     OW81031   7.357   5.316   7.358  0.0198 -0.5217 -0.1126
26818SOL    HW181032   7.385   5.342   7.270  1.2483 -0.7755  0.1913
26818SOL    HW281033   7.359   5.397   7.409 -1.6686 -0.1664 -0.5182
26819SOL     OW81034   7.647   1.802   3.010 -0.2222 -0.4615 -0.0516
26819SOL    HW181035   7.636   1.753   3.091  0.2962 -2.1208 -0.9202
26819SOL    HW281036   7.688   1.884   3.036  0.0899 -1.0342  1.3433
26820SOL     OW81037   3.582   4.903   7.533  0.2965 -0.3530  0.1847
26820SOL    HW181038   3.534   4.983   7.554 -0.4100 -0.7808  0.2223
26820SOL    HW281039   3.668   4.916   7.571  0.6293  0.9425 -0.9144
26821SOL     OW81040   4.773   9.431   2.352  0.6541  0.6797  0.1019
26821SOL    HW181041   4.830   9.462   2.423 -1.0717  1.3665  1.2587
26821SOL    HW281042   4.738   9.348   2.384 -1.6244  1.8989  0.9877
26822SOL     OW81043   7.493   3.689   9.641 -0.0021 -0.3666  0.0280
26822SOL    HW181044   7.559   3.626   9.611 -0.6468 -1.0508  0.0036
26822SOL    HW281045   7.418   3.635   9.664 -0.7017  0.4317 -0.3328
26823SOL     OW81046   6.975   7.512   1.901  0.1601 -0.5955  0.2458
26823SOL    HW181047   6.990   7.575   1.830  0.9056  1.2009  1.9203
26823SOL    HW281048   7.017   7.432   1.870 -0.9250 -0.3760 -2.0111
26824SOL     OW81049   4.269   2.153   8.287  0.1590  0.5806 -0.4171
26824SOL    HW181050   4.215   2.222   8.248  1.0185  0.7542 -1.3362
26824SOL    HW281051   4.341   2.142   8.225  0.3687 -0.7081  0.0422
26825SOL     OW81052   9.118   4.992   7.421 -0.0133  0.4696  0.0766
26825SOL    HW181053   9.088   4.902   7.437  1.4974 -0.1425 -0.3398
26825SOL    HW281054   9.048   5.031   7.369  0.0110 -1.0266 -1.1845
26826SOL     OW81055   3.206   7.621   0.172  0.3441 -1.0943  0.5134
26826SOL    HW181056   3.237   7.633   0.082 -0.1134  0.8615  0.5515
26826SOL    HW281057   3.273   7.568   0.214  1.5743 -0.3906 -0.4748
26827SOL     OW81058   5.188   2.324   6.094  0.2122 -0.0526 -0.3556
26827SOL    HW181059   5.227   2.288   6.173  1.3465  0.7214 -0.5325
26827SOL    HW281060   5.171   2.416   6.115 -2.3808 -0.5180  0.0010
26828SOL     OW81061   8.689   8.486   5.841 -0.2403 -0.5832 -0.1719
26828SOL    HW181062   8.761   8.478   5.778  0.8118 -0.5495  0.9887
26828SOL    HW281063   8.720   8.442   5.920 -1.5815 -0.7321  0.3014
26829SOL     OW81064   3.264   7.812   3.529 -0.5253  1.2375  0.2902
26829SOL    HW181065   3.326   7.883   3.513  1.9580 -0.2882  2.4793
26829SOL    HW281066   3.286   7.745   3.464  0.5104  0.4993  1.3723
26830SOL     OW81067   6.888   0.792   5.414 -0.3951 -0.0792 -0.0594
26830SOL    HW181068   6.852   0.833   5.492 -2.1883 -0.5557 -0.6023
26830SOL    HW281069   6.913   0.704   5.443 -1.1414 -0.2864 -0.0268
26831SOL     OW81070   4.629   3.436   7.760 -0.0583 -0.1608  0.0261
26831SOL    HW181071   4.557   3.417   7.701  0.6508 -1.5141 -0.4469
26831SOL    HW281072   4.690   3.363   7.748  1.6035  1.1627  0.0797
26832SOL     OW81073   1.833   1.185   2.811  0.1499  0.1837 -0.1534
26832SOL    HW181074   1.872   1.234   2.739 -1.0566 -0.4008 -1.2627
26832SOL    HW281075   1.813   1.099   2.773 -0.7557 -0.0492  0.7951
26833SOL     OW81076   1.545   7.004   2.519 -0.1423 -0.5744  0.2883
26833SOL    HW181077   1.544   7.100   2.521  0.2067 -0.4545 -2.3553
26833SOL    HW281078   1.617   6.980   2.578  0.3809  0.8142  0.2591
26834SOL     OW81079   5.299   6.431   7.738 -0.1183  0.0955 -0.5819
26834SOL    HW181080   5.223   6.413   7.683 -0.2224  0.3658 -0.5247
26834SOL    HW281081   5.347   6.500   7.692  0.2368 -0.2601 -0.7548
26835SOL     OW81082   3.258   5.767   1.051  0.2148  0.4398  0.0260
26835SOL    HW181083   3.280   5.708   1.123 -0.0183 -0.3130 -0.5187
26835SOL    HW281084   3.310   5.736   0.977 -0.8058  0.1759 -0.5942
26836SOL     OW81085   7.533   7.768   4.395  0.4331 -0.5198 -0.3440
26836SOL    HW181086   7.450   7.741   4.434 -0.1367  0.6553 -0.7011
26836SOL    HW281087   7.592   7.781   4.469  0.3588 -1.4985 -0.0993
26837SOL     OW81088   0.005   3.066   2.461  0.5975  0.0432 -0.6648
26837SOL    HW181089   0.101   3.068   2.466  0.5386  0.6354  3.6422
26837SOL    HW281090  -0.019   3.152   2.428  1.5173  0.5763  0.0335
26838SOL     OW81091   5.668   4.315   3.751 -0.9365  0.1946 -0.1078
26838SOL    HW181092   5.709   4.401   3.738  1.1303 -0.6042  0.7014
26838SOL    HW281093   5.702   4.261   3.680 -0.3494 -0.5599  0.7200
26839SOL     OW81094   8.341   3.825   0.480  0.0314 -0.2211 -0.0070
26839SOL    HW181095   8.325   3.759   0.547 -0.8072  1.5668  1.6557
26839SOL    HW281096   8.296   3.903   0.512  1.0502  1.1946 -1.8300
26840SOL     OW81097   5.985   4.346   0.755 -0.4087 -0.5760  0.1577
26840SOL    HW181098   6.026   4.358   0.669 -0.6447 -0.8336  0.0061
26840SOL    HW281099   5.992   4.252   0.772 -0.4145 -0.5338  0.3933
26841SOL     OW81100   8.585   6.645   5.253  0.0094 -0.2677 -0.2111
26841SOL    HW181101   8.494   6.647   5.224 -0.3712 -0.2827  0.9376
26841SOL    HW281102   8.590   6.710   5.323  0.2446 -1.9855  1.4571
26842SOL     OW81103   7.180   5.776   2.345  0.0497  0.2980 -0.4753
26842SOL    HW181104   7.113   5.725   2.392 -0.1987  2.4252  1.6577
26842SOL    HW281105   7.262   5.753   2.389  0.0216  1.2108  0.0768
26843SOL     OW81106   6.199   1.857   9.148 -0.0328 -0.1058  0.6655
26843SOL    HW181107   6.138   1.788   9.172 -0.1494 -0.0695  0.4779
26843SOL    HW281108   6.187   1.868   9.054 -1.6487  1.7055  1.0213
26844SOL     OW81109   5.982   1.959   5.990 -0.2360 -0.6919 -0.4410
26844SOL    HW181110   5.988   2.053   6.005  0.1838 -0.6794 -0.6579
26844SOL    HW281111   5.975   1.921   6.078 -3.9750 -0.2793 -0.4285
26845SOL     OW81112   3.572   0.981   7.043 -0.1506 -0.6262  0.1204
26845SOL    HW181113   3.513   0.945   7.109  1.1212  0.3134  1.8642
26845SOL    HW281114   3.600   1.065   7.079  0.0598  0.2641 -1.9654
26846SOL     OW81115   4.379   8.944   6.325  0.1154  0.2561  0.0762
26846SOL    HW181116   4.352   9.028   6.289  1.7676  0.8789  0.2214
26846SOL    HW281117   4.316   8.926   6.395 -0.1392  1.4616  0.1649
26847SOL     OW81118   1.340   9.854   9.716 -0.2113 -0.1011  0.0873
26847SOL    HW181119   1.311   9.919   9.781 -0.6854  0.0759 -0.2999
26847SOL    HW281120   1.311   9.889   9.632 -0.2595 -0.6980 -0.1486
26848SOL     OW81121   7.015   0.069   7.739 -0.1268  0.2992  0.9474
26848SOL    HW181122   6.987   0.060   7.648 -0.4900  0.0625  1.0808
26848SOL    HW281123   7.017   0.163   7.754 -1.6004  0.3178  1.1590
26849SOL     OW81124   9.701   1.029   9.788  0.2708  0.1379 -0.0321
26849SOL    HW181125   9.656   1.067   9.863 -0.0047  0.9734 -0.6193
26849SOL    HW281126   9.690   0.934   9.799 -1.4815  0.3133 -0.0759
26850SOL     OW81127   4.256   0.605   9.960  0.1755  0.0065  0.4422
26850SOL    HW181128   4.206   0.560   9.891 -0.4317 -1.1290  1.5772
26850SOL    HW281129   4.191   0.627  10.026  0.7067  1.3365  0.5406
26851SOL     OW81130   2.796   9.856   5.981 -0.0740 -0.5063 -0.1482
26851SOL    HW181131   2.829   9.800   6.051 -1.2185  0.1938  1.0038
26851SOL    HW281132   2.773   9.938   6.025  0.5753  0.5104 -1.6118
26852SOL     OW81133   3.168   5.202   4.007  0.4860  0.3817 -0.3042
26852SOL    HW181134   3.135   5.134   3.949 -0.0232  1.6734 -1.5863
26852SOL    HW281135   3.108   5.203   4.081 -0.1879  0.2134 -0.8442
26853SOL     OW81136   5.351   7.937   4.540  0.2829 -0.8405 -0.1255
26853SOL    HW181137   5.349   8.011   4.479 -1.3950  0.1875  1.0941
26853SOL    HW281138   5.443   7.927   4.563  0.4575  1.6915  0.5858
26854SOL     OW81139   5.049   2.105   8.341  0.1654 -0.0271 -0.2639
26854SOL    HW181140   5.142   2.126   8.326  0.2044 -0.3556 -0.4959
26854SOL    HW281141   5.050   2.014   8.372 -0.0987 -0.1318 -0.5564
26855SOL     OW81142   7.618   1.908   1.762  0.3899 -0.0857  0.1630
26855SOL    HW181143   7.557   1.974   1.794  0.0583 -0.4878  0.3749
26855SOL    HW281144   7.587   1.886   1.674  2.1924  2.1302 -1.1118
26856SOL     OW81145   1.621   4.484   2.656 -0.1491  0.3372  0.4782
26856SOL    HW181146   1.693   4.484   2.593 -0.5663 -0.1751 -0.0069
26856SOL    HW281147   1.571   4.405   2.636  0.7610 -0.8968  2.6771
26857SOL     OW81148   9.832   9.864   9.085 -0.1060 -0.4775 -0.4549
26857SOL    HW181149   9.750   9.857   9.135  1.2163  0.4675  2.0016
26857SOL    HW281150   9.867   9.950   9.108  2.0965 -1.2739 -0.6102
26858SOL     OW81151   0.901   9.886   3.938  0.2452  0.1715  0.8707
26858SOL    HW181152   0.818   9.842   3.957 -0.5789  0.7560 -1.1488
26858SOL    HW281153   0.962   9.815   3.918 -0.2180 -0.1762  0.7008
26859SOL     OW81154   6.802   6.520   2.628 -0.4570 -1.0204 -0.2348
26859SOL    HW181155   6.728   6.555   2.579 -0.8254 -3.3329 -1.4726
26859SOL    HW281156   6.764   6.458   2.690  0.3229 -1.2258  0.0531
26860SOL     OW81157   8.338   4.771   2.051 -0.2090  0.3462 -0.0517
26860SOL    HW181158   8.302   4.809   2.131  2.8000 -0.1795  1.7471
26860SOL    HW281159   8.399   4.837   2.018  0.8715 -0.6477 -0.1080
26861SOL     OW81160   1.034   9.888   2.739 -0.6631 -0.2240  0.2154
26861SOL    HW181161   1.025   9.795   2.761  0.7178 -0.9936 -2.1542
26861SOL    HW281162   1.004   9.895   2.649  0.3250  1.4268 -0.0266
26862SOL     OW81163   8.536   4.736   6.554  0.3107 -0.2209 -0.2671
26862SOL    HW181164   8.620   4.735   6.601  1.5625 -0.3525 -2.3344
26862SOL    HW281165   8.533   4.652   6.509 -1.5703 -0.7328  0.7122
26863SOL     OW81166   5.660   2.906   4.093  0.1639  0.1094  0.0531
26863SOL    HW181167   5.700   2.961   4.161 -0.2081 -0.9253  1.1467
26863SOL    HW281168   5.672   2.956   4.012  0.6134  1.3874  0.8667
26864SOL     OW81169   3.953   7.854   8.677 -0.2268 -0.9265  0.3733
26864SOL    HW181170   4.043   7.883   8.696 -0.6684  0.2345  0.7682
26864SOL    HW281171   3.939   7.880   8.586 -0.9750  1.1312  1.0258
26865SOL     OW81172   1.318   8.383   0.162 -0.2489  0.7138  0.5811
26865SOL    HW181173   1.354   8.318   0.101  1.8111  1.3918  0.9899
26865SOL    HW281174   1.395   8.422   0.203 -1.5327  0.9953  2.8887
26866SOL     OW81175   5.945   0.493   8.962  0.2318 -0.3976  0.4902
26866SOL    HW181176   5.952   0.587   8.982  0.7283 -0.4689  0.6811
26866SOL    HW281177   5.945   0.451   9.048  1.5035 -0.6546  0.3897
26867SOL     OW81178   8.838   6.894   9.128 -0.3251 -0.1346  0.0118
26867SOL    HW181179   8.766   6.917   9.069 -2.0910 -0.5471  1.8732
26867SOL    HW281180   8.878   6.978   9.150 -1.2058  0.2918  0.0709
26868SOL     OW81181   9.816   6.229   3.376  0.1491 -0.7697 -0.4997
26868SOL    HW181182   9.901   6.261   3.344 -0.2317  0.2742 -0.5148
26868SOL    HW281183   9.826   6.224   3.471  0.0341 -0.0404 -0.4461
26869SOL     OW81184   5.205   7.089   5.950  0.4032 -0.1335  0.4013
26869SOL    HW181185   5.249   7.110   6.032 -2.0569  2.9694  1.1253
26869SOL    HW281186   5.256   7.134   5.883  0.3896  0.4055  0.7455
26870SOL     OW81187   7.297   6.138   1.847  0.2212  0.8634  0.8248
26870SOL    HW181188   7.345   6.106   1.923  2.9934 -1.0621 -1.5192
26870SOL    HW281189   7.214   6.091   1.849  2.1438 -2.9517  0.2548
26871SOL     OW81190   4.234   4.826   6.640 -0.2334 -0.3152  0.3011
26871SOL    HW181191   4.297   4.863   6.578 -0.7876 -0.9767 -0.6872
26871SOL    HW281192   4.243   4.731   6.629 -1.2679 -0.4238  0.2664
26872SOL     OW81193   7.384   0.100   5.391 -0.1665  0.2518  0.0034
26872SOL    HW181194   7.366   0.155   5.467  2.0581  1.9601 -0.5847
26872SOL    HW281195   7.419   0.160   5.325 -0.0229 -1.4977 -1.6092
26873SOL     OW81196   4.313   7.112   2.369  0.5490 -0.0777  0.1056
26873SOL    HW181197   4.224   7.078   2.370  0.3987  0.1983 -1.3086
26873SOL    HW281198   4.306   7.198   2.411  0.0702  0.0862 -0.2966
26874SOL     OW81199   5.938   9.825   3.621 -0.1412 -0.2257  0.0270
26874SOL    HW181200   5.872   9.796   3.558 -1.2126 -0.1714  1.0686
26874SOL    HW281201   5.887   9.847   3.700  1.0952  0.1793  0.7421
26875SOL     OW81202   0.303   0.692   3.703 -0.3267  0.0076  0.5733
26875SOL    HW181203   0.344   0.673   3.619 -1.0297 -0.3322  0.3022
26875SOL    HW281204   0.348   0.770   3.734  1.1461 -0.8509  0.7115
26876SOL     OW81205   7.636   2.654   6.599  0.4307 -0.2500  0.2357
26876SOL    HW181206   7.712   2.656   6.657  0.0389 -2.1975  0.8591
26876SOL    HW281207   7.587   2.577   6.625 -1.5422  0.6951 -0.4699
26877SOL     OW81208   2.193   6.888   3.640 -0.4658  0.7195  0.1873
26877SOL    HW181209   2.227   6.965   3.687  3.5650 -1.1392  0.6804
26877SOL    HW281210   2.231   6.813   3.686  1.4190 -1.3469 -4.1701
26878SOL     OW81211   6.745   1.932   4.914  0.0804  0.4712  0.5320
26878SOL    HW181212   6.832   1.942   4.953  0.0580 -0.9141  0.9902
26878SOL    HW281213   6.686   1.921   4.989 -0.0208 -1.8316  0.1808
26879SOL     OW81214   6.172   4.185   0.163  0.0900 -0.2326  0.8638
26879SOL    HW181215   6.137   4.274   0.150 -0.1839 -0.2349  1.5689
26879SOL    HW281216   6.169   4.172   0.257  1.3704 -0.4949  0.8841
26880SOL     OW81217   1.888   0.004   4.218  0.1223  0.1761 -0.2129
26880SOL    HW181218   1.946   0.042   4.152  0.6277  0.4021  0.3593
26880SOL    HW281219   1.829   0.076   4.242 -0.2227  0.0250 -0.5891
26881SOL     OW81220   4.430   1.627   7.911  1.1316  0.1662 -0.2302
26881SOL    HW181221   4.364   1.561   7.934  0.8374  0.8667  1.0262
26881SOL    HW281222   4.483   1.637   7.990  1.1521  1.4473 -0.3807
26882SOL     OW81223   3.862   8.755   1.210 -0.0780 -0.4081  0.2969
26882SOL    HW181224   3.877   8.849   1.195 -0.6587 -0.3629 -0.0301
26882SOL    HW281225   3.772   8.740   1.181  0.7603 -1.5528 -1.9887
26883SOL     OW81226   5.585   0.434   1.505  0.1872  0.0458 -0.0149
26883SOL    HW181227   5.501   0.393   1.528  0.8020 -0.2036  1.9308
26883SOL    HW281228   5.635   0.364   1.464 -0.1854 -0.0824 -0.2599
26884SOL     OW81229   1.113   2.453   4.523  0.2681 -0.2878 -0.4081
26884SOL    HW181230   1.054   2.448   4.598 -1.0253  1.1797 -1.2702
26884SOL    HW281231   1.093   2.375   4.471 -0.7488  0.0570 -0.5567
26885SOL     OW81232   3.142   9.672   3.444 -0.4704 -0.0837 -0.0657
26885SOL    HW181233   3.084   9.599   3.425 -0.8223  0.1454  0.1220
26885SOL    HW281234   3.112   9.742   3.385 -0.8044  0.2435  0.4862
26886SOL     OW81235   6.882   9.768   7.461 -0.6012 -0.4828 -0.3124
26886SOL    HW181236   6.790   9.742   7.465 -0.8133  0.3710  0.6681
26886SOL    HW281237   6.913   9.763   7.551  0.2140 -0.3898 -0.5771
26887SOL     OW81238   6.102   2.316   5.251  0.6397  0.5605 -0.1198
26887SOL    HW181239   6.123   2.367   5.329  0.9234  1.2738 -0.6475
26887SOL    HW281240   6.183   2.316   5.200  0.3412  0.4521 -0.6012
26888SOL     OW81241   6.448   0.159   1.609  0.1602 -0.2502 -0.4779
26888SOL    HW181242   6.487   0.244   1.588 -0.6896  0.4527  0.6389
26888SOL    HW281243   6.521   0.105   1.639  0.3754  0.9418  1.2839
26889SOL     OW81244   8.554   7.972   0.973 -0.0795  0.8038  0.2081
26889SOL    HW181245   8.641   7.934   0.961 -0.8390 -0.4640 -1.6114
26889SOL    HW281246   8.553   8.047   0.914 -1.1063 -0.8101 -1.9555
26890SOL     OW81247   9.646   4.120   0.624 -0.5420 -0.1634 -0.4299
26890SOL    HW181248   9.579   4.186   0.642 -0.9756 -0.4865 -0.8555
26890SOL    HW281249   9.719   4.170   0.585 -0.5564  0.1755 -0.0247
26891SOL     OW81250   0.196   0.170   2.024 -0.0311 -0.1095 -0.6091
26891SOL    HW181251   0.156   0.123   2.097 -1.1707 -0.0804 -1.1981
26891SOL    HW281252   0.155   0.133   1.946  1.2283 -0.1958 -1.2548
26892SOL     OW81253   7.106   1.899   9.211  0.3700 -0.4743  0.4910
26892SOL    HW181254   7.184   1.954   9.199  1.7622 -2.6027 -0.8814
26892SOL    HW281255   7.134   1.832   9.274 -0.9228 -0.3467  1.2443
26893SOL     OW81256   5.498   2.676   8.810  0.4867  0.1905  0.2946
26893SOL    HW181257   5.584   2.700   8.775  0.1698  0.4835 -0.3030
26893SOL    HW281258   5.444   2.661   8.732 -0.0676  0.2389  0.6641
26894SOL     OW81259   2.903   9.607   9.517  0.0806  0.6012  0.0163
26894SOL    HW181260   2.816   9.636   9.490 -0.6727 -1.6591 -0.1667
26894SOL    HW281261   2.888   9.546   9.590  1.5224  0.3701  0.1663
26895SOL     OW81262   6.724   5.301   5.403 -0.5651 -0.2943  0.5256
26895SOL    HW181263   6.690   5.356   5.333  1.9885 -0.8884 -1.3039
26895SOL    HW281264   6.808   5.268   5.370  0.6063 -0.8851  3.7219
26896SOL     OW81265   5.129   2.306   3.307  0.0141  0.5794 -0.1244
26896SOL    HW181266   5.130   2.210   3.304 -1.8870  0.4616  1.1090
26896SOL    HW281267   5.179   2.328   3.385 -1.4263  0.4167  0.8972
26897SOL     OW81268   4.079   5.098   3.604  0.4809  0.1797  0.4417
26897SOL    HW181269   4.001   5.050   3.576  1.3557 -0.7296 -0.5202
26897SOL    HW281270   4.046   5.184   3.629 -0.7384  0.1181 -0.8012
26898SOL     OW81271   8.964   5.733   2.542 -0.3594 -0.6066  0.0068
26898SOL    HW181272   8.905   5.754   2.470 -1.0465 -0.5647  0.5762
26898SOL    HW281273   9.009   5.654   2.513  0.0294 -0.0958 -0.8461
26899SOL     OW81274   4.727   7.742   8.544  0.1599  0.0111  0.0598
26899SOL    HW181275   4.714   7.833   8.519 -0.1947  0.2897  1.1714
26899SOL    HW281276   4.718   7.742   8.640  0.7685 -1.0889  0.1373
26900SOL     OW81277   5.015   7.267   3.099 -0.0045 -0.0027  0.2716
26900SOL    HW181278   4.929   7.226   3.102 -0.0461  0.0992  0.5398
26900SOL    HW281279   5.013   7.323   3.022 -1.2362  2.2560  1.8171
26901SOL     OW81280   7.947   5.470   9.361  0.7737 -0.0378  0.1966
26901SOL    HW181281   7.942   5.411   9.437  0.3091  0.5600  0.6395
26901SOL    HW281282   7.873   5.530   9.372  0.9233  0.2912 -0.5343
26902SOL     OW81283   6.837   4.934   9.680  0.1698 -0.1545 -0.1395
26902SOL    HW181284   6.838   4.928   9.585 -0.5074  1.7600 -0.3143
26902SOL    HW281285   6.896   5.007   9.701  1.2074 -1.2720  1.0027
26903SOL     OW81286   7.157   7.959   9.493  0.6578  0.2293  0.7772
26903SOL    HW181287   7.068   7.942   9.524  0.7284 -4.0738 -0.7332
26903SOL    HW281288   7.149   8.036   9.437 -2.1613 -0.0392  0.6919
26904SOL     OW81289   9.830   7.903   3.442 -0.3106  0.3052  0.1370
26904SOL    HW181290   9.744   7.869   3.417 -0.4599  0.4140  0.4984
26904SOL    HW281291   9.888   7.826   3.442 -0.2675  0.3208 -0.6845
26905SOL     OW81292   3.303   5.272   6.597 -0.0886  0.1780 -0.2717
26905SOL    HW181293   3.314   5.355   6.644  3.7799  0.2930 -1.0428
26905SOL    HW281294   3.333   5.205   6.659  0.3917 -0.2006 -0.9044
26906SOL     OW81295   6.457   6.474   5.330  0.1688  0.0545  0.3615
26906SOL    HW181296   6.378   6.465   5.383 -0.2214  0.5960 -0.1239
26906SOL    HW281297   6.511   6.537   5.377 -0.5240  1.1519 -0.2767
26907SOL     OW81298   5.203   8.587   4.716 -0.2074 -0.4631  0.2203
26907SOL    HW181299   5.122   8.545   4.685 -1.1897  0.6549  1.1515
26907SOL    HW281300   5.177   8.631   4.797  0.9310  1.2590 -0.2870
26908SOL     OW81301   9.127   4.998   0.191 -0.3808  0.0366 -0.1836
26908SOL    HW181302   9.179   5.078   0.183  1.1661 -1.0483 -1.9012
26908SOL    HW281303   9.108   4.973   0.101 -0.6352 -1.6412  0.3082
26909SOL     OW81304   3.029   1.925   4.278  0.5223  0.0236 -0.0023
26909SOL    HW181305   3.025   1.957   4.368 -2.6586  2.7274 -0.9045
26909SOL    HW281306   3.021   1.830   4.285 -0.7202  0.2341  2.5536
26910SOL     OW81307   7.714   8.790   2.410  0.1170  0.6243  0.5861
26910SOL    HW181308   7.701   8.696   2.397  0.7123  0.6126  0.0126
26910SOL    HW281309   7.783   8.813   2.348 -0.7162  1.6397  0.0133
26911SOL     OW81310   6.409   3.961   5.919  0.1663  0.5418 -0.3353
26911SOL    HW181311   6.372   4.000   5.998 -1.0357  1.4651 -1.3053
26911SOL    HW281312   6.339   3.905   5.885  0.5130  0.4851 -0.9741
26912SOL     OW81313   7.203   8.963   9.524  0.3394 -0.6518 -0.1412
26912SOL    HW181314   7.268   8.893   9.528  1.1445  0.0838  0.1433
26912SOL    HW281315   7.168   8.959   9.435  1.8038 -0.1841 -0.7700
26913SOL     OW81316   6.291   9.424   6.157  0.0818 -0.3554  0.8527
26913SOL    HW181317   6.219   9.485   6.143  0.4549  0.5094  2.5071
26913SOL    HW281318   6.250   9.337   6.157 -0.7004  0.0011  0.2328
26914SOL     OW81319   7.947   5.503   5.028 -0.7281 -0.4833  0.0894
26914SOL    HW181320   7.873   5.469   4.977 -0.6831 -2.9960  1.5646
26914SOL    HW281321   7.996   5.425   5.053  1.3926  0.9991  0.7481
26915SOL     OW81322   1.379   3.194   9.101  0.3082  0.4399 -0.5443
26915SOL    HW181323   1.372   3.157   9.189 -0.6928  0.6110 -0.5503
26915SOL    HW281324   1.417   3.123   9.048 -0.4297 -0.1523 -0.2869
26916SOL     OW81325   1.457   4.592   7.144  0.0433 -0.1764  0.4795
26916SOL    HW181326   1.447   4.528   7.073  1.6373 -0.0366  0.0919
26916SOL    HW281327   1.412   4.670   7.113  1.9083  0.3525 -1.0238
26917SOL     OW81328   2.328   1.515   9.446 -0.3755  0.3316 -0.1437
26917SOL    HW181329   2.248   1.480   9.487 -0.5945 -1.0993 -1.6754
26917SOL    HW281330   2.298   1.554   9.365  0.4764 -0.3513 -0.8096
26918SOL     OW81331   9.096   3.733   7.232  0.2713  0.6938  0.3020
26918SOL    HW181332   9.124   3.743   7.141  1.0081  0.2284  0.4708
26918SOL    HW281333   9.018   3.789   7.240 -1.2915 -1.1169 -1.2712
26919SOL     OW81334   3.548   1.152   1.041  0.3375  0.3992  0.0401
26919SOL    HW181335   3.569   1.246   1.037  1.8728  0.0339 -2.0078
26919SOL    HW281336   3.613   1.111   0.985 -1.1648 -1.7620 -0.2140
26920SOL     OW81337   3.919   6.885   0.376 -0.1129 -0.0293  0.1852
26920SOL    HW181338   3.919   6.796   0.412 -2.0050 -0.8655 -1.7103
26920SOL    HW281339   4.012   6.905   0.364  0.3503 -2.0032  0.0664
26921SOL     OW81340   6.704   3.651   7.050  0.1988 -0.3157  0.3327
26921SOL    HW181341   6.743   3.711   7.113 -0.2047  1.1067 -0.7218
26921SOL    HW281342   6.773   3.639   6.984 -0.2149  0.1257 -0.1853
26922SOL     OW81343   7.726   9.658   6.023 -0.3169 -0.0598  0.4691
26922SOL    HW181344   7.769   9.728   5.974  1.2501  0.1731  2.0822
26922SOL    HW281345   7.636   9.660   5.992  0.4143  0.5673 -1.8082
26923SOL     OW81346   9.829   9.104   6.844  0.5944 -0.3918 -0.6228
26923SOL    HW181347   9.741   9.136   6.824  0.5926 -2.1518 -4.1875
26923SOL    HW281348   9.819   9.010   6.857  1.8063 -0.4381  0.1721
26924SOL     OW81349   0.823   2.093   4.914 -0.1880 -0.0247  0.1402
26924SOL    HW181350   0.730   2.115   4.908 -0.4212 -1.2280 -1.3338
26924SOL    HW281351   0.857   2.150   4.983 -1.5763  1.9116 -0.6701
26925SOL     OW81352   4.356   0.964   8.369  0.7716 -0.7290  0.0180
26925SOL    HW181353   4.294   0.923   8.429  0.8744  1.9742  2.1661
26925SOL    HW281354   4.301   0.994   8.296 -0.0792 -0.4136  0.7687
26926SOL     OW81355   4.915   5.415   1.694 -0.6650 -0.6284 -0.6300
26926SOL    HW181356   5.005   5.418   1.727 -0.8035 -0.2727 -0.2827
26926SOL    HW281357   4.921   5.359   1.616  0.3025  1.2370 -1.9793
26927SOL     OW81358   2.537   2.246   6.747  0.7054  0.2801  0.0916
26927SOL    HW181359   2.559   2.295   6.826  1.6076  0.7149 -0.4025
26927SOL    HW281360   2.614   2.191   6.731  0.4115 -0.0185 -0.3209
26928SOL     OW81361   3.158   3.111   1.967 -0.7856 -0.0575  0.3444
26928SOL    HW181362   3.202   3.136   2.048 -3.0441 -0.3558  1.7254
26928SOL    HW281363   3.125   3.193   1.930  1.0642  0.2164 -0.8855
26929SOL     OW81364   6.160   6.752   9.553 -0.1141  0.2051  0.4602
26929SOL    HW181365   6.251   6.724   9.541 -0.2942  0.0465 -0.6120
26929SOL    HW281366   6.117   6.730   9.471 -0.8110  1.5339  0.4408
26930SOL     OW81367   4.341   4.142   6.921 -0.3845  0.1395 -0.5956
26930SOL    HW181368   4.311   4.166   7.009  1.0522  1.0894 -0.3098
26930SOL    HW281369   4.320   4.050   6.912  0.3169 -0.2321  1.1567
26931SOL     OW81370   1.638   9.610   5.643 -0.2776 -0.1012  0.5379
26931SOL    HW181371   1.668   9.701   5.647 -0.5238 -0.0361  0.8973
26931SOL    HW281372   1.558   9.608   5.695  0.4266 -0.7976  1.6314
26932SOL     OW81373   4.264   2.579   8.007  0.5695  0.4098 -0.2387
26932SOL    HW181374   4.327   2.522   7.962 -0.2892 -0.4649 -0.3499
26932SOL    HW281375   4.185   2.575   7.953  0.1793  0.9455  0.2821
26933SOL     OW81376   6.479   8.177   3.854  0.2254 -0.2288 -0.0115
26933SOL    HW181377   6.465   8.160   3.761  1.5857 -0.6315 -0.1565
26933SOL    HW281378   6.570   8.204   3.860  0.2562 -0.5619  1.2525
26934SOL     OW81379   4.877   4.140   1.360 -0.3896 -0.2361 -0.3603
26934SOL    HW181380   4.905   4.057   1.322 -1.2310 -1.0177  0.6984
26934SOL    HW281381   4.820   4.116   1.433 -0.5086  1.2669  0.0767
26935SOL     OW81382   5.036   9.760   5.862 -0.1093  0.0592 -0.0840
26935SOL    HW181383   5.066   9.747   5.952  0.2824 -0.4277 -0.2820
26935SOL    HW281384   5.005   9.673   5.835 -1.5409  0.5021  0.0540
26936SOL     OW81385   9.762   5.408   1.678  0.2705  0.3561  0.3262
26936SOL    HW181386   9.776   5.314   1.684  0.0727  0.3501  0.7699
26936SOL    HW281387   9.667   5.419   1.683  0.1181  0.4548 -1.7964
26937SOL     OW81388   7.716   8.067   6.926 -0.5215 -0.6157 -0.2640
26937SOL    HW181389   7.809   8.087   6.937 -0.4661  0.4997 -2.2559
26937SOL    HW281390   7.711   8.020   6.843 -1.8269  0.1373 -0.6420
26938SOL     OW81391   0.727   6.562   2.037  0.7716 -0.2720 -0.3164
26938SOL    HW181392   0.729   6.539   2.130  0.5082  1.2399  0.0816
26938SOL    HW281393   0.819   6.573   2.013  0.9126 -1.7356 -0.5398
26939SOL     OW81394   0.512   3.264   0.325 -0.0862 -0.6408 -0.6294
26939SOL    HW181395   0.485   3.189   0.272  0.3872 -1.7588  0.6542
26939SOL    HW281396   0.525   3.228   0.412 -0.2776  1.0424  0.1305
26940SOL     OW81397   2.820   6.333   4.133 -0.2459 -0.1924 -0.2203
26940SOL    HW181398   2.867   6.250   4.148  1.3842  0.8382  0.6832
26940SOL    HW281399   2.881   6.385   4.080 -1.3522  0.3745 -0.9775
26941SOL     OW81400   3.093   3.346   4.918 -0.3654 -0.5122  0.6498
26941SOL    HW181401   3.071   3.267   4.967 -1.1467  0.0467  1.2185
26941SOL    HW281402   3.182   3.330   4.885 -0.3051 -1.3927  1.2233
26942SOL     OW81403   9.744   6.815   7.215  0.3056 -0.3935  0.1840
26942SOL    HW181404   9.673   6.756   7.239  0.5028 -0.1768  1.3226
26942SOL    HW281405   9.763   6.792   7.124 -1.9257  0.2628 -0.5218
26943SOL     OW81406   8.531   0.461   5.848  0.4683 -0.2052  0.2362
26943SOL    HW181407   8.469   0.535   5.844  2.2631  1.4838  1.8313
26943SOL    HW281408   8.493   0.401   5.911 -0.7423 -0.4371 -0.6652
26944SOL     OW81409   5.395   0.631   7.037 -0.9248 -0.4519 -0.1451
26944SOL    HW181410   5.486   0.604   7.053 -1.0272 -1.1426 -0.6577
26944SOL    HW281411   5.345   0.550   7.042 -1.1015 -0.5895 -2.7913
26945SOL     OW81412   6.771   7.257   2.751 -0.8691  0.1395 -0.3686
26945SOL    HW181413   6.773   7.185   2.814  1.4177  0.2117 -0.2961
26945SOL    HW281414   6.749   7.334   2.804  0.5085  0.1146  0.2719
26946SOL     OW81415   2.823   0.582   2.217  1.0112  0.0734  0.0598
26946SOL    HW181416   2.827   0.677   2.232  1.0653 -0.1424  1.6299
26946SOL    HW281417   2.755   0.570   2.152  1.3731  1.2310 -0.5549
26947SOL     OW81418   0.766   5.272   1.819  0.0887  0.3734  0.8008
26947SOL    HW181419   0.860   5.254   1.823  0.3135  1.5045  0.8231
26947SOL    HW281420   0.725   5.187   1.832  1.1290 -0.4474 -0.8813
26948SOL     OW81421   1.669   7.178   0.804 -0.0609 -0.0663  0.4460
26948SOL    HW181422   1.625   7.094   0.800 -1.3696  0.6414 -1.6622
26948SOL    HW281423   1.709   7.188   0.718  0.6321  1.1907  0.8872
26949SOL     OW81424   7.849   6.530   4.436 -0.2190  0.2629  0.2100
26949SOL    HW181425   7.903   6.543   4.514  0.2875 -0.4931 -0.0043
26949SOL    HW281426   7.769   6.580   4.453 -0.6680 -0.9140  1.7762
26950SOL     OW81427   9.174   6.572   4.254  0.0745 -0.3958 -0.3314
26950SOL    HW181428   9.123   6.601   4.178  2.0635 -1.2931 -2.1093
26950SOL    HW281429   9.212   6.488   4.227  2.9525  0.4945  0.5999
26951SOL     OW81430   0.168   9.622   7.146  0.8228  0.7315 -0.4331
26951SOL    HW181431   0.166   9.541   7.198 -0.9451 -0.6838 -2.5205
26951SOL    HW281432   0.109   9.682   7.192  0.0498 -0.1444 -0.2469
26952SOL     OW81433   3.940   7.790   4.453  0.1179  0.1885  0.4121
26952SOL    HW181434   3.975   7.751   4.533  2.3046  0.5803 -0.2741
26952SOL    HW281435   3.913   7.715   4.400  0.9277 -0.2335  0.5728
26953SOL     OW81436   5.615   2.854   0.618 -0.1608 -0.1759 -0.3976
26953SOL    HW181437   5.567   2.774   0.641 -0.7583  0.5879  1.2020
26953SOL    HW281438   5.556   2.900   0.559 -0.8785  0.1394  0.5226
26954SOL     OW81439   2.760   1.317   2.124  0.0777 -0.3119 -0.7708
26954SOL    HW181440   2.846   1.291   2.158 -0.0163 -1.0638 -1.0963
26954SOL    HW281441   2.774   1.327   2.030 -0.3327 -1.0183 -0.9070
26955SOL     OW81442   8.123   1.390   4.608 -0.3232 -0.0233 -0.5838
26955SOL    HW181443   8.041   1.341   4.611 -0.6126  0.5136  1.0575
26955SOL    HW281444   8.098   1.479   4.586 -0.0566 -0.0946 -1.1886
26956SOL     OW81445   3.708   4.629   1.996  0.4191 -0.0029  0.0114
26956SOL    HW181446   3.651   4.658   2.068  1.2004  1.9373 -0.0859
26956SOL    HW281447   3.648   4.606   1.925 -0.3338 -1.2689  1.0156
26957SOL     OW81448   7.088   8.785   6.026  0.1344 -1.0202  0.5057
26957SOL    HW181449   6.999   8.816   6.008  0.2092 -0.6396  0.7747
26957SOL    HW281450   7.102   8.805   6.119  0.4456 -1.2218  0.5039
26958SOL     OW81451   2.427   8.100   1.941  0.7570 -0.5977 -0.6812
26958SOL    HW181452   2.418   8.192   1.963 -1.5018 -1.1055  0.9536
26958SOL    HW281453   2.431   8.098   1.846 -1.0016  1.1281 -0.8573
26959SOL     OW81454   1.341   1.778   5.026 -0.0216  0.3630 -0.3271
26959SOL    HW181455   1.261   1.736   5.058 -1.0079  0.0327 -2.9714
26959SOL    HW281456   1.340   1.864   5.068 -0.5390 -0.4399  1.4124
26960SOL     OW81457   3.436   2.990   2.754 -0.0255 -0.1474 -0.5134
26960SOL    HW181458   3.500   3.029   2.813 -0.7821 -0.4432  0.5248
26960SOL    HW281459   3.442   2.896   2.770 -0.5648 -0.1937 -0.5490
26961SOL     OW81460   2.184   2.525   4.349  0.3479  0.5208  0.5683
26961SOL    HW181461   2.162   2.612   4.384 -0.3325  0.8624 -0.6698
26961SOL    HW281462   2.107   2.472   4.367  0.8312  0.1016  1.4809
26962SOL     OW81463   4.424   0.755   8.200  0.5428  0.4090 -0.0498
26962SOL    HW181464   4.493   0.807   8.159 -0.2840  1.9477  0.4614
26962SOL    HW281465   4.408   0.798   8.284  0.7904 -1.4994  1.0292
26963SOL     OW81466   3.462   1.347   5.666 -0.0532  0.1252 -0.2877
26963SOL    HW181467   3.496   1.263   5.637 -1.7990 -0.1701 -1.6757
26963SOL    HW281468   3.488   1.409   5.597 -1.1851  0.1295 -0.7400
26964SOL     OW81469   9.543   8.662   4.085  0.0971  0.5964 -0.5661
26964SOL    HW181470   9.451   8.635   4.085 -0.1059  1.2310  0.2179
26964SOL    HW281471   9.561   8.682   4.177  0.8289  1.1090 -0.8194
26965SOL     OW81472   3.847   7.366   4.382 -0.5128 -0.1878 -0.4458
26965SOL    HW181473   3.865   7.293   4.323 -2.6930 -0.1044 -1.3122
26965SOL    HW281474   3.831   7.326   4.467 -1.7872 -0.7709 -0.9383
26966SOL     OW81475   1.688   3.247   8.740  0.5379  0.8545  0.4590
26966SOL    HW181476   1.737   3.206   8.670 -0.9708  1.1910 -0.8466
26966SOL    HW281477   1.709   3.195   8.818  0.0814 -1.3244 -0.7770
26967SOL     OW81478   1.073   3.930   0.797 -0.7530 -0.0660 -0.1055
26967SOL    HW181479   1.014   3.873   0.847  1.2504 -0.6785  1.7563
26967SOL    HW281480   1.028   4.014   0.793 -2.0884 -0.7210  0.5666
26968SOL     OW81481   9.536   6.895   5.803 -0.2703  0.2091 -0.0212
26968SOL    HW181482   9.630   6.913   5.808 -0.2558  1.9705 -3.8835
26968SOL    HW281483   9.496   6.961   5.859  0.6577  1.3997 -0.7354
26969SOL     OW81484   8.630   3.984   9.018  0.5160  0.2619  0.4054
26969SOL    HW181485   8.592   3.911   8.968  0.0413  1.7201 -1.4825
26969SOL    HW281486   8.644   4.053   8.953  0.4551  2.0620  2.2056
26970SOL     OW81487   5.844   8.283   5.922  0.0302  0.0523 -0.4205
26970SOL    HW181488   5.852   8.274   5.827 -0.7529  1.2349 -0.6280
26970SOL    HW281489   5.863   8.196   5.957  1.1363 -0.2088 -1.6040
26971SOL     OW81490   5.622   6.379   2.792 -0.4430 -0.4136 -0.1384
26971SOL    HW181491   5.712   6.360   2.766 -1.1245 -1.8122 -1.6746
26971SOL    HW281492   5.578   6.403   2.711 -1.5950 -0.3150  0.4957
26972SOL     OW81493   9.590   5.513   4.169  0.6659  0.6610  0.1742
26972SOL    HW181494   9.565   5.576   4.236 -0.9089  0.9422 -0.6314
26972SOL    HW281495   9.673   5.476   4.200  0.8707  2.0552  1.3755
26973SOL     OW81496   9.686   4.210   9.394  0.1913  0.0180 -0.5079
26973SOL    HW181497   9.606   4.180   9.352  0.2311 -0.5268 -0.2070
26973SOL    HW281498   9.656   4.249   9.477  0.3598 -1.7603  0.4350
26974SOL     OW81499   2.290   2.005   2.193 -0.2311 -0.0367  0.5762
26974SOL    HW181500   2.300   2.100   2.201 -0.2977  0.0278 -0.0570
26974SOL    HW281501   2.364   1.979   2.138 -0.8460 -0.1957 -0.1906
26975SOL     OW81502   1.706   5.867   3.109  0.2420 -0.3262  0.0483
26975SOL    HW181503   1.644   5.842   3.176  0.5397 -0.3159  0.3294
26975SOL    HW281504   1.660   5.933   3.057  0.2258  0.1124  0.6123
26976SOL     OW81505   2.235   1.107   7.912 -0.1398  0.2822  0.4108
26976SOL    HW181506   2.229   1.202   7.927  0.5881  0.9857 -2.8668
26976SOL    HW281507   2.321   1.082   7.946  1.2964  1.6604 -1.9188
26977SOL     OW81508   4.907   3.002   3.596 -0.1146 -0.5591  0.1681
26977SOL    HW181509   4.854   3.075   3.626  1.9319  1.3754 -0.6391
26977SOL    HW281510   4.848   2.949   3.542 -1.3901  1.1275 -0.1666
26978SOL     OW81511   5.079   4.448   2.618 -0.5173  0.2402  0.4020
26978SOL    HW181512   5.006   4.509   2.628 -1.9326 -1.2215 -0.4295
26978SOL    HW281513   5.116   4.440   2.706 -2.1493  0.0980  1.1154
26979SOL     OW81514   5.202   3.993   0.038  0.1624 -0.3169  0.1776
26979SOL    HW181515   5.185   3.926   0.105  0.7900  0.1377  0.8107
26979SOL    HW281516   5.177   4.075   0.080 -1.0489 -0.1684 -0.7565
26980SOL     OW81517   5.491   4.507   0.313  0.2445 -0.6837 -0.5643
26980SOL    HW181518   5.514   4.417   0.292  0.2053 -1.3326  1.8870
26980SOL    HW281519   5.432   4.501   0.388  0.3464  1.3933 -0.2377
26981SOL     OW81520   0.422   2.387   0.243 -0.2555  1.2617 -0.6269
26981SOL    HW181521   0.460   2.390   0.330  0.4641  0.5184 -0.9044
26981SOL    HW281522   0.370   2.467   0.237 -3.3604 -0.3536  1.8320
26982SOL     OW81523   5.388   4.296   2.370 -0.1334  0.1014  0.4529
26982SOL    HW181524   5.394   4.257   2.283 -4.3833 -2.0706  0.8500
26982SOL    HW281525   5.466   4.349   2.378  1.4723 -1.1773 -3.8680
26983SOL     OW81526   6.515   6.819   1.812 -0.2752  0.2664 -0.4671
26983SOL    HW181527   6.571   6.895   1.794 -0.7819  1.0375  1.0568
26983SOL    HW281528   6.432   6.840   1.769  0.1634 -0.2707 -1.5968
26984SOL     OW81529   5.879   8.975   9.616  0.1213 -0.0994  0.1720
26984SOL    HW181530   5.956   8.930   9.652  1.3961  0.8223 -1.2377
26984SOL    HW281531   5.883   9.063   9.654 -1.0228 -0.4456  1.1208
26985SOL     OW81532  -0.003   0.852   1.504 -0.5214 -0.2973 -0.4729
26985SOL    HW181533   0.015   0.935   1.459 -1.9086 -0.0665 -0.6380
26985SOL    HW281534   0.053   0.788   1.460 -0.2714  0.3361 -1.0992
26986SOL     OW81535   0.335   6.723   4.999 -0.2799 -0.3372  0.8321
26986SOL    HW181536   0.340   6.634   4.966  0.1632 -0.1677  0.4270
26986SOL    HW281537   0.426   6.745   5.020 -0.1760  0.5210 -0.4253
26987SOL     OW81538   7.386   9.711   4.632  0.2915 -0.2240  0.4138
26987SOL    HW181539   7.384   9.679   4.541 -1.8833  0.1877  0.2639
26987SOL    HW281540   7.301   9.754   4.644  1.4948  1.9063  1.8962
26988SOL     OW81541   2.914   0.140   6.219  0.1739 -0.3832 -0.2067
26988SOL    HW181542   2.844   0.138   6.153 -0.0972  0.0224  0.0655
26988SOL    HW281543   2.898   0.220   6.268  1.8789  0.6551 -1.2691
26989SOL     OW81544   1.125   4.989   1.273  0.5047 -0.4545  0.5453
26989SOL    HW181545   1.198   5.040   1.237  1.9529 -2.1700  0.9006
26989SOL    HW281546   1.162   4.945   1.349 -0.2777 -3.0319 -0.4533
26990SOL     OW81547   4.174   5.429   8.153  0.2426  0.1923 -0.2797
26990SOL    HW181548   4.189   5.398   8.064 -1.1148 -0.4767 -0.2930
26990SOL    HW281549   4.245   5.492   8.169  0.8277 -0.1052 -1.6147
26991SOL     OW81550   2.985   1.505   0.862  0.7296 -0.0957  0.3679
26991SOL    HW181551   2.925   1.536   0.794  2.2692 -1.2742 -1.6380
26991SOL    HW281552   3.046   1.577   0.876  0.6804 -0.0180  0.1809
26992SOL     OW81553   0.308   9.739   6.552 -0.5725 -0.4294 -0.0817
26992SOL    HW181554   0.319   9.829   6.522  0.3332 -0.5926 -0.2710
26992SOL    HW281555   0.382   9.692   6.514 -0.4855 -1.0546  0.8237
26993SOL     OW81556   5.026   6.953   8.282  0.2069  0.2402 -0.1179
26993SOL    HW181557   4.954   7.006   8.247 -0.4291  0.0137  0.7811
26993SOL    HW281558   5.105   6.993   8.247 -0.3441  0.6208 -0.9789
26994SOL     OW81559   9.048   0.224   6.800  0.0547  0.5360 -0.1321
26994SOL    HW181560   9.115   0.189   6.859 -0.2182  0.4924  0.1551
26994SOL    HW281561   8.967   0.179   6.826  0.6146 -2.9445 -3.3802
26995SOL     OW81562   4.820   2.607   9.048 -0.0478  0.4886 -0.7965
26995SOL    HW181563   4.743   2.550   9.047 -0.4372  1.0161 -1.4863
26995SOL    HW281564   4.796   2.681   8.991 -0.1648  2.1421  1.2651
26996SOL     OW81565   2.813   7.929   1.445  0.4799  0.0079 -0.1680
26996SOL    HW181566   2.775   7.842   1.432  0.6554 -0.0501 -0.2933
26996SOL    HW281567   2.863   7.945   1.365  2.0768 -0.6178  0.6621
26997SOL     OW81568   9.042   1.915   2.274 -0.1848 -0.3229  0.4071
26997SOL    HW181569   8.992   1.981   2.226  0.6310 -0.2664 -0.3796
26997SOL    HW281570   9.127   1.913   2.231  0.3784 -0.6852  1.4937
26998SOL     OW81571   8.002   2.723   4.181 -0.5557  0.4018 -0.0344
26998SOL    HW181572   7.935   2.724   4.249  0.8527 -0.1980  1.4202
26998SOL    HW281573   7.970   2.785   4.115 -2.1419  0.7191  0.9777
26999SOL     OW81574   2.145   1.714   0.060  0.6425  0.3838  0.2006
26999SOL    HW181575   2.234   1.698   0.028  0.2604  0.8561 -1.1410
26999SOL    HW281576   2.095   1.638   0.029  1.1836 -1.6897  3.8247
27000SOL     OW81577   5.276   7.798   4.781  0.4974 -0.4951 -0.1481
27000SOL    HW181578   5.192   7.795   4.735  0.3039 -0.3642  0.1976
27000SOL    HW281579   5.328   7.861   4.731  0.3596 -0.5007 -0.3019
27001SOL     OW81580   6.757   0.851   3.801 -1.0438  0.4556 -0.2151
27001SOL    HW181581   6.810   0.921   3.839 -0.0036 -1.5595  2.3768
27001SOL    HW281582   6.760   0.866   3.707 -0.5166  3.5916  0.2135
27002SOL     OW81583   2.727   4.591   9.912  0.3123  0.1504 -1.0433
27002SOL    HW181584   2.716   4.685   9.901  1.4688  0.1688 -2.2849
27002SOL    HW281585   2.755   4.581  10.003 -0.7750  0.8893 -0.6053
27003SOL     OW81586   7.301   8.599   9.314  0.0060 -0.2495  0.2822
27003SOL    HW181587   7.374   8.662   9.316 -0.4844  0.4522 -1.6541
27003SOL    HW281588   7.321   8.543   9.239 -1.2902 -0.2294 -0.0902
27004SOL     OW81589   8.509   9.172   0.039 -0.2168  0.1498 -0.6663
27004SOL    HW181590   8.421   9.189   0.072 -0.2871  1.7114 -1.5492
27004SOL    HW281591   8.503   9.188  -0.055  1.1197  0.8449 -0.6623
27005SOL     OW81592   6.121   1.747   0.441 -0.1628  0.6770 -0.0620
27005SOL    HW181593   6.159   1.825   0.481  1.2350 -0.5131  1.0807
27005SOL    HW281594   6.197   1.692   0.421 -1.1040 -0.3358 -0.9410
27006SOL     OW81595   6.638   5.204   6.492 -0.9031 -0.3571 -0.3759
27006SOL    HW181596   6.696   5.250   6.431 -0.4416 -0.8416 -0.3136
27006SOL    HW281597   6.566   5.173   6.438  0.0710 -1.7786 -0.9331
27007SOL     OW81598   5.441   7.812   0.202 -0.0970 -0.2625  0.0442
27007SOL    HW181599   5.369   7.827   0.263 -0.2449 -0.8459  0.0151
27007SOL    HW281600   5.519   7.842   0.250 -0.0434 -1.8189  1.0038
27008SOL     OW81601   5.257   9.907   6.083 -0.2859 -0.2956 -0.2636
27008SOL    HW181602   5.219   9.968   6.019 -0.1653 -0.3158 -0.3558
27008SOL    HW281603   5.187   9.891   6.145 -0.6597 -0.8806 -0.8228
27009SOL     OW81604   5.126   0.233   9.624 -0.4643  0.0479  0.0057
27009SOL    HW181605   5.053   0.277   9.666 -0.7241 -1.4437  1.2079
27009SOL    HW281606   5.161   0.297   9.561 -0.6507  2.0160  1.8188
27010SOL     OW81607   4.970   0.909   2.586  0.5282  0.2492  0.2058
27010SOL    HW181608   5.019   0.871   2.513  2.2271 -2.2702  2.4458
27010SOL    HW281609   5.017   0.989   2.608  1.6884 -0.4329  0.2572
27011SOL     OW81610   9.274   5.815   9.396  0.0854  0.0976 -0.2211
27011SOL    HW181611   9.246   5.834   9.306 -0.2128 -0.8341 -0.3294
27011SOL    HW281612   9.200   5.843   9.450 -0.1028 -0.1839 -0.3335
27012SOL     OW81613   6.199   9.806   0.477 -0.1712 -0.2667 -0.1793
27012SOL    HW181614   6.258   9.806   0.552 -0.4298  2.2202  0.1369
27012SOL    HW281615   6.112   9.819   0.515 -0.3094  0.9621 -0.8529
27013SOL     OW81616   9.141   4.719   8.031  0.2093  0.3121 -0.3977
27013SOL    HW181617   9.145   4.632   8.072 -1.8622  0.4517  0.2443
27013SOL    HW281618   9.191   4.776   8.090  2.5274 -0.5775 -1.3903
27014SOL     OW81619   7.063   1.812   5.583 -0.2233 -0.0491  0.1161
27014SOL    HW181620   6.997   1.749   5.555 -0.3813  0.1532  0.0249
27014SOL    HW281621   7.044   1.891   5.531 -2.3838  1.3573  2.7852
27015SOL     OW81622   2.567   9.917   6.592 -0.2719  0.8751  0.1416
27015SOL    HW181623   2.626   9.843   6.601  0.9872  1.7845 -0.2807
27015SOL    HW281624   2.493   9.885   6.541 -0.6682 -0.5652  1.5520
27016SOL     OW81625   6.189   5.335   6.845  0.3814  0.9967  0.0113
27016SOL    HW181626   6.204   5.357   6.754  2.1199  0.2515  0.0972
27016SOL    HW281627   6.223   5.246   6.855 -3.0166 -0.3938  0.5784
27017SOL     OW81628   4.314   8.458   2.921  0.0357 -0.1329 -0.5890
27017SOL    HW181629   4.325   8.547   2.955  0.6144 -0.2877 -0.3523
27017SOL    HW281630   4.221   8.439   2.930 -0.0869  0.4493 -0.6411
27018SOL     OW81631   2.457   5.992   9.362 -0.2128  0.0080  0.0295
27018SOL    HW181632   2.405   6.066   9.332  1.9075  1.3721 -0.5605
27018SOL    HW281633   2.492   5.954   9.282 -0.1288 -0.7219  0.4104
27019SOL     OW81634   3.214   6.193   6.419 -0.7524  0.7411  0.1747
27019SOL    HW181635   3.191   6.106   6.451 -0.2633  1.0589  1.4398
27019SOL    HW281636   3.133   6.244   6.429 -0.8273  0.6342  0.1216
27020SOL     OW81637   8.638   9.155   4.845  0.1462  0.0657  0.1430
27020SOL    HW181638   8.626   9.099   4.922 -1.3906  0.1617  0.0077
27020SOL    HW281639   8.554   9.199   4.835  0.1215 -0.3546 -1.9189
27021SOL     OW81640   1.113   4.014   7.146  0.1974  0.1085 -0.1654
27021SOL    HW181641   1.129   4.108   7.155  1.4736 -0.1140  0.0666
27021SOL    HW281642   1.083   3.986   7.232  0.5714  0.1688 -0.0141
27022SOL     OW81643   9.259   2.054   4.029 -0.0000 -0.1336 -0.5662
27022SOL    HW181644   9.245   2.036   4.122 -1.1378 -1.8631 -1.0310
27022SOL    HW281645   9.188   2.113   4.005  0.5702  0.6929 -0.2443
27023SOL     OW81646   2.004   8.123   5.688  0.0480 -0.6733  0.1027
27023SOL    HW181647   1.946   8.070   5.742 -0.2018  0.2531  0.7717
27023SOL    HW281648   2.064   8.060   5.648  1.2469 -1.2884  2.6647
27024SOL     OW81649   1.411   4.688   6.188  0.4099  0.1032 -0.1179
27024SOL    HW181650   1.446   4.759   6.242 -1.7702  0.4200  1.0115
27024SOL    HW281651   1.392   4.729   6.103 -0.0386  0.6713  0.2524
27025SOL     OW81652   8.019   4.109   7.527  0.0815  0.0705  0.0983
27025SOL    HW181653   8.048   4.181   7.583  1.3245 -0.3609  0.0344
27025SOL    HW281654   8.061   4.031   7.564 -2.0673 -0.8228  0.8048
27026SOL     OW81655   8.042   4.046   5.261 -0.5280 -0.0187  0.0255
27026SOL    HW181656   8.052   4.118   5.198 -0.6433 -0.1316 -0.1233
27026SOL    HW281657   7.958   4.064   5.303 -2.0134 -1.6065 -2.0349
27027SOL     OW81658   9.912   4.212   2.926 -0.2650 -0.0786 -0.1166
27027SOL    HW181659   9.880   4.257   3.004  2.2124  1.2457  0.2428
27027SOL    HW281660   9.973   4.147   2.960 -0.0009 -0.2416 -0.8937
27028SOL     OW81661   5.130   0.093   5.092 -0.3666 -0.7287  0.6618
27028SOL    HW181662   5.204   0.033   5.092  1.9959  1.9771  1.2257
27028SOL    HW281663   5.113   0.110   4.999  0.5234 -0.5087  0.5290
27029SOL     OW81664   1.634   8.693   5.828  0.2296  0.7210 -0.1340
27029SOL    HW181665   1.689   8.720   5.902 -1.9029  1.1906  1.3490
27029SOL    HW281666   1.605   8.605   5.850 -0.0021  0.6647 -0.6552
27030SOL     OW81667   3.374   3.933   9.631  0.2264  0.6862 -0.0520
27030SOL    HW181668   3.374   3.913   9.537  0.2478  0.5722 -0.0277
27030SOL    HW281669   3.286   3.910   9.661  0.0107  1.3305 -0.1738
27031SOL     OW81670   4.177   5.058   3.004  0.3036 -0.5565 -0.2224
27031SOL    HW181671   4.131   5.107   3.072 -0.3377 -1.1323 -0.2362
27031SOL    HW281672   4.269   5.060   3.032  0.1452 -0.1778  0.2857
27032SOL     OW81673   6.522   5.097   6.735 -0.1666 -0.4586  0.2165
27032SOL    HW181674   6.566   5.151   6.670  1.7991  0.5420  2.2583
27032SOL    HW281675   6.537   5.007   6.705 -2.1535 -0.0493 -2.3864
27033SOL     OW81676   8.561   8.885   6.784 -0.1920  0.2278 -0.0188
27033SOL    HW181677   8.487   8.946   6.784  0.0643  0.5368  0.0800
27033SOL    HW281678   8.628   8.928   6.837 -0.8033 -1.0890  1.9571
27034SOL     OW81679   2.894   4.491   0.973 -0.4493  0.4494 -0.3063
27034SOL    HW181680   2.887   4.441   0.891  0.5805  1.0475 -0.7682
27034SOL    HW281681   2.869   4.580   0.949 -1.2459  0.4001  0.2910
27035SOL     OW81682   6.122   4.096   7.168 -0.0144 -0.1795 -0.0443
27035SOL    HW181683   6.127   4.078   7.074  1.7596 -0.0892 -0.0038
27035SOL    HW281684   6.146   4.189   7.176 -1.0947  0.0687  0.4262
27036SOL     OW81685   0.719   5.834   8.947 -0.1126  0.4234 -0.0817
27036SOL    HW181686   0.647   5.832   9.011 -0.7221  1.1122 -0.7222
27036SOL    HW281687   0.686   5.782   8.873  0.8252 -0.8874  0.3753
27037SOL     OW81688   2.979   5.104   4.244  0.0014 -0.0231  0.0859
27037SOL    HW181689   3.008   5.173   4.303 -2.0820  1.8129 -0.9327
27037SOL    HW281690   2.970   5.027   4.301  1.5349  0.7072  1.4073
27038SOL     OW81691   5.106   6.925   1.352 -0.0338  0.3478  0.2321
27038SOL    HW181692   5.178   6.979   1.384  0.7460 -0.3749 -0.2618
27038SOL    HW281693   5.058   6.899   1.430 -0.4811  1.8043  0.4797
27039SOL     OW81694   5.005   1.124   8.079  0.2759  1.0054  1.2993
27039SOL    HW181695   5.047   1.043   8.052 -1.5103 -0.2971  2.2740
27039SOL    HW281696   4.918   1.121   8.041  0.3270  2.7399  0.9270
27040SOL     OW81697   7.774   6.341   0.320  0.0881 -0.9467 -0.2168
27040SOL    HW181698   7.703   6.363   0.259 -0.8686 -0.2551  1.0885
27040SOL    HW281699   7.757   6.395   0.397  3.7219  1.4714 -0.9015
27041SOL     OW81700   5.351   8.407   7.127  1.0210 -0.9429 -0.0767
27041SOL    HW181701   5.346   8.311   7.124  0.0445 -0.9611 -4.0514
27041SOL    HW281702   5.436   8.428   7.089  0.6519 -0.2456 -0.5415
27042SOL     OW81703   5.814   3.835   3.950 -0.0779 -0.3511  0.2126
27042SOL    HW181704   5.856   3.827   4.036 -1.2307 -0.7604  0.7602
27042SOL    HW281705   5.732   3.881   3.968  0.6521  1.5273 -1.0145
27043SOL     OW81706   1.160   3.845   8.893 -0.0679 -0.3311  0.1493
27043SOL    HW181707   1.189   3.926   8.935 -1.6516  0.2537  0.1681
27043SOL    HW281708   1.162   3.780   8.963  1.9878 -0.5425 -0.0462
27044SOL     OW81709   9.294   1.098   1.057 -0.0147  0.1793  0.4398
27044SOL    HW181710   9.351   1.170   1.085  0.5971 -0.3701  0.6454
27044SOL    HW281711   9.318   1.025   1.115  0.4364 -0.6321 -0.7315
27045SOL     OW81712   3.989   9.273   0.064  0.0750 -0.3890  0.4869
27045SOL    HW181713   3.920   9.318   0.016 -0.1440 -1.6350 -0.4271
27045SOL    HW281714   3.943   9.227   0.134  0.3182  0.9049  1.5266
27046SOL     OW81715   3.967   1.721   4.530 -0.2544  0.1596 -0.0670
27046SOL    HW181716   3.966   1.775   4.609 -0.2145  0.2833 -0.1501
27046SOL    HW281717   3.875   1.702   4.512 -0.3353  0.9848 -0.5701
27047SOL     OW81718   0.339   2.340   4.210  0.0513 -0.0758 -0.2766
27047SOL    HW181719   0.371   2.408   4.151  0.9758  0.4791  0.8355
27047SOL    HW281720   0.416   2.287   4.230 -0.2629 -0.2818  0.4114
27048SOL     OW81721   9.193   1.135   7.219 -0.4479  0.0842 -0.8455
27048SOL    HW181722   9.153   1.083   7.149 -1.2674  1.1010 -1.1627
27048SOL    HW281723   9.257   1.076   7.259 -1.1823 -1.0832 -1.3320
27049SOL     OW81724   0.009   1.752   3.251  0.2383  0.2205  0.1848
27049SOL    HW181725   0.098   1.724   3.271  0.2889 -0.5525 -0.9723
27049SOL    HW281726  -0.039   1.739   3.333  1.0954  0.2430  0.7025
27050SOL     OW81727   0.287   4.955   2.935 -0.2798 -0.1245  0.0446
27050SOL    HW181728   0.251   5.034   2.976 -0.1812 -0.0053 -0.0972
27050SOL    HW281729   0.309   4.897   3.008 -2.2603 -0.8798  0.1348
27051SOL     OW81730   4.825   3.763   0.552 -0.4099 -0.1675 -0.0280
27051SOL    HW181731   4.838   3.856   0.570 -0.4612  0.0465 -1.0468
27051SOL    HW281732   4.870   3.718   0.624 -0.4850  0.6364  0.5382
27052SOL     OW81733   6.071   1.534   1.479  0.7847 -0.7054 -0.6379
27052SOL    HW181734   6.117   1.545   1.562  0.8898  0.8120 -0.8671
27052SOL    HW281735   6.102   1.451   1.445  2.0464 -0.5371  0.0427
27053SOL     OW81736   4.319   5.683   8.883  0.0583  0.4942  0.0263
27053SOL    HW181737   4.391   5.671   8.821  0.4000  0.0517  0.5052
27053SOL    HW281738   4.241   5.656   8.834 -0.0806  2.7734 -1.1447
27054SOL     OW81739   1.928   4.288   8.828  0.3362 -0.3295 -0.2735
27054SOL    HW181740   2.014   4.287   8.870  0.6242  0.3427 -0.8261
27054SOL    HW281741   1.870   4.247   8.892  0.7809  0.5830  0.7414
27055SOL     OW81742   1.556   1.056   8.511 -0.0153  0.5697  0.2602
27055SOL    HW181743   1.502   1.024   8.584  0.6888  0.3863  0.7102
27055SOL    HW281744   1.645   1.029   8.534  0.1882  0.3163 -0.7796
27056SOL     OW81745   1.136   0.376   5.948 -0.0746  0.1180  0.2564
27056SOL    HW181746   1.058   0.356   6.000  0.3490 -2.1141  0.1354
27056SOL    HW281747   1.200   0.409   6.012 -0.4295 -0.0670  0.7059
27057SOL     OW81748   3.922   7.113   0.896  0.0271  0.0963 -0.0367
27057SOL    HW181749   3.842   7.084   0.854 -1.2745  1.5664  1.2851
27057SOL    HW281750   3.922   7.069   0.981  0.1611  0.7369  0.3045
27058SOL     OW81751   9.552   5.671   4.976  0.2453  0.1817 -0.2202
27058SOL    HW181752   9.561   5.578   4.954  0.0043  0.0064  0.4208
27058SOL    HW281753   9.605   5.682   5.055  2.1563  1.0766 -1.5268
27059SOL     OW81754   3.627   3.521   6.836 -0.0661  0.0932  0.8355
27059SOL    HW181755   3.545   3.566   6.814  0.5411  0.2301 -1.3486
27059SOL    HW281756   3.691   3.591   6.845  0.7263 -0.1753 -1.8837
27060SOL     OW81757   6.955   4.669   4.522 -0.3322 -0.0642  0.0027
27060SOL    HW181758   6.976   4.637   4.610 -0.4711  0.4536  0.2261
27060SOL    HW281759   6.926   4.591   4.475 -1.4453 -0.1320  0.7740
27061SOL     OW81760   4.401   3.681   2.498  0.4271 -0.4304  0.3330
27061SOL    HW181761   4.479   3.642   2.456  0.8700  0.4223  0.3389
27061SOL    HW281762   4.436   3.751   2.553 -0.2886 -0.5630  0.9672
27062SOL     OW81763   8.816   0.697   7.601 -0.3642  0.2435  0.2781
27062SOL    HW181764   8.824   0.790   7.581 -0.6662  0.4737  1.1611
27062SOL    HW281765   8.878   0.682   7.672  0.9337 -0.6194 -0.9987
27063SOL     OW81766   9.829   3.683   4.795 -0.1377  0.1093  0.3518
27063SOL    HW181767   9.874   3.644   4.721 -1.4230 -0.8858  0.0517
27063SOL    HW281768   9.864   3.772   4.801 -0.7846  0.6084 -2.1345
27064SOL     OW81769   9.869   2.409   0.111 -0.4231 -0.0496  0.2092
27064SOL    HW181770   9.919   2.342   0.064 -0.8957 -0.4765  0.3170
27064SOL    HW281771   9.935   2.474   0.135  0.2744 -1.0830  1.2248
27065SOL     OW81772   9.926   0.150   6.682  0.6452 -0.0604 -0.2896
27065SOL    HW181773   9.950   0.058   6.672  0.5839 -0.2255  0.9116
27065SOL    HW281774   9.836   0.148   6.715  0.7546  0.4240  0.0454
27066SOL     OW81775   0.428   7.736   0.992 -0.9934 -0.7062 -0.5495
27066SOL    HW181776   0.480   7.815   1.008 -2.3554  0.2259 -0.5376
27066SOL    HW281777   0.490   7.664   1.005  0.5558  0.3636 -1.5398
27067SOL     OW81778   3.264   6.222   5.830 -0.1433  0.3345  0.2637
27067SOL    HW181779   3.350   6.203   5.867  0.4927  1.1407 -0.7520
27067SOL    HW281780   3.242   6.143   5.780 -0.2671 -0.1055  1.0054
27068SOL     OW81781   5.277   2.653   2.967 -0.1538  0.0095  0.3337
27068SOL    HW181782   5.251   2.599   3.043 -1.4113 -1.1867 -0.8762
27068SOL    HW281783   5.194   2.676   2.926  0.5586 -1.0358 -1.7914
27069SOL     OW81784   8.467   0.714   0.403 -0.1441 -0.1427  0.0621
27069SOL    HW181785   8.398   0.648   0.395 -0.6830  0.2869  1.0360
27069SOL    HW281786   8.522   0.701   0.325 -1.2098 -0.6151 -0.6336
27070SOL     OW81787   9.002   3.954   8.973  0.2406 -0.2521 -0.1284
27070SOL    HW181788   8.965   3.866   8.973  1.2943 -0.7028  0.6789
27070SOL    HW281789   8.939   4.006   9.023 -1.2245 -0.1466 -1.9689
27071SOL     OW81790   0.664   4.864   2.955 -0.0317 -0.1789 -0.1803
27071SOL    HW181791   0.670   4.769   2.970 -0.4540  0.0108  1.3161
27071SOL    HW281792   0.670   4.873   2.860  2.1349 -1.5492 -0.2586
27072SOL     OW81793   2.897   5.595   8.439  0.2825  0.5768 -0.2820
27072SOL    HW181794   2.872   5.512   8.480  0.9209 -0.3638 -1.7448
27072SOL    HW281795   2.825   5.614   8.378 -0.6110  1.9146  1.1159
27073SOL     OW81796   2.184   2.660   6.150  0.1010  0.3658  0.3299
27073SOL    HW181797   2.118   2.730   6.146 -0.4101 -0.0948  0.6237
27073SOL    HW281798   2.248   2.691   6.214 -0.2611  0.4550  0.6535
27074SOL     OW81799   2.342   1.330   8.270  0.2657  0.0506  0.1740
27074SOL    HW181800   2.354   1.381   8.350 -1.2509 -0.3605  0.7013
27074SOL    HW281801   2.247   1.329   8.257  0.4383 -0.6363 -1.1474
27075SOL     OW81802   2.014   6.960   0.971  0.3918 -0.0155 -0.2554
27075SOL    HW181803   1.949   6.952   1.041  0.0634  1.2659 -0.3898
27075SOL    HW281804   1.967   6.938   0.891 -0.1278  1.6336 -0.4494
27076SOL     OW81805   4.846   8.128   1.590 -0.1350 -0.3325  0.2054
27076SOL    HW181806   4.777   8.160   1.531 -0.3966  0.3075  0.8425
27076SOL    HW281807   4.926   8.135   1.538  0.0468  2.6553  0.6686
27077SOL     OW81808   9.060   9.262   8.610 -0.1888 -0.0754 -0.3165
27077SOL    HW181809   9.020   9.175   8.610 -0.1048 -0.1131 -0.4704
27077SOL    HW281810   8.989   9.322   8.585  0.4255 -0.3942 -3.1587
27078SOL     OW81811   6.403   6.919   3.573  0.1653 -0.0772  0.0877
27078SOL    HW181812   6.335   6.948   3.511 -0.1539  1.0447  0.9446
27078SOL    HW281813   6.359   6.853   3.627 -0.9449  2.0727  1.9813
27079SOL     OW81814   8.710   0.836   2.604 -0.4023 -0.0837 -0.3913
27079SOL    HW181815   8.651   0.768   2.634  1.2966 -2.0337 -1.1774
27079SOL    HW281816   8.785   0.831   2.663  0.5775 -0.2626 -1.5907
27080SOL     OW81817   5.754   3.389   1.332  0.3178  0.1789  0.1349
27080SOL    HW181818   5.667   3.407   1.297 -0.4657 -3.7210 -0.3639
27080SOL    HW281819   5.813   3.447   1.283 -1.6881  1.1087 -1.3066
27081SOL     OW81820   3.918   3.972   7.756 -0.2921 -0.4162 -0.1674
27081SOL    HW181821   3.979   4.025   7.704  0.1245 -0.7604 -0.0361
27081SOL    HW281822   3.974   3.928   7.820 -0.9847  1.3677  1.7638
27082SOL     OW81823   0.658   9.364   7.416 -0.5218  0.2370 -0.5268
27082SOL    HW181824   0.746   9.334   7.438 -1.0597 -0.6388  0.5188
27082SOL    HW281825   0.651   9.352   7.322 -0.5802 -2.6762 -0.2233
27083SOL     OW81826   3.053   0.706   5.566 -0.4789 -0.2134  0.1420
27083SOL    HW181827   3.141   0.686   5.536  0.0806  0.8752  0.9590
27083SOL    HW281828   3.027   0.782   5.514  0.9381  2.4242  2.8988
27084SOL     OW81829   0.000   9.552   2.499 -0.6811  0.2135 -0.1149
27084SOL    HW181830  -0.009   9.462   2.530  0.0938  0.0087 -0.4554
27084SOL    HW281831   0.011   9.604   2.578  1.1209 -0.2802  0.0179
27085SOL     OW81832   0.282   3.601   8.907 -0.5160  0.1987 -0.1600
27085SOL    HW181833   0.375   3.622   8.903 -1.2375  3.9019 -1.6205
27085SOL    HW281834   0.264   3.556   8.825 -0.0294 -0.6730  0.1993
27086SOL     OW81835   5.314   9.609   5.743 -0.3206  0.5729  0.5683
27086SOL    HW181836   5.231   9.656   5.730 -1.5071 -1.2820  0.9577
27086SOL    HW281837   5.300   9.558   5.823  0.2061 -1.7387 -0.7356
27087SOL     OW81838   4.644   8.907   3.848  0.1943 -0.5263  0.7481
27087SOL    HW181839   4.566   8.850   3.851  0.3905 -0.8646 -0.2990
27087SOL    HW281840   4.639   8.951   3.763  0.8058 -0.0576  0.9490
27088SOL     OW81841   1.453   7.137   6.600 -0.3201  0.0383  0.4000
27088SOL    HW181842   1.430   7.224   6.569 -0.9603  0.1953  1.2767
27088SOL    HW281843   1.389   7.119   6.670 -0.1972 -1.1263  0.2274
27089SOL     OW81844   7.435   8.213   2.488 -0.0789 -0.0101  0.6849
27089SOL    HW181845   7.471   8.287   2.536 -0.3021 -0.1661  1.0966
27089SOL    HW281846   7.346   8.203   2.523 -0.6510  0.5819 -0.5420
27090SOL     OW81847   9.117   8.485   2.084  0.3940 -0.3972 -0.2447
27090SOL    HW181848   9.042   8.467   2.028 -0.1883  0.2935  0.3079
27090SOL    HW281849   9.108   8.425   2.158 -0.4101  0.6723  0.5451
27091SOL     OW81850   1.875   7.287   8.158  0.2075  0.6091 -0.5709
27091SOL    HW181851   1.924   7.208   8.131  0.1676  0.4732 -0.2425
27091SOL    HW281852   1.792   7.254   8.190  0.6010  0.7002  0.5647
27092SOL     OW81853   3.808   9.329   8.505  1.1339  0.5732  0.5874
27092SOL    HW181854   3.779   9.381   8.430  1.6628  1.0715  0.7155
27092SOL    HW281855   3.741   9.345   8.572  1.4673  1.3671  0.7376
27093SOL     OW81856   8.407   8.504   5.914  0.2582  0.3655 -0.0855
27093SOL    HW181857   8.499   8.520   5.894  0.5430 -0.5398  0.4519
27093SOL    HW281858   8.362   8.582   5.881  1.2158  0.8468 -0.3050
27094SOL     OW81859   2.637   9.244   0.747  0.1104 -0.4755  0.7506
27094SOL    HW181860   2.559   9.255   0.802  0.3091 -0.1922  0.9787
27094SOL    HW281861   2.650   9.329   0.707  1.1338 -0.1106  1.8264
27095SOL     OW81862   6.485   9.837   9.529 -0.7103  0.0140  0.2154
27095SOL    HW181863   6.425   9.797   9.465 -0.4862  0.7595 -0.4746
27095SOL    HW281864   6.474   9.931   9.517  1.9717  0.2341 -1.3023
27096SOL     OW81865   5.073   8.323   7.556 -0.0190 -0.6275 -0.3418
27096SOL    HW181866   5.080   8.343   7.462 -0.2941 -0.8827 -0.4169
27096SOL    HW281867   4.980   8.337   7.576 -0.0268 -0.9123 -0.1833
27097SOL     OW81868   9.129   4.741   5.615  0.1624  0.0818  0.0079
27097SOL    HW181869   9.125   4.656   5.658  2.1062 -0.3088 -0.5169
27097SOL    HW281870   9.174   4.798   5.678 -1.0974  0.7486  0.3457
27098SOL     OW81871   1.895   8.331   6.711  0.4488 -0.0081 -0.4351
27098SOL    HW181872   1.955   8.317   6.785 -0.8760 -1.2003  0.4574
27098SOL    HW281873   1.950   8.323   6.633  1.3358 -1.9529  0.3273
27099SOL     OW81874   2.497   9.950   1.642  0.3808  0.1806 -0.2360
27099SOL    HW181875   2.455   9.864   1.639  1.5098 -0.3877 -0.2536
27099SOL    HW281876   2.494   9.975   1.734 -0.7563  0.5381 -0.3652
27100SOL     OW81877   0.365   7.154   3.041  0.0493  0.6793 -0.3136
27100SOL    HW181878   0.305   7.088   3.077  0.4185 -0.1937 -1.2596
27100SOL    HW281879   0.452   7.123   3.066  0.1540  1.7836  0.7931
27101SOL     OW81880   8.137   2.136   8.233 -0.2428 -0.0982  0.0525
27101SOL    HW181881   8.081   2.178   8.167  1.7423  1.1296 -0.9539
27101SOL    HW281882   8.203   2.090   8.182  2.1696  2.0049  1.0394
27102SOL     OW81883   7.550   4.459   5.837  0.2108 -0.6554  0.0409
27102SOL    HW181884   7.635   4.418   5.822  0.7288 -0.2156  1.5249
27102SOL    HW281885   7.510   4.407   5.906  0.3483  0.5578  1.0789
27103SOL     OW81886   0.628   8.708   5.814  0.5642 -0.2376  0.3313
27103SOL    HW181887   0.630   8.756   5.897 -1.5712 -0.0207  0.3009
27103SOL    HW281888   0.572   8.633   5.831 -0.2746  0.0486 -1.0223
27104SOL     OW81889   8.026   5.628   8.452  0.1526 -0.3446 -0.0117
27104SOL    HW181890   8.040   5.560   8.387 -0.3398  3.3922 -4.5797
27104SOL    HW281891   7.935   5.655   8.440  0.3754  1.2780  1.4203
27105SOL     OW81892   3.415   5.890   1.688 -0.2401 -0.3078 -0.2853
27105SOL    HW181893   3.476   5.921   1.754  1.2537 -1.5229 -1.0456
27105SOL    HW281894   3.398   5.799   1.711 -2.4441  0.2100  0.3706
27106SOL     OW81895   9.738   3.436   3.021  0.1182  0.2961 -0.0600
27106SOL    HW181896   9.785   3.356   3.000 -1.9783 -0.6590 -1.4454
27106SOL    HW281897   9.804   3.505   3.013  1.8223 -1.1881  0.5313
27107SOL     OW81898   4.221   2.879   1.245  0.8140  0.0823 -0.6424
27107SOL    HW181899   4.168   2.800   1.246  0.5752  0.2459 -0.0385
27107SOL    HW281900   4.277   2.872   1.323  0.9755  0.3851 -0.7278
27108SOL     OW81901   4.278   1.436   5.787 -0.1258  0.0619  0.7761
27108SOL    HW181902   4.260   1.397   5.702  0.8281 -0.7579  0.9370
27108SOL    HW281903   4.330   1.514   5.767  1.3054 -0.8869  0.6598
27109SOL     OW81904   5.028   8.899   7.894 -0.0111 -0.2786  0.1953
27109SOL    HW181905   5.084   8.914   7.819  0.3303 -0.1059  0.4832
27109SOL    HW281906   5.008   8.806   7.891 -0.6331 -0.1268 -0.5486
27110SOL     OW81907   6.133   2.651   2.749 -0.0006 -0.0899 -0.1847
27110SOL    HW181908   6.176   2.724   2.705 -0.7937  0.1906 -0.5070
27110SOL    HW281909   6.204   2.591   2.771  0.6797  0.8678  0.2635
27111SOL     OW81910   9.352   9.427   2.843 -0.1594  0.4245  0.6180
27111SOL    HW181911   9.433   9.379   2.857  0.4507  0.7958 -1.3235
27111SOL    HW281912   9.311   9.385   2.768 -0.6128  1.6524  0.1458
27112SOL     OW81913   1.957   6.520   5.225  0.0825 -0.2636  0.3802
27112SOL    HW181914   2.011   6.590   5.189 -1.2057  0.7302  0.2921
27112SOL    HW281915   2.014   6.475   5.287  1.4250 -0.1535 -0.7267
27113SOL     OW81916   1.898   3.778   7.820  0.0666 -0.4532 -0.2941
27113SOL    HW181917   1.879   3.869   7.843  0.4731 -1.0487  2.9432
27113SOL    HW281918   1.967   3.784   7.755  1.8125  1.6100  1.5838
27114SOL     OW81919   3.921   8.140   1.916 -0.1963 -0.3049  0.3119
27114SOL    HW181920   3.978   8.167   1.844 -0.8463  2.0383  0.5988
27114SOL    HW281921   3.972   8.074   1.963  0.1130 -2.1710 -2.4198
27115SOL     OW81922   6.750   9.904   4.660  0.4187 -0.1548 -0.2596
27115SOL    HW181923   6.802   9.921   4.738 -1.3784 -0.9724  1.1750
27115SOL    HW281924   6.762   9.983   4.606  2.4845 -0.0010  0.3216
27116SOL     OW81925   4.931   0.849   7.359  0.9236  0.0390 -0.3933
27116SOL    HW181926   4.863   0.865   7.295  0.9951  0.1717 -0.4360
27116SOL    HW281927   5.012   0.843   7.308  0.8081 -1.1515 -0.4579
27117SOL     OW81928   3.090   7.380   6.886  0.2403  0.0053 -0.5512
27117SOL    HW181929   3.077   7.398   6.979  0.0379 -0.5331 -0.4728
27117SOL    HW281930   3.056   7.292   6.873  1.1128 -0.2913 -0.9483
27118SOL     OW81931   5.646   9.488   2.872 -0.1243  0.0307 -0.1792
27118SOL    HW181932   5.615   9.565   2.919 -1.1406  0.4090 -1.3989
27118SOL    HW281933   5.706   9.445   2.932  1.4198  2.4114  0.1233
27119SOL     OW81934   8.241   5.836   9.651 -0.4477 -0.0678 -0.2078
27119SOL    HW181935   8.283   5.804   9.571  1.0889 -1.1563  0.9868
27119SOL    HW281936   8.282   5.921   9.667 -2.3031  1.1940 -1.6805
27120SOL     OW81937   5.346   6.295   7.976 -0.3200 -0.3855 -0.3775
27120SOL    HW181938   5.363   6.221   7.918 -3.8693 -0.0644 -2.0595
27120SOL    HW281939   5.316   6.365   7.918 -0.0198  1.3828  1.4894
27121SOL     OW81940   3.317   2.284   7.990 -0.0602 -0.1675  0.0420
27121SOL    HW181941   3.296   2.336   8.067  0.5909  1.7169 -0.9796
27121SOL    HW281942   3.351   2.347   7.927  0.6602 -1.8390 -1.3361
27122SOL     OW81943   6.056   6.888   9.756 -0.1621 -0.0883 -0.2139
27122SOL    HW181944   6.091   6.831   9.687  0.0755 -0.0992 -0.0837
27122SOL    HW281945   6.107   6.969   9.748 -0.0611 -0.1300  0.0221
27123SOL     OW81946   9.899   2.539   5.653  0.1615  0.1829  0.0130
27123SOL    HW181947   9.938   2.453   5.665  1.0157  0.7410  1.5250
27123SOL    HW281948   9.860   2.560   5.738 -1.7722  0.4731 -0.8959
27124SOL     OW81949   8.244   7.278   8.743  0.2728  0.0035  0.3252
27124SOL    HW181950   8.237   7.265   8.838 -0.8730 -1.4445  0.0802
27124SOL    HW281951   8.156   7.307   8.716 -0.3168 -2.3960 -0.6340
27125SOL     OW81952   7.457   6.234   9.506 -0.1782 -0.3746  0.1254
27125SOL    HW181953   7.431   6.197   9.590 -0.6611 -0.2807  0.0174
27125SOL    HW281954   7.533   6.289   9.526 -0.5380 -0.0340  0.5635
27126SOL     OW81955   8.358   1.922   2.010  0.0556 -0.0506 -0.5753
27126SOL    HW181956   8.373   1.843   1.958  0.9221 -0.8859  0.8701
27126SOL    HW281957   8.263   1.926   2.020 -0.0212 -0.7047 -0.9641
27127SOL     OW81958   5.691   5.040   3.103 -0.1074  0.5443 -0.5743
27127SOL    HW181959   5.710   5.121   3.150  0.2908  0.1092  0.0345
27127SOL    HW281960   5.744   5.046   3.023 -0.4580  1.0986 -0.7656
27128SOL     OW81961   9.157   9.410   3.041  0.4395  0.6813  0.0181
27128SOL    HW181962   9.220   9.419   2.969  1.1855 -0.4303  0.5220
27128SOL    HW281963   9.077   9.379   2.998  1.6848 -2.7959 -0.0588
27129SOL     OW81964   4.125   1.760   5.905  0.3196 -0.2413 -0.1492
27129SOL    HW181965   4.165   1.829   5.852  0.8943 -1.5343 -1.4464
27129SOL    HW281966   4.032   1.764   5.883  0.3534  0.0913 -0.2347
27130SOL     OW81967   6.873   5.223   6.694 -0.0470 -0.4941 -0.7003
27130SOL    HW181968   6.820   5.143   6.685 -0.2257 -0.6131  1.0131
27130SOL    HW281969   6.955   5.203   6.648 -0.3544 -1.4266 -0.8612
27131SOL     OW81970   4.351   0.082   9.230  0.2998  0.6994  0.5034
27131SOL    HW181971   4.303   0.042   9.303  1.2977 -0.5538  0.5191
27131SOL    HW281972   4.430   0.028   9.222  0.8370  1.6296 -0.6549
27132SOL     OW81973   0.552   2.438   1.282  0.0309  0.3937  0.7005
27132SOL    HW181974   0.516   2.357   1.320  0.4859  0.2528  0.8409
27132SOL    HW281975   0.641   2.442   1.316  0.1909  0.6715  0.2532
27133SOL     OW81976   7.434   5.544   7.881  0.2004  0.8004 -0.3725
27133SOL    HW181977   7.348   5.579   7.857 -0.2757 -0.2299 -0.2075
27133SOL    HW281978   7.436   5.547   7.977 -0.8805 -1.9118 -0.1872
27134SOL     OW81979   7.980   9.935   7.414  0.2894  0.3918 -0.2030
27134SOL    HW181980   8.007   9.894   7.331 -0.2395 -0.7682  0.1746
27134SOL    HW281981   8.059   9.978   7.446  0.2223  1.9198 -1.8769
27135SOL     OW81982   3.013   5.886   5.165  0.0759  0.0868  0.3051
27135SOL    HW181983   3.107   5.867   5.162  0.8251  3.2991 -0.6975
27135SOL    HW281984   3.002   5.941   5.243 -1.0944 -0.6430  0.6837
27136SOL     OW81985   4.899   0.480   8.128 -0.1954 -0.0930  0.0383
27136SOL    HW181986   4.935   0.508   8.044  2.7986 -1.5759  0.6699
27136SOL    HW281987   4.836   0.548   8.152  1.1587  2.0050 -1.9482
27137SOL     OW81988   1.757   1.458   4.458  0.0193 -0.5743  0.3898
27137SOL    HW181989   1.817   1.511   4.406 -1.1696  1.0099  0.5696
27137SOL    HW281990   1.698   1.418   4.394 -0.2798 -0.1341  0.3917
27138SOL     OW81991   1.028   8.483   9.312  0.1036 -0.4852 -0.0636
27138SOL    HW181992   1.055   8.460   9.401  0.9130 -0.2900 -0.2496
27138SOL    HW281993   1.053   8.407   9.260 -0.2232 -0.5320 -0.1548
27139SOL     OW81994   4.232   0.534   5.894  0.3847  0.6370 -0.0488
27139SOL    HW181995   4.319   0.572   5.903  1.2473 -1.1259 -0.5126
27139SOL    HW281996   4.219   0.525   5.800  0.0009  0.2526  0.0349
27140SOL     OW81997   1.605   9.444   4.685  0.3094  0.0076  0.2102
27140SOL    HW181998   1.592   9.421   4.593  0.5447  0.7529 -0.0117
27140SOL    HW281999   1.538   9.394   4.732 -0.2249  0.1105 -0.4283
27141SOL     OW82000   5.482   0.062   9.400  0.3663 -0.4934  0.5668
27141SOL    HW182001   5.502  -0.031   9.385  0.6892 -0.5132  1.0918
27141SOL    HW282002   5.441   0.064   9.486  0.2598 -0.1606  0.5101
27142SOL     OW82003   7.050   4.855   6.405  0.5805  0.1291 -0.5229
27142SOL    HW182004   7.112   4.806   6.459  1.3668  1.9354  0.3193
27142SOL    HW282005   6.973   4.866   6.460  0.4501 -0.0618 -0.6670
27143SOL     OW82006   4.382   0.794   7.082 -0.4634  0.3798 -0.3151
27143SOL    HW182007   4.348   0.731   7.145 -3.1627  1.6267 -0.3637
27143SOL    HW282008   4.347   0.879   7.111  0.5459  1.4066 -1.9101
27144SOL     OW82009   6.253   2.365   6.756  0.1282 -0.2582  0.3658
27144SOL    HW182010   6.264   2.314   6.836  0.1076 -0.4355  0.2549
27144SOL    HW282011   6.321   2.432   6.761  0.5937 -0.7158  0.1827
27145SOL     OW82012   4.204   1.384   0.736 -0.4064 -0.6175 -0.0536
27145SOL    HW182013   4.262   1.309   0.728 -0.1240 -0.2544 -1.8484
27145SOL    HW282014   4.218   1.435   0.656  0.2931  2.0113  1.6038
27146SOL     OW82015   3.283   5.472   6.851  0.2267  0.0620  0.2076
27146SOL    HW182016   3.353   5.508   6.905 -0.3493 -0.3065  1.2309
27146SOL    HW282017   3.202   5.501   6.894 -0.2424 -0.3245 -0.3960
27147SOL     OW82018   5.672   7.226   2.515  0.2604 -0.3055 -0.7198
27147SOL    HW182019   5.618   7.212   2.593 -0.2461 -0.4540 -1.0945
27147SOL    HW282020   5.618   7.280   2.457  0.3411 -0.8130 -1.2781
27148SOL     OW82021   6.035   2.917   2.526  0.1476 -0.0682 -0.3324
27148SOL    HW182022   6.017   2.883   2.439 -0.3824 -0.3781 -0.1080
27148SOL    HW282023   6.121   2.883   2.548 -0.5741 -1.7190  0.0863
27149SOL     OW82024   7.424   8.579   8.049 -0.1195  0.7126  0.0388
27149SOL    HW182025   7.491   8.549   8.110 -1.1118 -1.4427  0.1738
27149SOL    HW282026   7.341   8.563   8.094 -0.8058  0.7490 -1.1560
27150SOL     OW82027   4.916   7.162   0.080 -0.7338  0.7006 -0.1706
27150SOL    HW182028   4.898   7.240   0.029 -0.7787 -0.3779 -1.8889
27150SOL    HW282029   4.831   7.118   0.088 -0.8943  1.2759  1.6176
27151SOL     OW82030   4.591   1.795   7.786  0.3302  0.1633 -0.1471
27151SOL    HW182031   4.537   1.872   7.804  0.7089  0.5082 -0.4531
27151SOL    HW282032   4.543   1.722   7.823 -0.6435  0.3842 -0.9320
27152SOL     OW82033   3.339   7.737   4.042 -0.1490  1.0502 -0.5281
27152SOL    HW182034   3.261   7.698   4.081 -0.7791  1.4315 -1.3846
27152SOL    HW282035   3.361   7.810   4.099  0.7254 -0.1886  0.7880
27153SOL     OW82036   6.978   5.192   9.108 -0.6965 -0.3300  0.8561
27153SOL    HW182037   6.893   5.194   9.065 -0.5724 -1.2451  0.5469
27153SOL    HW282038   6.967   5.248   9.185 -1.3050  0.2736  0.3458
27154SOL     OW82039   1.496   1.165   2.547  0.5721  0.1211 -0.1190
27154SOL    HW182040   1.460   1.206   2.469  0.1626  2.0688  1.0104
27154SOL    HW282041   1.529   1.238   2.600  1.2953 -1.1584  1.3109
27155SOL     OW82042   4.546   6.879   3.331  0.2448 -0.3439 -0.0184
27155SOL    HW182043   4.464   6.849   3.292 -0.0824 -0.2336  0.5729
27155SOL    HW282044   4.519   6.930   3.407  0.8608 -0.2059  0.1151
27156SOL     OW82045   0.192   5.820   1.283 -0.5369 -0.5533 -0.2112
27156SOL    HW182046   0.200   5.885   1.353 -0.9487  0.9266 -1.4918
27156SOL    HW282047   0.209   5.736   1.326  0.8867  0.4632  1.3125
27157SOL     OW82048   5.822   0.012   2.059 -0.0322  0.0593  0.6712
27157SOL    HW182049   5.847   0.095   2.018 -0.8247  0.6735  1.3908
27157SOL    HW282050   5.726   0.016   2.063 -0.0730 -0.8855  0.7335
27158SOL     OW82051   0.812   6.967   3.733  0.1240  0.0817  0.0188
27158SOL    HW182052   0.761   6.895   3.696 -0.4572 -0.9357  2.6197
27158SOL    HW282053   0.811   7.034   3.665 -2.4464 -0.9348 -1.0596
27159SOL     OW82054   8.832   1.208   1.070 -0.1185  0.3857  0.1018
27159SOL    HW182055   8.912   1.240   1.112 -0.2922  0.5188  0.3308
27159SOL    HW282056   8.770   1.197   1.142  0.2725 -1.5257  0.2004
27160SOL     OW82057   0.430   5.658   2.093 -0.0035 -0.4124  0.6993
27160SOL    HW182058   0.379   5.724   2.047  1.5764  0.3130 -0.0882
27160SOL    HW282059   0.366   5.612   2.147 -1.6233 -0.1366 -0.8884
27161SOL     OW82060   7.891   3.419   3.907  0.2602 -0.0857  0.2827
27161SOL    HW182061   7.938   3.465   3.837  0.6520 -0.8929 -0.0070
27161SOL    HW282062   7.890   3.328   3.878  2.1673 -0.8117  2.2330
27162SOL     OW82063   9.273   1.806   2.188 -0.2709 -0.1292 -0.0662
27162SOL    HW182064   9.359   1.807   2.230 -0.3931 -0.1227  0.1892
27162SOL    HW282065   9.275   1.730   2.130 -0.4740 -0.7754  0.7553
27163SOL     OW82066   9.448   3.895   6.051 -0.0376  0.4582 -0.0827
27163SOL    HW182067   9.416   3.808   6.029  0.3433  0.8289 -2.2739
27163SOL    HW282068   9.513   3.915   5.984 -0.1953  2.4777  0.2973
27164SOL     OW82069   5.002   8.190   0.342 -0.2961  0.6245 -0.1626
27164SOL    HW182070   4.990   8.127   0.413  0.9434 -0.9419 -1.2826
27164SOL    HW282071   5.073   8.247   0.373  0.2912 -0.0980 -0.1532
27165SOL     OW82072   1.859   3.862   5.091 -0.3799  0.1245 -0.4679
27165SOL    HW182073   1.892   3.855   5.002 -0.6599 -0.8651 -0.5013
27165SOL    HW282074   1.778   3.913   5.083 -0.0506  0.6168 -0.6823
27166SOL     OW82075   3.210   7.524   2.261 -0.2584  0.1252 -0.0086
27166SOL    HW182076   3.214   7.459   2.330  1.8105 -0.5936 -0.7184
27166SOL    HW282077   3.227   7.475   2.180 -1.4538  1.1159 -0.9165
27167SOL     OW82078   3.435   7.771   9.321  0.4072  0.6039  0.4767
27167SOL    HW182079   3.501   7.740   9.258  1.4797  1.7180  1.0119
27167SOL    HW282080   3.459   7.862   9.337 -1.4399  1.1170  0.5111
27168SOL     OW82081   1.467   9.182   0.721 -0.0976  0.3896  0.2181
27168SOL    HW182082   1.373   9.198   0.712  0.0696  1.1125 -0.3228
27168SOL    HW282083   1.504   9.268   0.738  0.5713  0.2513 -0.5068
27169SOL     OW82084   3.703   4.589   4.695 -0.4702 -0.0077  0.0510
27169SOL    HW182085   3.796   4.575   4.677 -0.4191  1.5433 -1.0738
27169SOL    HW282086   3.680   4.665   4.643 -3.0702 -1.9411 -1.8521
27170SOL     OW82087   9.358   7.377   2.383  0.6361 -0.2406 -0.0595
27170SOL    HW182088   9.317   7.298   2.419 -0.9140  0.6956  0.2783
27170SOL    HW282089   9.421   7.403   2.450 -0.2334 -0.0996  0.7126
27171SOL     OW82090   1.173   3.365   1.729 -0.1335 -0.0822 -0.1829
27171SOL    HW182091   1.126   3.444   1.701 -0.4790  0.7610  2.5204
27171SOL    HW282092   1.226   3.341   1.653 -0.6555  2.2667 -1.3889
27172SOL     OW82093   0.666   8.386   9.647  0.7178 -0.4953  0.1490
27172SOL    HW182094   0.730   8.338   9.594  0.8286 -0.1684 -0.0151
27172SOL    HW282095   0.712   8.404   9.730  0.9329 -0.0416 -0.0622
27173SOL     OW82096   3.265   8.862   6.906  0.4524 -0.5630  0.0391
27173SOL    HW182097   3.253   8.811   6.985  3.0602 -1.1310  0.1444
27173SOL    HW282098   3.307   8.943   6.935  0.2969 -0.2368 -0.6188
27174SOL     OW82099   8.456   2.052   2.241  0.2153  0.1949 -0.2972
27174SOL    HW182100   8.550   2.038   2.249  0.2482  0.2631 -0.5726
27174SOL    HW282101   8.437   2.035   2.149 -0.3282 -1.5281  0.0956
27175SOL     OW82102   2.378   1.151   5.199 -0.0442 -0.0334  0.3719
27175SOL    HW182103   2.380   1.212   5.125 -0.0219 -1.3434 -0.7702
27175SOL    HW282104   2.353   1.067   5.159  0.8238 -0.9684  1.7234
27176SOL     OW82105   5.155   5.577   8.801  0.2867  0.2303 -0.2735
27176SOL    HW182106   5.176   5.602   8.712  0.0546 -0.7849 -0.6315
27176SOL    HW282107   5.111   5.653   8.839  0.5007  0.7048 -0.9846
27177SOL     OW82108   5.826   7.797   5.958 -0.1810  0.2092  0.2017
27177SOL    HW182109   5.833   7.742   6.036 -1.3343  1.1952  1.0281
27177SOL    HW282110   5.857   7.741   5.886 -0.2435 -1.1116  1.1756
27178SOL     OW82111   5.961   4.281   9.543 -0.2830  0.2472  0.1363
27178SOL    HW182112   6.005   4.229   9.476  0.2843 -0.7450  1.2487
27178SOL    HW282113   5.877   4.305   9.503 -0.1543 -0.7149 -0.7536
27179SOL     OW82114   6.384   0.235   5.686  0.2183  0.2050 -0.0463
27179SOL    HW182115   6.467   0.243   5.734  0.8310  2.0482 -1.3413
27179SOL    HW282116   6.391   0.151   5.641  0.5584 -0.5253  1.2914
27180SOL     OW82117   7.835   2.122   5.231 -0.1427 -0.1091  0.2411
27180SOL    HW182118   7.920   2.148   5.264  0.6948 -2.5374  0.1983
27180SOL    HW282119   7.772   2.158   5.293  0.9879  0.7229  0.9199
27181SOL     OW82120   8.247   7.210   4.113  0.4474  0.0691 -0.4745
27181SOL    HW182121   8.207   7.140   4.164 -0.3157  1.2065  0.5373
27181SOL    HW282122   8.339   7.185   4.106  0.9992  0.6625  2.9242
27182SOL     OW82123   8.424   4.210   4.619 -0.1925 -0.5834 -1.1312
27182SOL    HW182124   8.498   4.201   4.678  0.4646  0.4104 -1.7971
27182SOL    HW282125   8.358   4.258   4.670  0.1872 -0.1555 -1.0393
27183SOL     OW82126   9.785   7.837   8.824 -0.4565  0.3566 -1.0000
27183SOL    HW182127   9.834   7.865   8.747  0.1735 -0.3391 -0.8576
27183SOL    HW282128   9.703   7.801   8.789  0.0385 -0.4150 -1.3832
27184SOL     OW82129   7.779   7.169   2.932  0.2575 -0.3941  0.1781
27184SOL    HW182130   7.793   7.148   3.025 -1.9606  0.0277  0.6763
27184SOL    HW282131   7.822   7.098   2.884 -0.7796 -2.0881  1.6212
27185SOL     OW82132   4.780   4.218   5.861  0.0579  0.4834  0.7161
27185SOL    HW182133   4.870   4.243   5.881  0.7474 -2.1135  1.2626
27185SOL    HW282134   4.777   4.215   5.765  0.6640  0.3179  0.6946
27186SOL     OW82135   1.512   3.255   0.400 -0.0680  0.0183  0.4456
27186SOL    HW182136   1.459   3.334   0.413 -0.0384  0.3223 -1.1704
27186SOL    HW282137   1.602   3.283   0.420 -0.0580  0.3891 -0.1144
27187SOL     OW82138   2.189   4.283   5.782 -0.0826  0.1504  0.0263
27187SOL    HW182139   2.206   4.350   5.849  2.0087  0.5070 -0.7828
27187SOL    HW282140   2.276   4.253   5.756 -0.9404 -1.8587 -0.6932
27188SOL     OW82141   3.620   1.087   5.312  0.2698 -0.1692 -0.0057
27188SOL    HW182142   3.649   1.175   5.290 -2.5232  0.3159 -2.2506
27188SOL    HW282143   3.590   1.093   5.403 -2.3866  1.9983 -0.9178
27189SOL     OW82144   3.626   5.450   7.559 -0.3853  0.7905 -0.4932
27189SOL    HW182145   3.605   5.401   7.480  0.2288  0.7169 -0.6120
27189SOL    HW282146   3.718   5.476   7.548 -0.2239  0.5834  0.2932
27190SOL     OW82147   8.585   8.888   3.493  0.1529 -0.0762  0.3249
27190SOL    HW182148   8.645   8.877   3.419 -1.0383 -1.0123 -0.5346
27190SOL    HW282149   8.604   8.812   3.549 -0.4485 -0.5587 -0.1167
27191SOL     OW82150   0.245   7.293   3.322  0.3610 -0.4615 -0.3829
27191SOL    HW182151   0.302   7.302   3.399 -1.2608 -4.3188  1.5490
27191SOL    HW282152   0.157   7.310   3.356 -0.2622 -0.7796 -1.7914
27192SOL     OW82153   5.597   7.865   4.662 -0.1419  0.2250 -0.3381
27192SOL    HW182154   5.688   7.868   4.631 -0.9831 -0.1296 -3.1162
27192SOL    HW282155   5.583   7.773   4.683  0.1063  0.2678  0.0284
27193SOL     OW82156   3.205   0.287   7.020  0.2582  0.0571 -0.2289
27193SOL    HW182157   3.287   0.289   7.068 -0.0753 -0.2887  0.3697
27193SOL    HW282158   3.177   0.195   7.024 -1.0940  0.4859  1.1969
27194SOL     OW82159   3.243   7.325   5.503 -0.2547 -0.5594  0.0928
27194SOL    HW182160   3.336   7.319   5.523 -0.2718  0.5240  0.5435
27194SOL    HW282161   3.237   7.310   5.409  0.4343 -0.0293 -0.0359
27195SOL     OW82162   8.788   7.256   6.357  0.0187 -0.5538 -0.0387
27195SOL    HW182163   8.786   7.321   6.287 -1.7477  0.7401  1.1137
27195SOL    HW282164   8.869   7.207   6.343  0.2146  0.3269 -2.3543
27196SOL     OW82165   8.554   6.436   9.639 -0.1711  0.1475  0.7994
27196SOL    HW182166   8.587   6.435   9.729 -0.2149  0.9508  0.8273
27196SOL    HW282167   8.558   6.344   9.611  2.6308  0.2647  0.6016
27197SOL     OW82168   0.462   9.919   1.016  0.3618 -0.3195  0.0050
27197SOL    HW182169   0.445   9.827   0.996 -2.1402  0.0869 -0.1638
27197SOL    HW282170   0.461   9.962   0.931  1.6823 -0.1449  0.0713
27198SOL     OW82171   9.034   7.811   1.317  0.3444  0.1878 -0.6831
27198SOL    HW182172   8.953   7.763   1.305  1.2940 -1.4199 -1.0113
27198SOL    HW282173   9.098   7.744   1.343  1.1484  1.6762  1.4878
27199SOL     OW82174   4.355   7.083   3.565  0.0573  0.0376 -0.4538
27199SOL    HW182175   4.296   7.116   3.633 -0.9286 -1.4744 -0.5314
27199SOL    HW282176   4.441   7.081   3.608 -0.2022  0.8931  0.1334
27200SOL     OW82177   4.026   0.735   5.664 -0.1761 -0.3456 -0.7058
27200SOL    HW182178   3.998   0.704   5.750  1.3015 -0.1524 -0.1202
27200SOL    HW282179   3.947   0.733   5.610 -0.7727 -2.1185  0.1754
27201SOL     OW82180   9.123   5.312   7.548 -0.0736 -0.9189 -0.0385
27201SOL    HW182181   9.183   5.290   7.476 -0.4409 -0.2949 -0.5440
27201SOL    HW282182   9.180   5.319   7.625  1.0475  2.6757 -1.0124
27202SOL     OW82183   9.691   6.576   4.893  0.4115  0.2431 -0.3099
27202SOL    HW182184   9.780   6.600   4.866  0.6454  0.6555  0.7942
27202SOL    HW282185   9.641   6.575   4.811  1.2205  0.9110 -0.8320
27203SOL     OW82186   3.636   2.361   1.147 -0.5104  0.2600  0.1314
27203SOL    HW182187   3.586   2.313   1.081 -0.4555  3.0796 -2.1834
27203SOL    HW282188   3.660   2.296   1.212 -0.7629 -2.6932 -2.5251
27204SOL     OW82189   2.205   6.730   1.026  0.4475  0.5151  0.1488
27204SOL    HW182190   2.165   6.670   0.963 -1.0701 -0.7925  2.2155
27204SOL    HW282191   2.147   6.806   1.027  0.4927  0.5531 -0.0450
27205SOL     OW82192   6.481   2.173   8.058 -0.1544  0.0998 -0.2176
27205SOL    HW182193   6.570   2.176   8.093  0.1392 -1.4916 -0.7605
27205SOL    HW282194   6.489   2.210   7.970  0.3409 -1.5415 -0.9089
27206SOL     OW82195   5.149   7.121   5.412  0.5542 -0.0066  0.2841
27206SOL    HW182196   5.086   7.077   5.355  0.2421 -0.1638  0.7435
27206SOL    HW282197   5.175   7.198   5.363  0.1287 -0.0277  0.0140
27207SOL     OW82198   5.983   1.674   5.686  0.0421 -0.6559 -1.3319
27207SOL    HW182199   5.936   1.653   5.605 -0.1062 -2.8972 -0.7317
27207SOL    HW282200   5.915   1.699   5.748  0.0013 -0.5521 -1.4174
27208SOL     OW82201   2.940   3.715   2.743  0.4150  0.3634  0.4351
27208SOL    HW182202   2.846   3.706   2.728  0.3823  0.9070  0.2705
27208SOL    HW282203   2.952   3.701   2.837  0.2117 -0.0246  0.4022
27209SOL     OW82204   2.998   7.194   7.358  0.8061  0.0797  0.2313
27209SOL    HW182205   2.926   7.255   7.340  0.8275 -0.0573 -0.3368
27209SOL    HW282206   2.979   7.118   7.304  0.9201 -0.3155  0.7478
27210SOL     OW82207   4.877   8.996   3.284 -0.5537 -0.6831 -0.0390
27210SOL    HW182208   4.952   9.033   3.329 -0.9547  1.3034 -0.9039
27210SOL    HW282209   4.913   8.955   3.206 -0.2213 -1.0249  0.2930
27211SOL     OW82210   0.434   9.784   5.008  0.1876 -0.4297 -0.1984
27211SOL    HW182211   0.519   9.750   4.979  0.8540  2.1604 -1.5811
27211SOL    HW282212   0.370   9.724   4.970  1.3391 -1.7815 -0.0865
27212SOL     OW82213   1.369   4.797   2.307 -0.4009  0.9800 -0.3603
27212SOL    HW182214   1.450   4.750   2.285 -0.6653 -0.4907  1.6062
27212SOL    HW282215   1.383   4.885   2.272  1.8027  0.5879 -0.6243
27213SOL     OW82216   6.855   3.743   3.207  0.1635  0.5141 -0.0218
27213SOL    HW182217   6.918   3.675   3.184  0.4641  0.3312  1.2657
27213SOL    HW282218   6.900   3.798   3.271 -1.0001  0.2978  1.0306
27214SOL     OW82219   7.031   5.710   9.763  0.5139 -0.0888  0.1598
27214SOL    HW182220   7.072   5.627   9.741 -2.1116 -1.8809  1.4273
27214SOL    HW282221   6.950   5.711   9.712  0.3242  1.5715  0.4233
27215SOL     OW82222   0.222   4.568   6.138 -0.5724 -0.6645  0.0863
27215SOL    HW182223   0.291   4.564   6.204 -0.3084  1.4430 -0.0202
27215SOL    HW282224   0.223   4.658   6.106 -1.5783 -1.2802 -1.8661
27216SOL     OW82225   7.924   7.038   2.042 -0.0847  0.6320 -0.1547
27216SOL    HW182226   7.835   7.009   2.024 -0.1920 -0.9325  2.4225
27216SOL    HW282227   7.964   6.966   2.091  2.5634  1.3621 -1.0240
27217SOL     OW82228   2.941   9.698   2.989 -0.0543  0.1283  0.0260
27217SOL    HW182229   2.897   9.774   2.952  0.5149 -0.6294 -2.4320
27217SOL    HW282230   2.874   9.655   3.042 -1.2316  0.8352 -0.8418
27218SOL     OW82231   6.719   1.109   6.031 -0.2118  0.3291  0.1212
27218SOL    HW182232   6.634   1.088   6.069  0.0370  0.8890  0.9938
27218SOL    HW282233   6.749   1.187   6.078  0.7658  0.1660 -0.2008
27219SOL     OW82234   8.537   9.899   6.876  0.2842  0.7257 -0.1572
27219SOL    HW182235   8.513   9.971   6.818  1.2116 -0.2660 -1.8458
27219SOL    HW282236   8.534   9.821   6.820 -3.5352 -1.1278  2.1664
27220SOL     OW82237   3.892   6.781   6.998  0.4062  0.0673  0.4020
27220SOL    HW182238   3.809   6.809   7.036 -0.9933 -1.9633 -1.0093
27220SOL    HW282239   3.908   6.695   7.036  0.0823 -1.0449 -1.8272
27221SOL     OW82240   9.053   6.379   5.869 -0.5103  0.0818 -0.3138
27221SOL    HW182241   9.036   6.374   5.963  0.2457  1.0761 -0.0985
27221SOL    HW282242   9.004   6.306   5.831 -1.5388  0.1876  0.7473
27222SOL     OW82243   8.444   2.444   3.787  0.2960  0.1321  0.3240
27222SOL    HW182244   8.478   2.504   3.721 -0.9201  0.0118 -0.4526
27222SOL    HW282245   8.517   2.430   3.847  1.4411  0.2396 -0.9969
27223SOL     OW82246   3.843   9.822   3.599 -0.0958  0.6797  0.0162
27223SOL    HW182247   3.938   9.836   3.604  0.0143  1.4791 -2.5273
27223SOL    HW282248   3.808   9.868   3.675  1.3348  3.5867 -0.9329
27224SOL     OW82249   9.938   1.107   1.937  0.1825  0.0351  0.1625
27224SOL    HW182250   9.979   1.194   1.940 -0.7639  0.4800  0.6956
27224SOL    HW282251   9.937   1.078   2.028  1.6131 -1.1016 -0.1455
27225SOL     OW82252   7.526   9.612   6.392 -0.1997  0.2767 -0.0306
27225SOL    HW182253   7.470   9.562   6.333 -1.0220 -0.3269  1.2017
27225SOL    HW282254   7.478   9.694   6.407  0.2581  0.6548 -0.5926
27226SOL     OW82255   0.846   4.024   4.401  0.4961 -0.0293  0.2809
27226SOL    HW182256   0.804   3.938   4.395 -0.3840  0.3787  0.3059
27226SOL    HW282257   0.822   4.068   4.320  1.4057 -0.0030  0.0222
27227SOL     OW82258   1.799   9.970   1.670 -0.0506  0.3687  0.1820
27227SOL    HW182259   1.708   9.942   1.657 -0.0098  0.5151 -0.4335
27227SOL    HW282260   1.850   9.889   1.669  0.0705  0.4226 -1.6155
27228SOL     OW82261   3.943   0.177   6.504 -0.3689 -0.1180 -0.2024
27228SOL    HW182262   4.014   0.188   6.440 -0.9275  5.2721 -0.3689
27228SOL    HW282263   3.863   0.185   6.453 -0.9799 -0.5483  0.6576
27229SOL     OW82264   9.514   7.804   0.509  0.3033  0.0986 -0.0661
27229SOL    HW182265   9.494   7.714   0.532 -0.5367  0.5098  0.9115
27229SOL    HW282266   9.434   7.836   0.467  0.4681  0.4962 -0.0825
27230SOL     OW82267   5.306   5.017   1.454  0.4995  0.4645 -0.3028
27230SOL    HW182268   5.286   4.926   1.479  0.9369  0.8670  1.6772
27230SOL    HW282269   5.290   5.068   1.534  2.7824  1.7428 -0.5712
27231SOL     OW82270   2.285   9.815   0.166  0.0511  0.9359 -0.3216
27231SOL    HW182271   2.238   9.803   0.083  0.6703  1.9937 -0.8553
27231SOL    HW282272   2.240   9.759   0.228 -2.7467  2.8301 -0.4691
27232SOL     OW82273   8.480   5.688   0.167  0.3619  0.2864  0.2289
27232SOL    HW182274   8.403   5.740   0.147  0.7586  0.2651 -1.4391
27232SOL    HW282275   8.549   5.753   0.181  0.8516  0.2671 -1.8307
27233SOL     OW82276   2.598   3.853   8.133 -0.1898 -0.6490 -0.4061
27233SOL    HW182277   2.683   3.824   8.099  0.0879  0.0403 -0.3212
27233SOL    HW282278   2.580   3.934   8.087 -0.3433 -0.2851  0.2752
27234SOL     OW82279   8.616   5.400   0.859  0.0093 -0.0325 -0.4456
27234SOL    HW182280   8.623   5.388   0.954  0.1683 -1.6348 -0.6240
27234SOL    HW282281   8.707   5.408   0.829 -0.0123  0.0006 -0.4997
27235SOL     OW82282   7.593   0.811   5.883 -0.2665  0.1722  0.0732
27235SOL    HW182283   7.548   0.814   5.967 -0.4451 -1.3625  0.0728
27235SOL    HW282284   7.607   0.902   5.859 -1.0963  0.6412  1.2947
27236SOL     OW82285   1.296   7.367   3.217  0.1861 -0.0860 -0.3892
27236SOL    HW182286   1.293   7.369   3.312  1.1039  0.6311 -0.3538
27236SOL    HW282287   1.382   7.331   3.196  0.0612 -0.0750 -0.9392
27237SOL     OW82288   6.706   7.412   8.949  0.0951  0.4360  0.1521
27237SOL    HW182289   6.676   7.440   9.035 -0.2912  1.2580 -0.2399
27237SOL    HW282290   6.628   7.416   8.894 -0.3071 -2.6358  0.3183
27238SOL     OW82291   3.107   6.154   3.749  0.3389 -0.3483 -0.2791
27238SOL    HW182292   3.131   6.102   3.673  0.6970 -1.6460  0.6827
27238SOL    HW282293   3.026   6.114   3.781 -1.5616  2.0748 -1.6893
27239SOL     OW82294   6.471   0.765   2.251 -0.0113  0.3053 -0.6204
27239SOL    HW182295   6.387   0.784   2.294 -0.0170 -2.8981  1.1413
27239SOL    HW282296   6.525   0.842   2.267 -1.6252  1.1807  0.9978
27240SOL     OW82297   3.194   9.400   2.744 -0.0601  0.3168  0.0681
27240SOL    HW182298   3.156   9.335   2.686 -0.6636  1.2717 -0.6399
27240SOL    HW282299   3.271   9.358   2.782 -1.4655 -1.4784  1.0756
27241SOL     OW82300   7.540   5.392   1.456 -0.0312 -0.0581  0.0566
27241SOL    HW182301   7.630   5.422   1.468 -0.0861 -0.2308  0.9472
27241SOL    HW282302   7.549   5.314   1.400  0.3454  0.0550 -0.0464
27242SOL     OW82303   9.122   8.188   4.694 -0.0220 -0.2864  0.3354
27242SOL    HW182304   9.190   8.256   4.699  1.6236 -1.8818  0.9161
27242SOL    HW282305   9.153   8.129   4.626 -0.7188 -1.1726  0.7797
27243SOL     OW82306   5.262   2.658   6.413 -0.0040 -0.4855  0.8980
27243SOL    HW182307   5.282   2.672   6.506 -1.7451 -0.8905  1.3877
27243SOL    HW282308   5.184   2.711   6.397 -1.5133 -2.6745  0.5035
27244SOL     OW82309   6.131   4.501   9.184 -0.1606 -0.1259  0.5750
27244SOL    HW182310   6.091   4.528   9.266 -0.2519  2.4898 -0.2473
27244SOL    HW282311   6.215   4.548   9.182  0.4605 -1.2212 -0.2262
27245SOL     OW82312   2.078   1.920   9.383 -0.0772  0.4220  0.6267
27245SOL    HW182313   2.136   1.868   9.439 -1.1353 -2.4143 -0.6937
27245SOL    HW282314   2.031   1.977   9.443  0.3315 -0.9909  2.3744
27246SOL     OW82315   1.493   3.001   8.448  0.1015 -0.0278 -0.2540
27246SOL    HW182316   1.475   3.084   8.492 -0.0321 -0.5734  0.7337
27246SOL    HW282317   1.490   2.935   8.517 -0.1989 -0.9173 -1.0895
27247SOL     OW82318   4.300   3.128   4.291  1.0233 -0.1331 -0.4882
27247SOL    HW182319   4.267   3.209   4.253  2.1854  0.7313  0.2874
27247SOL    HW282320   4.358   3.092   4.223  0.7442 -0.1531 -0.7152
27248SOL     OW82321   2.595   7.590   0.586 -0.5415  0.0257  0.2968
27248SOL    HW182322   2.530   7.536   0.541  0.9815 -1.5758 -0.1035
27248SOL    HW282323   2.653   7.526   0.628 -0.9234  1.4168  3.1878
27249SOL     OW82324   0.291   9.434   5.707 -0.5420  0.4683  0.0241
27249SOL    HW182325   0.217   9.481   5.746 -0.5557  0.1304  0.4134
27249SOL    HW282326   0.345   9.409   5.782 -0.7717 -0.5331 -0.1259
27250SOL     OW82327   1.751   7.610   5.833 -0.2251  0.0660 -0.1258
27250SOL    HW182328   1.720   7.534   5.881 -2.7615  0.5307 -0.8920
27250SOL    HW282329   1.734   7.684   5.891  1.0258  0.2210  0.0815
27251SOL     OW82330   9.526   7.990   9.368 -0.2885  0.1198  0.3886
27251SOL    HW182331   9.451   7.986   9.309 -0.8024  1.8689  0.8625
27251SOL    HW282332   9.563   7.902   9.367 -2.0373 -0.6349 -0.2523
27252SOL     OW82333   1.024   9.552   7.103 -0.2417  0.4448 -0.3037
27252SOL    HW182334   1.076   9.618   7.057 -0.4712  1.3265  0.6648
27252SOL    HW282335   0.939   9.553   7.060 -0.0701  0.3720 -0.6486
27253SOL     OW82336   5.924   0.887   8.883  0.7274  0.4431  0.3560
27253SOL    HW182337   5.923   0.852   8.972  3.2749  1.0891  0.7177
27253SOL    HW282338   6.014   0.875   8.854 -0.3206 -0.9593 -2.6891
27254SOL     OW82339   1.953   2.378   2.102  0.0546 -0.0699 -0.2075
27254SOL    HW182340   1.987   2.339   2.021  1.8682  2.6102 -0.8868
27254SOL    HW282341   1.858   2.376   2.092  0.2300  0.3554 -2.5464
27255SOL     OW82342   3.744   0.591   7.777 -0.4838  0.3434 -0.3137
27255SOL    HW182343   3.793   0.671   7.758 -0.2320  0.1163 -0.6405
27255SOL    HW282344   3.764   0.572   7.869 -1.1019  1.0371 -0.0267
27256SOL     OW82345   7.413   6.947   6.365  0.3028 -0.4630 -0.4817
27256SOL    HW182346   7.392   6.971   6.274  1.1829  1.4475 -0.2280
27256SOL    HW282347   7.469   6.870   6.356  0.6501 -0.1091 -1.5844
27257SOL     OW82348   6.857   8.253   9.247 -0.0678 -0.1013  0.4423
27257SOL    HW182349   6.815   8.170   9.227  1.3678 -0.4634 -1.2347
27257SOL    HW282350   6.788   8.304   9.290 -1.7184 -1.2615 -0.6910
27258SOL     OW82351   5.557   7.865   4.219 -0.6023 -0.5286  0.1911
27258SOL    HW182352   5.507   7.937   4.258  0.8562  0.7283 -0.1571
27258SOL    HW282353   5.505   7.840   4.142 -1.7427 -0.6904  0.9853
27259SOL     OW82354   2.792   7.742   7.810 -0.5686  0.5581  0.0350
27259SOL    HW182355   2.860   7.702   7.756 -1.5363 -1.8190  0.4439
27259SOL    HW282356   2.832   7.750   7.897 -0.4803  0.0443  0.0479
27260SOL     OW82357   0.331   5.848   1.691 -0.2798  0.3210 -0.3429
27260SOL    HW182358   0.296   5.761   1.709 -1.8779  1.1478  0.7808
27260SOL    HW282359   0.423   5.843   1.717 -0.6247 -0.7208  0.7453
27261SOL     OW82360   1.253   6.124   7.449 -0.8901  0.3101 -0.3268
27261SOL    HW182361   1.165   6.088   7.464 -0.7665  0.2943  0.3738
27261SOL    HW282362   1.275   6.167   7.531 -0.5391  0.9515 -0.7580
27262SOL     OW82363   9.278   8.409   4.522  0.4853  0.0987 -0.3408
27262SOL    HW182364   9.301   8.389   4.613 -0.6422  2.4170  0.5367
27262SOL    HW282365   9.334   8.351   4.470  0.8372 -1.6380  1.7999
27263SOL     OW82366   9.076   7.076   1.967 -0.6050  0.1401 -0.3395
27263SOL    HW182367   9.037   7.136   2.031 -0.0402  1.2797 -1.0243
27263SOL    HW282368   9.069   7.122   1.884  0.6467 -0.3653 -0.7453
27264SOL     OW82369   0.623   1.552   6.007  0.6059 -0.2640  0.3794
27264SOL    HW182370   0.687   1.481   6.002  0.7779 -0.2017  1.5013
27264SOL    HW282371   0.563   1.535   5.935 -0.8724 -3.0700  2.1054
27265SOL     OW82372   9.938   6.003   2.320 -0.2379 -0.1748  0.1234
27265SOL    HW182373   9.886   6.022   2.399  0.6195  1.2599  0.3854
27265SOL    HW282374   9.948   6.089   2.278  0.0959 -0.7848 -1.0690
27266SOL     OW82375   5.668   2.625   4.007 -0.0422  0.4096  0.4262
27266SOL    HW182376   5.755   2.613   3.968  0.3770  0.9540  1.1909
27266SOL    HW282377   5.658   2.720   4.015 -0.8538  0.3647  0.0308
27267SOL     OW82378   2.540   0.995   8.398  0.3371 -0.2976 -0.5244
27267SOL    HW182379   2.569   0.946   8.475  1.2396  2.1195  0.7807
27267SOL    HW282380   2.568   0.941   8.324  1.8219 -1.4707  0.8107
27268SOL     OW82381   4.610   3.564   2.364 -0.3412 -0.1050  0.0241
27268SOL    HW182382   4.627   3.551   2.271 -0.1083  0.8419 -0.0729
27268SOL    HW282383   4.696   3.574   2.404 -0.4426 -0.4315  0.3412
27269SOL     OW82384   4.033   6.915   2.623 -0.0513 -0.0240 -0.1112
27269SOL    HW182385   4.068   6.876   2.543  0.4498 -0.2991  0.2375
27269SOL    HW282386   4.109   6.953   2.667 -0.2003 -0.4969  0.5792
27270SOL     OW82387   2.888   1.538   6.461 -0.0759  0.4640  0.8901
27270SOL    HW182388   2.807   1.492   6.437 -0.6651  2.0106 -0.2624
27270SOL    HW282389   2.882   1.548   6.556  0.0361 -1.6931  1.1813
27271SOL     OW82390   1.649   1.599   8.390  0.7571  0.4441  0.4722
27271SOL    HW182391   1.611   1.630   8.472  0.2241  0.5536  0.1854
27271SOL    HW282392   1.704   1.525   8.416 -0.1688 -0.1452  0.8106
27272SOL     OW82393   9.957   2.086   0.575  0.3560 -0.5750 -0.5785
27272SOL    HW182394   9.969   2.071   0.481 -1.4523  0.1426 -0.9682
27272SOL    HW282395   9.911   2.169   0.580  0.8625 -0.3519  0.9976
27273SOL     OW82396   8.788   7.486   9.506 -0.0579  0.3619 -0.1338
27273SOL    HW182397   8.734   7.424   9.458 -0.1942  1.5963 -1.6376
27273SOL    HW282398   8.845   7.431   9.560 -0.1951 -1.0737 -1.3803
27274SOL     OW82399   7.866   1.066   1.622  0.1061  0.3378 -1.0371
27274SOL    HW182400   7.876   0.972   1.634 -1.8230 -0.1851 -2.8848
27274SOL    HW282401   7.944   1.093   1.574  0.7254 -0.2780 -0.3953
27275SOL     OW82402   6.057   3.150   5.519  0.2441  0.3952  0.3235
27275SOL    HW182403   6.087   3.106   5.440  2.1439  0.8819  0.7106
27275SOL    HW282404   6.135   3.153   5.576 -0.5168  1.8629  1.3667
27276SOL     OW82405   7.711   2.289   4.691 -0.2480 -0.4522  0.2665
27276SOL    HW182406   7.717   2.236   4.771  1.4981  0.1036  0.5553
27276SOL    HW282407   7.701   2.226   4.621 -1.7297 -0.9601  0.9006
27277SOL     OW82408   9.095   1.565   5.271 -0.3342  0.2532 -0.6547
27277SOL    HW182409   9.001   1.567   5.289 -0.2461  2.1741 -0.2238
27277SOL    HW282410   9.107   1.488   5.215 -1.8622 -1.0927  0.7790
27278SOL     OW82411   0.770   2.607   6.166 -0.2494  0.1108 -0.3338
27278SOL    HW182412   0.699   2.665   6.195 -0.5917  0.6756 -2.2103
27278SOL    HW282413   0.729   2.521   6.157 -0.0965 -0.1234  0.9369
27279SOL     OW82414   3.459   4.206   4.287  0.2010  0.1915 -0.6218
27279SOL    HW182415   3.482   4.120   4.251  0.2046 -1.1887  2.3472
27279SOL    HW282416   3.375   4.191   4.330  0.6167  1.4140  0.6859
27280SOL     OW82417   6.789   0.807   9.020  0.0075  0.0525 -0.2657
27280SOL    HW182418   6.723   0.764   8.966  0.3130 -0.1748 -0.4565
27280SOL    HW282419   6.864   0.819   8.962 -0.6047  2.2618 -0.6792
27281SOL     OW82420   1.506   5.218   4.538  0.4355  0.5072  0.0755
27281SOL    HW182421   1.424   5.233   4.585  0.2564 -0.3158  0.0402
27281SOL    HW282422   1.479   5.206   4.447  0.6907  1.1742 -0.0939
27282SOL     OW82423   1.585   1.359   4.270  0.5021  0.5569  0.2945
27282SOL    HW182424   1.500   1.399   4.252 -0.1073  0.0933  1.9605
27282SOL    HW282425   1.573   1.266   4.249  0.4811  0.4263  0.8692
27283SOL     OW82426   5.170   9.145   4.644 -0.1737 -0.3897  0.2179
27283SOL    HW182427   5.247   9.095   4.670 -0.5875 -1.2741 -0.2100
27283SOL    HW282428   5.161   9.128   4.551 -1.0856 -0.5793  0.3324
27284SOL     OW82429   6.633   2.703   6.312  0.3674  0.3893  0.1476
27284SOL    HW182430   6.617   2.687   6.405  1.1054  0.9301  0.3827
27284SOL    HW282431   6.652   2.616   6.276 -1.2007 -0.0066  0.2155
27285SOL     OW82432   0.363   3.604   0.102  0.2052  0.4293 -0.5600
27285SOL    HW182433   0.374   3.510   0.112  2.3340  0.7304  0.5932
27285SOL    HW282434   0.312   3.615   0.022  0.5196 -1.6650 -1.0863
27286SOL     OW82435   9.940   8.793   3.390 -0.5978  0.2339 -0.4889
27286SOL    HW182436   9.972   8.880   3.372 -1.9446  0.3557 -2.6679
27286SOL    HW282437   9.964   8.776   3.482  1.7250  1.9155 -0.7265
27287SOL     OW82438   8.224   6.158   4.746  0.0193  0.8126  0.2610
27287SOL    HW182439   8.307   6.148   4.793 -0.6135 -0.4589  1.1443
27287SOL    HW282440   8.172   6.216   4.802 -1.5448 -2.3853  2.3682
27288SOL     OW82441   8.657   8.111   0.734  0.1846  0.2830 -0.8065
27288SOL    HW182442   8.726   8.146   0.790 -0.7290  1.0020 -0.0803
27288SOL    HW282443   8.700   8.043   0.682  1.0373 -0.5994  0.9452
27289SOL     OW82444   7.957   6.010   3.891 -0.4706  0.5805  0.4839
27289SOL    HW182445   7.887   5.975   3.946 -0.8068 -1.6850 -1.2501
27289SOL    HW282446   7.911   6.061   3.823 -0.2780  0.7683  0.4933
27290SOL     OW82447   9.088   6.155   2.927 -0.5390  0.5171  0.1700
27290SOL    HW182448   9.159   6.101   2.892 -1.7712 -0.7560 -0.4619
27290SOL    HW282449   9.085   6.232   2.870  0.7151  0.8877  0.5813
27291SOL     OW82450   2.550   9.252   5.649  0.0333 -0.6206  0.1294
27291SOL    HW182451   2.544   9.214   5.737  2.7590 -0.1281  0.6165
27291SOL    HW282452   2.621   9.203   5.607 -0.8019 -0.4188 -1.5923
27292SOL     OW82453   6.318   5.430   4.212 -0.1609 -0.2759  0.4367
27292SOL    HW182454   6.294   5.521   4.198 -1.7313 -0.3348  2.2362
27292SOL    HW282455   6.322   5.420   4.307 -0.0239 -2.0648  0.2893
27293SOL     OW82456   0.191   8.353   5.998  0.0264 -0.0342  0.5115
27293SOL    HW182457   0.122   8.343   5.933  0.3050  0.3281  0.1575
27293SOL    HW282458   0.207   8.447   6.002  2.3437 -0.2599 -1.3697
27294SOL     OW82459   7.540   4.442   4.863 -0.5457 -0.4758 -0.0281
27294SOL    HW182460   7.507   4.531   4.860 -0.2688 -0.3526  0.3769
27294SOL    HW282461   7.471   4.388   4.823 -0.8288 -0.1165 -0.0239
27295SOL     OW82462   4.642  -0.021   2.995 -0.4158 -0.2909 -0.3482
27295SOL    HW182463   4.656  -0.047   3.086  2.6613  1.7835 -0.0533
27295SOL    HW282464   4.620   0.072   3.000  0.1187 -0.0624 -1.7057
27296SOL     OW82465   4.293   2.746   2.857  0.3607 -0.0842  0.1327
27296SOL    HW182466   4.272   2.655   2.836 -1.1056  0.4385 -0.8052
27296SOL    HW282467   4.216   2.779   2.903  0.0627  1.2020 -1.2162
27297SOL     OW82468   0.099   2.734   5.107 -0.0275 -0.0167 -0.6372
27297SOL    HW182469   0.005   2.721   5.120  0.2040 -0.3357  1.0582
27297SOL    HW282470   0.107   2.770   5.019 -1.7775  0.4584 -0.6381
27298SOL     OW82471   8.347   1.117   8.728  0.0815 -0.2688  0.1223
27298SOL    HW182472   8.426   1.167   8.708 -0.4227 -0.0452 -1.4257
27298SOL    HW282473   8.376   1.050   8.790  1.5489 -0.3666 -0.6284
27299SOL     OW82474   6.700   7.396   1.087 -0.1819  0.1775 -0.4999
27299SOL    HW182475   6.770   7.336   1.058 -0.7101  0.2917 -2.0844
27299SOL    HW282476   6.722   7.415   1.178  2.0193  0.4097 -1.0145
27300SOL     OW82477   8.918   2.989   9.312  0.5112 -0.2536 -0.9353
27300SOL    HW182478   9.002   2.942   9.311  0.3587 -0.7091  1.4738
27300SOL    HW282479   8.941   3.080   9.295  1.7152 -0.1564  0.9076
27301SOL     OW82480   3.254   1.339   0.328  0.0134 -0.6462 -0.1497
27301SOL    HW182481   3.252   1.248   0.298 -1.9019 -0.4877 -0.5850
27301SOL    HW282482   3.289   1.333   0.417  1.1570 -1.6458 -0.6377
27302SOL     OW82483   9.486   4.867   5.912  0.1936  1.0641 -0.2259
27302SOL    HW182484   9.459   4.827   5.995  1.6057  2.7209  1.1215
27302SOL    HW282485   9.404   4.884   5.865 -0.5906 -0.5196  0.5120
27303SOL     OW82486   0.072   2.959   0.840  0.2497  0.4129 -0.2187
27303SOL    HW182487   0.026   2.931   0.920  2.5001  0.3384  1.1497
27303SOL    HW282488   0.012   3.021   0.798 -0.8400  0.7970  1.7782
27304SOL     OW82489   6.500   8.502   6.097  0.4397  0.4733 -0.0322
27304SOL    HW182490   6.468   8.545   6.176  1.9835 -0.3324  1.0872
27304SOL    HW282491   6.595   8.507   6.104  0.6094  0.1485 -1.7217
27305SOL     OW82492   8.175   2.816   4.612 -0.9137 -0.6460  0.1603
27305SOL    HW182493   8.083   2.802   4.635 -0.8605 -0.3749  0.5227
27305SOL    HW282494   8.172   2.850   4.522 -1.2007 -0.0030  0.4096
27306SOL     OW82495   1.704   8.379   5.158  0.5871  0.0627  0.2185
27306SOL    HW182496   1.769   8.438   5.120 -0.6187  0.6024 -1.0911
27306SOL    HW282497   1.708   8.300   5.105  1.0065 -0.3889  0.9044
27307SOL     OW82498   2.575   9.930   8.000 -0.3356  0.1958  0.4543
27307SOL    HW182499   2.494   9.881   7.988 -0.8444  0.5413  2.2170
27307SOL    HW282500   2.630   9.872   8.054  0.2672  0.3095 -0.0261
27308SOL     OW82501   2.294   7.978   6.736  0.1142  0.4650  0.3139
27308SOL    HW182502   2.362   7.998   6.672  1.1482  1.4165  1.6497
27308SOL    HW282503   2.307   7.885   6.756  0.8918  0.5956  0.4188
27309SOL     OW82504   6.920   4.234   6.967 -0.6482 -0.1376  0.2474
27309SOL    HW182505   7.005   4.242   6.924 -0.6527  0.0741  0.2738
27309SOL    HW282506   6.857   4.231   6.895 -0.7216  1.0523  0.2389
27310SOL     OW82507   9.281   0.217   1.222 -0.0940 -0.2896 -0.0739
27310SOL    HW182508   9.361   0.265   1.244  0.6618 -1.0874 -0.9527
27310SOL    HW282509   9.312   0.131   1.196 -1.4893 -1.6048  2.3150
27311SOL     OW82510   0.157   3.818   1.330 -0.3994 -0.2754  0.1521
27311SOL    HW182511   0.214   3.741   1.335  0.5930  0.4772  0.6973
27311SOL    HW282512   0.217   3.892   1.327 -1.3529  0.5214  0.3241
27312SOL     OW82513   2.168   7.906   9.939  0.8569  0.2331  0.3601
27312SOL    HW182514   2.191   7.814   9.955  1.8578  0.1489 -1.3549
27312SOL    HW282515   2.230   7.935   9.872  0.1160  1.9793  0.3804
27313SOL     OW82516   4.732   6.884   6.026  0.3615  0.3341  0.3408
27313SOL    HW182517   4.665   6.840   5.972  0.5052  1.6898 -1.0055
27313SOL    HW282518   4.783   6.812   6.063 -0.5447 -0.6850 -0.3074
27314SOL     OW82519   1.718   5.212   7.867  0.2537 -0.0618  0.5979
27314SOL    HW182520   1.654   5.283   7.859  0.5217  0.5830  3.1686
27314SOL    HW282521   1.671   5.144   7.916  0.4152 -1.1786 -0.7286
27315SOL     OW82522   5.670   1.559   2.886  0.0774 -0.1901  0.0295
27315SOL    HW182523   5.640   1.474   2.918  0.1704 -0.1670  0.1827
27315SOL    HW282524   5.606   1.584   2.820 -0.0506 -0.2953  0.1131
27316SOL     OW82525   3.089   1.480   5.515  0.6334 -0.9758 -0.4660
27316SOL    HW182526   3.166   1.440   5.473  1.6190 -2.4890  2.5390
27316SOL    HW282527   3.040   1.407   5.551 -1.1907  0.1336 -0.5952
27317SOL     OW82528   3.133   8.199   2.490  0.2909  0.2823 -0.3849
27317SOL    HW182529   3.125   8.265   2.421  0.7290  1.3022  0.5236
27317SOL    HW282530   3.059   8.216   2.548  0.0625 -0.4155 -0.4636
27318SOL     OW82531   1.749   2.277   6.393  0.1058 -0.1837 -0.8009
27318SOL    HW182532   1.765   2.305   6.303 -0.6595  0.9957 -0.5845
27318SOL    HW282533   1.828   2.303   6.441 -0.7647  2.1624 -0.5023
27319SOL     OW82534   8.729   3.552   8.542 -0.4460 -0.0721  0.3446
27319SOL    HW182535   8.773   3.524   8.622  1.2083 -1.8911 -1.1080
27319SOL    HW282536   8.766   3.638   8.522  0.5210 -0.4301  0.5612
27320SOL     OW82537   1.163   4.050   1.347  0.3466  0.1493  0.2567
27320SOL    HW182538   1.216   4.027   1.423  2.7161  1.6628 -0.8248
27320SOL    HW282539   1.175   3.977   1.286  0.9065  0.3021  0.1759
27321SOL     OW82540   4.851   7.562   6.336  0.3578 -0.2907  0.3963
27321SOL    HW182541   4.920   7.538   6.398  0.1325  1.2627  1.3121
27321SOL    HW282542   4.799   7.483   6.326  2.1200 -1.4401 -0.1395
27322SOL     OW82543   6.576   0.782   9.219  0.8644 -0.3536 -0.0283
27322SOL    HW182544   6.517   0.709   9.202  0.8846 -0.2966 -0.3659
27322SOL    HW282545   6.654   0.762   9.167  0.6592  0.1700 -0.5520
27323SOL     OW82546   9.596   3.747   4.918  0.2942 -0.2272 -0.2006
27323SOL    HW182547   9.530   3.684   4.888 -0.3798  0.1064  0.5438
27323SOL    HW282548   9.677   3.718   4.877 -0.5433  0.1634 -2.2777
27324SOL     OW82549   6.953   2.504   2.279 -0.4412 -0.6886 -0.1362
27324SOL    HW182550   6.903   2.561   2.219  0.9687  0.2785 -0.4385
27324SOL    HW282551   6.991   2.437   2.222 -0.3254 -0.6578 -0.0937
27325SOL     OW82552   8.843   1.389   7.341  0.3580 -0.3337  0.4152
27325SOL    HW182553   8.818   1.433   7.260 -0.7926 -2.9148 -0.7435
27325SOL    HW282554   8.852   1.460   7.405 -0.2390  1.6412 -1.5561
27326SOL     OW82555   1.771   3.097   8.522 -0.1007 -0.1448  0.2609
27326SOL    HW182556   1.701   3.065   8.464  1.1246  0.6046 -1.7595
27326SOL    HW282557   1.850   3.093   8.468  0.9860  1.3743  1.6408
27327SOL     OW82558   3.220   1.682   8.302 -0.0939 -0.0798 -0.2033
27327SOL    HW182559   3.149   1.739   8.272  1.0029  2.2396  1.3414
27327SOL    HW282560   3.186   1.643   8.383  0.4272  1.2068  0.6579
27328SOL     OW82561   7.993   4.275   2.205  1.1917  0.8335  0.2212
27328SOL    HW182562   8.074   4.315   2.236  3.1728 -1.5642 -1.5021
27328SOL    HW282563   7.984   4.306   2.115  0.0602  1.2224  0.4516
27329SOL     OW82564   8.637   9.456   9.705  0.1804 -0.2127 -0.0466
27329SOL    HW182565   8.624   9.508   9.783  0.4788 -1.2236  0.6969
27329SOL    HW282566   8.604   9.511   9.633  1.3828  1.3928  0.5759
27330SOL     OW82567   4.310   9.901   5.807  0.0870  0.0246  0.3772
27330SOL    HW182568   4.342   9.990   5.792 -0.2906 -0.0081 -0.6598
27330SOL    HW282569   4.306   9.861   5.721 -0.7650 -0.6554  0.7163
27331SOL     OW82570   3.348   3.914   1.182  0.0277 -0.2158 -0.0177
27331SOL    HW182571   3.328   3.961   1.101 -2.1400 -0.9905  0.0070
27331SOL    HW282572   3.397   3.837   1.154 -2.6197 -1.7005 -0.9799
27332SOL     OW82573   4.808   8.238   5.894  0.0499  0.1336 -0.2108
27332SOL    HW182574   4.793   8.166   5.832  0.4155 -0.9431  0.8988
27332SOL    HW282575   4.895   8.221   5.929 -0.6429 -0.0379  1.5249
27333SOL     OW82576   4.323   8.246   0.846  0.4215 -0.2748 -0.1820
27333SOL    HW182577   4.269   8.214   0.773  1.3532  1.8286 -1.8821
27333SOL    HW282578   4.268   8.310   0.890  0.4625 -0.3355 -0.0423
27334SOL     OW82579   9.032   7.072   0.262 -0.6008 -0.3784  0.2575
27334SOL    HW182580   9.004   6.982   0.248 -1.8155  0.0859 -0.5059
27334SOL    HW282581   9.023   7.113   0.176 -2.6035  1.1167  1.1053
27335SOL     OW82582   0.426   5.806   9.810  0.2851 -0.0292  0.0267
27335SOL    HW182583   0.475   5.761   9.879 -0.3210  0.4622  0.7980
27335SOL    HW282584   0.488   5.870   9.775  0.3494  0.2713  0.6753
27336SOL     OW82585   7.723   0.324   4.023 -0.4081 -0.4794  0.1455
27336SOL    HW182586   7.640   0.319   4.072 -1.2550 -2.3933 -1.3620
27336SOL    HW282587   7.764   0.404   4.055 -2.3901  0.0298  1.6494
27337SOL     OW82588   7.673   2.747   1.673  0.3922  0.1653  0.1737
27337SOL    HW182589   7.639   2.657   1.671  0.1151  0.2696 -1.7401
27337SOL    HW282590   7.595   2.802   1.673  0.5271  0.3925 -1.5326
27338SOL     OW82591   3.513   7.344   5.574  1.0181  0.1086 -0.0771
27338SOL    HW182592   3.548   7.433   5.568  1.6104 -0.1849 -1.2230
27338SOL    HW282593   3.577   7.296   5.627  0.6820  0.3564  0.5696
27339SOL     OW82594   9.909   4.773   2.896  0.2579  0.3429 -0.4811
27339SOL    HW182595   9.843   4.746   2.833  0.6204 -0.0133 -0.7155
27339SOL    HW282596   9.930   4.864   2.873 -1.2252  0.9817  0.5294
27340SOL     OW82597   8.585   1.453   6.837  0.3573 -0.1415  0.5766
27340SOL    HW182598   8.502   1.495   6.860  1.0913  1.6874  0.0247
27340SOL    HW282599   8.614   1.413   6.919 -1.4478 -1.5525  0.5804
27341SOL     OW82600   0.454   0.134   8.573 -0.2001  0.1260 -0.1346
27341SOL    HW182601   0.474   0.060   8.630 -0.4635  0.1924  0.0444
27341SOL    HW282602   0.382   0.104   8.518  1.8868 -0.9795 -2.4510
27342SOL     OW82603   5.198   0.459   5.247  0.3940 -0.1975 -0.7591
27342SOL    HW182604   5.110   0.496   5.259  0.5260 -0.2151  0.3527
27342SOL    HW282605   5.221   0.424   5.333  1.0758 -1.1137 -1.3015
27343SOL     OW82606   8.628   4.643   3.426 -0.2694  0.6103 -0.2026
27343SOL    HW182607   8.543   4.667   3.389 -0.3236 -0.9009 -1.1604
27343SOL    HW282608   8.688   4.711   3.395 -0.2606 -0.6735 -3.4217
27344SOL     OW82609   3.086   7.625   4.113 -0.0505  0.2356 -0.3590
27344SOL    HW182610   3.041   7.707   4.131 -0.9854 -0.3889  0.2871
27344SOL    HW282611   3.086   7.618   4.018  1.5539  1.7701 -0.5194
27345SOL     OW82612   1.703   2.449   2.256 -0.2584  0.3945  0.0054
27345SOL    HW182613   1.752   2.531   2.258  1.0153 -0.3428  0.6445
27345SOL    HW282614   1.731   2.402   2.335 -0.6933 -0.7923 -0.5129
27346SOL     OW82615   8.942   4.359   4.067  0.3298 -0.0273  0.1500
27346SOL    HW182616   8.901   4.294   4.124  1.1568 -0.0229  0.7552
27346SOL    HW282617   8.974   4.308   3.992 -2.3078  0.1850 -1.2468
27347SOL     OW82618   0.938   1.998   9.016  0.3700 -0.0150 -0.3734
27347SOL    HW182619   0.942   2.077   9.070 -1.9148 -0.5186  0.6730
27347SOL    HW282620   0.951   2.028   8.926  3.5111  0.9533  0.3055
27348SOL     OW82621   4.918   2.690   3.142 -0.1459  0.9086 -0.5045
27348SOL    HW182622   4.949   2.646   3.063 -1.3874 -0.8776 -0.0565
27348SOL    HW282623   4.934   2.783   3.125  0.5909  0.4826 -2.4051
27349SOL     OW82624   3.086   6.932   3.676 -0.3722 -0.1621  0.2403
27349SOL    HW182625   2.992   6.928   3.663 -0.2063 -0.7287 -0.8979
27349SOL    HW282626   3.102   6.882   3.756 -1.0905  0.4554  0.7753
27350SOL     OW82627   3.819   0.094   0.732  0.2301  0.5193  0.3929
27350SOL    HW182628   3.903   0.113   0.776  0.2887  1.3165 -0.0388
27350SOL    HW282629   3.844   0.059   0.647  0.1289 -2.4549  1.4998
27351SOL     OW82630   1.181   5.433   5.378  0.1494 -0.0277 -0.5175
27351SOL    HW182631   1.132   5.494   5.322  0.9090  0.0849 -1.0879
27351SOL    HW282632   1.209   5.364   5.318 -0.9056 -1.0799  0.1721
27352SOL     OW82633   6.458   5.335   6.139  0.0398 -0.1102 -0.2904
27352SOL    HW182634   6.509   5.411   6.111  1.4565 -0.2657  1.6381
27352SOL    HW282635   6.369   5.367   6.147  0.3818  0.9972 -0.7670
27353SOL     OW82636   5.257   7.907   7.892 -0.2645  0.1137  0.2422
27353SOL    HW182637   5.303   7.886   7.973  1.9258 -0.9718 -1.2132
27353SOL    HW282638   5.215   7.825   7.866 -0.5807  0.3445  0.0095
27354SOL     OW82639   4.586   5.605   1.294  0.1702  0.1696  0.2759
27354SOL    HW182640   4.634   5.641   1.219 -0.9058  2.8630  0.7784
27354SOL    HW282641   4.629   5.644   1.370 -1.4361  0.9432  0.8221
27355SOL     OW82642   9.991   9.130   9.150  0.0682 -0.0474  0.1540
27355SOL    HW182643   9.903   9.163   9.168 -0.4478 -1.1046 -0.3398
27355SOL    HW282644  10.025   9.102   9.235 -0.1586  0.1690  0.3134
27356SOL     OW82645   3.118   7.316   4.225  0.0246 -0.3690 -0.5511
27356SOL    HW182646   3.148   7.378   4.291  0.7270 -1.0332 -0.2311
27356SOL    HW282647   3.185   7.321   4.156  0.4174 -1.2026 -0.2435
27357SOL     OW82648   0.822   5.723   6.852  0.4200  0.4459  0.0932
27357SOL    HW182649   0.766   5.722   6.929  1.9653 -1.0736  1.2593
27357SOL    HW282650   0.828   5.631   6.825  1.4864  0.7118 -0.6310
27358SOL     OW82651   7.738   8.181   8.999 -0.1887 -0.0222 -0.6534
27358SOL    HW182652   7.644   8.186   9.016 -0.0474  2.0149 -0.2313
27358SOL    HW282653   7.744   8.143   8.911 -1.5070  1.4960 -1.4446
27359SOL     OW82654   1.694   5.169   4.064  0.4102  0.1636  0.0542
27359SOL    HW182655   1.604   5.156   4.096  0.9182 -2.0308  0.7518
27359SOL    HW282656   1.740   5.210   4.137  0.7933 -1.9978  1.1242
27360SOL     OW82657   2.038   6.579   6.609 -0.4165  0.5865 -0.0489
27360SOL    HW182658   1.991   6.495   6.608 -0.4983  0.5984  1.1982
27360SOL    HW282659   1.979   6.638   6.656  0.1125  1.0516  0.0372
27361SOL     OW82660   1.033   0.766   3.825 -0.7571  0.6633  1.0032
27361SOL    HW182661   0.942   0.765   3.793  0.1346  2.4058 -2.0142
27361SOL    HW282662   1.057   0.673   3.829 -1.7388  0.2074 -1.3631
27362SOL     OW82663   4.398   6.103   1.520  0.3268 -0.3607  0.0011
27362SOL    HW182664   4.457   6.121   1.594  0.7779 -1.3142 -0.1130
27362SOL    HW282665   4.409   6.010   1.503 -1.7129 -0.7243  0.3901
27363SOL     OW82666   3.129   3.640   9.561 -0.0122  0.1873  0.5714
27363SOL    HW182667   3.049   3.692   9.549 -0.4084 -0.3078  1.0091
27363SOL    HW282668   3.173   3.643   9.476 -0.8269 -0.0699  0.1277
27364SOL     OW82669   1.466   3.709   5.133  0.1418  0.0375  0.3792
27364SOL    HW182670   1.370   3.705   5.131  0.1565 -0.2923  0.3466
27364SOL    HW282671   1.486   3.751   5.217 -0.0024 -0.9121  0.8975
27365SOL     OW82672   8.650   4.531   8.026  0.2400 -0.1147 -0.1473
27365SOL    HW182673   8.710   4.545   8.100 -0.7139  0.9679  0.4443
27365SOL    HW282674   8.692   4.576   7.953  0.8048 -0.5124 -0.0743
27366SOL     OW82675   2.869   2.034   5.425  0.5596  0.3567 -0.5155
27366SOL    HW182676   2.938   2.100   5.414  1.4190 -0.8868 -3.3528
27366SOL    HW282677   2.913   1.959   5.463  0.4975 -0.0044 -1.1493
27367SOL     OW82678   4.345   4.569   6.569 -0.3550  0.1037 -0.0504
27367SOL    HW182679   4.439   4.562   6.555 -0.7937 -0.6915 -3.4733
27367SOL    HW282680   4.322   4.489   6.616  0.4887 -0.3305 -0.3583
27368SOL     OW82681   7.308   3.036   9.722  0.7063  0.3725  0.6846
27368SOL    HW182682   7.237   2.972   9.724  1.0983 -0.0673  1.1670
27368SOL    HW282683   7.375   2.995   9.668  1.0903  0.2216  1.2630
27369SOL     OW82684   4.691   3.510   6.315 -0.2537 -0.4536 -0.1748
27369SOL    HW182685   4.668   3.578   6.378  1.5018 -1.2480  1.4221
27369SOL    HW282686   4.623   3.515   6.248 -1.3463  1.4316  0.9975
27370SOL     OW82687   7.756   0.795   4.859 -0.3029  0.1810 -0.1580
27370SOL    HW182688   7.785   0.705   4.847 -0.9489 -0.0833  0.2512
27370SOL    HW282689   7.679   0.789   4.915 -0.2829  0.9969 -0.0263
27371SOL     OW82690   9.381   2.425   7.754 -0.2079 -0.5101 -0.3541
27371SOL    HW182691   9.452   2.485   7.776 -1.6301  0.5406  1.6653
27371SOL    HW282692   9.398   2.348   7.809 -0.4646 -0.3898 -0.1084
27372SOL     OW82693   0.903   4.067   1.107  0.0725 -0.3274  0.2674
27372SOL    HW182694   0.888   4.048   1.200  1.9876 -0.3700  0.6115
27372SOL    HW282695   0.931   3.984   1.069  0.5180 -0.0301 -0.0622
27373SOL     OW82696   0.795   0.936   3.528  0.0326  0.4003  0.2234
27373SOL    HW182697   0.731   0.950   3.458  0.5903  1.9352 -0.0217
27373SOL    HW282698   0.746   0.952   3.609 -1.2137 -3.5636  0.4345
27374SOL     OW82699   9.561   5.632   3.402 -0.2240 -0.2983  0.4676
27374SOL    HW182700   9.537   5.640   3.494 -0.1253  0.4690  0.4308
27374SOL    HW282701   9.501   5.566   3.367 -0.8763  0.0790  0.8642
27375SOL     OW82702   0.559   4.784   1.919  0.0623  0.1877  0.3169
27375SOL    HW182703   0.567   4.713   1.983 -2.1565 -0.1761  0.2912
27375SOL    HW282704   0.477   4.828   1.943  1.3698  2.7623  0.2999
27376SOL     OW82705   6.432   1.673   5.118 -0.0453 -0.5840 -0.0672
27376SOL    HW182706   6.468   1.761   5.124  1.1241 -0.9947 -0.6372
27376SOL    HW282707   6.482   1.622   5.183  0.3926 -1.1519 -0.8283
27377SOL     OW82708   5.538   9.051   7.873  0.1377  0.3098 -0.1358
27377SOL    HW182709   5.551   9.081   7.963  0.9215  2.7340 -0.9772
27377SOL    HW282710   5.557   8.957   7.876 -0.1596  0.2635  2.2585
27378SOL     OW82711   2.636   8.870   5.742 -0.1770 -0.0305  0.1086
27378SOL    HW182712   2.562   8.913   5.784  0.3288  2.2247 -1.1518
27378SOL    HW282713   2.601   8.841   5.657  0.2422  0.6257 -0.2961
27379SOL     OW82714   0.915   5.003   2.033  0.3336 -0.6135  0.2138
27379SOL    HW182715   0.945   5.077   2.087 -4.0268  1.1550  0.6082
27379SOL    HW282716   0.931   4.926   2.088  2.5943  0.2431  0.8968
27380SOL     OW82717   0.598   6.454   3.791  0.0163  0.0525  0.6256
27380SOL    HW182718   0.622   6.541   3.822  1.9902 -0.6479  1.1997
27380SOL    HW282719   0.603   6.398   3.869 -0.2284 -0.7635  0.0761
27381SOL     OW82720   5.181   4.194   5.650  0.0388 -0.0065 -0.3823
27381SOL    HW182721   5.159   4.227   5.737 -1.1844 -0.6302 -0.4235
27381SOL    HW282722   5.273   4.217   5.637  0.2267  0.1115  1.0589
27382SOL     OW82723   3.349   1.101   2.619 -0.0582 -0.3756 -0.7726
27382SOL    HW182724   3.286   1.068   2.683  0.6132 -1.4588 -0.6440
27382SOL    HW282725   3.301   1.168   2.570 -0.1642  1.5825  1.7983
27383SOL     OW82726   7.696   8.418   6.843  0.1462  0.3204 -0.0168
27383SOL    HW182727   7.785   8.396   6.871  0.1610 -0.3930 -0.5881
27383SOL    HW282728   7.646   8.422   6.924 -0.3644 -4.1122  0.1228
27384SOL     OW82729   5.617   6.630   5.183  0.3667  0.4469  0.7730
27384SOL    HW182730   5.578   6.678   5.256 -0.5814 -0.9884  1.2590
27384SOL    HW282731   5.623   6.539   5.214  0.1009 -0.1660 -0.8601
27385SOL     OW82732   8.777   2.023   3.343  0.4040  0.5249 -0.2608
27385SOL    HW182733   8.789   1.991   3.254 -0.6531  0.0297 -0.2365
27385SOL    HW282734   8.690   2.063   3.343  1.1162  2.1708  0.0781
27386SOL     OW82735   5.122   3.392   0.398 -0.0004  0.3297  0.1663
27386SOL    HW182736   5.173   3.412   0.320  0.2676 -0.3534  0.1645
27386SOL    HW282737   5.142   3.463   0.459  0.9256  0.0815  0.1562
27387SOL     OW82738   1.351   8.506   7.590 -0.0281 -0.0311 -0.2828
27387SOL    HW182739   1.404   8.490   7.669  1.0431  1.6939 -0.5892
27387SOL    HW282740   1.395   8.456   7.522 -0.9166 -1.4729  0.1718
27388SOL     OW82741   1.242   9.698   0.917 -0.1169  0.3347 -0.2779
27388SOL    HW182742   1.261   9.668   1.006  0.0523  0.6392 -0.2129
27388SOL    HW282743   1.236   9.617   0.866 -1.4203  0.0731  0.2350
27389SOL     OW82744   7.848   7.915   1.377 -0.4925  0.3574  0.1535
27389SOL    HW182745   7.903   7.962   1.439  0.4719  0.1345 -0.5070
27389SOL    HW282746   7.891   7.830   1.366 -0.7128  0.3432 -0.7008
27390SOL     OW82747   3.271   9.556   7.276  0.4592  0.3246 -0.0688
27390SOL    HW182748   3.180   9.533   7.259  0.2338  2.5410 -2.5192
27390SOL    HW282749   3.320   9.477   7.251 -0.6780 -0.3115 -0.3719
27391SOL     OW82750   8.546   8.328   8.212 -0.2722  0.0006  0.3530
27391SOL    HW182751   8.529   8.407   8.161 -0.6957  0.0102  0.5093
27391SOL    HW282752   8.523   8.351   8.301  1.2342  0.2382  0.7018
27392SOL     OW82753   5.506   5.573   9.036  1.1659  0.7240 -0.3426
27392SOL    HW182754   5.455   5.566   9.117 -1.0693 -0.5444 -1.7604
27392SOL    HW282755   5.466   5.646   8.989  0.4004 -0.4239 -1.5655
27393SOL     OW82756   8.760   1.405   4.345 -0.3178 -0.8491  0.0816
27393SOL    HW182757   8.837   1.380   4.397 -1.1017 -2.3003  0.6059
27393SOL    HW282758   8.691   1.420   4.410 -0.6697 -0.2169 -0.4193
27394SOL     OW82759   0.650   2.799   3.414  0.6074  0.0194 -0.7014
27394SOL    HW182760   0.590   2.866   3.383 -0.9988 -0.4500  1.1718
27394SOL    HW282761   0.664   2.742   3.339 -0.7637  0.5210 -1.3701
27395SOL     OW82762   5.076   7.360   7.266  0.0981 -0.1364 -0.2072
27395SOL    HW182763   5.138   7.312   7.320 -1.2678  0.3326  1.8948
27395SOL    HW282764   5.085   7.451   7.294 -1.4173 -0.0467  0.0548
27396SOL     OW82765   3.262   8.242   4.903  0.5292  0.6296 -0.1256
27396SOL    HW182766   3.334   8.265   4.962  0.8424 -0.7748  0.0811
27396SOL    HW282767   3.213   8.176   4.951  0.4086 -0.0631 -1.1783
27397SOL     OW82768   5.912   1.708   6.823  0.0521  0.0296  0.7965
27397SOL    HW182769   5.859   1.628   6.829 -0.4039  0.2826  0.1813
27397SOL    HW282770   5.848   1.779   6.817  0.4574  0.3292 -0.0721
27398SOL     OW82771   3.408   4.365   8.690  0.1126 -0.2862 -0.4217
27398SOL    HW182772   3.349   4.440   8.685  1.9306  1.1746 -1.6233
27398SOL    HW282773   3.401   4.335   8.780 -0.7516  1.2712  0.0715
27399SOL     OW82774   3.572   0.738   1.862 -0.3800  0.2335  0.3539
27399SOL    HW182775   3.495   0.782   1.897 -0.3973 -0.1273  0.7780
27399SOL    HW282776   3.633   0.733   1.936 -0.6038 -0.9534  0.4850
27400SOL     OW82777   2.156   8.948   1.631 -0.2441 -0.0626 -0.0769
27400SOL    HW182778   2.194   8.950   1.719 -0.6560 -1.8822  0.1779
27400SOL    HW282779   2.104   8.868   1.629  0.6485 -0.6495 -2.3364
27401SOL     OW82780   9.305   9.505   5.185  0.5863  0.0631  0.2411
27401SOL    HW182781   9.239   9.534   5.247  0.8998 -0.1771  0.6915
27401SOL    HW282782   9.281   9.546   5.102 -1.2029 -1.4615 -0.0641
27402SOL     OW82783   8.831   2.880   4.282 -0.5480 -0.0266  0.1236
27402SOL    HW182784   8.745   2.891   4.242 -1.0896 -1.5405  0.8023
27402SOL    HW282785   8.893   2.911   4.215 -1.5724  0.4611 -0.6220
27403SOL     OW82786   9.643   0.297   0.590 -0.4186 -0.3892 -0.1305
27403SOL    HW182787   9.629   0.230   0.523  2.3195 -1.3320  0.1037
27403SOL    HW282788   9.720   0.345   0.561 -0.2760  0.3996  1.4300
27404SOL     OW82789   4.966   6.816   8.919  0.3990 -0.4918  0.0515
27404SOL    HW182790   4.879   6.775   8.926  0.2571 -0.1745  0.1422
27404SOL    HW282791   4.956   6.900   8.962  0.2320  0.3657 -1.5879
27405SOL     OW82792   3.818   3.177   2.354 -0.3119 -0.3146  0.2422
27405SOL    HW182793   3.868   3.113   2.303  1.4630  0.7418  0.5804
27405SOL    HW282794   3.791   3.128   2.432 -2.2909 -1.6903 -1.2012
27406SOL     OW82795   5.144   2.574   6.162 -0.0470 -0.1205 -0.0542
27406SOL    HW182796   5.169   2.624   6.240  3.9719 -1.3811 -0.3406
27406SOL    HW282797   5.091   2.636   6.111  1.3652  2.4872  1.4107
27407SOL     OW82798   0.434   8.247   5.544  0.2259  0.3377  0.1322
27407SOL    HW182799   0.483   8.262   5.463 -2.2057  2.1800 -1.1344
27407SOL    HW282800   0.427   8.333   5.584 -1.2181 -0.0143  0.7023
27408SOL     OW82801   3.024   7.751   9.860 -0.6524  0.3584 -0.1231
27408SOL    HW182802   2.976   7.822   9.904  0.2006  0.4651  0.6549
27408SOL    HW282803   2.958   7.709   9.805 -1.5898  0.6676  0.7310
27409SOL     OW82804   1.722   3.431   6.099  0.0877  0.0740  0.4268
27409SOL    HW182805   1.752   3.343   6.077  0.4053  0.3800 -0.3844
27409SOL    HW282806   1.651   3.417   6.161  0.4536 -0.7359  0.6840
27410SOL     OW82807   0.489   4.270   9.962  0.0675  0.3211  0.5684
27410SOL    HW182808   0.547   4.239   9.892 -0.1721  0.2335  0.4065
27410SOL    HW282809   0.476   4.193  10.017 -2.3305 -0.5465 -1.0544
27411SOL     OW82810   0.708   6.621   8.745  0.5886 -0.8088 -0.2481
27411SOL    HW182811   0.641   6.658   8.801 -0.6213  1.3825 -2.8927
27411SOL    HW282812   0.670   6.539   8.713  0.5046 -1.1144  0.6070
27412SOL     OW82813   7.743   4.262   9.710 -0.6656  0.2157 -0.1952
27412SOL    HW182814   7.807   4.332   9.719 -0.6379  0.3137 -1.0608
27412SOL    HW282815   7.780   4.204   9.645 -0.6670 -0.6485  0.5555
27413SOL     OW82816   4.954   2.979   8.758  0.0895 -0.0304  0.1328
27413SOL    HW182817   5.029   2.985   8.817 -0.5330 -2.2776  1.2553
27413SOL    HW282818   4.959   3.060   8.706  3.0836  0.0708  0.3537
27414SOL     OW82819   1.553   0.767   8.898  0.5480 -0.3445  0.3918
27414SOL    HW182820   1.574   0.739   8.809 -1.1133  0.2350 -0.2233
27414SOL    HW282821   1.526   0.687   8.943 -1.0760 -0.2651 -0.4007
27415SOL     OW82822   4.519   7.238   1.963  0.6003  0.2077  0.0024
27415SOL    HW182823   4.555   7.217   1.877 -1.0473 -0.3335 -0.5935
27415SOL    HW282824   4.483   7.155   1.995 -0.2936  0.7514  0.4529
27416SOL     OW82825   3.884   3.644   3.188  0.1132  0.2906  0.5490
27416SOL    HW182826   3.929   3.696   3.254 -0.3874  0.2490  0.9284
27416SOL    HW282827   3.800   3.621   3.228 -0.7526  1.3402 -0.5682
27417SOL     OW82828   2.637   1.202   7.273 -0.3130 -0.3569  0.2525
27417SOL    HW182829   2.622   1.206   7.178  0.0821  1.4090  0.2265
27417SOL    HW282830   2.581   1.271   7.308  1.3398  0.6371  1.0326
27418SOL     OW82831   2.019   8.771   4.009 -0.2465 -0.0017  0.4266
27418SOL    HW182832   2.115   8.774   4.008 -0.2180  0.1896  1.8265
27418SOL    HW282833   1.993   8.834   3.942  0.6004 -0.7941 -0.6818
27419SOL     OW82834   5.605   5.977   3.281  0.4730  0.0844 -0.4338
27419SOL    HW182835   5.578   5.919   3.352 -0.7915  0.5034 -0.5429
27419SOL    HW282836   5.576   5.933   3.201 -5.0367  2.8283 -0.4112
27420SOL     OW82837   0.866   5.197   0.588  0.5977  0.0227  0.4632
27420SOL    HW182838   0.889   5.285   0.559  1.3946  0.0136  1.0247
27420SOL    HW282839   0.792   5.172   0.533  2.1396 -0.0701 -1.6669
27421SOL     OW82840   8.722   0.411   0.185 -0.2171  0.4027 -0.2116
27421SOL    HW182841   8.784   0.353   0.229  1.8464  2.4656 -0.2210
27421SOL    HW282842   8.636   0.385   0.219  0.8979 -0.8456  1.8202
27422SOL     OW82843   3.973   4.518   8.456  0.5225 -0.2751  0.9629
27422SOL    HW182844   3.962   4.602   8.412  2.1481 -0.8109 -0.5775
27422SOL    HW282845   3.886   4.479   8.457  0.4282 -0.2912 -1.9627
27423SOL     OW82846   3.857   7.833   1.513 -0.1852  0.1685  0.8370
27423SOL    HW182847   3.833   7.873   1.430  1.4095  0.2522  0.3911
27423SOL    HW282848   3.846   7.739   1.499 -1.9061  0.2839  1.2178
27424SOL     OW82849   9.616   6.344   7.155 -0.1576 -0.1446 -0.3197
27424SOL    HW182850   9.623   6.298   7.239 -0.5525  1.0787  0.4082
27424SOL    HW282851   9.701   6.388   7.145 -0.6450  0.9704  0.2283
27425SOL     OW82852   8.075   5.669   8.942 -0.1138 -0.3531  0.1116
27425SOL    HW182853   7.991   5.623   8.951  0.1396 -0.5726  1.7519
27425SOL    HW282854   8.065   5.722   8.863 -0.8180 -2.3642 -1.2182
27426SOL     OW82855   0.767   3.243   6.730  0.3749  0.3814 -0.0947
27426SOL    HW182856   0.707   3.181   6.771 -1.1346  0.7665 -1.6144
27426SOL    HW282857   0.853   3.220   6.765 -0.3220 -1.7098  0.3764
27427SOL     OW82858   4.953   9.352   4.244  0.7173 -0.2129 -0.4889
27427SOL    HW182859   4.869   9.386   4.274  1.3250  0.3277  0.6742
27427SOL    HW282860   4.954   9.261   4.274  0.7054 -0.1118 -0.1843
27428SOL     OW82861   4.996   2.571   2.905  0.3426  0.2603 -0.0077
27428SOL    HW182862   5.028   2.588   2.816 -1.2127 -0.5200 -0.7664
27428SOL    HW282863   5.049   2.497   2.935  1.2568  0.8794 -0.0406
27429SOL     OW82864   8.773   1.101   2.112 -0.3069  0.0729  0.5192
27429SOL    HW182865   8.858   1.063   2.091 -0.4983  0.6764 -1.6192
27429SOL    HW282866   8.786   1.142   2.198  0.9006 -1.6780  1.2290
27430SOL     OW82867   9.113   2.172   9.584 -0.0055 -0.1413  0.1130
27430SOL    HW182868   9.185   2.199   9.527 -1.0943 -2.4496 -2.6405
27430SOL    HW282869   9.148   2.099   9.635  0.3348  0.4806  0.7836
27431SOL     OW82870   1.617   3.463   5.217  0.2091  0.0634 -0.2857
27431SOL    HW182871   1.580   3.412   5.289 -1.3446 -0.2872 -1.2907
27431SOL    HW282872   1.541   3.502   5.173  1.1963  1.1698 -1.0860
27432SOL     OW82873   3.415   1.825   5.816 -0.2558  0.0710  0.1676
27432SOL    HW182874   3.398   1.917   5.798 -1.2008  0.0265  0.7936
27432SOL    HW282875   3.425   1.820   5.911  0.0367 -0.4371  0.1157
27433SOL     OW82876   8.531   4.954   7.951  0.1408 -0.1769 -0.1315
27433SOL    HW182877   8.594   5.011   7.906 -0.5707  1.2764  0.6368
27433SOL    HW282878   8.460   4.942   7.888 -0.1873  0.6623  0.0678
27434SOL     OW82879   5.952   4.089   0.775 -0.1761 -1.1009  0.0832
27434SOL    HW182880   5.990   4.073   0.689 -0.5880 -0.3519 -0.2438
27434SOL    HW282881   5.966   4.007   0.823  0.6679 -1.2908 -0.4620
27435SOL     OW82882   9.301   7.876   7.381  0.1933 -0.1092 -0.4719
27435SOL    HW182883   9.247   7.800   7.402 -1.1999  1.2019  1.0552
27435SOL    HW282884   9.390   7.850   7.405 -0.2385 -1.2810 -0.0669
27436SOL     OW82885   4.208   9.077   2.163  0.4434  0.0559  0.1830
27436SOL    HW182886   4.143   9.016   2.197 -0.8682  0.8204 -0.8292
27436SOL    HW282887   4.205   9.152   2.223  0.9597 -0.2296  0.5708
27437SOL     OW82888   8.220   7.521   1.922 -0.1279 -0.1170  0.1961
27437SOL    HW182889   8.232   7.482   2.008  2.2734  0.6202  0.2874
27437SOL    HW282890   8.305   7.509   1.879 -0.5768  1.4618 -1.2312
27438SOL     OW82891   0.768   7.597   0.829 -0.5247  0.4912 -0.0752
27438SOL    HW182892   0.825   7.569   0.758  1.0794  0.1081  1.2970
27438SOL    HW282893   0.764   7.692   0.820  0.9934  0.6117  0.2457
27439SOL     OW82894   4.196   0.747   6.387  0.2072  0.3088  0.3278
27439SOL    HW182895   4.109   0.780   6.411  0.2629 -0.3106  1.4806
27439SOL    HW282896   4.219   0.796   6.308 -0.1065  2.3616  1.4171
27440SOL     OW82897   4.128   2.846   1.893 -0.0325  0.0653  0.0861
27440SOL    HW182898   4.177   2.777   1.937  1.6950  1.1443 -0.0840
27440SOL    HW282899   4.038   2.812   1.889  0.2012 -1.0266  2.3965
27441SOL     OW82900   1.382   7.058   8.542 -0.0760  0.1472 -0.3153
27441SOL    HW182901   1.442   7.044   8.615  0.9287  0.9763 -0.9529
27441SOL    HW282902   1.429   7.116   8.483 -1.2297  0.2282 -1.1949
27442SOL     OW82903   1.575   3.917   2.733 -0.1041  0.3032  0.0075
27442SOL    HW182904   1.654   3.865   2.749  1.3386  2.5296  0.5788
27442SOL    HW282905   1.587   3.953   2.645 -1.5990 -1.1146 -0.8232
27443SOL     OW82906   7.942   8.453   8.289  0.0589 -0.0941  0.1879
27443SOL    HW182907   7.964   8.546   8.288  0.7664 -0.2419  0.6954
27443SOL    HW282908   8.021   8.410   8.322  0.1561 -0.9893 -1.1268
27444SOL     OW82909   4.552   2.579   0.612  0.4779 -0.1070 -0.3936
27444SOL    HW182910   4.468   2.561   0.569  0.9204 -0.4854 -1.1387
27444SOL    HW282911   4.539   2.552   0.702  0.0258 -0.8621 -0.6741
27445SOL     OW82912   9.446   0.509   2.668  0.5908 -0.3827  1.0245
27445SOL    HW182913   9.481   0.547   2.587 -0.0026 -1.4211  0.2552
27445SOL    HW282914   9.502   0.545   2.737  0.2609  1.6121  0.3216
27446SOL     OW82915   5.992   7.427   1.295  0.2451  0.0579 -0.0384
27446SOL    HW182916   6.013   7.336   1.277  2.0554  0.0666  1.6738
27446SOL    HW282917   5.907   7.442   1.252  0.7354 -1.8959 -1.8268
27447SOL     OW82918   1.065   0.997   9.626 -0.0156  0.0259  0.1209
27447SOL    HW182919   1.128   0.942   9.673  0.1183 -0.4547 -0.6035
27447SOL    HW282920   1.025   1.051   9.694  2.1402  1.3429  0.4470
27448SOL     OW82921   1.016   0.646   5.047  0.2910 -0.2306  0.0331
27448SOL    HW182922   1.110   0.654   5.063  0.0458  2.1064  0.7018
27448SOL    HW282923   1.010   0.591   4.969  2.2148 -0.2096 -0.1958
27449SOL     OW82924   4.178   7.219   3.759  0.4063  0.4423  0.1292
27449SOL    HW182925   4.128   7.298   3.740  1.9516  1.1921 -1.0405
27449SOL    HW282926   4.112   7.150   3.766 -0.7373  1.0536 -2.9757
27450SOL     OW82927   5.058   6.534   1.751  0.5731 -0.2085 -0.3436
27450SOL    HW182928   5.115   6.595   1.797 -1.7024  1.9684 -0.1629
27450SOL    HW282929   5.005   6.494   1.820  0.6300 -0.8428 -0.6576
27451SOL     OW82930   6.669   8.880   8.848  0.8546 -0.4103 -0.1794
27451SOL    HW182931   6.573   8.878   8.848  0.8181  0.0820 -1.5433
27451SOL    HW282932   6.692   8.952   8.906  0.5032 -1.9911  2.0482
27452SOL     OW82933   2.963   0.388   3.764 -0.2691 -0.4133  0.0833
27452SOL    HW182934   3.011   0.310   3.792 -0.2505 -0.5182 -0.2321
27452SOL    HW282935   2.871   0.369   3.786 -0.4665 -1.1054 -1.2138
27453SOL     OW82936   5.734   7.490   3.096 -0.4330 -0.2208  0.0888
27453SOL    HW182937   5.687   7.541   3.030  2.0855  0.3012 -1.4144
27453SOL    HW282938   5.784   7.555   3.145 -0.5755 -0.8442  1.1003
27454SOL     OW82939   2.492   1.897   0.475  0.6676  0.3937  0.1703
27454SOL    HW182940   2.478   1.832   0.406  1.7567 -0.2209  0.4912
27454SOL    HW282941   2.469   1.980   0.435 -0.7120 -0.1751 -0.2725
27455SOL     OW82942   8.815   7.852   2.829 -0.0576 -0.0057 -0.7328
27455SOL    HW182943   8.862   7.932   2.852  0.4669  0.1621 -2.2436
27455SOL    HW282944   8.723   7.879   2.825 -0.1369  0.0199  0.7541
27456SOL     OW82945   7.283   4.638   7.010  0.5222  0.1893  0.3921
27456SOL    HW182946   7.296   4.543   6.999  0.9053  0.1410  1.1808
27456SOL    HW282947   7.204   4.645   7.064 -0.3101  0.3706 -0.8116
27457SOL     OW82948   9.018   8.951   1.168 -0.1443 -0.2345  0.2900
27457SOL    HW182949   8.983   9.007   1.237  2.3217  0.8015  0.8045
27457SOL    HW282950   9.028   8.865   1.208  2.3654  0.6197  1.7333
27458SOL     OW82951   1.016   6.281   1.308  0.1985  0.5216  0.1760
27458SOL    HW182952   1.067   6.347   1.260 -0.5724  0.5890 -0.5725
27458SOL    HW282953   1.079   6.213   1.331  0.5171  0.3187 -1.2563
27459SOL     OW82954   7.213   9.409   8.211 -0.1800  0.6901 -0.0651
27459SOL    HW182955   7.162   9.365   8.280  0.8882  1.7627  1.4866
27459SOL    HW282956   7.224   9.343   8.143 -1.1283 -0.4778  0.8732
27460SOL     OW82957   7.825   5.126   3.728  0.5304 -0.2401 -0.4282
27460SOL    HW182958   7.809   5.104   3.820  0.0869 -1.8114 -0.8488
27460SOL    HW282959   7.741   5.158   3.697  1.0083  1.5550  0.0115
27461SOL     OW82960   0.165   8.296   3.310 -0.6787  0.0860 -0.1913
27461SOL    HW182961   0.096   8.361   3.321 -0.8833 -0.5237  3.3645
27461SOL    HW282962   0.119   8.214   3.292 -0.6216  0.2640 -1.2179
27462SOL     OW82963   3.497   5.153   8.289 -0.0256  0.5408 -0.5502
27462SOL    HW182964   3.523   5.076   8.339  0.1938  0.2949 -1.0350
27462SOL    HW282965   3.546   5.146   8.207 -0.9301  0.5461 -1.1027
27463SOL     OW82966   5.699   2.422   5.507 -0.3713  0.1700  0.0399
27463SOL    HW182967   5.659   2.336   5.518  0.6986 -0.1865  1.3143
27463SOL    HW282968   5.733   2.421   5.417  0.6758 -1.1999  0.4266
27464SOL     OW82969   1.764   4.514   7.852 -0.0001 -0.1017 -0.4409
27464SOL    HW182970   1.732   4.504   7.762  0.4897  1.5288 -0.8333
27464SOL    HW282971   1.686   4.538   7.902 -0.1075 -0.0871 -0.6145
27465SOL     OW82972   0.546   6.388   6.398  0.2263 -0.5466 -0.3067
27465SOL    HW182973   0.450   6.396   6.395  0.2365 -0.1242  0.3575
27465SOL    HW282974   0.561   6.312   6.454  0.2907 -0.1831  0.1726
27466SOL     OW82975   7.225   2.851   6.879 -0.3108  0.0090  0.1329
27466SOL    HW182976   7.316   2.845   6.851 -0.4103  0.5573 -0.3236
27466SOL    HW282977   7.217   2.940   6.914 -1.2803  0.8512 -2.0880
27467SOL     OW82978   0.028   3.372   4.843  0.0673  0.0813  0.2025
27467SOL    HW182979  -0.007   3.417   4.920  1.2608 -0.1094  0.8887
27467SOL    HW282980  -0.007   3.421   4.768  0.1092  1.2183  0.9023
27468SOL     OW82981   6.127   7.149   7.776  0.0724  0.4503  0.4628
27468SOL    HW182982   6.144   7.119   7.687  0.2488  0.5958  0.4487
27468SOL    HW282983   6.042   7.193   7.770 -1.7389 -2.6515  1.0631
27469SOL     OW82984   2.276   2.561   6.771 -0.0068 -0.3749  0.2696
27469SOL    HW182985   2.342   2.498   6.741  2.5223  2.1991 -0.0048
27469SOL    HW282986   2.311   2.594   6.854 -1.1030  0.8418  0.2800
27470SOL     OW82987   2.818   0.917   4.306  0.0133  0.6422 -0.5802
27470SOL    HW182988   2.811   0.889   4.397  1.1954 -1.0050 -0.9578
27470SOL    HW282989   2.848   1.008   4.312  0.0649  0.5662  0.6630
27471SOL     OW82990   1.610   2.729   5.399 -0.3464 -0.3583  0.0995
27471SOL    HW182991   1.614   2.657   5.461  1.0792 -2.0654 -1.8092
27471SOL    HW282992   1.695   2.772   5.407 -0.8408  0.5554  0.5688
27472SOL     OW82993   4.797   4.658   3.214 -0.0632 -0.4770  0.0212
27472SOL    HW182994   4.849   4.643   3.135  0.1863  1.1964 -0.1510
27472SOL    HW282995   4.853   4.629   3.286  0.3220 -0.5391 -0.3008
27473SOL     OW82996   6.658   9.795   0.906  0.4283  0.2847 -0.3668
27473SOL    HW182997   6.603   9.721   0.933  0.8837  0.6038  1.5389
27473SOL    HW282998   6.669   9.782   0.812 -1.8452 -0.4880 -0.6018
27474SOL     OW82999   8.981   7.393   6.840  1.0001 -0.0107 -0.3676
27474SOL    HW183000   8.993   7.438   6.923 -2.8757 -0.1337  0.4684
27474SOL    HW283001   8.990   7.461   6.774  0.4781  0.8989  0.4703
27475SOL     OW83002   6.909   5.548   4.157 -0.1753  0.3856 -0.3391
27475SOL    HW183003   6.969   5.568   4.085 -0.7024  1.4032 -0.5060
27475SOL    HW283004   6.897   5.631   4.202  1.2320 -0.4852  1.7993
27476SOL     OW83005   6.268   2.726   0.702 -0.5009 -0.1625 -0.6454
27476SOL    HW183006   6.335   2.769   0.648  0.1283  0.9729  0.9611
27476SOL    HW283007   6.247   2.791   0.769 -3.0596 -0.5990 -0.9443
27477SOL     OW83008   7.620   5.725   7.792  0.3120 -0.1354  0.1583
27477SOL    HW183009   7.549   5.662   7.801  0.4390 -0.4595 -0.9052
27477SOL    HW283010   7.682   5.682   7.733  1.4247  0.1140  1.1155
27478SOL     OW83011   0.944   3.538   3.758  0.0182  0.3748 -0.3586
27478SOL    HW183012   0.908   3.592   3.688  2.8959  3.4769  0.2632
27478SOL    HW283013   1.037   3.561   3.761  0.7811 -2.3439  2.1430
27479SOL     OW83014   1.207   2.956   1.008  0.0959 -0.1740  0.1288
27479SOL    HW183015   1.147   2.915   0.946 -0.9313 -1.0712  1.6450
27479SOL    HW283016   1.248   2.883   1.053 -1.2191  0.3557  2.3732
27480SOL     OW83017   2.843   8.806   7.906 -0.3600  0.1694  0.1509
27480SOL    HW183018   2.906   8.856   7.855  0.6356  0.5545  1.6989
27480SOL    HW283019   2.894   8.767   7.977 -1.8213  0.3902  1.3877
27481SOL     OW83020   7.834   6.481   6.192  0.1172  0.5690  0.2726
27481SOL    HW183021   7.777   6.442   6.127  1.7645 -0.5550 -0.5561
27481SOL    HW283022   7.894   6.536   6.142  1.3628 -0.2598  0.7989
27482SOL     OW83023   0.419   0.035   6.508 -0.3535 -0.3504 -0.5088
27482SOL    HW183024   0.454   0.068   6.425  1.9581 -1.1721  0.0497
27482SOL    HW283025   0.466   0.084   6.575 -0.5916 -1.1965  0.3015
27483SOL     OW83026   7.636   8.816   8.342  0.0890 -0.5677  0.4661
27483SOL    HW183027   7.634   8.722   8.325 -0.4668 -0.3188 -0.9796
27483SOL    HW283028   7.626   8.823   8.437  1.2882 -1.9859  0.7434
27484SOL     OW83029   6.275   5.497   7.066  0.1144  0.4531 -0.0021
27484SOL    HW183030   6.263   5.420   7.121  2.6413  0.0918  0.1635
27484SOL    HW283031   6.251   5.468   6.978 -1.4909  0.2965  0.4504
27485SOL     OW83032   1.366   9.618   5.795 -0.4435  0.4814 -0.1558
27485SOL    HW183033   1.326   9.575   5.719 -1.3023  1.2783 -0.1625
27485SOL    HW283034   1.311   9.695   5.812  1.1247  1.6521 -0.2044
27486SOL     OW83035   1.988   1.263   8.068 -0.3762 -0.0068 -0.0838
27486SOL    HW183036   1.972   1.191   8.129 -0.3936 -0.3379 -0.4792
27486SOL    HW283037   1.985   1.223   7.982 -0.0580  0.4082 -0.2912
27487SOL     OW83038   3.363   6.206   7.081  0.1964 -0.1978 -0.7745
27487SOL    HW183039   3.321   6.188   6.997  1.2455 -0.3468 -1.2853
27487SOL    HW283040   3.396   6.296   7.073  0.9460 -0.4709 -0.8068
27488SOL     OW83041   1.354   7.730   1.465 -0.1474  0.4705 -0.6588
27488SOL    HW183042   1.265   7.763   1.481  0.0568  0.8774 -0.3212
27488SOL    HW283043   1.393   7.724   1.553  0.2267  0.5018 -0.8201
27489SOL     OW83044   5.141   3.634   6.457 -0.0844  0.1462 -0.1001
27489SOL    HW183045   5.164   3.640   6.550 -0.3702 -1.0501  0.0725
27489SOL    HW283046   5.170   3.547   6.431  0.0304  0.4871 -1.1522
27490SOL     OW83047   8.558   8.014   3.286 -0.4440 -0.2700  0.1679
27490SOL    HW183048   8.571   7.920   3.298 -1.5973 -0.2802  1.7194
27490SOL    HW283049   8.469   8.022   3.254  0.3677  0.2208 -2.1387
27491SOL     OW83050   6.903   0.186   8.698 -0.2584  0.0515  0.0465
27491SOL    HW183051   6.853   0.267   8.686  0.0129  0.3712  0.9775
27491SOL    HW283052   6.986   0.202   8.653 -0.1725  0.3271  0.2980
27492SOL     OW83053   0.380   6.259   1.516 -0.0498  0.1454 -0.1889
27492SOL    HW183054   0.356   6.350   1.496  0.5476  0.3585  0.0711
27492SOL    HW283055   0.339   6.242   1.601  1.1351  0.6824  0.5109
27493SOL     OW83056   3.134   2.725   1.919 -0.1768  0.2825  0.4451
27493SOL    HW183057   3.209   2.775   1.886 -0.6518  0.9964  0.4286
27493SOL    HW283058   3.081   2.790   1.965  0.6288 -0.7122  2.9784
27494SOL     OW83059   8.162   3.986   3.106  0.7631  0.2112  0.1696
27494SOL    HW183060   8.149   3.998   3.200  2.1167  1.0079  0.2977
27494SOL    HW283061   8.250   4.022   3.090  0.8860 -0.6533 -1.2624
27495SOL     OW83062   5.878   6.302   8.060 -0.2934 -0.1266 -0.3059
27495SOL    HW183063   5.913   6.262   8.139  1.5303  0.2251 -0.8871
27495SOL    HW283064   5.826   6.233   8.019  0.4142 -0.9659  0.1737
27496SOL     OW83065   2.764   9.012   7.472 -0.1360 -0.5364  0.0476
27496SOL    HW183066   2.693   9.013   7.407 -0.3623  0.0756  0.2932
27496SOL    HW283067   2.843   8.993   7.422 -0.5267 -1.6831 -0.1655
27497SOL     OW83068   9.170   0.184   7.531 -0.3102 -0.0927 -0.2414
27497SOL    HW183069   9.090   0.201   7.581  0.1144  2.3111 -0.2534
27497SOL    HW283070   9.237   0.236   7.576  1.1227 -1.4952 -0.6575
27498SOL     OW83071   1.944   3.812   4.802  0.6169 -0.4604 -0.6466
27498SOL    HW183072   1.905   3.797   4.716 -0.0100 -0.7476 -0.3171
27498SOL    HW283073   1.922   3.734   4.853 -0.4504  0.4159  0.2843
27499SOL     OW83074   2.130   2.075   8.045 -0.0291  0.3455  0.1062
27499SOL    HW183075   2.090   1.989   8.033  1.8213 -0.3200 -1.7604
27499SOL    HW283076   2.118   2.094   8.139 -0.2844 -2.0122  0.6120
27500SOL     OW83077   1.509   8.770   8.742 -0.2159 -0.3734  0.5153
27500SOL    HW183078   1.567   8.820   8.800 -1.1637  0.0179  1.1599
27500SOL    HW283079   1.565   8.741   8.671  0.2045  2.5246 -0.4654
27501SOL     OW83080   8.146   5.277   7.158 -0.0577 -0.1520  0.3860
27501SOL    HW183081   8.167   5.265   7.251 -0.5375 -3.1540  0.2073
27501SOL    HW283082   8.056   5.247   7.149 -0.2544  0.7406 -0.9618
27502SOL     OW83083   8.230   2.937   7.802  0.5549 -0.0403  0.5755
27502SOL    HW183084   8.236   3.033   7.805 -0.0595 -0.0059  0.8350
27502SOL    HW283085   8.149   2.920   7.754  0.6675 -0.4286  0.5235
27503SOL     OW83086   0.925   4.939   7.628 -0.4130  0.6055  0.1655
27503SOL    HW183087   0.960   4.990   7.555 -0.4190  0.4238  0.0345
27503SOL    HW283088   0.995   4.941   7.694  0.7274 -1.4679 -0.8914
27504SOL     OW83089   5.698   9.297   0.221  0.1124  0.0603 -0.1630
27504SOL    HW183090   5.732   9.376   0.263  2.8772  0.0679 -2.2049
27504SOL    HW283091   5.727   9.226   0.278  0.6468  0.2925 -0.1416
27505SOL     OW83092   7.291   9.193   8.039  0.1487 -0.0802  0.0956
27505SOL    HW183093   7.277   9.099   8.024  0.6579 -0.4587  1.7393
27505SOL    HW283094   7.371   9.197   8.092  0.1360  1.2828  0.0347
27506SOL     OW83095   4.115   3.601   7.030  0.4463  0.5216  0.1786
27506SOL    HW183096   4.023   3.579   7.014  0.7469 -1.4167  0.8430
27506SOL    HW283097   4.156   3.598   6.944  0.2814 -0.8016  0.1183
27507SOL     OW83098   5.553   1.394   9.456 -0.0101 -0.1212  0.0766
27507SOL    HW183099   5.506   1.321   9.416  1.6433 -0.4419 -1.4009
27507SOL    HW283100   5.645   1.376   9.438  0.5562  1.5243  1.0969
27508SOL     OW83101   3.039   2.648   9.638 -0.3372 -0.3128  0.1032
27508SOL    HW183102   2.985   2.580   9.680 -0.0261  0.2967  1.5422
27508SOL    HW283103   3.049   2.715   9.705 -1.9035  1.9294 -1.7625
27509SOL     OW83104   8.405   8.252   6.502 -0.0099 -0.3010 -0.5177
27509SOL    HW183105   8.338   8.246   6.434 -1.3017 -0.5780  0.7306
27509SOL    HW283106   8.390   8.336   6.544 -0.2233 -0.7972  0.4196
27510SOL     OW83107   5.363   6.164   4.653 -0.1075 -0.3165  0.2452
27510SOL    HW183108   5.444   6.167   4.603  0.0687 -1.8392  0.3742
27510SOL    HW283109   5.314   6.091   4.615 -2.6058  2.0959 -1.4995
27511SOL     OW83110   2.314   3.131   8.236  0.5867  0.1400  0.2274
27511SOL    HW183111   2.314   3.205   8.176  1.2522  0.0569  0.1181
27511SOL    HW283112   2.221   3.107   8.245  0.3887  0.8425  0.0955
27512SOL     OW83113   5.473   5.603   0.951 -0.6542 -0.0651 -0.0776
27512SOL    HW183114   5.446   5.684   0.908 -1.0646  0.8390  1.7881
27512SOL    HW283115   5.546   5.628   1.007 -0.0153 -1.2412 -0.3435
27513SOL     OW83116   6.214   0.053   5.850 -0.0182  0.3470 -0.1736
27513SOL    HW183117   6.136   0.069   5.797 -0.4019  0.8436  0.5227
27513SOL    HW283118   6.287   0.068   5.790 -0.4475 -0.8201 -1.0260
27514SOL     OW83119   7.040   1.479   6.917 -0.4030  0.2300 -0.3022
27514SOL    HW183120   6.968   1.465   6.979 -0.6613 -1.1403 -0.8669
27514SOL    HW283121   7.005   1.540   6.852 -1.7383 -1.7949 -1.5750
27515SOL     OW83122   1.765   2.805   9.092  0.0397  0.1496  0.2649
27515SOL    HW183123   1.793   2.806   9.184  0.3526  1.7964  0.1679
27515SOL    HW283124   1.676   2.768   9.096  0.2784 -0.3747  1.1448
27516SOL     OW83125   2.541   6.830   2.740 -0.6508 -0.1421 -0.0674
27516SOL    HW183126   2.473   6.878   2.788 -0.5306  0.9259 -0.9486
27516SOL    HW283127   2.595   6.897   2.699 -0.0155 -1.0128 -0.7130
27517SOL     OW83128   2.412   2.519   5.185 -0.5731  0.1182  0.8063
27517SOL    HW183129   2.376   2.431   5.188 -0.2727 -0.0409 -0.0603
27517SOL    HW283130   2.346   2.571   5.140 -0.1535  0.0306  0.0725
27518SOL     OW83131   9.446   4.603   4.705  0.2373  0.1525 -0.2081
27518SOL    HW183132   9.394   4.666   4.754  1.3379  0.7646  0.2109
27518SOL    HW283133   9.402   4.519   4.719 -0.4713  0.6027  0.3537
27519SOL     OW83134   2.333   8.466   6.248 -0.0086  0.1460  0.2150
27519SOL    HW183135   2.397   8.495   6.183 -0.4626  0.0349 -0.2904
27519SOL    HW283136   2.248   8.476   6.204 -0.1380 -3.4422 -0.6331
27520SOL     OW83137   9.908   9.420   5.264 -0.2321  0.4175  0.5337
27520SOL    HW183138   9.896   9.423   5.169  1.2317 -2.0571  0.1978
27520SOL    HW283139   9.828   9.379   5.297 -0.4856  0.7375  0.3250
27521SOL     OW83140   4.516   5.760   8.630 -0.4379  0.1601  0.0753
27521SOL    HW183141   4.610   5.763   8.644 -0.4586  0.8115  0.0853
27521SOL    HW283142   4.505   5.709   8.549 -0.0729  0.2278 -0.0155
27522SOL     OW83143   8.213   5.168   6.255  0.3347 -0.2491  0.2027
27522SOL    HW183144   8.182   5.250   6.294 -0.9839 -0.3766 -0.5367
27522SOL    HW283145   8.283   5.195   6.196  0.5106  0.2416  0.6289
27523SOL     OW83146   6.835   5.774   7.769 -0.4484  0.3480  0.8227
27523SOL    HW183147   6.766   5.721   7.729  1.2799 -0.8756 -0.6854
27523SOL    HW283148   6.824   5.861   7.730 -0.6365 -0.0549 -0.0383
27524SOL     OW83149   1.444   5.682   8.506 -0.2465  0.5505  0.0258
27524SOL    HW183150   1.506   5.675   8.433  0.0181  0.2761  0.2787
27524SOL    HW283151   1.498   5.703   8.582 -0.3951 -0.2356  0.3565
27525SOL     OW83152   6.772   3.067   6.519 -0.0407 -0.6787  0.2540
27525SOL    HW183153   6.684   3.083   6.487  0.0239  0.3804  0.5844
27525SOL    HW283154   6.797   2.983   6.479 -1.2525 -1.0767  0.3130
27526SOL     OW83155   6.134   8.375   5.540  0.1806  0.4308  0.1686
27526SOL    HW183156   6.151   8.460   5.501  1.4737  0.4106  0.6328
27526SOL    HW283157   6.182   8.376   5.623  1.0914 -1.1186 -0.2912
27527SOL     OW83158   5.475   2.202   4.373  0.4371  0.2492 -0.1919
27527SOL    HW183159   5.489   2.114   4.340 -0.3016  0.6918 -1.7912
27527SOL    HW283160   5.381   2.207   4.391  0.5693  0.5341  0.4683
27528SOL     OW83161   4.371   4.803   0.743  0.5179  0.2804 -0.4094
27528SOL    HW183162   4.436   4.863   0.708 -0.7641  0.0061 -3.6636
27528SOL    HW283163   4.376   4.726   0.686 -0.3422 -1.2063  1.4035
27529SOL     OW83164   7.196   3.810   3.059  0.2254 -0.1150 -0.0744
27529SOL    HW183165   7.218   3.765   3.141 -2.1700 -1.0285  0.1429
27529SOL    HW283166   7.185   3.740   2.995 -0.9775  0.3247 -0.3795
27530SOL     OW83167   5.423   5.120   1.189  0.0222  0.1956 -0.3430
27530SOL    HW183168   5.409   5.206   1.150 -1.1889 -0.8681 -2.4222
27530SOL    HW283169   5.354   5.112   1.255  0.8065  1.2067  0.6295
27531SOL     OW83170   0.158   6.056   3.374  0.1959  0.3601  0.2777
27531SOL    HW183171   0.158   5.991   3.444 -1.7544 -0.9146 -0.7786
27531SOL    HW283172   0.229   6.029   3.316  0.7286  0.4189  0.9000
27532SOL     OW83173   9.266   0.773   2.064 -0.3184 -0.2935 -0.3437
27532SOL    HW183174   9.206   0.720   2.116 -0.3424  0.6931  0.6676
27532SOL    HW283175   9.312   0.710   2.008  0.1136 -1.4764  1.2649
27533SOL     OW83176   8.728   9.128   2.328 -0.2399  0.2954 -0.2748
27533SOL    HW183177   8.744   9.222   2.322  0.5589  0.1412 -0.7312
27533SOL    HW283178   8.814   9.091   2.350 -0.5317 -0.3342 -0.1859
27534SOL     OW83179   6.725   3.142   0.796 -0.0758  0.1728  0.2012
27534SOL    HW183180   6.820   3.147   0.786 -0.1441  0.4863 -0.2938
27534SOL    HW283181   6.713   3.090   0.876  0.4933 -0.5776 -0.1840
27535SOL     OW83182   5.143   8.483   9.510 -0.4587  0.0381 -0.2541
27535SOL    HW183183   5.159   8.394   9.479 -2.4600 -0.7086  0.6585
27535SOL    HW283184   5.173   8.483   9.601 -1.3136 -0.0279  0.0440
27536SOL     OW83185   6.894   8.029   1.336 -0.1143  0.3403 -0.4466
27536SOL    HW183186   6.934   7.974   1.269  0.4455 -0.0596  0.2062
27536SOL    HW283187   6.804   7.995   1.343 -0.1600  0.3435 -0.9358
27537SOL     OW83188   0.439   7.040   7.744  0.1582 -0.0261  0.4883
27537SOL    HW183189   0.380   7.107   7.777  0.1438  0.2146 -0.0168
27537SOL    HW283190   0.498   7.021   7.817  2.3811  2.9954 -0.3353
27538SOL     OW83191   3.493   2.248   4.134 -1.0233 -0.2063 -0.0659
27538SOL    HW183192   3.490   2.339   4.164 -0.4876  0.3890 -1.7102
27538SOL    HW283193   3.584   2.221   4.147 -0.3763  0.5855 -2.4861
27539SOL     OW83194   1.650   0.460   3.975 -0.3956  0.2859 -0.6136
27539SOL    HW183195   1.693   0.539   3.941  0.1889 -0.1962 -1.0319
27539SOL    HW283196   1.626   0.482   4.064 -0.0223  0.8583 -0.6462
27540SOL     OW83197   2.178   2.329   5.451  0.0836 -0.3031 -0.3487
27540SOL    HW183198   2.203   2.331   5.359 -1.3350 -0.2587 -0.7480
27540SOL    HW283199   2.181   2.236   5.475  0.2433 -0.3363 -0.4954
27541SOL     OW83200   6.784   6.749   4.464 -0.1430  0.3800 -0.1366
27541SOL    HW183201   6.727   6.734   4.539 -0.9930 -0.8923 -0.9935
27541SOL    HW283202   6.745   6.697   4.394  1.0000  1.0152 -1.2836
27542SOL     OW83203   9.863   8.863   3.693 -0.1708 -0.6634  0.0980
27542SOL    HW183204   9.831   8.941   3.649 -1.5390 -0.3216  1.6005
27542SOL    HW283205   9.938   8.892   3.743 -0.5605 -0.3531  0.5022
27543SOL     OW83206   6.034   0.193   2.887 -0.1567  0.4649  0.2090
27543SOL    HW183207   5.964   0.209   2.949 -1.1052 -0.1012 -0.6866
27543SOL    HW283208   6.027   0.265   2.824 -0.2948  0.1089 -0.1886
27544SOL     OW83209   4.906   2.404   9.777 -0.4587 -0.3305 -0.2963
27544SOL    HW183210   4.829   2.360   9.741 -0.8865 -1.1657  1.5204
27544SOL    HW283211   4.882   2.497   9.779 -0.5307 -0.2946 -1.7986
27545SOL     OW83212   2.772   1.979   0.271 -0.2485 -0.3817 -0.1359
27545SOL    HW183213   2.782   1.888   0.299 -0.7153 -0.0560  1.1430
27545SOL    HW283214   2.680   1.987   0.247 -0.3079 -0.1448  0.1639
27546SOL     OW83215   9.853   7.736   3.135  0.2595  0.3942  1.0510
27546SOL    HW183216   9.816   7.690   3.060  0.6091 -0.5305  1.4361
27546SOL    HW283217   9.784   7.797   3.162  0.1909  0.8422 -0.0972
27547SOL     OW83218   6.750   3.791   5.256  0.4538 -0.4520 -1.6113
27547SOL    HW183219   6.734   3.720   5.194  0.3154 -0.8748 -1.0967
27547SOL    HW283220   6.841   3.782   5.281 -0.3501 -2.5070  0.9575
27548SOL     OW83221   5.055   8.179   8.781  0.5249 -0.0638 -0.1309
27548SOL    HW183222   5.133   8.126   8.767  0.4326 -0.1313 -0.3879
27548SOL    HW283223   4.982   8.118   8.773  0.4661 -0.1146  0.6725
27549SOL     OW83224   8.964   0.619   1.054  0.5295 -0.1448  0.0716
27549SOL    HW183225   8.872   0.640   1.072  0.7283 -0.5413  1.7708
27549SOL    HW283226   9.006   0.703   1.036  0.0161  0.1490  0.2323
27550SOL     OW83227   7.129   9.851   9.177 -0.3557 -0.1526  0.0343
27550SOL    HW183228   7.155   9.942   9.193  0.3513 -0.3784  0.2137
27550SOL    HW283229   7.058   9.857   9.113 -1.2313  0.6040  1.0306
27551SOL     OW83230   4.159   3.634   1.679  0.1746  0.4989 -0.3932
27551SOL    HW183231   4.240   3.641   1.729  0.2055 -2.3961  0.1829
27551SOL    HW283232   4.146   3.720   1.641  3.8782  0.9322 -1.0424
27552SOL     OW83233   2.288   8.422   3.863 -0.1334 -0.1899 -0.3111
27552SOL    HW183234   2.318   8.333   3.884 -1.3553 -0.8242 -1.1171
27552SOL    HW283235   2.267   8.460   3.949 -1.2456 -1.3181 -0.0445
27553SOL     OW83236   5.312   1.441   2.391 -0.0731 -0.1347 -0.2005
27553SOL    HW183237   5.313   1.522   2.443  1.3833  0.0669 -0.5085
27553SOL    HW283238   5.234   1.395   2.421  0.2887  0.3369  1.6162
27554SOL     OW83239   9.706   6.921   3.099  0.1103 -0.5349  0.2233
27554SOL    HW183240   9.744   6.943   3.184  1.8965  2.4577 -1.1914
27554SOL    HW283241   9.675   7.004   3.065 -2.8194 -2.0401 -1.1203
27555SOL     OW83242   7.947   3.224   7.544 -0.0731 -0.1293 -0.0369
27555SOL    HW183243   7.947   3.299   7.486 -2.5522  1.5824  1.9759
27555SOL    HW283244   8.040   3.208   7.562  0.5520  2.0898 -0.9581
27556SOL     OW83245   3.784   1.591   5.261  0.1622 -0.0063  0.0033
27556SOL    HW183246   3.727   1.660   5.294 -0.3630 -0.5768  0.3170
27556SOL    HW283247   3.771   1.592   5.166  1.0983  1.1332 -0.1307
27557SOL     OW83248   1.093   2.884   7.899  1.2588  0.1535  0.1445
27557SOL    HW183249   1.187   2.884   7.883  0.9559  2.2646 -2.2669
27557SOL    HW283250   1.079   2.951   7.966  1.5702 -1.3385  1.7567
27558SOL     OW83251   0.075   4.398   6.315 -0.3945 -0.3510  0.0876
27558SOL    HW183252   0.049   4.306   6.305  0.6002 -0.6046 -0.3271
27558SOL    HW283253   0.088   4.428   6.225 -0.4417  0.1197  0.2372
27559SOL     OW83254   4.984   2.684   4.788 -0.8171 -0.3332  0.3420
27559SOL    HW183255   5.071   2.650   4.768 -1.0626  0.4110 -2.3506
27559SOL    HW283256   4.932   2.607   4.810  0.9795 -0.6265  4.6236
27560SOL     OW83257   6.267   5.675   2.719 -0.1786 -0.4491  0.1554
27560SOL    HW183258   6.228   5.624   2.649  0.4978 -1.1725  0.2902
27560SOL    HW283259   6.316   5.745   2.675  0.2011 -0.8701 -0.0919
27561SOL     OW83260   9.066   1.426   0.857  0.1087  0.1112 -0.0807
27561SOL    HW183261   9.096   1.504   0.905 -0.4597  0.6277 -0.5498
27561SOL    HW283262   8.970   1.431   0.861  0.0567 -0.0601 -0.9135
27562SOL     OW83263   0.580   3.893   8.200 -0.0939 -0.1932  0.1019
27562SOL    HW183264   0.597   3.808   8.241 -0.7525  0.1943  1.2321
27562SOL    HW283265   0.502   3.878   8.146  0.0472 -0.4169 -0.0398
27563SOL     OW83266   6.898   8.696   6.787  0.2918 -0.2891 -0.3682
27563SOL    HW183267   6.894   8.628   6.719 -0.5895  0.3533 -0.9865
27563SOL    HW283268   6.978   8.677   6.835 -0.2434 -2.1345 -0.1221
27564SOL     OW83269   7.891   4.294   9.171 -0.1032 -0.2423 -0.0170
27564SOL    HW183270   7.914   4.203   9.189 -0.8289 -0.2329  1.0309
27564SOL    HW283271   7.818   4.287   9.109 -0.6792 -0.4109  0.6633
27565SOL     OW83272   3.643   8.714   0.924 -0.2176  0.3708 -0.4418
27565SOL    HW183273   3.581   8.744   0.990  0.0991 -0.4756  0.2676
27565SOL    HW283274   3.593   8.652   0.871  0.6884 -2.7413  2.0094
27566SOL     OW83275   2.420   3.428   4.176  0.2517  0.5443  0.6867
27566SOL    HW183276   2.487   3.477   4.127  0.1628  0.4541  0.4750
27566SOL    HW283277   2.470   3.382   4.244  0.4416  0.2840  0.3798
27567SOL     OW83278   3.552   9.242   6.785  0.0186 -0.1415  0.4259
27567SOL    HW183279   3.524   9.333   6.775  1.7099  0.2134 -1.9094
27567SOL    HW283280   3.571   9.233   6.879  0.5721  2.1368  0.5829
27568SOL     OW83281   7.836   9.096   5.123  0.5373  0.1572  0.2521
27568SOL    HW183282   7.828   9.160   5.052 -1.8717 -0.1364  0.1904
27568SOL    HW283283   7.848   9.150   5.201 -0.2413  0.6496  0.0449
27569SOL     OW83284   8.684   2.553   7.199 -0.0177  0.1696  0.0690
27569SOL    HW183285   8.741   2.505   7.138  1.0335  0.8588  0.4779
27569SOL    HW283286   8.655   2.630   7.149 -0.1149  0.1224  0.0527
27570SOL     OW83287   7.903   1.584   1.575  0.7994  0.2192  0.2641
27570SOL    HW183288   7.848   1.586   1.654 -0.0119  2.8732 -0.2539
27570SOL    HW283289   7.863   1.518   1.519 -1.7793  1.8342  0.0441
27571SOL     OW83290   0.969   7.378   0.917 -0.0241 -0.0985 -0.3323
27571SOL    HW183291   0.918   7.452   0.951 -0.2123 -0.3636 -0.0295
27571SOL    HW283292   0.918   7.346   0.843 -0.6685 -0.8058  0.4016
27572SOL     OW83293   9.114   7.590   0.716  0.4540 -0.2615  0.1645
27572SOL    HW183294   9.034   7.616   0.762 -0.0446 -0.2740 -0.6865
27572SOL    HW283295   9.184   7.606   0.780  0.1220  2.4972 -0.0181
27573SOL     OW83296   4.945   1.321   0.363 -0.0134 -0.3234  0.2316
27573SOL    HW183297   5.008   1.380   0.404 -0.2436  0.8545 -1.0355
27573SOL    HW283298   4.930   1.358   0.276 -0.3234 -2.1514 -0.5433
27574SOL     OW83299   8.715   9.283   2.006 -0.1731 -0.3670 -0.3945
27574SOL    HW183300   8.810   9.280   1.995 -0.1879 -0.5436 -0.4740
27574SOL    HW283301   8.690   9.194   2.029 -0.2301 -0.1600  0.3628
27575SOL     OW83302   7.080   7.662   4.640  0.3039  0.2254  0.1810
27575SOL    HW183303   7.006   7.634   4.693 -0.5255  0.1868 -0.9763
27575SOL    HW283304   7.117   7.737   4.688 -2.0852  1.9483 -0.5025
27576SOL     OW83305   2.095   2.150   3.199  0.9158  0.5070 -0.3059
27576SOL    HW183306   2.144   2.147   3.281  0.6202 -0.0942 -0.1461
27576SOL    HW283307   2.006   2.122   3.222  0.9762 -0.2373 -0.9270
27577SOL     OW83308   2.794   5.575   9.969 -0.1488 -0.3470 -0.1979
27577SOL    HW183309   2.782   5.493  10.017  1.3839 -0.5533 -0.1294
27577SOL    HW283310   2.709   5.590   9.926 -0.8266 -1.3374  0.7311
27578SOL     OW83311   0.301   6.071   4.675  0.4648 -0.5601  0.4739
27578SOL    HW183312   0.217   6.078   4.720  0.5700 -2.7707  1.1658
27578SOL    HW283313   0.365   6.107   4.737  0.0149  1.9418 -0.3998
27579SOL     OW83314   7.143   6.009   3.906 -0.8909  0.0241  0.2163
27579SOL    HW183315   7.106   6.094   3.885 -0.5699  0.6764  2.0581
27579SOL    HW283316   7.162   6.013   4.000  0.3292 -1.6194  0.1078
27580SOL     OW83317   6.274   8.385   7.681  0.0281  0.1715 -0.0712
27580SOL    HW183318   6.187   8.344   7.690 -0.8956  1.5786 -1.9331
27580SOL    HW283319   6.302   8.401   7.771 -1.7166 -0.1876  0.5829
27581SOL     OW83320   0.210   0.560   1.959 -0.1594 -0.1140 -0.0187
27581SOL    HW183321   0.139   0.498   1.945 -0.3097 -0.3049  1.4600
27581SOL    HW283322   0.172   0.646   1.939 -1.2814 -0.0464  2.0700
27582SOL     OW83323   7.956   2.066   3.607 -0.1552 -0.7281  0.4996
27582SOL    HW183324   7.895   2.105   3.670  0.2693 -0.8519  0.9900
27582SOL    HW283325   8.042   2.075   3.647  0.2020 -0.2567 -0.3397
27583SOL     OW83326   0.901   9.881   6.176 -0.4202  0.1065  0.0527
27583SOL    HW183327   0.871   9.790   6.180  0.3453 -0.1065  1.4174
27583SOL    HW283328   0.995   9.877   6.195 -0.6482  1.3135  1.6173
27584SOL     OW83329   7.743   0.024   1.929 -0.0287  0.4216 -0.0044
27584SOL    HW183330   7.734  -0.069   1.909 -0.5697  0.6687 -0.9556
27584SOL    HW283331   7.813   0.054   1.871 -0.5973  0.8317 -0.4925
27585SOL     OW83332   1.397   1.712   4.296 -0.1150 -0.0648 -0.7020
27585SOL    HW183333   1.421   1.776   4.363  0.6754 -1.3781  0.2994
27585SOL    HW283334   1.480   1.690   4.254 -0.1718 -1.4145 -0.1394
27586SOL     OW83335   8.913   3.911   2.825  0.0374 -0.2009  0.4618
27586SOL    HW183336   8.946   3.830   2.862 -1.3353 -1.1384 -0.2733
27586SOL    HW283337   8.976   3.978   2.853 -0.0522 -1.1008  3.0522
27587SOL     OW83338   2.227   5.854   6.658  0.0785 -0.0479  0.1353
27587SOL    HW183339   2.316   5.887   6.671 -0.3888  0.5022  2.5252
27587SOL    HW283340   2.183   5.921   6.607  1.0195 -0.3748 -1.1625
27588SOL     OW83341   6.227   1.742   3.416  0.3697  0.5695 -0.1797
27588SOL    HW183342   6.153   1.803   3.413  0.5600  0.7580 -1.8580
27588SOL    HW283343   6.303   1.795   3.396  0.3742 -0.3680 -3.1266
27589SOL     OW83344   4.299   7.611   1.709  0.6453 -0.2093  0.4567
27589SOL    HW183345   4.320   7.575   1.623 -0.8305 -0.9319  0.3574
27589SOL    HW283346   4.328   7.702   1.705  0.3089 -0.1425 -0.9391
27590SOL     OW83347   6.803   6.064   6.179  0.1248  0.1491  0.4581
27590SOL    HW183348   6.818   6.076   6.273  0.2224  2.0584  0.2438
27590SOL    HW283349   6.822   5.971   6.163 -0.2784 -0.3109  2.3735
27591SOL     OW83350   1.296   7.122   7.224  0.2099 -0.0926 -0.0638
27591SOL    HW183351   1.268   7.042   7.180  0.4059  0.0828 -0.5136
27591SOL    HW283352   1.342   7.091   7.302 -0.0631 -0.4082 -0.0252
27592SOL     OW83353   0.329   7.755   5.369 -0.6585 -0.4406 -0.6874
27592SOL    HW183354   0.272   7.749   5.445  0.2859 -0.9907 -0.0002
27592SOL    HW283355   0.298   7.833   5.322 -1.0705  0.0859  0.4214
27593SOL     OW83356   5.447   7.766   9.894 -0.0046  0.2253  0.0066
27593SOL    HW183357   5.461   7.748   9.987  1.3937  1.4656  0.0725
27593SOL    HW283358   5.437   7.861   9.889 -1.1322  0.0839 -1.0125
27594SOL     OW83359   4.613   3.274   4.431 -0.1457 -0.0313 -0.1613
27594SOL    HW183360   4.533   3.238   4.469  0.8743 -1.7265  0.5092
27594SOL    HW283361   4.678   3.266   4.501  0.8658  0.3704 -1.0269
27595SOL     OW83362   4.694   0.211   1.332  0.1081 -0.3695 -0.1594
27595SOL    HW183363   4.599   0.224   1.335  0.0191 -0.9792 -0.2121
27595SOL    HW283364   4.705   0.116   1.325  0.7285 -0.3284  0.1931
27596SOL     OW83365   7.791   1.261   8.181 -0.2615  0.2714  0.2821
27596SOL    HW183366   7.799   1.166   8.191  0.3799  0.3653  0.7816
27596SOL    HW283367   7.847   1.281   8.106  1.3746  0.4862  1.4911
27597SOL     OW83368   2.185   7.128   7.769  0.7714 -0.0955  0.2667
27597SOL    HW183369   2.141   7.133   7.854  1.7724  0.5004  0.7741
27597SOL    HW283370   2.218   7.038   7.764  1.3450  0.0711  0.8582
27598SOL     OW83371   1.000   1.842   8.675 -0.5801 -0.0273 -0.3551
27598SOL    HW183372   0.999   1.843   8.771 -3.2763 -0.3800 -0.3103
27598SOL    HW283373   1.012   1.750   8.652  1.4344  0.2047 -0.4483
27599SOL     OW83374   9.173   1.410   5.996 -0.0306 -0.0947 -0.0104
27599SOL    HW183375   9.238   1.373   5.937  1.1463  2.9123 -0.7799
27599SOL    HW283376   9.092   1.411   5.945  0.5681  0.8425 -0.9865
27600SOL     OW83377   5.554   1.648   8.313 -0.2126 -0.3090  0.0706
27600SOL    HW183378   5.551   1.582   8.382  0.2641 -0.1087  0.2859
27600SOL    HW283379   5.581   1.728   8.358 -0.2652 -0.0920 -0.2836
27601SOL     OW83380   5.808   5.839   0.413 -0.0212 -0.0393  0.4767
27601SOL    HW183381   5.820   5.745   0.402  0.4492 -0.1011  1.4037
27601SOL    HW283382   5.819   5.854   0.507 -0.0693  0.9456  0.3430
27602SOL     OW83383   1.960   4.230   4.574 -0.3205  0.0720  0.4972
27602SOL    HW183384   1.948   4.136   4.582 -0.5700  0.2424  3.1077
27602SOL    HW283385   2.042   4.248   4.622 -0.4161  1.1926  0.2678
27603SOL     OW83386   1.704   9.247   2.792  0.3726  0.4193 -0.4570
27603SOL    HW183387   1.790   9.288   2.781  1.0692 -1.2940 -1.7758
27603SOL    HW283388   1.681   9.216   2.705 -0.9913 -0.3417  0.1458
27604SOL     OW83389  -0.010   7.701   0.906  0.1006  0.2261  0.1302
27604SOL    HW183390   0.021   7.741   0.824 -0.8341 -0.4984 -0.5955
27604SOL    HW283391   0.001   7.607   0.892  1.0514  0.1403  1.3235
27605SOL     OW83392   9.043   0.222   4.954  0.0841  0.5553 -0.1439
27605SOL    HW183393   9.085   0.192   5.035  0.8251  1.4052 -0.1879
27605SOL    HW283394   8.979   0.287   4.983 -0.4827  0.0044 -0.1550
27606SOL     OW83395   7.304   1.138   2.917 -0.3626  0.0818 -0.0020
27606SOL    HW183396   7.218   1.133   2.876  0.4366 -2.3242 -1.5696
27606SOL    HW283397   7.286   1.154   3.009 -2.7223 -3.2564  0.2904
27607SOL     OW83398   2.008   4.310   6.513 -0.3972  0.3447 -0.6768
27607SOL    HW183399   1.936   4.263   6.470  0.0328 -0.4475 -0.5454
27607SOL    HW283400   2.087   4.282   6.467 -0.0765  0.5181 -0.2437
27608SOL     OW83401   9.901   9.384   9.607 -0.2705  0.1697 -0.2090
27608SOL    HW183402   9.867   9.452   9.664 -3.2501 -1.6897  0.4726
27608SOL    HW283403   9.969   9.341   9.659  2.1087  2.7979 -0.8768
27609SOL     OW83404   3.742   4.091   4.691 -0.4949  0.1277 -0.1444
27609SOL    HW183405   3.791   4.107   4.771  0.4060 -0.9285 -0.4537
27609SOL    HW283406   3.771   4.160   4.631  1.2415 -0.9157 -0.5721
27610SOL     OW83407   6.796   0.876   5.680 -0.0392  0.2824  0.6739
27610SOL    HW183408   6.836   0.839   5.758 -1.2587  0.9889  1.6651
27610SOL    HW283409   6.722   0.819   5.661 -0.0107  0.3688  0.2803
27611SOL     OW83410   6.355   6.724   4.377 -0.3666 -0.0095 -0.9602
27611SOL    HW183411   6.316   6.713   4.290 -0.2382  0.4723 -1.0811
27611SOL    HW283412   6.419   6.653   4.384 -1.9981 -1.4995 -0.3313
27612SOL     OW83413   1.663   3.400   2.910 -0.4169 -0.6619  0.3046
27612SOL    HW183414   1.708   3.441   2.836 -0.9261 -0.6280  0.0040
27612SOL    HW283415   1.593   3.348   2.869  0.3699 -2.0585  0.6561
27613SOL     OW83416   6.549   8.761   7.090  0.0117  0.7950 -0.6332
27613SOL    HW183417   6.604   8.687   7.067 -0.5115  0.2771 -0.2367
27613SOL    HW283418   6.538   8.754   7.185 -2.1054 -0.0843 -0.8990
27614SOL     OW83419   4.560   1.125   2.859 -0.2560 -0.3391  0.2492
27614SOL    HW183420   4.576   1.031   2.859 -1.2692 -0.5220 -0.1744
27614SOL    HW283421   4.469   1.134   2.890 -1.4201  0.2395 -2.9890
27615SOL     OW83422   7.493   6.549   6.567 -0.2362 -0.4421  0.5020
27615SOL    HW183423   7.430   6.491   6.610  0.1847 -1.3853 -0.1297
27615SOL    HW283424   7.488   6.527   6.475 -0.2430  0.7126  0.2083
27616SOL     OW83425   0.712   4.600   7.401  0.4411 -0.1184  0.0415
27616SOL    HW183426   0.780   4.602   7.468 -0.3292 -2.0973  0.9567
27616SOL    HW283427   0.717   4.512   7.364 -1.4289 -0.2312 -0.0465
27617SOL     OW83428   2.348   7.692   0.688  0.0086 -0.5673 -0.4159
27617SOL    HW183429   2.440   7.695   0.661 -0.2708 -0.8979 -1.4235
27617SOL    HW283430   2.352   7.676   0.783  0.9753 -1.3249 -0.5681
27618SOL     OW83431   3.617   3.113   8.580 -0.4477 -0.3700 -0.1139
27618SOL    HW183432   3.561   3.036   8.592 -0.8458 -0.2761 -1.2754
27618SOL    HW283433   3.571   3.184   8.624 -1.4045 -0.2373 -1.2762
27619SOL     OW83434   1.176   7.222   4.324  0.3028  0.0029  0.0237
27619SOL    HW183435   1.103   7.239   4.264 -0.1928  0.7973  0.8284
27619SOL    HW283436   1.168   7.290   4.391  0.4310 -1.2873  1.3862
27620SOL     OW83437   9.467   7.714   8.951 -0.5701 -0.2411 -0.2334
27620SOL    HW183438   9.460   7.810   8.947 -0.3283 -0.2702 -1.8394
27620SOL    HW283439   9.443   7.693   9.042 -0.6081  1.3329  0.1630
27621SOL     OW83440   8.216   1.915   9.522 -0.2623 -0.7513  0.6576
27621SOL    HW183441   8.297   1.884   9.562 -0.9701 -1.9927  1.1797
27621SOL    HW283442   8.185   1.840   9.471 -0.8280 -0.1120  0.0393
27622SOL     OW83443   6.341   0.370   0.619 -0.3522 -0.0460 -0.0173
27622SOL    HW183444   6.389   0.427   0.559  0.1145  0.1102  0.4918
27622SOL    HW283445   6.290   0.312   0.563 -0.3317  0.4464 -0.5515
27623SOL     OW83446   8.537   7.038   3.180 -0.6853 -0.5581 -0.0149
27623SOL    HW183447   8.585   7.056   3.099 -1.1879 -0.8234 -0.3730
27623SOL    HW283448   8.477   7.112   3.190  0.8633  0.6179  1.2808
27624SOL     OW83449   8.650   0.201   3.486 -0.4931 -0.1573  0.5802
27624SOL    HW183450   8.692   0.114   3.488  1.5174  0.7563  1.1693
27624SOL    HW283451   8.710   0.255   3.435 -1.8833  0.8281 -0.0707
27625SOL     OW83452   3.794   4.535   1.138 -0.1399 -0.3593  0.4696
27625SOL    HW183453   3.863   4.508   1.197  0.8529  0.7300 -0.1426
27625SOL    HW283454   3.775   4.626   1.162  0.4030  0.1614 -0.9558
27626SOL     OW83455   3.853   2.857   9.054  0.2205  0.2383 -0.2570
27626SOL    HW183456   3.884   2.772   9.086 -0.1785  1.2201  3.0271
27626SOL    HW283457   3.930   2.913   9.056  0.7131 -0.1350 -3.3287
27627SOL     OW83458   0.200   7.937   7.419  0.6007  0.0393 -0.2012
27627SOL    HW183459   0.202   8.030   7.442  3.1299 -0.1877  0.8628
27627SOL    HW283460   0.242   7.933   7.333 -1.6434  0.0585 -1.3666
27628SOL     OW83461   4.226   3.740   8.908 -0.0144  0.2190 -0.1058
27628SOL    HW183462   4.235   3.811   8.972 -0.1382  0.5019 -0.3968
27628SOL    HW283463   4.179   3.780   8.835  1.2396  0.2567 -0.9118
27629SOL     OW83464   6.281   1.758   6.873  0.3641 -0.0691 -0.4155
27629SOL    HW183465   6.291   1.801   6.957  0.0252  0.8262 -0.8175
27629SOL    HW283466   6.248   1.671   6.894  0.4359  0.0918  0.3795
27630SOL     OW83467   0.429   4.511   0.686  0.1644  0.0711 -0.1471
27630SOL    HW183468   0.399   4.578   0.748  0.6972 -0.9669  1.3010
27630SOL    HW283469   0.387   4.430   0.716  1.3605 -0.6760 -0.4221
27631SOL     OW83470   0.250   0.160   7.312  0.8051 -0.4156 -0.0430
27631SOL    HW183471   0.232   0.165   7.406  2.0060  0.9245  0.1636
27631SOL    HW283472   0.323   0.099   7.305  1.2372  0.0847  0.0036
27632SOL     OW83473   2.155   8.734   1.814 -0.3504  0.1304 -0.6168
27632SOL    HW183474   2.124   8.701   1.898  0.8463  0.6753  0.0673
27632SOL    HW283475   2.249   8.749   1.827 -0.3934  1.4898 -1.6259
27633SOL     OW83476   3.781   2.251   6.981 -0.1785  0.2051  0.0650
27633SOL    HW183477   3.830   2.195   6.921  0.7629  1.3225 -0.2310
27633SOL    HW283478   3.812   2.225   7.068  1.4637  1.3229 -0.1399
27634SOL     OW83479   6.094   2.201   9.084  0.1174  0.1421 -0.0868
27634SOL    HW183480   6.100   2.184   8.990 -2.0958  0.3290 -0.3074
27634SOL    HW283481   6.024   2.143   9.115 -0.0904  1.0316  1.1890
27635SOL     OW83482   2.345   5.334   9.061 -0.0505  0.4039  0.1691
27635SOL    HW183483   2.395   5.252   9.069  1.3397  1.1279 -0.7512
27635SOL    HW283484   2.304   5.345   9.147 -2.1798 -2.4100 -0.3472
27636SOL     OW83485   6.493   3.409   7.585  0.0774  0.0927  0.7572
27636SOL    HW183486   6.576   3.456   7.579 -0.1605  0.3723 -0.6550
27636SOL    HW283487   6.483   3.391   7.679  1.8177 -0.1322  0.9466
27637SOL     OW83488   4.245   2.954   6.551 -1.0252  0.1649  0.2205
27637SOL    HW183489   4.289   2.873   6.576  0.7579  0.8805 -0.4323
27637SOL    HW283490   4.158   2.947   6.590 -1.2077 -2.3940 -0.4750
27638SOL     OW83491   6.641   4.778   8.562  0.5781  0.0186  0.0002
27638SOL    HW183492   6.665   4.685   8.565  0.7902  0.0901  0.7865
27638SOL    HW283493   6.653   4.803   8.471  0.4103 -0.7575 -0.2433
27639SOL     OW83494   8.757   9.267   0.606  0.8997 -0.2928 -0.7767
27639SOL    HW183495   8.846   9.267   0.641  0.5114 -0.1782  0.2325
27639SOL    HW283496   8.738   9.174   0.591  0.0211 -0.6905  2.1435
27640SOL     OW83497   2.893   9.641   5.048  0.2333  0.0437 -0.4864
27640SOL    HW183498   2.983   9.651   5.080 -0.5439 -0.7081  2.1145
27640SOL    HW283499   2.853   9.727   5.062 -0.3983 -0.5610  1.6695
27641SOL     OW83500   9.446   5.230   7.891 -0.2833  0.2328 -0.1677
27641SOL    HW183501   9.427   5.222   7.984 -0.2202 -1.9041 -0.2854
27641SOL    HW283502   9.542   5.234   7.887 -0.1496 -1.6629 -0.1709
27642SOL     OW83503   7.179   2.835   0.970 -0.3492 -0.0952  0.2787
27642SOL    HW183504   7.207   2.756   1.017 -1.9308 -0.7148  0.2498
27642SOL    HW283505   7.242   2.844   0.899  1.5782  0.3587  1.9463
27643SOL     OW83506   9.101   6.076   4.367  0.3608  0.2201 -0.7739
27643SOL    HW183507   9.112   5.984   4.389  0.2448  0.1552 -0.9862
27643SOL    HW283508   9.041   6.076   4.292  1.6304  0.3580 -1.8347
27644SOL     OW83509   0.665   3.571   3.192 -0.1665  0.0520 -0.0077
27644SOL    HW183510   0.668   3.646   3.251 -0.7824  0.1086 -0.0483
27644SOL    HW283511   0.708   3.602   3.112 -1.3977  0.7303 -0.4297
27645SOL     OW83512   2.221   2.870   8.298 -0.1970  0.0231 -0.2716
27645SOL    HW183513   2.292   2.917   8.342 -0.1434 -0.0511 -0.2791
27645SOL    HW283514   2.238   2.883   8.204  1.2092 -2.0260 -0.3672
27646SOL     OW83515   0.161   9.069   5.932  0.8200  0.2123  0.0805
27646SOL    HW183516   0.108   9.098   6.006 -0.5486 -0.2075 -0.7177
27646SOL    HW283517   0.236   9.025   5.973 -0.3237 -0.7403  1.2365
27647SOL     OW83518   9.876   1.623   9.848  0.2600  0.2622  0.5033
27647SOL    HW183519   9.820   1.693   9.815  1.9922  1.1099 -0.8632
27647SOL    HW283520   9.895   1.569   9.771  0.7011 -0.4524  1.0914
27648SOL     OW83521   0.999   2.841   6.454 -0.0981  0.4955 -0.8750
27648SOL    HW183522   0.951   2.890   6.520  0.5823  1.6308 -1.2067
27648SOL    HW283523   0.980   2.749   6.474 -0.2045  0.8265  0.6611
27649SOL     OW83524   3.626   3.370   2.928 -0.0402  0.1834 -0.5222
27649SOL    HW183525   3.565   3.423   2.979  0.4817 -0.8318  1.2113
27649SOL    HW283526   3.701   3.427   2.914 -0.1636  0.4514 -0.1136
27650SOL     OW83527   9.879   1.995   0.117  0.0203 -0.2510  0.2559
27650SOL    HW183528   9.836   2.038   0.043 -0.3275 -0.3406  0.4048
27650SOL    HW283529   9.826   1.917   0.133 -0.7122  0.4626  1.4735
27651SOL     OW83530   4.633   7.061   0.053 -0.2117 -0.0249 -0.5902
27651SOL    HW183531   4.647   7.022  -0.033 -0.1348 -0.5785 -0.3310
27651SOL    HW283532   4.583   7.141   0.035 -2.2479 -1.2966 -0.9720
27652SOL     OW83533   2.502   3.968   2.260  0.3140 -0.6387 -0.2364
27652SOL    HW183534   2.508   3.901   2.191  4.3482  0.2281 -0.9742
27652SOL    HW283535   2.592   3.980   2.290 -0.3970  3.3660  0.9103
27653SOL     OW83536   4.567   9.066   8.890  0.0968 -1.0867 -0.9176
27653SOL    HW183537   4.493   9.019   8.926  0.9754 -0.2644  2.2457
27653SOL    HW283538   4.528   9.135   8.836 -1.2493 -2.9750 -2.4967
27654SOL     OW83539   2.389   0.213   1.006  0.2748  0.2617 -0.1303
27654SOL    HW183540   2.454   0.144   0.990 -0.4133 -0.3154 -0.4551
27654SOL    HW283541   2.350   0.191   1.090 -0.2269  0.0270 -0.4208
27655SOL     OW83542   1.231   7.293   0.763  0.3462  0.4093 -0.5022
27655SOL    HW183543   1.281   7.322   0.839  0.6275  0.1972 -0.6065
27655SOL    HW283544   1.146   7.337   0.772  0.4144  0.4620 -0.1209
27656SOL     OW83545   5.783   7.661   8.490 -0.3581 -0.2706 -0.4613
27656SOL    HW183546   5.781   7.565   8.495 -2.4030 -0.2409 -0.0426
27656SOL    HW283547   5.719   7.683   8.423 -1.0886  0.8523  0.5819
27657SOL     OW83548   2.489   3.552   3.559 -0.0963 -0.2784 -0.7292
27657SOL    HW183549   2.420   3.494   3.590 -0.2171  0.2836  0.0886
27657SOL    HW283550   2.443   3.619   3.508 -0.0140 -0.5951 -1.2268
27658SOL     OW83551   3.744   9.793   0.601 -0.8673  0.4266 -0.0372
27658SOL    HW183552   3.830   9.800   0.643 -0.0837  1.4618 -1.7068
27658SOL    HW283553   3.681   9.799   0.673  0.4434 -0.4068  1.2211
27659SOL     OW83554   5.594   5.016   9.266 -0.8754  0.4225 -0.2374
27659SOL    HW183555   5.636   5.096   9.236  1.6422 -0.1795  1.3904
27659SOL    HW283556   5.523   5.047   9.322  0.9513  1.6239  1.5650
27660SOL     OW83557   1.351   6.442   7.576  0.0973  0.0276 -0.4646
27660SOL    HW183558   1.392   6.499   7.641  0.3074 -0.4391 -0.1796
27660SOL    HW283559   1.423   6.389   7.542  0.1933  1.0494 -1.9192
27661SOL     OW83560   8.628   4.266   8.301 -0.4089 -0.0561  0.4603
27661SOL    HW183561   8.549   4.318   8.289  0.4345  0.9614 -0.9008
27661SOL    HW283562   8.679   4.313   8.366  0.7753  1.4320 -1.4325
27662SOL     OW83563   9.176   3.328   2.915  0.0827 -0.3569  0.3294
27662SOL    HW183564   9.090   3.330   2.874  1.4172  0.4006 -2.7016
27662SOL    HW283565   9.177   3.402   2.975 -1.7617 -1.1490  1.4058
27663SOL     OW83566   8.950   6.175   0.254  0.2890  0.4350  0.4974
27663SOL    HW183567   8.901   6.143   0.178  0.5026  0.1436  0.4803
27663SOL    HW283568   9.038   6.139   0.242  0.0256 -0.5849  1.4794
27664SOL     OW83569   7.750   4.642   7.088 -0.4941 -0.0020  0.2922
27664SOL    HW183570   7.830   4.593   7.105 -0.6608 -0.1068  0.8068
27664SOL    HW283571   7.737   4.637   6.993  0.3525  0.4025  0.1450
27665SOL     OW83572   8.645   2.334   4.935  0.8543 -0.2167  0.2317
27665SOL    HW183573   8.619   2.423   4.959  1.2802  0.0947 -0.4353
27665SOL    HW283574   8.562   2.287   4.925  0.5825  0.3791 -0.4193
27666SOL     OW83575   9.402   6.289   2.015  0.6499  0.4819 -0.4454
27666SOL    HW183576   9.389   6.233   1.939  1.5258  0.5281 -0.6354
27666SOL    HW283577   9.403   6.228   2.090 -0.0953  0.4267 -0.4695
27667SOL     OW83578   7.389   2.060   7.273 -0.1035  0.0977 -0.6603
27667SOL    HW183579   7.428   2.140   7.308 -0.5472  0.5456 -1.1596
27667SOL    HW283580   7.312   2.045   7.328  0.0484 -0.0524 -0.4895
27668SOL     OW83581   9.801   4.452   1.927  0.2754 -0.6867 -0.2340
27668SOL    HW183582   9.808   4.499   2.010 -0.8572 -1.1524  0.1516
27668SOL    HW283583   9.888   4.457   1.888  0.7593 -0.2647  0.8768
27669SOL     OW83584   0.812   6.704   1.726 -0.0279  0.4986 -0.3562
27669SOL    HW183585   0.872   6.649   1.777  0.5102  1.4124  0.0139
27669SOL    HW283586   0.833   6.685   1.635  0.6337  0.5907 -0.2294
27670SOL     OW83587   8.757   2.581   0.787  0.6911  0.7687 -0.1223
27670SOL    HW183588   8.792   2.629   0.862  1.8293  1.4583 -1.0478
27670SOL    HW283589   8.664   2.600   0.787  1.0985  3.0803 -0.4672
27671SOL     OW83590   8.912   4.141   3.866 -0.0759 -0.4831 -0.1237
27671SOL    HW183591   8.959   4.100   3.794  2.3151  0.3529  0.8751
27671SOL    HW283592   8.912   4.074   3.935 -1.3098 -0.8454 -0.4457
27672SOL     OW83593   0.887   0.401   7.644  0.0865 -0.4815  0.1404
27672SOL    HW183594   0.967   0.419   7.694 -0.5855  1.7631  0.4999
27672SOL    HW283595   0.816   0.411   7.708 -0.5806 -1.2214 -0.4656
27673SOL     OW83596   3.294   2.962   9.704  0.0707 -0.0972  0.5728
27673SOL    HW183597   3.212   2.922   9.731 -1.5040  1.8109 -0.9887
27673SOL    HW283598   3.278   3.056   9.711  2.2864  0.3325  0.5835
27674SOL     OW83599   1.330   5.811   3.472 -0.3023  0.1320  0.1138
27674SOL    HW183600   1.410   5.786   3.426 -0.7737 -1.8270  0.2782
27674SOL    HW283601   1.311   5.737   3.530 -0.9494  1.5852  1.8464
27675SOL     OW83602   2.445   2.189   1.801  0.3370  0.1839  0.3927
27675SOL    HW183603   2.402   2.263   1.757 -0.4346  1.4888  3.1006
27675SOL    HW283604   2.395   2.178   1.883  2.2042 -1.4748  1.3902
27676SOL     OW83605   7.935   5.261   1.419 -0.2647  0.1728 -0.0940
27676SOL    HW183606   7.994   5.195   1.456 -0.6732  0.8363  1.9063
27676SOL    HW283607   7.857   5.212   1.395 -0.0981 -0.2541  0.2105
27677SOL     OW83608   5.848   7.829   9.848 -0.7216 -0.1928 -0.3671
27677SOL    HW183609   5.789   7.755   9.861  0.8233 -1.0033  4.0656
27677SOL    HW283610   5.930   7.789   9.819 -0.3113 -0.1344  0.6398
27678SOL     OW83611   7.093   6.682   2.941 -0.4232  0.5558  0.2058
27678SOL    HW183612   7.076   6.739   2.866 -1.8295  0.6939  0.5820
27678SOL    HW283613   7.142   6.608   2.906 -0.1129  1.1454 -0.6275
27679SOL     OW83614   7.948   1.033   2.817 -0.3732  0.5745  1.0662
27679SOL    HW183615   8.008   1.006   2.748 -1.8889 -0.4304  0.1128
27679SOL    HW283616   8.006   1.071   2.884  1.1978  0.8629 -0.3748
27680SOL     OW83617   7.300   5.195   0.291 -0.4027 -0.0823 -0.1935
27680SOL    HW183618   7.363   5.258   0.327  0.5815 -1.2928  0.2965
27680SOL    HW283619   7.229   5.249   0.257  0.8344  1.3427 -0.6465
27681SOL     OW83620   6.932   4.220   0.276 -0.0159 -0.0263 -0.2309
27681SOL    HW183621   6.978   4.143   0.310 -2.1618 -1.0818  0.4326
27681SOL    HW283622   6.947   4.288   0.342  0.9780 -0.1832 -0.2765
27682SOL     OW83623   7.627   4.069   0.104 -0.0962 -0.0444 -0.7132
27682SOL    HW183624   7.658   4.055   0.194 -1.1468 -1.0979 -0.4890
27682SOL    HW283625   7.584   3.987   0.081  0.0849  0.2464 -2.1683
27683SOL     OW83626   3.473   0.823   0.682  0.8381 -0.5723  0.2104
27683SOL    HW183627   3.528   0.794   0.609  1.6577 -0.8366  0.9177
27683SOL    HW283628   3.406   0.877   0.641 -0.0576 -2.4866 -1.0224
27684SOL     OW83629   7.116   7.734   3.359 -0.5121  0.1132  0.1935
27684SOL    HW183630   7.040   7.771   3.404  0.1551  0.8577  0.7371
27684SOL    HW283631   7.102   7.639   3.363 -0.5967  0.1667  1.7938
27685SOL     OW83632   8.129   2.924   5.535 -0.4236  0.0015  0.9194
27685SOL    HW183633   8.137   3.003   5.588 -1.0962 -0.8858  2.4001
27685SOL    HW283634   8.057   2.876   5.575  0.3233 -1.6273  0.3778
27686SOL     OW83635   5.962   2.360   6.458  0.3493 -0.6251 -0.1689
27686SOL    HW183636   6.000   2.303   6.525 -0.1656  0.7487  1.3435
27686SOL    HW283637   5.921   2.430   6.507  2.2555  1.9203 -1.9701
27687SOL     OW83638   8.398   2.077   6.460 -0.5948 -0.0478 -0.1083
27687SOL    HW183639   8.354   2.085   6.375 -0.5431 -1.5115 -0.2917
27687SOL    HW283640   8.331   2.100   6.524 -1.3997 -1.4347 -0.4254
27688SOL     OW83641   6.223   5.939   4.455  0.2576 -0.3615 -0.3821
27688SOL    HW183642   6.241   5.957   4.548 -2.0302 -0.1243  0.0778
27688SOL    HW283643   6.292   5.878   4.429  0.2682 -1.3962  1.8326
27689SOL     OW83644   4.134   2.966   3.716  0.6771 -0.2875  0.3497
27689SOL    HW183645   4.211   2.942   3.665 -0.0442 -0.5312 -0.6553
27689SOL    HW283646   4.122   3.059   3.697 -0.3680 -0.6745 -1.0277
27690SOL     OW83647   9.521   3.543   3.179 -0.0350  0.1392  0.4946
27690SOL    HW183648   9.438   3.513   3.143 -0.2630  0.3891  0.8084
27690SOL    HW283649   9.587   3.496   3.128 -0.3770 -0.8613  0.9548
27691SOL     OW83650   9.101   2.760   2.351 -0.2530  0.1799 -0.3196
27691SOL    HW183651   9.082   2.667   2.361 -1.1111  0.3981  0.2194
27691SOL    HW283652   9.030   2.804   2.399 -0.2832  1.1266 -1.1989
27692SOL     OW83653   9.118   8.944   3.169  0.9193 -0.3510 -0.1012
27692SOL    HW183654   9.056   8.911   3.234  1.0373 -0.7835 -0.2053
27692SOL    HW283655   9.098   9.037   3.161 -0.5733 -0.7181 -1.0638
27693SOL     OW83656   9.297   9.289   2.486 -0.1030 -0.4391  0.2614
27693SOL    HW183657   9.277   9.293   2.580 -0.1276 -0.3043  0.2497
27693SOL    HW283658   9.290   9.196   2.465  1.0671 -0.6412  0.6485
27694SOL     OW83659   9.417   6.242   6.986 -0.1766 -0.2120 -0.0631
27694SOL    HW183660   9.484   6.262   7.051 -0.1528  0.3709 -0.2585
27694SOL    HW283661   9.424   6.148   6.972  0.0054 -0.2965  0.5674
27695SOL     OW83662   0.370   1.881   4.400 -0.5658  0.1624 -0.0661
27695SOL    HW183663   0.394   1.922   4.483 -1.4381 -1.5490  1.1120
27695SOL    HW283664   0.445   1.826   4.377 -0.1630  0.9420 -0.6345
27696SOL     OW83665   1.643   3.355   2.296 -0.2998  0.4314 -0.4554
27696SOL    HW183666   1.608   3.302   2.369  1.2270  2.1528  1.6479
27696SOL    HW283667   1.573   3.352   2.230 -2.1870 -0.4563  1.4264
27697SOL     OW83668   2.155   7.144   2.472  0.1547  0.0454 -0.2284
27697SOL    HW183669   2.242   7.176   2.496  0.2761  0.5579 -1.3101
27697SOL    HW283670   2.163   7.118   2.381 -0.3533 -1.6819  0.1824
27698SOL     OW83671   2.765   2.382   1.838  0.0066  0.2732  0.0354
27698SOL    HW183672   2.855   2.351   1.832  0.0671  0.1982  1.0977
27698SOL    HW283673   2.771   2.466   1.882 -0.4123  0.4435 -0.2269
27699SOL     OW83674   5.882   6.886   7.495 -0.6017 -0.1062 -0.4979
27699SOL    HW183675   5.958   6.833   7.519 -0.4192  0.4195  0.1028
27699SOL    HW283676   5.807   6.828   7.505 -0.4650 -0.0852  0.7464
27700SOL     OW83677   5.924   3.141   9.233 -0.2679  0.2908  0.5381
27700SOL    HW183678   5.927   3.106   9.322  1.2699  1.2023  0.8860
27700SOL    HW283679   5.864   3.083   9.186  0.0359 -1.0958  1.7930
27701SOL     OW83680   9.173   0.109   8.163 -0.0743 -0.9759 -0.0689
27701SOL    HW183681   9.211   0.034   8.119  2.8605  0.2598  0.0862
27701SOL    HW283682   9.171   0.085   8.255 -1.6704 -1.7959 -0.2957
27702SOL     OW83683   9.425   4.745   9.460  0.4967  0.1028  0.1424
27702SOL    HW183684   9.491   4.743   9.392  0.6863  0.5230  0.3090
27702SOL    HW283685   9.354   4.798   9.423  0.0007 -0.8069 -0.2515
27703SOL     OW83686   1.929   2.794   7.107 -0.2922  0.1572  0.1794
27703SOL    HW183687   1.882   2.711   7.099  0.0628  0.0388 -0.8009
27703SOL    HW283688   2.021   2.772   7.089 -0.2727  0.8484 -0.6065
27704SOL     OW83689   2.942   4.502   7.783  0.1961  0.6602 -0.0901
27704SOL    HW183690   3.004   4.549   7.729 -0.0662  0.4709 -0.5599
27704SOL    HW283691   2.977   4.509   7.872  1.2547 -0.0246 -0.4366
27705SOL     OW83692   5.724   4.379   3.308  0.1066 -0.0236 -0.0119
27705SOL    HW183693   5.794   4.386   3.372 -0.2552  3.1650  0.2153
27705SOL    HW283694   5.682   4.465   3.308 -2.5261 -1.1535 -1.6189
27706SOL     OW83695   4.117   1.292   9.327  0.4698  0.0523  0.4932
27706SOL    HW183696   4.028   1.267   9.301  1.9112 -4.3095 -1.0713
27706SOL    HW283697   4.129   1.379   9.290 -1.9339 -0.7819 -2.6839
27707SOL     OW83698   5.198   2.658   0.080  0.0450  0.4292  0.5660
27707SOL    HW183699   5.227   2.706   0.158  0.9857 -1.4947  1.4587
27707SOL    HW283700   5.105   2.641   0.095  0.5743 -1.4198  2.1647
27708SOL     OW83701   2.856   7.676   4.626 -0.2587  0.2419  0.2154
27708SOL    HW183702   2.856   7.615   4.553  0.9675 -1.1165  1.3000
27708SOL    HW283703   2.767   7.672   4.660  0.1966 -2.3070  1.3189
27709SOL     OW83704   8.620   6.295   1.269  0.2652 -0.0582 -0.3521
27709SOL    HW183705   8.532   6.285   1.233 -0.0961 -1.1100  0.7808
27709SOL    HW283706   8.671   6.226   1.226  0.4620  0.3384 -0.7600
27710SOL     OW83707   7.979   0.265   0.564  0.4634  0.3678 -0.0212
27710SOL    HW183708   8.052   0.326   0.572  0.1252  0.6301  1.3839
27710SOL    HW283709   7.902   0.321   0.552  0.0870  0.2952  1.7429
27711SOL     OW83710   7.605   4.653   3.398  0.6310  0.0095 -0.0224
27711SOL    HW183711   7.510   4.666   3.393  0.6086  0.7660  1.6289
27711SOL    HW283712   7.621   4.575   3.345 -0.6165  1.0208 -2.0357
27712SOL     OW83713   7.733   5.776   5.062  0.7482  0.3249  0.0791
27712SOL    HW183714   7.670   5.817   5.004  0.8236 -0.8430 -0.8590
27712SOL    HW283715   7.805   5.749   5.005  1.4377  0.3136  0.9125
27713SOL     OW83716   0.670   8.049   1.351  0.1654 -0.3041  0.6054
27713SOL    HW183717   0.642   8.115   1.415 -0.7420  2.0853 -2.0378
27713SOL    HW283718   0.601   7.982   1.355 -1.2400  1.0603  0.4582
27714SOL     OW83719   1.559   9.554   5.343  0.1477  0.4051  0.4512
27714SOL    HW183720   1.614   9.523   5.271 -1.1842  0.1171 -0.4940
27714SOL    HW283721   1.601   9.634   5.373  0.6152  0.6521 -0.8170
27715SOL     OW83722   1.414   0.321   1.128 -0.4126  0.2455 -0.0092
27715SOL    HW183723   1.439   0.409   1.101 -1.7899  0.2624 -1.3608
27715SOL    HW283724   1.401   0.274   1.045 -2.5581 -0.3808  0.6276
27716SOL     OW83725   9.136   4.520   9.261  0.8095  1.0312 -0.2480
27716SOL    HW183726   9.069   4.456   9.234  0.6498  0.7751  0.7317
27716SOL    HW283727   9.173   4.552   9.178  1.9971 -1.4594 -0.7673
27717SOL     OW83728   3.130   2.359   4.015  0.4324  0.0986 -0.0692
27717SOL    HW183729   3.152   2.326   3.928  0.4234  1.1849 -0.4960
27717SOL    HW283730   3.082   2.287   4.056  0.0555 -0.2677 -1.1115
27718SOL     OW83731   1.940   9.356   7.751  0.0247  0.6766 -0.6021
27718SOL    HW183732   2.006   9.411   7.708  0.4049  0.3295 -0.4759
27718SOL    HW283733   1.859   9.406   7.746  0.4683  1.4682 -0.0440
27719SOL     OW83734   6.489   3.684   1.624 -0.8265  0.7054  0.3879
27719SOL    HW183735   6.442   3.705   1.705  0.0373 -1.3676  1.5083
27719SOL    HW283736   6.420   3.658   1.563 -1.5533  2.9324  0.1573
27720SOL     OW83737   5.862   8.131   1.274 -0.2764  0.1786  0.5406
27720SOL    HW183738   5.839   8.199   1.338 -2.1257 -0.8680  1.0744
27720SOL    HW283739   5.890   8.179   1.196 -1.8182  1.5802  0.8000
27721SOL     OW83740   3.454   6.559   4.556 -0.5583  0.1104 -0.3902
27721SOL    HW183741   3.377   6.506   4.578 -0.8708  0.7086 -0.0262
27721SOL    HW283742   3.418   6.637   4.514 -0.3122  1.3402  1.5541
27722SOL     OW83743   5.667   5.755   9.256 -0.0852 -0.0838  0.7237
27722SOL    HW183744   5.593   5.704   9.223 -0.2694  0.9325 -0.5236
27722SOL    HW283745   5.627   5.826   9.306 -0.1487  1.6292 -1.5757
27723SOL     OW83746   0.357   6.516   3.901 -0.4782  0.0618 -0.1522
27723SOL    HW183747   0.390   6.578   3.967 -1.8104  1.5071 -0.7722
27723SOL    HW283748   0.436   6.478   3.863  0.3949  1.1210  0.5247
27724SOL     OW83749   1.954   8.116   7.110  0.5517  0.1242  0.0096
27724SOL    HW183750   2.030   8.149   7.159 -0.0239  0.1159  0.9443
27724SOL    HW283751   1.941   8.181   7.041  1.6042 -0.0478 -0.3745
27725SOL     OW83752   7.532   5.371   0.426 -0.1375  0.4979  0.7618
27725SOL    HW183753   7.571   5.301   0.477  0.8266 -0.8862 -1.6768
27725SOL    HW283754   7.539   5.449   0.481  2.2313 -0.5682  2.0804
27726SOL     OW83755   8.603   2.582   6.901  0.1106  0.0341 -0.6310
27726SOL    HW183756   8.585   2.503   6.850 -2.0947  0.7198 -1.0064
27726SOL    HW283757   8.641   2.643   6.838  0.7377 -0.3089 -0.5978
27727SOL     OW83758   8.777   8.855   7.469  0.2949  0.1552  0.1769
27727SOL    HW183759   8.825   8.906   7.534  0.3754  0.5176 -0.1640
27727SOL    HW283760   8.708   8.811   7.520  0.1545  0.6884  0.4608
27728SOL     OW83761   3.975   8.714   9.303 -0.0598 -0.5653 -0.3485
27728SOL    HW183762   3.897   8.763   9.331 -0.3399 -0.1262 -1.7761
27728SOL    HW283763   4.042   8.782   9.291 -0.0929 -0.6711 -1.1686
27729SOL     OW83764   9.350   0.872   4.180  0.1142  0.1331  0.5395
27729SOL    HW183765   9.366   0.900   4.090 -0.2912 -1.6356 -0.1429
27729SOL    HW283766   9.327   0.952   4.227  3.2956  1.6240 -0.1688
27730SOL     OW83767   4.490   2.461   1.465 -0.0042  0.2620 -0.2849
27730SOL    HW183768   4.409   2.475   1.514  0.5545  2.5789  0.0814
27730SOL    HW283769   4.549   2.421   1.528  0.9629  3.9122  1.3643
27731SOL     OW83770   7.570   9.058   3.885  0.0284 -0.0866  0.3822
27731SOL    HW183771   7.547   9.064   3.977 -0.0431 -1.4265  0.4739
27731SOL    HW283772   7.632   9.130   3.871 -0.1171  0.2553  1.4164
27732SOL     OW83773   8.629   4.518   2.595  0.0767 -0.1916  0.5629
27732SOL    HW183774   8.564   4.560   2.539  0.0851  0.0337  0.7162
27732SOL    HW283775   8.666   4.591   2.646 -1.6118 -0.6741  2.6015
27733SOL     OW83776   0.182   8.934   7.038 -0.0673 -0.3035  0.6672
27733SOL    HW183777   0.181   8.844   7.006 -2.4340 -0.4505  1.0045
27733SOL    HW283778   0.156   8.986   6.962  1.7111  0.2035  0.3501
27734SOL     OW83779   2.759   3.292   7.010  0.4080 -0.2686  0.3286
27734SOL    HW183780   2.678   3.265   7.053  0.1136 -1.7735 -1.0984
27734SOL    HW283781   2.746   3.270   6.918  1.3262  2.1359 -0.4606
27735SOL     OW83782   7.462   5.130   0.517  1.0253  0.2635 -0.2187
27735SOL    HW183783   7.408   5.100   0.443  2.7716 -1.5679 -0.8395
27735SOL    HW283784   7.529   5.063   0.526  1.8785  1.3295  1.9786
27736SOL     OW83785   0.508   6.390   2.012  0.3027  0.1484 -0.4236
27736SOL    HW183786   0.587   6.443   2.006 -0.3628  1.5837  1.9040
27736SOL    HW283787   0.509   6.354   2.101 -0.9987 -0.9190 -0.7974
27737SOL     OW83788   3.794   3.502   1.250  0.8700 -0.6752 -0.5506
27737SOL    HW183789   3.705   3.510   1.282  1.5256  0.3410  1.1355
27737SOL    HW283790   3.812   3.408   1.252 -0.0320 -0.8573 -0.5793
27738SOL     OW83791   2.651   6.580   3.755 -0.0531 -0.1187 -0.3654
27738SOL    HW183792   2.739   6.617   3.765  0.4647 -1.5405  0.6501
27738SOL    HW283793   2.648   6.508   3.818 -2.3145  0.5292  0.3602
27739SOL     OW83794   7.057   6.520   6.999 -0.0732  0.2947 -0.1970
27739SOL    HW183795   6.986   6.579   7.025 -0.9343 -1.2964  1.2873
27739SOL    HW283796   7.125   6.577   6.964 -0.8717  2.1604  1.1511
27740SOL     OW83797   0.905   0.425   3.376 -0.6020 -0.0224 -0.1373
27740SOL    HW183798   0.953   0.441   3.457 -2.9516 -0.1466  1.3833
27740SOL    HW283799   0.901   0.510   3.333 -0.0365  0.2174  0.2765
27741SOL     OW83800   3.873   1.077   2.327 -0.5228 -0.2559  0.3825
27741SOL    HW183801   3.963   1.096   2.356  0.5469 -2.2926 -1.3466
27741SOL    HW283802   3.876   0.985   2.299 -2.2753  0.5105 -2.7936
27742SOL     OW83803   2.290   9.126   7.642  0.0187  0.0547 -0.6098
27742SOL    HW183804   2.288   9.212   7.600 -0.9331  0.0440 -0.6172
27742SOL    HW283805   2.383   9.104   7.648  0.3139  1.3533 -0.0439
27743SOL     OW83806   2.966   2.172   7.577 -0.4007  0.6908  0.2554
27743SOL    HW183807   2.981   2.266   7.581 -0.0055  0.6014  1.3303
27743SOL    HW283808   3.041   2.137   7.528 -0.0096  0.8332  0.7475
27744SOL     OW83809   8.708   3.312   7.451 -0.1372  0.2370  0.0107
27744SOL    HW183810   8.760   3.383   7.414 -0.1775  0.7996  1.0076
27744SOL    HW283811   8.619   3.327   7.418 -0.1872  0.7729  0.3894
27745SOL     OW83812   8.072   6.854   2.540 -0.4858  0.0941 -0.8947
27745SOL    HW183813   7.982   6.880   2.522 -0.6051  1.1725  1.0425
27745SOL    HW283814   8.122   6.936   2.537  0.1540 -0.2659 -0.3446
27746SOL     OW83815   0.616   3.414   3.948 -0.6736 -0.0140  0.0199
27746SOL    HW183816   0.521   3.420   3.938 -0.7589 -0.5303  0.4901
27746SOL    HW283817   0.631   3.413   4.043 -0.2609 -0.7493 -0.0405
27747SOL     OW83818   1.234   8.740   8.817  0.2283  0.0725  0.6112
27747SOL    HW183819   1.223   8.652   8.781  0.6629  0.0126  0.6256
27747SOL    HW283820   1.321   8.767   8.788  0.1201  0.4769  0.6568
27748SOL     OW83821   1.080   4.127   4.313  0.2658 -0.1714 -0.5147
27748SOL    HW183822   1.016   4.141   4.383  2.5663 -1.3628  1.9980
27748SOL    HW283823   1.100   4.033   4.317  3.2260  0.3864 -0.1201
27749SOL     OW83824   3.891   4.630   3.488  0.1628  0.2672 -0.7921
27749SOL    HW183825   3.980   4.637   3.521  0.2940 -2.8622 -0.1980
27749SOL    HW283826   3.836   4.626   3.566 -0.4442  1.1463 -1.1456
27750SOL     OW83827   9.250   2.274   0.911  0.3015  0.6391 -0.4059
27750SOL    HW183828   9.200   2.198   0.880  0.2984  0.1556  0.7330
27750SOL    HW283829   9.188   2.347   0.904  0.5154  0.6900 -2.1403
27751SOL     OW83830   4.882   1.329   3.154  0.3010  0.3131 -0.2989
27751SOL    HW183831   4.788   1.314   3.143  0.3331  0.7302 -1.1974
27751SOL    HW283832   4.917   1.329   3.065  1.0961  0.5478  0.0046
27752SOL     OW83833   1.403   6.019   4.381 -0.2256  0.2750  0.1458
27752SOL    HW183834   1.416   6.108   4.347 -0.7263  1.1254  2.0827
27752SOL    HW283835   1.367   6.031   4.468 -1.2968 -1.8648  0.0691
27753SOL     OW83836   5.445   8.336   4.158  0.1533  0.0143  0.6250
27753SOL    HW183837   5.425   8.317   4.249  0.7531 -0.0274  0.7515
27753SOL    HW283838   5.399   8.418   4.140  0.3679  0.2373  1.0829
27754SOL     OW83839   9.218   8.162   3.293  0.1180 -0.0920  0.3889
27754SOL    HW183840   9.275   8.221   3.342  1.8113 -0.4467 -1.0608
27754SOL    HW283841   9.274   8.088   3.271 -1.2826 -1.0658  0.0098
27755SOL     OW83842   8.987   4.292   7.510 -0.7082 -0.6092  0.4975
27755SOL    HW183843   8.957   4.247   7.589 -0.3737 -0.3401  0.7886
27755SOL    HW283844   9.060   4.238   7.479  0.3968  0.2662  1.4546
27756SOL     OW83845   6.633   0.284   8.951  0.4621  0.2213  0.0194
27756SOL    HW183846   6.610   0.233   8.873 -1.7383 -0.3215  0.9571
27756SOL    HW283847   6.723   0.259   8.970  0.2337 -1.4966 -0.9254
27757SOL     OW83848   6.795   8.594   9.301 -0.3660 -0.1074 -0.4576
27757SOL    HW183849   6.701   8.576   9.297 -0.1459 -1.3186 -0.8114
27757SOL    HW283850   6.802   8.688   9.315 -1.6208  0.0539 -0.8502
27758SOL     OW83851   2.297   1.651   6.475  0.6105  0.4790  0.0799
27758SOL    HW183852   2.285   1.618   6.386  0.1990  1.7769 -0.3664
27758SOL    HW283853   2.389   1.635   6.494  0.7060  0.2116 -0.5790
27759SOL     OW83854   2.481   1.511   4.691  0.3300 -0.4442  0.1968
27759SOL    HW183855   2.477   1.442   4.758  2.8538 -1.0088 -0.1207
27759SOL    HW283856   2.554   1.567   4.719  0.0326  0.5579 -0.9532
27760SOL     OW83857   6.214   4.121   2.693 -0.1096  0.0106  0.0712
27760SOL    HW183858   6.119   4.112   2.699 -0.3071  2.4301  2.1471
27760SOL    HW283859   6.228   4.213   2.670  1.7476 -0.2882 -0.1453
27761SOL     OW83860   8.224   2.740   9.204 -0.8477 -0.2262 -0.1063
27761SOL    HW183861   8.259   2.816   9.250 -1.3695 -0.7676  1.2183
27761SOL    HW283862   8.217   2.769   9.113  3.4741 -0.1874 -0.6609
27762SOL     OW83863   1.109   0.837   1.964 -1.0460  0.0380 -0.3674
27762SOL    HW183864   1.067   0.765   1.917 -0.1592 -1.9525  1.7153
27762SOL    HW283865   1.059   0.847   2.044  1.5152 -1.5516  1.5903
27763SOL     OW83866   4.833   8.293   3.238 -0.7748  0.0778  0.1098
27763SOL    HW183867   4.747   8.333   3.235  0.4321  2.8888 -0.5349
27763SOL    HW283868   4.867   8.302   3.149  0.4811 -0.2695  0.5268
27764SOL     OW83869   3.874   0.460   6.326  0.4073  0.1922 -0.3818
27764SOL    HW183870   3.801   0.407   6.357 -0.4641  1.1199 -0.7587
27764SOL    HW283871   3.893   0.520   6.398  0.3407  0.4027 -0.5387
27765SOL     OW83872   6.735   6.191   4.809  0.3784  0.1907  0.0439
27765SOL    HW183873   6.817   6.241   4.813 -1.1162  2.7574  0.7123
27765SOL    HW283874   6.677   6.246   4.757 -0.9974 -1.5261 -0.3162
27766SOL     OW83875   9.185   9.321   8.836 -0.4304 -0.2461 -0.1663
27766SOL    HW183876   9.125   9.315   8.910  0.1015  1.1699  0.4104
27766SOL    HW283877   9.132   9.300   8.759 -1.5223  0.4432  0.3837
27767SOL     OW83878   2.989   8.008   1.854  0.1412  0.5368 -0.4306
27767SOL    HW183879   2.956   8.050   1.774 -0.1381  0.9530 -0.0980
27767SOL    HW283880   3.080   7.987   1.833  0.0571  0.5964 -0.8793
27768SOL     OW83881   1.533   6.744   4.573 -0.2517  0.1700  0.7357
27768SOL    HW183882   1.615   6.763   4.619  0.4865  0.2178 -0.5611
27768SOL    HW283883   1.467   6.737   4.643  1.1099 -1.3718  1.9306
27769SOL     OW83884   7.971   9.067   0.427  0.0863  0.2819 -0.2960
27769SOL    HW183885   8.011   9.036   0.346 -0.7914 -0.1899 -0.5729
27769SOL    HW283886   7.932   8.988   0.466 -0.4798  0.6965 -0.0012
27770SOL     OW83887   5.835   2.861   1.259 -0.7064  0.0866 -0.0721
27770SOL    HW183888   5.783   2.859   1.179  2.7764  0.8069 -2.5942
27770SOL    HW283889   5.857   2.953   1.271 -2.7817  0.3362  3.0537
27771SOL     OW83890   5.894   1.149   0.047 -0.0279  0.3363  0.1904
27771SOL    HW183891   5.930   1.067   0.014  0.8527  0.5011  0.7137
27771SOL    HW283892   5.809   1.157   0.004  0.3138 -0.3476 -0.6341
27772SOL     OW83893   4.441   1.132   4.028 -0.2052 -0.1951  0.6924
27772SOL    HW183894   4.479   1.155   4.113 -0.7386 -1.6528  1.3470
27772SOL    HW283895   4.359   1.181   4.025 -0.3124 -0.3454  1.1242
27773SOL     OW83896   3.824   6.098   8.861 -0.1464 -0.0321 -0.0230
27773SOL    HW183897   3.799   6.072   8.950  1.1659  1.2513  0.7634
27773SOL    HW283898   3.890   6.034   8.836  0.8985  0.7277  0.7195
27774SOL     OW83899   5.097   8.685   0.857 -0.5207  0.6110 -0.7691
27774SOL    HW183900   5.025   8.623   0.870  1.3212 -1.5695 -0.2420
27774SOL    HW283901   5.073   8.732   0.777 -2.2922 -0.3791 -0.8975
27775SOL     OW83902   2.218   9.925   3.698 -0.2040 -0.1983 -0.0339
27775SOL    HW183903   2.308   9.923   3.730  0.4383  0.4720 -1.6967
27775SOL    HW283904   2.189  10.014   3.716  0.6329  0.6248 -2.4005
27776SOL     OW83905   3.025   4.004   3.554 -0.0139  0.8665 -0.0845
27776SOL    HW183906   2.984   4.061   3.489 -1.6232  0.2272  0.3050
27776SOL    HW283907   2.953   3.979   3.613  1.2005  0.6621  1.3781
27777SOL     OW83908   8.269   7.516   4.722  0.5364  0.5432  0.0201
27777SOL    HW183909   8.196   7.480   4.672  0.2933  1.6733 -0.4783
27777SOL    HW283910   8.346   7.471   4.688  0.2202  0.3424 -0.4415
27778SOL     OW83911   8.207   4.510   7.422  0.5981  0.1429  0.1486
27778SOL    HW183912   8.275   4.462   7.469  1.3238  0.0530 -0.9714
27778SOL    HW283913   8.233   4.506   7.330 -1.7069 -1.2294 -0.5240
27779SOL     OW83914   4.322   8.898   5.767  0.0754 -0.2764 -0.4784
27779SOL    HW183915   4.389   8.834   5.741 -0.7902 -0.5602 -2.1279
27779SOL    HW283916   4.239   8.859   5.737 -0.6919  0.6758  0.3484
27780SOL     OW83917   0.395   2.728   8.211 -0.1613 -0.3787  0.6414
27780SOL    HW183918   0.416   2.703   8.121 -1.1212  1.1225 -0.0505
27780SOL    HW283919   0.469   2.696   8.263  0.9391 -0.3575 -0.8362
27781SOL     OW83920   5.362   9.670   3.212  0.0056 -0.0663  0.3757
27781SOL    HW183921   5.299   9.598   3.216  0.6936 -0.7369 -0.7513
27781SOL    HW283922   5.326   9.735   3.274 -2.0700 -0.2105 -0.5817
27782SOL     OW83923   4.565   1.244   1.483  0.3471 -0.4326  0.4482
27782SOL    HW183924   4.642   1.210   1.529  0.5252 -0.9592 -0.2339
27782SOL    HW283925   4.601   1.304   1.418  0.1914 -0.7812  0.0382
27783SOL     OW83926   6.100   1.513   4.957  0.6848  0.3710  0.3065
27783SOL    HW183927   6.115   1.426   4.994  1.3857  0.5866  0.5323
27783SOL    HW283928   6.147   1.513   4.874  1.8523  0.9924  0.9448
27784SOL     OW83929   6.521   8.594   4.926  0.0709  0.1822 -0.0767
27784SOL    HW183930   6.533   8.688   4.939  0.7681  0.3414 -1.6232
27784SOL    HW283931   6.610   8.558   4.931  0.0222 -0.1314 -1.2490
27785SOL     OW83932   9.077   0.876   1.431  0.0685  0.3296 -0.3538
27785SOL    HW183933   9.000   0.886   1.487  0.2146 -1.0541  0.1319
27785SOL    HW283934   9.080   0.783   1.411  1.5400  0.3806 -0.4745
27786SOL     OW83935   2.315   0.244   8.701  0.2694 -0.2905 -0.1298
27786SOL    HW183936   2.229   0.207   8.721  0.8794 -1.9761 -0.5101
27786SOL    HW283937   2.377   0.182   8.739  1.3549  1.4701  1.1639
27787SOL     OW83938   6.580   4.730   9.003 -0.0609  0.1351  0.0962
27787SOL    HW183939   6.606   4.822   9.007 -0.6238  0.2712  2.4047
27787SOL    HW283940   6.662   4.682   9.009  0.2189  0.4727 -0.8642
27788SOL     OW83941   6.129   3.350   1.084  0.0860  0.3727 -0.1305
27788SOL    HW183942   6.176   3.293   1.145  0.3949  0.2673 -0.4684
27788SOL    HW283943   6.183   3.429   1.079 -0.6050  0.9271  0.7462
27789SOL     OW83944   2.407   4.601   0.189  0.3784 -0.8952 -0.4039
27789SOL    HW183945   2.363   4.548   0.255 -0.6796 -2.4465 -2.2732
27789SOL    HW283946   2.468   4.656   0.240 -3.0592  0.8573  2.2451
27790SOL     OW83947   9.166   3.616   9.538 -0.0690 -0.1838 -0.1864
27790SOL    HW183948   9.257   3.587   9.543  0.4029  1.2436 -0.1345
27790SOL    HW283949   9.124   3.575   9.614  1.5428  2.3818  2.3295
27791SOL     OW83950   4.496   0.263   3.537  0.6174 -0.0033 -0.5079
27791SOL    HW183951   4.576   0.211   3.537 -1.1907 -3.0045 -0.2034
27791SOL    HW283952   4.441   0.222   3.603 -1.6857  1.1025 -1.6226
27792SOL     OW83953   8.622   6.774   8.064 -0.1080 -0.2531  0.1406
27792SOL    HW183954   8.690   6.823   8.019  0.3998 -0.7488  0.3474
27792SOL    HW283955   8.615   6.692   8.015  1.4554 -1.4155  1.7187
27793SOL     OW83956   2.958   0.762   9.129 -0.1316 -0.2735 -0.3934
27793SOL    HW183957   3.054   0.758   9.134 -0.2388 -1.0031  3.2476
27793SOL    HW283958   2.928   0.682   9.171 -2.3402  0.9945  0.5848
27794SOL     OW83959   1.677   0.678   5.962  0.2701  0.5877  0.2743
27794SOL    HW183960   1.753   0.730   5.986 -0.3492  2.3489 -1.2976
27794SOL    HW283961   1.649   0.714   5.877 -0.2657 -2.2854 -0.8746
27795SOL     OW83962   0.464   1.526   9.129 -0.1285 -1.1173 -0.0118
27795SOL    HW183963   0.459   1.562   9.040 -0.8637 -1.6066 -0.1816
27795SOL    HW283964   0.378   1.487   9.144  0.0774 -1.2763  0.8196
27796SOL     OW83965   3.014   8.916   2.710  0.0572 -0.3823  0.3453
27796SOL    HW183966   3.027   8.883   2.799  1.1781 -0.6352  0.1045
27796SOL    HW283967   3.087   8.880   2.660 -0.0422  0.5084 -0.4747
27797SOL     OW83968   0.294   2.573   6.274 -0.0247 -0.5655 -0.5520
27797SOL    HW183969   0.274   2.520   6.351 -1.2647  0.2625 -0.2850
27797SOL    HW283970   0.209   2.593   6.235  0.2530  2.2408  0.0564
27798SOL     OW83971   1.656   4.239   1.597  0.1133  0.0495  0.2665
27798SOL    HW183972   1.610   4.218   1.515 -1.4904  2.0337  0.5943
27798SOL    HW283973   1.596   4.211   1.666  1.2608 -1.1816  0.8205
27799SOL     OW83974   4.229   6.933   3.381 -0.7747  0.1308 -0.7566
27799SOL    HW183975   4.153   6.989   3.367 -0.2365  1.1859  0.3647
27799SOL    HW283976   4.277   6.975   3.451  0.6847 -0.7019 -1.2157
27800SOL     OW83977   3.924   0.782   4.257 -0.0761 -0.2245  0.4198
27800SOL    HW183978   3.995   0.791   4.194 -0.1117 -1.7538  0.1019
27800SOL    HW283979   3.850   0.828   4.216 -0.3851 -2.0075 -1.1996
27801SOL     OW83980   1.435   0.592   9.094 -0.1762  0.1176 -0.1377
27801SOL    HW183981   1.429   0.687   9.111  0.1944  0.4312 -1.6294
27801SOL    HW283982   1.477   0.556   9.172 -1.2421  1.0295  0.8998
27802SOL     OW83983   5.037   0.635   8.671 -0.2697  0.4855 -0.4865
27802SOL    HW183984   5.066   0.721   8.641 -0.7668  1.0479  0.5758
27802SOL    HW283985   4.943   0.645   8.685 -0.0373  0.3673  1.4793
27803SOL     OW83986   5.785   1.801   5.843 -0.1953  0.3471 -0.8080
27803SOL    HW183987   5.720   1.739   5.874  0.1864 -0.5260 -1.6971
27803SOL    HW283988   5.821   1.840   5.922 -1.3519  0.3949 -0.2848
27804SOL     OW83989   7.792   8.815   2.865  0.2257 -0.0599  0.0628
27804SOL    HW183990   7.713   8.859   2.896 -0.2185  1.2651 -2.6996
27804SOL    HW283991   7.817   8.759   2.938 -3.0471 -0.2860  1.2031
27805SOL     OW83992   7.127   9.015   1.875  0.0176 -0.0044 -0.2143
27805SOL    HW183993   7.139   9.109   1.861 -0.2290 -0.0143 -0.5029
27805SOL    HW283994   7.034   9.006   1.897  0.3544  0.0042  1.3628
27806SOL     OW83995   1.334   6.132   4.622 -0.2712 -0.3972 -0.2253
27806SOL    HW183996   1.293   6.128   4.708 -0.1327 -0.2594 -0.1506
27806SOL    HW283997   1.426   6.153   4.640 -0.5565  1.2740 -0.4667
27807SOL     OW83998   6.573   1.282   8.752  0.0152  0.0804  0.1813
27807SOL    HW183999   6.511   1.354   8.743  0.6254  0.4476 -1.4357
27807SOL    HW284000   6.554   1.224   8.679  0.4075 -0.7349  0.7038
27808SOL     OW84001   5.303   6.071   3.194  0.3913  0.2537  0.0771
27808SOL    HW184002   5.348   6.072   3.279 -0.5016 -0.3053  0.5684
27808SOL    HW284003   5.216   6.036   3.213  0.0028  0.6009 -0.9895
27809SOL     OW84004   6.336   7.069   9.532  0.1635 -0.0191  0.0667
27809SOL    HW184005   6.315   7.117   9.611 -0.8025  0.5938 -0.5389
27809SOL    HW284006   6.408   7.012   9.557 -1.3127 -1.2122  1.9026
27810SOL     OW84007   7.598   5.876   8.295  0.4558 -0.1065 -0.4309
27810SOL    HW184008   7.575   5.943   8.358 -1.1499  0.0773 -1.1701
27810SOL    HW284009   7.674   5.912   8.249 -0.4250  1.2627 -0.8767
27811SOL     OW84010   6.795   3.857   5.648 -0.1537 -0.6491 -0.0929
27811SOL    HW184011   6.741   3.823   5.576 -0.7130 -0.0205  0.0109
27811SOL    HW284012   6.832   3.779   5.689  1.2292 -0.9665 -1.8474
27812SOL     OW84013   1.944   3.054   4.826  0.2317  0.6992  0.6429
27812SOL    HW184014   1.958   3.057   4.732 -0.5351  0.1623  0.5032
27812SOL    HW284015   2.012   2.994   4.858  1.1954  1.7242  0.5938
27813SOL     OW84016   1.464   5.734   6.785 -0.0701  0.2503 -0.1248
27813SOL    HW184017   1.498   5.653   6.746  2.3026  1.5980 -1.0057
27813SOL    HW284018   1.422   5.780   6.713 -1.0634  0.0323  0.2923
27814SOL     OW84019   9.980   0.307   3.710  0.1720  0.3187  0.3984
27814SOL    HW184020   9.905   0.350   3.751 -1.7135  1.2731 -3.5695
27814SOL    HW284021  10.022   0.375   3.658  1.5037 -1.0612 -0.4455
27815SOL     OW84022   1.549   6.481   6.368 -0.5221  0.2674  0.7006
27815SOL    HW184023   1.577   6.500   6.458  0.0686  2.6910  0.0832
27815SOL    HW284024   1.552   6.566   6.324 -5.9569  0.2928 -0.3073
27816SOL     OW84025   4.878   3.589   2.534 -0.0094  0.0469  0.3091
27816SOL    HW184026   4.936   3.538   2.478  0.1555  0.6448 -0.0714
27816SOL    HW284027   4.932   3.661   2.566 -1.0004  1.6954 -1.5563
27817SOL     OW84028   7.826   6.963   2.502 -0.3542  0.0001 -0.2506
27817SOL    HW184029   7.861   7.027   2.440 -2.3037  3.4200  1.8023
27817SOL    HW284030   7.845   7.000   2.588 -2.1445 -1.8979  1.0703
27818SOL     OW84031   6.983   6.924   5.332 -0.1935  0.4987 -0.3868
27818SOL    HW184032   6.931   7.004   5.343  1.7645  1.8374 -0.3083
27818SOL    HW284033   7.006   6.924   5.239 -0.0634  0.0817 -0.3537
27819SOL     OW84034   0.720   6.444   1.230  0.1491 -0.0971 -0.1844
27819SOL    HW184035   0.675   6.372   1.273  0.0185 -0.0165 -0.1841
27819SOL    HW284036   0.649   6.500   1.197  0.2411  0.3960  0.4236
27820SOL     OW84037   0.085   8.939   0.916 -0.2743 -0.4678  0.1946
27820SOL    HW184038   0.069   8.860   0.865 -0.2275 -0.5871  0.3625
27820SOL    HW284039   0.102   9.007   0.851 -2.1451 -0.1649 -0.0360
27821SOL     OW84040   8.701   6.182   5.807  0.0231  0.1726 -0.4111
27821SOL    HW184041   8.662   6.261   5.771  0.1725  0.5964  0.3270
27821SOL    HW284042   8.626   6.130   5.837 -0.0133  0.7805  0.5945
27822SOL     OW84043   6.024   8.670   3.706  0.3913  0.2348 -0.0448
27822SOL    HW184044   6.021   8.715   3.790  0.3965  0.0966  0.0295
27822SOL    HW284045   5.936   8.680   3.669 -0.1674 -1.2567  0.7878
27823SOL     OW84046   2.230   4.026   2.282  0.9661 -0.0264 -0.4214
27823SOL    HW184047   2.320   3.997   2.295  0.9329  0.5819  1.4063
27823SOL    HW284048   2.202   3.980   2.203  2.9718  0.0421 -1.2457
27824SOL     OW84049   4.175   6.667   8.306  0.7069  0.0310  0.7174
27824SOL    HW184050   4.191   6.761   8.315 -1.9883  0.7298 -0.6549
27824SOL    HW284051   4.206   6.645   8.219  1.2499 -0.3386  1.0018
27825SOL     OW84052   3.312   1.643   3.128  0.0165  0.1066 -0.1033
27825SOL    HW184053   3.381   1.629   3.064 -0.2618  1.9692 -0.8701
27825SOL    HW284054   3.280   1.731   3.110 -0.6523  0.3590  2.0579
27826SOL     OW84055   5.796   2.805   0.417 -0.2256 -0.0399  0.1675
27826SOL    HW184056   5.883   2.783   0.449  0.7256  2.1414 -0.6622
27826SOL    HW284057   5.752   2.845   0.492  0.3964  1.0125  0.0049
27827SOL     OW84058   3.673   9.045   9.863 -0.1960 -0.1045 -0.2648
27827SOL    HW184059   3.705   8.999   9.941 -0.0613 -0.8477 -0.7523
27827SOL    HW284060   3.606   9.105   9.897 -1.5297 -1.7779  0.2258
27828SOL     OW84061   8.552   1.440   4.552  0.1246 -0.3361 -0.0459
27828SOL    HW184062   8.488   1.510   4.538 -1.7037 -1.6862  1.0427
27828SOL    HW284063   8.605   1.469   4.626  0.6390  0.7008 -0.8051
27829SOL     OW84064   8.392   5.864   9.401  0.7110 -0.1294 -0.4803
27829SOL    HW184065   8.370   5.954   9.378  0.5670 -0.3395 -1.1536
27829SOL    HW284066   8.488   5.866   9.411  0.6801  0.1603 -0.1891
27830SOL     OW84067   5.891   4.217   9.176 -0.2760 -0.0957  0.1054
27830SOL    HW184068   5.902   4.291   9.116 -0.4671 -2.1375 -2.6772
27830SOL    HW284069   5.965   4.224   9.236  0.8728  1.2360 -1.3529
27831SOL     OW84070   0.857   6.786   3.085 -0.5340  0.2583 -0.4737
27831SOL    HW184071   0.856   6.781   2.989 -0.5942 -0.6823 -0.4387
27831SOL    HW284072   0.918   6.857   3.105  0.9166 -0.7280 -1.1932
27832SOL     OW84073   1.902   7.420   4.628 -0.3666  0.5659 -0.1982
27832SOL    HW184074   1.934   7.447   4.542 -0.0170  0.5859 -0.0665
27832SOL    HW284075   1.828   7.363   4.610 -0.1335  0.3625 -0.5227
27833SOL     OW84076   4.384   0.111   9.731 -0.2640 -0.4687 -0.1871
27833SOL    HW184077   4.459   0.053   9.721  0.8739  1.1013 -1.3530
27833SOL    HW284078   4.365   0.110   9.824  2.4094  0.4477  0.4652
27834SOL     OW84079   4.250   8.617   6.755  0.1572 -0.5006  0.0592
27834SOL    HW184080   4.264   8.622   6.660  0.3445 -1.0713  0.0534
27834SOL    HW284081   4.177   8.556   6.765 -1.5069  1.4086  0.1650
27835SOL     OW84082   5.314   0.395   9.052 -0.4894  0.3930 -0.4837
27835SOL    HW184083   5.266   0.312   9.062  0.7826 -0.5044 -1.5224
27835SOL    HW284084   5.295   0.423   8.962  1.1331 -0.1385 -1.0232
27836SOL     OW84085   8.093   1.902   1.961 -0.5261 -0.1461  0.1070
27836SOL    HW184086   8.122   1.937   1.877 -1.2873  0.6110  0.1494
27836SOL    HW284087   8.001   1.929   1.969 -0.7139 -0.9180  0.8034
27837SOL     OW84088   5.387   2.893   3.871 -0.1613 -0.3618  0.3467
27837SOL    HW184089   5.300   2.879   3.909 -0.4870 -0.1340 -0.3086
27837SOL    HW284090   5.416   2.976   3.908 -0.3128 -0.3327  0.4018
27838SOL     OW84091   3.135   3.859   5.405  0.3524  0.8200  0.4586
27838SOL    HW184092   3.137   3.765   5.388 -1.1595  1.1521 -1.9163
27838SOL    HW284093   3.187   3.898   5.335 -2.0984  1.9444 -0.8716
27839SOL     OW84094   1.667   3.162   3.551  0.3969  0.1999 -0.6679
27839SOL    HW184095   1.676   3.124   3.463 -1.3940 -0.1942 -0.7076
27839SOL    HW284096   1.702   3.251   3.543 -0.3399  0.3967 -1.9649
27840SOL     OW84097   9.408   0.611   4.706 -0.1356 -0.0939  0.4652
27840SOL    HW184098   9.449   0.687   4.664  0.5893  0.4216  2.0394
27840SOL    HW284099   9.322   0.642   4.732  0.1716  0.2158  1.1346
27841SOL     OW84100   0.471   1.416   2.702  0.4633  0.5587 -0.0479
27841SOL    HW184101   0.493   1.442   2.791 -0.4701  0.8488  0.1062
27841SOL    HW284102   0.536   1.350   2.679  0.4964  0.2324  0.9766
27842SOL     OW84103   7.740   5.778   5.456  0.3348  0.1515  0.3398
27842SOL    HW184104   7.791   5.836   5.399 -0.2333  0.4523  0.1313
27842SOL    HW284105   7.776   5.691   5.440 -0.7864 -0.0099 -1.6049
27843SOL     OW84106   7.866   4.084   4.636 -0.2179  0.2018  0.5641
27843SOL    HW184107   7.926   4.084   4.710  2.2071 -1.3295 -1.2596
27843SOL    HW284108   7.839   3.993   4.627 -0.7802  0.4366 -0.2358
27844SOL     OW84109   3.047   2.035   9.269 -0.5578 -0.3089  0.0758
27844SOL    HW184110   2.994   2.100   9.315 -2.0439 -2.5064  1.6777
27844SOL    HW284111   2.986   1.996   9.205 -0.3170 -1.4505  0.5166
27845SOL     OW84112   8.437   8.129   0.021  0.4795 -0.1852  0.2715
27845SOL    HW184113   8.373   8.170   0.079  1.6443 -0.9759  2.2285
27845SOL    HW284114   8.388   8.061  -0.025 -0.2078 -0.4381  1.3501
27846SOL     OW84115   0.613   3.910   6.534  0.3844  0.2155 -0.2358
27846SOL    HW184116   0.532   3.874   6.498 -0.4326  0.3192  1.4483
27846SOL    HW284117   0.682   3.857   6.493 -0.6344 -1.3489 -0.0186
27847SOL     OW84118   8.611   4.044   6.556 -0.3660 -0.1415 -0.0259
27847SOL    HW184119   8.541   4.095   6.598 -0.1098 -0.7539  1.1866
27847SOL    HW284120   8.591   3.953   6.579  1.3571 -0.2522  1.1795
27848SOL     OW84121   5.189   6.461   9.135 -0.3758  0.1496 -0.2303
27848SOL    HW184122   5.197   6.535   9.196 -0.9067 -0.5220  0.6810
27848SOL    HW284123   5.268   6.409   9.151 -0.9755 -0.5360  0.6123
27849SOL     OW84124   9.915   6.416   1.945  0.3715 -0.3080 -0.3902
27849SOL    HW184125   9.947   6.411   2.035 -1.3726  1.2277  0.3683
27849SOL    HW284126   9.821   6.403   1.952  0.3922 -1.9671 -2.2416
27850SOL     OW84127   7.875   4.787   5.306  0.1070 -0.2204 -0.1396
27850SOL    HW184128   7.780   4.786   5.320 -0.2467  3.4593 -1.2053
27850SOL    HW284129   7.911   4.817   5.390  0.6827 -3.5334  0.9516
27851SOL     OW84130   2.725   5.513   5.710  0.6548  0.6967 -0.1308
27851SOL    HW184131   2.802   5.567   5.727  1.9482 -0.9851 -0.3318
27851SOL    HW284132   2.731   5.442   5.775  0.4427 -0.6041 -1.4782
27852SOL     OW84133   1.998   4.481   5.706  0.8639 -0.5123  0.0639
27852SOL    HW184134   2.065   4.422   5.741  0.9767  0.1862  1.0707
27852SOL    HW284135   1.915   4.439   5.727  0.9587 -0.9391 -0.3881
27853SOL     OW84136   2.148   8.397   0.646  0.2170 -0.0200  0.2546
27853SOL    HW184137   2.067   8.438   0.676 -0.3522  0.7150 -2.0890
27853SOL    HW284138   2.123   8.306   0.628 -0.1232  0.2116 -0.4878
27854SOL     OW84139   3.860   5.968   2.082  0.0076 -0.3904  0.0984
27854SOL    HW184140   3.823   6.050   2.048  0.6800 -0.3447 -0.5370
27854SOL    HW284141   3.784   5.911   2.094 -0.4700  0.3072  0.5250
27855SOL     OW84142   5.417   8.736   1.837 -0.1280 -0.0546 -0.1570
27855SOL    HW184143   5.458   8.703   1.757  0.0210  0.4998 -0.3117
27855SOL    HW284144   5.485   8.728   1.904  0.2925  0.9883 -0.4413
27856SOL     OW84145   0.341   2.323   8.958 -0.5112  0.7506  0.3959
27856SOL    HW184146   0.420   2.275   8.983 -1.0703 -0.7259 -0.5710
27856SOL    HW284147   0.372   2.412   8.942  1.3179 -0.1221 -1.5142
27857SOL     OW84148   3.301   9.794   2.196  0.4102  0.0871  0.8295
27857SOL    HW184149   3.353   9.865   2.157  0.4150 -0.1577  0.3810
27857SOL    HW284150   3.215   9.803   2.154  0.1272  0.4092  1.4694
27858SOL     OW84151   9.112   5.133   6.700  0.2347 -0.1021 -0.3823
27858SOL    HW184152   9.035   5.077   6.711 -0.6614  1.2881  1.0155
27858SOL    HW284153   9.086   5.196   6.632  0.5131 -0.2359 -0.6118
27859SOL     OW84154   3.571   3.774   7.264  0.1446  0.0228  0.1921
27859SOL    HW184155   3.524   3.857   7.259  0.2013 -0.0034 -1.0065
27859SOL    HW284156   3.617   3.767   7.181  0.4090 -1.0570  0.4128
27860SOL     OW84157   3.590   9.919   0.403 -0.0607 -0.4164 -0.3986
27860SOL    HW184158   3.554   9.868   0.330  0.1775 -0.6880 -0.3277
27860SOL    HW284159   3.625   9.854   0.463  1.8524 -0.1218 -1.1322
27861SOL     OW84160   4.292   8.172   2.099  0.3217  0.2077  0.1144
27861SOL    HW184161   4.242   8.182   2.180  0.3920  1.2696  0.0407
27861SOL    HW284162   4.241   8.110   2.047 -0.5027  0.6469  0.3707
27862SOL     OW84163   9.378   1.108   1.875 -0.1737  0.0250  0.5699
27862SOL    HW184164   9.402   1.020   1.847  0.7765  0.1367  1.0001
27862SOL    HW284165   9.284   1.113   1.859 -0.3871 -1.3197  1.2292
27863SOL     OW84166   0.841   9.687   8.292 -0.3809 -0.0710  0.2144
27863SOL    HW184167   0.757   9.643   8.302 -0.5049  0.3112  0.8765
27863SOL    HW284168   0.819   9.771   8.252 -0.2396 -0.2346 -0.2127
27864SOL     OW84169   1.471   3.853   8.987 -0.1648  0.1320  0.4250
27864SOL    HW184170   1.399   3.814   9.035 -0.8951  1.3409  0.3485
27864SOL    HW284171   1.490   3.790   8.917 -2.1965  0.4933 -0.5212
27865SOL     OW84172   0.294   5.919   6.428  0.9224  0.2798  0.6294
27865SOL    HW184173   0.271   5.964   6.510 -1.0414 -0.3610  0.4804
27865SOL    HW284174   0.365   5.860   6.453 -0.7719 -1.1705  2.3504
27866SOL     OW84175   9.028   6.959   2.986 -0.1720  0.3563  0.5301
27866SOL    HW184176   9.027   6.933   2.894  0.3864  1.3169  0.2371
27866SOL    HW284177   8.939   6.942   3.017 -0.5252  0.5778 -0.3472
27867SOL     OW84178   2.632   9.484   2.479  0.5105  0.2012 -0.0423
27867SOL    HW184179   2.570   9.437   2.424 -0.9080  0.0085  1.6063
27867SOL    HW284180   2.582   9.559   2.512  1.3094  0.3240  0.9333
27868SOL     OW84181   5.301   9.680   6.358 -0.1087  0.4546 -0.4435
27868SOL    HW184182   5.236   9.683   6.288  0.8175 -0.4576 -1.3721
27868SOL    HW284183   5.292   9.764   6.402 -2.1964  0.2008 -0.2685
27869SOL     OW84184   9.855   7.947   1.620 -0.0508  0.1266  0.0919
27869SOL    HW184185   9.796   7.894   1.674  1.4765 -0.4836  1.2315
27869SOL    HW284186   9.852   7.905   1.534  0.1635 -1.0534  0.6454
27870SOL     OW84187   6.962   3.266   7.505 -0.2902  0.1050  0.2314
27870SOL    HW184188   7.014   3.203   7.454  0.4418  0.8967 -0.0320
27870SOL    HW284189   7.020   3.291   7.577 -0.6253  0.3886  0.4038
27871SOL     OW84190   6.742   9.545   1.580 -0.3897  0.1735  0.0121
27871SOL    HW184191   6.659   9.521   1.622 -0.1811  1.6710  1.3344
27871SOL    HW284192   6.718   9.564   1.489 -1.2324 -0.7915  0.0063
27872SOL     OW84193   9.796   8.598   3.678  0.7735 -0.1542  0.1036
27872SOL    HW184194   9.851   8.549   3.618 -0.7667 -1.0565 -0.6211
27872SOL    HW284195   9.841   8.682   3.688  1.8688 -0.5725 -1.0490
27873SOL     OW84196   5.072   5.991   7.113  0.1329  0.3247 -0.3712
27873SOL    HW184197   5.156   5.959   7.080 -0.5584 -0.8202 -1.0824
27873SOL    HW284198   5.064   6.079   7.077  1.8088  1.1877  1.1439
27874SOL     OW84199   6.213   3.425   6.329 -0.0888  0.5264 -0.2524
27874SOL    HW184200   6.242   3.472   6.251 -0.6562  0.6155 -0.4144
27874SOL    HW284201   6.214   3.333   6.304 -0.8494  0.5979 -0.5630
27875SOL     OW84202   6.352   4.037   4.095 -0.8038  0.7802  0.2323
27875SOL    HW184203   6.395   4.107   4.046 -0.6021 -0.0307 -0.7845
27875SOL    HW284204   6.259   4.045   4.074 -0.5838 -0.3251 -1.3322
27876SOL     OW84205   9.702   8.867   6.936 -0.1800  0.2745  0.0717
27876SOL    HW184206   9.679   8.855   7.028  1.3548  0.5543  0.5277
27876SOL    HW284207   9.618   8.877   6.891 -0.9588  0.0880  1.4283
27877SOL     OW84208   5.347   9.766   1.535  0.1360  0.0722  0.0729
27877SOL    HW184209   5.281   9.830   1.562 -1.1703 -1.6801  1.3118
27877SOL    HW284210   5.297   9.685   1.523  1.7620 -0.8110 -1.1819
27878SOL     OW84211   1.174   5.273   4.066  0.3262 -0.0782 -0.1368
27878SOL    HW184212   1.185   5.272   3.971 -1.1517  0.5386 -0.3446
27878SOL    HW284213   1.201   5.362   4.092 -0.4151  0.1553 -0.1486
27879SOL     OW84214   9.861   1.095   9.076  0.4031 -0.2133 -0.2513
27879SOL    HW184215   9.909   1.060   9.002  1.0987 -0.8108  0.4660
27879SOL    HW284216   9.830   1.018   9.124 -3.4287  0.0291 -1.9487
27880SOL     OW84217   2.744   6.068   5.637  0.5267 -0.5651 -0.5642
27880SOL    HW184218   2.746   6.005   5.709  0.0316 -0.0665 -0.1073
27880SOL    HW284219   2.789   6.145   5.671  0.8281 -0.5488 -1.0000
27881SOL     OW84220   3.570   6.849   4.112 -0.0200 -0.1341 -0.7131
27881SOL    HW184221   3.547   6.880   4.200  0.4204  0.0401 -0.6583
27881SOL    HW284222   3.611   6.764   4.126  2.3143  0.9498 -0.5102
27882SOL     OW84223   6.537   3.680   5.396 -0.5593 -0.2217 -1.1651
27882SOL    HW184224   6.590   3.725   5.330  0.6268 -0.9618 -0.7640
27882SOL    HW284225   6.591   3.605   5.422 -0.6790  0.4187  1.1394
27883SOL     OW84226   5.121   0.870   8.502 -0.0464  0.1573 -0.6463
27883SOL    HW184227   5.103   0.926   8.577  1.2107 -0.5942  0.2512
27883SOL    HW284228   5.214   0.882   8.485 -0.2684  0.1832 -2.0108
27884SOL     OW84229   9.197   3.364   3.820 -0.1674  0.2595 -0.2825
27884SOL    HW184230   9.271   3.304   3.823 -0.8009 -0.5139  0.2390
27884SOL    HW284231   9.181   3.388   3.911  0.3354  1.5653 -0.5122
27885SOL     OW84232   2.601   8.631   0.592  0.2252  0.2773  0.2840
27885SOL    HW184233   2.648   8.620   0.509 -0.2772  1.1022 -0.1203
27885SOL    HW284234   2.640   8.709   0.631 -2.5387  2.6589 -1.3304
27886SOL     OW84235   0.276   9.464   2.659  0.0089 -0.0542 -0.1343
27886SOL    HW184236   0.197   9.439   2.706  0.3993 -2.5165 -0.6263
27886SOL    HW284237   0.347   9.441   2.719  0.3964  0.4669 -0.3907
27887SOL     OW84238   4.179   4.014   9.010  0.2276 -0.5750  0.3856
27887SOL    HW184239   4.101   4.061   8.983  0.5320 -0.9257 -1.1782
27887SOL    HW284240   4.249   4.050   8.955  1.4651  0.5953  2.5582
27888SOL     OW84241   1.031   7.504   0.226  0.5246 -0.3173  0.2221
27888SOL    HW184242   1.108   7.468   0.270 -0.0454  0.7677  2.2263
27888SOL    HW284243   1.063   7.581   0.179  0.8919 -0.7032 -0.1704
27889SOL     OW84244   6.838   0.620   3.010  0.5614  0.2345  0.2329
27889SOL    HW184245   6.821   0.539   2.960  0.7880 -1.4198  2.6724
27889SOL    HW284246   6.924   0.649   2.980  1.1771 -1.3270  0.4038
27890SOL     OW84247   4.712   7.949   4.896  0.0614 -0.0996 -0.4870
27890SOL    HW184248   4.660   7.908   4.827 -0.5939 -0.4837  0.2213
27890SOL    HW284249   4.803   7.931   4.870 -0.1914 -2.1105 -0.1606
27891SOL     OW84250   5.873   2.064   2.149 -0.4147  0.2431  0.4026
27891SOL    HW184251   5.855   2.097   2.237  0.7104  0.6608  0.4911
27891SOL    HW284252   5.951   2.112   2.121  0.6815 -1.6027  0.1389
27892SOL     OW84253   0.055   8.935   1.887 -0.0125  0.4131 -0.4946
27892SOL    HW184254   0.111   8.922   1.963 -0.3952  0.1962 -0.2479
27892SOL    HW284255   0.065   9.028   1.865 -2.1628  1.2370  1.6284
27893SOL     OW84256   7.763   0.053   2.227 -0.0539 -0.2550  0.0721
27893SOL    HW184257   7.771   0.148   2.229  0.1747 -0.2572  2.4092
27893SOL    HW284258   7.778   0.029   2.136  1.4863  1.8126 -0.2811
27894SOL     OW84259   3.181   9.026   4.001  0.1487  0.2005 -0.3533
27894SOL    HW184260   3.109   9.085   3.977  0.5728  0.9792  0.2336
27894SOL    HW284261   3.244   9.083   4.045  1.7356 -0.1872 -2.0001
27895SOL     OW84262   8.907   1.663   4.453  0.0847 -0.0868  0.6060
27895SOL    HW184263   8.895   1.756   4.435 -0.8272 -0.4599 -0.9088
27895SOL    HW284264   9.001   1.649   4.449  0.0962  0.2858 -2.0512
27896SOL     OW84265   9.457   0.174   8.847 -0.2596  0.1259  0.1522
27896SOL    HW184266   9.413   0.090   8.861  0.6135 -0.4178 -0.2111
27896SOL    HW284267   9.387   0.234   8.822 -0.6361 -1.0910 -1.9720
27897SOL     OW84268   8.437   6.124   4.951  0.0215 -0.4153  0.2577
27897SOL    HW184269   8.504   6.184   4.920 -0.5204  0.2760  0.3973
27897SOL    HW284270   8.485   6.056   4.998  0.6310 -0.0248  0.2095
27898SOL     OW84271   3.528   4.687   7.052 -0.2538  0.6919 -0.0594
27898SOL    HW184272   3.574   4.726   7.127  2.1248  0.8047 -1.4982
27898SOL    HW284273   3.466   4.755   7.025  1.5741  2.2733 -0.5219
27899SOL     OW84274   1.875   4.506   0.516 -0.0467  0.2930 -0.3472
27899SOL    HW184275   1.928   4.458   0.453 -1.0315 -0.0848 -0.9047
27899SOL    HW284276   1.924   4.587   0.531  0.5472  0.0784 -1.0523
27900SOL     OW84277   9.521   2.314   9.689 -0.2414 -0.0546 -0.0846
27900SOL    HW184278   9.448   2.376   9.687 -0.5640 -0.4325 -2.1038
27900SOL    HW284279   9.580   2.344   9.620  0.2130 -1.2483 -0.2471
27901SOL     OW84280   2.748   4.011   2.385  0.0981  0.2420  0.2922
27901SOL    HW184281   2.766   4.105   2.383  0.3528  0.2591  1.9854
27901SOL    HW284282   2.834   3.969   2.377  0.0539  0.1601  0.2347
27902SOL     OW84283   6.929   8.481   0.496  0.0998  0.3952 -0.1050
27902SOL    HW184284   6.838   8.499   0.474  0.4136  0.8925 -1.0836
27902SOL    HW284285   6.975   8.563   0.478  1.0422 -0.3896 -1.4833
27903SOL     OW84286   1.302   9.516   9.292 -0.8763  0.4934 -0.0467
27903SOL    HW184287   1.264   9.480   9.372 -2.1473 -0.7904 -1.1826
27903SOL    HW284288   1.288   9.449   9.225  2.2648  0.5113 -0.8681
27904SOL     OW84289   2.832   8.880   1.498  0.4648 -0.2320  0.1753
27904SOL    HW184290   2.883   8.833   1.564 -0.3613  0.7224  1.5341
27904SOL    HW284291   2.747   8.837   1.499  0.8472 -1.1305 -1.3318
27905SOL     OW84292   0.369   5.490   0.972  0.0795 -0.2895 -0.3672
27905SOL    HW184293   0.442   5.520   1.025 -0.3689  0.3917 -0.1193
27905SOL    HW284294   0.396   5.404   0.940  0.7560 -0.2822  0.1639
27906SOL     OW84295   5.568   7.490   3.478  0.2427  0.1300 -0.0478
27906SOL    HW184296   5.499   7.425   3.493  0.4669  0.2477  1.6420
27906SOL    HW284297   5.647   7.450   3.513  0.5840  0.9135  0.0946
27907SOL     OW84298   2.348   1.948   6.506  0.3889  0.0417  0.1284
27907SOL    HW184299   2.349   1.911   6.595  2.1401 -0.0943  0.0780
27907SOL    HW284300   2.320   1.875   6.451  0.5555 -0.2398  0.4112
27908SOL     OW84301   1.268   4.589   8.388  0.3597 -0.0747 -1.1888
27908SOL    HW184302   1.232   4.539   8.461 -0.5208 -0.9767 -2.2201
27908SOL    HW284303   1.220   4.558   8.311 -0.1240  2.2299 -1.8991
27909SOL     OW84304   5.964   9.886   8.673  0.5735 -0.0606 -0.3907
27909SOL    HW184305   5.958   9.916   8.764  0.2948 -1.1590 -0.0278
27909SOL    HW284306   5.885   9.921   8.632 -0.0709 -0.7808  0.1884
27910SOL     OW84307   7.357   0.605   7.515 -0.2217 -0.3373 -0.0090
27910SOL    HW184308   7.333   0.620   7.607 -1.0037  0.4823 -0.3284
27910SOL    HW284309   7.350   0.510   7.504 -0.2954 -0.4278  0.7309
27911SOL     OW84310   8.920   0.069   2.496 -0.5035 -0.3735 -0.0160
27911SOL    HW184311   9.014   0.077   2.514 -0.7102  1.7088  0.3816
27911SOL    HW284312   8.914  -0.001   2.431  1.1727 -1.4954  0.9599
27912SOL     OW84313   8.436   7.282   6.480 -0.3551  0.5911 -0.3477
27912SOL    HW184314   8.451   7.302   6.388 -0.2157  0.3791 -0.3705
27912SOL    HW284315   8.494   7.209   6.499  1.2433  1.9940  0.4699
27913SOL     OW84316   5.306   1.718   7.718 -0.4356 -0.1414 -0.1935
27913SOL    HW184317   5.382   1.761   7.679 -0.5622  0.7391  0.4932
27913SOL    HW284318   5.276   1.779   7.785  0.7059 -2.2495  2.4250
27914SOL     OW84319   5.826   2.002   2.884  0.1698 -0.4897  0.2136
27914SOL    HW184320   5.748   1.966   2.926  0.1299 -1.6244 -0.7824
27914SOL    HW284321   5.819   2.097   2.897 -0.9531 -0.6461  0.8287
27915SOL     OW84322   5.262   3.330   6.939 -0.1554 -0.8307  0.1164
27915SOL    HW184323   5.322   3.353   6.868  1.2445 -2.6665  0.6460
27915SOL    HW284324   5.267   3.403   7.000 -0.5345  0.2584 -1.1076
27916SOL     OW84325   1.719   2.159   4.226 -0.4600  0.5042  0.3481
27916SOL    HW184326   1.709   2.245   4.187  2.1226 -0.1449 -2.0726
27916SOL    HW284327   1.668   2.100   4.171  0.0346  0.1084  0.3018
27917SOL     OW84328   9.416   4.375   3.996  0.1406  0.3452  0.0043
27917SOL    HW184329   9.475   4.361   4.069 -0.2236 -0.4219  0.1639
27917SOL    HW284330   9.348   4.434   4.030  0.1088  0.1914  0.2044
27918SOL     OW84331   4.734   4.345   9.043  0.0416 -0.5324 -0.1684
27918SOL    HW184332   4.716   4.274   9.105  0.4328 -0.7323 -0.2823
27918SOL    HW284333   4.826   4.334   9.020  0.5108  0.8421  0.8871
27919SOL     OW84334   7.073   7.745   8.167 -0.1930 -0.2474 -0.1115
27919SOL    HW184335   7.123   7.781   8.094 -0.6908 -1.5263 -1.1084
27919SOL    HW284336   7.081   7.811   8.236 -1.0608  1.7621 -1.8330
27920SOL     OW84337   3.036   6.355   2.264  0.1467  0.1111  0.2987
27920SOL    HW184338   3.089   6.278   2.284 -2.3939 -1.6011  1.0289
27920SOL    HW284339   2.983   6.368   2.343 -1.3102  0.9650 -0.7775
27921SOL     OW84340   5.771   7.429   6.342  0.5935  0.3922  0.7851
27921SOL    HW184341   5.747   7.505   6.395  0.4629  0.2106  0.9853
27921SOL    HW284342   5.841   7.461   6.286 -0.0615  0.9031  0.2453
27922SOL     OW84343   7.879   3.396   9.266 -0.3840 -0.0551  0.9212
27922SOL    HW184344   7.909   3.308   9.245 -0.6104 -0.2799  1.5194
27922SOL    HW284345   7.809   3.383   9.330 -2.9237  0.3160 -1.5393
27923SOL     OW84346   0.612   9.426   8.799 -0.8778 -0.2729 -0.4415
27923SOL    HW184347   0.681   9.374   8.757 -1.2269 -0.0707 -1.2871
27923SOL    HW284348   0.530   9.384   8.771 -1.1220 -0.1182  0.0278
27924SOL     OW84349   7.396   7.723   8.296  0.0119 -0.2469  0.4193
27924SOL    HW184350   7.415   7.631   8.316  2.1031  0.0813  0.2498
27924SOL    HW284351   7.471   7.770   8.333 -0.6989  1.3266 -0.0909
27925SOL     OW84352   8.668   7.677   5.782 -0.1895 -0.0851 -0.1460
27925SOL    HW184353   8.621   7.612   5.729  1.9611 -0.7395 -1.3605
27925SOL    HW284354   8.673   7.754   5.726  0.5335 -0.1700 -0.2051
27926SOL     OW84355   7.245   3.702   4.741 -0.0094  1.0589 -0.3756
27926SOL    HW184356   7.252   3.789   4.702  3.2314  0.5771 -1.1721
27926SOL    HW284357   7.284   3.644   4.676 -0.8383 -0.8031  0.7267
27927SOL     OW84358   8.980   2.037   4.673 -0.8174 -1.1276 -0.1943
27927SOL    HW184359   9.052   2.094   4.699  0.2350 -2.6202  0.3262
27927SOL    HW284360   8.922   2.036   4.748 -0.5058 -1.2353  0.0481
27928SOL     OW84361   1.626   7.169   8.137 -0.4701  0.1999 -0.7438
27928SOL    HW184362   1.608   7.176   8.043  0.2729 -0.2757 -0.9315
27928SOL    HW284363   1.602   7.079   8.159 -1.8971  0.6957 -0.1800
27929SOL     OW84364   9.750   3.582   5.371 -0.5672 -0.1157 -0.0086
27929SOL    HW184365   9.691   3.517   5.409 -1.2731 -0.6679 -1.9346
27929SOL    HW284366   9.837   3.553   5.397 -0.8948 -1.7135 -0.5860
27930SOL     OW84367   9.435   7.303   1.664 -0.0735 -0.1646  0.0432
27930SOL    HW184368   9.356   7.333   1.709 -0.8699 -0.1884 -1.2941
27930SOL    HW284369   9.436   7.208   1.678 -0.9837 -0.3427 -0.9617
27931SOL     OW84370   0.758   1.516   8.957  0.2517 -0.4619 -0.1230
27931SOL    HW184371   0.754   1.612   8.950 -4.1122 -0.3885  0.6415
27931SOL    HW284372   0.796   1.500   9.043 -1.3961  0.7600  0.8941
27932SOL     OW84373   4.466   7.547   4.718  1.0082  0.4156  0.2436
27932SOL    HW184374   4.400   7.538   4.649  0.3085 -0.8801  1.0396
27932SOL    HW284375   4.449   7.631   4.758 -0.7932 -0.2904  1.0440
27933SOL     OW84376   9.468   7.776   7.607  0.4768 -0.4430  0.1664
27933SOL    HW184377   9.500   7.698   7.652 -1.0500 -1.6630 -0.7944
27933SOL    HW284378   9.381   7.791   7.643 -0.1265 -0.4962 -1.2252
27934SOL     OW84379   5.105   2.820   3.453 -0.0894 -0.3774  0.2128
27934SOL    HW184380   5.151   2.875   3.390  0.3733  0.7743  1.5193
27934SOL    HW284381   5.030   2.872   3.480 -1.5860 -1.7633 -1.0101
27935SOL     OW84382   7.531   9.074   5.359 -0.0696  0.8233  0.1252
27935SOL    HW184383   7.583   9.151   5.383  0.7123  0.9003 -1.6496
27935SOL    HW284384   7.445   9.090   5.399  0.7241  1.5398  1.6277
27936SOL     OW84385   8.753   4.841   8.913  0.3143 -0.1150  0.2239
27936SOL    HW184386   8.801   4.824   8.832  0.2789  0.5452  0.0561
27936SOL    HW284387   8.755   4.758   8.960 -0.1648 -0.6809 -0.7169
27937SOL     OW84388   1.504   7.113   3.006 -0.2834 -0.2536  0.3658
27937SOL    HW184389   1.586   7.075   3.037 -0.7421  0.1836  2.2991
27937SOL    HW284390   1.495   7.194   3.057 -0.6121  1.1107 -1.7598
27938SOL     OW84391   3.958   7.296   5.432  0.0283 -0.1887 -0.0649
27938SOL    HW184392   3.901   7.221   5.416  0.0464 -0.1000 -0.5953
27938SOL    HW284393   3.999   7.279   5.517  0.0094 -0.7610 -0.1676
27939SOL     OW84394   5.537   7.593   4.732  0.0990  0.1817 -0.1657
27939SOL    HW184395   5.447   7.614   4.757  0.5959  0.8601  1.1599
27939SOL    HW284396   5.529   7.515   4.677 -1.2769  0.0716  0.1482
27940SOL     OW84397   2.677   5.991   8.300  1.0330 -0.5193  0.6354
27940SOL    HW184398   2.587   5.964   8.317  0.7524 -0.7350 -1.0396
27940SOL    HW284399   2.711   6.016   8.386 -0.0828 -2.0108  1.5679
27941SOL     OW84400   3.001   4.883   2.377 -0.0110 -0.4556 -0.2502
27941SOL    HW184401   3.042   4.969   2.370 -0.1308 -0.3945 -0.1891
27941SOL    HW284402   3.065   4.831   2.426 -0.2056 -0.2296  0.2581
27942SOL     OW84403   4.719   0.641   4.271  0.4520 -0.1585  0.3977
27942SOL    HW184404   4.628   0.638   4.301  0.6714 -0.9402  1.0063
27942SOL    HW284405   4.713   0.641   4.176 -0.1499 -2.1812  0.3973
27943SOL     OW84406   9.173   4.943   2.187  0.2473  0.1222 -0.0271
27943SOL    HW184407   9.195   4.892   2.110 -0.1830  1.7729 -1.2884
27943SOL    HW284408   9.234   4.912   2.255  0.5838 -1.3904 -0.9891
27944SOL     OW84409   2.809   5.817   5.840  0.4447  0.2295 -0.2725
27944SOL    HW184410   2.830   5.763   5.916  0.7752  1.3003  0.4206
27944SOL    HW284411   2.894   5.846   5.807  0.2332  1.4388  0.2079
27945SOL     OW84412   2.926   1.690   5.406 -0.4461  0.4583 -0.1140
27945SOL    HW184413   2.996   1.719   5.348 -0.7786  1.5397  0.0019
27945SOL    HW284414   2.952   1.602   5.433 -0.3123 -0.0867 -1.9132
27946SOL     OW84415   3.452   5.562   9.048  0.6102  0.3932 -0.0239
27946SOL    HW184416   3.489   5.647   9.074  1.4322  0.1945 -0.4886
27946SOL    HW284417   3.428   5.575   8.956 -1.1611  0.7321  0.4566
27947SOL     OW84418   6.894   4.051   9.065 -0.7410 -0.1138  0.4288
27947SOL    HW184419   6.975   4.001   9.064  0.4681  1.7306  0.9404
27947SOL    HW284420   6.893   4.094   9.151 -1.5167  1.0286 -0.1210
27948SOL     OW84421   0.286   9.592   6.900 -0.1797 -0.2779 -0.4350
27948SOL    HW184422   0.316   9.679   6.875  1.1242 -0.7919 -0.7803
27948SOL    HW284423   0.238   9.606   6.982  0.3154  0.7313 -0.2962
27949SOL     OW84424   4.255   5.813   1.179  0.3138  0.2802 -0.2398
27949SOL    HW184425   4.213   5.876   1.121  0.4859  0.2823 -0.3653
27949SOL    HW284426   4.318   5.767   1.123  1.6741  1.4188  0.2966
27950SOL     OW84427   4.781   5.267   8.230 -0.5159 -0.7277  0.1571
27950SOL    HW184428   4.840   5.198   8.200 -1.0399 -1.6496  1.1571
27950SOL    HW284429   4.701   5.220   8.255 -1.6244  0.4706 -1.0042
27951SOL     OW84430   1.030   5.126   8.766 -0.0895  0.3528 -0.2735
27951SOL    HW184431   1.079   5.044   8.756  1.5894  0.9159  2.4106
27951SOL    HW284432   0.939   5.099   8.777  0.0739 -0.9592 -1.7729
27952SOL     OW84433   8.600   9.574   3.087  0.3991  0.4754 -0.0167
27952SOL    HW184434   8.646   9.500   3.125  2.4483  1.8339  0.3071
27952SOL    HW284435   8.589   9.550   2.995  0.2790 -0.5678  0.2594
27953SOL     OW84436   8.921   3.244   5.495  0.2131 -0.7439 -0.0747
27953SOL    HW184437   8.954   3.333   5.489  1.7228 -1.3359 -1.6364
27953SOL    HW284438   8.833   3.247   5.456 -0.2308  0.2402  0.9674
27954SOL     OW84439   8.527   8.594   8.129  0.6805 -0.8587 -0.4457
27954SOL    HW184440   8.518   8.590   8.225 -1.1294 -2.3542 -0.6191
27954SOL    HW284441   8.509   8.686   8.108  1.8686 -0.3263  0.6683
27955SOL     OW84442   1.690   5.024   1.764 -0.5205  0.5301  0.4388
27955SOL    HW184443   1.711   5.019   1.670 -2.0006 -0.4400  0.1217
27955SOL    HW284444   1.678   5.117   1.781 -1.2524  0.6451 -0.5956
27956SOL     OW84445   5.663   7.913   6.664  0.0098  0.3544  0.3058
27956SOL    HW184446   5.617   7.829   6.656 -0.7713  0.7837  0.2123
27956SOL    HW284447   5.742   7.902   6.610  0.3334 -0.5934  0.9442
27957SOL     OW84448   0.807   2.324   8.839  0.1887  0.1431 -0.0137
27957SOL    HW184449   0.800   2.229   8.835  2.1451 -0.0650  0.4804
27957SOL    HW284450   0.719   2.355   8.816 -0.2628 -1.7396 -1.1050
27958SOL     OW84451   4.649   3.888   1.585 -1.0107  0.0805  0.0923
27958SOL    HW184452   4.712   3.836   1.635 -0.9204  2.4325  2.6932
27958SOL    HW284453   4.685   3.977   1.587 -2.3598  0.7509 -2.0559
27959SOL     OW84454   3.173   6.285   3.963  0.0225 -0.1378 -0.0339
27959SOL    HW184455   3.127   6.233   4.030  0.1545 -0.2200 -0.0077
27959SOL    HW284456   3.123   6.271   3.883 -0.6865  0.6893  0.2358
27960SOL     OW84457   2.865   1.266   7.399  0.0437 -0.1937  0.1755
27960SOL    HW184458   2.777   1.239   7.373 -0.0192 -1.5022  1.5669
27960SOL    HW284459   2.904   1.187   7.437  0.4687  1.2462  3.0163
27961SOL     OW84460   1.661   3.835   5.625  0.6394 -0.3659  0.3450
27961SOL    HW184461   1.655   3.827   5.721  0.6897  1.3993  0.5402
27961SOL    HW284462   1.753   3.820   5.606  1.1175  1.5083  0.8963
27962SOL     OW84463   0.737   1.262   7.999 -0.0300  0.9048  0.0582
27962SOL    HW184464   0.811   1.316   7.972  0.5477  0.2424  0.3068
27962SOL    HW284465   0.660   1.314   7.975  0.4616  0.7719 -1.9731
27963SOL     OW84466   0.724   0.965   2.308  0.2077 -0.2015 -0.0631
27963SOL    HW184467   0.696   1.042   2.259 -0.7109  0.1965  1.0398
27963SOL    HW284468   0.796   0.928   2.257  1.4544  2.0364 -0.0345
27964SOL     OW84469   4.291   9.014   9.672  0.5053 -0.1326 -0.3008
27964SOL    HW184470   4.359   9.066   9.713  1.3610 -0.1828 -1.5962
27964SOL    HW284471   4.229   8.994   9.742  1.8727 -0.1821  0.9160
27965SOL     OW84472   3.586   7.651   8.957 -0.1962  0.2171  0.4725
27965SOL    HW184473   3.627   7.721   8.906  0.6248 -0.2836  0.4284
27965SOL    HW284474   3.619   7.663   9.046  1.5359 -1.2709  0.0822
27966SOL     OW84475   7.708   9.734   7.956  0.0076 -0.3179  0.7335
27966SOL    HW184476   7.716   9.640   7.938 -2.0968 -0.4023  0.0028
27966SOL    HW284477   7.794   9.770   7.932  0.0084 -1.6705 -1.6678
27967SOL     OW84478   5.721   3.038   4.839  0.2792 -0.7732  0.5393
27967SOL    HW184479   5.685   2.970   4.783  0.7552 -0.3856 -0.2549
27967SOL    HW284480   5.685   3.020   4.926  0.5240 -2.1236  0.3714
27968SOL     OW84481   8.272   7.605   9.804  0.0378  0.8951 -0.0147
27968SOL    HW184482   8.292   7.539   9.737  1.9513 -0.5502  1.8228
27968SOL    HW284483   8.303   7.687   9.767  0.1064  0.3107 -1.3177
27969SOL     OW84484   1.927   8.991   4.994  0.5769  0.5055  0.4991
27969SOL    HW184485   1.948   9.066   5.051  2.8041 -0.7715  1.4862
27969SOL    HW284486   1.996   8.991   4.928  0.0512 -0.1302 -0.0616
27970SOL     OW84487   5.869   2.094   1.822 -0.0338 -0.3822  0.2350
27970SOL    HW184488   5.920   2.042   1.759  2.6350  1.1361  1.0039
27970SOL    HW284489   5.871   2.043   1.903 -1.0712 -1.0144 -0.1165
27971SOL     OW84490   1.146   3.462   7.645 -0.4305  0.3141 -0.1835
27971SOL    HW184491   1.158   3.378   7.687 -1.7434  0.1773 -0.0484
27971SOL    HW284492   1.229   3.479   7.600 -0.3454 -1.3010 -0.6729
27972SOL     OW84493   5.351   8.502   0.822 -0.3027 -0.0207 -0.6010
27972SOL    HW184494   5.316   8.420   0.787 -2.0218 -0.0636  1.0861
27972SOL    HW284495   5.286   8.568   0.798 -0.8013  0.1930  1.1933
27973SOL     OW84496   2.597   3.374   7.868 -0.0348 -0.0621 -0.1036
27973SOL    HW184497   2.656   3.307   7.835  0.3542  0.0395  0.3733
27973SOL    HW284498   2.562   3.338   7.949 -0.9311 -0.2824 -0.5776
27974SOL     OW84499   8.485   5.671   2.505 -0.1528  0.2702 -0.0537
27974SOL    HW184500   8.490   5.694   2.412  1.2052  0.9109  0.1543
27974SOL    HW284501   8.497   5.576   2.506 -0.6316  0.2014 -0.5641
27975SOL     OW84502   0.966   0.680   0.504  0.1379 -0.5345  0.1536
27975SOL    HW184503   0.971   0.729   0.422 -1.1974 -0.2527  0.2078
27975SOL    HW284504   1.033   0.613   0.496  0.3353 -0.2272 -0.9740
27976SOL     OW84505   6.966   1.344   4.101 -0.2109 -0.0672  0.0002
27976SOL    HW184506   6.962   1.408   4.172  0.4081  0.0255 -0.0428
27976SOL    HW284507   6.988   1.396   4.023 -1.3355 -0.0953 -0.3701
27977SOL     OW84508   0.570   3.106   3.522 -0.4051 -0.3475 -0.4153
27977SOL    HW184509   0.657   3.085   3.556 -0.9661 -0.5605  0.9738
27977SOL    HW284510   0.586   3.161   3.445  0.9423  0.1009  0.1676
27978SOL     OW84511   0.546   6.652   1.134 -0.0903 -0.1233 -0.0454
27978SOL    HW184512   0.555   6.711   1.059  1.4878 -0.5446 -0.2309
27978SOL    HW284513   0.460   6.612   1.123 -0.1032  0.2109 -1.3466
27979SOL     OW84514   1.793   6.094   4.908 -0.0104 -0.3890 -0.1611
27979SOL    HW184515   1.846   6.096   4.829  1.9911 -0.2592  1.1175
27979SOL    HW284516   1.823   6.169   4.959  0.1953 -1.6171  1.6001
27980SOL     OW84517   9.282   9.259   0.379  0.4220  0.0890 -0.1721
27980SOL    HW184518   9.296   9.260   0.474 -0.3952 -2.1355  0.0325
27980SOL    HW284519   9.278   9.351   0.354  2.8971  0.7691  1.5913
27981SOL     OW84520   3.851   2.349   3.769  0.0873  0.1869  0.6963
27981SOL    HW184521   3.839   2.313   3.682  0.3171  0.0771  0.7106
27981SOL    HW284522   3.940   2.324   3.794  0.1569  0.5410  0.8094
27982SOL     OW84523   9.162   8.175   8.838  0.5784 -0.4297 -0.2898
27982SOL    HW184524   9.121   8.121   8.905 -1.1911  0.4899 -0.5506
27982SOL    HW284525   9.096   8.242   8.819  2.0409  0.8195 -1.1449
27983SOL     OW84526   2.943   6.230   4.639 -0.2027 -0.8719 -0.2404
27983SOL    HW184527   2.951   6.261   4.549  0.5201 -2.3987 -0.7347
27983SOL    HW284528   2.850   6.209   4.649 -0.4604  0.2050 -0.3045
27984SOL     OW84529   9.248   1.459   3.501 -0.6612 -0.3417 -0.2306
27984SOL    HW184530   9.288   1.476   3.416 -0.3352  0.0041 -0.0087
27984SOL    HW284531   9.267   1.537   3.553 -1.8270 -0.0633 -0.1934
27985SOL     OW84532   9.406   6.424   0.058  0.3215 -0.2990 -0.0384
27985SOL    HW184533   9.410   6.469  -0.027  0.2796 -0.0849  0.0723
27985SOL    HW284534   9.354   6.482   0.113  0.6432 -0.2690  0.2348
27986SOL     OW84535   8.351   4.152   0.608  0.6461 -0.3812 -0.6780
27986SOL    HW184536   8.380   4.238   0.638  0.7268 -0.0403 -1.7091
27986SOL    HW284537   8.415   4.128   0.540 -0.8924 -0.0419 -2.3179
27987SOL     OW84538   5.216   1.787   4.331 -0.0625 -0.3219 -1.0278
27987SOL    HW184539   5.279   1.744   4.273  1.2367  0.6123 -0.3634
27987SOL    HW284540   5.159   1.836   4.272  0.4412 -0.4085 -1.5985
27988SOL     OW84541   6.603   8.449   0.035 -0.6508  0.1732  0.4730
27988SOL    HW184542   6.585   8.538   0.065  0.2479  0.1289  1.1831
27988SOL    HW284543   6.552   8.393   0.094  1.9111  0.0224  2.7637
27989SOL     OW84544   1.107   4.203   3.548  0.6773 -0.0889 -0.4238
27989SOL    HW184545   1.159   4.217   3.628  0.0542  1.3145 -0.2264
27989SOL    HW284546   1.167   4.224   3.477  0.7194  0.4270 -0.2417
27990SOL     OW84547   8.186   2.165   0.546 -0.3041  0.0279  0.0809
27990SOL    HW184548   8.154   2.244   0.590 -1.1470 -0.0327 -0.3902
27990SOL    HW284549   8.127   2.154   0.471 -0.0906 -0.9512  0.0404
27991SOL     OW84550   2.949   5.141   7.445 -0.3811 -0.0465 -0.0271
27991SOL    HW184551   3.044   5.143   7.448 -0.3530 -1.0812  0.2178
27991SOL    HW284552   2.923   5.119   7.534 -0.7766 -1.2765 -0.4217
27992SOL     OW84553   7.179   5.881   4.238 -0.6169  0.2796  0.2245
27992SOL    HW184554   7.121   5.878   4.314 -0.8278  1.2052  0.1138
27992SOL    HW284555   7.182   5.974   4.214 -0.6452 -0.0094 -0.9641
27993SOL     OW84556   2.094   6.215   4.219  0.2496 -0.7581 -0.1044
27993SOL    HW184557   2.083   6.121   4.199  1.5117 -1.3407  1.7517
27993SOL    HW284558   2.179   6.237   4.182  0.0956 -0.4124 -0.2538
27994SOL     OW84559   4.082   8.785   9.982 -0.2629 -0.0429 -0.3317
27994SOL    HW184560   4.038   8.808   9.900  0.9399  0.2812 -0.9101
27994SOL    HW284561   4.017   8.734  10.031 -1.3492  0.6248 -1.0411
27995SOL     OW84562   8.622   7.358   4.433  0.1452 -0.2213  0.8985
27995SOL    HW184563   8.675   7.391   4.360 -0.3678 -1.2345  0.0445
27995SOL    HW284564   8.630   7.263   4.427 -1.4406 -0.3800  0.9893
27996SOL     OW84565   5.841   3.062   2.066  0.2912 -0.5245  0.0253
27996SOL    HW184566   5.752   3.040   2.040 -0.3618  1.8646  0.0164
27996SOL    HW284567   5.891   3.063   1.984  0.3095 -1.5856  0.0006
27997SOL     OW84568   5.528   8.114   0.930 -0.0383  0.4312  0.6010
27997SOL    HW184569   5.465   8.087   0.997  0.8313 -1.4848  0.7140
27997SOL    HW284570   5.555   8.202   0.956 -0.4615  0.1089  2.2154
27998SOL     OW84571   1.509   2.515   7.723 -0.2950 -0.7311  0.2866
27998SOL    HW184572   1.543   2.546   7.807  1.2244 -0.3784 -0.4225
27998SOL    HW284573   1.538   2.424   7.717 -0.2685 -0.7120  0.0939
27999SOL     OW84574   1.688   7.725   1.116  0.4741  0.3601 -0.2820
27999SOL    HW184575   1.734   7.735   1.200  1.1188  0.7403 -0.6736
27999SOL    HW284576   1.633   7.803   1.109  0.4315  0.3352 -0.2223
28000SOL     OW84577   3.447   5.887   0.846 -0.6585  0.2521 -0.4077
28000SOL    HW184578   3.366   5.928   0.815 -0.6708  0.6028  0.0876
28000SOL    HW284579   3.486   5.849   0.767 -2.0037 -1.1474 -0.4536
28001SOL     OW84580   5.713   1.186   8.405  0.1367  0.3033  1.1149
28001SOL    HW184581   5.808   1.181   8.392 -0.0208  0.5094 -0.3144
28001SOL    HW284582   5.686   1.096   8.421  0.2368 -0.2383 -1.3791
28002SOL     OW84583   8.146   0.316   5.175 -0.0565 -0.3346  0.5034
28002SOL    HW184584   8.198   0.302   5.097  1.1023  1.0574  0.9777
28002SOL    HW284585   8.072   0.371   5.145  1.5191  2.0384  0.6935
28003SOL     OW84586   3.260   8.543   8.069 -0.2179  0.8745  0.2322
28003SOL    HW184587   3.320   8.614   8.047 -0.7566  1.6970  1.3108
28003SOL    HW284588   3.262   8.538   8.164  0.9800 -1.6098  0.1632
28004SOL     OW84589   0.151   1.415   6.152  0.1564  0.9369 -0.4290
28004SOL    HW184590   0.181   1.501   6.123 -1.7748  1.9927  0.5056
28004SOL    HW284591   0.191   1.403   6.238  1.3826  0.3237 -1.0586
28005SOL     OW84592   3.195   6.393   3.123 -0.1311 -0.5664  0.2177
28005SOL    HW184593   3.264   6.458   3.137 -1.2965  0.7618  0.0850
28005SOL    HW284594   3.239   6.308   3.127  1.4273  0.2346  0.4826
28006SOL     OW84595   3.221   7.000   9.152 -0.2526 -0.4764 -0.2737
28006SOL    HW184596   3.188   6.926   9.100 -1.3622  0.1672 -0.5294
28006SOL    HW284597   3.234   7.070   9.089  0.2319 -0.2716  0.0500
28007SOL     OW84598   2.548   1.579   7.793  0.5382  0.0105  0.3775
28007SOL    HW184599   2.612   1.540   7.734 -0.8739  0.9032 -1.8579
28007SOL    HW284600   2.592   1.656   7.830  1.3456 -0.4066  0.2887
28008SOL     OW84601   1.542   0.428   8.018  0.0437 -0.2027 -0.0503
28008SOL    HW184602   1.461   0.383   7.994 -0.2240  0.0279  0.4061
28008SOL    HW284603   1.541   0.510   7.969  0.4561 -0.6063 -0.7605
28009SOL     OW84604   4.612   6.656   9.599  0.5844  1.0088  0.3621
28009SOL    HW184605   4.682   6.712   9.632 -1.4023  3.5810  0.5505
28009SOL    HW284606   4.547   6.654   9.670  0.6105 -1.7431  0.4108
28010SOL     OW84607   7.070   3.219   6.623 -0.4186 -0.2536 -0.5052
28010SOL    HW184608   7.010   3.145   6.632 -1.7720  0.8440 -0.1480
28010SOL    HW284609   7.056   3.271   6.702  0.1008  0.6764 -1.0069
28011SOL     OW84610   5.181   9.560   1.439 -0.6790 -0.2554 -0.0566
28011SOL    HW184611   5.147   9.640   1.400  1.1580 -0.2239 -1.7436
28011SOL    HW284612   5.141   9.489   1.388  0.8824 -0.2461 -1.3572
28012SOL     OW84613   1.604   0.562   1.764  0.1638  0.5710 -0.1066
28012SOL    HW184614   1.535   0.581   1.827  1.2651  0.3645  1.2349
28012SOL    HW284615   1.574   0.485   1.717 -0.5571  0.5424  0.3875
28013SOL     OW84616   6.926   7.904   9.991  0.4076  0.4727  0.3363
28013SOL    HW184617   6.894   7.994   9.994  1.6421  0.9278  0.4852
28013SOL    HW284618   6.959   7.893   9.902  1.8121  0.7531  0.7948
28014SOL     OW84619   8.478   1.056   7.181  0.0229  0.3812  0.0872
28014SOL    HW184620   8.440   1.122   7.238  0.4643 -0.3697  1.2883
28014SOL    HW284621   8.471   0.974   7.231  0.3275 -0.3206 -0.9768
28015SOL     OW84622   5.096   0.116   5.949 -0.3346 -0.0575  0.4870
28015SOL    HW184623   5.002   0.115   5.967 -0.5294 -2.9371 -0.1205
28015SOL    HW284624   5.103   0.155   5.862 -0.8283  1.2294  1.0108
28016SOL     OW84625   0.291   8.017   4.529 -0.4156  0.7346  0.5304
28016SOL    HW184626   0.203   7.988   4.554  0.7593 -2.0926  1.7719
28016SOL    HW284627   0.292   8.011   4.433 -0.7706 -2.0212  0.6237
28017SOL     OW84628   2.308   7.493   0.983 -0.3258 -0.1819  0.0187
28017SOL    HW184629   2.221   7.498   1.024  1.0367 -0.2258  3.2321
28017SOL    HW284630   2.334   7.402   0.992  0.4336  0.0219 -0.0321
28018SOL     OW84631   1.824   9.824   9.985 -0.6358 -0.7239 -0.8394
28018SOL    HW184632   1.771   9.767  10.041  0.8199 -1.2607  0.0384
28018SOL    HW284633   1.767   9.843   9.909 -2.4871 -0.3539  0.5612
28019SOL     OW84634   5.385   7.061   2.905 -0.1962 -0.3584  0.3658
28019SOL    HW184635   5.317   7.007   2.946 -0.2520  1.0073  2.2741
28019SOL    HW284636   5.406   7.126   2.973  1.5475  0.5151 -0.9498
28020SOL     OW84637   2.414   0.756   9.618  0.2945  0.3896  0.8533
28020SOL    HW184638   2.480   0.720   9.678  0.9980  2.8617  1.6867
28020SOL    HW284639   2.331   0.724   9.652  0.8545 -0.3563  1.5708
28021SOL     OW84640   7.913   6.615   3.403  0.6603 -0.3421  0.4409
28021SOL    HW184641   7.953   6.529   3.418  0.7002 -0.2192  1.0529
28021SOL    HW284642   7.979   6.665   3.356  0.5695 -0.7031 -0.0786
28022SOL     OW84643   8.127   2.751   1.043 -0.2920 -0.6202  0.1764
28022SOL    HW184644   8.060   2.708   1.098  0.1081 -0.5476  0.7284
28022SOL    HW284645   8.203   2.759   1.101 -0.0387 -0.0633 -0.2354
28023SOL     OW84646   9.784   7.294   3.747  0.3990  0.3364  0.2997
28023SOL    HW184647   9.765   7.346   3.668 -1.5958 -0.5206  0.1395
28023SOL    HW284648   9.710   7.233   3.753  2.0909 -1.7846  1.0645
28024SOL     OW84649   0.953   2.849   5.734 -0.0794  0.1768 -0.0955
28024SOL    HW184650   1.027   2.854   5.794 -0.0800  1.3966 -0.1783
28024SOL    HW284651   0.892   2.788   5.776  0.0842  0.7191  0.9648
28025SOL     OW84652   3.019   2.327   2.099 -0.0484 -0.3342  0.0796
28025SOL    HW184653   3.075   2.381   2.154 -0.2674 -0.7702  0.7483
28025SOL    HW284654   3.079   2.273   2.048  0.1525 -0.3399  0.3219
28026SOL     OW84655   6.775   6.973   7.811 -0.0723 -0.2556 -0.2058
28026SOL    HW184656   6.684   7.002   7.802 -0.2585 -0.8625 -0.3018
28026SOL    HW284657   6.813   7.032   7.876 -0.1739  0.8252 -1.1015
28027SOL     OW84658   6.421   7.889   1.294 -0.0717  0.0440  0.3594
28027SOL    HW184659   6.395   7.941   1.370 -0.6468  1.1860 -0.5895
28027SOL    HW284660   6.339   7.864   1.252  0.2621  0.1930 -0.3900
28028SOL     OW84661   9.960   4.730   8.841 -0.5854  0.2477  0.2759
28028SOL    HW184662   9.946   4.817   8.878 -1.2556  0.6793 -0.9336
28028SOL    HW284663   9.900   4.725   8.767 -0.2419 -1.0862  0.0503
28029SOL     OW84664   8.942   3.876   6.280 -0.2414 -0.4875  0.0444
28029SOL    HW184665   8.880   3.935   6.237  0.7197  0.0967 -0.5503
28029SOL    HW284666   8.951   3.803   6.220  0.2644 -0.1852 -0.2542
28030SOL     OW84667   8.273   3.614   8.462  0.4456 -0.1377 -0.2684
28030SOL    HW184668   8.248   3.607   8.554  1.9441  0.0669  0.1854
28030SOL    HW284669   8.342   3.548   8.451  1.1065  0.6433 -0.9282
28031SOL     OW84670   0.659   5.883   0.509 -0.9672  0.2137 -0.6677
28031SOL    HW184671   0.706   5.827   0.448 -1.2763  0.6962 -1.3594
28031SOL    HW284672   0.723   5.949   0.536 -0.5425 -0.5702  0.3064
28032SOL     OW84673   3.466   0.567   7.817  0.1031 -0.8263 -0.6928
28032SOL    HW184674   3.550   0.596   7.782 -0.1372 -0.5099 -1.0205
28032SOL    HW284675   3.483   0.553   7.910  0.2864  0.1979 -0.5527
28033SOL     OW84676   7.845   8.288   2.908  0.5884  0.0972  0.3389
28033SOL    HW184677   7.766   8.341   2.913 -0.2224 -0.1168 -4.8545
28033SOL    HW284678   7.915   8.349   2.884  0.5806 -0.4575 -1.2444
28034SOL     OW84679   2.077   3.169   2.829 -0.0124  0.1721 -0.3608
28034SOL    HW184680   2.123   3.112   2.768 -0.5756 -0.9908  0.2480
28034SOL    HW284681   2.115   3.147   2.915 -0.1138  0.8453 -0.1413
28035SOL     OW84682   8.265   6.190   1.241  0.3790 -0.3162  0.5715
28035SOL    HW184683   8.229   6.144   1.317  1.8167 -0.8321  0.9765
28035SOL    HW284684   8.198   6.253   1.217  0.2459  0.5194  2.8659
28036SOL     OW84685   2.872   0.009   0.672  0.2791 -0.6560 -0.0067
28036SOL    HW184686   2.877   0.038   0.581 -0.0738  0.2811  0.2608
28036SOL    HW284687   2.830   0.082   0.718  0.4537 -1.1192  0.9048
28037SOL     OW84688   2.359   2.219   4.775  0.5969 -0.1543  0.0518
28037SOL    HW184689   2.419   2.223   4.850  1.0134  0.4689 -0.3101
28037SOL    HW284690   2.352   2.309   4.745 -1.9211  0.1034  1.1572
28038SOL     OW84691   4.413   3.611   0.483  0.1151 -0.1423 -0.2890
28038SOL    HW184692   4.462   3.689   0.511  0.9540  0.0380 -2.1198
28038SOL    HW284693   4.414   3.554   0.560  1.9285  0.5014  0.2334
28039SOL     OW84694   3.025   7.258   6.517  0.5077 -0.3762 -0.1337
28039SOL    HW184695   3.046   7.206   6.595 -1.1574 -2.4240 -0.9699
28039SOL    HW284696   3.106   7.256   6.466  0.8580 -1.0945  0.4200
28040SOL     OW84697   7.116   9.573   2.104 -0.6069  0.4818 -0.4957
28040SOL    HW184698   7.130   9.484   2.137 -0.9502  1.0641  1.3348
28040SOL    HW284699   7.194   9.622   2.132 -0.2591  0.6991 -1.7838
28041SOL     OW84700   6.651   1.847   0.914 -0.1471 -0.6064  0.3308
28041SOL    HW184701   6.681   1.936   0.936 -1.3455 -0.2282  0.5103
28041SOL    HW284702   6.658   1.843   0.819 -1.5673  0.2735  0.1554
28042SOL     OW84703   5.257   1.613   8.204 -0.1098  0.1924 -0.1785
28042SOL    HW184704   5.320   1.621   8.275 -0.4965  2.7654 -0.0366
28042SOL    HW284705   5.177   1.581   8.247 -0.3984  1.9036  0.6578
28043SOL     OW84706   0.762   5.799   8.529 -0.1966  0.4081  0.0308
28043SOL    HW184707   0.703   5.872   8.549 -0.3144 -0.1031  1.6878
28043SOL    HW284708   0.842   5.820   8.578  0.1073 -0.1137 -0.2357
28044SOL     OW84709   9.915   1.412   7.843  0.3005  0.0583 -0.3101
28044SOL    HW184710   9.929   1.420   7.749 -0.3366  0.6675 -0.3682
28044SOL    HW284711   9.840   1.469   7.861  0.3843 -0.0815  0.5590
28045SOL     OW84712   0.138   2.259   0.950  0.6278  0.6409 -0.1026
28045SOL    HW184713   0.188   2.211   0.883  0.5768 -2.0015  1.6313
28045SOL    HW284714   0.203   2.315   0.993  1.1007  0.6932 -0.8619
28046SOL     OW84715   5.116   3.435   5.967 -0.6533 -0.0877  0.3983
28046SOL    HW184716   5.205   3.401   5.972 -0.1915  1.2059  2.5388
28046SOL    HW284717   5.067   3.383   6.031 -1.0412  0.2467  0.3756
28047SOL     OW84718   9.297   9.815   7.073 -0.4977 -0.7532 -0.5758
28047SOL    HW184719   9.377   9.794   7.024  1.2359  0.5920  1.4770
28047SOL    HW284720   9.252   9.879   7.018  2.0971  1.8013  0.0119
28048SOL     OW84721   6.307   2.391   2.592 -0.2448 -0.0622 -0.0696
28048SOL    HW184722   6.347   2.395   2.506 -2.7454 -1.0509 -1.3819
28048SOL    HW284723   6.358   2.452   2.645  1.5152  0.4010 -2.1664
28049SOL     OW84724   4.441   1.804   0.686  0.1692 -0.0020 -0.2586
28049SOL    HW184725   4.382   1.815   0.761  0.0767  1.0870 -0.4792
28049SOL    HW284726   4.478   1.716   0.698 -0.3323 -0.1005  0.7119
28050SOL     OW84727   2.603   7.955   0.479  0.2489 -0.3908  0.0157
28050SOL    HW184728   2.632   7.865   0.495 -0.5916 -0.4458  1.3475
28050SOL    HW284729   2.540   7.947   0.407  0.5981 -0.7741 -0.2593
28051SOL     OW84730   9.457   2.198   7.898  0.2442  0.6198  0.2793
28051SOL    HW184731   9.468   2.125   7.838  0.7384  0.7172  0.2430
28051SOL    HW284732   9.542   2.204   7.943 -0.2467  0.2953  1.2696
28052SOL     OW84733   4.176   2.831   3.104  0.0410  0.3879  0.0319
28052SOL    HW184734   4.103   2.893   3.107 -0.4873 -0.2471  1.4078
28052SOL    HW284735   4.241   2.867   3.163  0.2631  0.2725 -0.1430
28053SOL     OW84736   3.960   4.106   5.623  0.1607 -0.5701  0.0324
28053SOL    HW184737   4.048   4.107   5.662  0.2379 -2.3682  0.0080
28053SOL    HW284738   3.976   4.108   5.528  0.1032  0.5170  0.0365
28054SOL     OW84739   9.539   9.627   8.928 -0.2675  0.0895 -0.2942
28054SOL    HW184740   9.471   9.563   8.949  0.9320 -1.2413 -0.2911
28054SOL    HW284741   9.566   9.661   9.013 -2.8119  2.8013 -0.3895
28055SOL     OW84742   0.358   2.479   3.103 -0.3585 -0.1031 -0.3439
28055SOL    HW184743   0.281   2.536   3.105 -0.5842 -0.4183  0.2256
28055SOL    HW284744   0.353   2.430   3.185  0.6500  0.1290 -0.1353
28056SOL     OW84745   0.997   4.263   8.845 -0.4783  0.3687 -0.2611
28056SOL    HW184746   0.988   4.238   8.753 -1.8385  1.2027 -0.3811
28056SOL    HW284747   0.942   4.201   8.892  0.1824 -0.0290  0.0036
28057SOL     OW84748   7.433   5.879   6.682 -0.0398 -0.6977 -0.3176
28057SOL    HW184749   7.396   5.966   6.695  0.0668 -0.8452  1.1554
28057SOL    HW284750   7.517   5.894   6.639 -0.0885 -0.0784 -0.1943
28058SOL     OW84751   9.954   9.560   2.051 -0.4960 -0.3417  0.3086
28058SOL    HW184752   9.930   9.630   1.989  0.5892  2.1671  2.4924
28058SOL    HW284753   9.941   9.479   2.002  2.1963  1.4212 -3.9617
28059SOL     OW84754   1.871   4.015   7.919 -0.3262  0.6107  0.0937
28059SOL    HW184755   1.926   4.087   7.950  0.1460 -0.4623  1.9416
28059SOL    HW284756   1.782   4.039   7.948 -0.2339  0.6614  0.3410
28060SOL     OW84757   5.128   7.668   7.067 -0.3659 -0.6622 -0.2481
28060SOL    HW184758   5.127   7.591   7.010  0.8098 -0.4737 -0.5630
28060SOL    HW284759   5.117   7.634   7.155  1.7393 -1.4072 -0.2153
28061SOL     OW84760   0.312   9.675   2.478 -0.1853 -0.4964  0.0611
28061SOL    HW184761   0.279   9.604   2.533  0.9201 -0.4130  0.8579
28061SOL    HW284762   0.242   9.740   2.477  0.1096 -0.1082  2.0992
28062SOL     OW84763   4.563   2.568   7.554  0.9854 -0.7478 -0.3227
28062SOL    HW184764   4.565   2.663   7.538  0.9919 -0.6616  0.1726
28062SOL    HW284765   4.617   2.556   7.632  0.3086 -1.0612  0.1054
28063SOL     OW84766   4.306   9.714   8.211  0.2478 -0.1340 -0.1888
28063SOL    HW184767   4.325   9.656   8.138 -1.0086 -1.1867  0.2649
28063SOL    HW284768   4.333   9.664   8.289  4.4879  2.1252  0.0974
28064SOL     OW84769   0.422   5.178   1.756 -0.1729 -0.1846 -0.0228
28064SOL    HW184770   0.432   5.251   1.694  0.5011  0.2674  0.5994
28064SOL    HW284771   0.391   5.220   1.837 -3.0572 -1.0013 -0.5816
28065SOL     OW84772   5.729   8.572   5.890  0.6414  0.1789 -0.3287
28065SOL    HW184773   5.739   8.543   5.799 -0.1273 -0.2951 -0.2707
28065SOL    HW284774   5.757   8.497   5.943 -0.0908 -0.0093 -0.1840
28066SOL     OW84775   3.691   0.123   7.842 -0.4341 -0.1294  0.0875
28066SOL    HW184776   3.647   0.038   7.832 -1.0524  0.2229 -0.2920
28066SOL    HW284777   3.627   0.186   7.809 -0.0847  0.5100  0.6242
28067SOL     OW84778   8.029   3.138   2.793  0.0533 -0.0176  0.4909
28067SOL    HW184779   7.978   3.059   2.774  1.5522 -0.4832 -2.0927
28067SOL    HW284780   8.118   3.106   2.810  0.1326  0.9673  2.1549
28068SOL     OW84781   9.294   9.332   4.697  0.2165  0.0218  0.1128
28068SOL    HW184782   9.225   9.268   4.717  1.5351 -1.2958  0.5972
28068SOL    HW284783   9.248   9.404   4.654 -1.4628 -0.8125  0.4369
28069SOL     OW84784   4.742   2.739   2.854  0.2421  0.3841 -0.3428
28069SOL    HW184785   4.821   2.690   2.875 -0.0783 -0.7529 -1.6514
28069SOL    HW284786   4.771   2.808   2.795  0.3213  0.1860 -0.5378
28070SOL     OW84787   3.268   2.373   3.114 -0.6822  0.1482 -0.2041
28070SOL    HW184788   3.199   2.385   3.179 -0.3617  0.7197  0.0321
28070SOL    HW284789   3.346   2.408   3.156 -0.3713  0.0586 -0.7097
28071SOL     OW84790   0.172   2.270   6.745  0.3601 -0.7292  0.9568
28071SOL    HW184791   0.177   2.350   6.797  0.2522  0.6075 -0.9421
28071SOL    HW284792   0.262   2.240   6.739  0.4644 -0.4980  1.3254
28072SOL     OW84793   3.125   2.782   7.445  0.2885  0.0951  0.4791
28072SOL    HW184794   3.067   2.817   7.378 -0.0286  0.2805  0.8460
28072SOL    HW284795   3.200   2.747   7.397 -0.7278 -1.3568 -0.1178
28073SOL     OW84796   9.403   5.478   8.635  0.2721  0.3505 -0.3054
28073SOL    HW184797   9.365   5.395   8.607 -1.0381  0.4719  0.9882
28073SOL    HW284798   9.491   5.478   8.598  0.5612 -1.9382  0.2408
28074SOL     OW84799   9.562   1.744   6.319 -0.0316 -0.2791  0.0535
28074SOL    HW184800   9.515   1.819   6.356 -0.2722 -0.4579  0.1141
28074SOL    HW284801   9.604   1.778   6.241 -0.4713 -0.1771 -0.1408
28075SOL     OW84802   1.232   9.820   4.834 -0.0954  0.6978  0.6390
28075SOL    HW184803   1.316   9.861   4.815  0.6550 -0.8877  0.3960
28075SOL    HW284804   1.175   9.848   4.762  0.1647  1.8711  0.8664
28076SOL     OW84805   5.552   2.511   2.993  0.7149 -0.1072  0.0136
28076SOL    HW184806   5.505   2.441   3.037  0.3953  0.5094  0.6840
28076SOL    HW284807   5.544   2.586   3.052  1.3693  0.3911 -0.5071
28077SOL     OW84808   9.558   5.833   5.399  0.1555 -0.2548 -0.2391
28077SOL    HW184809   9.534   5.862   5.311  0.5616  0.5037 -0.1045
28077SOL    HW284810   9.632   5.887   5.423 -0.2724 -0.0960  0.7748
28078SOL     OW84811   5.271   7.379   2.840  0.0438 -0.6282 -0.0775
28078SOL    HW184812   5.308   7.398   2.754  1.3043 -1.2869  0.2998
28078SOL    HW284813   5.339   7.329   2.885 -0.7743 -0.6778  1.1451
28079SOL     OW84814   9.360   2.733   8.598 -0.1300  0.0332  0.5049
28079SOL    HW184815   9.293   2.685   8.550  1.2095 -0.3643 -1.1075
28079SOL    HW284816   9.338   2.825   8.584  0.2337 -0.0706 -0.9704
28080SOL     OW84817   9.062   5.500   9.360  0.6944 -0.4672  0.0590
28080SOL    HW184818   9.041   5.468   9.272  0.4630 -0.4707  0.1161
28080SOL    HW284819   9.155   5.524   9.355  0.7703 -0.7899 -0.0907
28081SOL     OW84820   9.844   5.351   9.108  0.6258  0.2835  0.0928
28081SOL    HW184821   9.932   5.389   9.111  0.1692  1.3638  0.2553
28081SOL    HW284822   9.852   5.276   9.049  1.7918 -0.0154  0.6081
28082SOL     OW84823   2.836   8.428   4.272 -0.4926  0.8106 -0.2807
28082SOL    HW184824   2.749   8.462   4.250 -1.1102 -0.2236  0.4918
28082SOL    HW284825   2.859   8.371   4.199 -0.9047  0.3067 -0.0209
28083SOL     OW84826   6.649   1.237   5.555  0.2382  0.5200 -0.7837
28083SOL    HW184827   6.605   1.153   5.563  0.3368  0.6304  1.3086
28083SOL    HW284828   6.731   1.217   5.509  0.3348 -0.5446 -0.1755
28084SOL     OW84829   1.385   2.430   8.085  0.4434 -0.5555  0.1603
28084SOL    HW184830   1.369   2.336   8.084 -0.3361 -0.4471  1.2786
28084SOL    HW284831   1.335   2.463   8.010  0.7179 -1.0243 -0.2341
28085SOL     OW84832   5.105   7.124   1.930  0.2212  0.1664  0.3800
28085SOL    HW184833   5.039   7.062   1.963 -0.3941  1.7857  2.3720
28085SOL    HW284834   5.064   7.163   1.852 -0.0079 -0.7908  0.0039
28086SOL     OW84835   2.037   2.893   7.500  0.3496 -0.6884  0.2917
28086SOL    HW184836   1.989   2.973   7.478  0.7806 -0.0255  1.6153
28086SOL    HW284837   2.121   2.925   7.535  0.3885 -1.6923  1.1540
28087SOL     OW84838   0.386   3.559   3.079  0.5486  0.0843 -0.0316
28087SOL    HW184839   0.443   3.543   3.155  2.2069  0.9419 -1.0456
28087SOL    HW284840   0.446   3.577   3.007 -1.0153  0.7456 -1.2302
28088SOL     OW84841   8.775   6.711   2.748  0.0255 -0.2078  0.9124
28088SOL    HW184842   8.723   6.667   2.681  0.7465 -0.9740  0.8375
28088SOL    HW284843   8.742   6.800   2.750  0.7835  0.1856 -1.3226
28089SOL     OW84844   2.508   5.616   3.775  0.2514  0.2041 -0.3637
28089SOL    HW184845   2.580   5.639   3.835  1.3873 -0.9271 -1.2356
28089SOL    HW284846   2.433   5.600   3.833  0.2460  2.7660  0.4939
28090SOL     OW84847   4.458   4.247   7.352  0.2695  0.1892 -0.1456
28090SOL    HW184848   4.500   4.333   7.355 -1.2143  0.9398  0.3899
28090SOL    HW284849   4.530   4.185   7.354  1.3537  1.3625  2.8181
28091SOL     OW84850   7.982   3.599   0.623  0.0672 -0.0896  0.0001
28091SOL    HW184851   7.952   3.566   0.708  1.0158 -0.6564  0.1283
28091SOL    HW284852   7.912   3.658   0.594 -1.3109 -1.5658  0.1542
28092SOL     OW84853   3.458   5.957   2.168  0.0521  0.1280 -0.5450
28092SOL    HW184854   3.421   6.027   2.221  0.5341  0.7159 -0.9693
28092SOL    HW284855   3.391   5.938   2.103 -0.6102 -0.7092  0.3478
28093SOL     OW84856   2.095   5.062   6.994 -0.5342  0.3774 -0.0840
28093SOL    HW184857   2.094   5.002   7.068 -0.2927 -0.1983 -0.5340
28093SOL    HW284858   2.143   5.014   6.926 -0.3361  1.0841 -0.4488
28094SOL     OW84859   8.163   1.741   5.735  0.3790  0.6224 -0.2103
28094SOL    HW184860   8.112   1.662   5.718  0.0888  1.2352 -2.5059
28094SOL    HW284861   8.113   1.788   5.802 -1.4981  0.6316 -1.5378
28095SOL     OW84862   4.536   5.307   0.114  0.0138  0.2241  0.1058
28095SOL    HW184863   4.449   5.272   0.136 -0.8637  1.7432 -0.7464
28095SOL    HW284864   4.564   5.352   0.194 -0.0874 -0.0680  0.3086
28096SOL     OW84865   2.550   1.192   8.148 -0.2338  0.3080 -0.1749
28096SOL    HW184866   2.480   1.254   8.164 -2.1977 -1.6383 -0.7673
28096SOL    HW284867   2.535   1.122   8.212  1.7563  0.2660  0.3101
28097SOL     OW84868   2.394   4.717   3.789  0.0152  0.1684  0.3142
28097SOL    HW184869   2.473   4.716   3.843 -1.3408  1.0242  2.4471
28097SOL    HW284870   2.417   4.771   3.713  1.0016  1.9036  1.7683
28098SOL     OW84871   4.953  -0.011   3.283 -0.3837 -0.0634  0.3491
28098SOL    HW184872   4.982  -0.026   3.193  0.2846 -1.4842  0.7818
28098SOL    HW284873   5.016   0.053   3.318 -1.2332  1.2646 -0.4700
28099SOL     OW84874   5.242   6.894   8.817 -0.0923  0.5323 -0.6061
28099SOL    HW184875   5.250   6.976   8.767 -0.4864  1.7338  1.2032
28099SOL    HW284876   5.150   6.890   8.843  0.5882  1.4452  2.3271
28100SOL     OW84877   3.431   0.292   8.084 -0.6194 -0.3194  0.2547
28100SOL    HW184878   3.429   0.302   8.179 -0.4867  0.3929  0.1854
28100SOL    HW284879   3.467   0.205   8.070 -0.9666 -0.5690  0.8638
28101SOL     OW84880   2.876   7.093   6.337 -0.1069 -0.1488 -0.3860
28101SOL    HW184881   2.947   7.116   6.277 -0.7838  0.4348 -0.9864
28101SOL    HW284882   2.918   7.086   6.423  0.8581 -0.8553 -0.8865
28102SOL     OW84883   1.164   1.549   5.101  0.2747 -0.0794  0.1063
28102SOL    HW184884   1.166   1.598   5.183  1.5833 -0.1880  0.1743
28102SOL    HW284885   1.072   1.544   5.077 -0.1914 -0.6125  1.8972
28103SOL     OW84886   1.909   6.967   2.222 -0.2339 -0.2584 -0.4607
28103SOL    HW184887   2.002   6.984   2.206  0.1305  0.5004  2.1072
28103SOL    HW284888   1.892   6.886   2.173  1.7625 -0.4113 -1.0180
28104SOL     OW84889   9.712   8.954   4.993 -0.2418 -0.2493 -0.2067
28104SOL    HW184890   9.713   8.901   4.914 -2.1844  0.8463 -1.0382
28104SOL    HW284891   9.625   8.940   5.031  1.0016 -1.6189  2.4134
28105SOL     OW84892   4.431   6.590  10.007  0.7808 -0.1248 -0.5808
28105SOL    HW184893   4.440   6.685  10.004  2.4674 -0.1883  0.5962
28105SOL    HW284894   4.456   6.561   9.920 -0.3305  0.5275 -1.1309
28106SOL     OW84895   0.708   4.081   5.036 -0.0249  0.5199  0.0017
28106SOL    HW184896   0.755   4.012   4.989 -0.4557  0.7550 -0.7896
28106SOL    HW284897   0.694   4.044   5.124  0.3109 -0.1406 -0.2130
28107SOL     OW84898   6.965   3.620   4.056  0.3835 -0.3741 -0.7363
28107SOL    HW184899   6.879   3.636   4.093 -0.3031 -0.5110 -2.2053
28107SOL    HW284900   6.961   3.659   3.968  1.3433 -1.5905 -1.3515
28108SOL     OW84901   1.271   8.642   9.542  0.3290  0.4474 -0.2339
28108SOL    HW184902   1.331   8.614   9.612  3.0101  3.2535 -1.2102
28108SOL    HW284903   1.206   8.696   9.587 -1.1229 -1.9668  0.7243
28109SOL     OW84904   1.360   7.027   3.701  0.3263  0.0864 -0.4378
28109SOL    HW184905   1.285   6.983   3.660 -0.0657  0.8851 -0.6037
28109SOL    HW284906   1.379   6.975   3.779  2.1467 -2.4454 -2.4171
28110SOL     OW84907   9.969   8.382   9.895 -0.0095  0.1230 -0.5364
28110SOL    HW184908   9.900   8.365   9.959  0.0089 -1.1485 -0.8302
28110SOL    HW284909  10.044   8.410   9.947  0.0597 -1.0568  0.0320
28111SOL     OW84910   8.062   7.808   3.359  0.3732  0.2107  0.2119
28111SOL    HW184911   8.006   7.813   3.437  0.5619  2.2246  0.2683
28111SOL    HW284912   8.107   7.724   3.368 -0.3067 -0.0339  1.7768
28112SOL     OW84913   1.982   2.286   9.504  0.0750  0.6575 -0.4299
28112SOL    HW184914   1.985   2.307   9.410  1.3351 -0.3189 -0.6397
28112SOL    HW284915   1.923   2.351   9.541 -2.9815 -0.7449 -2.3764
28113SOL     OW84916   7.740   0.734   8.117  0.0334 -0.2053 -0.0923
28113SOL    HW184917   7.814   0.678   8.094 -0.2837 -0.1918 -1.2219
28113SOL    HW284918   7.699   0.690   8.191  0.0774 -1.2247 -0.6486
28114SOL     OW84919   0.723   5.223   2.820 -0.4181  0.4899  0.2135
28114SOL    HW184920   0.775   5.172   2.882  0.3466  1.0424  0.0442
28114SOL    HW284921   0.655   5.264   2.873 -0.8399 -0.4220  0.3999
28115SOL     OW84922   2.082   1.761   4.691  0.3729 -0.1116  0.4542
28115SOL    HW184923   2.128   1.701   4.750 -1.2620  1.4895  3.5742
28115SOL    HW284924   2.130   1.843   4.698  1.2770 -0.3430 -2.0563
28116SOL     OW84925   4.864   0.141   3.826  0.0524  0.0028 -0.0968
28116SOL    HW184926   4.955   0.148   3.796  0.5655 -0.7696  1.1549
28116SOL    HW284927   4.869   0.158   3.920 -1.0634 -0.3083  0.0353
28117SOL     OW84928   5.402   6.172   4.913 -0.5985 -0.0299 -0.0566
28117SOL    HW184929   5.320   6.207   4.947 -0.0296  2.3275 -0.9078
28117SOL    HW284930   5.381   6.143   4.824 -0.4598  0.9083 -0.4055
28118SOL     OW84931   1.540   6.321   2.722 -0.4248  0.4563 -0.6913
28118SOL    HW184932   1.539   6.261   2.648 -0.0891  0.2553 -0.5306
28118SOL    HW284933   1.486   6.395   2.693  0.3944  0.7666 -1.4562
28119SOL     OW84934   8.085   2.793   5.288  0.0812 -0.3310 -0.0600
28119SOL    HW184935   8.099   2.860   5.355  1.1823 -0.0902 -0.5222
28119SOL    HW284936   8.076   2.712   5.337 -1.1047  0.1067  0.4967
28120SOL     OW84937   1.090   3.785   9.973  0.3405  0.4589  0.3451
28120SOL    HW184938   1.055   3.701   9.943  2.3135  0.0620 -0.9866
28120SOL    HW284939   1.017   3.825  10.022 -1.0636 -1.4279 -0.0969
28121SOL     OW84940   5.816   0.376   6.529 -0.5320 -0.0776 -0.0862
28121SOL    HW184941   5.865   0.295   6.515 -0.7257 -0.1726 -0.2144
28121SOL    HW284942   5.724   0.350   6.526 -0.5975 -0.0832  1.1691
28122SOL     OW84943   2.408   9.383   6.459  0.8663 -0.4481  0.2528
28122SOL    HW184944   2.320   9.395   6.495  1.6104  1.8076  1.5417
28122SOL    HW284945   2.432   9.294   6.485  0.3190  0.1544  3.1583
28123SOL     OW84946   5.787   6.923   8.355 -0.6182 -0.2791 -0.0835
28123SOL    HW184947   5.712   6.979   8.375 -0.1838  0.4903 -0.5688
28123SOL    HW284948   5.748   6.840   8.329 -1.2904 -0.0022  0.0066
28124SOL     OW84949   8.936   2.428   7.500 -0.6905  0.0589 -0.4175
28124SOL    HW184950   9.024   2.442   7.535 -1.4129 -1.3789  2.1955
28124SOL    HW284951   8.945   2.350   7.445 -0.4339 -0.5023  0.3936
28125SOL     OW84952   2.941   7.043   5.809 -0.1163  0.2141  0.5349
28125SOL    HW184953   2.890   6.990   5.748 -1.4315  0.5895  1.2650
28125SOL    HW284954   2.956   7.126   5.763 -2.2623  1.0078  1.1677
28126SOL     OW84955   8.642   7.941   8.616 -0.8411 -0.3529 -0.0340
28126SOL    HW184956   8.643   7.861   8.562  0.1987 -0.9809  0.8661
28126SOL    HW284957   8.582   7.920   8.688  0.9679 -1.1699  1.3362
28127SOL     OW84958   0.594   4.845   3.423  0.2503 -0.5050 -0.0012
28127SOL    HW184959   0.597   4.775   3.358  0.4815 -0.8614  0.3812
28127SOL    HW284960   0.686   4.871   3.434  0.0070  1.0543 -1.3904
28128SOL     OW84961   6.275   5.514   0.790  0.0269 -0.1241  0.7717
28128SOL    HW184962   6.333   5.553   0.725 -0.3928  1.2332  1.1721
28128SOL    HW284963   6.309   5.426   0.803  1.7616  0.5034  0.7167
28129SOL     OW84964   9.015   1.389   6.576  0.0609 -0.0180 -0.2803
28129SOL    HW184965   8.961   1.455   6.619  0.4837  0.2022 -0.0791
28129SOL    HW284966   9.073   1.438   6.518  0.0188 -0.2530 -0.5231
28130SOL     OW84967   2.571   0.294   6.962  0.8017  0.5549 -1.1604
28130SOL    HW184968   2.552   0.256   6.876 -0.9167  1.3249 -1.1687
28130SOL    HW284969   2.615   0.376   6.943 -0.7241  1.3551 -1.4019
28131SOL     OW84970   6.959   2.962   8.290  0.6504 -0.1007 -0.0604
28131SOL    HW184971   6.970   3.057   8.284 -1.6213  0.2551  0.3661
28131SOL    HW284972   6.944   2.947   8.384 -3.0319 -0.2527 -0.5331
28132SOL     OW84973   9.163   7.369   1.720  0.1908 -0.4050  0.1984
28132SOL    HW184974   9.154   7.305   1.649  2.5529  1.8803 -2.3571
28132SOL    HW284975   9.095   7.434   1.702 -0.7064 -0.9413  1.4664
28133SOL     OW84976   0.430   7.376   6.622  0.1876 -0.2674 -0.6064
28133SOL    HW184977   0.388   7.327   6.551  1.2282 -1.4215 -0.4648
28133SOL    HW284978   0.411   7.326   6.701  2.0281 -1.0064 -0.5814
28134SOL     OW84979   1.725   2.756   8.440  0.0394 -0.3275  0.0926
28134SOL    HW184980   1.717   2.680   8.382  0.1400  0.9825 -1.7459
28134SOL    HW284981   1.819   2.773   8.444  0.0216 -0.3455  0.5486
28135SOL     OW84982   6.465   2.318   8.359  0.8140  0.3604 -0.1042
28135SOL    HW184983   6.400   2.293   8.424  0.0849 -0.2581 -1.0535
28135SOL    HW284984   6.512   2.236   8.339  2.2330  0.8864  0.9308
28136SOL     OW84985   3.926   3.880   4.071 -0.9565  0.0703  0.0330
28136SOL    HW184986   3.953   3.890   4.163  2.7728 -0.0940 -0.8945
28136SOL    HW284987   3.837   3.914   4.069 -0.9105  0.8411  3.5352
28137SOL     OW84988   9.374   7.680   9.896 -0.0798  0.2056 -0.4989
28137SOL    HW184989   9.408   7.592   9.910 -1.2658 -0.1721  0.0600
28137SOL    HW284990   9.348   7.681   9.804  3.8583  1.3763 -1.8105
28138SOL     OW84991   3.123   9.116   2.136  0.1282 -0.0094  0.0896
28138SOL    HW184992   3.160   9.064   2.207  1.1166  0.3351 -0.1525
28138SOL    HW284993   3.185   9.189   2.125 -1.0243  1.0046  0.1666
28139SOL     OW84994   2.082   0.489   4.726 -0.2778 -1.3140 -0.2254
28139SOL    HW184995   2.004   0.433   4.732 -0.2997 -1.4111 -1.2066
28139SOL    HW284996   2.148   0.433   4.684  0.1623 -1.0710  0.1422
28140SOL     OW84997   4.589   1.255   2.617 -0.1117 -0.1377 -0.3157
28140SOL    HW184998   4.579   1.200   2.540 -2.2999  0.5848 -0.5912
28140SOL    HW284999   4.577   1.195   2.691  0.0298 -0.4636 -0.5564
28141SOL     OW85000   1.629   5.809   9.346  0.1031  0.0971  0.1342
28141SOL    HW185001   1.687   5.865   9.294 -1.1758  2.0389  0.6561
28141SOL    HW285002   1.684   5.772   9.414  1.1188  0.2580 -0.5871
28142SOL     OW85003   2.121   0.663   9.489  0.7399  0.5408 -0.3182
28142SOL    HW185004   2.194   0.659   9.427  0.8263 -1.4212 -0.1388
28142SOL    HW285005   2.095   0.572   9.502 -1.0528  1.1148  0.4558
28143SOL     OW85006   3.949   7.366   3.303 -0.0427 -0.0003  0.1463
28143SOL    HW185007   3.868   7.315   3.314  0.7101 -0.7897  2.7853
28143SOL    HW285008   4.010   7.306   3.261 -0.3559  0.0655 -0.4043
28144SOL     OW85009   2.607   7.103   6.456 -0.7162  0.5586 -0.0687
28144SOL    HW185010   2.578   7.018   6.486  0.5857  0.0251 -0.2601
28144SOL    HW285011   2.693   7.087   6.418 -0.8399  1.7975 -0.9506
28145SOL     OW85012   8.533   5.932   1.570  0.3492  0.9089  0.5528
28145SOL    HW185013   8.542   5.941   1.665  0.7006 -2.5174  0.9848
28145SOL    HW285014   8.457   5.874   1.559  1.0129  0.3257 -1.1938
28146SOL     OW85015   4.119   4.179   7.643  0.5149 -0.0793  0.3774
28146SOL    HW185016   4.136   4.246   7.709  0.9471 -1.5568  1.8282
28146SOL    HW285017   4.206   4.147   7.619  0.3371  0.1745 -0.6452
28147SOL     OW85018   9.234   3.205   8.821  0.6315  0.1322  0.0620
28147SOL    HW185019   9.199   3.245   8.900  1.3445  1.4186 -0.2487
28147SOL    HW285020   9.273   3.123   8.851  0.0963  0.1717  0.8947
28148SOL     OW85021   8.591   3.099   7.042  0.6996 -0.6008  0.2121
28148SOL    HW185022   8.678   3.108   7.003  1.4222 -0.6974  1.7389
28148SOL    HW285023   8.607   3.073   7.132 -0.7651  2.2373  1.4377
28149SOL     OW85024   3.318   3.868   7.544  0.1363 -0.1537 -0.0626
28149SOL    HW185025   3.313   3.791   7.487  1.1964 -0.4597  0.2298
28149SOL    HW285026   3.291   3.836   7.630 -0.1778 -0.0072 -0.1048
28150SOL     OW85027   5.790   1.801   7.725 -0.5050 -0.2811  0.3831
28150SOL    HW185028   5.869   1.854   7.736  0.2920 -1.5751  1.0985
28150SOL    HW285029   5.743   1.808   7.808 -0.2134 -0.9721  0.6127
28151SOL     OW85030   7.540   4.570   5.582  0.4802  0.7446 -0.8431
28151SOL    HW185031   7.519   4.535   5.668  1.7603 -0.1933 -0.8916
28151SOL    HW285032   7.470   4.633   5.564  0.8212  1.8532  1.3846
28152SOL     OW85033   3.395   6.667   1.575  0.2685 -0.3037 -0.4419
28152SOL    HW185034   3.414   6.659   1.669 -0.4079 -0.1343 -0.2826
28152SOL    HW285035   3.324   6.731   1.571  0.4598 -0.1256 -1.0947
28153SOL     OW85036   7.345   6.352   9.886 -0.1131 -0.1345 -0.0822
28153SOL    HW185037   7.267   6.371   9.834 -0.0743  3.6893  0.9239
28153SOL    HW285038   7.416   6.396   9.839  0.8145 -0.8074  0.6696
28154SOL     OW85039   2.167   6.626   3.775 -1.0382 -0.1762  0.2971
28154SOL    HW185040   2.187   6.535   3.754  0.9740  0.6219 -1.5686
28154SOL    HW285041   2.174   6.631   3.870 -1.2639 -1.9664  0.4415
28155SOL     OW85042   6.602   7.785   4.144  0.0187 -0.6234 -0.5569
28155SOL    HW185043   6.662   7.747   4.209  0.6175 -2.1225 -1.9204
28155SOL    HW285044   6.654   7.853   4.101  1.5220 -3.0136 -2.8975
28156SOL     OW85045   2.701   2.475   2.629 -0.2489 -0.4784  0.1166
28156SOL    HW185046   2.709   2.461   2.534  2.0505 -1.7176  0.4186
28156SOL    HW285047   2.768   2.541   2.649  0.4143 -1.4183  1.0829
28157SOL     OW85048   7.860   0.370   2.401 -0.2552  0.6422  0.4685
28157SOL    HW185049   7.824   0.420   2.474  0.2024 -0.7945  1.7298
28157SOL    HW285050   7.940   0.416   2.377 -0.2423  0.9566  1.1065
28158SOL     OW85051   4.836   9.015   0.516  0.2554 -0.1340 -0.2208
28158SOL    HW185052   4.770   8.950   0.540  1.7319 -1.4847  0.3908
28158SOL    HW285053   4.835   9.017   0.420 -1.7279  1.0521 -0.2198
28159SOL     OW85054   9.666   9.113   5.614 -0.3108  0.0079  0.3217
28159SOL    HW185055   9.696   9.043   5.672  0.3675  0.8266  1.0034
28159SOL    HW285056   9.571   9.102   5.609 -0.1514 -1.3639 -0.1502
28160SOL     OW85057   3.751   7.552   9.608 -0.2253 -0.2491  0.1338
28160SOL    HW185058   3.660   7.575   9.587  0.7211  3.3162 -0.8715
28160SOL    HW285059   3.762   7.580   9.699 -0.0826 -0.4825  0.1882
28161SOL     OW85060   5.730   8.266   8.589  0.1992  0.1711 -0.1637
28161SOL    HW185061   5.810   8.320   8.588  0.2712  0.0797 -1.7935
28161SOL    HW285062   5.669   8.316   8.643  1.4292  0.1128  1.3494
28162SOL     OW85063   9.559   0.842   0.951  0.6318 -0.7396  0.4330
28162SOL    HW185064   9.473   0.808   0.929 -0.2387  1.6759 -0.1360
28162SOL    HW285065   9.542   0.918   1.007  2.4819 -1.2106  1.7450
28163SOL     OW85066   4.108   4.442   8.812 -0.2251  0.0546 -0.3855
28163SOL    HW185067   4.132   4.410   8.725  2.7283 -2.5768  1.1615
28163SOL    HW285068   4.178   4.503   8.835 -0.7805  0.4491  0.2611
28164SOL     OW85069   1.717   6.204   1.214 -0.4447 -0.0061  0.6188
28164SOL    HW185070   1.689   6.260   1.287 -0.4728  1.8384 -0.7486
28164SOL    HW285071   1.642   6.146   1.199  0.1281 -1.4989  2.9918
28165SOL     OW85072   1.869   3.011   7.877 -0.3218  0.0803  0.3382
28165SOL    HW185073   1.924   3.062   7.818 -1.6686  2.0211  0.6431
28165SOL    HW285074   1.920   3.002   7.957 -0.9145  3.2351  1.2007
28166SOL     OW85075   4.652   4.645   0.148 -0.4739 -0.2969 -0.0393
28166SOL    HW185076   4.721   4.627   0.083  0.0027  0.1176  0.3486
28166SOL    HW285077   4.694   4.703   0.212 -1.3732  0.4899 -0.1498
28167SOL     OW85078   0.646   7.388   8.011 -0.3081  0.2440 -0.2698
28167SOL    HW185079   0.592   7.433   7.946 -2.2903 -0.9082  0.4768
28167SOL    HW285080   0.676   7.309   7.966 -2.0201 -0.7608  0.2709
28168SOL     OW85081   3.548   2.235   9.099  0.0950  0.4414  0.6494
28168SOL    HW185082   3.569   2.208   9.009  1.7251 -1.2810  1.4438
28168SOL    HW285083   3.475   2.178   9.124 -0.0358  0.5749  0.5708
28169SOL     OW85084   6.976   6.055   9.412  0.8163  0.3878 -0.2699
28169SOL    HW185085   6.983   6.151   9.419 -0.1947  0.3434  2.3973
28169SOL    HW285086   6.963   6.039   9.318 -0.6973  3.0225 -0.6111
28170SOL     OW85087   0.659   1.870   6.272 -0.2643 -0.0361  0.4243
28170SOL    HW185088   0.596   1.817   6.223  0.5304  0.2196 -0.9136
28170SOL    HW285089   0.733   1.811   6.286  0.1215  0.3495  0.0103
28171SOL     OW85090   0.104   8.633   5.284 -0.0917 -0.0255  0.1281
28171SOL    HW185091   0.078   8.675   5.202 -1.2396 -0.2867  0.3363
28171SOL    HW285092   0.084   8.699   5.351  0.5545  0.0697  0.2363
28172SOL     OW85093   8.195   4.884   5.354  0.1387 -0.2571 -0.0616
28172SOL    HW185094   8.158   4.946   5.416 -1.6747 -1.1689 -0.1679
28172SOL    HW285095   8.222   4.809   5.407 -2.2177 -1.4163 -0.3462
28173SOL     OW85096   6.952   0.254   0.178 -0.2925  0.1609  0.3114
28173SOL    HW185097   6.987   0.262   0.089 -0.2649 -0.1786  0.2901
28173SOL    HW285098   6.959   0.342   0.214 -2.0258  0.7553 -0.6455
28174SOL     OW85099   1.116   0.645   7.245  0.4539  0.5672 -0.4902
28174SOL    HW185100   1.153   0.663   7.159 -0.5362  1.9701 -0.6558
28174SOL    HW285101   1.044   0.584   7.227 -0.6506  1.9346 -0.8800
28175SOL     OW85102   3.504   5.069   3.912  0.2309 -0.0291 -0.1901
28175SOL    HW185103   3.452   5.028   3.843 -1.0377  2.5667 -0.9092
28175SOL    HW285104   3.556   5.135   3.866  0.4964  0.7404  1.1625
28176SOL     OW85105   3.299   7.915   9.002  0.0199 -0.3522 -0.5432
28176SOL    HW185106   3.387   7.913   9.039 -0.0177 -1.4078 -0.4692
28176SOL    HW285107   3.246   7.961   9.068  0.5726  0.6258 -0.7619
28177SOL     OW85108   3.412   4.047   0.882  0.9607 -0.2691 -0.1888
28177SOL    HW185109   3.436   4.059   0.790  1.9809  0.2185  0.1266
28177SOL    HW285110   3.480   3.989   0.917 -0.7693 -2.5299 -0.3079
28178SOL     OW85111   8.444   2.833   1.480 -0.3068 -0.1892 -0.2962
28178SOL    HW185112   8.411   2.908   1.529  2.0393  1.5873 -1.2233
28178SOL    HW285113   8.533   2.858   1.455  1.7839 -4.3922  1.7435
28179SOL     OW85114   3.789   8.093   6.584  0.0249 -0.0217 -0.1567
28179SOL    HW185115   3.737   8.118   6.660  1.7172 -0.1836  1.1010
28179SOL    HW285116   3.725   8.085   6.513 -1.4817  0.9655  1.0292
28180SOL     OW85117   7.424   6.479   7.452 -0.3885  0.3109 -0.1250
28180SOL    HW185118   7.333   6.472   7.479 -0.9470  1.1825 -1.6223
28180SOL    HW285119   7.419   6.507   7.360  1.3789 -0.1355 -0.3874
28181SOL     OW85120   7.268   9.142   6.520 -0.1984  0.2105  0.4512
28181SOL    HW185121   7.252   9.236   6.512 -1.6741 -0.0225  0.4149
28181SOL    HW285122   7.262   9.109   6.431  1.0795  0.1744  0.3644
28182SOL     OW85123   7.518   4.499   8.618  0.1577 -0.2970  0.0967
28182SOL    HW185124   7.613   4.511   8.615  0.0310  0.7364 -1.9289
28182SOL    HW285125   7.491   4.543   8.698  1.4542 -1.5555  1.2988
28183SOL     OW85126   7.782   2.020   0.835 -0.2352  0.0413  0.7103
28183SOL    HW185127   7.701   1.972   0.819 -1.3389  0.8695  3.3373
28183SOL    HW285128   7.851   1.958   0.812 -1.5243 -0.5858 -1.8935
28184SOL     OW85129   0.238   0.341   8.094 -0.1734  0.1435  0.4652
28184SOL    HW185130   0.292   0.279   8.144  2.0950  2.6027  1.3023
28184SOL    HW285131   0.172   0.371   8.156  0.0407  0.1134  0.7087
28185SOL     OW85132   9.419   2.859   9.316  0.3140  0.4481  0.0596
28185SOL    HW185133   9.497   2.869   9.370 -0.0009  1.5002  0.3428
28185SOL    HW285134   9.450   2.867   9.226  0.6813 -0.2261  0.1198
28186SOL     OW85135   9.297   1.464   6.934 -0.3642  0.2083  0.1263
28186SOL    HW185136   9.279   1.555   6.959 -1.7009 -0.0641  0.2399
28186SOL    HW285137   9.343   1.471   6.850  0.3502  1.0101  0.5730
28187SOL     OW85138   0.655   2.073   9.007  0.1956  0.3895 -0.1343
28187SOL    HW185139   0.743   2.033   9.007  0.7557  1.2823  3.0307
28187SOL    HW285140   0.602   2.013   9.060 -1.0562  0.0751 -1.6744
28188SOL     OW85141   6.742   1.058   8.025  0.1606 -0.1245 -0.1975
28188SOL    HW185142   6.822   1.054   7.973 -0.8059 -1.3641 -1.6928
28188SOL    HW285143   6.702   0.972   8.014 -0.9425  0.1636  1.2550
28189SOL     OW85144   0.681   7.031   7.980 -0.0411  0.4229  0.3107
28189SOL    HW185145   0.762   7.079   7.965  0.4473 -0.5806 -0.2899
28189SOL    HW285146   0.681   7.012   8.074  0.8466 -0.3373  0.1594
28190SOL     OW85147   2.568   9.962   0.749  0.0103  0.1957  0.4774
28190SOL    HW185148   2.575  10.000   0.661  1.2916 -0.2680  0.3509
28190SOL    HW285149   2.481   9.923   0.751  0.5889 -1.3302 -1.2497
28191SOL     OW85150   4.194   4.464   4.773 -0.5329  0.2593  0.5109
28191SOL    HW185151   4.148   4.430   4.850 -1.1772  0.5949  0.2877
28191SOL    HW285152   4.258   4.396   4.751 -0.6475 -0.0372  1.0741
28192SOL     OW85153   7.810   8.709   6.750  0.3233 -0.0516 -0.6775
28192SOL    HW185154   7.795   8.658   6.830  0.7590 -0.8564 -1.0988
28192SOL    HW285155   7.733   8.765   6.743  0.1335 -0.1925  0.1401
28193SOL     OW85156   7.298   6.693   5.074 -0.9222 -0.3622 -0.3158
28193SOL    HW185157   7.283   6.708   5.167 -1.4589  1.0354 -0.6043
28193SOL    HW285158   7.294   6.780   5.035 -0.5170 -0.9106 -1.6236
28194SOL     OW85159   1.817   8.761   6.005  0.4841 -0.1531 -0.5986
28194SOL    HW185160   1.865   8.688   6.043  2.6888  2.2551  1.6992
28194SOL    HW285161   1.812   8.825   6.075 -0.4403  2.3096 -2.7494
28195SOL     OW85162   2.175   1.462   3.926  0.2661 -0.1420 -0.0498
28195SOL    HW185163   2.256   1.410   3.921  0.9701  0.9584 -0.3964
28195SOL    HW285164   2.125   1.436   3.849  0.9898  0.2911 -0.6760
28196SOL     OW85165   0.604   3.390   8.711  0.2050  0.6846 -0.1327
28196SOL    HW185166   0.557   3.307   8.699  0.9332  0.2660 -0.1401
28196SOL    HW285167   0.628   3.417   8.622 -0.8430  1.3950 -0.2165
28197SOL     OW85168   3.961   4.611   4.608  0.2305  0.2009  0.4441
28197SOL    HW185169   4.003   4.537   4.565  0.3415 -0.4212  1.6041
28197SOL    HW285170   3.991   4.687   4.558  0.6357 -0.4645 -0.3580
28198SOL     OW85171   0.510   3.040   5.489 -0.1866 -0.4526  0.0313
28198SOL    HW185172   0.429   3.057   5.440  0.1042 -1.7635 -0.9508
28198SOL    HW285173   0.580   3.054   5.426  0.6471  3.0916  1.4584
28199SOL     OW85174   4.658   0.119   8.958  0.1139 -0.3700  0.7417
28199SOL    HW185175   4.601   0.136   8.883  1.8006 -0.4581 -0.6079
28199SOL    HW285176   4.614   0.164   9.031 -0.7808  1.0681 -0.6037
28200SOL     OW85177   9.203   0.554   3.775 -0.4826 -0.1192  0.1227
28200SOL    HW185178   9.297   0.566   3.777 -0.7574  2.4941  1.2910
28200SOL    HW285179   9.174   0.601   3.697 -0.9015 -0.1244  0.2708
28201SOL     OW85180   4.647   5.522   2.534  0.4334  0.8192  0.6172
28201SOL    HW185181   4.683   5.567   2.458 -0.4200  0.8162  0.2033
28201SOL    HW285182   4.694   5.438   2.537  0.2828  0.7049 -0.0669
28202SOL     OW85183   6.962   9.256   3.645 -0.5801  0.2528 -0.0619
28202SOL    HW185184   7.045   9.209   3.635 -0.4608  0.5961 -0.7970
28202SOL    HW285185   6.984   9.332   3.699 -0.4055  0.3479 -0.2622
28203SOL     OW85186   2.545   3.495   1.696  0.2886  0.2917 -0.4211
28203SOL    HW185187   2.544   3.463   1.786 -0.9680  0.4270 -0.3732
28203SOL    HW285188   2.611   3.442   1.652 -0.8448 -1.5036 -0.0331
28204SOL     OW85189   1.177   6.786   5.937  0.0877 -0.5227 -0.0618
28204SOL    HW185190   1.154   6.760   6.027  0.4936  1.8504  0.7976
28204SOL    HW285191   1.258   6.738   5.919  0.4533 -0.4147  1.1820
28205SOL     OW85192   4.788   4.987   6.516  0.0347 -0.0453 -0.1418
28205SOL    HW185193   4.694   4.979   6.532  0.0660 -1.2538 -0.4867
28205SOL    HW285194   4.799   4.960   6.425  0.6086  1.0488 -0.4151
28206SOL     OW85195   3.932   0.273   1.819  0.1999  0.2193  0.1229
28206SOL    HW185196   3.891   0.201   1.773 -1.2691  0.7370  0.5671
28206SOL    HW285197   4.008   0.234   1.862  0.0985 -0.8048 -0.5973
28207SOL     OW85198   7.970   8.503   7.725  0.6199  0.4004 -0.4694
28207SOL    HW185199   7.963   8.480   7.818  2.3011 -0.4779 -0.5274
28207SOL    HW285200   7.909   8.577   7.715 -1.8695 -1.3514  0.6359
28208SOL     OW85201   0.956   2.344   9.505  0.7612  0.2739  0.0831
28208SOL    HW185202   0.950   2.407   9.433  0.7363  0.9576  0.6769
28208SOL    HW285203   0.911   2.386   9.578  2.0972  0.2368  0.9552
28209SOL     OW85204   1.348   3.164   6.906  0.1994  0.0645 -0.0996
28209SOL    HW185205   1.415   3.223   6.870  1.5953 -0.8648  0.8848
28209SOL    HW285206   1.306   3.126   6.828  0.7042  0.7803 -0.7374
28210SOL     OW85207   2.884   8.179   4.943  0.0278 -0.1594  0.0024
28210SOL    HW185208   2.889   8.243   4.872  1.6476  0.1388  0.3494
28210SOL    HW285209   2.834   8.223   5.011 -1.7311 -0.5270 -0.9994
28211SOL     OW85210   3.930   4.907   3.457 -0.3547  0.1464  0.2130
28211SOL    HW185211   3.906   4.815   3.463 -0.7568  0.3183  1.7516
28211SOL    HW285212   4.014   4.908   3.411 -0.5913 -0.9278 -0.2651
28212SOL     OW85213   8.070   3.864   3.709 -0.2452  0.0352 -0.6676
28212SOL    HW185214   8.073   3.958   3.690 -1.8348  0.3763  0.5360
28212SOL    HW285215   8.129   3.853   3.783  0.5450 -0.0766 -1.2977
28213SOL     OW85216   8.386   5.399   6.360  0.6015 -0.0768  0.2972
28213SOL    HW185217   8.339   5.407   6.444  1.4333 -0.4278  0.8109
28213SOL    HW285218   8.338   5.456   6.300  0.6966  1.1253  1.3260
28214SOL     OW85219   6.622   4.725   2.304 -0.0745 -0.4696 -0.3822
28214SOL    HW185220   6.715   4.701   2.298  0.5803  1.8977 -0.5880
28214SOL    HW285221   6.622   4.809   2.350 -2.1938 -0.7343  0.1960
28215SOL     OW85222   3.569   0.290   2.439  0.0752  0.5194  0.2907
28215SOL    HW185223   3.514   0.238   2.380 -0.9593  1.7313  0.1448
28215SOL    HW285224   3.550   0.254   2.526  2.2014 -1.8091 -0.0911
28216SOL     OW85225   0.867   8.535   5.096 -0.3053 -0.3677  0.7757
28216SOL    HW185226   0.782   8.576   5.078 -0.1815 -0.9234 -1.2649
28216SOL    HW285227   0.917   8.603   5.142 -0.6974  1.2138 -1.0032
28217SOL     OW85228   2.649   8.016   2.652  0.6027 -0.3637  0.4443
28217SOL    HW185229   2.609   8.090   2.697  0.5944  0.6025 -1.0471
28217SOL    HW285230   2.723   7.992   2.706  1.2557  1.4650  0.4453
28218SOL     OW85231   8.560   6.701   3.002  0.2526  0.3702 -0.9484
28218SOL    HW185232   8.589   6.680   2.914  6.2317 -0.2475  0.7131
28218SOL    HW285233   8.620   6.771   3.031 -1.0394  0.1779  2.7902
28219SOL     OW85234   3.865   8.971   4.370  0.0429  0.1803 -0.0866
28219SOL    HW185235   3.926   8.954   4.441 -0.6031  0.5757  0.5766
28219SOL    HW285236   3.860   9.066   4.365 -0.4232  0.1544 -0.2115
28220SOL     OW85237   7.652   0.903   3.414  0.2523 -0.0414  0.3103
28220SOL    HW185238   7.647   0.807   3.411 -0.0778 -0.0387  0.7406
28220SOL    HW285239   7.655   0.929   3.322  0.2766 -0.4591  0.1872
28221SOL     OW85240   4.271   3.781   3.515 -0.0267 -0.0756 -0.3015
28221SOL    HW185241   4.337   3.826   3.462  1.4704 -2.1782 -0.3512
28221SOL    HW285242   4.315   3.766   3.599 -0.3610 -1.6207 -0.3843
28222SOL     OW85243   2.995   5.462   8.976  0.4685  0.0294 -0.1448
28222SOL    HW185244   3.040   5.537   9.015 -0.3699 -0.1683  1.2570
28222SOL    HW285245   2.940   5.500   8.908  1.9537  0.3812 -1.2140
28223SOL     OW85246   9.792   2.468   7.992 -0.0348  0.2360  0.8927
28223SOL    HW185247   9.887   2.480   7.981 -0.4725  3.5792 -0.3709
28223SOL    HW285248   9.771   2.519   8.071 -1.2306  3.3509 -1.2315
28224SOL     OW85249   6.013   2.165   9.565 -0.3977  0.3873  0.1878
28224SOL    HW185250   6.103   2.152   9.533 -0.1498  0.1147  0.9726
28224SOL    HW285251   5.976   2.231   9.507 -0.0124 -0.2113 -0.7664
28225SOL     OW85252   7.783   5.634   7.597 -0.0498 -0.1924  0.3214
28225SOL    HW185253   7.825   5.674   7.520  2.2205 -1.0866  0.9955
28225SOL    HW285254   7.756   5.547   7.567  0.2689 -0.3028  0.3444
28226SOL     OW85255   5.365   2.887   7.713 -0.0829 -0.0370  0.0260
28226SOL    HW185256   5.356   2.796   7.686 -0.4061 -0.1878  0.6375
28226SOL    HW285257   5.414   2.883   7.795 -0.7927  0.2803  0.4719
28227SOL     OW85258   9.820   6.513   7.209 -0.6694 -0.0859 -0.2205
28227SOL    HW185259   9.841   6.549   7.295  0.1443  1.4706 -1.0433
28227SOL    HW285260   9.899   6.526   7.157 -2.2452  2.3378 -2.2471
28228SOL     OW85261   4.047   8.170   2.944  0.7821 -0.6512 -0.1401
28228SOL    HW185262   4.095   8.088   2.934 -1.8479 -2.2798 -0.4570
28228SOL    HW285263   4.005   8.162   3.029  0.8668  0.5918  0.0250
28229SOL     OW85264   7.269   3.229   1.541 -0.0956 -0.1171 -0.1562
28229SOL    HW185265   7.292   3.300   1.481  2.4753 -0.4338  0.3639
28229SOL    HW285266   7.323   3.155   1.513  0.1482 -0.6954  1.6913
28230SOL     OW85267   8.534   1.041   8.505 -0.5561 -0.1272 -0.0694
28230SOL    HW185268   8.504   1.132   8.503 -0.9577 -0.2281  0.8603
28230SOL    HW285269   8.629   1.047   8.496 -0.6371  0.3481 -0.6308
28231SOL     OW85270   0.869   9.674   9.256 -0.0306 -0.0990 -0.0727
28231SOL    HW185271   0.932   9.736   9.219 -1.1738 -0.0243 -1.9928
28231SOL    HW285272   0.872   9.598   9.198 -0.4521 -0.8343  0.8353
28232SOL     OW85273   6.076   5.675   7.699  0.4939 -0.1872 -0.5279
28232SOL    HW185274   6.038   5.754   7.738  0.5318 -0.1462 -0.5728
28232SOL    HW285275   6.011   5.606   7.715 -0.1183  0.1145 -1.5855
28233SOL     OW85276   8.552   3.400   4.984 -0.0178  0.4676  0.3595
28233SOL    HW185277   8.554   3.404   5.080 -1.7917 -0.6164  0.4867
28233SOL    HW285278   8.642   3.417   4.958  0.4515  1.0957  2.2026
28234SOL     OW85279   5.955   7.246   0.128  0.1170  0.6442  0.5294
28234SOL    HW185280   5.969   7.340   0.113 -0.5287  0.6506 -0.1503
28234SOL    HW285281   5.874   7.227   0.080  2.1286 -1.0283 -2.5545
28235SOL     OW85282   0.001   2.704   2.659  0.1848 -0.1527 -0.5943
28235SOL    HW185283   0.087   2.696   2.700  0.7138  0.0268 -1.6200
28235SOL    HW285284  -0.018   2.617   2.625 -0.3943 -0.3786  0.3006
28236SOL     OW85285   8.112   2.924   0.162  0.6387  0.3803  0.6748
28236SOL    HW185286   8.062   2.950   0.084 -0.9612 -0.9057  1.1988
28236SOL    HW285287   8.052   2.942   0.235  0.4263 -2.2889  1.2395
28237SOL     OW85288   4.248   2.642   7.658 -0.3031 -0.7439  0.2621
28237SOL    HW185289   4.230   2.704   7.728  0.5333 -2.4053  2.0598
28237SOL    HW285290   4.329   2.674   7.617  0.9108 -1.3159  2.0787
28238SOL     OW85291   6.800   2.174   4.153 -0.3478  0.1952 -0.2978
28238SOL    HW185292   6.775   2.124   4.075 -0.0168  0.5890 -0.6617
28238SOL    HW285293   6.718   2.194   4.196 -0.4626 -1.1263  0.1487
28239SOL     OW85294   1.163   8.144   2.126 -0.1907  0.7564 -0.2001
28239SOL    HW185295   1.088   8.090   2.100  0.7915 -1.3867  1.0771
28239SOL    HW285296   1.179   8.201   2.051 -1.0617 -1.0657 -1.8613
28240SOL     OW85297   3.871   7.811   3.522 -0.4998 -0.2851  0.6746
28240SOL    HW185298   3.945   7.871   3.530 -0.6472  0.1336 -0.7474
28240SOL    HW285299   3.835   7.829   3.435 -1.7022 -1.1331  0.9655
28241SOL     OW85300   0.713   2.572   5.193  0.2205  0.0004  0.4918
28241SOL    HW185301   0.760   2.615   5.264 -1.4372  0.8634  1.1238
28241SOL    HW285302   0.657   2.640   5.156  0.8098 -0.5074 -1.4676
28242SOL     OW85303   3.862   9.848   9.071 -0.4786 -0.0509  0.3251
28242SOL    HW185304   3.952   9.844   9.039 -0.8386  1.0896 -0.9389
28242SOL    HW285305   3.820   9.770   9.035 -0.2986  0.0444 -0.1009
28243SOL     OW85306   5.808   3.451   7.458 -0.0424 -0.1864  0.3770
28243SOL    HW185307   5.903   3.442   7.454  0.1199  1.6871 -1.0038
28243SOL    HW285308   5.775   3.389   7.393  0.0228 -2.4591  2.3584
28244SOL     OW85309   0.323   5.563   1.379 -0.5832  0.5528  0.1270
28244SOL    HW185310   0.311   5.471   1.357 -0.2614  0.7282 -0.8259
28244SOL    HW285311   0.243   5.587   1.425 -1.9425  0.5347 -2.1320
28245SOL     OW85312   9.249   2.764   3.223  1.0691 -0.1349 -0.3538
28245SOL    HW185313   9.208   2.811   3.296  0.8988  2.1331 -1.8165
28245SOL    HW285314   9.197   2.684   3.214  0.2216  0.2080  1.1095
28246SOL     OW85315   8.004   5.988   4.617  0.0355  0.4117  0.4633
28246SOL    HW185316   7.998   5.897   4.645  0.2532 -0.5016 -2.2058
28246SOL    HW285317   8.080   6.023   4.664 -0.3330 -0.5900  1.8710
28247SOL     OW85318   7.358   0.455   8.953  0.0569  0.1388  0.2071
28247SOL    HW185319   7.370   0.483   9.043 -1.2254 -0.0409  0.4465
28247SOL    HW285320   7.292   0.386   8.957 -1.0764  1.1000 -1.0036
28248SOL     OW85321   3.374   2.706   6.653 -0.3356 -0.0563  0.3657
28248SOL    HW185322   3.420   2.759   6.717  2.3716 -1.8999  0.1147
28248SOL    HW285323   3.362   2.763   6.577 -2.8999  1.9116  2.0800
28249SOL     OW85324   5.133   5.037   4.696 -0.4575 -0.0847 -0.1324
28249SOL    HW185325   5.160   4.993   4.615  0.5548  0.3607 -0.0517
28249SOL    HW285326   5.155   5.129   4.682  1.3920 -0.2460  1.2899
28250SOL     OW85327   1.481   2.054   1.064  0.2898  0.2500 -0.1951
28250SOL    HW185328   1.572   2.068   1.040  0.5977 -0.9821  0.1633
28250SOL    HW285329   1.484   2.024   1.155 -0.4853  0.3350 -0.1311
28251SOL     OW85330   4.155   8.852   3.049  0.0383  0.2553  0.6764
28251SOL    HW185331   4.084   8.840   3.112  0.4812  0.6145  1.2507
28251SOL    HW285332   4.168   8.947   3.046  0.5919  0.1820  0.6915
28252SOL     OW85333   3.926   1.732   3.029  0.3862 -0.0886 -0.4537
28252SOL    HW185334   3.920   1.786   3.108 -0.9298 -1.0307  0.1211
28252SOL    HW285335   3.878   1.782   2.963  0.2017  0.0124 -0.2486
28253SOL     OW85336   1.411   4.786   5.340  0.0920 -0.4599 -0.3062
28253SOL    HW185337   1.470   4.837   5.285  1.6135  1.8313  3.1214
28253SOL    HW285338   1.468   4.726   5.387 -1.2519 -2.8052 -1.4855
28254SOL     OW85339   9.693   2.136   2.373  0.0685 -0.2166  0.1561
28254SOL    HW185340   9.725   2.127   2.283  0.1860 -0.7157  0.2466
28254SOL    HW285341   9.747   2.206   2.410  2.3887 -2.2496  0.8772
28255SOL     OW85342   8.657   2.978   2.527 -0.2951  0.5429 -0.4549
28255SOL    HW185343   8.562   2.979   2.534 -0.3349  1.2958 -0.9460
28255SOL    HW285344   8.688   2.955   2.614 -0.9406 -0.4222 -0.4740
28256SOL     OW85345   0.550   0.155   9.156  0.0309 -0.3988  0.3861
28256SOL    HW185346   0.589   0.069   9.137 -1.0567 -0.5395 -1.4181
28256SOL    HW285347   0.459   0.136   9.177 -0.4216  0.3439 -0.7881
28257SOL     OW85348   5.497   4.083   2.841 -0.5115  0.1532 -0.5867
28257SOL    HW185349   5.408   4.053   2.820 -0.6115 -0.2831  0.3715
28257SOL    HW285350   5.486   4.173   2.870 -0.6389  0.1187 -0.5260
28258SOL     OW85351   5.579   7.792   9.623 -0.2913 -0.4985  0.1732
28258SOL    HW185352   5.605   7.802   9.714  0.8663 -0.0510 -0.1808
28258SOL    HW285353   5.632   7.718   9.592  0.3299  0.1977 -0.4728
28259SOL     OW85354   0.115   9.339   0.395  0.3309  0.4460  0.1454
28259SOL    HW185355   0.136   9.364   0.305 -1.2292  0.9390 -0.1254
28259SOL    HW285356   0.127   9.419   0.446  1.1859  0.1750  0.3731
28260SOL     OW85357   2.377   3.667   0.380 -0.4468  0.5413  0.8836
28260SOL    HW185358   2.335   3.652   0.465  0.6554  1.4045  1.6088
28260SOL    HW285359   2.431   3.744   0.394  0.6869 -0.0120 -0.2666
28261SOL     OW85360   9.568   0.626   7.160 -0.5780 -0.4671  0.0085
28261SOL    HW185361   9.583   0.632   7.254  1.5749  0.1503 -0.3251
28261SOL    HW285362   9.585   0.714   7.127 -0.2246 -0.9341 -1.1034
28262SOL     OW85363   6.295   5.618   2.078 -0.3134 -0.1827  0.3292
28262SOL    HW185364   6.368   5.629   2.140 -0.5470 -0.2294  0.6139
28262SOL    HW285365   6.218   5.605   2.134 -0.1622 -2.8443  0.0708
28263SOL     OW85366   4.531   7.554   8.423 -0.8278 -0.0148  0.2410
28263SOL    HW185367   4.584   7.492   8.474  0.0543  0.5056 -0.0328
28263SOL    HW285368   4.587   7.631   8.413 -0.9366 -0.1498 -1.6224
28264SOL     OW85369   5.791   9.010   5.661 -0.0940 -0.2195 -0.1775
28264SOL    HW185370   5.700   8.983   5.649 -0.1779 -0.5485  1.1120
28264SOL    HW285371   5.786   9.105   5.674 -0.4460 -0.4535  1.5845
28265SOL     OW85372   7.829   8.926   7.110  0.0712  0.4085 -0.3572
28265SOL    HW185373   7.755   8.867   7.126 -0.0427  0.6712  0.1254
28265SOL    HW285374   7.895   8.899   7.174  1.3258 -1.3486 -2.3096
28266SOL     OW85375   6.070   4.297   1.864  0.1312 -0.9346  0.0583
28266SOL    HW185376   6.022   4.362   1.812 -0.7993 -0.2076  1.7357
28266SOL    HW285377   6.007   4.226   1.878  1.0387 -2.1171 -1.4848
28267SOL     OW85378   1.958   1.655   0.258 -0.2982  0.0751 -0.4471
28267SOL    HW185379   1.972   1.649   0.164  0.6375  1.4635 -0.4289
28267SOL    HW285380   2.030   1.606   0.297 -1.3370 -1.5221 -0.4201
28268SOL     OW85381   7.391   1.744   9.016 -0.0257 -0.3352 -0.3370
28268SOL    HW185382   7.393   1.696   8.933 -0.8382 -0.5945 -0.2169
28268SOL    HW285383   7.306   1.722   9.054  0.6390 -0.7963  0.9174
28269SOL     OW85384   8.747   7.918   5.612  0.3939  0.2956  0.1116
28269SOL    HW185385   8.815   7.936   5.676  1.0301 -1.3362 -0.0473
28269SOL    HW285386   8.706   8.003   5.595  1.4254  1.0605  1.2824
28270SOL     OW85387   0.320   1.836   8.172  0.3500 -0.0941  0.3106
28270SOL    HW185388   0.373   1.780   8.230  2.2497 -0.3289 -1.5331
28270SOL    HW285389   0.264   1.775   8.125 -0.5184  0.0023  1.1983
28271SOL     OW85390   8.536   4.899   9.769  0.1171 -0.4303  0.1819
28271SOL    HW185391   8.480   4.937   9.837  0.4059 -0.5011  0.4647
28271SOL    HW285392   8.541   4.806   9.792  2.7243  0.0420  1.8999
28272SOL     OW85393   8.622   4.272   3.955  0.3498  0.1184 -0.0549
28272SOL    HW185394   8.654   4.226   4.032  0.1116 -1.5925 -0.9204
28272SOL    HW285395   8.662   4.359   3.960  1.7602 -0.5542  1.0464
28273SOL     OW85396   0.562   2.225   2.200  0.6929  0.0033  0.0760
28273SOL    HW185397   0.627   2.204   2.267  0.3386  0.5100  0.5879
28273SOL    HW285398   0.549   2.320   2.209  0.3286  0.0009 -0.4275
28274SOL     OW85399   0.284   0.488   6.440  0.4294 -0.3063 -0.2765
28274SOL    HW185400   0.275   0.466   6.532 -0.4459  1.9045  0.2509
28274SOL    HW285401   0.337   0.418   6.403  0.3085 -1.5561  1.7635
28275SOL     OW85402   3.792   6.553   6.049  0.2788 -0.2061 -0.5345
28275SOL    HW185403   3.725   6.613   6.017  0.1353  0.3701  0.7768
28275SOL    HW285404   3.759   6.466   6.027 -0.6038  0.0997 -0.4522
28276SOL     OW85405   2.254   3.120   0.380  0.6297  0.3349  0.7231
28276SOL    HW185406   2.312   3.191   0.356 -0.4288  0.8243 -0.4937
28276SOL    HW285407   2.191   3.114   0.308  0.3342 -1.4411  1.0791
28277SOL     OW85408   4.650   6.281   2.577 -0.2752 -0.3618  0.2356
28277SOL    HW185409   4.567   6.236   2.561  0.6396 -2.2366  0.5477
28277SOL    HW285410   4.705   6.257   2.502  0.2013  0.3759  0.3353
28278SOL     OW85411   1.838   7.667   0.880  0.9448  0.1399  0.0023
28278SOL    HW185412   1.823   7.755   0.845 -0.6924 -0.8335 -1.9150
28278SOL    HW285413   1.780   7.661   0.955 -0.7416 -0.0631 -1.2706
28279SOL     OW85414   5.370   8.109   6.470 -0.0433 -0.0008 -0.8020
28279SOL    HW185415   5.400   8.197   6.493 -0.8613 -0.3221  1.8397
28279SOL    HW285416   5.276   8.109   6.491  0.1173 -1.7191  0.1626
28280SOL     OW85417   1.519   5.045   8.229 -0.0626  0.4743  0.5615
28280SOL    HW185418   1.484   5.085   8.308  0.8133 -0.9152  1.7028
28280SOL    HW285419   1.600   5.093   8.212  0.2825  0.1128  1.1382
28281SOL     OW85420   0.013   1.118   1.314  0.3123 -0.0595  0.3819
28281SOL    HW185421   0.017   1.168   1.233 -0.2875 -2.4980 -1.2830
28281SOL    HW285422   0.094   1.140   1.360  0.4987  1.6613 -0.6905
28282SOL     OW85423   7.100   1.791   1.548  0.0007  0.1099 -0.1224
28282SOL    HW185424   7.128   1.710   1.590 -0.5040 -0.4877 -0.9041
28282SOL    HW285425   7.107   1.773   1.454  1.0035  1.3727 -0.3230
28283SOL     OW85426   6.855   1.061   0.312 -0.3227 -0.3911  0.1068
28283SOL    HW185427   6.813   1.077   0.396 -2.5238  0.0158 -1.0068
28283SOL    HW285428   6.941   1.102   0.320 -1.7541  2.7094  1.0505
28284SOL     OW85429   7.357   5.770   8.084  0.1518 -0.3658  0.0239
28284SOL    HW185430   7.339   5.809   8.169  0.6633 -1.0932  0.4712
28284SOL    HW285431   7.273   5.735   8.055  0.0999 -0.6255  0.4933
28285SOL     OW85432   2.042   2.189   5.023 -0.3389 -0.2174 -0.0367
28285SOL    HW185433   1.960   2.156   5.060 -0.4085 -0.2647 -0.2293
28285SOL    HW285434   2.031   2.179   4.928 -1.1456  2.1012 -0.2685
28286SOL     OW85435   1.835   6.716   5.001 -0.1907 -0.1240  0.5789
28286SOL    HW185436   1.875   6.642   4.954 -0.0255  0.4960 -0.2802
28286SOL    HW285437   1.905   6.781   5.008 -1.0818  1.1116 -1.2308
28287SOL     OW85438   6.838   2.912   9.098 -0.1556  0.5267 -0.2020
28287SOL    HW185439   6.794   2.995   9.115 -0.0470  0.3598  1.0106
28287SOL    HW285440   6.931   2.931   9.110 -0.0553  0.4137 -0.7583
28288SOL     OW85441   8.994   6.837   0.815 -0.0548  0.2566  0.8591
28288SOL    HW185442   9.019   6.790   0.895 -3.1117 -0.5424  1.4690
28288SOL    HW285443   9.039   6.790   0.745  1.6442  0.1626  1.9545
28289SOL     OW85444   1.474   3.528   7.685 -0.2356  0.4187 -0.2821
28289SOL    HW185445   1.480   3.435   7.706  3.2650  0.5266 -0.3122
28289SOL    HW285446   1.455   3.531   7.591 -1.6754 -0.1835 -0.0394
28290SOL     OW85447   0.220   9.669   2.141  0.1881 -0.3862 -0.2229
28290SOL    HW185448   0.151   9.614   2.106 -0.3558 -0.2854  0.6694
28290SOL    HW285449   0.232   9.639   2.231  2.1622 -1.2305 -0.7047
28291SOL     OW85450   2.207   1.909   9.713  0.2390 -0.2438  0.9949
28291SOL    HW185451   2.135   1.847   9.728  0.4482 -0.6622  0.3250
28291SOL    HW285452   2.244   1.882   9.629  1.2986 -0.1378  1.4215
28292SOL     OW85453   8.000   4.033   9.886 -0.1593 -0.4651  0.2896
28292SOL    HW185454   7.948   4.056   9.963  1.5286  3.5036  0.5223
28292SOL    HW285455   8.091   4.041   9.916  0.5412 -0.7268 -1.6363
28293SOL     OW85456   1.542   9.949   4.348 -0.6411 -0.3432 -0.3695
28293SOL    HW185457   1.531   9.874   4.406 -1.1934 -0.5540 -0.7385
28293SOL    HW285458   1.490  10.018   4.389 -0.7104 -0.3725 -0.4090
28294SOL     OW85459   3.287   1.422   5.360  0.5969  0.0537 -0.0386
28294SOL    HW185460   3.286   1.498   5.302  0.2962  0.4721  0.5105
28294SOL    HW285461   3.380   1.406   5.376  0.6792  0.0240 -0.5110
28295SOL     OW85462   8.372   5.387   9.735  0.2576  0.1584 -0.1357
28295SOL    HW185463   8.389   5.309   9.681  2.2755  1.0061 -0.8375
28295SOL    HW285464   8.284   5.414   9.711 -0.8386 -2.3458  0.7389
28296SOL     OW85465   6.627   6.170   0.811 -0.1218  0.3442  0.3569
28296SOL    HW185466   6.660   6.259   0.803 -1.5850  1.0720  1.7043
28296SOL    HW285467   6.681   6.118   0.751  0.5357  2.1804 -0.7183
28297SOL     OW85468   8.691   5.323   5.397  0.1604  0.3669 -0.1495
28297SOL    HW185469   8.622   5.341   5.334 -0.9054 -1.8893  0.2653
28297SOL    HW285470   8.729   5.240   5.368  2.1952  1.1554  0.0931
28298SOL     OW85471   3.578   4.903   1.178  0.5925  0.3837 -0.4237
28298SOL    HW185472   3.622   4.874   1.098 -0.1340  1.1626 -1.1226
28298SOL    HW285473   3.493   4.934   1.149 -0.1224 -0.3411  0.8072
28299SOL     OW85474   3.810   4.535   4.980 -0.0351  0.2790  0.4261
28299SOL    HW185475   3.775   4.529   4.891 -0.9397  1.0592  0.7085
28299SOL    HW285476   3.785   4.622   5.010  1.5275  0.5806  0.9428
28300SOL     OW85477   6.225   5.194   3.775  0.2682 -0.3087 -0.3717
28300SOL    HW185478   6.148   5.235   3.735  0.6582 -1.1394 -2.0377
28300SOL    HW285479   6.208   5.199   3.870 -2.2566 -1.2813 -0.6919
28301SOL     OW85480   1.436   0.898   3.915 -0.4746  0.0694  0.2520
28301SOL    HW185481   1.373   0.962   3.882 -0.1388 -0.5745 -1.8493
28301SOL    HW285482   1.385   0.817   3.927 -0.0463 -0.5970 -1.9494
28302SOL     OW85483   8.329   2.160   8.049  0.0305  0.1026 -0.3270
28302SOL    HW185484   8.392   2.107   8.098 -0.0013  1.0384  0.7568
28302SOL    HW285485   8.355   2.250   8.067 -0.0966  0.4834 -1.9030
28303SOL     OW85486   7.362   1.151   8.631  0.0124 -0.5641 -0.2888
28303SOL    HW185487   7.456   1.168   8.628 -0.0278 -0.0380  0.8820
28303SOL    HW285488   7.345   1.095   8.555  1.2037 -0.3713 -0.7122
28304SOL     OW85489   4.957   8.487   5.942  0.6086 -0.0265 -0.0406
28304SOL    HW185490   4.913   8.413   5.899 -0.0390  0.6204 -0.5217
28304SOL    HW285491   5.047   8.483   5.910  0.0088  0.8007 -2.0388
28305SOL     OW85492   9.461   4.947   5.610 -0.5472 -0.1898 -0.6662
28305SOL    HW185493   9.474   4.881   5.542 -1.2804 -0.0233 -0.9744
28305SOL    HW285494   9.517   4.919   5.682 -1.3248 -1.4971 -0.5437
28306SOL     OW85495   7.999   5.718   5.784  0.0598 -0.7691  0.1750
28306SOL    HW185496   7.992   5.806   5.747 -1.3804 -1.2728 -0.8186
28306SOL    HW285497   8.087   5.690   5.760  0.0288 -0.1390 -0.7558
28307SOL     OW85498   4.058   9.729   2.946  0.2928  0.1847 -0.2406
28307SOL    HW185499   4.097   9.709   3.031 -0.1614  2.5043  0.5683
28307SOL    HW285500   3.999   9.803   2.962 -0.6452 -0.0083 -2.3737
28308SOL     OW85501   8.697   5.981   1.341 -0.5678  0.4498  0.4974
28308SOL    HW185502   8.660   5.914   1.284 -0.0150 -1.0441  1.8308
28308SOL    HW285503   8.645   5.977   1.420  0.5557  0.3592  1.2607
28309SOL     OW85504   5.773   8.829   4.169  0.2482  0.2104 -0.1285
28309SOL    HW185505   5.842   8.792   4.113  1.2744 -2.4788  2.6107
28309SOL    HW285506   5.703   8.764   4.167 -0.2869  0.7462  0.6023
28310SOL     OW85507   4.043   9.216   7.729 -0.2478 -0.6942 -0.2045
28310SOL    HW185508   4.098   9.177   7.660  0.2875 -2.0410  0.9366
28310SOL    HW285509   3.958   9.175   7.717 -0.1150 -1.0382  0.0276
28311SOL     OW85510   2.582   3.447   6.143 -0.1671  0.3268 -0.0804
28311SOL    HW185511   2.500   3.466   6.189 -0.6126 -0.4135 -0.5431
28311SOL    HW285512   2.564   3.367   6.093  0.4195  0.8953 -1.2527
28312SOL     OW85513   8.810   5.988   1.714 -0.2776  0.3150 -0.1917
28312SOL    HW185514   8.722   5.987   1.752 -0.5291  1.2226 -0.7191
28312SOL    HW285515   8.810   6.064   1.656  0.9694  0.5254  0.0540
28313SOL     OW85516   3.888   2.807   7.399  0.1886 -0.3812 -0.0664
28313SOL    HW185517   3.938   2.735   7.438  0.0358 -1.1475 -1.2613
28313SOL    HW285518   3.945   2.883   7.410  0.2807 -0.6286  1.3645
28314SOL     OW85519   1.377   9.864   8.036  0.1347 -0.0845  0.3550
28314SOL    HW185520   1.326   9.853   8.116  0.3715 -0.5038  0.4501
28314SOL    HW285521   1.317   9.907   7.975 -1.2715 -2.9400 -0.4628
28315SOL     OW85522   4.810   2.083   9.903  0.2505 -0.2264  0.5273
28315SOL    HW185523   4.864   2.006   9.885 -0.2367 -0.4359 -0.1031
28315SOL    HW285524   4.847   2.121   9.982  0.7196 -0.9122  0.6447
28316SOL     OW85525   2.375   5.421   1.512 -0.0673  0.1669  0.3701
28316SOL    HW185526   2.415   5.340   1.482  2.3582  1.7267 -0.9718
28316SOL    HW285527   2.418   5.441   1.595 -1.3086 -0.3264  1.1596
28317SOL     OW85528   6.397   1.465   1.452  0.9527  0.0884 -0.5836
28317SOL    HW185529   6.405   1.538   1.391  0.3299  0.8352  0.1986
28317SOL    HW285530   6.370   1.505   1.535  0.7490 -1.0093 -0.0937
28318SOL     OW85531   9.695   1.181   2.437 -0.2904  0.4062  0.0596
28318SOL    HW185532   9.649   1.152   2.516 -0.0383  0.9513  0.4088
28318SOL    HW285533   9.678   1.112   2.373  0.4240 -0.6091  0.9182
28319SOL     OW85534   8.598   1.780   3.995  0.5120  0.8885  0.1630
28319SOL    HW185535   8.678   1.793   3.945  1.4268 -0.8762  1.0948
28319SOL    HW285536   8.626   1.745   4.079 -1.2247  0.4747  0.6250
28320SOL     OW85537   2.040   7.351   6.242  0.0270 -0.5075 -0.3031
28320SOL    HW185538   1.972   7.284   6.249  0.6472 -1.1019  0.2435
28320SOL    HW285539   2.069   7.365   6.333 -2.1192  2.6797  0.0458
28321SOL     OW85540   3.437   9.860   9.157 -0.7685  0.1243 -0.7668
28321SOL    HW185541   3.424   9.921   9.230 -2.2361  0.1434 -1.0237
28321SOL    HW285542   3.518   9.891   9.114  0.5298 -0.3044  1.2263
28322SOL     OW85543   2.407   1.875   9.241  0.0051 -0.1931  0.5590
28322SOL    HW185544   2.453   1.959   9.248  0.9932 -0.6598 -0.1327
28322SOL    HW285545   2.321   1.897   9.204 -0.1196  0.6227  1.3130
28323SOL     OW85546   5.237   6.942   2.169 -0.7233  0.3426  0.8918
28323SOL    HW185547   5.197   6.866   2.213  0.8441 -0.9109  0.2413
28323SOL    HW285548   5.198   6.943   2.082  0.2751 -0.6141  0.4100
28324SOL     OW85549   8.766   0.986   3.874 -0.4323 -0.3704 -0.2121
28324SOL    HW185550   8.685   0.954   3.835 -0.1840  0.4221 -1.4582
28324SOL    HW285551   8.809   1.034   3.803  1.0031 -0.5512  0.4942
28325SOL     OW85552   8.375   9.987   9.075  0.3138 -0.5155  0.1886
28325SOL    HW185553   8.369   9.950   8.987  1.3345 -1.5029  0.5027
28325SOL    HW285554   8.438   9.931   9.120  1.2979  1.1354  0.9617
28326SOL     OW85555   8.257   4.946   3.578 -0.0360 -0.0089  0.7254
28326SOL    HW185556   8.205   4.873   3.611  0.3108 -0.9618 -0.7631
28326SOL    HW285557   8.196   5.019   3.574 -1.2600 -1.0736 -0.8757
28327SOL     OW85558   6.691   6.663   1.680 -0.4434  0.5836  0.5835
28327SOL    HW185559   6.611   6.704   1.713  0.1097  1.7058  0.5959
28327SOL    HW285560   6.675   6.651   1.586 -1.0112 -0.1531  0.7721
28328SOL     OW85561   2.760   5.559   8.832 -0.0820 -0.4824  0.0370
28328SOL    HW185562   2.713   5.489   8.876  0.8850 -1.5455 -0.5747
28328SOL    HW285563   2.769   5.529   8.741  1.6384 -0.2782  0.0967
28329SOL     OW85564   9.574   5.403   3.835  0.5428  0.8425 -0.4381
28329SOL    HW185565   9.597   5.313   3.859 -2.4460 -0.3600 -1.5710
28329SOL    HW285566   9.591   5.454   3.914  0.8310 -1.0237  0.7775
28330SOL     OW85567   2.630   7.432   5.521 -1.0354  0.2278 -0.2070
28330SOL    HW185568   2.537   7.452   5.507 -1.0788  0.0522 -0.1753
28330SOL    HW285569   2.654   7.481   5.600 -0.8628  0.9970 -0.7290
28331SOL     OW85570   1.247   1.476   8.398  0.5337  0.9036  0.3835
28331SOL    HW185571   1.306   1.418   8.446  0.3968  0.2354 -0.2412
28331SOL    HW285572   1.177   1.495   8.459 -0.2801 -0.9309  0.0925
28332SOL     OW85573   7.290   3.602   6.072  0.5682 -0.1016 -0.4843
28332SOL    HW185574   7.307   3.693   6.094 -0.4948 -0.0875  0.3518
28332SOL    HW285575   7.199   3.587   6.099  0.7752 -1.4486 -0.4618
28333SOL     OW85576   9.478   0.979   3.656 -0.3027  0.4275 -0.3330
28333SOL    HW185577   9.406   0.980   3.592 -0.6920  1.6414  0.0963
28333SOL    HW285578   9.512   1.068   3.655 -0.8572  0.7094  1.7283
28334SOL     OW85579   8.756   6.435   5.171 -0.0021  0.0848 -0.1517
28334SOL    HW185580   8.698   6.504   5.203 -0.5023 -1.2206  1.8666
28334SOL    HW285581   8.839   6.481   5.152  0.0964  1.0746  2.3559
28335SOL     OW85582   4.571   1.903   9.762  0.1340  0.0368  0.5159
28335SOL    HW185583   4.543   1.816   9.735 -0.8674  0.1748  1.0749
28335SOL    HW285584   4.658   1.890   9.801  0.8179 -0.4257 -1.0668
28336SOL     OW85585   3.297   2.818   4.462  0.1158  0.6573  0.2602
28336SOL    HW185586   3.385   2.793   4.491  0.9784  1.3342 -1.5565
28336SOL    HW285587   3.305   2.822   4.366 -2.3180 -0.7651 -0.0773
28337SOL     OW85588   8.360   4.695   8.385  0.2540 -0.1055  0.6127
28337SOL    HW185589   8.300   4.729   8.318  0.1725  1.2388  1.3289
28337SOL    HW285590   8.303   4.665   8.455  0.3766  0.8619  1.1501
28338SOL     OW85591   7.135   7.963   8.326 -0.2294 -0.6865  0.1288
28338SOL    HW185592   7.114   7.995   8.414  0.3793  0.6247 -0.1693
28338SOL    HW285593   7.229   7.982   8.316 -0.2827 -0.8455 -0.7883
28339SOL     OW85594   9.368   8.310   9.105 -0.1875 -0.1650  0.4141
28339SOL    HW185595   9.425   8.387   9.119  0.0985 -0.3427  0.2462
28339SOL    HW285596   9.335   8.321   9.016  2.5322 -1.9247 -0.9478
28340SOL     OW85597   1.810   5.519   6.615  0.0605 -0.1334  0.0609
28340SOL    HW185598   1.887   5.567   6.585  0.7868  0.0443  2.0804
28340SOL    HW285599   1.841   5.467   6.689 -1.6450 -0.4377  0.6112
28341SOL     OW85600   7.054   2.067   9.693 -0.2751 -0.3117 -0.0699
28341SOL    HW185601   7.040   2.031   9.781 -2.1297 -2.2255 -1.0572
28341SOL    HW285602   7.146   2.051   9.675 -0.2158 -1.2554  0.9545
28342SOL     OW85603   1.844   0.991   1.889 -0.6259 -0.4519  0.0029
28342SOL    HW185604   1.905   1.035   1.830  0.0618 -0.2855  0.8199
28342SOL    HW285605   1.810   0.918   1.837 -1.3933  0.7005 -1.1920
28343SOL     OW85606   6.819   9.336   9.529 -0.3592  0.2342 -0.2708
28343SOL    HW185607   6.782   9.396   9.594 -1.1269 -1.7057  1.1930
28343SOL    HW285608   6.808   9.249   9.568  2.3364 -0.7651 -1.4739
28344SOL     OW85609   6.520   7.785   0.957  0.4171  0.8675  0.2265
28344SOL    HW185610   6.508   7.876   0.930  1.6720  0.8693 -0.3870
28344SOL    HW285611   6.585   7.750   0.896 -0.7197 -0.7176 -0.1323
28345SOL     OW85612   9.404   1.445   4.775 -0.5925  0.0132 -0.0402
28345SOL    HW185613   9.330   1.505   4.782  1.6022  2.8565  0.5818
28345SOL    HW285614   9.393   1.405   4.688 -1.4605  2.3710 -1.1305
28346SOL     OW85615   4.335   9.544   2.278 -0.8482  0.0911 -0.4521
28346SOL    HW185616   4.373   9.604   2.342  0.1388 -0.3061 -0.6553
28346SOL    HW285617   4.248   9.581   2.259  0.0191  1.9035 -1.1540
28347SOL     OW85618   1.230   0.372   3.815  0.0413 -0.0222  0.5770
28347SOL    HW185619   1.285   0.298   3.789 -0.8282 -0.4517 -0.1162
28347SOL    HW285620   1.278   0.450   3.786  0.3182 -0.3810  0.0595
28348SOL     OW85621   0.268   6.652   3.341 -0.5031 -0.0240 -0.0301
28348SOL    HW185622   0.315   6.681   3.420 -0.6785  0.1191  0.0208
28348SOL    HW285623   0.315   6.573   3.314  0.2725  0.5664 -0.4440
28349SOL     OW85624   9.284   8.535   1.689  0.1002 -0.6647  0.0566
28349SOL    HW185625   9.321   8.594   1.624 -0.5326 -1.1404 -0.7535
28349SOL    HW285626   9.344   8.461   1.691 -1.0617 -1.7107 -1.6899
28350SOL     OW85627   5.000   9.578   5.160 -0.1227  0.1784  0.8505
28350SOL    HW185628   4.923   9.554   5.210 -0.6899  1.4719  0.6456
28350SOL    HW285629   4.966   9.600   5.073  0.5757  0.0625  0.5394
28351SOL     OW85630   6.818   3.513   7.456  0.5317 -0.3353  0.1279
28351SOL    HW185631   6.807   3.554   7.542 -1.8826  1.5047 -0.9107
28351SOL    HW285632   6.887   3.449   7.468  2.2436  1.7864  2.7563
28352SOL     OW85633   2.264   5.611   0.046 -0.7114 -0.5730 -0.0593
28352SOL    HW185634   2.192   5.552   0.066 -0.4388 -0.3078  2.0276
28352SOL    HW285635   2.259   5.678   0.115  1.5875 -0.6438  0.2548
28353SOL     OW85636   6.739   0.903   2.104  0.3441  0.5650  0.3970
28353SOL    HW185637   6.805   0.845   2.141 -0.4120  0.8113  2.2089
28353SOL    HW285638   6.702   0.949   2.179  0.1913  2.6385 -0.8726
28354SOL     OW85639   7.526   6.388   2.878  0.6238 -0.2056 -0.0335
28354SOL    HW185640   7.539   6.402   2.784  1.9419 -0.1266  0.1436
28354SOL    HW285641   7.612   6.402   2.916 -0.1469  1.0125  1.3522
28355SOL     OW85642   0.229   4.966   1.324 -0.2325  0.0700 -0.2170
28355SOL    HW185643   0.282   5.022   1.381  0.4343  0.0147 -0.7735
28355SOL    HW285644   0.208   4.890   1.378  1.3098 -0.4937 -0.3629
28356SOL     OW85645   2.338   4.613   1.649 -0.5231  0.5197 -0.6540
28356SOL    HW185646   2.357   4.594   1.558 -1.1364 -0.6474 -0.5596
28356SOL    HW285647   2.243   4.624   1.652 -0.7861 -1.4993  0.1527
28357SOL     OW85648   6.997   6.256   3.090  0.1314  0.1933  0.6466
28357SOL    HW185649   6.973   6.214   3.007 -0.4662 -0.0615  0.9411
28357SOL    HW285650   6.939   6.333   3.095  0.0818  0.1402  0.8870
28358SOL     OW85651   4.203   4.399   8.554 -0.0294 -0.2585  0.0811
28358SOL    HW185652   4.270   4.415   8.488  0.3381 -2.9083 -0.2881
28358SOL    HW285653   4.125   4.442   8.519  0.8458  0.7686 -0.6881
28359SOL     OW85654   4.381   7.509   3.871  0.0301  0.0293 -0.2250
28359SOL    HW185655   4.337   7.559   3.802  0.4642  0.8515  0.0668
28359SOL    HW285656   4.311   7.485   3.932 -0.3504 -0.6687 -0.9198
28360SOL     OW85657   5.880   5.756   4.518 -0.4174 -0.0970  0.2500
28360SOL    HW185658   5.884   5.827   4.454  1.0625 -0.0937  0.2976
28360SOL    HW285659   5.812   5.781   4.579 -0.1936  1.0865  0.0274
28361SOL     OW85660   4.349   8.639   6.477  0.1911 -0.2530  0.4283
28361SOL    HW185661   4.304   8.724   6.480  0.2215 -0.0805 -2.0437
28361SOL    HW285662   4.385   8.634   6.388  1.6597 -2.1359  1.0603
28362SOL     OW85663   0.676   6.307   8.738  0.4445  0.5238 -0.1680
28362SOL    HW185664   0.708   6.269   8.656  0.9025  1.3913 -0.4103
28362SOL    HW285665   0.719   6.256   8.807  0.3055 -0.0066 -0.4741
28363SOL     OW85666   1.593   1.751   9.117  0.0718 -0.2883  0.2470
28363SOL    HW185667   1.679   1.769   9.154  0.1272  0.8256 -0.3695
28363SOL    HW285668   1.540   1.826   9.142  0.5958  1.4858 -3.3488
28364SOL     OW85669   4.780   8.618   3.536  0.1512 -0.0383  0.0002
28364SOL    HW185670   4.734   8.653   3.460 -0.3833  1.1701  0.8338
28364SOL    HW285671   4.845   8.557   3.500 -0.0434  0.5489 -1.4055
28365SOL     OW85672   7.961   9.053   7.387 -0.2841  0.4546  0.1047
28365SOL    HW185673   8.043   9.025   7.427  0.5592  3.4356  0.7578
28365SOL    HW285674   7.982   9.062   7.294 -0.3018 -0.1896  0.0379
28366SOL     OW85675   4.233   1.608   6.087  0.0615  0.2061  0.0844
28366SOL    HW185676   4.184   1.652   6.017  0.2078  0.4237  0.1189
28366SOL    HW285677   4.318   1.587   6.047 -0.4515 -1.1951 -0.3402
28367SOL     OW85678   5.144   5.368   5.560 -0.1354 -0.9655 -0.5006
28367SOL    HW185679   5.145   5.459   5.590  1.3922 -0.6712 -1.2941
28367SOL    HW285680   5.211   5.325   5.613 -0.0012 -1.3253 -0.9610
28368SOL     OW85681   9.342   5.838   5.968  0.0751 -0.4617 -0.3201
28368SOL    HW185682   9.322   5.921   6.011  0.0101 -0.1106 -1.0169
28368SOL    HW285683   9.413   5.858   5.908 -0.5318 -0.7073 -1.1349
28369SOL     OW85684   8.612   5.351   1.911  0.2531  0.1845  0.3575
28369SOL    HW185685   8.648   5.298   1.982 -0.2317 -1.0937 -0.3311
28369SOL    HW285686   8.518   5.353   1.929 -0.0732 -1.3755 -1.0211
28370SOL     OW85687   8.499   3.019   8.989  0.0739  0.3058  1.1156
28370SOL    HW185688   8.551   3.013   9.070 -0.6335 -1.1375  1.4898
28370SOL    HW285689   8.427   2.958   9.002 -0.3405  0.4342 -0.4110
28371SOL     OW85690   3.557   2.758   4.535  0.2116  0.3242  0.1511
28371SOL    HW185691   3.619   2.748   4.607 -0.6668  1.5306  1.1240
28371SOL    HW285692   3.599   2.819   4.475  0.0209  1.0751  0.7669
28372SOL     OW85693   8.175   7.698   3.001 -0.0309 -0.1233  0.0443
28372SOL    HW185694   8.088   7.660   3.010  0.3608 -0.9214  0.5690
28372SOL    HW285695   8.203   7.673   2.912  0.8177 -2.4284  0.8699
28373SOL     OW85696   9.809   2.383   1.348 -0.6039 -0.0842  0.0946
28373SOL    HW185697   9.735   2.322   1.340  0.8563 -2.0104  0.6565
28373SOL    HW285698   9.844   2.390   1.259 -0.1881 -0.8561  0.1909
28374SOL     OW85699   9.389   7.090   9.774 -0.8401  0.6957 -0.2757
28374SOL    HW185700   9.478   7.120   9.795 -0.4350  0.3788 -1.4485
28374SOL    HW285701   9.402   7.006   9.729 -1.7239  0.7549 -0.6640
28375SOL     OW85702   1.653   6.646   0.080 -0.0053  0.2147  0.5479
28375SOL    HW185703   1.622   6.559   0.054  0.4322  0.5060 -1.0437
28375SOL    HW285704   1.593   6.673   0.149 -0.7797 -0.9227  0.3450
28376SOL     OW85705   6.782   4.850   1.946 -0.2456 -0.1054 -0.1628
28376SOL    HW185706   6.809   4.758   1.949 -0.1176 -0.0538  0.4158
28376SOL    HW285707   6.766   4.873   2.037 -0.6363  0.3445 -0.3431
28377SOL     OW85708   7.898   6.647   9.321  0.0834  0.2732 -0.0890
28377SOL    HW185709   7.977   6.681   9.281  0.3517 -0.8924 -0.5786
28377SOL    HW285710   7.872   6.574   9.265  0.0141 -0.8781  1.3957
28378SOL     OW85711   7.937   4.146   7.987 -0.5229  0.2432  0.8197
28378SOL    HW185712   7.867   4.211   7.992  1.0894  2.2328 -0.3994
28378SOL    HW285713   7.940   4.121   7.895  2.7380  3.2828 -0.1759
28379SOL     OW85714   7.311   4.402   3.453 -0.2326 -0.8604 -0.5072
28379SOL    HW185715   7.251   4.410   3.379 -1.4552 -0.1653  0.5222
28379SOL    HW285716   7.255   4.404   3.531  1.2214  2.9884  0.7020
28380SOL     OW85717   6.273   8.742   6.159  0.1480 -0.0692 -0.1934
28380SOL    HW185718   6.280   8.800   6.235 -0.1594  0.6951 -0.7409
28380SOL    HW285719   6.277   8.654   6.196  4.2245  0.1756  0.4102
28381SOL     OW85720   0.314   8.721   3.982  0.5097  0.1516 -0.0206
28381SOL    HW185721   0.249   8.661   3.944  0.6896 -0.5823  0.7928
28381SOL    HW285722   0.262   8.783   4.033  0.3972 -0.1489  0.2422
28382SOL     OW85723   6.352   8.645   9.981 -0.5138 -0.3180 -0.0742
28382SOL    HW185724   6.360   8.703   9.905  1.0755 -0.7503 -0.2764
28382SOL    HW285725   6.353   8.557   9.945  2.4414 -0.6179  0.5034
28383SOL     OW85726   0.987   0.242   3.164  0.8059 -0.0852 -0.3184
28383SOL    HW185727   0.985   0.307   3.235  2.0130 -0.2355 -0.1247
28383SOL    HW285728   0.895   0.226   3.143  0.4721  0.9839  0.2780
28384SOL     OW85729   5.133   3.220   8.899 -0.1375 -0.5351  0.0187
28384SOL    HW185730   5.109   3.163   8.972 -1.5216  1.1416  0.9543
28384SOL    HW285731   5.189   3.287   8.938 -0.0152 -0.2179 -0.6858
28385SOL     OW85732   6.638   9.180   3.091 -0.1916 -0.0461 -0.6240
28385SOL    HW185733   6.636   9.268   3.054  1.5934 -0.3404 -1.5158
28385SOL    HW285734   6.728   9.168   3.121 -1.1284 -0.4242  2.4342
28386SOL     OW85735   2.043   7.093   1.916  0.3442  0.1772  0.2070
28386SOL    HW185736   2.002   7.178   1.935  1.5175  0.9682 -0.6602
28386SOL    HW285737   1.969   7.032   1.908 -0.7137  1.5535 -1.2752
28387SOL     OW85738   2.628   8.311   8.713 -0.1070 -0.2541 -0.3233
28387SOL    HW185739   2.716   8.346   8.725 -1.2138  2.2635  1.6534
28387SOL    HW285740   2.622   8.238   8.775  0.5923 -0.4666 -0.5012
28388SOL     OW85741   1.474   9.650   7.555  0.1528  0.1250 -0.1585
28388SOL    HW185742   1.432   9.717   7.502  0.3981 -1.7761 -2.9168
28388SOL    HW285743   1.423   9.649   7.637 -3.0143  0.2627 -1.9807
28389SOL     OW85744   3.866   0.694   8.791  0.1894 -0.0785  0.1428
28389SOL    HW185745   3.855   0.605   8.825  1.8955 -0.0308  0.9571
28389SOL    HW285746   3.956   0.717   8.815  0.4728  1.0960 -1.8630
28390SOL     OW85747   5.979   6.274   6.801 -0.0339 -0.2483 -0.2139
28390SOL    HW185748   6.013   6.291   6.713 -1.4891 -1.4557 -1.0586
28390SOL    HW285749   5.909   6.337   6.813  0.7018  0.4672  0.4443
28391SOL     OW85750   9.906   5.288   4.885 -0.3317 -0.0110 -0.2873
28391SOL    HW185751   9.916   5.216   4.822  1.5881 -2.2979  2.4041
28391SOL    HW285752   9.813   5.286   4.907 -0.5175 -0.9888 -1.0278
28392SOL     OW85753   1.551   4.557   5.419 -0.1587 -0.0684 -1.0369
28392SOL    HW185754   1.497   4.491   5.373  0.4133 -2.3152  1.2779
28392SOL    HW285755   1.610   4.505   5.473  0.7647  2.4018  0.4687
28393SOL     OW85756   0.858   7.911   0.255 -0.5472  0.1679 -0.4261
28393SOL    HW185757   0.790   7.893   0.190 -0.5051  1.4547 -0.8645
28393SOL    HW285758   0.816   7.970   0.317  0.3897  1.7102 -1.1932
28394SOL     OW85759   2.492   4.378   9.940  0.1100  0.5850  0.0689
28394SOL    HW185760   2.418   4.378   9.878  0.6216 -1.6542 -0.6220
28394SOL    HW285761   2.567   4.407   9.887  0.2904 -0.0707 -0.0476
28395SOL     OW85762   6.993  -0.009   0.770  0.0328  0.2368  0.3172
28395SOL    HW185763   6.914   0.045   0.775  2.3851  4.0021  0.7026
28395SOL    HW285764   7.019  -0.005   0.677 -0.4186 -1.4409  0.0787
28396SOL     OW85765   6.561   9.717   4.164 -0.1358 -0.1151 -0.5161
28396SOL    HW185766   6.657   9.720   4.168 -0.1839  1.8205 -0.0448
28396SOL    HW285767   6.533   9.728   4.255 -0.8195  0.6077 -0.8083
28397SOL     OW85768   9.859   9.706   4.538 -0.2377 -0.7535  0.0606
28397SOL    HW185769   9.841   9.750   4.455 -0.9094  1.3391  1.2569
28397SOL    HW285770   9.773   9.697   4.580  0.2545 -0.2969  1.2209
28398SOL     OW85771   0.440   6.857   3.233 -0.1148  0.2120  0.4317
28398SOL    HW185772   0.391   6.793   3.181 -0.6338  1.3193 -0.4886
28398SOL    HW285773   0.372   6.910   3.275  0.2739  1.2358 -0.1915
28399SOL     OW85774   5.479   1.176   0.665  0.0737  0.4861  0.5304
28399SOL    HW185775   5.394   1.143   0.693  0.0549  0.8029  0.8497
28399SOL    HW285776   5.533   1.097   0.653 -1.2328 -0.0465 -3.1022
28400SOL     OW85777   7.089   5.434   5.110  0.2896 -0.3104  0.3926
28400SOL    HW185778   7.030   5.491   5.159 -0.7998 -1.1568  0.1106
28400SOL    HW285779   7.058   5.439   5.020  1.2579 -0.0332  0.0586
28401SOL     OW85780   0.822   5.865   1.331  0.2034  0.1586  0.1185
28401SOL    HW185781   0.804   5.868   1.424  0.7232  0.6464  0.2119
28401SOL    HW285782   0.752   5.916   1.291  1.2721  1.9911  0.4683
28402SOL     OW85783   0.432   2.231   6.676 -0.0584  0.1412 -0.0255
28402SOL    HW185784   0.510   2.182   6.699 -0.5956 -0.7011  0.0415
28402SOL    HW285785   0.450   2.266   6.589  0.2479 -0.3490 -0.1582
28403SOL     OW85786   9.990   1.576   0.822 -0.6829 -0.3377 -0.4273
28403SOL    HW185787   9.932   1.527   0.763 -0.0535 -0.2216 -1.1672
28403SOL    HW285788   9.977   1.667   0.797  0.6042 -0.3839 -1.3633
28404SOL     OW85789   5.744   9.103   7.608 -0.2664 -0.3414  0.2496
28404SOL    HW185790   5.801   9.054   7.549 -0.1760 -0.1226  0.1560
28404SOL    HW285791   5.733   9.045   7.683 -0.1215 -0.4874  0.1597
28405SOL     OW85792   6.439   3.706   3.325  0.2988  0.1458 -0.7506
28405SOL    HW185793   6.489   3.728   3.246 -0.4621 -0.9022 -1.5595
28405SOL    HW285794   6.353   3.678   3.291 -0.6478  1.3099  0.5547
28406SOL     OW85795   1.369   5.982   2.824  0.5533  0.0541 -0.0167
28406SOL    HW185796   1.363   5.963   2.730 -1.0354 -1.3186  0.3066
28406SOL    HW285797   1.278   5.993   2.852  1.0740  1.7039  1.1420
28407SOL     OW85798   2.588   4.529   6.194  0.0528  0.3896 -0.6395
28407SOL    HW185799   2.606   4.562   6.106  1.9504 -0.7740 -0.7412
28407SOL    HW285800   2.571   4.435   6.182 -0.7102  0.4114  0.1298
28408SOL     OW85801   6.694   5.450   6.763  0.3591 -0.4536  0.3852
28408SOL    HW185802   6.618   5.412   6.808  0.0144 -0.7278 -0.4232
28408SOL    HW285803   6.750   5.375   6.744  0.3527 -0.3754  0.0663
28409SOL     OW85804   1.141   8.438   1.488 -0.4391  0.3282 -0.3906
28409SOL    HW185805   1.077   8.510   1.485 -1.3460 -0.3958  0.7838
28409SOL    HW285806   1.197   8.459   1.562  0.4222  0.7059 -1.1218
28410SOL     OW85807   8.230   7.225   0.799  0.1035  0.0404  0.1566
28410SOL    HW185808   8.309   7.272   0.827  0.9431  0.3433 -2.4384
28410SOL    HW285809   8.158   7.270   0.843  1.2281  0.9855  1.0895
28411SOL     OW85810   8.510   0.077   0.009  0.0505 -0.3786 -0.6223
28411SOL    HW185811   8.521   0.034   0.093 -0.8906 -1.4670 -1.0348
28411SOL    HW285812   8.449   0.148   0.026  1.1039  0.4294 -0.0751
28412SOL     OW85813   3.724   3.053   5.133  0.4072  0.0111  0.2866
28412SOL    HW185814   3.800   3.109   5.116  0.2267 -0.4305 -2.3682
28412SOL    HW285815   3.681   3.045   5.048 -0.8337 -2.3349  1.0611
28413SOL     OW85816   7.588   0.802   3.870  0.0052 -0.1205  0.3470
28413SOL    HW185817   7.515   0.852   3.835 -0.1677 -1.7648 -1.8280
28413SOL    HW285818   7.614   0.849   3.949 -0.3192  3.1744 -1.3593
28414SOL     OW85819   1.876   4.100   4.861 -0.3654  0.2755  0.1873
28414SOL    HW185820   1.918   4.014   4.857  0.8869  0.8624  0.2456
28414SOL    HW285821   1.933   4.158   4.810 -1.3434  1.0221 -0.0985
28415SOL     OW85822   2.429   4.783   4.483 -0.6114  0.1830  0.0753
28415SOL    HW185823   2.413   4.709   4.543 -0.6816  0.9787  1.0628
28415SOL    HW285824   2.366   4.849   4.510  0.4126  1.1518  0.1603
28416SOL     OW85825   8.253   1.469   5.509 -0.1175  0.1113 -0.3852
28416SOL    HW185826   8.236   1.483   5.416 -0.5924  0.9338 -0.1854
28416SOL    HW285827   8.319   1.534   5.532  1.6372 -1.4919 -0.6088
28417SOL     OW85828   5.966   4.581   7.479 -0.4966  0.0905 -1.3649
28417SOL    HW185829   6.032   4.627   7.426 -0.1549  0.1667 -0.8871
28417SOL    HW285830   5.918   4.527   7.417  0.7947 -0.8854 -1.5673
28418SOL     OW85831   6.867   9.197   2.852  0.0132  0.1681 -0.4845
28418SOL    HW185832   6.938   9.155   2.803 -0.2522 -0.1330 -0.6134
28418SOL    HW285833   6.854   9.141   2.929 -0.4477 -0.0768 -0.7377
28419SOL     OW85834   9.309   9.922   8.875  0.3515 -0.8170 -0.1155
28419SOL    HW185835   9.294   9.923   8.781 -1.2180 -0.5789  0.1017
28419SOL    HW285836   9.315   9.829   8.897  1.2679 -0.8637 -0.5023
28420SOL     OW85837   2.951   6.608   5.200 -0.3567 -0.1496  0.4094
28420SOL    HW185838   3.032   6.581   5.244  0.1297 -0.0388 -0.3928
28420SOL    HW285839   2.979   6.674   5.137 -0.5950 -2.1024 -1.8817
28421SOL     OW85840   1.546   8.620   9.713  0.0258 -0.1844 -0.3116
28421SOL    HW185841   1.595   8.639   9.793  2.2356 -0.1979 -1.5960
28421SOL    HW285842   1.607   8.638   9.642 -1.0335 -2.5327 -1.9498
28422SOL     OW85843   5.643   5.292   5.444  0.6649  0.8768  0.1058
28422SOL    HW185844   5.623   5.359   5.378  2.3335  1.8769  0.5859
28422SOL    HW285845   5.726   5.253   5.415  1.5868  1.5427  1.7543
28423SOL     OW85846   5.788   6.120   6.036  0.6215 -0.0987  0.2271
28423SOL    HW185847   5.812   6.142   6.126 -0.8513  0.1493  0.5893
28423SOL    HW285848   5.781   6.024   6.036 -0.9289 -0.0211  0.8382
28424SOL     OW85849   0.558   4.784   9.254 -0.1824 -0.4690  0.1628
28424SOL    HW185850   0.533   4.716   9.192 -2.8809  1.0578 -0.6100
28424SOL    HW285851   0.504   4.768   9.331 -0.2059  0.2710  0.3093
28425SOL     OW85852   6.107   8.788   7.006 -0.0421  0.2537  0.6418
28425SOL    HW185853   6.178   8.734   6.972 -1.0686  0.6009 -2.2866
28425SOL    HW285854   6.071   8.832   6.929 -3.5577 -0.0639  1.9381
28426SOL     OW85855   4.846   7.344   5.636 -0.5909 -0.7488 -0.0390
28426SOL    HW185856   4.878   7.363   5.548 -1.1531 -2.6505 -0.6883
28426SOL    HW285857   4.840   7.249   5.640 -2.1259 -0.6425  1.5009
28427SOL     OW85858   8.677   8.656   9.203  0.0154 -0.4598  0.2436
28427SOL    HW185859   8.754   8.610   9.171 -0.3290 -2.0038  1.5112
28427SOL    HW285860   8.698   8.748   9.193  0.2628 -0.7552 -3.5614
28428SOL     OW85861   0.627   9.124   3.056  0.2033  0.5397 -0.2679
28428SOL    HW185862   0.701   9.141   3.114  0.9109 -3.1142  0.0978
28428SOL    HW285863   0.549   9.138   3.110  0.7269  0.7108  0.4501
28429SOL     OW85864   1.779   3.808   4.574  0.0722 -0.3337  0.1611
28429SOL    HW185865   1.735   3.888   4.545  1.5504  0.7031  0.6709
28429SOL    HW285866   1.741   3.739   4.520 -0.3309  0.8965 -1.1967
28430SOL     OW85867   9.776   1.592   5.921  0.2371 -0.2430  0.1521
28430SOL    HW185868   9.806   1.507   5.953  1.7470  0.3489  0.4315
28430SOL    HW285869   9.735   1.573   5.837 -0.9886 -1.4437  0.9789
28431SOL     OW85870   4.453   9.884   6.079  0.0132  0.0276 -0.4587
28431SOL    HW185871   4.425   9.854   5.992  1.1142 -0.4301 -0.6688
28431SOL    HW285872   4.542   9.851   6.089  0.2341  0.8389  0.4856
28432SOL     OW85873   7.264   5.978   6.247 -0.7798 -0.3926 -0.0032
28432SOL    HW185874   7.202   5.945   6.312 -2.5867  0.3179 -1.2771
28432SOL    HW285875   7.274   5.906   6.185  0.3142 -0.7838  0.6084
28433SOL     OW85876   4.176   8.629   6.196 -0.3055 -0.1682  0.0195
28433SOL    HW185877   4.268   8.643   6.219 -0.5582 -0.1381  1.0886
28433SOL    HW285878   4.146   8.713   6.162  0.5381 -0.6850 -2.1507
28434SOL     OW85879   9.656   1.509   7.127  0.4371  0.6888  0.0806
28434SOL    HW185880   9.614   1.426   7.103  1.8584  0.1192 -0.5888
28434SOL    HW285881   9.671   1.502   7.221 -0.4109  0.6504  0.2198
28435SOL     OW85882   6.713   5.452   7.242 -0.6758  0.4397  0.2071
28435SOL    HW185883   6.684   5.434   7.332  1.9209 -1.1736  0.7978
28435SOL    HW285884   6.798   5.494   7.252 -0.4432  0.4545 -1.5172
28436SOL     OW85885   5.798   0.910   6.302  0.4067 -0.0218  0.2667
28436SOL    HW185886   5.809   0.994   6.258 -1.5729  0.6129  0.8954
28436SOL    HW285887   5.888   0.881   6.321  1.1328  1.9452  0.0410
28437SOL     OW85888   3.944   1.577   8.034 -0.1997 -0.0082  0.4784
28437SOL    HW185889   3.873   1.537   8.085 -0.2339 -0.1250  0.3406
28437SOL    HW285890   3.920   1.670   8.029 -1.6885 -0.4219 -1.7004
28438SOL     OW85891   2.046   1.572   0.597 -0.0518  0.7834  0.6152
28438SOL    HW185892   2.037   1.486   0.638  2.1052 -0.2389 -0.8557
28438SOL    HW285893   1.958   1.610   0.601 -1.7070 -2.4598 -0.7863
28439SOL     OW85894   1.116   5.678   4.345 -0.1628 -0.0895 -0.5797
28439SOL    HW185895   1.098   5.598   4.396 -0.2219  0.5918  0.4912
28439SOL    HW285896   1.060   5.670   4.268  1.1331 -1.9302 -1.4029
28440SOL     OW85897   5.166   0.899   2.359 -0.0200 -0.4998  0.5402
28440SOL    HW185898   5.153   0.840   2.284  0.9624  0.3056 -0.3012
28440SOL    HW285899   5.197   0.981   2.320 -0.5071  0.2862  1.7610
28441SOL     OW85900   1.520   5.679   0.048 -0.4326  0.4548  0.1430
28441SOL    HW185901   1.429   5.707   0.037 -1.0629 -1.6536 -0.4347
28441SOL    HW285902   1.543   5.707   0.137 -0.7697  3.1706 -0.5338
28442SOL     OW85903   5.066   7.263   6.269 -0.5624  0.6247  0.0632
28442SOL    HW185904   5.019   7.186   6.300  0.6256 -0.5769 -0.9739
28442SOL    HW285905   5.061   7.325   6.341 -0.5857 -0.8641  1.4045
28443SOL     OW85906   0.381   5.036   9.754 -0.2739 -0.3200 -0.2714
28443SOL    HW185907   0.292   5.020   9.720 -0.1970 -1.2905 -0.0335
28443SOL    HW285908   0.373   5.119   9.802 -0.5302  0.7622 -2.0913
28444SOL     OW85909   9.568   9.167   3.422  0.1951 -0.4286 -0.6604
28444SOL    HW185910   9.480   9.156   3.388 -0.0764 -1.4893  0.3127
28444SOL    HW285911   9.567   9.121   3.506  1.2275  0.8684  0.1047
28445SOL     OW85912   8.138   2.666   9.751 -0.1334  0.0846  0.1882
28445SOL    HW185913   8.174   2.640   9.835  1.3982  0.1073 -0.4326
28445SOL    HW285914   8.078   2.595   9.728  0.9196 -0.9168  0.4024
28446SOL     OW85915   1.660   7.803   8.275 -0.1694 -0.5437  0.0483
28446SOL    HW185916   1.592   7.861   8.308 -0.7025 -1.0664 -0.1320
28446SOL    HW285917   1.736   7.822   8.330 -0.7903 -0.7876  1.0061
28447SOL     OW85918   3.632   6.269   0.818 -0.3159 -0.0648  0.0576
28447SOL    HW185919   3.575   6.226   0.881 -0.3564  1.5653  1.2080
28447SOL    HW285920   3.619   6.363   0.834  1.4540  0.3708 -0.7689
28448SOL     OW85921   0.824   1.979   5.862 -0.4222  0.3670  1.1229
28448SOL    HW185922   0.735   1.992   5.829 -0.7041 -0.9299  1.3215
28448SOL    HW285923   0.846   2.061   5.906 -0.9685  1.2302 -0.1595
28449SOL     OW85924   1.074   2.542   6.157  0.4614 -0.0442  0.3712
28449SOL    HW185925   1.000   2.593   6.123  0.5799  0.0594  0.2718
28449SOL    HW285926   1.118   2.508   6.080  1.3992  1.1238  0.3662
28450SOL     OW85927   7.662   3.665   6.179 -0.2117 -0.3186 -0.0833
28450SOL    HW185928   7.591   3.724   6.155 -0.4806 -0.8999 -0.7474
28450SOL    HW285929   7.672   3.607   6.104  2.7925  1.4297 -1.2567
28451SOL     OW85930   6.330   1.296   5.368 -0.4942  0.4775  0.1383
28451SOL    HW185931   6.322   1.381   5.411 -2.3046  0.3701  0.0685
28451SOL    HW285932   6.346   1.234   5.440 -0.0237  0.7502  0.2744
28452SOL     OW85933   9.098   7.556   6.232 -0.1532  0.2337 -0.4187
28452SOL    HW185934   9.160   7.535   6.301  1.4485  1.3812 -1.4306
28452SOL    HW285935   9.152   7.559   6.152 -1.9036 -0.9108 -1.7130
28453SOL     OW85936   9.371   6.627   2.616  0.2162  0.5430 -0.3144
28453SOL    HW185937   9.314   6.692   2.574 -0.4006  0.3662  0.2238
28453SOL    HW285938   9.456   6.669   2.622 -0.3387  1.5713  0.6332
28454SOL     OW85939   1.741   8.584   1.096  0.6119 -0.5257 -0.5693
28454SOL    HW185940   1.752   8.538   1.013 -0.8989 -0.5352 -0.7847
28454SOL    HW285941   1.738   8.514   1.161 -0.2179 -0.6629 -0.7401
28455SOL     OW85942   2.696   4.393   4.955 -0.0125  0.6486 -0.4877
28455SOL    HW185943   2.662   4.402   4.866  0.2613 -0.6027 -0.7378
28455SOL    HW285944   2.759   4.464   4.964 -1.1545  1.7132 -0.7503
28456SOL     OW85945   7.572   3.688   0.076  0.2153  0.2853  0.1245
28456SOL    HW185946   7.559   3.751   0.005  0.0514 -3.3731 -3.5012
28456SOL    HW285947   7.483   3.663   0.102  0.2585  0.2610  0.2490
28457SOL     OW85948   5.346   1.083   1.102 -0.2649  0.4761 -0.0120
28457SOL    HW185949   5.294   1.003   1.098  0.3579  0.0885 -0.6353
28457SOL    HW285950   5.300   1.145   1.046 -1.0009  0.7151  0.8413
28458SOL     OW85951   8.796   5.399   8.191  0.0385 -0.1819 -0.2442
28458SOL    HW185952   8.798   5.494   8.204 -0.6804  0.0253 -1.4582
28458SOL    HW285953   8.703   5.376   8.196  0.0840 -0.6172 -1.1504
28459SOL     OW85954   9.863   3.567   6.945  0.2257 -0.5269  0.2399
28459SOL    HW185955   9.912   3.608   6.874  1.4856  0.5224  1.6426
28459SOL    HW285956   9.911   3.591   7.024 -1.8139 -0.5996  1.5857
28460SOL     OW85957   7.057   7.402   7.745  0.1902 -0.4046  0.0073
28460SOL    HW185958   7.128   7.464   7.760  0.0312  0.1855 -1.5049
28460SOL    HW285959   7.027   7.421   7.656 -1.8055 -0.6900  0.5741
28461SOL     OW85960   1.010   4.102   9.720  0.8977 -0.0002  0.2268
28461SOL    HW185961   0.943   4.036   9.739 -0.9578  1.2749 -1.5228
28461SOL    HW285962   1.093   4.055   9.727 -0.2432 -2.0108  0.9858
28462SOL     OW85963   3.668   9.926   5.106 -0.0602 -0.1899 -0.1571
28462SOL    HW185964   3.597   9.937   5.169  1.2475 -0.7421  1.4568
28462SOL    HW285965   3.656   9.837   5.072  0.8151 -0.9387  1.3962
28463SOL     OW85966   2.406   0.403   1.537  0.7537  0.2646 -0.4668
28463SOL    HW185967   2.467   0.335   1.565 -0.7100 -0.7967  0.2573
28463SOL    HW285968   2.431   0.481   1.588  0.3653 -0.6629  1.1990
28464SOL     OW85969   3.457   7.010   7.977  0.2167 -0.0113 -0.7822
28464SOL    HW185970   3.479   6.921   7.947 -2.1121 -0.0822 -2.5159
28464SOL    HW285971   3.393   6.996   8.047 -2.4703  0.2301 -3.0550
28465SOL     OW85972   9.579   3.734   8.297  0.5276 -0.2318  0.1417
28465SOL    HW185973   9.601   3.804   8.236  1.5427 -0.2417  0.4854
28465SOL    HW285974   9.517   3.679   8.249  1.2724 -0.2109 -0.8716
28466SOL     OW85975   4.763   0.258   7.895 -0.1088  0.4466  0.3204
28466SOL    HW185976   4.813   0.241   7.975 -0.5559 -1.4000  0.2645
28466SOL    HW285977   4.675   0.226   7.915 -0.5005  0.9408 -0.5559
28467SOL     OW85978   2.937   0.377   7.065  0.1274 -0.4167  0.0417
28467SOL    HW185979   3.025   0.341   7.072 -0.8876 -3.0410  0.6354
28467SOL    HW285980   2.902   0.338   6.985 -0.2563  1.2789 -0.6613
28468SOL     OW85981   7.414   9.313   6.750 -0.4214 -0.3881  0.1453
28468SOL    HW185982   7.408   9.217   6.746 -0.0005 -0.4208  0.2619
28468SOL    HW285983   7.460   9.337   6.669  0.0795 -0.3392  0.4427
28469SOL     OW85984   3.938   4.219   9.264 -0.0933  0.1360  0.8331
28469SOL    HW185985   3.936   4.173   9.180 -0.8227  1.1196  0.2784
28469SOL    HW285986   3.996   4.167   9.319  1.3956  0.1169 -0.6695
28470SOL     OW85987   2.865   4.721   0.426 -0.3400 -0.0631  0.6403
28470SOL    HW185988   2.947   4.728   0.474 -0.3063  1.6565  0.4046
28470SOL    HW285989   2.837   4.812   0.413 -1.3059 -0.5383 -0.9319
28471SOL     OW85990   1.459   5.317   4.232 -0.3654  0.2539  0.1009
28471SOL    HW185991   1.409   5.373   4.291  0.1770  2.4741 -1.4112
28471SOL    HW285992   1.526   5.374   4.195  0.5835 -1.5499 -1.1420
28472SOL     OW85993   9.625   6.723   0.676  0.1390 -0.5623  0.4116
28472SOL    HW185994   9.717   6.697   0.686  0.9029  1.1256 -1.4195
28472SOL    HW285995   9.601   6.693   0.588  0.2172  2.2547 -0.6820
28473SOL     OW85996   4.657   6.004   2.207  0.2396  0.3424  0.1103
28473SOL    HW185997   4.640   5.912   2.225 -2.0825  0.7404  0.1661
28473SOL    HW285998   4.636   6.016   2.115  1.7628  0.5944 -0.2436
28474SOL     OW85999   3.907   6.783   3.761 -0.1818 -0.6778  0.6957
28474SOL    HW186000   3.934   6.716   3.698 -1.3294 -0.7083  0.2232
28474SOL    HW286001   3.922   6.742   3.847  2.4113 -0.2542  0.5411
28475SOL     OW86002   2.085   2.890   0.972  0.0622  0.9515  0.0769
28475SOL    HW186003   2.099   2.892   0.877 -2.2350 -0.0302 -0.3437
28475SOL    HW286004   2.141   2.819   1.003 -0.4354  0.1531 -0.8095
28476SOL     OW86005   5.307   7.494   2.295  0.2237  0.4922 -0.3326
28476SOL    HW186006   5.385   7.462   2.249 -1.1858 -0.2516 -2.3769
28476SOL    HW286007   5.328   7.585   2.317  1.3840  0.5609 -1.5769
28477SOL     OW86008   4.820   0.776   5.878 -0.2017 -0.0262  0.0302
28477SOL    HW186009   4.910   0.798   5.857 -1.1647  2.7146 -1.8388
28477SOL    HW286010   4.791   0.844   5.938 -0.7410 -1.5680  1.6196
28478SOL     OW86011   4.710   9.925   1.267 -0.2352  0.2113 -0.3322
28478SOL    HW186012   4.764   9.852   1.238  3.1931  2.5479 -0.4977
28478SOL    HW286013   4.675   9.963   1.186  0.4538  0.4442 -0.5306
28479SOL     OW86014   5.171   6.676   4.956 -0.0259  0.9449 -0.3996
28479SOL    HW186015   5.076   6.671   4.948 -0.1603  0.6884  1.0996
28479SOL    HW286016   5.185   6.707   5.046  1.3290 -0.5171 -0.0788
28480SOL     OW86017   3.376   5.179   1.558 -0.0648 -0.1313 -0.0917
28480SOL    HW186018   3.304   5.119   1.537  0.3687 -0.6502 -0.1286
28480SOL    HW286019   3.368   5.250   1.495 -0.4547 -0.2619 -0.1901
28481SOL     OW86020   9.003   0.469   0.802  0.2640 -0.1561 -0.0983
28481SOL    HW186021   9.007   0.382   0.762 -2.0809 -0.1726 -0.4239
28481SOL    HW286022   8.993   0.451   0.896  1.1690 -0.1875  0.0028
28482SOL     OW86023   1.421   1.513   3.245 -0.5752  0.5852 -0.6479
28482SOL    HW186024   1.505   1.482   3.280 -2.1224 -1.9331  1.1615
28482SOL    HW286025   1.370   1.536   3.322 -1.7576  1.5659 -1.6809
28483SOL     OW86026   9.319   9.139   3.769 -0.0540  0.3799 -0.1337
28483SOL    HW186027   9.387   9.098   3.715  0.7760  1.8355 -0.2463
28483SOL    HW286028   9.367   9.199   3.826 -1.1361  0.4733  0.6979
28484SOL     OW86029   1.092   0.373   4.192  0.0953  0.0838 -0.0493
28484SOL    HW186030   1.053   0.339   4.273  3.0919 -2.6540  0.4376
28484SOL    HW286031   1.143   0.449   4.220  2.9212 -2.0970  1.2966
28485SOL     OW86032   8.435   2.247   2.924  0.7795  0.0315 -0.3153
28485SOL    HW186033   8.346   2.217   2.905  1.4604 -1.5288 -1.2383
28485SOL    HW286034   8.459   2.299   2.848  0.7545  0.2732 -0.1612
28486SOL     OW86035   5.741   9.333   1.691  0.2538  0.2357 -0.2060
28486SOL    HW186036   5.665   9.373   1.648 -0.2474  0.2914  0.7061
28486SOL    HW286037   5.785   9.406   1.735  1.2750  0.3317 -1.3407
28487SOL     OW86038   2.263   3.796   5.212  0.5246  0.2071 -0.4744
28487SOL    HW186039   2.237   3.769   5.124  2.4318 -0.1853 -0.9495
28487SOL    HW286040   2.288   3.715   5.256  1.0004  0.5719 -0.0637
28488SOL     OW86041   7.455   4.344   1.674 -0.1666  0.6081 -0.4123
28488SOL    HW186042   7.402   4.393   1.611 -0.4161  1.2314  0.2673
28488SOL    HW286043   7.538   4.327   1.628  0.2036  2.3126 -0.4238
28489SOL     OW86044   4.914   7.381   6.080 -0.0454  0.0170  0.2085
28489SOL    HW186045   4.984   7.354   6.138 -0.0166 -1.1021 -0.3131
28489SOL    HW286046   4.957   7.395   5.995 -0.1936  0.9531  0.2781
28490SOL     OW86047   6.555   6.157   5.347 -0.4945  0.3420 -0.4579
28490SOL    HW186048   6.583   6.137   5.258  1.0391 -1.0991  0.3025
28490SOL    HW286049   6.518   6.245   5.341 -0.7637  0.1369 -2.5725
28491SOL     OW86050   1.737   1.888   1.028  0.7775 -0.3712 -0.4592
28491SOL    HW186051   1.806   1.898   0.963  0.5105  0.4656 -0.6159
28491SOL    HW286052   1.709   1.797   1.019 -1.1976  0.4147 -3.4592
28492SOL     OW86053   6.024   4.256   7.726  0.1218 -0.1929 -0.4192
28492SOL    HW186054   6.077   4.285   7.651 -0.8051 -0.6317 -1.2736
28492SOL    HW286055   6.050   4.165   7.740 -0.4265 -0.4292 -0.8811
28493SOL     OW86056   9.316   5.734   2.429 -0.7560 -0.1071  0.1259
28493SOL    HW186057   9.346   5.762   2.515  0.7887  0.5364 -0.5778
28493SOL    HW286058   9.275   5.812   2.392  1.4718  0.6613 -0.9269
28494SOL     OW86059   3.539   8.775   5.476  0.1961  0.2891 -0.1429
28494SOL    HW186060   3.568   8.751   5.388  1.7054  0.1622  0.3611
28494SOL    HW286061   3.451   8.738   5.483 -0.1179  0.6519 -1.7273
28495SOL     OW86062   1.894   5.557   8.811 -0.0915  0.2341  0.3664
28495SOL    HW186063   1.819   5.558   8.751  0.2822  0.7247 -0.1072
28495SOL    HW286064   1.856   5.565   8.898 -0.6904 -1.1375  0.2565
28496SOL     OW86065  10.003   0.592   5.685 -0.6815 -0.0865  0.1149
28496SOL    HW186066   9.999   0.496   5.688  0.0916 -0.1536 -0.6019
28496SOL    HW286067   9.915   0.621   5.710 -1.7449 -1.0308 -2.2806
28497SOL     OW86068   8.160   8.700   3.133  0.7639 -0.1265  0.0162
28497SOL    HW186069   8.229   8.714   3.069  0.7442 -2.0858 -0.5058
28497SOL    HW286070   8.108   8.780   3.131  2.8628  1.2967  0.2746
28498SOL     OW86071   5.620   4.465   9.109 -0.0362 -0.1754 -0.3095
28498SOL    HW186072   5.594   4.448   9.019 -0.0701  0.9519 -0.5219
28498SOL    HW286073   5.711   4.496   9.103 -0.1179  0.1368  0.0140
28499SOL     OW86074   4.926   8.362   6.559 -0.7387  0.1968 -0.0121
28499SOL    HW186075   4.844   8.312   6.557 -0.4782 -0.4500  2.3082
28499SOL    HW286076   4.993   8.300   6.529 -0.4705 -0.8488  2.5133
28500SOL     OW86077   8.167   3.507   3.360 -0.2188  0.1903 -0.0001
28500SOL    HW186078   8.172   3.602   3.366 -0.7169  0.1514  1.2493
28500SOL    HW286079   8.081   3.490   3.321 -0.2578  0.2396  0.0648
28501SOL     OW86080   6.444   5.481   9.338  0.6769  0.1013  0.1726
28501SOL    HW186081   6.374   5.507   9.397  0.4560  0.6974 -0.3295
28501SOL    HW286082   6.524   5.495   9.388  0.5036  0.7800  0.2763
28502SOL     OW86083   3.441   8.724   2.757  0.1380  0.1744  0.3974
28502SOL    HW186084   3.516   8.762   2.802  1.3899 -0.1467 -1.2969
28502SOL    HW286085   3.477   8.653   2.705 -1.0574  0.9505 -1.6300
28503SOL     OW86086   5.767   1.720   4.769  0.0410 -0.0797  0.2200
28503SOL    HW186087   5.714   1.717   4.689 -1.8633  0.0963  1.4235
28503SOL    HW286088   5.852   1.684   4.743 -0.4340  0.2377 -1.9417
28504SOL     OW86089   6.907   9.156   7.962  0.3174 -0.4473  0.6315
28504SOL    HW186090   6.869   9.187   8.045 -0.3531  0.0643  0.1483
28504SOL    HW286091   6.954   9.232   7.928  0.9674 -0.7911  0.7508
28505SOL     OW86092   3.905   4.380   1.601 -0.2956  0.0254  0.3991
28505SOL    HW186093   3.966   4.444   1.638 -0.0985 -1.6834  3.2805
28505SOL    HW286094   3.849   4.432   1.543  1.6087  2.2618  0.3846
28506SOL     OW86095   4.579   7.928   6.228  0.0791  0.3946  0.2761
28506SOL    HW186096   4.617   7.882   6.303 -0.6725  1.0297  1.0588
28506SOL    HW286097   4.546   7.858   6.171 -0.7331 -0.0478  1.2762
28507SOL     OW86098   9.442   3.494   9.237 -0.0900  0.4284  0.2473
28507SOL    HW186099   9.380   3.423   9.218  0.8225  0.2198 -2.3633
28507SOL    HW286100   9.430   3.556   9.165  2.2499  0.7162  0.0443
28508SOL     OW86101   7.138   5.836   4.841 -0.1822 -0.2603  0.1760
28508SOL    HW186102   7.057   5.790   4.866  0.5287 -1.3534  0.5215
28508SOL    HW286103   7.185   5.848   4.924 -0.4235  1.2491  0.1094
28509SOL     OW86104   1.321   0.314   4.773 -0.1983 -0.4116 -0.0574
28509SOL    HW186105   1.358   0.228   4.789 -0.1879 -0.6125 -1.1074
28509SOL    HW286106   1.375   0.374   4.826  0.4114 -0.9266 -0.0930
28510SOL     OW86107   7.095   5.366   4.270 -0.6688  0.3838  0.3316
28510SOL    HW186108   7.086   5.379   4.365 -0.9819 -0.4993  0.4303
28510SOL    HW286109   7.049   5.441   4.232 -1.3719  0.2523  0.8798
28511SOL     OW86110   2.774   9.076   2.752 -0.6358  0.3527  0.3049
28511SOL    HW186111   2.836   9.008   2.725 -0.7796 -0.3123  1.5973
28511SOL    HW286112   2.822   9.127   2.817 -1.5820 -0.4666  1.6843
28512SOL     OW86113   4.338   0.841   6.117 -0.1426  0.3751 -0.2101
28512SOL    HW186114   4.350   0.933   6.093 -0.6991  0.0889 -1.6624
28512SOL    HW286115   4.249   0.821   6.091  0.3678 -0.8960 -1.0478
28513SOL     OW86116   2.321   1.178   4.668 -0.0080  0.1591 -0.6016
28513SOL    HW186117   2.330   1.100   4.723  0.7797 -1.0224 -2.3306
28513SOL    HW286118   2.245   1.224   4.705 -1.3170 -2.0728 -0.2882
28514SOL     OW86119   7.728   6.940   5.106  0.1073  0.2757  0.3465
28514SOL    HW186120   7.737   6.866   5.166 -0.7429 -0.5347 -0.5016
28514SOL    HW286121   7.723   7.017   5.163  1.5613 -0.2467  1.2200
28515SOL     OW86122   4.423   1.170   0.575  0.1070 -0.2076  0.1407
28515SOL    HW186123   4.512   1.140   0.557 -0.2990 -1.5161  0.2054
28515SOL    HW286124   4.395   1.211   0.494  0.2091 -1.2434 -0.4347
28516SOL     OW86125   8.658   6.098   3.743 -0.1410 -0.3628 -0.5414
28516SOL    HW186126   8.696   6.016   3.713  0.4776  0.6878 -2.8200
28516SOL    HW286127   8.732   6.157   3.753 -0.6034  0.0332  0.8772
28517SOL     OW86128   5.316   4.728   3.770 -0.3170  0.0550  0.6841
28517SOL    HW186129   5.378   4.658   3.791  1.1154  1.0290 -0.1302
28517SOL    HW286130   5.350   4.805   3.817  0.0613  1.0007 -1.0609
28518SOL     OW86131   7.138   4.541   0.258  0.4484 -0.4795 -0.1197
28518SOL    HW186132   7.232   4.525   0.267  0.3347 -1.2007 -0.1941
28518SOL    HW286133   7.101   4.457   0.232 -0.2604 -0.2821  0.2076
28519SOL     OW86134   3.392   9.651   2.911 -0.0176  0.8718  0.3215
28519SOL    HW186135   3.342   9.682   2.836 -1.5741  0.1790  1.0312
28519SOL    HW286136   3.446   9.726   2.936 -2.0554  2.3163  0.6348
28520SOL     OW86137   6.789   8.370   6.853  0.4794 -0.6680 -0.3410
28520SOL    HW186138   6.795   8.282   6.891  0.7754  0.4026  2.2679
28520SOL    HW286139   6.880   8.398   6.844  0.3751 -0.4983 -0.9235
28521SOL     OW86140   8.334   2.049   7.794  0.5221 -0.5644  0.8358
28521SOL    HW186141   8.246   2.056   7.757  0.9991 -0.6851 -0.3864
28521SOL    HW286142   8.327   2.087   7.881 -0.5682  0.1413  0.4598
28522SOL     OW86143   4.342   0.491   0.938  0.2688 -0.1913  0.0553
28522SOL    HW186144   4.306   0.560   0.995  2.3162 -0.4126  1.7603
28522SOL    HW286145   4.374   0.537   0.861  0.6084  0.6479  0.6809
28523SOL     OW86146   1.831   0.998   9.517 -0.1164  0.3131 -0.2315
28523SOL    HW186147   1.876   1.023   9.436  0.2174  1.3914  0.2628
28523SOL    HW286148   1.801   1.081   9.554 -0.7305 -0.2149  0.4839
28524SOL     OW86149   2.881   0.424   2.661  0.8666  0.3688  0.2471
28524SOL    HW186150   2.917   0.475   2.588  2.3639 -0.4845  0.3413
28524SOL    HW286151   2.800   0.469   2.684  1.4546  1.9123 -0.5456
28525SOL     OW86152   0.719   3.577   7.778  0.2385 -0.3888 -0.3373
28525SOL    HW186153   0.631   3.571   7.741 -0.8148  1.3004  1.6891
28525SOL    HW286154   0.735   3.490   7.815 -1.5328 -0.1219  1.1982
28526SOL     OW86155   9.032   1.338   1.244 -0.5837 -0.5681 -0.4783
28526SOL    HW186156   9.022   1.401   1.316  1.3213  1.3706 -1.7733
28526SOL    HW286157   9.069   1.261   1.286 -0.0552  0.3044  0.7433
28527SOL     OW86158   4.277   0.649   0.292  0.4395  0.5483  0.2229
28527SOL    HW186159   4.357   0.657   0.343  0.8452  0.7522 -0.4275
28527SOL    HW286160   4.208   0.681   0.349  0.8241  0.3952  0.7798
28528SOL     OW86161   5.924   4.063   4.784  0.3089 -0.4083  0.2572
28528SOL    HW186162   5.893   4.117   4.712 -0.9839 -0.7786  0.5085
28528SOL    HW286163   6.015   4.090   4.798  0.5841 -0.3525 -1.5035
28529SOL     OW86164   1.389   5.068   6.117  0.3605  0.4660 -0.6328
28529SOL    HW186165   1.449   5.004   6.154 -1.7021 -0.4670  1.3377
28529SOL    HW286166   1.383   5.044   6.024  0.5776 -1.4312 -0.1929
28530SOL     OW86167   3.746   6.627   2.943 -0.0664  0.8275  1.3153
28530SOL    HW186168   3.662   6.592   2.973 -0.4528  0.1959 -0.3464
28530SOL    HW286169   3.810   6.558   2.963 -0.7947 -0.9591 -1.7671
28531SOL     OW86170   8.542   3.850   7.754  0.0160  0.3910  0.5452
28531SOL    HW186171   8.630   3.887   7.751 -0.3238  1.1768 -0.3467
28531SOL    HW286172   8.490   3.916   7.801 -0.9748  2.0251 -2.5413
28532SOL     OW86173   6.351   5.160   5.721  0.1973 -0.7204  0.4810
28532SOL    HW186174   6.261   5.185   5.744  0.0884 -0.6359 -0.0137
28532SOL    HW286175   6.358   5.181   5.628  1.9604  2.8517  1.2667
28533SOL     OW86176   7.758   6.242   5.128  0.3296  0.2208 -0.4527
28533SOL    HW186177   7.677   6.259   5.080  1.2473  0.3941 -2.0420
28533SOL    HW286178   7.755   6.302   5.203 -0.1394  1.6685 -1.5791
28534SOL     OW86179   6.265   5.940   0.751 -0.5529 -0.2466 -0.1739
28534SOL    HW186180   6.214   5.859   0.752  0.4827 -0.9095 -0.0470
28534SOL    HW286181   6.344   5.920   0.801 -0.2178  0.7995 -0.2555
28535SOL     OW86182   7.409   4.374   7.786  0.2444  0.1280  0.0859
28535SOL    HW186183   7.320   4.359   7.755 -0.7272  1.4649  2.0230
28535SOL    HW286184   7.465   4.351   7.712 -1.8142  1.1438 -1.8967
28536SOL     OW86185   8.821   1.395   9.924 -0.4431 -0.4548  0.2350
28536SOL    HW186186   8.725   1.389   9.928 -0.4625  0.2774  1.3664
28536SOL    HW286187   8.845   1.443  10.004  0.7826  0.4604 -0.6540
28537SOL     OW86188   1.075   5.532   2.149 -0.0209 -0.2816 -0.2098
28537SOL    HW186189   1.027   5.502   2.226  0.2987  1.1319  0.5715
28537SOL    HW286190   1.014   5.590   2.104  0.0609 -0.5069 -0.6084
28538SOL     OW86191   5.146   2.361   2.951 -0.4752  0.3405 -0.0054
28538SOL    HW186192   5.109   2.276   2.926 -0.2711  0.4519 -0.7185
28538SOL    HW286193   5.225   2.340   3.000 -0.1661  0.1148 -0.5895
28539SOL     OW86194   7.496   6.407   9.179 -0.3307 -0.0205  0.0265
28539SOL    HW186195   7.491   6.501   9.198 -1.6938  0.1372 -0.9535
28539SOL    HW286196   7.429   6.368   9.236 -1.3997 -0.0753 -1.2148
28540SOL     OW86197   8.070   7.675   5.857  0.4425 -0.2055  0.1816
28540SOL    HW186198   8.067   7.757   5.906 -0.5875  0.3807 -0.8087
28540SOL    HW286199   7.980   7.642   5.861  0.3227 -0.1118 -1.3355
28541SOL     OW86200   6.816   5.464   0.081 -0.1914  0.0546 -0.8803
28541SOL    HW186201   6.742   5.433   0.133  0.5309  1.6488  1.2620
28541SOL    HW286202   6.778   5.483  -0.005 -1.9470 -0.5424 -0.2941
28542SOL     OW86203   8.481   4.418   4.998 -0.5623  0.3074 -0.1051
28542SOL    HW186204   8.456   4.366   5.075  0.1630 -0.0497 -0.0994
28542SOL    HW286205   8.533   4.490   5.034  0.1809 -0.1279 -0.3042
28543SOL     OW86206   6.996   7.987   3.027 -0.2052 -0.5688  0.0720
28543SOL    HW186207   6.992   7.891   3.027  0.3054 -0.6063 -0.8947
28543SOL    HW286208   6.913   8.015   2.989 -0.5557 -0.5961  0.7878
28544SOL     OW86209   2.491   8.520   4.789  0.4070  0.3889 -0.5898
28544SOL    HW186210   2.409   8.561   4.762  0.2407  0.0198 -0.6511
28544SOL    HW286211   2.516   8.567   4.869 -1.0133 -0.9250  0.6989
28545SOL     OW86212   7.160   9.849   4.754 -0.1729  0.4763 -0.9739
28545SOL    HW186213   7.106   9.782   4.796  3.0248 -0.4138  2.2695
28545SOL    HW286214   7.117   9.932   4.775 -0.0860 -0.1455  2.0958
28546SOL     OW86215   4.632   8.725   4.130 -0.2685  0.3605 -0.0545
28546SOL    HW186216   4.686   8.788   4.083  0.4014  0.3839  0.7169
28546SOL    HW286217   4.666   8.726   4.220  1.2339 -2.6260 -0.4481
28547SOL     OW86218   8.570   4.511   9.514  0.1017 -0.0209  0.5087
28547SOL    HW186219   8.543   4.602   9.519 -1.0617 -0.3185  0.0035
28547SOL    HW286220   8.659   4.510   9.550 -0.0891  1.2062  1.0510
28548SOL     OW86221   3.657   4.172   8.093  0.1928  0.2429 -0.4603
28548SOL    HW186222   3.697   4.107   8.151 -1.5119 -0.1162  0.3587
28548SOL    HW286223   3.569   4.138   8.075 -1.4676  3.0779  1.4320
28549SOL     OW86224   6.757   1.156   4.139 -0.1080 -0.6459  0.3662
28549SOL    HW186225   6.839   1.199   4.115 -0.4185 -0.7037 -0.8596
28549SOL    HW286226   6.712   1.141   4.056 -1.5886 -0.1666  1.0390
28550SOL     OW86227   6.973   1.266   6.167 -0.2251 -0.7272 -0.3468
28550SOL    HW186228   6.902   1.232   6.222  0.0568  0.6629  0.9482
28550SOL    HW286229   7.023   1.188   6.141 -1.1845 -1.5520  0.2070
28551SOL     OW86230   3.936   2.751   6.308  0.2065  0.5871  0.0769
28551SOL    HW186231   3.844   2.732   6.326 -0.0772  1.3472 -0.5263
28551SOL    HW286232   3.934   2.809   6.232  1.2573 -0.7440 -1.0144
28552SOL     OW86233   7.578   6.858   7.948  0.0493  1.0628 -0.1572
28552SOL    HW186234   7.588   6.930   7.886  0.8123  1.2826  0.2137
28552SOL    HW286235   7.571   6.900   8.033  3.3931  0.6698  0.4349
28553SOL     OW86236   3.073   3.586   1.825  0.2728  0.5457  0.1416
28553SOL    HW186237   3.159   3.544   1.821  0.3752  0.7755 -0.1761
28553SOL    HW286238   3.092   3.679   1.834  0.0620  0.6248 -0.1907
28554SOL     OW86239   2.952   7.900   6.612 -0.6669  0.2036 -0.0590
28554SOL    HW186240   2.857   7.899   6.606 -0.6497  0.7353 -0.5256
28554SOL    HW286241   2.981   7.938   6.529  0.0088 -1.1199 -0.4447
28555SOL     OW86242   2.368   1.681   8.101  0.1653  0.1822  0.3563
28555SOL    HW186243   2.370   1.769   8.062  1.1685 -0.7743 -1.9831
28555SOL    HW286244   2.425   1.688   8.177 -0.2784  1.7014  0.5857
28556SOL     OW86245   5.167   2.231   9.384 -0.0744  0.2813  0.1162
28556SOL    HW186246   5.254   2.240   9.344 -0.3608  1.4640 -0.2594
28556SOL    HW286247   5.185   2.210   9.475  0.5941 -0.7582 -0.2251
28557SOL     OW86248   8.083   5.840   3.696  0.3217  0.0708  0.0835
28557SOL    HW186249   8.048   5.884   3.774  1.6612  0.5080  0.4594
28557SOL    HW286250   8.073   5.905   3.626 -0.4322 -0.1424 -0.0175
28558SOL     OW86251   6.110   2.794   3.497 -0.3378 -0.2920  0.1410
28558SOL    HW186252   6.129   2.774   3.589  0.5071 -1.9399 -0.3531
28558SOL    HW286253   6.029   2.846   3.500  0.3879  0.8488  1.8748
28559SOL     OW86254   0.924   8.651   7.104  0.1820 -0.1855 -0.5374
28559SOL    HW186255   1.002   8.598   7.088  0.3950 -0.6511  1.7983
28559SOL    HW286256   0.855   8.588   7.126 -0.0573  0.3875  0.3999
28560SOL     OW86257   4.227   0.097   6.584  0.5598  0.3499  0.0378
28560SOL    HW186258   4.212   0.021   6.529  2.0233 -1.9182  2.5396
28560SOL    HW286259   4.141   0.140   6.590 -0.4116 -1.3274 -1.0744
28561SOL     OW86260   8.351   7.854   5.317  0.3377 -0.2144 -0.0826
28561SOL    HW186261   8.333   7.937   5.275  0.5847 -0.2299 -0.2233
28561SOL    HW286262   8.385   7.798   5.247  1.4585 -0.0098  0.2677
28562SOL     OW86263   7.001   7.532   6.996  0.7045  0.1945 -0.3010
28562SOL    HW186264   6.997   7.462   7.061  0.1835  0.7373  0.2686
28562SOL    HW286265   7.013   7.611   7.048  5.1730  0.2735 -1.0683
28563SOL     OW86266   0.256   3.887   6.186 -0.6730  0.5216  0.4547
28563SOL    HW186267   0.228   3.926   6.269  0.1946  0.3862  0.8285
28563SOL    HW286268   0.346   3.857   6.203 -0.5599  0.2993 -0.4730
28564SOL     OW86269   4.660   3.032   9.211 -0.5090 -0.0731 -0.9322
28564SOL    HW186270   4.731   2.993   9.262  0.0939  0.6879 -1.1619
28564SOL    HW286271   4.700   3.052   9.126 -0.5793  1.6340 -0.6125
28565SOL     OW86272   5.047   1.623   1.878  0.3138 -0.2922 -0.2452
28565SOL    HW186273   5.123   1.666   1.917  0.1708  0.3288 -0.6220
28565SOL    HW286274   5.084   1.558   1.819  0.6096  0.8507 -1.3770
28566SOL     OW86275   8.436   1.828   9.154  0.2424 -0.2073 -0.5939
28566SOL    HW186276   8.444   1.776   9.234  4.8165 -1.9850 -1.8923
28566SOL    HW286277   8.479   1.911   9.174 -1.1419  0.5216 -0.4881
28567SOL     OW86278   0.092   1.035   4.298  0.4066  0.4479  0.2195
28567SOL    HW186279   0.048   0.952   4.279  0.9022  0.0672  0.6688
28567SOL    HW286280   0.052   1.098   4.239  0.4519 -0.2479 -0.5740
28568SOL     OW86281   2.080   0.640   8.716 -0.7060 -0.1993  0.1398
28568SOL    HW186282   2.142   0.689   8.662 -0.7883  0.2687  0.4610
28568SOL    HW286283   2.040   0.706   8.772 -0.1809 -0.7451  1.2024
28569SOL     OW86284   5.824   5.137   3.400  0.7615 -0.5487 -0.2962
28569SOL    HW186285   5.780   5.199   3.342 -2.0981 -1.1741  1.0179
28569SOL    HW286286   5.885   5.191   3.450 -1.6782  1.3755  0.8683
28570SOL     OW86287   1.731   0.819   5.285 -0.7155  0.1376 -0.3120
28570SOL    HW186288   1.731   0.909   5.317 -1.1189  0.5005 -1.2967
28570SOL    HW286289   1.755   0.766   5.362 -0.0204  1.1105  0.1646
28571SOL     OW86290   4.083   4.183   4.597 -0.0940  0.1180 -0.1122
28571SOL    HW186291   4.170   4.205   4.631  1.2740 -0.5277 -2.8590
28571SOL    HW286292   4.051   4.115   4.655  1.4054  0.1399  0.7945
28572SOL     OW86293   4.720   0.292   4.364 -0.3192 -0.3944  0.4633
28572SOL    HW186294   4.705   0.335   4.448  0.2701  0.6805  0.0476
28572SOL    HW286295   4.809   0.319   4.339  0.0280 -1.7606  0.1085
28573SOL     OW86296   4.648   5.324   9.716 -0.4636  0.0025  0.0714
28573SOL    HW186297   4.672   5.231   9.717 -0.3432  0.0348  0.3577
28573SOL    HW286298   4.644   5.347   9.623 -0.9873 -0.4154 -0.0151
28574SOL     OW86299   2.194   2.682   5.866 -0.2917 -0.1964  0.6674
28574SOL    HW186300   2.201   2.652   5.956 -0.8719 -1.6556  0.2470
28574SOL    HW286301   2.207   2.604   5.813 -0.7152  0.4925 -0.4985
28575SOL     OW86302   2.605   0.571   2.059 -0.3906 -0.4641  0.1285
28575SOL    HW186303   2.523   0.547   2.016 -0.7762 -0.8624  1.0669
28575SOL    HW286304   2.588   0.658   2.096 -0.3684 -0.5349  0.3009
28576SOL     OW86305   6.565   6.995   2.357 -0.7281  0.3832  0.2808
28576SOL    HW186306   6.566   6.975   2.263  1.0718 -0.1990  0.3696
28576SOL    HW286307   6.481   7.038   2.372 -1.5252 -0.4835 -1.3843
28577SOL     OW86308   9.609   4.731   1.385 -0.6133  0.4828 -0.0502
28577SOL    HW186309   9.521   4.717   1.351 -0.3712  1.6442 -1.2494
28577SOL    HW286310   9.650   4.645   1.380 -1.4112  0.1014 -0.2905
28578SOL     OW86311   6.679   3.875   4.943 -0.0132 -0.1039  0.1335
28578SOL    HW186312   6.721   3.797   4.979  0.2266 -1.2888 -2.5353
28578SOL    HW286313   6.751   3.930   4.913 -0.2396  0.1190 -0.0084
28579SOL     OW86314   8.818   8.541   0.369  1.2088  0.0050 -0.1782
28579SOL    HW186315   8.889   8.537   0.305  2.6710  1.2294  1.2486
28579SOL    HW286316   8.814   8.454   0.407  1.8340 -0.1175 -0.3907
28580SOL     OW86317   3.550   2.539   5.486 -0.3042  0.0064 -0.4402
28580SOL    HW186318   3.628   2.560   5.434  1.6241  1.1953  2.6548
28580SOL    HW286319   3.530   2.620   5.533 -2.2976 -0.8469  0.3058
28581SOL     OW86320   7.584   7.048   1.098 -0.8769 -0.3572  0.0269
28581SOL    HW186321   7.496   7.080   1.113 -1.9278 -2.6997 -0.6711
28581SOL    HW286322   7.576   6.988   1.024  1.3380 -0.5293 -0.1541
28582SOL     OW86323   1.027   8.467   5.515  0.4141  0.0660 -0.1001
28582SOL    HW186324   1.037   8.488   5.422  1.1811 -1.7408 -0.4676
28582SOL    HW286325   0.954   8.406   5.517  0.4683  0.0242  0.4845
28583SOL     OW86326   4.126   9.450   5.858  0.0305  0.0433 -0.0034
28583SOL    HW186327   4.200   9.433   5.800  1.0784  2.2628  0.5743
28583SOL    HW286328   4.091   9.534   5.829 -0.4348  0.4267  1.5609
28584SOL     OW86329   5.267   7.162   8.706  0.3987  0.1506 -0.1504
28584SOL    HW186330   5.276   7.256   8.714 -2.7588  0.4952  0.6508
28584SOL    HW286331   5.232   7.148   8.618 -1.7560  0.0767  0.6514
28585SOL     OW86332   9.220   4.699   2.698 -0.2100 -1.0782 -0.1774
28585SOL    HW186333   9.141   4.690   2.644  0.1900  0.4628 -1.1081
28585SOL    HW286334   9.226   4.793   2.715  1.3126 -1.1939  0.0484
28586SOL     OW86335   2.992   4.870   9.978 -0.0643 -0.0104  0.4049
28586SOL    HW186336   3.031   4.810  10.042 -0.1422 -1.9741 -1.2941
28586SOL    HW286337   2.948   4.813   9.916  0.0682  1.8079 -1.4542
28587SOL     OW86338   0.439   5.379   3.837 -0.2853  0.3812 -0.0762
28587SOL    HW186339   0.426   5.325   3.915 -1.5098 -0.3589 -0.7471
28587SOL    HW286340   0.393   5.461   3.857  0.3993  0.6512  0.4155
28588SOL     OW86341   3.818   9.140   9.540 -0.2052 -0.2491  0.0588
28588SOL    HW186342   3.888   9.149   9.606  0.8349 -1.6471 -0.7955
28588SOL    HW286343   3.746   9.098   9.587  0.2495 -0.5704  0.4834
28589SOL     OW86344   8.371   4.733   4.309  0.1641 -0.1591  0.0041
28589SOL    HW186345   8.379   4.714   4.215  0.4357 -0.5116  0.0958
28589SOL    HW286346   8.440   4.680   4.350  0.6820  0.7231  0.3103
28590SOL     OW86347   1.820   3.350   5.016 -0.5396  0.1710 -0.1220
28590SOL    HW186348   1.753   3.344   4.948 -0.7359 -1.9363  0.1813
28590SOL    HW286349   1.772   3.342   5.098 -0.3200  2.8270  0.3376
28591SOL     OW86350   2.241   3.333   4.945 -0.8413 -0.0199 -0.1248
28591SOL    HW186351   2.146   3.324   4.949 -0.8992 -1.1988 -2.3420
28591SOL    HW286352   2.272   3.246   4.922  0.9014  0.1237  1.4365
28592SOL     OW86353   7.546   6.205   5.731 -0.5380  0.3534 -0.8526
28592SOL    HW186354   7.639   6.202   5.707 -0.6194 -1.2109 -1.0826
28592SOL    HW286355   7.510   6.122   5.698 -1.6908  0.2679  0.5377
28593SOL     OW86356   1.819   5.487   5.004 -0.4190 -0.3451  0.2263
28593SOL    HW186357   1.806   5.582   5.002  0.9639 -0.1559 -0.5439
28593SOL    HW286358   1.752   5.455   5.065 -2.3201  0.8819 -1.0902
28594SOL     OW86359   7.109   5.987   2.647  0.4260 -0.4449  0.5116
28594SOL    HW186360   7.099   5.982   2.742 -0.0385 -0.0802  0.4854
28594SOL    HW286361   7.036   5.935   2.612  1.4940 -1.9303  0.3582
28595SOL     OW86362   1.436   5.717   7.852 -0.0469 -0.0472  0.3428
28595SOL    HW186363   1.402   5.771   7.781  0.1886 -0.5278 -0.1413
28595SOL    HW286364   1.358   5.688   7.900 -0.1588  1.0224  0.8464
28596SOL     OW86365   8.688   3.631   9.355  0.1108  0.2647  0.0563
28596SOL    HW186366   8.660   3.588   9.436 -1.5304 -1.1537 -1.1851
28596SOL    HW286367   8.767   3.585   9.330 -0.2271 -0.3393  0.0694
28597SOL     OW86368   2.951   2.420   5.101 -0.4574  0.2373 -0.1359
28597SOL    HW186369   2.921   2.510   5.083  1.9586  1.1302 -0.0409
28597SOL    HW286370   3.027   2.408   5.044  1.3207 -0.4827  2.2231
28598SOL     OW86371   7.216   8.003   6.664  0.5247 -0.4415  0.3059
28598SOL    HW186372   7.231   7.991   6.570 -0.6258  0.3099  0.0005
28598SOL    HW286373   7.123   7.986   6.675  0.6200 -0.3495  1.2909
28599SOL     OW86374   5.625   0.869   4.383  0.4060  0.0411 -0.0367
28599SOL    HW186375   5.593   0.886   4.472  2.2766  0.8397  0.5317
28599SOL    HW286376   5.564   0.805   4.348 -0.9601  0.4351  1.4661
28600SOL     OW86377   2.746   8.300   2.455  0.0080 -0.2091  0.0301
28600SOL    HW186378   2.794   8.287   2.536  0.6638  0.6635 -0.2088
28600SOL    HW286379   2.700   8.217   2.441 -0.1779 -0.3361  1.3194
28601SOL     OW86380   9.311   8.501   5.564  0.2943 -0.1814  0.0226
28601SOL    HW186381   9.336   8.417   5.601  2.3937  0.6038  0.5142
28601SOL    HW286382   9.287   8.481   5.473  1.1512 -1.2404  0.0122
28602SOL     OW86383   6.144   5.691   1.250 -0.0319  0.0888 -0.4982
28602SOL    HW186384   6.210   5.718   1.314 -0.3214 -1.3961  0.4563
28602SOL    HW286385   6.190   5.631   1.192 -0.3239 -0.3271 -0.3080
28603SOL     OW86386   9.371   9.010   0.752  0.6462  0.0799  0.2154
28603SOL    HW186387   9.321   9.018   0.833 -0.1723  0.2141 -0.2928
28603SOL    HW286388   9.462   9.009   0.780  0.3426 -1.5016  1.2684
28604SOL     OW86389   5.404   1.054   8.861  0.5777 -0.1434 -0.1817
28604SOL    HW186390   5.448   1.110   8.797 -0.7903  0.3568 -0.7239
28604SOL    HW286391   5.315   1.088   8.866 -0.3193 -2.2616 -0.5484
28605SOL     OW86392   7.118   2.896   3.938  0.1257 -0.8002 -0.3951
28605SOL    HW186393   7.103   2.819   3.883 -0.8010 -0.9666  0.0872
28605SOL    HW286394   7.081   2.969   3.888  0.2975 -0.7761 -0.4913
28606SOL     OW86395   6.485   3.776   3.580  0.9215  0.0020 -0.3147
28606SOL    HW186396   6.460   3.749   3.492 -0.9551  0.9022 -0.1077
28606SOL    HW286397   6.577   3.752   3.588  0.8255 -1.0799 -2.1203
28607SOL     OW86398   3.257   8.320   3.385 -0.5233  0.6568 -0.0223
28607SOL    HW186399   3.296   8.235   3.408 -1.1340  0.4747  0.3605
28607SOL    HW286400   3.332   8.375   3.362 -0.0480  0.2641  0.5530
28608SOL     OW86401   9.691   4.896   9.066 -0.0889  0.0665  0.0097
28608SOL    HW186402   9.777   4.926   9.093 -0.0581 -0.7825  0.9220
28608SOL    HW286403   9.672   4.945   8.986  1.1258  0.4399 -0.0676
28609SOL     OW86404   1.127   9.107   5.656 -0.1968 -0.3060  0.1047
28609SOL    HW186405   1.165   9.191   5.679  0.1496 -0.2568 -0.6286
28609SOL    HW286406   1.033   9.118   5.671 -0.2348  0.4150 -0.5710
28610SOL     OW86407   7.227   7.201   2.089  0.2989 -0.2643  0.0132
28610SOL    HW186408   7.242   7.112   2.058  1.9926  1.0249 -3.4772
28610SOL    HW286409   7.267   7.204   2.175  0.7205 -2.6849 -0.0199
28611SOL     OW86410   5.631   2.863   6.293 -0.1216  0.0060 -0.7250
28611SOL    HW186411   5.607   2.822   6.210 -0.4975  0.2717 -0.7539
28611SOL    HW286412   5.612   2.956   6.281 -0.2008  0.0456 -0.3390
28612SOL     OW86413   4.737   7.741   9.741  0.1209 -0.1440 -0.5152
28612SOL    HW186414   4.643   7.759   9.742  0.0471 -0.5254 -0.5382
28612SOL    HW286415   4.748   7.669   9.802  0.4830  0.2986 -0.0528
28613SOL     OW86416   8.038   5.299   8.522  0.6511 -0.7081  0.4487
28613SOL    HW186417   8.074   5.211   8.508  0.9808 -0.2905 -1.8210
28613SOL    HW286418   8.075   5.327   8.605  2.1077 -1.9776  0.2839
28614SOL     OW86419   0.756   4.897   4.752  0.0272  0.3879 -0.1331
28614SOL    HW186420   0.745   4.841   4.675  3.3299 -0.0239 -0.4263
28614SOL    HW286421   0.699   4.972   4.735 -0.7103 -0.5388 -2.0924
28615SOL     OW86422   7.412   4.505   0.250  0.0305  0.1125 -0.1320
28615SOL    HW186423   7.374   4.458   0.176 -2.1693  2.2567 -0.5030
28615SOL    HW286424   7.494   4.459   0.269 -0.5018 -1.9245 -2.3555
28616SOL     OW86425   0.461   6.838   2.859 -0.3406 -0.0380 -0.0420
28616SOL    HW186426   0.423   6.918   2.821 -1.1080 -1.4874 -2.5794
28616SOL    HW286427   0.555   6.855   2.863 -0.6851  1.8669  1.8852
28617SOL     OW86428   1.122   1.016   0.013 -0.2544 -0.1579 -0.1987
28617SOL    HW186429   1.078   0.931   0.021 -0.8574  0.2287  0.8449
28617SOL    HW286430   1.120   1.052   0.102 -0.6775  1.2787 -0.7615
28618SOL     OW86431   3.711   7.222   5.737 -0.1267 -0.6509  0.2722
28618SOL    HW186432   3.731   7.300   5.789 -2.4201 -0.4674  0.9838
28618SOL    HW286433   3.788   7.166   5.748  1.4832  1.3764 -0.0659
28619SOL     OW86434   6.389   0.937   6.575  0.0508  0.2545 -0.4329
28619SOL    HW186435   6.297   0.941   6.602  0.3411  0.6714  0.5377
28619SOL    HW286436   6.434   0.894   6.648  0.4770 -0.8889 -1.3383
28620SOL     OW86437   3.396   1.823   7.234 -0.5358  0.3263 -0.0847
28620SOL    HW186438   3.385   1.734   7.270  0.6053 -0.2558 -1.1195
28620SOL    HW286439   3.420   1.809   7.143  0.3954  1.6839 -0.0699
28621SOL     OW86440   8.730   7.516   7.422  0.4184 -0.6094  0.1605
28621SOL    HW186441   8.805   7.570   7.396 -0.4920  0.3107 -0.6077
28621SOL    HW286442   8.676   7.575   7.475 -0.3583 -0.9086 -0.2918
28622SOL     OW86443   4.654   5.394   5.986  0.3028 -0.4299 -0.0126
28622SOL    HW186444   4.598   5.317   5.976  0.7539 -0.5793 -1.7892
28622SOL    HW286445   4.709   5.374   6.062 -0.8579 -1.0251  0.6917
28623SOL     OW86446   4.004   1.681   9.430 -0.2780 -0.3852 -0.4800
28623SOL    HW186447   3.980   1.770   9.456  0.1714 -0.6184  0.8339
28623SOL    HW286448   3.973   1.627   9.503  0.6540 -1.1352 -0.6274
28624SOL     OW86449   2.597   3.815   3.050  0.2330  0.4415 -0.8368
28624SOL    HW186450   2.561   3.735   3.089  0.4490  0.8979  0.3593
28624SOL    HW286451   2.531   3.843   2.988  0.3176 -0.8617 -1.5485
28625SOL     OW86452   0.553   8.057   6.822 -0.5103 -0.3033 -0.0559
28625SOL    HW186453   0.478   8.051   6.764  0.2206 -1.4247 -0.9210
28625SOL    HW286454   0.625   8.016   6.773  0.1613 -1.1747  1.5830
28626SOL     OW86455   9.480   4.152   3.570  0.0549  0.0173  0.4656
28626SOL    HW186456   9.490   4.121   3.480 -0.7091  1.2401 -0.0817
28626SOL    HW286457   9.385   4.156   3.583  0.1098  1.8736  0.5555
28627SOL     OW86458   6.783   4.238   9.654  0.0403  0.2807  0.3273
28627SOL    HW186459   6.838   4.284   9.591 -0.4079  2.0170  1.1525
28627SOL    HW286460   6.706   4.211   9.604  1.1294 -1.2784 -0.5944
28628SOL     OW86461   8.666   5.634   1.650  0.3872  0.4132  0.2006
28628SOL    HW186462   8.753   5.595   1.664  0.4227 -0.2244 -1.6287
28628SOL    HW286463   8.677   5.690   1.573 -0.7964  0.4417  0.0356
28629SOL     OW86464   2.859   6.391   2.727 -0.3896 -0.2436  0.1460
28629SOL    HW186465   2.769   6.383   2.758 -0.2704 -0.5765  0.4189
28629SOL    HW286466   2.906   6.433   2.800 -0.4449  0.5003 -0.2297
28630SOL     OW86467   3.327   7.589   3.333  0.0619  0.2935 -0.0612
28630SOL    HW186468   3.324   7.649   3.258 -4.4798 -0.1730 -0.5250
28630SOL    HW286469   3.317   7.502   3.295 -0.5906 -0.1148  1.0083
28631SOL     OW86470   8.161   8.720   7.966  0.0097 -0.1188 -0.2880
28631SOL    HW186471   8.127   8.633   7.946 -1.1436  0.2379  0.0708
28631SOL    HW286472   8.171   8.762   7.881 -0.5609 -0.1890 -0.3913
28632SOL     OW86473   9.342   7.792   6.209  0.2936  0.4812  0.2436
28632SOL    HW186474   9.345   7.826   6.298 -0.8862  1.8833 -0.2065
28632SOL    HW286475   9.294   7.858   6.160  0.3133 -0.5887 -1.2965
28633SOL     OW86476   2.539   1.723   1.855 -0.1930  0.3850  0.5213
28633SOL    HW186477   2.618   1.671   1.837  0.7590  1.5043  1.3031
28633SOL    HW286478   2.520   1.766   1.771 -0.5753 -0.6434  0.0636
28634SOL     OW86479   6.733   4.073   5.274 -0.1844 -0.1716 -0.5977
28634SOL    HW186480   6.766   3.985   5.254 -1.2338 -0.4606 -1.1300
28634SOL    HW286481   6.764   4.091   5.363  0.8144 -0.6966 -0.8294
28635SOL     OW86482   0.140   4.954   0.785 -0.4263  0.1087 -0.0446
28635SOL    HW186483   0.171   5.029   0.735  0.3752 -0.0329  0.2367
28635SOL    HW286484   0.179   4.965   0.872 -0.8003 -0.3111  0.1815
28636SOL     OW86485   9.659   2.835   1.938  0.3257 -0.0394  0.1439
28636SOL    HW186486   9.570   2.829   1.903 -0.2191 -2.8395  1.7302
28636SOL    HW286487   9.666   2.926   1.967 -1.1869  0.8517 -1.9266
28637SOL     OW86488   0.971   5.941   7.001 -0.0192  0.3323  0.2195
28637SOL    HW186489   1.016   5.986   6.930  0.6387 -1.1316 -0.3458
28637SOL    HW286490   0.923   5.870   6.957 -0.6734  0.2053  1.1033
28638SOL     OW86491   7.479   5.322   4.641 -0.2217 -0.2568 -0.3843
28638SOL    HW186492   7.462   5.411   4.612 -0.9565 -0.7742 -1.6132
28638SOL    HW286493   7.469   5.325   4.737  1.9869  1.4392 -0.1279
28639SOL     OW86494   5.546   3.546   1.555 -0.0086 -0.1866  0.2945
28639SOL    HW186495   5.534   3.598   1.635  2.1559  1.6158 -0.4617
28639SOL    HW286496   5.609   3.595   1.503  0.4296 -2.4843 -1.5284
28640SOL     OW86497   9.615   8.273   4.605  0.5204 -0.0682  0.3753
28640SOL    HW186498   9.707   8.276   4.579  0.8323 -0.2324  1.4376
28640SOL    HW286499   9.568   8.265   4.522  1.4564 -0.0030 -0.1834
28641SOL     OW86500   7.872   6.973   9.644 -0.6323 -0.3342  0.4106
28641SOL    HW186501   7.948   7.031   9.632  0.1949 -1.3443  0.6424
28641SOL    HW286502   7.895   6.920   9.720 -1.5428 -0.7160  0.4256
28642SOL     OW86503   1.113   2.021   7.636  0.1659 -0.5101 -0.2731
28642SOL    HW186504   1.159   2.088   7.686  1.7540 -1.5067 -0.3028
28642SOL    HW286505   1.062   2.070   7.572 -0.0012  0.7017  0.7509
28643SOL     OW86506   0.220   5.028   1.617 -0.0159 -0.0599  0.0127
28643SOL    HW186507   0.133   5.048   1.582  0.5483 -0.7493 -1.9357
28643SOL    HW286508   0.243   5.105   1.669 -1.1368  0.8173 -0.7296
28644SOL     OW86509   9.625   4.988   0.355  0.3716  0.8402  0.6893
28644SOL    HW186510   9.693   5.011   0.291  0.5792  0.6041  0.8234
28644SOL    HW286511   9.669   4.929   0.416 -0.1395  0.1204  0.3795
28645SOL     OW86512   9.505   3.272   8.112  0.2707 -0.5064 -0.3414
28645SOL    HW186513   9.446   3.206   8.147 -0.6299  1.2276  1.6476
28645SOL    HW286514   9.578   3.273   8.174 -0.7140  1.7064  0.9059
28646SOL     OW86515   6.201   1.179   2.508 -0.4109 -0.0235 -0.0750
28646SOL    HW186516   6.260   1.232   2.561  2.4601 -0.7501 -2.2455
28646SOL    HW286517   6.213   1.090   2.540 -0.8002 -0.1119 -0.1661
28647SOL     OW86518   0.810   6.182   2.615  0.2222  0.1837  0.5176
28647SOL    HW186519   0.892   6.134   2.627  0.5646  0.7043  0.3144
28647SOL    HW286520   0.749   6.118   2.579  0.7708 -0.0171 -0.0774
28648SOL     OW86521   3.808   6.346  -0.000  0.0875  0.3312  0.3003
28648SOL    HW186522   3.836   6.370   0.088 -0.2038  1.0423  0.2119
28648SOL    HW286523   3.881   6.298  -0.037 -0.3519 -1.3096  1.4545
28649SOL     OW86524   2.738   2.115   1.967  0.0286 -0.4626  0.4416
28649SOL    HW186525   2.715   2.207   1.957  0.3613 -0.5901 -1.9168
28649SOL    HW286526   2.833   2.115   1.981  0.1816 -0.4830 -0.5539
28650SOL     OW86527   5.848   2.719   8.067  0.1544  0.2879  0.4582
28650SOL    HW186528   5.864   2.732   7.974  2.2845  0.4189  0.7824
28650SOL    HW286529   5.898   2.640   8.090 -2.3055 -1.2007  1.0531
28651SOL     OW86530   3.355   9.434   0.645 -0.4828 -0.3553 -0.1895
28651SOL    HW186531   3.390   9.361   0.696 -0.6835 -0.4785 -0.2257
28651SOL    HW286532   3.298   9.392   0.580 -2.5771 -0.0275  1.3475
28652SOL     OW86533   5.479   2.584   8.505 -0.1817 -0.1131  0.1944
28652SOL    HW186534   5.565   2.626   8.510  0.5917 -1.6874  1.0124
28652SOL    HW286535   5.425   2.645   8.455  0.7800  1.9350  1.5171
28653SOL     OW86536   0.103   4.648   5.277  0.0968 -0.3460 -0.0637
28653SOL    HW186537   0.065   4.731   5.249  2.3386  0.9035  0.3727
28653SOL    HW286538   0.179   4.635   5.220  0.0527 -1.8871  0.1755
28654SOL     OW86539   3.568   1.653   6.276  0.3265 -0.3084  0.2471
28654SOL    HW186540   3.656   1.676   6.305 -0.7104 -1.1415  4.8599
28654SOL    HW286541   3.580   1.572   6.226  2.1650 -1.2051  1.9803
28655SOL     OW86542   8.130   5.681   5.429 -0.1541 -0.1031 -0.4252
28655SOL    HW186543   8.044   5.637   5.431  0.2396 -0.8857  1.8467
28655SOL    HW286544   8.139   5.721   5.515  0.9476  1.6714 -1.3194
28656SOL     OW86545   6.463   1.495   3.290 -0.3068  0.1381 -0.4843
28656SOL    HW186546   6.421   1.561   3.234 -0.2980  0.0702 -0.5712
28656SOL    HW286547   6.551   1.487   3.253 -0.2524  0.2015 -0.3691
28657SOL     OW86548   7.918   6.034   7.399 -0.3283  0.0631 -0.1714
28657SOL    HW186549   7.837   6.064   7.441 -1.0649 -2.0018 -0.0283
28657SOL    HW286550   7.982   6.103   7.419 -1.6620  1.0397  0.9499
28658SOL     OW86551   0.228   1.494   3.106 -0.0454 -0.3627 -0.9485
28658SOL    HW186552   0.229   1.548   3.185 -0.1522 -1.4182 -0.1933
28658SOL    HW286553   0.207   1.555   3.035  1.1651  0.8208 -0.3419
28659SOL     OW86554   0.697   7.441   3.496  0.5324 -0.0744  0.6290
28659SOL    HW186555   0.789   7.466   3.499  0.4714  0.2940 -0.3061
28659SOL    HW286556   0.663   7.464   3.582  0.9294  1.3329  0.4286
28660SOL     OW86557   0.471   0.276   9.840 -0.4998  0.5953  0.2017
28660SOL    HW186558   0.431   0.351   9.883  1.1487  1.5364  0.1987
28660SOL    HW286559   0.560   0.305   9.820 -0.2315 -0.9216 -0.9871
28661SOL     OW86560   0.602   9.752   8.604  0.3312 -0.4238  0.1715
28661SOL    HW186561   0.559   9.667   8.614 -0.8463  0.1883  0.5027
28661SOL    HW286562   0.557   9.809   8.667  0.5528  0.6409 -0.6077
28662SOL     OW86563   8.746   4.379   2.017  0.4435  0.3370 -0.0165
28662SOL    HW186564   8.806   4.384   2.092  1.0495 -1.2236 -0.3682
28662SOL    HW286565   8.686   4.452   2.030  0.7875  0.3514  1.7799
28663SOL     OW86566   6.458   5.715   7.080 -0.4419  0.4944 -0.0124
28663SOL    HW186567   6.412   5.631   7.082 -0.9899  0.6576 -2.2051
28663SOL    HW286568   6.410   5.770   7.142 -0.9848 -0.3880  0.3720
28664SOL     OW86569   6.655   2.904   6.113 -0.1400 -0.0284  0.3832
28664SOL    HW186570   6.748   2.918   6.095  0.3920 -1.8659  1.4324
28664SOL    HW286571   6.654   2.850   6.192 -2.1612  1.4205  1.4381
28665SOL     OW86572   0.754   1.376   3.230  0.3329  0.0917 -0.1243
28665SOL    HW186573   0.736   1.410   3.143 -0.0647 -2.4814 -1.1373
28665SOL    HW286574   0.733   1.448   3.289  0.0861  1.7194 -2.1082
28666SOL     OW86575   3.185   7.475   2.951  0.7635 -0.0769 -0.5800
28666SOL    HW186576   3.240   7.430   3.015  0.3415  0.6044  0.2811
28666SOL    HW286577   3.246   7.503   2.883  1.1854 -1.0082 -0.6031
28667SOL     OW86578   0.888   4.777   3.965 -0.0664 -0.7242  0.1219
28667SOL    HW186579   0.838   4.798   3.886 -1.1536 -0.0129  0.9736
28667SOL    HW286580   0.856   4.838   4.031  1.9761 -0.2226  0.7186
28668SOL     OW86581   1.507   9.169   7.358 -0.5360  0.2903  0.1186
28668SOL    HW186582   1.520   9.183   7.265 -2.9106  1.2548 -0.1561
28668SOL    HW286583   1.575   9.222   7.400 -0.2231  0.8565 -1.0680
28669SOL     OW86584   1.014   4.838   0.204 -0.1417  0.2936  0.5204
28669SOL    HW186585   1.082   4.778   0.234  0.2268  0.8607  0.8447
28669SOL    HW286586   0.950   4.782   0.159 -0.0975 -0.4107  1.3092
28670SOL     OW86587   6.630   3.181   0.210  0.6002  0.6789  0.0546
28670SOL    HW186588   6.607   3.267   0.174  2.0870  1.2443  0.3853
28670SOL    HW286589   6.645   3.126   0.133 -1.7300  0.2673 -0.1837
28671SOL     OW86590   5.605   3.458   9.978 -0.6132 -0.1582 -0.3083
28671SOL    HW186591   5.542   3.526  10.002 -0.5825  0.6868 -2.4079
28671SOL    HW286592   5.567   3.417   9.900  0.6106 -0.7776 -0.6038
28672SOL     OW86593   6.829   5.347   1.325 -0.3588 -0.2258 -0.2097
28672SOL    HW186594   6.888   5.294   1.379 -0.8450  0.0414  0.5932
28672SOL    HW286595   6.785   5.404   1.387  0.2037  1.1834 -1.0712
28673SOL     OW86596   4.439   9.479   7.193 -0.5687  0.6085  0.3390
28673SOL    HW186597   4.371   9.415   7.175 -0.5931  0.1644  1.8755
28673SOL    HW286598   4.518   9.443   7.153 -0.6706 -0.2002  0.8501
28674SOL     OW86599   5.615   9.686   1.489  0.2936  0.2717  0.6576
28674SOL    HW186600   5.620   9.652   1.578 -1.4417  1.4378  1.2592
28674SOL    HW286601   5.529   9.728   1.485  0.5963  0.7745 -1.3807
28675SOL     OW86602   1.902   3.508   1.249  0.0029 -0.2169 -0.8710
28675SOL    HW186603   1.831   3.445   1.249  0.5062 -0.8048  0.0345
28675SOL    HW286604   1.870   3.581   1.195 -0.8724 -0.9086 -1.3008
28676SOL     OW86605   8.355   7.349   5.204 -0.3967 -0.1626 -0.0136
28676SOL    HW186606   8.264   7.349   5.232 -0.7178  1.4111 -0.9120
28676SOL    HW286607   8.401   7.398   5.272  0.0398 -1.9353  1.0411
28677SOL     OW86608   0.818   1.011   5.612  0.0959  0.1360 -0.2680
28677SOL    HW186609   0.860   0.936   5.655 -0.3962  0.2919  0.5172
28677SOL    HW286610   0.809   0.985   5.521 -0.3456 -0.8990  0.0535
28678SOL     OW86611   0.011   6.695   1.909  0.0689 -0.3221  0.3412
28678SOL    HW186612   0.045   6.721   1.995 -0.9389 -2.7441  1.5568
28678SOL    HW286613  -0.033   6.612   1.925 -1.8307  0.0928 -2.1886
28679SOL     OW86614   0.846   8.485   3.560 -0.0226  0.0885  0.2938
28679SOL    HW186615   0.765   8.468   3.512  1.4354 -1.5243 -1.7607
28679SOL    HW286616   0.874   8.571   3.529 -1.1083  0.8507  1.3341
28680SOL     OW86617   9.819   9.541   8.210 -0.1481  0.3860 -0.4110
28680SOL    HW186618   9.854   9.467   8.259  2.6616  1.8654  0.0335
28680SOL    HW286619   9.727   9.545   8.236  0.5074 -0.6860  2.4883
28681SOL     OW86620   9.214   0.387   7.754  0.1859  0.1285 -0.2819
28681SOL    HW186621   9.251   0.304   7.784 -0.5432 -0.4941 -1.0341
28681SOL    HW286622   9.264   0.454   7.800 -0.4701 -0.7515  1.8353
28682SOL     OW86623   4.396   3.671   6.548  1.2922 -0.2265 -0.0730
28682SOL    HW186624   4.333   3.633   6.486  0.4748  0.5392  0.2578
28682SOL    HW286625   4.462   3.712   6.492  0.9615 -0.1800 -0.4393
28683SOL     OW86626   3.394   7.851   2.598  0.0630 -0.2414 -0.4928
28683SOL    HW186627   3.329   7.857   2.528  0.8641 -0.6507 -1.2930
28683SOL    HW286628   3.403   7.941   2.629 -0.4141 -0.0745 -0.8233
28684SOL     OW86629   4.814   9.241   1.107  0.6171  0.4359  0.5087
28684SOL    HW186630   4.817   9.150   1.137  1.7394 -0.1231 -1.1907
28684SOL    HW286631   4.734   9.277   1.148 -1.0160 -1.9052 -0.4196
28685SOL     OW86632   2.755   4.489   3.906  0.4718  0.0205  0.1390
28685SOL    HW186633   2.693   4.417   3.894  2.6692 -1.9634 -0.3079
28685SOL    HW286634   2.729   4.555   3.842 -0.4363 -1.3001 -0.9098
28686SOL     OW86635   1.110   5.856   5.662  0.3225  0.2160  0.1584
28686SOL    HW186636   1.035   5.880   5.716 -0.0886 -0.2062 -0.2149
28686SOL    HW286637   1.142   5.774   5.700 -1.8540 -1.8040 -1.9993
28687SOL     OW86638   2.256   9.167   9.450  0.3624  0.3647 -0.2714
28687SOL    HW186639   2.338   9.123   9.469 -1.3528 -2.4183  1.2683
28687SOL    HW286640   2.218   9.118   9.378 -1.4100 -0.5483  1.2074
28688SOL     OW86641   4.946   3.638   5.355  0.1062 -0.6167  0.8215
28688SOL    HW186642   4.937   3.721   5.308  1.2651 -0.5727  0.6654
28688SOL    HW286643   4.892   3.650   5.433 -2.0568 -0.7841 -0.5594
28689SOL     OW86644   9.543   1.576   4.112  0.3063  0.1445  0.3258
28689SOL    HW186645   9.492   1.655   4.124 -1.0233 -0.4247 -1.1764
28689SOL    HW286646   9.487   1.505   4.144  0.1788 -0.4703 -1.1624
28690SOL     OW86647   1.651   3.493   0.895 -0.4062 -0.0643  0.1374
28690SOL    HW186648   1.659   3.560   0.963 -2.2662  0.2662  0.0692
28690SOL    HW286649   1.720   3.430   0.916  1.0614  1.5981  0.4875
28691SOL     OW86650   4.660   6.230   9.205  0.9242  0.2070 -0.3901
28691SOL    HW186651   4.656   6.271   9.292 -0.6227  0.4222 -0.5316
28691SOL    HW286652   4.694   6.142   9.222 -0.4604 -0.1615  0.6185
28692SOL     OW86653   0.382   4.459   4.294  0.8010 -0.1198 -0.6309
28692SOL    HW186654   0.361   4.393   4.227 -0.0350 -1.2954  0.7420
28692SOL    HW286655   0.325   4.438   4.368  1.9470  0.9221  0.6056
28693SOL     OW86656   8.753   5.311   1.467  0.1096  0.1407 -0.3443
28693SOL    HW186657   8.719   5.284   1.552  0.6569  1.0948  0.2043
28693SOL    HW286658   8.702   5.262   1.403 -0.1058 -0.8165  0.5417
28694SOL     OW86659   8.808   3.394   2.240  0.2469 -0.0025 -0.3859
28694SOL    HW186660   8.738   3.459   2.244  0.7402  0.4683  1.5012
28694SOL    HW286661   8.770   3.313   2.273  0.3604  0.0418 -0.1421
28695SOL     OW86662   2.375   7.936   0.287  0.0193  0.1672 -0.3918
28695SOL    HW186663   2.351   7.853   0.245 -0.7381  1.0505 -1.7470
28695SOL    HW286664   2.316   7.942   0.362 -1.0559  0.2285 -1.2155
28696SOL     OW86665   4.176   9.926   3.825 -0.7567  0.1590 -0.0067
28696SOL    HW186666   4.106   9.912   3.889 -0.3475  0.0624  0.4197
28696SOL    HW286667   4.249   9.872   3.857 -0.6718 -0.1795 -0.7493
28697SOL     OW86668   4.609   3.773   6.404  0.1430  0.5934 -0.1794
28697SOL    HW186669   4.703   3.776   6.426  0.2972 -0.0754 -0.7381
28697SOL    HW286670   4.594   3.853   6.353  0.4831  0.5422 -0.3646
28698SOL     OW86671   9.620   5.401   1.002  0.1142 -0.0526  0.0216
28698SOL    HW186672   9.697   5.345   0.994  0.8318  1.0583 -1.3118
28698SOL    HW286673   9.593   5.418   0.912 -2.1021 -0.9008  0.4635
28699SOL     OW86674   0.601   2.240   5.021  0.3849 -0.7368  0.2824
28699SOL    HW186675   0.543   2.272   4.953 -0.3510 -1.5055  0.5294
28699SOL    HW286676   0.641   2.319   5.058 -1.0083 -0.1281  0.5585
28700SOL     OW86677   1.775   6.772   6.764  0.3240 -0.1471 -0.1765
28700SOL    HW186678   1.754   6.850   6.712  2.6238 -0.1804 -1.2776
28700SOL    HW286679   1.740   6.700   6.712  2.4956 -0.1700 -1.7584
28701SOL     OW86680   8.463   5.522   2.243  0.5916 -0.1105  0.5935
28701SOL    HW186681   8.476   5.488   2.332 -0.0088 -0.7596  0.4499
28701SOL    HW286682   8.507   5.458   2.187  1.1957  0.4404  0.4421
28702SOL     OW86683   3.795   2.412   8.908  0.1409  0.3923 -0.9547
28702SOL    HW186684   3.797   2.490   8.963 -0.9872  1.1841 -1.9777
28702SOL    HW286685   3.838   2.344   8.961 -0.6079  1.1887  0.7644
28703SOL     OW86686   0.223   3.400   0.879 -0.2679 -0.0931 -0.4730
28703SOL    HW186687   0.273   3.319   0.883 -0.3219 -0.1379 -0.6894
28703SOL    HW286688   0.176   3.395   0.796  0.2672  0.4770 -0.8190
28704SOL     OW86689   4.050   2.665   4.576 -0.7862 -0.2634  0.0794
28704SOL    HW186690   4.131   2.686   4.623 -0.2866  1.5019 -1.4612
28704SOL    HW286691   4.049   2.569   4.572 -0.8875 -0.5320  3.6397
28705SOL     OW86692   4.487   6.610   2.420  0.0660  0.3004  0.6279
28705SOL    HW186693   4.530   6.561   2.491  0.8968  0.5357  0.3063
28705SOL    HW286694   4.526   6.698   2.426 -1.6482  1.0475  1.4128
28706SOL     OW86695   4.434   7.480   3.337  0.1713  0.2118  0.5344
28706SOL    HW186696   4.465   7.525   3.415  0.2905  0.1255  0.5354
28706SOL    HW286697   4.338   7.482   3.345  0.1414  1.2202  0.1170
28707SOL     OW86698   5.792   3.767   5.612 -0.8941  0.3977 -0.1138
28707SOL    HW186699   5.795   3.826   5.687 -2.1153 -1.8630  1.8432
28707SOL    HW286700   5.802   3.680   5.650 -1.5023 -0.8340 -2.5927
28708SOL     OW86701   7.946   5.847   1.771 -0.0263 -0.5198 -0.4577
28708SOL    HW186702   7.882   5.861   1.701  0.1971  0.0130 -0.5561
28708SOL    HW286703   8.028   5.881   1.736  0.6196 -2.3615 -0.8308
28709SOL     OW86704   1.332   4.783   9.434 -0.0357 -0.6218  0.4469
28709SOL    HW186705   1.270   4.723   9.477 -1.5554  0.8047  0.3687
28709SOL    HW286706   1.339   4.750   9.344 -0.1324 -1.1977  0.6457
28710SOL     OW86707   6.955   5.129   7.060 -0.0597  0.6883 -0.5941
28710SOL    HW186708   7.026   5.144   6.999 -0.7475 -0.2603 -1.6696
28710SOL    HW286709   6.991   5.151   7.146  2.4244 -2.3059 -0.7115
28711SOL     OW86710   0.430   7.810   6.332  0.1499 -0.2461 -0.4936
28711SOL    HW186711   0.468   7.766   6.407 -3.0339 -3.0720 -0.3056
28711SOL    HW286712   0.470   7.768   6.256  0.7208  0.0619 -0.3684
28712SOL     OW86713   3.141   4.639   2.894 -0.3301 -0.5620  0.1540
28712SOL    HW186714   3.196   4.587   2.836 -0.6310 -0.5023 -0.1850
28712SOL    HW286715   3.141   4.727   2.856 -0.7767 -0.5954  0.0690
28713SOL     OW86716   9.892   5.510   8.730 -0.3767  0.1314 -0.1357
28713SOL    HW186717   9.825   5.476   8.790  0.6358 -2.1313 -0.1993
28713SOL    HW286718   9.974   5.475   8.763  0.4415  0.4663 -1.7260
28714SOL     OW86719   6.460   2.136   0.753  0.1141 -0.6888  0.4576
28714SOL    HW186720   6.385   2.084   0.726 -0.8381 -0.4416  2.4198
28714SOL    HW286721   6.462   2.209   0.691 -0.2477 -1.5383 -0.5926
28715SOL     OW86722   9.675   0.607   3.287  0.1503 -0.1124  0.0409
28715SOL    HW186723   9.769   0.608   3.271  0.0446 -0.5118 -0.6688
28715SOL    HW286724   9.638   0.568   3.208 -0.4502 -2.0877  1.2400
28716SOL     OW86725   7.579   5.202   5.712  0.2635 -0.0817 -0.7580
28716SOL    HW186726   7.506   5.262   5.696 -0.8120 -1.0296  0.4220
28716SOL    HW286727   7.627   5.242   5.784  0.7662  0.3897 -1.3392
28717SOL     OW86728   7.832   6.106   2.953  0.1374  0.4653  0.2699
28717SOL    HW186729   7.795   6.082   3.039  1.0388 -3.9367 -0.3159
28717SOL    HW286730   7.756   6.115   2.896 -0.3463 -0.3151  0.7706
28718SOL     OW86731   8.223   5.903   4.229 -0.2354  0.5463 -0.2013
28718SOL    HW186732   8.225   5.963   4.155 -0.5069  0.8300  0.0234
28718SOL    HW286733   8.145   5.927   4.279 -0.5611 -0.2301 -0.3128
28719SOL     OW86734   1.465   8.835   8.068  0.4369 -0.1163 -0.2105
28719SOL    HW186735   1.469   8.818   8.162 -0.2438  0.7500 -0.0204
28719SOL    HW286736   1.372   8.834   8.047  0.5265  0.7193 -0.6857
28720SOL     OW86737   7.111   9.153   4.120 -0.6023  0.3103 -0.2410
28720SOL    HW186738   7.121   9.084   4.055  1.6027  2.1734 -2.0565
28720SOL    HW286739   7.068   9.225   4.074  0.8228  1.6044  0.3479
28721SOL     OW86740   6.048   9.481   3.249  0.0409 -0.2164  0.2149
28721SOL    HW186741   5.952   9.472   3.245  0.1847 -1.3913 -1.8607
28721SOL    HW286742   6.080   9.422   3.181  2.2356  0.6924  0.3998
28722SOL     OW86743   6.105   1.534   2.075  0.7760  0.6129  0.7447
28722SOL    HW186744   6.020   1.523   2.118  0.8664  2.6467  1.5674
28722SOL    HW286745   6.089   1.596   2.004  1.6692  1.5949  1.3616
28723SOL     OW86746   7.399   2.364   1.247  0.0026 -0.4013  0.1405
28723SOL    HW186747   7.358   2.348   1.331 -0.4311  0.5310  0.1201
28723SOL    HW286748   7.459   2.291   1.234  0.6876 -0.1284  1.6352
28724SOL     OW86749   1.603   4.800   1.877  0.0969 -0.2941  0.1170
28724SOL    HW186750   1.668   4.768   1.939  0.2155 -0.9198 -0.3233
28724SOL    HW286751   1.632   4.889   1.855 -0.3470  0.2211  1.5038
28725SOL     OW86752   9.567   1.121   8.937  0.9915 -0.1521 -0.0320
28725SOL    HW186753   9.573   1.030   8.964  1.3005 -0.4223 -0.9423
28725SOL    HW286754   9.658   1.148   8.923  0.8378 -0.2898 -1.5330
28726SOL     OW86755   7.690   9.822   7.115 -0.2359  0.4471 -0.0137
28726SOL    HW186756   7.648   9.848   7.197  1.0354 -0.6411  1.0443
28726SOL    HW286757   7.628   9.846   7.047 -0.9897  2.1155  1.1991
28727SOL     OW86758   4.561   1.398   5.200 -0.2864  0.8664 -0.3227
28727SOL    HW186759   4.629   1.331   5.211 -0.3023  0.6977 -1.1437
28727SOL    HW286760   4.485   1.349   5.168  0.0253  1.3977 -1.9731
28728SOL     OW86761   7.955   2.410   6.841 -0.1262 -0.1796  0.1980
28728SOL    HW186762   7.914   2.328   6.870  0.2613 -0.7318 -0.7533
28728SOL    HW286763   8.047   2.401   6.868  0.0739 -0.3815 -0.5141
28729SOL     OW86764   6.851   2.006   7.329  1.2547 -0.2766 -0.1842
28729SOL    HW186765   6.798   2.055   7.266  1.9163  2.3722  1.1885
28729SOL    HW286766   6.794   1.996   7.406  1.5133 -0.7438 -0.0466
28730SOL     OW86767   3.961   9.898   4.012  0.9504 -0.3746 -0.3823
28730SOL    HW186768   3.891   9.908   3.948 -0.1535 -1.1267  0.6696
28730SOL    HW286769   3.954   9.975   4.068  1.6979  0.1117 -0.9423
28731SOL     OW86770   2.929   3.901   9.553  0.4280  0.0631  0.4933
28731SOL    HW186771   2.837   3.907   9.581  0.4968 -0.7351  0.9358
28731SOL    HW286772   2.967   3.985   9.578 -0.4390  0.8526 -0.7176
28732SOL     OW86773   8.264   2.538   2.293  0.1486 -0.0379  0.0160
28732SOL    HW186774   8.217   2.621   2.285 -2.4490 -1.4607 -0.6322
28732SOL    HW286775   8.262   2.518   2.387 -0.1089  0.1646  0.0540
28733SOL     OW86776   6.245   9.153   6.813 -0.1137 -0.0871 -0.1604
28733SOL    HW186777   6.174   9.210   6.782 -0.5215  0.6555  1.9090
28733SOL    HW286778   6.320   9.211   6.823  1.0181 -0.9696 -2.8172
28734SOL     OW86779   0.228   2.254   5.245  0.0279  0.2097  0.0546
28734SOL    HW186780   0.194   2.304   5.171  1.0113  1.0951  0.1681
28734SOL    HW286781   0.219   2.163   5.220  2.8489  0.4481 -2.3851
28735SOL     OW86782   1.531   5.988   7.684 -0.2584  0.8481 -0.7216
28735SOL    HW186783   1.470   5.933   7.635  0.1036 -0.5588  0.3284
28735SOL    HW286784   1.477   6.031   7.750 -0.2172 -0.0557 -0.0768
28736SOL     OW86785   2.357   2.640   8.705  0.1528  0.0594  0.0831
28736SOL    HW186786   2.284   2.621   8.764 -0.0643 -0.7450 -0.4307
28736SOL    HW286787   2.351   2.573   8.637 -1.7074  2.8956 -2.8443
28737SOL     OW86788   1.304   5.518   8.724 -0.1283  0.1043 -0.4039
28737SOL    HW186789   1.291   5.613   8.720 -2.4954 -0.0128  1.6221
28737SOL    HW286790   1.354   5.503   8.804 -1.1521 -0.3770  0.1816
28738SOL     OW86791   8.541   0.943   3.087 -0.0402 -0.2289 -0.0819
28738SOL    HW186792   8.610   0.895   3.133 -0.4652 -0.1135  0.6952
28738SOL    HW286793   8.578   1.029   3.071  1.1242 -1.0563 -2.4152
28739SOL     OW86794   0.789   6.355   5.914 -0.2182 -0.1872 -0.5022
28739SOL    HW186795   0.764   6.322   6.000 -1.2494 -0.7071 -0.9768
28739SOL    HW286796   0.778   6.450   5.920  0.2564 -0.1695  0.1030
28740SOL     OW86797   8.910   3.933   5.800 -0.5124 -0.3220  0.3197
28740SOL    HW186798   8.925   3.986   5.878  1.2099 -1.6476  0.9555
28740SOL    HW286799   8.876   3.850   5.834  0.2575 -0.9111 -0.3016
28741SOL     OW86800   0.537   8.348   5.315 -0.4628  0.0193 -0.1356
28741SOL    HW186801   0.502   8.416   5.257 -1.4184 -0.7215 -0.4573
28741SOL    HW286802   0.617   8.320   5.272 -1.5311 -1.0284 -1.5323
28742SOL     OW86803   2.904   3.917   9.207  0.3892 -0.1652  0.2661
28742SOL    HW186804   2.837   3.848   9.198  0.4934  0.0205 -3.5349
28742SOL    HW286805   2.864   3.994   9.167  2.7133 -0.0326 -2.1043
28743SOL     OW86806   8.186   2.485   6.082  0.2976 -0.3156 -0.0628
28743SOL    HW186807   8.248   2.557   6.100  0.0813 -0.0337 -0.4490
28743SOL    HW286808   8.100   2.525   6.090  0.1813 -0.3990 -0.8270
28744SOL     OW86809   8.648   9.014   5.130 -0.2097  0.7936  0.0166
28744SOL    HW186810   8.607   8.997   5.215 -0.7165  2.1510  0.0635
28744SOL    HW286811   8.586   8.979   5.066 -0.4458  0.9608  0.1558
28745SOL     OW86812   6.111   7.032   3.650 -0.3854 -0.1747 -0.3204
28745SOL    HW186813   6.105   6.955   3.593  1.5265  0.3228 -1.2805
28745SOL    HW286814   6.092   7.106   3.593  3.5364  0.5221 -0.9861
28746SOL     OW86815   7.629   2.729   7.045  0.6889 -0.5534  0.3986
28746SOL    HW186816   7.555   2.694   7.094  0.0779 -1.5077 -1.1557
28746SOL    HW286817   7.699   2.664   7.058 -0.0079 -1.7074 -1.3348
28747SOL     OW86818   5.606   1.261   8.171  0.2338  0.5162  0.3865
28747SOL    HW186819   5.630   1.353   8.164 -0.8877  0.8226  0.2798
28747SOL    HW286820   5.651   1.230   8.249  3.3645  0.2176 -1.3777
28748SOL     OW86821   1.229   3.213   0.636 -0.0391 -0.0691 -1.1992
28748SOL    HW186822   1.190   3.248   0.556 -0.3169  1.4993 -0.4085
28748SOL    HW286823   1.322   3.202   0.614 -0.3306 -0.8604 -2.1075
28749SOL     OW86824   3.895   1.302   2.517  0.4955 -0.0983 -0.3609
28749SOL    HW186825   3.831   1.359   2.476 -1.1251 -1.6217 -0.0608
28749SOL    HW286826   3.959   1.284   2.449 -0.3072  0.1053 -1.1800
28750SOL     OW86827   2.938   1.322   7.826 -0.0497  0.1177 -0.3066
28750SOL    HW186828   3.011   1.307   7.886 -0.5472 -0.6350  0.1176
28750SOL    HW286829   2.978   1.367   7.751  0.7194  0.3404  0.2238
28751SOL     OW86830   6.919   1.301   3.656 -0.1906  0.2270 -0.2135
28751SOL    HW186831   6.974   1.224   3.648 -0.4523  0.1546 -1.5385
28751SOL    HW286832   6.832   1.271   3.630  0.0898  1.3922 -2.7460
28752SOL     OW86833   1.814   7.577   5.039 -0.0579 -0.1962 -0.3705
28752SOL    HW186834   1.849   7.494   5.071 -1.9839 -0.8411  0.1961
28752SOL    HW286835   1.737   7.552   4.988 -1.0138  1.2641  0.2939
28753SOL     OW86836   2.930   6.116   9.328  0.8594 -0.1608  0.1630
28753SOL    HW186837   2.963   6.092   9.241  1.2636 -0.4094  0.3781
28753SOL    HW286838   2.860   6.179   9.311  0.9601 -0.1806 -0.3417
28754SOL     OW86839   7.773   7.712   6.466 -0.1835  0.0966  0.2682
28754SOL    HW186840   7.751   7.671   6.550  0.8249 -0.6058  0.2091
28754SOL    HW286841   7.828   7.648   6.422  1.6889  1.6192  0.2812
28755SOL     OW86842   2.194   6.666   9.642  0.1724  0.1803 -0.5893
28755SOL    HW186843   2.127   6.598   9.647  1.1672 -0.8954 -1.2316
28755SOL    HW286844   2.216   6.670   9.548  0.7598  0.7500 -0.4317
28756SOL     OW86845   3.481   2.952   0.909 -0.3609 -0.1231  0.2742
28756SOL    HW186846   3.544   2.956   0.838  0.9039  0.5380  1.3902
28756SOL    HW286847   3.442   3.040   0.912  0.5810  0.2816  1.2382
28757SOL     OW86848   5.871   9.857   6.464 -0.4324  0.6916  0.7488
28757SOL    HW186849   5.794   9.822   6.508 -1.7078  2.2258 -0.1600
28757SOL    HW286850   5.885   9.799   6.389 -1.3492  0.9852  0.3387
28758SOL     OW86851   7.604   8.655   0.680 -0.3943  0.3276 -0.0835
28758SOL    HW186852   7.543   8.581   0.681  0.8410 -0.7416 -0.5713
28758SOL    HW286853   7.558   8.725   0.727 -1.9987 -0.4118 -0.4820
28759SOL     OW86854   2.241   8.025   2.210 -0.2168  0.6349 -0.1293
28759SOL    HW186855   2.231   8.097   2.272  0.4101  1.4273 -0.9256
28759SOL    HW286856   2.315   8.050   2.155  1.3447 -1.5650  0.8387
28760SOL     OW86857   7.483   2.191   0.114  0.1240 -0.2774 -0.1007
28760SOL    HW186858   7.534   2.111   0.102  0.5759 -0.1476  0.8953
28760SOL    HW286859   7.422   2.170   0.185  0.1473  0.2188  0.0695
28761SOL     OW86860   8.184   8.536   8.412 -0.0749 -0.4515 -0.2719
28761SOL    HW186861   8.163   8.585   8.492 -0.8523 -1.8595  0.4384
28761SOL    HW286862   8.158   8.594   8.341  0.8331  0.9300  0.4798
28762SOL     OW86863   4.842   6.261   8.832 -0.4344  0.2174 -0.2479
28762SOL    HW186864   4.886   6.337   8.871  0.3739 -0.7373  0.7562
28762SOL    HW286865   4.913   6.206   8.800 -0.9004 -1.1446  1.0044
28763SOL     OW86866   9.369   2.133   2.389  0.2217  0.4855  0.4354
28763SOL    HW186867   9.370   2.213   2.336  0.5069  0.8801  1.0160
28763SOL    HW286868   9.442   2.081   2.357 -2.4544 -1.6462 -2.9921
28764SOL     OW86869   7.083   8.770   7.743 -0.0322  0.5247  0.3442
28764SOL    HW186870   7.030   8.818   7.806 -1.5898 -0.2992 -0.2927
28764SOL    HW286871   7.158   8.738   7.793 -0.7696  0.6471  1.5482
28765SOL     OW86872   6.789   6.408   8.193  0.0611  0.6774 -0.5584
28765SOL    HW186873   6.695   6.391   8.189  0.3260 -1.4194  0.4899
28765SOL    HW286874   6.808   6.415   8.286  1.0421  0.3978 -0.7284
28766SOL     OW86875   0.709   1.701   5.388 -0.3125 -0.0731 -0.5177
28766SOL    HW186876   0.658   1.738   5.315  0.4534  1.5091 -0.2965
28766SOL    HW286877   0.792   1.675   5.348 -0.2391 -0.0630 -0.3696
28767SOL     OW86878   9.569   0.944   2.310  0.8121 -0.2504  0.2334
28767SOL    HW186879   9.586   0.850   2.320  0.9184 -0.2736 -0.1417
28767SOL    HW286880   9.474   0.953   2.317  0.4887 -0.7509 -2.4490
28768SOL     OW86881   4.004   7.754   5.051  0.0233 -0.1880  0.6007
28768SOL    HW186882   3.932   7.810   5.080  0.7094  0.8640  0.2938
28768SOL    HW286883   4.082   7.790   5.092  0.3505 -1.5632  1.2530
28769SOL     OW86884   5.088   3.119   6.989  0.3500 -0.3062  0.0086
28769SOL    HW186885   5.124   3.034   7.014  1.8548  0.1500 -0.5098
28769SOL    HW286886   5.164   3.177   6.985 -0.6396  1.0660  0.2965
28770SOL     OW86887   2.777   0.527   6.180 -0.1229  0.1021  0.3877
28770SOL    HW186888   2.749   0.603   6.231 -2.0602 -0.4169  0.2066
28770SOL    HW286889   2.826   0.473   6.242 -0.8590  0.3616  1.2255
28771SOL     OW86890   8.968   8.440   1.282 -0.1723 -0.0550  0.1044
28771SOL    HW186891   8.967   8.529   1.247  0.2764 -0.4909 -1.0521
28771SOL    HW286892   8.992   8.452   1.374  0.5194  0.9801 -0.1868
28772SOL     OW86893   4.405   0.611   3.999  0.2627  0.0206  0.5010
28772SOL    HW186894   4.500   0.611   3.986  0.2401 -0.1841  0.3280
28772SOL    HW286895   4.374   0.691   3.955 -0.0174 -1.4991 -2.2821
28773SOL     OW86896   4.056   5.885   0.234  0.0486  0.5218  0.7563
28773SOL    HW186897   4.096   5.858   0.316 -0.0062  0.4722  0.7669
28773SOL    HW286898   4.121   5.943   0.193  0.1225  0.4556  0.7808
28774SOL     OW86899   2.879   9.928   5.085  0.1121 -0.1169 -0.3295
28774SOL    HW186900   2.898   9.969   5.000  0.1733  2.2141  0.7197
28774SOL    HW286901   2.964   9.927   5.130 -0.1322 -0.2235  0.1334
28775SOL     OW86902  -0.009   0.522   3.360  0.3339 -0.1728 -0.4489
28775SOL    HW186903   0.061   0.531   3.425  0.6244  0.4330 -0.8352
28775SOL    HW286904  -0.016   0.428   3.345  1.5963 -0.2143 -0.9599
28776SOL     OW86905   9.423   6.151   9.255  0.1043  0.3256  0.3231
28776SOL    HW186906   9.370   6.073   9.269  1.0833 -1.0096 -2.5440
28776SOL    HW286907   9.368   6.209   9.204  0.0142  0.7411  0.8830
28777SOL     OW86908   4.354   2.292   2.890 -0.1384 -0.4718 -0.0574
28777SOL    HW186909   4.397   2.324   2.970 -0.4588 -0.6365  0.1836
28777SOL    HW286910   4.425   2.287   2.826 -0.0542  0.5460 -0.0495
28778SOL     OW86911   8.833   9.313   1.504 -0.6042  0.8882  0.2158
28778SOL    HW186912   8.885   9.342   1.578 -0.2622 -1.2923  0.8918
28778SOL    HW286913   8.751   9.362   1.512  0.7117  3.3287 -0.0757
28779SOL     OW86914  10.002   0.789   4.210  0.1792 -0.3759 -0.0227
28779SOL    HW186915   9.990   0.694   4.205 -1.2412 -0.4403  2.6666
28779SOL    HW286916   9.942   0.824   4.143 -0.5232 -1.3419  0.0779
28780SOL     OW86917   6.533   9.139   4.594  0.1234  0.4829 -0.1883
28780SOL    HW186918   6.625   9.125   4.616 -0.0339  0.0326  0.1937
28780SOL    HW286919   6.532   9.224   4.549  0.4397  1.5497  1.7003
28781SOL     OW86920   6.674   9.479   8.187 -0.4574 -0.0726 -0.5691
28781SOL    HW186921   6.698   9.550   8.247 -0.3640  0.8096 -1.6210
28781SOL    HW286922   6.721   9.499   8.106 -1.6597 -0.4817 -1.3917
28782SOL     OW86923   4.215   7.764   4.028 -0.1439 -0.3465 -0.0602
28782SOL    HW186924   4.173   7.816   3.959  1.0545  2.1843  0.9622
28782SOL    HW286925   4.297   7.811   4.045  1.2234 -2.8532  0.7378
28783SOL     OW86926   2.449   7.802   8.402 -0.5402  0.0183 -0.5053
28783SOL    HW186927   2.503   7.738   8.448 -1.6006 -0.7717 -0.3287
28783SOL    HW286928   2.505   7.880   8.396  1.0253 -1.1053 -1.3178
28784SOL     OW86929   2.636   7.566   5.757  0.0599  0.4534  0.1509
28784SOL    HW186930   2.663   7.492   5.811  0.9910 -0.3701 -1.4048
28784SOL    HW286931   2.594   7.626   5.819  0.5354 -0.7298  1.6745
28785SOL     OW86932   9.806   7.497   9.520  0.0454  0.0979  0.6418
28785SOL    HW186933   9.785   7.554   9.447  0.7964  0.4689  0.6998
28785SOL    HW286934   9.866   7.432   9.483  0.8869  0.6272  1.0383
28786SOL     OW86935   4.479   5.848   6.429  0.8073 -0.4455  0.3010
28786SOL    HW186936   4.429   5.786   6.483  1.0932 -0.5299  0.4703
28786SOL    HW286937   4.478   5.808   6.341  0.5190 -0.4101  0.2849
28787SOL     OW86938   4.923   0.014  -0.033  0.1579 -0.0050 -0.1244
28787SOL    HW186939   4.976   0.029   0.045 -0.9197  1.5318  0.3624
28787SOL    HW286940   4.844  -0.029  -0.002  0.0453 -0.0553 -0.4690
28788SOL     OW86941   5.726   8.355   9.000 -0.0312  0.1142  0.7837
28788SOL    HW186942   5.640   8.396   9.003 -0.4504 -0.7900  1.9117
28788SOL    HW286943   5.723   8.289   9.069  0.2606 -2.4445 -1.4474
28789SOL     OW86944   2.434   4.326   8.805 -0.2602 -0.0917  0.6299
28789SOL    HW186945   2.499   4.276   8.756 -0.6622 -1.1632  1.1784
28789SOL    HW286946   2.480   4.355   8.884 -0.2208 -0.1505  0.6281
28790SOL     OW86947   8.555   3.385   5.462  0.1717  0.4438 -0.0573
28790SOL    HW186948   8.460   3.385   5.466  0.1871 -0.6112  0.5341
28790SOL    HW286949   8.579   3.293   5.457  1.1449  0.7220 -0.7932
28791SOL     OW86950   1.756   6.310   4.037 -0.2158 -0.1085 -0.2281
28791SOL    HW186951   1.782   6.323   4.128 -1.5677 -0.2512  0.1953
28791SOL    HW286952   1.682   6.249   4.042  1.3683 -2.3063 -1.6224
28792SOL     OW86953   5.522   1.604   3.219 -0.5713 -0.3678  0.4539
28792SOL    HW186954   5.433   1.639   3.223 -0.8671 -0.9037 -0.8345
28792SOL    HW286955   5.518   1.522   3.269 -0.5402  0.1011  1.2375
28793SOL     OW86956   9.606   3.581   1.879 -0.3317 -0.7831 -0.0571
28793SOL    HW186957   9.566   3.497   1.902  0.3266 -1.2522 -0.5859
28793SOL    HW286958   9.674   3.594   1.944  0.3028 -1.2134 -0.6130
28794SOL     OW86959   0.867   3.632   0.678  0.3274 -0.2430  0.1483
28794SOL    HW186960   0.895   3.686   0.605  1.4719 -0.8516  0.1072
28794SOL    HW286961   0.928   3.653   0.749  0.1457 -0.7137  0.4568
28795SOL     OW86962   3.916   6.234   3.347 -0.3976 -0.3590  0.0404
28795SOL    HW186963   3.997   6.278   3.373 -0.9416  0.8634 -0.2307
28795SOL    HW286964   3.941   6.143   3.331  1.5090  0.5294 -2.7168
28796SOL     OW86965   1.030   9.723   8.008 -0.3171 -0.0499 -0.3382
28796SOL    HW186966   1.059   9.766   7.928 -0.5887 -0.8486 -0.8715
28796SOL    HW286967   1.014   9.632   7.983  1.4356 -0.7956  1.0430
28797SOL     OW86968   3.865   0.166   0.155  0.4424  0.0132  0.3334
28797SOL    HW186969   3.817   0.090   0.121 -1.1131  0.3408  1.6752
28797SOL    HW286970   3.862   0.229   0.084  0.8998 -0.8080 -0.4401
28798SOL     OW86971   7.340   3.604   2.167  0.6561  0.1991 -0.3688
28798SOL    HW186972   7.330   3.648   2.252  0.3412  0.2823 -0.4476
28798SOL    HW286973   7.383   3.669   2.111  1.5748 -0.1239 -0.0572
28799SOL     OW86974   5.729   2.147   1.342 -0.2673 -0.5278  0.3719
28799SOL    HW186975   5.634   2.160   1.337  0.0471  1.6473 -2.0270
28799SOL    HW286976   5.760   2.216   1.401 -0.2210 -1.9729  2.1130
28800SOL     OW86977   3.043   6.774   1.970 -0.1786 -0.2297 -0.0643
28800SOL    HW186978   2.993   6.809   2.043 -1.1210  0.0045 -0.8006
28800SOL    HW286979   3.086   6.696   2.005 -0.2083  0.1575  0.8601
28801SOL     OW86980   4.950   1.259   8.942 -0.1325 -0.1227  0.3690
28801SOL    HW186981   5.044   1.270   8.924  0.3809 -1.0528  2.2469
28801SOL    HW286982   4.915   1.348   8.942  0.9211  0.3103  0.4522
28802SOL     OW86983   0.046   0.579   9.252 -0.0199 -0.2211 -0.1920
28802SOL    HW186984   0.051   0.501   9.307 -0.5132 -1.2341 -1.5199
28802SOL    HW286985   0.104   0.560   9.179 -2.3415 -0.6653 -2.0510
28803SOL     OW86986   2.204   6.258   0.946 -0.0310 -0.4733  0.1681
28803SOL    HW186987   2.279   6.204   0.922 -0.1752  0.0918 -1.7460
28803SOL    HW286988   2.242   6.337   0.984  0.5260  0.6238 -2.4491
28804SOL     OW86989   5.295   5.664   7.205  0.0396 -0.2387  0.3253
28804SOL    HW186990   5.369   5.610   7.179  0.4978 -0.2051  1.4937
28804SOL    HW286991   5.236   5.662   7.129 -0.5090 -3.2981  0.6650
28805SOL     OW86992   2.671   6.731   5.796  0.2117  0.3074 -0.5952
28805SOL    HW186993   2.590   6.720   5.748 -1.4473 -0.8468  2.2517
28805SOL    HW286994   2.652   6.801   5.859  1.0906 -0.5821  0.7046
28806SOL     OW86995   3.411   3.919   8.324  0.2955  0.0923 -0.1034
28806SOL    HW186996   3.433   3.999   8.373 -0.6708 -0.1918  0.8302
28806SOL    HW286997   3.390   3.950   8.236 -0.3421  0.9075  0.3269
28807SOL     OW86998   9.222   6.102   8.074  0.1872  0.0183  0.2284
28807SOL    HW186999   9.279   6.082   7.999  0.0214  0.4541 -0.0204
28807SOL    HW287000   9.276   6.156   8.132  0.0146  0.4821 -0.0357
28808SOL     OW87001   1.917   4.886   9.471 -0.8429 -0.2109 -0.1489
28808SOL    HW187002   2.002   4.920   9.444 -0.9238 -1.1818 -1.7526
28808SOL    HW287003   1.862   4.963   9.482 -0.1974  0.3348 -0.6669
28809SOL     OW87004   8.673   1.463   5.532  0.3311 -0.0533 -0.3193
28809SOL    HW187005   8.674   1.439   5.439  0.3070 -1.0756 -0.0753
28809SOL    HW287006   8.765   1.467   5.557  0.3421  0.4160 -0.4326
28810SOL     OW87007   8.350   4.985   5.769 -0.4777  0.2723  0.3138
28810SOL    HW187008   8.411   5.059   5.783  0.2570 -0.2754  0.0859
28810SOL    HW287009   8.316   4.999   5.681  1.1503 -0.6773 -0.5239
28811SOL     OW87010   0.301   9.616   0.317  0.3194 -0.1744  0.8279
28811SOL    HW187011   0.224   9.562   0.338 -1.8826  2.2659 -0.4529
28811SOL    HW287012   0.333   9.645   0.402 -0.2232 -1.1206  1.3797
28812SOL     OW87013   8.121   8.856   7.006  0.0909  0.0096  0.3300
28812SOL    HW187014   8.088   8.930   7.057  0.7754 -0.4908  1.5323
28812SOL    HW287015   8.089   8.779   7.053  1.3747 -0.4676  0.4583
28813SOL     OW87016   1.028   1.107   0.242 -0.3301  0.3923 -0.4985
28813SOL    HW187017   0.937   1.135   0.236 -0.2121  2.2149  3.1231
28813SOL    HW287018   1.073   1.181   0.283  2.3823 -1.2279 -0.2641
28814SOL     OW87019   3.705   7.930   3.713 -0.2816 -0.4050  0.0008
28814SOL    HW187020   3.738   7.885   3.635  1.7125 -2.4040  1.8609
28814SOL    HW287021   3.643   7.868   3.751 -0.4141  0.0826  0.5751
28815SOL     OW87022   5.064   7.576   0.797  0.0970 -0.0407  0.3778
28815SOL    HW187023   5.051   7.485   0.822 -0.0258  0.2051  1.2279
28815SOL    HW287024   4.987   7.622   0.829  0.9102  0.6419  1.4227
28816SOL     OW87025   6.782   8.540   6.100  0.6114  0.5920  0.0791
28816SOL    HW187026   6.860   8.569   6.146  0.1467  0.4267  0.9979
28816SOL    HW287027   6.806   8.544   6.007  2.4411 -1.4719  0.3639
28817SOL     OW87028   3.769   8.385   7.137 -0.7149  0.1274 -0.3106
28817SOL    HW187029   3.757   8.296   7.103  1.7195 -0.2692 -0.2520
28817SOL    HW287030   3.745   8.442   7.064 -1.6410 -0.5678 -0.5710
28818SOL     OW87031   8.516   2.592   5.517  0.1651 -0.1302 -0.2978
28818SOL    HW187032   8.492   2.513   5.567 -0.5985 -0.1147 -0.6228
28818SOL    HW287033   8.444   2.653   5.533  1.5209  1.1455  1.2850
28819SOL     OW87034   7.358   7.732   1.745 -0.1111  0.6500  0.2865
28819SOL    HW187035   7.386   7.683   1.668 -0.3637  0.8110  0.0927
28819SOL    HW287036   7.348   7.822   1.714  1.1812  1.0072  0.8285
28820SOL     OW87037   2.799   4.517   1.585 -0.4818 -0.0664 -0.0707
28820SOL    HW187038   2.837   4.508   1.498 -0.9631 -0.3865 -0.2512
28820SOL    HW287039   2.874   4.517   1.645 -0.2677 -2.5199 -0.2700
28821SOL     OW87040   6.343   2.039   1.965 -0.1695  0.5398  0.2523
28821SOL    HW187041   6.395   2.026   2.045  0.2768  0.9747  0.0385
28821SOL    HW287042   6.385   1.983   1.900  0.1535  1.0260  0.0315
28822SOL     OW87043   9.069   6.533   1.434  0.2315  0.1873 -0.2632
28822SOL    HW187044   8.983   6.572   1.449  0.6157  0.2478  2.3115
28822SOL    HW287045   9.057   6.440   1.452  1.0579  0.4906  2.1762
28823SOL     OW87046   6.376   1.930   4.927  0.2759  0.6121  0.0089
28823SOL    HW187047   6.448   1.990   4.906 -0.8716  1.9132 -0.3635
28823SOL    HW287048   6.303   1.961   4.874 -0.8820 -0.0089  1.1927
28824SOL     OW87049   2.010   0.290   3.168 -0.3001 -0.0508 -0.2346
28824SOL    HW187050   1.992   0.333   3.252  2.5687 -1.5002  1.2786
28824SOL    HW287051   1.928   0.248   3.144 -1.0275 -0.2064  2.2600
28825SOL     OW87052   1.627   4.134   4.727  0.2572 -0.0533  0.1402
28825SOL    HW187053   1.611   4.223   4.757 -0.0765 -0.3970  1.0352
28825SOL    HW287054   1.700   4.104   4.781  0.4033 -0.3039 -0.1940
28826SOL     OW87055   6.976   4.674   0.524 -0.3716  0.2539 -0.5651
28826SOL    HW187056   6.899   4.730   0.512 -0.1879  0.9457  1.1701
28826SOL    HW287057   7.042   4.712   0.467 -1.4294 -0.6704 -2.4911
28827SOL     OW87058   1.554   0.387   0.778 -0.0434 -0.1979  0.0794
28827SOL    HW187059   1.463   0.373   0.804 -0.7202 -1.4469 -2.5924
28827SOL    HW287060   1.553   0.470   0.731  0.4498  0.3334  0.9863
28828SOL     OW87061   9.938   3.998   5.798 -0.3461  0.2654  0.1217
28828SOL    HW187062   9.883   4.076   5.792  0.2678  0.7739  0.9610
28828SOL    HW287063  10.001   4.007   5.726 -0.1445  0.6542  0.3441
28829SOL     OW87064   3.463   0.922   7.908  0.7630  0.0751  0.2028
28829SOL    HW187065   3.518   0.898   7.983  1.0702  0.0266 -0.0350
28829SOL    HW287066   3.525   0.955   7.843  0.6019 -0.7945 -0.4026
28830SOL     OW87067  -0.001   4.130   4.580  0.1835  0.7438  0.4752
28830SOL    HW187068   0.081   4.129   4.532  0.6516 -0.1891  1.2555
28830SOL    HW287069  -0.026   4.222   4.583  1.1523  1.0302  0.1367
28831SOL     OW87070   9.198   7.584   1.407  0.1639 -0.6079 -0.3832
28831SOL    HW187071   9.249   7.649   1.454 -0.6073  0.3761 -0.8732
28831SOL    HW287072   9.123   7.566   1.464 -0.3658  0.0054 -0.8785
28832SOL     OW87073   0.884   1.386   9.523  0.6901 -0.5348 -0.2742
28832SOL    HW187074   0.977   1.406   9.517  1.1968 -2.2055  1.0373
28832SOL    HW287075   0.874   1.301   9.480  0.0760 -1.0619  0.8371
28833SOL     OW87076   6.582   4.223   8.657 -0.3223 -0.8249 -0.6337
28833SOL    HW187077   6.587   4.165   8.581 -0.0686 -0.3419 -0.9876
28833SOL    HW287078   6.620   4.172   8.728 -2.0697 -1.9205 -0.4312
28834SOL     OW87079   4.228   8.641   7.336 -0.3326  0.2745 -0.1197
28834SOL    HW187080   4.306   8.696   7.327 -0.6259  0.6967 -0.0916
28834SOL    HW287081   4.189   8.641   7.249 -1.5441  1.9342  0.3784
28835SOL     OW87082   3.571   6.147   1.562  0.3161 -0.0357  0.2455
28835SOL    HW187083   3.494   6.149   1.618 -0.1924 -1.3420 -0.3734
28835SOL    HW287084   3.552   6.212   1.494 -1.6482 -2.3357 -1.6002
28836SOL     OW87085   2.533   0.190   4.068  0.0150 -0.3901  0.3444
28836SOL    HW187086   2.509   0.120   4.128  1.5898  0.3173  1.8671
28836SOL    HW287087   2.492   0.269   4.105  1.7495  0.2162  1.0892
28837SOL     OW87088   1.416   8.849   5.569  0.0118  0.4000  0.1685
28837SOL    HW187089   1.495   8.832   5.620 -1.1109  0.6573  2.1193
28837SOL    HW287090   1.426   8.939   5.538  0.7640  0.2005 -0.1782
28838SOL     OW87091   9.209   8.507   5.015  0.2965 -0.7861 -0.1900
28838SOL    HW187092   9.228   8.492   4.923 -1.4430 -0.3476 -0.6522
28838SOL    HW287093   9.232   8.599   5.030 -1.0686 -0.3357 -0.6772
28839SOL     OW87094   1.151   2.417   1.660 -0.4130 -0.0523 -0.3956
28839SOL    HW187095   1.057   2.429   1.673 -0.5828 -2.1334  0.6216
28839SOL    HW287096   1.159   2.355   1.588  0.1163 -0.8562  0.3250
28840SOL     OW87097   2.176   4.460   4.025  0.2677 -0.1975 -0.4078
28840SOL    HW187098   2.240   4.420   3.965 -0.8029 -2.8593  0.0913
28840SOL    HW287099   2.209   4.440   4.112 -1.5372 -2.3431 -0.1281
28841SOL     OW87100   8.189   3.762   8.768 -0.0156  0.8875  0.2806
28841SOL    HW187101   8.229   3.676   8.782 -0.1032  0.4038 -1.9261
28841SOL    HW287102   8.185   3.802   8.854  2.5416 -0.2252  1.0013
28842SOL     OW87103   9.473   3.158   8.464  0.6885 -0.5247  0.0640
28842SOL    HW187104   9.534   3.197   8.402 -0.5754  0.4879 -0.5822
28842SOL    HW287105   9.450   3.230   8.523  1.4248 -1.3271  1.3937
28843SOL     OW87106   1.242   4.765   4.299  0.0645 -0.4512  0.6247
28843SOL    HW187107   1.261   4.859   4.291  1.1091 -0.5538  1.5751
28843SOL    HW287108   1.328   4.725   4.311 -0.1345 -1.7878 -1.7389
28844SOL     OW87109   8.007   2.066   0.383  0.1805  0.1455  0.5696
28844SOL    HW187110   8.068   2.054   0.311  1.2327  1.2181  1.2308
28844SOL    HW287111   8.012   1.985   0.433  0.6626  0.0163  0.3166
28845SOL     OW87112   6.662   5.903   0.030 -0.3560  0.4554  0.1421
28845SOL    HW187113   6.654   5.824   0.084  0.5635 -1.1403 -1.8840
28845SOL    HW287114   6.753   5.901   0.000 -1.3542 -0.1195 -3.2931
28846SOL     OW87115   6.940   9.182   4.780 -0.7818  0.2967  0.1854
28846SOL    HW187116   6.903   9.104   4.739 -1.6871  0.0617  1.4062
28846SOL    HW287117   7.035   9.167   4.778 -0.9837 -1.3499  1.3421
28847SOL     OW87118   8.970   4.339   9.117  0.0193 -0.2416  0.2122
28847SOL    HW187119   8.932   4.268   9.168 -0.9323  0.7237  0.8971
28847SOL    HW287120   8.933   4.329   9.029 -0.5374 -0.2673  0.4503
28848SOL     OW87121   1.657   5.501   5.280 -0.0909  0.4188 -0.1275
28848SOL    HW187122   1.749   5.475   5.279 -0.6414 -1.8761  0.9993
28848SOL    HW287123   1.609   5.420   5.295 -2.0493  1.9655  3.6606
28849SOL     OW87124   3.999   3.399   2.360 -0.0712 -0.6970  0.3651
28849SOL    HW187125   4.058   3.329   2.331 -0.4213  0.0011 -2.2760
28849SOL    HW287126   3.930   3.354   2.408  0.4356 -2.0006 -0.0839
28850SOL     OW87127   7.496   3.564   0.624  0.0725  0.2452  0.6778
28850SOL    HW187128   7.514   3.513   0.703  0.9326  0.7175  0.7974
28850SOL    HW287129   7.469   3.499   0.559  0.4212 -0.2742  1.0438
28851SOL     OW87130   3.035   9.300   0.225  0.2918  0.2270 -0.1514
28851SOL    HW187131   2.990   9.224   0.261  1.8128 -0.2495  0.8510
28851SOL    HW287132   2.971   9.371   0.230  0.1127 -0.0178  2.7543
28852SOL     OW87133   5.557   4.222   3.979  0.2039  0.5136 -0.0393
28852SOL    HW187134   5.614   4.249   4.051  0.5564  0.8158 -0.4257
28852SOL    HW287135   5.606   4.246   3.900 -0.1203  0.0618 -0.3776
28853SOL     OW87136   7.712   2.541   8.599 -0.5999 -0.0611 -0.1412
28853SOL    HW187137   7.667   2.513   8.679 -0.5192 -0.2451 -0.1591
28853SOL    HW287138   7.796   2.496   8.602 -0.6691 -0.2138 -0.4197
28854SOL     OW87139   6.408   8.385   1.469 -0.4205 -0.3143 -0.3559
28854SOL    HW187140   6.452   8.445   1.408 -1.7557  2.8194  1.4707
28854SOL    HW287141   6.475   8.321   1.493  1.1238  0.3835 -2.5191
28855SOL     OW87142   2.215   7.657   1.660 -0.2472 -0.0188 -0.2376
28855SOL    HW187143   2.207   7.571   1.702  1.7006 -0.6489 -1.0625
28855SOL    HW287144   2.282   7.702   1.712  0.7282 -0.0488 -1.4491
28856SOL     OW87145   3.524   3.040   5.694  0.0786  0.1106  0.5299
28856SOL    HW187146   3.430   3.056   5.684  0.0058 -0.4066  0.3633
28856SOL    HW287147   3.562   3.127   5.708 -0.5161  0.2554  1.3441
28857SOL     OW87148   0.008   2.233   2.520  0.6855 -0.0247 -0.1722
28857SOL    HW187149  -0.002   2.244   2.426 -0.3228 -2.3962 -0.4189
28857SOL    HW287150   0.102   2.223   2.534  0.9524  1.5023 -0.7475
28858SOL     OW87151   7.092   0.301   3.475 -0.4123  0.8677 -0.1947
28858SOL    HW187152   7.000   0.324   3.491 -0.9943 -0.1733 -1.7984
28858SOL    HW287153   7.105   0.221   3.526 -0.0751  1.5589  0.8322
28859SOL     OW87154   9.127   3.716   0.740  0.5808 -0.5411 -0.4543
28859SOL    HW187155   9.066   3.695   0.810 -0.3686  0.0057 -1.0900
28859SOL    HW287156   9.172   3.795   0.771 -0.0761 -0.1039 -0.5961
28860SOL     OW87157   7.201   9.103   5.050 -0.4726 -0.2887  0.1434
28860SOL    HW187158   7.246   9.187   5.058 -0.7573 -0.0254 -0.8569
28860SOL    HW287159   7.260   9.040   5.092 -0.9565  0.6071  2.2931
28861SOL     OW87160   5.230   1.621   5.178 -0.2296  0.2088 -0.5950
28861SOL    HW187161   5.138   1.638   5.195 -0.2406  0.9659 -1.3034
28861SOL    HW287162   5.257   1.558   5.245 -1.0547  0.5919  0.1112
28862SOL     OW87163   7.584   4.125   8.271  0.0817  0.0362  0.1839
28862SOL    HW187164   7.657   4.073   8.237 -0.2840 -0.6487  0.4150
28862SOL    HW287165   7.563   4.187   8.201  1.0803  0.4488  0.2394
28863SOL     OW87166   3.228   9.234   6.901 -0.5283 -0.1550 -0.5282
28863SOL    HW187167   3.146   9.283   6.906 -0.6298 -0.3308 -0.4465
28863SOL    HW287168   3.253   9.237   6.809 -0.8518 -0.4636 -0.6260
28864SOL     OW87169   8.711   7.629   4.691  0.8732 -0.2417 -0.1628
28864SOL    HW187170   8.729   7.679   4.770 -1.0508  1.6394 -0.7828
28864SOL    HW287171   8.712   7.695   4.621 -0.4131 -1.3019 -1.2370
28865SOL     OW87172   8.474   0.615   5.090 -0.8141 -0.1150  0.0679
28865SOL    HW187173   8.457   0.690   5.148 -0.2862 -0.2248  0.3699
28865SOL    HW287174   8.467   0.538   5.148  1.2406 -0.1453  0.3565
28866SOL     OW87175   8.103   0.528   9.670 -0.4365 -0.1481 -0.6748
28866SOL    HW187176   8.134   0.596   9.609 -1.5926  1.1047  0.0768
28866SOL    HW287177   8.058   0.465   9.614  0.5990 -0.2738 -1.3830
28867SOL     OW87178   2.480   8.810   0.874 -0.1378 -0.2025  0.1265
28867SOL    HW187179   2.572   8.790   0.859 -0.3844 -0.9859 -0.4256
28867SOL    HW287180   2.433   8.732   0.843 -0.9153 -0.3099  1.4990
28868SOL     OW87181   4.750   4.506   6.761  0.2236  0.2307 -0.2006
28868SOL    HW187182   4.760   4.432   6.701 -0.5290 -2.0735  2.3135
28868SOL    HW287183   4.656   4.520   6.767  0.1257 -1.0025  1.9619
28869SOL     OW87184   0.653   4.948   4.385 -0.3895 -0.0955 -0.3438
28869SOL    HW187185   0.590   4.974   4.317  0.5650  0.3993 -1.0762
28869SOL    HW287186   0.624   4.861   4.413 -1.6527  0.3105 -0.3352
28870SOL     OW87187   9.169   7.654   7.450 -0.3700  0.0191  0.0780
28870SOL    HW187188   9.161   7.650   7.545 -0.2496  0.3179  0.1038
28870SOL    HW287189   9.210   7.571   7.426  0.5465  0.3708  0.3923
28871SOL     OW87190   4.819   8.263   0.922  0.0684 -0.2170 -0.4156
28871SOL    HW187191   4.742   8.295   0.969 -0.3146 -1.1329 -0.4001
28871SOL    HW287192   4.839   8.332   0.859 -2.6444 -1.2191 -2.5841
28872SOL     OW87193   0.971   8.805   8.762 -0.2052  0.1115 -0.0042
28872SOL    HW187194   0.976   8.774   8.671  0.1432  0.4236 -0.0949
28872SOL    HW287195   1.059   8.790   8.797 -1.0101 -2.6944  1.1817
28873SOL     OW87196   1.905   2.313   5.510 -0.3992 -0.6834 -0.4367
28873SOL    HW187197   1.997   2.336   5.498  0.2036 -1.4796  2.0764
28873SOL    HW287198   1.898   2.224   5.476  0.1235 -1.1286  0.5697
28874SOL     OW87199   4.094   8.133   7.172 -0.5262  0.5193 -0.3056
28874SOL    HW187200   4.142   8.167   7.248  0.1092 -0.2738 -0.3338
28874SOL    HW287201   4.144   8.056   7.146 -2.5798 -1.2033  0.5281
28875SOL     OW87202   4.871   8.778   5.108  0.9107 -0.4957 -0.5776
28875SOL    HW187203   4.855   8.710   5.173  2.2702 -0.5718 -0.2855
28875SOL    HW287204   4.786   8.821   5.096  0.5390 -0.7668  0.9189
28876SOL     OW87205   1.242   6.952   1.090 -0.1569 -0.2974 -0.0231
28876SOL    HW187206   1.192   7.031   1.109 -0.3090 -0.7746  1.7685
28876SOL    HW287207   1.317   6.956   1.149  0.3849 -0.9930 -0.6431
28877SOL     OW87208   4.047   5.368   6.168 -0.1985 -0.0051  0.2494
28877SOL    HW187209   4.091   5.283   6.172  2.2039  1.1556  3.0153
28877SOL    HW287210   4.102   5.420   6.110 -0.2141  0.3625  0.5636
28878SOL     OW87211   2.342   2.962   9.270 -0.3073  0.1870  0.2623
28878SOL    HW187212   2.375   3.012   9.195 -1.2009  1.4459  0.6728
28878SOL    HW287213   2.364   2.871   9.250  2.5620  0.8062  0.0868
28879SOL     OW87214   2.398   2.851   8.537  0.8696  0.6716  0.1192
28879SOL    HW187215   2.421   2.928   8.588 -2.5382  2.2570 -0.4733
28879SOL    HW287216   2.380   2.783   8.602  2.4439  0.7579  0.6947
28880SOL     OW87217   0.529   9.591   3.030  0.2215  0.3378 -0.3280
28880SOL    HW187218   0.619   9.560   3.043  0.2961 -0.1270 -1.7365
28880SOL    HW287219   0.530   9.682   3.059  0.6647 -0.1948  1.4235
28881SOL     OW87220   6.787   1.648   9.376  0.3594 -0.5674  0.5194
28881SOL    HW187221   6.866   1.605   9.342  0.4220  0.2682 -0.4267
28881SOL    HW287222   6.719   1.628   9.311  0.0931 -0.2778  0.7066
28882SOL     OW87223   1.223   3.422   5.696  0.0492 -0.0119  0.2345
28882SOL    HW187224   1.243   3.409   5.789  0.5599 -0.0507  0.1226
28882SOL    HW287225   1.290   3.484   5.666 -0.1583  0.0576 -0.0896
28883SOL     OW87226   6.073   2.435   8.697 -0.0982  0.5384 -0.6365
28883SOL    HW187227   5.994   2.399   8.736  0.2917  1.2003  0.8239
28883SOL    HW287228   6.133   2.448   8.771  0.1148  3.2815 -1.1904
28884SOL     OW87229   4.161   8.090   4.616 -0.6691  0.0721  0.4008
28884SOL    HW187230   4.129   8.031   4.547 -1.4676  1.5955 -0.5721
28884SOL    HW287231   4.149   8.178   4.580  2.7285  0.8482  0.8053
28885SOL     OW87232   8.021   5.358   5.566  0.8139 -0.5162 -0.1877
28885SOL    HW187233   7.992   5.302   5.638 -1.7421 -1.0654 -1.5130
28885SOL    HW287234   8.115   5.370   5.581  0.7102 -2.0322  2.2340
28886SOL     OW87235   0.205   3.234   3.133  0.5235 -0.0657 -0.3826
28886SOL    HW187236   0.217   3.230   3.228  0.8525  1.3395 -0.3412
28886SOL    HW287237   0.114   3.260   3.121  0.1783 -1.2736 -0.4910
28887SOL     OW87238   2.790   2.369   0.337  0.3391  0.3005 -0.0066
28887SOL    HW187239   2.816   2.458   0.360  0.0007  0.7190 -1.1916
28887SOL    HW287240   2.839   2.314   0.398 -0.4268  1.3397  1.6238
28888SOL     OW87241   3.886   4.291   6.527  0.1988 -0.5898  0.1966
28888SOL    HW187242   3.876   4.377   6.487  0.7756 -0.5847  0.0464
28888SOL    HW287243   3.894   4.231   6.452 -1.6691 -0.9941  0.2621
28889SOL     OW87244   1.034   1.600   3.089 -0.2421 -0.3331  0.0302
28889SOL    HW187245   1.068   1.538   3.153  0.9192  1.7778  1.6238
28889SOL    HW287246   1.073   1.573   3.006  2.9679  0.1257  1.2505
28890SOL     OW87247   2.519   6.605   4.034  0.2100  0.2974 -0.6034
28890SOL    HW187248   2.523   6.510   4.024  0.2412 -0.0399  1.9437
28890SOL    HW287249   2.426   6.625   4.032  0.0900 -0.0627  0.7287
28891SOL     OW87250   6.208   0.077   6.758  0.1644  0.0221 -0.4657
28891SOL    HW187251   6.153   0.061   6.682 -0.3053  1.2653 -0.4041
28891SOL    HW287252   6.168   0.151   6.803  0.3611 -0.7465  1.0706
28892SOL     OW87253   2.998   9.922   8.418 -0.5056  0.1549  0.3169
28892SOL    HW187254   2.977   9.933   8.325  3.7826  2.6869 -0.6044
28892SOL    HW287255   2.966  10.003   8.459  0.3507  0.4471  0.4172
28893SOL     OW87256   9.378   8.587   2.051 -0.0149  0.2596 -0.0266
28893SOL    HW187257   9.285   8.573   2.067  0.1576  0.0885  0.8999
28893SOL    HW287258   9.421   8.513   2.094  0.5930  0.7409  0.2078
28894SOL     OW87259   5.978   8.941   3.011  0.3628  0.6367  0.7215
28894SOL    HW187260   6.007   8.928   3.101  0.9541  0.3977  0.5016
28894SOL    HW287261   5.983   8.855   2.971 -3.2558 -0.0268  1.3715
28895SOL     OW87262   8.175   5.622   4.210  0.2471 -1.2445 -0.0821
28895SOL    HW187263   8.179   5.712   4.244  0.7066 -1.4775  0.4972
28895SOL    HW287264   8.082   5.600   4.209  0.0101 -0.3344 -1.3883
28896SOL     OW87265   8.223   5.298   5.884  0.2436 -0.4927  0.2305
28896SOL    HW187266   8.166   5.235   5.839 -0.2704  0.8742 -1.0862
28896SOL    HW287267   8.278   5.243   5.941 -1.0087 -2.0257  0.0494
28897SOL     OW87268   1.847   2.054   7.701 -0.2252  0.5893 -0.3175
28897SOL    HW187269   1.830   2.018   7.788 -0.3337  2.4570  0.4679
28897SOL    HW287270   1.935   2.090   7.707 -0.2427  0.7492 -0.9750
28898SOL     OW87271   3.174   7.861   7.733  0.3584 -0.2066  0.4846
28898SOL    HW187272   3.242   7.888   7.672 -1.1802 -0.6827 -1.5367
28898SOL    HW287273   3.144   7.943   7.773 -0.2897  0.4670 -1.2755
28899SOL     OW87274   0.550   8.871   6.782 -0.3379  0.5170  0.3690
28899SOL    HW187275   0.570   8.835   6.868 -1.4459 -0.8048  0.1093
28899SOL    HW287276   0.598   8.816   6.721  0.2295  1.2797  0.1113
28900SOL     OW87277   7.213   9.531   7.333 -0.0148 -0.2238  0.6827
28900SOL    HW187278   7.159   9.547   7.410  2.8797 -0.3056  2.9347
28900SOL    HW287279   7.166   9.463   7.284 -1.7549 -0.5522  2.6522
28901SOL     OW87280   9.936   5.927   1.516  0.7099  0.1580  0.0580
28901SOL    HW187281  10.019   5.967   1.488  0.2103  1.9833  1.0497
28901SOL    HW287282   9.952   5.899   1.606  0.1163  1.0286  0.4519
28902SOL     OW87283   0.401   0.555   2.504 -0.2553 -0.1768 -0.6661
28902SOL    HW187284   0.429   0.637   2.464  0.0024  0.0942  0.0630
28902SOL    HW287285   0.475   0.495   2.489  0.9908  0.6746  1.6770
28903SOL     OW87286   0.505   8.156   6.333  0.1365  0.1980  0.1227
28903SOL    HW187287   0.581   8.208   6.359 -0.6803  0.7510  1.5075
28903SOL    HW287288   0.453   8.149   6.412 -2.5392  2.0058 -1.3342
28904SOL     OW87289   1.470   0.714   2.835 -0.4874 -0.5688  0.1300
28904SOL    HW187290   1.479   0.738   2.743  0.0367 -0.8395  0.1081
28904SOL    HW287291   1.542   0.758   2.879 -0.2208 -1.1248  0.2686
28905SOL     OW87292   9.143   2.517   7.676  0.5491  0.1675 -0.0930
28905SOL    HW187293   9.225   2.474   7.702  0.9966  1.1835  0.2460
28905SOL    HW287294   9.081   2.494   7.745  0.3649 -1.0646 -0.6354
28906SOL     OW87295   0.684   5.894   8.163  0.5599  0.0085 -0.0231
28906SOL    HW187296   0.688   5.889   8.067  2.4369 -0.7219  0.0506
28906SOL    HW287297   0.773   5.875   8.192  0.0147  0.1406  1.8850
28907SOL     OW87298   3.208   2.526   3.665 -0.0414  0.1887  1.0543
28907SOL    HW187299   3.151   2.562   3.733 -0.1544 -2.4634  2.5060
28907SOL    HW287300   3.285   2.583   3.665 -0.3658  0.7047  2.9137
28908SOL     OW87301   4.689   6.649   3.425  0.0839  0.6023 -0.4878
28908SOL    HW187302   4.657   6.577   3.371  0.1883 -0.4919  0.8505
28908SOL    HW287303   4.634   6.724   3.401 -1.7469 -0.5724 -0.1215
28909SOL     OW87304   3.706   9.449   5.120  0.1568 -0.3699 -0.2458
28909SOL    HW187305   3.642   9.391   5.161  0.2029  0.3235  0.8571
28909SOL    HW287306   3.763   9.390   5.070 -0.1884 -1.2036  0.3106
28910SOL     OW87307   1.002   6.270   9.541  0.3273  0.5609 -0.2153
28910SOL    HW187308   1.045   6.187   9.562 -1.6397  0.3053  3.5522
28910SOL    HW287309   1.046   6.334   9.596 -1.7172  0.9200  1.0861
28911SOL     OW87310   1.028   4.829   5.060  0.8471  0.2110 -0.2829
28911SOL    HW187311   0.995   4.822   5.150  1.7405 -1.0465 -0.0233
28911SOL    HW287312   1.121   4.849   5.072  0.9443  0.1456 -0.9353
28912SOL     OW87313   3.825   6.937   7.388 -0.5287 -0.3692 -0.3719
28912SOL    HW187314   3.917   6.942   7.413 -1.0688  1.2254  1.6000
28912SOL    HW287315   3.819   6.989   7.308  0.1181  0.4698  0.1123
28913SOL     OW87316   8.842   6.533   5.815 -0.1888 -0.7755  0.4960
28913SOL    HW187317   8.875   6.612   5.772 -0.7066 -1.2384 -0.7940
28913SOL    HW287318   8.920   6.491   5.851  0.2041 -0.1611  0.3789
28914SOL     OW87319   6.624   1.357   9.472  0.2051 -0.5118  0.2128
28914SOL    HW187320   6.635   1.419   9.544 -0.7082  1.0848 -0.9548
28914SOL    HW287321   6.644   1.272   9.510 -0.9116  0.1862  2.5293
28915SOL     OW87322   0.896   5.359   9.961  0.4308 -0.1258 -0.0878
28915SOL    HW187323   0.884   5.440   9.912  2.0824 -0.3690 -0.9531
28915SOL    HW287324   0.872   5.290   9.899 -0.7039 -0.3371  0.5557
28916SOL     OW87325   6.929   1.789   4.422  0.2743  0.2518  0.2769
28916SOL    HW187326   6.935   1.737   4.502  0.3871 -0.0547  0.0740
28916SOL    HW287327   6.849   1.756   4.379 -0.3711  1.1430  0.7668
28917SOL     OW87328   0.522   8.352   8.914  0.7460  0.7900 -0.3032
28917SOL    HW187329   0.559   8.276   8.871 -0.9721 -1.4988  1.9717
28917SOL    HW287330   0.555   8.349   9.004 -0.7584  1.6342  0.3333
28918SOL     OW87331   2.915   7.275   4.904  0.4131  0.0159 -0.5156
28918SOL    HW187332   2.983   7.209   4.895  2.0721  1.5650  0.0090
28918SOL    HW287333   2.864   7.269   4.823  0.4838 -1.8882 -0.4490
28919SOL     OW87334   9.513   5.192   4.384  0.0688  0.1242 -0.0555
28919SOL    HW187335   9.421   5.197   4.410  0.4485  0.2679  1.3381
28919SOL    HW287336   9.547   5.116   4.431  0.7955  0.3699 -0.1714
28920SOL     OW87337   9.262   6.167   3.735  0.0461 -0.1092  0.7957
28920SOL    HW187338   9.188   6.164   3.675 -0.7747  2.6323  1.5123
28920SOL    HW287339   9.332   6.120   3.690 -0.9893  0.4907 -1.5926
28921SOL     OW87340   6.232   6.647   2.845  0.5999 -0.1309  0.1333
28921SOL    HW187341   6.186   6.729   2.867  0.8390  0.1722 -0.4730
28921SOL    HW287342   6.240   6.601   2.929 -0.1808  0.1334  0.3666
28922SOL     OW87343   3.748   9.432   8.252  0.7006 -0.1478 -0.1665
28922SOL    HW187344   3.797   9.502   8.209  0.5101  0.4431  0.5693
28922SOL    HW287345   3.657   9.448   8.227  0.8275 -1.1398 -1.3833
28923SOL     OW87346   3.800   4.480   9.936 -0.3707  0.0044  0.5650
28923SOL    HW187347   3.826   4.539   9.864  0.1668  0.3112  0.9960
28923SOL    HW287348   3.806   4.535  10.014  1.1312 -0.8629  1.1104
28924SOL     OW87349   8.862   6.607   7.669 -0.2182  0.3941  0.1193
28924SOL    HW187350   8.838   6.534   7.726 -2.3842  0.1338 -1.0169
28924SOL    HW287351   8.782   6.627   7.621  0.9309  2.0770 -1.2162
28925SOL     OW87352   6.039   0.830   0.900  0.2326  0.2467  0.5262
28925SOL    HW187353   6.134   0.827   0.886  0.1736  0.7899 -0.0524
28925SOL    HW287354   6.007   0.893   0.835 -0.2668  1.8333  2.2501
28926SOL     OW87355   9.465   4.410   2.170  0.2774  0.1255 -0.5231
28926SOL    HW187356   9.505   4.362   2.098  0.7567 -0.6378  0.2418
28926SOL    HW287357   9.447   4.497   2.133 -1.6122 -0.9160 -2.2754
28927SOL     OW87358   8.291   7.219   7.322  0.8707  0.5849 -0.1850
28927SOL    HW187359   8.266   7.176   7.240 -0.8025 -0.4162  0.7985
28927SOL    HW287360   8.370   7.268   7.299 -0.6932  2.0758 -2.9153
28928SOL     OW87361   5.554   9.512   6.533 -0.5883  0.8296 -0.0444
28928SOL    HW187362   5.491   9.511   6.605 -2.5729 -1.8380 -1.6376
28928SOL    HW287363   5.507   9.474   6.459  2.3180  0.5227 -1.9185
28929SOL     OW87364   2.570   3.460   9.748 -0.2180  0.2142 -0.6225
28929SOL    HW187365   2.505   3.481   9.681 -0.5438 -1.2788 -0.8176
28929SOL    HW287366   2.535   3.499   9.828 -1.3872 -0.5762 -0.7218
28930SOL     OW87367   1.938   2.835   4.192 -0.0447  0.3450 -0.0020
28930SOL    HW187368   1.864   2.895   4.184 -0.2829  0.4307  2.1341
28930SOL    HW287369   2.013   2.883   4.156 -0.8621  0.5039 -1.5769
28931SOL     OW87370   0.441   6.754   1.397  0.8951  0.0528  0.2761
28931SOL    HW187371   0.409   6.687   1.457  0.9886  0.8231  1.2093
28931SOL    HW287372   0.449   6.709   1.312  0.0181 -0.8456  0.6569
28932SOL     OW87373   1.392   5.329   8.178 -0.1145 -0.1473 -0.1695
28932SOL    HW187374   1.460   5.396   8.179 -0.1378 -0.1283  0.3415
28932SOL    HW287375   1.408   5.277   8.257 -0.8687  0.0328  0.1091
28933SOL     OW87376   0.647   4.749   1.113  0.5454 -0.3048  0.5464
28933SOL    HW187377   0.560   4.761   1.074  0.5819  0.3446  0.6469
28933SOL    HW287378   0.660   4.827   1.167  1.6363  0.1357 -0.3122
28934SOL     OW87379   1.967   0.224   5.649  0.5631  0.1543 -0.0668
28934SOL    HW187380   1.994   0.299   5.701 -0.0578  0.5636 -0.3274
28934SOL    HW287381   2.038   0.210   5.587  0.1183  1.3347 -0.8723
28935SOL     OW87382   5.641   3.963   2.367  0.3107  0.4510  0.2269
28935SOL    HW187383   5.724   3.916   2.353  0.5419  0.5011  1.3615
28935SOL    HW287384   5.640   4.030   2.298 -0.2505 -1.4632 -1.7607
28936SOL     OW87385   2.883   6.596   4.657  0.1759 -0.0556  0.1324
28936SOL    HW187386   2.896   6.543   4.579 -0.5938 -0.2729  0.1391
28936SOL    HW287387   2.900   6.536   4.730  1.4241  0.2854  0.1517
28937SOL     OW87388   8.826   8.389   3.811  0.0020 -0.4407  0.2867
28937SOL    HW187389   8.739   8.371   3.849  0.2559  0.2118  1.2297
28937SOL    HW287390   8.878   8.420   3.885  0.5624  0.7883 -0.5956
28938SOL     OW87391   7.624   4.490   8.094 -0.0112 -0.4947 -0.0471
28938SOL    HW187392   7.677   4.535   8.160  1.4234 -0.7928 -0.9339
28938SOL    HW287393   7.581   4.560   8.046  1.2473 -0.0908 -0.6359
28939SOL     OW87394   6.409   9.619   1.038  0.2667  0.2060 -0.0412
28939SOL    HW187395   6.323   9.660   1.048  0.3964  0.5177 -0.1955
28939SOL    HW287396   6.394   9.544   0.981 -0.2574 -0.8674  1.4400
28940SOL     OW87397   8.693   8.689   0.169 -0.8172  0.5522 -0.3103
28940SOL    HW187398   8.740   8.631   0.228  0.5625 -0.3316 -2.1775
28940SOL    HW287399   8.604   8.653   0.166 -0.8083  0.3967  0.9093
28941SOL     OW87400   9.962   9.608   0.276 -0.1520 -0.0330 -1.0223
28941SOL    HW187401   9.898   9.678   0.290 -0.3716 -0.6325  1.4996
28941SOL    HW287402   9.910   9.532   0.252 -0.3788 -0.3413  0.3429
28942SOL     OW87403   6.923   4.864   7.197  0.3113  0.1057 -0.2475
28942SOL    HW187404   6.858   4.858   7.267 -0.1749 -1.8236 -0.7838
28942SOL    HW287405   6.954   4.954   7.200 -1.5046  0.7478  0.8211
28943SOL     OW87406   6.984   2.379   0.550  0.2929  0.1375  0.2052
28943SOL    HW187407   6.943   2.325   0.617  0.4007  0.2037  0.3254
28943SOL    HW287408   7.078   2.369   0.566  0.3174  0.1941  0.0959
28944SOL     OW87409   4.550   6.429   5.132  0.1820  0.6342 -0.3183
28944SOL    HW187410   4.553   6.360   5.199 -3.3219 -0.3609 -1.0005
28944SOL    HW287411   4.618   6.491   5.159  0.6540 -0.9880  2.7019
28945SOL     OW87412   6.454   0.958   2.833  0.1565  0.1488  0.1921
28945SOL    HW187413   6.386   0.890   2.837 -1.9493  2.1410  0.3533
28945SOL    HW287414   6.536   0.910   2.837 -1.1818 -2.5121 -1.3119
28946SOL     OW87415   7.042   2.000   0.370 -0.4020  0.0295  0.1309
28946SOL    HW187416   6.969   1.939   0.375 -1.5352  1.2895 -0.3749
28946SOL    HW287417   7.003   2.082   0.340  1.2521  0.6964 -0.3294
28947SOL     OW87418   3.366   8.557   3.276 -0.1020  0.0958 -0.1214
28947SOL    HW187419   3.343   8.584   3.365  2.2079 -0.6627  0.8020
28947SOL    HW287420   3.457   8.586   3.265 -0.4287  0.4520 -2.3784
28948SOL     OW87421   3.687   2.095   1.264  0.3708  0.1714 -0.7107
28948SOL    HW187422   3.596   2.084   1.237 -0.2327 -1.2097  1.6503
28948SOL    HW287423   3.718   2.007   1.280  1.3655  0.7678  0.8158
28949SOL     OW87424   4.001   8.022   9.292  0.2102  0.4689 -0.0648
28949SOL    HW187425   3.950   8.101   9.273  0.0150  0.3102 -0.1945
28949SOL    HW287426   4.070   8.022   9.227  1.7281  1.8782  1.4244
28950SOL     OW87427   8.169   1.978   5.084 -0.9323 -0.5633  0.0499
28950SOL    HW187428   8.093   1.938   5.043 -1.8803  2.0981 -1.0026
28950SOL    HW287429   8.242   1.920   5.062 -1.8521 -0.6881 -3.1455
28951SOL     OW87430   8.503   1.914   1.348 -0.2005 -0.6206 -0.4814
28951SOL    HW187431   8.547   1.829   1.342  0.4812 -0.3372  0.3428
28951SOL    HW287432   8.432   1.900   1.411  0.6024 -0.3077  0.5146
28952SOL     OW87433   8.470   9.286   1.563 -0.5391 -0.1411 -0.7306
28952SOL    HW187434   8.450   9.223   1.633 -0.0206 -1.4267 -1.7045
28952SOL    HW287435   8.481   9.370   1.609 -0.3864 -0.9097  0.6998
28953SOL     OW87436   9.728   3.337   5.563 -0.6878 -0.0459  0.2216
28953SOL    HW187437   9.637   3.366   5.569 -0.6595 -0.1099  0.9410
28953SOL    HW287438   9.774   3.384   5.632 -0.4835 -1.1861  0.8795
28954SOL     OW87439   9.808   3.855   5.116 -0.3804  0.3534 -0.6453
28954SOL    HW187440   9.742   3.836   5.048 -1.5178 -0.0902  0.5456
28954SOL    HW287441   9.875   3.787   5.103 -1.2887 -0.6145 -0.4436
28955SOL     OW87442   0.875   7.703   1.065  0.3087  0.7525  0.2186
28955SOL    HW187443   0.953   7.758   1.077 -1.8356  5.1559 -3.1211
28955SOL    HW287444   0.889   7.659   0.981 -0.0199 -0.1433  0.6110
28956SOL     OW87445   5.153   5.899   0.148  0.7277  1.4010 -0.1046
28956SOL    HW187446   5.233   5.908   0.200  1.7391 -2.0996 -0.7793
28956SOL    HW287447   5.179   5.931   0.061  2.3897 -1.8829 -0.9984
28957SOL     OW87448   7.590   1.535   9.036  0.1223  0.3144 -0.1690
28957SOL    HW187449   7.545   1.616   9.059  0.1762  0.1916  0.3758
28957SOL    HW287450   7.628   1.553   8.950 -2.0975 -0.0424 -1.3068
28958SOL     OW87451   5.814   4.372   5.741  0.4433 -0.2266 -0.3135
28958SOL    HW187452   5.826   4.356   5.648  0.0625  0.1506 -0.4316
28958SOL    HW287453   5.818   4.467   5.750 -0.7766 -0.1759 -0.1374
28959SOL     OW87454   0.215   1.842   4.708  0.1709 -0.2355  0.0031
28959SOL    HW187455   0.303   1.875   4.688  0.5120 -1.3499 -0.4405
28959SOL    HW287456   0.165   1.858   4.628 -1.0638  3.4853  1.3232
28960SOL     OW87457   1.102   6.275   3.868 -0.0056 -0.4468 -0.2144
28960SOL    HW187458   1.068   6.279   3.957 -1.4853 -0.4171 -0.7591
28960SOL    HW287459   1.142   6.361   3.854  0.4777 -0.5436  0.4937
28961SOL     OW87460   4.893   1.325   1.815 -0.0485  0.3102  0.0524
28961SOL    HW187461   4.811   1.361   1.780 -0.4417  1.6815  2.1926
28961SOL    HW287462   4.951   1.320   1.739 -1.5523  0.9720 -1.2040
28962SOL     OW87463   8.173   3.880   4.381 -0.0621 -0.2381  0.4614
28962SOL    HW187464   8.242   3.931   4.423 -1.2279  0.5878  1.4381
28962SOL    HW287465   8.108   3.944   4.353 -2.1117 -1.1725  2.7388
28963SOL     OW87466   2.480   5.743   0.693  0.5666 -0.5763  0.4681
28963SOL    HW187467   2.385   5.752   0.691  0.6079 -0.2575 -0.5673
28963SOL    HW287468   2.507   5.787   0.774 -0.2661 -1.8846  1.5180
28964SOL     OW87469   2.719   5.858   7.633  0.1889  0.0904 -0.0623
28964SOL    HW187470   2.718   5.894   7.544  0.8290  0.5598  0.1146
28964SOL    HW287471   2.626   5.850   7.656 -0.0516  3.7698  0.7303
28965SOL     OW87472   7.526   3.612   4.285 -0.2828  0.3601 -0.4735
28965SOL    HW187473   7.609   3.616   4.331 -1.1189  0.0579  1.1650
28965SOL    HW287474   7.480   3.692   4.310 -1.2171 -0.3522  0.2271
28966SOL     OW87475   6.775   6.443   7.403 -0.2904 -0.2582 -0.0210
28966SOL    HW187476   6.684   6.441   7.375 -0.2086  0.3330 -0.3576
28966SOL    HW287477   6.812   6.519   7.357  0.9906 -1.8622 -1.7978
28967SOL     OW87478   5.596   0.551   4.864 -0.1453 -0.2464  0.1777
28967SOL    HW187479   5.652   0.475   4.877 -1.1041 -1.2679 -1.4160
28967SOL    HW287480   5.578   0.582   4.953  0.5301 -1.6785  0.8512
28968SOL     OW87481   7.653   0.285   5.441  0.2014 -0.3417  0.1338
28968SOL    HW187482   7.682   0.203   5.401  0.4347 -0.4718  0.5543
28968SOL    HW287483   7.734   0.327   5.469  0.1540  0.4969 -0.9474
28969SOL     OW87484   1.603   9.704   3.761  0.2154  0.4223  0.1203
28969SOL    HW187485   1.533   9.734   3.820  0.2264 -0.1518  0.4367
28969SOL    HW287486   1.587   9.610   3.752 -0.0014  0.5646 -1.0885
28970SOL     OW87487   3.978   1.307   3.794  0.2802 -0.0387  0.1258
28970SOL    HW187488   4.052   1.259   3.757 -0.4375 -0.8863 -0.2624
28970SOL    HW287489   3.908   1.296   3.729 -0.5176 -0.1834  0.9865
28971SOL     OW87490   8.310   2.042   9.935  0.2652 -0.1703 -0.2754
28971SOL    HW187491   8.384   2.007   9.885  0.3197  0.8781 -0.9791
28971SOL    HW287492   8.275   2.112   9.880  0.6434  1.3911  1.3351
28972SOL     OW87493   2.303   5.720   3.377 -0.4167  0.1658  0.6525
28972SOL    HW187494   2.220   5.731   3.423 -0.0274  1.3448  1.1014
28972SOL    HW287495   2.303   5.789   3.311  0.2438  0.2195  0.7015
28973SOL     OW87496   9.344   4.796   0.077  0.1899 -0.4383  0.9617
28973SOL    HW187497   9.397   4.722   0.109 -0.0780 -0.5319  1.1858
28973SOL    HW287498   9.307   4.764  -0.006  2.4767  0.4854 -0.5301
28974SOL     OW87499   4.221   4.224   9.802 -0.1118  0.2564  0.1223
28974SOL    HW187500   4.279   4.150   9.786 -0.7378 -0.2406  0.1146
28974SOL    HW287501   4.231   4.243   9.895 -1.9783 -1.6217  0.7867
28975SOL     OW87502   6.388   4.866   8.836  0.4464 -0.3612  0.1450
28975SOL    HW187503   6.343   4.862   8.920 -2.0499 -1.0144 -1.1224
28975SOL    HW287504   6.463   4.807   8.846  1.6230  1.3737  2.5884
28976SOL     OW87505   6.818   2.638   3.125  0.2236  0.6300 -0.4479
28976SOL    HW187506   6.823   2.577   3.051 -1.5411  0.4771 -0.4789
28976SOL    HW287507   6.749   2.699   3.101 -0.2412  0.6980  0.9721
28977SOL     OW87508   6.526   2.168   1.221 -0.0978  0.4624  0.1496
28977SOL    HW187509   6.533   2.086   1.172  0.6392 -0.0231  1.0255
28977SOL    HW287510   6.473   2.225   1.165  0.0938 -0.3141 -0.8659
28978SOL     OW87511   4.658   6.078   7.083  0.0359  0.3827 -0.0813
28978SOL    HW187512   4.649   5.982   7.082 -0.7872  0.4560 -0.4933
28978SOL    HW287513   4.648   6.104   6.992 -1.3695  0.9937  0.2278
28979SOL     OW87514   1.475   7.845   2.648  0.6185 -0.3402 -0.3194
28979SOL    HW187515   1.473   7.777   2.581 -0.4809  0.2560 -0.9210
28979SOL    HW287516   1.530   7.914   2.611  0.3867 -0.2047 -0.4108
28980SOL     OW87517   4.147   4.441   2.696 -0.1288 -0.1447  0.7610
28980SOL    HW187518   4.077   4.394   2.740  0.3899  0.6679  2.5385
28980SOL    HW287519   4.104   4.489   2.626 -0.8692 -2.0809 -0.1828
28981SOL     OW87520   3.749   0.850   2.619  0.1927 -0.2267  0.3062
28981SOL    HW187521   3.844   0.841   2.619  0.5195  2.3322  1.5433
28981SOL    HW287522   3.732   0.926   2.675 -2.4956  0.1602 -0.8676
28982SOL     OW87523   4.020   5.601   6.581 -0.2439 -0.0276 -0.1271
28982SOL    HW187524   3.969   5.644   6.650 -1.7752  0.1068 -1.3090
28982SOL    HW287525   4.049   5.672   6.524 -1.6980 -0.4039 -1.3795
28983SOL     OW87526   2.211   2.261   9.150  0.2325 -0.4275  0.0457
28983SOL    HW187527   2.215   2.168   9.172  0.5858 -0.4903 -0.2691
28983SOL    HW287528   2.250   2.267   9.063  1.6353  0.2122  0.6811
28984SOL     OW87529   0.695   6.787   0.819  0.1821 -0.0898 -0.7770
28984SOL    HW187530   0.678   6.880   0.803 -0.4486 -0.1917 -0.7340
28984SOL    HW287531   0.789   6.776   0.802 -0.1113  0.1435 -2.7640
28985SOL     OW87532   6.734   3.576   7.696  0.4273 -0.4067  0.1024
28985SOL    HW187533   6.790   3.650   7.719  2.2528 -1.5921 -0.2857
28985SOL    HW287534   6.717   3.532   7.779 -1.1344  0.6974  0.4178
28986SOL     OW87535   7.937   3.518   8.770 -0.3103  0.0951  0.2668
28986SOL    HW187536   7.987   3.599   8.764 -1.1231  0.5594 -0.4861
28986SOL    HW287537   7.890   3.524   8.853  0.3474 -0.0404  0.6568
28987SOL     OW87538   0.683   0.279   3.961 -0.2866 -0.9068  0.0513
28987SOL    HW187539   0.597   0.246   3.937  0.3086 -3.8283  1.5245
28987SOL    HW287540   0.739   0.256   3.887 -0.5950  0.3952 -0.6144
28988SOL     OW87541   9.691   7.971   3.150  0.4654  0.1273  0.4804
28988SOL    HW187542   9.601   7.998   3.168 -1.9462 -1.8564 -5.6883
28988SOL    HW287543   9.732   8.049   3.114 -0.0168  0.2577  0.1935
28989SOL     OW87544   1.830   3.623   5.273 -0.2006  0.4227  0.4819
28989SOL    HW187545   1.755   3.565   5.256  0.1398 -0.0265  0.5002
28989SOL    HW287546   1.840   3.674   5.192  1.8162 -2.1487 -1.0176
28990SOL     OW87547   7.722   7.703   7.119 -0.4320  0.4871  0.7180
28990SOL    HW187548   7.764   7.779   7.079 -1.3940 -0.2472 -1.8623
28990SOL    HW287549   7.747   7.629   7.063 -2.9154 -0.3898  0.6595
28991SOL     OW87550   5.841   5.403   5.145 -0.1852 -0.5913 -0.1216
28991SOL    HW187551   5.748   5.425   5.154 -0.0373  0.4586 -0.9488
28991SOL    HW287552   5.866   5.372   5.231 -1.0798  0.0237  0.3827
28992SOL     OW87553   8.378   4.472   3.648  0.0390 -0.4160  0.2826
28992SOL    HW187554   8.348   4.388   3.683  0.5026 -0.8853 -0.4151
28992SOL    HW287555   8.394   4.455   3.555  1.8035 -0.0415  0.4710
28993SOL     OW87556   2.714   7.512   6.934  0.4752  0.0605  0.1647
28993SOL    HW187557   2.688   7.422   6.912  1.0223 -0.1142  0.2003
28993SOL    HW287558   2.719   7.557   6.850  0.0378  0.1010  0.1615
28994SOL     OW87559   7.027   2.721   4.829 -0.1689 -0.3198 -0.7652
28994SOL    HW187560   7.070   2.797   4.868  2.4955 -1.1614 -1.7964
28994SOL    HW287561   7.047   2.728   4.735 -0.7435 -1.7432 -1.0169
28995SOL     OW87562   4.217   2.504   1.795  0.9536 -0.5307 -0.2186
28995SOL    HW187563   4.167   2.478   1.718 -2.1225  1.8477  0.8118
28995SOL    HW287564   4.187   2.445   1.864  0.8105 -0.1477  0.0460
28996SOL     OW87565   5.272   2.329   1.626  0.0501  0.5240  0.8257
28996SOL    HW187566   5.206   2.263   1.606  0.0998  0.7569 -0.1256
28996SOL    HW287567   5.293   2.369   1.542  0.4095  1.3943  1.3140
28997SOL     OW87568   3.497   7.476   6.471 -0.1020  0.3342  0.2648
28997SOL    HW187569   3.559   7.524   6.416  1.3461 -0.8467  0.8010
28997SOL    HW287570   3.496   7.524   6.553  1.0542 -0.2677  0.6658
28998SOL     OW87571   0.113   4.728   7.481 -0.5630 -0.5442 -0.0958
28998SOL    HW187572   0.066   4.649   7.453 -0.6551 -0.4214 -0.2958
28998SOL    HW287573   0.103   4.789   7.407  0.3954 -0.7111 -0.3757
28999SOL     OW87574   4.028   2.482   8.144 -0.3007  0.1622  0.0096
28999SOL    HW187575   4.092   2.513   8.207  1.4191 -1.5997 -0.7789
28999SOL    HW287576   4.073   2.412   8.096 -2.4388 -0.3784 -1.3437
29000SOL     OW87577   1.520   6.957   7.707  0.8625 -0.5974 -0.6569
29000SOL    HW187578   1.444   6.915   7.746 -0.2978  0.9797 -1.1303
29000SOL    HW287579   1.588   6.890   7.709 -0.8598 -2.4568 -1.2903
29001SOL     OW87580   0.424   1.302   8.290 -0.1291 -0.5367 -0.2237
29001SOL    HW187581   0.332   1.329   8.296 -0.2962 -1.2925  1.1209
29001SOL    HW287582   0.445   1.272   8.379  1.3704 -0.5258 -0.5619
29002SOL     OW87583   9.279   5.172   5.641 -0.4539  0.1770 -0.0776
29002SOL    HW187584   9.347   5.227   5.682 -0.6359  0.2467  0.1336
29002SOL    HW287585   9.315   5.084   5.646 -0.3083  0.2333 -0.1099
29003SOL     OW87586   9.434   4.521   2.661  0.2061  0.4172 -0.1538
29003SOL    HW187587   9.459   4.506   2.570 -0.6819 -0.3605 -0.2871
29003SOL    HW287588   9.356   4.577   2.656  0.4485  0.7846  0.1466
29004SOL     OW87589   1.429   7.396   7.753 -0.5981 -0.4074  0.0959
29004SOL    HW187590   1.343   7.412   7.714 -0.5686 -0.0875  0.1660
29004SOL    HW287591   1.489   7.451   7.703 -0.3962 -0.7863 -0.0920
29005SOL     OW87592   9.137   9.422   6.071 -0.4502 -0.4004 -0.3895
29005SOL    HW187593   9.190   9.433   5.993  0.9756 -0.0844  0.5934
29005SOL    HW287594   9.157   9.333   6.102 -0.4427 -0.2600  0.0196
29006SOL     OW87595   1.615   6.973   4.777  1.1696 -0.0618 -0.0916
29006SOL    HW187596   1.662   6.957   4.695 -1.1359 -0.3356 -1.4647
29006SOL    HW287597   1.532   7.011   4.748 -0.7864 -2.5164  1.9304
29007SOL     OW87598   9.892   7.225   9.362  0.0805 -0.0643 -0.2219
29007SOL    HW187599   9.814   7.171   9.351  0.1412 -0.2131  0.0633
29007SOL    HW287600   9.966   7.166   9.344  0.1220  0.1437 -0.7543
29008SOL     OW87601   9.680   4.102   3.788 -0.3190 -0.2520 -0.1185
29008SOL    HW187602   9.747   4.069   3.727 -1.0444 -0.1685 -0.9922
29008SOL    HW287603   9.605   4.122   3.732 -1.0109 -0.1584  0.8164
29009SOL     OW87604   7.949   6.938   4.135 -0.1011 -0.2578  0.0523
29009SOL    HW187605   7.865   6.981   4.117 -0.1320 -0.2529  0.2059
29009SOL    HW287606   7.925   6.846   4.151  0.0247 -0.4605 -0.8557
29010SOL     OW87607   7.052   8.323   7.032 -0.0803  0.5848 -0.1145
29010SOL    HW187608   7.057   8.231   7.059 -0.9552  0.8259  0.9290
29010SOL    HW287609   7.079   8.322   6.940 -0.4516 -0.7693 -0.2348
29011SOL     OW87610   0.096   7.841   3.083 -0.2686 -0.0171 -0.2999
29011SOL    HW187611   0.017   7.791   3.103 -1.1167  1.0694 -0.7937
29011SOL    HW287612   0.126   7.806   2.999  0.3846 -1.1252  0.3698
29012SOL     OW87613   5.234   7.943   5.722 -0.0077  0.4645  0.2450
29012SOL    HW187614   5.226   7.892   5.803 -2.7483  1.1916  0.5345
29012SOL    HW287615   5.161   7.914   5.668  2.7320 -1.3187 -2.8889
29013SOL     OW87616   3.142   4.880   4.972 -0.3973 -0.4236  0.0574
29013SOL    HW187617   3.157   4.946   5.040  2.4851 -0.3487 -0.5319
29013SOL    HW287618   3.215   4.818   4.982 -0.1284 -0.6558 -2.6255
29014SOL     OW87619   9.775   7.331   4.957 -0.4284  0.8358  0.8308
29014SOL    HW187620   9.698   7.379   4.988 -0.4736  0.4015  1.4036
29014SOL    HW287621   9.793   7.267   5.026  0.6219  1.1259  0.8545
29015SOL     OW87622   1.167   0.651   6.463  0.4724 -0.7980  0.1627
29015SOL    HW187623   1.220   0.571   6.463 -0.6807 -1.5952 -0.0024
29015SOL    HW287624   1.082   0.623   6.498  0.0017  0.3291 -0.0310
29016SOL     OW87625   7.842   5.742   4.790 -0.1701  0.3770 -0.4380
29016SOL    HW187626   7.799   5.660   4.763 -1.3084  0.5457  0.7635
29016SOL    HW287627   7.928   5.738   4.749  0.5539 -2.3282  1.0978
29017SOL     OW87628   1.373   0.213   2.669 -0.4312  0.2364 -0.2834
29017SOL    HW187629   1.357   0.143   2.733 -1.5131  0.4793 -0.2581
29017SOL    HW287630   1.360   0.294   2.718 -1.2829  0.4268 -0.7837
29018SOL     OW87631   7.538   9.320   1.183 -0.2423 -0.7783  0.0262
29018SOL    HW187632   7.621   9.276   1.166  1.0495  0.3403  2.8203
29018SOL    HW287633   7.547   9.406   1.142 -1.3879 -1.7601 -2.4437
29019SOL     OW87634   5.317   1.380   5.912  0.1888  0.0124 -0.3936
29019SOL    HW187635   5.407   1.406   5.892  0.3759  1.5834  2.0160
29019SOL    HW287636   5.283   1.346   5.830  2.9979 -0.7569 -1.3715
29020SOL     OW87637   3.730   6.038   6.881  0.2173  0.5056 -0.1659
29020SOL    HW187638   3.707   6.008   6.969 -0.4237 -0.7967 -0.7575
29020SOL    HW287639   3.826   6.036   6.880  0.2488  0.9894  0.6458
29021SOL     OW87640   4.180   8.195   7.866 -0.1248 -0.5787 -0.4290
29021SOL    HW187641   4.113   8.255   7.897  0.8958 -0.8699  2.6313
29021SOL    HW287642   4.134   8.112   7.852 -0.6742 -0.3807  0.1744
29022SOL     OW87643   2.439   3.639   8.181 -0.5262 -0.7456  0.6482
29022SOL    HW187644   2.501   3.567   8.167 -0.7879 -1.6050  3.3284
29022SOL    HW287645   2.487   3.717   8.154  0.0483 -1.7851 -1.6072
29023SOL     OW87646   0.997   4.210   5.128 -0.2054 -0.3207 -0.4362
29023SOL    HW187647   1.026   4.298   5.154  0.7385 -1.1880  1.6239
29023SOL    HW287648   0.946   4.225   5.048  1.2295  1.9160 -1.0278
29024SOL     OW87649   8.866   0.483   4.253 -0.3591  0.1926  0.1480
29024SOL    HW187650   8.957   0.456   4.266 -0.1928  1.0831  0.9426
29024SOL    HW287651   8.829   0.417   4.194  0.4472 -0.8765  0.8203
29025SOL     OW87652   2.335   0.349   2.815  0.4687  0.1744  0.1438
29025SOL    HW187653   2.324   0.411   2.887  0.1115  0.2019  0.0666
29025SOL    HW287654   2.315   0.400   2.737 -2.0952 -0.5724  0.2081
29026SOL     OW87655   0.450   6.039   5.174 -0.0465 -0.2458  0.5260
29026SOL    HW187656   0.497   6.103   5.120 -0.8712 -1.7601 -2.1846
29026SOL    HW287657   0.516   6.007   5.237  1.5635  0.2020 -0.8596
29027SOL     OW87658   9.206   1.183   8.071  0.1723  0.3823 -0.0499
29027SOL    HW187659   9.170   1.241   8.004  0.3258  0.3991 -0.1191
29027SOL    HW287660   9.284   1.145   8.030 -0.2198 -0.2781 -0.1973
29028SOL     OW87661   5.044   3.542   8.502 -0.0711  0.9615  0.1020
29028SOL    HW187662   5.041   3.501   8.416  0.0632 -0.5974  0.8106
29028SOL    HW287663   5.070   3.472   8.561 -3.3786  1.0880  1.9379
29029SOL     OW87664   3.024   0.591   7.550  0.2550 -0.5029 -0.3209
29029SOL    HW187665   2.972   0.588   7.631 -0.5110 -1.0636 -0.8206
29029SOL    HW287666   3.114   0.579   7.579  0.1271  0.5186  0.5716
29030SOL     OW87667   2.134   7.817   8.651  0.0768  0.2742 -0.7205
29030SOL    HW187668   2.180   7.864   8.720 -1.4733  0.4250  0.2480
29030SOL    HW287669   2.045   7.808   8.683  0.0266 -2.3074 -1.3976
29031SOL     OW87670   5.693   5.394   3.619  0.1023  0.5194 -0.3779
29031SOL    HW187671   5.775   5.364   3.580  0.1197 -0.8095  0.6315
29031SOL    HW287672   5.655   5.451   3.552  0.4512 -1.1228 -2.0571
29032SOL     OW87673   4.315   6.848   2.256  0.2895  0.5417 -0.0108
29032SOL    HW187674   4.287   6.939   2.260 -0.1283  0.5696 -2.0832
29032SOL    HW287675   4.368   6.843   2.176  2.4506 -0.5086  1.4075
29033SOL     OW87676   8.574   2.467   7.822 -0.0039  0.1781 -0.0482
29033SOL    HW187677   8.582   2.550   7.777 -0.8655  0.1206 -0.3099
29033SOL    HW287678   8.502   2.422   7.778 -0.0058 -0.4125  0.5425
29034SOL     OW87679   9.677   0.160   4.693 -0.0224  0.6663  0.1660
29034SOL    HW187680   9.642   0.235   4.742 -1.3058 -0.6620  1.4107
29034SOL    HW287681   9.771   0.162   4.710 -0.0004  2.0899  0.0031
29035SOL     OW87682   5.140   1.216   9.600  0.0559  0.1041  0.0438
29035SOL    HW187683   5.118   1.273   9.674 -0.5263  0.0973 -0.1177
29035SOL    HW287684   5.097   1.257   9.525 -1.2802 -1.1117  0.1047
29036SOL     OW87685   0.973   0.765   0.046 -0.2538 -0.1259 -0.3100
29036SOL    HW187686   0.888   0.794   0.013 -0.2352 -0.1703 -0.3969
29036SOL    HW287687   0.986   0.679   0.007 -0.6526 -0.5823  0.5412
29037SOL     OW87688   3.522   6.966   9.191 -0.3785 -0.2511  0.7860
29037SOL    HW187689   3.431   6.951   9.217 -1.0645  1.2047 -0.6284
29037SOL    HW287690   3.552   6.880   9.161 -1.2889 -0.7452  1.2257
29038SOL     OW87691   3.170   1.055   9.192 -0.3280 -0.8959 -0.3975
29038SOL    HW187692   3.105   0.986   9.175 -0.7181 -0.8035  0.6475
29038SOL    HW287693   3.197   1.040   9.283 -0.2927  0.2341 -0.2116
29039SOL     OW87694   5.517   7.852   8.854 -0.0299  0.5122  0.1877
29039SOL    HW187695   5.551   7.772   8.815 -1.9518 -0.0994 -0.3725
29039SOL    HW287696   5.580   7.919   8.830  1.1547 -0.6632 -0.1135
29040SOL     OW87697   9.345   7.615   1.969 -0.1819 -0.0118  0.2077
29040SOL    HW187698   9.359   7.605   1.875  0.0682  1.3847  0.0769
29040SOL    HW287699   9.433   7.627   2.006 -0.2304 -1.0167  0.7043
29041SOL     OW87700   8.261   0.984   5.518 -0.0907  0.1779  0.2049
29041SOL    HW187701   8.333   0.980   5.581  1.1888 -1.1029 -1.2506
29041SOL    HW287702   8.213   0.902   5.531  1.0840 -0.8385 -1.4154
29042SOL     OW87703   0.781   5.268   2.409  0.0622  0.0713 -0.3819
29042SOL    HW187704   0.740   5.203   2.467  1.4800  0.4767  1.1852
29042SOL    HW287705   0.709   5.323   2.379 -0.9524 -1.2485 -0.4384
29043SOL     OW87706   9.278   5.105   4.027  0.2453 -0.2853 -0.7401
29043SOL    HW187707   9.313   5.057   3.952 -0.8568  0.9016 -2.0682
29043SOL    HW287708   9.350   5.164   4.053  1.2655 -1.9197  0.3145
29044SOL     OW87709   5.893   5.260   3.875  0.3014 -0.6184 -0.6540
29044SOL    HW187710   5.941   5.322   3.929 -1.1295  0.5811 -0.6828
29044SOL    HW287711   5.824   5.313   3.834 -0.7419 -2.1552 -0.9608
29045SOL     OW87712   9.286   0.634   7.092  0.1512 -0.3996  0.0337
29045SOL    HW187713   9.378   0.608   7.099  0.6168  1.3751  0.8036
29045SOL    HW287714   9.281   0.720   7.132 -1.7093 -0.1001 -0.7234
29046SOL     OW87715   9.914   4.151   6.328  0.2104 -0.4996 -0.2169
29046SOL    HW187716   9.977   4.098   6.377  0.6783  1.4587  1.4510
29046SOL    HW287717   9.841   4.165   6.389 -0.3065  0.0418 -0.9281
29047SOL     OW87718   1.741   5.086   6.291  0.0836  0.4282  0.5411
29047SOL    HW187719   1.763   5.176   6.267  0.4857  0.7139  1.8601
29047SOL    HW287720   1.775   5.077   6.380 -0.3586 -0.8867  0.5913
29048SOL     OW87721   0.940   9.889   6.587 -0.1597  0.2656  0.3402
29048SOL    HW187722   0.863   9.873   6.532 -0.2432 -0.2251  0.5913
29048SOL    HW287723   0.955   9.805   6.631  0.4261  0.4044  0.4106
29049SOL     OW87724   2.953   6.996   8.964 -0.2951  0.1932 -0.2922
29049SOL    HW187725   3.037   6.957   8.938 -0.1608  0.2067  0.1230
29049SOL    HW287726   2.892   6.967   8.896  0.3130  1.2817 -1.3400
29050SOL     OW87727   1.333   9.240   8.403  0.1176  0.4251  0.0959
29050SOL    HW187728   1.376   9.170   8.353 -1.4389 -0.1552 -0.4953
29050SOL    HW287729   1.316   9.200   8.489  0.3842  0.5248  0.1974
29051SOL     OW87730   2.583   7.895   4.361 -0.4904  0.7719 -0.1102
29051SOL    HW187731   2.560   7.912   4.453  0.2845  0.9077  0.0726
29051SOL    HW287732   2.632   7.973   4.334  1.1991 -0.1705  0.0601
29052SOL     OW87733   3.761   4.201   8.888 -0.0500 -0.3167  0.0710
29052SOL    HW187734   3.681   4.219   8.938  0.9110  1.0316  1.2240
29052SOL    HW287735   3.758   4.261   8.814 -0.0875 -0.2192  0.1514
29053SOL     OW87736   2.092   7.394   6.532  0.0879  0.3337  0.2738
29053SOL    HW187737   2.172   7.373   6.579  0.5986 -0.0607 -0.7394
29053SOL    HW287738   2.087   7.490   6.533 -0.0375  0.3177  1.3217
29054SOL     OW87739   3.619   0.221   8.682 -0.6779 -0.0336 -0.2508
29054SOL    HW187740   3.662   0.145   8.721  0.3773 -0.1336 -1.5561
29054SOL    HW287741   3.594   0.193   8.594 -2.4498  0.3942  0.0626
29055SOL     OW87742   9.236   5.852   1.683 -0.3501  0.1537 -0.1098
29055SOL    HW187743   9.284   5.773   1.655 -1.1484  0.1307 -1.5033
29055SOL    HW287744   9.155   5.849   1.633  0.5240  3.0017 -1.9436
29056SOL     OW87745   8.832   1.688   5.632 -0.2482 -0.7279 -0.8033
29056SOL    HW187746   8.900   1.634   5.673  0.0681 -0.4485 -0.9558
29056SOL    HW287747   8.804   1.748   5.702 -1.6792 -2.0635 -0.1682
29057SOL     OW87748   7.973   5.398   1.683 -0.4809  0.0615 -0.3490
29057SOL    HW187749   7.960   5.359   1.596  0.2613 -1.0819  0.0295
29057SOL    HW287750   7.938   5.332   1.744 -1.0846  0.8953  0.2209
29058SOL     OW87751   5.480   1.770   5.777 -0.1709 -0.5409 -0.4540
29058SOL    HW187752   5.481   1.857   5.736  0.2276  0.3457  1.3161
29058SOL    HW287753   5.435   1.714   5.714 -3.3547  1.6507 -0.3323
29059SOL     OW87754   7.867   0.487   6.741  0.0082  0.5925  0.5722
29059SOL    HW187755   7.957   0.511   6.763  0.3603 -1.2989  1.4169
29059SOL    HW287756   7.876   0.431   6.664 -0.6743  2.1499 -0.6816
29060SOL     OW87757   6.045   4.471   7.078  0.4464 -0.1107 -0.1675
29060SOL    HW187758   5.969   4.488   7.023  1.0183  0.3976 -0.8174
29060SOL    HW287759   6.028   4.520   7.159  0.2682  0.3460 -0.4766
29061SOL     OW87760   1.907   5.140   8.186 -0.1546 -0.0140 -0.6175
29061SOL    HW187761   1.966   5.204   8.146 -0.6635  1.3139  0.6664
29061SOL    HW287762   1.905   5.163   8.279 -0.5962 -1.7266 -0.1547
29062SOL     OW87763   9.758   1.525   8.049  0.3110 -0.1309  0.3838
29062SOL    HW187764   9.786   1.611   8.079 -0.8925  0.6949 -0.7591
29062SOL    HW287765   9.665   1.521   8.069  0.3398 -1.1467  0.3638
29063SOL     OW87766   3.806   5.374   2.870  0.2455  0.2557  0.2722
29063SOL    HW187767   3.856   5.389   2.950  2.1023 -1.4454 -0.4849
29063SOL    HW287768   3.747   5.302   2.892  1.2801 -0.7223 -0.0423
29064SOL     OW87769   5.947   2.500   6.961 -0.3024 -0.1260 -0.2541
29064SOL    HW187770   5.963   2.512   6.867  1.3980  1.1010  0.1466
29064SOL    HW287771   5.918   2.409   6.969 -0.0272 -0.3844 -1.9115
29065SOL     OW87772   1.768   9.142   5.538 -0.2382 -0.3598  0.3645
29065SOL    HW187773   1.686   9.099   5.517  0.3042 -1.5343  0.6054
29065SOL    HW287774   1.828   9.116   5.468  0.2152 -0.3359  0.7374
29066SOL     OW87775   2.866   4.948   6.729 -0.2619  0.0644 -0.6342
29066SOL    HW187776   2.933   4.904   6.781 -0.0059 -0.5346 -1.4498
29066SOL    HW287777   2.874   5.040   6.752  0.7545 -0.0207 -0.6143
29067SOL     OW87778   9.312   3.295   6.192 -0.4610 -0.2904  0.4756
29067SOL    HW187779   9.325   3.372   6.247 -0.9816  0.2995 -0.2088
29067SOL    HW287780   9.223   3.266   6.213  0.0232 -1.2176  1.3405
29068SOL     OW87781   8.515   8.401   7.148  0.1077  0.0534 -0.2969
29068SOL    HW187782   8.512   8.332   7.082  0.1344 -0.3821  0.1543
29068SOL    HW287783   8.461   8.368   7.220  1.5380 -0.2941  0.6607
29069SOL     OW87784   5.788   0.887   4.728  0.6443  0.5680  0.0547
29069SOL    HW187785   5.706   0.891   4.679  1.6119 -1.7374 -1.9884
29069SOL    HW287786   5.790   0.798   4.763  1.5813  1.0902  1.4126
29070SOL     OW87787   2.422   4.295   8.411 -0.0716 -0.2652  0.9908
29070SOL    HW187788   2.457   4.209   8.433 -2.0223 -1.6626 -0.9785
29070SOL    HW287789   2.328   4.280   8.400 -0.4327  2.0956  0.3907
29071SOL     OW87790   1.029   1.559   0.511  0.0887 -0.5124  0.2252
29071SOL    HW187791   1.113   1.595   0.481  0.7190  0.1408  2.6088
29071SOL    HW287792   0.986   1.532   0.430  1.4420  1.5995 -1.3440
29072SOL     OW87793   9.419   5.476   6.730 -0.0576 -0.1958  0.4897
29072SOL    HW187794   9.455   5.474   6.642  1.5648 -0.7199  1.1117
29072SOL    HW287795   9.394   5.385   6.748  1.8771 -0.6329  1.3662
29073SOL     OW87796   9.296   0.015   0.404 -0.4133 -0.6502 -0.0534
29073SOL    HW187797   9.290   0.108   0.428 -0.7411 -0.4089 -1.0478
29073SOL    HW287798   9.330  -0.027   0.483  1.3805  0.5517 -0.1219
29074SOL     OW87799   9.480   5.792   8.371  0.2673  0.3626  0.5458
29074SOL    HW187800   9.553   5.733   8.352 -2.2827 -3.8651  2.3735
29074SOL    HW287801   9.491   5.815   8.463 -0.8606 -0.7154  0.9749
29075SOL     OW87802   7.747   7.255   5.150  0.4034 -0.5171  0.0451
29075SOL    HW187803   7.681   7.323   5.138  0.4755 -0.6849 -1.5149
29075SOL    HW287804   7.830   7.302   5.150  0.3933 -0.4981  0.0937
29076SOL     OW87805   3.562   6.284   8.106  0.4084 -0.6048  0.1192
29076SOL    HW187806   3.584   6.195   8.077  1.7444 -1.4214  3.2837
29076SOL    HW287807   3.638   6.336   8.081  0.3353 -0.6681 -0.2562
29077SOL     OW87808   4.680   0.871   1.978  0.1972  0.2647 -0.3636
29077SOL    HW187809   4.713   0.800   2.033 -0.9193  0.5086  0.6590
29077SOL    HW287810   4.759   0.910   1.940  0.9925 -0.0166  0.9335
29078SOL     OW87811   5.420   7.958   5.320 -0.2818  0.7625 -0.0472
29078SOL    HW187812   5.382   8.039   5.356 -0.3856  0.7423 -0.1099
29078SOL    HW287813   5.412   7.969   5.225  0.7417  1.1803 -0.0901
29079SOL     OW87814   0.598   3.694   3.910  0.2451  0.4364  0.0615
29079SOL    HW187815   0.616   3.720   4.001 -1.3407 -0.2670  0.6168
29079SOL    HW287816   0.627   3.603   3.906  0.4333  0.5070 -0.1767
29080SOL     OW87817   6.722   0.126   2.914 -0.1427  0.7897 -0.5161
29080SOL    HW187818   6.733   0.221   2.909 -0.5993  0.9125  0.4972
29080SOL    HW287819   6.787   0.097   2.979  0.2569  0.3487 -1.0967
29081SOL     OW87820   3.041   1.738   7.917 -0.1197 -0.3042  0.0231
29081SOL    HW187821   3.086   1.801   7.974  0.5029 -0.6109 -0.1156
29081SOL    HW287822   2.964   1.712   7.966 -0.0374  0.0775  0.3601
29082SOL     OW87823   4.724   2.453   1.032  0.1018 -0.1595 -0.0210
29082SOL    HW187824   4.763   2.462   1.119  0.6912 -1.6701 -0.0929
29082SOL    HW287825   4.798   2.461   0.972  0.0431 -1.1509 -0.2537
29083SOL     OW87826   2.760   2.758   1.780  0.4851  0.7271 -0.3772
29083SOL    HW187827   2.806   2.758   1.864  3.2933  0.6432 -1.8015
29083SOL    HW287828   2.761   2.850   1.752 -0.9839  0.8515 -0.0692
29084SOL     OW87829   0.550   5.562   6.915  0.0730 -0.0910  0.1435
29084SOL    HW187830   0.546   5.475   6.954  0.1163  0.5624  1.6449
29084SOL    HW287831   0.494   5.616   6.970 -1.9134  0.3706 -2.1426
29085SOL     OW87832   5.871   9.170   4.671  0.0874  0.7237 -0.0588
29085SOL    HW187833   5.895   9.078   4.659 -1.9260 -0.3110  2.8040
29085SOL    HW287834   5.903   9.192   4.759 -2.7149  1.4885  0.8941
29086SOL     OW87835   8.518   7.921   7.886 -0.2733  0.6321 -0.5992
29086SOL    HW187836   8.485   7.895   7.972 -0.0117 -2.6304 -1.3789
29086SOL    HW287837   8.612   7.903   7.890 -0.1982  0.7792 -1.4604
29087SOL     OW87838   8.978   3.302   9.536 -0.4994  0.1266 -0.1901
29087SOL    HW187839   9.060   3.263   9.505 -0.2690  1.0812 -0.8440
29087SOL    HW287840   9.003   3.350   9.614 -0.7038 -0.6817  0.3790
29088SOL     OW87841   5.363   0.662   3.284  0.0223 -0.4396 -0.7320
29088SOL    HW187842   5.316   0.737   3.248  0.5312  1.3608  2.1193
29088SOL    HW287843   5.454   0.690   3.288  0.0864 -0.8017  1.2161
29089SOL     OW87844   6.660   3.341   4.771  0.1959 -0.0556  0.2270
29089SOL    HW187845   6.741   3.342   4.720 -0.1347  0.5958 -0.3093
29089SOL    HW287846   6.593   3.374   4.710 -1.0124 -3.0085 -0.2122
29090SOL     OW87847   9.652   8.891   3.134 -0.4265 -0.3329  0.7515
29090SOL    HW187848   9.598   8.864   3.208 -0.9194 -0.2130  0.4424
29090SOL    HW287849   9.681   8.979   3.156  2.1053 -1.4603  2.2774
29091SOL     OW87850   0.219   9.122   0.677  0.0003  0.5955  0.0489
29091SOL    HW187851   0.295   9.177   0.697  0.9968 -0.2677 -1.2390
29091SOL    HW287852   0.232   9.094   0.587 -1.3553 -0.3852  0.1254
29092SOL     OW87853   5.173   7.880   0.731  0.2326 -0.4810  0.3787
29092SOL    HW187854   5.127   7.963   0.722  0.6175 -0.4095 -1.3223
29092SOL    HW287855   5.120   7.817   0.681  1.5988 -0.5103 -1.1456
29093SOL     OW87856   5.982   6.607   6.616 -0.3210  0.1205 -0.2407
29093SOL    HW187857   5.930   6.569   6.687  0.7111 -0.0824  0.4248
29093SOL    HW287858   6.048   6.540   6.597  1.7485  1.6331  1.1637
29094SOL     OW87859   0.952   0.026   5.726  0.0683  0.4616 -0.7637
29094SOL    HW187860   0.890   0.051   5.657 -0.7286  2.9687  0.7191
29094SOL    HW287861   1.022   0.091   5.720  1.0216 -0.5078 -0.4622
29095SOL     OW87862   6.037   3.284   6.621  0.0619  0.2161 -0.2988
29095SOL    HW187863   6.086   3.214   6.577 -1.7767 -0.8738 -0.6890
29095SOL    HW287864   6.045   3.359   6.562  2.6248  0.6265  0.4450
29096SOL     OW87865   3.648   8.428   2.976  0.1728  0.5195  0.1193
29096SOL    HW187866   3.700   8.398   3.051  0.5306 -1.4349 -0.8501
29096SOL    HW287867   3.557   8.418   3.005  0.2703  1.8986  1.0386
29097SOL     OW87868   2.121   5.273   0.876 -0.2238 -0.4313  0.0244
29097SOL    HW187869   2.213   5.247   0.871  0.0169  0.4847 -0.5489
29097SOL    HW287870   2.078   5.200   0.920  0.7000 -1.0695 -0.0990
29098SOL     OW87871   1.979   7.866   7.879 -0.0808 -0.0008  0.4372
29098SOL    HW187872   2.039   7.815   7.934 -0.0578 -0.5175 -0.0533
29098SOL    HW287873   1.892   7.842   7.910 -0.0458  0.8226  1.2154
29099SOL     OW87874   8.622   6.871   8.436 -0.4102 -0.0458  0.2216
29099SOL    HW187875   8.705   6.854   8.480 -0.3719 -0.5656 -0.0450
29099SOL    HW287876   8.556   6.830   8.492 -0.5022  0.4532  0.4852
29100SOL     OW87877   1.284   8.172   6.404 -0.0145 -0.1711 -0.1068
29100SOL    HW187878   1.361   8.222   6.377  1.5042 -1.8548  0.8095
29100SOL    HW287879   1.238   8.152   6.323 -0.6727  2.6056 -0.4967
29101SOL     OW87880   4.751   9.017   1.984 -0.1965 -0.0221  0.0691
29101SOL    HW187881   4.833   8.989   1.944  0.3998  0.5471  0.8585
29101SOL    HW287882   4.735   9.104   1.949 -0.8074 -0.3864 -0.5727
29102SOL     OW87883   1.585   6.119   2.510 -0.7115 -0.8078  0.2493
29102SOL    HW187884   1.575   6.039   2.459 -0.1099 -0.6791 -0.0868
29102SOL    HW287885   1.614   6.184   2.447  2.5166 -1.2347  1.1147
29103SOL     OW87886   8.028   9.449   0.371 -0.4326 -0.4513 -0.2121
29103SOL    HW187887   8.013   9.519   0.435  0.4228 -0.9411  0.5550
29103SOL    HW287888   7.950   9.449   0.315 -1.3371 -0.2071  1.0191
29104SOL     OW87889   6.805   0.091   2.096  0.0768  0.0595  0.0211
29104SOL    HW187890   6.798   0.162   2.032  0.9746 -0.3840 -0.5819
29104SOL    HW287891   6.897   0.092   2.123  0.6153 -2.1185 -1.4838
29105SOL     OW87892   7.034   9.403   9.344  0.5100  0.0831  0.0017
29105SOL    HW187893   6.941   9.421   9.356  0.2953 -0.6891 -0.4680
29105SOL    HW287894   7.077   9.454   9.413 -0.2597  0.3869  0.2673
29106SOL     OW87895   2.720   4.542   0.573 -0.4604 -0.0849 -0.5688
29106SOL    HW187896   2.794   4.485   0.592 -0.3298 -0.0012 -0.8199
29106SOL    HW287897   2.756   4.610   0.516 -0.6554  0.1456 -0.4180
29107SOL     OW87898   7.586   0.531   7.189 -0.0695  0.3917 -0.1281
29107SOL    HW187899   7.632   0.601   7.235  1.8685 -0.4485 -0.7097
29107SOL    HW287900   7.619   0.535   7.100 -2.5586  0.9255 -1.1293
29108SOL     OW87901   1.333   5.227   9.122 -0.1172 -0.0534  0.4545
29108SOL    HW187902   1.250   5.263   9.089  0.1106  2.2275  2.2075
29108SOL    HW287903   1.345   5.147   9.071 -2.7996  0.1543 -0.6815
29109SOL     OW87904   7.527   4.192   1.243  0.2327  0.3488  0.0658
29109SOL    HW187905   7.474   4.115   1.260 -0.0260 -0.4183 -3.4727
29109SOL    HW287906   7.475   4.245   1.183  1.3392  2.2416  0.6611
29110SOL     OW87907   4.414   6.486   9.137 -0.1665  0.6722  0.1718
29110SOL    HW187908   4.389   6.402   9.176  0.4722  0.2015 -0.4063
29110SOL    HW287909   4.452   6.536   9.209 -2.3686  1.2706  1.0023
29111SOL     OW87910   3.185   9.411   0.427 -0.5258 -0.1096 -0.5346
29111SOL    HW187911   3.167   9.366   0.344 -0.8586  2.1282 -1.7566
29111SOL    HW287912   3.157   9.501   0.412 -1.3278  0.2084  2.3103
29112SOL     OW87913   5.647   3.646   8.644 -0.3015  0.6376  0.0848
29112SOL    HW187914   5.742   3.652   8.648 -0.2473 -0.4186  0.5130
29112SOL    HW287915   5.622   3.594   8.720 -1.1327  0.0631 -0.5582
29113SOL     OW87916   1.398   2.363   3.909  0.3628 -0.7514 -0.0827
29113SOL    HW187917   1.321   2.318   3.943  0.5534 -1.6801 -0.8444
29113SOL    HW287918   1.373   2.394   3.822 -0.0922  1.5445  0.7852
29114SOL     OW87919   3.097   0.020   6.400  0.3179  0.0673  0.0354
29114SOL    HW187920   3.163   0.085   6.424 -1.2978  1.6222  0.4868
29114SOL    HW287921   3.052   0.058   6.325  0.3950 -1.3139 -0.7441
29115SOL     OW87922   3.927   1.263   4.057  0.1164  0.8964  0.4940
29115SOL    HW187923   3.935   1.291   3.966 -1.3077  0.4654  0.2063
29115SOL    HW287924   3.923   1.344   4.107  0.0210  1.1539  0.0759
29116SOL     OW87925   0.940   3.306   4.936 -0.1640  0.0508 -0.4091
29116SOL    HW187926   0.998   3.376   4.966 -1.3064  1.0155 -0.3985
29116SOL    HW287927   0.984   3.226   4.964  0.4292  0.8010  0.9271
29117SOL     OW87928   1.193   1.944   6.868 -0.2236  0.0889 -0.0609
29117SOL    HW187929   1.257   1.968   6.935  0.0275  1.3039 -0.7033
29117SOL    HW287930   1.174   1.852   6.885  1.4051 -0.2023  0.4010
29118SOL     OW87931   4.861   2.301   3.894 -0.1257 -0.2819  0.3394
29118SOL    HW187932   4.769   2.310   3.869 -0.1413 -0.0902  0.4644
29118SOL    HW287933   4.905   2.276   3.813  0.0934  1.9586 -0.2934
29119SOL     OW87934   7.859   1.579   9.498  0.0400  0.2413 -0.3213
29119SOL    HW187935   7.806   1.583   9.418  0.4785 -0.2729 -0.6417
29119SOL    HW287936   7.892   1.668   9.509 -0.7225  0.5228 -0.2293
29120SOL     OW87937   8.133   0.667   5.306  0.3837 -0.0816  0.1707
29120SOL    HW187938   8.051   0.716   5.313 -1.9357 -3.0251 -2.8915
29120SOL    HW287939   8.118   0.588   5.357  1.1629 -0.7688 -0.6333
29121SOL     OW87940   5.743   8.955   6.814 -0.3467 -0.0809  0.6598
29121SOL    HW187941   5.712   8.865   6.809 -0.9544  0.0865  1.2692
29121SOL    HW287942   5.720   8.994   6.730  3.4860 -1.5476 -1.3126
29122SOL     OW87943   8.099   1.324   0.193  0.3827 -0.3799 -0.4015
29122SOL    HW187944   8.017   1.309   0.144  1.2235 -0.5293 -1.8139
29122SOL    HW287945   8.168   1.305   0.130  1.5577  2.8476 -0.2815
29123SOL     OW87946   0.116   4.875   0.142 -0.1209 -0.1754 -0.3690
29123SOL    HW187947   0.119   4.837   0.054 -1.0370 -1.9028  0.2823
29123SOL    HW287948   0.101   4.800   0.199  2.2426  0.6407  1.4790
29124SOL     OW87949   3.464   9.808   1.215  0.1465  0.0100 -0.4832
29124SOL    HW187950   3.534   9.815   1.151  0.2290  0.4698 -0.3510
29124SOL    HW287951   3.386   9.839   1.168  0.5387  2.1466  0.1454
29125SOL     OW87952   2.601   5.534   7.926 -0.1900 -0.0405  0.1704
29125SOL    HW187953   2.640   5.614   7.891 -0.1599 -0.0269  0.2338
29125SOL    HW287954   2.675   5.478   7.949 -0.2041  0.0449  0.4281
29126SOL     OW87955   7.057   2.345   3.450 -0.4228  0.3591 -0.0972
29126SOL    HW187956   6.965   2.343   3.475 -0.2165 -0.2387  0.6382
29126SOL    HW287957   7.083   2.253   3.445  0.3404  0.5309  0.4904
29127SOL     OW87958   6.440   3.287   6.613 -0.4508 -0.2879 -0.4030
29127SOL    HW187959   6.518   3.251   6.655  0.0521  0.5622 -0.5680
29127SOL    HW287960   6.444   3.255   6.523 -0.2063 -0.1205 -0.4526
29128SOL     OW87961   3.146   6.511   4.149  0.7130 -0.1459 -0.1663
29128SOL    HW187962   3.114   6.565   4.077  0.6937 -0.0696 -0.1009
29128SOL    HW287963   3.191   6.438   4.106  3.1054  1.2968 -0.2775
29129SOL     OW87964   0.929   9.652   6.746 -0.4435 -0.2805  0.2415
29129SOL    HW187965   0.836   9.635   6.762 -0.6438 -0.6585 -1.1625
29129SOL    HW287966   0.967   9.565   6.733  0.1286 -0.1328  0.9111
29130SOL     OW87967   0.193   4.536   8.724 -0.0098  0.0430  1.0975
29130SOL    HW187968   0.119   4.585   8.760 -0.1393  0.9028 -0.2258
29130SOL    HW287969   0.218   4.586   8.646  0.8160 -1.2133  0.5209
29131SOL     OW87970   9.296   8.774   5.061  0.6211 -0.3719 -0.2388
29131SOL    HW187971   9.280   8.856   5.106  0.8961  2.7178 -5.0288
29131SOL    HW287972   9.391   8.774   5.044  0.5504 -1.3823 -0.7175
29132SOL     OW87973   7.709   1.794   3.283  0.2616 -0.0394 -0.1541
29132SOL    HW187974   7.681   1.736   3.354  0.5387 -2.1769 -1.6854
29132SOL    HW287975   7.799   1.818   3.305  0.6937 -1.5001 -0.2530
29133SOL     OW87976   7.543   6.405   2.600 -0.4537  0.0777 -0.2012
29133SOL    HW187977   7.567   6.372   2.513  1.5502 -0.2465  0.4119
29133SOL    HW287978   7.602   6.480   2.613 -1.0507  0.3954  0.6978
29134SOL     OW87979   8.024   3.272   2.240  0.1212 -0.2931  0.6748
29134SOL    HW187980   8.072   3.194   2.212 -0.9505 -1.3940  1.7890
29134SOL    HW287981   8.042   3.278   2.334 -1.2722 -0.2913  0.9601
29135SOL     OW87982   2.501   3.611   9.972 -0.0823 -0.2963  0.1520
29135SOL    HW187983   2.480   3.692   9.926  0.3016 -0.6020 -0.5669
29135SOL    HW287984   2.419   3.587  10.016 -0.3076  0.2639  0.0509
29136SOL     OW87985   4.719   8.897   2.572 -0.0948 -0.4737  0.5422
29136SOL    HW187986   4.650   8.831   2.566  1.4125 -2.2344  1.5479
29136SOL    HW287987   4.772   8.883   2.494 -1.0664  1.1713 -0.4583
29137SOL     OW87988   0.979   5.673   3.605  0.2615  0.0525 -0.2805
29137SOL    HW187989   1.047   5.739   3.599  0.3467  0.1464  1.3365
29137SOL    HW287990   0.914   5.710   3.665  0.0556 -1.1121  0.2490
29138SOL     OW87991   1.665   7.190   1.617 -0.2352 -0.0483  0.0257
29138SOL    HW187992   1.654   7.198   1.522 -3.1949 -2.0722  0.0624
29138SOL    HW287993   1.759   7.175   1.629  0.1949  0.0702 -2.5705
29139SOL     OW87994   3.552   2.330   2.581  0.1028 -0.4448 -0.1564
29139SOL    HW187995   3.509   2.395   2.526 -0.0773 -0.9849 -0.6636
29139SOL    HW287996   3.553   2.250   2.528 -2.6376 -1.8007  1.6191
29140SOL     OW87997   2.563   7.447   2.005 -0.3408  0.0459 -0.6240
29140SOL    HW187998   2.482   7.487   2.035  0.0885  0.7609 -0.3953
29140SOL    HW287999   2.594   7.397   2.080 -0.2481  0.2857 -0.5010
29141SOL     OW88000   5.095   5.874   4.767  0.2286  0.0584  0.1716
29141SOL    HW188001   5.068   5.937   4.835 -0.1787  0.6436 -0.5245
29141SOL    HW288002   5.062   5.790   4.798  0.6418  0.1970  1.0387
29142SOL     OW88003   5.674   1.649   7.375 -0.1940  0.6071  0.4460
29142SOL    HW188004   5.714   1.613   7.296 -0.3051  3.1416 -0.8703
29142SOL    HW288005   5.583   1.618   7.372  0.2432 -0.7608  0.5663
29143SOL     OW88006   1.380   1.181   8.972  0.2660  0.0819  0.0888
29143SOL    HW188007   1.354   1.259   9.019  1.3759  0.5867 -0.1016
29143SOL    HW288008   1.475   1.178   8.980  0.3341 -0.7048 -0.7431
29144SOL     OW88009   7.150   0.268   8.145  0.8992  0.6996 -0.3316
29144SOL    HW188010   7.090   0.208   8.102  0.8491  0.1222  0.5230
29144SOL    HW288011   7.237   0.232   8.126  0.8274 -0.2274  1.0095
29145SOL     OW88012   1.194   2.226   3.047  0.1577  0.2534 -0.1109
29145SOL    HW188013   1.266   2.244   2.986 -1.4679  0.3090 -2.1086
29145SOL    HW288014   1.151   2.311   3.058  0.2365  0.1731  0.8756
29146SOL     OW88015   8.633   0.699   3.952 -0.2353 -0.1828  0.2140
29146SOL    HW188016   8.594   0.754   3.885  1.0246  2.1887  1.2996
29146SOL    HW288017   8.693   0.642   3.904 -0.1512  0.7120 -0.7847
29147SOL     OW88018   8.162   8.651   6.289 -0.1154 -0.0246  0.7934
29147SOL    HW188019   8.197   8.598   6.217 -1.2417 -1.5424  1.3150
29147SOL    HW288020   8.231   8.650   6.355  0.7615  1.0371 -0.0705
29148SOL     OW88021   8.841   2.625   5.965 -0.0042  0.0371 -0.1700
29148SOL    HW188022   8.859   2.643   6.058 -1.2953 -1.8284  0.5075
29148SOL    HW288023   8.904   2.679   5.918  1.4745  0.2007  1.8210
29149SOL     OW88024   7.163   6.969   5.895 -0.7995 -0.2376 -0.4324
29149SOL    HW188025   7.158   7.057   5.933 -0.8802 -1.1538  1.8226
29149SOL    HW288026   7.088   6.964   5.835  0.9407  2.2385 -3.0752
29150SOL     OW88027   9.567   4.648   1.843  0.0106 -0.1914  0.6316
29150SOL    HW188028   9.514   4.611   1.914  0.6194 -0.2584  1.0692
29150SOL    HW288029   9.631   4.703   1.888 -0.5706  1.0184  0.0177
29151SOL     OW88030   8.470   0.015   1.797 -0.2122 -0.0742  0.4770
29151SOL    HW188031   8.394   0.007   1.855  0.0191  0.8455  0.9253
29151SOL    HW288032   8.541   0.041   1.855 -0.1681  1.6997 -0.3353
29152SOL     OW88033   2.099   0.910   4.432  0.2937  0.1346 -0.1403
29152SOL    HW188034   2.055   0.836   4.390 -0.4548 -0.0558  0.9424
29152SOL    HW288035   2.094   0.892   4.526  0.2397  1.4708  0.1411
29153SOL     OW88036   1.667   3.148   4.835  0.2548 -0.3995 -0.0235
29153SOL    HW188037   1.759   3.124   4.828  0.1645 -0.6498 -0.4086
29153SOL    HW288038   1.662   3.235   4.796  0.2403 -0.6154 -0.5195
29154SOL     OW88039   6.593   7.330   4.963 -0.3260  0.6465 -0.0679
29154SOL    HW188040   6.542   7.277   5.024  0.1016  0.6173  0.2638
29154SOL    HW288041   6.539   7.332   4.883 -0.2532 -0.4845 -0.1696
29155SOL     OW88042   4.749   2.216   3.073  0.1813 -0.0211 -0.3566
29155SOL    HW188043   4.687   2.289   3.080  1.2284  0.8901 -0.1878
29155SOL    HW288044   4.714   2.161   3.003 -0.4575  0.8360 -0.7326
29156SOL     OW88045   7.719   5.828   1.612 -0.0648 -0.3111 -0.2389
29156SOL    HW188046   7.691   5.858   1.525  0.3910 -0.6607 -0.5148
29156SOL    HW288047   7.642   5.841   1.668 -0.6998 -0.9884 -0.9127
29157SOL     OW88048   4.067   8.316   1.233  0.2541  0.3357 -0.2852
29157SOL    HW188049   4.028   8.393   1.274  0.0650  0.3830 -0.5573
29157SOL    HW288050   4.140   8.350   1.182 -1.6140  0.7503 -2.8793
29158SOL     OW88051   4.780   0.489   1.239  0.0614 -0.3306 -0.4667
29158SOL    HW188052   4.733   0.405   1.239 -0.1895 -0.2489 -2.5983
29158SOL    HW288053   4.855   0.475   1.296 -2.4368 -0.4798  3.0713
29159SOL     OW88054   9.978   5.218   2.176  0.0850  0.1899 -0.0038
29159SOL    HW188055  10.018   5.270   2.246 -0.9983  0.1238  0.7016
29159SOL    HW288056   9.908   5.274   2.142  1.1914  0.6191 -1.7327
29160SOL     OW88057   3.794   6.557   0.558  0.5199  0.7143  0.6549
29160SOL    HW188058   3.816   6.551   0.465  1.0348  0.8755  0.7651
29160SOL    HW288059   3.863   6.509   0.602  0.7595  1.3760  1.0163
29161SOL     OW88060   1.359   3.216   8.587 -0.8077 -0.5792  0.3046
29161SOL    HW188061   1.320   3.273   8.521  0.6926 -0.8605 -0.8959
29161SOL    HW288062   1.401   3.276   8.649 -0.5331 -0.3405 -0.1080
29162SOL     OW88063   0.758   9.548   4.338 -0.0214 -0.0449 -0.5488
29162SOL    HW188064   0.695   9.534   4.266 -0.2388  0.5220 -0.4771
29162SOL    HW288065   0.841   9.514   4.304 -0.2538 -0.3321 -0.8406
29163SOL     OW88066   0.832   8.070   6.073  0.6757  0.4235 -0.3295
29163SOL    HW188067   0.875   8.103   6.153  0.8931  0.9980 -0.6748
29163SOL    HW288068   0.739   8.083   6.089  0.6744 -0.0602  0.0893
29164SOL     OW88069   5.227   4.086   9.736  0.8127 -0.6149 -0.6482
29164SOL    HW188070   5.229   4.040   9.820  1.4467  1.8263  0.7738
29164SOL    HW288071   5.136   4.083   9.709  0.4276 -0.6532  0.6017
29165SOL     OW88072   7.127   7.217   5.610 -0.6151 -0.0124  0.7536
29165SOL    HW188073   7.032   7.206   5.610 -0.5879 -0.2621  0.3814
29165SOL    HW288074   7.146   7.261   5.693 -1.2316  1.7134  0.0122
29166SOL     OW88075   7.561   3.436   0.844  0.2905 -0.3104 -0.1336
29166SOL    HW188076   7.547   3.475   0.930 -0.6003 -0.6408 -0.1211
29166SOL    HW288077   7.657   3.434   0.834  0.3851  0.3308  0.5637
29167SOL     OW88078   5.072   1.221   3.571  0.2059  0.5070 -0.9919
29167SOL    HW188079   5.120   1.212   3.653 -1.3347  1.0827  0.0165
29167SOL    HW288080   5.024   1.139   3.561  0.4075  0.4268 -1.3457
29168SOL     OW88081   6.145   1.808   8.186 -0.0967 -0.8155 -0.0188
29168SOL    HW188082   6.056   1.834   8.164  0.8404  2.6519 -0.3171
29168SOL    HW288083   6.139   1.773   8.274 -1.7051 -0.1313  0.1699
29169SOL     OW88084   8.835   3.470   1.952 -0.1308  0.3430 -0.1601
29169SOL    HW188085   8.836   3.459   2.047  1.1627  1.2853 -0.0527
29169SOL    HW288086   8.879   3.553   1.936  2.8827 -1.3773 -1.7627
29170SOL     OW88087   8.897   3.418   4.426 -0.3636  0.2015 -0.1463
29170SOL    HW188088   8.836   3.377   4.365  0.8538  0.6296 -1.7410
29170SOL    HW288089   8.845   3.484   4.472 -1.6857 -1.2315  0.4698
29171SOL     OW88090   3.075   0.039   7.032 -0.5502 -0.2988  0.4881
29171SOL    HW188091   3.108  -0.048   7.012 -0.0762  0.1208 -0.6300
29171SOL    HW288092   2.983   0.037   7.005 -0.4516 -0.3512  0.1583
29172SOL     OW88093   6.427   0.392   6.164 -0.4569 -0.4883 -0.2688
29172SOL    HW188094   6.499   0.336   6.136 -1.6804 -1.9544 -0.6257
29172SOL    HW288095   6.384   0.419   6.083 -2.5660 -2.7772 -0.0079
29173SOL     OW88096   1.654   8.075   4.911  0.5225 -0.4121  0.3107
29173SOL    HW188097   1.734   8.092   4.860 -0.4606 -0.2060 -1.2348
29173SOL    HW288098   1.664   7.985   4.942  1.9763  0.0752  1.3580
29174SOL     OW88099   1.645   3.830   1.895 -1.2358  0.1965  0.1030
29174SOL    HW188100   1.564   3.879   1.911  0.1024  1.8642  2.3291
29174SOL    HW288101   1.685   3.872   1.819 -2.3047 -0.5224 -0.8997
29175SOL     OW88102   2.459   8.913   9.849  0.4317  0.3591 -0.5645
29175SOL    HW188103   2.377   8.922   9.802  0.4532 -0.0577 -0.6872
29175SOL    HW288104   2.438   8.936   9.939  0.0719 -0.1891 -0.5014
29176SOL     OW88105   7.739   8.501   7.433 -0.1503 -0.1766 -0.2604
29176SOL    HW188106   7.655   8.545   7.449  0.0571 -0.4924  1.9962
29176SOL    HW288107   7.763   8.528   7.345 -1.7084  1.4366 -0.2599
29177SOL     OW88108   0.876   5.698   6.074  0.2039 -0.3282 -0.2405
29177SOL    HW188109   0.909   5.609   6.089 -0.8728 -0.3840  2.3853
29177SOL    HW288110   0.783   5.686   6.055  0.0614  0.2118  0.0876
29178SOL     OW88111   3.213   5.999   0.661 -0.3244  0.1181  0.4970
29178SOL    HW188112   3.242   6.089   0.647 -0.1212 -0.0094  0.0956
29178SOL    HW288113   3.149   5.983   0.591  1.2440 -0.7666 -0.7997
29179SOL     OW88114   3.853   2.930   3.110 -0.2749 -0.0953  0.0247
29179SOL    HW188115   3.781   2.980   3.150  0.4194 -0.1115  1.3316
29179SOL    HW288116   3.923   2.994   3.098 -0.6592  0.0619 -1.8142
29180SOL     OW88117   3.143   5.153   4.622 -0.2227  0.3787 -0.2538
29180SOL    HW188118   3.114   5.233   4.667 -0.8359  0.3370 -0.5600
29180SOL    HW288119   3.233   5.171   4.596 -0.3999  1.0226 -0.4359
29181SOL     OW88120   0.123   1.533   5.723 -0.5628 -0.6592 -0.0555
29181SOL    HW188121   0.137   1.465   5.789  2.5272 -0.1436 -0.0476
29181SOL    HW288122   0.154   1.494   5.642 -0.7938  0.0245 -0.4786
29182SOL     OW88123   2.654   7.238   5.336 -0.7520  0.5425 -0.4205
29182SOL    HW188124   2.623   7.264   5.250 -1.5874  0.1939 -0.2364
29182SOL    HW288125   2.660   7.319   5.386 -0.0760  0.7687 -0.8567
29183SOL     OW88126   6.060   6.528   7.034  0.5766 -0.2973 -0.6847
29183SOL    HW188127   6.047   6.589   7.107 -0.9531 -0.4182 -0.8317
29183SOL    HW288128   6.124   6.571   6.977 -1.0337  1.5375 -1.1875
29184SOL     OW88129   5.781   6.946   9.799  0.3831 -0.2397 -0.1114
29184SOL    HW188130   5.873   6.947   9.773 -0.0367 -1.2929 -1.7939
29184SOL    HW288131   5.737   6.896   9.730 -1.7490  1.7336 -0.2917
29185SOL     OW88132   4.916   4.696   8.547  0.2396 -0.2292 -0.5215
29185SOL    HW188133   4.945   4.711   8.637 -0.8572 -0.2497 -0.1506
29185SOL    HW288134   4.871   4.777   8.523 -2.8521 -1.5685  0.3317
29186SOL     OW88135   0.896   1.271   5.730 -0.0883 -0.2877 -0.0428
29186SOL    HW188136   0.985   1.277   5.695 -0.8576  0.6664 -1.9993
29186SOL    HW288137   0.862   1.189   5.696 -1.0686  0.9595 -2.2517
29187SOL     OW88138   2.447   2.276   0.069  0.0929  0.0386 -0.1091
29187SOL    HW188139   2.379   2.210   0.076  0.9792 -0.8021  0.8206
29187SOL    HW288140   2.406   2.357   0.098 -0.9771 -0.0986 -1.1768
29188SOL     OW88141   8.379   6.624   0.041  0.0594  0.3634 -1.0176
29188SOL    HW188142   8.331   6.706   0.037  0.1103  0.4663  0.2069
29188SOL    HW288143   8.337   6.575   0.112  1.5797  0.3526 -0.0882
29189SOL     OW88144   7.791   4.390   7.908  0.1635 -0.1922  1.1376
29189SOL    HW188145   7.738   4.421   7.982 -0.7760  2.5268 -0.5365
29189SOL    HW288146   7.865   4.451   7.905 -0.6964  0.8662 -1.0954
29190SOL     OW88147   1.534   8.257   7.196 -0.4303  0.3757  0.7076
29190SOL    HW188148   1.538   8.212   7.111 -0.1004 -0.3121  1.0763
29190SOL    HW288149   1.511   8.347   7.175  1.3957  0.6638 -0.2722
29191SOL     OW88150   9.084   9.434   1.311 -0.2545 -0.7655  0.5008
29191SOL    HW188151   9.120   9.400   1.230 -0.3157  0.1644  0.0630
29191SOL    HW288152   9.092   9.362   1.374 -0.1502 -1.4743 -0.3082
29192SOL     OW88153   9.795   7.586   2.490 -0.0169 -0.2055 -0.1032
29192SOL    HW188154   9.748   7.570   2.408  0.4808 -1.5320 -0.1452
29192SOL    HW288155   9.884   7.553   2.474 -0.2001 -1.4560  1.3013
29193SOL     OW88156   2.000   0.672   4.543 -0.0767  0.0027 -0.4597
29193SOL    HW188157   2.038   0.634   4.464 -0.3347 -0.4096 -0.3918
29193SOL    HW288158   2.035   0.618   4.615  1.7392  1.5675 -0.0686
29194SOL     OW88159   8.131   3.209   4.385  0.0364 -0.3467 -0.1234
29194SOL    HW188160   8.112   3.255   4.304 -1.0881 -1.1097 -0.3081
29194SOL    HW288161   8.227   3.201   4.386  0.2018  1.2326 -0.4811
29195SOL     OW88162   8.049   9.783   0.362 -0.4072 -0.1590  0.1875
29195SOL    HW188163   8.103   9.804   0.438 -0.2563 -1.2702  0.4009
29195SOL    HW288164   7.961   9.810   0.387 -0.3850 -0.6505  0.8139
29196SOL     OW88165   4.831   3.053   4.229 -0.4102 -0.4109  0.4543
29196SOL    HW188166   4.800   3.021   4.314 -0.2724 -2.3217 -0.1613
29196SOL    HW288167   4.903   2.995   4.206  0.7217  1.1824 -0.1962
29197SOL     OW88168   8.544   6.839   3.682  0.0616 -0.5354 -0.0806
29197SOL    HW188169   8.528   6.899   3.610  1.1714 -0.6446 -0.4376
29197SOL    HW288170   8.571   6.757   3.641  1.8454 -0.2602  0.4340
29198SOL     OW88171   2.505   9.001   0.685  0.0063 -0.2422  0.0773
29198SOL    HW188172   2.534   9.086   0.718 -0.6251  0.5366 -1.2450
29198SOL    HW288173   2.514   8.941   0.759 -0.4682  1.1925  1.3472
29199SOL     OW88174   6.700   3.642   9.302  0.1225 -0.1316  0.2420
29199SOL    HW188175   6.674   3.557   9.268  1.2412 -0.3588 -0.1085
29199SOL    HW288176   6.760   3.677   9.236 -0.2316  0.8795  0.4355
29200SOL     OW88177   2.299   9.751   9.653 -0.3736  0.1911  0.6329
29200SOL    HW188178   2.232   9.685   9.639  0.8203 -0.9941  0.3370
29200SOL    HW288179   2.311   9.791   9.567 -0.9469  0.6606  0.7661
29201SOL     OW88180   8.507   5.340   3.369 -0.2723 -0.3335 -0.2556
29201SOL    HW188181   8.571   5.346   3.440  0.1191  0.4243 -0.6561
29201SOL    HW288182   8.423   5.362   3.411  0.2791  2.5275 -0.4371
29202SOL     OW88183   2.874   8.451   8.803  0.6042 -0.3888  0.2306
29202SOL    HW188184   2.913   8.407   8.727 -0.5042  0.1602 -0.7048
29202SOL    HW288185   2.927   8.423   8.877 -0.3971 -3.8583 -0.1692
29203SOL     OW88186   8.976   3.630   8.269  0.0118  0.0012 -0.4944
29203SOL    HW188187   8.994   3.674   8.352  1.0781  0.6146 -1.0388
29203SOL    HW288188   8.883   3.647   8.253 -0.4343 -0.8574  0.9866
29204SOL     OW88189   3.272   4.045   2.527 -0.1449  0.4885 -0.0141
29204SOL    HW188190   3.282   4.105   2.602 -0.1150  0.7375 -0.2142
29204SOL    HW288191   3.340   4.073   2.466  1.2045 -1.0395  0.7234
29205SOL     OW88192   4.732   2.392   0.571  0.0402  0.4162  0.2459
29205SOL    HW188193   4.673   2.318   0.557 -0.1192  0.3034  1.4428
29205SOL    HW288194   4.676   2.469   0.568  0.0817  0.4320 -0.1869
29206SOL     OW88195   4.737   2.159   1.035  0.0355 -0.0685  0.0753
29206SOL    HW188196   4.738   2.253   1.054 -1.4051  0.1517 -0.8173
29206SOL    HW288197   4.783   2.120   1.110  3.6587  1.5361 -1.0881
29207SOL     OW88198   7.452   8.165   2.216 -0.5290 -0.3073 -0.5096
29207SOL    HW188199   7.444   8.201   2.304  0.4308 -1.5441  0.1287
29207SOL    HW288200   7.490   8.236   2.164 -1.0905  0.4307  0.0635
29208SOL     OW88201   9.070   2.528   2.054  0.1377 -0.4012 -0.0986
29208SOL    HW188202   9.018   2.471   1.999  0.2803  0.2045 -0.8763
29208SOL    HW288203   9.006   2.574   2.108 -0.1989  0.6889 -1.3774
29209SOL     OW88204   1.068   2.192   2.148  0.0450 -0.5938 -0.2213
29209SOL    HW188205   1.034   2.163   2.232  0.0068  1.4501  0.5156
29209SOL    HW288206   1.110   2.114   2.111 -2.0582 -2.1756  0.5467
29210SOL     OW88207   8.861   8.701   4.696  0.0596 -0.6786  0.2707
29210SOL    HW188208   8.778   8.742   4.720 -1.4596 -2.8627 -0.9460
29210SOL    HW288209   8.914   8.774   4.664 -2.3982  0.4773 -1.5515
29211SOL     OW88210   1.226   7.595   7.252  0.3458 -0.6308  0.1014
29211SOL    HW188211   1.249   7.662   7.316  0.8254 -0.3680 -0.3368
29211SOL    HW288212   1.146   7.628   7.211 -0.4541 -1.2235  1.1666
29212SOL     OW88213   7.223   6.344   5.093 -0.8042 -0.0342 -0.1279
29212SOL    HW188214   7.180   6.325   5.176 -1.0564  2.1329  0.3038
29212SOL    HW288215   7.184   6.426   5.064  0.4254  0.0898 -1.5856
29213SOL     OW88216   2.242   0.555   0.253 -0.7574  0.2360  0.2335
29213SOL    HW188217   2.212   0.613   0.324  2.3750 -0.2888  2.1774
29213SOL    HW288218   2.201   0.471   0.272 -1.3000  0.5342  0.4009
29214SOL     OW88219   7.219   6.259   7.847 -0.3029  0.1732  0.0050
29214SOL    HW188220   7.204   6.337   7.900  0.3905 -1.1736  2.2987
29214SOL    HW288221   7.205   6.185   7.907  0.0983 -1.4523 -1.7923
29215SOL     OW88222   5.523   2.712   0.902 -0.0605 -0.6253 -0.1679
29215SOL    HW188223   5.491   2.652   0.835 -0.1523 -0.8744  0.0976
29215SOL    HW288224   5.445   2.758   0.932 -0.0016 -0.4280 -0.3135
29216SOL     OW88225   9.457   9.011   9.762  0.2642  0.2210 -0.1863
29216SOL    HW188226   9.486   9.102   9.770  0.6876  0.1455 -0.7487
29216SOL    HW288227   9.538   8.960   9.770 -0.2819 -0.3312  3.2823
29217SOL     OW88228   2.286   2.171   7.645  0.4122  0.5820  0.3090
29217SOL    HW188229   2.300   2.088   7.691  0.8540  0.8227  0.6090
29217SOL    HW288230   2.206   2.206   7.685  0.3022  0.3672  0.2793
29218SOL     OW88231   5.768   6.921   1.371 -0.5965  0.8723 -0.7203
29218SOL    HW188232   5.689   6.948   1.324 -0.0256  2.6528 -0.7379
29218SOL    HW288233   5.767   6.974   1.451  0.5696  0.9156 -0.7249
29219SOL     OW88234   9.256   7.887   4.955 -0.4947 -0.2403  0.1364
29219SOL    HW188235   9.259   7.954   4.887  0.9764 -1.3079 -0.9370
29219SOL    HW288236   9.302   7.926   5.029 -0.7158  0.3603 -0.0345
29220SOL     OW88237   7.182   1.139   3.168  0.1818 -0.1504  0.6068
29220SOL    HW188238   7.260   1.156   3.222  2.3080 -2.8173 -1.3338
29220SOL    HW288239   7.151   1.053   3.196 -0.3049 -0.3767 -0.5532
29221SOL     OW88240   7.772   1.519   5.233 -0.2179  0.1943 -0.6754
29221SOL    HW188241   7.811   1.449   5.286 -0.4051  0.1909 -0.5421
29221SOL    HW288242   7.796   1.599   5.279 -1.7339  0.1246  0.3328
29222SOL     OW88243   2.194   6.294   2.398 -0.0792  0.0656 -0.0091
29222SOL    HW188244   2.110   6.333   2.423  0.2225 -0.0815  1.2871
29222SOL    HW288245   2.214   6.334   2.313 -1.3829  0.2019 -0.2719
29223SOL     OW88246   6.776   0.458   1.672  0.0880  0.2236  0.5224
29223SOL    HW188247   6.806   0.367   1.665 -2.1899 -0.6874  1.5406
29223SOL    HW288248   6.683   0.454   1.649  0.1861  2.5270 -0.5153
29224SOL     OW88249   3.425   0.870   2.005 -0.2677  0.1206  0.2705
29224SOL    HW188250   3.419   0.873   2.100 -1.0404  1.9098  0.2015
29224SOL    HW288251   3.336   0.883   1.974 -0.1743 -1.3467 -0.7224
29225SOL     OW88252   1.162   8.902   4.995  0.3529 -0.0036  0.3891
29225SOL    HW188253   1.130   8.823   5.038 -2.1545  0.7987  0.1564
29225SOL    HW288254   1.244   8.875   4.953  1.1155 -1.6660  2.7638
29226SOL     OW88255   2.889   2.729   8.875  0.3204 -0.2026  0.4169
29226SOL    HW188256   2.832   2.655   8.895  0.3112  0.0090  1.2099
29226SOL    HW288257   2.844   2.804   8.914  0.6338  0.1258  0.1455
29227SOL     OW88258   4.271   2.930   0.158 -0.1693  0.0140  0.8188
29227SOL    HW188259   4.254   2.950   0.066 -1.1422 -0.9222  0.7802
29227SOL    HW288260   4.268   3.015   0.202  0.0273  0.4334  0.0373
29228SOL     OW88261   9.473   4.105   9.034 -0.2987  0.2317 -0.7620
29228SOL    HW188262   9.534   4.178   9.031 -0.6780  0.5574 -0.5977
29228SOL    HW288263   9.429   4.105   8.949 -0.6599  0.5091 -0.5776
29229SOL     OW88264   3.660   1.988   6.332  0.1372 -0.0054 -0.0987
29229SOL    HW188265   3.709   1.906   6.344  0.7383  0.1965 -1.1228
29229SOL    HW288266   3.728   2.056   6.331 -0.3936  0.5854  1.2416
29230SOL     OW88267   2.711   2.417   2.350 -0.0270  0.2653  0.1013
29230SOL    HW188268   2.728   2.323   2.349 -1.1053  0.0367 -1.6793
29230SOL    HW288269   2.796   2.457   2.334  0.6213 -0.3356  1.8377
29231SOL     OW88270   9.068   8.132   0.298  0.0228  0.3251 -0.6779
29231SOL    HW188271   9.041   8.121   0.390 -0.3835  1.9447 -0.5732
29231SOL    HW288272   9.087   8.043   0.268 -1.2598 -0.4070  0.5412
29232SOL     OW88273   9.237   8.409   8.489  0.4867 -0.4490 -0.1842
29232SOL    HW188274   9.235   8.359   8.408  0.9321 -0.2388 -0.3264
29232SOL    HW288275   9.329   8.425   8.506  0.4352 -1.0914  0.7443
29233SOL     OW88276   5.658   8.443   7.574 -0.2830 -0.5524  0.2665
29233SOL    HW188277   5.676   8.508   7.506 -1.5953  0.2236  0.6381
29233SOL    HW288278   5.566   8.420   7.563 -0.4146 -0.7061  1.5373
29234SOL     OW88279   4.457   4.437   9.238  0.1521 -0.5564  0.2486
29234SOL    HW188280   4.462   4.341   9.236 -0.1381 -0.5712 -2.0116
29234SOL    HW288281   4.496   4.465   9.155  0.8706  1.3454  1.1766
29235SOL     OW88282   0.879   9.651   9.531 -0.1529 -0.1976 -0.1990
29235SOL    HW188283   0.837   9.566   9.536  0.1944 -0.4429 -1.3085
29235SOL    HW288284   0.880   9.673   9.438  1.6809  0.0485 -0.1587
29236SOL     OW88285   5.262   3.893   3.630 -1.0519  0.8751 -0.0466
29236SOL    HW188286   5.172   3.891   3.661 -1.1602  0.9166 -0.3537
29236SOL    HW288287   5.272   3.981   3.593  0.3497  2.4903  3.6464
29237SOL     OW88288   7.659   3.330   9.447  0.0347  0.2602 -0.4968
29237SOL    HW188289   7.681   3.268   9.517 -0.7904  1.5252  0.9507
29237SOL    HW288290   7.570   3.305   9.421  0.8769 -1.1368 -2.1830
29238SOL     OW88291   4.931   2.959   8.272  0.1832  0.0751 -0.2467
29238SOL    HW188292   4.943   2.878   8.222 -0.4890  0.0024 -0.2918
29238SOL    HW288293   4.870   3.011   8.221 -0.6775 -0.0870  0.5953
29239SOL     OW88294   8.494   5.456   3.858 -0.4779 -0.5340  0.6843
29239SOL    HW188295   8.452   5.376   3.826 -0.1840 -0.6203  0.5068
29239SOL    HW288296   8.437   5.486   3.929 -1.5302  0.0663 -0.3841
29240SOL     OW88297   1.678   8.320   3.075 -0.3560  0.2047 -0.1828
29240SOL    HW188298   1.673   8.228   3.102  2.4420 -0.5212 -1.7815
29240SOL    HW288299   1.677   8.317   2.979  2.0689  1.5866 -0.3172
29241SOL     OW88300   0.308   5.213   4.599  0.1989  0.0462 -0.2576
29241SOL    HW188301   0.341   5.149   4.663 -1.0354 -1.5542 -1.1419
29241SOL    HW288302   0.251   5.271   4.649  1.5360  0.6446  0.6123
29242SOL     OW88303   9.849   6.987   8.122 -0.9392  0.0007  0.0561
29242SOL    HW188304   9.859   7.070   8.075 -0.3967  0.0962  0.3387
29242SOL    HW288305   9.761   6.992   8.160  0.3062  2.0049  3.0539
29243SOL     OW88306   0.568   6.645   6.260  0.4863 -0.2445 -0.6878
29243SOL    HW188307   0.562   6.569   6.317  0.6654  0.1509 -0.1349
29243SOL    HW288308   0.478   6.679   6.256  0.3176 -0.7586 -1.3176
29244SOL     OW88309   2.267   8.491   7.996 -0.4166 -0.5614 -0.4378
29244SOL    HW188310   2.344   8.489   7.939 -1.6541 -0.1431 -2.2263
29244SOL    HW288311   2.193   8.477   7.936 -1.8914  1.2108  0.8586
29245SOL     OW88312   6.682   8.264   2.437 -0.3954 -0.2968  0.3911
29245SOL    HW188313   6.709   8.177   2.466  1.2453  0.0351 -0.0394
29245SOL    HW288314   6.587   8.266   2.453 -0.7188 -2.6190 -0.8363
29246SOL     OW88315   4.490   2.074   1.354  0.1694 -0.2078  0.7163
29246SOL    HW188316   4.437   2.095   1.431  0.6318 -0.4674  1.1092
29246SOL    HW288317   4.485   2.152   1.299  0.8080  0.4520  1.5585
29247SOL     OW88318   4.540   1.848   2.610  0.1291 -0.2182 -0.1338
29247SOL    HW188319   4.507   1.859   2.699  1.4311  0.7184  0.2536
29247SOL    HW288320   4.474   1.793   2.567  0.2304 -1.9978  1.8282
29248SOL     OW88321   0.716   9.711   4.017  0.0039  0.3109  0.2860
29248SOL    HW188322   0.624   9.692   3.999  0.7139 -1.8021 -1.6724
29248SOL    HW288323   0.747   9.636   4.068  0.6583  1.0467  1.0172
29249SOL     OW88324   1.876   7.749   4.437  0.3901 -0.0237  0.2119
29249SOL    HW188325   1.814   7.822   4.437  0.6306  0.2754  2.5075
29249SOL    HW288326   1.923   7.756   4.355 -0.0928  1.9828  0.0691
29250SOL     OW88327   5.070   3.259   2.243  0.4620  0.2381  0.6310
29250SOL    HW188328   4.980   3.236   2.266  0.3418 -0.2962 -0.3179
29250SOL    HW288329   5.124   3.193   2.287  0.2806 -0.3690 -0.0362
29251SOL     OW88330   2.070   5.578   2.403  0.3615  0.3965 -0.8477
29251SOL    HW188331   2.009   5.524   2.454  1.1608 -0.7435 -1.0707
29251SOL    HW288332   2.092   5.524   2.327  1.2160  1.0195 -1.0566
29252SOL     OW88333   2.147   5.792   9.715 -0.0118  0.1372  0.1802
29252SOL    HW188334   2.201   5.836   9.781  0.9505 -0.7085 -0.0096
29252SOL    HW288335   2.090   5.734   9.765 -0.6105  0.8696  0.3691
29253SOL     OW88336   2.296   0.612   4.135  0.1913  0.0729  0.6646
29253SOL    HW188337   2.223   0.649   4.184  0.1723  0.1636  0.5675
29253SOL    HW288338   2.326   0.684   4.079  0.0711 -0.0970  0.3804
29254SOL     OW88339   0.204   2.110   7.767 -0.0439 -0.2683 -0.4478
29254SOL    HW188340   0.187   2.176   7.699  0.6313 -1.0328 -1.3946
29254SOL    HW288341   0.258   2.155   7.831  0.7005  0.0190 -1.2575
29255SOL     OW88342   0.669   6.844   0.410  0.2940  0.1444 -0.2716
29255SOL    HW188343   0.657   6.780   0.480  4.1118  1.0174  1.4382
29255SOL    HW288344   0.644   6.928   0.449 -0.8509  0.2508 -1.1707
29256SOL     OW88345   9.556   5.975   7.057  0.3460  0.5494  0.2810
29256SOL    HW188346   9.512   5.954   6.975  1.7633 -0.2257 -0.3159
29256SOL    HW288347   9.648   5.954   7.041  0.6611  0.4107  2.0611
29257SOL     OW88348   1.252   1.484   1.033 -0.0998  0.5625 -1.0412
29257SOL    HW188349   1.246   1.525   0.946 -0.5793 -0.3096 -1.4405
29257SOL    HW288350   1.212   1.398   1.020  2.1206 -0.5942 -0.5866
29258SOL     OW88351   8.373   9.122   5.389  0.5426 -0.1931  0.2581
29258SOL    HW188352   8.422   9.040   5.381  1.8798  0.6523 -0.7045
29258SOL    HW288353   8.406   9.162   5.469  0.3814 -0.2814  0.3690
29259SOL     OW88354   2.544   5.237   9.606  0.0456  0.1092 -0.4211
29259SOL    HW188355   2.508   5.322   9.630  0.9978  0.2292  0.6378
29259SOL    HW288356   2.577   5.201   9.688 -2.2948 -2.2541 -0.3679
29260SOL     OW88357   1.514   9.542   6.048 -1.3466  0.2700 -0.5291
29260SOL    HW188358   1.502   9.447   6.042 -1.0480  0.2520 -0.8611
29260SOL    HW288359   1.489   9.575   5.962  2.3770  0.0848 -1.8325
29261SOL     OW88360   3.476   0.295   0.286 -0.3519 -0.6836  0.0495
29261SOL    HW188361   3.445   0.232   0.221 -0.3824 -1.8821  1.1699
29261SOL    HW288362   3.548   0.251   0.330  1.5086  1.1906 -0.9772
29262SOL     OW88363   8.563   3.501   8.107  0.5027  0.0413  0.1050
29262SOL    HW188364   8.513   3.520   8.186 -0.4130 -0.4184 -0.3424
29262SOL    HW288365   8.500   3.456   8.049  1.6605 -1.3267 -0.1451
29263SOL     OW88366   8.658   0.653   3.050 -0.1431  0.1642  0.0990
29263SOL    HW188367   8.591   0.708   3.010 -2.0191 -1.6299  0.6235
29263SOL    HW288368   8.669   0.688   3.138 -0.5961  0.3140  0.0974
29264SOL     OW88369   1.888   9.751   7.611 -0.4757  0.1336  0.1001
29264SOL    HW188370   1.875   9.724   7.702  0.1549  0.2110  0.2144
29264SOL    HW288371   1.844   9.837   7.605  0.8240  0.8709  0.7552
29265SOL     OW88372   5.657   9.873   7.374 -0.0989  0.0711  0.2364
29265SOL    HW188373   5.572   9.894   7.412 -0.0525 -1.5474  1.3710
29265SOL    HW288374   5.707   9.954   7.379 -1.1873  0.7246  0.6782
29266SOL     OW88375   5.836   1.138   1.514  0.5693  0.4458  0.0673
29266SOL    HW188376   5.851   1.213   1.572  0.4053  1.6092 -1.3260
29266SOL    HW288377   5.751   1.104   1.541  2.0257 -1.3462  2.8659
29267SOL     OW88378   9.302   2.800   6.937  0.2811 -0.5564 -0.1851
29267SOL    HW188379   9.332   2.809   6.847  2.0047 -0.7166  0.3454
29267SOL    HW288380   9.321   2.709   6.960  0.2441 -0.4015  0.4795
29268SOL     OW88381   0.412   9.687   0.902 -0.5928 -0.6007 -0.5434
29268SOL    HW188382   0.494   9.656   0.864  0.0658  1.4340 -0.9382
29268SOL    HW288383   0.349   9.617   0.886  0.2632 -0.8696 -3.1803
29269SOL     OW88384   3.412   6.599   8.934  0.2283 -0.3031  0.2190
29269SOL    HW188385   3.404   6.504   8.937 -1.5202 -0.1818  0.7401
29269SOL    HW288386   3.413   6.620   8.841  0.1545 -0.8001  0.1014
29270SOL     OW88387   8.064   3.460   1.554  0.0392  0.0274  0.3118
29270SOL    HW188388   7.988   3.490   1.604  0.5705  1.0832  0.5241
29270SOL    HW288389   8.027   3.412   1.480 -0.8581  0.8017  0.2344
29271SOL     OW88390   5.550   3.129   2.223  0.8500 -0.4899 -0.4585
29271SOL    HW188391   5.525   3.092   2.138 -1.1603 -0.7114  0.1776
29271SOL    HW288392   5.632   3.175   2.206  0.5751 -0.6541 -2.4791
29272SOL     OW88393   0.497   0.248   1.130  0.6738  0.6192 -0.0307
29272SOL    HW188394   0.496   0.158   1.163  2.5032 -0.0700 -1.6579
29272SOL    HW288395   0.502   0.238   1.035 -0.3525  2.4824 -0.3240
29273SOL     OW88396   1.016   3.725   5.998 -0.4806  0.4084 -0.0704
29273SOL    HW188397   1.081   3.674   5.949 -1.0622 -0.8261  0.4000
29273SOL    HW288398   0.940   3.667   6.004 -0.5422  0.6346  1.9803
29274SOL     OW88399   6.263   3.608   1.443 -0.1103  0.4372  0.6273
29274SOL    HW188400   6.240   3.624   1.352  1.0063  0.7808  0.3897
29274SOL    HW288401   6.179   3.601   1.488 -0.6702  1.4873 -0.2100
29275SOL     OW88402   1.382   9.235   4.695 -0.3224  0.7315  0.1392
29275SOL    HW188403   1.413   9.185   4.771 -0.6107  0.7573  0.2756
29275SOL    HW288404   1.303   9.279   4.726 -2.3087 -1.7427 -1.0412
29276SOL     OW88405   5.014   1.785   6.861  0.0338  0.5380 -0.1169
29276SOL    HW188406   4.982   1.849   6.924 -1.5892  0.3323 -0.6827
29276SOL    HW288407   4.981   1.701   6.893 -0.4914  0.3906 -1.0090
29277SOL     OW88408   1.319   2.423   4.293  0.3897  0.1718  0.2881
29277SOL    HW188409   1.298   2.507   4.334 -0.3018  0.6288 -0.9302
29277SOL    HW288410   1.399   2.441   4.243  0.0519  0.2066 -0.2465
29278SOL     OW88411   6.827   1.771   2.007 -0.2261 -0.2101  0.3048
29278SOL    HW188412   6.746   1.776   2.059 -0.5558  0.8254 -0.2740
29278SOL    HW288413   6.798   1.776   1.916  0.4757 -0.0606  0.0822
29279SOL     OW88414   4.820   1.869   8.131 -0.2078  0.6381  0.8348
29279SOL    HW188415   4.849   1.866   8.222  0.4955  0.2759  0.6140
29279SOL    HW288416   4.874   1.938   8.091  0.8105 -0.4301  0.2826
29280SOL     OW88417   8.045   6.184   6.615  0.0651 -0.2802  0.4570
29280SOL    HW188418   8.103   6.174   6.539  0.3074  2.3464  0.2108
29280SOL    HW288419   7.959   6.157   6.583  0.2976  0.1425 -0.5614
29281SOL     OW88420   7.766   2.699   4.872 -0.3396 -0.6873 -0.2217
29281SOL    HW188421   7.788   2.639   4.943  0.3311 -1.4817 -1.0745
29281SOL    HW288422   7.712   2.766   4.913 -1.2180 -1.9264  0.7521
29282SOL     OW88423   2.745   9.360   7.491  0.2602 -0.3208  0.1511
29282SOL    HW188424   2.688   9.365   7.568 -0.1274  2.3724 -0.1914
29282SOL    HW288425   2.689   9.328   7.421 -0.1502 -0.1270  0.3867
29283SOL     OW88426   6.210   3.074   5.319  0.0223  0.2787 -0.7504
29283SOL    HW188427   6.197   3.146   5.258  0.3861 -0.9614 -2.3704
29283SOL    HW288428   6.291   3.032   5.290  0.3193 -0.2398  0.7266
29284SOL     OW88429   2.014   4.732   8.175  0.4105  0.0010  0.0472
29284SOL    HW188430   2.085   4.714   8.236 -0.3872 -1.2407  0.6459
29284SOL    HW288431   1.934   4.720   8.227 -0.2607  2.6601 -0.2436
29285SOL     OW88432   9.070   2.692   9.451  0.0435 -0.4790  0.0341
29285SOL    HW188433   9.140   2.750   9.481  0.8752 -2.1323  1.4029
29285SOL    HW288434   9.109   2.643   9.378 -0.8348  0.9863 -1.4953
29286SOL     OW88435   5.601   1.138   1.166 -0.2499 -0.4800 -0.5588
29286SOL    HW188436   5.515   1.099   1.152 -0.4248 -0.1534 -0.4013
29286SOL    HW288437   5.586   1.232   1.156 -0.1156 -0.3363  0.4880
29287SOL     OW88438   6.000   8.154   4.119 -0.3320  0.0403 -0.1377
29287SOL    HW188439   6.074   8.118   4.169 -1.0948  0.7950  1.6156
29287SOL    HW288440   5.951   8.078   4.089 -1.9751 -0.5397  3.5777
29288SOL     OW88441   1.205   7.904   5.509  0.6747 -0.2061 -0.3220
29288SOL    HW188442   1.217   7.894   5.603  2.1945 -0.0686 -0.4645
29288SOL    HW288443   1.270   7.845   5.470 -0.1428 -0.4967 -1.2821
29289SOL     OW88444   9.215   8.118   1.597 -0.6208  0.0047  0.0494
29289SOL    HW188445   9.260   8.117   1.682 -0.4420  1.9165  0.0207
29289SOL    HW288446   9.157   8.043   1.599  0.6986 -1.0336  1.1357
29290SOL     OW88447   4.140   3.636   4.241 -0.4312 -0.1639  0.3922
29290SOL    HW188448   4.131   3.540   4.238 -0.9434 -0.1053 -2.0539
29290SOL    HW288449   4.215   3.654   4.186  0.2171  0.8393  1.5579
29291SOL     OW88450   4.784   0.580   9.848 -0.0412  0.1662  0.3741
29291SOL    HW188451   4.826   0.509   9.897 -0.0081 -0.1421 -0.0908
29291SOL    HW288452   4.730   0.625   9.912 -1.1584 -1.1351  0.3889
29292SOL     OW88453   5.186   5.000   4.186 -0.1783  0.5298 -0.3464
29292SOL    HW188454   5.108   5.056   4.190 -1.0568 -0.5323 -1.3684
29292SOL    HW288455   5.154   4.919   4.147  1.0429 -0.6953  1.0602
29293SOL     OW88456   7.206   9.443   4.651 -0.1052 -0.0972  0.5332
29293SOL    HW188457   7.119   9.472   4.680 -0.3642 -2.2933  2.2345
29293SOL    HW288458   7.210   9.466   4.559 -1.0315  3.2893  1.1987
29294SOL     OW88459   9.796   1.713   3.490 -0.7593 -0.1238 -0.1506
29294SOL    HW188460   9.779   1.801   3.524 -0.9108  0.0603 -0.6835
29294SOL    HW288461   9.802   1.657   3.568  2.1617  0.8002  0.4095
29295SOL     OW88462   6.795   5.839   2.202  0.2253 -0.2436 -0.0250
29295SOL    HW188463   6.760   5.797   2.281  1.0743  1.3041  1.2480
29295SOL    HW288464   6.874   5.791   2.181  0.8985  0.3297  1.0946
29296SOL     OW88465   1.222   8.036   0.813  0.0447 -0.7224  0.1886
29296SOL    HW188466   1.315   8.042   0.834 -0.0097 -0.9174  0.4938
29296SOL    HW288467   1.219   8.002   0.724  0.2725 -0.3259  0.0265
29297SOL     OW88468   0.319   5.526   8.553  0.2835 -0.3841 -0.0021
29297SOL    HW188469   0.299   5.539   8.645  1.9107  0.2204  0.2855
29297SOL    HW288470   0.386   5.458   8.551  1.0405  0.3507 -0.6454
29298SOL     OW88471   0.956   7.466   8.090 -0.2588 -0.4344 -0.3378
29298SOL    HW188472   0.915   7.504   8.168 -1.5854 -0.1265 -1.1523
29298SOL    HW288473   1.043   7.441   8.119 -0.1273  1.1782  0.8353
29299SOL     OW88474   6.909   6.446   8.484 -0.1536 -0.0230  0.0150
29299SOL    HW188475   6.881   6.497   8.560  1.3137  0.8925 -0.0290
29299SOL    HW288476   7.005   6.442   8.492 -0.0411 -0.5450 -1.4015
29300SOL     OW88477   9.981   2.507   9.008 -0.0040 -0.4066  0.3483
29300SOL    HW188478   9.924   2.557   8.950  1.0756  0.0076 -0.3798
29300SOL    HW288479   9.967   2.416   8.982  0.1027 -0.2597 -0.2443
29301SOL     OW88480   1.984   8.933   5.761 -0.0096 -0.4489 -0.0313
29301SOL    HW188481   1.913   8.891   5.810  0.3615 -0.2265  0.7160
29301SOL    HW288482   2.003   9.013   5.811  0.5865 -0.3730 -0.3692
29302SOL     OW88483   6.232   5.741   9.338  0.4839 -0.3423 -0.0406
29302SOL    HW188484   6.245   5.724   9.431 -0.8908  2.9250  0.8924
29302SOL    HW288485   6.143   5.711   9.321  0.1102  0.6030  0.1787
29303SOL     OW88486   9.488   5.008   9.605  0.1535 -0.4610  0.2178
29303SOL    HW188487   9.468   5.066   9.531 -0.2524  0.7261  1.2260
29303SOL    HW288488   9.562   5.051   9.649  0.1372 -0.9539  0.7243
29304SOL     OW88489   0.162   4.327   7.492 -0.3821 -0.1829  0.0055
29304SOL    HW188490   0.109   4.368   7.424  0.1848  2.4029  0.9802
29304SOL    HW288491   0.247   4.313   7.451 -0.2315  0.7922 -0.0598
29305SOL     OW88492   9.780   2.332   0.621  0.0806 -0.1741 -0.4313
29305SOL    HW188493   9.716   2.360   0.556 -0.5002  3.0462  1.3087
29305SOL    HW288494   9.857   2.386   0.604  0.5105 -0.4504  0.5565
29306SOL     OW88495   7.265   9.038   7.699 -0.2614 -0.2990  0.0374
29306SOL    HW188496   7.280   8.998   7.613 -0.1464 -0.7962  0.2831
29306SOL    HW288497   7.177   9.075   7.693 -1.7990 -3.5077  0.8648
29307SOL     OW88498   3.532   0.732   3.158  0.3157  0.0085  0.0595
29307SOL    HW188499   3.542   0.639   3.181 -0.0352  0.0561  0.4210
29307SOL    HW288500   3.608   0.751   3.104  0.4507 -0.4646  0.0720
29308SOL     OW88501   0.353   6.083   9.316 -0.0002 -0.3001  0.1361
29308SOL    HW188502   0.272   6.119   9.350 -0.5025 -0.6530 -0.6521
29308SOL    HW288503   0.334   5.990   9.301  0.1276 -0.1182 -1.2620
29309SOL     OW88504   2.649   9.909   2.106 -0.1259  0.0319  0.3115
29309SOL    HW188505   2.737   9.941   2.125 -0.8572  1.2132  1.9527
29309SOL    HW288506   2.652   9.816   2.127  0.3666  0.3628  1.8078
29310SOL     OW88507   8.100   0.416   5.793  0.1811  0.1228 -0.2102
29310SOL    HW188508   8.026   0.358   5.772 -0.8748  1.1127  0.5999
29310SOL    HW288509   8.156   0.364   5.850 -0.9670 -0.0077  0.8576
29311SOL     OW88510   2.678   5.394   4.525  0.1755  0.2361 -0.3819
29311SOL    HW188511   2.584   5.390   4.509  0.2468 -0.1639 -0.7008
29311SOL    HW288512   2.708   5.304   4.515  0.5328  0.3024  0.0916
29312SOL     OW88513   5.656   2.905   7.845  0.0151 -0.4911  0.7980
29312SOL    HW188514   5.613   2.981   7.884 -3.5314 -0.4528 -2.6677
29312SOL    HW288515   5.629   2.831   7.899 -1.9569 -0.0358  0.4863
29313SOL     OW88516   9.348   0.438   5.968  0.2890 -0.0576 -0.3726
29313SOL    HW188517   9.332   0.355   5.924  0.3715  0.7545 -2.0026
29313SOL    HW288518   9.264   0.484   5.965  0.4357  0.2302 -0.1747
29314SOL     OW88519   7.862   9.149   6.935 -0.0412  0.2942  0.4078
29314SOL    HW188520   7.800   9.131   6.865  1.0400  0.5567 -0.6407
29314SOL    HW288521   7.855   9.074   6.994 -0.1238 -0.4978 -0.5943
29315SOL     OW88522   2.693   5.682   3.949 -0.1274  0.6526 -0.5185
29315SOL    HW188523   2.733   5.652   4.031  0.1873 -1.4723 -1.3891
29315SOL    HW288524   2.766   5.688   3.888 -0.7096 -0.5423 -1.3748
29316SOL     OW88525   3.954   5.249   0.995  0.0532  0.3180  0.5418
29316SOL    HW188526   3.977   5.229   0.904  1.0166 -0.4056  0.9196
29316SOL    HW288527   3.986   5.173   1.044  0.1916  1.0273  1.5689
29317SOL     OW88528   7.253   4.267   2.420 -0.7989  0.3857 -0.0111
29317SOL    HW188529   7.322   4.315   2.373 -0.2992 -0.4746 -0.1816
29317SOL    HW288530   7.240   4.188   2.368 -0.7454 -0.2412  0.9074
29318SOL     OW88531   3.201   5.749   3.444  0.1580  0.1315 -0.4601
29318SOL    HW188532   3.290   5.731   3.414 -0.0334  0.9911 -1.6039
29318SOL    HW288533   3.161   5.800   3.374 -0.3890  2.0646  1.1432
29319SOL     OW88534   1.012   5.308   7.733 -0.2427 -0.3780 -0.2935
29319SOL    HW188535   1.084   5.363   7.763  0.1340 -1.9640  1.9651
29319SOL    HW288536   1.054   5.227   7.704 -0.8857 -0.0167 -2.4149
29320SOL     OW88537   3.708   2.601   9.608  0.3362 -0.3351 -0.2374
29320SOL    HW188538   3.622   2.644   9.613  0.6573  0.5551 -1.7574
29320SOL    HW288539   3.769   2.667   9.640  0.6369 -0.3604 -0.7639
29321SOL     OW88540   7.201   3.148   2.849  0.3487  0.7771  0.0855
29321SOL    HW188541   7.167   3.120   2.764 -0.3582  2.3014 -0.1772
29321SOL    HW288542   7.205   3.068   2.901 -1.4095  0.1433 -0.6545
29322SOL     OW88543   5.478   7.853   1.654  0.3795  0.4644 -0.4284
29322SOL    HW188544   5.495   7.770   1.697 -1.1960 -0.5590 -1.6571
29322SOL    HW288545   5.544   7.859   1.585 -0.2141 -0.3583 -1.0862
29323SOL     OW88546   9.093   7.933   2.707  0.7294  0.3059 -0.0218
29323SOL    HW188547   9.159   7.996   2.678  0.8886  0.6508  1.0432
29323SOL    HW288548   9.076   7.956   2.798 -0.5814 -0.0257 -0.1584
29324SOL     OW88549   9.913   2.450   3.762  0.2177  0.1186  0.4105
29324SOL    HW188550   9.904   2.545   3.773  1.8262  0.1862  1.4078
29324SOL    HW288551   9.836   2.414   3.806  0.5612  0.8962  1.6885
29325SOL     OW88552   7.133   3.044   1.145 -0.4430  0.2163 -0.5246
29325SOL    HW188553   7.072   3.004   1.207  0.3001 -0.7442 -0.3922
29325SOL    HW288554   7.146   2.977   1.078  1.3239 -0.0454  0.0247
29326SOL     OW88555   4.162   4.967   4.521  0.2400 -0.1160 -0.1398
29326SOL    HW188556   4.115   4.915   4.456  0.5138  0.0212 -0.4483
29326SOL    HW288557   4.206   4.903   4.577 -0.8352 -0.2784  0.5632
29327SOL     OW88558   5.921   0.616   1.676 -0.0031  0.4357  0.2200
29327SOL    HW188559   5.897   0.656   1.759 -3.0218 -0.3467 -0.1769
29327SOL    HW288560   5.841   0.616   1.625  1.3526 -0.6751 -2.0808
29328SOL     OW88561   0.985   9.648   5.875 -0.5305 -0.9363 -0.1772
29328SOL    HW188562   0.902   9.688   5.851 -0.3055 -0.2553  0.1450
29328SOL    HW288563   1.047   9.721   5.877 -0.5990 -0.8475  2.7972
29329SOL     OW88564   4.971   0.956   3.512 -0.2371 -0.3545 -0.1148
29329SOL    HW188565   4.895   0.955   3.453  1.0995  1.6630 -2.0586
29329SOL    HW288566   5.008   0.868   3.506 -1.9157 -1.1228  0.2309
29330SOL     OW88567   0.643   6.043   6.825  0.3782 -0.6124 -0.1762
29330SOL    HW188568   0.725   6.010   6.787  0.6363 -1.2275  0.8881
29330SOL    HW288569   0.611   5.972   6.880  0.5706  0.6198  1.6071
29331SOL     OW88570   7.948   3.431   6.042 -0.1597  0.4161  0.6371
29331SOL    HW188571   8.030   3.470   6.012  0.6528  1.2411  3.5900
29331SOL    HW288572   7.974   3.349   6.083 -1.2462 -0.7976 -0.9919
29332SOL     OW88573   7.487   9.887   5.848  0.2810 -0.3374 -0.5662
29332SOL    HW188574   7.526   9.821   5.790 -0.7296 -0.0082 -1.6640
29332SOL    HW288575   7.489   9.968   5.796 -0.1926  0.0807  0.0541
29333SOL     OW88576   9.474   0.900   9.478 -0.2398 -0.3999  0.0877
29333SOL    HW188577   9.449   0.900   9.570  0.6559  1.0824  0.3703
29333SOL    HW288578   9.398   0.935   9.432 -1.0392 -2.0104  0.1137
29334SOL     OW88579   7.395   0.236   8.004  0.2035  0.3013  0.1772
29334SOL    HW188580   7.437   0.317   8.031 -3.9793  2.9015 -0.1757
29334SOL    HW288581   7.366   0.252   7.914 -0.8415 -1.5377  0.1291
29335SOL     OW88582   9.720   4.497   4.360  0.2129  0.1417 -0.3278
29335SOL    HW188583   9.758   4.564   4.305 -0.5209 -0.5983 -1.7857
29335SOL    HW288584   9.636   4.534   4.389  0.3925  0.3534 -0.0790
29336SOL     OW88585   8.714   5.685   8.543 -0.7755 -0.4304  0.5496
29336SOL    HW188586   8.740   5.775   8.524  0.5784 -0.7006  1.0429
29336SOL    HW288587   8.623   5.692   8.571 -0.9924  0.6572 -0.3499
29337SOL     OW88588   3.990   0.718   5.936  0.1782  0.1464 -0.5126
29337SOL    HW188589   3.934   0.711   6.014  0.8352  2.8330  0.3117
29337SOL    HW288590   4.056   0.650   5.948 -0.0930  0.1101  1.0171
29338SOL     OW88591   9.449   9.515   4.855  0.1673 -0.2443  0.3034
29338SOL    HW188592   9.432   9.508   4.949  0.7178  0.5153  0.4693
29338SOL    HW288593   9.417   9.432   4.819 -1.7905  0.2098  0.8764
29339SOL     OW88594   0.485   7.007   8.612  0.0640  0.1400  0.0467
29339SOL    HW188595   0.544   6.945   8.570 -0.9535  0.0008 -1.2473
29339SOL    HW288596   0.397   6.975   8.590 -0.4912  2.0808 -0.7552
29340SOL     OW88597   5.337   1.097   4.051 -0.2616  0.6025 -0.0561
29340SOL    HW188598   5.387   1.179   4.046 -1.6518  1.8894  3.5480
29340SOL    HW288599   5.304   1.095   4.141 -0.8301 -3.6860 -0.1736
29341SOL     OW88600   3.558   5.010   0.800 -0.0830  0.6322  0.4381
29341SOL    HW188601   3.463   5.024   0.791 -0.3175  0.8453  2.6357
29341SOL    HW288602   3.591   5.092   0.836  0.8535  0.3750  0.1905
29342SOL     OW88603   3.690   4.687   8.437  0.1580  0.0700 -0.5592
29342SOL    HW188604   3.632   4.752   8.478  2.0382  0.9288  0.9044
29342SOL    HW288605   3.757   4.740   8.393  0.4003 -0.8916 -1.3729
29343SOL     OW88606   6.584   0.999   2.317  0.4558 -0.3267 -0.0170
29343SOL    HW188607   6.531   1.073   2.289 -1.2346 -0.6355  2.0826
29343SOL    HW288608   6.627   1.028   2.397  1.6581 -0.8662 -0.4333
29344SOL     OW88609   2.851   8.850   9.452 -0.4366 -0.3277 -0.4065
29344SOL    HW188610   2.846   8.869   9.358 -1.4383 -0.4370 -0.3814
29344SOL    HW288611   2.848   8.936   9.494 -0.6928 -0.3150 -0.4497
29345SOL     OW88612   5.000   2.766   1.777 -0.3436  0.0819  0.5314
29345SOL    HW188613   4.977   2.822   1.703  1.9617  0.2657 -0.1318
29345SOL    HW288614   4.956   2.683   1.759 -0.5871  0.4283 -0.5529
29346SOL     OW88615   7.073   8.236   8.722  0.0731 -0.0474  0.0532
29346SOL    HW188616   7.085   8.149   8.684 -1.5519 -0.5481  0.5817
29346SOL    HW288617   7.140   8.243   8.789  0.6916 -0.5941 -0.5006
29347SOL     OW88618   2.562   2.839   5.314 -0.4102 -0.3195 -0.5976
29347SOL    HW188619   2.610   2.858   5.395 -0.8494  1.0631 -0.6321
29347SOL    HW288620   2.602   2.759   5.280 -1.8712 -2.5278  2.3103
29348SOL     OW88621   0.723   0.413   5.869 -0.2008  0.2496  0.4529
29348SOL    HW188622   0.630   0.420   5.891 -0.7778 -0.8576 -1.3835
29348SOL    HW288623   0.742   0.319   5.874  0.5021  0.3412 -0.2892
29349SOL     OW88624   9.000   2.858   7.673  0.3844 -0.6872  0.3424
29349SOL    HW188625   9.043   2.872   7.758 -1.2404  0.5658  1.0095
29349SOL    HW288626   8.945   2.781   7.687  0.0255 -0.4092  0.4664
29350SOL     OW88627   0.541   7.635   9.049  0.2217 -0.1722  0.1678
29350SOL    HW188628   0.614   7.658   9.108 -1.0671  2.0065  1.0329
29350SOL    HW288629   0.583   7.592   8.975  2.3231  0.4188  0.9376
29351SOL     OW88630   2.506   8.195   4.931  0.0444 -0.4188 -0.0333
29351SOL    HW188631   2.530   8.190   4.838  1.7707 -1.5386  0.4394
29351SOL    HW288632   2.550   8.274   4.962  0.8330 -0.9367  0.1896
29352SOL     OW88633   7.618   6.597   7.595 -0.1256  0.1909  0.0826
29352SOL    HW188634   7.543   6.570   7.541 -0.1137 -0.7220  0.4935
29352SOL    HW288635   7.688   6.536   7.570  0.2308  0.5146  0.2879
29353SOL     OW88636   4.248   7.370   9.263  0.2169 -0.2721 -0.4336
29353SOL    HW188637   4.202   7.285   9.265 -0.9409  0.3551  0.8201
29353SOL    HW288638   4.183   7.431   9.228  0.9843  0.1617 -1.1386
29354SOL     OW88639   0.780   0.804   2.625 -0.2091 -0.1999 -0.3267
29354SOL    HW188640   0.741   0.799   2.713 -2.1505 -0.3359 -1.1563
29354SOL    HW288641   0.707   0.789   2.565  1.1492 -0.4912 -1.9794
29355SOL     OW88642   4.152   1.452   5.173 -0.2231  0.0216  0.0018
29355SOL    HW188643   4.139   1.544   5.197  0.3897  0.0115  0.3880
29355SOL    HW288644   4.162   1.453   5.078 -0.6128  0.3072 -0.0377
29356SOL     OW88645  -0.004   5.668   8.258  0.5211  0.3695  0.2069
29356SOL    HW188646   0.086   5.639   8.250  0.9626  0.9574  2.3672
29356SOL    HW288647   0.002   5.752   8.303 -1.0817  0.6877 -0.1035
29357SOL     OW88648   3.644   8.249   5.624 -0.5486 -0.0441 -0.5951
29357SOL    HW188649   3.631   8.341   5.647  1.6324 -0.3660  2.5052
29357SOL    HW288650   3.633   8.202   5.707  0.0264 -2.4117 -1.7772
29358SOL     OW88651   1.996   5.988   5.098 -1.0168  0.0295  0.5414
29358SOL    HW188652   1.965   5.961   5.184 -0.7077  2.0035  1.3258
29358SOL    HW288653   1.922   6.033   5.058 -0.2504  1.8646  1.0859
29359SOL     OW88654   0.518   1.506   5.472 -0.2136  0.2106 -0.0735
29359SOL    HW188655   0.600   1.552   5.488  0.2968 -0.4548 -0.6948
29359SOL    HW288656   0.504   1.513   5.377 -1.4936  1.3272  0.1676
29360SOL     OW88657   1.586   8.173   2.474 -0.2263  0.5244 -0.4281
29360SOL    HW188658   1.659   8.113   2.490  0.6005  1.5070 -0.4602
29360SOL    HW288659   1.526   8.157   2.547 -0.6013 -1.1764 -1.0724
29361SOL     OW88660   1.169   2.370   7.692 -0.0472  0.4857  0.7244
29361SOL    HW188661   1.210   2.324   7.765  0.9128  0.3984  0.1442
29361SOL    HW288662   1.214   2.454   7.687  1.7386 -0.5021 -1.3466
29362SOL     OW88663   1.552   2.012   4.075  0.5018 -0.5776 -0.0804
29362SOL    HW188664   1.552   1.917   4.077 -1.1546 -0.6217 -0.8598
29362SOL    HW288665   1.557   2.035   3.982 -2.8998 -0.0376 -0.2802
29363SOL     OW88666   5.356   1.964   3.441 -0.6170 -0.4587 -0.1511
29363SOL    HW188667   5.316   1.894   3.493  1.9493 -1.7504  0.2458
29363SOL    HW288668   5.385   2.029   3.506 -1.0409 -0.0821 -0.3349
29364SOL     OW88669   3.044   0.685   3.721 -0.7600  0.0543  0.0803
29364SOL    HW188670   3.036   0.590   3.724 -0.5695  0.0442  2.3010
29364SOL    HW288671   3.138   0.701   3.715 -0.8785  0.1543 -2.4181
29365SOL     OW88672   1.616   2.673   1.821  0.1969  0.6993  0.2927
29365SOL    HW188673   1.636   2.623   1.742  0.2391  1.8874 -0.4715
29365SOL    HW288674   1.701   2.703   1.853  0.1446  0.5844  0.5384
29366SOL     OW88675   8.985   8.257   0.654  0.3141 -0.2745 -0.0785
29366SOL    HW188676   9.037   8.177   0.642  1.0455  0.1894 -0.0896
29366SOL    HW288677   8.905   8.242   0.604 -0.6066 -1.9344  1.7353
29367SOL     OW88678   2.299   6.727   6.511  0.3930 -0.2386 -0.2853
29367SOL    HW188679   2.378   6.782   6.511 -0.4099  0.9551 -0.3940
29367SOL    HW288680   2.280   6.713   6.603 -0.2897  1.0212 -0.2180
29368SOL     OW88681   2.991   1.976   2.091  0.1310 -0.0213  0.3955
29368SOL    HW188682   3.082   2.004   2.101  0.3512 -1.0709  1.7656
29368SOL    HW288683   2.997   1.883   2.067 -0.5682 -0.2167  0.9459
29369SOL     OW88684   3.370   2.258   4.791  0.1176  0.2593  0.1618
29369SOL    HW188685   3.392   2.290   4.703  0.3307  1.1719  0.5394
29369SOL    HW288686   3.419   2.315   4.850  0.5595 -0.8315  0.8579
29370SOL     OW88687   2.779   5.411   8.612  0.4487  0.0229  0.1989
29370SOL    HW188688   2.853   5.364   8.573  0.8785  1.3798 -0.6781
29370SOL    HW288689   2.705   5.350   8.603  1.2125 -0.9153  0.0984
29371SOL     OW88690   3.674   3.875   5.500  1.0026  0.0524 -0.3914
29371SOL    HW188691   3.641   3.907   5.583 -2.7029 -0.5757 -1.4231
29371SOL    HW288692   3.707   3.953   5.455  3.5250  0.3207  1.7119
29372SOL     OW88693   7.767   8.427   4.076 -0.1708  0.1926 -0.2041
29372SOL    HW188694   7.836   8.439   4.141 -0.2714  0.5850 -0.1705
29372SOL    HW288695   7.700   8.376   4.121 -0.4071  0.7826  0.1177
29373SOL     OW88696   4.019   7.016   9.519 -0.2875 -0.5575  0.0315
29373SOL    HW188697   3.926   6.992   9.520 -0.2798 -0.5935 -0.2042
29373SOL    HW288698   4.065   6.935   9.540 -0.3560 -0.3156  1.2380
29374SOL     OW88699   4.640   9.974   5.847  0.2282  0.1433 -0.2718
29374SOL    HW188700   4.683   9.947   5.928  3.2042  2.8121 -0.7546
29374SOL    HW288701   4.636   9.895   5.794 -0.3697 -1.3203  1.8270
29375SOL     OW88702   3.341   1.857   1.379  0.5178  0.3446 -0.7976
29375SOL    HW188703   3.355   1.921   1.450 -0.4020  0.7723 -0.9877
29375SOL    HW288704   3.303   1.781   1.423 -2.5217  1.5531 -1.1168
29376SOL     OW88705   7.232   8.375   3.631  0.4194  0.2724 -0.0005
29376SOL    HW188706   7.290   8.366   3.556  0.3024  1.3533 -0.2261
29376SOL    HW288707   7.148   8.404   3.594  0.0234 -0.2931  0.4299
29377SOL     OW88708   4.065   3.717   0.829 -0.3150 -0.2825  0.6580
29377SOL    HW188709   3.985   3.679   0.794 -0.2220  0.1007  0.0262
29377SOL    HW288710   4.124   3.725   0.754 -0.5847  1.7857  0.6003
29378SOL     OW88711   0.228   8.978   1.388  0.1581 -0.1089  0.3611
29378SOL    HW188712   0.161   8.914   1.413  0.1136 -0.8014 -1.3769
29378SOL    HW288713   0.204   9.004   1.299  0.8777  1.4254  0.5848
29379SOL     OW88714   3.558   5.252   6.723  0.1128  0.2124 -0.5214
29379SOL    HW188715   3.582   5.300   6.802  0.4183 -0.8609  0.0621
29379SOL    HW288716   3.587   5.308   6.651 -0.5510  1.3957  0.1041
29380SOL     OW88717   8.570   5.582   9.785 -0.7362  0.0517 -0.0206
29380SOL    HW188718   8.487   5.535   9.785 -1.2824  0.9206 -1.9364
29380SOL    HW288719   8.626   5.533   9.725 -0.3922  0.3214  0.0757
29381SOL     OW88720   9.911   0.495   6.941 -0.1397  0.6240 -0.2391
29381SOL    HW188721   9.973   0.509   7.013  0.2088 -0.6752 -0.2515
29381SOL    HW288722   9.897   0.582   6.904  0.4161  1.1745  0.7947
29382SOL     OW88723   7.399   7.618   3.391  0.2172  0.1357 -0.1458
29382SOL    HW188724   7.309   7.638   3.416 -0.3066  0.5142 -2.1457
29382SOL    HW288725   7.406   7.647   3.300  2.3830  0.1555 -0.0317
29383SOL     OW88726   7.524   4.175   0.505  0.1825  0.4188 -0.3090
29383SOL    HW188727   7.539   4.268   0.521 -1.1749  0.7602 -0.9319
29383SOL    HW288728   7.452   4.172   0.443  2.1660 -0.9641 -2.7544
29384SOL     OW88729   2.702   9.484   0.635  0.2817  0.2577 -0.5783
29384SOL    HW188730   2.708   9.579   0.630 -0.3751  0.2934 -0.7698
29384SOL    HW288731   2.622   9.462   0.587 -2.2661  0.0008  3.3293
29385SOL     OW88732   8.343   5.827   3.718  0.5454  0.0828  0.2301
29385SOL    HW188733   8.339   5.759   3.650  0.6261  0.6975 -0.4105
29385SOL    HW288734   8.253   5.857   3.727  0.8558  1.8976 -1.6333
29386SOL     OW88735   5.893   7.301   3.203  0.0074  0.1880  0.0884
29386SOL    HW188736   5.813   7.263   3.240 -0.0534  0.9233  0.7417
29386SOL    HW288737   5.863   7.378   3.155 -0.1149 -1.6425 -2.9616
29387SOL     OW88738   3.840   5.348   5.965  0.3322  0.8075  0.0087
29387SOL    HW188739   3.867   5.333   6.055  0.3903 -0.6091 -0.2282
29387SOL    HW288740   3.791   5.430   5.968  1.5288  1.5131  1.0743
29388SOL     OW88741   9.743   4.246   8.996  0.5374 -0.1017  0.0600
29388SOL    HW188742   9.828   4.253   9.039  0.8648 -1.6199 -0.2975
29388SOL    HW288743   9.763   4.216   8.907 -0.1858  2.2445 -0.9781
29389SOL     OW88744   3.732   0.424   2.987  0.2146 -0.5812  0.1316
29389SOL    HW188745   3.770   0.482   2.921  0.9816 -1.3032 -0.0747
29389SOL    HW288746   3.791   0.432   3.062  0.2202 -0.9582  0.1665
29390SOL     OW88747   7.570   5.188   8.102  0.1156  0.0247 -0.1603
29390SOL    HW188748   7.587   5.121   8.168  0.3023  0.4073  0.1846
29390SOL    HW288749   7.483   5.168   8.069 -0.6151  0.7058  1.2787
29391SOL     OW88750   2.391   2.752   0.079  0.4399  0.3613 -0.7170
29391SOL    HW188751   2.439   2.721   0.002 -0.5104 -1.0978 -0.7675
29391SOL    HW288752   2.442   2.826   0.111  1.7280 -0.0070 -1.8176
29392SOL     OW88753   8.495   2.413   2.738 -0.2941  0.1364 -0.1402
29392SOL    HW188754   8.572   2.383   2.691 -1.8939 -0.1248 -2.7658
29392SOL    HW288755   8.527   2.485   2.792  1.6714  0.4367 -1.6001
29393SOL     OW88756   6.720   1.462   6.751  0.2711  0.0495 -0.1770
29393SOL    HW188757   6.718   1.385   6.808 -0.2007  0.5959  0.5770
29393SOL    HW288758   6.643   1.453   6.694 -0.3093  0.3907  0.5247
29394SOL     OW88759   9.814   6.615   1.343 -0.5440  0.2549 -0.1562
29394SOL    HW188760   9.744   6.670   1.308 -1.6492 -1.1155 -0.1454
29394SOL    HW288761   9.785   6.592   1.431 -0.7447 -1.4341 -0.6386
29395SOL     OW88762   9.441   9.577   0.968 -0.4493 -0.0669  0.3572
29395SOL    HW188763   9.443   9.641   0.897 -0.3710 -1.1579 -0.6527
29395SOL    HW288764   9.363   9.524   0.950  0.1862 -1.0466  0.4534
29396SOL     OW88765   5.219   2.102   0.792 -0.0015  0.4444  0.1212
29396SOL    HW188766   5.239   2.188   0.827  2.2917 -0.2345  0.6530
29396SOL    HW288767   5.139   2.075   0.838 -0.1059  1.8100  0.7697
29397SOL     OW88768   7.274   9.262   9.245 -0.7125  0.4540 -0.0525
29397SOL    HW188769   7.203   9.326   9.242 -2.3536 -1.1532  1.6622
29397SOL    HW288770   7.317   9.279   9.330  0.1863  0.5963 -0.5199
29398SOL     OW88771   3.680   9.525   0.081 -0.3355 -0.6039  0.2276
29398SOL    HW188772   3.739   9.552   0.151 -1.1028  2.0620 -0.0588
29398SOL    HW288773   3.597   9.507   0.125 -0.3247 -0.7582  0.1885
29399SOL     OW88774   8.880   4.740   8.676  0.4597  0.9953  0.0133
29399SOL    HW188775   8.860   4.769   8.587 -0.9999 -0.8686 -0.3151
29399SOL    HW288776   8.957   4.684   8.666 -1.8195 -2.2265 -0.7432
29400SOL     OW88777   6.897   2.842   5.924 -0.1988  0.1181 -0.2172
29400SOL    HW188778   6.915   2.908   5.990  2.3924 -1.5651  0.9366
29400SOL    HW288779   6.926   2.882   5.841  1.5559  0.4123  0.4912
29401SOL     OW88780   9.336   6.807   1.894  0.5076 -0.3932 -0.7316
29401SOL    HW188781   9.316   6.832   1.984 -0.0091  2.4067 -1.5355
29401SOL    HW288782   9.257   6.763   1.863 -1.1316  2.5909 -1.1023
29402SOL     OW88783   8.776   8.122   4.016  0.2536 -0.3056 -0.2600
29402SOL    HW188784   8.688   8.147   4.044  0.3899 -0.8068  0.6494
29402SOL    HW288785   8.767   8.032   3.984  0.5834 -0.6596  0.6208
29403SOL     OW88786   8.345   9.669   9.059  0.9948 -0.4864  0.3319
29403SOL    HW188787   8.289   9.671   9.136 -0.8376  0.0463 -0.9377
29403SOL    HW288788   8.428   9.706   9.089 -0.3601  1.7759  1.5595
29404SOL     OW88789   4.813   6.591   7.452  0.0254 -0.0442 -0.7833
29404SOL    HW188790   4.867   6.525   7.407  0.3956 -0.3581  0.1076
29404SOL    HW288791   4.842   6.587   7.543 -1.8833 -0.5827 -0.1704
29405SOL     OW88792   5.395   5.110   4.464  0.2185  0.2579  0.4306
29405SOL    HW188793   5.478   5.100   4.511  0.2191  0.5990  0.5017
29405SOL    HW288794   5.382   5.204   4.457 -1.3360  0.2702  2.5189
29406SOL     OW88795   4.249   9.124   1.265  0.3264 -0.0678 -0.3250
29406SOL    HW188796   4.266   9.122   1.359  1.1298  1.3995 -0.4024
29406SOL    HW288797   4.173   9.181   1.256  1.6379  1.7088 -0.6851
29407SOL     OW88798   0.953   0.497   2.049  0.1951 -0.1891 -0.2702
29407SOL    HW188799   0.951   0.591   2.028  0.7990  0.4134  2.0711
29407SOL    HW288800   0.895   0.457   1.985 -1.2274  1.9857 -0.4491
29408SOL     OW88801   8.914   6.993   6.373 -0.2776  0.2853 -0.8488
29408SOL    HW188802   8.973   6.996   6.448 -1.9367  1.5326  0.4749
29408SOL    HW288803   8.881   6.903   6.372  0.2999  0.0648 -0.5443
29409SOL     OW88804   1.157   8.665   5.893 -0.9052  0.6332 -0.2474
29409SOL    HW188805   1.185   8.603   5.826 -2.4557 -0.7654  0.3345
29409SOL    HW288806   1.175   8.751   5.856  1.2573 -0.1258 -1.1123
29410SOL     OW88807   0.640   1.534   7.806 -0.1714  0.1475 -0.5125
29410SOL    HW188808   0.696   1.600   7.848 -2.9665  1.5921  1.2081
29410SOL    HW288809   0.580   1.507   7.874 -1.3411 -1.6415 -2.1708
29411SOL     OW88810   6.271   2.314   4.299 -0.1265  0.1406  0.1829
29411SOL    HW188811   6.294   2.395   4.345 -0.3093  1.2160 -1.5410
29411SOL    HW288812   6.350   2.290   4.250 -0.8209  0.6958 -1.2751
29412SOL     OW88813   3.298   8.007   2.382  0.0032  0.0287 -0.4762
29412SOL    HW188814   3.219   8.044   2.422  0.7867  2.5560 -1.0986
29412SOL    HW288815   3.303   8.048   2.296  2.3221  0.4250 -0.2043
29413SOL     OW88816   8.216   8.344   1.725 -0.1627  0.8204  0.0629
29413SOL    HW188817   8.199   8.406   1.795  1.3262  0.2949  0.9496
29413SOL    HW288818   8.246   8.265   1.771 -0.5534 -0.0269 -1.1063
29414SOL     OW88819   4.094   7.698   1.192 -0.0533 -0.2820  0.0758
29414SOL    HW188820   4.141   7.630   1.239  0.8359  0.6523  0.5814
29414SOL    HW288821   4.002   7.685   1.216  0.0776 -1.4040  0.0086
29415SOL     OW88822   6.979   4.044   1.846  0.7930 -0.0650  0.0771
29415SOL    HW188823   7.007   3.990   1.772  1.0523 -2.5528  1.8836
29415SOL    HW288824   6.887   4.021   1.859  0.1216  1.9373 -0.7016
29416SOL     OW88825   6.835   4.165   3.133  0.1770 -0.0548 -0.4450
29416SOL    HW188826   6.864   4.222   3.062  0.0444 -0.1390 -0.5666
29416SOL    HW288827   6.913   4.114   3.155  0.4258  0.5021 -0.0136
29417SOL     OW88828   4.934   8.299   1.166  0.7221 -0.1310  0.9993
29417SOL    HW188829   4.901   8.271   1.081  1.9162 -3.9509  1.5984
29417SOL    HW288830   4.856   8.304   1.221  0.1864  0.1686  0.2327
29418SOL     OW88831   9.059   8.160   4.034  0.0706 -0.8386  0.2877
29418SOL    HW188832   9.048   8.146   3.940  0.1490  0.7723  0.0221
29418SOL    HW288833   8.970   8.167   4.067  0.0216 -2.0168  0.4573
29419SOL     OW88834   5.898   2.540   7.217 -0.9446 -0.7770 -0.7685
29419SOL    HW188835   5.850   2.620   7.239 -0.3678 -0.5320 -0.3713
29419SOL    HW288836   5.912   2.546   7.122 -0.8749 -0.3868 -0.7344
29420SOL     OW88837   6.391   7.805   2.987 -0.3543 -0.3044 -0.3785
29420SOL    HW188838   6.453   7.734   2.978 -0.0444 -0.2640  1.2286
29420SOL    HW288839   6.322   7.785   2.923  0.9132 -0.7226 -1.6694
29421SOL     OW88840   6.065   4.919   5.195  0.0941  0.0308  0.0453
29421SOL    HW188841   6.072   4.823   5.193 -0.7042 -0.0185 -1.7101
29421SOL    HW288842   6.076   4.946   5.104  0.9489  1.6811  0.6123
29422SOL     OW88843   0.488   3.935   4.859  0.0263 -0.1304  0.6500
29422SOL    HW188844   0.557   3.990   4.896  1.3260 -0.3936 -1.2217
29422SOL    HW288845   0.494   3.950   4.764 -1.7625 -1.0284  0.3477
29423SOL     OW88846   4.766   3.477   6.921  0.2201 -0.9220  0.0102
29423SOL    HW188847   4.791   3.510   6.835 -0.4739 -0.5039 -0.0383
29423SOL    HW288848   4.844   3.488   6.975  0.1271  0.4371 -0.1119
29424SOL     OW88849   1.000   2.895   3.579 -0.0007  0.0346 -0.6910
29424SOL    HW188850   1.039   2.837   3.513 -0.3774 -0.2443 -0.6730
29424SOL    HW288851   1.030   2.860   3.662  1.1481  0.8778 -0.7329
29425SOL     OW88852   3.822   2.050   0.994 -0.6198  0.3913 -0.3661
29425SOL    HW188853   3.847   2.125   1.049 -0.8469 -0.0646  0.3803
29425SOL    HW288854   3.880   2.055   0.919  0.9671  0.0104  0.7721
29426SOL     OW88855   2.616   6.369   1.255 -0.6554 -0.1335  0.0017
29426SOL    HW188856   2.656   6.284   1.273 -2.0343 -0.8731 -0.2648
29426SOL    HW288857   2.582   6.398   1.339 -0.4799  0.0014  0.0272
29427SOL     OW88858   5.724   2.747   3.340  0.3945 -0.2283  0.0015
29427SOL    HW188859   5.671   2.827   3.330  0.2232 -0.2768  0.4740
29427SOL    HW288860   5.771   2.738   3.257  1.1607  0.8969  0.3001
29428SOL     OW88861   8.248   1.668   4.153  0.1237 -0.7788 -0.4153
29428SOL    HW188862   8.316   1.668   4.086 -0.6460  0.7401 -1.2549
29428SOL    HW288863   8.259   1.585   4.199  2.7561 -0.4512 -0.2767
29429SOL     OW88864   8.526   2.235   7.584 -0.1559 -0.2981 -0.1602
29429SOL    HW188865   8.446   2.281   7.608  0.2795 -0.2990  1.3657
29429SOL    HW288866   8.516   2.148   7.623  0.2751 -0.5546 -0.6055
29430SOL     OW88867   1.968   9.767   3.757  0.0473 -0.1327  0.5936
29430SOL    HW188868   2.052   9.812   3.759  0.1189 -0.2849  1.0628
29430SOL    HW288869   1.911   9.825   3.708  0.9604 -0.9684 -1.5806
29431SOL     OW88870   9.948   1.054   2.205 -0.0713 -0.1046 -0.0101
29431SOL    HW188871   9.952   0.961   2.228  1.4279  0.0993  0.6222
29431SOL    HW288872   9.963   1.100   2.287 -1.1472  0.7201 -0.2553
29432SOL     OW88873   3.459   7.454   1.664  0.3810 -0.2036  0.2072
29432SOL    HW188874   3.402   7.489   1.595  3.0734  0.1480 -2.0097
29432SOL    HW288875   3.456   7.521   1.733 -1.5666 -0.0496  0.0215
29433SOL     OW88876   4.869   2.167   4.137 -0.2588 -0.2937 -0.6596
29433SOL    HW188877   4.866   2.233   4.207  4.2152  0.9135 -1.3357
29433SOL    HW288878   4.860   2.218   4.057  0.0410 -0.9550 -1.1162
29434SOL     OW88879   1.627   0.825   4.314  0.1845 -0.4760  1.0024
29434SOL    HW188880   1.582   0.745   4.289 -0.5365  0.2184 -0.0157
29434SOL    HW288881   1.596   0.844   4.402 -1.3812 -0.1492  0.4212
29435SOL     OW88882   3.494   0.041   4.286 -0.0288 -0.5364 -0.0208
29435SOL    HW188883   3.529   0.023   4.373  0.5149 -0.7653 -0.2807
29435SOL    HW288884   3.428  -0.026   4.272 -2.1819  1.1666  1.3479
29436SOL     OW88885   7.109   4.073   8.776  0.1927  1.0547  0.5021
29436SOL    HW188886   7.094   4.017   8.852  2.1280 -0.0851  0.1151
29436SOL    HW288887   7.024   4.076   8.731  0.2379 -2.6681 -0.1599
29437SOL     OW88888   7.488   0.947   9.453 -0.3243 -0.7271  0.2669
29437SOL    HW188889   7.447   0.956   9.367  0.5177 -1.1602 -0.2012
29437SOL    HW288890   7.582   0.941   9.434 -0.2432 -2.7507  1.0609
29438SOL     OW88891   4.362   7.892   5.681  0.2368 -0.2588  0.0921
29438SOL    HW188892   4.417   7.878   5.759  1.4273  2.4550 -0.1358
29438SOL    HW288893   4.416   7.861   5.608  0.0015 -0.8013  0.1408
29439SOL     OW88894   6.139   3.205   7.276  0.5944  0.5644 -0.5547
29439SOL    HW188895   6.206   3.191   7.343  2.1155 -1.0045 -2.3253
29439SOL    HW288896   6.095   3.120   7.269 -0.0634  0.9422 -1.0302
29440SOL     OW88897   8.068   9.352   7.205  0.1820  0.0567  0.6842
29440SOL    HW188898   8.116   9.435   7.198  0.8584 -0.4086 -0.3869
29440SOL    HW288899   7.978   9.378   7.225  0.1852  1.1113 -0.5344
29441SOL     OW88900   4.567   6.592   4.707 -0.2465 -0.2114 -0.0684
29441SOL    HW188901   4.660   6.580   4.691 -0.2515  2.2392 -2.8219
29441SOL    HW288902   4.561   6.677   4.752 -1.1442 -0.8449  1.0850
29442SOL     OW88903   1.349   9.765   3.231  0.2750  0.1076 -0.8278
29442SOL    HW188904   1.338   9.844   3.178 -0.2698 -0.3972 -1.4835
29442SOL    HW288905   1.323   9.694   3.173 -1.8285 -0.3582  0.5596
29443SOL     OW88906   1.499   2.542   9.819 -0.0678 -0.2269  0.0293
29443SOL    HW188907   1.475   2.475   9.755 -0.6013 -1.4314  1.4103
29443SOL    HW288908   1.587   2.519   9.847 -0.6376 -1.0569  1.2775
29444SOL     OW88909   7.992   0.723   9.448  0.2970 -0.0960 -0.0450
29444SOL    HW188910   7.969   0.742   9.539  2.8099 -2.5580  1.2395
29444SOL    HW288911   7.929   0.656   9.422  0.0761  0.0455  0.1090
29445SOL     OW88912   5.461   2.492   0.202  0.3333 -0.1522  0.4769
29445SOL    HW188913   5.368   2.473   0.194  0.1684 -0.0152  1.8439
29445SOL    HW288914   5.504   2.407   0.201  0.3851 -0.1718 -1.7845
29446SOL     OW88915   7.722   7.325   6.132  0.1480  0.0844 -0.0727
29446SOL    HW188916   7.727   7.270   6.053 -1.6907 -0.2803  0.0108
29446SOL    HW288917   7.659   7.393   6.109  1.7267  1.6897  0.1470
29447SOL     OW88918   4.712   9.391   4.349 -0.2988  0.1783  0.3362
29447SOL    HW188919   4.626   9.427   4.326 -0.4591 -0.2916  0.1943
29447SOL    HW288920   4.692   9.320   4.411 -0.1578 -1.1367 -1.0677
29448SOL     OW88921   7.864   5.558   6.429 -0.8313  0.3054  0.2308
29448SOL    HW188922   7.790   5.534   6.374 -0.6403  0.0806  0.0704
29448SOL    HW288923   7.879   5.650   6.411 -0.2367  0.0308 -0.7260
29449SOL     OW88924   7.342   5.555   4.835 -0.0298  0.4103 -0.0413
29449SOL    HW188925   7.262   5.579   4.883 -0.0969 -0.1235  0.1193
29449SOL    HW288926   7.379   5.639   4.807 -1.0538  0.6417 -0.7828
29450SOL     OW88927   0.660   3.322   4.921 -0.5011  0.4834  0.3552
29450SOL    HW188928   0.753   3.302   4.931 -0.7133  0.1132  1.6781
29450SOL    HW288929   0.653   3.357   4.832  0.6203 -1.0431 -0.3681
29451SOL     OW88930   0.161   1.322   8.284  0.6727 -0.1331  0.0242
29451SOL    HW188931   0.141   1.338   8.192  1.9397 -0.8796 -0.4077
29451SOL    HW288932   0.083   1.279   8.318 -0.2021  1.0380 -0.4232
29452SOL     OW88933   4.965   5.130   5.426  0.2934 -0.1472  0.5087
29452SOL    HW188934   4.914   5.164   5.352  0.5533 -0.5442  0.1402
29452SOL    HW288935   5.028   5.199   5.446 -0.5376  0.4586  1.1349
29453SOL     OW88936   9.198   1.193   9.412  0.1558 -0.1253  0.6345
29453SOL    HW188937   9.132   1.262   9.419 -0.2074 -0.5419  1.4632
29453SOL    HW288938   9.168   1.125   9.472 -0.0847 -1.5090 -0.9818
29454SOL     OW88939   3.631   3.858   3.255  0.0897  0.0266 -0.5395
29454SOL    HW188940   3.611   3.765   3.263  1.5435 -0.1698  1.6423
29454SOL    HW288941   3.693   3.864   3.182 -0.2343 -0.6724 -0.8743
29455SOL     OW88942   5.705   7.148   0.323 -0.2509 -0.2025  0.1845
29455SOL    HW188943   5.622   7.196   0.319  0.4259  1.1729  1.7238
29455SOL    HW288944   5.725   7.128   0.231 -0.6331  2.3497 -0.5229
29456SOL     OW88945   3.451   6.289   6.560  0.2204 -0.2144  0.2774
29456SOL    HW188946   3.378   6.272   6.500 -0.9163 -0.4660  1.6715
29456SOL    HW288947   3.527   6.252   6.516 -0.4436  0.1738 -1.2852
29457SOL     OW88948   9.221   1.712   9.349 -0.4756 -0.0195  0.1324
29457SOL    HW188949   9.264   1.659   9.415 -1.1706  0.1061  0.6901
29457SOL    HW288950   9.292   1.762   9.309  0.0462 -0.6341  0.2723
29458SOL     OW88951   8.495   0.024   7.851  0.0868  0.7919  0.4153
29458SOL    HW188952   8.465  -0.013   7.934  1.6618 -1.8183 -0.0481
29458SOL    HW288953   8.419   0.069   7.815 -1.4140 -0.3359  2.0209
29459SOL     OW88954   2.540   9.936   5.596 -1.0652  0.8378 -0.4902
29459SOL    HW188955   2.558   9.876   5.668 -0.9834  1.1714 -0.2332
29459SOL    HW288956   2.548   9.881   5.518 -0.6204  0.5942 -0.2814
29460SOL     OW88957   7.634   6.628   4.242  0.5695 -0.7375 -0.0148
29460SOL    HW188958   7.632   6.534   4.224  1.0597 -0.6176 -0.7498
29460SOL    HW288959   7.724   6.654   4.220  0.7140 -0.2626  1.0774
29461SOL     OW88960   7.484   1.979   6.353  0.2041 -0.2363  0.1944
29461SOL    HW188961   7.400   1.949   6.317 -0.1219 -0.6303  1.2354
29461SOL    HW288962   7.476   2.074   6.357 -1.3515 -0.3981  2.9265
29462SOL     OW88963   2.683   2.084   1.030 -0.5327  0.0990 -0.0230
29462SOL    HW188964   2.613   2.079   0.965 -1.1220  0.2971  0.5881
29462SOL    HW288965   2.700   2.177   1.041  0.1845  0.0366 -0.5399
29463SOL     OW88966   7.994   5.423   6.010  0.4029 -0.0734  0.4439
29463SOL    HW188967   8.078   5.409   5.967  0.0181  0.4886 -0.5353
29463SOL    HW288968   7.957   5.499   5.966 -0.9156 -0.7224  0.3760
29464SOL     OW88969   2.074   6.856   7.376 -0.3362 -0.2401 -0.1511
29464SOL    HW188970   2.111   6.888   7.294  0.8201  2.9529  1.4688
29464SOL    HW288971   1.994   6.907   7.388 -0.0222 -0.0099  1.1112
29465SOL     OW88972   9.818   3.674   9.785 -0.0131 -0.3594 -0.3424
29465SOL    HW188973   9.766   3.699   9.862  1.4737  0.4041  0.4685
29465SOL    HW288974   9.860   3.592   9.810 -0.2266 -0.5787 -0.6984
29466SOL     OW88975   8.316   0.264   5.922  0.3110  0.3628 -0.0778
29466SOL    HW188976   8.365   0.236   5.845  0.4994 -1.5315  0.6704
29466SOL    HW288977   8.240   0.206   5.924  0.0406  0.7368  0.8501
29467SOL     OW88978   0.994   4.913   2.334 -0.5092 -0.4521  0.1908
29467SOL    HW188979   1.033   4.868   2.259  1.3477  2.0064 -0.4406
29467SOL    HW288980   1.064   4.919   2.398 -1.5838 -0.9737  1.4724
29468SOL     OW88981   8.144   9.094   4.936 -0.3545 -0.1594  0.2286
29468SOL    HW188982   8.152   9.051   4.851 -0.9393 -0.2340  0.2042
29468SOL    HW288983   8.100   9.029   4.992 -0.7925  0.2191  0.3302
29469SOL     OW88984   0.232   1.613   6.013  0.6274  0.3987 -0.5934
29469SOL    HW188985   0.313   1.627   5.964 -0.3490  2.4375 -1.7927
29469SOL    HW288986   0.165   1.657   5.960 -1.6186 -2.6269 -0.5306
29470SOL     OW88987   9.637   1.837   0.575  0.6985 -1.0008 -0.3419
29470SOL    HW188988   9.580   1.803   0.643  1.4415 -0.7187  0.4418
29470SOL    HW288989   9.588   1.909   0.536 -0.4672 -2.2813 -1.3362
29471SOL     OW88990   7.257   6.131   5.552  0.1910  0.0301  0.3144
29471SOL    HW188991   7.211   6.049   5.533 -0.9272  0.7430 -0.1731
29471SOL    HW288992   7.213   6.165   5.630 -0.5837  1.0443 -0.5419
29472SOL     OW88993   8.825   9.594   7.595 -0.4108  0.4771  0.3658
29472SOL    HW188994   8.882   9.616   7.521  0.2187 -0.2749  0.6122
29472SOL    HW288995   8.751   9.654   7.587  2.0367  4.1175  2.0404
29473SOL     OW88996   2.030   0.049   1.007  0.6357 -0.0458  0.6137
29473SOL    HW188997   1.952   0.002   0.978  0.4759 -0.1916  1.2693
29473SOL    HW288998   1.997   0.122   1.059  0.9071  0.4830  0.0705
29474SOL     OW88999   1.283   7.876   3.625 -0.3499 -0.3026 -0.0428
29474SOL    HW189000   1.213   7.904   3.567  0.2985  0.9551 -0.2591
29474SOL    HW289001   1.299   7.952   3.682  1.3552 -0.2616 -0.5164
29475SOL     OW89002   6.398   6.343   9.579 -0.1194  0.4333 -0.2147
29475SOL    HW189003   6.451   6.283   9.525  0.9817  0.2802  0.9770
29475SOL    HW289004   6.370   6.289   9.653  0.5542  1.2688  0.6678
29476SOL     OW89005   6.208   7.968   3.250 -0.3941 -0.4937  0.4045
29476SOL    HW189006   6.219   7.981   3.156 -3.5336 -1.8204 -0.2975
29476SOL    HW289007   6.126   7.919   3.257  1.2158 -3.0935  3.6831
29477SOL     OW89008   9.103   2.763   8.021  0.5308  0.0817  0.0226
29477SOL    HW189009   9.026   2.723   7.979 -0.0128  1.4030 -0.3073
29477SOL    HW289010   9.108   2.851   7.982  0.3489  1.1656  2.3064
29478SOL     OW89011   7.602   4.861   4.817 -0.5306  0.0619 -0.2989
29478SOL    HW189012   7.693   4.851   4.788 -0.8268  0.4282 -1.4082
29478SOL    HW289013   7.580   4.952   4.795 -1.0336  0.1090  0.3682
29479SOL     OW89014   3.715   3.744   4.974  0.1264  0.0759  0.5169
29479SOL    HW189015   3.673   3.708   4.896  2.1549  0.7074 -0.9308
29479SOL    HW289016   3.661   3.820   4.997 -0.3687  0.0122 -0.3969
29480SOL     OW89017   5.818   6.530   7.662  0.0224  0.8769  0.1677
29480SOL    HW189018   5.895   6.486   7.698 -0.3013  0.6099  0.5422
29480SOL    HW289019   5.746   6.470   7.678 -0.6032  1.9414  1.5556
29481SOL     OW89020   5.715   0.278   6.152  0.0353 -0.6318  0.1996
29481SOL    HW189021   5.735   0.365   6.119  1.4098 -0.6544  0.8979
29481SOL    HW289022   5.630   0.256   6.113  0.4855  0.2891 -1.4027
29482SOL     OW89023   4.246   3.889   8.364  0.3113  0.3908 -1.0444
29482SOL    HW189024   4.314   3.876   8.431 -0.4351  0.3207 -0.2738
29482SOL    HW289025   4.292   3.926   8.289  1.3004 -0.2147 -0.7550
29483SOL     OW89026   1.185   3.377   0.860  0.6126  0.1707 -0.3477
29483SOL    HW189027   1.102   3.392   0.816 -0.6722  0.1642  1.9005
29483SOL    HW289028   1.231   3.315   0.805  0.1448  1.8759 -2.8152
29484SOL     OW89029   8.425   3.348   4.745  0.3390  0.3066  0.7514
29484SOL    HW189030   8.331   3.363   4.749  0.1619 -0.6574  0.3619
29484SOL    HW289031   8.456   3.363   4.835 -0.2519  0.1480  0.9824
29485SOL     OW89032   6.800   9.974   7.152 -0.5177 -0.1674  0.0681
29485SOL    HW189033   6.835   9.891   7.120  0.5045  0.5323 -0.7215
29485SOL    HW289034   6.865  10.039   7.126 -1.8718  1.0531 -0.4178
29486SOL     OW89035   7.517   9.878   3.954  0.2334  0.0676 -0.3028
29486SOL    HW189036   7.505   9.812   3.886 -1.2291  0.6276 -0.6331
29486SOL    HW289037   7.608   9.907   3.944  0.2796 -0.4359 -1.4824
29487SOL     OW89038   2.257   7.597   3.700 -0.2082  0.0095  0.2753
29487SOL    HW189039   2.170   7.631   3.722 -0.1711  0.0914  0.2931
29487SOL    HW289040   2.318   7.666   3.726 -0.1430 -0.0148  0.1871
29488SOL     OW89041   7.817   5.600   3.902  0.2835  0.1900  0.3672
29488SOL    HW189042   7.864   5.642   3.973 -0.6577  2.6401 -0.3572
29488SOL    HW289043   7.734   5.572   3.941  0.1850  0.6229  0.4731
29489SOL     OW89044   8.761   5.168   8.684  0.4816  0.3641  0.0135
29489SOL    HW189045   8.779   5.113   8.607 -0.1965 -0.9111  0.7410
29489SOL    HW289046   8.740   5.254   8.647  1.8035  0.2361 -1.1446
29490SOL     OW89047   7.826   9.494   9.321  0.3022  0.1203 -0.6382
29490SOL    HW189048   7.746   9.496   9.268 -0.7779 -2.5804  0.6740
29490SOL    HW289049   7.884   9.433   9.275  0.3511 -0.3244  0.0014
29491SOL     OW89050   4.449   6.287   3.553  0.5312 -0.7364  0.0869
29491SOL    HW189051   4.510   6.329   3.493  1.1019 -0.4312  0.8666
29491SOL    HW289052   4.479   6.313   3.640  1.4532 -3.4526  0.6863
29492SOL     OW89053   7.747   2.883   0.222 -0.2384 -0.5394  0.0465
29492SOL    HW189054   7.764   2.943   0.295 -2.2091 -0.9698  0.9345
29492SOL    HW289055   7.744   2.796   0.263 -1.7849 -0.7476 -0.4207
29493SOL     OW89056   6.005   3.654   7.509 -0.0978 -0.7525  0.3791
29493SOL    HW189057   5.915   3.684   7.498  0.2137  0.1654  0.2870
29493SOL    HW289058   6.016   3.587   7.441 -0.8217 -1.1460  0.6372
29494SOL     OW89059   7.387   4.655   5.218  0.2157 -0.0748 -0.3753
29494SOL    HW189060   7.394   4.667   5.313  2.2544 -0.1895 -0.4808
29494SOL    HW289061   7.335   4.575   5.208  0.6811 -0.5146  0.6628
29495SOL     OW89062   3.887   3.395   7.649 -0.1485  0.2374 -0.0377
29495SOL    HW189063   3.797   3.386   7.678 -0.9349  0.5363 -2.2191
29495SOL    HW289064   3.897   3.488   7.628 -0.4707 -0.3327 -3.0871
29496SOL     OW89065   4.204   5.688   3.943 -0.2731 -0.1622  0.6519
29496SOL    HW189066   4.206   5.725   4.031 -0.2484  0.1810  0.5077
29496SOL    HW289067   4.280   5.726   3.899 -0.4460 -0.1161  0.3943
29497SOL     OW89068   3.951   8.529   9.013 -0.0985 -0.1095 -0.3258
29497SOL    HW189069   3.889   8.548   9.083  0.1805  1.9059 -0.5667
29497SOL    HW289070   3.941   8.602   8.951  1.0932 -0.7804 -1.3723
29498SOL     OW89071   9.648   1.120   9.408 -0.0455 -0.3002 -0.0347
29498SOL    HW189072   9.595   1.046   9.437 -1.8598  1.1718  0.6326
29498SOL    HW289073   9.586   1.176   9.361  1.2759  0.8183 -0.5052
29499SOL     OW89074   6.518   9.531   4.888  0.3153 -0.3747  0.6062
29499SOL    HW189075   6.614   9.536   4.896  0.4747 -2.0612  0.0080
29499SOL    HW289076   6.503   9.499   4.799 -0.8205 -0.1262  0.6958
29500SOL     OW89077   6.699   6.827   0.761  0.5356 -0.2425  0.5318
29500SOL    HW189078   6.617   6.778   0.757  0.3065  0.1208  0.7565
29500SOL    HW289079   6.767   6.760   0.762  0.1835 -0.6059  2.1343
29501SOL     OW89080   2.928   5.930   8.187  0.0090 -0.0625  0.0934
29501SOL    HW189081   2.846   5.937   8.237  0.2887  0.9707  0.4329
29501SOL    HW289082   2.946   6.020   8.159 -0.3462 -0.6550 -2.2402
29502SOL     OW89083   0.142   9.806   9.092  0.3860  0.2291 -0.6526
29502SOL    HW189084   0.168   9.775   9.179 -1.3826 -0.2105 -0.2452
29502SOL    HW289085   0.046   9.807   9.095  0.2424 -0.9048 -2.9823
29503SOL     OW89086   3.637   2.835   7.102 -0.4450  0.7311 -0.3825
29503SOL    HW189087   3.659   2.896   7.173  0.4777  0.3809 -0.3540
29503SOL    HW289088   3.675   2.752   7.130 -1.5349  0.1747 -0.5060
29504SOL     OW89089   8.815   9.401   7.131 -0.1167 -0.2463  0.6721
29504SOL    HW189090   8.897   9.406   7.181  0.1557  2.9114  0.1381
29504SOL    HW289091   8.842   9.373   7.044 -0.2026 -2.9091  1.4203
29505SOL     OW89092   2.526   6.271   6.419 -0.3264  0.0497 -0.3137
29505SOL    HW189093   2.520   6.366   6.424  0.8528  0.0678  1.8094
29505SOL    HW289094   2.466   6.239   6.487 -0.2549 -0.7069 -0.5897
29506SOL     OW89095   1.083   4.053   1.670  0.3137  0.3065  0.4290
29506SOL    HW189096   1.092   4.045   1.765  0.8289 -1.2129  0.2903
29506SOL    HW289097   1.172   4.038   1.637 -0.0914 -0.4916 -0.3354
29507SOL     OW89098   6.612   3.843   6.182 -0.9638 -0.0190  0.2450
29507SOL    HW189099   6.566   3.905   6.125 -0.9375 -0.8467 -0.6908
29507SOL    HW289100   6.633   3.894   6.261 -0.2614  1.3857 -0.8155
29508SOL     OW89101   3.284   5.143   2.668  0.4794  0.0876  0.0386
29508SOL    HW189102   3.203   5.170   2.711  0.2443 -1.5381  0.7020
29508SOL    HW289103   3.327   5.086   2.732  0.9916 -0.9723 -1.2096
29509SOL     OW89104   8.110   5.180   2.312 -0.0314  0.0137 -0.3449
29509SOL    HW189105   8.046   5.134   2.258  1.5723 -2.5208 -0.2384
29509SOL    HW289106   8.098   5.144   2.400 -0.3008  1.5860  0.3116
29510SOL     OW89107   9.815   7.860   5.722  0.5381 -0.7067 -0.3649
29510SOL    HW189108   9.834   7.767   5.714  0.3416 -0.7314 -0.5590
29510SOL    HW289109   9.791   7.887   5.633  1.7776 -0.2111 -0.5704
29511SOL     OW89110   9.350   5.728   4.206 -0.0273  0.0073 -0.8686
29511SOL    HW189111   9.358   5.744   4.112  1.2622  0.3448 -0.7133
29511SOL    HW289112   9.412   5.789   4.246 -0.6015 -0.0974  0.2093
29512SOL     OW89113   9.598   0.451   5.882 -0.0221 -0.1709  0.1522
29512SOL    HW189114   9.514   0.440   5.928 -1.2190  0.7343 -1.7221
29512SOL    HW289115   9.574   0.469   5.791  2.2313 -0.2107 -0.5064
29513SOL     OW89116   2.566   5.234   7.595  0.0223 -0.3027 -0.1598
29513SOL    HW189117   2.547   5.316   7.640  0.2602  0.3997 -1.2778
29513SOL    HW289118   2.660   5.219   7.610  0.3773  0.5587 -1.3492
29514SOL     OW89119   8.900   2.442   8.431 -0.2094 -0.0166 -0.2806
29514SOL    HW189120   8.938   2.425   8.345 -1.8696 -0.3017 -0.9958
29514SOL    HW289121   8.807   2.458   8.413 -0.7089 -0.6923  1.5156
29515SOL     OW89122   3.015   0.548   1.370  0.0158 -0.0700  0.3948
29515SOL    HW189123   3.039   0.641   1.363  0.6403 -0.0768  1.9703
29515SOL    HW289124   3.077   0.503   1.314  0.1929  0.4014  0.2024
29516SOL     OW89125   4.812   3.240   2.330 -0.0331  0.1970  0.2774
29516SOL    HW189126   4.740   3.293   2.363 -0.0564  1.6715 -1.8996
29516SOL    HW289127   4.780   3.150   2.336 -0.6304  0.5108  2.5771
29517SOL     OW89128   8.397   4.448   6.121 -0.0175 -0.0766 -0.2484
29517SOL    HW189129   8.477   4.432   6.071 -0.9470 -1.0014 -1.4996
29517SOL    HW289130   8.337   4.488   6.058 -1.1831 -1.1299  0.1555
29518SOL     OW89131   2.300   6.414   2.177  0.7216  0.0300 -0.6476
29518SOL    HW189132   2.380   6.404   2.229 -0.1985  0.5879  0.9836
29518SOL    HW289133   2.308   6.501   2.138  0.0398  0.9984  1.2338
29519SOL     OW89134   5.778   8.509   4.926  0.2951 -0.3723 -0.1416
29519SOL    HW189135   5.871   8.521   4.905  0.4964  0.7218  1.2650
29519SOL    HW289136   5.735   8.584   4.886  0.0681 -0.6175 -0.3658
29520SOL     OW89137   6.154   4.850   8.672  0.0412 -0.0505  0.6653
29520SOL    HW189138   6.140   4.943   8.659  0.3060  0.1256  1.6085
29520SOL    HW289139   6.228   4.844   8.732  0.5645 -0.8850 -0.0340
29521SOL     OW89140   2.630   0.029   9.740 -0.5595 -0.0464  0.0456
29521SOL    HW189141   2.542   0.053   9.709 -0.6944  0.8937  1.0823
29521SOL    HW289142   2.652   0.098   9.803  1.5130  0.5209 -1.2040
29522SOL     OW89143   2.059   7.090   8.959  0.9686 -0.2319 -0.2719
29522SOL    HW189144   2.034   7.116   9.047  1.1700 -0.7572 -0.0547
29522SOL    HW289145   2.114   7.162   8.927  0.5318  0.1638 -0.1378
29523SOL     OW89146   2.476   2.702   8.333 -0.3132 -0.0902 -0.3312
29523SOL    HW189147   2.449   2.759   8.405 -2.5014  0.7590 -1.7114
29523SOL    HW289148   2.409   2.633   8.331  0.1445 -0.5236 -1.0654
29524SOL     OW89149   0.602   4.429   1.336 -0.6216  0.3586 -0.6854
29524SOL    HW189150   0.680   4.479   1.310 -0.4344  0.6459  0.4020
29524SOL    HW289151   0.558   4.410   1.253  0.7446 -0.0437 -1.3515
29525SOL     OW89152   1.789   6.512   8.812 -0.2086 -0.0497 -0.4008
29525SOL    HW189153   1.719   6.461   8.852 -0.7974 -0.3028 -1.7056
29525SOL    HW289154   1.852   6.447   8.782 -0.5712  0.0296 -1.3483
29526SOL     OW89155   6.422   6.664   5.835 -0.3825  0.4495  0.0611
29526SOL    HW189156   6.406   6.571   5.855 -1.0550  0.5803  0.1425
29526SOL    HW289157   6.512   6.678   5.862  0.0423 -0.4224 -0.8211
29527SOL     OW89158   9.212   6.994   1.360  0.4046  0.5659 -0.1352
29527SOL    HW189159   9.243   6.905   1.345  0.2237  0.4406  0.2201
29527SOL    HW289160   9.282   7.050   1.328  0.7850  0.2914  0.2076
29528SOL     OW89161   4.975   9.872   9.503  0.3062 -0.2974  0.3939
29528SOL    HW189162   4.908   9.808   9.480  0.0528 -0.2605  1.0307
29528SOL    HW289163   4.929   9.938   9.554 -0.3396  2.4250 -3.2665
29529SOL     OW89164   6.302   0.842   6.295  0.4533  0.8564  0.0035
29529SOL    HW189165   6.344   0.888   6.368 -0.3237  1.9317 -0.2054
29529SOL    HW289166   6.336   0.752   6.301  2.3984  1.5437  0.1279
29530SOL     OW89167   8.787   6.225   9.347 -0.0729  0.1287  0.2174
29530SOL    HW189168   8.809   6.238   9.439  0.2846  1.4683 -0.0388
29530SOL    HW289169   8.761   6.312   9.316 -0.3879 -0.3492 -0.8949
29531SOL     OW89170   4.393   6.234   9.297 -0.4216  0.1849 -0.3379
29531SOL    HW189171   4.342   6.171   9.347 -0.7895  0.0526 -0.8596
29531SOL    HW289172   4.423   6.185   9.220 -0.0317  0.4323 -0.3462
29532SOL     OW89173   6.706   5.771   7.502 -0.2746 -0.1133 -0.0128
29532SOL    HW189174   6.626   5.730   7.535  1.1434 -2.0022  1.2734
29532SOL    HW289175   6.678   5.816   7.422 -2.5926 -0.7611  0.3509
29533SOL     OW89176   8.116   9.141   3.451  0.1128 -0.5930 -0.0895
29533SOL    HW189177   8.092   9.196   3.376 -0.3712  0.5331  0.8592
29533SOL    HW289178   8.177   9.195   3.501 -0.0425 -1.0924  0.6464
29534SOL     OW89179   9.071   9.201   3.181 -0.7512 -0.1313  0.1888
29534SOL    HW189180   9.098   9.284   3.143  2.6391 -0.9693  0.3977
29534SOL    HW289181   9.067   9.218   3.275 -0.0104 -0.1709  0.2369
29535SOL     OW89182   0.957   1.091   5.038  0.3163 -0.4332 -0.3707
29535SOL    HW189183   1.008   1.062   5.114 -0.0609  0.3904  0.2115
29535SOL    HW289184   0.912   1.011   5.008  0.6071 -0.8065  0.1669
29536SOL     OW89185   8.112   9.202   5.493  0.1409 -0.0011  0.0761
29536SOL    HW189186   8.195   9.229   5.452  0.8365 -1.3579  0.5149
29536SOL    HW289187   8.089   9.121   5.448 -1.1966  0.5943 -0.3332
29537SOL     OW89188   3.518   4.511   7.622  0.3923 -0.6420  0.6394
29537SOL    HW189189   3.571   4.578   7.579 -0.8550 -0.1135 -0.0999
29537SOL    HW289190   3.429   4.546   7.624 -0.2893 -2.2311  0.2981
29538SOL     OW89191   7.926   7.861   2.872  0.1839 -0.5485  0.1632
29538SOL    HW189192   7.861   7.930   2.856  1.8337  1.2794  0.9621
29538SOL    HW289193   7.878   7.793   2.919 -1.8157 -0.5904 -1.7899
29539SOL     OW89194   7.385   1.506   4.395  0.5120 -0.2299 -0.0853
29539SOL    HW189195   7.398   1.589   4.442  0.9398 -1.0829  1.3644
29539SOL    HW289196   7.441   1.444   4.441 -0.0872 -1.4163 -0.9214
29540SOL     OW89197   9.940   6.712   3.359  0.5042  0.3379  0.0939
29540SOL    HW189198  10.026   6.671   3.354  0.4287 -0.0253  1.2627
29540SOL    HW289199   9.931   6.737   3.451 -1.1242 -0.7633  0.2911
29541SOL     OW89200   9.111   5.577   6.885  0.4835  0.1973  0.6419
29541SOL    HW189201   9.201   5.569   6.918 -0.1568  1.5775  2.8989
29541SOL    HW289202   9.107   5.666   6.850 -0.1978  0.3928  1.2056
29542SOL     OW89203   9.602   7.014   8.218 -0.1831  0.1062  0.0142
29542SOL    HW189204   9.565   7.097   8.249 -2.2371 -0.2716 -1.2497
29542SOL    HW289205   9.558   6.947   8.271  0.8189 -0.2399  0.4274
29543SOL     OW89206   2.007   2.408   4.086 -0.5430  0.0420 -0.1013
29543SOL    HW189207   1.971   2.334   4.037 -1.2397  0.8546 -0.8630
29543SOL    HW289208   2.008   2.379   4.177 -1.7110 -0.5729 -0.2593
29544SOL     OW89209   5.311   5.705   3.594 -0.7946  0.2299 -0.0425
29544SOL    HW189210   5.374   5.774   3.574  0.0810 -0.5311  0.0095
29544SOL    HW289211   5.333   5.676   3.682 -0.0166 -1.2711 -0.6925
29545SOL     OW89212   2.892   3.242   5.594  0.4225  0.0959 -0.4727
29545SOL    HW189213   2.946   3.299   5.648 -1.3975  1.4822  0.0081
29545SOL    HW289214   2.806   3.243   5.637  0.3339 -3.2872 -0.2738
29546SOL     OW89215   8.945   7.932   8.326 -0.2444  0.4462  0.2181
29546SOL    HW189216   8.857   7.921   8.291  0.3800  1.3481 -1.7868
29546SOL    HW289217   8.934   7.993   8.399 -1.6476 -1.8332  2.0618
29547SOL     OW89218   3.802   6.877   4.679  0.1968  0.1399 -0.3776
29547SOL    HW189219   3.719   6.832   4.698 -0.5232  0.9263 -1.4982
29547SOL    HW289220   3.847   6.881   4.763 -1.1763  0.2215  0.3900
29548SOL     OW89221   8.954   2.763   6.187 -0.5346 -0.3237 -0.3738
29548SOL    HW189222   8.990   2.799   6.106  0.4582 -0.6793 -0.0997
29548SOL    HW289223   9.016   2.696   6.214 -0.4447  0.2974  1.0888
29549SOL     OW89224   2.863   6.432   0.834 -0.6001  0.3570  0.1632
29549SOL    HW189225   2.851   6.457   0.926 -0.8245  0.2191  0.1716
29549SOL    HW289226   2.852   6.514   0.786  1.6576  0.8901  0.4000
29550SOL     OW89227   3.652   8.834   2.895  0.0802 -0.4113  0.1088
29550SOL    HW189228   3.708   8.757   2.887 -0.1828 -0.5829 -0.0980
29550SOL    HW289229   3.712   8.909   2.887  0.6301 -0.5647  2.2205
29551SOL     OW89230   9.649   0.665   7.813  0.1799 -0.2045  0.5037
29551SOL    HW189231   9.711   0.630   7.748 -0.6329 -0.6861 -0.0263
29551SOL    HW289232   9.699   0.732   7.859  1.0551 -0.4744 -0.0165
29552SOL     OW89233   7.955   7.041   6.052 -0.4935  0.1015 -0.2343
29552SOL    HW189234   7.939   6.978   6.122 -0.0558  0.3639  0.1052
29552SOL    HW289235   8.003   6.991   5.986  0.3817  0.2261  0.2976
29553SOL     OW89236   8.294   1.175   7.394  0.0320  0.5259 -0.0466
29553SOL    HW189237   8.225   1.198   7.331 -0.5119 -0.2590  0.2405
29553SOL    HW289238   8.356   1.248   7.390 -0.2215  0.6915 -1.1671
29554SOL     OW89239   9.356   1.020   7.553  0.0417 -0.1168 -0.3767
29554SOL    HW189240   9.354   1.116   7.558 -0.0119 -0.1113 -0.4899
29554SOL    HW289241   9.447   0.998   7.532  0.7397 -0.2368  2.4549
29555SOL     OW89242   6.719   7.629   8.098  0.5431  0.3420 -0.3484
29555SOL    HW189243   6.759   7.553   8.054 -1.0366 -0.7770  0.0763
29555SOL    HW289244   6.721   7.606   8.191  0.0183  0.8064 -0.2180
29556SOL     OW89245   0.094   4.690   2.308  0.7217  0.0276 -0.5921
29556SOL    HW189246   0.178   4.735   2.304  0.7565  0.0087 -0.1239
29556SOL    HW289247   0.109   4.615   2.365 -0.1373  1.2322  1.3368
29557SOL     OW89248   9.058   4.547   7.435  0.6315  0.0785 -0.2174
29557SOL    HW189249   9.027   4.458   7.449 -1.2555  0.6678 -0.2674
29557SOL    HW289250   9.005   4.600   7.494  0.4662  1.3403 -1.4272
29558SOL     OW89251   6.041   0.455   0.226 -0.0195 -0.7180  0.0579
29558SOL    HW189252   6.012   0.521   0.289 -0.0473  0.2756 -0.9626
29558SOL    HW289253   5.980   0.382   0.238 -0.9793  0.0711  0.1349
29559SOL     OW89254   6.308   8.543   6.333  0.1292  0.5614 -0.1353
29559SOL    HW189255   6.302   8.448   6.344 -3.2100  0.8116  1.3569
29559SOL    HW289256   6.347   8.574   6.415  2.3272  0.4797 -1.0879
29560SOL     OW89257   9.007   5.684   4.472 -0.1905  0.2733 -0.5419
29560SOL    HW189258   9.026   5.600   4.430  1.1785  1.1245 -1.7462
29560SOL    HW289259   9.014   5.666   4.566 -0.0124 -0.9799 -0.7770
29561SOL     OW89260   0.073   5.347   3.709  0.0034 -0.3956 -0.4306
29561SOL    HW189261   0.024   5.314   3.634 -0.1186  2.5216 -1.7815
29561SOL    HW289262   0.046   5.292   3.782 -3.9625 -0.1061 -1.4592
29562SOL     OW89263   6.146   9.443   4.638  0.2548 -0.5549  0.2269
29562SOL    HW189264   6.117   9.439   4.729 -0.3883  2.0466  0.2018
29562SOL    HW289265   6.218   9.506   4.638 -0.1294 -0.0820 -1.1320
29563SOL     OW89266   9.075   2.694   1.824  0.1664  0.2933  0.4793
29563SOL    HW189267   9.055   2.613   1.777 -1.2687  0.9038 -0.0465
29563SOL    HW289268   9.078   2.668   1.916 -0.8250 -0.2911  0.3715
29564SOL     OW89269   1.992   1.228   9.805  0.2898  0.3389 -0.2463
29564SOL    HW189270   1.992   1.248   9.898  2.7908  0.0421 -0.1181
29564SOL    HW289271   1.950   1.143   9.798 -1.2821  1.0378  0.4048
29565SOL     OW89272   7.197   0.337   7.482 -0.1573 -0.3275  0.0974
29565SOL    HW189273   7.120   0.377   7.442  1.0024  0.2127 -1.7435
29565SOL    HW289274   7.218   0.263   7.426  1.2336  0.1433 -0.0425
29566SOL     OW89275   1.169   0.453   9.357 -0.3342 -0.2425 -0.3891
29566SOL    HW189276   1.207   0.367   9.337 -2.7001 -1.5709  0.3601
29566SOL    HW289277   1.148   0.490   9.271  3.7189  1.2161 -0.9408
29567SOL     OW89278   3.217   9.549   1.672 -0.2265 -0.1084  0.0883
29567SOL    HW189279   3.179   9.494   1.603 -1.0612  1.5290 -0.7973
29567SOL    HW289280   3.273   9.611   1.625 -1.0146  1.2068  0.8312
29568SOL     OW89281   2.978   9.469   9.277 -0.6973  0.4308 -0.2568
29568SOL    HW189282   2.965   9.375   9.290  0.5535  0.2748  0.0257
29568SOL    HW289283   2.900   9.510   9.313  0.2429 -0.3041  2.8789
29569SOL     OW89284   0.603   8.917   8.129 -0.1366  0.4615  0.0117
29569SOL    HW189285   0.573   8.950   8.214  1.3092 -0.2823  0.8514
29569SOL    HW289286   0.531   8.862   8.098 -0.6072  0.5944  0.8462
29570SOL     OW89287   0.258   3.257   6.916  0.6546  0.4060  0.0024
29570SOL    HW189288   0.260   3.330   6.977  4.0270  0.1352  0.3623
29570SOL    HW289289   0.226   3.295   6.834  1.1800  2.0153  0.5057
29571SOL     OW89290   8.550   7.044   4.413 -0.5685  0.4454  0.0081
29571SOL    HW189291   8.628   7.014   4.366 -1.1992 -0.8614 -0.2552
29571SOL    HW289292   8.555   6.999   4.497 -0.3145  1.4778  0.5628
29572SOL     OW89293   1.983   6.291   8.704  0.0321  0.5633  0.7009
29572SOL    HW189294   2.030   6.258   8.781 -0.5273  0.6405  1.0818
29572SOL    HW289295   2.047   6.287   8.633 -0.3477 -2.6009  0.4036
29573SOL     OW89296   2.954   9.926   7.963  0.3891  0.4345  0.3033
29573SOL    HW189297   2.893   9.938   8.036 -1.0556 -0.5538 -0.6887
29573SOL    HW289298   3.019   9.863   7.997  0.5025  0.9872  1.1496
29574SOL     OW89299   5.355   8.204   1.808  0.2759 -0.2862  0.3593
29574SOL    HW189300   5.420   8.220   1.739 -0.1137  0.8583  0.2439
29574SOL    HW289301   5.389   8.250   1.884  0.0174 -0.4105  0.5511
29575SOL     OW89302   4.006   1.088   9.094  0.1304  0.3734  0.4312
29575SOL    HW189303   3.995   1.132   9.178  2.3430 -2.5291  2.4267
29575SOL    HW289304   4.099   1.099   9.074  0.2667 -1.5146 -0.0716
29576SOL     OW89305   5.398   4.974   0.084 -0.4871  0.1822  0.0864
29576SOL    HW189306   5.413   4.903   0.146  0.0810  0.6923  0.5417
29576SOL    HW289307   5.308   4.960   0.053  0.2900 -1.9219 -1.3992
29577SOL     OW89308   5.402   0.600   4.647  0.0841  0.0622 -0.1782
29577SOL    HW189309   5.416   0.566   4.735  0.7042 -0.3966 -0.4501
29577SOL    HW289310   5.477   0.570   4.597  0.0115  0.7735 -0.7387
29578SOL     OW89311   2.185   3.942   7.627  0.5096  0.2316 -0.0342
29578SOL    HW189312   2.123   3.916   7.559 -0.3816 -0.8317  1.1337
29578SOL    HW289313   2.202   4.035   7.610  2.3646 -0.5443 -3.2506
29579SOL     OW89314   1.388   1.441   0.455  0.6170  0.1163 -0.4583
29579SOL    HW189315   1.357   1.449   0.545 -0.9660  2.0015 -1.0832
29579SOL    HW289316   1.447   1.515   0.443 -0.2418  0.6898 -1.3228
29580SOL     OW89317   5.244   9.453   4.256 -0.4012 -0.1166 -0.4331
29580SOL    HW189318   5.161   9.501   4.250 -1.0510 -1.3249 -1.6025
29580SOL    HW289319   5.311   9.517   4.234 -1.0290  0.8173  0.2835
29581SOL     OW89320   7.871   4.187   0.940  0.0752  0.3798 -0.0010
29581SOL    HW189321   7.945   4.151   0.988  0.1065  0.1576 -0.2114
29581SOL    HW289322   7.864   4.131   0.862  0.0369  0.7435 -0.2598
29582SOL     OW89323   5.703   5.061   7.720 -0.1360  0.1404  0.0038
29582SOL    HW189324   5.718   4.974   7.758  0.1942  0.2285  0.0865
29582SOL    HW289325   5.622   5.052   7.670  1.6149 -1.1915 -2.8827
29583SOL     OW89326   2.730   1.412   8.025  0.3319 -0.4491 -0.1751
29583SOL    HW189327   2.667   1.342   8.044 -0.1261  0.5024  2.2360
29583SOL    HW289328   2.783   1.378   7.953 -2.4151 -1.6144 -1.7974
29584SOL     OW89329   3.006   4.527   9.645  0.4523  0.1288  0.3840
29584SOL    HW189330   3.060   4.454   9.676 -0.4066 -0.4215  0.6191
29584SOL    HW289331   3.067   4.599   9.632  1.0643 -0.1188  1.7920
29585SOL     OW89332   4.849   2.410   2.585  0.0606 -0.3345  0.6964
29585SOL    HW189333   4.896   2.456   2.515  1.6333 -0.6274  1.5160
29585SOL    HW289334   4.757   2.431   2.569  0.2366 -1.2279 -2.0556
29586SOL     OW89335   7.636   1.704   8.152 -0.6793  0.2504 -0.1824
29586SOL    HW189336   7.730   1.685   8.156 -0.2754  1.9681 -0.5848
29586SOL    HW289337   7.612   1.728   8.242 -0.8217 -0.5288 -0.0084
29587SOL     OW89338   8.629   2.104   0.755 -0.4340  0.7182 -0.1169
29587SOL    HW189339   8.569   2.153   0.698  0.6069  1.9144 -0.2193
29587SOL    HW289340   8.595   2.015   0.754 -1.6145  1.1522 -0.9900
29588SOL     OW89341   9.647   1.159   4.701 -0.0698  0.0608 -0.2719
29588SOL    HW189342   9.690   1.245   4.702 -1.9340  1.0805 -1.4206
29588SOL    HW289343   9.717   1.098   4.681  1.1915  1.3818 -0.1235
29589SOL     OW89344   0.902   3.861   8.793  0.2888  0.3503 -0.5662
29589SOL    HW189345   0.985   3.864   8.840 -0.2286 -1.4590  0.5809
29589SOL    HW289346   0.919   3.803   8.718 -0.0969 -0.5704  0.0491
29590SOL     OW89347   8.513   2.994   9.521 -0.2801  0.5458 -0.2475
29590SOL    HW189348   8.555   3.071   9.558 -1.1758  1.1320 -0.4094
29590SOL    HW289349   8.547   2.921   9.571 -0.5068  1.1999  0.8909
29591SOL     OW89350   0.890   0.493   7.187 -0.1488 -0.0448  0.0255
29591SOL    HW189351   0.851   0.522   7.269  0.0174 -1.7043  0.7241
29591SOL    HW289352   0.861   0.402   7.177  0.7539 -0.2246 -1.1761
29592SOL     OW89353   5.990   0.714   2.451 -0.0367 -0.3321 -0.6031
29592SOL    HW189354   6.063   0.756   2.406  0.4650 -2.2731 -1.7043
29592SOL    HW289355   6.003   0.620   2.436 -2.2295 -0.7835  0.0060
29593SOL     OW89356   5.295   5.142   7.360  0.9571 -0.5215  0.4916
29593SOL    HW189357   5.235   5.067   7.361  0.8060 -0.4050  1.5673
29593SOL    HW289358   5.238   5.218   7.365  1.1139 -0.3192 -0.5453
29594SOL     OW89359   8.972   8.200   3.708 -0.1400 -0.0988 -0.6427
29594SOL    HW189360   8.922   8.281   3.714 -0.3510 -0.1946 -1.0740
29594SOL    HW289361   8.907   8.133   3.687 -0.2283 -0.6652  1.2062
29595SOL     OW89362   9.672   8.147   3.972  0.2738 -0.4685  0.0310
29595SOL    HW189363   9.602   8.195   3.928  0.6548 -1.3442 -1.5826
29595SOL    HW289364   9.661   8.056   3.945  1.2940 -0.8279  0.7432
29596SOL     OW89365   8.629   9.640   8.062 -0.6722  0.0301 -0.3180
29596SOL    HW189366   8.712   9.606   8.027  0.0350  2.5390 -1.3665
29596SOL    HW289367   8.628   9.614   8.154  1.3673  0.0364 -0.2541
29597SOL     OW89368   3.876   2.057   7.479  0.1507 -0.1487 -0.5820
29597SOL    HW189369   3.826   1.977   7.460 -0.5180 -0.0578  0.6984
29597SOL    HW289370   3.936   2.032   7.549  0.7447  0.1807 -0.9673
29598SOL     OW89371   3.370   8.170   1.473 -0.0526  0.1681  0.1421
29598SOL    HW189372   3.463   8.177   1.453  0.1736 -2.2648  0.0059
29598SOL    HW289373   3.326   8.205   1.396  0.7522  0.5769 -0.1363
29599SOL     OW89374   6.970   7.692   0.489 -0.0809 -0.5123 -0.1231
29599SOL    HW189375   7.027   7.707   0.565  0.9229  1.2793 -1.1600
29599SOL    HW289376   6.982   7.600   0.468  0.8956 -0.6469  0.9119
29600SOL     OW89377   5.649   9.933   8.570  0.0244  0.0575 -0.0184
29600SOL    HW189378   5.631  10.001   8.506 -0.5905  0.4030  0.5141
29600SOL    HW289379   5.711   9.973   8.631  2.1893 -0.9040 -1.4602
29601SOL     OW89380   6.868   0.679   9.287  0.0931  0.0548  0.2648
29601SOL    HW189381   6.842   0.691   9.196 -1.8703  0.3575  0.8320
29601SOL    HW289382   6.813   0.608   9.319 -0.1626  0.8109  1.5680
29602SOL     OW89383   1.367  -0.002   6.001 -0.4735 -0.7283 -0.3016
29602SOL    HW189384   1.438  -0.049   5.958  0.0885  0.5141 -0.7844
29602SOL    HW289385   1.411   0.065   6.054 -1.2699  0.6283 -1.2839
29603SOL     OW89386   4.028   9.078   0.668 -0.5712  0.4627 -0.0578
29603SOL    HW189387   3.978   9.026   0.730 -0.3975  0.8053  0.3737
29603SOL    HW289388   4.117   9.080   0.704 -1.1416  3.5134  1.5822
29604SOL     OW89389   8.494   7.193   6.971 -0.1659 -0.0157  0.2826
29604SOL    HW189390   8.562   7.260   6.968  0.1376 -0.2917  0.8600
29604SOL    HW289391   8.541   7.111   6.955 -0.4212 -0.1649  0.3005
29605SOL     OW89392   4.265   2.701   0.560  0.2127 -0.6844  0.2416
29605SOL    HW189393   4.288   2.747   0.641 -0.7543  0.7999 -0.2860
29605SOL    HW289394   4.288   2.762   0.490  3.5135 -2.9176 -0.8735
29606SOL     OW89395   2.826   1.311   1.097  0.4220 -0.0937 -0.9337
29606SOL    HW189396   2.917   1.294   1.072  0.3416  0.5060 -1.6782
29606SOL    HW289397   2.822   1.406   1.108 -0.2405 -0.0486 -1.4732
29607SOL     OW89398   7.239   2.280   4.210 -0.1946  0.6765 -0.4021
29607SOL    HW189399   7.157   2.260   4.255 -0.0533 -1.7098 -1.0549
29607SOL    HW289400   7.219   2.267   4.117  1.0243 -0.4718 -0.5348
29608SOL     OW89401   9.425   5.998   3.630 -0.2473  0.2458 -0.3019
29608SOL    HW189402   9.477   5.918   3.639 -1.2175 -0.4142 -0.3793
29608SOL    HW289403   9.428   6.017   3.536 -2.0023 -1.1028 -0.6725
29609SOL     OW89404   3.119   5.544   1.366  0.7420  0.1048 -0.1007
29609SOL    HW189405   3.063   5.532   1.289  1.0163  0.8871 -0.4293
29609SOL    HW289406   3.193   5.595   1.334  1.2643 -0.2679  0.5070
29610SOL     OW89407   7.005   3.322   2.923 -0.0491 -0.0973  0.1598
29610SOL    HW189408   6.960   3.258   2.978 -0.5040 -1.1894 -1.4159
29610SOL    HW289409   7.062   3.270   2.866  1.2696  1.0792  0.3415
29611SOL     OW89410   7.317   1.165   5.906  0.1399  0.1673  0.1233
29611SOL    HW189411   7.312   1.259   5.924  0.0275  0.6057 -1.9415
29611SOL    HW289412   7.395   1.155   5.851 -1.1446 -0.5552 -1.6588
29612SOL     OW89413   5.845   0.453   7.977 -0.5766 -0.4070 -0.1736
29612SOL    HW189414   5.756   0.472   7.947  0.2577  2.7893 -0.9749
29612SOL    HW289415   5.848   0.484   8.067 -0.3700 -0.9450  0.0133
29613SOL     OW89416   6.023   8.495   6.455 -0.1430  0.3165  0.3977
29613SOL    HW189417   6.093   8.508   6.390 -0.8398 -0.1239 -0.4646
29613SOL    HW289418   6.056   8.538   6.534  2.2631 -2.0965  0.8727
29614SOL     OW89419   9.875   9.294   0.759 -0.1415  0.1038  0.1500
29614SOL    HW189420   9.917   9.380   0.758 -0.5087  0.2824  0.0445
29614SOL    HW289421   9.891   9.259   0.671  0.7148 -0.2839  0.4488
29615SOL     OW89422   4.361   1.907   3.441 -0.5317 -0.2079 -0.3369
29615SOL    HW189423   4.359   1.998   3.411 -0.0353 -0.0214  0.1947
29615SOL    HW289424   4.442   1.899   3.490 -0.6582 -0.8938 -0.2295
29616SOL     OW89425   8.724   4.360   3.096  0.0367  0.4429  0.4768
29616SOL    HW189426   8.659   4.412   3.048  1.1405  0.3101 -1.2261
29616SOL    HW289427   8.673   4.318   3.165 -1.7733  0.1087 -0.9715
29617SOL     OW89428   4.893   3.634   9.274 -0.4337 -0.0693  0.0009
29617SOL    HW189429   4.927   3.577   9.343 -1.0182 -0.8347 -0.3168
29617SOL    HW289430   4.945   3.611   9.197 -1.4867 -1.1165 -0.4421
29618SOL     OW89431   3.486   4.739   1.515  0.1139 -0.3543  0.2295
29618SOL    HW189432   3.514   4.726   1.606  3.8640 -1.9792 -0.9545
29618SOL    HW289433   3.564   4.771   1.470 -1.3884 -0.3260 -2.6123
29619SOL     OW89434   6.631   4.973   5.117 -0.0354 -0.0064  0.4653
29619SOL    HW189435   6.693   4.908   5.151 -0.1061  0.9186  2.4904
29619SOL    HW289436   6.556   4.968   5.176 -0.4061  1.3046  0.1311
29620SOL     OW89437   4.308   0.270   8.379  0.3806  0.2837 -0.3337
29620SOL    HW189438   4.320   0.180   8.408 -0.0972  0.7457  1.4033
29620SOL    HW289439   4.232   0.302   8.427  0.9396  1.8177 -0.4014
29621SOL     OW89440   5.001   5.402   2.028  0.6613  0.4377 -0.2217
29621SOL    HW189441   4.917   5.356   2.033  0.4318  0.5034 -2.2778
29621SOL    HW289442   4.977   5.495   2.031  0.7676  0.4441  0.3548
29622SOL     OW89443   8.237   2.650   1.786 -0.4667  0.6241  0.0327
29622SOL    HW189444   8.201   2.706   1.855 -1.5844 -0.9139  0.7649
29622SOL    HW289445   8.276   2.576   1.833  0.6312  0.5612 -0.9221
29623SOL     OW89446   5.541   7.742   3.770 -0.1337  0.1489  0.6496
29623SOL    HW189447   5.626   7.715   3.804 -0.0762  0.1929  0.5404
29623SOL    HW289448   5.559   7.775   3.683 -0.2024  0.5381  0.7800
29624SOL     OW89449   0.356   7.874   8.507  0.7852  0.1561  0.1680
29624SOL    HW189450   0.330   7.949   8.560 -1.4188 -0.2291 -0.2869
29624SOL    HW289451   0.402   7.912   8.432  1.3135  0.8915  0.8501
29625SOL     OW89452   1.451   2.142   7.481 -0.3992 -0.8493  0.1609
29625SOL    HW189453   1.452   2.155   7.576  0.5663 -0.1261  0.0689
29625SOL    HW289454   1.543   2.126   7.459  0.0675  2.6789 -1.1104
29626SOL     OW89455   4.951   4.619   3.441 -0.6242  0.1427  0.5796
29626SOL    HW189456   5.000   4.617   3.523  0.4463  1.4664 -0.0018
29626SOL    HW289457   4.990   4.690   3.391 -1.4874 -0.4149 -0.9523
29627SOL     OW89458   1.711   0.200   0.284  0.0687 -0.2341  0.1119
29627SOL    HW189459   1.717   0.169   0.375  1.0883 -2.6224 -0.6889
29627SOL    HW289460   1.765   0.279   0.282  0.2998 -0.3231  1.4914
29628SOL     OW89461   7.943   8.263   5.309  0.3556 -0.1309 -0.0089
29628SOL    HW189462   7.917   8.340   5.258 -3.2794 -0.5697  0.9072
29628SOL    HW289463   7.971   8.299   5.394 -0.4422  0.2456  0.1000
29629SOL     OW89464   9.096   1.679   3.224  0.3430 -0.4470  0.4819
29629SOL    HW189465   9.007   1.678   3.189  0.4575  1.1096  0.0512
29629SOL    HW289466   9.099   1.757   3.280  1.6554 -0.0244 -0.1349
29630SOL     OW89467   7.549   3.301   3.104  0.4155 -0.4816  0.1491
29630SOL    HW189468   7.518   3.218   3.141  2.6323 -1.2393  0.4195
29630SOL    HW289469   7.589   3.278   3.021 -1.1302  0.7212 -1.0071
29631SOL     OW89470   1.927   7.435   0.718 -0.2443 -0.6179  0.4502
29631SOL    HW189471   1.914   7.493   0.793 -1.8623 -0.3236 -0.0108
29631SOL    HW289472   2.000   7.474   0.670 -1.0616  0.8728  0.3385
29632SOL     OW89473   6.989   8.917   7.059  0.9021 -0.1230  0.6375
29632SOL    HW189474   6.949   8.938   6.975  2.0978  0.7534  0.2518
29632SOL    HW289475   6.919   8.929   7.124  0.3139  0.4301 -0.0930
29633SOL     OW89476   1.759   8.831   4.125  0.1003 -0.3293 -0.6480
29633SOL    HW189477   1.706   8.754   4.104  0.8474 -1.3877  1.0569
29633SOL    HW289478   1.829   8.831   4.060 -0.3038 -0.6697 -1.0907
29634SOL     OW89479   4.225   7.100   2.683  0.2209 -0.3869  0.2099
29634SOL    HW189480   4.173   7.134   2.756 -1.3707 -1.9698 -0.1009
29634SOL    HW289481   4.234   7.174   2.623  0.0856  0.4742  1.2275
29635SOL     OW89482   0.450   8.594   8.586 -0.1236 -0.9515  0.6921
29635SOL    HW189483   0.479   8.653   8.656 -0.4643 -0.9692  0.8524
29635SOL    HW289484   0.398   8.649   8.528  1.8298 -0.4454 -0.6975
29636SOL     OW89485   4.077   5.144   9.167  0.5762 -0.0368 -0.4304
29636SOL    HW189486   4.127   5.067   9.142 -0.8445 -0.8524 -0.8935
29636SOL    HW289487   4.049   5.126   9.257  1.4574  0.6115 -0.0180
29637SOL     OW89488   5.162   9.753   4.409 -0.4944  0.0634 -0.2191
29637SOL    HW189489   5.132   9.836   4.447  1.0383  1.7458 -2.4253
29637SOL    HW289490   5.256   9.764   4.399 -0.1476 -2.2415 -0.0162
29638SOL     OW89491   4.210   5.083   5.891 -0.2692 -0.0437  0.3471
29638SOL    HW189492   4.227   5.001   5.845 -1.1608 -0.5352  0.8462
29638SOL    HW289493   4.169   5.139   5.826 -1.8820 -0.8721  0.5848
29639SOL     OW89494   9.752   4.627   3.944 -0.2557 -0.5423  0.5978
29639SOL    HW189495   9.735   4.534   3.933 -1.7650 -0.0863 -1.7522
29639SOL    HW289496   9.847   4.636   3.929  0.1857 -1.8024  2.3301
29640SOL     OW89497   2.784   1.011   5.863  0.1069 -0.1449 -0.2830
29640SOL    HW189498   2.745   0.943   5.808  0.4898 -1.4739  1.0370
29640SOL    HW289499   2.873   0.981   5.881  0.2300  0.6181  0.4797
29641SOL     OW89500   8.400   9.681   2.216 -0.2193  0.0351  0.7884
29641SOL    HW189501   8.477   9.685   2.159 -0.7329 -1.3680 -0.0553
29641SOL    HW289502   8.349   9.759   2.194 -0.0347 -0.0983 -0.1492
29642SOL     OW89503   9.955   9.439   4.522 -0.0609  0.5146 -0.5757
29642SOL    HW189504   9.934   9.530   4.544 -1.5779  0.2306 -0.7585
29642SOL    HW289505   9.870   9.397   4.510  0.6412 -0.4938 -2.3248
29643SOL     OW89506   3.973   4.156   1.427 -0.1109 -0.6302 -0.4341
29643SOL    HW189507   3.945   4.234   1.475 -1.5990 -2.9136  2.7461
29643SOL    HW289508   3.925   4.159   1.344  0.4013  2.0689 -0.7196
29644SOL     OW89509   3.606   9.095   6.554  0.1333  0.6575 -0.2634
29644SOL    HW189510   3.637   9.175   6.513 -0.1200  1.8408  1.7332
29644SOL    HW289511   3.591   9.119   6.645 -3.4636 -0.6927 -0.3393
29645SOL     OW89512   2.176   0.025   1.911  0.1571 -0.3459  0.5510
29645SOL    HW189513   2.252   0.084   1.902  0.5993 -0.9208  0.4781
29645SOL    HW289514   2.129   0.059   1.988  0.1309  0.4060  0.2118
29646SOL     OW89515   0.384   0.835   9.354 -0.1735  0.4662  0.3964
29646SOL    HW189516   0.405   0.919   9.313 -0.9835  0.7417  0.5299
29646SOL    HW289517   0.289   0.834   9.361 -0.3871 -1.4400 -1.6228
29647SOL     OW89518   1.845   6.343   4.294 -0.6206  0.5259 -0.2436
29647SOL    HW189519   1.877   6.426   4.329 -0.8840  1.0393 -1.1864
29647SOL    HW289520   1.924   6.289   4.286 -0.4788  0.6036  0.5630
29648SOL     OW89521   2.569   9.651   3.304  0.2450  0.3183 -0.2590
29648SOL    HW189522   2.493   9.698   3.270  0.1262  0.3339  0.0252
29648SOL    HW289523   2.599   9.705   3.377  0.1763  0.0071 -0.0023
29649SOL     OW89524   5.665   4.401   8.373 -0.6377  1.0211 -0.5876
29649SOL    HW189525   5.607   4.435   8.442  0.2368  1.5600 -0.1035
29649SOL    HW289526   5.668   4.472   8.309 -3.6351 -0.4890 -2.6075
29650SOL     OW89527   2.525   8.661   3.525  0.2461  0.0933 -0.2136
29650SOL    HW189528   2.483   8.576   3.517  0.6523 -0.1855  0.4421
29650SOL    HW289529   2.453   8.723   3.534 -0.0496 -0.1934 -0.5593
29651SOL     OW89530   1.302   3.691   3.931  0.1546  0.3850 -0.2920
29651SOL    HW189531   1.396   3.684   3.918  0.1406 -2.6205  0.3207
29651SOL    HW289532   1.264   3.658   3.849 -0.3052  0.3199 -0.0570
29652SOL     OW89533   6.196   2.021   5.204 -0.1226 -0.3120  0.2137
29652SOL    HW189534   6.263   1.989   5.144  1.1783  0.6490  1.1101
29652SOL    HW289535   6.115   2.021   5.152  0.6263 -1.1370 -0.9918
29653SOL     OW89536   6.829   7.221   5.023 -0.1026  0.0571 -0.5894
29653SOL    HW189537   6.869   7.307   5.039  1.8679 -0.6414 -1.5025
29653SOL    HW289538   6.749   7.242   4.975 -0.0254  1.4135 -0.1894
29654SOL     OW89539   5.097   5.819   2.663  0.3626 -0.2233 -0.5005
29654SOL    HW189540   5.190   5.821   2.644  0.5277  0.5887  0.3168
29654SOL    HW289541   5.057   5.775   2.588  1.0257  2.2278 -2.4025
29655SOL     OW89542   5.647   1.118   6.720 -0.0304  0.4308 -0.2622
29655SOL    HW189543   5.643   1.192   6.659  0.7744  1.9072  1.4006
29655SOL    HW289544   5.649   1.041   6.663 -0.9195  1.6532 -2.0566
29656SOL     OW89545   5.966   4.330   3.473 -0.0155  0.2706  0.1567
29656SOL    HW189546   6.019   4.301   3.548 -1.0376 -0.9375  0.4683
29656SOL    HW289547   6.025   4.326   3.398  0.2140 -1.7339  0.3666
29657SOL     OW89548   5.898   2.125   3.612 -0.0438  0.5900  0.6244
29657SOL    HW189549   5.853   2.128   3.528  0.2867  1.4965  0.4721
29657SOL    HW289550   5.828   2.129   3.677 -0.2778  0.2326  0.4021
29658SOL     OW89551   6.624   4.074   9.177 -0.8345  0.4213  0.2380
29658SOL    HW189552   6.692   4.009   9.160 -1.3878 -0.2135  0.3829
29658SOL    HW289553   6.544   4.022   9.187 -1.7855  1.2474 -2.1383
29659SOL     OW89554   0.935   4.761   6.307 -0.1852 -0.0422 -0.0026
29659SOL    HW189555   0.998   4.696   6.340  0.5401  0.7842  0.2741
29659SOL    HW289556   0.955   4.767   6.214  0.9723  1.0668  0.2825
29660SOL     OW89557   0.446   6.427   6.727 -0.0234  0.3344  0.3045
29660SOL    HW189558   0.355   6.410   6.703  0.2901 -1.6069  0.3410
29660SOL    HW289559   0.464   6.364   6.797  2.1245 -1.2923 -1.5492
29661SOL     OW89560   0.639   5.457   4.409 -0.3611  0.0858 -0.1811
29661SOL    HW189561   0.575   5.515   4.368 -1.4014 -0.9928 -0.1138
29661SOL    HW289562   0.676   5.407   4.335 -1.0993 -0.7497  0.0102
29662SOL     OW89563   7.355   0.301   6.959  0.0653 -0.7683  0.2362
29662SOL    HW189564   7.319   0.357   7.027 -0.6004 -0.7485 -0.1279
29662SOL    HW289565   7.419   0.246   7.004  0.5965  0.1565  0.6301
29663SOL     OW89566   3.866   6.839   8.546  0.1947 -0.1276 -0.2258
29663SOL    HW189567   3.815   6.894   8.487  0.9121  1.6852  0.7519
29663SOL    HW289568   3.952   6.881   8.552  1.0714 -1.8193 -0.0454
29664SOL     OW89569   1.978   7.125   5.760  0.0828  0.0461  0.3350
29664SOL    HW189570   2.012   7.052   5.812 -1.4605  0.5484  2.1680
29664SOL    HW289571   1.893   7.145   5.799 -0.0160  2.1454 -0.7924
29665SOL     OW89572   4.384   9.716   6.327 -0.3035  0.0443  0.0464
29665SOL    HW189573   4.386   9.690   6.235  0.5381  1.8811 -0.4783
29665SOL    HW289574   4.475   9.710   6.356 -0.4383  0.3115  0.5342
29666SOL     OW89575   6.906   5.370   2.249  0.2459 -0.2696  0.3140
29666SOL    HW189576   6.820   5.328   2.247 -0.3843  0.8866 -2.2728
29666SOL    HW289577   6.920   5.393   2.340 -3.1729  1.3503  0.5833
29667SOL     OW89578   7.674   7.029   9.433 -0.2601 -0.0648 -0.4194
29667SOL    HW189579   7.733   7.025   9.508 -0.0883  2.6387 -0.3118
29667SOL    HW289580   7.667   6.939   9.403  1.0847 -0.9640  1.7412
29668SOL     OW89581   9.153   1.281   5.089  0.1472  0.0656 -0.1901
29668SOL    HW189582   9.155   1.186   5.076 -0.5560 -0.0948  0.7047
29668SOL    HW289583   9.083   1.294   5.153  0.0977  1.2133 -0.4625
29669SOL     OW89584   5.811   8.734   2.149  0.1195 -0.1382  0.4492
29669SOL    HW189585   5.832   8.794   2.220  0.9496  0.3168 -0.1615
29669SOL    HW289586   5.876   8.664   2.157  0.9863  0.5180 -0.5576
29670SOL     OW89587   3.063   7.532   6.320  0.2572  0.7100  0.1986
29670SOL    HW189588   3.137   7.473   6.333 -1.7486 -1.5389  2.7185
29670SOL    HW289589   3.023   7.503   6.238  0.9456  0.5632 -0.0941
29671SOL     OW89590   9.567   9.633   8.254  0.1391  0.5379 -0.4431
29671SOL    HW189591   9.504   9.608   8.323  0.1325 -0.6243 -0.8382
29671SOL    HW289592   9.559   9.728   8.247 -0.5372  0.5665  0.5138
29672SOL     OW89593   1.616   0.201   5.632 -0.0246  0.3240  0.4724
29672SOL    HW189594   1.697   0.246   5.608 -0.0193  0.2194  0.2905
29672SOL    HW289595   1.552   0.234   5.569  0.0745 -0.2266  0.0808
29673SOL     OW89596   4.590   3.937   8.156 -0.2356 -0.4953 -0.8927
29673SOL    HW189597   4.512   3.882   8.156  0.9903 -2.3346 -1.1330
29673SOL    HW289598   4.568   4.010   8.098 -2.3746 -0.0094  0.4494
29674SOL     OW89599   9.589   4.190   6.146  0.1486 -0.1566 -0.4859
29674SOL    HW189600   9.527   4.140   6.199  0.5205  1.0904  1.1785
29674SOL    HW289601   9.593   4.141   6.063 -2.7562 -0.5066 -0.5491
29675SOL     OW89602   4.840   0.775   4.638  0.6486 -0.0584 -0.0590
29675SOL    HW189603   4.903   0.833   4.596  1.3222  0.0681  1.0823
29675SOL    HW289604   4.847   0.692   4.590 -1.2693  1.1092 -2.5639
29676SOL     OW89605   6.374   2.924   0.014 -0.6196 -0.2864  0.2145
29676SOL    HW189606   6.375   2.907   0.108 -0.1014  0.3999  0.3399
29676SOL    HW289607   6.284   2.951  -0.005 -0.3545  1.1567  0.8237
29677SOL     OW89608   0.125   7.590   4.029 -0.0814 -0.0692  0.0110
29677SOL    HW189609   0.129   7.624   4.118 -0.8171  1.2941 -0.4320
29677SOL    HW289610   0.110   7.668   3.975  0.5838 -0.8382 -1.3288
29678SOL     OW89611   9.055   7.784   9.707 -0.9733  0.0198 -0.5862
29678SOL    HW189612   9.144   7.749   9.712 -1.4956 -1.2941  0.0332
29678SOL    HW289613   9.066   7.878   9.718  0.4454  0.0492 -1.8411
29679SOL     OW89614   4.871   8.695   1.728 -0.1267  0.0085 -0.1691
29679SOL    HW189615   4.940   8.685   1.793  0.0140  1.7020 -0.0030
29679SOL    HW289616   4.909   8.752   1.661 -0.6003 -0.9191 -1.2438
29680SOL     OW89617   4.964   4.854   3.964 -0.4076  0.2681 -0.2633
29680SOL    HW189618   4.993   4.872   3.875  1.5004 -0.1354  0.2189
29680SOL    HW289619   4.984   4.761   3.978  0.1666  0.5370  0.8592
29681SOL     OW89620   2.773   2.645   1.041 -0.2478  0.4961 -0.3695
29681SOL    HW189621   2.832   2.689   1.102  2.8873 -0.2824 -2.5918
29681SOL    HW289622   2.723   2.715   1.000  1.0812  1.4923 -0.3286
29682SOL     OW89623   5.173   7.203   4.368 -0.0024  0.4058  0.0994
29682SOL    HW189624   5.102   7.249   4.412 -0.1471 -0.5685  0.9258
29682SOL    HW289625   5.206   7.141   4.433  0.8468  0.0481 -0.6463
29683SOL     OW89626   2.863   5.468   4.064  0.4181 -0.1351 -0.0361
29683SOL    HW189627   2.863   5.395   4.003 -1.1003 -0.1609 -0.0313
29683SOL    HW289628   2.950   5.465   4.106  0.8387 -1.1344 -0.9499
29684SOL     OW89629   4.740   2.010   1.459 -0.1206 -0.1894 -0.3480
29684SOL    HW189630   4.798   2.040   1.390  1.6999  0.5795  1.4086
29684SOL    HW289631   4.654   2.046   1.436  1.2886  3.8872 -0.0181
29685SOL     OW89632   6.074   0.037   0.795 -0.1032 -0.3111 -0.2370
29685SOL    HW189633   5.998   0.064   0.846 -0.0689 -0.3288 -0.1770
29685SOL    HW289634   6.037  -0.000   0.715 -0.1299  1.5957 -1.1669
29686SOL     OW89635   6.427   0.136   8.473  0.1300 -0.5426  0.0716
29686SOL    HW189636   6.359   0.085   8.429  1.1993 -0.9497 -1.1758
29686SOL    HW289637   6.457   0.080   8.544 -0.2845 -0.6906  0.1324
29687SOL     OW89638   5.385   9.542   1.213  0.3098 -0.2637 -0.0696
29687SOL    HW189639   5.315   9.571   1.154  0.6916 -0.7028 -0.7542
29687SOL    HW289640   5.344   9.539   1.300 -1.2271 -2.7113 -0.7598
29688SOL     OW89641   3.560   9.430   2.809  0.1974 -0.1805 -0.0789
29688SOL    HW189642   3.511   9.508   2.836 -1.6683 -2.2992  3.3653
29688SOL    HW289643   3.646   9.441   2.850  0.8690  1.0906 -1.6975
29689SOL     OW89644   1.244   8.745   6.533  0.0584  0.1736  0.1082
29689SOL    HW189645   1.258   8.650   6.530 -2.3958 -0.2944  1.0113
29689SOL    HW289646   1.307   8.777   6.598 -0.6735 -1.2418  1.6021
29690SOL     OW89647   0.152   7.713   0.438 -0.3787  0.0361 -0.2266
29690SOL    HW189648   0.156   7.633   0.491 -0.6320 -0.2856 -0.6900
29690SOL    HW289649   0.084   7.766   0.481  1.0061  0.7859  1.1387
29691SOL     OW89650   6.249   7.583   7.100 -0.2392 -0.0085  0.9295
29691SOL    HW189651   6.247   7.505   7.044  1.1696  0.6949 -0.1504
29691SOL    HW289652   6.322   7.635   7.067 -0.8770  1.5866  1.8979
29692SOL     OW89653   2.048   6.385   1.416 -0.2066 -0.8503 -0.3518
29692SOL    HW189654   2.116   6.327   1.381  1.5367  0.1878  1.1431
29692SOL    HW289655   2.040   6.361   1.508 -2.9645 -1.9038 -0.7654
29693SOL     OW89656   8.638   0.092   4.981 -0.3172 -0.0875  0.1028
29693SOL    HW189657   8.622   0.006   5.020 -1.7773  0.1691  0.1482
29693SOL    HW289658   8.593   0.089   4.897 -1.8210  1.1413  0.7954
29694SOL     OW89659   3.109   7.320   8.719 -0.0095 -0.0372 -0.4767
29694SOL    HW189660   3.066   7.234   8.723 -0.8349  0.3888  2.9030
29694SOL    HW289661   3.110   7.342   8.626 -2.0131 -2.6011 -1.2268
29695SOL     OW89662   0.538   6.986   5.214  0.3422 -0.5744  0.8637
29695SOL    HW189663   0.611   6.942   5.170  1.0538  0.6882  0.7479
29695SOL    HW289664   0.471   6.994   5.146  1.2631  0.9518  0.0961
29696SOL     OW89665   3.314   1.837   7.609  0.6230  0.4115 -0.2692
29696SOL    HW189666   3.346   1.771   7.670  0.2632 -0.3877 -0.9388
29696SOL    HW289667   3.301   1.791   7.526 -0.7419  1.0451 -0.4453
29697SOL     OW89668   9.630   2.251   6.416  0.5987  0.1196  0.0117
29697SOL    HW189669   9.539   2.227   6.430  0.4776  0.4629 -0.1972
29697SOL    HW289670   9.679   2.189   6.470  0.2383  0.0216  0.2274
29698SOL     OW89671   6.008   1.452   9.876 -0.5470  0.2192 -0.7853
29698SOL    HW189672   5.977   1.364   9.853  1.3390 -0.7261  0.0944
29698SOL    HW289673   6.093   1.438   9.917 -0.9215  2.3243  0.9115
29699SOL     OW89674   2.647   4.467   8.150  0.5055 -0.2985  0.2841
29699SOL    HW189675   2.586   4.464   8.076  0.9142  0.0422 -0.0729
29699SOL    HW289676   2.733   4.450   8.110  0.9139  1.2615  0.4666
29700SOL     OW89677   9.915   6.971   1.860 -0.2460  0.0989 -0.5857
29700SOL    HW189678   9.927   6.877   1.876  0.7420  0.1279 -1.1006
29700SOL    HW289679   9.853   6.999   1.927  0.2406 -0.7214  0.2222
29701SOL     OW89680   8.420   5.103   2.614  0.1180 -0.0411 -0.1353
29701SOL    HW189681   8.489   5.137   2.558 -0.0409  0.6356  0.0693
29701SOL    HW289682   8.403   5.015   2.581  0.8197 -0.0757 -0.4163
29702SOL     OW89683   3.153   6.722   1.733  0.3012 -0.1429 -0.0373
29702SOL    HW189684   3.163   6.639   1.779  0.0827  0.5221  1.2384
29702SOL    HW289685   3.118   6.783   1.798  2.1801  1.4610 -0.4300
29703SOL     OW89686   5.559   5.814   7.194 -0.1150 -0.0314  0.4527
29703SOL    HW189687   5.580   5.746   7.130 -0.9443 -0.3748  0.5352
29703SOL    HW289688   5.471   5.843   7.170  0.6137  1.7526 -0.2243
29704SOL     OW89689   6.877   9.988   4.221 -0.1623  0.3181  0.6003
29704SOL    HW189690   6.786   9.996   4.194  0.0377 -1.6056 -0.8950
29704SOL    HW289691   6.893   9.894   4.222  1.8093  0.6160  0.8423
29705SOL     OW89692   6.550   0.328   3.411  0.3020 -0.5410  0.4222
29705SOL    HW189693   6.618   0.286   3.464 -0.4702 -1.7153  0.5009
29705SOL    HW289694   6.494   0.373   3.475  1.6899  1.5575  0.2779
29706SOL     OW89695   5.071   7.162   4.115 -0.3101  0.4332 -0.7763
29706SOL    HW189696   4.996   7.214   4.142  0.5452  1.3711 -0.1584
29706SOL    HW289697   5.114   7.137   4.196  0.4840  0.5572 -1.1472
29707SOL     OW89698   6.081   5.196   5.754 -0.5760 -0.1163 -0.2135
29707SOL    HW189699   6.025   5.215   5.830  1.0947 -0.3127  1.1423
29707SOL    HW289700   6.058   5.106   5.730  1.5798 -1.6526  2.7177
29708SOL     OW89701   5.653   9.383   5.063 -0.2526  0.1933  0.2868
29708SOL    HW189702   5.590   9.407   5.131 -0.5193 -0.2311  0.1995
29708SOL    HW289703   5.682   9.295   5.088  0.3833  0.4237  0.3787
29709SOL     OW89704   2.309   6.130   6.122  0.2790 -0.2542  0.3668
29709SOL    HW189705   2.402   6.151   6.132  0.4109 -0.8016  0.3220
29709SOL    HW289706   2.308   6.039   6.091 -0.2222  0.2715 -1.2485
29710SOL     OW89707   1.299   3.662   9.081 -0.5333 -0.1559  0.3098
29710SOL    HW189708   1.360   3.590   9.064  0.8612  0.4353  2.3823
29710SOL    HW289709   1.254   3.636   9.162  0.1394  1.3420  1.2047
29711SOL     OW89710   7.366   9.394   5.056 -0.0328  0.0253 -0.4070
29711SOL    HW189711   7.390   9.441   4.976 -0.0385 -0.7784 -0.8835
29711SOL    HW289712   7.448   9.383   5.104  0.0512  0.0209 -0.5545
29712SOL     OW89713   9.624   3.018   7.783 -0.0523 -0.2816  0.0629
29712SOL    HW189714   9.577   3.097   7.811  0.7775 -0.5646  2.3971
29712SOL    HW289715   9.579   2.992   7.703 -3.3912 -0.0962  1.7017
29713SOL     OW89716   3.799   7.326   1.094  0.1794 -0.2688 -0.2633
29713SOL    HW189717   3.770   7.243   1.057  2.8929 -1.3570 -0.1995
29713SOL    HW289718   3.836   7.302   1.179 -1.2234  1.4259  0.8843
29714SOL     OW89719   8.015   1.792   0.415 -0.4755  0.1707 -0.2937
29714SOL    HW189720   8.057   1.729   0.357 -0.0277  0.8849 -0.7736
29714SOL    HW289721   7.942   1.745   0.454  1.3364 -1.4201  1.3400
29715SOL     OW89722   3.740   5.787   2.547 -0.0200 -0.1710  0.1985
29715SOL    HW189723   3.657   5.815   2.509 -0.1281 -0.7995 -0.0281
29715SOL    HW289724   3.717   5.715   2.606  0.4391 -0.8040 -0.3776
29716SOL     OW89725   5.881   6.815   1.152 -0.7830 -0.3704  0.1400
29716SOL    HW189726   5.827   6.862   1.215 -1.1942  0.2061 -0.6132
29716SOL    HW289727   5.932   6.884   1.108  0.2364 -0.8566  0.5182
29717SOL     OW89728   4.695   0.115   3.583 -0.8220  0.3658 -0.5037
29717SOL    HW189729   4.757   0.126   3.656 -0.5571  0.6952 -0.7774
29717SOL    HW289730   4.730   0.040   3.535  0.1968  1.4305 -1.4826
29718SOL     OW89731   0.738   7.135   4.310 -0.0560  0.1786  0.2319
29718SOL    HW189732   0.704   7.191   4.380  0.2024  1.2271 -0.4682
29718SOL    HW289733   0.671   7.138   4.242  1.0167  1.5949 -0.8112
29719SOL     OW89734   0.627   7.763   0.391 -0.5954  0.3329 -0.2272
29719SOL    HW189735   0.562   7.705   0.351  0.0297 -0.5917  0.0468
29719SOL    HW289736   0.708   7.742   0.344  0.0880 -0.5506  1.2768
29720SOL     OW89737   5.333   8.083   4.298  0.0469  0.0629  0.5047
29720SOL    HW189738   5.384   8.148   4.347  0.7556  0.1886 -0.3760
29720SOL    HW289739   5.250   8.127   4.280  0.8110  1.0320 -0.7585
29721SOL     OW89740   2.673   1.205   6.680  0.7368 -0.0658  0.1645
29721SOL    HW189741   2.735   1.132   6.675  1.6096  0.7063 -0.6829
29721SOL    HW289742   2.609   1.187   6.611  0.5504 -0.3786  0.4158
29722SOL     OW89743   2.571   8.132   6.684  0.0203 -0.1352 -0.1941
29722SOL    HW189744   2.634   8.181   6.632 -0.0041 -0.4540 -0.5316
29722SOL    HW289745   2.603   8.042   6.681  0.5875  0.0007  1.1920
29723SOL     OW89746   0.918   4.892   1.131  0.1145 -0.1936 -0.0668
29723SOL    HW189747   0.960   4.966   1.175 -1.2712 -0.1955  1.3691
29723SOL    HW289748   0.957   4.815   1.173  0.4779 -0.2542 -0.5095
29724SOL     OW89749   7.308   4.848   8.720 -0.5442 -0.5786 -0.4682
29724SOL    HW189750   7.225   4.822   8.680 -0.6734 -2.1893  0.7318
29724SOL    HW289751   7.342   4.916   8.663 -1.8320 -1.1335 -1.9723
29725SOL     OW89752   3.242   4.889   0.328 -0.9015 -0.1091 -0.2824
29725SOL    HW189753   3.298   4.916   0.401 -0.9888  0.2838 -0.3631
29725SOL    HW289754   3.262   4.951   0.258  0.4691 -1.5013 -1.1955
29726SOL     OW89755   8.110   4.775   1.870 -0.3969 -0.3854  0.1715
29726SOL    HW189756   8.181   4.745   1.927  1.9653 -0.0869 -2.4243
29726SOL    HW289757   8.071   4.849   1.916  1.1177 -0.4208  1.5788
29727SOL     OW89758   1.530   1.260   7.319 -0.3929 -1.0978  0.2340
29727SOL    HW189759   1.459   1.314   7.354  1.2897  1.5776 -0.2116
29727SOL    HW289760   1.506   1.244   7.228 -0.2410  0.2603 -0.0735
29728SOL     OW89761   6.391   1.979   4.123  0.5578 -0.2263 -0.1186
29728SOL    HW189762   6.370   1.974   4.030 -0.4969 -0.4472  0.1249
29728SOL    HW289763   6.307   1.990   4.166  1.0370 -0.1554  0.8159
29729SOL     OW89764   8.565   7.610   6.291 -0.4448 -0.7683  0.0178
29729SOL    HW189765   8.566   7.521   6.257  1.2282 -0.1997 -1.6039
29729SOL    HW289766   8.476   7.624   6.322 -0.8065 -2.8967  0.0333
29730SOL     OW89767   3.260   9.732   9.285  0.2828 -0.1599 -0.2255
29730SOL    HW189768   3.336   9.768   9.240 -0.4579  0.5168 -0.9478
29730SOL    HW289769   3.297   9.663   9.342  1.3954 -0.0095 -0.7382
29731SOL     OW89770   8.727   5.159   2.054 -0.2896  0.2610 -0.4955
29731SOL    HW189771   8.804   5.102   2.044  0.3260  0.9004  0.4184
29731SOL    HW289772   8.747   5.212   2.131 -2.3886 -0.7578  0.8648
29732SOL     OW89773   0.005   7.122   0.305  0.0309  0.1419 -0.2845
29732SOL    HW189774   0.098   7.117   0.328 -0.3087 -1.4268  0.9206
29732SOL    HW289775  -0.020   7.032   0.287 -0.9570  0.7173 -1.9715
29733SOL     OW89776   9.661   6.129   3.154  0.3333 -0.2201  0.5543
29733SOL    HW189777   9.706   6.050   3.125  0.9449  0.7650 -1.3522
29733SOL    HW289778   9.715   6.160   3.227  1.2490 -0.5045  0.0255
29734SOL     OW89779   0.535   1.527   9.549 -0.3216 -1.0002  0.1337
29734SOL    HW189780   0.609   1.587   9.561 -1.0446 -0.0173 -0.2475
29734SOL    HW289781   0.557   1.478   9.470 -0.3973 -0.2133 -0.3827
29735SOL     OW89782   0.854   8.220   8.533 -0.4180  0.0268 -0.1549
29735SOL    HW189783   0.772   8.262   8.558 -0.6163 -0.6666  0.3786
29735SOL    HW289784   0.870   8.252   8.444 -0.6906  1.0227  0.1342
29736SOL     OW89785   3.767   5.220   4.620  0.5673  0.2422  0.1978
29736SOL    HW189786   3.692   5.165   4.594  0.9984  0.2357 -1.1360
29736SOL    HW289787   3.834   5.157   4.647 -0.6930  0.2970  3.9227
29737SOL     OW89788   4.556   0.444   8.808 -0.0384 -0.1002 -0.3883
29737SOL    HW189789   4.474   0.466   8.764  0.4531 -0.5844 -1.5991
29737SOL    HW289790   4.532   0.431   8.899 -1.8112 -2.8442 -1.1438
29738SOL     OW89791   7.894   6.357   4.682 -0.2790 -0.1705 -0.1652
29738SOL    HW189792   7.915   6.450   4.688 -0.6372 -0.0601 -0.5979
29738SOL    HW289793   7.917   6.322   4.768  0.4277  0.1988 -0.1947
29739SOL     OW89794   8.403   2.113   5.003  0.3596 -0.6527  0.5327
29739SOL    HW189795   8.314   2.082   5.020 -0.0072 -0.2000 -0.5115
29739SOL    HW289796   8.395   2.208   4.996  0.1908 -0.7946 -3.3330
29740SOL     OW89797   9.112   1.752   6.693  0.1455 -0.0667  0.2838
29740SOL    HW189798   9.049   1.752   6.621  0.5866  1.1409 -0.1291
29740SOL    HW289799   9.088   1.829   6.745  0.3266 -0.4781  0.9874
29741SOL     OW89800   2.314   7.321   4.425 -0.3163 -0.1598 -0.8694
29741SOL    HW189801   2.365   7.286   4.352  0.1985 -1.1178 -0.0802
29741SOL    HW289802   2.274   7.244   4.465 -0.5149  0.3417 -0.0887
29742SOL     OW89803   2.171   7.608   7.733  0.0122 -0.0048 -0.0231
29742SOL    HW189804   2.076   7.621   7.741  0.0544  0.9659 -0.8511
29742SOL    HW289805   2.196   7.562   7.814 -1.2152 -0.6489  0.0089
29743SOL     OW89806   1.363   7.999   2.225 -0.2868  0.4104 -0.3323
29743SOL    HW189807   1.346   8.010   2.318 -0.3089  0.9748 -0.4004
29743SOL    HW289808   1.316   8.072   2.183  0.6300  0.8114 -0.6949
29744SOL     OW89809   6.666   1.633   8.991 -0.0111  0.2082  0.2125
29744SOL    HW189810   6.635   1.578   9.063 -4.2147 -0.1795 -1.6011
29744SOL    HW289811   6.692   1.715   9.034 -0.8508 -0.5669  2.3415
29745SOL     OW89812   3.050   7.374   2.703  0.0868 -0.0307  0.3908
29745SOL    HW189813   2.999   7.443   2.661  1.8750  1.2939  0.2618
29745SOL    HW289814   3.066   7.406   2.792  0.6350 -0.4324  0.4450
29746SOL     OW89815   0.533   0.092   2.399  0.5542 -0.7867  0.0371
29746SOL    HW189816   0.457   0.044   2.434  0.9527 -1.2137  0.3339
29746SOL    HW289817   0.496   0.150   2.333 -0.4344  1.1531  2.1756
29747SOL     OW89818   5.340   2.682   2.543  0.3136  0.0731 -0.0844
29747SOL    HW189819   5.376   2.652   2.460  0.2563 -0.2648  0.0109
29747SOL    HW289820   5.361   2.612   2.605  1.5785  0.9311  0.4987
29748SOL     OW89821   1.045   3.097   4.140 -0.5430 -0.1689  0.5244
29748SOL    HW189822   0.956   3.063   4.128 -0.5145 -0.0092 -0.1392
29748SOL    HW289823   1.098   3.020   4.159 -0.5543 -0.4484 -0.5480
29749SOL     OW89824   8.849   4.425   4.729  0.3903  0.9886  0.5012
29749SOL    HW189825   8.804   4.507   4.710 -0.8644 -0.1525 -2.0718
29749SOL    HW289826   8.779   4.361   4.741  1.3333  0.2000  2.2553
29750SOL     OW89827   7.414   9.384   9.560  0.2152 -0.2699  0.0735
29750SOL    HW189828   7.477   9.398   9.630 -1.4640  1.3380  1.3552
29750SOL    HW289829   7.415   9.289   9.545  1.7175 -0.4535  1.1744
29751SOL     OW89830   1.231   5.144   6.370 -0.1947  0.4293 -0.2356
29751SOL    HW189831   1.146   5.102   6.384  0.0486 -0.1702 -0.5108
29751SOL    HW289832   1.245   5.139   6.275  0.0480  0.7168 -0.2146
29752SOL     OW89833   7.347   5.690   8.679 -0.0855 -0.4186 -0.2465
29752SOL    HW189834   7.297   5.752   8.733 -1.0111 -0.3567 -1.1443
29752SOL    HW289835   7.357   5.613   8.735 -1.4361 -0.5306 -0.1150
29753SOL     OW89836   1.510   8.793   3.351  0.5321  0.1644 -0.4068
29753SOL    HW189837   1.589   8.828   3.391  0.5359 -0.0713 -0.1993
29753SOL    HW289838   1.527   8.796   3.257  0.4907  0.8022 -0.3949
29754SOL     OW89839   4.829   6.115   5.400  0.0675  0.3720 -0.0516
29754SOL    HW189840   4.828   6.162   5.317  3.6473  0.3409 -0.2456
29754SOL    HW289841   4.768   6.043   5.388 -1.7101  2.0193 -1.5432
29755SOL     OW89842   9.572   8.685   0.917 -0.2695 -0.4868 -0.6114
29755SOL    HW189843   9.495   8.719   0.964  1.9059  2.8183  0.9054
29755SOL    HW289844   9.596   8.606   0.965 -0.4131  0.6742  1.4829
29756SOL     OW89845   1.751   6.955   9.156 -0.0089  0.4588 -0.0285
29756SOL    HW189846   1.687   6.895   9.118 -0.1444  0.3440  0.3795
29756SOL    HW289847   1.796   6.904   9.223 -1.9988  1.5537  2.2727
29757SOL     OW89848   6.322   8.625   6.946 -0.2981 -0.2150  0.1234
29757SOL    HW189849   6.402   8.674   6.967 -0.7719  0.5568  0.1763
29757SOL    HW289850   6.354   8.544   6.905  0.5088  0.1530 -0.0085
29758SOL     OW89851   1.397   9.221   5.193 -0.4544 -0.1965  0.1398
29758SOL    HW189852   1.398   9.272   5.112  0.0230 -0.7292 -0.2015
29758SOL    HW289853   1.418   9.284   5.262  0.3185  0.0346 -0.2934
29759SOL     OW89854   2.800   7.235   9.568  0.2689 -0.9658  0.4927
29759SOL    HW189855   2.762   7.163   9.518  0.1664 -0.3728 -0.2905
29759SOL    HW289856   2.733   7.256   9.634  0.0003 -1.1256  0.2736
29760SOL     OW89857   1.146   6.303   9.863  0.5640 -0.0101  0.2876
29760SOL    HW189858   1.134   6.215   9.828 -1.2840  0.5533 -0.6392
29760SOL    HW289859   1.066   6.319   9.915  1.5848  0.5568  1.7617
29761SOL     OW89860   8.758   2.960   5.625  0.4319 -0.0775  0.1657
29761SOL    HW189861   8.755   2.888   5.563 -0.4572 -1.5320  1.8262
29761SOL    HW289862   8.852   2.979   5.636  1.0483 -3.4787  2.3611
29762SOL     OW89863   1.297   0.479   6.823  0.3776 -0.3468  0.0362
29762SOL    HW189864   1.316   0.561   6.870 -0.0188  0.0967 -0.5603
29762SOL    HW289865   1.212   0.451   6.858  0.2689 -0.2274 -0.1324
29763SOL     OW89866   0.283   9.049   5.321  0.0465  0.0744 -0.3887
29763SOL    HW189867   0.285   9.134   5.365  1.9080 -0.2465  0.2110
29763SOL    HW289868   0.208   9.003   5.361  0.7566  0.3689  1.3687
29764SOL     OW89869   6.672   4.070   1.504  0.2011 -0.1030 -0.2272
29764SOL    HW189870   6.630   4.003   1.559  1.0906 -0.2448  0.3040
29764SOL    HW289871   6.600   4.111   1.457 -0.4855 -0.6240  0.3458
29765SOL     OW89872   8.761   7.614   6.871 -0.4461  0.1232 -0.2884
29765SOL    HW189873   8.736   7.695   6.916 -0.8796 -0.3019  0.2519
29765SOL    HW289874   8.788   7.643   6.784  1.5778  1.1164  0.5881
29766SOL     OW89875   4.740   5.701   6.262 -0.0213 -0.1417  0.4151
29766SOL    HW189876   4.647   5.708   6.245 -0.0798 -1.6679 -0.1079
29766SOL    HW289877   4.768   5.625   6.210  1.0154 -1.2356  2.4068
29767SOL     OW89878   9.578   0.346   6.692 -0.3195  0.2182  0.5074
29767SOL    HW189879   9.623   0.285   6.750 -0.0148  0.5622  0.6314
29767SOL    HW289880   9.538   0.290   6.626 -0.7228 -0.1883  1.0757
29768SOL     OW89881   4.546   8.696   2.528 -0.2728 -0.3165 -0.1267
29768SOL    HW189882   4.454   8.686   2.552 -1.1127  3.4972 -1.1245
29768SOL    HW289883   4.547   8.691   2.433  0.3477  0.6031 -0.1869
29769SOL     OW89884   0.479   4.915   4.161  0.1323  0.4031 -0.3551
29769SOL    HW189885   0.488   4.829   4.119  0.6287  0.5800 -0.6214
29769SOL    HW289886   0.385   4.933   4.160  0.0106 -0.2064 -0.1564
29770SOL     OW89887   0.357   5.819   4.838  0.3160 -0.1886 -0.4754
29770SOL    HW189888   0.326   5.837   4.927  1.3044 -0.3551 -0.0937
29770SOL    HW289889   0.318   5.889   4.785  0.4155  0.4090  0.2287
29771SOL     OW89890   7.685   9.356   3.600 -0.6460  0.1363 -0.1587
29771SOL    HW189891   7.727   9.316   3.675  0.2266  0.8435 -0.2526
29771SOL    HW289892   7.711   9.448   3.604 -1.0424  0.2982 -1.0087
29772SOL     OW89893   4.632   3.232   0.952 -0.2704 -0.0984 -0.1726
29772SOL    HW189894   4.566   3.163   0.959 -0.0310 -0.2762  0.3704
29772SOL    HW289895   4.596   3.306   1.000  0.3069 -0.4991  0.9157
29773SOL     OW89896   4.479   0.845   0.182 -0.0115 -0.1231  0.5100
29773SOL    HW189897   4.397   0.823   0.226 -0.2306  2.1609  1.3520
29773SOL    HW289898   4.528   0.896   0.247  2.3511 -1.8761  0.2242
29774SOL     OW89899   9.528   3.184   5.801 -0.4185  0.4849 -0.1864
29774SOL    HW189900   9.521   3.227   5.716  0.1128  3.3105  1.0745
29774SOL    HW289901   9.615   3.145   5.802 -0.8320 -0.5239 -1.2913
29775SOL     OW89902   7.626   7.711   8.465  0.0272 -0.1942  0.4989
29775SOL    HW189903   7.712   7.669   8.458  0.5194  0.3562  2.6643
29775SOL    HW289904   7.636   7.794   8.418 -0.5865 -1.7629 -2.7229
29776SOL     OW89905   7.437   3.212   4.876 -0.0090 -0.7642 -0.3543
29776SOL    HW189906   7.485   3.138   4.912  1.5612 -0.3718 -1.5565
29776SOL    HW289907   7.411   3.263   4.953  2.9437 -0.1472  0.3534
29777SOL     OW89908   8.563   2.527   1.515 -0.0890  0.2755 -0.2326
29777SOL    HW189909   8.591   2.476   1.591 -2.3551 -0.2946  0.2823
29777SOL    HW289910   8.474   2.555   1.536 -0.5273  0.6928 -2.3852
29778SOL     OW89911   4.785   1.853   2.098 -0.3867  0.6046 -0.2087
29778SOL    HW189912   4.850   1.813   2.156 -1.4051 -0.7748  0.0357
29778SOL    HW289913   4.723   1.896   2.157  0.5095  2.3326 -0.4569
29779SOL     OW89914   0.317   0.074   8.163  0.3121  0.1887 -0.0855
29779SOL    HW189915   0.328   0.066   8.257  0.1758  1.1882  0.0239
29779SOL    HW289916   0.366   0.000   8.127  0.6877  0.0187  0.7438
29780SOL     OW89917   9.572   4.145   2.912  0.2104 -0.7869 -0.4098
29780SOL    HW189918   9.510   4.144   2.838  1.9137  0.6027 -1.9527
29780SOL    HW289919   9.658   4.152   2.871  1.2032  0.5865  1.7142
29781SOL     OW89920   5.443   1.911   8.479  0.5136  0.5217 -0.3835
29781SOL    HW189921   5.422   1.998   8.446 -1.3970 -0.1743 -1.1492
29781SOL    HW289922   5.359   1.877   8.511  1.2777 -0.9276  0.1452
29782SOL     OW89923   5.713   6.902   6.021 -0.3080 -0.3890 -0.0175
29782SOL    HW189924   5.689   6.895   5.929  1.8420 -1.0255 -0.5913
29782SOL    HW289925   5.771   6.827   6.037  0.1905  0.2774  1.5729
29783SOL     OW89926   9.630   6.490   2.862 -0.2794 -0.6463  0.0016
29783SOL    HW189927   9.608   6.466   2.953 -1.9599  0.2585 -0.1260
29783SOL    HW289928   9.696   6.559   2.871  0.9053 -1.7885  0.4621
29784SOL     OW89929   1.535   3.825   3.749 -0.4442  0.6201 -0.0079
29784SOL    HW189930   1.624   3.860   3.738 -0.6830  1.6806  1.1582
29784SOL    HW289931   1.540   3.773   3.829 -0.3346 -1.3147 -1.2152
29785SOL     OW89932   0.845   2.581   6.824 -0.4091  0.3067 -0.6103
29785SOL    HW189933   0.920   2.559   6.769 -0.0242  1.1695 -0.4348
29785SOL    HW289934   0.883   2.610   6.907 -0.9516  0.3632 -0.3768
29786SOL     OW89935   7.148   7.178   7.867  0.6650 -0.2923  0.0072
29786SOL    HW189936   7.100   7.250   7.826 -0.0112 -0.4092  0.5768
29786SOL    HW289937   7.238   7.211   7.876  0.0043  1.1713  1.8688
29787SOL     OW89938   6.993   4.366   0.565  0.6874 -0.1167  0.0935
29787SOL    HW189939   6.982   4.461   0.563 -1.4821 -0.3227 -0.0956
29787SOL    HW289940   7.087   4.353   0.581  0.9836  2.0365  0.4191
29788SOL     OW89941   6.156   3.823   6.265 -0.0748 -0.0012 -0.6582
29788SOL    HW189942   6.072   3.829   6.311 -0.7478  1.0411 -1.9701
29788SOL    HW289943   6.139   3.765   6.191  0.4107  0.0435 -0.8102
29789SOL     OW89944   8.929   9.678   7.350 -0.9312  0.2451  0.2712
29789SOL    HW189945   8.930   9.655   7.258 -2.6852 -0.3051  0.3547
29789SOL    HW289946   9.008   9.730   7.363  0.6819 -1.7773 -0.9687
29790SOL     OW89947   5.919   9.103   7.129 -0.0810 -0.3286  0.0748
29790SOL    HW189948   5.934   9.025   7.076  1.7270 -0.1277  0.2198
29790SOL    HW289949   6.006   9.141   7.141 -1.0344  2.5893 -1.3102
29791SOL     OW89950   2.770   9.146   5.544 -0.0193  0.1072 -0.0848
29791SOL    HW189951   2.798   9.055   5.536 -1.9078 -0.5314 -0.0695
29791SOL    HW289952   2.851   9.196   5.552  1.0860 -1.5117 -0.6149
29792SOL     OW89953   8.958   2.440   6.274 -0.0604  0.1434  0.0204
29792SOL    HW189954   9.007   2.490   6.209  0.3969 -0.7046 -0.3118
29792SOL    HW289955   8.971   2.348   6.248 -0.8150 -0.1524  0.6492
29793SOL     OW89956   3.789   7.399   0.307 -0.0697 -0.1285  0.6293
29793SOL    HW189957   3.705   7.395   0.354 -1.3126  0.1840 -1.4510
29793SOL    HW289958   3.843   7.334   0.350 -1.0827  0.2249  2.5645
29794SOL     OW89959   0.590   5.786   0.924  0.0188  0.4374 -0.4555
29794SOL    HW189960   0.588   5.747   1.011 -2.3721 -0.1383 -0.7043
29794SOL    HW289961   0.634   5.870   0.937  1.5051 -0.4888  0.8859
29795SOL     OW89962   5.053   3.377   3.008  0.2287  0.5883 -0.6183
29795SOL    HW189963   4.993   3.387   3.082 -0.9505 -1.7059 -1.1900
29795SOL    HW289964   5.138   3.360   3.048 -0.1093  0.7683  0.1978
29796SOL     OW89965   7.252   7.318   5.855  0.6492  0.1747 -0.4032
29796SOL    HW189966   7.313   7.282   5.790  1.4807  0.4950  0.1768
29796SOL    HW289967   7.296   7.303   5.939 -1.0194 -1.4771  0.2292
29797SOL     OW89968   8.317   9.522   3.530  0.2484  0.0553  0.2139
29797SOL    HW189969   8.344   9.569   3.451  0.9289 -0.2282  0.2714
29797SOL    HW289970   8.257   9.582   3.574 -0.2137  0.1773 -0.5647
29798SOL     OW89971   9.285   8.028   3.632  0.2375 -0.2240 -0.0300
29798SOL    HW189972   9.246   8.107   3.670  1.0331  0.2514 -0.1882
29798SOL    HW289973   9.224   7.958   3.655  0.2571  0.1959  1.3756
29799SOL     OW89974   1.964   6.141   1.126 -0.0167 -0.1831  0.2448
29799SOL    HW189975   1.970   6.233   1.099 -0.1604  0.2602  1.6200
29799SOL    HW289976   1.875   6.131   1.158  0.4256 -0.3842  1.4731
29800SOL     OW89977   6.528   2.173   0.243 -0.4294  0.1256 -0.2355
29800SOL    HW189978   6.564   2.188   0.330 -1.6458 -1.2756  0.5474
29800SOL    HW289979   6.565   2.089   0.216 -0.2817  0.4142 -0.9657
29801SOL     OW89980   9.476   1.947   6.088  0.0106  0.1614  0.2912
29801SOL    HW189981   9.533   2.000   6.032 -0.5890  0.6539  0.1480
29801SOL    HW289982   9.402   2.003   6.109  0.5483  0.2403  2.1858
29802SOL     OW89983   5.612   5.052   0.649  0.1154 -0.2467  0.8070
29802SOL    HW189984   5.563   5.110   0.707 -0.8353  0.1214 -0.3320
29802SOL    HW289985   5.638   5.108   0.575  1.8308 -0.5561  1.1238
29803SOL     OW89986   3.030   6.342   1.198  0.3611  0.1214  0.5502
29803SOL    HW189987   3.102   6.340   1.134 -1.7527  0.6464 -1.9984
29803SOL    HW289988   3.061   6.402   1.266  2.1339  0.7739 -0.7421
29804SOL     OW89989   3.618   9.447   7.411  0.3484 -0.0763  0.0401
29804SOL    HW189990   3.710   9.434   7.430  1.4231  2.8518 -2.3650
29804SOL    HW289991   3.608   9.542   7.402 -2.8938 -0.2921  0.1428
29805SOL     OW89992   7.053   0.912   2.569 -0.6948 -0.0027 -0.5085
29805SOL    HW189993   7.071   0.971   2.496  2.9052  2.4205  1.9797
29805SOL    HW289994   7.111   0.837   2.553  0.1818  0.5797 -0.1473
29806SOL     OW89995   2.277   9.251   3.680  0.1998 -0.3728  0.6889
29806SOL    HW189996   2.358   9.283   3.720 -0.8042  0.0991  2.4784
29806SOL    HW289997   2.248   9.323   3.624  0.9545 -0.5073  0.1149
29807SOL     OW89998   9.792   1.936   7.198  0.5306 -0.7381 -0.6150
29807SOL    HW189999   9.744   1.868   7.245  0.7021 -0.5124 -0.1130
29807SOL    HW290000   9.807   1.899   7.111  0.8421 -1.4431 -0.2638
29808SOL     OW90001   0.462   5.185   3.354 -0.3313  0.5246 -0.2197
29808SOL    HW190002   0.507   5.101   3.353 -0.2155  0.5467  1.3371
29808SOL    HW290003   0.508   5.237   3.420 -1.1449  1.3826 -0.3064
29809SOL     OW90004   5.642   5.552   1.321  0.1640 -0.0620  0.2865
29809SOL    HW190005   5.625   5.571   1.229  0.5345  1.2837  0.4821
29809SOL    HW290006   5.718   5.605   1.343 -0.6708  0.6076  1.6941
29810SOL     OW90007   3.880   1.500   0.957  0.1537 -0.0180 -0.8891
29810SOL    HW190008   3.838   1.582   0.980  0.1460 -0.3294  0.2647
29810SOL    HW290009   3.973   1.522   0.946  0.0185  0.2944 -1.4763
29811SOL     OW90010   5.236   1.712   0.536 -0.2546  0.0168 -0.1441
29811SOL    HW190011   5.236   1.754   0.622  0.4818  1.1701 -0.6830
29811SOL    HW290012   5.206   1.781   0.476 -3.1717 -1.4383 -0.5508
29812SOL     OW90013   5.238   9.109   5.704 -0.1138 -0.5107  0.0022
29812SOL    HW190014   5.196   9.071   5.627 -0.3028 -0.7170  0.2023
29812SOL    HW290015   5.178   9.087   5.776 -0.9206  1.2903 -0.0540
29813SOL     OW90016   3.663   8.102   3.426 -0.2207 -0.0947  0.1687
29813SOL    HW190017   3.703   8.175   3.379 -1.4614  0.0188 -0.7597
29813SOL    HW290018   3.718   8.090   3.503  1.3931  0.2459 -0.8968
29814SOL     OW90019   4.318   2.869   9.108 -0.3579  0.1538  0.4142
29814SOL    HW190020   4.300   2.893   9.017 -0.5673  0.4760  0.5408
29814SOL    HW290021   4.367   2.943   9.144 -0.3993  0.0910  0.6040
29815SOL     OW90022   6.052   6.493   3.439  0.8047  0.0910 -0.1512
29815SOL    HW190023   6.015   6.539   3.363  2.3962  0.1895 -0.9090
29815SOL    HW290024   6.013   6.406   3.435  1.8414 -0.3429 -1.8928
29816SOL     OW90025   9.365   9.075   7.385  0.2860 -0.0674 -0.0264
29816SOL    HW190026   9.314   9.116   7.315  0.4244  1.1171  0.5238
29816SOL    HW290027   9.420   9.146   7.418  0.8189 -0.8158  0.7317
29817SOL     OW90028   9.418   0.669   3.377  0.0774 -0.1365  0.3024
29817SOL    HW190029   9.506   0.658   3.340 -0.0653  0.5434 -0.2382
29817SOL    HW290030   9.410   0.763   3.393 -0.3204 -0.2712  0.9547
29818SOL     OW90031   4.671   2.476   6.460 -0.1332 -0.2325 -0.7464
29818SOL    HW190032   4.644   2.550   6.514  2.1461 -1.1591  1.8446
29818SOL    HW290033   4.763   2.494   6.439 -0.0312 -1.5325 -1.5026
29819SOL     OW90034   0.650   2.304   7.283  0.0273  0.4511  0.9080
29819SOL    HW190035   0.603   2.307   7.199  1.4855 -0.7523  0.0167
29819SOL    HW290036   0.741   2.287   7.259  0.5262  0.4089  2.7354
29820SOL     OW90037   6.820   7.331   6.300 -0.7029  0.0813  0.1544
29820SOL    HW190038   6.851   7.276   6.372 -2.0426 -1.0235 -0.0812
29820SOL    HW290039   6.878   7.407   6.302  0.2117 -0.6076  1.4691
29821SOL     OW90040   7.608   7.962   9.901 -0.1656 -0.0064 -0.4179
29821SOL    HW190041   7.523   7.934   9.934 -1.1565 -1.2620 -3.5993
29821SOL    HW290042   7.670   7.898   9.936 -0.8361 -0.2050  0.4202
29822SOL     OW90043   8.098   5.380   2.079 -0.4238  0.3074  0.5939
29822SOL    HW190044   8.027   5.368   2.015  1.0887 -1.4051 -0.8981
29822SOL    HW290045   8.072   5.327   2.154 -1.1156  0.3835  0.4164
29823SOL     OW90046   2.037   7.274   8.440 -0.2645 -0.0408  0.9073
29823SOL    HW190047   2.086   7.257   8.359 -0.5924  2.4750  0.0931
29823SOL    HW290048   1.947   7.251   8.419 -0.4999  1.4020  0.2245
29824SOL     OW90049   9.179   6.852   0.098  0.3129 -0.0234  0.2001
29824SOL    HW190050   9.236   6.927   0.081  0.1110 -0.1266 -1.0063
29824SOL    HW290051   9.103   6.867   0.042 -0.8999  0.1492  1.8053
29825SOL     OW90052   0.418   6.516   3.041  0.9949  0.1446 -0.0192
29825SOL    HW190053   0.418   6.498   3.135  0.1233  0.4566  0.0498
29825SOL    HW290054   0.510   6.509   3.016  1.2837  0.3371  0.9099
29826SOL     OW90055   9.363   9.274   0.641 -0.2612  0.2074  0.1239
29826SOL    HW190056   9.336   9.187   0.669 -0.0978  0.1469  0.0936
29826SOL    HW290057   9.447   9.288   0.684 -0.6237  0.6386  0.6969
29827SOL     OW90058   8.230   0.848   8.723  0.0477  0.1059  0.1556
29827SOL    HW190059   8.186   0.915   8.670 -0.3817  0.6907  1.2100
29827SOL    HW290060   8.319   0.845   8.690 -0.4381 -0.1916 -1.1906
29828SOL     OW90061   4.687   8.671   6.430 -0.0223  0.5079 -0.0795
29828SOL    HW190062   4.627   8.704   6.496 -1.8531  0.1177 -1.4761
29828SOL    HW290063   4.638   8.675   6.348  1.6811 -0.3124 -1.2048
29829SOL     OW90064   5.166   4.916   9.700 -0.0170  0.4088  0.1617
29829SOL    HW190065   5.199   5.006   9.705  0.3127  0.2575  0.8567
29829SOL    HW290066   5.156   4.899   9.607 -0.3144  1.2548  0.0356
29830SOL     OW90067   5.877   5.926   9.318 -0.3439  0.0245 -0.3522
29830SOL    HW190068   5.825   5.847   9.304 -0.0398 -0.2098 -0.1732
29830SOL    HW290069   5.871   5.942   9.412 -2.1468  1.4342 -0.6645
29831SOL     OW90070   5.839   2.305   4.801 -0.2946 -0.1391  0.1788
29831SOL    HW190071   5.908   2.342   4.855  0.7856 -0.4972 -0.9039
29831SOL    HW290072   5.758   2.322   4.849  0.6456 -0.7931  2.0720
29832SOL     OW90073   4.156   9.864   8.025  0.5423 -0.3362 -0.5739
29832SOL    HW190074   4.186   9.877   7.935  1.3186 -0.3255 -0.3176
29832SOL    HW290075   4.203   9.786   8.055  0.7621  0.0232  0.0289
29833SOL     OW90076   0.609   1.765   1.074 -0.5283 -0.0165 -0.7457
29833SOL    HW190077   0.525   1.731   1.105 -0.3602 -1.1297 -1.4445
29833SOL    HW290078   0.671   1.694   1.091 -0.1497 -0.0559 -2.2179
29834SOL     OW90079   5.795   1.403   7.658 -0.3366  0.6052  0.4561
29834SOL    HW190080   5.744   1.385   7.579 -0.9111 -1.3465  1.2076
29834SOL    HW290081   5.836   1.488   7.641 -3.5951  2.1797 -0.3090
29835SOL     OW90082   6.526   5.597   6.005  0.5559 -0.3168  0.3802
29835SOL    HW190083   6.605   5.651   6.017  0.7425 -0.6719  0.8154
29835SOL    HW290084   6.455   5.660   5.995  0.9912  0.0174 -0.7912
29836SOL     OW90085   4.253   7.458   8.951 -1.1110  0.2235 -0.0260
29836SOL    HW190086   4.214   7.429   9.033 -1.3437 -1.6289 -0.7413
29836SOL    HW290087   4.179   7.460   8.889 -0.7588  0.5733 -0.4380
29837SOL     OW90088   7.052   4.326   8.981  0.4460 -0.1496  0.0188
29837SOL    HW190089   7.062   4.231   8.983  3.7962  0.0898  0.1215
29837SOL    HW290090   7.084   4.352   8.895  2.6155  1.0237  1.0835
29838SOL     OW90091   8.167   3.165   0.424 -0.7275  0.4142 -0.1870
29838SOL    HW190092   8.199   3.252   0.445  2.0248 -0.4907 -0.2849
29838SOL    HW290093   8.195   3.111   0.498 -0.4823 -0.7711 -1.1133
29839SOL     OW90094   7.322   7.247   2.361  0.1382 -0.3606  0.5972
29839SOL    HW190095   7.297   7.331   2.399  1.6317 -0.3911  1.7673
29839SOL    HW290096   7.405   7.266   2.316 -0.3872 -0.8520 -0.5987
29840SOL     OW90097   6.313   3.343   1.966  0.1152 -0.7806 -0.2635
29840SOL    HW190098   6.271   3.414   1.916 -1.2110 -0.9071  0.6105
29840SOL    HW290099   6.322   3.379   2.055 -1.5387 -2.0126  0.4638
29841SOL     OW90100   0.775   0.252   9.748 -0.0565 -0.4490 -0.1501
29841SOL    HW190101   0.772   0.347   9.751 -0.6193 -0.4697  0.1910
29841SOL    HW290102   0.742   0.229   9.662 -0.1655 -0.3420 -0.1369
29842SOL     OW90103   8.576   3.937   8.180 -0.4069 -0.1220 -0.1173
29842SOL    HW190104   8.639   3.970   8.245  0.1533 -2.1174  0.4244
29842SOL    HW290105   8.584   3.842   8.185 -0.3025 -0.3724 -3.1800
29843SOL     OW90106   7.849   2.699   3.628  0.0207 -0.0969 -0.3938
29843SOL    HW190107   7.773   2.681   3.683  0.1712  1.0990  0.2463
29843SOL    HW290108   7.818   2.690   3.539 -0.4868 -1.0875 -0.1303
29844SOL     OW90109   5.401   9.943   9.128 -0.1860  0.3234  0.8375
29844SOL    HW190110   5.430  10.006   9.062 -0.8435 -0.3157 -0.0775
29844SOL    HW290111   5.438   9.976   9.210  2.2146  0.1399 -0.0857
29845SOL     OW90112   4.323   2.678   1.970 -0.0083 -0.7189  0.4518
29845SOL    HW190113   4.326   2.618   1.896 -0.5435 -0.7317  0.4366
29845SOL    HW290114   4.357   2.628   2.044  0.6346 -0.6697  0.1917
29846SOL     OW90115   1.387   7.065   3.428 -0.2511  0.0603  0.6547
29846SOL    HW190116   1.382   7.063   3.523  0.3989  0.4280  0.6993
29846SOL    HW290117   1.478   7.087   3.409  0.1446 -1.9812 -0.0657
29847SOL     OW90118   8.102   5.949   5.653  0.7544  0.6447 -0.2369
29847SOL    HW190119   8.164   6.010   5.614 -0.2965  0.7869 -1.8002
29847SOL    HW290120   8.020   5.999   5.659  0.5981  0.2560  1.1484
29848SOL     OW90121   7.837   1.303   0.856 -0.3530  0.4240 -0.4963
29848SOL    HW190122   7.932   1.306   0.868 -0.1150  0.5172 -2.1781
29848SOL    HW290123   7.816   1.209   0.855 -0.2026  0.3917 -0.6525
29849SOL     OW90124   5.065   0.435   3.905 -0.9180 -0.1158  0.0633
29849SOL    HW190125   5.101   0.511   3.858 -2.4579  0.8022  0.3087
29849SOL    HW290126   5.120   0.362   3.877  1.2861  1.2316  0.6261
29850SOL     OW90127   3.587   2.948   2.407 -0.5687  0.1627  0.6698
29850SOL    HW190128   3.644   2.990   2.471  0.4947 -2.5776  1.6920
29850SOL    HW290129   3.620   2.858   2.402 -3.5092 -0.9638 -0.3411
29851SOL     OW90130   2.283   0.788   5.542  0.1449 -0.3188 -0.1163
29851SOL    HW190131   2.308   0.842   5.617  0.7859  0.8760 -1.1610
29851SOL    HW290132   2.241   0.848   5.481  1.3800 -0.8406 -1.5681
29852SOL     OW90133   9.140   0.950   5.805  0.0004  0.0311  0.2149
29852SOL    HW190134   9.148   1.045   5.797  1.7026 -0.0915 -0.0753
29852SOL    HW290135   9.153   0.933   5.899 -4.3804  0.3119  1.0687
29853SOL     OW90136   9.850   0.236   1.082  0.1643  0.3573  0.4897
29853SOL    HW190137   9.819   0.245   0.992 -1.1172  1.4307  0.9941
29853SOL    HW290138   9.770   0.244   1.135  0.6373 -1.8523  1.6850
29854SOL     OW90139   7.806   4.834   9.172  0.7859 -0.0286 -0.1291
29854SOL    HW190140   7.763   4.843   9.257 -0.6790  2.3136 -1.0353
29854SOL    HW290141   7.820   4.740   9.162 -2.4555 -0.7403  1.0747
29855SOL     OW90142   4.592   8.815   6.670 -0.0579  0.2514  0.3637
29855SOL    HW190143   4.542   8.838   6.748 -0.8611  0.8965 -0.3322
29855SOL    HW290144   4.620   8.899   6.633 -0.7024  0.0230 -0.6968
29856SOL     OW90145   8.831   9.719   9.963  0.0685 -0.2693 -0.1405
29856SOL    HW190146   8.859   9.740  10.052  0.9071 -0.0871 -0.4380
29856SOL    HW290147   8.911   9.691   9.918 -0.3612 -0.4638 -0.8062
29857SOL     OW90148   2.518   5.349   6.993 -0.2158  0.0807  0.3362
29857SOL    HW190149   2.575   5.286   6.949  1.5022  2.4400 -1.1025
29857SOL    HW290150   2.433   5.339   6.950  1.2499  1.9361 -3.5312
29858SOL     OW90151   0.206   6.733   0.811 -0.0244 -0.4850  0.3720
29858SOL    HW190152   0.226   6.668   0.743  1.9451 -1.6991  1.9842
29858SOL    HW290153   0.123   6.704   0.847 -0.3207 -0.7387 -0.4846
29859SOL     OW90154   1.434   0.129   2.062 -0.2798 -0.2993  0.0309
29859SOL    HW190155   1.485   0.179   2.125 -0.4443 -0.8540  0.6135
29859SOL    HW290156   1.493   0.061   2.032 -0.9953 -1.6694  1.5815
29860SOL     OW90157   7.726   9.755   5.726  0.3533  0.2193  0.4015
29860SOL    HW190158   7.717   9.668   5.764  2.2836 -0.1435  0.1151
29860SOL    HW290159   7.780   9.742   5.648  0.3919  1.6194  0.1694
29861SOL     OW90160   6.050   6.764   2.376 -0.2423 -0.2297 -0.0207
29861SOL    HW190161   6.142   6.753   2.356 -0.5343 -3.0565 -0.1453
29861SOL    HW290162   6.004   6.724   2.303 -1.5694  0.2408  0.5188
29862SOL     OW90163   7.891   5.308   4.071 -0.5914 -0.1481  0.4086
29862SOL    HW190164   7.916   5.369   4.141 -1.1172  1.7096 -0.9258
29862SOL    HW290165   7.857   5.231   4.116 -5.4983  2.7264  2.4668
29863SOL     OW90166   9.076   4.681   1.448  0.5445 -0.3239  0.4013
29863SOL    HW190167   9.036   4.594   1.460 -1.1400  0.1550 -1.1873
29863SOL    HW290168   9.065   4.698   1.354 -0.7062  2.2926  0.9445
29864SOL     OW90169   6.887   8.453   9.510  0.1958  0.0585  0.0196
29864SOL    HW190170   6.975   8.492   9.503  0.5048 -0.8141 -1.3712
29864SOL    HW290171   6.836   8.499   9.443 -0.3953  0.4762  0.7444
29865SOL     OW90172   5.487   0.770   7.731  0.2201 -0.3926  0.3565
29865SOL    HW190173   5.515   0.818   7.654 -2.7570 -3.4904 -3.0750
29865SOL    HW290174   5.397   0.798   7.746  0.9440  0.7247  3.4161
29866SOL     OW90175   0.803   9.279   7.132 -0.1509  0.0282  0.2114
29866SOL    HW190176   0.875   9.265   7.071  1.0103  0.6522  1.3873
29866SOL    HW290177   0.846   9.298   7.216 -1.5811  3.1203  0.4045
29867SOL     OW90178   1.742   8.821   7.023  0.6810 -0.4769  0.5889
29867SOL    HW190179   1.812   8.882   7.045  0.3364 -0.0381  0.4721
29867SOL    HW290180   1.785   8.735   7.023  1.0634 -0.2923  1.2155
29868SOL     OW90181   9.380   3.279   1.118  0.6380  0.0788 -0.0474
29868SOL    HW190182   9.340   3.363   1.141  1.2587  0.9351 -1.9191
29868SOL    HW290183   9.410   3.290   1.028  2.8411 -1.3551  0.4219
29869SOL     OW90184   5.988   3.722   1.276 -0.3031  0.1498 -0.0638
29869SOL    HW190185   5.960   3.652   1.218  1.8133 -0.5770 -0.2884
29869SOL    HW290186   6.057   3.767   1.227  1.8697 -0.7652  1.9788
29870SOL     OW90187   4.057   5.498   7.784  0.6450  0.2773  0.3744
29870SOL    HW190188   4.118   5.433   7.820  1.7565  0.7159 -0.6516
29870SOL    HW290189   4.113   5.567   7.749 -0.5055  1.9013  1.5656
29871SOL     OW90190   5.417   3.164   4.365 -0.1413  0.2661  0.6781
29871SOL    HW190191   5.459   3.198   4.286 -1.7325  0.6119 -0.0583
29871SOL    HW290192   5.398   3.243   4.417  0.0932  0.1170  0.9926
29872SOL     OW90193   5.874   5.251   8.486 -0.3307  0.6812  0.0174
29872SOL    HW190194   5.813   5.178   8.480  0.5023 -0.0748  0.5590
29872SOL    HW290195   5.896   5.272   8.395 -1.8699  1.4034 -0.2277
29873SOL     OW90196   5.800   8.847   2.394 -0.0910 -0.4172 -0.0575
29873SOL    HW190197   5.809   8.891   2.479 -2.2275  1.1415 -0.5443
29873SOL    HW290198   5.738   8.776   2.410  0.9868 -1.3640  0.0535
29874SOL     OW90199   5.524   5.462   2.018  0.5417 -0.1843  0.2270
29874SOL    HW190200   5.510   5.438   1.927 -1.2432  0.8646  0.1842
29874SOL    HW290201   5.472   5.399   2.068 -0.0578  0.4322  0.3956
29875SOL     OW90202   4.440   0.027   5.225 -0.3648 -0.1676 -0.1549
29875SOL    HW190203   4.487   0.104   5.194 -0.0395 -0.6445 -0.8736
29875SOL    HW290204   4.464  -0.042   5.163 -0.6651 -0.8410  0.4653
29876SOL     OW90205   0.125   6.922   7.826 -0.2303 -0.7676 -0.4437
29876SOL    HW190206   0.044   6.924   7.776 -0.3888 -2.4451 -0.3189
29876SOL    HW290207   0.170   7.004   7.803 -2.1788  0.4766 -0.0861
29877SOL     OW90208   5.271   6.174   3.888 -0.0608 -0.0647 -0.6989
29877SOL    HW190209   5.239   6.088   3.917 -1.0879  1.0906  1.9651
29877SOL    HW290210   5.211   6.199   3.818 -1.1853 -0.5671  0.0521
29878SOL     OW90211   4.668   4.590   9.665  0.2033 -0.0457 -0.3518
29878SOL    HW190212   4.618   4.580   9.746  0.7629 -1.6844 -0.1813
29878SOL    HW290213   4.738   4.526   9.672  1.5898  1.3236 -1.1559
29879SOL     OW90214   7.391   5.076   1.106  0.0690  0.1830  0.0144
29879SOL    HW190215   7.432   5.114   1.029  0.8825 -0.2321  0.2266
29879SOL    HW290216   7.377   4.984   1.083  0.9359 -0.1050  0.5837
29880SOL     OW90217   0.091   2.256   3.002  0.0759  0.1390 -0.4744
29880SOL    HW190218   0.051   2.230   3.085  0.8756  0.2964 -0.0356
29880SOL    HW290219   0.184   2.263   3.021 -0.0483  3.4013 -0.5432
29881SOL     OW90220   0.331   4.304   3.403  0.7872  0.7647  0.2452
29881SOL    HW190221   0.276   4.229   3.426  1.3847  0.2001 -0.1427
29881SOL    HW290222   0.269   4.372   3.376  0.2795 -0.0368 -0.6972
29882SOL     OW90223   4.019   5.883   9.499  0.0065  0.0462 -0.1214
29882SOL    HW190224   4.007   5.798   9.456  4.0832 -0.9127  0.1659
29882SOL    HW290225   3.998   5.866   9.591 -1.5166  0.0745 -0.4344
29883SOL     OW90226   9.169   4.467   6.311 -0.3618  0.0792 -0.3709
29883SOL    HW190227   9.183   4.485   6.219 -2.9598  1.6756 -0.5722
29883SOL    HW290228   9.246   4.418   6.339  0.6747 -0.0950 -3.2596
29884SOL     OW90229   4.277   9.627   0.961  0.1642  0.0115 -0.3993
29884SOL    HW190230   4.315   9.685   1.028 -1.0483  0.3193  0.0480
29884SOL    HW290231   4.349   9.570   0.935  0.9224  0.5593  0.4439
29885SOL     OW90232   6.886   9.270   6.288 -0.0279 -0.2036 -0.0703
29885SOL    HW190233   6.925   9.215   6.356  0.8570 -0.5477 -0.8382
29885SOL    HW290234   6.960   9.316   6.249 -0.5209 -0.0370 -0.8334
29886SOL     OW90235   0.449   4.672   2.673  0.0387 -0.3322  0.3380
29886SOL    HW190236   0.371   4.641   2.626  0.7209 -1.8910  0.1608
29886SOL    HW290237   0.473   4.599   2.729  1.9865 -0.3161 -0.3881
29887SOL     OW90238   9.649   6.754   2.087  0.4161 -0.3336  0.5837
29887SOL    HW190239   9.707   6.744   2.162 -1.3408  0.6058  2.1604
29887SOL    HW290240   9.566   6.783   2.124 -0.0703  1.8223 -1.8729
29888SOL     OW90241   6.351   4.666   8.031 -0.1550 -0.1565  0.1349
29888SOL    HW190242   6.338   4.691   7.939  0.9708 -0.0001  0.0049
29888SOL    HW290243   6.287   4.717   8.079  0.0220  0.6332 -0.4546
29889SOL     OW90244   1.427   6.466   3.490  0.3679  0.4035  0.1695
29889SOL    HW190245   1.507   6.478   3.541  0.9603  0.1201 -0.6730
29889SOL    HW290246   1.434   6.378   3.453 -2.0430 -1.1665  2.9736
29890SOL     OW90247   0.332   0.215   4.542  0.0684 -0.0484 -0.7699
29890SOL    HW190248   0.392   0.250   4.607  0.4161 -0.7316 -0.7178
29890SOL    HW290249   0.368   0.244   4.458  0.7261 -0.8218 -0.7646
29891SOL     OW90250   3.901   9.571   3.692  0.0187  0.3279  0.4095
29891SOL    HW190251   3.856   9.651   3.667  2.0784  1.3163 -0.4033
29891SOL    HW290252   3.919   9.581   3.786  0.0156  0.6838  0.3702
29892SOL     OW90253   3.472   9.575   9.029 -0.1901  0.2802  0.1145
29892SOL    HW190254   3.480   9.600   9.121 -0.2314 -0.5524  0.3584
29892SOL    HW290255   3.451   9.481   9.032 -2.9824  0.8043 -0.6657
29893SOL     OW90256   4.691   1.764   9.146  0.9033 -0.5243  0.2796
29893SOL    HW190257   4.686   1.779   9.241  1.1670 -0.7925  0.3372
29893SOL    HW290258   4.761   1.822   9.116  1.3032 -0.9564  0.3615
29894SOL     OW90259   7.882   6.971   7.239  0.1175  0.1155  0.4491
29894SOL    HW190260   7.876   6.901   7.303  0.3988 -1.9747 -1.6663
29894SOL    HW290261   7.912   6.928   7.159 -2.1923  2.1821 -1.6984
29895SOL     OW90262   8.865   3.761   8.750  0.6238  0.0696 -0.1471
29895SOL    HW190263   8.872   3.667   8.736  0.3364  0.2210 -1.4540
29895SOL    HW290264   8.847   3.770   8.844  1.2623 -1.1302  0.1141
29896SOL     OW90265   0.601   3.507   0.789  0.3431 -0.0561 -0.0507
29896SOL    HW190266   0.537   3.530   0.722 -1.1548 -1.3176  0.8515
29896SOL    HW290267   0.620   3.589   0.833 -2.5031  0.1100  1.1341
29897SOL     OW90268   4.241   8.778   2.259  0.3795 -0.1028 -0.0975
29897SOL    HW190269   4.225   8.694   2.216  0.0121  0.0721 -0.3106
29897SOL    HW290270   4.156   8.803   2.297  1.1462 -1.2565  2.5972
29898SOL     OW90271   8.132   0.569   3.062  0.3612  0.5096 -0.2978
29898SOL    HW190272   8.183   0.582   3.142  0.5400  0.7209 -0.4430
29898SOL    HW290273   8.063   0.635   3.067  0.1564  0.2844 -0.1455
29899SOL     OW90274   7.208   3.667   1.794 -0.1158  0.5085  0.3551
29899SOL    HW190275   7.131   3.690   1.846 -0.8399  0.4259 -0.6446
29899SOL    HW290276   7.182   3.587   1.748  0.9291 -0.0764  0.7432
29900SOL     OW90277   2.243   6.141   9.198 -0.3479 -0.0669 -0.1316
29900SOL    HW190278   2.183   6.113   9.267  0.4587 -0.1130  0.5640
29900SOL    HW290279   2.253   6.063   9.142  0.3559 -0.5938  0.6993
29901SOL     OW90280   1.101   3.264   9.162 -0.1365  0.3919  0.0732
29901SOL    HW190281   1.181   3.262   9.108 -0.3578  1.6807 -0.3395
29901SOL    HW290282   1.107   3.186   9.216  1.1317  0.1623 -0.3561
29902SOL     OW90283   7.159   0.530   8.036 -0.1645  0.1408 -0.2420
29902SOL    HW190284   7.082   0.533   7.978 -0.8071 -2.0505  0.4158
29902SOL    HW290285   7.166   0.439   8.063  2.1266  0.4667  0.5054
29903SOL     OW90286   0.010   2.633   6.279  0.4864 -0.3716  0.2339
29903SOL    HW190287  -0.049   2.586   6.220  0.2169  0.0105  0.2027
29903SOL    HW290288   0.049   2.702   6.225  1.6403 -1.1629  0.0119
29904SOL     OW90289   5.231   3.487   9.374 -0.2702 -0.2731 -0.0516
29904SOL    HW190290   5.184   3.502   9.292 -1.1861  0.2730  0.5483
29904SOL    HW290291   5.164   3.451   9.433  0.4391 -0.9152  0.3756
29905SOL     OW90292   1.655   6.220   8.357 -0.2100  0.1701  0.0636
29905SOL    HW190293   1.714   6.183   8.291  0.6580  2.6015 -0.6184
29905SOL    HW290294   1.705   6.291   8.397 -2.2746  1.5496  0.3084
29906SOL     OW90295   0.689   8.200   5.766  0.8644  0.3759 -0.1504
29906SOL    HW190296   0.623   8.131   5.758  0.3940  0.9671 -1.9126
29906SOL    HW290297   0.696   8.216   5.860 -0.5098 -0.6405  0.1619
29907SOL     OW90298   3.785   9.377   5.485 -0.2136  0.6041 -0.1547
29907SOL    HW190299   3.695   9.347   5.475 -0.2978  1.0904 -0.9410
29907SOL    HW290300   3.826   9.312   5.542 -0.7059 -0.3435 -0.8606
29908SOL     OW90301   9.379   5.052   1.434  0.6733 -0.3711  0.3124
29908SOL    HW190302   9.299   5.018   1.474  0.0727  0.4789 -0.1419
29908SOL    HW290303   9.450   5.017   1.489 -0.0749 -0.0817  1.4962
29909SOL     OW90304   0.250   5.843   3.519 -0.4597  0.1687 -0.4001
29909SOL    HW190305   0.343   5.867   3.524 -0.3326 -0.3769  0.0141
29909SOL    HW290306   0.235   5.789   3.596 -1.0407 -0.0284 -0.6414
29910SOL     OW90307   2.009   6.112   7.448 -0.3330 -0.2390 -0.3099
29910SOL    HW190308   1.986   6.146   7.362  0.1199  0.2140 -0.2571
29910SOL    HW290309   2.098   6.143   7.463 -0.0665 -1.0986 -0.0749
29911SOL     OW90310   6.289   2.166   6.969  0.2595 -0.1192  0.0302
29911SOL    HW190311   6.354   2.100   6.994  0.4637  0.4348  1.0235
29911SOL    HW290312   6.262   2.205   7.052 -0.3951  0.5421 -0.4866
29912SOL     OW90313   2.902   8.425   1.216  0.0443  0.3657 -0.0689
29912SOL    HW190314   2.870   8.513   1.197  0.2862  0.5051  0.1670
29912SOL    HW290315   2.961   8.404   1.143 -1.7370 -0.5018 -1.3345
29913SOL     OW90316   3.261   6.927   9.741  1.1283 -0.0638  0.3212
29913SOL    HW190317   3.235   6.979   9.665  0.5498 -2.2077 -0.9976
29913SOL    HW290318   3.232   6.979   9.816 -0.0274  1.2027 -0.9506
29914SOL     OW90319   9.622   7.823   0.232  0.3491  0.0562  0.2931
29914SOL    HW190320   9.604   7.837   0.324  1.6285 -0.6359  0.6697
29914SOL    HW290321   9.619   7.728   0.220  0.7753  0.0985 -0.2382
29915SOL     OW90322   4.777   5.442   2.289  0.6476 -0.1775  0.0016
29915SOL    HW190323   4.851   5.386   2.314  1.1792  0.3469 -0.3668
29915SOL    HW290324   4.807   5.531   2.309 -0.1124  0.0027  0.3955
29916SOL     OW90325   0.282   1.568   2.137 -0.8540  0.0656  0.1154
29916SOL    HW190326   0.246   1.497   2.190  0.6480  0.1090  1.2553
29916SOL    HW290327   0.357   1.529   2.092  0.5529  1.0911  1.4552
29917SOL     OW90328   8.654   4.575   5.175  0.3339  0.5863  0.0330
29917SOL    HW190329   8.569   4.613   5.200 -0.2423 -1.3181  1.1584
29917SOL    HW290330   8.715   4.648   5.181 -0.9455  1.6517  0.7392
29918SOL     OW90331   1.253   1.143   6.015  0.2275  0.0080  0.2340
29918SOL    HW190332   1.300   1.213   6.060  1.6572  0.0546 -1.2240
29918SOL    HW290333   1.268   1.160   5.922 -1.9893 -0.4963 -0.2936
29919SOL     OW90334   2.599   5.762   3.230 -0.6966 -0.1581 -0.2375
29919SOL    HW190335   2.515   5.729   3.199  0.1410 -1.8998 -0.8431
29919SOL    HW290336   2.655   5.684   3.233  0.7762  0.8783  0.5451
29920SOL     OW90337   5.602   4.014   9.744  0.2119  0.0230 -0.0661
29920SOL    HW190338   5.674   3.970   9.699 -0.2059  0.2132 -0.9546
29920SOL    HW290339   5.643   4.086   9.791  0.5234  0.7023 -1.3176
29921SOL     OW90340   5.577   7.772   3.501 -0.1345  0.5098  0.5170
29921SOL    HW190341   5.548   7.694   3.455 -1.1560 -0.1354  2.1854
29921SOL    HW290342   5.673   7.770   3.493 -0.2569  0.5410 -1.6674
29922SOL     OW90343   6.614   3.348   2.639 -0.0272 -0.3956  0.1142
29922SOL    HW190344   6.527   3.370   2.673  0.8270  1.5766  1.2233
29922SOL    HW290345   6.636   3.421   2.580  1.5705  0.1404  1.2833
29923SOL     OW90346   3.324   5.608   8.814 -0.0653  0.0151 -0.0809
29923SOL    HW190347   3.287   5.539   8.760  1.2425 -0.1641 -0.8033
29923SOL    HW290348   3.248   5.656   8.848 -0.9973 -1.7363  0.4251
29924SOL     OW90349   1.410   0.935   1.729 -0.3793 -0.2655 -0.0013
29924SOL    HW190350   1.332   0.947   1.675  1.0055 -0.1452 -2.0817
29924SOL    HW290351   1.441   1.023   1.748  0.8011 -0.2711 -1.6452
29925SOL     OW90352   6.697   4.869   6.202 -0.5728  0.1151  0.6217
29925SOL    HW190353   6.698   4.876   6.298 -1.2268 -0.0544  0.6408
29925SOL    HW290354   6.787   4.890   6.176 -0.9087  2.4143  1.1148
29926SOL     OW90355   3.480   7.571   4.622 -0.1772 -0.2137  0.2957
29926SOL    HW190356   3.480   7.569   4.526  0.0880 -1.7205  0.2977
29926SOL    HW290357   3.388   7.576   4.647 -0.2591 -0.0546 -0.0349
29927SOL     OW90358   7.271   6.088   9.665 -0.4549  0.9384 -0.0732
29927SOL    HW190359   7.240   6.014   9.613  0.0575  0.4835  0.2690
29927SOL    HW290360   7.208   6.158   9.646  0.5236  1.2602 -2.4611
29928SOL     OW90361   2.334   8.039   5.951 -0.5574 -0.7010  0.0155
29928SOL    HW190362   2.323   7.947   5.928  1.8067 -1.0455  0.0789
29928SOL    HW290363   2.395   8.073   5.887 -0.9317  0.6843  0.3630
29929SOL     OW90364   3.522   8.630   2.059 -0.5286 -0.1390  0.5770
29929SOL    HW190365   3.545   8.543   2.027  0.7997  0.4747 -0.2212
29929SOL    HW290366   3.474   8.671   1.987 -0.1465  0.1938  0.5099
29930SOL     OW90367   9.385   2.352   3.924  0.1914  0.0528 -0.2254
29930SOL    HW190368   9.355   2.337   4.014  2.4137  1.0059  0.7233
29930SOL    HW290369   9.394   2.264   3.887 -0.6459 -0.3458  0.4804
29931SOL     OW90370   6.798  10.010   1.101 -0.0659 -0.8540 -0.3207
29931SOL    HW190371   6.739   9.970   1.038 -0.6348 -2.1807  0.9824
29931SOL    HW290372   6.814   9.941   1.166 -0.3462  0.7372  1.5400
29932SOL     OW90373   4.231   4.639   0.370  0.3746 -0.3584  0.2743
29932SOL    HW190374   4.272   4.725   0.381  0.2192 -0.2658  0.1441
29932SOL    HW290375   4.304   4.579   0.360  0.4817 -0.2146  0.1816
29933SOL     OW90376   1.877   7.189   0.632  0.2875  0.1359 -1.1363
29933SOL    HW190377   1.896   7.276   0.668  1.5837  0.0217 -1.5092
29933SOL    HW290378   1.951   7.170   0.574  0.6120 -1.6957 -0.2002
29934SOL     OW90379   7.517   0.109   5.646 -0.2331 -0.1654 -0.0059
29934SOL    HW190380   7.523   0.064   5.562  0.2041 -1.4292  0.6663
29934SOL    HW290381   7.456   0.181   5.631 -0.0198 -0.2591 -1.4381
29935SOL     OW90382   0.136   0.509   3.902  0.2179  0.1627  0.0559
29935SOL    HW190383   0.047   0.501   3.867  1.3583 -0.1779 -3.0834
29935SOL    HW290384   0.192   0.473   3.834  2.8015  0.2366  1.9870
29936SOL     OW90385   9.386   9.034   5.136 -0.0947  0.5406 -0.0169
29936SOL    HW190386   9.414   9.022   5.227 -0.3880 -0.0444 -0.0001
29936SOL    HW290387   9.305   9.086   5.142 -1.0730 -0.9383  0.1847
29937SOL     OW90388   2.665   9.059   3.387 -0.1372  0.2423 -0.3551
29937SOL    HW190389   2.652   8.992   3.319 -0.0959  0.1593 -0.2817
29937SOL    HW290390   2.665   9.010   3.469  2.4434 -0.0326 -0.4324
29938SOL     OW90391   0.154   6.108   7.912 -0.3293  0.0375 -0.3336
29938SOL    HW190392   0.061   6.106   7.934  0.5065 -0.3950  4.1302
29938SOL    HW290393   0.173   6.200   7.895 -1.2767  0.3968  0.4742
29939SOL     OW90394   9.978   4.802   9.889 -0.4149 -0.8098 -0.0129
29939SOL    HW190395  10.004   4.731   9.830  1.2229  0.4814 -0.9241
29939SOL    HW290396   9.953   4.874   9.831  0.5319  0.2527  0.8332
29940SOL     OW90397   7.043   3.350   4.003 -0.4837 -0.3203  0.0091
29940SOL    HW190398   7.020   3.440   4.027  3.2255  1.2088 -1.5210
29940SOL    HW290399   6.987   3.330   3.928 -0.2498  1.3854 -0.6634
29941SOL     OW90400   3.345   7.605   2.722  0.7974  0.0918  0.3143
29941SOL    HW190401   3.356   7.697   2.696 -0.0362  0.6071  1.6904
29941SOL    HW290402   3.351   7.557   2.640  1.0389  1.3930 -0.4695
29942SOL     OW90403   7.962   1.902   3.397  0.4148 -0.4040 -0.7796
29942SOL    HW190404   8.029   1.847   3.438  1.6250  1.9596  0.5814
29942SOL    HW290405   7.958   1.980   3.451 -2.0638  0.4102 -1.9913
29943SOL     OW90406   3.102   5.792   8.853 -0.3194 -0.2270  0.0114
29943SOL    HW190407   3.038   5.784   8.782 -0.5217  0.4245  0.1196
29943SOL    HW290408   3.049   5.787   8.933 -0.3965  1.4555  0.1015
29944SOL     OW90409   3.219   8.552   9.237  0.9477  0.1847  0.7445
29944SOL    HW190410   3.139   8.500   9.242  1.6261 -0.9859 -0.1072
29944SOL    HW290411   3.277   8.516   9.304  1.2174  0.2057  0.5276
29945SOL     OW90412   8.101   0.132   5.942 -0.0178  0.1406  0.5298
29945SOL    HW190413   8.037   0.104   6.007 -1.5292 -2.7677 -1.9316
29945SOL    HW290414   8.071   0.092   5.860  2.9145  1.8043 -1.5623
29946SOL     OW90415   6.448   1.938   9.900  0.0783  0.2536  0.0367
29946SOL    HW190416   6.498   1.911   9.977 -1.5016  1.5637  1.6206
29946SOL    HW290417   6.477   1.880   9.830  1.1011 -1.4276  1.7864
29947SOL     OW90418   1.090   2.630   4.309 -0.3051 -0.3806  0.2413
29947SOL    HW190419   1.142   2.554   4.333  0.6214  0.5073  1.1717
29947SOL    HW290420   1.024   2.637   4.379 -2.4061 -2.0913 -1.4522
29948SOL     OW90421   2.744   1.698   6.020 -0.5111  0.7879 -0.3393
29948SOL    HW190422   2.731   1.717   5.927 -1.5956 -0.0694 -0.3775
29948SOL    HW290423   2.768   1.605   6.023 -0.2971  0.8552  0.2292
29949SOL     OW90424   3.513   2.954   1.624 -0.3905  0.1171  0.4081
29949SOL    HW190425   3.504   2.997   1.539  1.4790 -1.2568 -0.5507
29949SOL    HW290426   3.533   2.863   1.603 -0.1769 -0.3178  2.3332
29950SOL     OW90427   0.303   0.856   8.260 -0.1842  0.1309  0.0807
29950SOL    HW190428   0.312   0.774   8.211 -2.0455  0.7760 -1.4953
29950SOL    HW290429   0.293   0.829   8.351  0.4765 -1.3036 -0.2448
29951SOL     OW90430   8.068   2.342   1.978  0.3113 -0.4771 -0.1054
29951SOL    HW190431   8.011   2.274   1.942 -1.8177  0.5894  1.0429
29951SOL    HW290432   8.035   2.357   2.066  1.4222  1.2572  0.0662
29952SOL     OW90433   2.780   7.695   5.340 -0.2751  0.2479 -0.3038
29952SOL    HW190434   2.751   7.609   5.312  0.4517 -0.8942  2.1889
29952SOL    HW290435   2.735   7.756   5.281 -0.0691 -1.8151 -2.7364
29953SOL     OW90436   3.954   5.342   2.211  0.7427 -0.5602  0.3338
29953SOL    HW190437   3.932   5.405   2.280  0.5754  1.8754 -1.7819
29953SOL    HW290438   4.047   5.324   2.224  0.8775  0.3965  0.8197
29954SOL     OW90439   0.753   2.536   9.005  0.1719  0.7527  0.2635
29954SOL    HW190440   0.797   2.470   8.951  0.5116  0.4496  0.8952
29954SOL    HW290441   0.718   2.487   9.079 -0.0741  1.2013  0.4490
29955SOL     OW90442   4.080   2.860   5.021  1.0724  0.4427  0.0051
29955SOL    HW190443   4.024   2.878   4.945  2.7837 -0.4530 -1.5346
29955SOL    HW290444   4.094   2.946   5.061  0.0819  0.9141 -0.6098
29956SOL     OW90445   1.138   2.018   2.772 -0.7037 -0.2574  0.9207
29956SOL    HW190446   1.129   1.963   2.851  1.0905  1.0163  2.0768
29956SOL    HW290447   1.073   2.087   2.784 -0.9140 -0.4516  0.9206
29957SOL     OW90448   6.236   2.276   7.242  0.0321 -0.0213 -0.4128
29957SOL    HW190449   6.241   2.187   7.275  0.0273  0.0719 -0.1595
29957SOL    HW290450   6.273   2.330   7.312 -0.0505  0.1853 -0.5269
29958SOL     OW90451   8.468   8.522   4.311  0.0684 -0.0877 -0.6589
29958SOL    HW190452   8.496   8.613   4.323  0.0301 -0.1248 -0.2701
29958SOL    HW290453   8.415   8.523   4.231 -1.2856  0.5401  0.2128
29959SOL     OW90454   1.450   3.046   3.202 -0.1467  0.0210  0.2172
29959SOL    HW190455   1.439   3.008   3.289 -1.4145  0.8113  0.4261
29959SOL    HW290456   1.428   2.975   3.142  3.7008 -1.5525  0.3424
29960SOL     OW90457   9.450   7.088   9.489 -0.2916  0.0823  0.9078
29960SOL    HW190458   9.370   7.123   9.450  1.0821  2.2246 -0.2267
29960SOL    HW290459   9.481   7.158   9.547  1.7857  0.2011 -0.2550
29961SOL     OW90460   6.608   0.996   4.795  0.8100  0.0980 -0.0922
29961SOL    HW190461   6.605   0.989   4.699  1.0753  1.6016 -0.2386
29961SOL    HW290462   6.700   0.988   4.817  0.7177 -0.5717  0.0873
29962SOL     OW90463   7.681   8.646   1.589 -0.7014  0.1733  0.3996
29962SOL    HW190464   7.718   8.734   1.594  0.3010 -0.2742  1.0921
29962SOL    HW290465   7.757   8.588   1.595 -1.4462 -0.7585  1.0099
29963SOL     OW90466   0.475   3.346   6.018  0.1179  0.2467 -0.2424
29963SOL    HW190467   0.550   3.391   5.979  0.5413 -0.1413  0.1227
29963SOL    HW290468   0.426   3.313   5.943  1.6021 -1.6034 -0.4809
29964SOL     OW90469   9.935   5.178   4.087 -0.1234  0.4301  0.5762
29964SOL    HW190470  10.029   5.192   4.098  0.1581  0.2868 -1.3138
29964SOL    HW290471   9.925   5.082   4.087  0.7945 -0.0460 -5.5519
29965SOL     OW90472   9.804   6.287   8.133  0.0248  0.1020  0.1829
29965SOL    HW190473   9.759   6.312   8.213  0.2506  2.0090 -0.2413
29965SOL    HW290474   9.891   6.326   8.141  0.0901  0.2298 -0.9174
29966SOL     OW90475   4.933   9.580   1.998  0.2256  0.3347 -0.5236
29966SOL    HW190476   4.847   9.563   2.035  0.3434 -1.5975 -1.0483
29966SOL    HW290477   4.953   9.503   1.945  2.0988  0.9163 -0.7685
29967SOL     OW90478   8.833   4.468   9.604 -0.1026 -0.2342  0.2119
29967SOL    HW190479   8.883   4.388   9.619 -1.2912 -0.5741  2.9469
29967SOL    HW290480   8.898   4.534   9.580  1.3183 -1.2595  1.1403
29968SOL     OW90481   2.049   2.590   1.035 -0.0711  0.9878 -0.7611
29968SOL    HW190482   2.135   2.629   1.047 -0.1680  1.6887 -2.1120
29968SOL    HW290483   2.067   2.498   1.013  0.3561  1.2093 -1.3488
29969SOL     OW90484   8.778   7.389   0.760 -0.3435  0.1688  0.2154
29969SOL    HW190485   8.803   7.411   0.850 -0.5964 -1.0179  0.5956
29969SOL    HW290486   8.809   7.299   0.748  1.8870  1.0787 -1.7313
29970SOL     OW90487   4.516   7.536   0.909  0.0207 -0.0052  0.4219
29970SOL    HW190488   4.450   7.594   0.869  1.1908  0.8963 -0.2730
29970SOL    HW290489   4.488   7.448   0.884 -0.4535  0.4162 -0.6126
29971SOL     OW90490   9.522   8.245   3.786 -0.8699  0.1721 -0.1316
29971SOL    HW190491   9.441   8.297   3.786 -0.6681  0.5054 -0.8912
29971SOL    HW290492   9.520   8.198   3.702 -0.6376 -0.4106  0.1787
29972SOL     OW90493   2.780   6.839   2.990  0.5688 -0.4472 -0.3015
29972SOL    HW190494   2.708   6.903   2.996 -0.5026 -1.7059  1.0470
29972SOL    HW290495   2.779   6.794   3.075  2.3434 -1.1655 -0.6252
29973SOL     OW90496   0.775   4.922   0.864  0.7455 -1.3134 -0.2202
29973SOL    HW190497   0.838   4.974   0.815 -1.9921  1.1485 -1.4479
29973SOL    HW290498   0.815   4.908   0.950  1.7507  2.8542  0.1783
29974SOL     OW90499   1.470   1.604   8.895 -0.0131  0.3785  0.4799
29974SOL    HW190500   1.545   1.618   8.952 -0.7279  3.2307  0.9030
29974SOL    HW290501   1.412   1.546   8.944  1.2439 -0.6682  0.7648
29975SOL     OW90502   2.889   0.846   8.248  0.4863 -0.3092 -0.4016
29975SOL    HW190503   2.795   0.829   8.246  0.6426 -1.1853 -2.1578
29975SOL    HW290504   2.898   0.936   8.217  0.1609  0.3890  1.3979
29976SOL     OW90505   5.293   6.888   6.730  0.3475 -0.6285 -0.4458
29976SOL    HW190506   5.314   6.977   6.701 -0.0451  0.6773  2.8275
29976SOL    HW290507   5.378   6.846   6.743  0.6663  0.4381  1.1096
29977SOL     OW90508   6.823   4.165   6.468 -0.1656 -0.3400  0.0028
29977SOL    HW190509   6.760   4.179   6.397  0.9868  0.8750 -0.8197
29977SOL    HW290510   6.857   4.253   6.487  0.1007 -0.7526  1.5476
29978SOL     OW90511   3.161   7.038   8.699  0.1591 -0.7465  0.4313
29978SOL    HW190512   3.166   7.001   8.610  2.1590 -1.0664  0.6339
29978SOL    HW290513   3.160   6.961   8.756  2.6405 -0.6179  0.7833
29979SOL     OW90514   4.569   4.014   0.820 -0.2265  0.3941 -0.0871
29979SOL    HW190515   4.614   4.008   0.905  0.0576  1.2327 -0.1689
29979SOL    HW290516   4.478   4.033   0.842  0.1176  2.1279  0.0334
29980SOL     OW90517   7.668   2.257   6.851 -0.1073  0.4958 -0.0940
29980SOL    HW190518   7.653   2.231   6.942 -0.5109 -0.1377 -0.3304
29980SOL    HW290519   7.691   2.175   6.806 -0.9427  0.6106 -0.7658
29981SOL     OW90520   5.523   1.629   0.062 -0.1155  0.0569  0.2820
29981SOL    HW190521   5.565   1.681   0.131  0.6511 -1.3094  0.8805
29981SOL    HW290522   5.595   1.601   0.006 -0.7484  1.2295 -1.1556
29982SOL     OW90523   7.274   1.434   7.584 -0.5443 -0.2168 -0.1920
29982SOL    HW190524   7.358   1.396   7.608 -0.7280 -2.3853 -2.5276
29982SOL    HW290525   7.225   1.361   7.545 -2.8821  1.3537 -0.4140
29983SOL     OW90526   9.843   9.106   7.636  0.4535 -0.0746 -0.1551
29983SOL    HW190527   9.819   9.132   7.547 -0.2789 -1.4035 -0.3744
29983SOL    HW290528   9.780   9.151   7.692  1.0125  0.8892 -0.2710
29984SOL     OW90529   3.139   0.662   8.233  0.1973  0.2289 -0.2235
29984SOL    HW190530   3.224   0.704   8.248  0.7470 -1.7158  3.1387
29984SOL    HW290531   3.075   0.731   8.249  1.1371  1.0134  0.2632
29985SOL     OW90532   9.182   4.444   5.364 -0.1365 -0.2436 -0.2871
29985SOL    HW190533   9.277   4.431   5.366  0.0660  1.1977 -0.0394
29985SOL    HW290534   9.164   4.473   5.275 -0.2532  0.1156 -0.1463
29986SOL     OW90535   5.674   4.734   7.209  0.0176  0.0509  0.4732
29986SOL    HW190536   5.622   4.797   7.259  1.5357 -0.1767  2.4794
29986SOL    HW290537   5.613   4.664   7.188 -1.0602  0.9336  0.5869
29987SOL     OW90538   3.078   3.481   6.732  0.0385 -0.1102 -0.2169
29987SOL    HW190539   3.026   3.558   6.709  0.0282 -0.0250  0.0873
29987SOL    HW290540   3.063   3.469   6.826  0.8384  0.1196 -0.0572
29988SOL     OW90541   9.589   8.707   2.892 -0.6528 -0.4209 -0.1037
29988SOL    HW190542   9.500   8.681   2.915 -0.1651 -0.3777  1.9477
29988SOL    HW290543   9.611   8.776   2.954  1.6968 -2.1606  1.1515
29989SOL     OW90544   3.439   7.383   8.518  0.2652  0.2352 -0.2255
29989SOL    HW190545   3.516   7.348   8.562 -0.5583  1.0159  1.9432
29989SOL    HW290546   3.450   7.357   8.426  3.0617  0.2938  0.0220
29990SOL     OW90547   4.616   3.702   1.291  0.2764  0.0946 -0.5067
29990SOL    HW190548   4.693   3.648   1.275  1.0247  0.7905  0.5747
29990SOL    HW290549   4.634   3.783   1.243 -0.8837 -0.5910 -2.2036
29991SOL     OW90550   3.469   1.604   2.894  0.1532 -0.4956  1.2093
29991SOL    HW190551   3.441   1.667   2.827  1.1854 -0.8477  0.4074
29991SOL    HW290552   3.406   1.533   2.887 -1.2960  0.6089  2.4346
29992SOL     OW90553   8.281   8.266   6.934 -0.5450  0.5318 -0.5989
29992SOL    HW190554   8.207   8.253   6.875 -0.8659  2.4135 -0.7029
29992SOL    HW290555   8.274   8.196   6.998 -0.2901 -1.4818 -2.6216
29993SOL     OW90556   6.435   1.677   9.738  0.0039  0.4132 -0.2081
29993SOL    HW190557   6.383   1.598   9.727  0.3445  0.0867  0.4662
29993SOL    HW290558   6.525   1.650   9.717 -0.0459  0.8867 -1.0317
29994SOL     OW90559   7.821   4.752   9.724  0.1320 -0.0991  0.1259
29994SOL    HW190560   7.781   4.738   9.810  1.4649 -0.2823  0.7404
29994SOL    HW290561   7.756   4.803   9.675 -1.0790 -0.8647  0.8786
29995SOL     OW90562   4.707   2.935   0.507  0.2007  0.3001  0.1687
29995SOL    HW190563   4.734   2.849   0.474  0.9990  0.1510  1.1551
29995SOL    HW290564   4.742   2.938   0.596 -0.1291  1.5116  0.2722
29996SOL     OW90565   1.853   9.779   8.969  0.7717  0.0987  0.4969
29996SOL    HW190566   1.888   9.852   9.019 -0.9588  0.6676  0.9651
29996SOL    HW290567   1.905   9.777   8.889  1.1559  1.5480  0.6845
29997SOL     OW90568   7.145   5.077   3.467 -0.5018 -0.3337 -0.1592
29997SOL    HW190569   7.153   5.065   3.561  3.1130 -0.1897 -0.3278
29997SOL    HW290570   7.127   5.170   3.455 -2.3123 -0.5818  0.3590
29998SOL     OW90571   1.017   4.945   4.795 -0.1980  0.2139  0.2119
29998SOL    HW190572   0.926   4.925   4.775  0.3726 -1.5476 -0.8922
29998SOL    HW290573   1.027   4.924   4.888 -0.4554 -1.6247 -0.1400
29999SOL     OW90574   0.515   2.938   5.740  0.1453 -0.8400 -0.2324
29999SOL    HW190575   0.436   2.981   5.773  0.3469 -0.7368  0.1099
29999SOL    HW290576   0.532   2.980   5.655  0.1520 -0.4822 -0.0526
30000SOL     OW90577   3.014   2.575   9.082  0.2867 -0.1832 -0.0404
30000SOL    HW190578   3.087   2.516   9.062  0.4356  0.3635 -1.2184
30000SOL    HW290579   3.023   2.646   9.018  0.8085  1.7665  2.0709
30001SOL     OW90580   0.165   0.165   6.260  0.3566  0.1384 -0.3064
30001SOL    HW190581   0.093   0.204   6.310 -1.0009  1.5892 -3.0974
30001SOL    HW290582   0.241   0.218   6.283  0.2427 -0.4824  1.6156
30002SOL     OW90583   8.907   0.589   9.220 -0.4194  0.4092  0.6077
30002SOL    HW190584   8.927   0.499   9.245 -1.2224  0.2111  0.5785
30002SOL    HW290585   8.989   0.623   9.184 -0.4383 -0.7449 -0.6404
30003SOL     OW90586   3.984   9.436   0.322  0.4710  0.3398  0.3463
30003SOL    HW190587   3.972   9.369   0.389 -0.3259 -0.1884 -0.3240
30003SOL    HW290588   4.048   9.398   0.261  1.2455  0.8464  0.8166
30004SOL     OW90589   2.718   8.122   6.245  0.1774  0.4253 -0.0234
30004SOL    HW190590   2.724   8.032   6.213  1.7653  0.4793  0.0609
30004SOL    HW290591   2.735   8.176   6.168  1.0415  0.6107  0.2904
30005SOL     OW90592   0.300   2.071   1.245 -0.2791 -0.5408 -0.0633
30005SOL    HW190593   0.213   2.056   1.283 -0.1744 -0.4194  0.2305
30005SOL    HW290594   0.297   2.027   1.160 -1.1012  0.6297 -0.6671
30006SOL     OW90595   7.345   3.149   5.300 -0.0191  0.0453 -0.2645
30006SOL    HW190596   7.258   3.176   5.270  0.0422 -0.8599 -1.3129
30006SOL    HW290597   7.345   3.054   5.293  1.3414  0.0789 -1.1209
30007SOL     OW90598   2.996   2.186   8.502  0.4112  0.2716  0.1584
30007SOL    HW190599   3.035   2.105   8.535 -1.8658 -1.4873 -1.0973
30007SOL    HW290600   2.985   2.241   8.579  2.7711 -0.2383  0.9321
30008SOL     OW90601   4.000   0.026   5.625 -0.2495 -0.5582 -0.2678
30008SOL    HW190602   4.059   0.048   5.552  0.5904 -0.2997  0.4746
30008SOL    HW290603   3.966  -0.061   5.603  1.3174 -1.2303 -0.1626
30009SOL     OW90604   5.722   6.940   1.874  0.4963 -0.0066  0.1672
30009SOL    HW190605   5.769   7.022   1.889  0.1718  0.3152 -0.5216
30009SOL    HW290606   5.642   6.948   1.926  0.3919  0.1806 -0.0223
30010SOL     OW90607   5.940   4.071   8.617  0.3263 -0.0557  0.0826
30010SOL    HW190608   5.908   4.109   8.698 -0.1728 -0.3356  0.0206
30010SOL    HW290609   5.940   3.976   8.633 -0.4043 -0.1567 -0.4616
30011SOL     OW90610   1.880   9.329   3.938  0.1876 -0.3259 -0.0134
30011SOL    HW190611   1.810   9.304   3.998  1.2897 -0.2984  1.3254
30011SOL    HW290612   1.876   9.424   3.934 -1.0651 -0.3884 -1.5026
30012SOL     OW90613   1.063   8.712   8.214  0.1852 -0.0194  0.6698
30012SOL    HW190614   0.969   8.729   8.210  0.1233 -0.5537 -0.9910
30012SOL    HW290615   1.085   8.679   8.127  2.1988  1.5377  0.5064
30013SOL     OW90616   3.987   5.368   9.835 -0.1471 -0.5532  0.3419
30013SOL    HW190617   4.001   5.287   9.787 -0.4947  0.0662 -0.8330
30013SOL    HW290618   3.925   5.344   9.904 -0.6425 -1.1820 -0.3014
30014SOL     OW90619   3.639   4.955   6.326 -0.2302  0.3017  0.2663
30014SOL    HW190620   3.692   5.006   6.388 -1.8442  0.6630  1.4205
30014SOL    HW290621   3.628   5.013   6.251  0.5165  0.4415  0.2509
30015SOL     OW90622   6.730   0.538   6.187 -0.6578 -0.7594 -0.6164
30015SOL    HW190623   6.680   0.507   6.263 -4.3105  0.0659 -2.4541
30015SOL    HW290624   6.738   0.632   6.201  0.1705 -0.8396 -0.5025
30016SOL     OW90625   0.048   6.971   9.832  0.3588  0.3436 -0.2805
30016SOL    HW190626   0.069   6.921   9.911 -1.0871  2.4018  1.5216
30016SOL    HW290627   0.085   7.058   9.847 -0.5365  0.9827 -1.5570
30017SOL     OW90628   2.462   4.829   3.556  0.0717  0.4140 -0.7554
30017SOL    HW190629   2.516   4.749   3.551 -2.1244 -1.1335 -1.2780
30017SOL    HW290630   2.503   4.889   3.494  1.3871 -0.5702 -0.8928
30018SOL     OW90631   0.865   6.869   4.242  0.3952  0.0195 -0.1600
30018SOL    HW190632   0.797   6.832   4.185 -1.4750  1.2028  1.1759
30018SOL    HW290633   0.822   6.944   4.283  1.9572 -0.2599  2.1112
30019SOL     OW90634   9.452   8.834   1.999  0.3619 -0.0907 -0.2903
30019SOL    HW190635   9.433   8.753   2.046 -0.1189 -0.5128 -1.1869
30019SOL    HW290636   9.526   8.812   1.942  1.5736  0.6820  0.9163
30020SOL     OW90637   6.911   0.913   6.063  0.6723 -0.2202  0.3898
30020SOL    HW190638   6.838   0.975   6.063 -0.2081 -1.2019 -1.0300
30020SOL    HW290639   6.968   0.943   5.991 -1.1465 -2.5007 -2.1965
30021SOL     OW90640   3.944   8.325   4.867  0.2665 -0.1801  0.2270
30021SOL    HW190641   3.919   8.415   4.849  0.6483  0.1225  1.1341
30021SOL    HW290642   4.037   8.321   4.846 -0.2677 -1.0499 -2.2202
30022SOL     OW90643   2.358   7.302   5.551  0.0701  0.0386 -0.8794
30022SOL    HW190644   2.308   7.234   5.505 -1.4957  0.8954 -0.5097
30022SOL    HW290645   2.294   7.344   5.608  1.2369  1.1955 -0.3797
30023SOL     OW90646   1.218   4.344   7.398 -0.4316 -0.5921 -0.1147
30023SOL    HW190647   1.177   4.428   7.417  1.3050  0.5537 -1.1823
30023SOL    HW290648   1.217   4.297   7.481 -2.7001 -0.1266  0.1780
30024SOL     OW90649   2.509   5.189   1.857 -1.0365 -0.5330  0.1420
30024SOL    HW190650   2.508   5.255   1.788 -0.9646  0.0693  0.7017
30024SOL    HW290651   2.581   5.216   1.914 -1.1661 -0.9578  0.5101
30025SOL     OW90652   2.910   9.798   1.833 -0.3261 -0.6834 -0.4148
30025SOL    HW190653   2.932   9.792   1.740  0.1037  0.2077 -0.3748
30025SOL    HW290654   2.834   9.739   1.843  0.5372 -1.9406 -1.0128
30026SOL     OW90655   1.886   3.976   3.720  0.5189  0.2751 -0.2065
30026SOL    HW190656   1.910   3.895   3.674  1.6878  0.3698  0.2012
30026SOL    HW290657   1.903   3.957   3.812  0.1779  0.7701 -0.0409
30027SOL     OW90658   0.343   6.081   8.227  0.4319  0.5865  0.2722
30027SOL    HW190659   0.357   6.164   8.181  1.3984  0.2515 -0.0558
30027SOL    HW290660   0.297   6.106   8.307 -1.1056  1.2117 -0.7394
30028SOL     OW90661   5.583   0.678   5.625 -0.3734 -0.1298 -0.6480
30028SOL    HW190662   5.569   0.625   5.704  2.4108  0.5684  0.4429
30028SOL    HW290663   5.512   0.743   5.627 -0.6245 -0.4033  1.0578
30029SOL     OW90664   5.149   8.686   9.355  0.2684 -0.2727 -0.6092
30029SOL    HW190665   5.149   8.608   9.410  2.0038 -0.8431 -1.3504
30029SOL    HW290666   5.241   8.710   9.347 -0.2529  3.0906  1.2595
30030SOL     OW90667   6.816   7.579   3.599 -0.2412  1.1259 -0.0489
30030SOL    HW190668   6.847   7.668   3.610 -1.3312  1.4234  0.7648
30030SOL    HW290669   6.744   7.586   3.536  0.8088  0.5468 -1.3654
30031SOL     OW90670   3.657   0.834   3.950 -0.5045 -0.2704  0.1473
30031SOL    HW190671   3.722   0.778   3.908 -0.3947  0.4089 -0.6146
30031SOL    HW290672   3.574   0.790   3.935 -0.4489 -0.1080 -0.6766
30032SOL     OW90673   0.185   0.621   7.272  0.2010 -0.5444  0.0909
30032SOL    HW190674   0.192   0.544   7.215 -1.0392 -0.7891  0.2295
30032SOL    HW290675   0.242   0.686   7.232 -2.0717 -0.0104 -2.5970
30033SOL     OW90676   2.477   2.658   0.801  0.1070 -0.2425 -0.0839
30033SOL    HW190677   2.516   2.576   0.771  1.9738  0.7118 -0.4115
30033SOL    HW290678   2.496   2.661   0.894 -1.4218 -0.9180  0.2827
30034SOL     OW90679   4.733   7.538   4.729  0.1554 -0.3237  0.3510
30034SOL    HW190680   4.750   7.598   4.656  1.6336 -0.8259  0.2636
30034SOL    HW290681   4.637   7.540   4.739  0.0244  0.6403 -0.8328
30035SOL     OW90682   8.765   7.127   5.654 -0.3123  0.5254 -0.1001
30035SOL    HW190683   8.846   7.172   5.681 -1.5165  1.5697  2.1184
30035SOL    HW290684   8.744   7.164   5.568 -0.7103  3.6599  1.1951
30036SOL     OW90685   4.573   2.720   2.302  0.4991  0.4752 -0.1669
30036SOL    HW190686   4.623   2.802   2.304  2.1701 -0.5140  0.3584
30036SOL    HW290687   4.594   2.677   2.385 -0.9671 -0.1561 -0.0937
30037SOL     OW90688   4.592   2.895   3.201 -0.0917 -0.2646  0.0433
30037SOL    HW190689   4.503   2.906   3.235 -0.4502  0.4309 -1.0626
30037SOL    HW290690   4.584   2.832   3.130  0.3428 -0.3983  0.1073
30038SOL     OW90691   8.905   4.956   6.675  0.2935 -0.1513 -0.1103
30038SOL    HW190692   8.814   4.939   6.650  0.6489 -2.9559  0.1367
30038SOL    HW290693   8.947   4.870   6.670  2.1916  0.4909  2.8010
30039SOL     OW90694   8.694   1.831   4.777 -0.2266 -0.1232 -0.2223
30039SOL    HW190695   8.692   1.920   4.740 -0.3475 -0.1798 -0.3562
30039SOL    HW290696   8.723   1.843   4.867 -0.3648  0.0683 -0.2009
30040SOL     OW90697   4.599   3.461   7.158  0.0797  0.0344  0.1976
30040SOL    HW190698   4.599   3.394   7.225 -0.3523 -0.5201 -0.3464
30040SOL    HW290699   4.610   3.413   7.075 -1.9609  0.4328 -0.3613
30041SOL     OW90700   9.953   6.547   6.618 -0.1459  0.3405 -0.7495
30041SOL    HW190701   9.921   6.610   6.553  0.2196  1.9369  0.5531
30041SOL    HW290702   9.996   6.601   6.684 -1.2242 -1.1484  1.2665
30042SOL     OW90703   8.754   1.805   0.536  0.6175 -0.7899 -0.0021
30042SOL    HW190704   8.774   1.859   0.460 -0.3110  0.5949  0.6931
30042SOL    HW290705   8.756   1.715   0.503  1.5442 -0.3091 -1.3383
30043SOL     OW90706   4.924   4.098   6.987  0.0106  0.2510  0.6627
30043SOL    HW190707   4.839   4.081   6.946  0.7662 -1.2540 -0.4031
30043SOL    HW290708   4.986   4.094   6.914  0.9944  1.5873  1.3789
30044SOL     OW90709   0.300   8.813   0.179  0.3533 -0.0638  0.0640
30044SOL    HW190710   0.248   8.738   0.209  2.1430 -0.0941  3.5885
30044SOL    HW290711   0.348   8.780   0.103 -2.2101 -0.9953 -1.2838
30045SOL     OW90712   7.530   5.865   7.138 -0.8911  0.2515 -0.0637
30045SOL    HW190713   7.513   5.894   7.049  0.7665  0.0222 -0.4911
30045SOL    HW290714   7.470   5.916   7.192 -1.7493  0.5746 -1.2744
30046SOL     OW90715   4.742   8.652   8.539 -0.5354 -0.1631 -0.0307
30046SOL    HW190716   4.752   8.716   8.610 -0.7314 -0.9816  0.7594
30046SOL    HW290717   4.683   8.586   8.574  1.6050 -2.1228  0.1857
30047SOL     OW90718   7.394   4.667   2.154 -0.5698 -0.3940 -0.1049
30047SOL    HW190719   7.390   4.701   2.243 -1.5032  0.1034 -0.3273
30047SOL    HW290720   7.345   4.730   2.102  0.4214 -0.3929 -1.0763
30048SOL     OW90721   6.987   7.646   4.391  0.1679  0.4855  0.2441
30048SOL    HW190722   6.994   7.647   4.487  2.7929 -0.3290  0.1328
30048SOL    HW290723   7.066   7.691   4.361 -0.0176 -0.3146 -1.5498
30049SOL     OW90724   2.136   5.616   6.152  0.2537 -0.2375  0.4491
30049SOL    HW190725   2.076   5.691   6.147 -0.1583 -0.6030 -0.4441
30049SOL    HW290726   2.134   5.589   6.244  1.6277  1.8035  1.1493
30050SOL     OW90727   4.192   9.933   6.175  0.3377 -0.4915 -0.0751
30050SOL    HW190728   4.278   9.918   6.135  0.0305  0.1108 -0.9999
30050SOL    HW290729   4.129   9.908   6.107 -0.3762 -4.3379  1.7273
30051SOL     OW90730   7.918   3.742   1.436 -0.2024  0.3353  0.0126
30051SOL    HW190731   7.951   3.658   1.405  0.3109  0.6348 -0.2710
30051SOL    HW290732   7.904   3.730   1.530 -1.3181 -0.4368 -0.2297
30052SOL     OW90733   4.487   2.794   4.366  0.8700  0.2825  0.6324
30052SOL    HW190734   4.445   2.872   4.403  1.6439 -0.1359  2.4580
30052SOL    HW290735   4.489   2.731   4.437 -1.1475 -2.0581 -1.2118
30053SOL     OW90736   4.538   6.485   0.544 -0.4863 -0.5181 -0.3498
30053SOL    HW190737   4.505   6.396   0.533  0.1531 -0.7064 -0.8615
30053SOL    HW290738   4.546   6.518   0.454 -1.4202  0.3289 -0.1379
30054SOL     OW90739   7.112   3.936   2.073 -0.0995  0.2099 -0.1460
30054SOL    HW190740   7.037   3.903   2.122 -0.5252  2.5133  0.9043
30054SOL    HW290741   7.073   3.979   1.996 -0.0738  2.4219  0.9783
30055SOL     OW90742   3.368   2.291   1.352 -0.4109 -0.7360  0.4421
30055SOL    HW190743   3.316   2.349   1.297  1.6019  0.9490  0.2178
30055SOL    HW290744   3.396   2.221   1.294 -2.6536 -1.9240  0.6604
30056SOL     OW90745   7.764   5.398   3.351  0.8074 -0.3174 -0.0115
30056SOL    HW190746   7.731   5.329   3.294  0.6255 -0.8128  0.6839
30056SOL    HW290747   7.790   5.468   3.291 -1.5187  0.1222 -0.6091
30057SOL     OW90748   4.327   9.708   0.377 -0.7588 -0.0608  0.9707
30057SOL    HW190749   4.305   9.680   0.466 -1.6941  1.0329  1.0965
30057SOL    HW290750   4.243   9.732   0.338 -0.3321 -0.3571 -0.1572
30058SOL     OW90751   1.986   6.513   9.599 -0.4108 -0.2874 -0.3232
30058SOL    HW190752   1.912   6.478   9.549 -2.3875  1.5340  1.1404
30058SOL    HW290753   1.968   6.487   9.690  0.2510  0.9727  0.1907
30059SOL     OW90754   8.528   4.334   0.217 -0.0940  0.1333 -0.3402
30059SOL    HW190755   8.452   4.321   0.160  0.0313 -1.1171 -0.2415
30059SOL    HW290756   8.528   4.258   0.275  0.3974  0.8610  0.6347
30060SOL     OW90757   1.559   2.575   0.901  0.1040  0.0326 -0.2751
30060SOL    HW190758   1.548   2.591   0.995 -0.0713 -0.9904 -0.1114
30060SOL    HW290759   1.652   2.556   0.891  0.1066  0.0596 -0.3019
30061SOL     OW90760   5.430   5.467   8.624 -0.4047  0.0212  0.4640
30061SOL    HW190761   5.403   5.554   8.650 -1.8877  0.4364 -2.1291
30061SOL    HW290762   5.350   5.414   8.627 -0.7787  0.1575 -3.0164
30062SOL     OW90763   6.386   3.789   2.747 -0.2736  0.5326 -0.0445
30062SOL    HW190764   6.350   3.846   2.814  0.6792 -0.5897  1.4753
30062SOL    HW290765   6.464   3.751   2.786 -1.1826 -2.2885 -0.6975
30063SOL     OW90766   8.817   9.400   8.403 -0.0692 -0.3299 -0.1444
30063SOL    HW190767   8.748   9.465   8.391 -0.4246 -0.5323  0.7330
30063SOL    HW290768   8.882   9.421   8.336 -0.7560  0.1598 -0.6696
30064SOL     OW90769   6.023   2.778   4.613 -0.3491 -0.0697  0.2830
30064SOL    HW190770   6.019   2.790   4.708 -0.4251  1.0691  0.1433
30064SOL    HW290771   5.960   2.841   4.578 -0.9781 -1.0891 -0.4878
30065SOL     OW90772   9.446   7.726   1.495  0.6628 -0.2405  0.2215
30065SOL    HW190773   9.427   7.756   1.406  1.6760  0.6684  0.2847
30065SOL    HW290774   9.541   7.731   1.502  0.5053  3.0401  2.4162
30066SOL     OW90775   8.742   5.242   6.771  0.7933  0.3008 -0.2185
30066SOL    HW190776   8.830   5.274   6.789  0.8247  0.0178  0.1378
30066SOL    HW290777   8.700   5.235   6.857 -0.0723  1.8349 -0.4866
30067SOL     OW90778   9.597   4.406   8.603  0.5138  0.0786 -0.0483
30067SOL    HW190779   9.633   4.367   8.523  1.5952  0.5456  0.1904
30067SOL    HW290780   9.663   4.387   8.670  0.2291  0.8106  0.4492
30068SOL     OW90781   5.814   4.337   8.079 -0.4340  0.0177  0.2273
30068SOL    HW190782   5.790   4.346   7.987 -0.5506 -1.1926  0.1281
30068SOL    HW290783   5.824   4.243   8.093  3.0048  0.3158  0.5927
30069SOL     OW90784   2.740   4.815   4.512 -0.2780 -0.7877 -0.1340
30069SOL    HW190785   2.666   4.797   4.454 -0.5882 -1.4577  0.4385
30069SOL    HW290786   2.818   4.792   4.461 -0.3885  0.7489 -1.0466
30070SOL     OW90787   1.183   2.704   5.836  0.0174 -0.1946 -0.1365
30070SOL    HW190788   1.250   2.773   5.830  1.2515 -1.3413 -0.0597
30070SOL    HW290789   1.231   2.627   5.866 -1.8928 -0.2836  3.2402
30071SOL     OW90790   6.907   4.406   2.410  0.5302  0.4146 -0.2297
30071SOL    HW190791   6.961   4.412   2.331 -0.4605  1.8538 -0.8360
30071SOL    HW290792   6.821   4.379   2.378 -0.1660  2.0316  0.1854
30072SOL     OW90793   6.467   1.159   8.324  0.1294  0.0151  0.0855
30072SOL    HW190794   6.426   1.160   8.237  0.9281 -1.1856 -0.3314
30072SOL    HW290795   6.548   1.209   8.313 -1.5209  3.1977  1.1374
30073SOL     OW90796   2.783   4.024   4.531  0.0990 -0.1740  0.8782
30073SOL    HW190797   2.855   4.067   4.485 -0.0625  1.1671  1.7914
30073SOL    HW290798   2.788   4.059   4.620 -2.3970  0.9263  0.6676
30074SOL     OW90799   9.494   9.889   9.409 -0.3362 -0.1193 -0.2516
30074SOL    HW190800   9.552   9.963   9.387 -1.3389  0.9372  0.5259
30074SOL    HW290801   9.407   9.918   9.382 -1.4225  0.7047  3.5182
30075SOL     OW90802   1.138   4.352   2.952  0.5131 -0.5328 -0.4975
30075SOL    HW190803   1.083   4.311   2.886 -0.9566  0.3765  0.1105
30075SOL    HW290804   1.177   4.428   2.907  1.4472 -1.2722 -0.9755
30076SOL     OW90805   8.118   4.800   9.033  0.2087 -0.4284  0.2616
30076SOL    HW190806   8.073   4.864   9.088  0.5130  0.9059 -1.0096
30076SOL    HW290807   8.197   4.778   9.082  0.3620  0.5586  0.4672
30077SOL     OW90808   3.239   9.391   9.357  0.5711 -0.1400  0.2941
30077SOL    HW190809   3.247   9.445   9.436  1.5702 -0.7988  0.6827
30077SOL    HW290810   3.162   9.423   9.312  1.1501  1.6210  0.4942
30078SOL     OW90811   3.762   5.152   7.789  0.8616 -0.3089 -0.2316
30078SOL    HW190812   3.826   5.185   7.727  0.7112 -0.6713 -0.5817
30078SOL    HW290813   3.807   5.081   7.835  0.4767 -1.0756 -1.0056
30079SOL     OW90814   7.401   0.606   3.543 -0.1047 -0.1695  0.0084
30079SOL    HW190815   7.327   0.560   3.584  0.9066  0.3403  2.6114
30079SOL    HW290816   7.363   0.689   3.512 -1.0366 -0.8350 -0.6929
30080SOL     OW90817   2.500   0.429   7.201 -0.7694 -0.1052  0.6764
30080SOL    HW190818   2.530   0.385   7.121 -1.2172  2.1730 -0.8328
30080SOL    HW290819   2.578   0.472   7.236 -0.6224 -0.9126  1.3729
30081SOL     OW90820   3.576   7.964   4.499 -0.0879  0.0866 -0.2409
30081SOL    HW190821   3.541   7.941   4.585  0.2440 -2.4632 -0.7108
30081SOL    HW290822   3.567   8.059   4.494 -1.7098  0.1201  1.9015
30082SOL     OW90823   9.934   5.842   5.226  0.3571 -0.2091  0.2275
30082SOL    HW190824   9.891   5.827   5.310 -1.3058 -0.1477 -0.5642
30082SOL    HW290825   9.990   5.765   5.214  2.4968  0.8683  2.4151
30083SOL     OW90826   6.284   3.824   8.528 -0.0957 -0.7006 -0.3352
30083SOL    HW190827   6.348   3.854   8.464  0.3570  0.3197  0.5775
30083SOL    HW290828   6.266   3.900   8.583 -0.9214 -1.3901  0.3956
30084SOL     OW90829   8.275   4.277   6.303  0.7937 -0.4491  0.0636
30084SOL    HW190830   8.311   4.324   6.228  0.9962 -0.1439  0.3509
30084SOL    HW290831   8.300   4.186   6.288  2.3488 -0.1513  0.6211
30085SOL     OW90832   5.219   0.772   0.552  0.2232  0.4946  0.6165
30085SOL    HW190833   5.278   0.733   0.487  0.2970 -1.5350  1.8049
30085SOL    HW290834   5.277   0.818   0.613  0.6167 -1.2049  1.5900
30086SOL     OW90835   8.546   9.286   0.365 -0.1472 -0.2189 -0.4031
30086SOL    HW190836   8.540   9.213   0.304 -0.1551  0.6101 -1.4071
30086SOL    HW290837   8.637   9.284   0.396 -0.8349 -2.3948  1.8261
30087SOL     OW90838   2.621   8.808   2.441  0.2899  0.2521 -0.1813
30087SOL    HW190839   2.528   8.796   2.459 -0.2105  1.2932 -1.7916
30087SOL    HW290840   2.665   8.784   2.522 -1.1774 -2.6086 -0.1200
30088SOL     OW90841   1.391   6.057   7.015  0.4589  0.0266 -0.0907
30088SOL    HW190842   1.386   6.039   6.921 -0.3385 -0.8849  0.1108
30088SOL    HW290843   1.323   6.002   7.054 -0.4034  1.6657  0.8480
30089SOL     OW90844   1.508   5.285   8.697 -0.2998 -0.2152  0.2475
30089SOL    HW190845   1.558   5.360   8.727 -0.2887 -0.4478  0.8192
30089SOL    HW290846   1.419   5.319   8.686 -0.1567  0.0402 -0.1441
30090SOL     OW90847   4.344   8.170   0.055 -0.2103  0.1756  0.1735
30090SOL    HW190848   4.406   8.098   0.039  0.5789  0.3003  2.3545
30090SOL    HW290849   4.361   8.232  -0.015  0.0709 -1.1186 -0.9581
30091SOL     OW90850   8.611   0.442   7.044 -0.8957 -0.5155  0.1488
30091SOL    HW190851   8.544   0.379   7.015 -1.3908  0.6157 -1.2480
30091SOL    HW290852   8.687   0.388   7.064 -0.8999 -1.5066 -2.2054
30092SOL     OW90853   6.925   7.415   0.374 -0.0859  0.3686 -0.0814
30092SOL    HW190854   6.896   7.406   0.283  0.4060  0.4072 -0.2448
30092SOL    HW290855   7.019   7.399   0.371 -0.2557 -0.9242  0.6139
30093SOL     OW90856   8.306   6.433   0.234  0.0335  0.1757  0.3174
30093SOL    HW190857   8.230   6.463   0.282 -0.0755 -0.4712  0.5598
30093SOL    HW290858   8.280   6.349   0.197  0.2757  0.4408 -0.4803
30094SOL     OW90859   5.527   3.741   7.982 -0.5644  0.0941 -0.8676
30094SOL    HW190860   5.544   3.647   7.980  0.2734  0.2431 -1.3846
30094SOL    HW290861   5.525   3.763   8.075 -0.7735 -0.4314 -0.7407
30095SOL     OW90862   4.590   7.194   4.207  0.3513 -0.1075 -0.2869
30095SOL    HW190863   4.502   7.156   4.203  0.2638  0.1892 -2.0468
30095SOL    HW290864   4.576   7.282   4.243  0.4509 -1.2896  2.9528
30096SOL     OW90865   1.472   6.239   6.697 -0.0548  0.7811 -0.0859
30096SOL    HW190866   1.516   6.322   6.678  1.5810  0.5171  2.1684
30096SOL    HW290867   1.389   6.265   6.737 -1.0430  1.2742 -2.2996
30097SOL     OW90868   2.619   2.350   6.968 -0.1842 -0.1726 -0.3089
30097SOL    HW190869   2.712   2.332   6.953 -0.3293 -1.2652  0.0345
30097SOL    HW290870   2.605   2.330   7.061 -0.4525  1.4140  0.0239
30098SOL     OW90871   4.099   7.628   6.175 -0.0020 -0.0039  0.6335
30098SOL    HW190872   4.108   7.571   6.252  0.4375 -0.6127  0.1426
30098SOL    HW290873   4.018   7.676   6.191  0.3080  0.2082  1.6882
30099SOL     OW90874   8.935   1.995   2.562 -0.0674 -0.4992  0.9868
30099SOL    HW190875   8.966   2.062   2.501  0.9922 -0.6099  1.3877
30099SOL    HW290876   8.912   1.920   2.507 -2.5229  0.5819  0.3826
30100SOL     OW90877   4.730   1.854   2.986  0.0827 -0.1734 -0.5440
30100SOL    HW190878   4.648   1.857   3.035 -0.5095 -0.3162 -1.4884
30100SOL    HW290879   4.720   1.920   2.918  2.4071  2.8155  1.7320
30101SOL     OW90880   7.047   6.923   6.215  0.3828 -0.2679  0.6830
30101SOL    HW190881   7.036   6.999   6.272  0.0148 -0.7610  1.2820
30101SOL    HW290882   7.046   6.848   6.274 -1.5621 -0.9183 -0.0893
30102SOL     OW90883   6.176   6.097   5.068 -0.0778 -0.1496  0.6373
30102SOL    HW190884   6.238   6.026   5.082 -0.4634 -0.8493 -0.9540
30102SOL    HW290885   6.230   6.177   5.072  0.9142 -0.7293 -0.5026
30103SOL     OW90886   5.249   5.454   5.815  0.1906 -0.1256  0.3250
30103SOL    HW190887   5.213   5.367   5.830 -1.7048  0.6484  0.5064
30103SOL    HW290888   5.236   5.500   5.898  1.6084  0.2149  0.3867
30104SOL     OW90889   9.285   1.537   2.558  0.0913 -0.0659 -0.1925
30104SOL    HW190890   9.360   1.579   2.600 -0.6588  0.1317  1.0093
30104SOL    HW290891   9.215   1.603   2.563 -0.1831 -0.2598 -1.2449
30105SOL     OW90892   4.597   7.519   8.963 -0.0865  0.9751 -0.0449
30105SOL    HW190893   4.523   7.480   8.916 -0.3477  1.3090  0.0907
30105SOL    HW290894   4.567   7.529   9.053  0.7608 -0.5901  0.4430
30106SOL     OW90895   3.871   6.955   4.035 -0.1199 -0.0010 -0.4184
30106SOL    HW190896   3.951   6.999   4.063  0.3165 -0.3955 -1.0098
30106SOL    HW290897   3.854   6.891   4.103  0.5477 -0.4850 -0.6913
30107SOL     OW90898   9.914   4.612   6.407  0.3440 -0.6255  0.5575
30107SOL    HW190899   9.989   4.558   6.380  0.6107 -0.0378  0.1020
30107SOL    HW290900   9.838   4.555   6.396  0.6424 -0.9673  0.2488
30108SOL     OW90901   7.140   9.923   5.295 -0.4147 -0.3672 -0.1261
30108SOL    HW190902   7.117   9.873   5.374  1.1793  1.3104  1.4849
30108SOL    HW290903   7.209   9.871   5.254  1.1371  0.3274  1.4653
30109SOL     OW90904   8.107   6.628   0.714  0.1100 -0.1704  0.8478
30109SOL    HW190905   8.189   6.677   0.706  0.0770 -0.2663 -0.2280
30109SOL    HW290906   8.039   6.690   0.686 -0.0249 -0.5360  0.3388
30110SOL     OW90907   9.189   3.390   4.082 -0.4944 -0.6646 -0.0948
30110SOL    HW190908   9.277   3.397   4.119 -0.9077 -0.2889  0.8374
30110SOL    HW290909   9.135   3.446   4.137 -1.3645 -1.0417 -0.5447
30111SOL     OW90910   6.518   9.084   2.595 -0.0840 -0.1796 -0.0871
30111SOL    HW190911   6.509   8.996   2.631  0.0271  0.0455  0.4866
30111SOL    HW290912   6.603   9.083   2.551 -0.7126 -0.8080 -1.3585
30112SOL     OW90913   5.491   8.960   7.417  0.2575  0.5106  0.5643
30112SOL    HW190914   5.510   8.893   7.483  2.2303 -1.0529 -1.4354
30112SOL    HW290915   5.471   9.038   7.467  1.9588 -0.5201  3.0346
30113SOL     OW90916   7.673   2.134   5.482 -0.2953  0.3361  0.7598
30113SOL    HW190917   7.754   2.084   5.482 -0.2052  0.4619 -0.5930
30113SOL    HW290918   7.604   2.069   5.494 -0.0770  0.0832  0.6274
30114SOL     OW90919   6.951   4.435   2.681  0.3685  0.8168  0.2898
30114SOL    HW190920   6.936   4.412   2.590  0.9028  0.8931  0.1755
30114SOL    HW290921   6.868   4.469   2.712 -0.4191 -1.0737  0.4042
30115SOL     OW90922   6.220   7.737   2.819  0.0665 -0.3604  0.4193
30115SOL    HW190923   6.139   7.778   2.790  0.1027 -0.6105 -0.0436
30115SOL    HW290924   6.210   7.645   2.798 -0.0634 -0.6219  1.5795
30116SOL     OW90925   6.917   5.344   2.809  0.0300 -0.1224 -0.1083
30116SOL    HW190926   6.884   5.259   2.780 -0.8761 -2.1282  5.6138
30116SOL    HW290927   7.001   5.324   2.851  0.7320  2.1909 -0.2769
30117SOL     OW90928   9.898   3.348   8.032 -0.2737  0.2537 -0.1295
30117SOL    HW190929   9.942   3.267   8.004  1.8778  1.0832  0.6654
30117SOL    HW290930   9.857   3.381   7.952  1.5692  0.0379 -1.2208
30118SOL     OW90931   2.007   6.058   0.268  0.4592 -0.4437 -0.2862
30118SOL    HW190932   2.075   6.111   0.225  0.2607  0.3927  0.3983
30118SOL    HW290933   2.052   6.017   0.342  0.0696  0.7187  0.6234
30119SOL     OW90934   6.599   8.765   0.290  0.0736 -0.4753 -0.2182
30119SOL    HW190935   6.529   8.699   0.288  0.9619 -1.4269 -0.7069
30119SOL    HW290936   6.598   8.804   0.203 -0.3651  0.0918  0.0302
30120SOL     OW90937   2.047   3.971   5.249  0.1603 -0.0690 -0.5632
30120SOL    HW190938   1.983   3.921   5.198  0.5005  1.2133 -2.3227
30120SOL    HW290939   2.124   3.915   5.254 -0.0892 -0.4466 -0.9443
30121SOL     OW90940   6.843   7.611   4.745  0.0230 -0.3669  0.0917
30121SOL    HW190941   6.809   7.693   4.710 -0.1099 -0.6945 -0.5569
30121SOL    HW290942   6.794   7.543   4.699 -1.6736 -0.8270  2.4278
30122SOL     OW90943   6.346   0.116   7.001  0.1198 -1.1623 -0.3740
30122SOL    HW190944   6.434   0.081   7.018  1.0421 -0.1006 -2.5641
30122SOL    HW290945   6.322   0.081   6.915 -0.5869  0.4191 -0.8537
30123SOL     OW90946   0.084   6.173   0.235  1.0148 -0.5349  0.3210
30123SOL    HW190947   0.058   6.097   0.288 -0.4111 -1.1059 -1.1073
30123SOL    HW290948   0.172   6.195   0.265  1.0711 -2.1595  1.4395
30124SOL     OW90949   7.972   0.720   2.706 -0.3445 -0.3100  0.8412
30124SOL    HW190950   7.959   0.625   2.712  1.4373 -0.7050 -0.5301
30124SOL    HW290951   8.026   0.742   2.781 -2.0159 -0.0731  2.0198
30125SOL     OW90952   4.785   5.180   9.207  0.2870 -0.1559 -0.0118
30125SOL    HW190953   4.852   5.201   9.142  0.5383  1.1883  0.6614
30125SOL    HW290954   4.834   5.168   9.288 -0.4106  3.9035  1.2281
30126SOL     OW90955   2.435   8.448   5.788 -0.2834 -0.7093 -0.2285
30126SOL    HW190956   2.416   8.526   5.736  0.2072 -0.4765 -0.0690
30126SOL    HW290957   2.384   8.378   5.747  0.4630 -0.6380 -1.3117
30127SOL     OW90958   5.315   8.361   2.519 -0.1394  0.0078 -0.2001
30127SOL    HW190959   5.229   8.323   2.532 -0.2711  0.7817  1.6094
30127SOL    HW290960   5.299   8.456   2.519  0.6061  0.1380 -0.7304
30128SOL     OW90961   8.098   8.902   0.004  0.3817 -0.1052  0.6224
30128SOL    HW190962   8.156   8.830  -0.019 -0.0260 -0.4858  0.7647
30128SOL    HW290963   8.108   8.912   0.099  1.4193  0.8980  0.4243
30129SOL     OW90964   6.303   7.814   6.603  0.0862 -0.1587  0.2026
30129SOL    HW190965   6.383   7.769   6.627 -0.5852  0.8566  5.4340
30129SOL    HW290966   6.324   7.907   6.611 -0.8004  0.2820 -1.8552
30130SOL     OW90967   8.346   1.396   6.146 -0.1714 -0.5143  0.6545
30130SOL    HW190968   8.314   1.391   6.056  0.1548  0.1032  0.4993
30130SOL    HW290969   8.375   1.487   6.157  2.9849 -1.3697  0.2762
30131SOL     OW90970   7.598   1.411   4.818 -0.0083  0.1869 -0.1676
30131SOL    HW190971   7.574   1.486   4.764 -1.9905 -0.3702 -0.1421
30131SOL    HW290972   7.568   1.335   4.768  1.2014 -0.5649  0.1961
30132SOL     OW90973   4.954   4.186   6.224 -0.4060  0.1206 -0.4154
30132SOL    HW190974   4.902   4.203   6.146  0.9479 -1.4111 -1.7219
30132SOL    HW290975   5.028   4.247   6.217  0.6444 -1.1952 -1.3154
30133SOL     OW90976   4.671   1.761   5.253 -0.4048 -0.2378  0.0077
30133SOL    HW190977   4.633   1.800   5.331  1.0967 -1.4461  1.4248
30133SOL    HW290978   4.738   1.824   5.225 -0.7839  0.0866 -0.1787
30134SOL     OW90979   5.954   2.874   4.885 -0.0587 -0.1959 -0.2821
30134SOL    HW190980   5.893   2.944   4.861 -0.1115  0.5117  1.7154
30134SOL    HW290981   5.898   2.803   4.914 -0.0313 -1.4127 -2.9467
30135SOL     OW90982   2.595   3.973   6.952  0.1790  0.3674 -0.0178
30135SOL    HW190983   2.584   4.003   6.862 -1.6832  0.2991  0.1444
30135SOL    HW290984   2.546   3.891   6.956  0.6075  0.1439  0.9545
30136SOL     OW90985   7.138   1.389   0.547  0.1841  0.2369  0.1078
30136SOL    HW190986   7.086   1.309   0.536 -2.5391  1.9283 -0.3023
30136SOL    HW290987   7.096   1.435   0.619  1.7155  1.3376  0.3454
30137SOL     OW90988   0.981   8.253   5.811 -0.0715 -0.5865  0.1114
30137SOL    HW190989   1.037   8.178   5.793 -0.2420 -0.2252 -2.3063
30137SOL    HW290990   0.892   8.220   5.798 -0.4262 -0.8571  2.7547
30138SOL     OW90991   9.680   9.403   4.555 -0.3184  0.1203  0.1984
30138SOL    HW190992   9.644   9.322   4.591 -3.1719  0.9773 -0.4361
30138SOL    HW290993   9.628   9.472   4.595 -0.3714  1.3796 -1.8710
30139SOL     OW90994   4.345   3.274   9.833 -0.1831 -0.4020 -0.0991
30139SOL    HW190995   4.325   3.181   9.847  2.6407 -1.0781  0.0019
30139SOL    HW290996   4.262   3.312   9.804 -1.0939 -3.2385 -1.5916
30140SOL     OW90997   7.073   2.774   2.577  0.3841  0.1138 -0.3150
30140SOL    HW190998   7.080   2.678   2.577 -0.0508  0.0228 -2.5310
30140SOL    HW290999   7.014   2.793   2.504  0.4542  2.0863  0.0930
30141SOL     OW91000   5.968   4.634   8.763  0.6020 -0.4287  0.5299
30141SOL    HW191001   6.037   4.576   8.796  0.0629 -0.1868  2.1734
30141SOL    HW291002   6.015   4.705   8.719  1.3347 -1.0561  0.2809
30142SOL     OW91003   5.529   7.079   2.688 -0.5324  0.6450 -1.0945
30142SOL    HW191004   5.469   7.083   2.763  0.8292 -0.7735  0.1445
30142SOL    HW291005   5.499   7.004   2.637  2.3390 -2.8067  1.6990
30143SOL     OW91006   3.564   4.942   2.511 -0.3159 -0.4248  0.6587
30143SOL    HW191007   3.612   5.004   2.455  3.4399 -2.3299  1.4277
30143SOL    HW291008   3.539   4.994   2.587  0.3243  0.7515  0.1075
30144SOL     OW91009   3.670   8.647   5.265  0.0002  0.6423 -0.1260
30144SOL    HW191010   3.697   8.624   5.176  0.2315 -0.7989  0.2929
30144SOL    HW291011   3.750   8.639   5.317 -0.2714  0.8444  0.3274
30145SOL     OW91012   3.483   7.778   3.765  0.0787 -0.3300 -0.3633
30145SOL    HW191013   3.492   7.690   3.729 -1.4066  0.1364 -1.9854
30145SOL    HW291014   3.446   7.764   3.852  1.0138 -1.3473 -0.1085
30146SOL     OW91015   2.280   5.434   1.214 -0.4330 -0.2022 -0.0499
30146SOL    HW191016   2.342   5.464   1.148 -0.4690 -1.7664 -0.8700
30146SOL    HW291017   2.323   5.449   1.298  0.5669 -0.1954 -0.5503
30147SOL     OW91018   5.873   0.683   9.753  0.6446  0.1248  0.8028
30147SOL    HW191019   5.792   0.634   9.763  0.3091  0.9388  2.3677
30147SOL    HW291020   5.942   0.620   9.772  0.2466  0.0505  2.1032
30148SOL     OW91021   5.592   9.324   4.793  0.7210  0.3849  0.5191
30148SOL    HW191022   5.604   9.331   4.888  0.1934  2.2606  0.4949
30148SOL    HW291023   5.677   9.294   4.760  0.7520 -0.8137  1.6095
30149SOL     OW91024   4.840   2.231   5.156  0.2853  0.2055 -0.0224
30149SOL    HW191025   4.895   2.214   5.232 -1.2750  0.7558  1.2802
30149SOL    HW291026   4.759   2.183   5.175  1.2102 -3.1277 -3.2228
30150SOL     OW91027   3.404   1.660   0.476  0.8517  0.0458 -0.4286
30150SOL    HW191028   3.444   1.588   0.427  0.9434 -0.6574  0.6257
30150SOL    HW291029   3.377   1.723   0.410  3.4383  0.4312 -1.2411
30151SOL     OW91030   2.210   3.559   3.510 -0.1873  0.2221 -0.4369
30151SOL    HW191031   2.266   3.631   3.480  1.6494 -1.1425 -0.4905
30151SOL    HW291032   2.167   3.593   3.589  0.6812  1.3572 -0.4262
30152SOL     OW91033   6.253   0.585   7.634  0.1642  0.6792 -0.0757
30152SOL    HW191034   6.167   0.545   7.644  0.8843 -1.4928 -1.9706
30152SOL    HW291035   6.235   0.672   7.597 -1.1999 -0.0160 -1.1150
30153SOL     OW91036   6.117   9.482   4.919  0.1322 -0.5822  0.5954
30153SOL    HW191037   6.087   9.572   4.928  0.0017 -0.1976 -2.5102
30153SOL    HW291038   6.183   9.472   4.988 -0.3782  1.6134  1.5041
30154SOL     OW91039   1.515   3.748   8.721  0.0916 -0.3339 -0.0941
30154SOL    HW191040   1.598   3.789   8.695  0.5559 -1.4767 -0.4980
30154SOL    HW291041   1.453   3.776   8.654  0.1561  0.4756  0.1691
30155SOL     OW91042   4.103   7.366   2.085 -0.4675  0.0332  0.1076
30155SOL    HW191043   4.072   7.449   2.047  0.3571  1.1579  1.7819
30155SOL    HW291044   4.060   7.360   2.170  0.8243 -0.3573  0.7637
30156SOL     OW91045   2.096   5.963   5.811 -0.7037 -0.4069 -0.4108
30156SOL    HW191046   2.067   5.874   5.833  1.2179 -0.7804  0.9191
30156SOL    HW291047   2.190   5.962   5.830 -0.8636  2.2989  0.9042
30157SOL     OW91048   5.761   7.598   9.034  1.1493  0.0852  0.0900
30157SOL    HW191049   5.743   7.538   9.106  0.1218  1.1013  0.7052
30157SOL    HW291050   5.756   7.543   8.955  1.8521 -0.9503  0.7365
30158SOL     OW91051   3.086   3.704   3.915  0.6091 -0.6416 -0.0883
30158SOL    HW191052   3.020   3.771   3.896  0.7722 -0.5908 -0.5063
30158SOL    HW291053   3.059   3.665   3.997  0.2153 -0.4252 -0.1150
30159SOL     OW91054   0.632   9.697   4.639 -0.7515 -0.6186 -0.1132
30159SOL    HW191055   0.710   9.735   4.598  1.0052 -1.9091  1.8486
30159SOL    HW291056   0.575   9.673   4.566  0.3582  0.9792 -1.5755
30160SOL     OW91057   8.919   4.327   6.954  0.6806 -0.1377  0.2702
30160SOL    HW191058   8.966   4.361   7.030 -1.4213  1.0788  1.1380
30160SOL    HW291059   8.925   4.397   6.888 -0.2314  0.2379  0.5606
30161SOL     OW91060   8.960   1.981   4.173  0.0307 -0.4935 -0.5748
30161SOL    HW191061   8.998   1.901   4.138  0.4343 -0.9091  0.7379
30161SOL    HW291062   8.951   1.964   4.267  0.7339  1.2144 -0.1495
30162SOL     OW91063   2.730   8.662   2.032 -0.4185 -0.0598 -0.2804
30162SOL    HW191064   2.670   8.605   2.080 -0.2033 -0.0714 -0.0209
30162SOL    HW291065   2.776   8.603   1.971 -0.8526 -0.0073 -0.6591
30163SOL     OW91066   6.769   6.013   9.601  0.4162 -0.7296 -0.3882
30163SOL    HW191067   6.697   6.061   9.562  0.8553  0.1817 -0.0995
30163SOL    HW291068   6.846   6.035   9.549  0.7952 -0.3831  0.2939
30164SOL     OW91069   7.785   5.963   5.699  0.1758  1.0050 -0.3547
30164SOL    HW191070   7.754   5.909   5.772  1.3717  0.4943 -0.2068
30164SOL    HW291071   7.785   5.904   5.624  0.0325  1.2252 -0.5316
30165SOL     OW91072   5.195   6.408   0.153  0.1571  0.3939 -1.2594
30165SOL    HW191073   5.101   6.413   0.174  0.0035 -0.1516 -1.7781
30165SOL    HW291074   5.216   6.494   0.116  0.1581  0.9505 -0.0287
30166SOL     OW91075   7.393   4.000   3.667 -0.0943  0.0054 -0.3004
30166SOL    HW191076   7.303   4.032   3.681 -0.3470 -0.9570  0.3604
30166SOL    HW291077   7.383   3.906   3.656  0.9979 -0.3665  1.5023
30167SOL     OW91078   7.307   6.753   6.571  0.0501  0.0443 -0.1689
30167SOL    HW191079   7.381   6.695   6.591 -0.0623 -0.1743 -0.3735
30167SOL    HW291080   7.343   6.817   6.509  0.9678  2.0051  2.2156
30168SOL     OW91081   2.883   5.053   5.242  0.8213 -0.3707  0.0995
30168SOL    HW191082   2.962   5.042   5.189 -1.2682 -0.8544 -3.2442
30168SOL    HW291083   2.828   5.111   5.191 -1.3858 -0.7951  1.8371
30169SOL     OW91084   6.739   5.888   3.755  0.4159 -0.0691  0.4780
30169SOL    HW191085   6.678   5.962   3.764 -0.5178 -0.5934 -1.2151
30169SOL    HW291086   6.700   5.819   3.808  0.7081  0.2852  1.1673
30170SOL     OW91087   7.824   2.590   7.654  0.3213  0.0209 -0.5947
30170SOL    HW191088   7.807   2.612   7.563 -1.9567  1.2956  0.0824
30170SOL    HW291089   7.839   2.495   7.654 -0.6199 -0.1503 -2.1639
30171SOL     OW91090   4.076   0.060   0.326 -0.2493  0.3886 -0.2262
30171SOL    HW191091   4.004   0.086   0.269  0.6694  1.3290 -0.9964
30171SOL    HW291092   4.155   0.084   0.278  0.5618  0.8313  1.2578
30172SOL     OW91093   3.915   0.337   1.464 -0.0336 -0.2505 -0.6587
30172SOL    HW191094   3.871   0.421   1.456  0.8145  0.2402 -0.3080
30172SOL    HW291095   4.003   0.358   1.494 -0.1637 -1.3324  0.6089
30173SOL     OW91096   1.959   7.042   4.011 -0.1506  0.1071  0.1677
30173SOL    HW191097   1.910   6.967   4.046 -1.1605  0.0291 -1.3279
30173SOL    HW291098   1.897   7.116   4.017 -0.4723  0.0346 -1.6318
30174SOL     OW91099   7.823   7.456   7.008 -0.3324  0.0880 -0.7385
30174SOL    HW191100   7.803   7.406   7.087  0.0393  1.2347  0.1097
30174SOL    HW291101   7.916   7.441   6.993 -0.2312  0.4616 -0.5104
30175SOL     OW91102   7.576   1.108   1.855 -0.3471 -0.1618 -0.2273
30175SOL    HW191103   7.481   1.108   1.859 -0.3546  0.5577 -0.2001
30175SOL    HW291104   7.597   1.181   1.796  0.1763 -0.5134 -0.4845
30176SOL     OW91105   5.099   1.161   4.523  0.1480 -0.0778  0.1337
30176SOL    HW191106   5.109   1.237   4.581  3.9788  1.2348 -1.8928
30176SOL    HW291107   5.040   1.191   4.454  1.6000  1.2022 -0.6360
30177SOL     OW91108   9.182   5.998   7.146 -0.4292  0.3196  0.3682
30177SOL    HW191109   9.207   5.994   7.053  0.6447  0.3207  0.6481
30177SOL    HW291110   9.246   5.943   7.190 -0.5490  0.8349  1.1943
30178SOL     OW91111   3.650   7.965   8.499 -0.8337 -0.3259 -0.5336
30178SOL    HW191112   3.728   7.950   8.446  0.2843 -0.4095  1.0633
30178SOL    HW291113   3.647   8.060   8.511 -2.3478 -0.0689 -2.5193
30179SOL     OW91114   6.930   2.309   1.189 -0.4813  0.3939 -0.2765
30179SOL    HW191115   6.848   2.338   1.228 -1.7749 -0.5681 -2.1070
30179SOL    HW291116   6.997   2.359   1.235 -2.2183  2.8040 -0.1169
30180SOL     OW91117   3.927   7.289   6.960  0.1062 -0.0837 -0.3902
30180SOL    HW191118   3.925   7.336   6.877  1.4603  0.4773 -0.1265
30180SOL    HW291119   4.002   7.326   7.007 -0.8657 -0.1168  1.2442
30181SOL     OW91120   0.142   3.482   6.108  0.1077  0.3353  0.3450
30181SOL    HW191121   0.177   3.403   6.066  1.1613  1.0176 -0.0912
30181SOL    HW291122   0.200   3.496   6.183  0.1307  0.9032  0.2182
30182SOL     OW91123   1.266   3.838   8.633 -0.4279  0.0305 -0.1704
30182SOL    HW191124   1.275   3.919   8.583 -0.6930 -0.1768 -0.5585
30182SOL    HW291125   1.239   3.866   8.720  0.7568  0.4482  0.0824
30183SOL     OW91126   6.350   5.270   1.672 -0.1311  0.0362  0.3847
30183SOL    HW191127   6.293   5.290   1.747  0.7433 -0.8863  1.3281
30183SOL    HW291128   6.386   5.184   1.693 -0.2602 -0.4720 -1.3586
30184SOL     OW91129   8.439   1.214   1.117 -0.7086 -0.0623 -0.4244
30184SOL    HW191130   8.431   1.307   1.097 -2.9172 -0.0872  0.0959
30184SOL    HW291131   8.356   1.191   1.159 -0.1816 -2.2576 -0.4553
30185SOL     OW91132   9.722   5.077   9.779 -0.5441 -0.1309 -0.1650
30185SOL    HW191133   9.710   5.027   9.860 -2.0154  1.3669  0.5936
30185SOL    HW291134   9.708   5.168   9.804 -0.4315  0.4370 -2.0057
30186SOL     OW91135   0.497   1.122   4.647  0.1888 -0.6306  0.3289
30186SOL    HW191136   0.494   1.041   4.596  0.1853  0.2371 -1.1142
30186SOL    HW291137   0.452   1.186   4.592 -0.1541  0.2666  1.6126
30187SOL     OW91138   4.488   2.783   2.629  0.0669  0.4079 -0.4150
30187SOL    HW191139   4.430   2.789   2.705 -0.7781  0.8360 -1.0817
30187SOL    HW291140   4.538   2.865   2.631 -1.2616  1.2907 -1.3346
30188SOL     OW91141   8.159   6.751   9.650 -0.1966 -0.2824 -0.0320
30188SOL    HW191142   8.068   6.766   9.626 -0.1183 -2.2798 -1.9523
30188SOL    HW291143   8.154   6.694   9.727 -0.5706 -0.2540 -0.0324
30189SOL     OW91144   4.747   0.599   8.665  0.1416  0.2711  0.3170
30189SOL    HW191145   4.698   0.619   8.585  0.2477  1.5723  0.5587
30189SOL    HW291146   4.689   0.542   8.715 -1.6583  2.6447  1.1075
30190SOL     OW91147   6.892   4.371   1.803 -0.0148 -0.1648  0.0518
30190SOL    HW191148   6.905   4.282   1.835  1.8490 -0.0086 -0.1980
30190SOL    HW291149   6.911   4.367   1.710 -0.2125  0.4405 -0.0224
30191SOL     OW91150   1.382   2.472   3.095  0.1532 -0.0159 -0.0886
30191SOL    HW191151   1.400   2.389   3.052 -1.5390 -0.3804 -0.1472
30191SOL    HW291152   1.287   2.474   3.105  0.1529  1.9310 -0.1189
30192SOL     OW91153   7.190   2.155   5.935  0.1863  0.4808 -0.0732
30192SOL    HW191154   7.121   2.101   5.972  0.4543  1.1506  1.5175
30192SOL    HW291155   7.271   2.119   5.971  1.1618 -2.2963 -4.3158
30193SOL     OW91156   4.372   5.037   3.527 -0.1342  0.1804 -0.1686
30193SOL    HW191157   4.431   5.084   3.586 -0.7175 -1.1345  1.5349
30193SOL    HW291158   4.292   5.024   3.577 -0.0645 -2.4286 -0.5868
30194SOL     OW91159   6.867   7.879   6.388 -0.0270  0.2678  0.3707
30194SOL    HW191160   6.845   7.947   6.324  0.3780 -0.4158 -0.5252
30194SOL    HW291161   6.943   7.835   6.350 -1.2808 -1.7952  0.0559
30195SOL     OW91162   1.472   2.596   0.447  0.0011 -0.0706  0.1665
30195SOL    HW191163   1.556   2.611   0.404 -0.0198  0.4582  0.3005
30195SOL    HW291164   1.453   2.678   0.493 -1.4755  0.5155 -1.3635
30196SOL     OW91165   7.246   9.193   7.342 -0.0984 -0.2064  0.3274
30196SOL    HW191166   7.153   9.218   7.342  0.5134  3.2497 -4.0568
30196SOL    HW291167   7.247   9.105   7.306 -1.6472 -1.0094  2.0699
30197SOL     OW91168   7.971   1.247   8.695  0.5321  0.0616  0.4618
30197SOL    HW191169   7.917   1.284   8.626  1.0509  0.5234  0.2964
30197SOL    HW291170   7.949   1.298   8.773  1.5195  0.9843  0.1509
30198SOL     OW91171   7.769   3.647   7.298 -0.0874  0.0478  0.0234
30198SOL    HW191172   7.792   3.669   7.388  0.4179 -0.7810  0.1114
30198SOL    HW291173   7.725   3.724   7.264 -1.4976 -0.1209  1.4034
30199SOL     OW91174   2.424   0.627   8.317 -0.4142 -0.2940 -0.2151
30199SOL    HW191175   2.417   0.538   8.351  0.9230 -0.6052 -0.6672
30199SOL    HW291176   2.354   0.676   8.360  1.0077 -0.7182  2.8306
30200SOL     OW91177   7.153   7.416   2.723 -0.3607 -0.0728  0.6786
30200SOL    HW191178   7.121   7.327   2.708  0.5730 -0.5184  1.1834
30200SOL    HW291179   7.075   7.471   2.723 -0.8165 -0.6221 -1.4052
30201SOL     OW91180   6.519   4.711   9.701  0.1063 -0.3366 -0.3041
30201SOL    HW191181   6.485   4.626   9.730 -0.4030  0.4020  1.3826
30201SOL    HW291182   6.611   4.710   9.727 -0.0244 -0.1803  0.1664
30202SOL     OW91183   8.036   5.276   1.011 -0.2886 -0.1605  0.3410
30202SOL    HW191184   7.975   5.224   0.959  0.0303  1.3129 -1.6087
30202SOL    HW291185   7.981   5.345   1.049 -0.3819 -0.7778  1.3626
30203SOL     OW91186   8.640   3.561   0.256 -0.4916  0.2707 -0.2837
30203SOL    HW191187   8.651   3.547   0.350  1.0477  0.3273 -0.4407
30203SOL    HW291188   8.594   3.482   0.225  0.5065 -0.5408  0.2526
30204SOL     OW91189   5.951   2.554   5.536 -0.2235 -0.2894 -0.2493
30204SOL    HW191190   6.016   2.484   5.543  1.2318  1.1437  2.1582
30204SOL    HW291191   5.867   2.511   5.554  0.6217 -1.4744  1.0597
30205SOL     OW91192   5.678   2.359   8.377 -0.5338 -0.2373  0.1200
30205SOL    HW191193   5.643   2.444   8.404 -1.7526 -0.7414  0.1667
30205SOL    HW291194   5.773   2.371   8.379 -0.6648  1.6673 -1.6257
30206SOL     OW91195   6.401   5.445   3.530 -0.0902  0.0012 -0.0050
30206SOL    HW191196   6.488   5.482   3.518  1.4401 -2.9881  0.7962
30206SOL    HW291197   6.376   5.473   3.618 -0.1148  1.1311 -0.3522
30207SOL     OW91198   4.111   3.934   9.274 -0.6183 -0.5633  0.6506
30207SOL    HW191199   4.119   3.994   9.347 -2.1461 -0.4569  0.7675
30207SOL    HW291200   4.157   3.977   9.202 -1.0359  0.3932  0.9400
30208SOL     OW91201   0.019   6.254   3.131 -0.4476  0.6904  0.2790
30208SOL    HW191202   0.090   6.315   3.109 -0.7547  0.7071 -0.7577
30208SOL    HW291203   0.060   6.168   3.125 -0.0401  0.7724  1.6359
30209SOL     OW91204   7.744   6.214   9.510 -0.2293  0.1716 -0.2178
30209SOL    HW191205   7.764   6.286   9.570  0.4788 -0.0157 -0.2159
30209SOL    HW291206   7.694   6.152   9.562  0.4222 -0.0104  0.1981
30210SOL     OW91207   4.220   1.184   7.552 -0.0603 -1.5051 -0.2686
30210SOL    HW191208   4.269   1.102   7.565  1.5301 -0.4884  0.5014
30210SOL    HW291209   4.129   1.161   7.569  0.3320 -3.1346 -0.1833
30211SOL     OW91210   5.514   6.055   6.727 -0.4151 -0.0399 -0.3142
30211SOL    HW191211   5.594   6.041   6.677 -1.2527  0.1871 -1.7579
30211SOL    HW291212   5.539   6.117   6.795  0.5179  0.4433 -1.0766
30212SOL     OW91213   3.265   2.748   3.034 -0.1255  0.1913  0.3858
30212SOL    HW191214   3.203   2.690   2.989 -0.2630  0.2728  0.4693
30212SOL    HW291215   3.226   2.835   3.027  0.5411  0.4354 -0.5757
30213SOL     OW91216   3.780   5.163   2.390 -0.3066  0.7242  0.2759
30213SOL    HW191217   3.790   5.245   2.439  0.9353  0.1590  1.0502
30213SOL    HW291218   3.870   5.140   2.365 -0.8092  0.3960 -1.2829
30214SOL     OW91219   1.171   9.501   3.930 -0.1363  0.1055  0.6042
30214SOL    HW191220   1.113   9.456   3.868  1.6978 -1.5677 -0.0262
30214SOL    HW291221   1.168   9.593   3.903 -0.9862 -0.2511 -0.6247
30215SOL     OW91222   9.899   1.824   6.906  0.2366 -0.1839 -0.2369
30215SOL    HW191223   9.972   1.844   6.847 -0.6428  0.9313 -0.9780
30215SOL    HW291224   9.936   1.762   6.969  2.3329  1.7172  0.5208
30216SOL     OW91225   7.485   5.997   7.999  0.3112 -0.0980  0.0835
30216SOL    HW191226   7.431   6.050   8.057 -1.0424 -2.0048  0.6409
30216SOL    HW291227   7.469   5.907   8.026  2.0879 -0.8662 -1.2048
30217SOL     OW91228  -0.029   9.089   7.916  0.0099 -0.4269  0.1016
30217SOL    HW191229   0.008   9.177   7.907  0.4576 -0.4964  1.1372
30217SOL    HW291230   0.024   9.035   7.857 -1.2093  0.2423 -1.6708
30218SOL     OW91231   9.071   9.886   4.891 -0.8482 -0.0100 -0.2434
30218SOL    HW191232   9.048   9.970   4.851 -1.6418  0.1209  0.4524
30218SOL    HW291233   8.992   9.860   4.938 -1.5283 -2.4087 -2.4705
30219SOL     OW91234   6.571   7.576   8.377 -0.1536 -0.0287 -0.1369
30219SOL    HW191235   6.510   7.503   8.368  0.6938 -0.6706 -0.8270
30219SOL    HW291236   6.515   7.652   8.394 -1.4298 -0.1165 -3.2189
30220SOL     OW91237   0.140   8.409   2.380 -0.1083  0.2002  0.3031
30220SOL    HW191238   0.094   8.452   2.308 -0.4680  1.1527  1.0726
30220SOL    HW291239   0.211   8.469   2.401  1.6623 -1.3321 -0.9827
30221SOL     OW91240   3.213   4.111   6.226 -0.1728 -0.0256  0.7646
30221SOL    HW191241   3.237   4.089   6.136  0.6754  2.2732  0.3783
30221SOL    HW291242   3.227   4.029   6.274  1.9526 -0.6186 -0.7077
30222SOL     OW91243   6.113   7.173   4.283 -0.0227 -0.3981  0.2267
30222SOL    HW191244   6.102   7.118   4.205  1.3419 -0.5436  0.0948
30222SOL    HW291245   6.179   7.126   4.335  0.2902  0.5227  0.6725
30223SOL     OW91246   4.078   8.170   1.682  0.0805 -0.0656 -0.6598
30223SOL    HW191247   4.095   8.077   1.668  1.0823  0.2890 -1.9513
30223SOL    HW291248   4.160   8.205   1.716 -0.3840  0.3155  0.1095
30224SOL     OW91249   1.468   8.389   2.134 -0.1962  0.0356 -0.0339
30224SOL    HW191250   1.453   8.346   2.050 -0.3438  2.6033 -1.4401
30224SOL    HW291251   1.384   8.382   2.180 -0.2058 -1.1370 -0.2186
30225SOL     OW91252   1.985   6.267   3.888 -0.1605 -0.5659 -0.2394
30225SOL    HW191253   1.929   6.283   3.963 -2.2876 -0.2761 -1.7776
30225SOL    HW291254   1.962   6.336   3.825  1.7097 -0.6406 -1.0739
30226SOL     OW91255   8.620   4.584   0.188 -0.2574  0.2338  0.4501
30226SOL    HW191256   8.715   4.568   0.188 -0.4822 -1.4626 -1.1309
30226SOL    HW291257   8.581   4.497   0.199 -1.6462  0.9065  1.0350
30227SOL     OW91258   0.412   7.876   8.252 -0.4296 -0.0068 -0.6186
30227SOL    HW191259   0.460   7.812   8.198  0.3669  2.7011 -3.4611
30227SOL    HW291260   0.327   7.884   8.209 -1.4340 -0.7919  1.1368
30228SOL     OW91261   3.436   6.371   9.919  0.2107  0.6189 -0.7586
30228SOL    HW191262   3.359   6.335   9.874 -1.1199 -0.2538  1.9693
30228SOL    HW291263   3.409   6.460   9.944 -0.7665 -0.2777  1.7619
30229SOL     OW91264   1.861   0.384   7.164  0.5402  0.1571 -0.2781
30229SOL    HW191265   1.773   0.412   7.138 -0.5594 -0.1819  2.6752
30229SOL    HW291266   1.896   0.457   7.214  1.3843 -0.2377 -0.2787
30230SOL     OW91267   7.581   2.991   7.323 -0.2128  0.0410  0.3085
30230SOL    HW191268   7.672   2.982   7.294 -0.0228  0.3297  0.8033
30230SOL    HW291269   7.529   2.970   7.245  0.2726  2.1623 -0.6438
30231SOL     OW91270   4.419   3.718   2.908 -0.1126 -0.7122 -0.3976
30231SOL    HW191271   4.500   3.714   2.857  0.0429 -1.5416 -0.1063
30231SOL    HW291272   4.444   3.685   2.994 -0.1617  1.4930  0.5369
30232SOL     OW91273   0.769   4.351   7.317 -0.6216 -0.3409  0.5029
30232SOL    HW191274   0.836   4.295   7.357  2.2128  1.4310 -1.3710
30232SOL    HW291275   0.767   4.323   7.225 -0.9051  1.0258  0.0788
30233SOL     OW91276   4.382   6.073   3.812  0.5496  0.0634 -0.2641
30233SOL    HW191277   4.398   6.069   3.906 -0.7690  0.4305 -0.0000
30233SOL    HW291278   4.393   5.983   3.782  1.2865 -0.0023  0.1803
30234SOL     OW91279   3.117   9.535   0.857 -0.6288  0.1121  0.4032
30234SOL    HW191280   3.116   9.549   0.762 -0.2504 -1.5006  0.1504
30234SOL    HW291281   3.202   9.569   0.885 -0.0369 -0.9141 -0.0919
30235SOL     OW91282   0.258   6.119   8.966  0.2386 -0.1225 -0.1875
30235SOL    HW191283   0.352   6.117   8.948  0.2489 -1.3347 -0.0847
30235SOL    HW291284   0.244   6.201   9.015  1.3584 -0.2898  0.4377
30236SOL     OW91285   0.508   0.598   2.996  0.1070 -0.2262 -0.1714
30236SOL    HW191286   0.568   0.581   2.924 -0.7472 -2.5145 -0.4324
30236SOL    HW291287   0.448   0.665   2.962 -0.2434 -1.2088 -1.6081
30237SOL     OW91288   2.442   6.785   5.260 -0.4111 -0.9139  0.0581
30237SOL    HW191289   2.484   6.865   5.290  0.2672 -0.8673 -0.9832
30237SOL    HW291290   2.348   6.802   5.267 -0.2653 -0.2138  0.3043
30238SOL     OW91291   7.478   1.667   6.508  0.5679 -0.6167 -0.2473
30238SOL    HW191292   7.408   1.720   6.471  0.8976 -1.3390 -2.0034
30238SOL    HW291293   7.554   1.726   6.508  0.4425 -0.4534 -0.2233
30239SOL     OW91294   4.713   4.582   5.586  0.2985  0.2849 -0.1660
30239SOL    HW191295   4.698   4.583   5.492  0.2406 -0.4822 -0.1752
30239SOL    HW291296   4.752   4.667   5.606  0.8553  0.2241 -0.9716
30240SOL     OW91297   9.090   1.253   2.204 -1.4662  0.2328  0.1368
30240SOL    HW191298   9.072   1.324   2.143 -2.1393 -0.3280 -0.3324
30240SOL    HW291299   9.170   1.280   2.249 -1.9555  1.5115  0.3016
30241SOL     OW91300   7.893   5.240   7.329  0.1643 -0.1426  0.2377
30241SOL    HW191301   7.797   5.234   7.327  0.1558 -0.1826  0.6681
30241SOL    HW291302   7.922   5.150   7.342  0.3171 -0.3424 -1.2227
30242SOL     OW91303   8.718   7.029   3.836  0.1553 -0.5293 -0.0051
30242SOL    HW191304   8.760   6.957   3.884 -1.6717 -0.5898  1.6473
30242SOL    HW291305   8.655   6.986   3.779 -0.3474 -0.2841  0.3631
30243SOL     OW91306   2.432   4.104   4.963  0.6252  0.6777 -0.5893
30243SOL    HW191307   2.485   4.025   4.950  0.0795  0.5357 -2.0915
30243SOL    HW291308   2.447   4.128   5.055 -0.0241 -1.7536  0.2202
30244SOL     OW91309   8.179   6.382   4.572 -0.2850 -0.7268  0.7816
30244SOL    HW191310   8.090   6.357   4.596 -1.0237  0.0327 -1.0061
30244SOL    HW291311   8.197   6.335   4.491  0.1452  0.6931  0.0163
30245SOL     OW91312   6.738   0.875   7.180 -0.2304  0.1397 -0.3099
30245SOL    HW191313   6.816   0.929   7.165  0.2247 -0.3906  0.1341
30245SOL    HW291314   6.699   0.909   7.260  0.0775 -0.2140 -0.0095
30246SOL     OW91315   4.322   8.327   7.292  0.5426  0.3294 -0.0547
30246SOL    HW191316   4.361   8.308   7.377 -2.4667  0.1868  1.3942
30246SOL    HW291317   4.265   8.402   7.307  1.8306  1.9729 -2.5927
30247SOL     OW91318   3.692   3.692   6.442 -0.2879  0.2844  0.5123
30247SOL    HW191319   3.630   3.620   6.451 -0.2682  0.2230  0.1559
30247SOL    HW291320   3.673   3.730   6.357  1.5066 -1.0005 -0.5258
30248SOL     OW91321   6.018   8.590   8.306 -0.2628 -0.2162  0.1201
30248SOL    HW191322   5.945   8.629   8.260 -0.8180 -0.4637  0.7779
30248SOL    HW291323   6.035   8.649   8.380 -0.1840 -0.4617  0.3005
30249SOL     OW91324   0.084   0.133   0.471  0.1681  0.2112 -0.4836
30249SOL    HW191325   0.142   0.175   0.408 -0.0660  0.2668 -0.6641
30249SOL    HW291326   0.028   0.205   0.503  1.2376  0.4922  0.8764
30250SOL     OW91327   3.861   5.034   3.815 -0.5398  0.2716 -0.4195
30250SOL    HW191328   3.897   5.109   3.863  1.4307  0.6870 -2.3661
30250SOL    HW291329   3.914   4.960   3.845 -0.9601  0.0712 -0.1673
30251SOL     OW91330   8.859   4.735   5.753  0.2641 -0.3836 -0.4696
30251SOL    HW191331   8.793   4.798   5.781 -0.9916 -1.7017 -0.3575
30251SOL    HW291332   8.930   4.789   5.718 -2.1144  1.1003 -3.5535
30252SOL     OW91333   5.222   6.491   4.526  0.3767 -0.3450  0.1534
30252SOL    HW191334   5.193   6.400   4.538 -0.7798 -0.3058 -1.7997
30252SOL    HW291335   5.147   6.544   4.554  0.0535 -0.1094 -1.0799
30253SOL     OW91336   8.093   7.254   4.951 -0.0353  0.1769  0.5103
30253SOL    HW191337   8.130   7.218   4.870  0.9122  0.1185  0.9534
30253SOL    HW291338   8.056   7.338   4.925  0.5519  0.3081  0.0655
30254SOL     OW91339   5.724   5.391   0.203 -0.5987  0.2482 -0.1479
30254SOL    HW191340   5.759   5.469   0.246 -2.0243  1.8021 -1.6358
30254SOL    HW291341   5.801   5.347   0.166  0.1925  1.2130  0.3076
30255SOL     OW91342   4.493   8.110   9.522 -0.3426 -0.2994 -0.1114
30255SOL    HW191343   4.424   8.071   9.468 -0.0925  0.1163 -0.7392
30255SOL    HW291344   4.472   8.203   9.525  0.2048 -0.1634 -0.3448
30256SOL     OW91345   0.583   0.769   5.492 -0.1216 -0.0669  0.6801
30256SOL    HW191346   0.523   0.792   5.562  1.0828  0.1918  1.6530
30256SOL    HW291347   0.582   0.674   5.489 -2.7430 -0.0654 -1.2634
30257SOL     OW91348   3.458   5.653   5.321 -0.1480 -0.6308  0.5059
30257SOL    HW191349   3.456   5.708   5.399  0.8454  1.0232 -0.5668
30257SOL    HW291350   3.550   5.632   5.308 -0.4021 -1.6387  0.2728
30258SOL     OW91351   0.439   6.294   7.707 -0.0152  0.4325  0.1764
30258SOL    HW191352   0.347   6.315   7.727 -0.6184 -0.4933 -1.4639
30258SOL    HW291353   0.449   6.202   7.731 -0.2070 -0.1387 -1.7510
30259SOL     OW91354   2.662   8.065   8.860  0.1343 -0.5254 -0.1627
30259SOL    HW191355   2.660   8.052   8.765  0.3072  1.2414 -0.4324
30259SOL    HW291356   2.745   8.025   8.888 -0.8154 -2.8644 -0.4080
30260SOL     OW91357   4.343   5.223   6.309 -0.1007 -0.3108  0.2403
30260SOL    HW191358   4.416   5.280   6.283 -0.1394 -0.3143  0.1228
30260SOL    HW291359   4.297   5.273   6.376  0.4636 -0.6416  0.8731
30261SOL     OW91360  -0.013   0.099   7.281 -0.4708 -0.3356  0.2355
30261SOL    HW191361  -0.029   0.047   7.202 -2.0059 -0.3849  0.5487
30261SOL    HW291362   0.082   0.109   7.284 -0.2940 -1.3923 -0.9375
30262SOL     OW91363   2.108   5.271   7.761  0.1394  0.2275  0.3911
30262SOL    HW191364   2.064   5.190   7.734  1.2123 -0.2957  0.1473
30262SOL    HW291365   2.191   5.241   7.797  1.1259  1.2981 -0.9114
30263SOL     OW91366   2.707   0.284   5.493  0.2953  0.4736  0.1583
30263SOL    HW191367   2.633   0.344   5.499  0.0506  0.2717 -0.7812
30263SOL    HW291368   2.697   0.241   5.408  1.5069  0.4658  0.0083
30264SOL     OW91369   3.969   0.460   3.274  0.6803  0.7710 -0.2151
30264SOL    HW191370   4.022   0.445   3.353 -2.5357 -1.8000  1.6622
30264SOL    HW291371   3.903   0.524   3.301  0.0088  0.4514 -1.0535
30265SOL     OW91372   5.477   0.872   2.921  0.7699 -0.1716  0.2281
30265SOL    HW191373   5.383   0.886   2.908  0.6973  0.3111  1.1918
30265SOL    HW291374   5.489   0.881   3.016  2.1079  1.7797 -0.0774
30266SOL     OW91375   3.659   7.417   7.645 -0.7577 -0.3557 -0.7140
30266SOL    HW191376   3.593   7.467   7.693 -2.3722 -2.7588 -0.2396
30266SOL    HW291377   3.742   7.442   7.686 -1.7116  0.3449  0.9107
30267SOL     OW91378   0.473   1.596   0.551 -0.2170  0.1036 -0.1263
30267SOL    HW191379   0.439   1.649   0.622 -0.7548 -0.2010 -0.1584
30267SOL    HW291380   0.456   1.648   0.472 -0.1053  0.1992 -0.0877
30268SOL     OW91381   0.178   7.910   5.097 -0.1727  0.0567  0.0144
30268SOL    HW191382   0.238   7.973   5.058 -1.1944  0.3954 -1.1077
30268SOL    HW291383   0.151   7.950   5.180 -0.6404  1.0210 -0.5829
30269SOL     OW91384   7.718   4.727   3.656 -0.1197 -0.0113 -0.0796
30269SOL    HW191385   7.813   4.720   3.655 -0.0435  0.8338 -1.4677
30269SOL    HW291386   7.692   4.712   3.565 -1.5283 -2.5058  0.6609
30270SOL     OW91387   5.695   4.136   4.950  0.0406  0.7928 -0.4990
30270SOL    HW191388   5.755   4.146   4.876  1.1023  0.3031  0.2621
30270SOL    HW291389   5.737   4.183   5.022 -0.7983  0.9609 -0.1044
30271SOL     OW91390   8.429   6.377   6.062 -0.0101 -0.2074  0.2438
30271SOL    HW191391   8.445   6.378   6.157 -0.9863 -1.2982  0.4550
30271SOL    HW291392   8.492   6.439   6.026  1.7526 -1.2336  1.3985
30272SOL     OW91393   1.190   7.387   9.950  0.3908 -0.0224 -0.4782
30272SOL    HW191394   1.267   7.435   9.981 -0.3458  1.2037 -0.4913
30272SOL    HW291395   1.209   7.368   9.858  0.5937  0.4545 -0.5350
30273SOL     OW91396   8.899   9.617   3.015  0.5654 -0.2405 -0.2301
30273SOL    HW191397   8.911   9.615   2.920  0.0155  0.5596 -0.3341
30273SOL    HW291398   8.846   9.540   3.034 -1.7379  1.0527 -0.9815
30274SOL     OW91399   5.820   8.874   8.884 -0.2251  0.2223  0.1503
30274SOL    HW191400   5.790   8.789   8.916  0.2541  0.3160  0.8664
30274SOL    HW291401   5.750   8.935   8.907 -0.0097  0.2382  0.7912
30275SOL     OW91402   6.183   5.473   5.822  0.8887  0.0476 -0.5552
30275SOL    HW191403   6.120   5.407   5.851 -0.0064  0.6311 -1.1094
30275SOL    HW291404   6.177   5.542   5.888  1.6572 -0.3007 -0.1006
30276SOL     OW91405   3.810   0.568   1.467 -0.2291  0.7038  0.6247
30276SOL    HW191406   3.815   0.619   1.548  1.1527  1.5807  0.0263
30276SOL    HW291407   3.788   0.632   1.399  0.8541  0.4161 -0.0328
30277SOL     OW91408   1.933   9.869   1.250 -0.4461 -0.0476 -0.2578
30277SOL    HW191409   1.996   9.840   1.316  0.6802 -0.5702 -1.5289
30277SOL    HW291410   1.984   9.925   1.191 -1.3020 -0.0165 -0.9924
30278SOL     OW91411   4.904   5.755   0.786 -0.4325 -0.2013  0.3558
30278SOL    HW191412   4.860   5.834   0.755 -1.2046 -0.5034  0.6742
30278SOL    HW291413   4.984   5.787   0.827 -1.4639  0.5757  1.8533
30279SOL     OW91414   7.039   0.347   0.939  0.5443 -0.3708 -0.3810
30279SOL    HW191415   7.021   0.255   0.962  0.3122 -0.1228  0.4452
30279SOL    HW291416   7.058   0.389   1.023  1.5491  0.1457 -0.8539
30280SOL     OW91417   3.463   5.645   2.374  0.4461 -0.0422  0.2294
30280SOL    HW191418   3.448   5.593   2.295 -0.7002  0.7989 -0.1442
30280SOL    HW291419   3.439   5.735   2.348 -2.2249 -0.0936  2.1014
30281SOL     OW91420   7.645   4.945   6.191 -0.4950  0.1633  0.1597
30281SOL    HW191421   7.646   5.031   6.234  0.8233  1.6089 -2.5506
30281SOL    HW291422   7.578   4.953   6.124  0.9563 -0.1809 -1.3960
30282SOL     OW91423   9.333   5.208   7.129  0.2617 -0.3374 -0.1850
30282SOL    HW191424   9.322   5.204   7.034  0.2183 -1.0010 -0.1608
30282SOL    HW291425   9.418   5.166   7.145  0.0466 -0.6709  0.1003
30283SOL     OW91426   4.805   3.413   3.139 -0.3321  0.0381 -0.1117
30283SOL    HW191427   4.736   3.349   3.124 -1.4148  1.0180  0.5290
30283SOL    HW291428   4.834   3.397   3.229 -0.9552  0.7492  0.2263
30284SOL     OW91429   5.051   8.216   3.589  0.0868 -0.2196 -0.0455
30284SOL    HW191430   4.985   8.239   3.654  0.1990 -1.1154  0.3950
30284SOL    HW291431   5.134   8.221   3.635  0.1929 -0.5858 -0.1965
30285SOL     OW91432   6.040   2.196   7.926 -0.2065 -0.0800  0.3518
30285SOL    HW191433   6.100   2.270   7.914  1.7222 -1.6558 -0.2053
30285SOL    HW291434   6.079   2.145   7.997 -1.1459 -0.9165  0.2927
30286SOL     OW91435   8.420   9.238   0.644  0.0168  0.1315 -0.1792
30286SOL    HW191436   8.507   9.244   0.605  0.2746  0.0694  0.3781
30286SOL    HW291437   8.360   9.231   0.569  0.5028  0.0132 -0.5600
30287SOL     OW91438   0.037   6.975   1.057 -0.5690  0.1823 -0.3640
30287SOL    HW191439   0.055   6.927   1.137 -0.6318  1.9781  0.7736
30287SOL    HW291440   0.052   7.067   1.079 -1.9833  0.8756 -2.0060
30288SOL     OW91441   3.058   1.946   8.614 -0.0389 -1.2827 -0.2702
30288SOL    HW191442   3.046   1.852   8.596  0.9366 -1.1221 -2.0090
30288SOL    HW291443   3.153   1.958   8.617 -0.1504 -0.3346 -0.2087
30289SOL     OW91444   0.635   3.004   8.530 -0.4682 -0.0507 -1.0322
30289SOL    HW191445   0.606   2.971   8.615 -1.6042  1.6038 -0.7292
30289SOL    HW291446   0.729   2.988   8.529 -0.1914  1.1210  1.1434
30290SOL     OW91447   5.789   3.874   5.861  0.1705 -0.0381  0.0353
30290SOL    HW191448   5.756   3.959   5.832  1.4851 -0.4106 -2.9133
30290SOL    HW291449   5.852   3.895   5.931 -2.1358  1.0286  1.9291
30291SOL     OW91450   8.495   0.110   5.207  0.5655 -0.5662  0.1720
30291SOL    HW191451   8.502   0.020   5.239  0.4283 -1.0566 -1.1021
30291SOL    HW291452   8.562   0.116   5.139 -0.4513 -0.2062 -0.8295
30292SOL     OW91453   5.352   1.838   5.320 -0.8266  0.0742  0.0800
30292SOL    HW191454   5.341   1.760   5.265 -0.8881 -0.5677  0.9715
30292SOL    HW291455   5.425   1.885   5.281 -0.3428 -0.7851 -0.0716
30293SOL     OW91456   5.589   3.640   0.973 -0.4359 -0.2192 -0.0187
30293SOL    HW191457   5.657   3.701   1.003  0.8403 -1.9955  0.8127
30293SOL    HW291458   5.637   3.567   0.935 -1.9327 -0.9898 -0.4903
30294SOL     OW91459   7.705   5.590   9.965 -0.4388 -0.2644  0.2199
30294SOL    HW191460   7.796   5.611   9.943 -0.9759  1.1584 -0.7380
30294SOL    HW291461   7.684   5.515   9.910  0.9086 -2.3248  2.3077
30295SOL     OW91462   7.344   3.355   2.716  0.0069  0.4160  0.7267
30295SOL    HW191463   7.261   3.371   2.671  1.0077 -0.9059 -1.7952
30295SOL    HW291464   7.327   3.278   2.770  0.1771 -1.6811 -1.9602
30296SOL     OW91465   8.406   0.119   6.154 -0.0080  0.1820 -0.8344
30296SOL    HW191466   8.355   0.156   6.225 -0.5155  0.0156 -1.1060
30296SOL    HW291467   8.349   0.125   6.077 -0.5225 -2.0432 -0.7000
30297SOL     OW91468   2.757   2.391   5.435 -0.7163  0.6708  0.0461
30297SOL    HW191469   2.804   2.410   5.517 -1.6860 -0.1934  0.8212
30297SOL    HW291470   2.732   2.299   5.443 -1.5149  0.7999 -0.8843
30298SOL     OW91471   6.787   5.037   7.667  0.6799  0.0262  0.1087
30298SOL    HW191472   6.830   4.998   7.743 -1.4477  1.3383  2.1154
30298SOL    HW291473   6.694   5.031   7.687  0.0985  1.4670 -1.8852
30299SOL     OW91474   5.477   5.117   1.896  0.6851  0.0136  0.0726
30299SOL    HW191475   5.480   5.110   1.992  0.6108  2.6467  0.3437
30299SOL    HW291476   5.567   5.138   1.871  0.4558  0.5618 -0.2958
30300SOL     OW91477   8.607   2.780   9.680 -0.2017  0.3767 -0.2041
30300SOL    HW191478   8.543   2.709   9.681  0.0407  0.1568  0.6056
30300SOL    HW291479   8.677   2.750   9.622  0.4794 -0.5842  1.0692
30301SOL     OW91480   7.565   8.868   1.772 -0.8564 -0.3791  0.9250
30301SOL    HW191481   7.519   8.790   1.741 -1.8736  0.5849 -0.0751
30301SOL    HW291482   7.498   8.921   1.813 -0.9821  1.5664 -1.5354
30302SOL     OW91483   9.100   3.095   1.311  0.0003 -0.1245 -0.2915
30302SOL    HW191484   9.184   3.108   1.355 -0.3675  1.1792  0.0825
30302SOL    HW291485   9.043   3.061   1.380 -0.0248 -0.1105 -0.3056
30303SOL     OW91486   3.878   2.333   4.119  0.0434 -0.2525 -0.2944
30303SOL    HW191487   3.926   2.367   4.043 -1.6521  1.2587 -0.7376
30303SOL    HW291488   3.937   2.267   4.157  2.0039  0.7806 -1.4149
30304SOL     OW91489   3.663   9.088   0.780 -0.0226  0.1368  0.2002
30304SOL    HW191490   3.700   9.159   0.727 -0.5865  0.2706 -0.0221
30304SOL    HW291491   3.739   9.036   0.807  0.2710  0.0330 -0.7870
30305SOL     OW91492   8.226   5.809   2.561  0.0519 -0.2480 -0.1261
30305SOL    HW191493   8.191   5.834   2.475  1.4030 -0.8696 -0.8769
30305SOL    HW291494   8.294   5.744   2.542 -0.9388 -1.8859  1.5378
30306SOL     OW91495   0.986   1.799   0.582  0.1190  0.2594  0.2942
30306SOL    HW191496   0.982   1.844   0.498  1.1043 -0.0200  0.0856
30306SOL    HW291497   0.998   1.707   0.559 -0.1018  0.1131  0.7403
30307SOL     OW91498   9.371   8.387   2.546 -0.0752  0.2322 -0.1523
30307SOL    HW191499   9.360   8.458   2.610  0.6704 -0.6986  1.0451
30307SOL    HW291500   9.306   8.406   2.478 -0.7494  1.3624  0.7703
30308SOL     OW91501   6.463   8.549   7.917 -0.4430  0.4107 -0.2155
30308SOL    HW191502   6.545   8.528   7.873 -0.6388  0.9403 -0.8516
30308SOL    HW291503   6.481   8.536   8.010 -0.4013 -2.0224 -0.5023
30309SOL     OW91504   3.598   1.433   6.070  0.2798  0.3328 -0.3847
30309SOL    HW191505   3.625   1.342   6.070  0.4900  0.3940 -0.4101
30309SOL    HW291506   3.602   1.460   5.978 -0.5010  0.1598 -0.4767
30310SOL     OW91507   6.959   9.819   1.242 -0.0667  0.4254  0.2001
30310SOL    HW191508   6.958   9.789   1.151  1.3643 -0.6705  0.5108
30310SOL    HW291509   7.040   9.783   1.278 -1.5056 -0.7527  2.4517
30311SOL     OW91510   2.181   4.129   3.644  0.6163  0.0702  0.4663
30311SOL    HW191511   2.209   4.209   3.599 -1.6696  1.0347  0.6470
30311SOL    HW291512   2.086   4.135   3.647  0.4446 -2.2280  1.3335
30312SOL     OW91513   3.416   3.942   4.077  0.0369  0.1674 -0.0310
30312SOL    HW191514   3.386   3.943   3.986  0.7264  0.9271 -0.2630
30312SOL    HW291515   3.467   3.861   4.084 -3.9128 -2.4845  1.0463
30313SOL     OW91516   4.468   6.717   3.805  0.5808  0.4977 -0.2158
30313SOL    HW191517   4.488   6.766   3.725 -0.6521  0.1245 -0.7824
30313SOL    HW291518   4.537   6.742   3.866  1.7415  0.5703 -1.4898
30314SOL     OW91519   2.093   4.562   1.302  0.1736 -0.2328 -0.1979
30314SOL    HW191520   2.160   4.537   1.366 -0.8931 -0.2514  0.9470
30314SOL    HW291521   2.060   4.479   1.268 -1.5397 -0.3929  1.6826
30315SOL     OW91522   6.020   9.301   0.604  0.1472 -0.7466  0.0696
30315SOL    HW191523   6.088   9.259   0.655 -0.8959 -1.0439  1.2492
30315SOL    HW291524   5.984   9.368   0.662 -0.3614 -0.3849 -0.6476
30316SOL     OW91525   7.179   3.401   2.070 -0.1023 -0.2793  0.0011
30316SOL    HW191526   7.242   3.469   2.096  0.1287 -0.5280  0.0940
30316SOL    HW291527   7.097   3.448   2.057  0.5587  0.4118 -2.1827
30317SOL     OW91528   6.627   8.198   0.713 -0.4275  0.1137 -0.0864
30317SOL    HW191529   6.615   8.138   0.638 -1.9740  2.1817 -1.6108
30317SOL    HW291530   6.581   8.155   0.785 -1.8470 -0.4087 -1.2449
30318SOL     OW91531   2.611   7.038   3.072  0.7587  0.6639 -0.2037
30318SOL    HW191532   2.558   7.072   3.000 -0.2403 -1.4234 -0.5409
30318SOL    HW291533   2.550   6.984   3.123  2.0849 -0.1148  0.6120
30319SOL     OW91534   4.852   0.124   5.254 -0.0274 -0.8674 -0.2875
30319SOL    HW191535   4.821   0.212   5.232  1.3908 -0.4472 -0.7228
30319SOL    HW291536   4.859   0.080   5.169  0.0680 -1.1205 -0.1492
30320SOL     OW91537   5.583   7.132   8.184 -0.5218 -0.0059 -0.0613
30320SOL    HW191538   5.678   7.128   8.171 -0.4651  2.2065 -0.7221
30320SOL    HW291539   5.571   7.118   8.278  0.5639  0.6946  0.2022
30321SOL     OW91540   5.535   6.038   2.724 -0.8508 -0.1096  0.0190
30321SOL    HW191541   5.487   6.075   2.798 -1.3561 -0.0757 -0.3145
30321SOL    HW291542   5.602   5.983   2.763 -0.7219  0.3860  0.5066
30322SOL     OW91543   7.523   1.398   0.489 -0.0841  0.1903 -0.2364
30322SOL    HW191544   7.454   1.333   0.476  0.2497 -0.7832  2.2937
30322SOL    HW291545   7.604   1.351   0.470  0.0709  0.2150  0.3233
30323SOL     OW91546   9.239   8.631   4.131  0.0838 -0.1764 -0.1907
30323SOL    HW191547   9.211   8.554   4.081  1.1300 -0.1143 -0.8895
30323SOL    HW291548   9.179   8.700   4.102  0.9092 -0.0400 -1.6981
30324SOL     OW91549   9.759   6.655   0.349 -0.5021  0.4712 -0.0499
30324SOL    HW191550   9.672   6.665   0.388 -1.8446  1.8388 -3.0552
30324SOL    HW291551   9.757   6.570   0.306 -0.1412  0.2594  0.3488
30325SOL     OW91552   9.726   7.653   6.728 -0.3817 -0.0370 -0.0230
30325SOL    HW191553   9.671   7.731   6.718  1.0547  0.9308 -0.7541
30325SOL    HW291554   9.791   7.661   6.658 -0.3687 -2.0649 -0.3020
30326SOL     OW91555   4.646   6.661   5.516 -0.2370 -0.6103 -0.3929
30326SOL    HW191556   4.734   6.664   5.553 -0.5141 -0.2241  0.2412
30326SOL    HW291557   4.638   6.572   5.480 -0.1539 -1.1827  0.9500
30327SOL     OW91558   7.278   6.790   9.352 -0.2964  0.3048 -0.4796
30327SOL    HW191559   7.195   6.778   9.307  0.1812  0.7414 -1.5079
30327SOL    HW291560   7.266   6.868   9.406 -0.2556  0.9472 -1.3778
30328SOL     OW91561   1.654   4.579   3.511 -0.1199  0.1043  0.0748
30328SOL    HW191562   1.590   4.585   3.582  0.8199  0.8908  0.8951
30328SOL    HW291563   1.642   4.659   3.460 -0.2665 -0.0873 -0.1932
30329SOL     OW91564   2.657   9.555   7.148 -0.4678  0.5013 -0.0593
30329SOL    HW191565   2.710   9.612   7.094 -0.7855  0.7240 -0.1368
30329SOL    HW291566   2.573   9.550   7.102 -0.4744  0.0545 -0.0021
30330SOL     OW91567   1.274   4.150   0.099 -0.0997 -0.8989  0.4085
30330SOL    HW191568   1.204   4.138   0.164  0.3064 -0.4430  0.9377
30330SOL    HW291569   1.352   4.167   0.151  0.4994 -1.7949 -0.1676
30331SOL     OW91570   6.914   5.686   4.884  0.1101 -0.1361  0.0656
30331SOL    HW191571   6.923   5.652   4.795  0.7115  0.7963 -0.2497
30331SOL    HW291572   6.827   5.659   4.912  0.8775 -2.7703  0.2200
30332SOL     OW91573   7.246   4.218   4.460 -0.1377  0.1994  0.4671
30332SOL    HW191574   7.208   4.274   4.392  1.1651 -1.6841 -1.9636
30332SOL    HW291575   7.339   4.240   4.460  0.1658 -1.0321  0.3809
30333SOL     OW91576   1.964   6.519   7.314 -0.1607 -0.2364  0.0772
30333SOL    HW191577   2.017   6.507   7.394 -1.8065 -0.8215  1.1326
30333SOL    HW291578   1.892   6.575   7.342 -1.5889 -1.6799 -0.5945
30334SOL     OW91579   5.451   9.990   0.961  0.0624  0.4048  0.3425
30334SOL    HW191580   5.361  10.019   0.946  0.0076 -0.1096 -0.3730
30334SOL    HW291581   5.444   9.896   0.976  0.4290  0.4502  0.8229
30335SOL     OW91582   9.704   1.707   9.131 -0.3724 -0.0599  0.2223
30335SOL    HW191583   9.796   1.728   9.147 -0.6033 -0.1789  1.9413
30335SOL    HW291584   9.704   1.664   9.046  1.1591 -0.0148  0.1587
30336SOL     OW91585   6.473   1.227   3.502 -0.5452 -0.3928  0.2305
30336SOL    HW191586   6.377   1.231   3.504 -0.5628 -0.7883  0.3860
30336SOL    HW291587   6.498   1.286   3.431 -0.9277 -0.6194 -0.0977
30337SOL     OW91588   0.697   1.957   7.701  0.5354  0.0601 -0.1963
30337SOL    HW191589   0.614   1.924   7.666 -1.2239  1.4927  2.3315
30337SOL    HW291590   0.735   2.005   7.628 -2.9007  2.8519 -0.4392
30338SOL     OW91591   9.816   5.869   2.126  0.7000  0.5370  0.0094
30338SOL    HW191592   9.837   5.932   2.195  0.5424  0.9401 -0.3055
30338SOL    HW291593   9.758   5.917   2.066 -1.2802 -0.5684  0.9228
30339SOL     OW91594   3.464   5.802   0.587 -0.6634  0.0062 -0.2323
30339SOL    HW191595   3.393   5.783   0.526 -0.5055 -2.7560  0.3216
30339SOL    HW291596   3.542   5.762   0.547  0.2573  1.4693  0.0070
30340SOL     OW91597   2.027   8.887   3.398  0.0779  0.5618  0.0912
30340SOL    HW191598   1.949   8.910   3.347  0.3830 -0.6030 -0.9531
30340SOL    HW291599   2.082   8.965   3.396  0.0645  0.5591 -1.3663
30341SOL     OW91600   3.210   0.971   6.005  0.2950 -0.1915  0.5067
30341SOL    HW191601   3.243   0.976   5.915  1.8919  0.5057  1.0931
30341SOL    HW291602   3.135   1.031   6.006 -0.9581 -1.6440 -0.8017
30342SOL     OW91603   3.502   7.765   1.747 -0.6830 -0.2817 -0.1088
30342SOL    HW191604   3.566   7.835   1.756 -2.0539  0.8572  1.4027
30342SOL    HW291605   3.497   7.749   1.653  0.0857  1.2394 -0.4407
30343SOL     OW91606   5.702   9.141   6.467 -0.1006 -0.3075 -0.7590
30343SOL    HW191607   5.626   9.143   6.408 -0.1337 -0.2021 -0.7141
30343SOL    HW291608   5.772   9.182   6.416 -0.0710 -0.4163 -0.8048
30344SOL     OW91609   1.407   6.645   1.690  0.4249  0.8495 -0.1437
30344SOL    HW191610   1.465   6.575   1.718 -2.2364 -2.1188 -1.4552
30344SOL    HW291611   1.465   6.720   1.675  3.8139 -1.7406 -1.0619
30345SOL     OW91612   9.810   9.925   5.196 -0.5263  0.0730 -0.2480
30345SOL    HW191613   9.838   9.946   5.106  0.7665 -0.6335 -0.0339
30345SOL    HW291614   9.714   9.925   5.191 -0.4956  0.8519 -1.4358
30346SOL     OW91615   3.631   5.901   4.368  0.3452 -0.2136 -0.1238
30346SOL    HW191616   3.705   5.840   4.376  0.9563  0.6791  1.4776
30346SOL    HW291617   3.553   5.846   4.376  0.8155 -1.1110 -1.3877
30347SOL     OW91618   2.171   7.131   5.016 -0.0499 -0.7560  0.3735
30347SOL    HW191619   2.206   7.207   5.063  1.5987  0.1660 -2.1353
30347SOL    HW291620   2.247   7.094   4.971 -1.5910 -1.1769 -2.0349
30348SOL     OW91621   3.893   0.729   3.303  0.1100  0.1912 -0.0225
30348SOL    HW191622   3.851   0.743   3.388  0.4863 -1.9870  0.5636
30348SOL    HW291623   3.980   0.767   3.313  0.5426 -1.0067  0.9700
30349SOL     OW91624   0.423   0.315   2.974  0.5455  0.4795  0.7391
30349SOL    HW191625   0.439   0.409   2.964  0.4276  0.4838  0.5795
30349SOL    HW291626   0.502   0.282   3.017 -0.1734  0.9451  2.5042
30350SOL     OW91627   2.388   6.242   4.164  0.0588 -0.1434  0.5766
30350SOL    HW191628   2.474   6.232   4.206  1.7299  3.7307 -1.3604
30350SOL    HW291629   2.400   6.204   4.077 -0.9121 -1.3328  0.9368
30351SOL     OW91630   8.535   6.507   4.931 -0.1857 -0.4837 -0.2840
30351SOL    HW191631   8.624   6.543   4.936 -0.6754  1.0303 -1.7359
30351SOL    HW291632   8.529   6.471   4.842 -1.4452  0.6562 -0.6801
30352SOL     OW91633   0.626   8.619   5.020  0.3548 -0.5120 -0.5726
30352SOL    HW191634   0.577   8.569   5.086 -0.1133  0.2522 -0.3231
30352SOL    HW291635   0.567   8.691   4.997  1.1932  0.1807 -0.5863
30353SOL     OW91636   8.944   7.610   2.896  0.2255  0.1515 -0.1955
30353SOL    HW191637   8.888   7.687   2.895 -1.5564 -1.0765  0.8074
30353SOL    HW291638   8.984   7.609   2.809 -1.0522  1.2483 -0.8360
30354SOL     OW91639   4.044   9.713   9.451  0.3579  0.0458  0.2598
30354SOL    HW191640   4.046   9.687   9.543  0.7140 -1.1506 -0.0703
30354SOL    HW291641   4.116   9.665   9.411  0.2764  0.6404 -0.6327
30355SOL     OW91642   2.029   2.097   2.417  0.4653  0.4046 -0.0695
30355SOL    HW191643   2.047   2.035   2.488 -2.1269 -0.6656 -0.2603
30355SOL    HW291644   2.070   2.057   2.340 -1.5219 -1.3856 -0.2771
30356SOL     OW91645   9.909   6.369   4.099 -0.3520 -0.1427 -0.2307
30356SOL    HW191646   9.942   6.446   4.145  0.1909 -0.1077 -0.6700
30356SOL    HW291647   9.971   6.354   4.028 -0.5794 -0.8466 -0.2959
30357SOL     OW91648   9.757   9.393   5.648  0.0721  0.0470  0.7753
30357SOL    HW191649   9.701   9.325   5.612  0.9952 -0.0467 -0.5553
30357SOL    HW291650   9.813   9.348   5.710  0.4123 -0.3486  0.1903
30358SOL     OW91651   0.882   1.120   7.415  0.3898  0.1300 -0.0566
30358SOL    HW191652   0.911   1.032   7.391 -0.0218 -0.6095  1.9271
30358SOL    HW291653   0.962   1.167   7.437  0.5424 -0.0144 -0.2987
30359SOL     OW91654   0.882   0.863   0.843  0.8713 -0.2616 -0.5232
30359SOL    HW191655   0.798   0.851   0.888  0.7177 -0.8956 -0.9685
30359SOL    HW291656   0.863   0.925   0.773  1.2371  1.1786  0.6025
30360SOL     OW91657   9.505   9.076   2.634 -0.4271  0.3743  0.1054
30360SOL    HW191658   9.557   9.143   2.590  1.5788 -0.9160  0.3851
30360SOL    HW291659   9.518   9.092   2.727 -1.2775  0.5565  0.2052
30361SOL     OW91660   0.158   6.365   6.743 -0.0570  0.1066 -0.6124
30361SOL    HW191661   0.098   6.387   6.672 -1.0438  1.3784  0.5662
30361SOL    HW291662   0.108   6.383   6.823  1.7700  0.8657  0.4092
30362SOL     OW91663   2.621   1.451   3.344  0.3453 -0.2752  0.8261
30362SOL    HW191664   2.704   1.419   3.379  0.0777 -1.3381  0.5095
30362SOL    HW291665   2.645   1.498   3.264  0.5992 -0.9958  0.4735
30363SOL     OW91666   7.864   4.874   3.894 -0.1002  0.1576  0.6942
30363SOL    HW191667   7.865   4.781   3.871 -0.8786  0.7035 -1.8005
30363SOL    HW291668   7.771   4.895   3.905 -0.0477  0.9983 -0.4056
30364SOL     OW91669   7.115   1.099   1.081  0.7788  0.4922  0.0236
30364SOL    HW191670   7.029   1.141   1.068  0.4474 -0.0729  0.3540
30364SOL    HW291671   7.097   1.026   1.140  1.0092 -1.1995 -1.8918
30365SOL     OW91672   4.168   3.080   6.327  0.0042  0.3779  0.2257
30365SOL    HW191673   4.241   3.136   6.301 -0.2240  0.6270  0.1166
30365SOL    HW291674   4.196   3.041   6.410  2.0730 -2.8083 -1.7554
30366SOL     OW91675   0.318   5.863   8.426 -0.1033  0.2094 -0.1539
30366SOL    HW191676   0.309   5.770   8.449 -2.7340  0.4920  0.2741
30366SOL    HW291677   0.382   5.864   8.355  2.4289 -1.5413  1.9217
30367SOL     OW91678   6.568   1.336   0.629 -0.1109 -0.2056 -0.0758
30367SOL    HW191679   6.613   1.397   0.687  0.6819 -0.4171 -0.4637
30367SOL    HW291680   6.530   1.270   0.688 -1.5440  0.9851  0.4118
30368SOL     OW91681   5.071   3.283   6.235  0.0213 -0.5241  0.2791
30368SOL    HW191682   5.125   3.337   6.291 -0.2059 -0.8330  0.8070
30368SOL    HW291683   4.981   3.300   6.264 -0.0596 -1.1052  0.3952
30369SOL     OW91684   6.246   2.183   8.213 -0.0374  0.3134 -0.5156
30369SOL    HW191685   6.319   2.164   8.155  1.0095  0.7275  0.6261
30369SOL    HW291686   6.267   2.268   8.251 -1.6527  0.9562 -0.9675
30370SOL     OW91687   4.524   7.392   0.612 -0.5360 -0.1529  0.2001
30370SOL    HW191688   4.519   7.353   0.525 -0.7019 -1.0133  0.5904
30370SOL    HW291689   4.611   7.432   0.615 -0.4727 -0.2508 -0.3070
30371SOL     OW91690   5.532   2.881   6.026 -0.0177 -0.5036  0.4206
30371SOL    HW191691   5.480   2.924   5.958  0.5680 -1.3745 -0.6147
30371SOL    HW291692   5.467   2.841   6.085 -0.5374  0.7793  0.7415
30372SOL     OW91693   0.407   9.193   1.080 -0.2328 -0.4640 -0.2812
30372SOL    HW191694   0.329   9.243   1.056  0.2057  0.1502 -0.4548
30372SOL    HW291695   0.460   9.192   1.000  0.0267 -0.7148 -0.1079
30373SOL     OW91696   1.233   1.915   2.326  0.5615 -0.2195  0.1158
30373SOL    HW191697   1.281   1.937   2.246  2.5079 -0.1147  1.2423
30373SOL    HW291698   1.234   1.995   2.377  1.2632 -0.8475  1.1372
30374SOL     OW91699   1.023   2.258   4.366  0.0315 -0.3233 -0.1383
30374SOL    HW191700   0.959   2.210   4.419  1.2266 -1.4972  0.2800
30374SOL    HW291701   1.067   2.191   4.315  0.4445  0.5549 -0.9724
30375SOL     OW91702   9.368   8.788   1.054  1.0396  0.4884  0.4632
30375SOL    HW191703   9.311   8.714   1.076  0.4318  0.5460 -0.8043
30375SOL    HW291704   9.314   8.843   0.997  1.7245  1.5482  0.8266
30376SOL     OW91705   3.509   4.850   5.012  0.5568  0.1687 -0.2478
30376SOL    HW191706   3.494   4.887   4.925 -0.9991 -1.5069 -0.7482
30376SOL    HW291707   3.494   4.923   5.072 -0.9777  0.7474 -1.2740
30377SOL     OW91708   4.250   9.066   1.556  0.1699  0.6092  0.0367
30377SOL    HW191709   4.282   9.135   1.614 -0.3929  0.4994  0.4918
30377SOL    HW291710   4.266   8.985   1.604  2.7187  0.1936 -1.3408
30378SOL     OW91711   7.484   2.748   3.706  0.4772 -0.0854 -0.3313
30378SOL    HW191712   7.502   2.834   3.744  1.0523 -0.3016 -0.0921
30378SOL    HW291713   7.553   2.691   3.742  0.0352 -0.6709 -0.3909
30379SOL     OW91714   7.362   4.308   9.205  0.0703 -0.0177 -0.0011
30379SOL    HW191715   7.374   4.260   9.123 -0.5662 -0.7595  0.3257
30379SOL    HW291716   7.424   4.267   9.266  0.9140  0.8767 -0.2436
30380SOL     OW91717   4.673   3.482   8.907  0.2942 -0.6620  0.4821
30380SOL    HW191718   4.582   3.509   8.902 -0.1945 -2.4021 -1.1942
30380SOL    HW291719   4.720   3.544   8.852 -0.4041 -1.5979 -1.2242
30381SOL     OW91720   6.994   4.323   7.209 -0.3069 -0.0541  0.0697
30381SOL    HW191721   6.996   4.413   7.179 -0.4015 -0.2863 -0.6608
30381SOL    HW291722   6.971   4.272   7.131  1.9761 -0.9476 -0.1083
30382SOL     OW91723   8.580   2.999   5.851  0.1216 -0.1808 -0.1699
30382SOL    HW191724   8.629   2.976   5.772 -0.0342  1.1558 -0.6772
30382SOL    HW291725   8.541   3.084   5.832  0.4245  0.3734  1.5019
30383SOL     OW91726   4.785   1.073   8.724  0.3460 -0.1918  0.2090
30383SOL    HW191727   4.711   1.135   8.726 -0.7577 -1.4610  1.4766
30383SOL    HW291728   4.773   1.025   8.642  1.7346  1.7874 -1.2468
30384SOL     OW91729   4.558   9.139   6.052  0.0799  0.0874 -0.7191
30384SOL    HW191730   4.577   9.046   6.055 -0.5093 -0.1021 -1.9428
30384SOL    HW291731   4.471   9.148   6.089  1.0098  0.4869  1.5373
30385SOL     OW91732   1.070   4.967   9.538 -0.0354 -0.6486  0.3619
30385SOL    HW191733   1.139   4.937   9.478  1.0046  3.3446 -0.7959
30385SOL    HW291734   1.113   4.975   9.623 -0.0930 -1.5720  0.4787
30386SOL     OW91735   1.430   0.833   1.987  0.2991  0.0271  0.0208
30386SOL    HW191736   1.443   0.880   1.905  0.4646 -0.6363 -0.3485
30386SOL    HW291737   1.336   0.819   1.992  0.2406  0.4946  0.1862
30387SOL     OW91738   9.390   5.817   2.674 -0.4966  0.2786  0.0391
30387SOL    HW191739   9.412   5.909   2.659 -3.1023  0.8729 -0.6085
30387SOL    HW291740   9.378   5.811   2.769  1.4534  0.1003  0.3237
30388SOL     OW91741   9.199   9.251   4.409  0.6808 -0.0171  0.5032
30388SOL    HW191742   9.194   9.206   4.494 -0.5376 -2.2738 -0.6497
30388SOL    HW291743   9.128   9.212   4.357  3.8153 -1.8183 -2.9235
30389SOL     OW91744   1.170   1.065   6.977 -0.1424  0.0742 -0.3169
30389SOL    HW191745   1.179   1.130   7.047  1.1154  1.8624 -2.0131
30389SOL    HW291746   1.249   1.011   6.984 -1.0624 -1.1716  0.9307
30390SOL     OW91747   4.212   2.080   6.936 -0.2014  0.0421 -0.0203
30390SOL    HW191748   4.155   2.118   6.869 -0.7095  0.3557  0.5819
30390SOL    HW291749   4.173   1.995   6.956  0.9489 -0.8512 -1.3849
30391SOL     OW91750   0.146   1.148   3.614 -0.0499  0.4684 -0.2225
30391SOL    HW191751   0.079   1.119   3.552 -0.9064 -0.5493  1.1290
30391SOL    HW291752   0.110   1.126   3.700  2.4586 -1.0591  0.5169
30392SOL     OW91753   9.063   9.755   1.883 -0.2834  0.4687  0.5903
30392SOL    HW191754   8.996   9.756   1.814  0.0932  3.2833  0.1186
30392SOL    HW291755   9.107   9.671   1.873 -2.3981 -0.6118 -0.3982
30393SOL     OW91756   1.520   2.073   3.497 -0.1569 -0.3398  0.1424
30393SOL    HW191757   1.488   1.983   3.505  2.1210 -1.1240  1.1734
30393SOL    HW291758   1.530   2.087   3.403  0.8821 -1.7058  0.0348
30394SOL     OW91759   5.879   0.101   7.225  0.4166 -0.0819  0.3301
30394SOL    HW191760   5.889   0.098   7.320 -0.1384  1.4587  0.4649
30394SOL    HW291761   5.955   0.055   7.191  0.6709 -0.5629  1.5209
30395SOL     OW91762   6.978   7.692   5.589 -0.1262  0.4042 -0.7638
30395SOL    HW191763   7.013   7.756   5.651 -1.0175 -1.4145  1.8011
30395SOL    HW291764   6.885   7.715   5.580  0.1056  0.9702 -1.9061
30396SOL     OW91765   9.677   9.950   6.404 -0.0209  0.3385  0.0234
30396SOL    HW191766   9.688  10.013   6.332  0.5148 -0.2960 -0.4630
30396SOL    HW291767   9.671   9.865   6.360  0.0292 -0.0281  0.7222
30397SOL     OW91768   2.075   4.159   0.210  0.3219  0.1665 -0.4319
30397SOL    HW191769   2.127   4.232   0.177  2.2663 -0.0508  1.9142
30397SOL    HW291770   2.140   4.090   0.228 -1.2679 -1.5664 -1.0407
30398SOL     OW91771   3.907   6.943   1.112  0.2762  0.2845  0.0570
30398SOL    HW191772   3.969   6.870   1.110  1.3229  1.1420  0.2993
30398SOL    HW291773   3.901   6.968   1.204  0.2730  0.7880 -0.0731
30399SOL     OW91774   8.105   9.619   2.731 -0.2844 -0.2452 -0.0466
30399SOL    HW191775   8.015   9.586   2.730  0.4710 -2.4484  0.1052
30399SOL    HW291776   8.147   9.575   2.657  0.7806  0.4361  0.1346
30400SOL     OW91777   1.761   1.258   1.493  0.1677 -0.4698  0.1967
30400SOL    HW191778   1.830   1.191   1.496  0.5707 -0.1304 -0.8664
30400SOL    HW291779   1.680   1.210   1.506  0.2565 -1.5279 -2.5182
30401SOL     OW91780   3.522   4.046   6.270  0.2401  0.1479  0.3204
30401SOL    HW191781   3.568   4.129   6.285 -1.2706  0.7839  1.7682
30401SOL    HW291782   3.512   4.040   6.175  3.5518 -0.2123 -0.1143
30402SOL     OW91783   3.630   6.684   3.463 -0.0777  0.5797 -0.0133
30402SOL    HW191784   3.676   6.645   3.388  0.1466  1.2003 -0.2015
30402SOL    HW291785   3.592   6.609   3.509  0.9136  0.0689  0.0118
30403SOL     OW91786   7.848   4.271   6.186 -0.8804 -0.1705 -0.4451
30403SOL    HW191787   7.871   4.363   6.171 -2.8367  0.4643  0.0624
30403SOL    HW291788   7.778   4.275   6.252 -0.2925 -2.1088  0.3650
30404SOL     OW91789   0.014   8.498   9.035  0.0753 -0.1414 -0.2786
30404SOL    HW191790  -0.002   8.453   8.952  1.3949  1.2650 -1.3674
30404SOL    HW291791   0.098   8.542   9.022  1.1352 -1.1295  2.3765
30405SOL     OW91792   3.942   1.418   6.891 -0.2599  0.4991 -0.0838
30405SOL    HW191793   3.986   1.443   6.809 -1.9558  0.9025 -0.9185
30405SOL    HW291794   3.960   1.491   6.951  1.3154  0.0252  0.0590
30406SOL     OW91795   6.734   2.080   7.106  0.2186  0.1540 -0.5405
30406SOL    HW191796   6.827   2.070   7.086  0.0919  1.1934 -1.8086
30406SOL    HW291797   6.691   2.086   7.020 -1.0995 -0.8436  0.0085
30407SOL     OW91798   8.232   6.288   5.892  0.4099 -0.4094  0.5075
30407SOL    HW191799   8.304   6.310   5.952  0.0388 -0.3327  0.9296
30407SOL    HW291800   8.158   6.268   5.949  0.5633 -2.1907  0.1249
30408SOL     OW91801   3.131   5.467   9.562 -0.1023 -0.2596 -0.4517
30408SOL    HW191802   3.080   5.530   9.613 -0.6361 -0.1770 -1.0650
30408SOL    HW291803   3.101   5.480   9.472  3.6000  2.3873 -1.5024
30409SOL     OW91804   1.541   5.489   6.695 -0.0608  0.1291  0.5459
30409SOL    HW191805   1.628   5.491   6.656 -0.4259 -0.8465 -0.3575
30409SOL    HW291806   1.482   5.467   6.623 -0.9640 -0.0210  1.2982
30410SOL     OW91807   9.718   6.413   2.607 -0.6874 -0.2479  0.0184
30410SOL    HW191808   9.803   6.387   2.642 -0.4271  1.7248  1.0180
30410SOL    HW291809   9.687   6.481   2.667 -1.8667  0.7859 -1.6641
30411SOL     OW91810   8.115   1.167   9.714  0.8130  0.0342  0.3193
30411SOL    HW191811   8.049   1.139   9.778  0.3920 -1.3182 -0.6532
30411SOL    HW291812   8.076   1.145   9.630  1.5691  1.3378 -0.3943
30412SOL     OW91813   5.836   0.322   5.577 -0.7087  0.6791 -0.2553
30412SOL    HW191814   5.850   0.357   5.489 -0.5661 -0.4377 -0.6913
30412SOL    HW291815   5.908   0.359   5.629  0.7992 -0.7379 -1.2340
30413SOL     OW91816   1.917   1.571   8.760  0.0562  0.0836  0.2667
30413SOL    HW191817   1.898   1.654   8.804 -1.5937 -0.7362  1.1859
30413SOL    HW291818   1.867   1.506   8.809  0.0220 -1.2307 -1.4274
30414SOL     OW91819   1.190   7.607   0.627 -0.0436 -0.4717  0.5461
30414SOL    HW191820   1.263   7.585   0.569 -1.9906 -1.9686 -1.4937
30414SOL    HW291821   1.205   7.699   0.651  0.9768  0.1622 -2.1957
30415SOL     OW91822   8.804   6.352   0.397 -0.6993 -0.0445  0.3752
30415SOL    HW191823   8.711   6.342   0.375 -0.3401  0.1871 -1.3453
30415SOL    HW291824   8.848   6.281   0.351 -0.1375 -0.9449  2.2320
30416SOL     OW91825   6.923   2.090   6.628  0.0759  0.1219 -0.3726
30416SOL    HW191826   6.952   2.095   6.719 -0.4961  2.4878 -0.2404
30416SOL    HW291827   6.845   2.035   6.631  1.0933 -1.3618  0.2187
30417SOL     OW91828   2.865   0.480   3.501  0.6158  0.4681 -0.2539
30417SOL    HW191829   2.894   0.557   3.452  1.2100  0.3423 -0.1118
30417SOL    HW291830   2.913   0.485   3.584 -0.4416  0.7268  0.3718
30418SOL     OW91831   0.743   1.916   3.102  0.0458 -0.2160  0.4863
30418SOL    HW191832   0.677   1.985   3.096 -1.1807 -1.4293 -0.8821
30418SOL    HW291833   0.825   1.962   3.120 -0.9751  1.4340  1.1087
30419SOL     OW91834   9.263   6.839   4.558 -0.0171 -1.1788 -0.0901
30419SOL    HW191835   9.181   6.849   4.510  1.2422  0.0503 -2.1273
30419SOL    HW291836   9.237   6.837   4.650 -2.1921  1.0012 -0.5551
30420SOL     OW91837   8.997   1.919   9.766 -0.0842  0.2967 -0.2733
30420SOL    HW191838   8.991   1.996   9.823  1.3029 -0.3181  0.7682
30420SOL    HW291839   9.015   1.846   9.826 -0.7475 -0.7564 -1.3019
30421SOL     OW91840   7.275   8.799   1.751  0.0562 -0.0373  0.1740
30421SOL    HW191841   7.221   8.828   1.677 -0.6270 -0.7241  0.3852
30421SOL    HW291842   7.235   8.840   1.827 -1.9759 -2.6895  0.7107
30422SOL     OW91843   8.580   5.879   8.193 -0.0445  0.3624  0.0989
30422SOL    HW191844   8.524   5.801   8.198  0.0271  0.3337  0.5519
30422SOL    HW291845   8.582   5.902   8.100 -0.8322  0.3773  0.0812
30423SOL     OW91846   9.576   0.468   9.404 -0.0406  0.5068 -0.0790
30423SOL    HW191847   9.593   0.375   9.419  0.9365  0.5742 -0.6399
30423SOL    HW291848   9.621   0.486   9.321 -0.0095  1.5388  0.1618
30424SOL     OW91849   4.290   7.900   1.770  0.0387 -0.0904 -0.5225
30424SOL    HW191850   4.360   7.948   1.725 -0.2269 -0.7733 -1.6957
30424SOL    HW291851   4.214   7.911   1.714 -1.2591  1.9097  1.4775
30425SOL     OW91852   5.378   3.944   7.858 -0.0710 -0.0228 -0.5794
30425SOL    HW191853   5.324   3.989   7.923 -0.4779 -1.3276  0.0295
30425SOL    HW291854   5.442   3.895   7.909 -0.4682 -1.1621 -1.1329
30426SOL     OW91855   7.166   1.644   6.641  0.2932 -0.5500  0.1197
30426SOL    HW191856   7.071   1.630   6.650  0.3933 -0.2674  2.0878
30426SOL    HW291857   7.178   1.737   6.662  1.0346 -0.6613  0.1936
30427SOL     OW91858   6.544   1.523   2.422 -0.2652  0.7921 -0.4403
30427SOL    HW191859   6.528   1.615   2.399 -0.4495  0.6766 -0.7833
30427SOL    HW291860   6.462   1.494   2.462 -0.0947  0.8668 -0.0265
30428SOL     OW91861   5.707   7.769   2.379  0.0826  0.7888 -0.1321
30428SOL    HW191862   5.712   7.725   2.294 -2.9936 -0.6320  0.2914
30428SOL    HW291863   5.797   7.769   2.412  0.8069 -1.8255 -1.8390
30429SOL     OW91864   9.223   3.801   4.442 -0.9032 -0.3715 -0.0998
30429SOL    HW191865   9.140   3.768   4.409 -1.4024  1.0429 -0.3113
30429SOL    HW291866   9.257   3.857   4.372 -0.6894  0.5404  0.7045
30430SOL     OW91867   5.399   3.103   1.705 -0.1537 -0.1389 -0.2184
30430SOL    HW191868   5.323   3.106   1.764 -0.9894  1.8300 -1.2885
30430SOL    HW291869   5.361   3.106   1.617  1.1307 -0.9693 -0.8264
30431SOL     OW91870   0.250   1.434   0.338  0.3985 -0.4368 -0.7431
30431SOL    HW191871   0.156   1.448   0.349 -0.0377 -2.7099 -0.9768
30431SOL    HW291872   0.263   1.435   0.243  0.3445 -1.3899 -0.7730
30432SOL     OW91873   2.518   3.902   0.420  0.8592  0.4442  0.5218
30432SOL    HW191874   2.508   3.986   0.465  0.2516  1.0175 -0.6453
30432SOL    HW291875   2.586   3.917   0.355  2.0392 -0.5061  1.4823
30433SOL     OW91876   4.014   0.842   5.022  0.6214 -0.2528  0.3500
30433SOL    HW191877   4.063   0.819   5.100  1.9881 -0.0860 -0.4289
30433SOL    HW291878   4.080   0.851   4.953 -0.5901 -1.2802 -1.0408
30434SOL     OW91879   4.675   0.848   7.626 -0.0558  0.1526  0.1551
30434SOL    HW191880   4.769   0.831   7.634 -0.4410 -2.1802  0.3006
30434SOL    HW291881   4.645   0.785   7.561 -1.5355  0.9198  0.0520
30435SOL     OW91882   9.403   7.332   2.074 -0.2222  0.6147 -0.2536
30435SOL    HW191883   9.343   7.386   2.023 -0.9863  1.0176  1.0167
30435SOL    HW291884   9.357   7.317   2.157  0.3481 -1.2504 -0.2215
30436SOL     OW91885   1.843   2.330   2.467 -0.1818 -0.1350  0.1760
30436SOL    HW191886   1.901   2.260   2.438  1.1116  0.9944 -0.1248
30436SOL    HW291887   1.901   2.390   2.515 -1.1324  0.9397  0.0329
30437SOL     OW91888   3.335   3.718   6.156  0.0386 -0.3985 -0.5731
30437SOL    HW191889   3.269   3.649   6.156 -2.3689  1.7067  0.8912
30437SOL    HW291890   3.311   3.774   6.082 -1.0375  1.3416  1.0021
30438SOL     OW91891   8.708   7.462   5.081  0.6183 -0.3167  0.3153
30438SOL    HW191892   8.619   7.428   5.071  0.1690  0.3159  1.8431
30438SOL    HW291893   8.756   7.424   5.008 -1.0791 -0.0720 -1.0026
30439SOL     OW91894   4.836   6.154   8.527 -0.4141 -0.1908  0.1799
30439SOL    HW191895   4.766   6.213   8.554 -0.0803  0.5771 -0.6109
30439SOL    HW291896   4.889   6.205   8.466 -0.9253 -1.7614 -1.6618
30440SOL     OW91897   5.926   8.779   6.365  0.3395 -0.9046  0.1818
30440SOL    HW191898   5.858   8.794   6.431 -0.1149 -1.1488 -0.2330
30440SOL    HW291899   5.992   8.727   6.412  0.3699 -0.4482  0.6597
30441SOL     OW91900   1.745   0.244   4.213 -0.3023  0.1962  0.0458
30441SOL    HW191901   1.662   0.292   4.218 -0.1552  0.4267  0.3073
30441SOL    HW291902   1.812   0.312   4.219 -0.0934  0.0449 -0.5442
30442SOL     OW91903   1.420   5.813   3.995 -0.3653 -0.4859  0.2761
30442SOL    HW191904   1.417   5.813   4.091 -2.1274 -1.1076  0.2523
30442SOL    HW291905   1.399   5.904   3.971  1.3316 -0.0123  0.4638
30443SOL     OW91906   4.514   9.725   7.307  0.2765 -0.6013 -0.4947
30443SOL    HW191907   4.581   9.682   7.360 -0.7608 -1.3725  0.2282
30443SOL    HW291908   4.466   9.654   7.266 -1.4668 -0.1701  0.7050
30444SOL     OW91909   1.539   8.354   7.438  0.3320  0.0358  0.0460
30444SOL    HW191910   1.538   8.335   7.344 -1.8143  0.3225 -0.0410
30444SOL    HW291911   1.626   8.391   7.454  0.8944 -0.3954 -1.7299
30445SOL     OW91912   6.172   0.155   2.388 -0.4283  0.0247 -0.4763
30445SOL    HW191913   6.143   0.087   2.328 -1.2392 -0.2539  0.2133
30445SOL    HW291914   6.216   0.108   2.459 -1.3392  0.1787  0.1987
30446SOL     OW91915   0.688   5.091   9.352 -0.1443  0.3930  0.3089
30446SOL    HW191916   0.613   5.073   9.295  0.2239  1.1577 -0.4436
30446SOL    HW291917   0.651   5.091   9.440 -0.6976 -0.9782  0.0993
30447SOL     OW91918   2.268   4.964   3.850 -0.3297  0.4253 -0.6353
30447SOL    HW191919   2.302   4.879   3.820 -0.9146  0.0032 -0.1081
30447SOL    HW291920   2.183   4.944   3.888 -0.4276  1.2411 -0.4121
30448SOL     OW91921   6.808   8.573   8.923  0.4250  0.8348  0.3886
30448SOL    HW191922   6.850   8.515   8.987  1.7624  1.6306  0.2652
30448SOL    HW291923   6.859   8.654   8.927 -0.5942  1.5349 -0.3916
30449SOL     OW91924   3.199   7.214   1.364  0.4638  0.3426  0.2923
30449SOL    HW191925   3.210   7.306   1.342  2.2646  0.2463  0.6206
30449SOL    HW291926   3.271   7.195   1.425  0.5452 -1.4457 -0.2955
30450SOL     OW91927   3.402   8.890   6.591 -0.2601 -0.0799  0.2566
30450SOL    HW191928   3.333   8.920   6.532  0.7314  1.3776 -0.2349
30450SOL    HW291929   3.479   8.942   6.566  1.3414 -2.3557  0.0599
30451SOL     OW91930   3.395   5.188   4.365 -0.4731 -0.3637  0.0458
30451SOL    HW191931   3.448   5.266   4.378 -1.1610  0.2581 -0.7601
30451SOL    HW291932   3.449   5.116   4.398  1.4759  0.0469 -2.0067
30452SOL     OW91933   9.636   2.296   9.020  0.3543 -0.1081 -0.5381
30452SOL    HW191934   9.591   2.214   9.002 -1.2097  0.6522 -0.2732
30452SOL    HW291935   9.585   2.336   9.091  3.0053 -0.4089  1.6946
30453SOL     OW91936   0.968   8.751   6.860  0.3203  0.3675 -0.3942
30453SOL    HW191937   1.056   8.785   6.874  0.9397 -1.8784  2.1281
30453SOL    HW291938   0.943   8.714   6.945 -2.6119 -0.1179 -1.3409
30454SOL     OW91939   1.149   3.158   7.108  0.4159 -0.5641 -0.2179
30454SOL    HW191940   1.224   3.142   7.050  0.2499  0.5810 -0.7727
30454SOL    HW291941   1.086   3.204   7.053  0.0110  0.0065  0.7170
30455SOL     OW91942   8.519   9.654   6.319 -0.0370 -0.4198  0.1552
30455SOL    HW191943   8.478   9.632   6.235 -0.2837  1.3404 -0.2248
30455SOL    HW291944   8.603   9.608   6.317 -0.4216 -1.1173 -0.6688
30456SOL     OW91945   4.935   2.966   3.047  0.0794 -0.1390 -0.1142
30456SOL    HW191946   4.985   2.937   2.972 -0.7826 -0.2805 -0.6537
30456SOL    HW291947   4.845   2.937   3.029 -0.3900  0.9439  0.3532
30457SOL     OW91948   7.177   4.445   3.722 -0.3899 -0.9850 -0.5452
30457SOL    HW191949   7.195   4.480   3.809 -1.2028  1.2713 -1.2130
30457SOL    HW291950   7.186   4.350   3.732  0.1802 -0.7479  1.8149
30458SOL     OW91951   8.150   4.252   8.852 -0.0571 -0.0124 -0.2793
30458SOL    HW191952   8.099   4.318   8.898  0.0150 -0.9796  1.2366
30458SOL    HW291953   8.086   4.207   8.797 -0.1093  1.2642 -1.3123
30459SOL     OW91954   8.670   3.075   8.770  0.1980 -0.3156  0.0825
30459SOL    HW191955   8.619   3.058   8.850  0.9313 -0.0427  0.6106
30459SOL    HW291956   8.756   3.037   8.788  0.8005  0.9490 -0.0435
30460SOL     OW91957   2.030   8.192   2.385  0.3142 -0.0439  0.3258
30460SOL    HW191958   1.978   8.147   2.317 -0.2696  0.5837  0.3470
30460SOL    HW291959   2.017   8.139   2.463 -1.7428  1.0165  0.7865
30461SOL     OW91960   7.231   3.103   6.235 -0.0294  0.4605 -0.2477
30461SOL    HW191961   7.171   3.083   6.163  0.0030 -2.9304  0.4635
30461SOL    HW291962   7.305   3.148   6.194 -0.2867 -0.8478 -2.2725
30462SOL     OW91963   1.521   0.232   6.117  0.0337 -0.0741  0.4226
30462SOL    HW191964   1.601   0.218   6.066 -0.3740 -2.0751  0.2503
30462SOL    HW291965   1.551   0.237   6.208  0.3479 -1.4671  0.4235
30463SOL     OW91966   5.726   0.546   8.251  0.2144  0.3258  0.4139
30463SOL    HW191967   5.708   0.565   8.343 -0.8683  1.8136 -0.0674
30463SOL    HW291968   5.786   0.616   8.224 -0.2737  0.4899 -0.2612
30464SOL     OW91969   0.115   9.211   8.886  0.1096 -0.6034  0.4613
30464SOL    HW191970   0.039   9.246   8.840 -0.3226 -2.6460 -0.4604
30464SOL    HW291971   0.085   9.198   8.976 -0.3281 -0.4710  0.3377
30465SOL     OW91972   0.789   6.119   2.306  0.2571 -0.3844 -0.3474
30465SOL    HW191973   0.843   6.190   2.270 -0.1143 -0.5981 -1.3636
30465SOL    HW291974   0.701   6.156   2.310  0.3920 -0.1613  0.9522
30466SOL     OW91975   6.635   0.161   3.944  0.3303  0.2629 -0.9518
30466SOL    HW191976   6.637   0.096   4.015  2.1362 -2.2960 -3.1388
30466SOL    HW291977   6.542   0.178   3.930 -0.1098  0.2038  1.4096
30467SOL     OW91978   8.547   5.409   2.470 -0.1392 -0.8028 -0.0502
30467SOL    HW191979   8.562   5.383   2.561 -0.0854  1.6634  0.6952
30467SOL    HW291980   8.564   5.329   2.420  1.3880 -1.8214  1.9482
30468SOL     OW91981   3.528   3.172   6.703 -0.4603 -0.5831  0.0470
30468SOL    HW191982   3.591   3.121   6.653 -1.2852  0.5754 -2.3501
30468SOL    HW291983   3.462   3.108   6.731  0.5616 -1.4224  0.5831
30469SOL     OW91984   5.028   5.102   1.874 -0.3687  0.5703  0.5895
30469SOL    HW191985   5.091   5.146   1.816  1.1286 -1.4605  0.5625
30469SOL    HW291986   5.035   5.148   1.957  0.6743  0.8107  0.3792
30470SOL     OW91987   7.252   6.246   6.402  0.0926 -0.2374 -0.3530
30470SOL    HW191988   7.273   6.236   6.495  0.5713 -0.4277 -0.4813
30470SOL    HW291989   7.282   6.164   6.362 -0.9991 -0.5811 -0.5225
30471SOL     OW91990   1.285   3.150   1.219  0.4525 -0.0064  0.1678
30471SOL    HW191991   1.356   3.092   1.248 -1.1663 -1.7039  0.9420
30471SOL    HW291992   1.251   3.109   1.140  0.2685  0.7515 -0.1533
30472SOL     OW91993   1.539   1.494   7.567  0.0558 -0.4114 -0.5078
30472SOL    HW191994   1.606   1.429   7.591  0.6218  0.5831  0.6998
30472SOL    HW291995   1.531   1.549   7.645 -1.6796 -0.0815 -0.8853
30473SOL     OW91996   4.518   5.018   9.722  0.2689  0.3960 -0.2588
30473SOL    HW191997   4.476   5.011   9.636 -0.2503 -0.8617  0.0652
30473SOL    HW291998   4.449   5.054   9.779 -0.5142 -1.8254  0.3105
30474SOL     OW91999   6.458   7.353   5.431  0.2380 -0.7445  0.1076
30474SOL    HW192000   6.529   7.393   5.481  0.2037 -1.3804  0.6865
30474SOL    HW292001   6.489   7.265   5.411 -1.0248 -1.6347  1.8143
30475SOL     OW92002   6.218   5.588   2.995 -0.3531 -0.4317  0.0154
30475SOL    HW192003   6.228   5.612   2.903 -0.4439  0.5889  0.2542
30475SOL    HW292004   6.279   5.516   3.009 -1.8896 -2.1003 -1.3691
30476SOL     OW92005   8.266   3.898   2.321 -0.5159 -0.0371 -0.1950
30476SOL    HW192006   8.352   3.938   2.329 -0.7638  0.6360 -0.7876
30476SOL    HW292007   8.232   3.929   2.237 -1.7159  0.4454  0.4442
30477SOL     OW92008   5.840   5.640   9.760 -0.0400 -0.8915 -0.0445
30477SOL    HW192009   5.750   5.635   9.730 -0.1418  0.3946 -0.0019
30477SOL    HW292010   5.837   5.696   9.837  1.1545  1.6993 -1.7333
30478SOL     OW92011   6.293   7.895   8.152  0.2283  0.3209  0.0406
30478SOL    HW192012   6.212   7.939   8.125  0.8610  1.3817 -0.1806
30478SOL    HW292013   6.296   7.815   8.099 -2.3728 -1.5667  2.4136
30479SOL     OW92014   5.323   2.594   4.935  0.4253  0.1666 -0.5350
30479SOL    HW192015   5.413   2.586   4.969  0.6979 -0.3665 -1.3614
30479SOL    HW292016   5.329   2.566   4.844 -0.7036 -0.4307 -0.4422
30480SOL     OW92017   8.529   0.958   8.890 -0.3177 -0.4218 -0.0637
30480SOL    HW192018   8.609   1.010   8.892 -0.7292  0.2052  0.2398
30480SOL    HW292019   8.555   0.872   8.922 -0.1356  0.2879  1.7827
30481SOL     OW92020   0.862   7.897   2.791 -0.2197 -0.0588 -0.5931
30481SOL    HW192021   0.839   7.812   2.752 -1.1682  0.6795 -1.7087
30481SOL    HW292022   0.786   7.952   2.775 -0.2026  0.6170  1.4115
30482SOL     OW92023   0.364   9.272   8.790 -0.4522 -0.1762 -0.2094
30482SOL    HW192024   0.373   9.183   8.823 -0.9302  0.1663  0.8822
30482SOL    HW292025   0.276   9.299   8.815 -0.3660  0.5556 -0.6520
30483SOL     OW92026   6.953   6.414   1.105 -0.0499 -0.9474  0.2787
30483SOL    HW192027   6.913   6.351   1.046  2.5984 -4.1746  1.6601
30483SOL    HW292028   7.033   6.441   1.062 -0.7585  0.9973  0.0709
30484SOL     OW92029   7.120   7.149   9.042 -0.2217 -0.0923  0.0010
30484SOL    HW192030   7.211   7.126   9.060 -0.2380 -0.9640 -0.8990
30484SOL    HW292031   7.112   7.241   9.068  1.1205  0.2224 -0.6259
30485SOL     OW92032   7.751   5.994   3.192  0.2231  0.2787  0.1278
30485SOL    HW192033   7.748   6.061   3.260  0.7108  0.3255  0.1065
30485SOL    HW292034   7.781   5.915   3.237 -1.7751 -0.3446  0.4798
30486SOL     OW92035   6.224   2.457   9.672  0.4044 -0.5949  0.1507
30486SOL    HW192036   6.278   2.419   9.603  0.6858  0.4590 -0.2410
30486SOL    HW292037   6.279   2.527   9.708 -0.4885  0.1410  0.1199
30487SOL     OW92038   4.129   3.879   5.646 -0.2888  0.2005  0.1196
30487SOL    HW192039   4.058   3.831   5.603 -2.1225  2.3755  0.5206
30487SOL    HW292040   4.155   3.946   5.582  0.7000  0.0917  0.3857
30488SOL     OW92041   6.842   7.645   0.101 -0.2078  0.1863 -0.3611
30488SOL    HW192042   6.864   7.738   0.094 -0.2547  0.2484  0.2450
30488SOL    HW292043   6.918   7.600   0.065 -1.0820  0.4820 -2.7845
30489SOL     OW92044   1.185   0.929   5.782 -0.0494  0.4067 -0.2423
30489SOL    HW192045   1.201   0.960   5.871 -2.5112  2.0044 -0.2735
30489SOL    HW292046   1.258   0.964   5.731  0.1377  1.5077  0.7406
30490SOL     OW92047   1.254   6.967   5.713  0.2724  0.2869 -0.0904
30490SOL    HW192048   1.332   7.020   5.726  2.0844 -2.1621 -0.2582
30490SOL    HW292049   1.287   6.878   5.699 -2.5644 -0.9429  0.2596
30491SOL     OW92050   2.599   1.193   9.385  0.4661 -0.6153  0.5078
30491SOL    HW192051   2.535   1.138   9.429  0.0602  0.4835  1.3186
30491SOL    HW292052   2.612   1.268   9.443  1.7692 -0.3374 -0.0904
30492SOL     OW92053   3.337   7.402   0.286 -0.6012  0.9387 -0.5503
30492SOL    HW192054   3.420   7.404   0.333 -0.2430  0.2391 -1.1438
30492SOL    HW292055   3.283   7.338   0.333 -0.7938  1.3499 -0.2006
30493SOL     OW92056   3.589   6.423   5.626 -0.2161  0.4399  0.2798
30493SOL    HW192057   3.627   6.418   5.538  1.7564  1.5731  0.9990
30493SOL    HW292058   3.538   6.504   5.626 -1.4586 -0.3091 -0.2227
30494SOL     OW92059   3.293   4.943   4.340  0.1480 -0.1075  0.1041
30494SOL    HW192060   3.315   5.036   4.353 -1.6847  0.2437  1.0768
30494SOL    HW292061   3.357   4.912   4.276  0.8486  1.8135 -0.2059
30495SOL     OW92062   8.876   2.309   9.572 -0.4981  0.3800  0.5335
30495SOL    HW192063   8.884   2.361   9.651  0.3752  1.4159 -0.2072
30495SOL    HW292064   8.965   2.280   9.553 -0.3869  1.5739 -0.9807
30496SOL     OW92065   3.159   7.249   0.889 -0.4217 -0.4313  0.8343
30496SOL    HW192066   3.183   7.157   0.898 -0.7255 -0.4600  1.4166
30496SOL    HW292067   3.231   7.298   0.929 -0.6321 -0.4561  1.2535
30497SOL     OW92068   8.547   1.095   9.956  0.2028 -0.1941  0.1409
30497SOL    HW192069   8.467   1.043   9.961 -0.6543  1.1534  1.0251
30497SOL    HW292070   8.605   1.045   9.898 -0.1041 -2.7256  1.8770
30498SOL     OW92071   9.359   9.495   9.118 -0.3851 -0.2516 -0.4127
30498SOL    HW192072   9.346   9.585   9.149  0.5451 -0.2674  0.0666
30498SOL    HW292073   9.284   9.447   9.153  0.1347 -0.0610  1.0404
30499SOL     OW92074   3.634   7.616   4.026 -0.2677 -0.3532  0.0938
30499SOL    HW192075   3.549   7.653   4.046  0.4081  1.0733  0.4433
30499SOL    HW292076   3.695   7.690   4.032  1.1603 -1.5441  0.9806
30500SOL     OW92077  -0.006   6.008   4.972 -0.3033 -0.0114  0.1636
30500SOL    HW192078   0.056   6.064   5.018 -0.5717 -0.5395  1.1962
30500SOL    HW292079  -0.005   5.925   5.020 -0.0695 -0.8319 -1.2195
30501SOL     OW92080   9.942   1.361   4.359 -0.1070  0.0279  0.3606
30501SOL    HW192081   9.887   1.357   4.281 -0.1409  1.8906  0.2511
30501SOL    HW292082   9.894   1.312   4.426 -1.5362  0.9497  0.0457
30502SOL     OW92083   3.795   0.600   6.560 -0.1072 -0.3653 -0.4701
30502SOL    HW192084   3.799   0.678   6.614  2.6974 -0.1176 -0.8814
30502SOL    HW292085   3.778   0.528   6.621 -0.5165  0.3147  0.2214
30503SOL     OW92086   6.633   2.737   5.412 -0.1788  0.2356 -0.3456
30503SOL    HW192087   6.624   2.727   5.317 -0.8479  1.0457 -0.3809
30503SOL    HW292088   6.552   2.779   5.439  0.3610  0.7887  0.4650
30504SOL     OW92089   3.875   0.753   9.782  0.3950 -0.1594 -0.1717
30504SOL    HW192090   3.850   0.789   9.867  1.7362 -1.6801  0.9370
30504SOL    HW292091   3.792   0.733   9.739 -0.3748  2.8252 -0.2966
30505SOL     OW92092  -0.026   3.735   5.583 -0.1716  0.0112 -0.2790
30505SOL    HW192093   0.024   3.765   5.506 -0.2014  1.2114  0.1426
30505SOL    HW292094   0.021   3.772   5.657 -1.0632  0.2236  0.1882
30506SOL     OW92095   5.120   5.833   8.450  0.0490  0.3178 -0.0838
30506SOL    HW192096   5.137   5.760   8.391 -0.4724 -0.5999  0.8570
30506SOL    HW292097   5.032   5.863   8.427 -0.8387 -1.1228  1.2798
30507SOL     OW92098   2.864   8.032   5.409 -0.4906  0.1631 -0.3523
30507SOL    HW192099   2.898   8.117   5.436  0.8397 -0.0619 -1.2511
30507SOL    HW292100   2.930   7.997   5.350 -1.8504 -0.7155 -1.4163
30508SOL     OW92101   1.042   3.885   2.347  0.2688 -0.9397 -0.3545
30508SOL    HW192102   1.124   3.936   2.350 -0.4653  0.2188  0.8697
30508SOL    HW292103   1.020   3.881   2.254  1.0045 -0.0786 -0.5801
30509SOL     OW92104   9.313   4.953   7.810 -0.5512 -0.0572  0.2283
30509SOL    HW192105   9.355   4.910   7.735 -1.0115 -0.9288  0.4570
30509SOL    HW292106   9.359   5.036   7.819 -0.0263 -0.2498 -0.5921
30510SOL     OW92107   0.031   9.268   2.197 -0.2055 -0.1673  0.4278
30510SOL    HW192108   0.044   9.347   2.250 -3.5958  0.0365  1.2090
30510SOL    HW292109   0.009   9.200   2.261  0.8887 -1.3251 -0.3843
30511SOL     OW92110   7.381   9.057   1.977  0.4946  0.0794  0.8170
30511SOL    HW192111   7.286   9.051   1.976  0.3336  1.9420  1.2621
30511SOL    HW292112   7.408   9.005   2.052 -0.3081  0.7565  1.6022
30512SOL     OW92113   8.831   3.801   8.494  0.4328 -0.0557 -0.1129
30512SOL    HW192114   8.815   3.870   8.431  0.1400  1.1237  1.1977
30512SOL    HW292115   8.857   3.847   8.574 -0.5545 -1.4059  1.0411
30513SOL     OW92116   4.676   2.074   4.492 -0.2678 -0.4287 -0.1405
30513SOL    HW192117   4.698   2.002   4.433  2.4264 -0.5250  0.8163
30513SOL    HW292118   4.694   2.039   4.580 -1.0082  0.7491  0.5077
30514SOL     OW92119   8.750   7.849   5.196  0.4155  0.2626 -0.3729
30514SOL    HW192120   8.738   7.832   5.103  2.4519 -3.8486 -0.1384
30514SOL    HW292121   8.797   7.932   5.199 -0.1107  0.7410 -2.9669
30515SOL     OW92122   2.147   3.975   8.922 -0.2892  0.5030  0.3650
30515SOL    HW192123   2.108   3.887   8.923  1.3026 -0.2308  0.7452
30515SOL    HW292124   2.176   3.989   9.011  2.1342  0.1394 -0.2976
30516SOL     OW92125   3.702   1.577   0.425  0.3139 -0.9093  0.1956
30516SOL    HW192126   3.762   1.649   0.443  1.2645 -1.3814 -0.9370
30516SOL    HW292127   3.743   1.501   0.467  0.2787 -1.1366 -0.1752
30517SOL     OW92128   0.501   0.304   7.648  0.4181 -0.1198 -0.4095
30517SOL    HW192129   0.516   0.225   7.596  0.8251 -0.9827  0.9590
30517SOL    HW292130   0.563   0.297   7.720 -0.9019  0.4496  0.8333
30518SOL     OW92131   7.247   4.540   8.248  0.3145 -0.4638 -0.3686
30518SOL    HW192132   7.317   4.488   8.289  0.4675 -0.9251 -1.2031
30518SOL    HW292133   7.280   4.560   8.161  0.5868  1.7049  0.1731
30519SOL     OW92134   6.712   9.665   1.318 -0.2385  0.0306  0.2236
30519SOL    HW192135   6.727   9.586   1.265  0.7115  0.2363  0.1783
30519SOL    HW292136   6.786   9.722   1.299 -0.3873  0.5159  1.0387
30520SOL     OW92137  -0.006   7.978   2.268  0.0982  0.2672  0.2320
30520SOL    HW192138  -0.023   8.008   2.179  0.7576 -0.0078  0.0085
30520SOL    HW292139   0.065   8.035   2.299  0.1058  0.1369  0.4580
30521SOL     OW92140   7.458   2.596   9.421 -0.3915 -0.7354  0.3663
30521SOL    HW192141   7.483   2.648   9.345 -1.1901 -0.9020 -0.0262
30521SOL    HW292142   7.538   2.551   9.447 -0.3331 -1.5161 -1.0556
30522SOL     OW92143   6.301   5.995   3.131 -0.0822 -0.0689  0.0449
30522SOL    HW192144   6.292   6.090   3.130 -0.3971 -0.0744  1.1265
30522SOL    HW292145   6.390   5.980   3.164  1.1490 -0.1402 -2.9769
30523SOL     OW92146   2.661   1.743   9.221  0.0205  0.1854  0.5128
30523SOL    HW192147   2.658   1.775   9.131 -1.8344  1.8384  1.0846
30523SOL    HW292148   2.572   1.756   9.254  0.9972  1.1215  3.0376
30524SOL     OW92149   3.922   2.168   4.533  0.0056  0.1173 -0.6406
30524SOL    HW192150   4.017   2.160   4.537  0.0595  0.5343 -1.0135
30524SOL    HW292151   3.901   2.240   4.592 -0.1414 -0.3921 -0.0628
30525SOL     OW92152   2.468   0.163   5.793 -0.0599 -0.3427  0.0380
30525SOL    HW192153   2.461   0.131   5.882  2.4947  2.4079  1.4448
30525SOL    HW292154   2.501   0.088   5.742  1.3215 -1.2231  2.0970
30526SOL     OW92155   0.136   2.354   0.508 -0.6830 -0.0901 -0.2825
30526SOL    HW192156   0.059   2.328   0.456 -1.1056 -2.5279  1.4037
30526SOL    HW292157   0.194   2.278   0.504  0.5696  0.7890  0.4937
30527SOL     OW92158   2.296   9.158   1.521  0.0162  0.2474  0.1541
30527SOL    HW192159   2.364   9.207   1.568  0.9929 -2.6001  2.0230
30527SOL    HW292160   2.262   9.098   1.587 -0.4484 -2.1715 -2.1554
30528SOL     OW92161   7.465   1.138   6.886  0.6251 -0.6796 -0.0639
30528SOL    HW192162   7.482   1.047   6.912  1.0931 -0.2457  1.1727
30528SOL    HW292163   7.372   1.138   6.862  0.0307 -1.0184  2.0747
30529SOL     OW92164   7.199   8.956   7.960  0.4400  0.3118 -0.1951
30529SOL    HW192165   7.198   8.975   7.866  2.6835  2.2260  0.0740
30529SOL    HW292166   7.217   8.863   7.966  1.9504  0.4622 -1.6945
30530SOL     OW92167   4.830   1.644   2.809  0.5952 -0.2751  0.7048
30530SOL    HW192168   4.795   1.689   2.886 -0.2127 -0.4816  0.4664
30530SOL    HW292169   4.786   1.559   2.807  0.2151 -0.0781 -0.2594
30531SOL     OW92170   8.979   4.020   3.120  0.6105 -0.0929  0.3562
30531SOL    HW192171   9.046   4.010   3.188  0.7064 -0.3703  0.2191
30531SOL    HW292172   8.911   3.957   3.143  0.5693 -0.0759  0.2819
30532SOL     OW92173   0.536   0.500   5.392  0.0540 -0.0910 -0.6273
30532SOL    HW192174   0.465   0.498   5.328  1.5117 -1.1967 -2.3003
30532SOL    HW292175   0.542   0.410   5.425  0.7825 -0.0494 -0.6262
30533SOL     OW92176   0.724   4.610   2.962  0.1928  0.7894  0.0900
30533SOL    HW192177   0.765   4.595   2.877  0.1811 -1.1337  0.3852
30533SOL    HW292178   0.798   4.627   3.021  0.2289  1.6801 -0.1892
30534SOL     OW92179   1.950   2.227   2.772 -0.2645  0.1279 -0.6760
30534SOL    HW192180   2.044   2.209   2.781 -0.6790 -1.3923  1.1420
30534SOL    HW292181   1.943   2.277   2.690  2.1252  0.3688 -0.7947
30535SOL     OW92182   1.207   3.202   7.372 -0.6904 -0.6250 -0.5263
30535SOL    HW192183   1.218   3.192   7.277  1.7487  1.9211 -0.6745
30535SOL    HW292184   1.114   3.191   7.387 -1.0524 -1.8403 -3.1017
30536SOL     OW92185   4.564   6.839   8.588  0.9370 -0.2456  0.0721
30536SOL    HW192186   4.645   6.886   8.609  0.2976  1.6372 -1.4173
30536SOL    HW292187   4.515   6.837   8.670  1.7512  0.1378  0.5763
30537SOL     OW92188   5.786   3.553   4.351  0.0882  0.1788 -0.2336
30537SOL    HW192189   5.826   3.477   4.393  0.0100 -0.6905 -1.6716
30537SOL    HW292190   5.700   3.523   4.324 -0.2884  1.0585 -0.0672
30538SOL     OW92191   2.556   3.019   8.088 -0.0683  0.0036 -0.4859
30538SOL    HW192192   2.541   3.039   7.996  1.6710  1.6223 -0.4785
30538SOL    HW292193   2.469   3.022   8.128 -0.5222  2.4645 -1.5099
30539SOL     OW92194   6.541   9.265   1.004 -0.4426  0.1631  0.5184
30539SOL    HW192195   6.594   9.318   1.063 -0.0477  1.1926 -0.6986
30539SOL    HW292196   6.553   9.306   0.918  2.1533 -3.4977 -1.1011
30540SOL     OW92197   3.470   9.027   4.607  0.3721  0.4406 -0.3142
30540SOL    HW192198   3.502   8.985   4.687 -1.6257  0.5080  0.5743
30540SOL    HW292199   3.470   8.956   4.542  1.0820  0.1452 -0.0100
30541SOL     OW92200   5.495   5.546   7.506  0.2737  0.4238  1.3751
30541SOL    HW192201   5.425   5.610   7.503  0.9059  1.1182 -0.7023
30541SOL    HW292202   5.460   5.473   7.558 -1.6124  1.1446  1.1673
30542SOL     OW92203   4.906   7.363   1.937  0.0615  0.0133  0.1940
30542SOL    HW192204   4.913   7.343   1.844 -1.5594  1.9885 -0.4502
30542SOL    HW292205   4.886   7.279   1.979 -0.3757 -0.7176 -1.4140
30543SOL     OW92206   6.255   2.631   2.383  0.3152  0.1231  0.1321
30543SOL    HW192207   6.194   2.566   2.349 -0.1645 -0.0859  1.3316
30543SOL    HW292208   6.300   2.665   2.306  0.5563 -1.5925 -0.5128
30544SOL     OW92209   4.399   8.351   9.869  0.2796  0.2206 -0.0243
30544SOL    HW192210   4.360   8.322   9.786  0.2621 -0.7049  0.2962
30544SOL    HW292211   4.459   8.421   9.844  1.4542 -1.0771 -1.0381
30545SOL     OW92212   2.651   6.349   7.262 -0.2481 -0.0217 -0.7016
30545SOL    HW192213   2.610   6.266   7.285 -0.7238  0.7622  1.5828
30545SOL    HW292214   2.595   6.385   7.193 -0.5872 -1.1427 -1.0304
30546SOL     OW92215   7.665   3.836   4.092 -0.3097  0.3360  0.6372
30546SOL    HW192216   7.648   3.881   4.009 -2.1426 -0.1664  0.6873
30546SOL    HW292217   7.679   3.745   4.067  1.4445  0.5672  0.7025
30547SOL     OW92218   4.745   4.198   0.070  0.5018  0.0872  0.4290
30547SOL    HW192219   4.793   4.135   0.017  0.7067 -0.0463  0.7735
30547SOL    HW292220   4.709   4.147   0.142  0.4247  0.3126  0.5506
30548SOL     OW92221   8.549   2.864   2.883 -0.0734  0.2184 -0.1207
30548SOL    HW192222   8.467   2.913   2.876  0.1796  0.8686  1.2833
30548SOL    HW292223   8.522   2.774   2.900 -0.4926  0.4861  0.6322
30549SOL     OW92224   9.228   6.468   2.806  0.0904  0.3950 -0.1621
30549SOL    HW192225   9.269   6.521   2.737  3.3111  1.2263  2.1332
30549SOL    HW292226   9.151   6.519   2.833 -0.8981  0.3323 -2.6126
30550SOL     OW92227   2.879   2.249   9.316 -0.4007 -0.3862  0.5013
30550SOL    HW192228   2.885   2.345   9.315 -1.3603 -0.3062  0.8402
30550SOL    HW292229   2.824   2.228   9.240 -0.7116 -0.6203  0.7871
30551SOL     OW92230   8.556   6.344   0.264 -0.1769 -0.1068  0.3730
30551SOL    HW192231   8.465   6.371   0.250  0.0629 -0.4244 -2.0749
30551SOL    HW292232   8.556   6.250   0.244  0.6201 -0.2039  0.7987
30552SOL     OW92233   0.321   4.326   2.084  0.7143  0.2281 -0.0787
30552SOL    HW192234   0.368   4.264   2.027  0.6325 -1.2390  1.3809
30552SOL    HW292235   0.337   4.294   2.173 -0.9698  1.1685  0.6139
30553SOL     OW92236   5.657   1.243   2.875 -0.6682  0.4008  0.3637
30553SOL    HW192237   5.747   1.248   2.842 -0.0874  0.6128  1.9025
30553SOL    HW292238   5.610   1.192   2.809  1.0485 -1.4881  0.5073
30554SOL     OW92239   0.711   9.016   1.568  0.1403  0.2228 -0.1306
30554SOL    HW192240   0.745   9.106   1.570  0.4164  0.1224 -0.2916
30554SOL    HW292241   0.669   9.005   1.653 -0.9244  0.9002 -0.5416
30555SOL     OW92242   5.937   5.892   1.645  0.1360 -0.4798 -0.2027
30555SOL    HW192243   5.983   5.930   1.570 -2.9877  2.9461 -0.6382
30555SOL    HW292244   5.918   5.966   1.702 -1.5651 -2.2910  1.7588
30556SOL     OW92245   5.199   0.975   2.862 -0.3103  0.9150 -0.1772
30556SOL    HW192246   5.190   1.030   2.784  1.0006 -1.2137 -1.9303
30556SOL    HW292247   5.165   0.890   2.836  2.7955 -0.7004  0.4998
30557SOL     OW92248   0.632   8.568   4.250 -0.1589 -0.2123 -0.6081
30557SOL    HW192249   0.708   8.580   4.193  0.4016 -0.6427  0.0434
30557SOL    HW292250   0.657   8.497   4.309  0.4859  2.1791  2.2314
30558SOL     OW92251   3.782   7.463   5.829  0.3144  0.3217 -0.1828
30558SOL    HW192252   3.739   7.545   5.804 -0.9185  1.1489  3.8578
30558SOL    HW292253   3.875   7.484   5.832  0.2238  0.9201 -1.1322
30559SOL     OW92254   3.026   4.889   7.736  0.8906  0.1579 -0.9955
30559SOL    HW192255   3.079   4.820   7.776 -2.5724 -2.3580 -0.2980
30559SOL    HW292256   3.004   4.856   7.649 -1.1431  0.0893 -0.5129
30560SOL     OW92257   6.227   8.085   5.922 -0.5897  0.3322  0.6507
30560SOL    HW192258   6.221   8.177   5.895 -1.7814  0.6060  1.7786
30560SOL    HW292259   6.168   8.038   5.863  1.1388 -0.0015 -0.9291
30561SOL     OW92260   7.822   5.543   5.814 -0.3200 -0.2809  0.4469
30561SOL    HW192261   7.882   5.617   5.803 -0.2675 -0.2307  1.0006
30561SOL    HW292262   7.791   5.523   5.726 -1.7894  1.6352  0.4642
30562SOL     OW92263   1.397   1.474   0.727  0.1307 -0.1478  0.5635
30562SOL    HW192264   1.479   1.523   0.737  0.7836 -1.0636 -0.0713
30562SOL    HW292265   1.330   1.530   0.766  1.3736 -0.3541  3.2256
30563SOL     OW92266   3.117   5.883   2.913  0.1996  0.2214  0.4011
30563SOL    HW192267   3.052   5.876   2.843 -0.3556  2.1786  0.6558
30563SOL    HW292268   3.180   5.814   2.894 -0.4922  0.0308 -1.4339
30564SOL     OW92269   2.193   6.632   3.287 -0.5964 -0.4541  0.2230
30564SOL    HW192270   2.219   6.549   3.326  0.4217  0.1473  0.8790
30564SOL    HW292271   2.136   6.608   3.214 -0.2243 -1.7241  0.3310
30565SOL     OW92272   7.966   0.462   0.304 -0.1190  0.3444 -0.8285
30565SOL    HW192273   7.917   0.488   0.226  0.3995  0.7447 -1.0296
30565SOL    HW292274   7.912   0.395   0.346 -1.8213  2.1635  0.0399
30566SOL     OW92275   6.661   5.788   7.991  0.4981 -0.2261 -0.1758
30566SOL    HW192276   6.605   5.713   7.975 -1.0499  1.2523 -2.2369
30566SOL    HW292277   6.720   5.791   7.916  0.6287  0.5030 -0.0579
30567SOL     OW92278   6.255   4.913   1.946  0.4251  0.2114  0.2135
30567SOL    HW192279   6.325   4.863   1.989 -0.7400 -0.3012  1.5795
30567SOL    HW292280   6.284   4.921   1.855  1.9804 -0.4928  0.6119
30568SOL     OW92281   5.390   2.410   3.736 -0.4615 -0.5322  0.2621
30568SOL    HW192282   5.398   2.424   3.831  0.8574  0.6344  0.0156
30568SOL    HW292283   5.410   2.496   3.698 -2.1206 -0.6984 -1.0452
30569SOL     OW92284   9.852   6.039   7.241 -0.3001  0.1942  0.3901
30569SOL    HW192285   9.854   6.005   7.152 -1.9527 -0.3169  0.5339
30569SOL    HW292286   9.827   5.965   7.296  1.7746  0.2027  1.4716
30570SOL     OW92287   7.048   1.989   2.935 -0.5806  0.5777  0.0195
30570SOL    HW192288   7.044   2.014   2.842 -0.2204 -0.2584 -0.2315
30570SOL    HW292289   6.964   1.947   2.952  0.2581 -1.4571 -0.6028
30571SOL     OW92290   5.533   1.817   9.744 -0.3287 -0.3582 -0.6421
30571SOL    HW192291   5.447   1.798   9.781 -0.9077  1.3424 -0.9936
30571SOL    HW292292   5.525   1.794   9.651  0.0083 -1.3406 -0.4406
30572SOL     OW92293   7.165   8.754   3.949  0.9784  0.1456 -0.0801
30572SOL    HW192294   7.231   8.724   3.888  0.9064  0.2136 -0.1922
30572SOL    HW292295   7.093   8.692   3.940  0.7331  0.4835 -0.4838
30573SOL     OW92296   9.901   7.201   2.097 -0.3109  0.3006  0.1207
30573SOL    HW192297   9.863   7.260   2.032  0.3819 -0.2958 -0.8466
30573SOL    HW292298   9.874   7.238   2.181 -0.7279  1.4260 -0.4851
30574SOL     OW92299   4.451   2.387   7.852  0.6463  0.0376  0.3563
30574SOL    HW192300   4.387   2.346   7.793 -0.8235  1.0257  1.2053
30574SOL    HW292301   4.536   2.357   7.819 -0.2778 -2.7153  0.2319
30575SOL     OW92302   6.191   4.850   2.837 -0.1327  0.6496  0.2319
30575SOL    HW192303   6.189   4.803   2.754 -1.5856  2.7768 -1.0352
30575SOL    HW292304   6.280   4.886   2.842  0.7489 -1.4575  0.8587
30576SOL     OW92305   2.428   7.763   3.363  0.1785  0.1487 -0.3996
30576SOL    HW192306   2.478   7.808   3.430  0.4730  2.0724 -1.8350
30576SOL    HW292307   2.340   7.800   3.368 -0.1453 -0.5991 -0.2912
30577SOL     OW92308   0.410   6.744   9.538 -0.5117  0.4703 -0.1245
30577SOL    HW192309   0.317   6.727   9.525 -1.0943  0.4366  3.0975
30577SOL    HW292310   0.416   6.838   9.556  0.2963  0.7147 -1.5272
30578SOL     OW92311   9.333   9.842   4.330 -0.7807  0.3564 -0.1629
30578SOL    HW192312   9.379   9.888   4.400 -0.7840  0.7620 -0.4222
30578SOL    HW292313   9.287   9.771   4.374  1.6831 -1.3294 -0.1433
30579SOL     OW92314   6.875   3.425   4.422  0.1130 -0.3324 -0.5045
30579SOL    HW192315   6.845   3.514   4.402 -0.0463 -0.0962  0.6702
30579SOL    HW292316   6.946   3.409   4.361  0.1743  0.6347 -0.7001
30580SOL     OW92317   9.786   3.653   7.593  0.4562 -0.0240 -0.1707
30580SOL    HW192318   9.867   3.704   7.587 -0.2273  1.1361  0.1856
30580SOL    HW292319   9.721   3.715   7.625 -0.3359 -1.2173  0.5888
30581SOL     OW92320   1.609   0.421   3.115  0.6583  0.1828  0.2698
30581SOL    HW192321   1.618   0.326   3.126  1.1840  0.4632  3.0812
30581SOL    HW292322   1.517   0.439   3.133  0.8584  0.3141  1.2426
30582SOL     OW92323   1.397   1.216   0.793  0.5027  0.1446  0.2252
30582SOL    HW192324   1.312   1.194   0.756  0.9919 -1.4893 -0.0211
30582SOL    HW292325   1.415   1.304   0.762  0.5539 -0.8556 -2.8714
30583SOL     OW92326   3.690   3.284   7.336 -0.0316 -0.2606  0.4082
30583SOL    HW192327   3.734   3.248   7.413  1.6175  2.3479  0.8125
30583SOL    HW292328   3.634   3.353   7.370  0.7626  0.9666 -0.6911
30584SOL     OW92329   1.499   1.452   9.183  0.1547  0.0826 -0.1487
30584SOL    HW192330   1.576   1.413   9.141  0.3996  1.5836 -1.2010
30584SOL    HW292331   1.531   1.535   9.218 -0.8130  0.3598  0.1053
30585SOL     OW92332   5.467   0.015   6.245 -0.1468  0.3324  0.0190
30585SOL    HW192333   5.501   0.091   6.199  1.9194 -0.2910  0.4175
30585SOL    HW292334   5.392  -0.014   6.193 -1.2919  2.8743  0.1239
30586SOL     OW92335   6.363   6.119   6.550  0.2001  0.3300  0.5905
30586SOL    HW192336   6.326   6.186   6.492 -1.6453  0.1151  1.4379
30586SOL    HW292337   6.288   6.086   6.599  1.5793  0.0341  2.6356
30587SOL     OW92338   5.864   3.498   5.699 -0.3536  0.4585  0.0155
30587SOL    HW192339   5.873   3.463   5.610 -2.4016 -0.3930  0.0704
30587SOL    HW292340   5.945   3.472   5.743 -1.2788 -3.6041 -0.2275
30588SOL     OW92341   5.551   6.834   2.549  0.3276 -0.6809  0.1720
30588SOL    HW192342   5.554   6.777   2.472 -3.3478  1.7116 -2.0781
30588SOL    HW292343   5.512   6.780   2.618  0.0818 -1.8221 -0.8340
30589SOL     OW92344   1.812   3.117   1.255  0.1632  0.1736 -0.4148
30589SOL    HW192345   1.746   3.182   1.233  0.3089  1.1834  1.8708
30589SOL    HW292346   1.788   3.087   1.342  1.4891 -1.0760 -0.4380
30590SOL     OW92347   9.607   3.415   6.343 -0.3508  0.7443 -0.6984
30590SOL    HW192348   9.683   3.387   6.291  0.2483 -0.3159  0.6821
30590SOL    HW292349   9.557   3.335   6.356 -1.3081  1.2915 -0.9129
30591SOL     OW92350   3.340   6.711   8.065  0.3389  0.4655  0.3841
30591SOL    HW192351   3.331   6.641   8.130 -0.5595  0.7776  0.6196
30591SOL    HW292352   3.333   6.666   7.981 -0.2469  0.2642  0.5335
30592SOL     OW92353   4.697   8.736   0.572 -0.1295 -0.2521 -0.1532
30592SOL    HW192354   4.614   8.776   0.549  0.1768  0.5869  0.1540
30592SOL    HW292355   4.712   8.670   0.504 -0.6493  0.1552 -0.6700
30593SOL     OW92356   0.888   1.575   5.661  0.0630  0.1140  0.0749
30593SOL    HW192357   0.839   1.562   5.580  0.7040 -0.4852 -0.2304
30593SOL    HW292358   0.881   1.491   5.707  1.9306 -0.4814 -0.6201
30594SOL     OW92359   7.790   3.700   8.328  0.1358 -0.4442  0.4895
30594SOL    HW192360   7.775   3.606   8.318  1.1481 -1.0695  3.7758
30594SOL    HW292361   7.884   3.710   8.315 -0.2573  0.6573 -2.4047
30595SOL     OW92362   4.185   1.546   2.145 -0.0755 -0.2609  0.3018
30595SOL    HW192363   4.137   1.619   2.184  0.5651 -1.0745  2.8077
30595SOL    HW292364   4.120   1.499   2.093 -0.6635  1.6408 -0.7795
30596SOL     OW92365   4.045   5.790   2.193  0.3683  0.1826 -0.3628
30596SOL    HW192366   3.993   5.860   2.154  1.2845 -0.0501 -2.0828
30596SOL    HW292367   4.021   5.792   2.286  0.0081  2.4514 -0.4388
30597SOL     OW92368   0.585   5.628   9.939 -0.0785 -0.2028  0.0212
30597SOL    HW192369   0.660   5.626   9.880  0.4431  0.6546  0.6198
30597SOL    HW292370   0.623   5.614  10.026 -0.3480  1.8749  0.5269
30598SOL     OW92371   0.423   9.868   5.637 -0.1656 -0.4166  0.4789
30598SOL    HW192372   0.359   9.838   5.702 -1.2865  0.4679 -0.1726
30598SOL    HW292373   0.457   9.950   5.673  1.6437 -1.5366  1.4580
30599SOL     OW92374   8.572   4.294   2.716  0.5551 -0.7108 -0.5263
30599SOL    HW192375   8.600   4.380   2.686  0.5730 -1.0573 -1.5452
30599SOL    HW292376   8.624   4.233   2.664  0.6472 -1.3316  0.2877
30600SOL     OW92377   7.080   9.355   7.875  0.1042 -0.1095  0.3863
30600SOL    HW192378   7.158   9.299   7.884 -0.0225 -0.3043  0.2794
30600SOL    HW292379   7.115   9.443   7.862  0.3316 -0.3563 -0.8394
30601SOL     OW92380   3.306   5.103   1.967  0.2146 -0.1364 -0.6071
30601SOL    HW192381   3.215   5.109   1.940  0.2809 -0.4944 -0.9151
30601SOL    HW292382   3.321   5.181   2.020 -0.4167 -0.3328 -0.1295
30602SOL     OW92383   9.152   7.187   4.786  0.1420 -0.2842  0.1756
30602SOL    HW192384   9.208   7.260   4.761  1.8598 -1.2105  1.1493
30602SOL    HW292385   9.157   7.126   4.713 -0.0156 -0.1510  0.0515
30603SOL     OW92386   6.006   1.219   5.480 -0.1171  0.0544 -0.0624
30603SOL    HW192387   6.079   1.162   5.504  1.5053  2.1227  0.2124
30603SOL    HW292388   5.980   1.260   5.562 -0.0742  0.9785 -0.4986
30604SOL     OW92389   0.756   4.007   2.343  0.7364  0.1533  0.1111
30604SOL    HW192390   0.817   4.081   2.349  1.4929 -0.4991  0.5377
30604SOL    HW292391   0.811   3.929   2.353 -0.2310 -0.4310  1.0569
30605SOL     OW92392   3.019   5.537   1.124  0.3049 -0.0596  0.0248
30605SOL    HW192393   2.986   5.455   1.086 -1.1015 -0.1141  1.2985
30605SOL    HW292394   2.980   5.605   1.070 -2.1479 -0.1183  1.5781
30606SOL     OW92395   0.905   0.346   6.117  0.0506  0.0181 -0.1018
30606SOL    HW192396   0.862   0.400   6.182  0.3007 -0.4921  0.4945
30606SOL    HW292397   0.851   0.267   6.110 -1.1440  0.9116 -2.0414
30607SOL     OW92398   9.234   5.243   4.473  0.6581 -0.4600 -0.3273
30607SOL    HW192399   9.215   5.311   4.409  1.3606  0.0535 -0.0021
30607SOL    HW292400   9.192   5.274   4.554  0.5070 -0.6862 -0.3177
30608SOL     OW92401   2.344   1.003   9.869 -0.3114  0.1357  0.1252
30608SOL    HW192402   2.380   0.917   9.889  2.0042  0.5874 -1.6763
30608SOL    HW292403   2.279   0.987   9.801 -3.2066 -0.5998  2.8618
30609SOL     OW92404   0.120   1.725   0.009 -0.1499 -0.0369  0.7388
30609SOL    HW192405   0.164   1.656   0.059  1.5811 -0.2963 -1.0312
30609SOL    HW292406   0.035   1.688  -0.015  0.8732 -1.7347 -0.4515
30610SOL     OW92407   1.654   1.474   1.779 -0.2000  0.0517  0.3835
30610SOL    HW192408   1.731   1.433   1.818  0.9383 -0.4831 -2.2178
30610SOL    HW292409   1.668   1.467   1.685 -3.3246  0.1822 -0.2000
30611SOL     OW92410   1.287   0.101   1.253 -0.0302 -0.4804  0.3228
30611SOL    HW192411   1.258   0.065   1.170  0.3429  1.2090 -0.5895
30611SOL    HW292412   1.302   0.194   1.235 -1.4520  0.2794  2.6724
30612SOL     OW92413   0.568   9.052   6.098 -0.2763 -0.0901 -0.1521
30612SOL    HW192414   0.663   9.068   6.096 -0.0991 -1.0782 -1.6740
30612SOL    HW292415   0.529   9.134   6.070  0.3064 -0.4440 -2.1667
30613SOL     OW92416   9.777   3.100   1.696 -0.2374  0.2879  0.0233
30613SOL    HW192417   9.790   3.190   1.668 -2.0563  0.0918 -1.6293
30613SOL    HW292418   9.683   3.092   1.710 -0.1122 -1.3487  0.1656
30614SOL     OW92419   0.284   1.971   0.991  0.4086 -0.4444 -0.2668
30614SOL    HW192420   0.351   2.032   0.962  0.2794  0.3788  1.0901
30614SOL    HW292421   0.221   1.968   0.919  1.7045 -0.9961 -1.4302
30615SOL     OW92422   6.255   2.416   8.895  0.5438  0.1153 -0.1422
30615SOL    HW192423   6.299   2.335   8.870  2.6079  0.5348  1.8570
30615SOL    HW292424   6.315   2.486   8.868  0.8638  0.7362  2.0380
30616SOL     OW92425   9.897   6.924   9.138 -0.0877  0.4910  0.1226
30616SOL    HW192426   9.816   6.942   9.090  0.0370 -0.1992 -0.3479
30616SOL    HW292427   9.911   6.830   9.128  0.0429  0.3615  1.3554
30617SOL     OW92428   4.388   1.559   3.689 -0.7051  0.0004  0.3932
30617SOL    HW192429   4.457   1.556   3.623  1.3789  0.4459  2.4132
30617SOL    HW292430   4.317   1.607   3.647  0.6814  0.6326 -1.3882
30618SOL     OW92431   8.842   3.730   9.031 -0.7435 -0.7069  0.3907
30618SOL    HW192432   8.786   3.778   9.092  0.4935 -0.0327  1.0181
30618SOL    HW292433   8.836   3.639   9.059  0.3092 -0.3287  1.9651
30619SOL     OW92434   2.674   7.578   7.211 -0.3219  0.1792 -0.0553
30619SOL    HW192435   2.679   7.567   7.116  0.9684  0.5053 -0.0338
30619SOL    HW292436   2.673   7.673   7.224 -0.2518  0.1366  0.2723
30620SOL     OW92437   8.309   8.434   2.174 -0.0607 -0.1281  0.1270
30620SOL    HW192438   8.246   8.466   2.238 -1.3040 -1.3495 -0.4203
30620SOL    HW292439   8.389   8.416   2.225 -0.6323  0.0430  1.1048
30621SOL     OW92440   2.408   1.202   3.692 -0.3166 -0.2372 -0.1454
30621SOL    HW192441   2.422   1.262   3.766 -1.1842  1.6075 -1.3902
30621SOL    HW292442   2.348   1.136   3.726 -1.7074  1.2753  0.5206
30622SOL     OW92443   5.107   2.236   9.846 -0.2373  0.0200 -0.5967
30622SOL    HW192444   5.111   2.173   9.774  0.1464 -1.7102  0.8647
30622SOL    HW292445   5.040   2.299   9.820 -1.6190 -1.7601 -1.5640
30623SOL     OW92446   3.049   4.516   1.675 -0.6402  0.3000 -0.0270
30623SOL    HW192447   3.122   4.455   1.687 -1.1223 -0.2064  0.4014
30623SOL    HW292448   3.091   4.601   1.659  0.0501  0.1985  1.1310
30624SOL     OW92449   8.532   2.208   3.303  0.0210  0.4617  0.5059
30624SOL    HW192450   8.457   2.177   3.252  0.6667 -0.7150  0.2276
30624SOL    HW292451   8.494   2.236   3.386 -0.6815 -0.5500  0.5459
30625SOL     OW92452   5.718   9.333   4.483  0.1938  0.4613  0.3265
30625SOL    HW192453   5.755   9.275   4.548  1.1145  1.4392  0.6939
30625SOL    HW292454   5.625   9.338   4.505  0.3359  0.0896  1.0150
30626SOL     OW92455   5.346   0.221   3.864 -0.0095 -0.1791 -0.2248
30626SOL    HW192456   5.431   0.230   3.822 -0.4790  2.4423 -0.8479
30626SOL    HW292457   5.338   0.300   3.918 -1.3170 -1.2555  1.2444
30627SOL     OW92458   7.017   4.793   1.161 -0.3759 -0.8002  0.3016
30627SOL    HW192459   7.107   4.787   1.128  0.3554  0.6532  1.8631
30627SOL    HW292460   6.963   4.757   1.091  1.2523  0.0304 -1.4789
30628SOL     OW92461   2.476   4.603   6.793 -0.1826 -0.2076  0.1375
30628SOL    HW192462   2.527   4.683   6.777 -0.1299 -0.3092 -0.2077
30628SOL    HW292463   2.394   4.617   6.745 -0.4120 -0.1174  0.5531
30629SOL     OW92464   7.881   1.262   3.955  1.1699  0.1254  0.3536
30629SOL    HW192465   7.874   1.223   3.868 -0.5198  0.9001  0.1126
30629SOL    HW292466   7.831   1.205   4.012 -0.3303  1.2235  0.2105
30630SOL     OW92467   3.335   9.289   8.802 -0.5132  0.4639  0.6583
30630SOL    HW192468   3.295   9.375   8.821 -0.0044  0.7614  0.3962
30630SOL    HW292469   3.288   9.258   8.725 -1.2050  0.1652  1.1855
30631SOL     OW92470   4.473   3.801   6.022  0.2476  0.0251  0.2463
30631SOL    HW192471   4.387   3.832   5.994 -0.2844 -1.2598  0.3948
30631SOL    HW292472   4.534   3.844   5.962 -0.5685  0.2948 -0.4095
30632SOL     OW92473   4.981   1.096   9.219  0.1707 -0.5413 -0.5261
30632SOL    HW192474   5.007   1.006   9.240 -1.9283 -0.9331  0.6091
30632SOL    HW292475   4.911   1.086   9.155  0.2156  0.3171 -0.7157
30633SOL     OW92476   3.460   9.958   2.060 -0.0950 -0.6038  0.1244
30633SOL    HW192477   3.436   9.895   1.991  0.8476 -0.3996 -0.4073
30633SOL    HW292478   3.527  10.014   2.019  0.4134 -0.4223  1.1769
30634SOL     OW92479   9.277   3.267   0.444 -0.0462  0.1409 -0.3267
30634SOL    HW192480   9.321   3.351   0.460  0.8372 -0.3939  0.1015
30634SOL    HW292481   9.187   3.283   0.471  0.3789  0.6258  0.8865
30635SOL     OW92482   8.408   9.079   8.987 -0.3126  0.2882 -0.8490
30635SOL    HW192483   8.348   9.152   8.978 -1.0393 -0.2528 -0.4696
30635SOL    HW292484   8.419   9.067   9.081  0.0705  0.1219 -0.9112
30636SOL     OW92485   6.454   4.960   8.583  0.5477  0.6392  0.1057
30636SOL    HW192486   6.420   4.969   8.671  0.4097  1.8148 -0.0516
30636SOL    HW292487   6.515   4.886   8.588  1.9716  1.8351  1.6407
30637SOL     OW92488   7.836   6.254   8.579  0.0909  0.2412  0.3610
30637SOL    HW192489   7.924   6.239   8.544 -0.3648 -1.9504 -0.0038
30637SOL    HW292490   7.825   6.186   8.646 -1.4308  0.2428  0.1397
30638SOL     OW92491   7.747   3.050   8.231 -0.1632  0.1055  0.1415
30638SOL    HW192492   7.783   3.117   8.174  0.5822  0.9155  1.5070
30638SOL    HW292493   7.815   3.036   8.297 -0.1948 -2.1689 -0.2111
30639SOL     OW92494   9.732   9.659   2.405 -0.7604 -0.4790  0.0125
30639SOL    HW192495   9.811   9.605   2.394  0.4201  0.7010  2.0256
30639SOL    HW292496   9.660   9.597   2.396  0.4596 -1.9793 -0.0126
30640SOL     OW92497   3.301   6.215   0.156 -0.3381 -0.5823 -0.0110
30640SOL    HW192498   3.391   6.243   0.138 -0.6514  0.0568 -0.6215
30640SOL    HW292499   3.300   6.121   0.134  0.3728 -0.7775  0.7496
30641SOL     OW92500   7.955   7.139   3.928  0.2015 -0.2188  0.9061
30641SOL    HW192501   7.932   7.207   3.991 -1.9963 -1.0643  1.0968
30641SOL    HW292502   7.974   7.062   3.982 -0.3729 -0.5800  0.6033
30642SOL     OW92503   9.076   2.176   1.631  0.1166 -0.2634  0.0348
30642SOL    HW192504   9.142   2.109   1.648 -0.0375 -0.1618  1.1168
30642SOL    HW292505   9.110   2.226   1.557  1.3782 -0.0531  0.7355
30643SOL     OW92506   1.855   0.550   2.475 -0.6830 -0.0932 -0.9070
30643SOL    HW192507   1.769   0.549   2.518 -0.5462  2.6747 -0.4053
30643SOL    HW292508   1.835   0.538   2.382 -1.6386  0.7309 -0.8196
30644SOL     OW92509   3.785   4.806   5.031  0.2195  0.1179 -0.5896
30644SOL    HW192510   3.699   4.817   4.992  0.2251  0.7998 -0.4267
30644SOL    HW292511   3.774   4.834   5.122  0.5171 -0.1832 -0.4578
30645SOL     OW92512   7.056   0.724   6.266 -0.1709  0.5010  0.2348
30645SOL    HW192513   7.078   0.631   6.272  0.9765  0.7297 -0.1585
30645SOL    HW292514   6.964   0.725   6.241 -0.0091 -0.5471 -0.4959
30646SOL     OW92515   1.081   5.516   2.954 -0.1067  0.3503 -0.1984
30646SOL    HW192516   1.070   5.463   3.033  0.5310  0.4927 -0.0069
30646SOL    HW292517   1.032   5.469   2.887 -0.1177 -0.1224  0.1328
30647SOL     OW92518   5.589   0.196   2.877  0.2251 -0.9999 -0.2726
30647SOL    HW192519   5.566   0.107   2.905 -1.2371 -0.3093  0.8923
30647SOL    HW292520   5.620   0.185   2.787  2.9199 -3.0420  0.7484
30648SOL     OW92521   5.872   8.207   6.437  0.2261  0.7178 -0.3778
30648SOL    HW192522   5.875   8.225   6.343 -0.2696  1.8533 -0.1946
30648SOL    HW292523   5.964   8.204   6.464  0.3566  1.6282 -0.6880
30649SOL     OW92524   0.230   3.498   2.867  0.6944  0.0773 -0.4161
30649SOL    HW192525   0.251   3.522   2.957 -0.0892  0.2533 -0.2765
30649SOL    HW292526   0.246   3.403   2.864  2.4554  0.3302 -0.6023
30650SOL     OW92527   6.013   1.188   9.732  0.4646  0.0637 -0.3371
30650SOL    HW192528   5.960   1.128   9.784 -0.2519  1.4278  0.5753
30650SOL    HW292529   6.050   1.134   9.663 -0.1598 -1.4109  0.4401
30651SOL     OW92530   0.521   8.217   7.649 -0.0789  0.2557 -0.3152
30651SOL    HW192531   0.494   8.126   7.658  0.4647  0.1659  0.4011
30651SOL    HW292532   0.496   8.259   7.731 -1.8028  1.1511 -1.2250
30652SOL     OW92533   4.358   8.143   5.557  0.3952  0.0395  0.2084
30652SOL    HW192534   4.377   8.203   5.629  0.3157  0.6329 -0.2662
30652SOL    HW292535   4.351   8.057   5.600 -1.3937  0.6256  1.1617
30653SOL     OW92536   6.047   6.472   7.439 -0.5185 -0.2662 -0.1271
30653SOL    HW192537   5.986   6.424   7.382 -0.0806  0.5328 -1.2938
30653SOL    HW292538   6.080   6.543   7.385 -0.7776  1.0935  1.4067
30654SOL     OW92539   8.015   4.487   4.719  0.3581  0.5877  0.0210
30654SOL    HW192540   7.941   4.426   4.717  0.2302  0.7559 -0.5579
30654SOL    HW292541   7.993   4.554   4.654  1.0313  0.6228 -0.1834
30655SOL     OW92542   7.676   2.129   8.069  0.5144  0.1198  0.8667
30655SOL    HW192543   7.725   2.194   8.118  0.1401  0.5095  0.7273
30655SOL    HW292544   7.661   2.058   8.132  0.4005  0.4337  1.1971
30656SOL     OW92545   0.704   2.538   4.660 -0.3499  0.4324 -0.9881
30656SOL    HW192546   0.701   2.472   4.591  0.6231 -0.8166  0.1157
30656SOL    HW292547   0.796   2.541   4.687 -0.6305  1.2188 -0.0408
30657SOL     OW92548   6.813   1.496   2.433  0.0384  0.4609 -0.7294
30657SOL    HW192549   6.846   1.553   2.503  1.5347  1.6912 -2.3371
30657SOL    HW292550   6.719   1.491   2.448  0.2570  1.0111  1.1097
30658SOL     OW92551   7.461   3.852   4.424 -0.5308  0.3127  0.0817
30658SOL    HW192552   7.556   3.862   4.414 -0.6270  0.9823 -0.1511
30658SOL    HW292553   7.447   3.852   4.519 -0.3838  1.0035  0.1034
30659SOL     OW92554   7.343   8.729   0.817  0.2136  0.5810 -0.4267
30659SOL    HW192555   7.267   8.671   0.826 -0.0508  0.9790 -0.0699
30659SOL    HW292556   7.307   8.817   0.830  0.9929  0.6828  1.2230
30660SOL     OW92557   4.948   6.183   8.101  0.4656 -0.6797 -0.0142
30660SOL    HW192558   4.854   6.164   8.092 -0.2152  1.7582  0.8961
30660SOL    HW292559   4.957   6.217   8.190  2.0377 -0.0428 -0.3768
30661SOL     OW92560   9.483   2.048   0.515  0.3968 -0.3973 -0.3782
30661SOL    HW192561   9.446   1.996   0.443 -0.7522  0.5144 -0.4678
30661SOL    HW292562   9.450   2.136   0.501 -2.1409 -0.6639  2.7245
30662SOL     OW92563   2.779   6.947   6.005 -0.1074 -0.3379  0.4783
30662SOL    HW192564   2.850   6.974   5.946  0.3719  0.1264  1.2556
30662SOL    HW292565   2.755   7.027   6.051  1.2713 -1.1716  2.7696
30663SOL     OW92566   5.490   5.706   8.771  0.5244 -0.1382 -0.3374
30663SOL    HW192567   5.501   5.799   8.790 -0.6014  0.4030 -2.1426
30663SOL    HW292568   5.569   5.681   8.724  0.7178 -0.0560 -0.0637
30664SOL     OW92569   4.585   3.104   7.577  0.2566  0.1854  0.0825
30664SOL    HW192570   4.618   3.040   7.639 -0.3333  0.7403  0.9909
30664SOL    HW292571   4.491   3.087   7.572 -0.1189  1.7307  1.2682
30665SOL     OW92572   6.553   3.342   6.191 -0.1063  0.8231 -0.0746
30665SOL    HW192573   6.495   3.275   6.228 -1.5766  1.3274 -1.3629
30665SOL    HW292574   6.592   3.301   6.114  0.3173  0.8950  0.0961
30666SOL     OW92575   9.851   7.634   7.099  0.0605 -0.2873 -0.1233
30666SOL    HW192576   9.912   7.562   7.114 -0.1103 -0.1274  1.4822
30666SOL    HW292577   9.779   7.593   7.050  1.0877 -0.6253 -1.4212
30667SOL     OW92578   3.398   5.904   0.044  0.2615  0.1980  0.1662
30667SOL    HW192579   3.487   5.902   0.081  0.0600 -0.3071  0.6266
30667SOL    HW292580   3.412   5.925  -0.048  0.8167  0.7873  0.3695
30668SOL     OW92581   0.948   6.728   8.647  0.2464  0.2601  0.0687
30668SOL    HW192582   1.001   6.650   8.661  1.5770  1.2176  0.6104
30668SOL    HW292583   0.865   6.708   8.689 -0.2163 -1.6447 -1.6039
30669SOL     OW92584   3.842   6.876   3.495  0.4257  0.1608 -0.0150
30669SOL    HW192585   3.776   6.809   3.512 -0.5183  1.1924  0.5481
30669SOL    HW292586   3.889   6.884   3.578 -0.5938  1.3607  0.4855
30670SOL     OW92587   5.756   6.102   0.334  0.0960  0.0135 -0.0175
30670SOL    HW192588   5.839   6.141   0.360  1.5690 -3.0008  0.3393
30670SOL    HW292589   5.773   6.007   0.337 -3.1891 -0.7070 -0.5446
30671SOL     OW92590   5.263   7.230   7.397  0.1169  0.0501  0.2548
30671SOL    HW192591   5.313   7.155   7.365  2.1476  0.7963  1.4979
30671SOL    HW292592   5.259   7.218   7.491 -2.2956 -0.0637  0.1896
30672SOL     OW92593   3.971   3.655   7.693 -0.1778 -0.0495 -0.0823
30672SOL    HW192594   4.028   3.700   7.630 -0.9599 -0.8094 -1.3685
30672SOL    HW292595   4.012   3.672   7.778  0.5022  1.6046 -0.7087
30673SOL     OW92596   4.764   1.754   6.346  0.0039  0.4150 -0.1781
30673SOL    HW192597   4.797   1.836   6.310 -2.1700  1.1091 -0.7951
30673SOL    HW292598   4.673   1.750   6.316 -0.8510 -0.7743  2.2977
30674SOL     OW92599   2.154   4.274   4.939 -0.7226 -0.3770  0.2130
30674SOL    HW192600   2.199   4.253   5.021 -1.1311 -0.0676  0.5201
30674SOL    HW292601   2.182   4.206   4.878  0.5608  0.0925  0.2518
30675SOL     OW92602   3.108   9.495   3.982  0.0053 -0.1661 -0.0315
30675SOL    HW192603   3.167   9.525   3.912 -0.0464  0.0088 -0.0008
30675SOL    HW292604   3.024   9.481   3.938  0.0886 -0.4955 -0.0912
30676SOL     OW92605   0.944   3.453   0.100 -0.3878  0.0635 -0.5836
30676SOL    HW192606   1.023   3.400   0.103  0.0215  0.6458 -0.8995
30676SOL    HW292607   0.949   3.500   0.017 -0.5401  0.9080 -0.1252
30677SOL     OW92608   6.412   1.288   9.308 -0.2019  0.4167 -0.2370
30677SOL    HW192609   6.442   1.198   9.294  2.2505  1.2902 -1.0643
30677SOL    HW292610   6.482   1.329   9.358 -0.9724  2.0684 -0.4453
30678SOL     OW92611   2.032   5.338   8.689 -0.0848  0.1171 -0.2050
30678SOL    HW192612   2.026   5.263   8.747  3.5006 -0.2525 -0.0923
30678SOL    HW292613   1.999   5.412   8.741  0.2898 -0.6947  1.2321
30679SOL     OW92614   3.445   3.486   4.560 -0.0759 -0.1943 -0.4094
30679SOL    HW192615   3.437   3.577   4.533  1.1043 -0.3514 -1.4163
30679SOL    HW292616   3.485   3.443   4.484  1.7458 -1.0415  0.9653
30680SOL     OW92617   6.971   3.882   9.310 -0.1963  0.1613 -0.2039
30680SOL    HW192618   6.929   3.837   9.236 -1.0678 -1.1576  1.0408
30680SOL    HW292619   7.065   3.867   9.297 -0.1674  1.5497 -2.0130
30681SOL     OW92620   2.529   2.084   9.344 -0.3352  0.0429 -0.1814
30681SOL    HW192621   2.556   2.104   9.434  0.2339 -1.0724 -0.0912
30681SOL    HW292622   2.503   2.169   9.308  1.7951  0.9304  0.2421
30682SOL     OW92623   6.859   4.217   4.168 -0.1714  0.3049 -0.1853
30682SOL    HW192624   6.853   4.249   4.078 -0.1072 -1.3020 -0.8073
30682SOL    HW292625   6.924   4.146   4.164  0.0195  0.3698  1.1839
30683SOL     OW92626   0.479   9.919   8.815  0.4210  0.1911 -0.0269
30683SOL    HW192627   0.421   9.843   8.813 -1.2806  1.4138  0.1028
30683SOL    HW292628   0.533   9.907   8.892  0.3587 -1.0074 -0.1567
30684SOL     OW92629   2.259   1.162   2.089 -0.3725  0.2361  0.3448
30684SOL    HW192630   2.346   1.192   2.063  0.3976 -2.7267 -0.9007
30684SOL    HW292631   2.223   1.234   2.140  2.6479  1.7061  0.6027
30685SOL     OW92632   1.685   5.485   4.166 -0.1535  0.2825  0.4975
30685SOL    HW192633   1.763   5.429   4.167 -0.7214 -0.5231  2.0329
30685SOL    HW292634   1.670   5.503   4.073  2.0274  0.7214  0.1787
30686SOL     OW92635   3.050   7.307   0.513 -0.6049  0.1972  0.0848
30686SOL    HW192636   3.110   7.368   0.557  0.4601 -0.8155  0.0865
30686SOL    HW292637   2.993   7.275   0.583 -0.9335  0.9192  0.1486
30687SOL     OW92638   1.661   9.973   6.585  0.1758  0.4556  0.0899
30687SOL    HW192639   1.706   9.946   6.505 -0.7505  4.2082 -1.9190
30687SOL    HW292640   1.590   9.909   6.594  1.1979 -0.9446 -1.1737
30688SOL     OW92641   2.994   2.243   1.817 -0.2979 -0.2291 -0.6661
30688SOL    HW192642   3.083   2.268   1.843 -0.3682 -0.1178 -0.5373
30688SOL    HW292643   3.006   2.201   1.731 -0.2069  0.4703 -1.0001
30689SOL     OW92644   7.182   9.249   8.823 -0.2858 -0.3264 -0.2415
30689SOL    HW192645   7.194   9.211   8.736  0.0786 -1.3242  0.2371
30689SOL    HW292646   7.257   9.218   8.873  0.0019  0.9911  0.1885
30690SOL     OW92647   5.251   1.415   1.172  0.0765 -0.2281 -0.2158
30690SOL    HW192648   5.238   1.338   1.118 -0.8299  0.0467 -0.4117
30690SOL    HW292649   5.257   1.488   1.110  0.4908 -0.0872 -0.0132
30691SOL     OW92650   4.917   3.636   4.650 -0.3426  0.1228  0.1370
30691SOL    HW192651   4.882   3.693   4.718  1.3559  0.5662  0.6894
30691SOL    HW292652   5.010   3.630   4.670  0.4181  1.0553 -2.7118
30692SOL     OW92653   5.764   4.852   5.039  0.3379 -0.6890  0.1253
30692SOL    HW192654   5.676   4.887   5.051  0.5504 -0.4183  0.9309
30692SOL    HW292655   5.822   4.922   5.068  0.8864 -0.2361 -1.9274
30693SOL     OW92656   8.956   0.559   3.125  0.0595 -0.7232  0.3349
30693SOL    HW192657   8.898   0.585   3.053  0.3566  2.9093  1.2265
30693SOL    HW292658   9.039   0.539   3.082 -0.8980 -2.8302 -0.6540
30694SOL     OW92659   8.494   5.148   8.562  0.0141  0.2543 -0.1379
30694SOL    HW192660   8.466   5.082   8.498 -0.6396  1.0639 -0.7058
30694SOL    HW292661   8.530   5.097   8.635  0.6240 -0.6829 -1.0784
30695SOL     OW92662   7.653   3.494   5.965 -0.6879 -0.2272 -0.0283
30695SOL    HW192663   7.734   3.452   5.991  2.2776  3.5461 -2.0363
30695SOL    HW292664   7.648   3.481   5.870 -2.4180 -0.3292  0.0473
30696SOL     OW92665   2.528   0.133   0.524  0.4759  0.5591  0.0283
30696SOL    HW192666   2.475   0.142   0.444 -3.0766 -2.5458  1.7413
30696SOL    HW292667   2.515   0.216   0.570 -1.1840  0.7033 -0.6112
30697SOL     OW92668   7.939   2.155   7.007  0.0831  0.0203  0.4337
30697SOL    HW192669   8.020   2.120   7.045 -0.1452 -0.8971  0.1074
30697SOL    HW292670   7.870   2.125   7.066 -0.2432 -1.1538 -0.4981
30698SOL     OW92671   2.636   1.942   1.335 -0.0553 -0.0812 -0.1272
30698SOL    HW192672   2.648   1.993   1.255 -0.7541  0.6575  0.2267
30698SOL    HW292673   2.542   1.926   1.340 -0.2652  1.3084  1.3795
30699SOL     OW92674   9.505   6.664   0.437 -0.0113 -0.4674 -0.0821
30699SOL    HW192675   9.448   6.732   0.403  0.1410 -0.1289  0.3285
30699SOL    HW292676   9.449   6.586   0.442 -0.7268  0.1052  1.2497
30700SOL     OW92677   8.318   8.085   7.130 -0.3303 -0.0102  0.0844
30700SOL    HW192678   8.273   8.006   7.100 -0.7433 -0.7066  2.3129
30700SOL    HW292679   8.406   8.055   7.156 -0.6618  0.0924  1.4434
30701SOL     OW92680   8.863   2.959   3.152  0.3288 -0.9398 -0.1578
30701SOL    HW192681   8.899   2.948   3.064 -2.4199 -2.1590 -1.2117
30701SOL    HW292682   8.839   3.052   3.156 -1.4019 -1.2788 -1.5256
30702SOL     OW92683   2.545   3.297   2.485  0.0087  0.1229  0.1187
30702SOL    HW192684   2.591   3.381   2.491  2.9981 -1.4968  2.0409
30702SOL    HW292685   2.597   3.245   2.424 -1.5354 -0.5575 -0.6797
30703SOL     OW92686   0.390   6.342   8.002 -0.1077  0.3449  0.5850
30703SOL    HW192687   0.316   6.387   8.042 -2.4973  0.7525 -3.7015
30703SOL    HW292688   0.446   6.412   7.970  0.2629  0.0849  0.6535
30704SOL     OW92689   5.038   7.323   0.651  0.7258  0.0350 -0.0727
30704SOL    HW192690   5.109   7.267   0.682  1.7140  1.9202  1.2601
30704SOL    HW292691   5.021   7.292   0.562  5.7698  1.7267 -1.9987
30705SOL     OW92692   4.612   0.853   2.831 -0.1026 -0.2742 -0.4297
30705SOL    HW192693   4.563   0.796   2.890 -0.5756  0.1277 -0.4292
30705SOL    HW292694   4.687   0.800   2.804 -0.8121 -1.1018 -0.8553
30706SOL     OW92695   2.597   2.367   6.326  0.0311 -0.3125  0.1723
30706SOL    HW192696   2.614   2.375   6.232  0.0504 -1.7806  0.0165
30706SOL    HW292697   2.558   2.280   6.335 -2.1558  0.7108  1.2497
30707SOL     OW92698   4.657   6.724   1.196 -0.1765  0.1182 -0.1583
30707SOL    HW192699   4.630   6.634   1.218 -0.6220  0.4175  0.5591
30707SOL    HW292700   4.698   6.716   1.110 -1.5965 -0.5414 -0.8150
30708SOL     OW92701   3.680   0.743   2.922  0.1443  0.0792 -0.7810
30708SOL    HW192702   3.599   0.729   2.873 -0.0732 -1.8671  0.0496
30708SOL    HW292703   3.748   0.705   2.867  0.3392  0.6063 -0.9141
30709SOL     OW92704   9.480   6.501   8.305 -0.0411 -0.2045 -0.1228
30709SOL    HW192705   9.576   6.504   8.295 -0.0488 -1.2147 -0.6162
30709SOL    HW292706   9.464   6.546   8.388  0.7811  0.7336 -0.4417
30710SOL     OW92707   5.651   5.012   1.466  0.3462 -0.1099 -0.1311
30710SOL    HW192708   5.660   5.086   1.407 -2.6006 -1.1845 -2.1476
30710SOL    HW292709   5.563   4.979   1.451  0.2400 -1.8795  3.2898
30711SOL     OW92710   2.688   8.470   1.443 -0.3211 -0.6061  0.2529
30711SOL    HW192711   2.679   8.402   1.377 -0.5977 -0.6315  0.3147
30711SOL    HW292712   2.758   8.439   1.501  0.5277 -0.1849 -0.5112
30712SOL     OW92713   4.579   6.744   8.340 -0.0659  0.1983  0.6740
30712SOL    HW192714   4.549   6.653   8.335  0.0634  0.2075 -0.5568
30712SOL    HW292715   4.574   6.765   8.434  2.2390 -1.8745  1.4013
30713SOL     OW92716   6.341   8.308   8.334  0.2572  0.6673  0.3260
30713SOL    HW192717   6.248   8.292   8.346  0.6758 -2.5522  0.3395
30713SOL    HW292718   6.382   8.279   8.415  1.4456 -0.8820 -0.7521
30714SOL     OW92719   1.604   4.953   4.605 -0.5421  0.4555 -0.2633
30714SOL    HW192720   1.691   4.994   4.598 -0.6909  0.7353 -0.4997
30714SOL    HW292721   1.543   5.025   4.589 -0.8106  0.1199 -0.7411
30715SOL     OW92722   5.653   6.665   2.166  0.1421  0.5459 -0.6651
30715SOL    HW192723   5.590   6.697   2.230  0.4263 -0.8332  0.3669
30715SOL    HW292724   5.600   6.625   2.097 -0.2063  2.9385 -1.8808
30716SOL     OW92725   4.491   1.728   6.259 -0.0113 -0.1909  0.3170
30716SOL    HW192726   4.418   1.790   6.251 -0.9246 -1.3444 -0.7687
30716SOL    HW292727   4.502   1.692   6.171  0.7399 -1.2870  0.8334
30717SOL     OW92728   8.833   0.077   8.401 -0.0338 -0.9540 -0.2101
30717SOL    HW192729   8.817   0.153   8.345  1.2857  0.9483  1.8149
30717SOL    HW292730   8.749   0.032   8.406 -1.4553  1.5592  0.1108
30718SOL     OW92731   2.437   0.777   2.152  0.5403 -0.1916 -0.1868
30718SOL    HW192732   2.389   0.729   2.219 -3.0374  2.6015 -0.4362
30718SOL    HW292733   2.473   0.853   2.198  1.8614 -0.4711 -0.6964
30719SOL     OW92734   9.492   6.928   9.168  0.4967 -0.0330  0.1161
30719SOL    HW192735   9.444   6.856   9.209  1.1352 -0.6062 -0.1261
30719SOL    HW292736   9.436   6.956   9.095 -0.5236  0.8178  1.1883
30720SOL     OW92737   1.991   4.574   3.194  0.1747 -0.1120 -0.6572
30720SOL    HW192738   1.990   4.535   3.107 -1.4692  1.5042 -1.4088
30720SOL    HW292739   1.997   4.499   3.253  0.5339 -1.2848 -2.1199
30721SOL     OW92740   0.256   0.040   8.443  0.4503 -0.4277 -0.3943
30721SOL    HW192741   0.182   0.100   8.449  0.9697  0.3637 -1.4979
30721SOL    HW292742   0.235  -0.030   8.504 -1.5294 -0.5609 -1.1455
30722SOL     OW92743   9.666   3.794   6.697 -0.0300 -0.1340  0.0786
30722SOL    HW192744   9.632   3.720   6.747  0.6520 -0.4298  0.1229
30722SOL    HW292745   9.650   3.769   6.605  2.0873 -1.3489 -0.0277
30723SOL     OW92746   9.631   2.241   9.387  0.5448  0.4899 -0.7527
30723SOL    HW192747   9.718   2.212   9.414 -0.1539 -2.2074 -1.0725
30723SOL    HW292748   9.571   2.185   9.438 -0.8956 -0.3217 -3.1717
30724SOL     OW92749   2.518   7.475   3.495  0.3208  0.7619  0.2147
30724SOL    HW192750   2.493   7.547   3.436 -1.0088  0.9715  1.0048
30724SOL    HW292751   2.501   7.396   3.445 -0.9174  0.9369  0.3444
30725SOL     OW92752   6.357   0.631   0.083 -0.2221 -0.3902  0.1518
30725SOL    HW192753   6.445   0.620   0.048 -0.1291 -1.5119  0.6942
30725SOL    HW292754   6.342   0.553   0.137 -0.6958  0.8180  1.8709
30726SOL     OW92755   5.306   2.714   8.363 -0.2732 -0.5305  0.1689
30726SOL    HW192756   5.266   2.690   8.279 -0.7020 -1.0067  0.5023
30726SOL    HW292757   5.238   2.764   8.409  0.2512  0.4594 -0.0980
30727SOL     OW92758   0.216   3.172   3.398 -0.0538  0.1242 -0.1367
30727SOL    HW192759   0.195   3.086   3.363 -1.1749  1.7855 -4.0969
30727SOL    HW292760   0.133   3.207   3.428 -0.0683  0.6942 -0.8131
30728SOL     OW92761   8.611   8.182   4.946  0.5506  0.0347  0.3357
30728SOL    HW192762   8.581   8.236   5.019  1.7297  0.1702  0.7504
30728SOL    HW292763   8.667   8.241   4.895 -0.1451 -0.0993 -0.6164
30729SOL     OW92764   2.129   6.980   5.259  0.6739 -0.0058 -0.6493
30729SOL    HW192765   2.138   7.036   5.336 -0.4180  0.3004 -0.7266
30729SOL    HW292766   2.163   7.033   5.187  0.3467  0.2751 -0.6023
30730SOL     OW92767   6.309   2.015   6.084 -0.0989 -0.0814  0.0505
30730SOL    HW192768   6.262   1.932   6.097  1.3182 -1.0746 -0.8390
30730SOL    HW292769   6.241   2.077   6.058 -1.0515 -1.2420 -0.3523
30731SOL     OW92770   1.563   4.539   3.250  0.0603 -0.2404 -0.0264
30731SOL    HW192771   1.604   4.505   3.329 -1.3092 -1.1786  0.3164
30731SOL    HW292772   1.582   4.473   3.183 -0.2481 -0.3006 -0.0532
30732SOL     OW92773   6.265   0.617   5.150 -0.1279  0.3467  0.0651
30732SOL    HW192774   6.340   0.661   5.191  0.3993  0.5020 -1.0166
30732SOL    HW292775   6.198   0.685   5.143  0.5000  0.8907 -1.1248
30733SOL     OW92776   3.253   7.317   3.241 -0.0872  0.2783 -0.3201
30733SOL    HW192777   3.296   7.261   3.177 -0.1070  0.7008 -0.7042
30733SOL    HW292778   3.175   7.268   3.267  0.3135 -0.2316 -0.0508
30734SOL     OW92779   9.534   0.269   3.636 -0.0337 -0.4401  0.3922
30734SOL    HW192780   9.533   0.354   3.681 -0.2508  0.1338 -0.6787
30734SOL    HW292781   9.585   0.212   3.694  2.9927  1.2842 -0.3890
30735SOL     OW92782   5.533   9.738   3.881 -0.3129 -0.6762  0.4237
30735SOL    HW192783   5.534   9.747   3.976  0.5848 -2.7111  0.6559
30735SOL    HW292784   5.594   9.667   3.863 -0.0489  0.0310 -1.7336
30736SOL     OW92785   9.300   9.799   5.246  0.9685  0.3236 -0.6955
30736SOL    HW192786   9.266   9.768   5.161  0.8077  0.9790 -0.8753
30736SOL    HW292787   9.234   9.773   5.309  2.1620 -2.2878 -0.3906
30737SOL     OW92788   1.012   0.613   1.743  0.0578  0.2206  0.2039
30737SOL    HW192789   0.917   0.597   1.745  0.2011 -0.6620  1.6157
30737SOL    HW292790   1.051   0.526   1.750  0.9125  0.7123  3.0524
30738SOL     OW92791   3.819   7.191   8.388 -0.8661  0.3921 -0.0283
30738SOL    HW192792   3.823   7.099   8.362 -1.1712  0.5750 -0.7349
30738SOL    HW292793   3.899   7.229   8.352 -0.7326  0.4013  0.2766
30739SOL     OW92794   9.119   6.334   6.697 -0.0616 -0.1166 -0.8341
30739SOL    HW192795   9.120   6.335   6.793 -0.1132 -0.8532 -0.8179
30739SOL    HW292796   9.027   6.326   6.674  0.0947 -2.5950 -0.8702
30740SOL     OW92797   2.323   6.702   5.966 -0.6220 -0.0475 -0.3743
30740SOL    HW192798   2.394   6.765   5.962  0.1002 -0.0714  5.1115
30740SOL    HW292799   2.364   6.618   5.949 -0.2985  0.3269 -1.5005
30741SOL     OW92800   3.138   6.565   2.117  0.0501 -0.2704 -0.6464
30741SOL    HW192801   3.108   6.499   2.180 -1.9111  0.6203 -0.5673
30741SOL    HW292802   3.193   6.624   2.168 -1.9598  0.7579  0.4423
30742SOL     OW92803   5.518   7.179   7.004 -0.0822 -0.2702  0.3744
30742SOL    HW192804   5.552   7.259   7.045 -2.0126  0.8433 -0.0559
30742SOL    HW292805   5.578   7.161   6.933 -0.5771  1.9230 -0.7053
30743SOL     OW92806   0.564   8.124   8.739 -0.5776 -0.0497 -0.8565
30743SOL    HW192807   0.470   8.109   8.734 -1.2712  2.3680  2.1312
30743SOL    HW292808   0.581   8.193   8.675 -1.8097  2.5947  1.4218
30744SOL     OW92809   2.835   3.879   8.866 -0.2267 -0.1592  0.1259
30744SOL    HW192810   2.871   3.863   8.779  1.5882  2.0719  0.3515
30744SOL    HW292811   2.890   3.950   8.901 -2.0068  0.2022  2.3934
30745SOL     OW92812   7.812   3.935   3.048  0.3981 -0.0387 -0.4881
30745SOL    HW192813   7.905   3.958   3.044  0.4232 -0.2747 -1.5374
30745SOL    HW292814   7.810   3.852   3.096  0.5342  0.8775  1.1677
30746SOL     OW92815   3.090   6.601   8.871  0.1556 -0.0849  0.0192
30746SOL    HW192816   3.118   6.509   8.869  1.6568  0.3407  0.2385
30746SOL    HW292817   3.017   6.605   8.810  1.5876 -0.9672 -1.8583
30747SOL     OW92818   6.539   8.133   1.755 -0.1975 -0.1240  0.8072
30747SOL    HW192819   6.529   8.060   1.817 -0.5728 -1.4571 -0.7515
30747SOL    HW292820   6.634   8.150   1.755 -0.1600 -0.2679  1.5312
30748SOL     OW92821   5.748   6.818   9.232  0.2507 -0.0576  0.0987
30748SOL    HW192822   5.728   6.903   9.193 -1.5746 -0.2400  0.5424
30748SOL    HW292823   5.789   6.769   9.161  3.3772  1.8331  0.4160
30749SOL     OW92824   3.488   9.930   2.616  0.3079 -0.3689  0.3062
30749SOL    HW192825   3.411   9.878   2.639 -0.0850  0.3106  0.5580
30749SOL    HW292826   3.466  10.020   2.643  1.5130 -0.2929  1.1844
30750SOL     OW92827   5.897   9.617   8.570 -0.4599 -0.3586  0.5930
30750SOL    HW192828   5.821   9.653   8.616 -0.0400  1.4870 -0.0888
30750SOL    HW292829   5.952   9.693   8.551  0.0896 -1.2532 -1.6321
30751SOL     OW92830   0.203   3.093   8.949  0.8275 -0.2808 -0.4457
30751SOL    HW192831   0.210   3.000   8.930  1.2627  0.0198 -1.8624
30751SOL    HW292832   0.292   3.120   8.974  1.0026  0.0142 -1.3556
30752SOL     OW92833   6.212   0.214   8.112  0.0653 -0.2961  0.5520
30752SOL    HW192834   6.253   0.175   8.190 -0.0984  0.9690  1.3131
30752SOL    HW292835   6.118   0.205   8.127  0.0361 -0.7405  0.1209
30753SOL     OW92836   0.161   1.090   5.766 -1.2139  0.3528  0.3458
30753SOL    HW192837   0.162   1.071   5.673 -0.2434  0.1500  0.3845
30753SOL    HW292838   0.069   1.105   5.787 -1.5412 -0.4699 -0.4628
30754SOL     OW92839   9.793   1.283   2.166 -0.1185  0.0123 -0.3797
30754SOL    HW192840   9.848   1.204   2.163  0.9718  0.7572 -0.5208
30754SOL    HW292841   9.754   1.282   2.254  0.4953 -0.2889 -0.1059
30755SOL     OW92842   6.118   3.501   3.743  0.3105 -0.5741  0.1541
30755SOL    HW192843   6.212   3.500   3.724 -0.1196 -0.3216 -2.3223
30755SOL    HW292844   6.076   3.496   3.657 -1.9563 -0.5663  1.1916
30756SOL     OW92845   3.371   9.624   6.661  0.3956 -0.3897  0.0887
30756SOL    HW192846   3.405   9.598   6.746  0.1086 -1.3036 -0.0551
30756SOL    HW292847   3.318   9.549   6.633 -1.0309  0.6269 -0.0747
30757SOL     OW92848   3.293   1.856   4.195 -0.3322  0.6854 -0.1399
30757SOL    HW192849   3.276   1.803   4.117 -1.1305 -0.2000  0.6126
30757SOL    HW292850   3.206   1.881   4.227 -0.0391  0.6238  0.7377
30758SOL     OW92851   3.525   2.685   1.580 -0.0492  0.2629 -0.4373
30758SOL    HW192852   3.559   2.650   1.498 -0.1366  0.6040 -0.6229
30758SOL    HW292853   3.475   2.613   1.619  2.1036 -0.7592  0.5818
30759SOL     OW92854   3.615   5.470   8.814  0.1668 -0.1458 -0.4184
30759SOL    HW192855   3.578   5.504   8.732  1.8886 -0.2777 -1.2908
30759SOL    HW292856   3.662   5.391   8.789 -0.6993 -1.1812  1.0152
30760SOL     OW92857   6.371   5.096   4.480  0.3890 -0.2155  0.6448
30760SOL    HW192858   6.465   5.114   4.482  1.0097 -2.9379 -0.1909
30760SOL    HW292859   6.356   5.056   4.394 -1.7827  1.1349  0.3157
30761SOL     OW92860   7.380   0.326   2.199 -0.2922 -0.4554  0.3374
30761SOL    HW192861   7.423   0.257   2.148  1.9820  0.5692  0.7604
30761SOL    HW292862   7.301   0.346   2.149 -1.7499 -4.1483  0.8308
30762SOL     OW92863   8.093   2.776   1.333  0.0602 -0.2393 -0.1960
30762SOL    HW192864   8.063   2.743   1.418  0.6366 -2.4116 -0.7866
30762SOL    HW292865   8.185   2.801   1.348 -0.0287  0.0048 -0.0424
30763SOL     OW92866   7.780   4.876   3.345  0.1233  0.2432  0.3417
30763SOL    HW192867   7.701   4.823   3.332  1.2742 -1.7189  0.8361
30763SOL    HW292868   7.751   4.953   3.393 -1.2902 -1.1139  1.7555
30764SOL     OW92869   9.531   8.067   3.553 -0.0135 -0.0716  0.0802
30764SOL    HW192870   9.443   8.041   3.580  0.0557 -0.5094 -0.1135
30764SOL    HW292871   9.569   7.988   3.514  0.9813 -0.2998  1.4369
30765SOL     OW92872   2.813   6.350   8.627 -0.1159  0.5800 -0.2143
30765SOL    HW192873   2.775   6.300   8.555  1.4157  0.4928 -1.0068
30765SOL    HW292874   2.794   6.442   8.605  2.5826  0.7805 -2.2157
30766SOL     OW92875   0.901   5.505   8.352  0.7024  0.2695 -0.0030
30766SOL    HW192876   0.954   5.539   8.423 -1.4140  2.3474  0.7148
30766SOL    HW292877   0.929   5.554   8.275 -0.7573  2.1691  0.5828
30767SOL     OW92878   0.925   9.687   4.888 -0.2746 -0.7446  0.6580
30767SOL    HW192879   0.902   9.769   4.846 -0.8196 -2.0370 -1.7683
30767SOL    HW292880   0.991   9.711   4.953  0.6766  1.4332 -0.9754
30768SOL     OW92881   8.251   7.699   8.003 -0.3726  0.0342  0.2577
30768SOL    HW192882   8.177   7.720   8.060 -1.1339 -1.2095 -0.2461
30768SOL    HW292883   8.323   7.753   8.037 -1.3296  0.7773  1.1599
30769SOL     OW92884   9.302   9.079   9.386  0.4325  0.4708  0.3025
30769SOL    HW192885   9.382   9.027   9.383  0.5544  0.5936  1.0713
30769SOL    HW292886   9.231   9.016   9.377  0.5920  0.2299  0.7265
30770SOL     OW92887   3.491   2.362   9.328  0.0982 -0.3422  0.1978
30770SOL    HW192888   3.522   2.330   9.243  2.0407  1.8504 -0.0307
30770SOL    HW292889   3.570   2.366   9.382 -0.2773  2.4217  0.6715
30771SOL     OW92890   3.050   9.741   2.102 -0.0077  0.6380  0.3376
30771SOL    HW192891   2.989   9.736   2.028 -0.6317 -0.8748  0.9127
30771SOL    HW292892   3.006   9.695   2.173  0.6841  1.8675  1.6094
30772SOL     OW92893   6.308   4.737   7.765 -0.2045 -0.5485 -0.5338
30772SOL    HW192894   6.349   4.756   7.680 -1.9341  0.3088 -1.2104
30772SOL    HW292895   6.242   4.670   7.746 -1.3594  0.4337 -0.0946
30773SOL     OW92896   3.612   2.758   7.400 -0.0378  0.3140 -0.5228
30773SOL    HW192897   3.555   2.820   7.445 -0.3751 -0.8872  0.7632
30773SOL    HW292898   3.701   2.792   7.415 -0.2374  0.6516 -0.0908
30774SOL     OW92899   3.154   6.866   7.695  0.2372 -0.0147  0.0339
30774SOL    HW192900   3.201   6.907   7.622  2.0529 -1.3254  0.3941
30774SOL    HW292901   3.222   6.836   7.754 -1.1179 -0.9463  1.1989
30775SOL     OW92902   2.286   6.434   7.511 -0.1283  0.7493 -0.1346
30775SOL    HW192903   2.250   6.519   7.534  0.3503  0.9691 -0.1794
30775SOL    HW292904   2.378   6.452   7.491 -0.3472  0.4667 -1.5459
30776SOL     OW92905   4.921   9.097   8.678 -0.0168  0.4564 -0.6417
30776SOL    HW192906   4.956   9.144   8.754  0.7239  0.4976 -0.9984
30776SOL    HW292907   4.842   9.145   8.655 -0.2867  0.3977  0.1496
30777SOL     OW92908   4.747   9.388   9.897  0.2247 -0.0736  0.1180
30777SOL    HW192909   4.783   9.396   9.809 -0.5772  1.1388 -0.1368
30777SOL    HW292910   4.696   9.307   9.896  0.9293 -0.5191 -0.2506
30778SOL     OW92911   4.158   0.740   1.561 -0.6426 -0.3209 -1.0895
30778SOL    HW192912   4.074   0.718   1.601 -0.3439 -0.6124 -0.6071
30778SOL    HW292913   4.219   0.744   1.634 -0.4415  0.9789 -1.2998
30779SOL     OW92914   8.574   9.964   8.353 -0.1843  0.2044  0.2976
30779SOL    HW192915   8.483   9.949   8.380 -0.4795 -0.6099 -1.0707
30779SOL    HW292916   8.592   9.895   8.288  2.2400 -1.2945  2.3357
30780SOL     OW92917   3.403   1.764   8.795  0.2443 -0.1104  0.0511
30780SOL    HW192918   3.473   1.785   8.733  0.2597 -1.4918 -0.4231
30780SOL    HW292919   3.345   1.705   8.747 -0.3929 -0.2379  0.9578
30781SOL     OW92920   2.051   2.432   6.034  0.6434 -0.2829 -0.5342
30781SOL    HW192921   2.049   2.342   6.064 -0.4718 -0.3962 -0.8874
30781SOL    HW292922   2.115   2.476   6.090  1.0598 -1.2419 -0.2461
30782SOL     OW92923   0.660   3.596   6.293 -0.2944  0.2445  0.4252
30782SOL    HW192924   0.745   3.583   6.336 -1.6203 -2.2804  2.5910
30782SOL    HW292925   0.679   3.588   6.200  1.8485 -0.2496  0.8403
30783SOL     OW92926   9.983   8.349   5.813  0.3527 -0.1489  0.3699
30783SOL    HW192927   9.993   8.341   5.719  0.1442  1.2590  0.2173
30783SOL    HW292928   9.900   8.304   5.832  0.1574 -0.0262 -0.1829
30784SOL     OW92929   1.925   7.740   6.771  0.0145 -0.0177 -0.9446
30784SOL    HW192930   1.953   7.687   6.846  2.1292  1.4391 -0.6033
30784SOL    HW292931   1.887   7.819   6.810 -2.8579 -1.0367 -1.4521
30785SOL     OW92932   3.248   1.858   4.687 -0.1734  0.1805 -0.4021
30785SOL    HW192933   3.340   1.848   4.665  0.2312 -0.1664  1.3086
30785SOL    HW292934   3.214   1.768   4.686 -0.6883  0.3635 -1.6903
30786SOL     OW92935   0.456   4.448   7.417  0.3148 -0.3359 -0.2776
30786SOL    HW192936   0.517   4.385   7.456 -0.3010  0.6175  2.4779
30786SOL    HW292937   0.513   4.516   7.380  0.9695 -0.4691  0.4452
30787SOL     OW92938   9.246   4.437   1.382  0.3298  0.4374  0.6524
30787SOL    HW192939   9.233   4.427   1.287  3.9260 -0.5947  0.1102
30787SOL    HW292940   9.273   4.528   1.392 -0.4461  0.6583  0.7530
30788SOL     OW92941   2.191   0.520   5.563 -0.7785  0.0306 -0.3019
30788SOL    HW192942   2.205   0.614   5.572  1.2025 -0.2536 -0.0511
30788SOL    HW292943   2.172   0.491   5.652  1.3776 -0.1804  0.1342
30789SOL     OW92944   2.176   8.701   8.629  0.3184 -0.6990  0.0873
30789SOL    HW192945   2.211   8.743   8.550  6.1289 -0.4387  2.2505
30789SOL    HW292946   2.135   8.773   8.678 -0.4562 -0.2003 -1.2470
30790SOL     OW92947   0.998   5.426   8.062 -0.0411  0.0541 -0.3672
30790SOL    HW192948   0.945   5.370   8.119 -0.8362  0.2995 -0.8418
30790SOL    HW292949   1.076   5.374   8.042  0.8906  0.4676  1.9884
30791SOL     OW92950   1.288   3.865   2.640 -0.2069 -0.0705  0.3532
30791SOL    HW192951   1.362   3.900   2.689  0.1487 -0.5811  0.1882
30791SOL    HW292952   1.284   3.773   2.665 -0.3627 -0.2074 -0.1558
30792SOL     OW92953   9.000   6.461   8.567 -0.4124  0.4627  0.3951
30792SOL    HW192954   8.932   6.400   8.539 -0.5566 -0.9161  3.3524
30792SOL    HW292955   9.078   6.436   8.517 -0.5237 -2.1250  1.3669
30793SOL     OW92956   7.849   3.513   7.750  0.2702 -0.4471  0.0957
30793SOL    HW192957   7.918   3.457   7.783 -0.1879 -0.6882  0.6681
30793SOL    HW292958   7.797   3.535   7.828  0.3350  0.6195 -0.1468
30794SOL     OW92959   8.325   8.889   8.787 -0.0156 -0.0948 -0.2313
30794SOL    HW192960   8.372   8.942   8.850 -1.3183  0.0223  0.6741
30794SOL    HW292961   8.393   8.842   8.739  1.0343  0.5830  0.5696
30795SOL     OW92962   8.883   4.568   3.149  0.0715 -0.1942  0.2342
30795SOL    HW192963   8.829   4.639   3.114 -0.9995 -0.4569  1.3101
30795SOL    HW292964   8.837   4.488   3.123 -2.0040 -0.4174  3.8945
30796SOL     OW92965   3.275   6.943   4.074  0.7408 -0.1434 -0.1869
30796SOL    HW192966   3.276   7.015   4.011 -0.1574 -0.6208 -0.7662
30796SOL    HW292967   3.367   6.918   4.082  0.8449 -0.3084 -1.5932
30797SOL     OW92968   9.443   4.123   9.300  0.2013  0.3148  0.2207
30797SOL    HW192969   9.353   4.094   9.316  0.2964  0.5032  1.1247
30797SOL    HW292970   9.452   4.119   9.204 -1.2106  1.6231 -0.0058
30798SOL     OW92971   4.355   4.541   1.582  0.1003  0.0430 -0.2403
30798SOL    HW192972   4.407   4.597   1.524 -0.8018  0.7214 -0.4277
30798SOL    HW292973   4.376   4.572   1.670  0.0114  0.3253 -0.3155
30799SOL     OW92974   2.204   2.042   5.495  0.6755  0.0560 -0.1638
30799SOL    HW192975   2.255   1.976   5.447 -0.0999  1.4707 -3.1462
30799SOL    HW292976   2.118   2.042   5.452 -1.1924 -0.6218  3.2224
30800SOL     OW92977   1.598   3.796   5.899 -0.1197 -0.3611  0.3194
30800SOL    HW192978   1.571   3.708   5.927  0.4704 -1.2899 -1.8266
30800SOL    HW292979   1.647   3.831   5.973  1.4807 -2.7213  0.4707
30801SOL     OW92980   5.360   6.141   2.494  0.6951 -0.4781 -0.7218
30801SOL    HW192981   5.270   6.164   2.516  0.8763 -0.8656  0.4683
30801SOL    HW292982   5.403   6.125   2.578  1.7131 -0.9184 -1.2985
30802SOL     OW92983   5.769   1.507   8.686 -0.1387  0.3075 -0.3892
30802SOL    HW192984   5.733   1.418   8.691  0.4149  0.1217  0.7812
30802SOL    HW292985   5.848   1.497   8.632 -1.2655  0.5390 -2.1563
30803SOL     OW92986   3.311   9.495   3.110  0.7223 -0.0507  0.6903
30803SOL    HW192987   3.360   9.550   3.048  1.7044 -0.2020  1.3163
30803SOL    HW292988   3.221   9.498   3.078  1.2396 -0.2891 -0.8700
30804SOL     OW92989   8.594   6.274   7.975  0.1614 -0.6227 -0.3909
30804SOL    HW192990   8.528   6.215   7.939 -1.1708 -0.8598  2.1814
30804SOL    HW292991   8.607   6.243   8.065 -0.8111  3.0689  1.2266
30805SOL     OW92992   7.382   1.379   1.271 -0.1164 -0.1448  0.4916
30805SOL    HW192993   7.375   1.293   1.312  0.6394 -0.6327 -0.3477
30805SOL    HW292994   7.344   1.367   1.184 -0.4797  0.5165  0.5473
30806SOL     OW92995   1.462   0.268   6.884 -0.0853  0.0121 -0.4573
30806SOL    HW192996   1.498   0.346   6.924  0.9318  0.2292 -1.7294
30806SOL    HW292997   1.395   0.300   6.823  0.7637 -0.0341 -1.4399
30807SOL     OW92998   8.271   7.880   0.364  0.1458  0.0387 -0.3483
30807SOL    HW192999   8.232   7.922   0.441  1.3059 -2.2458  1.5989
30807SOL    HW293000   8.338   7.942   0.335 -0.1540  0.8338  0.6092
30808SOL     OW93001   8.467   7.883   8.147  0.4900 -0.1846  0.6240
30808SOL    HW193002   8.560   7.874   8.167  0.6109  1.1181  0.6955
30808SOL    HW293003   8.422   7.844   8.223  0.9564 -0.9897  0.5024
30809SOL     OW93004   4.749   9.081   0.804  0.1310 -0.3295 -0.4228
30809SOL    HW193005   4.718   9.170   0.786 -0.5223 -0.6500 -0.9261
30809SOL    HW293006   4.797   9.056   0.725  0.3649 -0.4032 -0.2576
30810SOL     OW93007   1.879   7.819   9.028  0.1429  0.3775 -0.2524
30810SOL    HW193008   1.854   7.730   9.053  0.3465  0.2881 -0.3772
30810SOL    HW293009   1.956   7.838   9.081  0.2884  0.3649 -0.4619
30811SOL     OW93010   2.597   2.839   0.988 -0.0923 -0.5001  0.5420
30811SOL    HW193011   2.525   2.872   0.935 -0.3880 -0.8955  0.6865
30811SOL    HW293012   2.621   2.912   1.045  0.8523  0.2465 -0.7597
30812SOL     OW93013   4.053   5.776   6.376  0.5678  0.0646 -0.5258
30812SOL    HW193014   3.997   5.726   6.315  1.0576 -1.2674  0.0666
30812SOL    HW293015   4.097   5.840   6.321 -0.2085 -0.0443 -1.3010
30813SOL     OW93016   7.698   5.424   8.297  0.3150 -0.6685 -0.0290
30813SOL    HW193017   7.710   5.331   8.276  1.1541 -0.3047 -1.2989
30813SOL    HW293018   7.623   5.451   8.243  1.0604 -0.2588 -0.8927
30814SOL     OW93019   7.969   3.685   1.129 -0.8616  0.0879  0.3375
30814SOL    HW193020   7.934   3.599   1.150  0.5350 -0.1641  1.8471
30814SOL    HW293021   7.917   3.747   1.180  1.5809 -0.4024  3.8412
30815SOL     OW93022   2.021   3.400   4.728  0.2367 -0.1391 -0.2318
30815SOL    HW193023   2.104   3.422   4.685  1.2510  0.7383  2.0261
30815SOL    HW293024   2.020   3.304   4.731  1.3452 -0.1559  0.0163
30816SOL     OW93025   5.090   8.183   5.915  0.3668  0.2656 -0.1973
30816SOL    HW193026   5.143   8.181   5.995 -0.2561  1.6463  0.2915
30816SOL    HW293027   5.153   8.193   5.845  0.8952 -0.4099  0.1787
30817SOL     OW93028   6.352   0.369   7.374 -0.0338  0.6217 -0.0153
30817SOL    HW193029   6.357   0.440   7.438 -1.6012  1.6164 -0.9161
30817SOL    HW293030   6.326   0.293   7.425 -1.2792  1.4006  0.5686
30818SOL     OW93031   5.711   3.174   6.333 -0.0055 -0.0142  0.4775
30818SOL    HW193032   5.790   3.226   6.315  1.3287 -2.0299  0.2490
30818SOL    HW293033   5.719   3.150   6.426  0.0690 -0.8537  0.2629
30819SOL     OW93034   1.667   8.746   8.527 -0.3193  0.2466 -0.1274
30819SOL    HW193035   1.748   8.694   8.522 -1.2594 -1.3894  0.8526
30819SOL    HW293036   1.603   8.695   8.477 -1.3539  0.2917  1.1136
30820SOL     OW93037   6.579   3.407   7.270 -0.5410  0.3974  0.0686
30820SOL    HW193038   6.592   3.466   7.344 -1.4406  0.8033 -0.0757
30820SOL    HW293039   6.658   3.354   7.266 -0.2531  0.7519  0.9760
30821SOL     OW93040   7.149   9.313   2.156 -0.0790 -0.2012  0.1334
30821SOL    HW193041   7.125   9.353   2.239  1.0752  2.2270 -0.6165
30821SOL    HW293042   7.242   9.294   2.165 -0.6867 -3.5263  0.6915
30822SOL     OW93043   0.861   4.451   9.206  0.6779 -0.3007 -0.0402
30822SOL    HW193044   0.883   4.405   9.287 -0.6019 -0.3116  0.3273
30822SOL    HW293045   0.845   4.541   9.233  0.6430 -0.2146 -0.3470
30823SOL     OW93046   4.541   4.071   2.372 -0.1193  0.3937  0.0179
30823SOL    HW193047   4.474   4.037   2.431 -0.3995 -3.5531 -2.2286
30823SOL    HW293048   4.623   4.034   2.404  0.2760  1.1335 -0.1019
30824SOL     OW93049   9.069   9.435   2.359 -0.1852  0.1356 -0.4056
30824SOL    HW193050   9.101   9.502   2.420  0.6380  0.0275 -0.7060
30824SOL    HW293051   9.123   9.358   2.378 -1.2988 -0.5395  0.1223
30825SOL     OW93052   1.206   1.236   0.405  0.1093 -0.1400 -0.4142
30825SOL    HW193053   1.262   1.313   0.413  0.1657 -0.1794 -0.4345
30825SOL    HW293054   1.192   1.207   0.495  0.7270 -0.5722 -0.4532
30826SOL     OW93055   8.446   5.797   2.220 -0.7662  0.4571 -0.0075
30826SOL    HW193056   8.450   5.701   2.214  1.8471  0.4985 -0.3561
30826SOL    HW293057   8.353   5.817   2.223 -1.4166 -2.1925  1.7880
30827SOL     OW93058   8.391   3.397   1.415  0.4370  0.1759 -0.0431
30827SOL    HW193059   8.434   3.370   1.496  0.3340 -0.1351 -0.0909
30827SOL    HW293060   8.439   3.352   1.345  0.1678 -0.0078 -0.1117
30828SOL     OW93061   6.861   0.436   4.736 -0.2284  0.0321  0.1993
30828SOL    HW193062   6.788   0.477   4.783 -1.3657  0.8460 -2.0995
30828SOL    HW293063   6.841   0.342   4.739 -0.7572  0.1444  0.5480
30829SOL     OW93064   3.808   3.471   9.663 -0.0871 -0.3274 -0.2326
30829SOL    HW193065   3.890   3.434   9.629  0.4263  0.1537  0.4382
30829SOL    HW293066   3.762   3.397   9.702  0.8079 -0.3309  0.8676
30830SOL     OW93067   0.326   8.777   6.620  0.0023 -0.2528  0.2731
30830SOL    HW193068   0.400   8.716   6.623 -1.4174 -2.0316  1.6715
30830SOL    HW293069   0.363   8.858   6.586  2.2239 -1.5614 -0.6552
30831SOL     OW93070   9.312   5.595   1.567  0.5478 -0.3400 -0.2994
30831SOL    HW193071   9.382   5.565   1.625  0.0734  1.1737  1.1402
30831SOL    HW293072   9.248   5.524   1.567  1.3134 -1.0418 -0.2966
30832SOL     OW93073   7.146   2.879   2.262 -0.1876  0.2693  0.4030
30832SOL    HW193074   7.055   2.887   2.235 -0.0593  0.3034 -0.0292
30832SOL    HW293075   7.190   2.843   2.185  0.1761  0.3186  0.5878
30833SOL     OW93076   4.529   7.529   3.055 -0.3572 -0.4579 -0.2862
30833SOL    HW193077   4.620   7.549   3.077 -0.9235  0.9596  0.8939
30833SOL    HW293078   4.485   7.520   3.139 -1.5124 -0.2007 -0.8384
30834SOL     OW93079   6.170   8.506   0.812 -0.1101 -0.5901 -0.0694
30834SOL    HW193080   6.183   8.599   0.835 -0.1469 -0.5099 -0.3743
30834SOL    HW293081   6.087   8.483   0.853 -0.8470 -0.0766 -1.2315
30835SOL     OW93082   4.161   3.797   2.391  0.8169 -0.2076  0.1421
30835SOL    HW193083   4.216   3.724   2.419  0.2735  0.0054  1.8519
30835SOL    HW293084   4.075   3.777   2.427 -0.2758 -0.4610 -2.3647
30836SOL     OW93085   5.767   6.452   4.131 -0.1839  0.1812  0.1339
30836SOL    HW193086   5.737   6.513   4.063  0.0777  0.4859  0.2857
30836SOL    HW293087   5.815   6.508   4.192 -2.3112  0.3088  1.7915
30837SOL     OW93088   7.576   5.969   4.397 -0.0351  0.2997  0.1074
30837SOL    HW193089   7.639   6.003   4.460  1.2814 -0.3930 -0.7598
30837SOL    HW293090   7.543   6.046   4.351  0.0697  0.6857  0.6699
30838SOL     OW93091   0.317   0.988   4.445 -0.0254 -0.0793  0.3123
30838SOL    HW193092   0.242   1.028   4.401  0.4958  3.4519  2.2185
30838SOL    HW293093   0.392   1.010   4.389  0.6795  4.6614  2.6349
30839SOL     OW93094   9.418   5.248   6.005 -0.4818 -0.4634  0.2849
30839SOL    HW193095   9.459   5.236   5.919  1.4978 -1.5569  1.3189
30839SOL    HW293096   9.393   5.340   6.007 -1.2331 -0.5812 -1.7205
30840SOL     OW93097   7.537   6.768   5.543  0.4806 -0.1674  0.2683
30840SOL    HW193098   7.506   6.779   5.633  0.5485 -1.2922  0.4448
30840SOL    HW293099   7.630   6.747   5.552  0.7454  0.7892 -0.1313
30841SOL     OW93100   7.620   3.203   9.711  0.0791  0.4016 -0.3155
30841SOL    HW193101   7.656   3.245   9.788  0.5310 -0.1528 -0.2171
30841SOL    HW293102   7.554   3.264   9.678  0.0369  0.7330  0.3846
30842SOL     OW93103   3.641   2.401   1.969 -0.2034  0.0648  0.4408
30842SOL    HW193104   3.591   2.465   2.020 -0.0158  0.5908 -0.0226
30842SOL    HW293105   3.695   2.455   1.910  0.3636 -0.5081  0.4273
30843SOL     OW93106   9.619   0.687   5.437 -0.7012 -0.2583 -0.2144
30843SOL    HW193107   9.630   0.593   5.423 -0.8735 -0.0442 -2.0457
30843SOL    HW293108   9.653   0.727   5.357  0.8901  1.3564  1.1729
30844SOL     OW93109   6.483   6.966   7.766 -0.2195  0.0830  0.3835
30844SOL    HW193110   6.430   7.040   7.795 -0.0728 -0.0841  1.1012
30844SOL    HW293111   6.438   6.933   7.688 -0.3783  0.8161  0.1631
30845SOL     OW93112   6.113   3.980   5.319  0.0486  0.3629  0.4791
30845SOL    HW193113   6.174   3.917   5.283 -2.0484 -1.9232  0.6547
30845SOL    HW293114   6.064   4.012   5.243 -1.1598 -0.8387  0.7224
30846SOL     OW93115   0.398   8.804   8.383 -0.0865 -0.2520 -0.0761
30846SOL    HW193116   0.337   8.764   8.322 -1.2336  0.3327  0.6540
30846SOL    HW293117   0.366   8.894   8.394  0.1978 -0.2885  1.2341
30847SOL     OW93118   3.619   0.825   9.653  0.6076 -0.1009 -0.0870
30847SOL    HW193119   3.550   0.780   9.701  1.0468  0.0100  0.6546
30847SOL    HW293120   3.589   0.824   9.562  1.6130 -3.9731 -0.5767
30848SOL     OW93121   2.259   6.418   9.157  0.4454 -0.4876  0.7912
30848SOL    HW193122   2.267   6.330   9.193  0.5404 -0.8768 -0.1533
30848SOL    HW293123   2.337   6.429   9.102 -0.0542 -0.1929  0.1242
30849SOL     OW93124   5.637   0.456   7.299  0.0359 -0.6674 -0.0669
30849SOL    HW193125   5.641   0.499   7.213 -0.4680  0.0123  0.2371
30849SOL    HW293126   5.727   0.430   7.317  0.0935 -1.1131 -0.9437
30850SOL     OW93127   4.018   9.626   7.848 -0.1089  0.2300  0.2132
30850SOL    HW193128   4.053   9.710   7.817 -0.5504  0.0663 -0.7786
30850SOL    HW293129   4.076   9.560   7.810 -0.1390  0.0583  0.4653
30851SOL     OW93130   3.124   2.759   4.665  0.6013 -0.5180 -0.4465
30851SOL    HW193131   3.094   2.847   4.684 -1.5739 -1.2060 -0.3946
30851SOL    HW293132   3.191   2.770   4.598 -0.7477  1.0770 -1.6034
30852SOL     OW93133   0.835   3.066   8.904 -0.4634 -0.2012 -0.2386
30852SOL    HW193134   0.927   3.043   8.920 -0.3908  0.2507  0.0038
30852SOL    HW293135   0.837   3.160   8.886 -0.5334 -0.6155 -2.8548
30853SOL     OW93136   7.211   4.584   0.755  0.2973 -0.0181 -0.2363
30853SOL    HW193137   7.182   4.611   0.668  0.3729 -0.4214 -0.3922
30853SOL    HW293138   7.262   4.504   0.739  1.7663  0.8367 -0.0165
30854SOL     OW93139   7.109   9.506   7.055 -0.1826 -0.0321 -0.0051
30854SOL    HW193140   7.196   9.501   7.094 -0.6880 -0.3132  1.1335
30854SOL    HW293141   7.073   9.588   7.087 -0.4342 -0.0438 -0.2536
30855SOL     OW93142   8.399   8.812   8.059  0.0928 -0.1467  0.8262
30855SOL    HW193143   8.392   8.897   8.016 -0.0777 -0.8050 -0.5241
30855SOL    HW293144   8.323   8.762   8.026 -0.5463 -0.4147  2.5981
30856SOL     OW93145   9.919   7.198   6.239 -0.3511  0.2405  0.8695
30856SOL    HW193146  10.005   7.161   6.221 -0.2869 -0.6155  2.6713
30856SOL    HW293147   9.915   7.277   6.186  1.2594 -0.0736  0.2289
30857SOL     OW93148   5.260   5.803   7.732  0.4369  0.2437 -0.0707
30857SOL    HW193149   5.295   5.738   7.671 -0.9257 -1.7692  1.1792
30857SOL    HW293150   5.167   5.808   7.711 -0.1680 -0.8738  2.0776
30858SOL     OW93151   4.126   8.718   7.096  0.3406 -0.2625 -0.4633
30858SOL    HW193152   4.050   8.737   7.151  1.7021 -1.2969  1.9511
30858SOL    HW293153   4.140   8.798   7.046 -1.2479  0.6020  0.3921
30859SOL     OW93154   4.622   2.648   6.690  0.4648  0.2475  0.3469
30859SOL    HW193155   4.586   2.736   6.678  3.3381  1.3364 -1.4388
30859SOL    HW293156   4.590   2.621   6.776 -2.9894  1.6941 -0.2971
30860SOL     OW93157   6.637   3.637   8.306 -0.1209 -1.0777 -0.5992
30860SOL    HW193158   6.636   3.578   8.382  1.8958 -0.9268 -0.4172
30860SOL    HW293159   6.547   3.634   8.273 -0.9281 -1.5209  1.4951
30861SOL     OW93160   0.834   5.397   3.933  0.0867  0.3044 -0.4310
30861SOL    HW193161   0.919   5.397   3.888  0.2855  0.7132 -0.0711
30861SOL    HW293162   0.788   5.320   3.900  1.6252 -1.4824  1.3288
30862SOL     OW93163   9.654   2.470   5.055  0.3376  0.3560 -0.2469
30862SOL    HW193164   9.565   2.456   5.086  0.3625 -0.9850 -0.7182
30862SOL    HW293165   9.693   2.528   5.120 -0.3982 -0.3145  0.8248
30863SOL     OW93166   7.788   2.921   3.050  0.5848 -0.1501 -0.1944
30863SOL    HW193167   7.754   3.001   3.008  1.3095 -0.3149 -1.1299
30863SOL    HW293168   7.729   2.852   3.020  1.7536 -0.4603 -1.9393
30864SOL     OW93169   3.931   7.428   0.881  0.4758  0.8224  0.5035
30864SOL    HW193170   4.021   7.434   0.911  1.0977 -1.9982 -0.4817
30864SOL    HW293171   3.885   7.380   0.950 -0.0070  1.2083  0.4604
30865SOL     OW93172   0.020   8.097   4.905 -0.6216  0.0621 -0.1617
30865SOL    HW193173  -0.048   8.036   4.876  0.3185 -0.3985 -1.4735
30865SOL    HW293174   0.070   8.116   4.826  0.5317  0.7129  0.7045
30866SOL     OW93175   6.848   1.070   3.439 -0.2489  0.3189  0.0042
30866SOL    HW193176   6.888   1.051   3.354 -1.4754 -0.5111 -0.4175
30866SOL    HW293177   6.827   0.984   3.475 -0.7497  0.7030  0.6529
30867SOL     OW93178   6.373   4.327   4.525 -0.0404 -0.2255 -0.9961
30867SOL    HW193179   6.425   4.251   4.501  0.2505  0.2075 -1.7783
30867SOL    HW293180   6.438   4.397   4.539 -0.3452  0.0550 -0.9718
30868SOL     OW93181   1.852   2.597   0.844  0.4454 -0.6129 -0.5598
30868SOL    HW193182   1.899   2.599   0.928 -1.4807 -2.0165  0.6298
30868SOL    HW293183   1.919   2.618   0.779  2.0581  0.3044  1.2886
30869SOL     OW93184   8.970   8.253   4.348  0.3892  0.3390  0.3217
30869SOL    HW193185   8.875   8.254   4.347  0.3922  1.3415  0.3892
30869SOL    HW293186   8.996   8.344   4.361  1.3542  0.0412  0.6399
30870SOL     OW93187   9.984   1.671   1.429  0.2552 -0.3838  0.0437
30870SOL    HW193188   9.923   1.711   1.491  0.3172 -0.9746  0.4830
30870SOL    HW293189   9.929   1.614   1.374  0.2926 -0.3125 -0.0693
30871SOL     OW93190   8.780   1.553   0.456  0.2901  0.3559 -0.0939
30871SOL    HW193191   8.842   1.527   0.524 -0.1761 -0.6031 -0.0222
30871SOL    HW293192   8.697   1.513   0.483  0.2500 -0.6037 -1.5755
30872SOL     OW93193   4.575   2.162   5.239 -0.4986 -0.4794 -0.1360
30872SOL    HW193194   4.549   2.224   5.307  1.6955 -0.3351  0.6309
30872SOL    HW293195   4.499   2.158   5.181 -2.2219 -0.1212  1.9416
30873SOL     OW93196   3.579   3.206   5.304  0.0187  0.1256  1.1845
30873SOL    HW193197   3.609   3.285   5.348 -0.6655  0.7104  0.6291
30873SOL    HW293198   3.649   3.184   5.243 -0.7312  1.6859 -0.3605
30874SOL     OW93199   7.649   0.132   8.605  0.6085  0.7962 -0.0650
30874SOL    HW193200   7.690   0.184   8.536 -0.4718  1.0392 -0.5422
30874SOL    HW293201   7.587   0.075   8.560 -0.6259  1.4413  0.7178
30875SOL     OW93202   0.965   4.770   8.002 -0.5128  0.1633  0.3872
30875SOL    HW193203   1.010   4.806   8.078 -0.3917 -0.5496  0.6510
30875SOL    HW293204   1.027   4.708   7.964 -1.6952 -1.8083  1.4933
30876SOL     OW93205   1.221   7.858   1.946 -0.2308  0.2379 -0.7804
30876SOL    HW193206   1.153   7.822   2.003  0.1783 -1.1743 -1.1425
30876SOL    HW293207   1.293   7.880   2.006 -0.8952  1.5677 -0.4207
30877SOL     OW93208   0.105   8.904   6.317 -0.4684  0.3895 -0.3611
30877SOL    HW193209   0.011   8.918   6.301 -0.4243  1.5818  0.3189
30877SOL    HW293210   0.108   8.830   6.378 -0.9414  0.1791 -0.5849
30878SOL     OW93211   9.109   9.625   9.883 -0.0440  0.1123 -0.7361
30878SOL    HW193212   9.136   9.639   9.973 -0.8393  0.9255 -0.6052
30878SOL    HW293213   9.167   9.557   9.850  2.9397  2.4907 -0.8578
30879SOL     OW93214   7.480   2.394   2.465  0.1586 -0.0193 -0.1563
30879SOL    HW193215   7.423   2.455   2.416 -1.1499 -1.9526 -1.1787
30879SOL    HW293216   7.569   2.425   2.447 -0.4158  0.9273 -1.5553
30880SOL     OW93217   8.548   4.123   0.367  0.1477  0.0520 -0.7340
30880SOL    HW193218   8.544   4.031   0.342  1.3901  0.0077 -0.8267
30880SOL    HW293219   8.627   4.129   0.422  0.8223  1.2933 -1.7909
30881SOL     OW93220   5.363   0.453   6.663  0.1401  0.1683 -0.1291
30881SOL    HW193221   5.355   0.537   6.707 -0.0448  1.2404 -2.0870
30881SOL    HW293222   5.293   0.399   6.700  1.6906 -0.0192  2.8572
30882SOL     OW93223   9.568   0.373   4.818 -0.4910 -0.1106 -0.0171
30882SOL    HW193224   9.532   0.449   4.772  0.2107  0.6867  0.7075
30882SOL    HW293225   9.515   0.366   4.898  0.2416  0.4070  0.5293
30883SOL     OW93226   8.819   6.072   0.522 -0.0450 -0.7201 -0.5413
30883SOL    HW193227   8.860   5.987   0.511 -2.0763 -1.5606 -2.5209
30883SOL    HW293228   8.823   6.112   0.435 -2.0109 -0.2603 -0.4755
30884SOL     OW93229   2.556   9.398   4.293 -0.0994 -0.0205 -0.1320
30884SOL    HW193230   2.507   9.471   4.333  0.3716 -0.3720  1.1500
30884SOL    HW293231   2.497   9.323   4.299  0.0372 -0.1128  0.0636
30885SOL     OW93232   0.970   8.374   3.245  0.8981  0.2681 -0.0975
30885SOL    HW193233   0.973   8.359   3.150 -0.3853 -0.8172 -0.0025
30885SOL    HW293234   0.886   8.418   3.259  1.4361  1.1176  0.4533
30886SOL     OW93235   8.975   0.383   5.669  0.0841 -0.3345  0.3350
30886SOL    HW193236   8.948   0.474   5.684 -0.1708 -0.3889  0.2114
30886SOL    HW293237   9.001   0.352   5.756  2.0247  0.4434  0.0763
30887SOL     OW93238   8.299   6.300   8.726  0.0607  0.8554  0.5632
30887SOL    HW193239   8.270   6.321   8.815  2.2351  1.1815  1.2457
30887SOL    HW293240   8.394   6.311   8.729  0.6219 -2.4997 -0.8701
30888SOL     OW93241   3.958   7.568   1.952 -0.0280 -0.0616  0.0021
30888SOL    HW193242   3.878   7.557   1.902  1.6475 -0.9190 -2.7167
30888SOL    HW293243   3.982   7.660   1.938 -0.1127 -0.0260  0.0949
30889SOL     OW93244   2.258   8.847   5.031 -0.8799  0.0964  0.2186
30889SOL    HW193245   2.213   8.898   4.964 -0.3326 -0.5017 -0.6201
30889SOL    HW293246   2.351   8.864   5.016 -0.6974 -0.9739  0.0498
30890SOL     OW93247   0.054   3.468   2.392  0.6047  0.6109  0.9666
30890SOL    HW193248   0.041   3.476   2.298 -2.6505 -0.6172  1.1742
30890SOL    HW293249   0.125   3.404   2.401  2.2312  2.0899 -0.5627
30891SOL     OW93250   9.638   8.742   0.108 -0.1757  0.5051  0.0011
30891SOL    HW193251   9.692   8.762   0.184 -1.2597  0.8612  0.6998
30891SOL    HW293252   9.633   8.646   0.106 -0.4991  0.5036  0.6451
30892SOL     OW93253   0.338   5.566   2.333  0.0700  0.0446 -0.3042
30892SOL    HW193254   0.420   5.549   2.378  1.0049  1.3538 -1.4386
30892SOL    HW293255   0.276   5.588   2.403  0.1383 -2.6479  0.7369
30893SOL     OW93256   2.353   2.753   6.353 -0.3168 -0.0867 -0.0364
30893SOL    HW193257   2.444   2.760   6.383 -0.4371  1.5850  0.0111
30893SOL    HW293258   2.314   2.687   6.411  0.7090 -0.4010  0.3198
30894SOL     OW93259   3.129   3.243   0.014  0.2056  0.4683  0.6003
30894SOL    HW193260   3.133   3.303   0.088  2.0535  0.2435  0.7098
30894SOL    HW293261   3.220   3.219  -0.003 -0.3396 -0.8451 -0.6369
30895SOL     OW93262   4.531   0.517   8.088  0.1928  0.4702 -0.0947
30895SOL    HW193263   4.474   0.581   8.130 -1.6936 -0.3688 -1.2527
30895SOL    HW293264   4.500   0.432   8.119  0.7119 -0.0203 -0.8617
30896SOL     OW93265   8.441   5.868   4.390 -0.4149  0.2369 -0.3684
30896SOL    HW193266   8.499   5.940   4.364 -0.4028  0.7913  1.1029
30896SOL    HW293267   8.368   5.873   4.328  1.2879 -0.8089 -2.6191
30897SOL     OW93268   7.911   6.436   6.443  0.4690 -0.2579 -0.0788
30897SOL    HW193269   8.007   6.432   6.435  0.5004 -2.0172  0.6988
30897SOL    HW293270   7.880   6.439   6.353  1.2394 -0.5412 -0.3666
30898SOL     OW93271   0.574   7.967   1.071 -0.1585  0.0785  0.0916
30898SOL    HW193272   0.657   8.008   1.045  0.3219 -1.5848 -1.1602
30898SOL    HW293273   0.529   8.035   1.121  1.8132  1.1392  0.5436
30899SOL     OW93274   7.681   4.792   0.706 -0.4722 -0.1243 -0.6191
30899SOL    HW193275   7.629   4.740   0.644 -1.2908  0.1058 -0.1404
30899SOL    HW293276   7.715   4.864   0.653 -1.8174  0.5118 -0.6580
30900SOL     OW93277   5.676   4.024   0.651  0.6870 -0.6764 -0.6631
30900SOL    HW193278   5.656   4.016   0.744  3.1051 -4.1444 -0.2325
30900SOL    HW293279   5.768   4.050   0.648  0.6253 -0.5502 -2.0769
30901SOL     OW93280   7.154   3.332   4.374 -0.2160  0.5286 -0.2687
30901SOL    HW193281   7.172   3.426   4.368  3.1645 -0.0495 -1.2013
30901SOL    HW293282   7.238   3.293   4.399 -1.5636 -2.2718  0.2686
30902SOL     OW93283   6.701   8.094   8.910 -0.4284  0.3659 -0.6219
30902SOL    HW193284   6.795   8.081   8.899 -0.0365  1.0139  1.4568
30902SOL    HW293285   6.674   8.142   8.832  1.5660  2.7033  0.0078
30903SOL     OW93286   0.356   6.816   4.335 -0.0591 -0.3053 -0.0507
30903SOL    HW193287   0.390   6.905   4.344 -0.4154 -0.0883 -0.7412
30903SOL    HW293288   0.318   6.796   4.420 -1.7235  0.9594 -0.4386
30904SOL     OW93289   7.866   1.811   8.906 -0.3247 -0.2058 -0.1342
30904SOL    HW193290   7.947   1.761   8.890  0.0980  0.7198 -0.9853
30904SOL    HW293291   7.887   1.867   8.981  0.0305  0.4298 -0.6920
30905SOL     OW93292   7.036   7.589   2.145 -0.6829  0.4886  0.2602
30905SOL    HW193293   7.012   7.555   2.058 -0.9569 -0.5375  0.7263
30905SOL    HW293294   7.013   7.519   2.205 -0.9324  1.3819  1.2259
30906SOL     OW93295   1.448   5.447   8.954 -0.1849  0.4298  0.2700
30906SOL    HW193296   1.407   5.419   9.036  1.0604 -0.7848  0.5160
30906SOL    HW293297   1.524   5.498   8.981  0.0607  0.2826 -0.1292
30907SOL     OW93298   4.940   3.163   9.790  0.0185 -1.1552  0.0760
30907SOL    HW193299   4.850   3.137   9.809 -0.5377  0.1251 -0.6448
30907SOL    HW293300   4.961   3.227   9.858 -0.1564 -0.3783 -0.5760
30908SOL     OW93301   3.257   9.405   6.578  0.4327 -0.3567  0.3601
30908SOL    HW193302   3.338   9.393   6.527  1.0744 -1.2674  1.5430
30908SOL    HW293303   3.220   9.317   6.586 -0.5317  0.0113  0.0982
30909SOL     OW93304   4.212   5.208   1.536  0.2150  0.0458 -0.2920
30909SOL    HW193305   4.306   5.205   1.548  0.1393 -0.8912  0.1964
30909SOL    HW293306   4.194   5.294   1.500  1.0785  0.8587  1.1483
30910SOL     OW93307   0.767   0.439   0.068  0.5761 -0.3775 -0.2628
30910SOL    HW193308   0.811   0.364   0.110  0.7038 -0.2952 -0.2478
30910SOL    HW293309   0.828   0.467  -0.000  0.0400 -0.9703 -0.9958
30911SOL     OW93310   7.798   6.739   9.008 -0.0263 -0.4040  0.4059
30911SOL    HW193311   7.767   6.826   9.032 -1.3230 -0.8894  0.5415
30911SOL    HW293312   7.726   6.700   8.957  1.1564 -0.8065 -1.0490
30912SOL     OW93313   8.898   3.191   8.026  0.4802  0.1316 -0.0885
30912SOL    HW193314   8.878   3.264   7.967  0.3800 -0.7566 -1.1923
30912SOL    HW293315   8.814   3.149   8.042  0.7302 -0.6329 -0.6999
30913SOL     OW93316   8.551   3.725   4.654  0.3834  0.6831  0.0809
30913SOL    HW193317   8.620   3.666   4.625 -0.4823  0.2963 -1.2978
30913SOL    HW293318   8.559   3.726   4.749  0.1185 -2.1145  0.2110
30914SOL     OW93319   1.960   1.464   8.302 -0.6610  0.3185 -0.8574
30914SOL    HW193320   1.906   1.401   8.254 -2.2042  0.7391  0.2712
30914SOL    HW293321   1.948   1.441   8.394 -0.0382  1.3233 -0.5066
30915SOL     OW93322   5.173   7.676   6.652  0.5101 -0.0085 -0.2292
30915SOL    HW193323   5.166   7.744   6.585  2.0925  0.2729 -0.1244
30915SOL    HW293324   5.246   7.702   6.707 -1.2870  0.2300  2.2128
30916SOL     OW93325   3.266   8.841   5.296  0.1434  0.6008  0.3346
30916SOL    HW193326   3.260   8.847   5.392  2.1433 -1.5496  0.7023
30916SOL    HW293327   3.188   8.793   5.270 -1.0576  2.2943  0.6940
30917SOL     OW93328   5.260   6.673   9.280  0.2611  0.2691 -0.1627
30917SOL    HW193329   5.310   6.733   9.336  0.6630 -0.3581  0.1510
30917SOL    HW293330   5.295   6.688   9.192  0.2611  0.5891 -0.1119
30918SOL     OW93331   0.302   3.438   8.010  0.3708 -0.0000 -0.5662
30918SOL    HW193332   0.246   3.475   8.079 -0.6980  0.3789 -1.6094
30918SOL    HW293333   0.391   3.452   8.042 -0.1075 -0.7105  1.1860
30919SOL     OW93334   6.606   4.502   4.577 -0.8123  0.4063  0.5874
30919SOL    HW193335   6.647   4.567   4.520  0.8446 -0.4110  0.8079
30919SOL    HW293336   6.615   4.538   4.665  1.0639 -0.5436  0.8310
30920SOL     OW93337   8.203   7.995   8.956  0.1849 -0.3809 -0.1614
30920SOL    HW193338   8.140   7.977   9.026 -1.2783 -0.5604 -1.4718
30920SOL    HW293339   8.226   8.087   8.967  0.1372 -0.4593  0.6691
30921SOL     OW93340   4.475   2.999   1.038 -0.4868 -0.3827 -0.2114
30921SOL    HW193341   4.524   2.923   1.006 -0.0429 -0.9850  1.7333
30921SOL    HW293342   4.405   2.961   1.091 -0.0352  0.5362  1.1045
30922SOL     OW93343   8.692   6.537   1.399  0.1998 -0.3036  0.0211
30922SOL    HW193344   8.759   6.605   1.388 -1.1099  0.9943 -0.2581
30922SOL    HW293345   8.735   6.457   1.370  0.9614  0.8669 -2.4054
30923SOL     OW93346   0.540   7.604   5.668  0.5149  0.4134 -0.5432
30923SOL    HW193347   0.487   7.551   5.728 -0.6457  1.1035 -0.9206
30923SOL    HW293348   0.628   7.567   5.674  0.6426  0.9876  2.2342
30924SOL     OW93349   6.620   2.445   2.299  0.2330  0.6035  0.0402
30924SOL    HW193350   6.652   2.506   2.365  0.6809  1.9233 -1.3400
30924SOL    HW293351   6.664   2.471   2.219 -2.3749  0.9092 -1.4104
30925SOL     OW93352   6.796   8.246   8.680 -0.6133  0.2958 -0.2192
30925SOL    HW193353   6.780   8.313   8.613  1.1681  0.8625 -0.1137
30925SOL    HW293354   6.887   8.258   8.705 -0.3659 -1.9034  0.1283
30926SOL     OW93355   5.670   3.080   0.796  0.3456  0.3904  0.0778
30926SOL    HW193356   5.615   3.142   0.747  0.4647  1.6319  1.4727
30926SOL    HW293357   5.672   3.002   0.740 -0.2342  1.4335 -1.4824
30927SOL     OW93358   4.802   3.809   4.057  0.1075 -0.2197 -0.0555
30927SOL    HW193359   4.841   3.751   3.993  0.8543 -1.1089  1.1704
30927SOL    HW293360   4.834   3.778   4.141 -2.1865 -0.1754  0.9216
30928SOL     OW93361   8.756   2.193   5.392  0.2000  0.1814 -0.0986
30928SOL    HW193362   8.703   2.156   5.322 -0.8885 -0.7877  1.1916
30928SOL    HW293363   8.821   2.125   5.411 -0.0848  0.0609  0.4457
30929SOL     OW93364   7.466   1.357   9.266  0.0781 -0.1300 -0.3329
30929SOL    HW193365   7.481   1.419   9.194  0.4912  0.4656  0.2534
30929SOL    HW293366   7.546   1.303   9.267 -0.1632 -0.5055 -0.6642
30930SOL     OW93367   0.153   4.021   7.877  0.1777 -0.0384  0.5391
30930SOL    HW193368   0.177   4.107   7.912 -1.7924  0.1879  1.4446
30930SOL    HW293369   0.140   4.036   7.783 -2.4730  1.2858  1.0184
30931SOL     OW93370   8.399   1.627   6.272  0.1488  0.4569 -0.0011
30931SOL    HW193371   8.484   1.638   6.314  0.3890  0.5504 -0.5141
30931SOL    HW293372   8.376   1.715   6.242  0.6634  0.1434 -1.3855
30932SOL     OW93373   1.971   8.858   4.609  0.6467 -0.1763 -0.6057
30932SOL    HW193374   1.937   8.947   4.604  0.5397 -0.2689 -2.7668
30932SOL    HW293375   1.921   8.810   4.543  1.0436 -1.7114  0.1796
30933SOL     OW93376   1.033   4.728   9.124  0.1814 -0.1523  0.0586
30933SOL    HW193377   1.048   4.822   9.109 -0.8410 -0.0752 -0.5883
30933SOL    HW293378   1.096   4.684   9.066 -0.3940  0.1453 -0.8086
30934SOL     OW93379   4.877   4.248   5.318  0.3359  0.3151  0.1323
30934SOL    HW193380   4.855   4.210   5.233  0.7328  0.9626 -0.2633
30934SOL    HW293381   4.900   4.173   5.372 -0.8185 -0.1991 -0.0454
30935SOL     OW93382   6.740   0.783   6.278  0.5342  0.1846 -0.4226
30935SOL    HW193383   6.791   0.861   6.256 -1.5123  1.7720  0.1265
30935SOL    HW293384   6.754   0.770   6.371  0.3253  0.3328 -0.3695
30936SOL     OW93385   4.615   9.015   3.375 -0.7990  0.4680 -0.4809
30936SOL    HW193386   4.709   8.998   3.368 -0.6664  1.1646 -0.4094
30936SOL    HW293387   4.593   8.990   3.464 -0.7960 -0.2173 -0.6648
30937SOL     OW93388   8.881   9.477   1.783  0.6036 -0.2016  0.0730
30937SOL    HW193389   8.905   9.441   1.868 -0.0970  1.7912  1.1641
30937SOL    HW293390   8.964   9.511   1.748  0.5904  0.5974  0.7903
30938SOL     OW93391   4.686   2.613   5.982  0.5332  0.4382  0.0235
30938SOL    HW193392   4.672   2.520   5.967  3.5513 -0.0791 -0.0880
30938SOL    HW293393   4.726   2.645   5.902  1.9862  1.1974  1.0107
30939SOL     OW93394   9.848   7.024   4.842  0.2779  0.5222 -0.6192
30939SOL    HW193395   9.932   7.044   4.884 -0.0719  1.8706 -0.5304
30939SOL    HW293396   9.829   7.100   4.788 -0.7787  0.1269 -0.8314
30940SOL     OW93397   9.621   6.427   4.408 -0.2573  0.1150 -0.3290
30940SOL    HW193398   9.571   6.413   4.488  2.9201  1.1825  2.0316
30940SOL    HW293399   9.621   6.522   4.395 -0.3033 -0.0101 -1.3309
30941SOL     OW93400   8.518   7.983   0.247 -0.0059  0.2166 -0.3927
30941SOL    HW193401   8.612   7.971   0.264 -0.1910 -1.1459 -0.2166
30941SOL    HW293402   8.515   8.040   0.170  0.9096  2.5998  1.2030
30942SOL     OW93403   6.867   6.834   8.932 -0.3432  0.1398  0.2634
30942SOL    HW193404   6.862   6.895   9.005 -2.5250  2.1744 -1.4186
30942SOL    HW293405   6.911   6.883   8.863 -3.3969  0.4983 -1.5982
30943SOL     OW93406   7.914   5.876   9.561  0.6172  0.1391  0.2424
30943SOL    HW193407   7.985   5.872   9.497  1.1748  1.1413  0.7784
30943SOL    HW293408   7.931   5.956   9.611 -0.9696  0.4719  0.2952
30944SOL     OW93409   9.032   9.115   8.004 -0.3033  0.6314  0.8016
30944SOL    HW193410   9.097   9.064   7.954 -0.2371  0.4579  1.0623
30944SOL    HW293411   8.948   9.088   7.967 -0.3967 -0.9807  2.0891
30945SOL     OW93412   7.425   9.483   6.191 -0.0644  0.2752  0.4891
30945SOL    HW193413   7.515   9.461   6.166  0.4290  0.9842  1.5922
30945SOL    HW293414   7.374   9.406   6.165  1.0668 -0.7054  1.0497
30946SOL     OW93415   6.838   9.495   8.495 -0.1112  0.3206  1.0115
30946SOL    HW193416   6.844   9.566   8.559  0.6161  0.8506  0.3741
30946SOL    HW293417   6.781   9.530   8.426 -0.3556  0.0016  1.0507
30947SOL     OW93418   1.763   5.058   0.379  0.2089  0.7294 -0.5807
30947SOL    HW193419   1.759   5.010   0.462  0.0803 -0.0013 -0.9968
30947SOL    HW293420   1.722   5.142   0.398 -0.4554  0.3072 -0.0764
30948SOL     OW93421   8.885   3.840   0.376 -0.0415 -0.4781 -0.0955
30948SOL    HW193422   8.963   3.896   0.368 -0.3225  0.0783  0.8421
30948SOL    HW293423   8.905   3.763   0.322  2.0286 -1.2964  1.6781
30949SOL     OW93424   0.278   0.222   5.190 -0.2573  0.4620 -0.1573
30949SOL    HW193425   0.255   0.149   5.133 -0.1969  1.1241 -1.0520
30949SOL    HW293426   0.293   0.182   5.276 -0.0669 -0.5847 -0.6695
30950SOL     OW93427   1.472   2.684   1.455 -0.2207  0.0792 -0.1239
30950SOL    HW193428   1.401   2.705   1.516 -0.2086  0.1631 -0.1379
30950SOL    HW293429   1.545   2.658   1.511 -0.7549 -1.5947 -0.1505
30951SOL     OW93430   2.414   7.520   6.296 -0.0640 -0.3045  0.0601
30951SOL    HW193431   2.329   7.481   6.274 -0.4522  0.6223 -0.1446
30951SOL    HW293432   2.403   7.613   6.275  0.3822  0.1764  1.8528
30952SOL     OW93433   3.516   4.672   2.181  0.4025  0.0323 -0.5744
30952SOL    HW193434   3.463   4.751   2.192 -0.1415 -0.4201  0.1339
30952SOL    HW293435   3.548   4.652   2.269 -1.8167 -2.1358 -0.1534
30953SOL     OW93436   9.810   8.582   3.968 -0.4566  0.0537 -0.1198
30953SOL    HW193437   9.722   8.600   3.999  0.2220 -0.0719  2.0406
30953SOL    HW293438   9.800   8.568   3.874 -2.9108 -1.2220  0.2536
30954SOL     OW93439   3.489   0.136   1.180  0.2488  0.0941 -0.0454
30954SOL    HW193440   3.570   0.158   1.227  0.2383  0.0322  0.0024
30954SOL    HW293441   3.433   0.095   1.246  0.5814 -0.8136 -0.3008
30955SOL     OW93442   5.743   6.873   0.411 -0.7242 -0.0879 -0.2687
30955SOL    HW193443   5.733   6.835   0.324  0.0973  1.7449 -1.2338
30955SOL    HW293444   5.714   6.964   0.400  2.3989  1.1144  0.5081
30956SOL     OW93445   2.420   6.443   1.085  0.0144 -0.4921  0.4009
30956SOL    HW193446   2.498   6.408   1.127  0.8049 -0.2771 -0.8426
30956SOL    HW293447   2.369   6.482   1.156  1.0583 -0.5938  1.2115
30957SOL     OW93448   6.200   7.610   1.375  0.6309  0.2830 -0.1551
30957SOL    HW193449   6.247   7.621   1.293 -0.6939  0.7841 -0.8654
30957SOL    HW293450   6.119   7.566   1.351  0.8296 -0.8116  1.0874
30958SOL     OW93451   0.393   7.662   6.633 -0.0683 -0.2398  0.0032
30958SOL    HW193452   0.401   7.567   6.619  2.2345 -0.0297 -0.6627
30958SOL    HW293453   0.463   7.683   6.695  0.4568  1.1862 -1.0023
30959SOL     OW93454   9.552   8.491   8.133 -0.2080 -0.3323  0.5631
30959SOL    HW193455   9.585   8.496   8.223 -0.2483  0.3358  0.5436
30959SOL    HW293456   9.597   8.562   8.087 -0.7570 -0.1895  0.2448
30960SOL     OW93457   7.810   0.927   4.648  0.2443  1.1823 -0.1436
30960SOL    HW193458   7.786   0.882   4.729 -0.7166  3.2235  0.7906
30960SOL    HW293459   7.864   0.864   4.600 -2.7984 -1.8073 -0.0093
30961SOL     OW93460   4.074   1.541   9.206  0.0006  0.3666 -0.2443
30961SOL    HW193461   4.010   1.576   9.144 -0.0198  1.2062  0.2268
30961SOL    HW293462   4.065   1.598   9.283  1.1608  0.3649 -0.0980
30962SOL     OW93463   9.846   5.293   0.861  0.0854  0.5142  0.4276
30962SOL    HW193464   9.863   5.210   0.817 -0.7312  0.0794  0.9042
30962SOL    HW293465   9.933   5.327   0.882  0.5440  1.0989 -2.1223
30963SOL     OW93466   3.557   2.568   0.019 -0.8782 -0.6269  0.1975
30963SOL    HW193467   3.646   2.557  -0.013 -1.3963  0.6321 -1.8932
30963SOL    HW293468   3.567   2.590   0.111  1.1272  1.1888 -0.3734
30964SOL     OW93469   2.104   1.775   3.499  0.1533  0.4454 -0.0565
30964SOL    HW193470   2.154   1.751   3.577  0.0770  0.6465  0.0541
30964SOL    HW293471   2.022   1.727   3.508  0.1600  0.4386 -0.0326
30965SOL     OW93472   7.603   2.194   0.982  0.2251 -0.1239 -0.4365
30965SOL    HW193473   7.587   2.253   0.908  0.5080 -0.5628 -0.8587
30965SOL    HW293474   7.668   2.131   0.949  1.8493  0.8204  0.7806
30966SOL     OW93475   6.457   1.275   5.100  0.2661  0.2745  0.0849
30966SOL    HW193476   6.433   1.259   5.008  0.0037  2.5659 -0.3231
30966SOL    HW293477   6.378   1.251   5.149 -1.2316  2.9882 -0.7716
30967SOL     OW93478   0.647   5.680   5.451  0.4045  0.5699  0.5318
30967SOL    HW193479   0.581   5.715   5.510  0.1775  0.1368  0.5409
30967SOL    HW293480   0.722   5.662   5.507 -0.2547 -1.0621  0.9436
30968SOL     OW93481   8.528   1.936   7.151 -0.0393  0.0591  0.2482
30968SOL    HW193482   8.614   1.956   7.116  0.8805 -2.1071  1.1164
30968SOL    HW293483   8.487   2.021   7.164  2.1897  1.1765  0.3689
30969SOL     OW93484   2.176   6.778   6.198  0.0902  0.3001 -0.0286
30969SOL    HW193485   2.168   6.873   6.199  0.9519  0.4749 -2.3334
30969SOL    HW293486   2.221   6.759   6.115 -1.8296 -2.2193 -0.6203
30970SOL     OW93487   6.326   8.994   1.821  0.1856 -0.2555 -0.0565
30970SOL    HW193488   6.349   8.923   1.880 -0.4263 -0.4870 -0.0833
30970SOL    HW293489   6.337   9.074   1.873  1.5026 -0.3058 -0.2200
30971SOL     OW93490   0.784   8.698   8.086  0.1884 -0.4064  0.1768
30971SOL    HW193491   0.733   8.775   8.111  1.5452  1.3200 -1.8692
30971SOL    HW293492   0.778   8.638   8.160 -0.0926  2.1236  2.3321
30972SOL     OW93493   7.621   0.035   7.945  0.0331 -0.4467  0.0712
30972SOL    HW193494   7.546   0.045   8.004  1.0936  1.9676  1.1478
30972SOL    HW293495   7.665  -0.043   7.978 -1.0529 -0.8943  0.5329
30973SOL     OW93496   8.493   5.527   1.406 -0.3838 -0.4858 -0.1742
30973SOL    HW193497   8.561   5.560   1.347 -0.3435  0.3856  0.3328
30973SOL    HW293498   8.539   5.505   1.486 -0.3019 -2.5161 -0.7190
30974SOL     OW93499   3.526   0.546   2.272  0.4652  0.7463  0.1541
30974SOL    HW193500   3.574   0.502   2.202 -1.2822 -1.0346  0.0037
30974SOL    HW293501   3.587   0.613   2.304  2.2272 -0.0290 -1.3885
30975SOL     OW93502   2.863   1.119   3.515 -0.0335 -0.2514 -0.1314
30975SOL    HW193503   2.851   1.069   3.434 -0.3498 -0.1808 -0.1292
30975SOL    HW293504   2.866   1.053   3.584  1.3305 -0.3911 -0.3075
30976SOL     OW93505   6.429   1.715   6.306  0.0936  0.0999 -0.6898
30976SOL    HW193506   6.356   1.703   6.366  1.3912  2.5922  1.5824
30976SOL    HW293507   6.475   1.631   6.306  0.9578  0.3943  3.2319
30977SOL     OW93508   7.705   0.858   9.258  0.1862  0.1838 -0.0712
30977SOL    HW193509   7.739   0.771   9.278 -1.5407 -0.4050  0.4656
30977SOL    HW293510   7.778   0.903   9.215  2.1407 -0.4607  2.3631
30978SOL     OW93511   0.309   5.814   9.293 -0.6945 -0.0822 -0.2483
30978SOL    HW193512   0.220   5.805   9.261 -0.7757 -3.4884  0.5209
30978SOL    HW293513   0.302   5.812   9.388  0.0880  2.2524 -0.0750
30979SOL     OW93514   2.550   4.190   0.888  0.4188  1.1205  0.3540
30979SOL    HW193515   2.565   4.271   0.937 -0.3505  2.2574 -1.1933
30979SOL    HW293516   2.519   4.219   0.802 -2.6350 -0.8204  0.6337
30980SOL     OW93517   6.035   4.030   0.539 -0.2346 -0.0683 -0.4059
30980SOL    HW193518   5.971   3.998   0.474  1.0789  0.1771 -1.8815
30980SOL    HW293519   6.120   4.014   0.499  0.7717 -2.0250  2.2675
30981SOL     OW93520   7.886   6.054   0.143  0.3179  0.1190 -0.0746
30981SOL    HW193521   7.808   6.044   0.089  1.3766  0.1931 -1.6956
30981SOL    HW293522   7.892   6.148   0.159  1.9057  0.6095 -2.9293
30982SOL     OW93523   5.442   2.093   6.975 -0.3405 -0.3398  0.1768
30982SOL    HW193524   5.469   2.112   6.885 -0.7616 -0.2086  0.0754
30982SOL    HW293525   5.354   2.132   6.982  0.7912  2.2513  1.5145
30983SOL     OW93526   3.512   2.036   7.619  0.0281  0.2004 -0.0327
30983SOL    HW193527   3.503   2.002   7.709 -0.4857 -0.1471 -0.2084
30983SOL    HW293528   3.516   1.957   7.565 -1.3143  0.4024 -0.4633
30984SOL     OW93529   3.125   7.372   7.168 -0.0217  0.2524  0.6035
30984SOL    HW193530   3.089   7.302   7.221  3.0454 -0.1653  2.3714
30984SOL    HW293531   3.219   7.372   7.188  0.8983  1.7797 -2.9354
30985SOL     OW93532   4.292   0.947   3.865  0.6473 -0.3436 -0.2996
30985SOL    HW193533   4.250   1.030   3.841  1.2072 -0.2878 -1.1127
30985SOL    HW293534   4.381   0.971   3.890  0.5749 -0.6138  0.2546
30986SOL     OW93535   0.132   3.545   4.438  0.0703 -0.4951  0.1632
30986SOL    HW193536   0.181   3.474   4.398  0.6933 -1.7496  2.9388
30986SOL    HW293537   0.196   3.591   4.492 -0.6636  1.2850 -0.4173
30987SOL     OW93538   2.774   2.367   1.047  0.3402 -0.3079 -0.1142
30987SOL    HW193539   2.829   2.350   1.123  3.2127 -0.8965 -2.1658
30987SOL    HW293540   2.779   2.462   1.035  0.6610 -0.3276 -0.1310
30988SOL     OW93541   6.843   6.228   7.137  0.0650 -0.4572  0.1115
30988SOL    HW193542   6.754   6.241   7.170 -0.2001  0.8920 -1.0151
30988SOL    HW293543   6.835   6.240   7.042  1.3315 -1.0382 -0.0844
30989SOL     OW93544   6.732   3.030   9.624  0.0640  0.2020  0.5409
30989SOL    HW193545   6.696   3.113   9.655 -1.7202 -0.5691  0.6007
30989SOL    HW293546   6.694   2.964   9.681  0.6892 -0.7631 -0.1296
30990SOL     OW93547   1.758   8.244   0.228 -0.4928  0.0978  0.3301
30990SOL    HW193548   1.830   8.264   0.286 -0.2070 -0.8241  0.3049
30990SOL    HW293549   1.795   8.184   0.163 -1.2952 -0.4759  0.3838
30991SOL     OW93550   8.180   3.236   5.141 -0.0575  0.8024  0.1699
30991SOL    HW193551   8.143   3.257   5.227 -0.3114 -2.6482  1.0390
30991SOL    HW293552   8.105   3.241   5.082 -0.9398 -1.2812  1.0368
30992SOL     OW93553   9.576   4.990   1.610 -0.0300 -0.2302  0.5845
30992SOL    HW193554   9.644   4.927   1.587 -0.4166 -0.5132  0.2014
30992SOL    HW293555   9.624   5.066   1.644  0.4424 -0.7039  1.0035
30993SOL     OW93556   3.517   4.477   4.265  0.1045  0.4495 -0.5183
30993SOL    HW193557   3.507   4.383   4.255 -1.2275  0.4922  0.0949
30993SOL    HW293558   3.477   4.496   4.350  2.5645  1.2589  0.5509
30994SOL     OW93559   9.876   5.372   5.479 -0.1271 -0.1078 -0.8310
30994SOL    HW193560   9.830   5.456   5.488 -3.4874 -1.7836 -0.8781
30994SOL    HW293561   9.956   5.394   5.432 -1.0427  3.0055 -1.1907
30995SOL     OW93562   4.479   0.292   0.795 -0.0966 -0.3830 -0.1606
30995SOL    HW193563   4.565   0.331   0.807 -0.2840  0.0257 -0.1219
30995SOL    HW293564   4.425   0.333   0.863 -0.9583  1.2860 -1.7675
30996SOL     OW93565   4.125   5.241   0.441 -0.6689 -0.3955  0.1657
30996SOL    HW193566   4.218   5.218   0.432 -0.7312 -0.7777  0.4712
30996SOL    HW293567   4.080   5.175   0.389 -0.8539 -1.0094  1.0829
30997SOL     OW93568   2.035   0.585   1.235 -0.0987  0.1821  0.5949
30997SOL    HW193569   2.113   0.534   1.256 -0.4168 -0.5450  0.0506
30997SOL    HW293570   2.057   0.674   1.261  0.1288 -0.3636  2.4441
30998SOL     OW93571   4.824   7.019   6.755  0.3549  0.6214 -0.3669
30998SOL    HW193572   4.732   7.027   6.729  0.3496 -0.3097 -0.6764
30998SOL    HW293573   4.866   7.096   6.718 -0.1126  0.5344 -1.0954
30999SOL     OW93574   9.156   6.336   3.119 -0.2565 -0.5199 -0.2722
30999SOL    HW193575   9.242   6.297   3.102  0.3173  0.4646  0.2767
30999SOL    HW293576   9.098   6.296   3.054  0.3959 -1.9389 -0.0174
31000SOL     OW93577   9.005   4.872   9.075  0.4248  0.4739 -0.4286
31000SOL    HW193578   9.014   4.880   9.170  0.9261 -1.5254 -0.2593
31000SOL    HW293579   8.915   4.842   9.062  0.6595 -0.2274 -0.4874
31001SOL     OW93580   9.126   5.470   6.324  0.1045  0.5771 -0.0728
31001SOL    HW193581   9.064   5.494   6.255  0.2393  1.6004  0.1344
31001SOL    HW293582   9.208   5.512   6.298 -0.1256  1.9329  1.2303
31002SOL     OW93583   3.938   8.386   2.545 -0.2329 -0.5091 -0.5760
31002SOL    HW193584   3.879   8.389   2.620  0.1103  0.5242 -0.3256
31002SOL    HW293585   3.975   8.298   2.546  1.2687  0.0589  1.6630
31003SOL     OW93586   7.305   9.930   7.577  0.1235 -0.0797  0.5976
31003SOL    HW193587   7.250   9.853   7.564 -1.5528  1.0664  0.6266
31003SOL    HW293588   7.337   9.952   7.489 -2.3401  1.2713 -0.0297
31004SOL     OW93589   4.016   3.398   4.887 -0.0561  0.2500 -0.1351
31004SOL    HW193590   3.944   3.388   4.825 -0.3096 -0.5550  0.2697
31004SOL    HW293591   4.088   3.433   4.835  0.4206 -2.3269 -1.4061
31005SOL     OW93592   6.088   6.732   7.597 -0.1027 -0.0802 -0.8827
31005SOL    HW193593   6.084   6.646   7.555  0.0456 -0.3066 -0.4299
31005SOL    HW293594   6.180   6.758   7.590 -0.3004  0.4532 -1.8290
31006SOL     OW93595   7.022   9.151   7.630  0.1570 -0.2963  0.0839
31006SOL    HW193596   7.037   9.238   7.666 -1.5181 -1.1647  3.2852
31006SOL    HW293597   6.927   9.140   7.629  0.2848 -1.7670 -1.1818
31007SOL     OW93598   2.145   9.759   9.900 -0.6041  0.0209  0.0620
31007SOL    HW193599   2.051   9.770   9.914 -0.6271 -1.0535  0.8820
31007SOL    HW293600   2.159   9.783   9.809 -1.7829 -0.3781 -0.2419
31008SOL     OW93601   4.954   9.743   4.220  0.4414 -0.5131 -0.1216
31008SOL    HW193602   5.025   9.741   4.285  0.6197 -1.9544 -0.3253
31008SOL    HW293603   4.960   9.659   4.175  0.4197  0.5067 -2.1556
31009SOL     OW93604   4.358   6.871   8.222  0.3886  0.3867  0.3268
31009SOL    HW193605   4.397   6.946   8.178 -0.0102  0.3953 -0.0178
31009SOL    HW293606   4.433   6.819   8.252  0.6599  0.5559 -0.0574
31010SOL     OW93607   2.328   8.235   6.413  0.3720  0.7802 -0.0205
31010SOL    HW193608   2.404   8.277   6.452  0.6789  1.1094 -0.9554
31010SOL    HW293609   2.325   8.268   6.323  0.7591 -1.3376 -0.8700
31011SOL     OW93610   8.870   1.842   6.551 -0.2217  0.5978 -0.0002
31011SOL    HW193611   8.805   1.868   6.486 -2.4742 -0.0918  1.8543
31011SOL    HW293612   8.825   1.851   6.635  2.5817  1.4850  1.5241
31012SOL     OW93613   5.442   6.762   7.245 -0.2135  0.2135 -0.6080
31012SOL    HW193614   5.359   6.732   7.281 -0.6891  1.0696 -0.9498
31012SOL    HW293615   5.418   6.837   7.190  0.7627  0.3535 -0.8599
31013SOL     OW93616   2.496   6.309   8.280  0.5226  0.4944 -0.5280
31013SOL    HW193617   2.461   6.284   8.366 -1.1334 -0.1042 -1.3229
31013SOL    HW293618   2.590   6.292   8.286  0.3424 -0.1409  0.9529
31014SOL     OW93619   3.110   6.804   6.741  0.1339 -0.1436 -0.1123
31014SOL    HW193620   3.050   6.755   6.797 -0.6467  1.0206  0.1132
31014SOL    HW293621   3.197   6.774   6.768 -0.3175 -1.7558 -0.3582
31015SOL     OW93622   8.175   3.524   7.734  0.2114 -0.4968  0.5884
31015SOL    HW193623   8.228   3.595   7.772 -1.2399  1.5021 -0.9220
31015SOL    HW293624   8.187   3.534   7.640 -1.4066 -1.1765  0.2920
31016SOL     OW93625   7.981   1.343   9.182 -0.4202 -0.1712  0.1174
31016SOL    HW193626   7.915   1.357   9.250  0.1303  1.9225  0.2858
31016SOL    HW293627   8.065   1.347   9.229 -0.0314  1.3992 -0.6551
31017SOL     OW93628   5.953   3.533   6.476  0.5487  0.5031 -0.1215
31017SOL    HW193629   6.023   3.595   6.456  0.9225 -0.7769 -3.2290
31017SOL    HW293630   5.874   3.571   6.436  0.0184  0.5660  0.9303
31018SOL     OW93631   4.149   7.805   0.320 -0.2580  0.4817  0.1406
31018SOL    HW193632   4.137   7.899   0.330 -0.5964  0.6403 -1.5017
31018SOL    HW293633   4.152   7.791   0.225  0.4628 -1.0804  0.3595
31019SOL     OW93634   5.511   8.793   8.852  0.1145  0.4731 -0.1966
31019SOL    HW193635   5.506   8.811   8.758  1.9698  0.1736 -0.4043
31019SOL    HW293636   5.538   8.876   8.891  0.6814  0.2544 -0.1137
31020SOL     OW93637   0.695   3.353   3.677 -0.5124  0.2559 -0.2337
31020SOL    HW193638   0.665   3.263   3.666  2.7674 -1.1028  0.6006
31020SOL    HW293639   0.681   3.372   3.770  0.0590  0.0436 -0.0971
31021SOL     OW93640   0.451   8.508   5.876  0.4282  0.1428  0.6575
31021SOL    HW193641   0.475   8.419   5.849 -0.1359 -0.1221  1.0047
31021SOL    HW293642   0.371   8.526   5.825  0.7552  0.5984  0.3044
31022SOL     OW93643   3.121   6.817   8.506  0.3995 -0.0376  0.4714
31022SOL    HW193644   3.121   6.732   8.550  0.5501 -0.0564  0.4360
31022SOL    HW293645   3.029   6.833   8.485  0.4202 -0.4014  0.0764
31023SOL     OW93646   1.110   0.293   9.643  0.1724 -0.5912 -0.5038
31023SOL    HW193647   1.025   0.325   9.612  0.8775  1.7645 -0.1641
31023SOL    HW293648   1.096   0.273   9.735  0.2354  0.8843 -0.1565
31024SOL     OW93649   1.141   8.983   6.429 -0.2425  0.1730  0.0576
31024SOL    HW193650   1.165   8.901   6.472 -2.0012  0.5400  1.8545
31024SOL    HW293651   1.201   9.048   6.466  0.3293 -0.0588 -0.4417
31025SOL     OW93652   9.111   1.145   7.705 -0.9448  0.4257 -0.0073
31025SOL    HW193653   9.121   1.163   7.611 -0.1496  3.3788  0.5723
31025SOL    HW293654   9.120   1.050   7.711  0.0060  0.2312 -2.7996
31026SOL     OW93655   4.088   9.708   7.082 -0.2716 -0.4535 -0.2487
31026SOL    HW193656   4.134   9.764   7.019 -0.3773  0.0214  0.0883
31026SOL    HW293657   4.094   9.620   7.045 -2.3199  0.1045 -2.1242
31027SOL     OW93658   7.841   8.533   0.768 -0.3457  0.2624 -0.1703
31027SOL    HW193659   7.845   8.546   0.863  0.7301  0.0246 -0.1721
31027SOL    HW293660   7.749   8.548   0.746 -0.2885  2.0949  0.6441
31028SOL     OW93661   6.405   6.682   7.655  0.2551  0.1773  0.2067
31028SOL    HW193662   6.423   6.657   7.746  0.2287  0.8101  0.3917
31028SOL    HW293663   6.406   6.600   7.607 -1.5714 -0.4144  1.0833
31029SOL     OW93664   4.458   3.917   3.144  0.5874 -0.4153 -0.6088
31029SOL    HW193665   4.411   3.835   3.162  0.7948  0.0436  2.7144
31029SOL    HW293666   4.397   3.986   3.169  1.8500  0.2652  0.7534
31030SOL     OW93667   1.516   4.097   8.779  0.3761 -0.1007 -0.0246
31030SOL    HW193668   1.497   4.046   8.857 -0.8214 -2.6957 -1.8619
31030SOL    HW293669   1.582   4.046   8.732  0.0451  0.6614 -1.3816
31031SOL     OW93670   5.922   3.979   7.850  0.0268 -0.1158 -0.1374
31031SOL    HW193671   5.893   4.022   7.931 -0.3252  2.1513 -1.4020
31031SOL    HW293672   5.841   3.953   7.807  0.2071 -1.0506  0.0603
31032SOL     OW93673   1.464   2.829   7.120 -0.2570 -0.0880  0.3683
31032SOL    HW193674   1.529   2.764   7.146 -1.3755 -1.4480 -0.1402
31032SOL    HW293675   1.421   2.791   7.044 -0.4315  1.6007 -0.4445
31033SOL     OW93676   6.638   4.071   8.369 -0.0386 -0.2403  0.0710
31033SOL    HW193677   6.665   4.149   8.320 -3.2104 -0.5188 -2.4760
31033SOL    HW293678   6.697   4.002   8.339  1.6537  0.7267  1.0094
31034SOL     OW93679   1.661   7.917   4.447  0.0641 -0.2626  0.3867
31034SOL    HW193680   1.615   7.997   4.421  0.7632  0.7454  2.0209
31034SOL    HW293681   1.601   7.846   4.425 -1.4154  0.8590  0.6045
31035SOL     OW93682   7.670   9.313   3.907 -0.0141 -0.3490 -0.0267
31035SOL    HW193683   7.755   9.286   3.941 -0.3359 -1.3664  0.0147
31035SOL    HW293684   7.642   9.384   3.965 -0.0693 -1.3348  1.1969
31036SOL     OW93685   6.227   6.405   5.975 -0.2893  0.1805 -0.0286
31036SOL    HW193686   6.303   6.405   5.917  1.1722 -1.2605  1.7598
31036SOL    HW293687   6.188   6.318   5.964 -0.6953  0.3164  0.2826
31037SOL     OW93688   9.209   9.939   6.080 -0.0807  0.1850  0.4004
31037SOL    HW193689   9.142   9.983   6.027  0.2992 -0.6018 -0.7594
31037SOL    HW293690   9.163   9.916   6.161 -1.0146  0.3096 -0.0765
31038SOL     OW93691   5.449   6.726   5.445  0.3022  0.1149  0.0403
31038SOL    HW193692   5.389   6.751   5.515  0.4194  3.3090 -0.8542
31038SOL    HW293693   5.531   6.771   5.466  0.2930  1.3045 -2.1722
31039SOL     OW93694   4.116   1.943   9.668  0.3258 -0.6260 -0.0129
31039SOL    HW193695   4.096   1.943   9.574  0.7761 -1.7280 -0.1235
31039SOL    HW293696   4.199   1.991   9.674  0.8528 -1.4800 -0.3191
31040SOL     OW93697   1.670   4.879   0.888  0.3110  0.2866  0.0189
31040SOL    HW193698   1.738   4.925   0.838  0.5263 -0.7539 -0.6759
31040SOL    HW293699   1.685   4.787   0.870 -0.6049 -0.0231  0.7578
31041SOL     OW93700   5.854   8.731   8.151  0.0164  0.2026  0.4060
31041SOL    HW193701   5.875   8.741   8.058  2.5843  1.2338  1.0049
31041SOL    HW293702   5.806   8.811   8.174  2.1357  1.4784  0.5951
31042SOL     OW93703   5.985   5.039   9.022  0.7478  0.6070  0.5391
31042SOL    HW193704   5.943   5.096   8.956 -1.1491 -1.7764 -0.4702
31042SOL    HW293705   5.984   5.091   9.102  0.4366  2.5344 -0.6488
31043SOL     OW93706   6.142   4.682   2.552  0.5158 -0.8502  0.1857
31043SOL    HW193707   6.143   4.588   2.572 -1.6709 -1.0581 -0.3590
31043SOL    HW293708   6.093   4.688   2.470 -1.3288  0.9184  1.3192
31044SOL     OW93709   0.596   0.366   4.974 -0.8339  0.1092  0.5647
31044SOL    HW193710   0.636   0.377   5.060  0.3254 -1.4832  0.2784
31044SOL    HW293711   0.567   0.275   4.972  1.0463 -0.5316 -1.4424
31045SOL     OW93712   7.939   0.498   1.541 -0.3274 -0.0855  0.5828
31045SOL    HW193713   7.986   0.468   1.619 -2.8025 -3.3019  1.0199
31045SOL    HW293714   7.877   0.428   1.521 -1.8204  1.9035 -2.6021
31046SOL     OW93715   8.416   3.531   4.014  0.5581 -0.0117 -0.4850
31046SOL    HW193716   8.435   3.557   4.104 -1.5322 -0.1397  0.0447
31046SOL    HW293717   8.443   3.439   4.009  0.3391 -0.1146  0.1390
31047SOL     OW93718   4.138   0.527   8.459 -0.2168  0.2157 -0.2326
31047SOL    HW193719   4.077   0.453   8.457 -0.1613  0.1950 -1.4045
31047SOL    HW293720   4.145   0.555   8.368  0.6378  0.9527  0.0498
31048SOL     OW93721   5.040   7.794   8.837  0.2461 -0.5511  0.7212
31048SOL    HW193722   5.114   7.836   8.793  0.0930 -0.9828  0.0284
31048SOL    HW293723   4.966   7.854   8.822  0.3869 -0.2561  1.1761
31049SOL     OW93724   9.753   6.943   6.631  0.1106  0.3509  0.0515
31049SOL    HW193725   9.745   6.850   6.611 -1.0100 -0.2533  2.8723
31049SOL    HW293726   9.820   6.975   6.569 -0.6421 -1.8965 -2.0861
31050SOL     OW93727   7.702   2.463   9.517  0.3472  0.2385 -0.8170
31050SOL    HW193728   7.658   2.462   9.602  2.3431  0.8917  0.2965
31050SOL    HW293729   7.726   2.372   9.501 -0.5700  0.0175 -1.0072
31051SOL     OW93730   5.830   1.926   6.554 -0.3063 -0.2509  0.3588
31051SOL    HW193731   5.752   1.938   6.607  0.0193  1.8188  0.4539
31051SOL    HW293732   5.878   2.009   6.563 -0.4984  0.4496 -3.5855
31052SOL     OW93733   5.151   5.138   7.710  0.2720 -0.5002  0.3497
31052SOL    HW193734   5.114   5.108   7.627  2.0865 -1.9843  0.0190
31052SOL    HW293735   5.075   5.158   7.764 -0.9854  1.1516 -1.8457
31053SOL     OW93736   9.285   2.994   7.309 -0.0180  0.5062  0.3585
31053SOL    HW193737   9.344   2.922   7.286 -0.0130  0.5598  0.2009
31053SOL    HW293738   9.281   3.048   7.230 -0.7696  0.1624  0.1460
31054SOL     OW93739   0.057   0.773   0.061 -0.4096  0.3397  0.1752
31054SOL    HW193740   0.029   0.709  -0.004  0.2283  0.3892 -0.1646
31054SOL    HW293741   0.024   0.857   0.028  0.0048  0.3795 -0.1514
31055SOL     OW93742   3.538   8.895   6.877 -0.3606  0.0702  0.5667
31055SOL    HW193743   3.575   8.941   6.802 -0.4758  1.0885  1.1148
31055SOL    HW293744   3.452   8.865   6.847 -0.2468  0.1348  0.1716
31056SOL     OW93745   0.408   6.241   4.205 -0.7823 -0.9764  0.1130
31056SOL    HW193746   0.382   6.331   4.220  1.1753 -0.5994  1.5731
31056SOL    HW293747   0.381   6.194   4.284  0.1720 -1.1697  0.3484
31057SOL     OW93748   8.416   5.176   6.069  0.7539  0.3881 -0.0090
31057SOL    HW193749   8.487   5.152   6.130  1.1736 -0.3976 -0.7860
31057SOL    HW293750   8.461   5.199   5.988  0.0891 -1.2683 -0.8914
31058SOL     OW93751   7.061   1.010   8.950  0.7695 -0.5207  0.1321
31058SOL    HW193752   7.050   1.039   8.859  2.1563  0.4602  0.2482
31058SOL    HW293753   7.011   1.074   9.001  0.1799 -0.9402  0.0999
31059SOL     OW93754   7.293   1.616   3.107  0.1603 -0.2090  0.5144
31059SOL    HW193755   7.350   1.569   3.167  0.4675 -1.8250 -0.9654
31059SOL    HW293756   7.290   1.562   3.029 -0.9731  1.3553 -0.6009
31060SOL     OW93757   4.272   5.143   2.417  0.5617  0.4393 -0.1084
31060SOL    HW193758   4.326   5.203   2.469  3.1933 -1.7720 -0.0827
31060SOL    HW293759   4.309   5.056   2.434 -2.3736 -1.1155 -1.0008
31061SOL     OW93760   6.606   3.797   4.575  0.3020  0.0111  0.0644
31061SOL    HW193761   6.511   3.793   4.589  0.1934  1.0752 -0.3039
31061SOL    HW293762   6.640   3.721   4.623 -0.6321  0.2318  1.1320
31062SOL     OW93763   0.365   4.671   0.892  0.5299  0.3895  0.0518
31062SOL    HW193764   0.339   4.697   0.980  0.4091 -0.2970  0.2295
31062SOL    HW293765   0.397   4.751   0.851 -1.0403  1.0900  0.1224
31063SOL     OW93766   7.653   9.753   3.350  0.2172  0.1351  0.3601
31063SOL    HW193767   7.629   9.818   3.284  0.9281  2.2022  2.0410
31063SOL    HW293768   7.676   9.675   3.299  0.1229  1.4235 -1.7798
31064SOL     OW93769   7.606   7.324   3.736  0.1437  0.2309  0.2095
31064SOL    HW193770   7.511   7.332   3.727  0.2561 -0.1212 -1.7153
31064SOL    HW293771   7.617   7.267   3.812 -1.2821 -1.5584 -0.8386
31065SOL     OW93772   4.011   9.526   8.483  0.3409 -0.1047  0.1582
31065SOL    HW193773   4.058   9.496   8.406 -0.3651  0.2213 -0.4097
31065SOL    HW293774   3.941   9.461   8.496 -0.5642  0.7108 -0.4746
31066SOL     OW93775   2.395   2.832   6.715 -0.3830  0.2530 -0.2408
31066SOL    HW193776   2.358   2.745   6.734  2.4057 -0.5302  2.4730
31066SOL    HW293777   2.460   2.815   6.647  1.2136 -0.1704  1.3235
31067SOL     OW93778   5.619   7.143   6.583  0.1938  0.2195  0.3203
31067SOL    HW193779   5.601   7.131   6.490 -0.9102  0.0980  0.5367
31067SOL    HW293780   5.674   7.068   6.607 -1.0413 -0.7549  0.1698
31068SOL     OW93781   1.315   6.513   6.627 -0.4465  0.0446  0.6850
31068SOL    HW193782   1.350   6.490   6.541  1.8239  0.1896  1.4904
31068SOL    HW293783   1.265   6.437   6.655  1.3747 -1.2944  0.4921
31069SOL     OW93784   8.289   6.415   2.210  0.4987 -0.0378  0.6945
31069SOL    HW193785   8.202   6.418   2.170  0.6191  0.3637  0.4465
31069SOL    HW293786   8.294   6.329   2.252  0.7543 -0.9241 -1.0508
31070SOL     OW93787   5.194   8.425   6.295  0.4368 -0.6050 -0.3446
31070SOL    HW193788   5.219   8.506   6.340 -0.3056 -0.9740  0.8056
31070SOL    HW293789   5.245   8.425   6.214 -0.1947  1.4443 -0.8095
31071SOL     OW93790   3.704   8.120   2.866  0.5784 -0.3661  0.0328
31071SOL    HW193791   3.718   8.054   2.798 -0.0980  0.3126 -0.7746
31071SOL    HW293792   3.762   8.192   2.843 -0.3781  0.2789 -0.3951
31072SOL     OW93793   5.589   9.717   0.394  0.6340 -0.1958 -0.0625
31072SOL    HW193794   5.664   9.662   0.371 -0.6485 -1.4697 -1.3509
31072SOL    HW293795   5.516   9.657   0.403 -0.3073  1.0440  0.9814
31073SOL     OW93796   5.726   0.847   9.213 -0.1481  0.1846 -0.2375
31073SOL    HW193797   5.648   0.794   9.198  0.0948 -0.0132 -0.8465
31073SOL    HW293798   5.695   0.924   9.259 -1.1163  1.2447 -2.5002
31074SOL     OW93799   4.570   7.268   0.390 -0.0228 -0.5328 -0.3033
31074SOL    HW193800   4.577   7.331   0.318 -1.6103  1.3364  1.0856
31074SOL    HW293801   4.659   7.263   0.426 -0.2066  2.5506  0.8230
31075SOL     OW93802   2.166   2.967   2.641  0.8654  0.5567  0.0212
31075SOL    HW193803   2.168   2.908   2.566  1.2586 -0.3421  0.7097
31075SOL    HW293804   2.228   3.037   2.618 -1.4565  2.1254 -1.8764
31076SOL     OW93805   1.441   8.793   6.100 -0.2983  0.3108  0.0748
31076SOL    HW193806   1.447   8.764   6.009  2.3072  0.3696  0.1444
31076SOL    HW293807   1.386   8.728   6.143 -0.8864 -0.1758 -1.3583
31077SOL     OW93808   6.710   3.618   6.559  0.4297 -0.3056 -0.3383
31077SOL    HW193809   6.638   3.609   6.495 -0.2469 -2.6659  0.6676
31077SOL    HW293810   6.671   3.593   6.643  1.9016  0.4889  0.6276
31078SOL     OW93811   2.213   2.714   3.767 -1.0414 -0.1436  0.2133
31078SOL    HW193812   2.240   2.624   3.786  0.9062  0.3774  0.1614
31078SOL    HW293813   2.154   2.737   3.839 -0.7110 -1.1085  0.8098
31079SOL     OW93814   3.101   1.310   7.590  0.2065  0.2662  0.0622
31079SOL    HW193815   3.040   1.238   7.603  0.7798 -0.4061 -0.8390
31079SOL    HW293816   3.068   1.356   7.512 -0.3680  1.2210  0.8449
31080SOL     OW93817   9.422   3.697   4.030  0.4912  0.0040 -0.4619
31080SOL    HW193818   9.449   3.614   4.069  0.9654 -0.7551 -2.3029
31080SOL    HW293819   9.497   3.755   4.041  1.9538 -1.2104 -2.9868
31081SOL     OW93820   2.612   1.826   8.171 -0.6051 -0.2679 -0.6433
31081SOL    HW193821   2.642   1.902   8.121  0.3909  0.3478  0.8184
31081SOL    HW293822   2.631   1.849   8.262 -1.6457 -1.6706 -0.0424
31082SOL     OW93823   9.066   1.722   4.094 -0.4885 -0.6515 -0.2924
31082SOL    HW193824   9.038   1.641   4.138  0.2505 -0.8064 -0.0974
31082SOL    HW293825   9.090   1.694   4.006 -0.1907 -0.6575 -0.2115
31083SOL     OW93826   6.463   2.444   3.176 -0.0252 -0.0118 -0.2347
31083SOL    HW193827   6.427   2.422   3.090  1.6361 -0.2360 -0.8950
31083SOL    HW293828   6.416   2.524   3.200 -1.4944 -0.6898 -0.7093
31084SOL     OW93829   4.922   3.169   3.233  0.1432  0.0140  0.2565
31084SOL    HW193830   4.838   3.174   3.280  0.1276  1.9517  0.1204
31084SOL    HW293831   4.909   3.100   3.168 -1.4879  0.4836  0.0278
31085SOL     OW93832   1.414   8.818   0.225 -0.1541 -0.2027  0.2164
31085SOL    HW193833   1.494   8.845   0.270 -0.6879  0.9505  0.5127
31085SOL    HW293834   1.439   8.816   0.132  0.6308 -1.4260  0.4336
31086SOL     OW93835   6.264   6.512   3.276 -0.7088 -0.2608  0.0716
31086SOL    HW193836   6.209   6.569   3.222  0.4142  0.6025 -0.2052
31086SOL    HW293837   6.209   6.489   3.351 -2.1678 -1.1484 -1.2014
31087SOL     OW93838   9.735   7.074   2.701  0.3178 -0.3247 -0.2691
31087SOL    HW193839   9.802   7.092   2.635  1.1934 -2.6312 -0.1257
31087SOL    HW293840   9.712   6.982   2.686 -0.9714 -0.2994  1.3351
31088SOL     OW93841   4.665   8.527   0.334  0.2561 -0.1486  0.2522
31088SOL    HW193842   4.647   8.486   0.249  3.3453  0.0248 -0.5866
31088SOL    HW293843   4.678   8.453   0.394 -0.7598 -0.2762  0.3347
31089SOL     OW93844   3.061   7.803   2.712  0.3543 -0.2266 -0.3788
31089SOL    HW193845   3.140   7.810   2.659  1.0830 -0.8879  0.5864
31089SOL    HW293846   3.011   7.733   2.671  0.2542  0.1801 -0.9792
31090SOL     OW93847   3.419   8.324   2.381  0.2173 -0.1532 -0.6392
31090SOL    HW193848   3.512   8.329   2.406 -0.0279 -1.9358  0.8317
31090SOL    HW293849   3.374   8.300   2.462 -1.6313  1.2530 -1.1910
31091SOL     OW93850   2.829   4.855   5.983 -0.3299  0.0457  0.3146
31091SOL    HW193851   2.764   4.919   6.012 -0.2319  0.5117 -0.4558
31091SOL    HW293852   2.866   4.893   5.903  0.6081 -0.3943  0.5211
31092SOL     OW93853   5.009   0.500   6.480 -0.5528 -0.4394 -0.2662
31092SOL    HW193854   5.033   0.567   6.416  0.2718  0.2193  0.6834
31092SOL    HW293855   4.976   0.550   6.555 -0.6721 -1.1410  0.1589
31093SOL     OW93856   2.710   9.734   8.407  0.2250  0.0847 -0.7018
31093SOL    HW193857   2.712   9.743   8.502  2.1172  1.6276 -0.8222
31093SOL    HW293858   2.735   9.643   8.391 -2.0591 -0.7781  0.2647
31094SOL     OW93859   6.839   9.195   4.488  0.4137  0.2670  0.4644
31094SOL    HW193860   6.805   9.189   4.399  0.5269 -0.8356  0.4781
31094SOL    HW293861   6.933   9.180   4.478  0.3561 -0.3631  0.8135
31095SOL     OW93862   7.402   1.597   8.781  0.2454 -0.2069 -0.5800
31095SOL    HW193863   7.377   1.559   8.697 -1.1090 -0.7348  0.0334
31095SOL    HW293864   7.358   1.543   8.846  0.3826  0.8457  0.4251
31096SOL     OW93865   2.341   5.416   4.587  0.4389 -0.1271 -0.3432
31096SOL    HW193866   2.284   5.344   4.559 -1.7610  0.4530  2.2008
31096SOL    HW293867   2.408   5.375   4.642  0.2589 -0.4247 -0.3490
31097SOL     OW93868   0.397   4.993   0.089 -0.0473 -0.0036  0.1032
31097SOL    HW193869   0.400   5.079   0.130  1.6130  0.0508 -0.0495
31097SOL    HW293870   0.316   4.953   0.121  0.2127  0.7943  1.8731
31098SOL     OW93871   5.623   5.401   6.858  0.0203 -0.6437  0.5186
31098SOL    HW193872   5.575   5.459   6.798  1.9624  0.3453 -0.1649
31098SOL    HW293873   5.657   5.459   6.925  0.4697 -1.2774  0.8480
31099SOL     OW93874   5.085   3.031   4.480  0.4000  0.7954  0.0447
31099SOL    HW193875   5.105   3.117   4.518  1.7453 -0.0661  1.4232
31099SOL    HW293876   5.039   2.984   4.550  0.3356  0.1528 -0.4193
31100SOL     OW93877   3.899   1.537   6.301  0.5338  0.1671  0.0033
31100SOL    HW193878   3.991   1.541   6.275  0.6047  0.5884  0.3152
31100SOL    HW293879   3.860   1.472   6.242  0.7698  0.8610 -0.9287
31101SOL     OW93880   7.213   9.851   1.048 -0.4798 -0.0905 -0.8256
31101SOL    HW193881   7.222   9.762   1.082 -2.8318 -0.4632 -0.9644
31101SOL    HW293882   7.262   9.851   0.966  2.5297 -0.1373  0.8523
31102SOL     OW93883   7.384   1.790   9.903  0.8498 -0.1897  0.2466
31102SOL    HW193884   7.305   1.777   9.955  1.2512 -0.8385  0.7086
31102SOL    HW293885   7.452   1.810   9.967  0.8748  1.3660 -0.2241
31103SOL     OW93886   8.076   2.885   9.625  0.1695  0.0200 -0.1177
31103SOL    HW193887   8.138   2.817   9.649  1.5057  1.5356  0.9799
31103SOL    HW293888   8.103   2.962   9.676  0.1614  2.0544 -2.9406
31104SOL     OW93889   9.841   6.784   3.622 -0.1186  0.2625 -0.4166
31104SOL    HW193890   9.875   6.700   3.651  1.7657  1.0091 -0.3219
31104SOL    HW293891   9.755   6.791   3.663  0.0005 -1.2841  0.1539
31105SOL     OW93892   4.178   1.640   2.823  0.1538  0.3610  0.5822
31105SOL    HW193893   4.180   1.551   2.858  0.0593  0.5959  1.2068
31105SOL    HW293894   4.136   1.692   2.892  1.0185  1.0494  0.6075
31106SOL     OW93895   5.414   3.650   5.945  0.0004 -0.2308  0.1219
31106SOL    HW193896   5.362   3.701   6.007  0.6797  0.9850 -0.2676
31106SOL    HW293897   5.362   3.649   5.864 -0.3144 -0.7490  0.3223
31107SOL     OW93898   8.344   5.307   1.388 -0.2343 -0.0013 -0.9322
31107SOL    HW193899   8.402   5.232   1.374 -0.1525  0.2926 -2.4049
31107SOL    HW293900   8.399   5.383   1.368 -1.1288  0.2745 -2.5489
31108SOL     OW93901   0.235   3.863   9.147  0.0189 -0.1623  0.8208
31108SOL    HW193902   0.307   3.813   9.108 -0.5295 -0.6496  0.4284
31108SOL    HW293903   0.170   3.871   9.077  0.1046  1.1465  0.8517
31109SOL     OW93904   7.853   6.781   7.408  0.4147  0.2410  0.0818
31109SOL    HW193905   7.804   6.745   7.482  0.1944 -0.0654 -0.2117
31109SOL    HW293906   7.828   6.727   7.333  2.0484 -0.6634  0.1277
31110SOL     OW93907   0.858   3.031   2.705  0.0349  0.0876 -0.2458
31110SOL    HW193908   0.787   3.067   2.758  0.3234 -1.2949  1.1675
31110SOL    HW293909   0.932   3.025   2.766  1.8284  2.6652 -1.9701
31111SOL     OW93910   4.371   2.865   7.214 -0.3281  0.1748  0.1487
31111SOL    HW193911   4.453   2.913   7.199  0.3788 -0.8840  0.4349
31111SOL    HW293912   4.332   2.857   7.127 -0.4129  1.1739  0.0858
31112SOL     OW93913   0.758   5.701   3.841  0.4391 -0.0555 -0.6312
31112SOL    HW193914   0.671   5.729   3.871  0.7008  0.2361 -0.1284
31112SOL    HW293915   0.763   5.609   3.865  0.9935  0.3858  1.1015
31113SOL     OW93916   4.716   0.184   1.802 -0.2814 -0.1130 -0.6943
31113SOL    HW193917   4.756   0.268   1.779  1.1405 -0.6147 -0.1961
31113SOL    HW293918   4.680   0.151   1.719  0.0742  0.5051 -1.1059
31114SOL     OW93919   3.742   6.628   4.938 -0.2799 -0.0964  0.1301
31114SOL    HW193920   3.799   6.551   4.948  0.9133  0.8694  1.0778
31114SOL    HW293921   3.693   6.632   5.020 -1.2406 -0.5216 -0.4091
31115SOL     OW93922   0.958   7.139   1.778 -0.1697 -0.3732  0.4833
31115SOL    HW193923   0.888   7.202   1.762 -1.0668 -1.2531  0.8409
31115SOL    HW293924   0.913   7.060   1.808  0.8179 -1.5432 -0.9362
31116SOL     OW93925   2.570   4.101   6.365  0.7149  0.3060 -0.5861
31116SOL    HW193926   2.485   4.108   6.409  1.0742 -0.1502  0.1887
31116SOL    HW293927   2.548   4.073   6.276  0.0937 -0.3557 -0.2338
31117SOL     OW93928   0.841   8.527   2.390 -0.4313 -0.1864 -0.3960
31117SOL    HW193929   0.817   8.472   2.465  1.8626  1.1965  1.4884
31117SOL    HW293930   0.882   8.466   2.328  1.2309 -0.8514  1.2420
31118SOL     OW93931   4.034   0.723   7.796 -0.6348 -0.1006  1.0310
31118SOL    HW193932   4.082   0.659   7.744  1.7726  1.8992  0.6049
31118SOL    HW293933   4.058   0.703   7.886  2.2146  1.5639  0.7879
31119SOL     OW93934   0.604   2.671   1.943  0.0982 -0.4368  0.6641
31119SOL    HW193935   0.682   2.626   1.978  0.2852 -0.3881  0.3116
31119SOL    HW293936   0.542   2.600   1.926  0.7290 -0.6744 -0.7656
31120SOL     OW93937   0.690   0.446   4.186  0.1783  0.2454  0.2919
31120SOL    HW193938   0.696   0.396   4.105  0.2299 -0.6459  0.8342
31120SOL    HW293939   0.602   0.483   4.185 -0.4921 -1.3046  0.7068
31121SOL     OW93940   4.508   1.055   6.802 -0.1071  0.6867  0.0929
31121SOL    HW193941   4.521   0.979   6.858  1.4812  0.3016 -0.7191
31121SOL    HW293942   4.596   1.078   6.772 -0.6452  2.3470 -0.3428
31122SOL     OW93943   2.073   9.919   6.466  0.1225 -0.0498 -0.0362
31122SOL    HW193944   1.983   9.887   6.466  0.2265 -0.3681 -0.6825
31122SOL    HW293945   2.067  10.010   6.436  0.2122 -0.7506 -2.3803
31123SOL     OW93946   0.887   6.060  -0.027  0.7669 -0.0200  0.3727
31123SOL    HW193947   0.799   6.044   0.006  0.6756 -0.3575 -0.0219
31123SOL    HW293948   0.945   6.031   0.043  0.5555  2.0330  1.4429
31124SOL     OW93949   0.572   2.164   3.163  0.4413 -0.2239  0.1271
31124SOL    HW193950   0.506   2.201   3.222  0.0693  0.0347 -0.4451
31124SOL    HW293951   0.645   2.226   3.167  0.0283  0.3037 -0.4250
31125SOL     OW93952   8.224   0.811   7.201 -0.3313  0.6418 -0.6978
31125SOL    HW193953   8.276   0.858   7.137  2.1481 -0.2509  0.5250
31125SOL    HW293954   8.243   0.719   7.184 -0.3784  0.3564  0.6904
31126SOL     OW93955   9.213   0.279   3.700 -0.1057 -0.6869 -0.3101
31126SOL    HW193956   9.180   0.367   3.716 -1.6126 -1.4921  1.5412
31126SOL    HW293957   9.307   0.290   3.685 -0.3629  1.2585 -0.7217
31127SOL     OW93958   5.784   0.119   8.723 -0.3275 -0.0254 -0.1135
31127SOL    HW193959   5.737   0.200   8.706 -0.8214 -0.3383 -0.2405
31127SOL    HW293960   5.877   0.144   8.718 -0.4064  0.0041 -2.8831
31128SOL     OW93961   7.014   9.794   5.512 -0.1211 -0.6774 -0.2206
31128SOL    HW193962   6.953   9.763   5.578 -0.0333  0.1809  0.2714
31128SOL    HW293963   7.039   9.715   5.463 -0.3829 -1.2729  0.5981
31129SOL     OW93964   9.929   3.499   4.617 -0.0848  0.3957  0.1604
31129SOL    HW193965   9.855   3.473   4.563 -0.3075  0.9568  0.1823
31129SOL    HW293966   9.998   3.520   4.554 -0.0917  0.3067  0.1229
31130SOL     OW93967   9.852   8.915   5.689  0.1511 -0.0063  0.6932
31130SOL    HW193968   9.946   8.903   5.702 -0.1901 -2.1362  1.5857
31130SOL    HW293969   9.829   8.853   5.620 -0.5895  0.6170  0.3592
31131SOL     OW93970   3.066   1.448   1.443 -0.2614  0.2649 -0.1365
31131SOL    HW193971   3.084   1.400   1.524 -0.0137  1.1159  0.3238
31131SOL    HW293972   3.119   1.404   1.377  1.5689  1.1282  0.6790
31132SOL     OW93973   8.462   1.873   6.740  0.1813 -0.1312  0.4591
31132SOL    HW193974   8.555   1.876   6.763  0.1873 -1.4392  0.6611
31132SOL    HW293975   8.460   1.852   6.647  0.0904 -0.8023  0.6065
31133SOL     OW93976   7.911   9.933   3.205  0.2953 -0.2848 -0.3066
31133SOL    HW193977   7.924   9.856   3.150 -0.7902 -0.4476 -0.3542
31133SOL    HW293978   7.882  10.002   3.145 -2.0989 -0.7913  0.1625
31134SOL     OW93979   1.721   0.261   9.482 -0.2153  0.2279  0.1829
31134SOL    HW193980   1.675   0.319   9.543  0.1746  0.5128  0.2076
31134SOL    HW293981   1.791   0.315   9.446 -0.0977 -0.1101 -0.0956
31135SOL     OW93982   6.896   5.731   0.479 -0.0516  0.0044 -0.7913
31135SOL    HW193983   6.935   5.817   0.469  0.3946 -0.2201 -1.0131
31135SOL    HW293984   6.969   5.675   0.507  0.1002 -0.7113 -2.5323
31136SOL     OW93985   2.618   4.497   7.670  0.0720 -0.1430  0.2380
31136SOL    HW193986   2.568   4.535   7.597 -0.2270 -1.6262 -0.3625
31136SOL    HW293987   2.709   4.515   7.647 -0.0934  1.5043  0.7286
31137SOL     OW93988   8.695   2.827   1.210  0.5719 -0.2674 -0.5573
31137SOL    HW193989   8.664   2.741   1.239 -1.4316  0.1178 -1.4010
31137SOL    HW293990   8.762   2.807   1.145 -0.6858 -1.2670 -1.6153
31138SOL     OW93991   8.139   8.036   9.733  0.2216  0.6849 -0.3272
31138SOL    HW193992   8.227   8.032   9.694  0.3550  0.4471 -0.0092
31138SOL    HW293993   8.141   8.113   9.789 -0.0826  1.2279 -1.0457
31139SOL     OW93994   9.642   0.752   1.401 -0.5359  0.5445 -0.0278
31139SOL    HW193995   9.636   0.746   1.496 -1.0100  0.4528 -0.0639
31139SOL    HW293996   9.680   0.839   1.385  0.4260  0.1895  0.2724
31140SOL     OW93997   3.696   2.131   6.660 -0.3657 -0.2338  0.6280
31140SOL    HW193998   3.706   2.210   6.606 -0.0432 -0.2088  0.7200
31140SOL    HW293999   3.634   2.077   6.612 -0.8267  0.2111  0.7183
31141SOL     OW94000   8.444   3.910   1.026  0.1494 -0.4530 -0.4591
31141SOL    HW194001   8.475   3.905   0.935 -0.7191 -0.1260 -0.7799
31141SOL    HW294002   8.349   3.901   1.019  0.0358  0.0557  0.3778
31142SOL     OW94003   1.702   5.948   1.094 -0.0097  0.2689 -0.5501
31142SOL    HW194004   1.620   5.912   1.129  0.1163  1.3528  0.9217
31142SOL    HW294005   1.674   5.999   1.018 -0.7573  0.9150  0.1416
31143SOL     OW94006   1.935   8.314   8.516  0.2731 -0.3084 -0.0703
31143SOL    HW194007   1.959   8.246   8.579  0.3126 -0.2580 -0.0309
31143SOL    HW294008   1.849   8.288   8.485  1.0575 -1.3730 -1.4367
31144SOL     OW94009   1.447   5.712   9.704  0.7782  0.3967 -0.2520
31144SOL    HW194010   1.496   5.633   9.682  0.8261  0.3632 -0.0262
31144SOL    HW294011   1.498   5.753   9.774 -0.7072 -0.8436  1.6340
31145SOL     OW94012   0.053   2.275   5.603 -0.1597 -0.0566 -0.2833
31145SOL    HW194013   0.129   2.243   5.555 -0.4818 -1.4139  0.0829
31145SOL    HW294014   0.009   2.196   5.635 -1.1539  0.7399  0.3878
31146SOL     OW94015   0.057   3.569   0.108  0.2622 -0.8320  0.0477
31146SOL    HW194016   0.005   3.502   0.063  2.8763 -1.6327 -2.0498
31146SOL    HW294017   0.025   3.652   0.073 -0.5587 -1.1842 -0.0761
31147SOL     OW94018   6.476   0.856   3.875 -0.2147 -0.4110 -0.0271
31147SOL    HW194019   6.563   0.830   3.845 -0.1688  0.2404 -0.4729
31147SOL    HW294020   6.424   0.866   3.795  0.0913  1.9890  0.0077
31148SOL     OW94021   2.084   0.497   8.475  0.0639 -0.0323 -0.5028
31148SOL    HW194022   2.073   0.548   8.555  3.5909  1.7309 -0.9655
31148SOL    HW294023   2.108   0.561   8.409 -0.0132 -1.7908 -2.3270
31149SOL     OW94024   7.111   2.970   0.248 -0.3901 -0.0194 -0.3822
31149SOL    HW194025   7.159   2.887   0.248 -2.8206 -1.5247  0.4627
31149SOL    HW294026   7.151   3.021   0.177  2.0211 -1.3561 -0.0836
31150SOL     OW94027   1.788   8.156   9.935 -0.1068 -0.0393  0.2457
31150SOL    HW194028   1.711   8.205   9.965 -0.1719 -0.5408  0.8995
31150SOL    HW294029   1.759   8.115   9.853 -1.2489 -1.9241  1.5092
31151SOL     OW94030   2.356   4.795   0.459 -0.5654  0.3044  0.6419
31151SOL    HW194031   2.378   4.796   0.552  0.5274 -0.2819  0.4023
31151SOL    HW294032   2.440   4.795   0.414 -0.9977 -2.1946 -0.3166
31152SOL     OW94033   6.951   4.207   8.524 -0.4553 -0.2016  0.3365
31152SOL    HW194034   6.881   4.198   8.459  0.2884  0.3853 -0.5580
31152SOL    HW294035   7.015   4.140   8.499  0.5979  1.0915 -0.5538
31153SOL     OW94036   0.706   0.200   8.143  0.2151 -0.1830 -0.3156
31153SOL    HW194037   0.734   0.109   8.134  1.9307  0.2167  0.4999
31153SOL    HW294038   0.692   0.211   8.237  0.6932  0.5668 -0.3250
31154SOL     OW94039   6.107   8.035   9.904 -0.7681 -0.7147  0.3025
31154SOL    HW194040   6.032   7.977   9.917 -1.7073  0.7998  1.9514
31154SOL    HW294041   6.092   8.108   9.963  0.6022  1.0456 -1.4084
31155SOL     OW94042   9.311   3.775   2.587 -0.4023 -0.2273 -0.0875
31155SOL    HW194043   9.396   3.741   2.558 -0.1479  1.6981 -1.8601
31155SOL    HW294044   9.275   3.706   2.642  1.8575 -1.5271 -0.1163
31156SOL     OW94045   5.885   8.973   1.147 -0.4158  0.2673  1.1882
31156SOL    HW194046   5.966   8.922   1.153 -0.4880 -0.0269 -0.0790
31156SOL    HW294047   5.913   9.064   1.151 -0.0053  0.1691  0.5477
31157SOL     OW94048   1.214   1.916   3.603 -0.0715 -0.8185  0.3922
31157SOL    HW194049   1.202   2.008   3.628  0.6799 -0.8419  0.8950
31157SOL    HW294050   1.153   1.902   3.531  1.6444  0.8208 -1.4946
31158SOL     OW94051   2.560   0.154   3.197  0.9043 -0.1900 -0.0674
31158SOL    HW194052   2.544   0.228   3.138 -0.5059 -0.0917  0.4071
31158SOL    HW294053   2.610   0.192   3.269 -0.4711  0.5213  0.5620
31159SOL     OW94054   6.739   5.038   3.210  0.0265  0.5244 -0.3438
31159SOL    HW194055   6.685   5.073   3.139 -1.2922 -0.0439  0.3570
31159SOL    HW294056   6.718   5.093   3.286 -1.3405 -1.1038  0.5153
31160SOL     OW94057   8.765   1.875   5.829 -0.5073 -0.3746  0.0134
31160SOL    HW194058   8.850   1.918   5.837  0.3960 -2.1594  0.5752
31160SOL    HW294059   8.702   1.946   5.838  0.8030  0.5673  3.6438
31161SOL     OW94060   7.895   7.114   3.653  0.1794 -0.4029 -0.6155
31161SOL    HW194061   7.848   7.031   3.659 -2.6514  1.1754  2.6800
31161SOL    HW294062   7.941   7.123   3.737 -1.7768  2.3857  0.3181
31162SOL     OW94063   2.393   6.272   5.726  0.1490  0.2014  0.4955
31162SOL    HW194064   2.460   6.312   5.671 -1.4419 -0.2090 -1.8507
31162SOL    HW294065   2.416   6.179   5.728 -0.2732  0.0750 -0.2363
31163SOL     OW94066   7.516   7.495   4.834 -0.3100 -0.2830 -0.3218
31163SOL    HW194067   7.518   7.467   4.742 -2.1243 -0.9442 -0.1902
31163SOL    HW294068   7.428   7.528   4.848  0.2581  0.7892  0.9274
31164SOL     OW94069   6.766   9.591   7.199  0.2058 -0.1778 -0.1088
31164SOL    HW194070   6.738   9.625   7.284  0.4012  2.0963 -0.8928
31164SOL    HW294071   6.847   9.638   7.180  0.5507 -1.1821 -1.2632
31165SOL     OW94072   0.127   9.053   4.321 -0.2842  0.2476 -0.4370
31165SOL    HW194073   0.094   9.095   4.400  4.6868  2.9266  0.6445
31165SOL    HW294074   0.098   9.110   4.249 -2.3984 -0.5986 -0.3224
31166SOL     OW94075   0.877   9.000   6.815 -0.5224  0.0018  0.6469
31166SOL    HW194076   0.915   9.052   6.886 -0.8455  0.1127  0.7425
31166SOL    HW294077   0.893   8.909   6.840 -3.0172 -0.0994  2.2656
31167SOL     OW94078   5.972   2.106   8.622  0.1254 -0.0849 -0.5113
31167SOL    HW194079   5.944   2.170   8.688 -0.6271 -1.0667  0.1646
31167SOL    HW294080   5.893   2.088   8.571 -0.2122 -1.9078  0.5702
31168SOL     OW94081   3.049   5.139   1.567  0.0922  0.1775  0.1930
31168SOL    HW194082   2.970   5.101   1.531 -0.4606  0.6058  0.9204
31168SOL    HW294083   3.067   5.087   1.646  1.0201 -0.4563 -0.4155
31169SOL     OW94084   6.445   9.671   5.652 -0.1523  0.1060  0.1484
31169SOL    HW194085   6.470   9.617   5.728  0.2101 -1.9783 -1.3720
31169SOL    HW294086   6.510   9.649   5.585 -1.0369  1.1795 -1.1044
31170SOL     OW94087   0.574   7.466   7.570 -0.0605 -0.1631 -0.0365
31170SOL    HW194088   0.530   7.414   7.503  0.5690  0.7081 -1.1709
31170SOL    HW294089   0.652   7.415   7.593  0.8129  0.4253 -1.4971
31171SOL     OW94090   4.239   0.930   2.700  0.0548  0.1576  0.2684
31171SOL    HW194091   4.314   0.968   2.654 -0.0681 -0.1199 -0.1730
31171SOL    HW294092   4.269   0.844   2.729 -1.0013 -1.3115 -2.6172
31172SOL     OW94093   9.011   6.419   7.552 -0.4682  0.3770 -0.0152
31172SOL    HW194094   8.959   6.352   7.596  0.5998  0.1943  1.0130
31172SOL    HW294095   8.958   6.498   7.556 -0.1048  0.5527  2.2991
31173SOL     OW94096   5.628   1.425   1.051  0.1631 -0.1790 -0.5780
31173SOL    HW194097   5.636   1.422   0.956  0.4910 -1.5734 -0.5180
31173SOL    HW294098   5.691   1.493   1.078  1.4796 -1.1162 -1.2212
31174SOL     OW94099   4.914   3.537   8.061  0.3232 -0.2767  0.1572
31174SOL    HW194100   5.003   3.566   8.085 -0.2001  1.7714 -0.1443
31174SOL    HW294101   4.913   3.538   7.966 -0.8413  2.8069  0.0864
31175SOL     OW94102   9.804   8.197   6.891 -0.5295 -0.4041  0.1313
31175SOL    HW194103   9.798   8.177   6.798  1.3711  1.1437 -0.3931
31175SOL    HW294104   9.745   8.271   6.904  0.5011  0.5108 -0.2541
31176SOL     OW94105   2.686   8.169   4.651 -0.2772 -0.0825  0.0531
31176SOL    HW194106   2.600   8.211   4.642  0.3522  1.3316  0.4611
31176SOL    HW294107   2.748   8.241   4.657  0.8818 -1.0775  0.4913
31177SOL     OW94108   4.181   7.550   5.584 -0.4971 -0.0475  0.0577
31177SOL    HW194109   4.117   7.607   5.625  1.3376  1.5367  0.8894
31177SOL    HW294110   4.150   7.461   5.603 -0.7592  0.6117  3.3178
31178SOL     OW94111   6.949   5.548   6.573 -0.4075 -0.3291 -0.3854
31178SOL    HW194112   6.983   5.523   6.660 -1.8512 -2.1250 -0.2754
31178SOL    HW294113   6.877   5.608   6.592 -0.9974 -1.0491 -0.2828
31179SOL     OW94114   8.987   6.679   5.634 -0.7299 -0.0050 -0.1489
31179SOL    HW194115   9.070   6.717   5.664 -1.4497  0.3183  1.5609
31179SOL    HW294116   8.968   6.725   5.552 -0.2893  1.5214  0.5574
31180SOL     OW94117   6.833   4.950   6.702 -0.5139  0.0547  0.4957
31180SOL    HW194118   6.922   4.922   6.680 -0.4021  1.7173 -1.5698
31180SOL    HW294119   6.811   4.903   6.782  1.8469 -1.1460  0.5104
31181SOL     OW94120   1.220   8.304   2.346  0.2535 -0.0125 -0.5293
31181SOL    HW194121   1.193   8.395   2.332 -0.7613 -0.1332  0.4797
31181SOL    HW294122   1.182   8.256   2.272  0.7244  0.3608 -1.0222
31182SOL     OW94123   1.207   0.874   3.542  0.0146  0.0834 -0.3509
31182SOL    HW194124   1.273   0.888   3.474 -0.3216 -0.1889 -0.7383
31182SOL    HW294125   1.237   0.796   3.589 -1.1128 -1.3349 -1.8791
31183SOL     OW94126   4.575   2.521   2.528 -0.0768  0.0193 -0.2317
31183SOL    HW194127   4.554   2.585   2.595 -2.8926 -2.1096  1.1096
31183SOL    HW294128   4.491   2.493   2.493  1.2130 -0.1847 -3.5713
31184SOL     OW94129   0.164   8.523   9.372  0.1464  0.1236  1.1945
31184SOL    HW194130   0.215   8.450   9.338 -0.3802  0.4694 -0.3855
31184SOL    HW294131   0.094   8.482   9.422 -1.1897 -0.5731 -1.1146
31185SOL     OW94132   5.206   7.622   4.987 -0.2034  0.1289  0.2626
31185SOL    HW194133   5.206   7.666   5.072  3.1215  1.6269 -0.3385
31185SOL    HW294134   5.233   7.690   4.925 -1.4463 -1.1950 -1.8399
31186SOL     OW94135   7.800   9.256   7.448  0.4525 -0.3077 -0.4796
31186SOL    HW194136   7.868   9.191   7.430  1.2372  0.4167 -0.2302
31186SOL    HW294137   7.780   9.293   7.361  1.0855  0.1425 -0.4451
31187SOL     OW94138   0.678   2.941   9.575  0.2579  0.5507 -0.0678
31187SOL    HW194139   0.585   2.945   9.553  0.2950 -0.9915 -0.6699
31187SOL    HW294140   0.723   2.967   9.495  0.3426  0.2703 -0.1141
31188SOL     OW94141   0.885   3.885   4.936 -0.0891 -0.2388  0.4691
31188SOL    HW194142   0.970   3.914   4.969 -0.7917  1.6537  0.7265
31188SOL    HW294143   0.900   3.869   4.843  0.6519 -0.4080  0.6077
31189SOL     OW94144   2.540   5.411   4.101 -0.2902 -0.0284  0.2261
31189SOL    HW194145   2.621   5.450   4.068 -0.2466 -0.5202 -0.2670
31189SOL    HW294146   2.515   5.466   4.175 -0.4316  1.1601 -0.6741
31190SOL     OW94147   2.984   2.705   0.335  0.2066  0.2329  0.2219
31190SOL    HW194148   3.046   2.689   0.263  0.4035  1.4813  0.0932
31190SOL    HW294149   3.016   2.651   0.407  0.3666 -0.5627 -0.4297
31191SOL     OW94150   4.868   2.344   6.782 -0.3604 -0.0268  0.0165
31191SOL    HW194151   4.951   2.296   6.785 -0.7863 -0.7784 -0.0708
31191SOL    HW294152   4.878   2.405   6.709  0.1983  0.0602  0.1568
31192SOL     OW94153   7.062   6.624   3.570 -0.0107  0.2866  0.0793
31192SOL    HW194154   6.992   6.687   3.554 -0.0762  0.9725  2.6749
31192SOL    HW294155   7.134   6.653   3.513 -1.1481  0.6670 -1.2221
31193SOL     OW94156   6.656   4.361   2.353  0.2548 -0.4164 -0.2668
31193SOL    HW194157   6.603   4.430   2.393  1.3454 -0.4649  1.3631
31193SOL    HW294158   6.643   4.373   2.259  1.4227  2.8713 -0.1430
31194SOL     OW94159   2.418   6.695   9.772 -0.3342 -0.6090 -0.8561
31194SOL    HW194160   2.488   6.640   9.737  0.6417  1.8511 -3.1865
31194SOL    HW294161   2.352   6.697   9.703  1.2938  3.7788 -2.6578
31195SOL     OW94162   3.473   8.728   1.781 -0.3187 -0.0473 -0.1751
31195SOL    HW194163   3.545   8.680   1.742 -0.8117 -0.6725 -0.3348
31195SOL    HW294164   3.513   8.807   1.817  0.3634 -0.1613 -0.6700
31196SOL     OW94165   9.647   7.430   3.526 -0.4475 -0.0577  0.0639
31196SOL    HW194166   9.628   7.359   3.465 -1.3750  1.1073 -1.0719
31196SOL    HW294167   9.573   7.491   3.517  0.3140  1.0603  0.9751
31197SOL     OW94168   7.463   3.867   6.184 -1.5248  0.0999 -0.0592
31197SOL    HW194169   7.421   3.878   6.269 -0.5719 -0.2405  0.4684
31197SOL    HW294170   7.412   3.923   6.125 -1.3059  1.4995  1.0299
31198SOL     OW94171   8.983   0.612   8.075  0.1974 -0.0840  0.0555
31198SOL    HW194172   8.892   0.587   8.090  0.4170 -0.3095  1.0738
31198SOL    HW294173   9.031   0.575   8.149  1.2165 -0.5039 -0.7761
31199SOL     OW94174   0.373   9.133   8.065  0.2283  0.6549  0.6637
31199SOL    HW194175   0.441   9.103   8.124 -0.7698 -0.8383  1.1264
31199SOL    HW294176   0.414   9.134   7.978  1.4825  2.1359  1.2292
31200SOL     OW94177   5.667   3.850   8.450 -0.1455 -0.2592  0.1352
31200SOL    HW194178   5.666   3.941   8.480 -1.2309  0.4437 -1.8486
31200SOL    HW294179   5.646   3.800   8.529 -1.1439  1.3427  0.9651
31201SOL     OW94180   1.895   8.649   9.513  0.2547 -0.3787  0.4034
31201SOL    HW194181   1.936   8.606   9.588 -1.5710 -0.3798  1.4349
31201SOL    HW294182   1.826   8.703   9.550 -1.8718 -1.7122 -1.3315
31202SOL     OW94183   2.578   6.235   6.158  0.3000 -0.2402 -0.7200
31202SOL    HW194184   2.554   6.269   6.244  1.2629  0.1235 -0.5829
31202SOL    HW294185   2.671   6.257   6.149  0.2764 -0.5284 -1.7310
31203SOL     OW94186   3.525   2.844   6.839 -0.8498 -0.3787  0.0973
31203SOL    HW194187   3.553   2.812   6.925 -0.4300  1.2053  0.5778
31203SOL    HW294188   3.606   2.844   6.787 -1.0466 -1.0485 -0.2189
31204SOL     OW94189   3.884   5.146   5.506 -0.6305 -0.1821  0.2279
31204SOL    HW194190   3.902   5.232   5.543 -1.5145 -0.4612  1.3701
31204SOL    HW294191   3.904   5.155   5.413  0.7319  0.8189  0.5897
31205SOL     OW94192   8.675   8.772   4.278 -0.1019 -0.5220 -0.1155
31205SOL    HW194193   8.754   8.729   4.307  1.3965  2.1663  0.1483
31205SOL    HW294194   8.696   8.805   4.190 -1.5855 -1.2771 -0.8024
31206SOL     OW94195   4.764   7.511   7.855  0.3235 -0.0227 -0.5492
31206SOL    HW194196   4.722   7.585   7.900 -0.5115 -0.7258 -0.1442
31206SOL    HW294197   4.842   7.549   7.815  0.7339  0.7773  0.9187
31207SOL     OW94198   8.328   4.366   7.622 -0.4199  0.6212  0.2131
31207SOL    HW194199   8.240   4.402   7.629  0.1511  2.5610 -1.4423
31207SOL    HW294200   8.386   4.438   7.648  0.7196  0.1009 -0.7503
31208SOL     OW94201   4.215   1.259   5.991  0.0611  0.4965 -0.3034
31208SOL    HW194202   4.262   1.250   6.074  0.1646  0.1562 -0.3955
31208SOL    HW294203   4.246   1.341   5.954 -0.8136  1.2287  0.5163
31209SOL     OW94204   7.463   1.761   2.745  0.3389  0.8717 -0.0029
31209SOL    HW194205   7.464   1.667   2.763 -0.6263  0.8773  0.1288
31209SOL    HW294206   7.504   1.800   2.822 -0.2538  0.6271  0.4477
31210SOL     OW94207   7.111   9.454   2.768 -0.3310 -0.6484  0.5328
31210SOL    HW194208   7.067   9.388   2.822 -0.3995 -1.2882 -0.2802
31210SOL    HW294209   7.059   9.457   2.688 -0.2299  0.2859  0.4924
31211SOL     OW94210   2.321   0.688   7.195 -0.0589 -0.5290  0.1459
31211SOL    HW194211   2.317   0.592   7.202  0.0740 -0.4588  1.4035
31211SOL    HW294212   2.386   0.714   7.260 -1.3239  0.5269  1.0569
31212SOL     OW94213   0.781   3.074   2.437  0.3839 -0.3082 -0.1556
31212SOL    HW194214   0.822   3.001   2.390 -0.2999 -0.1982 -0.9296
31212SOL    HW294215   0.811   3.063   2.528 -0.8828 -2.4298  0.0815
31213SOL     OW94216   4.604   3.556   2.783 -0.1691  0.0230 -0.5217
31213SOL    HW194217   4.633   3.550   2.693 -1.0140  0.1207 -0.8098
31213SOL    HW294218   4.578   3.467   2.807  0.7069 -0.1403 -0.1395
31214SOL     OW94219   9.044   6.544   1.956  0.1871  0.2755  0.5620
31214SOL    HW194220   9.035   6.587   2.041  0.7441  0.5189  0.4973
31214SOL    HW294221   9.008   6.456   1.970  0.3309  0.2948  1.0619
31215SOL     OW94222   0.206   6.933   8.471  0.3176  0.7724 -0.0115
31215SOL    HW194223   0.275   6.876   8.437 -1.6643 -2.1264  0.4414
31215SOL    HW294224   0.140   6.873   8.506 -1.4240  3.4177  1.6649
31216SOL     OW94225   5.453   7.563   7.028 -0.8638 -0.4468  0.5366
31216SOL    HW194226   5.436   7.653   7.003 -0.7420 -0.5218  0.1700
31216SOL    HW294227   5.408   7.511   6.961  0.9113 -0.6468 -0.5750
31217SOL     OW94228   5.478   0.046   6.523 -0.1724 -0.5795  0.6364
31217SOL    HW194229   5.499   0.032   6.431  1.2668  1.1730  0.6594
31217SOL    HW294230   5.471  -0.042   6.559 -4.0117 -1.4985 -1.7502
31218SOL     OW94231   2.043   5.584   3.817 -0.6024  0.4127 -0.4959
31218SOL    HW194232   2.004   5.671   3.810 -0.4910  0.5110  0.0447
31218SOL    HW294233   2.008   5.535   3.742 -1.7743  0.4847 -0.0132
31219SOL     OW94234   2.995   4.419   8.716 -0.4207  0.5503  0.3411
31219SOL    HW194235   2.908   4.420   8.754 -1.3967  0.7429 -1.7735
31219SOL    HW294236   3.021   4.326   8.719  0.1604  0.7312  2.6861
31220SOL     OW94237   1.930   7.519   0.065 -0.1611  0.4304  0.4884
31220SOL    HW194238   1.845   7.554   0.040 -0.5118  0.3599  1.5255
31220SOL    HW294239   1.921   7.424   0.054 -0.1849  0.4286  0.5226
31221SOL     OW94240   8.950   4.903   4.917  0.2879 -0.6706 -0.1924
31221SOL    HW194241   8.968   4.889   4.824  0.6290 -1.9820  0.0452
31221SOL    HW294242   8.860   4.937   4.919 -0.5986 -2.7634 -0.9183
31222SOL     OW94243   8.296   3.137   5.976  0.3833 -0.1345  0.1714
31222SOL    HW194244   8.321   3.135   6.068  0.6363  0.2736  0.1154
31222SOL    HW294245   8.365   3.189   5.934  1.3959 -1.9706 -0.5807
31223SOL     OW94246   1.179   0.053   3.156  0.0318  0.0445  0.4964
31223SOL    HW194247   1.246   0.073   3.221  0.4187  1.7052 -0.3645
31223SOL    HW294248   1.116   0.125   3.163 -1.8590 -1.5797  1.4433
31224SOL     OW94249   7.040   2.551   0.261  0.4618  0.0063 -0.1199
31224SOL    HW194250   7.022   2.625   0.319  0.6050  1.0773 -1.3884
31224SOL    HW294251   7.132   2.529   0.277  0.4973  0.2966  0.0657
31225SOL     OW94252   8.045   1.285   6.452  0.4893 -0.3285  0.2364
31225SOL    HW194253   7.976   1.271   6.387 -1.0292  0.1246  1.6845
31225SOL    HW294254   8.040   1.379   6.472  2.0336 -0.1396 -0.1511
31226SOL     OW94255   5.117   8.425   1.661 -0.0473 -0.2983  0.6394
31226SOL    HW194256   5.081   8.376   1.735  1.6181  0.0636  1.7354
31226SOL    HW294257   5.142   8.509   1.698  1.7827 -0.4815 -0.0950
31227SOL     OW94258   6.196   9.281   1.022  0.4024  0.1694 -0.4579
31227SOL    HW194259   6.264   9.243   1.078 -0.2587 -1.1094 -0.4982
31227SOL    HW294260   6.211   9.244   0.936 -1.4076 -1.6183 -0.0900
31228SOL     OW94261   0.180   1.408   7.999  0.1491  0.3820  0.1361
31228SOL    HW194262   0.186   1.501   8.023  1.1684  0.3478  0.0713
31228SOL    HW294263   0.121   1.407   7.923 -0.7031  0.8426  0.7822
31229SOL     OW94264   6.702   9.783   2.090 -0.0701  0.3378  0.3304
31229SOL    HW194265   6.615   9.798   2.125 -0.4063  0.8798 -0.6806
31229SOL    HW294266   6.738   9.871   2.075 -0.6168  0.2088 -2.2262
31230SOL     OW94267   9.348   4.882   9.041  0.1652  0.0871 -0.7277
31230SOL    HW194268   9.405   4.922   9.106 -0.2851  1.1420 -0.9736
31230SOL    HW294269   9.262   4.922   9.056 -0.1126 -0.2028 -1.4956
31231SOL     OW94270   4.879   4.093   4.072 -0.0154 -0.4460 -0.0928
31231SOL    HW194271   4.872   3.998   4.068 -1.5939 -0.3621  0.1069
31231SOL    HW294272   4.963   4.113   4.032  0.1573 -1.8949 -0.4949
31232SOL     OW94273   0.673   1.722   2.370 -0.4483 -0.3046  0.4190
31232SOL    HW194274   0.600   1.752   2.317 -1.2247 -0.0482  1.6141
31232SOL    HW294275   0.633   1.676   2.444  0.5238  0.9637  1.7896
31233SOL     OW94276   6.958   7.907   1.567  0.3308 -0.6544  0.0065
31233SOL    HW194277   6.892   7.925   1.501 -0.9179 -0.4698  1.2525
31233SOL    HW294278   7.022   7.977   1.557 -1.3438  1.1040  0.8364
31234SOL     OW94279   5.527   0.768   5.999  0.0346 -0.8728 -0.5234
31234SOL    HW194280   5.493   0.829   5.934 -2.3085 -1.8673 -0.3481
31234SOL    HW294281   5.490   0.799   6.082 -0.6901 -2.1265 -0.3484
31235SOL     OW94282   3.511   4.611   9.824  0.2742 -0.3003  0.4801
31235SOL    HW194283   3.490   4.644   9.737 -0.8153 -0.0841  0.8069
31235SOL    HW294284   3.547   4.687   9.870 -1.0637  0.1456  0.8404
31236SOL     OW94285   5.318   5.553   0.494  0.1790 -0.0258  0.2066
31236SOL    HW194286   5.354   5.465   0.503  1.8477  0.8025  2.5255
31236SOL    HW294287   5.394   5.611   0.496 -0.9927  1.5829  0.9912
31237SOL     OW94288   9.486   1.489   8.144 -0.4459 -0.4580  0.0558
31237SOL    HW194289   9.464   1.499   8.051  0.4472 -0.0904 -0.1292
31237SOL    HW294290   9.402   1.476   8.187 -0.7562 -2.2939 -1.0057
31238SOL     OW94291   2.669   8.467   9.356 -0.3423 -0.4589  0.8239
31238SOL    HW194292   2.733   8.476   9.426  0.8161 -0.5623 -0.1796
31238SOL    HW294293   2.689   8.539   9.296 -0.3766 -1.1949 -0.0933
31239SOL     OW94294   8.415   4.990   4.408  0.1279 -0.0624  1.1722
31239SOL    HW194295   8.384   4.906   4.374  0.7055 -0.8023  2.3705
31239SOL    HW294296   8.340   5.048   4.403 -0.1810 -0.5315 -0.0253
31240SOL     OW94297   3.158   9.824   7.476  0.1010 -0.1360 -0.0416
31240SOL    HW194298   3.065   9.807   7.490  0.0294  0.6195  0.4044
31240SOL    HW294299   3.161   9.888   7.405  0.3224 -0.7838 -0.6357
31241SOL     OW94300   4.117   4.447   6.232 -0.4754  0.3290 -0.1691
31241SOL    HW194301   4.048   4.396   6.190 -1.8796  1.3243  0.8469
31241SOL    HW294302   4.191   4.386   6.240 -2.3601 -1.8627  1.7511
31242SOL     OW94303   5.694   4.668   2.685  0.4618  0.4674  0.0801
31242SOL    HW194304   5.758   4.734   2.713  0.7171 -0.0053  0.6218
31242SOL    HW294305   5.733   4.628   2.608  0.5937  0.5251  0.1163
31243SOL     OW94306   4.455   0.229   5.825 -0.2343 -0.7867 -0.7823
31243SOL    HW194307   4.518   0.296   5.799 -1.1625 -0.1353 -1.4214
31243SOL    HW294308   4.508   0.159   5.862  0.7105  0.6725  0.7680
31244SOL     OW94309   6.305   9.405   0.172  0.3164  0.3471  0.8312
31244SOL    HW194310   6.261   9.407   0.087 -0.1503 -2.6300  0.8950
31244SOL    HW294311   6.257   9.468   0.226 -0.1748  1.3621 -0.7334
31245SOL     OW94312   4.129   7.139   8.776  0.1563  0.1177 -0.1725
31245SOL    HW194313   4.067   7.066   8.786 -0.5264  0.6001 -0.7744
31245SOL    HW294314   4.098   7.206   8.836  0.2219  0.2787 -0.3157
31246SOL     OW94315   8.829   4.496   3.516 -0.1739 -0.0641 -0.2518
31246SOL    HW194316   8.753   4.518   3.461  0.0964 -0.2123 -0.6862
31246SOL    HW294317   8.813   4.405   3.543 -0.6189  0.2115  0.4366
31247SOL     OW94318   4.266   3.748   9.914 -0.2336  0.6947  0.0123
31247SOL    HW194319   4.227   3.802   9.983 -3.0444  0.0132 -0.9218
31247SOL    HW294320   4.194   3.728   9.855  1.7484 -0.0609 -2.3163
31248SOL     OW94321   3.244   7.368   2.487 -0.4496  0.3247 -0.0241
31248SOL    HW194322   3.185   7.366   2.562  1.1038 -1.8166  1.2238
31248SOL    HW294323   3.278   7.279   2.480  2.7593  1.4492 -0.5519
31249SOL     OW94324   8.709   0.343   6.738 -0.1950 -0.1278 -0.0528
31249SOL    HW194325   8.726   0.293   6.659  0.4638 -1.8047  1.0813
31249SOL    HW294326   8.704   0.277   6.808 -0.1775  1.3230  1.3882
31250SOL     OW94327   3.130   0.445   6.821 -0.6499 -0.3852 -0.0784
31250SOL    HW194328   3.054   0.396   6.789 -1.8041  1.0831  0.2904
31250SOL    HW294329   3.158   0.396   6.898 -0.6013 -1.4881 -0.7728
31251SOL     OW94330   3.165   5.690   6.190 -0.2047 -0.4691  0.4350
31251SOL    HW194331   3.127   5.621   6.245  0.8959 -0.6100  1.0686
31251SOL    HW294332   3.101   5.761   6.192 -0.2124 -0.4838  1.9003
31252SOL     OW94333   8.798   7.100   1.564 -0.3429 -0.3482  0.2020
31252SOL    HW194334   8.801   7.032   1.632 -1.0324  0.8066  1.4210
31252SOL    HW294335   8.783   7.051   1.483  2.5629 -1.9643  0.5090
31253SOL     OW94336   3.188   5.077   2.404 -0.1895  0.7334  0.1543
31253SOL    HW194337   3.240   5.116   2.334  1.1924  1.2805  1.4286
31253SOL    HW294338   3.227   5.110   2.485 -0.2823 -1.6212  1.2698
31254SOL     OW94339   0.616   8.417   3.030  0.1994  0.1262  0.3881
31254SOL    HW194340   0.664   8.483   3.080 -1.0340  1.9003 -0.6484
31254SOL    HW294341   0.622   8.337   3.082 -0.5095  1.7094  3.0600
31255SOL     OW94342   4.787   2.709   0.391  0.3243 -0.5136  0.2015
31255SOL    HW194343   4.790   2.758   0.309  0.0007  0.9533  1.0408
31255SOL    HW294344   4.714   2.648   0.379  1.5784 -1.8107 -1.3704
31256SOL     OW94345   8.341   8.123   8.099 -0.1066 -0.1004  0.1404
31256SOL    HW194346   8.407   8.181   8.137  0.4817 -1.1402  0.7553
31256SOL    HW294347   8.370   8.035   8.123 -1.8808 -0.5727  0.6487
31257SOL     OW94348   8.360   0.906   0.003 -0.0086  0.0023 -0.3010
31257SOL    HW194349   8.377   0.812   0.006 -0.7233 -0.3356 -3.3408
31257SOL    HW294350   8.300   0.922   0.075 -2.4371 -2.5346 -1.5690
31258SOL     OW94351   0.794   4.834   5.321 -0.0566 -0.0646  0.1798
31258SOL    HW194352   0.827   4.902   5.380  2.4625 -0.7396 -0.3554
31258SOL    HW294353   0.817   4.752   5.364  1.6795 -0.5684 -1.5711
31259SOL     OW94354   0.142   2.417   7.663 -0.2946  0.4356  0.0119
31259SOL    HW194355   0.227   2.449   7.693 -0.3382  0.8907 -0.3325
31259SOL    HW294356   0.079   2.454   7.725 -0.0797 -1.7149  1.6245
31260SOL     OW94357   6.458   0.881   7.019 -0.5130 -0.0765  0.0905
31260SOL    HW194358   6.518   0.822   7.064 -1.6933 -2.9668 -1.8230
31260SOL    HW294359   6.406   0.921   7.089  0.0051 -1.7240  1.4602
31261SOL     OW94360   5.400   4.210   8.962 -0.1244  0.3579  0.0750
31261SOL    HW194361   5.392   4.233   9.055 -1.0739 -0.9185  0.3432
31261SOL    HW294362   5.488   4.174   8.954  0.4990  1.8077  0.1492
31262SOL     OW94363   7.484   1.918   2.119 -0.3604 -0.0732 -0.2528
31262SOL    HW194364   7.484   2.014   2.125 -2.0587 -0.0616  0.1362
31262SOL    HW294365   7.523   1.888   2.201 -0.0967  0.2798 -0.2476
31263SOL     OW94366   1.902   0.478   9.401  0.0472  0.2301 -0.3643
31263SOL    HW194367   1.938   0.544   9.342  1.2839  0.5470  0.6935
31263SOL    HW294368   1.893   0.522   9.485 -0.2367 -0.6247  0.0714
31264SOL     OW94369   6.975   9.803   6.687 -0.0898 -0.0016 -0.0753
31264SOL    HW194370   6.951   9.884   6.642  0.4461  0.8439  1.1067
31264SOL    HW294371   7.029   9.755   6.624  1.8495  1.7970  0.1132
31265SOL     OW94372   2.906   8.231   2.674  0.1813  0.2739  0.0717
31265SOL    HW194373   2.931   8.301   2.735 -0.0708  0.4652 -0.0447
31265SOL    HW294374   2.866   8.164   2.729  0.9479 -0.0398  0.2625
31266SOL     OW94375   4.738   1.689   3.681  0.1649  0.5521 -0.1498
31266SOL    HW194376   4.668   1.668   3.619 -1.1285  0.0737  1.4090
31266SOL    HW294377   4.727   1.782   3.700  0.8588  0.8114 -0.9712
31267SOL     OW94378   0.039   6.410   9.336 -0.3661 -0.3499 -0.5183
31267SOL    HW194379   0.019   6.486   9.389 -1.4895 -0.7696 -0.3211
31267SOL    HW294380   0.108   6.440   9.276 -1.8596  1.3062 -1.5149
31268SOL     OW94381   9.296   8.083   5.481  0.7050 -0.2514 -0.0677
31268SOL    HW194382   9.324   8.160   5.531 -1.3648  0.2692  0.3791
31268SOL    HW294383   9.271   8.019   5.548  0.1306 -0.4162 -0.4337
31269SOL     OW94384   5.664   9.755   6.546  0.4061  1.1245  0.6491
31269SOL    HW194385   5.633   9.666   6.530 -2.0299  2.2313 -1.5987
31269SOL    HW294386   5.649   9.770   6.639  0.8928 -0.7860  1.0704
31270SOL     OW94387   8.623   8.051   7.622 -0.1108  0.3554  0.6621
31270SOL    HW194388   8.597   8.116   7.688 -1.2007  0.7138 -0.1042
31270SOL    HW294389   8.559   7.980   7.633  0.8832 -0.4746  1.2815
31271SOL     OW94390   4.367   5.996   5.951  0.1453  0.1722 -0.2340
31271SOL    HW194391   4.346   5.939   5.877  1.1066  1.2770 -1.3986
31271SOL    HW294392   4.454   5.967   5.979  0.2247  0.4366 -0.2074
31272SOL     OW94393   7.962   2.210   0.905  0.0949 -0.2019 -0.0115
31272SOL    HW194394   7.932   2.248   0.988  0.5164  2.2111 -0.8651
31272SOL    HW294395   7.892   2.152   0.877 -1.8645  1.9478  0.1807
31273SOL     OW94396   8.038   3.570   2.182 -0.3212  0.2788  0.4306
31273SOL    HW194397   7.956   3.610   2.214 -0.0583  1.0989  0.1108
31273SOL    HW294398   8.038   3.483   2.220 -2.2413 -0.4141 -0.9971
31274SOL     OW94399   0.864   0.827   6.608 -0.0165  0.2217 -0.7123
31274SOL    HW194400   0.777   0.805   6.641 -0.7754 -0.8255 -3.1572
31274SOL    HW294401   0.919   0.832   6.686 -1.9340 -0.6129  0.7776
31275SOL     OW94402   4.245   7.391   5.865 -0.0834  0.1750 -0.1386
31275SOL    HW194403   4.338   7.417   5.865 -0.3701  1.2868  0.7663
31275SOL    HW294404   4.240   7.319   5.928  0.5523 -1.5387 -1.9483
31276SOL     OW94405   5.692   8.751   2.814 -0.2375  0.0533 -0.0711
31276SOL    HW194406   5.642   8.716   2.740  0.4657  1.3091 -1.1909
31276SOL    HW294407   5.717   8.839   2.786  3.0624 -0.6718  0.1953
31277SOL     OW94408   6.943   1.583   4.612 -0.2867 -0.2767 -0.0787
31277SOL    HW194409   6.851   1.600   4.632 -0.0129  0.6792  0.4435
31277SOL    HW294410   6.984   1.568   4.698  0.2937  0.6844 -0.1666
31278SOL     OW94411   0.856   4.657   1.278 -0.2345 -0.0421  0.2845
31278SOL    HW194412   0.850   4.680   1.371  2.8991  1.2868  0.2751
31278SOL    HW294413   0.792   4.714   1.235  0.1170  1.2062  1.3688
31279SOL     OW94414   8.371   9.579   6.804 -0.6223  0.8080 -0.6025
31279SOL    HW194415   8.294   9.554   6.753 -1.2353  2.1346 -0.3740
31279SOL    HW294416   8.413   9.648   6.752 -0.7783  1.5719  0.2689
31280SOL     OW94417   5.657   3.923   7.703  0.5293 -0.0714 -0.3021
31280SOL    HW194418   5.671   4.017   7.688  0.3823 -0.2913 -1.9999
31280SOL    HW294419   5.573   3.919   7.749  0.6336  0.6473 -0.0307
31281SOL     OW94420   4.121   4.801   1.866 -0.2343  0.0366 -0.3116
31281SOL    HW194421   4.026   4.793   1.854  0.0202 -0.0157 -2.6821
31281SOL    HW294422   4.146   4.877   1.814  0.6293  2.3840  3.1351
31282SOL     OW94423   7.215   5.698   6.140  0.1599  0.5561 -0.1008
31282SOL    HW194424   7.123   5.712   6.119 -0.4829  2.3935  3.1345
31282SOL    HW294425   7.214   5.651   6.223  2.3077 -2.7270 -1.7330
31283SOL     OW94426   0.802   2.654   3.232 -0.0735 -0.0580 -0.7261
31283SOL    HW194427   0.890   2.691   3.241  0.3915 -1.0024 -1.3109
31283SOL    HW294428   0.808   2.568   3.273 -0.7100 -0.1620 -0.8487
31284SOL     OW94429   8.271   6.603   5.845 -0.3704 -0.2440 -0.1635
31284SOL    HW194430   8.306   6.514   5.852 -1.1764 -0.5652 -0.0339
31284SOL    HW294431   8.184   6.597   5.885  0.0575  0.9009  1.0340
31285SOL     OW94432   3.861   8.296   5.124 -0.5723 -0.0201 -0.2290
31285SOL    HW194433   3.887   8.306   5.032 -1.5994 -0.1576 -0.5373
31285SOL    HW294434   3.932   8.244   5.162 -0.4903 -0.5837 -1.1125
31286SOL     OW94435   2.960   8.800   6.438  0.2566  0.0630 -0.0179
31286SOL    HW194436   2.936   8.781   6.528 -0.5471 -0.5635 -0.3496
31286SOL    HW294437   2.925   8.888   6.422 -1.4390 -0.6241 -0.3284
31287SOL     OW94438   1.974   0.266   2.332 -0.6440  0.1812  0.7261
31287SOL    HW194439   1.999   0.220   2.412 -0.7101 -0.8494  0.1740
31287SOL    HW294440   1.924   0.342   2.362  0.1671  0.3519  1.6902
31288SOL     OW94441   6.311   8.974   0.934 -0.1238 -0.1345  0.2246
31288SOL    HW194442   6.256   8.903   0.966 -0.0181  0.5921  2.1668
31288SOL    HW294443   6.341   9.018   1.014  1.4215  0.8726 -0.8571
31289SOL     OW94444   5.204   5.415   1.786 -0.4667  0.7380 -0.0992
31289SOL    HW194445   5.164   5.430   1.872 -2.1051  0.0277 -0.7002
31289SOL    HW294446   5.236   5.502   1.760 -1.9011  1.4316  0.3063
31290SOL     OW94447   1.125   9.855   5.516  0.1959 -0.2805 -0.2432
31290SOL    HW194448   1.122   9.819   5.605  0.8633 -1.3603 -0.6340
31290SOL    HW294449   1.064   9.801   5.466 -0.9542  0.9747 -0.2434
31291SOL     OW94450   4.669   1.398   9.691 -0.5879 -0.1469  0.3727
31291SOL    HW194451   4.601   1.465   9.696  0.1511  0.6332 -0.0175
31291SOL    HW294452   4.663   1.364   9.602 -0.1408  0.2779  0.1753
31292SOL     OW94453   8.756   4.068   9.737  0.4932  0.0186  0.4246
31292SOL    HW194454   8.703   3.999   9.697  1.1995 -0.4955  0.3650
31292SOL    HW294455   8.692   4.123   9.783 -0.0787 -0.7086  0.5286
31293SOL     OW94456   7.950   2.458   9.171  0.5224 -0.2058 -0.1887
31293SOL    HW194457   8.011   2.385   9.177  0.7470 -0.1534 -1.4695
31293SOL    HW294458   7.909   2.447   9.085 -0.3669  0.4585  0.1358
31294SOL     OW94459   3.602   5.952   0.223  0.6765  0.4777  0.2928
31294SOL    HW194460   3.613   6.044   0.201 -0.7944  0.8764  1.0583
31294SOL    HW294461   3.661   5.938   0.297  0.8781  0.8106  0.1965
31295SOL     OW94462   4.239   9.611   6.719 -0.1777  0.0214 -0.2879
31295SOL    HW194463   4.154   9.590   6.679  0.1599 -0.6138 -0.6803
31295SOL    HW294464   4.281   9.526   6.732  0.3379  0.3235  0.0571
31296SOL     OW94465   4.363   6.896   5.449  0.5475  0.3521 -0.1594
31296SOL    HW194466   4.324   6.983   5.461  1.3279  0.6420  0.3072
31296SOL    HW294467   4.289   6.836   5.455  0.3206  0.7902  2.0212
31297SOL     OW94468   7.577   7.812   5.429 -0.1311 -0.3772 -0.0002
31297SOL    HW194469   7.605   7.723   5.406 -2.1892 -0.3887 -2.9994
31297SOL    HW294470   7.495   7.799   5.477 -0.4350 -0.1189 -0.4440
31298SOL     OW94471   3.350   1.310   8.958  0.4983  0.2501  0.2592
31298SOL    HW194472   3.345   1.221   8.994  0.6257  0.4167  0.6929
31298SOL    HW294473   3.284   1.359   9.006  0.0348  0.2556 -0.3797
31299SOL     OW94474   5.564   2.356   2.142 -0.6759  1.0801  0.5920
31299SOL    HW194475   5.562   2.419   2.070 -2.0923  0.1937 -0.1698
31299SOL    HW294476   5.495   2.293   2.122  1.4483 -1.4498  0.6879
31300SOL     OW94477   2.475   6.431   8.970 -0.3144  0.4176  0.0505
31300SOL    HW194478   2.458   6.337   8.961 -0.1677  0.2401  1.3618
31300SOL    HW294479   2.568   6.441   8.948 -0.1946  0.1639  0.4301
31301SOL     OW94480   0.377   9.272   0.269  0.5842 -0.2573  0.0670
31301SOL    HW194481   0.355   9.278   0.176  0.0585 -0.9857  0.1364
31301SOL    HW294482   0.319   9.205   0.304  1.1715 -0.4026  0.8090
31302SOL     OW94483   0.613   5.592   6.283  0.4192  0.3385 -0.2665
31302SOL    HW194484   0.620   5.583   6.188 -0.1926 -2.7386 -0.1156
31302SOL    HW294485   0.519   5.588   6.301  0.4937  1.4148  0.4730
31303SOL     OW94486   4.580   3.135   1.637  0.3639  0.4540 -0.0037
31303SOL    HW194487   4.500   3.155   1.684 -1.2598 -1.6708 -1.6835
31303SOL    HW294488   4.582   3.199   1.565  0.4806  0.8284  0.3266
31304SOL     OW94489   9.965   1.856   4.877 -0.1866 -0.9961  0.2798
31304SOL    HW194490   9.905   1.924   4.847 -0.5042 -1.0943  0.6900
31304SOL    HW294491  10.031   1.851   4.808  0.8235  0.9242  1.0465
31305SOL     OW94492   3.799   1.761   7.800  0.1401 -0.8318  0.0412
31305SOL    HW194493   3.741   1.697   7.757 -0.9940  0.0708  0.1970
31305SOL    HW294494   3.844   1.805   7.727 -1.3120  0.2575 -0.2302
31306SOL     OW94495   9.326   5.999   0.538 -0.3227 -0.5747  0.0764
31306SOL    HW194496   9.280   6.055   0.601 -1.1662 -0.9678 -0.1703
31306SOL    HW294497   9.366   5.930   0.592  1.2516  0.5774  0.4489
31307SOL     OW94498   2.208   3.064   3.059 -0.2559  0.1249 -0.1198
31307SOL    HW194499   2.127   3.073   3.109 -0.7746  0.0748 -0.9458
31307SOL    HW294500   2.277   3.078   3.124 -0.9319  1.7852  0.2948
31308SOL     OW94501   1.926   0.484   0.996 -0.4428  0.0391 -0.0729
31308SOL    HW194502   1.997   0.425   0.971 -0.4973 -0.5694  1.1360
31308SOL    HW294503   1.948   0.513   1.084 -0.6553  1.4942 -0.4723
31309SOL     OW94504   1.407   4.632   3.704 -1.0407 -0.3969  0.1273
31309SOL    HW194505   1.359   4.615   3.623 -1.8250 -0.0226  0.4981
31309SOL    HW294506   1.339   4.634   3.772 -0.6747  1.3259  0.4998
31310SOL     OW94507   5.641   1.402   5.813 -0.0334 -0.4246 -0.2533
31310SOL    HW194508   5.737   1.400   5.815 -0.0023  0.6095  1.8357
31310SOL    HW294509   5.618   1.481   5.862 -1.9562 -0.1394 -1.5273
31311SOL     OW94510   3.072   6.788   5.681  0.1911  0.3526 -0.3769
31311SOL    HW194511   3.045   6.697   5.688 -0.2083  0.3202 -2.0373
31311SOL    HW294512   2.992   6.836   5.662  0.6297  0.8459 -1.0225
31312SOL     OW94513   2.930   6.400   1.967 -0.4189  0.3732 -0.7027
31312SOL    HW194514   2.996   6.455   2.009 -2.1962  2.2803 -0.2491
31312SOL    HW294515   2.981   6.338   1.915  1.7771  0.0046  1.6796
31313SOL     OW94516   0.756   0.242   3.554  0.1289  0.0917  0.1303
31313SOL    HW194517   0.818   0.249   3.626 -0.3666 -2.4218  0.8889
31313SOL    HW294518   0.785   0.309   3.491  2.1823  0.5416  1.4490
31314SOL     OW94519   2.228   8.933   6.871 -0.3945 -0.1540 -0.0359
31314SOL    HW194520   2.218   8.839   6.885 -0.9061 -0.2624 -0.9881
31314SOL    HW294521   2.152   8.957   6.817  1.0258  0.3075 -1.9371
31315SOL     OW94522   8.522   6.272   4.143 -0.2258  0.1276 -0.1193
31315SOL    HW194523   8.603   6.290   4.191  0.6631  1.9609 -2.1074
31315SOL    HW294524   8.526   6.178   4.125  0.8254 -0.0485  0.8832
31316SOL     OW94525   7.965   3.593   3.132 -0.2516 -0.2324 -0.5908
31316SOL    HW194526   7.997   3.662   3.073 -0.1140 -0.1638 -0.4364
31316SOL    HW294527   7.966   3.513   3.078  0.0397 -0.2022 -0.6328
31317SOL     OW94528   1.200   3.327   0.063  0.1284 -0.1702 -0.2637
31317SOL    HW194529   1.267   3.379   0.018  0.9723 -0.7783  0.2643
31317SOL    HW294530   1.227   3.236   0.050 -0.9314 -0.4580 -0.5460
31318SOL     OW94531   3.318   3.299   6.954  0.2404  0.3105  0.3911
31318SOL    HW194532   3.362   3.383   6.939  2.6726 -0.9581 -0.2622
31318SOL    HW294533   3.375   3.234   6.912 -0.3063 -1.9227  2.7715
31319SOL     OW94534   7.220   3.659   2.677  0.3201  1.1320 -0.2921
31319SOL    HW194535   7.289   3.643   2.612  0.8737  1.6282  0.1604
31319SOL    HW294536   7.140   3.624   2.637  0.6033  1.6520 -1.3447
31320SOL     OW94537   1.980   7.308   2.565 -0.3511 -0.5889  0.3390
31320SOL    HW194538   2.016   7.388   2.527  0.0002 -1.2960 -0.8594
31320SOL    HW294539   2.039   7.239   2.536 -0.9434 -1.3582  0.9323
31321SOL     OW94540   7.841   2.801   8.039 -0.0129 -0.2881  0.1546
31321SOL    HW194541   7.803   2.864   8.101 -1.7104  1.3767 -2.3792
31321SOL    HW294542   7.911   2.851   7.996 -1.1601 -0.1865 -1.6545
31322SOL     OW94543   1.029   9.407   6.700 -0.0732  0.5647 -0.2059
31322SOL    HW194544   0.967   9.375   6.634  0.1256  0.0727 -0.1624
31322SOL    HW294545   1.026   9.341   6.769  0.7155  0.3667 -0.3409
31323SOL     OW94546   0.186   5.242   2.766  0.3190  0.1788  0.4694
31323SOL    HW194547   0.175   5.335   2.747  2.8228  0.6250  0.8588
31323SOL    HW294548   0.139   5.228   2.848 -0.4520  1.0017  0.1755
31324SOL     OW94549   3.825   3.947   8.187 -0.6724  0.0178 -0.0759
31324SOL    HW194550   3.880   3.943   8.266 -1.2664 -0.1885  0.3374
31324SOL    HW294551   3.881   3.988   8.121  0.3286 -1.0797  0.0481
31325SOL     OW94552   9.794   8.367   3.301  0.3130 -0.2559  0.0601
31325SOL    HW194553   9.837   8.440   3.258  2.0890 -1.0777  0.3326
31325SOL    HW294554   9.816   8.291   3.246  0.7772 -0.9807  1.2255
31326SOL     OW94555   1.180   2.785   0.474  0.4427 -1.0964  0.4142
31326SOL    HW194556   1.091   2.792   0.509 -0.4698  0.8580 -2.0270
31326SOL    HW294557   1.179   2.706   0.420  0.7642 -2.0279  1.7086
31327SOL     OW94558   9.406   5.893   8.618 -0.4907 -0.3922  0.4683
31327SOL    HW194559   9.454   5.871   8.697 -0.2375 -1.8961 -0.0848
31327SOL    HW294560   9.320   5.852   8.629 -0.6208 -0.2072  0.1696
31328SOL     OW94561   1.821   9.801   8.094  0.1282  0.3625 -0.3019
31328SOL    HW194562   1.758   9.838   8.156 -0.8210 -1.3996 -0.1486
31328SOL    HW294563   1.769   9.778   8.017  1.3877  3.1418 -2.1706
31329SOL     OW94564   6.760   2.184   2.999 -0.1516  0.9043  0.6524
31329SOL    HW194565   6.836   2.238   2.977 -0.2687  1.5770  1.7649
31329SOL    HW294566   6.740   2.209   3.090 -0.3945 -0.8206  1.0966
31330SOL     OW94567   2.451   6.789   5.625  0.5999  0.3877  0.1228
31330SOL    HW194568   2.421   6.698   5.614 -0.8371  0.8564 -0.0371
31330SOL    HW294569   2.477   6.817   5.537 -0.0047  0.4719 -0.0347
31331SOL     OW94570   8.636   7.413   8.806  0.0040  0.3413 -0.4168
31331SOL    HW194571   8.707   7.353   8.783  0.7667  0.5505  1.2349
31331SOL    HW294572   8.569   7.398   8.740  0.6231 -1.5697 -0.6647
31332SOL     OW94573   8.859   3.826   8.000  0.2592  0.0964 -0.3561
31332SOL    HW194574   8.829   3.917   7.999  0.0746  0.0528  0.4760
31332SOL    HW294575   8.955   3.832   7.995  0.2262  0.3153 -0.7545
31333SOL     OW94576   2.132   6.289   9.530 -0.3180  0.4058  0.0490
31333SOL    HW194577   2.079   6.369   9.539 -0.3350  0.3023  0.8698
31333SOL    HW294578   2.068   6.220   9.516 -0.3031  0.5281 -0.6707
31334SOL     OW94579   0.455   4.942   2.714  0.0874 -0.2079 -0.5290
31334SOL    HW194580   0.468   4.850   2.693 -0.0679 -0.1085 -1.0754
31334SOL    HW294581   0.405   4.942   2.795  1.8168 -0.6046  0.5857
31335SOL     OW94582   3.113   8.807   5.913 -0.0344  0.1918 -0.1763
31335SOL    HW194583   3.072   8.720   5.913  0.4059 -0.0171 -0.1689
31335SOL    HW294584   3.068   8.854   5.843  1.0550 -0.6867 -1.5156
31336SOL     OW94585   1.287   1.591   2.581 -0.3676  0.3103  0.2739
31336SOL    HW194586   1.244   1.606   2.497  0.8079 -1.0486 -0.6216
31336SOL    HW294587   1.342   1.669   2.594 -2.6375  1.8490  1.2116
31337SOL     OW94588   5.704   7.648   8.064  0.2761 -0.0358 -0.2674
31337SOL    HW194589   5.789   7.691   8.064 -0.1393  0.8313 -0.8285
31337SOL    HW294590   5.690   7.623   7.972  0.3284 -1.0302 -0.0200
31338SOL     OW94591   6.790   5.062   0.772 -0.2654 -0.8967  0.2119
31338SOL    HW194592   6.822   5.145   0.737 -0.3190 -0.1642  1.8107
31338SOL    HW294593   6.856   5.037   0.837 -0.8272 -1.5353  0.5434
31339SOL     OW94594   1.872   5.044   4.893 -0.0833  0.3781 -0.4278
31339SOL    HW194595   1.965   5.046   4.913 -0.2635  1.7758  0.3462
31339SOL    HW294596   1.850   5.133   4.867 -1.9494  1.1529  3.1144
31340SOL     OW94597   4.349   2.683   0.248  0.5144  0.1331  0.4469
31340SOL    HW194598   4.266   2.636   0.235  0.7284 -0.1600  0.1281
31340SOL    HW294599   4.326   2.775   0.240  0.4120  0.0207 -0.7890
31341SOL     OW94600   1.524   4.779   8.580 -0.4574  0.0937  0.3415
31341SOL    HW194601   1.489   4.864   8.607 -2.5064 -0.5418 -0.1944
31341SOL    HW294602   1.597   4.763   8.640  0.2379  2.3972  0.1901
31342SOL     OW94603   6.317   5.010   4.225  0.1280 -0.6044 -0.1488
31342SOL    HW194604   6.364   5.028   4.144  0.9673  1.9942  0.7892
31342SOL    HW294605   6.229   4.986   4.198  0.5411 -0.2960 -1.8496
31343SOL     OW94606   9.135   6.155   4.875  0.3126  0.7995  0.8819
31343SOL    HW194607   9.084   6.234   4.892  2.2431  1.7537  2.6247
31343SOL    HW294608   9.178   6.171   4.791  0.3287  1.4098  1.0039
31344SOL     OW94609   7.316   8.781   6.815 -0.3154 -0.4559  0.1843
31344SOL    HW194610   7.222   8.765   6.819 -0.4404  0.5152  1.3762
31344SOL    HW294611   7.324   8.875   6.796  0.4066 -0.3052  1.1726
31345SOL     OW94612   5.359   8.549   5.404 -0.1269 -0.0527  0.0290
31345SOL    HW194613   5.377   8.517   5.492  1.8344  0.5794 -0.0983
31345SOL    HW294614   5.379   8.642   5.407  1.0584 -0.2332 -1.3438
31346SOL     OW94615   1.727   3.823   0.199 -0.3335 -0.0186 -0.1244
31346SOL    HW194616   1.759   3.775   0.276 -1.9375  1.7271  1.7523
31346SOL    HW294617   1.666   3.762   0.157 -3.0773  0.4756  2.7452
31347SOL     OW94618   8.035   5.814   0.766 -0.3647  0.4604  0.2269
31347SOL    HW194619   8.058   5.856   0.683  0.7233 -0.3503  0.0941
31347SOL    HW294620   8.037   5.885   0.831 -1.8073  1.2205 -0.4942
31348SOL     OW94621   6.370   8.285   1.954 -0.3292 -0.6751  0.2731
31348SOL    HW194622   6.453   8.249   1.924 -0.0578  0.3461 -0.2684
31348SOL    HW294623   6.354   8.359   1.895 -0.5784  0.4101  1.6492
31349SOL     OW94624   4.913   6.988   2.676 -0.5173 -0.2862  0.5732
31349SOL    HW194625   4.862   6.963   2.753 -0.6437  0.5559  0.7761
31349SOL    HW294626   4.871   6.943   2.603 -1.2388 -0.0055  0.8086
31350SOL     OW94627   4.939   9.138   4.962 -0.2875  0.2457  0.0579
31350SOL    HW194628   4.938   9.134   4.867  1.0191  0.8416  0.0096
31350SOL    HW294629   5.013   9.083   4.988  0.2209  1.2014  0.6609
31351SOL     OW94630   3.261   0.969   2.872  0.0357  0.2341 -0.0011
31351SOL    HW194631   3.206   1.022   2.931 -0.3219  1.7683 -1.6245
31351SOL    HW294632   3.280   0.890   2.923 -0.0747  1.5477  2.2394
31352SOL     OW94633   4.293   0.614   7.619 -0.4084 -0.3774 -0.0554
31352SOL    HW194634   4.330   0.580   7.700 -1.2989 -1.1275  0.0651
31352SOL    HW294635   4.228   0.547   7.593  0.9930 -0.9938 -2.2513
31353SOL     OW94636   7.273   6.542   2.098 -0.0840 -0.0138  1.0240
31353SOL    HW194637   7.274   6.448   2.079  0.5879  0.0345  0.7893
31353SOL    HW294638   7.356   6.557   2.144 -0.0692  0.5171  0.8196
31354SOL     OW94639   9.110   6.399   9.413 -0.1035 -0.4443 -0.3347
31354SOL    HW194640   9.135   6.432   9.327 -1.3483 -0.4808 -0.7360
31354SOL    HW294641   9.029   6.446   9.434 -0.5774 -1.4435  0.1775
31355SOL     OW94642   1.217   3.264   3.963 -0.6170  0.1524 -0.0687
31355SOL    HW194643   1.212   3.203   4.036  1.2419 -0.3821 -0.3538
31355SOL    HW294644   1.302   3.248   3.923  0.6703  3.9078  0.7418
31356SOL     OW94645   2.069   5.304   5.076 -0.1588  0.0410  0.3567
31356SOL    HW194646   2.027   5.374   5.024  2.0878  0.7883 -0.5913
31356SOL    HW294647   2.005   5.233   5.077 -0.5310  0.1635 -3.1160
31357SOL     OW94648   9.800   1.866   5.780  0.6939  0.4172  0.6400
31357SOL    HW194649   9.809   1.773   5.798  0.8568  0.5379  1.2276
31357SOL    HW294650   9.710   1.877   5.750  1.0714 -0.1246 -0.7471
31358SOL     OW94651   3.334   5.573   0.828  0.0863 -0.4896 -0.3842
31358SOL    HW194652   3.421   5.607   0.809  1.2199 -1.8160  2.0579
31358SOL    HW294653   3.275   5.625   0.773  2.4345 -0.0744 -2.7033
31359SOL     OW94654   5.262   4.583   3.042 -0.1528  0.2477  0.2476
31359SOL    HW194655   5.320   4.591   3.118 -0.2902  0.2536  0.3533
31359SOL    HW294656   5.241   4.673   3.018  0.4332  0.2674 -0.2213
31360SOL     OW94657   7.305   2.877   4.566 -0.5384 -0.5253 -0.1429
31360SOL    HW194658   7.331   2.808   4.627  0.0262 -1.3455 -1.2735
31360SOL    HW294659   7.336   2.847   4.481 -0.9288  0.7910 -0.7813
31361SOL     OW94660   9.011   9.962   5.561 -0.0170  0.3202 -0.0513
31361SOL    HW194661   9.032   9.957   5.468 -0.4313  0.7294 -0.1680
31361SOL    HW294662   8.945   9.893   5.574 -0.9031  1.0993 -0.3278
31362SOL     OW94663   1.889   3.788   3.031 -0.1004  0.6095 -0.7634
31362SOL    HW194664   1.843   3.766   3.112 -0.0332  1.6476 -0.4257
31362SOL    HW294665   1.919   3.878   3.044  1.2861  0.2538 -1.3120
31363SOL     OW94666   7.217   1.181   8.022 -0.3465 -0.3793 -0.2067
31363SOL    HW194667   7.252   1.270   8.018  3.7590 -1.6519  1.8399
31363SOL    HW294668   7.235   1.145   7.935  0.3406  0.0671 -0.2598
31364SOL     OW94669   1.806   7.698   2.075 -0.7272  0.0525  0.0792
31364SOL    HW194670   1.821   7.761   2.145  0.4496  1.0685 -1.0383
31364SOL    HW294671   1.714   7.675   2.083 -0.9594  1.2170  1.0902
31365SOL     OW94672   3.555   8.449   8.264  0.4073  0.3044  0.4127
31365SOL    HW194673   3.470   8.470   8.302  0.1021 -0.1081 -0.0247
31365SOL    HW294674   3.568   8.514   8.195 -1.0408 -1.4882 -1.6871
31366SOL     OW94675   4.116   6.164   2.194 -0.3283 -0.0179  0.1810
31366SOL    HW194676   4.150   6.131   2.111  0.1161 -1.6648  0.9579
31366SOL    HW294677   4.022   6.176   2.179  0.0195  1.3348 -1.0245
31367SOL     OW94678   0.049   3.313   5.187 -0.0004 -0.2942  0.6029
31367SOL    HW194679   0.103   3.374   5.137  1.0830  0.0003  2.0583
31367SOL    HW294680  -0.026   3.295   5.131 -0.1194  2.0276 -0.0756
31368SOL     OW94681   5.593   3.737   2.814 -0.5708 -0.0720  0.6010
31368SOL    HW194682   5.648   3.766   2.887 -0.3972 -0.8492  0.7836
31368SOL    HW294683   5.518   3.797   2.816 -1.0195 -0.6237  1.9935
31369SOL     OW94684   1.641   1.823   6.502  0.1308 -0.4715 -0.1181
31369SOL    HW194685   1.693   1.811   6.582  0.9904  0.0585 -0.5920
31369SOL    HW294686   1.561   1.771   6.518 -0.1346  0.3545  1.4614
31370SOL     OW94687   7.387   9.839   6.449 -0.7546  0.0111 -0.0910
31370SOL    HW194688   7.301   9.870   6.421 -1.2047  0.2844  1.4747
31370SOL    HW294689   7.387   9.853   6.544  0.4330 -1.4149  0.1484
31371SOL     OW94690   5.334   3.698   0.986 -0.4351 -0.0601 -0.1584
31371SOL    HW194691   5.423   3.663   0.976 -0.0483  0.5281  0.9606
31371SOL    HW294692   5.329   3.769   0.921 -0.9596 -1.6143 -1.8976
31372SOL     OW94693   3.781   7.844   4.752  0.5715  0.7129  0.3205
31372SOL    HW194694   3.753   7.901   4.680  0.9744  1.0199  0.3999
31372SOL    HW294695   3.784   7.901   4.828 -1.8651 -0.0380  1.0740
31373SOL     OW94696   2.275   8.517   4.122 -0.1678 -0.2107  0.2128
31373SOL    HW194697   2.216   8.581   4.161 -5.4920 -1.6394 -4.1510
31373SOL    HW294698   2.246   8.433   4.158  2.6613 -0.7794  1.4346
31374SOL     OW94699   4.503   2.727   4.930  0.1672 -0.3300 -0.2112
31374SOL    HW194700   4.524   2.774   4.849  1.2205 -1.0241 -0.3621
31374SOL    HW294701   4.523   2.790   5.000  4.6986 -1.4413 -0.2332
31375SOL     OW94702   7.419   9.273   0.303  0.1601 -0.4675  0.8410
31375SOL    HW194703   7.425   9.299   0.211 -0.1210  3.3111  1.7282
31375SOL    HW294704   7.325   9.263   0.319  0.2075 -1.1043  0.7351
31376SOL     OW94705   7.222   9.957   4.183  0.0405 -0.0751  0.7575
31376SOL    HW194706   7.128   9.944   4.170  0.1744  0.7030 -1.4938
31376SOL    HW294707   7.262   9.878   4.146  0.3061  0.0333  0.8163
31377SOL     OW94708   2.726   9.545   5.284 -0.0550 -0.3201  0.1558
31377SOL    HW194709   2.739   9.579   5.195  0.9654  0.9838  0.7679
31377SOL    HW294710   2.777   9.464   5.287 -1.3241 -1.2109 -0.8752
31378SOL     OW94711   0.039   0.161   8.769  0.0330  0.1316 -0.0983
31378SOL    HW194712  -0.049   0.133   8.797  0.2124  0.2227  0.5672
31378SOL    HW294713   0.099   0.105   8.818  0.3595 -2.2844 -2.9908
31379SOL     OW94714   9.840   2.619   8.666  0.0223 -0.6160  0.5430
31379SOL    HW194715   9.772   2.657   8.610  0.0866 -1.6142 -0.2403
31379SOL    HW294716   9.791   2.568   8.732 -0.0389 -2.9983 -1.2044
31380SOL     OW94717   8.545   6.910   2.750  0.1267  0.1006 -0.4519
31380SOL    HW194718   8.461   6.875   2.782  0.8493 -2.1435 -0.8702
31380SOL    HW294719   8.539   6.904   2.655  0.7979 -0.1378 -0.4806
31381SOL     OW94720   3.017   5.329   4.404  0.2044  0.0024  0.2839
31381SOL    HW194721   3.051   5.365   4.486  1.2860  0.8505 -0.4829
31381SOL    HW294722   3.049   5.391   4.337 -0.2318 -0.9300 -0.8137
31382SOL     OW94723   2.256   2.950   8.809 -0.1631 -0.0865  0.2232
31382SOL    HW194724   2.338   2.983   8.771  0.2178 -2.4227 -1.1696
31382SOL    HW294725   2.281   2.915   8.894  0.2693 -0.5490 -0.0836
31383SOL     OW94726   4.099   0.675   6.828  0.5283  0.2963  0.1315
31383SOL    HW194727   4.078   0.585   6.802  0.3306 -0.3294  2.2532
31383SOL    HW294728   4.195   0.676   6.834  0.4529 -0.4121  2.0482
31384SOL     OW94729   2.398   2.026   5.180  0.8830  0.0423  0.3351
31384SOL    HW194730   2.378   1.957   5.244 -0.6935 -0.2930 -0.4810
31384SOL    HW294731   2.494   2.031   5.179  0.9990 -1.5729  1.0007
31385SOL     OW94732   9.717   9.151   3.196 -0.0002 -0.4108 -0.0674
31385SOL    HW194733   9.684   9.154   3.286  2.3065 -0.0478  0.8258
31385SOL    HW294734   9.683   9.230   3.156 -0.7895 -0.4069  0.5747
31386SOL     OW94735   9.033   4.947   1.857 -0.1073 -0.1858  0.2965
31386SOL    HW194736   9.015   4.970   1.766  1.4956  1.3575  0.3369
31386SOL    HW294737   9.028   5.030   1.904 -2.0775 -1.1066  1.8801
31387SOL     OW94738   3.029   8.574   9.723 -0.3349  0.6172 -0.0351
31387SOL    HW194739   3.020   8.525   9.804 -3.0258 -0.8656 -1.1195
31387SOL    HW294740   3.021   8.666   9.749  0.3915  0.2740  1.5181
31388SOL     OW94741   8.241   6.063   6.128 -0.1958 -0.3293 -0.0815
31388SOL    HW194742   8.299   6.042   6.201 -1.1909 -1.2746  0.4587
31388SOL    HW294743   8.232   5.980   6.080 -0.7937 -0.0922 -0.3855
31389SOL     OW94744   7.373   7.193   6.516  0.5434 -0.3017 -0.0527
31389SOL    HW194745   7.451   7.247   6.530 -0.1150  0.4411  0.8356
31389SOL    HW294746   7.406   7.117   6.469  1.2238  1.5790 -2.8367
31390SOL     OW94747   2.074   5.289   9.598 -0.2621  0.3176  0.1021
31390SOL    HW194748   2.116   5.250   9.675 -0.6794 -0.2705  0.0390
31390SOL    HW294749   2.119   5.373   9.587  0.6806 -0.1503  0.2246
31391SOL     OW94750   5.917   0.330   3.402 -0.2232  0.5741 -0.2388
31391SOL    HW194751   5.861   0.253   3.412  0.3124  0.1104 -0.7392
31391SOL    HW294752   5.865   0.402   3.438 -0.3060 -0.1940  1.2588
31392SOL     OW94753   8.181   6.682   4.960  0.0425 -0.2980  0.0970
31392SOL    HW194754   8.268   6.705   4.927 -0.1114  1.3835  0.7980
31392SOL    HW294755   8.138   6.766   4.977 -1.7883 -1.0796 -0.3643
31393SOL     OW94756   2.775   2.229   5.077  0.7760  0.1073  0.1694
31393SOL    HW194757   2.828   2.309   5.079  1.7792 -0.5019 -0.7924
31393SOL    HW294758   2.811   2.178   5.004  0.0294 -1.1342  0.6299
31394SOL     OW94759   7.040   3.825   5.289  0.2342  0.2525 -0.6074
31394SOL    HW194760   7.049   3.787   5.376 -0.1324  0.1121 -0.6268
31394SOL    HW294761   7.062   3.917   5.300 -2.6768  0.9622  0.2813
31395SOL     OW94762   4.063   8.629   2.863  0.6953  0.3913  0.0058
31395SOL    HW194763   3.984   8.618   2.810  0.5832  1.3629 -0.0546
31395SOL    HW294764   4.049   8.711   2.910  1.7602  0.6985 -0.1710
31396SOL     OW94765   3.376   5.918   1.438  0.1754  0.1663 -0.5847
31396SOL    HW194766   3.306   5.983   1.441 -0.7724 -0.8145 -0.8586
31396SOL    HW294767   3.399   5.902   1.530  0.1635  0.6165 -0.5039
31397SOL     OW94768   0.802   5.428   5.223 -0.4727 -0.6005  0.1122
31397SOL    HW194769   0.779   5.366   5.153  0.7981  0.0608 -0.9175
31397SOL    HW294770   0.747   5.504   5.207  1.1366  0.3036 -1.3331
31398SOL     OW94771   3.014   1.120   0.578 -0.0473 -0.0526 -0.0272
31398SOL    HW194772   2.981   1.202   0.542  2.3322  1.6416  1.3239
31398SOL    HW294773   2.954   1.099   0.650 -0.3069  0.8732  0.0344
31399SOL     OW94774   5.265   3.798   3.356  0.3406  0.4413 -0.0723
31399SOL    HW194775   5.252   3.875   3.299  1.3760  0.2322 -0.6058
31399SOL    HW294776   5.255   3.833   3.444  0.6012  1.1658 -0.3136
31400SOL     OW94777   9.039   4.969   2.572 -0.4858 -0.0266  0.2397
31400SOL    HW194778   9.061   4.890   2.522 -0.8706  0.1930 -0.2813
31400SOL    HW294779   8.946   4.961   2.591 -1.1136  1.4210 -1.8928
31401SOL     OW94780   4.096   7.248   2.876 -0.2445  0.6655  0.1080
31401SOL    HW194781   4.109   7.342   2.893  0.1859  0.3318  1.7573
31401SOL    HW294782   4.030   7.221   2.939 -0.0346 -0.2410 -0.0472
31402SOL     OW94783   5.529   0.137   4.643  0.0438  0.4571 -0.0471
31402SOL    HW194784   5.506   0.139   4.736 -0.3837  2.3831 -0.1344
31402SOL    HW294785   5.542   0.045   4.623  0.5898  0.0270  2.0219
31403SOL     OW94786   6.145   8.076   6.485 -0.4198 -0.0265 -0.0441
31403SOL    HW194787   6.104   8.040   6.564  0.2207 -1.4904 -0.3361
31403SOL    HW294788   6.088   8.046   6.414 -0.6038  0.6822 -0.1951
31404SOL     OW94789   8.995   7.951   1.540 -0.1583 -0.2600  0.0923
31404SOL    HW194790   9.004   7.891   1.466  0.0833 -0.4162  0.2480
31404SOL    HW294791   8.901   7.957   1.555 -0.1319 -2.1637  1.3591
31405SOL     OW94792   2.129   2.667   7.696 -0.8430 -0.1505 -0.8470
31405SOL    HW194793   2.206   2.633   7.650  1.3849  1.8573  1.0793
31405SOL    HW294794   2.095   2.735   7.639 -0.3150 -0.1231 -1.1381
31406SOL     OW94795   7.863   4.339   0.412 -0.0257  0.2368 -0.1941
31406SOL    HW194796   7.911   4.419   0.391  0.3217  0.5417  1.6259
31406SOL    HW294797   7.929   4.281   0.451 -0.8277  0.1522  1.0876
31407SOL     OW94798   9.457   6.999   5.428  0.2398 -0.6015  0.1547
31407SOL    HW194799   9.547   6.981   5.455  0.1932 -0.1404  0.6241
31407SOL    HW294800   9.407   6.922   5.456  0.0886  0.0787  1.9266
31408SOL     OW94801   7.551   2.494   6.805 -0.2095 -0.6504 -0.4770
31408SOL    HW194802   7.501   2.497   6.887 -1.4354 -1.4074 -1.1674
31408SOL    HW294803   7.589   2.406   6.805  0.5262 -0.3351 -0.3067
31409SOL     OW94804   6.046   3.897   0.950  0.0326  0.1936 -0.9131
31409SOL    HW194805   6.104   3.908   1.026 -1.3539 -0.7588  0.3353
31409SOL    HW294806   6.098   3.846   0.888  1.7672  2.2985 -1.3403
31410SOL     OW94807   7.907   4.655   8.196 -0.3251  0.0887 -0.5550
31410SOL    HW194808   7.844   4.674   8.266 -0.5489  1.4437 -1.0887
31410SOL    HW294809   7.931   4.741   8.161  2.8539 -0.2464  0.4739
31411SOL     OW94810   0.591   9.472   4.118  0.2704 -0.6391 -0.8542
31411SOL    HW194811   0.503   9.501   4.094  0.4795 -1.0844 -2.2475
31411SOL    HW294812   0.618   9.414   4.047  1.3245 -1.2711  0.0242
31412SOL     OW94813   1.634   7.277   5.603 -0.2820 -0.0870  0.4542
31412SOL    HW194814   1.601   7.322   5.526  0.0636 -0.8258 -0.1361
31412SOL    HW294815   1.722   7.313   5.615  0.2185 -1.0002 -0.3634
31413SOL     OW94816   2.920   4.308   5.511 -0.1410  0.2074 -0.3825
31413SOL    HW194817   3.015   4.293   5.502  0.0200  0.8699  0.1037
31413SOL    HW294818   2.908   4.325   5.604 -0.3014  2.8508 -0.8115
31414SOL     OW94819   1.396   8.115   3.166 -0.1341 -0.0331  0.2742
31414SOL    HW194820   1.419   8.171   3.240 -1.8703  0.5765  0.3917
31414SOL    HW294821   1.349   8.172   3.106 -1.3778 -1.1878  0.0904
31415SOL     OW94822   4.826   7.329   3.723 -0.1035  0.3460 -0.2963
31415SOL    HW194823   4.878   7.337   3.803  1.1517  0.3485 -1.0962
31415SOL    HW294824   4.878   7.372   3.655 -0.9887  0.0406 -1.1957
31416SOL     OW94825   2.133   7.131   9.526  0.2146 -0.2327  0.6659
31416SOL    HW194826   2.224   7.114   9.501  0.0409  0.0584 -0.1939
31416SOL    HW294827   2.104   7.049   9.566 -0.0117 -1.3980 -1.6726
31417SOL     OW94828   9.716   0.981   6.905 -0.2199  0.0335 -0.4757
31417SOL    HW194829   9.747   1.058   6.953 -0.5735 -0.4589  0.5756
31417SOL    HW294830   9.620   0.991   6.904 -0.4303 -1.2020  1.1849
31418SOL     OW94831   6.741   5.798   8.637 -0.1754  0.2974  0.1006
31418SOL    HW194832   6.748   5.856   8.561 -0.7572 -0.0415 -0.2098
31418SOL    HW294833   6.748   5.710   8.601 -0.3834  0.1393  0.4511
31419SOL     OW94834   7.959   0.643   9.044  0.4820 -0.1408 -0.8531
31419SOL    HW194835   7.940   0.574   9.107  0.9443  2.1851  2.0965
31419SOL    HW294836   8.045   0.620   9.008  1.1014 -0.6367  0.8485
31420SOL     OW94837   2.462   4.617   6.478  0.0257  0.0225 -0.0054
31420SOL    HW194838   2.516   4.683   6.522  2.0064 -1.7301  0.2942
31420SOL    HW294839   2.524   4.561   6.433 -1.7276 -0.6958 -1.6483
31421SOL     OW94840   2.558   4.349   4.153  0.0298 -0.3505 -0.0294
31421SOL    HW194841   2.517   4.387   4.231 -1.1430 -0.0111 -0.7932
31421SOL    HW294842   2.646   4.388   4.151 -0.7497  1.5136 -0.1803
31422SOL     OW94843   7.674   2.685   7.402  0.0814  0.5119  0.5344
31422SOL    HW194844   7.654   2.770   7.362  0.4338  1.2814  1.9146
31422SOL    HW294845   7.589   2.646   7.419 -0.1367 -0.9312 -3.0189
31423SOL     OW94846   5.681   0.689   6.773  0.1186  0.3076 -0.0064
31423SOL    HW194847   5.610   0.717   6.715 -0.5396  1.4974  1.3241
31423SOL    HW294848   5.760   0.698   6.720 -0.5499  0.5166 -0.9978
31424SOL     OW94849   6.336   0.469   9.686  0.1146  0.2293 -0.0212
31424SOL    HW194850   6.303   0.486   9.774 -0.4645 -3.2106  0.5915
31424SOL    HW294851   6.402   0.537   9.671 -1.9368  2.8111  1.7304
31425SOL     OW94852   4.202   5.455   5.952 -0.2475  0.7851 -0.0738
31425SOL    HW194853   4.282   5.462   5.900  0.3596 -0.1570  0.6935
31425SOL    HW294854   4.138   5.415   5.893  0.0143  1.0233 -0.5200
31426SOL     OW94855   8.957   3.035   3.614  0.2408 -0.3162 -0.1392
31426SOL    HW194856   8.907   2.978   3.673 -0.8665 -0.8783 -1.5331
31426SOL    HW294857   8.891   3.096   3.579  0.7916 -0.2041 -1.0082
31427SOL     OW94858   9.682   0.078   4.377  0.0429  0.1498  0.0512
31427SOL    HW194859   9.628   0.041   4.446  0.0206  0.2902  0.1091
31427SOL    HW294860   9.744   0.135   4.422  0.4630 -0.2776  0.0173
31428SOL     OW94861   5.766   4.639   4.484 -0.5900  0.2064  0.3037
31428SOL    HW194862   5.688   4.617   4.535  0.2858 -1.6160  0.9347
31428SOL    HW294863   5.835   4.649   4.548  0.5104 -1.9975 -0.4643
31429SOL     OW94864   5.486   0.577   2.873  0.9659 -0.2816  0.3594
31429SOL    HW194865   5.482   0.673   2.872 -0.1954 -0.3008 -1.4037
31429SOL    HW294866   5.572   0.557   2.836  1.0866  0.0841  0.4328
31430SOL     OW94867   7.609   2.964   3.842  0.0723 -0.4472 -0.4391
31430SOL    HW194868   7.579   2.948   3.932 -1.8797 -0.7539 -1.0909
31430SOL    HW294869   7.613   3.060   3.834  0.4460 -0.4206  0.0113
31431SOL     OW94870   9.469   3.419   4.097  0.0470  0.8591  0.4077
31431SOL    HW194871   9.555   3.434   4.136  0.7361 -0.2142 -0.6512
31431SOL    HW294872   9.477   3.335   4.052 -1.5505  0.7584  0.2493
31432SOL     OW94873   0.303   5.183   0.635  0.2747 -0.4760  0.0631
31432SOL    HW194874   0.262   5.254   0.586  2.5240  1.9334  1.4263
31432SOL    HW294875   0.313   5.112   0.571 -0.1252  1.1993 -1.9515
31433SOL     OW94876   7.461   0.087   0.296  0.5293  0.3796  0.1080
31433SOL    HW194877   7.478   0.178   0.320  1.1845 -0.1891  2.0076
31433SOL    HW294878   7.374   0.088   0.256 -0.3906  1.5706  2.0042
31434SOL     OW94879   2.981   5.609   0.205  0.4803 -0.2432  0.1915
31434SOL    HW194880   2.907   5.611   0.145 -0.1641  0.1369  0.9715
31434SOL    HW294881   3.038   5.680   0.175 -0.4772  0.8215  0.7904
31435SOL     OW94882   8.946   7.911   5.812  0.2599 -0.3642 -0.0578
31435SOL    HW194883   8.933   7.817   5.826  0.0664 -0.3454 -0.1003
31435SOL    HW294884   8.947   7.949   5.900 -1.9476 -0.1185 -0.0802
31436SOL     OW94885   0.292   5.589   5.749 -0.3166  0.1882  0.0603
31436SOL    HW194886   0.371   5.537   5.740  0.0172  0.6419  0.3199
31436SOL    HW294887   0.304   5.662   5.689 -0.6209  0.1674 -0.0316
31437SOL     OW94888   7.554   4.939   6.644 -0.2530  0.6925  0.2674
31437SOL    HW194889   7.552   4.884   6.566  0.7950 -0.9511  1.3338
31437SOL    HW294890   7.511   5.020   6.617  0.0300  0.1665 -1.9846
31438SOL     OW94891   5.933   7.837   2.515  0.2244 -0.3794 -0.4016
31438SOL    HW194892   5.877   7.870   2.585 -0.1851  0.8517 -1.2719
31438SOL    HW294893   6.017   7.882   2.528 -0.2687  0.9104 -1.4644
31439SOL     OW94894   9.309   7.683   9.636 -0.0139  0.8880 -0.6027
31439SOL    HW194895   9.270   7.629   9.567  0.1856 -0.7187  0.5036
31439SOL    HW294896   9.389   7.718   9.596  0.2358 -0.2251 -1.1256
31440SOL     OW94897   4.477   3.655   8.864 -0.3426  0.0598 -0.8429
31440SOL    HW194898   4.387   3.667   8.896 -0.2731  0.1513 -0.6829
31440SOL    HW294899   4.510   3.743   8.851  0.5281  0.1225  1.3452
31441SOL     OW94900   9.600   8.246   0.497 -0.6354 -0.4871  0.1858
31441SOL    HW194901   9.599   8.239   0.401  1.2678 -1.2490  0.1788
31441SOL    HW294902   9.616   8.338   0.514 -0.8984 -0.3598 -0.2296
31442SOL     OW94903   0.537   4.842   9.658  0.5268  0.2389  0.2254
31442SOL    HW194904   0.620   4.891   9.659  0.5481  0.2158 -0.2303
31442SOL    HW294905   0.470   4.909   9.670  0.6207  0.2317  0.8220
31443SOL     OW94906   5.959   5.055   1.941 -0.3832 -0.6572 -0.0775
31443SOL    HW194907   6.036   5.020   1.988  0.1593 -0.3274 -0.7083
31443SOL    HW294908   5.962   5.013   1.855 -0.1262  0.3760 -0.5945
31444SOL     OW94909   7.215   7.623   0.327  0.4079 -0.3077 -0.7339
31444SOL    HW194910   7.152   7.689   0.296  0.0398 -0.8526 -1.1629
31444SOL    HW294911   7.292   7.636   0.271  0.2495 -0.3933 -0.9730
31445SOL     OW94912   9.825   9.004   1.136  0.5250  0.4308  0.2893
31445SOL    HW194913   9.838   9.097   1.122  1.1459  0.5315  1.3978
31445SOL    HW294914   9.830   8.965   1.048 -0.9636  1.5502 -0.3229
31446SOL     OW94915   9.707   0.034   4.079 -0.3290 -0.0867  0.3500
31446SOL    HW194916   9.647  -0.037   4.058 -0.4233  0.5104 -1.5924
31446SOL    HW294917   9.694   0.050   4.172 -1.0156 -1.9374  0.6094
31447SOL     OW94918   6.949   2.962   7.540  0.0246 -0.6516  0.0239
31447SOL    HW194919   6.872   2.921   7.580  0.0682  0.5750  1.5082
31447SOL    HW294920   6.977   3.027   7.605  0.9562  0.5135 -1.4671
31448SOL     OW94921   2.586   8.721   1.507  0.4635  0.2317  0.1331
31448SOL    HW194922   2.610   8.632   1.481 -0.6356 -0.2228  0.6054
31448SOL    HW294923   2.569   8.715   1.601 -0.7519  0.6675 -0.0415
31449SOL     OW94924   2.539   3.959   6.136 -0.5627  0.2737 -0.3443
31449SOL    HW194925   2.578   3.874   6.158  1.2975  1.5299  1.6641
31449SOL    HW294926   2.456   3.937   6.095  0.1546 -2.5232 -0.5213
31450SOL     OW94927   3.734   4.674   2.716  1.0531  0.2158 -0.2218
31450SOL    HW194928   3.760   4.762   2.688  0.5731  0.2143 -0.6661
31450SOL    HW294929   3.663   4.689   2.778  0.3527  0.1099 -0.9821
31451SOL     OW94930   2.189   4.239   8.935  0.1321  0.3509 -0.2569
31451SOL    HW194931   2.246   4.262   8.862 -0.0576  1.1860 -0.1622
31451SOL    HW294932   2.185   4.144   8.935 -0.2082  0.3485 -1.6088
31452SOL     OW94933   6.916   1.134   8.221  0.3750  0.4876 -0.1449
31452SOL    HW194934   6.839   1.133   8.164  0.4370  2.3763 -0.3143
31452SOL    HW294935   6.936   1.226   8.233  2.9186  0.0534 -0.4835
31453SOL     OW94936   9.827   4.644   0.881 -0.8269 -0.0400 -0.2043
31453SOL    HW194937   9.911   4.682   0.909 -1.5096  0.7865  0.7747
31453SOL    HW294938   9.845   4.550   0.872  0.5525  0.2980 -1.3690
31454SOL     OW94939   4.271   0.834   1.821  0.0414 -0.0364 -0.5565
31454SOL    HW194940   4.339   0.773   1.795  0.4467  0.3091 -0.3088
31454SOL    HW294941   4.297   0.918   1.785  0.4497  0.3818  0.6494
31455SOL     OW94942   9.675   7.043   6.974 -0.4189  0.2116  0.1294
31455SOL    HW194943   9.688   6.949   6.980 -0.0081  0.3657  2.2808
31455SOL    HW294944   9.599   7.061   7.030  0.7557  1.3670  1.4324
31456SOL     OW94945   5.002   1.620   3.571  0.3238  0.3642 -0.1259
31456SOL    HW194946   4.980   1.545   3.515  0.7645  0.9442 -1.0943
31456SOL    HW294947   4.921   1.671   3.575 -0.0577 -0.2904  0.7590
31457SOL     OW94948   4.541   3.168   8.344 -0.5400 -0.0426 -0.1754
31457SOL    HW194949   4.468   3.202   8.395  0.3042  2.1120 -0.2907
31457SOL    HW294950   4.500   3.118   8.274 -1.8745  0.3971  0.2612
31458SOL     OW94951   2.560   6.383   4.878 -0.1749  0.1670  0.5289
31458SOL    HW194952   2.614   6.373   4.956  0.1246 -0.5993  0.2364
31458SOL    HW294953   2.609   6.337   4.809 -2.2360 -2.5542  0.7385
31459SOL     OW94954   5.676   9.065   9.487  0.0153  0.5648  0.4380
31459SOL    HW194955   5.764   9.039   9.515  0.1566 -0.4296 -0.7857
31459SOL    HW294956   5.683   9.158   9.467  0.2305  0.9936  2.3198
31460SOL     OW94957   3.230   9.138   4.507  0.1055  0.1543  0.0065
31460SOL    HW194958   3.158   9.129   4.569 -0.2824 -1.7779 -0.6610
31460SOL    HW294959   3.308   9.120   4.558 -0.1178 -0.3284  0.1854
31461SOL     OW94960   0.247   3.527   9.177  0.1638 -0.2639  0.3158
31461SOL    HW194961   0.287   3.441   9.168  2.8911  1.0214 -1.2369
31461SOL    HW294962   0.245   3.562   9.088 -0.5476  1.4283  0.9543
31462SOL     OW94963   3.184   8.233   7.128 -0.0873 -0.3013 -0.0352
31462SOL    HW194964   3.106   8.235   7.183  1.4318  1.3919  2.2632
31462SOL    HW294965   3.224   8.148   7.146 -0.1930 -0.2106  0.6861
31463SOL     OW94966   1.222   1.585   6.995 -0.1182  0.4789  0.0060
31463SOL    HW194967   1.203   1.560   7.085  0.8619  0.3872  0.1946
31463SOL    HW294968   1.163   1.532   6.942 -0.6449  0.4796  0.5911
31464SOL     OW94969   2.199   2.292   0.533 -0.3032 -0.1722 -0.4616
31464SOL    HW194970   2.250   2.246   0.600 -1.2184  1.1110  1.2100
31464SOL    HW294971   2.260   2.305   0.461  0.5930 -1.9984 -0.0895
31465SOL     OW94972   5.855   6.244   9.429  0.2667  0.1533  0.3221
31465SOL    HW194973   5.871   6.308   9.361  0.8206 -0.1334  0.1770
31465SOL    HW294974   5.791   6.286   9.487  0.6222  0.8293  0.2329
31466SOL     OW94975   6.941   2.241   0.289 -0.2292  0.3675  0.5678
31466SOL    HW194976   6.861   2.234   0.342  0.2352  0.6648  1.3151
31466SOL    HW294977   6.966   2.333   0.296  0.1336  0.2960  0.2557
31467SOL     OW94978   7.028   4.272   1.209  0.1428 -0.2074  0.1061
31467SOL    HW194979   6.995   4.215   1.279 -1.6748  0.4378 -0.1766
31467SOL    HW294980   6.951   4.290   1.155  0.3743  3.2392  0.6892
31468SOL     OW94981   4.016   2.135   0.731 -0.3342 -0.0302  0.6887
31468SOL    HW194982   3.972   2.175   0.657  1.9882  1.1480 -0.1758
31468SOL    HW294983   4.017   2.202   0.799 -1.7399 -0.8230  1.5380
31469SOL     OW94984   8.519   6.221   9.056 -0.2378  0.1734 -0.1260
31469SOL    HW194985   8.464   6.155   9.015 -0.4509  0.9097 -1.0579
31469SOL    HW294986   8.555   6.178   9.134 -1.1179 -0.7156 -0.2019
31470SOL     OW94987   3.819   6.916   9.141  0.1058 -0.5416 -0.7679
31470SOL    HW194988   3.824   6.857   9.216  0.1853 -1.1425 -1.2409
31470SOL    HW294989   3.738   6.890   9.096 -1.2503  1.3780  0.3992
31471SOL     OW94990   1.328   4.432   6.200  0.0351 -0.6651  0.2997
31471SOL    HW194991   1.395   4.373   6.164  0.4844 -0.0081  0.0266
31471SOL    HW294992   1.366   4.519   6.190 -0.0143 -0.4246  2.0146
31472SOL     OW94993   2.554   8.706   9.469 -0.0265  0.1170 -0.0081
31472SOL    HW194994   2.588   8.760   9.397  0.6376 -0.3173 -0.0300
31472SOL    HW294995   2.620   8.714   9.538  0.0000 -0.5517  0.0437
31473SOL     OW94996   2.666   2.663   7.655 -0.3665 -0.5083 -0.2061
31473SOL    HW194997   2.762   2.657   7.649 -0.3165  0.4671 -0.4825
31473SOL    HW294998   2.650   2.747   7.698 -1.0813 -1.2229  0.9616
31474SOL     OW94999   8.900   2.684   9.200  0.2084 -0.5381 -0.8877
31474SOL    HW195000   8.938   2.611   9.250  0.3084  0.5238  0.6807
31474SOL    HW295001   8.976   2.726   9.159  0.1773 -1.1367 -1.5888
31475SOL     OW95002   1.819   2.270   8.590  0.1750  0.3951 -0.1790
31475SOL    HW195003   1.786   2.181   8.578  0.3094  0.6059 -2.7262
31475SOL    HW295004   1.774   2.303   8.668 -1.8432 -1.0168 -0.6792
31476SOL     OW95005   2.499   9.786   0.410 -0.0295 -0.8021 -0.1775
31476SOL    HW195006   2.408   9.764   0.427  0.3120 -2.0970  0.0520
31476SOL    HW295007   2.503   9.881   0.423 -1.7083 -0.4177 -1.9474
31477SOL     OW95008   7.599   3.527   1.315 -0.4226 -0.1626 -0.2865
31477SOL    HW195009   7.646   3.607   1.293  0.8607 -0.2026  2.0742
31477SOL    HW295010   7.647   3.457   1.270  0.4151  0.0498  0.2687
31478SOL     OW95011   2.914   9.817   7.289  0.3568 -0.1120  0.0110
31478SOL    HW195012   2.925   9.723   7.302 -0.7295 -0.2357  0.2016
31478SOL    HW295013   2.926   9.830   7.195  1.7851 -0.2298  0.1550
31479SOL     OW95014   1.036   5.438   1.054  0.0664 -0.0563  0.8367
31479SOL    HW195015   0.957   5.414   1.007  0.2051  0.0708  0.5343
31479SOL    HW295016   1.093   5.477   0.987  0.1575  0.3782  1.1639
31480SOL     OW95017   2.264   4.665   9.295  0.2482 -0.2010  0.0458
31480SOL    HW195018   2.245   4.602   9.225 -1.6392  0.6683 -0.2801
31480SOL    HW295019   2.356   4.649   9.317  0.8581 -0.6269 -2.5032
31481SOL     OW95020   4.974   2.141   3.649  0.3660 -0.0913 -0.3453
31481SOL    HW195021   4.966   2.107   3.559  0.5175  1.4914 -0.9813
31481SOL    HW295022   5.037   2.213   3.642  1.2081 -0.6197  1.2489
31482SOL     OW95023   9.312   6.563   4.565 -0.1358 -0.6363 -0.2614
31482SOL    HW195024   9.306   6.659   4.568 -2.3574 -0.7235  0.1583
31482SOL    HW295025   9.270   6.540   4.482  1.5637 -1.2259 -0.9985
31483SOL     OW95026   6.777   0.694   6.540 -0.6790 -0.2078 -0.0588
31483SOL    HW195027   6.840   0.741   6.595  1.1974 -2.1542 -0.4335
31483SOL    HW295028   6.731   0.635   6.599  0.7275 -1.6736 -0.3745
31484SOL     OW95029   9.742   7.100   5.922  0.2041  0.4583 -0.7897
31484SOL    HW195030   9.678   7.172   5.928  0.8050  0.9876 -0.6434
31484SOL    HW295031   9.743   7.063   6.010  0.4324  0.7421 -0.6719
31485SOL     OW95032   6.492   1.462   7.813  0.2146 -0.0327 -0.4347
31485SOL    HW195033   6.475   1.533   7.875  0.2188 -0.7964  0.4739
31485SOL    HW295034   6.406   1.424   7.796  0.2391  0.0481 -0.7292
31486SOL     OW95035   9.677   7.693   1.010  0.3821 -0.1151 -0.3908
31486SOL    HW195036   9.766   7.684   0.977  1.2289 -0.8122  1.8660
31486SOL    HW295037   9.666   7.787   1.023  0.6161  0.0149 -1.0919
31487SOL     OW95038   3.693   8.428   2.383  0.3084  0.3438 -0.7843
31487SOL    HW195039   3.726   8.445   2.295 -1.1301  1.3375 -1.1570
31487SOL    HW295040   3.772   8.416   2.436  1.2140  0.7402 -2.0045
31488SOL     OW95041   9.455   7.238   8.302  0.3955  0.0708 -0.2693
31488SOL    HW195042   9.377   7.183   8.299 -0.2125  0.9440 -0.9771
31488SOL    HW295043   9.422   7.327   8.301  1.3575  0.4770  1.0678
31489SOL     OW95044   1.582   0.543   9.348  0.1332 -0.1138  0.0803
31489SOL    HW195045   1.520   0.613   9.331 -0.5290 -0.9574 -1.0954
31489SOL    HW295046   1.601   0.550   9.442 -0.2730  1.3228  0.0726
31490SOL     OW95047   2.082   2.139   7.136 -0.2073 -0.2089 -0.0792
31490SOL    HW195048   2.099   2.229   7.109  0.8353  0.1679  1.6633
31490SOL    HW295049   2.165   2.110   7.174 -1.3137 -0.9263  1.9531
31491SOL     OW95050   3.079   7.439   5.095  0.1361  0.0982  0.0460
31491SOL    HW195051   3.154   7.468   5.042 -0.0737  0.7759  0.1145
31491SOL    HW295052   3.017   7.404   5.031  0.2969 -0.0032 -0.0563
31492SOL     OW95053   1.489   0.131   7.299 -0.3186 -0.0846 -0.1502
31492SOL    HW195054   1.529   0.217   7.301 -0.0208 -0.2272  2.3200
31492SOL    HW295055   1.562   0.070   7.287 -0.3602 -0.0868 -0.4035
31493SOL     OW95056   2.278   2.722   1.941 -0.2559  0.3994 -0.0616
31493SOL    HW195057   2.364   2.681   1.935 -0.2473  0.3295  0.4607
31493SOL    HW295058   2.279   2.767   2.026 -1.2852 -0.9205  0.7056
31494SOL     OW95059   1.716   2.597   1.555  0.3148 -0.1271 -0.0301
31494SOL    HW195060   1.782   2.528   1.547  1.1144  0.5473  0.4879
31494SOL    HW295061   1.760   2.676   1.522 -0.8395 -0.0013 -1.3467
31495SOL     OW95062   5.856   6.445   4.917 -0.2312  0.3263 -0.0453
31495SOL    HW195063   5.887   6.480   5.000  0.9266 -1.3487  0.2839
31495SOL    HW295064   5.805   6.368   4.940  2.0157 -1.5415 -0.8904
31496SOL     OW95065   9.370   9.234   7.801 -0.5338  0.5119 -0.2065
31496SOL    HW195066   9.288   9.279   7.784 -0.9752  0.0728  0.6814
31496SOL    HW295067   9.416   9.289   7.865 -0.5838  0.2556  0.0521
31497SOL     OW95068   2.573   0.254  -0.007 -0.3107  0.4528 -0.3079
31497SOL    HW195069   2.528   0.305   0.060 -1.2377  1.7310 -1.8200
31497SOL    HW295070   2.507   0.191  -0.038  0.6119 -1.2982  1.0513
31498SOL     OW95071   9.267   1.970   2.597 -0.1547 -0.5973  0.1962
31498SOL    HW195072   9.299   2.017   2.519 -0.7961  0.7915  0.7484
31498SOL    HW295073   9.239   1.884   2.563 -0.1615 -0.1213 -1.0567
31499SOL     OW95074   0.223   8.124   9.614 -0.2123 -0.0584 -0.6912
31499SOL    HW195075   0.174   8.142   9.533 -0.3565  1.2945 -0.3303
31499SOL    HW295076   0.189   8.040   9.644 -2.9574  1.1934 -0.0234
31500SOL     OW95077   3.768   1.836   1.269 -0.1509  0.0711 -0.1140
31500SOL    HW195078   3.746   1.749   1.238 -2.1785  1.0969 -1.8265
31500SOL    HW295079   3.729   1.840   1.357  0.0472 -0.7651  0.0191
31501SOL     OW95080   6.394   2.818   2.200  0.1715  0.1829 -0.2222
31501SOL    HW195081   6.414   2.904   2.237 -1.8803  1.1252 -1.1605
31501SOL    HW295082   6.473   2.795   2.151  0.7429  1.5718 -0.0151
31502SOL     OW95083   5.388   3.103   7.290 -0.1611  0.2721 -0.4499
31502SOL    HW195084   5.405   3.051   7.369 -1.5116 -0.4636 -0.6117
31502SOL    HW295085   5.303   3.144   7.307 -1.1298 -0.9987 -2.0803
31503SOL     OW95086   9.631   1.527   4.491  0.2211  0.3343 -0.0758
31503SOL    HW195087   9.671   1.478   4.563  0.9721  2.6505  1.2005
31503SOL    HW295088   9.554   1.476   4.467  0.3535 -0.8969  1.8890
31504SOL     OW95089   9.460   4.839   4.996 -0.1827 -0.0794 -0.2108
31504SOL    HW195090   9.414   4.806   5.074 -0.7812  0.7972 -0.1796
31504SOL    HW295091   9.393   4.840   4.928  0.1783 -0.2309 -0.5688
31505SOL     OW95092   4.997   6.874   6.887 -0.2506  0.4584 -0.0551
31505SOL    HW195093   4.936   6.914   6.824  0.1760  1.6262  0.2464
31505SOL    HW295094   5.071   6.934   6.890  1.0221 -1.0227 -0.5415
31506SOL     OW95095   0.506   8.775   2.101  0.7494 -1.0836  0.5102
31506SOL    HW195096   0.592   8.806   2.071  0.2966  0.0700  0.3691
31506SOL    HW295097   0.483   8.707   2.037  0.6465  0.0384 -0.6870
31507SOL     OW95098   3.129   5.960   1.699 -0.1659 -0.7534  0.8886
31507SOL    HW195099   3.088   5.940   1.615 -2.8070  0.6885  1.7364
31507SOL    HW295100   3.223   5.952   1.682 -0.6597 -1.7445 -1.8371
31508SOL     OW95101   4.552   7.489   9.698 -0.2194 -0.2628 -0.3377
31508SOL    HW195102   4.628   7.508   9.643  0.1000  0.2326  0.2530
31508SOL    HW295103   4.481   7.472   9.636  0.3736 -0.7440 -0.8942
31509SOL     OW95104   1.127   4.843   4.067 -0.3112 -0.0244 -0.1536
31509SOL    HW195105   1.037   4.821   4.046 -0.3058  0.6639 -0.9005
31509SOL    HW295106   1.133   4.828   4.162 -0.6736 -1.9186 -0.3800
31510SOL     OW95107   5.819   3.475   6.720  0.4133  0.2454  0.5091
31510SOL    HW195108   5.870   3.458   6.799  1.0887  2.6564  0.6808
31510SOL    HW295109   5.874   3.443   6.649  1.5677  1.4609  0.8028
31511SOL     OW95110   8.158   0.967   1.389  0.2194  0.1245  0.1228
31511SOL    HW195111   8.118   0.883   1.367 -0.4942  0.6708 -0.7407
31511SOL    HW295112   8.244   0.944   1.426  0.0289 -0.9739 -0.0869
31512SOL     OW95113   6.827   5.241   3.614  0.2752 -0.0045 -0.2980
31512SOL    HW195114   6.901   5.261   3.557  0.3158  0.2251 -0.1667
31512SOL    HW295115   6.800   5.326   3.649 -0.6316  0.0376 -1.0603
31513SOL     OW95116   6.566   0.257   8.687  0.0510 -0.0681 -0.5188
31513SOL    HW195117   6.509   0.236   8.613  1.3309  2.5055 -2.3979
31513SOL    HW295118   6.638   0.307   8.649  3.2116 -2.3633  1.8481
31514SOL     OW95119   4.694   2.083   7.302 -0.2716  0.2275  0.0702
31514SOL    HW195120   4.677   2.051   7.390  0.5968 -0.1283  0.1130
31514SOL    HW295121   4.686   2.005   7.246  1.6100 -0.0500  0.1459
31515SOL     OW95122   9.377   7.917   0.050 -0.8074 -0.6587  0.5215
31515SOL    HW195123   9.457   7.896   0.097 -0.5998 -0.2656  0.3548
31515SOL    HW295124   9.363   7.843  -0.009 -0.8453 -0.9619  0.9121
31516SOL     OW95125   4.640   7.873   0.402  0.3290  0.5258  0.6737
31516SOL    HW195126   4.564   7.896   0.456  1.9674  0.5006  3.0858
31516SOL    HW295127   4.636   7.778   0.395 -0.1951  0.5728  0.2358
31517SOL     OW95128   8.678   6.628   2.514  0.0334 -0.2380  0.5441
31517SOL    HW195129   8.629   6.679   2.450  1.4811  0.1030 -0.3366
31517SOL    HW295130   8.677   6.539   2.478  1.1753  0.0251 -0.2019
31518SOL     OW95131   8.612   2.228   8.432 -0.2077  0.0442 -0.6578
31518SOL    HW195132   8.704   2.203   8.421 -0.5135 -1.2274 -0.4852
31518SOL    HW295133   8.571   2.151   8.471 -1.3628  0.5814 -0.7807
31519SOL     OW95134   8.032   6.715   8.560  0.3899 -0.1746 -0.4988
31519SOL    HW195135   7.991   6.640   8.605  0.7294  0.2221  0.5016
31519SOL    HW295136   8.005   6.705   8.469 -0.7851 -0.7036 -0.1183
31520SOL     OW95137   4.079   3.406   4.340  0.7547 -0.0695 -0.1678
31520SOL    HW195138   4.052   3.319   4.311  3.1782 -1.2098  0.6707
31520SOL    HW295139   4.105   3.394   4.431  0.4238  1.7226  0.2016
31521SOL     OW95140  -0.013   6.557   3.742 -0.0796 -0.0560  0.0345
31521SOL    HW195141   0.081   6.541   3.741 -0.0719  0.0046 -0.5504
31521SOL    HW295142  -0.051   6.477   3.778  0.0881 -0.7298 -1.2424
31522SOL     OW95143   8.457   3.612   4.276 -0.4816 -0.3973  0.7840
31522SOL    HW195144   8.479   3.700   4.309 -0.5446 -0.1349  0.1503
31522SOL    HW295145   8.369   3.595   4.309 -1.1604  0.5039 -0.4773
31523SOL     OW95146   9.183   1.714   7.716 -0.5264 -0.3978  0.0389
31523SOL    HW195147   9.247   1.681   7.654 -0.3291  0.4435 -0.2251
31523SOL    HW295148   9.115   1.754   7.661 -0.6350 -0.1591  0.3435
31524SOL     OW95149   0.906   2.797   0.911 -0.1052 -0.1423  0.1533
31524SOL    HW195150   0.863   2.747   0.980  0.1182 -1.2711 -0.4858
31524SOL    HW295151   0.836   2.816   0.848 -0.6285  2.1961  1.3592
31525SOL     OW95152   7.414   4.428   7.349 -0.1614 -0.0801 -0.3920
31525SOL    HW195153   7.456   4.390   7.427  1.6054  0.9264 -0.8066
31525SOL    HW295154   7.396   4.352   7.293  0.7827 -0.5981 -0.0234
31526SOL     OW95155   5.546   6.830   6.829 -0.0102  0.1783  0.1862
31526SOL    HW195156   5.593   6.850   6.748  0.6922 -0.2852  0.4719
31526SOL    HW295157   5.599   6.870   6.898 -0.7451  0.8034  0.4009
31527SOL     OW95158   9.133   2.699   7.490 -0.2162 -0.3505  0.1405
31527SOL    HW195159   9.122   2.779   7.541 -0.0271 -1.5888  2.2412
31527SOL    HW295160   9.118   2.628   7.553  0.9228 -1.9843 -1.3225
31528SOL     OW95161   1.347   2.922   7.799  0.2220  0.3384  0.5403
31528SOL    HW195162   1.393   2.868   7.734 -1.1865  0.0719 -0.2668
31528SOL    HW295163   1.284   2.973   7.748  0.8539  2.0629  1.4073
31529SOL     OW95164   0.904   3.065   5.566  0.3030 -0.2376 -0.2692
31529SOL    HW195165   0.911   2.987   5.621 -0.2919  0.1244  0.3441
31529SOL    HW295166   0.838   3.119   5.610  0.5428  0.5088 -0.8039
31530SOL     OW95167   7.460   5.207   6.393  0.4890 -0.7045  0.5417
31530SOL    HW195168   7.510   5.222   6.312  1.9668 -1.9824  1.1575
31530SOL    HW295169   7.383   5.158   6.365 -2.0885  3.6192 -0.8391
31531SOL     OW95170   0.410   1.007   5.391  0.4159 -0.8597 -0.4235
31531SOL    HW195171   0.423   1.096   5.426  0.5925 -1.1430  0.2529
31531SOL    HW295172   0.451   0.950   5.456 -1.0989 -1.5531 -0.0327
31532SOL     OW95173   9.750   2.347   1.636 -0.1693 -0.3671  0.3284
31532SOL    HW195174   9.761   2.350   1.541 -2.0873 -1.1965  0.0132
31532SOL    HW295175   9.829   2.304   1.668 -0.3207 -1.8442 -1.1128
31533SOL     OW95176   3.052   5.193   9.724  0.3136 -0.3491 -0.2333
31533SOL    HW195177   2.996   5.151   9.659 -0.3340  0.1944 -0.0448
31533SOL    HW295178   3.083   5.273   9.682 -0.3239  0.1413  0.2002
31534SOL     OW95179   8.119   5.040   4.866  0.0960  0.3342 -0.0753
31534SOL    HW195180   8.148   5.008   4.780  0.6784  0.3357  0.1180
31534SOL    HW295181   8.147   4.972   4.927 -1.2052 -0.1549  0.0057
31535SOL     OW95182   0.804   4.083   8.906 -0.3034 -0.0794  0.1816
31535SOL    HW195183   0.718   4.063   8.871  0.3874 -0.0294 -1.6250
31535SOL    HW295184   0.854   4.003   8.896  0.0671  0.0869  0.6336
31536SOL     OW95185   3.697   7.062   4.223  0.7118 -0.1292 -0.3248
31536SOL    HW195186   3.743   7.043   4.142 -0.1851  0.3793 -0.9794
31536SOL    HW295187   3.753   7.026   4.292  1.7991 -0.0004 -1.1166
31537SOL     OW95188   5.964   0.310   1.911  0.2089  0.4109 -0.4100
31537SOL    HW195189   5.931   0.310   1.821  1.7129 -0.7118 -1.0036
31537SOL    HW295190   5.886   0.304   1.966 -0.7771  1.6546 -1.5934
31538SOL     OW95191   0.908   7.620   9.416 -0.2584  0.7499 -0.0224
31538SOL    HW195192   0.947   7.534   9.424  2.4377  1.8964  0.1918
31538SOL    HW295193   0.884   7.644   9.505  0.9932  1.0621  0.2432
31539SOL     OW95194   9.013   4.148   2.506 -0.2784 -0.4505 -0.0753
31539SOL    HW195195   8.996   4.236   2.541 -1.5874 -0.5188 -0.4789
31539SOL    HW295196   8.950   4.139   2.434 -1.0208 -2.1608  0.7275
31540SOL     OW95197   9.976   3.639   7.870 -0.6884 -0.5225 -0.2300
31540SOL    HW195198   9.945   3.693   7.797 -2.0786 -0.9406  0.0271
31540SOL    HW295199   9.897   3.600   7.907 -0.3434  1.3687  2.8987
31541SOL     OW95200   3.206   1.082   4.600  0.6353  0.6318 -0.0171
31541SOL    HW195201   3.114   1.070   4.624  0.6918  1.4857  0.7188
31541SOL    HW295202   3.204   1.098   4.506  0.0021  0.8329  0.0203
31542SOL     OW95203   0.436   2.625   7.589 -0.3453  0.2858  0.2369
31542SOL    HW195204   0.503   2.561   7.567 -0.9237  0.4398 -2.2808
31542SOL    HW295205   0.485   2.700   7.622  0.4166 -0.9334  2.0249
31543SOL     OW95206   3.358   9.205   4.247 -0.2338 -0.0891 -0.1873
31543SOL    HW195207   3.330   9.196   4.339 -2.2134 -0.0112 -0.7418
31543SOL    HW295208   3.454   9.198   4.251  0.0022  2.5957  2.2020
31544SOL     OW95209   8.662   4.160   8.825  0.3864 -0.3804 -0.0914
31544SOL    HW195210   8.679   4.122   8.739  0.6615  0.4956 -0.4346
31544SOL    HW295211   8.577   4.204   8.816  0.5726 -0.0059 -0.0105
31545SOL     OW95212   3.413   0.984   3.187 -0.0117 -0.4028  0.3051
31545SOL    HW195213   3.324   0.973   3.220 -0.2262 -0.5900 -0.3380
31545SOL    HW295214   3.456   0.901   3.206 -0.2493 -0.6535 -0.2294
31546SOL     OW95215   8.697   8.591   5.020 -0.2487  0.2119 -0.1844
31546SOL    HW195216   8.728   8.503   5.043  1.8909  0.4669 -1.7945
31546SOL    HW295217   8.762   8.650   5.059 -1.5074  1.1083  0.6444
31547SOL     OW95218   9.916   7.823   1.356  0.4974 -0.0823  0.3340
31547SOL    HW195219   9.900   7.863   1.271 -0.5987  0.0112  0.5576
31547SOL    HW295220   9.996   7.772   1.344 -0.7761 -1.8518 -1.4185
31548SOL     OW95221   0.350   4.078   6.030 -0.3314  0.5900 -0.1818
31548SOL    HW195222   0.287   4.121   5.971  0.7667  2.0024 -0.3837
31548SOL    HW295223   0.300   4.007   6.070 -1.9681  1.4579 -0.5649
31549SOL     OW95224   9.804   2.915   0.967  0.6648 -0.7397  0.1819
31549SOL    HW195225   9.732   2.911   1.030  0.6485 -0.1979  0.2039
31549SOL    HW295226   9.774   2.977   0.900  0.6669 -1.3447 -0.3809
31550SOL     OW95227   7.356   9.237   4.203  0.2017  0.0824  0.3266
31550SOL    HW195228   7.367   9.306   4.138 -0.7052  0.5484  0.6619
31550SOL    HW295229   7.288   9.180   4.167  0.1446 -0.0081  0.5725
31551SOL     OW95230   9.751   6.344   0.415 -0.2243  0.0242 -0.1723
31551SOL    HW195231   9.683   6.283   0.445  0.8762 -1.0045  0.3375
31551SOL    HW295232   9.800   6.294   0.350  1.4330 -0.1055  1.0968
31552SOL     OW95233   5.764   8.086   3.731  0.5863  0.3443  0.6316
31552SOL    HW195234   5.836   8.032   3.764 -1.1696 -2.0702  0.7548
31552SOL    HW295235   5.724   8.124   3.810  0.6838  0.3082  0.6984
31553SOL     OW95236   5.119   2.313   2.673  0.0797 -0.5605 -0.1501
31553SOL    HW195237   5.030   2.347   2.663  0.0118 -0.5542  0.4056
31553SOL    HW295238   5.143   2.337   2.763  1.0640  0.4199 -0.6542
31554SOL     OW95239   8.223   8.153   2.771 -0.1209 -0.2588 -0.6001
31554SOL    HW195240   8.260   8.134   2.858 -0.5497  0.4255 -0.2597
31554SOL    HW295241   8.268   8.232   2.742 -2.3736  1.5323  0.5225
31555SOL     OW95242   3.738   0.516   3.571 -0.0453 -0.7017  1.0274
31555SOL    HW195243   3.820   0.470   3.588  1.1275  0.3764 -1.2281
31555SOL    HW295244   3.677   0.447   3.544  0.8213 -1.2721  0.4753
31556SOL     OW95245   4.796   2.642   1.367 -0.2690  0.2561  0.4753
31556SOL    HW195246   4.714   2.593   1.376  1.1279 -2.3464  0.1034
31556SOL    HW295247   4.788   2.685   1.282 -0.7958 -0.9951 -0.1515
31557SOL     OW95248   3.769   8.500   9.538  0.4818 -0.2218  0.2356
31557SOL    HW195249   3.685   8.457   9.556  0.2150 -0.4737 -1.4262
31557SOL    HW295250   3.774   8.502   9.443  3.1623 -1.7855  0.2668
31558SOL     OW95251   4.146   6.132   3.726 -0.1473 -0.0048 -0.0890
31558SOL    HW195252   4.237   6.113   3.747  0.5537  2.5601 -0.5374
31558SOL    HW295253   4.096   6.087   3.794  1.4577 -1.1087  0.4150
31559SOL     OW95254   3.508   1.664   1.011  0.7235 -0.3358 -0.3386
31559SOL    HW195255   3.478   1.719   1.083  1.5294  1.0126 -0.9910
31559SOL    HW295256   3.582   1.712   0.973 -0.1471 -0.6031 -2.5507
31560SOL     OW95257   5.835   5.901   4.961 -0.2454  0.2858 -0.0026
31560SOL    HW195258   5.776   5.835   4.998  0.2722 -0.6551 -0.8243
31560SOL    HW295259   5.919   5.856   4.952  1.3760  2.2367  3.3887
31561SOL     OW95260   6.052   0.687   7.322  0.1563 -0.0776 -0.2519
31561SOL    HW195261   6.124   0.726   7.371 -0.6829  0.6923  0.3919
31561SOL    HW295262   6.042   0.743   7.245 -0.3205  0.3375  0.1067
31562SOL     OW95263   8.089   6.678   7.516  0.2634 -0.6335  0.5763
31562SOL    HW195264   8.068   6.764   7.478  2.2245  0.1694  1.1795
31562SOL    HW295265   8.004   6.640   7.536 -0.7099  0.5548 -1.0060
31563SOL     OW95266   4.430   5.073   3.133 -0.0258  0.3365  0.4246
31563SOL    HW195267   4.483   5.070   3.212 -0.1461  1.0872  0.5411
31563SOL    HW295268   4.449   5.158   3.094  0.2572 -0.1468 -0.5159
31564SOL     OW95269   1.021   1.784   5.730 -0.4512  0.1558 -0.3794
31564SOL    HW195270   0.975   1.845   5.789 -1.2896 -0.5795 -0.2582
31564SOL    HW295271   0.967   1.706   5.730  0.8434 -0.7649 -0.1969
31565SOL     OW95272   1.535   4.781   4.247 -0.1284 -0.4347  0.5128
31565SOL    HW195273   1.601   4.726   4.289  1.0465  0.2857 -0.3197
31565SOL    HW295274   1.562   4.785   4.155 -0.4905  1.0602  0.4338
31566SOL     OW95275   2.865   5.344   5.966  0.0072  0.0711 -0.1360
31566SOL    HW195276   2.814   5.305   5.895  0.1577  0.4542 -0.4586
31566SOL    HW295277   2.882   5.272   6.026 -1.7594  0.1230  0.4940
31567SOL     OW95278   3.309   0.302   4.251  0.1471 -0.6760  0.4329
31567SOL    HW195279   3.356   0.259   4.180 -2.6689  0.6478 -2.4984
31567SOL    HW295280   3.256   0.232   4.290  0.7968 -1.1776  0.4371
31568SOL     OW95281   4.855   3.792   6.473  0.6657  0.0119  0.6854
31568SOL    HW195282   4.897   3.755   6.551  1.9866  0.4066  0.1885
31568SOL    HW295283   4.912   3.864   6.446 -0.9728  1.3617  0.6476
31569SOL     OW95284   3.276   2.051   2.491 -0.2617  0.1243  0.0189
31569SOL    HW195285   3.232   1.972   2.459 -0.4692  0.9472 -1.8717
31569SOL    HW295286   3.369   2.033   2.480 -0.1757 -0.7720  1.9355
31570SOL     OW95287   1.728   0.153   3.081 -0.5563 -0.1907  0.0926
31570SOL    HW195288   1.692   0.131   3.167 -0.7850 -0.7776 -0.1509
31570SOL    HW295289   1.721   0.072   3.030 -1.7915  0.5324 -0.9608
31571SOL     OW95290   8.660   9.223   9.346  0.2636 -0.1794  0.0474
31571SOL    HW195291   8.705   9.274   9.279  0.4424  0.4183  0.6132
31571SOL    HW295292   8.573   9.262   9.352  0.9273  1.1646  1.6340
31572SOL     OW95293   5.603   2.961   3.205  0.2721  0.0173 -0.8058
31572SOL    HW195294   5.654   2.992   3.131 -1.3092  3.4887 -0.6463
31572SOL    HW295295   5.513   2.957   3.172 -0.2536  0.2910  0.5349
31573SOL     OW95296   8.680   4.841   1.562 -0.1034 -0.1928  0.6007
31573SOL    HW195297   8.590   4.866   1.585 -0.5646 -1.6633  0.5229
31573SOL    HW295298   8.670   4.758   1.514  1.3018 -0.4231  0.6643
31574SOL     OW95299   9.481   4.617   6.478 -0.2827  0.1150  0.2772
31574SOL    HW195300   9.475   4.692   6.538 -0.3387  0.5858 -0.3130
31574SOL    HW295301   9.478   4.655   6.391  0.8116 -0.4783 -0.0377
31575SOL     OW95302   2.934   3.915   2.953  0.2624  0.1592  0.0650
31575SOL    HW195303   2.900   3.934   2.866  1.1454  0.2805 -0.2687
31575SOL    HW295304   2.891   3.834   2.979  0.0785  0.0586 -0.5361
31576SOL     OW95305   3.677   7.548   1.902  0.6509  0.3326  0.0867
31576SOL    HW195306   3.612   7.616   1.883 -1.3892 -1.3847  0.4031
31576SOL    HW295307   3.663   7.527   1.995  0.6900 -0.9831 -0.1798
31577SOL     OW95308   2.175   2.033   4.739  0.6636 -0.3330 -0.4070
31577SOL    HW195309   2.158   1.990   4.823 -0.3599  0.4263 -0.2035
31577SOL    HW295310   2.241   2.100   4.760  0.5893 -0.3071 -0.2538
31578SOL     OW95311   4.735   1.652   8.006  0.1316  0.2915 -0.7955
31578SOL    HW195312   4.786   1.705   8.068  0.5575  0.3065 -1.1581
31578SOL    HW295313   4.800   1.603   7.957 -0.2719 -1.0396 -0.0637
31579SOL     OW95314   0.184   6.536   7.128  0.2143 -0.1904  0.4037
31579SOL    HW195315   0.164   6.629   7.125  1.0037 -0.0282 -1.5647
31579SOL    HW295316   0.261   6.530   7.185 -0.1078  0.2960  0.9003
31580SOL     OW95317   4.192   4.167   1.223  0.1435 -0.2516 -0.2058
31580SOL    HW195318   4.215   4.256   1.198 -1.2577  0.2101  0.0108
31580SOL    HW295319   4.153   4.176   1.310  0.6186 -1.1804  0.1205
31581SOL     OW95320   7.744   9.551   4.905  0.7024 -0.4535  0.4708
31581SOL    HW195321   7.660   9.506   4.906  0.4466 -0.0216 -0.2835
31581SOL    HW295322   7.725   9.639   4.938  0.5325  0.1382 -1.1104
31582SOL     OW95323   3.188   3.399   0.243  0.0356  0.2443  0.6081
31582SOL    HW195324   3.251   3.344   0.290 -0.2268 -0.7946 -0.2182
31582SOL    HW295325   3.243   3.458   0.191  0.4212 -1.9360 -1.6088
31583SOL     OW95326   5.081   3.968   8.014 -0.0080 -0.0724 -0.6476
31583SOL    HW195327   5.046   4.032   7.951  0.6090  0.0158 -0.9040
31583SOL    HW295328   5.005   3.913   8.036 -0.5726  0.8087 -0.3436
31584SOL     OW95329   2.062   1.873   6.881  0.1824 -0.3422  0.2246
31584SOL    HW195330   2.126   1.802   6.890  0.1245 -0.4640 -0.3115
31584SOL    HW295331   2.112   1.952   6.900  0.3686 -0.4818  0.3217
31585SOL     OW95332   9.752   3.396   6.750  0.4318  0.1313  0.1138
31585SOL    HW195333   9.660   3.417   6.737  0.6319 -0.2199 -2.3058
31585SOL    HW295334   9.791   3.478   6.781 -0.7980  0.0520  2.0052
31586SOL     OW95335   8.803   0.235   0.896 -0.1173 -0.4803  0.0992
31586SOL    HW195336   8.776   0.197   0.812 -1.1029 -2.1178  1.1167
31586SOL    HW295337   8.721   0.247   0.944  0.5302 -0.6575  1.2871
31587SOL     OW95338   9.416   2.370   0.729 -0.0957 -0.5458  0.0982
31587SOL    HW195339   9.346   2.348   0.790 -0.3899  0.3520  0.1025
31587SOL    HW295340   9.380   2.353   0.643 -0.7220  0.9065  0.0418
31588SOL     OW95341   0.127   3.723   6.965  0.2382 -0.3132 -0.1628
31588SOL    HW195342   0.089   3.766   6.888  1.6422 -2.4149 -2.1614
31588SOL    HW295343   0.207   3.773   6.983  0.5696 -0.5539 -0.9086
31589SOL     OW95344   6.739   6.964   6.767  0.5519  0.1940 -0.3146
31589SOL    HW195345   6.820   6.957   6.818  1.4370  1.2787 -1.4982
31589SOL    HW295346   6.733   6.881   6.720  0.2549 -0.4144  0.7596
31590SOL     OW95347   5.211   3.108   5.938 -0.2722  0.4001 -0.0914
31590SOL    HW195348   5.279   3.170   5.913 -1.2472  1.8100  0.6261
31590SOL    HW295349   5.174   3.077   5.855  1.8505 -1.1784 -0.5393
31591SOL     OW95350   1.409   1.463   2.075  0.2761  0.4944  0.2134
31591SOL    HW195351   1.447   1.376   2.087 -0.5399  0.1092  0.1107
31591SOL    HW295352   1.483   1.523   2.083  1.0000 -0.2616 -0.5353
31592SOL     OW95353   9.134   9.080   6.836  0.6149  0.5348 -0.1745
31592SOL    HW195354   9.082   9.039   6.767  1.5467  0.5797 -0.9236
31592SOL    HW295355   9.176   9.008   6.881  0.6366  0.5545 -0.1635
31593SOL     OW95356   0.985   1.119   4.615  0.3981 -0.4464 -0.5904
31593SOL    HW195357   1.004   1.064   4.691 -1.1186  0.4674  0.5116
31593SOL    HW295358   0.895   1.150   4.630  0.8806  1.6095 -1.5932
31594SOL     OW95359   3.751   1.609   1.901 -0.4652 -0.4644 -0.1961
31594SOL    HW195360   3.845   1.617   1.885  0.2314 -0.5199  3.0075
31594SOL    HW295361   3.720   1.546   1.836  1.7258 -0.5320 -1.2650
31595SOL     OW95362   9.122   6.778   3.204  0.1201 -0.7733 -0.6037
31595SOL    HW195363   9.139   6.831   3.127 -0.8437 -0.3666 -0.5549
31595SOL    HW295364   9.027   6.780   3.214  0.3243  1.4684  2.1788
31596SOL     OW95365   9.003   3.834   1.701 -0.0273 -0.0085  0.0971
31596SOL    HW195366   9.088   3.876   1.693 -0.2977  0.4468 -0.4051
31596SOL    HW295367   9.002   3.799   1.791 -0.0583  1.6274  0.7679
31597SOL     OW95368   2.298   0.928   5.925 -0.0905  0.0198 -0.3362
31597SOL    HW195369   2.289   0.957   6.016 -1.6709 -0.7403 -0.2094
31597SOL    HW295370   2.231   0.978   5.878 -0.8004 -1.2058 -0.6604
31598SOL     OW95371   9.409   2.581   5.611 -0.1099  0.2027 -0.2487
31598SOL    HW195372   9.485   2.633   5.637  2.3016 -2.3289 -1.7194
31598SOL    HW295373   9.416   2.572   5.516 -1.8765 -0.7251 -0.3466
31599SOL     OW95374   8.529   9.698   7.508 -0.2468  0.0609 -0.1924
31599SOL    HW195375   8.568   9.631   7.452  0.2747  0.0938  0.1234
31599SOL    HW295376   8.437   9.672   7.518  0.3399 -1.5588  1.3258
31600SOL     OW95377   6.248   5.645   3.259  0.1292 -0.2156 -0.1826
31600SOL    HW195378   6.242   5.552   3.280 -1.3524  0.1989  1.4695
31600SOL    HW295379   6.233   5.649   3.164 -0.1170 -1.6113 -0.2250
31601SOL     OW95380   0.383   5.934   0.447  0.3285  0.0381 -0.0733
31601SOL    HW195381   0.468   5.911   0.485  1.0610  0.3642 -1.4755
31601SOL    HW295382   0.400   6.014   0.397 -1.3619  1.5965  1.6783
31602SOL     OW95383   4.633   3.349   5.812  0.0408 -0.4185  0.1503
31602SOL    HW195384   4.628   3.439   5.780  0.7311 -0.2642  0.4537
31602SOL    HW295385   4.552   3.308   5.783 -0.1954  0.2530 -0.1446
31603SOL     OW95386   4.033   4.524   1.242 -0.3440  0.4367 -0.2909
31603SOL    HW195387   4.121   4.486   1.252 -0.5220  0.5390  2.6035
31603SOL    HW295388   4.048   4.618   1.249 -0.5410  0.5736 -1.5224
31604SOL     OW95389   2.531   9.547   7.975 -0.1027 -0.1319  0.1697
31604SOL    HW195390   2.512   9.600   8.053  0.9548  0.3244  0.1323
31604SOL    HW295391   2.445   9.534   7.934 -0.9378 -1.6122  2.1636
31605SOL     OW95392   5.749   2.184   4.216  0.1205  0.1555  0.3870
31605SOL    HW195393   5.705   2.266   4.196  0.3320  1.1718  3.5102
31605SOL    HW295394   5.680   2.129   4.253  0.4341 -0.2065  0.4355
31606SOL     OW95395   4.039   8.079   6.475 -0.2407  0.2510 -0.1085
31606SOL    HW195396   4.089   8.051   6.552  1.3444 -0.9520 -1.5017
31606SOL    HW295397   3.954   8.107   6.510  0.0268 -1.2976  1.9519
31607SOL     OW95398   8.786   4.272   8.043  0.3371 -0.3102 -0.3353
31607SOL    HW195399   8.836   4.269   8.125 -0.3570 -1.0816  0.0865
31607SOL    HW295400   8.762   4.364   8.033  1.8279  0.0756 -0.5654
31608SOL     OW95401   0.981   2.092   1.680 -0.5255  0.4368 -0.5370
31608SOL    HW195402   0.915   2.140   1.631 -0.6017 -0.7938 -1.6886
31608SOL    HW295403   0.970   2.122   1.770 -0.8247  2.2529 -1.1438
31609SOL     OW95404   4.881   4.383   9.634  0.6946 -0.2690 -0.2836
31609SOL    HW195405   4.951   4.324   9.607  1.6800  0.0977  1.3345
31609SOL    HW295406   4.820   4.327   9.682  1.6015 -0.0124  1.2039
31610SOL     OW95407   8.989   5.549   0.388  0.3096 -0.0929 -0.3014
31610SOL    HW195408   9.065   5.555   0.330  0.3140  2.1275 -0.1544
31610SOL    HW295409   8.987   5.457   0.415  2.6157 -0.3361 -0.7271
31611SOL     OW95410   4.972   3.443   5.740  0.3504 -0.9126 -0.4505
31611SOL    HW195411   5.017   3.429   5.823  1.2043  0.4509 -0.6626
31611SOL    HW295412   4.888   3.482   5.765  0.9313  0.2630 -0.2341
31612SOL     OW95413   3.848   6.234   8.624 -0.2322  0.1324  0.4153
31612SOL    HW195414   3.822   6.187   8.703 -2.5799  0.3638 -0.1432
31612SOL    HW295415   3.919   6.291   8.653 -0.1546 -0.7175  2.0533
31613SOL     OW95416   0.483   7.892   9.587 -0.1861  0.1156  0.1378
31613SOL    HW195417   0.504   7.976   9.628 -0.9823 -0.0019  0.8188
31613SOL    HW295418   0.514   7.827   9.650 -0.1639 -0.0897 -0.0866
31614SOL     OW95419   3.820   6.059   4.578 -0.2549 -0.1217 -0.2819
31614SOL    HW195420   3.879   5.986   4.598 -1.6846 -0.6872  2.4019
31614SOL    HW295421   3.745   6.018   4.535 -2.0745 -0.8274  3.1440
31615SOL     OW95422   8.260   6.400   7.046  0.4453 -0.4712  0.1005
31615SOL    HW195423   8.225   6.473   6.994  1.2113  0.5885  1.0181
31615SOL    HW295424   8.188   6.337   7.051  0.0990 -0.2546 -1.5642
31616SOL     OW95425   3.539   9.447   9.663  0.5198  0.2456  0.8453
31616SOL    HW195426   3.511   9.535   9.687 -0.7879 -0.4118  1.8474
31616SOL    HW295427   3.619   9.460   9.612 -0.0984  2.0490  0.2692
31617SOL     OW95428   3.644   0.137   6.925 -0.9079 -0.2160  0.4059
31617SOL    HW195429   3.574   0.164   6.865 -0.4218  0.0605 -0.0459
31617SOL    HW295430   3.639   0.042   6.927 -0.3331 -0.2926 -0.8199
31618SOL     OW95431   4.283   3.165   6.898  0.2414  0.4093  0.2827
31618SOL    HW195432   4.243   3.240   6.852  0.7390  0.2722 -0.3967
31618SOL    HW295433   4.252   3.088   6.849  2.3085  0.3589 -1.0906
31619SOL     OW95434   1.038   6.482   8.749  0.1542 -0.2057  0.6977
31619SOL    HW195435   1.121   6.467   8.793  0.2130 -1.2765  0.2566
31619SOL    HW295436   0.991   6.399   8.758 -0.6963  0.2476  0.5746
31620SOL     OW95437   9.019   5.848   0.454  0.5828  0.5444 -0.0895
31620SOL    HW195438   9.098   5.885   0.493  1.0366 -0.5640  0.0756
31620SOL    HW295439   9.048   5.764   0.417 -0.8943 -0.7999  1.6543
31621SOL     OW95440   2.280   5.159   3.462  0.2709  0.8954 -0.2239
31621SOL    HW195441   2.366   5.127   3.435  0.7038  0.7453  1.2446
31621SOL    HW295442   2.284   5.254   3.444  0.6254  0.8444 -0.4364
31622SOL     OW95443   4.340   5.519   0.376 -0.2979 -0.2802 -0.3900
31622SOL    HW195444   4.311   5.488   0.291 -0.0803  1.2971 -1.0730
31622SOL    HW295445   4.433   5.497   0.380 -0.3088 -0.3523 -0.5707
31623SOL     OW95446   5.064   8.105   6.483  0.4452 -0.2172  0.0796
31623SOL    HW195447   5.004   8.094   6.557  1.5758  0.9977  1.2376
31623SOL    HW295448   5.098   8.018   6.467 -0.1674 -0.5807  0.6899
31624SOL     OW95449   4.156   3.554   3.708 -0.2993 -0.2773 -0.3281
31624SOL    HW195450   4.218   3.583   3.776 -0.3757  2.1676 -1.2241
31624SOL    HW295451   4.209   3.498   3.651  0.2083 -0.9164  0.7238
31625SOL     OW95452   2.940   9.170   2.933  0.2113  0.0769 -0.0553
31625SOL    HW195453   2.970   9.254   2.969 -1.5263  1.1702 -1.0273
31625SOL    HW295454   3.021   9.127   2.904  1.2938  0.7282  1.7685
31626SOL     OW95455   6.542   3.077   3.007 -0.0770  0.1236  0.1459
31626SOL    HW195456   6.550   2.985   3.031 -0.9143  0.2742  1.0464
31626SOL    HW295457   6.560   3.125   3.087 -0.7520  0.7111 -0.0429
31627SOL     OW95458   8.145   6.888   6.667 -0.4282  0.2904  0.2472
31627SOL    HW195459   8.193   6.943   6.729  0.4465 -0.3658  0.1797
31627SOL    HW295460   8.098   6.949   6.611  2.3444  1.1167 -1.3159
31628SOL     OW95461   4.048   3.743   5.324  0.0152 -0.2331  0.2152
31628SOL    HW195462   4.070   3.751   5.231 -0.6106 -0.3494  0.0520
31628SOL    HW295463   4.132   3.730   5.368  0.1556 -2.2464 -0.5451
31629SOL     OW95464   6.806   2.521   5.508  0.1052 -0.3924  0.4061
31629SOL    HW195465   6.794   2.586   5.438  0.7320 -1.2314 -0.4977
31629SOL    HW295466   6.718   2.510   5.545 -0.0655  0.7262  0.3643
31630SOL     OW95467   6.154   8.673   8.726 -0.3336  0.1889  0.5621
31630SOL    HW195468   6.148   8.673   8.631 -0.6826 -1.2222  0.5521
31630SOL    HW295469   6.123   8.759   8.753 -1.4249  0.1651 -0.5403
31631SOL     OW95470   1.470   2.069   9.909  0.1197  0.1851 -0.0636
31631SOL    HW195471   1.395   2.121   9.938 -1.0244 -2.5019  2.2715
31631SOL    HW295472   1.534   2.076   9.980  0.8586  0.0712 -0.6987
31632SOL     OW95473   8.787   7.518   8.054 -0.2720 -0.2853  0.0370
31632SOL    HW195474   8.832   7.534   8.136  1.4966 -1.1471 -0.6998
31632SOL    HW295475   8.741   7.434   8.068 -2.4792  0.9981  1.0675
31633SOL     OW95476   1.542   3.085   7.485 -0.1535  0.8170 -0.3896
31633SOL    HW195477   1.530   2.998   7.524  0.4643  1.2844  0.9106
31633SOL    HW295478   1.483   3.086   7.410 -0.2662 -0.6745 -0.3513
31634SOL     OW95479   3.501   5.359   9.372 -0.1892 -0.0663 -0.4139
31634SOL    HW195480   3.462   5.332   9.289  0.1033  0.5151 -0.7461
31634SOL    HW295481   3.574   5.415   9.347  0.1245 -0.1865  0.2325
31635SOL     OW95482   0.711   1.013   2.857  0.0595  0.5554  0.0554
31635SOL    HW195483   0.757   0.990   2.938 -1.4822  0.3513  0.8957
31635SOL    HW295484   0.759   1.089   2.823  0.1386  1.2516  1.6773
31636SOL     OW95485   8.524   1.580   9.069 -0.5118 -0.2420  0.3440
31636SOL    HW195486   8.517   1.594   8.974  3.1935  0.0293 -0.0171
31636SOL    HW295487   8.516   1.667   9.107 -1.0747 -0.2372  0.2313
31637SOL     OW95488   1.728   1.344   7.687 -0.1795  0.0428  0.8254
31637SOL    HW195489   1.778   1.262   7.683  0.8130  0.6344  0.9242
31637SOL    HW295490   1.790   1.411   7.661 -0.4329  1.0273  2.6289
31638SOL     OW95491   6.270   9.857   8.988  0.1737  0.4492 -0.1226
31638SOL    HW195492   6.340   9.817   9.040  1.7861 -0.0901 -2.5316
31638SOL    HW295493   6.252   9.793   8.919 -1.0663  1.5756 -0.8875
31639SOL     OW95494   2.112   1.486   9.632  0.1618  0.3124 -0.1603
31639SOL    HW195495   2.116   1.460   9.724 -1.7834 -3.9070 -1.0205
31639SOL    HW295496   2.054   1.563   9.632  0.2996  0.5042  2.1254
31640SOL     OW95497   6.396   1.140   4.802  0.4352 -0.2381  0.5600
31640SOL    HW195498   6.426   1.224   4.769 -1.2974  0.1117 -0.2463
31640SOL    HW295499   6.471   1.081   4.790  1.4599  1.0207  0.5601
31641SOL     OW95500   8.091   7.812   8.246 -0.3164  0.0848  0.0288
31641SOL    HW195501   8.064   7.903   8.236  0.7683  0.4403  0.1990
31641SOL    HW295502   8.169   7.816   8.302  0.2784 -0.8569 -0.7027
31642SOL     OW95503   0.832   3.171   4.520 -0.7104  0.4971  0.4070
31642SOL    HW195504   0.771   3.222   4.573 -1.4231  0.5590 -0.4459
31642SOL    HW295505   0.833   3.216   4.435  0.5099  0.4791  0.3941
31643SOL     OW95506   9.616   6.411   0.707 -0.3036 -0.0595 -0.2227
31643SOL    HW195507   9.685   6.477   0.710 -1.9870  1.7748 -0.3022
31643SOL    HW295508   9.606   6.390   0.614 -0.6047  0.5146 -0.3232
31644SOL     OW95509   6.202   8.227   9.123  0.2422  0.6103 -0.3988
31644SOL    HW195510   6.111   8.236   9.093  0.3691  2.5173 -0.2933
31644SOL    HW295511   6.240   8.164   9.062 -1.2330 -0.5406 -0.2024
31645SOL     OW95512   8.211   3.054   3.659 -0.2343  0.7317 -0.3700
31645SOL    HW195513   8.164   3.133   3.634 -0.2389  0.8915  0.1396
31645SOL    HW295514   8.157   2.982   3.625  0.2094  0.9517 -1.6045
31646SOL     OW95515   5.918   3.923   3.584  0.2994 -0.3664  0.2483
31646SOL    HW195516   5.990   3.862   3.570 -0.0200 -1.0505  1.5008
31646SOL    HW295517   5.840   3.868   3.594 -0.2070  0.3049  0.1157
31647SOL     OW95518   4.153   7.965   3.814 -0.1075  0.2924 -0.4496
31647SOL    HW195519   4.208   8.041   3.830 -1.1779  1.1778 -0.9095
31647SOL    HW295520   4.209   7.905   3.764  1.4051 -0.1195  1.6398
31648SOL     OW95521   2.397   4.686   5.927 -0.3631 -0.0404  0.4018
31648SOL    HW195522   2.469   4.628   5.901 -1.6703 -1.6048  0.0645
31648SOL    HW295523   2.433   4.739   5.997  1.7339  0.7046 -1.1537
31649SOL     OW95524   1.781   6.884   0.047 -0.1946  0.5345 -0.0787
31649SOL    HW195525   1.873   6.858   0.052 -0.5890 -0.7479  1.0386
31649SOL    HW295526   1.732   6.807   0.074 -1.6181  1.2194 -0.5674
31650SOL     OW95527   4.579   3.091   2.653 -0.1891 -0.2212 -0.0422
31650SOL    HW195528   4.518   3.114   2.724 -0.1323  0.1552 -0.1148
31650SOL    HW295529   4.632   3.169   2.641 -0.6041 -0.0654 -0.9257
31651SOL     OW95530   9.019   3.453   2.449  0.1171  0.0905 -0.6456
31651SOL    HW195531   8.961   3.412   2.384 -1.4071  1.2740 -0.1090
31651SOL    HW295532   9.030   3.543   2.417 -1.5866  1.0408  1.2235
31652SOL     OW95533   5.042   7.695   0.549 -0.4952  0.4700  0.0405
31652SOL    HW195534   5.029   7.642   0.471 -2.8521 -1.4697  1.6104
31652SOL    HW295535   5.027   7.635   0.622  2.8078  1.8801  2.1206
31653SOL     OW95536   7.449   2.558   0.346 -0.3399 -0.2205  0.6413
31653SOL    HW195537   7.521   2.579   0.406  0.1687 -3.8895  1.5644
31653SOL    HW295538   7.492   2.535   0.264 -0.5640 -0.8480  0.6934
31654SOL     OW95539   8.622   8.566   7.851  0.3325  0.7892 -0.5609
31654SOL    HW195540   8.562   8.561   7.925 -0.3652  0.4280 -1.1434
31654SOL    HW295541   8.709   8.572   7.891  0.0328 -0.2609  0.2862
31655SOL     OW95542   1.599   6.762   2.389  0.1658 -0.0463 -0.1332
31655SOL    HW195543   1.581   6.851   2.420  0.3854 -0.0010 -0.1380
31655SOL    HW295544   1.682   6.769   2.342  0.8280 -0.5008  0.9526
31656SOL     OW95545   2.937   6.328   6.464 -0.3510 -0.7571  0.1373
31656SOL    HW195546   2.930   6.395   6.532 -4.3074 -0.9167  0.1358
31656SOL    HW295547   2.882   6.360   6.392  0.5198 -2.4140 -1.3734
31657SOL     OW95548   0.240   3.501   5.089  0.2099 -0.5799  0.9300
31657SOL    HW195549   0.290   3.548   5.155  1.1057  0.6462 -0.5839
31657SOL    HW295550   0.300   3.434   5.056  1.3384  1.5501 -1.6231
31658SOL     OW95551   9.549   5.354   9.564 -0.3296 -0.3993 -0.1694
31658SOL    HW195552   9.578   5.426   9.507 -0.2675  0.0228  0.3804
31658SOL    HW295553   9.454   5.353   9.556 -0.2173 -1.7260 -1.9090
31659SOL     OW95554   5.845   1.276   9.056  0.0136  0.5326  0.4563
31659SOL    HW195555   5.787   1.222   9.003  3.2704  1.0742 -4.3775
31659SOL    HW295556   5.833   1.365   9.022  4.0185  0.5235 -1.5776
31660SOL     OW95557   3.880   0.852   8.581  0.2457  0.2930  0.0490
31660SOL    HW195558   3.858   0.929   8.633  2.3546  0.5034  0.7032
31660SOL    HW295559   3.878   0.780   8.644 -0.3020  0.0275 -0.2648
31661SOL     OW95560   6.063   4.960   4.087 -0.2374  0.1477  0.0825
31661SOL    HW195561   6.089   5.051   4.077  0.1522 -0.1232 -1.7150
31661SOL    HW295562   5.976   4.964   4.126  0.0416  1.2580  0.6291
31662SOL     OW95563   1.767   4.771   7.235 -0.0012  0.2131  0.0317
31662SOL    HW195564   1.811   4.737   7.313 -0.4700  0.5098  0.4264
31662SOL    HW295565   1.681   4.799   7.266  0.0270  0.8849 -0.4749
31663SOL     OW95566   1.151   1.107   0.639 -0.1545  0.2538  0.2628
31663SOL    HW195567   1.169   1.014   0.652 -0.2426  0.2830  0.5887
31663SOL    HW295568   1.056   1.113   0.629 -0.2310  0.4062  1.0572
31664SOL     OW95569   9.284   4.190   1.908 -0.3240 -0.3499  0.3222
31664SOL    HW195570   9.245   4.205   1.995  0.3138  0.8108  0.4281
31664SOL    HW295571   9.357   4.131   1.926 -0.1138 -0.0121  0.6057
31665SOL     OW95572   9.402   2.621   8.852  0.0187 -0.1636 -0.0833
31665SOL    HW195573   9.377   2.647   8.763  1.7722 -1.7494 -1.1142
31665SOL    HW295574   9.474   2.679   8.876  0.9827 -1.1033 -0.6090
31666SOL     OW95575   9.862   2.435   1.084 -0.0056  0.3900  0.1898
31666SOL    HW195576   9.826   2.383   1.012 -0.7290 -0.5171  1.1714
31666SOL    HW295577   9.939   2.478   1.046  0.2602 -0.9087 -0.8516
31667SOL     OW95578   6.897   3.607   5.734 -0.4908 -0.0577 -1.0736
31667SOL    HW195579   6.933   3.521   5.715 -0.6324  0.0476 -1.8630
31667SOL    HW295580   6.830   3.592   5.801 -0.9847 -0.6576 -1.6927
31668SOL     OW95581   2.782   0.133   8.316 -0.2113 -0.0240 -0.0690
31668SOL    HW195582   2.705   0.166   8.364  0.5838 -0.4416  1.5599
31668SOL    HW295583   2.801   0.202   8.253 -1.7519  0.2210 -0.3176
31669SOL     OW95584   2.812   5.146   0.672 -0.2340 -0.1654  0.4334
31669SOL    HW195585   2.824   5.201   0.749  0.5904  1.4033 -0.7508
31669SOL    HW295586   2.725   5.170   0.639 -0.5197 -0.7189  0.7735
31670SOL     OW95587   6.927   7.631   2.683  0.1571 -0.1476  0.2135
31670SOL    HW195588   6.896   7.720   2.668 -0.7774 -0.7214 -1.5741
31670SOL    HW295589   6.979   7.610   2.605  0.9375 -0.9442  0.9186
31671SOL     OW95590   4.299   9.996   1.726  0.1598  0.1413 -0.5216
31671SOL    HW195591   4.387   9.989   1.689  0.2877 -1.5801  0.0352
31671SOL    HW295592   4.304   9.951   1.810 -1.0156  0.9037 -0.0115
31672SOL     OW95593   4.566   5.955   0.158  0.4482 -0.4105 -0.1392
31672SOL    HW195594   4.547   6.018   0.089 -0.8717 -1.5525 -0.8621
31672SOL    HW295595   4.634   5.899   0.121  0.8605 -0.0761  0.1005
31673SOL     OW95596   2.174   5.612   4.487 -0.4379  0.4976 -0.0919
31673SOL    HW195597   2.212   5.699   4.499  1.3510 -0.0429 -1.4628
31673SOL    HW295598   2.246   5.551   4.501 -0.9398 -0.6226 -1.9661
31674SOL     OW95599   1.743   4.244   0.563 -0.3039 -0.5177  0.5060
31674SOL    HW195600   1.809   4.203   0.506 -2.0993 -0.1094 -2.0408
31674SOL    HW295601   1.783   4.326   0.591 -0.3227  0.6411 -2.5401
31675SOL     OW95602   2.344   9.804   7.943  0.4208 -0.1216  0.2309
31675SOL    HW195603   2.263   9.791   7.991  0.2547 -0.2829 -0.0945
31675SOL    HW295604   2.363   9.719   7.903  1.3600 -0.4136  1.2427
31676SOL     OW95605   1.331   1.713   9.325  0.1209  0.6456  0.2770
31676SOL    HW195606   1.364   1.793   9.284 -0.8615  0.2214 -1.4579
31676SOL    HW295607   1.410   1.664   9.349  0.7234  1.6163  0.3340
31677SOL     OW95608   7.816   8.960   9.152  0.5507  0.1108 -0.5154
31677SOL    HW195609   7.738   9.014   9.165  1.6232  1.5027  0.3360
31677SOL    HW295610   7.863   8.965   9.235  0.8907 -1.8514 -0.5279
31678SOL     OW95611   0.845   9.701   2.263 -0.4124  0.3316  0.3642
31678SOL    HW195612   0.804   9.783   2.234 -2.0317  0.5308  2.9188
31678SOL    HW295613   0.939   9.721   2.264 -0.4979  1.1420 -1.8741
31679SOL     OW95614   6.919   8.412   7.287 -0.1881 -0.2699 -0.3591
31679SOL    HW195615   6.864   8.464   7.229  0.0653  0.1497 -0.2323
31679SOL    HW295616   6.971   8.358   7.229  0.1288  0.2117 -0.5340
31680SOL     OW95617   8.635   7.133   7.473  0.0737 -0.0873  0.0697
31680SOL    HW195618   8.605   7.186   7.399  0.4209  0.4464  0.3042
31680SOL    HW295619   8.599   7.176   7.550  1.4429  0.5935  0.3582
31681SOL     OW95620   7.913   0.622   3.898 -0.3617 -0.1496 -0.0289
31681SOL    HW195621   7.863   0.690   3.854  0.7339  1.4088  1.0233
31681SOL    HW295622   7.882   0.625   3.989  0.2858 -0.4780  0.2102
31682SOL     OW95623   3.374   6.487   2.833 -0.2365 -0.1844  0.1940
31682SOL    HW195624   3.322   6.408   2.845 -1.0396  0.4418  1.0726
31682SOL    HW295625   3.309   6.557   2.821  0.4599  0.2424 -1.4300
31683SOL     OW95626   8.178   6.988   9.446 -0.8000  0.2978 -0.4999
31683SOL    HW195627   8.201   6.923   9.512  1.2968  0.2932 -1.1470
31683SOL    HW295628   8.108   6.948   9.395 -0.2854 -1.0003 -0.2119
31684SOL     OW95629   1.509   8.579   1.838  0.6022 -0.4367  0.0331
31684SOL    HW195630   1.479   8.663   1.805  1.9905  0.2442  0.4670
31684SOL    HW295631   1.603   8.589   1.851  0.5098 -1.4106  1.9423
31685SOL     OW95632   2.099   4.814   1.839  0.5502 -0.4993  0.1360
31685SOL    HW195633   2.090   4.758   1.763  0.1125 -0.5164  0.1970
31685SOL    HW295634   2.188   4.798   1.870  1.2388  0.5560 -1.1911
31686SOL     OW95635   0.638   1.515   4.884 -0.2376  0.4238  0.3772
31686SOL    HW195636   0.676   1.427   4.890 -1.9595 -0.3921 -0.0211
31686SOL    HW295637   0.558   1.503   4.833 -0.2131  2.3466 -0.1984
31687SOL     OW95638   2.563   1.212   5.935  0.0176  0.2622 -0.6483
31687SOL    HW195639   2.652   1.180   5.915 -0.1920  0.0810 -1.3389
31687SOL    HW295640   2.506   1.138   5.914 -0.3023  0.3949 -0.2500
31688SOL     OW95641   0.636   7.402   5.903 -0.3630 -0.3097  0.4310
31688SOL    HW195642   0.651   7.322   5.954 -0.9928 -1.4402 -1.0763
31688SOL    HW295643   0.549   7.390   5.865  0.3135  0.2132 -1.3493
31689SOL     OW95644   6.185   4.351   3.252 -0.0986  0.0067 -0.0615
31689SOL    HW195645   6.154   4.288   3.187 -2.4630  0.0327  0.9358
31689SOL    HW295646   6.268   4.315   3.284 -0.5009 -1.6423 -0.8152
31690SOL     OW95647   5.904   5.262   4.358  0.2441 -0.5120  0.1440
31690SOL    HW195648   5.940   5.188   4.406 -0.1208 -0.8777 -0.1400
31690SOL    HW295649   5.854   5.223   4.286  0.8164  0.0293 -0.5639
31691SOL     OW95650   5.219   1.074   1.784  0.4316 -0.2450 -0.1470
31691SOL    HW195651   5.191   1.129   1.857 -0.0069  0.9690 -1.1924
31691SOL    HW295652   5.315   1.071   1.792  0.5481  1.4390 -0.5641
31692SOL     OW95653   6.666   7.033   1.825  0.4354  0.0523 -0.9446
31692SOL    HW195654   6.684   7.099   1.892  2.8136 -0.6933 -0.7571
31692SOL    HW295655   6.691   7.075   1.742  0.4445 -0.0752 -1.0072
31693SOL     OW95656   2.016   0.031   7.712 -0.2111  0.5247 -0.1298
31693SOL    HW195657   1.997   0.046   7.620  0.5326  1.1844 -0.1904
31693SOL    HW295658   2.111   0.025   7.716 -0.3045 -4.0788 -0.0629
31694SOL     OW95659   3.478   2.754   4.886  0.3600 -0.0857  0.0837
31694SOL    HW195660   3.501   2.709   4.804  1.9204 -0.8538  0.8889
31694SOL    HW295661   3.406   2.703   4.922  0.4766 -0.4703 -0.2174
31695SOL     OW95662   4.941   2.480   6.432 -0.1339 -0.6156 -0.0597
31695SOL    HW195663   5.028   2.517   6.420 -0.5694  1.0239  1.4403
31695SOL    HW295664   4.958   2.387   6.451  1.1424 -0.7002 -1.3981
31696SOL     OW95665   5.042   5.835   3.752 -0.4604 -0.2856 -0.0328
31696SOL    HW195666   5.117   5.801   3.704 -0.5516 -0.7192  0.1212
31696SOL    HW295667   5.079   5.879   3.828 -0.2894  0.8011 -0.7175
31697SOL     OW95668   3.152   0.209   5.556 -0.1017  0.3501 -0.2533
31697SOL    HW195669   3.172   0.118   5.536 -0.8001 -0.7816  3.5226
31697SOL    HW295670   3.238   0.250   5.571  0.0996 -0.4239  0.7516
31698SOL     OW95671   5.562   0.212   7.553 -0.3327 -0.3993 -0.1692
31698SOL    HW195672   5.633   0.271   7.579 -0.2280 -0.5312 -0.1557
31698SOL    HW295673   5.519   0.189   7.636  0.6659 -1.6730  0.0215
31699SOL     OW95674   7.472   8.130   7.684 -0.4326  0.4963 -0.6456
31699SOL    HW195675   7.490   8.061   7.620 -0.3462 -1.0108  0.9474
31699SOL    HW295676   7.556   8.175   7.695 -0.3002  0.3709 -1.1060
31700SOL     OW95677   6.165   5.498   8.868  0.5789  0.5129  0.1900
31700SOL    HW195678   6.123   5.525   8.950 -0.3337  1.6293 -0.6231
31700SOL    HW295679   6.105   5.432   8.832 -0.1180  1.5457 -0.5898
31701SOL     OW95680   8.736   9.193   6.448  0.2954 -0.2850 -0.7303
31701SOL    HW195681   8.685   9.251   6.506  1.5235 -1.1887  1.3451
31701SOL    HW295682   8.690   9.109   6.453  1.0696 -0.6777 -0.1147
31702SOL     OW95683   0.580   6.308   2.249 -0.3208  0.8949  0.0788
31702SOL    HW195684   0.512   6.246   2.276 -0.2770 -0.2543 -2.1895
31702SOL    HW295685   0.566   6.385   2.305 -1.2211 -0.6279  2.0790
31703SOL     OW95686   0.034   8.057   3.288  0.4680 -0.4552  0.2056
31703SOL    HW195687   0.067   7.990   3.227  2.1110 -0.2212  0.7768
31703SOL    HW295688  -0.031   8.011   3.341 -0.1375 -0.9677 -0.9372
31704SOL     OW95689   3.655   0.498   4.953  0.0043  0.0766  0.1564
31704SOL    HW195690   3.733   0.502   5.008  0.5548  1.5966 -0.6810
31704SOL    HW295691   3.647   0.405   4.930  0.7932 -0.3018  1.3068
31705SOL     OW95692   2.974   1.819   3.910 -0.2682  0.4006  0.0940
31705SOL    HW195693   2.905   1.760   3.941  1.0788 -1.8338 -0.8593
31705SOL    HW295694   2.928   1.888   3.863 -1.9490  0.3325  1.5265
31706SOL     OW95695   2.965   7.333   3.637  0.0370 -0.4587  0.3992
31706SOL    HW195696   3.007   7.397   3.580 -0.1553  0.7411  1.5505
31706SOL    HW295697   3.023   7.325   3.713 -0.5263 -0.7354  0.8162
31707SOL     OW95698   1.673   7.736   5.308  0.3058 -0.1185 -0.2827
31707SOL    HW195699   1.673   7.697   5.395  0.4282 -0.7338 -0.5552
31707SOL    HW295700   1.606   7.804   5.313  0.6446  0.1725  0.4281
31708SOL     OW95701   7.016   9.512   4.200  0.8485 -0.1370  0.2455
31708SOL    HW195702   7.011   9.450   4.127  1.6713  1.3434 -1.1482
31708SOL    HW295703   7.094   9.486   4.249 -0.0417 -1.5051  0.9936
31709SOL     OW95704   3.574   6.155   4.277 -0.1991  0.0540 -0.1360
31709SOL    HW195705   3.564   6.215   4.351 -1.2562  0.1826 -0.3707
31709SOL    HW295706   3.585   6.069   4.316 -0.7636  0.1204  0.1759
31710SOL     OW95707   6.910   8.092   8.193  0.7154  0.2744 -0.0645
31710SOL    HW195708   6.982   8.039   8.229  0.5573 -0.9781 -1.5291
31710SOL    HW295709   6.844   8.029   8.167  0.6828  1.1207 -2.2238
31711SOL     OW95710   2.636   3.179   9.781 -0.4088  0.5328  0.3082
31711SOL    HW195711   2.708   3.161   9.841 -0.3040 -0.4793 -0.1023
31711SOL    HW295712   2.620   3.273   9.791  0.6196  0.6769  0.7807
31712SOL     OW95713   5.125   9.766   0.329  0.0777  0.1949  0.3767
31712SOL    HW195714   5.144   9.778   0.422 -1.0419  1.2846  0.4832
31712SOL    HW295715   5.208   9.734   0.292  1.0701  1.4203  1.4217
31713SOL     OW95716   3.174   6.231   4.994 -0.1759 -0.2059  0.4810
31713SOL    HW195717   3.159   6.204   5.085 -0.2323  0.4531  0.6710
31713SOL    HW295718   3.134   6.318   4.988 -1.2631 -0.7454 -0.5054
31714SOL     OW95719   7.488   1.986   4.908 -0.8723  0.1110 -0.0873
31714SOL    HW195720   7.491   1.972   5.003 -2.6106 -3.4321 -0.4027
31714SOL    HW295721   7.403   1.952   4.881  0.4459 -1.1705 -3.1639
31715SOL     OW95722   9.930   0.777   3.538  0.1673 -0.1077  0.2267
31715SOL    HW195723   9.908   0.871   3.537  0.4886 -0.0308 -0.8267
31715SOL    HW295724   9.929   0.752   3.445  2.1537 -0.6487  0.3159
31716SOL     OW95725   9.820   1.437   2.519 -0.2522 -0.5695  0.4103
31716SOL    HW195726   9.804   1.449   2.612 -0.5633 -2.6708  0.6702
31716SOL    HW295727   9.782   1.352   2.498 -0.6463  0.0641 -1.7604
31717SOL     OW95728   5.064   1.580   9.416 -0.2141  0.3237  0.4392
31717SOL    HW195729   5.006   1.607   9.488  1.9404 -2.0845  3.3318
31717SOL    HW295730   5.052   1.485   9.411  2.0031  0.0397 -0.2159
31718SOL     OW95731   5.349   2.262   8.006 -0.3552 -0.3800  0.1262
31718SOL    HW195732   5.377   2.269   7.915 -1.5511 -1.9784 -0.4043
31718SOL    HW295733   5.430   2.271   8.057  0.1122  2.5659 -0.9136
31719SOL     OW95734   0.375   0.298   2.236  0.1551 -0.1509 -0.7261
31719SOL    HW195735   0.305   0.312   2.299  0.6384 -1.2663  0.0775
31719SOL    HW295736   0.331   0.267   2.157 -0.0794 -4.4095  0.8546
31720SOL     OW95737   9.790   7.607   2.914  0.2984 -0.6208 -0.1034
31720SOL    HW195738   9.764   7.533   2.859  0.7880 -0.2921 -0.7858
31720SOL    HW295739   9.711   7.661   2.920  0.0858 -0.9390 -0.0258
31721SOL     OW95740   3.611   3.750   2.858  0.7773 -0.3989  0.2690
31721SOL    HW195741   3.521   3.730   2.886  0.9092 -1.2145  0.1055
31721SOL    HW295742   3.650   3.792   2.935  0.6062 -1.0863  0.7418
31722SOL     OW95743   3.525   1.879   4.615 -0.1712  0.0473  0.5208
31722SOL    HW195744   3.580   1.942   4.660  2.5511 -1.0451 -1.0515
31722SOL    HW295745   3.512   1.917   4.527 -0.4276 -0.5520  0.2948
31723SOL     OW95746   2.635   3.767   9.201 -0.5764 -0.3895  0.2800
31723SOL    HW195747   2.563   3.808   9.248 -1.2518  0.1110 -1.1506
31723SOL    HW295748   2.595   3.730   9.122  0.5498 -1.0738 -0.0021
31724SOL     OW95749   0.821   6.838   0.161 -0.2120 -0.5840 -0.5150
31724SOL    HW195750   0.797   6.930   0.148  0.5724 -0.1858  0.6942
31724SOL    HW295751   0.774   6.813   0.241  0.3401 -0.9379 -0.3009
31725SOL     OW95752   3.380   3.729   4.899 -0.2352 -0.0876 -0.4186
31725SOL    HW195753   3.456   3.696   4.851  0.5684  1.2822 -0.1241
31725SOL    HW295754   3.365   3.663   4.967  1.5638  0.2563  0.3832
31726SOL     OW95755   0.261   0.965   4.036  0.4108 -0.1765 -0.4109
31726SOL    HW195756   0.218   1.023   3.973  0.4019 -1.0226 -1.2066
31726SOL    HW295757   0.190   0.930   4.089  0.4488  0.7837  0.2994
31727SOL     OW95758   0.642   3.734   0.939  0.0230  0.1228 -0.2960
31727SOL    HW195759   0.735   3.747   0.957  0.3014 -0.1076 -1.4893
31727SOL    HW295760   0.599   3.753   1.022  1.1968 -0.5155  0.4904
31728SOL     OW95761   6.364   4.729   3.207  0.2414 -0.0622 -0.2871
31728SOL    HW195762   6.395   4.809   3.250 -0.7019 -0.3234  0.9285
31728SOL    HW295763   6.268   4.736   3.210  0.1534 -1.0221 -0.5859
31729SOL     OW95764   9.701   0.592   3.608  0.5168 -0.0492 -0.0749
31729SOL    HW195765   9.752   0.605   3.528  1.0041 -0.3280  0.1854
31729SOL    HW295766   9.612   0.615   3.583  1.0527  2.4342 -0.0199
31730SOL     OW95767   5.185   4.183   1.141 -0.5221  0.1056 -0.0672
31730SOL    HW195768   5.214   4.211   1.054  0.2228 -2.0772 -0.5769
31730SOL    HW295769   5.191   4.088   1.139 -0.2138  0.0038  2.4698
31731SOL     OW95770   6.869   0.169   3.151 -0.4394  0.1039 -0.1514
31731SOL    HW195771   6.964   0.172   3.141 -0.1932 -1.0534  1.4035
31731SOL    HW295772   6.844   0.257   3.176  0.1572  0.5195 -0.9720
31732SOL     OW95773   0.755   0.100   0.627  0.3291  0.2317  0.4318
31732SOL    HW195774   0.816   0.032   0.655  1.6217  0.9755 -0.4677
31732SOL    HW295775   0.811   0.168   0.591 -1.0011  1.3475  0.4122
31733SOL     OW95776   7.308   2.055   8.478  0.4087  0.3079 -0.0565
31733SOL    HW195777   7.332   2.101   8.397  1.6179 -0.8300 -0.3805
31733SOL    HW295778   7.213   2.050   8.475  0.2795  2.1774 -0.3324
31734SOL     OW95779   2.376   2.121   0.669 -0.3277 -0.3003 -0.0542
31734SOL    HW195780   2.340   2.042   0.709  1.7384  0.2166  3.2322
31734SOL    HW295781   2.470   2.115   0.683 -0.1292  2.8950  0.7989
31735SOL     OW95782   1.298   2.155   6.367 -0.2584  0.5983 -0.0466
31735SOL    HW195783   1.295   2.082   6.429 -1.0210  0.7984  0.1673
31735SOL    HW295784   1.336   2.227   6.418  0.9205  0.2306 -0.3936
31736SOL     OW95785   1.829   9.944   5.616 -0.1122 -0.4856  0.1560
31736SOL    HW195786   1.866  10.030   5.637 -1.0202 -0.2176  0.7300
31736SOL    HW295787   1.901   9.883   5.628  1.4469  0.4882 -3.2184
31737SOL     OW95788   4.560   8.671   5.691 -0.3725 -0.3686  0.4693
31737SOL    HW195789   4.530   8.632   5.608 -1.6002 -0.5289  0.9683
31737SOL    HW295790   4.641   8.716   5.668 -0.8178 -0.2064 -0.8867
31738SOL     OW95791   6.225   4.628   7.365 -0.8228 -0.3032  0.3033
31738SOL    HW195792   6.279   4.705   7.381 -0.3085 -0.5816 -0.0575
31738SOL    HW295793   6.278   4.554   7.395 -1.1460 -0.5518  0.2753
31739SOL     OW95794   7.080   9.139   2.709  0.0767 -0.2860  0.4131
31739SOL    HW195795   7.141   9.067   2.695  1.2974  0.5857  1.1268
31739SOL    HW295796   7.125   9.198   2.769 -1.5364  0.3138  1.0881
31740SOL     OW95797   4.103   1.975   8.763 -0.1100  0.1458 -0.0442
31740SOL    HW195798   4.166   1.957   8.833 -2.2371 -1.0873  1.6757
31740SOL    HW295799   4.157   1.993   8.686  2.3158 -0.1113  1.4973
31741SOL     OW95800   4.922   7.498   2.531 -0.2571 -0.1121  0.1302
31741SOL    HW195801   4.965   7.422   2.572 -0.4318  0.0900  0.6928
31741SOL    HW295802   4.953   7.497   2.440 -0.1845 -0.8027  0.1596
31742SOL     OW95803   2.428   3.165   5.093  0.4202  0.1724  0.2674
31742SOL    HW195804   2.490   3.238   5.101  0.8087 -0.2311  1.0488
31742SOL    HW295805   2.412   3.138   5.183 -1.1499  0.4632  0.1050
31743SOL     OW95806   1.806   8.577   1.835  0.4626 -0.4880 -0.0382
31743SOL    HW195807   1.886   8.552   1.882  1.6370 -1.6588 -2.5116
31743SOL    HW295808   1.836   8.636   1.766 -0.8046 -1.0012 -1.0547
31744SOL     OW95809   3.023   5.808   4.770  0.1702 -0.1511  0.1627
31744SOL    HW195810   3.029   5.739   4.704  0.9362 -0.8709  0.9497
31744SOL    HW295811   3.068   5.883   4.731 -3.2309  0.9883 -1.9326
31745SOL     OW95812   3.151   5.218   9.375  0.0578  0.1460 -0.3038
31745SOL    HW195813   3.222   5.242   9.316 -0.2915  2.3198  0.0750
31745SOL    HW295814   3.072   5.226   9.321 -0.1684  1.1240  0.1470
31746SOL     OW95815   4.963   8.112   6.726  0.7013  0.1423  0.4232
31746SOL    HW195816   4.935   8.021   6.739  2.5318 -0.3091  1.5460
31746SOL    HW295817   4.883   8.163   6.739 -0.2755 -1.2709  0.2299
31747SOL     OW95818   7.869   8.985   4.068  0.1076 -0.0166  0.2841
31747SOL    HW195819   7.791   9.018   4.023  0.7335 -0.7545 -1.4545
31747SOL    HW295820   7.925   9.062   4.079 -0.6090  0.4096  1.0172
31748SOL     OW95821  -0.012   3.828   7.665  0.0823  0.1014  0.1174
31748SOL    HW195822   0.079   3.801   7.654 -0.1231 -0.8842  0.6993
31748SOL    HW295823  -0.007   3.920   7.692  0.9052  0.0541  0.1436
31749SOL     OW95824   6.156   1.638   3.667  0.1054 -0.0212 -0.2394
31749SOL    HW195825   6.114   1.703   3.724  1.3613  1.2578 -0.7256
31749SOL    HW295826   6.179   1.686   3.588 -0.0902 -1.3864 -1.1716
31750SOL     OW95827   5.599   5.089   9.618 -0.5176 -0.6750 -0.1331
31750SOL    HW195828   5.596   5.061   9.709  0.3800  1.4587  0.6341
31750SOL    HW295829   5.520   5.054   9.578 -1.5289 -0.6772  1.7815
31751SOL     OW95830   4.328   6.576   6.815  0.1085 -0.4770  0.0931
31751SOL    HW195831   4.285   6.653   6.853 -1.9425 -1.1320 -0.7470
31751SOL    HW295832   4.355   6.605   6.728  1.7322  0.0274  0.7356
31752SOL     OW95833   3.138   6.619   2.828  0.1005  0.1317 -0.1770
31752SOL    HW195834   3.104   6.708   2.839 -0.1425  0.0345 -0.1196
31752SOL    HW295835   3.074   6.564   2.874  0.6038 -0.0122  0.3680
31753SOL     OW95836   5.218   8.229   9.461  0.1865 -0.0489 -0.0052
31753SOL    HW195837   5.239   8.162   9.396  2.5443 -0.0564  0.6757
31753SOL    HW295838   5.259   8.197   9.542  0.0719  1.4843  0.6858
31754SOL     OW95839   4.544   7.222   3.339 -0.2374  0.3674  0.3894
31754SOL    HW195840   4.495   7.195   3.417 -1.0359  0.3183 -0.1183
31754SOL    HW295841   4.519   7.314   3.326  1.3013  0.9425  1.2298
31755SOL     OW95842   1.879   5.503   3.349 -0.4966  0.6004  0.1666
31755SOL    HW195843   1.930   5.437   3.303 -1.4735 -0.4949  0.5987
31755SOL    HW295844   1.876   5.577   3.289  0.7140  0.2984 -0.2810
31756SOL     OW95845   9.640   3.624   0.041 -0.5052 -0.1901  0.4388
31756SOL    HW195846   9.692   3.545   0.057 -1.2786 -0.6740  0.6828
31756SOL    HW295847   9.550   3.591   0.035 -0.9375  0.7613  1.3485
31757SOL     OW95848   3.051   9.745   8.596 -0.4556 -0.3551  0.6327
31757SOL    HW195849   3.019   9.818   8.541  2.5592  0.6059 -0.0114
31757SOL    HW295850   3.019   9.766   8.684  0.2477  1.7388  0.4426
31758SOL     OW95851   3.176   1.261   4.334 -0.1533  0.7992 -0.3216
31758SOL    HW195852   3.181   1.292   4.244 -2.5326  1.5339 -0.2643
31758SOL    HW295853   3.091   1.218   4.340 -0.0350  0.7548  1.5761
31759SOL     OW95854   3.637   7.104   7.716  0.1486 -0.1761 -0.4526
31759SOL    HW195855   3.659   7.187   7.758 -0.2734 -0.4368  0.3184
31759SOL    HW295856   3.574   7.064   7.775 -0.0894 -0.7884 -1.1094
31760SOL     OW95857   7.568   0.652   6.209  0.2246  0.5602  0.0004
31760SOL    HW195858   7.661   0.661   6.230  0.0388  0.5852  0.8690
31760SOL    HW295859   7.543   0.567   6.244  0.1005  0.1809 -0.9753
31761SOL     OW95860   3.873   2.427   7.287  0.1513 -0.5428 -0.3420
31761SOL    HW195861   3.951   2.423   7.344  0.4774 -0.3495 -0.7741
31761SOL    HW295862   3.853   2.335   7.268 -0.1539 -0.6271  0.3428
31762SOL     OW95863   3.529   9.189   0.449  0.0621  0.3242 -0.1890
31762SOL    HW195864   3.525   9.216   0.541  2.5482 -2.4473  0.8659
31762SOL    HW295865   3.437   9.181   0.423 -0.7120  0.8346  2.1655
31763SOL     OW95866   6.453   5.526   9.065  0.5073  0.0934  0.4432
31763SOL    HW195867   6.470   5.620   9.064 -2.8721  0.8553 -0.5811
31763SOL    HW295868   6.413   5.510   9.151 -0.1223 -0.1221  0.1135
31764SOL     OW95869   7.752   4.133   3.695 -0.0043 -0.6233  0.3293
31764SOL    HW195870   7.680   4.178   3.650  1.9905  2.5959  0.0501
31764SOL    HW295871   7.776   4.063   3.635 -0.8326  0.2686 -1.1371
31765SOL     OW95872   7.518   5.826   2.192  0.0934 -0.5647 -0.1374
31765SOL    HW195873   7.485   5.824   2.282 -0.8357  1.0570 -0.3908
31765SOL    HW295874   7.552   5.915   2.182 -0.5717 -0.4564 -1.6374
31766SOL     OW95875   2.187   3.361   8.997 -0.6555  0.0120  0.2733
31766SOL    HW195876   2.121   3.356   8.929 -2.5752 -1.9266  2.1140
31766SOL    HW295877   2.138   3.382   9.077  1.4307  1.7944  1.2016
31767SOL     OW95878   3.234   7.034   8.178 -0.1987  0.2972 -0.3102
31767SOL    HW195879   3.213   7.049   8.271 -0.8308 -0.5842 -0.2947
31767SOL    HW295880   3.277   7.114   8.150  1.1981  0.1022  1.0950
31768SOL     OW95881   6.602   6.336   8.956  0.0046  0.0388  0.3230
31768SOL    HW195882   6.512   6.343   8.989  0.1729 -1.9457  1.3561
31768SOL    HW295883   6.595   6.355   8.863 -1.4169  0.3257  0.4633
31769SOL     OW95884   4.582   7.115   2.298 -0.4849  0.5404  0.1328
31769SOL    HW195885   4.489   7.114   2.321 -0.3242  0.0829  0.7977
31769SOL    HW295886   4.612   7.026   2.316  0.1027  0.7097  0.0082
31770SOL     OW95887   7.797   4.189   7.047 -0.0507 -0.3756 -0.3024
31770SOL    HW195888   7.813   4.258   7.112 -1.6399  0.6495 -0.9496
31770SOL    HW295889   7.709   4.157   7.068 -0.6104  0.0014 -1.9431
31771SOL     OW95890   0.465   7.110   6.507 -0.1310 -0.2965 -0.3597
31771SOL    HW195891   0.481   7.039   6.570  1.2784  0.1744 -0.1543
31771SOL    HW295892   0.534   7.099   6.442  0.9042  1.5992  0.3321
31772SOL     OW95893   6.795   4.139   5.748 -0.6372 -0.4546 -0.2268
31772SOL    HW195894   6.704   4.166   5.755 -0.1530  1.0273  1.0583
31772SOL    HW295895   6.830   4.192   5.676 -1.2462 -2.5562 -2.1694
31773SOL     OW95896   1.370   4.056   3.672 -0.4131  0.0631  0.1236
31773SOL    HW195897   1.423   3.980   3.698 -2.5079 -1.2229  0.8839
31773SOL    HW295898   1.422   4.099   3.604  1.2051 -1.6116  0.2186
31774SOL     OW95899   6.613   4.400   5.378  0.5897 -0.1432  0.5657
31774SOL    HW195900   6.569   4.317   5.358 -1.6719  1.5963 -2.5529
31774SOL    HW295901   6.547   4.450   5.427  1.3873  0.3649  1.1317
31775SOL     OW95902   4.531   2.261   4.783  0.1007  0.3047  0.0325
31775SOL    HW195903   4.545   2.270   4.688  1.7628  0.9949  0.3048
31775SOL    HW295904   4.608   2.303   4.822 -0.0764 -0.8440  1.6879
31776SOL     OW95905   1.797   6.390   9.115  0.1872  0.1821 -0.7929
31776SOL    HW195906   1.768   6.385   9.206  1.2336  0.6072 -0.4274
31776SOL    HW295907   1.718   6.373   9.064 -0.8714  1.8944  0.1650
31777SOL     OW95908   4.138   2.514   8.737 -0.0664 -0.0120 -0.2128
31777SOL    HW195909   4.063   2.574   8.740  0.1333  0.2985 -1.2889
31777SOL    HW295910   4.213   2.567   8.763  0.0948  0.1899 -1.0713
31778SOL     OW95911   9.106   1.852   3.473  0.4195 -0.0838 -0.1809
31778SOL    HW195912   9.164   1.811   3.537  0.2207 -0.3235 -0.1509
31778SOL    HW295913   9.085   1.937   3.509 -0.9655 -0.8293  0.8395
31779SOL     OW95914   3.554   8.933   5.156  0.3357 -0.3840 -0.6027
31779SOL    HW195915   3.549   8.837   5.156  0.4998 -0.3987  0.1196
31779SOL    HW295916   3.471   8.961   5.117 -0.2341 -0.8044  0.2774
31780SOL     OW95917   5.542   3.942   0.126  0.1594 -0.2013 -0.5690
31780SOL    HW195918   5.507   3.879   0.063  2.7219 -2.4536  0.0428
31780SOL    HW295919   5.617   3.981   0.082  0.8775 -0.4530  0.3896
31781SOL     OW95920   5.662   1.082   8.996 -0.2370  0.0574  0.4187
31781SOL    HW195921   5.577   1.059   8.959  0.1055 -0.8128  0.1438
31781SOL    HW295922   5.690   1.004   9.044  0.5386  0.2184  0.2452
31782SOL     OW95923   2.300   7.611   8.578 -0.4038  0.2855 -0.7169
31782SOL    HW195924   2.235   7.544   8.598 -0.2540  0.7570  1.6084
31782SOL    HW295925   2.254   7.694   8.587  0.0768  0.5771 -0.8627
31783SOL     OW95926   1.189   2.239   7.455  0.5563 -0.7931  0.1415
31783SOL    HW195927   1.202   2.277   7.541  0.3312 -1.0733  0.3004
31783SOL    HW295928   1.251   2.167   7.450 -0.6285 -1.8938  0.7571
31784SOL     OW95929   9.831   3.424   2.116 -0.5512  0.1204 -0.0419
31784SOL    HW195930   9.764   3.384   2.171 -0.4233  0.0326  0.0505
31784SOL    HW295931   9.814   3.518   2.121 -0.6184  0.1028  0.0444
31785SOL     OW95932   0.311   4.234   0.311 -0.6047  0.2486 -0.1161
31785SOL    HW195933   0.397   4.230   0.271  0.4044 -0.5010  1.9893
31785SOL    HW295934   0.308   4.319   0.353 -1.9813  1.3805 -2.3211
31786SOL     OW95935   8.101   7.911   9.300 -0.5512  0.1012 -0.3261
31786SOL    HW195936   8.069   7.850   9.234  0.1128 -0.5450 -0.0669
31786SOL    HW295937   8.109   7.858   9.380  1.9745 -0.0191 -0.5786
31787SOL     OW95938   6.676   6.824   9.998 -0.0437  0.7296  0.4749
31787SOL    HW195939   6.684   6.908   9.951 -2.0540  0.4790 -0.4103
31787SOL    HW295940   6.749   6.772   9.965  0.4445  1.6791  0.0139
31788SOL     OW95941   1.509   2.292   9.654 -0.1106  0.0455 -0.4573
31788SOL    HW195942   1.525   2.231   9.726  0.4907 -1.1099 -1.5288
31788SOL    HW295943   1.415   2.286   9.639  0.0578 -1.3899 -1.1649
31789SOL     OW95944   2.244   3.711   0.834 -0.0812  0.4399 -0.4447
31789SOL    HW195945   2.196   3.632   0.809 -0.1576  0.4640 -0.3758
31789SOL    HW295946   2.319   3.713   0.775  1.0288 -0.7780  0.8542
31790SOL     OW95947   4.900   5.106   5.726 -0.1468 -0.0198 -0.2964
31790SOL    HW195948   4.809   5.088   5.751 -0.0637  0.9880  0.8124
31790SOL    HW295949   4.900   5.101   5.631 -1.4359  0.3044 -0.3343
31791SOL     OW95950   8.023   1.498   5.656  0.4481 -0.1533 -0.0784
31791SOL    HW195951   7.964   1.527   5.587  0.2693 -0.9648 -0.2768
31791SOL    HW295952   8.108   1.487   5.611  0.5677  0.2591  0.0418
31792SOL     OW95953   2.128   0.883   7.071 -0.5546  0.1520  0.0532
31792SOL    HW195954   2.183   0.922   7.138  1.1734  1.9316 -2.2372
31792SOL    HW295955   2.163   0.795   7.059  1.7020  1.1158 -1.0925
31793SOL     OW95956   0.155   5.763   7.846 -0.4056 -0.1476 -0.4349
31793SOL    HW195957   0.179   5.801   7.930 -0.5961  0.2765 -0.5715
31793SOL    HW295958   0.222   5.793   7.785 -0.7439  0.2540 -0.6137
31794SOL     OW95959   7.396   2.858   4.922  0.2250  0.2890 -0.1461
31794SOL    HW195960   7.392   2.800   4.846 -0.0195 -1.3903  1.0979
31794SOL    HW295961   7.485   2.893   4.920  0.0273  0.8152 -1.5413
31795SOL     OW95962   2.245   0.313   9.521 -0.3144  0.2574 -0.1712
31795SOL    HW195963   2.326   0.362   9.503 -0.7933  1.3019  0.4075
31795SOL    HW295964   2.242   0.246   9.453  0.4948  0.8732 -0.8458
31796SOL     OW95965   0.413   8.357   3.274 -0.0598  0.0009 -0.0925
31796SOL    HW195966   0.444   8.289   3.215  0.1383 -0.6557  0.7408
31796SOL    HW295967   0.319   8.338   3.286 -0.4267  0.9761 -1.2864
31797SOL     OW95968   1.124   8.009   8.355  0.7965 -0.2226  0.1780
31797SOL    HW195969   1.035   8.028   8.385 -0.0825 -0.1287 -2.2781
31797SOL    HW295970   1.131   7.914   8.358  0.1765 -0.3049 -0.6857
31798SOL     OW95971   1.689   5.939   8.289 -0.0891  0.6458  0.0825
31798SOL    HW195972   1.733   5.984   8.216  2.2035  0.6895  1.4025
31798SOL    HW295973   1.712   5.847   8.278 -1.1931  0.3752 -0.1676
31799SOL     OW95974   0.631   8.572   7.459 -0.0749  0.2813 -0.2844
31799SOL    HW195975   0.693   8.499   7.447  0.9283  1.3175 -1.6149
31799SOL    HW295976   0.658   8.638   7.396 -0.5151  2.1357  1.3621
31800SOL     OW95977   6.096   3.379   5.784 -1.0975 -0.6196 -0.2472
31800SOL    HW195978   6.112   3.285   5.794  0.1114 -0.5514 -1.3833
31800SOL    HW295979   6.149   3.405   5.709  0.5782  1.4899  1.5471
31801SOL     OW95980   3.388   9.711   4.042 -0.1856  0.0290  0.4738
31801SOL    HW195981   3.443   9.683   4.116 -0.1575 -1.4875 -0.0791
31801SOL    HW295982   3.361   9.629   4.000 -0.4687  0.8452 -1.0110
31802SOL     OW95983   9.758   9.617   5.492  0.1015  0.1218 -0.1373
31802SOL    HW195984   9.772   9.535   5.540 -1.8170  0.3194  0.8180
31802SOL    HW295985   9.728   9.589   5.405 -0.3689 -0.1851  0.1236
31803SOL     OW95986   8.442   5.688   8.575  0.5684  0.0866 -0.1689
31803SOL    HW195987   8.437   5.704   8.669 -1.1226 -0.7027 -0.0824
31803SOL    HW295988   8.421   5.595   8.566 -1.0268  0.5388 -1.4428
31804SOL     OW95989   1.860   9.730   5.167  0.2822  0.1966 -0.1924
31804SOL    HW195990   1.950   9.724   5.199  1.0692  2.1003 -1.8470
31804SOL    HW295991   1.841   9.642   5.133  1.5468 -0.2012  0.0814
31805SOL     OW95992   1.249   8.572   1.067  0.2875  0.0047  0.7542
31805SOL    HW195993   1.303   8.534   1.137 -0.0099 -0.4740  0.7238
31805SOL    HW295994   1.313   8.608   1.005  0.5542  0.4945  1.3009
31806SOL     OW95995   2.319   0.247   4.394  0.0984 -0.1488  0.3001
31806SOL    HW195996   2.322   0.257   4.489  0.2121 -1.2170  0.4195
31806SOL    HW295997   2.306   0.154   4.380 -0.2546  0.0417 -0.7341
31807SOL     OW95998   6.890   8.399   0.053  0.3949  0.1584  0.4792
31807SOL    HW195999   6.861   8.314   0.018 -0.5571  0.8670 -0.5279
31807SOL    HW296000   6.809   8.449   0.065  0.8720  0.6594  1.8447
31808SOL     OW96001   2.744   8.874   8.224 -0.7037 -0.1395  0.2223
31808SOL    HW196002   2.718   8.782   8.235 -1.8458  0.3062  1.5115
31808SOL    HW296003   2.695   8.903   8.147  0.8976 -1.0030 -1.1972
31809SOL     OW96004   5.614   1.877   4.598 -0.4539 -0.4119 -0.3931
31809SOL    HW196005   5.523   1.894   4.624 -0.5419  0.5342 -1.2597
31809SOL    HW296006   5.646   1.961   4.568  0.7350 -0.7381 -0.0769
31810SOL     OW96007   0.244   0.965   6.065  0.0786 -0.3034 -0.2574
31810SOL    HW196008   0.317   0.919   6.106 -1.0293 -2.0677 -0.1730
31810SOL    HW296009   0.251   0.943   5.972  0.5398  0.8047 -0.4958
31811SOL     OW96010   4.637   7.588   3.841 -0.2495 -0.1125 -0.6285
31811SOL    HW196011   4.556   7.538   3.828 -1.4981  1.4065  0.8842
31811SOL    HW296012   4.706   7.526   3.819 -1.7967 -1.2901 -2.5893
31812SOL     OW96013   8.211   2.092   1.370 -0.5691  0.4429 -0.9269
31812SOL    HW196014   8.140   2.154   1.389  0.5741  1.5877 -0.2233
31812SOL    HW296015   8.253   2.128   1.292  0.0337  0.4945 -0.5819
31813SOL     OW96016   7.954   6.808   1.079  0.2234  0.4071 -0.4561
31813SOL    HW196017   8.029   6.835   1.132 -0.7476 -0.0520  1.2403
31813SOL    HW296018   7.976   6.835   0.990  3.0117 -0.9384 -0.2905
31814SOL     OW96019   3.516   1.467   7.860  0.0257  0.0968  0.2155
31814SOL    HW196020   3.429   1.504   7.850  0.1320  1.1689  2.6014
31814SOL    HW296021   3.501   1.373   7.868 -0.7243  0.0897 -1.0247
31815SOL     OW96022   5.688   5.854   1.565  0.1609  0.0613  0.4902
31815SOL    HW196023   5.774   5.882   1.597  0.0037  0.4906  0.5552
31815SOL    HW296024   5.641   5.936   1.551 -0.2341 -0.1725  0.4464
31816SOL     OW96025   0.898   0.617   4.170 -0.4878 -0.1437  0.2640
31816SOL    HW196026   0.858   0.543   4.216 -1.3138  0.7189  0.9840
31816SOL    HW296027   0.960   0.653   4.233 -0.5994  0.1877  0.1888
31817SOL     OW96028   7.608   8.468   3.851 -0.4323 -0.0080  0.3009
31817SOL    HW196029   7.674   8.486   3.784 -1.7109  0.4827 -0.8893
31817SOL    HW296030   7.658   8.455   3.932  1.0162  1.9853 -0.2056
31818SOL     OW96031   1.238   3.465   6.208  0.3047  0.9948  0.1674
31818SOL    HW196032   1.245   3.559   6.190  1.2319  0.9888  0.4725
31818SOL    HW296033   1.318   3.428   6.171  0.2400  0.4075  0.6111
31819SOL     OW96034   1.687   0.868   6.568 -0.2540  0.1891  0.1785
31819SOL    HW196035   1.681   0.862   6.473 -1.3113  0.9930  0.1725
31819SOL    HW296036   1.673   0.961   6.587 -0.0846  0.0368  1.1240
31820SOL     OW96037   5.265   7.573   7.588  0.7289  0.0215  0.1628
31820SOL    HW196038   5.292   7.483   7.600  0.7507  0.1942  1.5672
31820SOL    HW296039   5.269   7.612   7.676  0.7685  1.3968 -0.4143
31821SOL     OW96040   5.535   8.131   8.339 -0.1410  0.2434  0.6678
31821SOL    HW196041   5.530   8.221   8.305 -2.4800  0.2627  0.9194
31821SOL    HW296042   5.628   8.118   8.355  0.4620  2.0502 -0.8715
31822SOL     OW96043   4.354   7.719   6.158 -0.2379  0.0190 -0.2831
31822SOL    HW196044   4.335   7.773   6.235  0.5623 -2.5205  1.8452
31822SOL    HW296045   4.271   7.675   6.138 -0.1596 -0.2029 -0.1230
31823SOL     OW96046   1.746   5.664   3.566 -0.1581 -0.1822 -0.0984
31823SOL    HW196047   1.749   5.713   3.648 -0.1391  0.2600 -0.3641
31823SOL    HW296048   1.770   5.575   3.591 -0.6317 -0.1606  0.4584
31824SOL     OW96049   0.794   4.932   9.561 -0.4708 -0.0874  0.0017
31824SOL    HW196050   0.886   4.908   9.556 -0.0957  0.7539  1.8870
31824SOL    HW296051   0.765   4.939   9.470  2.0983  2.4817 -0.7759
31825SOL     OW96052   3.370   2.131   3.934  0.6149  0.2312 -0.0655
31825SOL    HW196053   3.395   2.176   4.015 -0.1079 -1.3449  1.0758
31825SOL    HW296054   3.390   2.039   3.950 -1.0198 -0.3449 -1.0834
31826SOL     OW96055   0.508   1.460   8.043 -0.1519  0.3045  0.4539
31826SOL    HW196056   0.563   1.495   8.113  0.6198 -0.6944  0.3677
31826SOL    HW296057   0.441   1.409   8.088  0.7648 -0.9369  0.4855
31827SOL     OW96058   2.136   8.518   7.562 -0.0935  0.6103 -0.7810
31827SOL    HW196059   2.231   8.524   7.564 -0.0434 -0.1271 -0.7829
31827SOL    HW296060   2.111   8.491   7.650 -0.3703  1.5926 -0.5413
31828SOL     OW96061   5.145   8.748   3.893  0.5035  0.6374 -0.4810
31828SOL    HW196062   5.072   8.716   3.841  0.0767  0.3146  0.2932
31828SOL    HW296063   5.212   8.680   3.884 -0.0827 -0.1009  0.4700
31829SOL     OW96064   7.588   8.017   5.993 -0.2067 -0.0339  0.1472
31829SOL    HW196065   7.628   7.931   6.004  1.3594  0.6395  0.0635
31829SOL    HW296066   7.588   8.054   6.082 -2.3245 -0.6827  0.4661
31830SOL     OW96067   0.777   1.623   9.562  0.5414 -0.7650 -0.2792
31830SOL    HW196068   0.852   1.644   9.617  1.2272  0.5579 -1.6559
31830SOL    HW296069   0.808   1.555   9.503  0.2821 -1.0640 -0.0760
31831SOL     OW96070   1.942   4.341   9.150 -0.0801 -0.1973  0.1689
31831SOL    HW196071   2.024   4.377   9.118  0.4300 -1.4988 -0.0375
31831SOL    HW296072   1.931   4.259   9.103 -0.1442 -1.3682  2.1017
31832SOL     OW96073   3.592   3.138   1.426 -0.2369  0.0058 -0.7908
31832SOL    HW196074   3.669   3.125   1.371  0.7597  2.1491 -0.0318
31832SOL    HW296075   3.622   3.198   1.495 -2.3420  0.1287  0.0966
31833SOL     OW96076   0.657   5.930   7.862 -0.1711  0.2991  0.0999
31833SOL    HW196077   0.625   5.840   7.854 -0.0473  0.2061  0.6161
31833SOL    HW296078   0.579   5.984   7.856 -0.2001  0.1880 -0.6635
31834SOL     OW96079   6.746   8.390   3.486 -0.1203 -0.2768 -0.1963
31834SOL    HW196080   6.759   8.297   3.499 -0.6777 -0.6748 -2.1332
31834SOL    HW296081   6.655   8.406   3.511 -0.4755 -0.5760 -1.2287
31835SOL     OW96082   1.353   9.624   6.459 -0.3885 -0.0939 -0.1694
31835SOL    HW196083   1.387   9.662   6.377 -1.1692  1.4218  0.1739
31835SOL    HW296084   1.263   9.601   6.439 -0.8086  0.9469  0.4401
31836SOL     OW96085   6.120   2.780   8.837  0.0908 -0.3662 -0.4417
31836SOL    HW196086   6.087   2.743   8.755  1.4284 -0.6607 -0.8627
31836SOL    HW296087   6.212   2.755   8.840 -0.1935 -1.3736  1.7370
31837SOL     OW96088   4.451   2.195   9.116 -0.0941 -0.2061  0.1840
31837SOL    HW196089   4.520   2.243   9.070  0.1628 -0.4975  0.2590
31837SOL    HW296090   4.407   2.145   9.047 -0.8007  0.6529  0.0031
31838SOL     OW96091   4.233   4.421   0.815  0.0678  0.1745 -0.0032
31838SOL    HW196092   4.327   4.436   0.803  0.3320 -1.2509  0.1421
31838SOL    HW296093   4.213   4.347   0.758 -0.3992 -1.2333  1.8669
31839SOL     OW96094   7.984   3.467   5.534 -0.0456 -0.1917 -0.0574
31839SOL    HW196095   8.003   3.427   5.619 -1.5779 -2.4634 -0.6912
31839SOL    HW296096   7.888   3.471   5.530  0.0172  2.2744 -0.6742
31840SOL     OW96097   3.335   6.345   8.921 -0.0833  0.1620  0.2998
31840SOL    HW196098   3.376   6.270   8.963  2.9207 -0.2595 -3.0358
31840SOL    HW296099   3.259   6.309   8.876  0.5510 -0.6152 -0.1538
31841SOL     OW96100   3.411   4.104   3.870  0.2459  0.6426 -0.0633
31841SOL    HW196101   3.327   4.111   3.825 -0.1075  1.8214  0.7306
31841SOL    HW296102   3.452   4.189   3.857  0.6168  0.6243  0.9025
31842SOL     OW96103   7.587   6.755   6.374  0.0344  0.3489  0.6439
31842SOL    HW196104   7.622   6.680   6.421  2.2646  0.6463 -0.4373
31842SOL    HW296105   7.592   6.730   6.282  1.0127  1.8686  0.2528
31843SOL     OW96106   6.026   6.138   8.231  0.0478 -0.1949  0.0205
31843SOL    HW196107   6.114   6.104   8.247  1.5742  2.4558 -1.7993
31843SOL    HW296108   6.000   6.179   8.313  0.5432 -0.9385  0.5504
31844SOL     OW96109   8.078   2.097   2.462 -0.5111 -0.4446  0.4080
31844SOL    HW196110   8.006   2.160   2.470 -0.6579 -0.6157  0.4632
31844SOL    HW296111   8.137   2.136   2.398  0.0459  0.3543  1.3820
31845SOL     OW96112   3.815   6.335   7.311 -0.1956 -0.3533  0.1079
31845SOL    HW196113   3.882   6.267   7.305  0.6352  0.5494 -1.8485
31845SOL    HW296114   3.794   6.340   7.404  1.4721 -1.5956  0.6053
31846SOL     OW96115   6.816   9.085   9.667  0.1848  0.4060  0.2356
31846SOL    HW196116   6.865   9.006   9.646 -0.4227 -0.0870  0.6609
31846SOL    HW296117   6.724   9.061   9.656 -0.0859  0.5920  1.8467
31847SOL     OW96118   7.954   3.456   7.370  0.1417  0.3204  0.2639
31847SOL    HW196119   7.879   3.504   7.334 -0.0469 -0.5391 -0.5222
31847SOL    HW296120   8.010   3.524   7.406 -0.4938  1.0717 -0.1222
31848SOL     OW96121   7.477   2.560   5.360 -0.1489  0.2769  0.2888
31848SOL    HW196122   7.483   2.562   5.264 -0.2704 -1.5897  0.2042
31848SOL    HW296123   7.558   2.519   5.388 -1.1870 -1.5243  0.7891
31849SOL     OW96124   7.267   3.015   5.677 -0.0932 -0.2852  0.2158
31849SOL    HW196125   7.253   3.057   5.593  1.2888 -0.8670 -0.3295
31849SOL    HW296126   7.325   3.075   5.725  1.0494 -1.0496 -0.1746
31850SOL     OW96127   3.310   4.993   7.979 -0.8500  0.4422 -0.1939
31850SOL    HW196128   3.279   4.977   8.068  1.7996 -1.7340  0.4895
31850SOL    HW296129   3.400   4.960   7.979 -0.7304  0.4023 -3.6804
31851SOL     OW96130   4.828   9.347   8.545  0.3153 -0.3790  0.0064
31851SOL    HW196131   4.871   9.416   8.596 -1.3509  1.0905 -0.4706
31851SOL    HW296132   4.817   9.385   8.458 -1.6023 -0.7933  0.0252
31852SOL     OW96133   7.353   6.944   4.217 -0.1403  0.9639 -0.2626
31852SOL    HW196134   7.308   7.023   4.189 -0.1655  1.1163  0.2042
31852SOL    HW296135   7.288   6.874   4.207 -0.4572  1.1700  0.3224
31853SOL     OW96136   4.008   3.475   8.189  0.2594  0.6288 -0.0574
31853SOL    HW196137   4.091   3.454   8.231  1.0550 -0.9278 -2.2321
31853SOL    HW296138   4.026   3.554   8.139  1.5720 -1.3906 -3.1228
31854SOL     OW96139   6.250   1.006   8.652  0.2607  0.0984  0.2219
31854SOL    HW196140   6.346   1.006   8.647  0.3453 -2.2982  0.7916
31854SOL    HW296141   6.221   1.003   8.561  0.7838 -1.0719  0.0796
31855SOL     OW96142   1.185   4.305   8.023 -0.4837 -0.7607 -0.4073
31855SOL    HW196143   1.249   4.240   7.997  2.1469  1.3619  0.3520
31855SOL    HW296144   1.149   4.272   8.105  2.3713 -0.3916  1.1139
31856SOL     OW96145   4.881   4.171   7.252 -0.1556 -0.2309  0.2886
31856SOL    HW196146   4.922   4.255   7.271  0.4033 -0.2555 -0.7248
31856SOL    HW296147   4.885   4.163   7.156 -0.8091 -1.1059  0.3132
31857SOL     OW96148   5.970   1.710   4.268 -0.3216  0.3495 -0.3804
31857SOL    HW196149   5.946   1.621   4.243  0.6172 -0.6505  1.9877
31857SOL    HW296150   5.894   1.744   4.315 -0.1275  0.2244  0.0285
31858SOL     OW96151   5.284   6.665   4.005 -0.2308 -0.0806 -0.0439
31858SOL    HW196152   5.257   6.665   4.097  0.0047 -0.8743  0.0324
31858SOL    HW296153   5.301   6.573   3.985  0.9307  0.2157 -0.5200
31859SOL     OW96154   5.179   8.199   2.155  0.1752 -0.7138  0.5797
31859SOL    HW196155   5.134   8.248   2.223 -0.8299 -0.9663  0.1053
31859SOL    HW296156   5.156   8.243   2.073 -1.0618 -2.1650  0.1013
31860SOL     OW96157   6.807   8.537   8.054 -0.1552 -0.1836 -0.0926
31860SOL    HW196158   6.858   8.458   8.072  1.7345  0.7635 -0.8959
31860SOL    HW296159   6.760   8.517   7.973  0.0000 -0.6302 -0.0785
31861SOL     OW96160   9.182   9.768   4.126  0.3741  0.3396  0.0576
31861SOL    HW196161   9.159   9.687   4.171  1.7165 -0.9743 -1.4759
31861SOL    HW296162   9.238   9.815   4.187 -0.2743  0.0372  0.8988
31862SOL     OW96163   1.024   5.990   7.494  0.6268 -0.1069  0.0106
31862SOL    HW196164   1.032   5.897   7.515 -0.8773 -0.4764 -0.9015
31862SOL    HW296165   0.947   6.020   7.542  0.6712  0.4812 -0.2656
31863SOL     OW96166   3.996   6.436   8.325 -0.1564  0.5710  0.1953
31863SOL    HW196167   4.074   6.491   8.315 -0.0408  0.7691  1.8513
31863SOL    HW296168   3.929   6.496   8.359 -1.0194  0.3787 -1.1003
31864SOL     OW96169   1.865   6.837   0.389  0.1007 -0.0104 -0.4512
31864SOL    HW196170   1.846   6.744   0.374 -1.1442  0.2457 -0.5779
31864SOL    HW296171   1.802   6.864   0.455  0.4559  0.7539 -0.4151
31865SOL     OW96172   0.604   7.067   3.102  0.0818 -0.4409  0.3569
31865SOL    HW196173   0.661   7.102   3.170 -2.0816  0.2088  1.9723
31865SOL    HW296174   0.597   6.974   3.123  1.2349 -0.7283 -0.4275
31866SOL     OW96175   0.192   4.979   4.096 -0.1562 -0.5972 -0.4321
31866SOL    HW196176   0.199   4.885   4.081 -0.3022 -0.7772  0.5599
31866SOL    HW296177   0.190   5.017   4.008  1.1835 -1.4087 -0.8366
31867SOL     OW96178   7.580   2.483   1.042  0.2196 -0.2613 -0.1127
31867SOL    HW196179   7.577   2.469   0.947 -0.5165 -1.5582  0.0672
31867SOL    HW296180   7.544   2.402   1.079  0.6690  0.1461  1.2836
31868SOL     OW96181   9.940   1.428   3.033  0.0025 -0.1389  0.0893
31868SOL    HW196182   9.888   1.501   3.066  0.3490  0.9887 -1.7396
31868SOL    HW296183  10.025   1.437   3.077 -0.2376  0.0572  0.5130
31869SOL     OW96184   7.113   2.082   3.550 -0.9130  0.6445  0.2949
31869SOL    HW196185   7.057   2.101   3.625 -0.8808  2.1429 -0.0207
31869SOL    HW296186   7.201   2.073   3.587 -0.9691  0.9139  0.4953
31870SOL     OW96187   9.849   4.399   2.206  0.1058  0.2965 -0.8309
31870SOL    HW196188   9.835   4.476   2.260 -1.7575  0.2992 -1.2568
31870SOL    HW296189   9.884   4.333   2.266  0.8953  1.1878 -0.2825
31871SOL     OW96190   7.783   1.357   7.867  0.0511 -0.3297 -0.3149
31871SOL    HW196191   7.827   1.284   7.822 -1.3999 -0.9772 -0.7249
31871SOL    HW296192   7.693   1.327   7.879 -0.2022  0.8139  0.8631
31872SOL     OW96193   8.787   6.928   4.959  0.4194  0.0943  0.7975
31872SOL    HW196194   8.712   6.946   5.017 -0.1711  0.4646 -0.0617
31872SOL    HW296195   8.863   6.936   5.016 -0.1966 -0.3287  1.7042
31873SOL     OW96196   1.391   2.460   4.981  0.7932 -0.0049  0.2451
31873SOL    HW196197   1.444   2.536   5.007 -1.1232  1.5039 -0.0100
31873SOL    HW296198   1.398   2.457   4.886 -0.8578  1.3147  0.0139
31874SOL     OW96199   0.707   3.693   5.034 -0.2393 -0.5799 -0.5987
31874SOL    HW196200   0.779   3.751   5.009 -0.1001 -0.6586 -0.3751
31874SOL    HW296201   0.725   3.669   5.124 -1.5061  0.8657  0.0875
31875SOL     OW96202   5.690   5.655   4.132  0.6481  0.2966 -0.5654
31875SOL    HW196203   5.603   5.614   4.130 -0.1488  1.9402 -1.3389
31875SOL    HW296204   5.730   5.621   4.211 -1.4976  1.0214  0.9341
31876SOL     OW96205   1.765   5.077   6.561 -0.2602 -0.2699  0.4121
31876SOL    HW196206   1.794   4.987   6.575 -0.4299 -0.2377  0.9884
31876SOL    HW296207   1.839   5.131   6.591  0.9123 -0.2087 -2.2870
31877SOL     OW96208   8.869   6.258   8.235 -0.2671 -0.1276  0.1780
31877SOL    HW196209   8.791   6.277   8.182  1.0610  1.2786 -1.3536
31877SOL    HW296210   8.892   6.168   8.211 -1.2214 -0.4450  0.4051
31878SOL     OW96211   3.862   7.607   7.782  0.0690 -0.0694  0.1019
31878SOL    HW196212   3.956   7.590   7.790  0.1633  0.2410 -0.3402
31878SOL    HW296213   3.850   7.632   7.691 -0.3885  0.2540  0.2497
31879SOL     OW96214   0.926   1.049   7.962  0.0270  0.2106  0.5400
31879SOL    HW196215   0.961   1.090   8.041  0.6199  0.8525 -0.0409
31879SOL    HW296216   0.850   1.103   7.939 -0.1654  0.0044  0.6827
31880SOL     OW96217   3.220   8.770   7.177 -0.5313  0.3490 -0.4161
31880SOL    HW196218   3.257   8.763   7.265 -1.1349  2.3398  0.0412
31880SOL    HW296219   3.156   8.698   7.172  1.4049 -1.4815 -0.2734
31881SOL     OW96220   6.408   8.315   5.731 -0.2860  0.0750 -0.0942
31881SOL    HW196221   6.336   8.332   5.791  0.4332 -3.0121  1.8624
31881SOL    HW296222   6.377   8.245   5.674  0.8226 -0.7999  0.3127
31882SOL     OW96223   2.699   8.839   9.749  0.5131 -0.2495 -0.2056
31882SOL    HW196224   2.687   8.746   9.735 -1.6808  0.1943 -1.6636
31882SOL    HW296225   2.613   8.871   9.775  1.0344  1.4977 -0.4755
31883SOL     OW96226   6.148   3.127   2.121  0.2556 -0.3303  0.5583
31883SOL    HW196227   6.221   3.170   2.166  0.6748 -0.2753 -0.1443
31883SOL    HW296228   6.146   3.169   2.035  0.5844 -1.6149 -0.0906
31884SOL     OW96229   0.551   3.619   8.834  0.3649 -0.2533 -0.2897
31884SOL    HW196230   0.554   3.532   8.795 -2.2919 -0.5859  0.0515
31884SOL    HW296231   0.584   3.677   8.766  0.4981 -1.3295 -1.1757
31885SOL     OW96232   0.981   2.490   6.426  0.4249  0.1382 -0.1547
31885SOL    HW196233   1.017   2.519   6.342  0.0129  2.3168  0.3691
31885SOL    HW296234   0.888   2.477   6.408  0.5808 -0.7822 -0.3499
31886SOL     OW96235   3.227   0.514   1.134  0.1396  0.1141 -0.3101
31886SOL    HW196236   3.181   0.530   1.051  0.0238 -0.1888 -0.3058
31886SOL    HW296237   3.221   0.419   1.147 -2.2983  0.3937  1.4262
31887SOL     OW96238   2.695   0.144   5.265 -0.6404 -0.2431 -0.6128
31887SOL    HW196239   2.749   0.157   5.188 -2.1129  0.9093 -1.5183
31887SOL    HW296240   2.722   0.059   5.300  2.2162  0.5970 -0.5435
31888SOL     OW96241   4.487   0.519   1.368 -0.1629  0.2085  0.5008
31888SOL    HW196242   4.490   0.478   1.455 -0.1363 -1.2323 -0.1509
31888SOL    HW296243   4.396   0.548   1.359 -0.2378  0.1121  0.8998
31889SOL     OW96244   3.491   3.588   5.529 -0.0552  0.1418  0.1532
31889SOL    HW196245   3.550   3.564   5.457 -1.1233  0.2181 -0.7843
31889SOL    HW296246   3.520   3.675   5.555  1.1911 -0.4256  0.7469
31890SOL     OW96247   4.486   1.534   6.477 -0.1348 -0.2235 -0.2059
31890SOL    HW196248   4.461   1.593   6.406  0.5386  0.0036 -0.2629
31890SOL    HW296249   4.497   1.449   6.435  1.6017  0.1889 -0.6422
31891SOL     OW96250   7.862   4.372   3.802  0.3679  0.4768  0.8919
31891SOL    HW196251   7.949   4.350   3.837  1.7683  0.6040 -2.2108
31891SOL    HW296252   7.831   4.291   3.763  0.0274  0.9518  0.1611
31892SOL     OW96253   8.031   8.595   2.057 -0.1750 -0.4471  0.4628
31892SOL    HW196254   8.104   8.548   2.099  0.9730  1.0916  0.3105
31892SOL    HW296255   8.061   8.609   1.967 -0.4918  0.5142  0.5013
31893SOL     OW96256   6.454   9.171   8.134  0.5321 -0.2155 -0.2946
31893SOL    HW196257   6.442   9.153   8.040  0.5545  1.9386 -0.7454
31893SOL    HW296258   6.397   9.108   8.177  0.5719 -1.3009 -1.7417
31894SOL     OW96259   4.766   8.915   5.462  0.4718 -0.0633  0.3784
31894SOL    HW196260   4.803   8.828   5.478 -1.9616 -1.1113  0.7026
31894SOL    HW296261   4.771   8.958   5.547  0.7552 -0.2771  0.4728
31895SOL     OW96262   9.097   9.595   5.344  0.6377  0.3363 -0.5729
31895SOL    HW196263   9.009   9.601   5.308  1.0699 -0.2233 -1.7884
31895SOL    HW296264   9.085   9.596   5.439 -0.5386  2.0106 -0.6943
31896SOL     OW96265   6.650   2.497   1.840  0.6915  0.3335  0.1291
31896SOL    HW196266   6.638   2.402   1.847 -0.6458  0.5572  1.3090
31896SOL    HW296267   6.561   2.532   1.838  1.1603  1.5274 -1.2043
31897SOL     OW96268   1.061   2.037   8.509 -0.1627  0.0468  0.1101
31897SOL    HW196269   0.989   2.100   8.517 -0.8129 -0.7348  0.5612
31897SOL    HW296270   1.030   1.959   8.555 -0.0390 -1.1980 -1.7890
31898SOL     OW96271   6.177   9.559   0.346 -0.0360  0.5478 -0.1606
31898SOL    HW196272   6.201   9.639   0.394  1.1396 -0.1129  0.3966
31898SOL    HW296273   6.082   9.566   0.334  0.0931  2.2182 -0.4811
31899SOL     OW96274   1.502   5.744   5.337  0.0376 -0.4061 -0.0379
31899SOL    HW196275   1.551   5.675   5.292  2.6360 -0.3973  2.5346
31899SOL    HW296276   1.450   5.697   5.403  0.1926 -0.0588  0.3324
31900SOL     OW96277   7.861   8.640   3.049 -0.0887  0.0739 -0.1525
31900SOL    HW196278   7.930   8.575   3.033 -0.6116 -0.2638 -1.1788
31900SOL    HW296279   7.780   8.592   3.035 -0.6010  0.2022  2.0524
31901SOL     OW96280   2.366   5.013   9.818  0.5698  0.5070  0.3123
31901SOL    HW196281   2.393   4.943   9.877  1.1868  1.8920  1.7441
31901SOL    HW296282   2.396   4.984   9.732 -0.3065 -1.5370  0.6298
31902SOL     OW96283   8.951   1.852   0.757  0.1620  0.1826 -0.4837
31902SOL    HW196284   9.015   1.801   0.708 -0.8860 -0.5837 -1.0800
31902SOL    HW296285   8.866   1.823   0.724 -0.6060 -0.5526  1.9150
31903SOL     OW96286   8.465   7.299   2.852  0.2281  0.5565  0.2685
31903SOL    HW196287   8.412   7.282   2.775  0.5233 -0.8134  0.3549
31903SOL    HW296288   8.511   7.381   2.832 -2.0828  1.9649  0.3117
31904SOL     OW96289   6.254   2.546   3.369  0.2151  0.2887  0.0509
31904SOL    HW196290   6.235   2.639   3.386  1.1064  0.1330  2.3388
31904SOL    HW296291   6.345   2.536   3.394 -0.5096 -1.6658  2.2528
31905SOL     OW96292   6.402   8.602   4.395 -0.3826 -0.0852  0.8303
31905SOL    HW196293   6.400   8.523   4.340  1.1117  0.6526 -0.3519
31905SOL    HW296294   6.338   8.661   4.356 -0.6623 -0.2654  1.0142
31906SOL     OW96295   7.774   4.420   0.785  0.0232 -0.3827 -0.1834
31906SOL    HW196296   7.799   4.354   0.850  0.6994  0.3554  0.3406
31906SOL    HW296297   7.858   4.454   0.754 -0.3122  0.4208 -0.2290
31907SOL     OW96298   9.674   2.978   3.799  0.8557  0.3185  0.2743
31907SOL    HW196299   9.593   2.984   3.747  0.6137 -2.9441  0.0397
31907SOL    HW296300   9.651   3.017   3.883 -0.9526 -0.3244  0.1350
31908SOL     OW96301   3.243   6.898   2.697  0.9098 -0.3969  0.2912
31908SOL    HW196302   3.241   6.969   2.761  2.8540 -0.6881  0.7309
31908SOL    HW296303   3.155   6.860   2.701 -0.0101  1.5766  0.4548
31909SOL     OW96304   7.644   4.954   9.691 -0.2045  0.2793  0.2967
31909SOL    HW196305   7.564   4.911   9.660  0.1710  1.1493 -2.0876
31909SOL    HW296306   7.640   5.043   9.655  1.9998  0.2333 -0.2463
31910SOL     OW96307   6.315   7.584   9.425  0.0980 -0.0412  0.0369
31910SOL    HW196308   6.356   7.584   9.512 -0.7791  0.1742  0.4638
31910SOL    HW296309   6.262   7.505   9.423 -1.9620  1.2254  0.7482
31911SOL     OW96310   3.941   1.429   2.784  0.5007 -0.8487 -0.0803
31911SOL    HW196311   3.860   1.479   2.785  1.7974  1.4203 -0.2162
31911SOL    HW296312   3.937   1.378   2.703 -0.9528 -1.0898  0.1315
31912SOL     OW96313   2.775   1.602   3.150  0.0799  0.5812  0.0937
31912SOL    HW196314   2.839   1.654   3.102  1.7766 -0.0825  1.5315
31912SOL    HW296315   2.699   1.659   3.159 -0.1869  0.8908 -2.9195
31913SOL     OW96316   3.114   5.653   9.123  0.2770  0.1541 -0.0810
31913SOL    HW196317   3.159   5.734   9.100  0.9516 -0.1306  0.2122
31913SOL    HW296318   3.181   5.600   9.166 -1.0462  0.8905  3.1823
31914SOL     OW96319   3.301   6.032   3.935 -0.2848  0.5354  0.0864
31914SOL    HW196320   3.208   6.053   3.945 -0.4095 -0.7229  2.2751
31914SOL    HW296321   3.347   6.109   3.969 -0.6499 -0.2482  2.5709
31915SOL     OW96322   6.500   6.078   5.890  0.1005  0.4338 -0.0429
31915SOL    HW196323   6.423   6.062   5.834 -0.0190  2.1265 -0.4196
31915SOL    HW296324   6.570   6.100   5.828  0.5575  0.1099  0.3614
31916SOL     OW96325   1.666   3.754   7.442 -0.1560 -0.0551 -0.4489
31916SOL    HW196326   1.670   3.843   7.476 -2.3408 -0.1387  0.2123
31916SOL    HW296327   1.582   3.749   7.397 -0.4151 -1.9561  0.1287
31917SOL     OW96328   2.998   7.246   5.603  0.0163 -0.0216 -0.1583
31917SOL    HW196329   2.932   7.271   5.538 -0.8307 -2.1052 -0.1945
31917SOL    HW296330   3.082   7.264   5.561 -0.5077  1.0337 -0.8077
31918SOL     OW96331   0.834   0.151   0.964 -0.1482 -0.5714 -0.1711
31918SOL    HW196332   0.770   0.213   0.931 -1.7992 -0.6442  2.5372
31918SOL    HW296333   0.882   0.199   1.031  0.9535 -1.2436 -0.4496
31919SOL     OW96334   1.195   6.685   1.058  0.4094  0.2367  0.5715
31919SOL    HW196335   1.197   6.780   1.066 -1.5270  0.7484 -2.7531
31919SOL    HW296336   1.103   6.662   1.072  0.8250 -1.1476  1.1950
31920SOL     OW96337   6.242   9.362   3.707 -0.5879  0.7928  0.2719
31920SOL    HW196338   6.168   9.411   3.671 -0.3155  2.2188  1.5471
31920SOL    HW296339   6.315   9.424   3.708  1.0233 -0.9164 -2.0304
31921SOL     OW96340   8.569   8.955   0.195 -0.8716 -0.0743 -0.1066
31921SOL    HW196341   8.565   9.021   0.126  0.5244 -1.0268 -1.1590
31921SOL    HW296342   8.651   8.908   0.178 -0.1972  0.0202  2.5478
31922SOL     OW96343   5.087   6.554   9.681  0.1615 -0.3922 -0.3395
31922SOL    HW196344   5.156   6.493   9.708  1.3562 -0.6919 -3.6091
31922SOL    HW296345   5.059   6.522   9.596 -2.0544  1.3929 -0.3622
31923SOL     OW96346   2.551   2.998   6.243  0.0348  0.4189 -0.1890
31923SOL    HW196347   2.463   2.988   6.278  0.5201 -0.9706  0.7121
31923SOL    HW296348   2.560   2.927   6.179  0.4352  0.6888 -0.4402
31924SOL     OW96349   2.694   3.309   1.555  0.0403  0.4176 -0.1806
31924SOL    HW196350   2.754   3.345   1.490  1.0574  0.4726  0.7634
31924SOL    HW296351   2.743   3.238   1.597 -1.4930 -1.3599 -1.1900
31925SOL     OW96352   6.701   7.044   2.896 -0.0914  0.1215 -0.2246
31925SOL    HW196353   6.659   6.962   2.871 -1.9907  1.1519 -0.5869
31925SOL    HW296354   6.684   7.052   2.990 -0.3691  0.3521 -0.2943
31926SOL     OW96355   6.479   2.626   6.607  0.6243  0.0505 -0.4257
31926SOL    HW196356   6.549   2.561   6.605  0.0923 -0.5692  0.3435
31926SOL    HW296357   6.493   2.674   6.688  0.0121 -0.2635 -0.1226
31927SOL     OW96358   7.265   6.919   8.763  0.2108 -0.3765  0.4393
31927SOL    HW196359   7.293   7.004   8.730 -3.2418  0.9890  0.6465
31927SOL    HW296360   7.270   6.861   8.687  2.4834 -0.0668  0.2646
31928SOL     OW96361   8.795   3.502   4.952  0.6381  0.1971  0.5797
31928SOL    HW196362   8.838   3.481   4.869 -0.7908  0.3029 -0.2320
31928SOL    HW296363   8.844   3.576   4.987  0.2610  1.2690 -1.0408
31929SOL     OW96364   8.263   9.934   3.472  0.2621 -0.0457  0.0071
31929SOL    HW196365   8.184   9.982   3.450  0.6589 -0.1432 -1.7852
31929SOL    HW296366   8.318   9.941   3.394  0.5201 -2.9812 -0.2104
31930SOL     OW96367   2.340   4.514   1.025  0.4555 -0.1039  0.3152
31930SOL    HW196368   2.277   4.573   1.065  0.3298  0.3195 -0.4925
31930SOL    HW296369   2.423   4.561   1.029  0.2960  0.2808 -0.6212
31931SOL     OW96370   4.458   8.780   8.824  0.0486  0.1033  0.0737
31931SOL    HW196371   4.429   8.760   8.735  2.2006  0.8802 -0.8640
31931SOL    HW296372   4.553   8.774   8.821  0.1464 -2.2048  2.9500
31932SOL     OW96373   2.880   2.178   2.307 -0.2642  0.4261 -0.1869
31932SOL    HW196374   2.842   2.099   2.269  1.3503 -0.9112  0.8017
31932SOL    HW296375   2.906   2.231   2.232 -2.1662  0.4562 -0.8626
31933SOL     OW96376   9.088   7.800   1.769 -0.6854  0.3792  0.7055
31933SOL    HW196377   9.053   7.840   1.689 -1.6017 -1.8646 -0.1080
31933SOL    HW296378   9.010   7.770   1.816 -0.0499 -0.7239  1.0809
31934SOL     OW96379   4.425   1.429   2.734 -0.0434 -0.2139 -0.0410
31934SOL    HW196380   4.500   1.380   2.700  1.4894  1.1010  1.2874
31934SOL    HW296381   4.349   1.378   2.706  1.3645 -2.2919 -0.3576
31935SOL     OW96382   4.597   0.915   3.902  0.3745  0.1280 -0.5652
31935SOL    HW196383   4.606   0.869   3.986 -0.3450  1.0191  0.0124
31935SOL    HW296384   4.558   0.999   3.925 -0.6789  0.0259 -1.9105
31936SOL     OW96385   0.228   3.471   7.088  0.3380  0.4328  0.1986
31936SOL    HW196386   0.159   3.482   7.153  1.5159 -0.9141  1.7575
31936SOL    HW296387   0.227   3.553   7.039 -0.9420  1.2991  1.5730
31937SOL     OW96388   1.337   2.714   3.963 -0.2500 -0.5032 -0.1666
31937SOL    HW196389   1.378   2.730   3.878  1.7871 -2.3700  0.3576
31937SOL    HW296390   1.273   2.645   3.946  2.4994 -3.3814  0.2126
31938SOL     OW96391   3.245   9.433   5.699  0.0753  0.8325  0.3083
31938SOL    HW196392   3.196   9.443   5.780 -2.0545  0.2498 -0.8138
31938SOL    HW296393   3.196   9.486   5.635  1.8921  1.5690 -0.5378
31939SOL     OW96394   0.817   3.914   9.766  0.0345  0.2044  0.3755
31939SOL    HW196395   0.770   3.842   9.723 -0.9259  1.7903 -1.3798
31939SOL    HW296396   0.830   3.883   9.856  0.4616 -2.5174 -0.5103
31940SOL     OW96397   7.015   5.568   7.899  0.4475 -0.1964  0.2485
31940SOL    HW196398   7.039   5.585   7.808 -1.1031  1.4822  0.1003
31940SOL    HW296399   6.925   5.598   7.906  0.8579  0.7284  2.6058
31941SOL     OW96400   0.986   9.516   8.985  0.5011 -0.7884  0.1221
31941SOL    HW196401   0.935   9.459   8.926 -1.1629  1.3717 -0.6404
31941SOL    HW296402   1.039   9.570   8.926  0.5870 -0.2084  0.7237
31942SOL     OW96403   9.045   6.638   6.172 -0.3842  0.6654 -0.2587
31942SOL    HW196404   9.123   6.683   6.204  0.3722 -0.1904 -0.8699
31942SOL    HW296405   8.976   6.663   6.234  1.4523 -2.8466  3.6757
31943SOL     OW96406   4.225   4.261   3.864 -0.3916  0.1466  0.2518
31943SOL    HW196407   4.317   4.251   3.843 -0.3157  1.5833 -0.1578
31943SOL    HW296408   4.192   4.326   3.802 -1.2153  1.0828  1.5947
31944SOL     OW96409   0.465   4.853   6.810 -0.4297  0.0297 -0.3504
31944SOL    HW196410   0.420   4.934   6.834 -0.0353  0.5560 -1.3180
31944SOL    HW296411   0.397   4.799   6.769 -0.4934  0.2671 -0.5633
31945SOL     OW96412   7.263   0.883   9.856 -0.0371  0.1953  0.4967
31945SOL    HW196413   7.265   0.893   9.951 -0.7872  0.5764  0.4702
31945SOL    HW296414   7.355   0.865   9.833  0.4791  1.8650  1.0934
31946SOL     OW96415   8.447   1.134   8.021 -0.5653  0.6956 -0.6891
31946SOL    HW196416   8.359   1.110   7.994 -0.7156  0.5528 -0.0834
31946SOL    HW296417   8.504   1.099   7.953 -0.6986 -2.0295  0.4698
31947SOL     OW96418   7.338   5.149   5.127  0.3839  0.3787  0.6701
31947SOL    HW196419   7.308   5.065   5.093  0.7816 -0.0742  1.4090
31947SOL    HW296420   7.433   5.139   5.136  0.3710  0.7147  1.2637
31948SOL     OW96421   9.673   9.022   9.048 -0.0447  0.2462 -0.1613
31948SOL    HW196422   9.667   9.110   9.009  1.5116  0.5744  0.2640
31948SOL    HW296423   9.613   9.024   9.122 -0.2064  0.8873 -0.3016
31949SOL     OW96424   0.823   2.533   5.872 -0.4579 -0.4893 -0.4637
31949SOL    HW196425   0.735   2.570   5.860  0.3722  2.2889  1.1523
31949SOL    HW296426   0.839   2.540   5.966  1.7009 -0.4196 -0.7935
31950SOL     OW96427   0.049   6.227   1.433  0.4665 -0.1593  0.3703
31950SOL    HW196428   0.012   6.219   1.521  0.1348  0.5899  0.3073
31950SOL    HW296429   0.136   6.264   1.447 -0.0198  1.0606  0.3285
31951SOL     OW96430   7.383   7.631   9.747  0.2746 -0.1967  0.0880
31951SOL    HW196431   7.408   7.694   9.680  2.4433 -0.1879  0.8214
31951SOL    HW296432   7.434   7.553   9.727  1.7761  0.1341  2.2314
31952SOL     OW96433   8.049   2.361   3.610  0.0182 -0.1093 -0.2685
31952SOL    HW196434   8.105   2.361   3.687 -1.9052  2.1096  1.3074
31952SOL    HW296435   8.091   2.421   3.549  1.6960 -2.0902 -1.1767
31953SOL     OW96436   6.944   7.959   6.666  0.4021  0.2045 -0.4844
31953SOL    HW196437   6.929   7.904   6.589 -0.6943  0.8245 -0.7345
31953SOL    HW296438   6.871   7.939   6.724  1.9741 -1.3505  1.0947
31954SOL     OW96439   7.184   2.749   8.866 -0.5241  0.1535 -0.3820
31954SOL    HW196440   7.267   2.726   8.826 -0.2893 -2.3672  1.3054
31954SOL    HW296441   7.208   2.802   8.942 -0.5612  0.4221 -0.5565
31955SOL     OW96442   1.389   2.230   6.849 -0.1526 -0.8980 -0.4675
31955SOL    HW196443   1.293   2.229   6.839 -0.1790 -0.7818 -0.2211
31955SOL    HW296444   1.411   2.140   6.870 -0.4211 -0.5594  1.4667
31956SOL     OW96445   2.274   5.282   6.884  0.0610 -0.8061 -0.0355
31956SOL    HW196446   2.293   5.245   6.798  0.8923  0.9686 -0.6622
31956SOL    HW296447   2.213   5.220   6.923  0.5606 -2.2505 -1.4304
31957SOL     OW96448   1.044   8.926   7.670  0.2163 -0.6316  0.0706
31957SOL    HW196449   1.118   8.976   7.636  0.9280 -1.2364  0.7127
31957SOL    HW296450   1.068   8.834   7.657  0.3303 -0.8804  1.7810
31958SOL     OW96451   4.521   0.863   5.199 -0.4004  0.1082  0.2299
31958SOL    HW196452   4.436   0.889   5.165  0.3200  0.9186 -1.0235
31958SOL    HW296453   4.585   0.899   5.137  0.8246 -1.4758  0.4939
31959SOL     OW96454   9.074   0.471   7.210  0.6955  0.1871 -0.5649
31959SOL    HW196455   9.088   0.508   7.297  0.5031  0.0152 -0.4596
31959SOL    HW296456   9.133   0.520   7.153 -0.4699  1.5640 -0.6505
31960SOL     OW96457   6.517   1.885   3.364  0.6057  0.1269  0.3060
31960SOL    HW196458   6.610   1.904   3.349  0.7125  2.3322  2.9281
31960SOL    HW296459   6.517   1.809   3.421  0.6384 -1.2955 -1.5111
31961SOL     OW96460   5.242   7.884   2.579  0.6164 -0.2084 -0.1275
31961SOL    HW196461   5.247   7.968   2.534  0.6518 -1.2519 -2.2295
31961SOL    HW296462   5.148   7.870   2.594  0.3902 -0.7493 -1.8255
31962SOL     OW96463   4.840   3.543   1.284 -0.1318 -0.0857 -0.6822
31962SOL    HW196464   4.898   3.495   1.225  1.0592  0.3941  0.0488
31962SOL    HW296465   4.900   3.596   1.338 -1.2721  0.6016 -0.0540
31963SOL     OW96466   4.889   8.088   7.223 -0.2844  0.1148  0.0929
31963SOL    HW196467   4.926   8.022   7.164 -0.5730 -0.0824  0.1287
31963SOL    HW296468   4.804   8.109   7.185 -0.4312  0.0564  0.3881
31964SOL     OW96469   9.677   5.322   4.578  0.3408  0.4021  0.2585
31964SOL    HW196470   9.614   5.305   4.508 -0.0538 -0.9357  0.8933
31964SOL    HW296471   9.762   5.329   4.534  0.1066 -0.5070 -0.3635
31965SOL     OW96472   4.406   2.775   7.464  0.1379  0.3152 -0.5426
31965SOL    HW196473   4.384   2.792   7.372  1.6176 -0.7817 -1.1414
31965SOL    HW296474   4.420   2.861   7.502 -0.8169  0.8037 -1.2484
31966SOL     OW96475   1.304   0.430   8.922 -0.1960  0.4285  0.6178
31966SOL    HW196476   1.219   0.473   8.913  0.7506  2.1871 -0.5295
31966SOL    HW296477   1.350   0.481   8.989  0.1783 -0.1287  0.7924
31967SOL     OW96478   9.491   6.137   4.455  0.3821  0.3826 -0.2296
31967SOL    HW196479   9.523   6.207   4.399  1.8584  1.1916  1.5202
31967SOL    HW296480   9.521   6.057   4.412 -0.5170  0.8329 -1.7631
31968SOL     OW96481   4.107   5.122   6.622  0.0268  0.2845  0.0556
31968SOL    HW196482   4.138   5.032   6.612  0.3467  0.4651 -0.6150
31968SOL    HW296483   4.104   5.135   6.717  0.6547 -0.2024  0.1526
31969SOL     OW96484   8.259   7.862   3.612 -0.3145  0.8301  0.6635
31969SOL    HW196485   8.196   7.928   3.584  1.2305  1.8780 -0.5423
31969SOL    HW296486   8.266   7.802   3.537  0.9365  1.3983  0.2870
31970SOL     OW96487   2.372   7.620   1.436 -0.4410 -0.2225  0.1319
31970SOL    HW196488   2.358   7.527   1.422 -0.7280  0.0424 -1.5690
31970SOL    HW296489   2.304   7.645   1.499 -1.2556 -0.9052 -0.4504
31971SOL     OW96490   5.322   7.570   3.763  0.7127  0.4192 -0.0821
31971SOL    HW196491   5.254   7.636   3.771 -0.7367 -0.6575 -2.4450
31971SOL    HW296492   5.404   7.620   3.756 -0.1602  1.8824 -0.1300
31972SOL     OW96493   8.902   5.408   7.357 -0.2904  0.1666  0.5563
31972SOL    HW196494   8.942   5.447   7.280  0.0317  0.5965  0.9393
31972SOL    HW296495   8.970   5.353   7.395 -0.3884  0.0967  0.6329
31973SOL     OW96496   8.435   2.866   6.932 -0.3833  0.1470  0.1866
31973SOL    HW196497   8.482   2.929   6.986  0.5580 -0.6648  0.3343
31973SOL    HW296498   8.431   2.907   6.846  0.5410  0.2584  0.1901
31974SOL     OW96499   5.446   8.056   7.735 -0.1486 -0.0554  0.2132
31974SOL    HW196500   5.410   8.141   7.761 -1.0528 -0.1958 -0.5537
31974SOL    HW296501   5.378   7.993   7.756 -1.3361 -0.1024 -3.1845
31975SOL     OW96502   8.464   8.344   3.245  0.0810  0.3288 -0.2690
31975SOL    HW196503   8.481   8.323   3.336  1.5045  1.7539 -0.1550
31975SOL    HW296504   8.416   8.428   3.248 -0.8440 -0.1582 -0.8206
31976SOL     OW96505   4.764   9.127   2.301 -0.0121 -0.6019 -0.1647
31976SOL    HW196506   4.778   9.032   2.292  0.6178 -0.6614  1.2251
31976SOL    HW296507   4.831   9.167   2.245  0.0001 -0.9657 -0.4158
31977SOL     OW96508   9.935   0.527   0.723 -0.2998 -0.1013 -0.1093
31977SOL    HW196509   9.862   0.584   0.745 -0.3117  0.1380 -0.7579
31977SOL    HW296510   9.975   0.506   0.807 -1.6078 -0.9049  0.3415
31978SOL     OW96511   2.996   8.739   0.079  0.3948  0.1228 -0.6670
31978SOL    HW196512   2.950   8.657   0.060 -0.0005  0.7941 -2.7693
31978SOL    HW296513   2.965   8.801   0.013  1.2805  1.7680  0.3797
31979SOL     OW96514   2.164   8.722   2.718 -0.1964 -0.3842 -0.3140
31979SOL    HW196515   2.175   8.635   2.755  1.1004  0.2129  0.8192
31979SOL    HW296516   2.076   8.749   2.744 -0.3558 -1.0904 -0.1105
31980SOL     OW96517   8.783   0.192   4.049 -0.2302 -0.2340  0.0176
31980SOL    HW196518   8.715   0.131   4.078  0.6864 -0.8231  1.0345
31980SOL    HW296519   8.832   0.145   3.982 -0.7862  0.1803 -0.6963
31981SOL     OW96520   0.723   0.782   5.900 -0.3027 -0.4576 -0.1425
31981SOL    HW196521   0.691   0.693   5.914 -0.5073 -0.1882  1.2750
31981SOL    HW296522   0.797   0.772   5.840  0.1025 -1.6646  0.5317
31982SOL     OW96523   8.388   1.580   3.189 -0.7614  0.3595 -0.4848
31982SOL    HW196524   8.354   1.662   3.154  1.6366  0.8609 -1.8894
31982SOL    HW296525   8.442   1.544   3.118 -0.2313 -1.4923  0.7689
31983SOL     OW96526   9.829   0.554   1.700  0.0254 -0.3102 -0.6310
31983SOL    HW196527   9.735   0.536   1.705  0.2315 -1.4586 -0.5208
31983SOL    HW296528   9.849   0.553   1.607  0.3092 -2.3744 -0.5945
31984SOL     OW96529   1.654   9.298   7.548  0.1023  0.0431  0.6195
31984SOL    HW196530   1.676   9.390   7.537  2.2090 -0.6336 -1.6350
31984SOL    HW296531   1.641   9.287   7.643 -3.1917  3.1715  0.7443
31985SOL     OW96532   2.984   8.988   7.130  0.1658 -0.4162 -0.1672
31985SOL    HW196533   2.988   9.082   7.143  0.3159 -0.3644 -0.5720
31985SOL    HW296534   3.067   8.955   7.164 -0.0160 -0.4378  0.2567
31986SOL     OW96535   3.170   7.651   3.723  0.3390 -0.5011 -0.1850
31986SOL    HW196536   3.226   7.578   3.749  0.3062  0.3284  2.5856
31986SOL    HW296537   3.231   7.718   3.693  0.5586 -0.7857 -0.3826
31987SOL     OW96538   4.834   3.883   2.730  0.5056 -0.7547  0.5411
31987SOL    HW196539   4.797   3.926   2.807  2.8277  0.2857  1.1806
31987SOL    HW296540   4.856   3.955   2.671  0.5878 -1.4049 -0.2438
31988SOL     OW96541   4.039   2.561   7.837  0.0435 -0.0133  0.5415
31988SOL    HW196542   3.990   2.479   7.844 -0.0889  0.0179  0.0200
31988SOL    HW296543   4.108   2.543   7.774 -1.3104  0.8946 -1.3010
31989SOL     OW96544   0.510   4.014   4.594  0.5441  0.4300  0.5486
31989SOL    HW196545   0.536   4.088   4.540 -1.7932  0.9697  0.0568
31989SOL    HW296546   0.559   3.939   4.559  0.1308  1.0347 -1.4450
31990SOL     OW96547   0.474   1.577   8.634 -0.0537 -0.2118  0.1009
31990SOL    HW196548   0.399   1.519   8.618 -0.9767 -0.8051  4.9283
31990SOL    HW296549   0.543   1.518   8.666  0.8585  0.8503  0.1488
31991SOL     OW96550   7.560   4.256   9.900 -0.1644 -0.2202 -0.2371
31991SOL    HW196551   7.603   4.236   9.817 -0.9718  1.2476 -1.0426
31991SOL    HW296552   7.578   4.179   9.955 -0.3200 -1.6123 -2.0278
31992SOL     OW96553   6.671   7.118   0.398 -0.2442  0.0627  0.0379
31992SOL    HW196554   6.674   7.100   0.492 -0.8930 -0.5619 -0.0541
31992SOL    HW296555   6.579   7.110   0.375 -0.3754  2.0696 -0.3072
31993SOL     OW96556   4.851   5.395   4.584  0.8690 -0.5162  0.0497
31993SOL    HW196557   4.855   5.408   4.679  1.9204 -1.2346  0.1278
31993SOL    HW296558   4.859   5.300   4.574  1.6017 -0.3726 -0.7857
31994SOL     OW96559   1.084   1.223   9.183 -0.2620 -0.2895  0.0326
31994SOL    HW196560   1.089   1.243   9.090 -0.6166  3.6129  0.6701
31994SOL    HW296561   1.171   1.245   9.217 -0.2606 -1.2681  0.7192
31995SOL     OW96562   4.274   9.351   3.708 -0.3417  0.4384  0.0718
31995SOL    HW196563   4.359   9.322   3.740 -0.1853 -0.9514 -1.4965
31995SOL    HW296564   4.228   9.380   3.787  0.0438 -2.7521  1.6492
31996SOL     OW96565   8.110   4.992   2.086  0.0961 -0.0398 -0.8312
31996SOL    HW196566   8.201   5.021   2.093  0.1816 -0.1540 -1.4353
31996SOL    HW296567   8.096   4.940   2.165 -0.5881  2.9861  1.1809
31997SOL     OW96568   2.440   1.197   9.152 -0.0274 -0.8171  0.2129
31997SOL    HW196569   2.460   1.190   9.245 -0.5437  0.2057  0.4255
31997SOL    HW296570   2.461   1.288   9.130 -1.0085 -0.7196 -0.3863
31998SOL     OW96571   9.144   9.554   1.573  0.2290  0.8600  0.2519
31998SOL    HW196572   9.105   9.525   1.491 -0.9847  1.1767  0.6897
31998SOL    HW296573   9.213   9.615   1.547  0.3761  0.3656 -0.5479
31999SOL     OW96574   6.499   7.490   8.792  0.4735  0.2912 -0.6075
31999SOL    HW196575   6.471   7.402   8.768 -0.6324  0.8818 -1.5648
31999SOL    HW296576   6.471   7.545   8.719  1.4237  1.3977 -0.1712
32000SOL     OW96577   7.570   4.426   2.450  0.3133 -0.0750  0.1883
32000SOL    HW196578   7.586   4.521   2.447  2.2050 -0.3357  0.6895
32000SOL    HW296579   7.527   4.412   2.534 -0.7947  0.4235 -0.2767
32001SOL     OW96580   0.544   9.124   4.874  0.4128  0.2893  0.0847
32001SOL    HW196581   0.619   9.115   4.934  1.1760 -0.5862 -0.9715
32001SOL    HW296582   0.492   9.194   4.913  1.3956  0.4191  1.2507
32002SOL     OW96583   8.926   5.412   9.822 -0.2194  0.0355  0.0138
32002SOL    HW196584   8.874   5.396   9.744 -0.1101  2.7051 -0.7100
32002SOL    HW296585   9.013   5.379   9.800 -1.1354 -3.1406  0.7021
32003SOL     OW96586   5.783   7.355   3.624  0.0412 -0.2690  0.1570
32003SOL    HW196587   5.826   7.398   3.698  2.4293 -2.0092 -0.1033
32003SOL    HW296588   5.722   7.293   3.664 -1.2039  1.1707  0.5625
32004SOL     OW96589   1.134   9.018   2.971 -0.4327  0.7511 -0.3676
32004SOL    HW196590   1.059   9.036   2.914 -1.2679  0.4932  0.6216
32004SOL    HW296591   1.097   8.965   3.042  0.6537  0.8019  0.2441
32005SOL     OW96592   6.139   4.019   1.517  0.5018  0.3577  0.0625
32005SOL    HW196593   6.136   3.982   1.605 -1.4772 -0.5002 -0.3121
32005SOL    HW296594   6.154   4.113   1.531 -1.0107  0.4401  1.4089
32006SOL     OW96595   0.489   0.780   1.655 -0.4040 -0.5821  0.1156
32006SOL    HW196596   0.543   0.825   1.720 -0.2456  0.0439 -0.4327
32006SOL    HW296597   0.399   0.794   1.684 -0.2868 -2.5340  1.6267
32007SOL     OW96598   4.751   2.758   9.935 -0.7273 -0.1110 -0.4101
32007SOL    HW196599   4.815   2.756   9.863 -0.2885 -0.4348 -0.0122
32007SOL    HW296600   4.676   2.710   9.900 -0.9179  0.6133 -1.0272
32008SOL     OW96601   3.531   1.533   8.965  0.6119  0.5359 -0.1831
32008SOL    HW196602   3.475   1.605   8.995  1.3391  1.6541 -1.4181
32008SOL    HW296603   3.472   1.458   8.959 -0.0155  0.7932  1.8783
32009SOL     OW96604   1.151   7.996   3.096  0.4136 -0.0409  0.4734
32009SOL    HW196605   1.188   7.949   3.020 -0.3603  0.3774 -0.1710
32009SOL    HW296606   1.219   7.988   3.163  1.6423  0.6023 -0.6409
32010SOL     OW96607   2.092   9.240   5.515  0.2272 -0.6514 -0.3144
32010SOL    HW196608   2.110   9.217   5.607  0.8213 -1.1834 -0.5575
32010SOL    HW296609   2.014   9.294   5.519  1.9190  1.8818  0.8205
32011SOL     OW96610   2.470   5.816   4.829  0.3185  0.0002  0.0445
32011SOL    HW196611   2.530   5.889   4.842  0.5987 -0.2308  0.0761
32011SOL    HW296612   2.389   5.842   4.872  1.2348 -0.7909  2.3623
32012SOL     OW96613   2.849   7.699   8.318 -0.8777 -1.0835 -0.2175
32012SOL    HW196614   2.772   7.684   8.372 -2.3704  0.8291 -1.6650
32012SOL    HW296615   2.875   7.789   8.338 -0.6668 -0.7928 -1.7141
32013SOL     OW96616   1.492   2.045   1.862 -0.1397 -0.8270  0.1004
32013SOL    HW196617   1.532   2.129   1.839 -0.9660 -0.1197  1.1992
32013SOL    HW296618   1.565   1.992   1.894 -0.0916  0.7052  2.8090
32014SOL     OW96619   1.478   7.750   3.393  0.0724 -0.1761  0.6469
32014SOL    HW196620   1.423   7.782   3.464  1.4297 -0.3813  1.8392
32014SOL    HW296621   1.483   7.656   3.406  0.8343 -0.1423  0.6682
32015SOL     OW96622   0.771   3.902   6.124 -0.0412 -0.2938 -0.0578
32015SOL    HW196623   0.819   3.820   6.134  0.2747 -0.0872  0.1190
32015SOL    HW296624   0.838   3.968   6.106 -0.2214  0.0566  0.5177
32016SOL     OW96625   6.976   1.077   7.909 -0.0699 -1.0210  0.3070
32016SOL    HW196626   7.042   1.007   7.911  0.5262 -0.4841  2.3698
32016SOL    HW296627   7.007   1.141   7.974 -1.2068  0.6021 -0.6812
32017SOL     OW96628   9.302   7.274   5.810  0.4935 -0.3944  0.3912
32017SOL    HW196629   9.328   7.260   5.719  1.2638 -3.6028  0.9791
32017SOL    HW296630   9.224   7.220   5.821  0.1416  0.3169  1.5410
32018SOL     OW96631   3.610   0.203   1.867  0.3740  0.5505 -0.4801
32018SOL    HW196632   3.635   0.121   1.825 -1.2420 -0.1750 -0.1006
32018SOL    HW296633   3.626   0.270   1.801 -0.0803 -0.3113 -1.5009
32019SOL     OW96634   1.736   9.036   2.977 -0.1475  0.5037 -0.0973
32019SOL    HW196635   1.653   9.011   3.017 -0.2971  1.1123 -0.0196
32019SOL    HW296636   1.713   9.102   2.912 -0.0535 -1.2427 -2.0193
32020SOL     OW96637   5.610   5.206   0.395  0.0305 -0.6947 -0.7926
32020SOL    HW196638   5.669   5.149   0.346  1.4395 -0.5869  0.7004
32020SOL    HW296639   5.625   5.293   0.358 -0.4706 -0.9090 -1.5437
32021SOL     OW96640   2.165   7.429   5.682  0.0857 -0.1734  0.2191
32021SOL    HW196641   2.071   7.412   5.672  0.0957 -0.8994  1.2611
32021SOL    HW296642   2.186   7.397   5.770  1.4793 -0.7796 -0.3116
32022SOL     OW96643   3.887   2.294   0.515 -0.4085  0.1536  0.0854
32022SOL    HW196644   3.907   2.240   0.438 -0.8934 -0.7154  0.5528
32022SOL    HW296645   3.934   2.376   0.500 -1.2289  0.3617 -1.5847
32023SOL     OW96646   1.597   7.063   0.198  0.1583 -0.0648 -0.1042
32023SOL    HW196647   1.650   6.998   0.152 -0.0611 -0.7861  0.6446
32023SOL    HW296648   1.653   7.140   0.204  1.5542 -1.1426  1.5989
32024SOL     OW96649   3.410   6.832   8.740 -0.3303  0.7910  0.2943
32024SOL    HW196650   3.505   6.837   8.737 -0.2313 -0.8252 -0.4317
32024SOL    HW296651   3.383   6.827   8.648 -0.9951 -0.2770  0.5264
32025SOL     OW96652   8.419   0.243   6.986  0.6029 -0.3192  0.4668
32025SOL    HW196653   8.437   0.206   7.073  2.9921 -2.0082 -0.6433
32025SOL    HW296654   8.423   0.168   6.927  0.4387  1.0018 -1.3044
32026SOL     OW96655   5.827   8.641   5.482 -0.2188 -0.1782 -0.1132
32026SOL    HW196656   5.920   8.618   5.482 -0.2159 -0.1642 -0.0129
32026SOL    HW296657   5.826   8.737   5.481 -0.2318 -0.1690  0.4379
32027SOL     OW96658   8.967   8.295   1.729  0.0973 -0.2566  0.3592
32027SOL    HW196659   9.050   8.270   1.688 -0.1390 -0.1515 -0.1899
32027SOL    HW296660   8.971   8.256   1.816  0.7144 -0.2732  0.3280
32028SOL     OW96661   1.473   3.213   9.412 -0.2248  0.0340  0.2304
32028SOL    HW196662   1.543   3.275   9.432 -0.3497  0.5385 -0.8219
32028SOL    HW296663   1.515   3.144   9.361 -0.1785 -0.5206  1.0046
32029SOL     OW96664   5.865   7.836   1.938  0.0385  0.1775  0.2701
32029SOL    HW196665   5.858   7.741   1.946 -2.7791  0.3349  0.8113
32029SOL    HW296666   5.872   7.868   2.028  2.1542  0.4765  0.0377
32030SOL     OW96667   6.364   0.623   5.890  0.4699  0.4676 -0.3321
32030SOL    HW196668   6.293   0.559   5.892  0.4190  0.5338  0.4044
32030SOL    HW296669   6.436   0.577   5.845  0.3809 -0.0527  0.0419
32031SOL     OW96670   8.354   4.119   7.123  0.5203  0.3172 -0.1239
32031SOL    HW196671   8.357   4.198   7.176 -0.0450  0.1085  0.2305
32031SOL    HW296672   8.427   4.066   7.155  1.8047  1.2730 -1.3267
32032SOL     OW96673   7.159   1.748   9.595  0.2170  0.2293  0.1180
32032SOL    HW196674   7.191   1.811   9.659 -0.5418 -0.2239  0.9565
32032SOL    HW296675   7.091   1.795   9.547 -0.8288 -0.1481  1.2005
32033SOL     OW96676   6.252   3.401   9.863 -0.0134  0.5667  0.6107
32033SOL    HW196677   6.207   3.482   9.887 -0.4387  0.4716  0.1572
32033SOL    HW296678   6.278   3.414   9.772  0.3869  0.4011  0.7017
32034SOL     OW96679   3.817   0.410   1.074 -0.0080  0.3350 -0.0450
32034SOL    HW196680   3.912   0.407   1.084  0.0970  0.3390 -1.0086
32034SOL    HW296681   3.795   0.503   1.087  0.0858  0.2912  0.4415
32035SOL     OW96682   2.007   3.524   9.203 -0.1366  0.2384 -0.0830
32035SOL    HW196683   1.930   3.523   9.145 -0.1451  1.4976 -0.1327
32035SOL    HW296684   1.999   3.445   9.255 -1.1593  0.0538 -0.4917
32036SOL     OW96685   7.633   4.681   1.982 -0.3933 -0.3337  0.3026
32036SOL    HW196686   7.625   4.596   1.940 -1.0550 -0.2418  0.2198
32036SOL    HW296687   7.567   4.679   2.051 -0.1997 -0.0052  0.4967
32037SOL     OW96688   6.902   5.075   1.188 -0.9153  0.0520 -0.1041
32037SOL    HW196689   6.881   5.073   1.281 -0.5489 -1.8204 -0.0121
32037SOL    HW296690   6.832   5.023   1.147  1.0455 -2.6320 -0.3080
32038SOL     OW96691   1.992   8.609   2.370 -0.0928 -0.0850 -0.1005
32038SOL    HW196692   1.974   8.546   2.300 -2.2919  1.3561 -0.9589
32038SOL    HW296693   1.934   8.682   2.351  0.5818  1.1559  2.2508
32039SOL     OW96694   7.208   0.508   1.133 -0.3263  0.1560 -0.0065
32039SOL    HW196695   7.183   0.489   1.224 -0.9571 -2.1290 -0.5907
32039SOL    HW296696   7.258   0.431   1.105 -0.1432  0.8131 -1.6104
32040SOL     OW96697   2.915   9.373   2.466  0.3284  0.6334 -0.3776
32040SOL    HW196698   2.828   9.382   2.506  0.0329  0.9979 -1.0867
32040SOL    HW296699   2.965   9.322   2.529 -0.9127 -1.0924 -0.7283
32041SOL     OW96700   3.675   7.591   6.314  0.4451 -0.0546 -0.7029
32041SOL    HW196701   3.741   7.594   6.383  1.1575  1.5710 -1.4106
32041SOL    HW296702   3.694   7.510   6.266  1.1804 -0.1801 -0.2113
32042SOL     OW96703   2.840   3.307   4.433  0.0064  0.2647 -0.2329
32042SOL    HW196704   2.933   3.329   4.422 -0.3074  0.7287 -2.3467
32042SOL    HW296705   2.824   3.321   4.526  1.9722  0.5119  0.1272
32043SOL     OW96706   0.235   5.993   5.385  0.3261 -0.1674  0.4037
32043SOL    HW196707   0.139   6.003   5.388  0.5364  2.2372  2.1983
32043SOL    HW296708   0.265   6.075   5.345  1.6735 -0.5779  0.5528
32044SOL     OW96709   5.976   9.894   8.980 -0.4924  0.4852  0.2715
32044SOL    HW196710   6.071   9.896   8.973 -0.5011  2.7803  0.1936
32044SOL    HW296711   5.957   9.929   9.066 -1.2931  0.8174 -0.0320
32045SOL     OW96712   0.917   6.076   4.681 -0.0464 -0.3976 -0.5443
32045SOL    HW196713   0.969   5.996   4.695 -0.2457 -0.1733  1.9303
32045SOL    HW296714   0.830   6.055   4.715  0.2755  1.2413  1.5093
32046SOL     OW96715   8.228   9.915   7.051 -0.2282  0.4541  0.8892
32046SOL    HW196716   8.275   9.978   7.105  1.4564 -0.5173  0.6270
32046SOL    HW296717   8.278   9.834   7.060  0.2338  0.2726 -2.2354
32047SOL     OW96718   8.931   9.000   8.629 -0.8056 -0.1221 -0.6194
32047SOL    HW196719   8.971   8.976   8.712  0.2550 -0.8603 -1.3111
32047SOL    HW296720   8.990   8.963   8.563 -1.0094  1.4160 -1.7101
32048SOL     OW96721   0.714   4.385   1.841  0.4230 -0.1763 -0.1731
32048SOL    HW196722   0.634   4.415   1.886  1.1297  0.1225  0.9281
32048SOL    HW296723   0.702   4.412   1.750 -1.0099 -0.6888 -0.1555
32049SOL     OW96724   3.842   8.398   3.177 -0.3002  0.1660 -0.0728
32049SOL    HW196725   3.872   8.316   3.215  0.4392  0.2170 -0.5315
32049SOL    HW296726   3.862   8.464   3.243  2.6124  0.5208 -1.1676
32050SOL     OW96727   5.189   8.396   0.381  0.2948  0.4364 -0.0735
32050SOL    HW196728   5.280   8.414   0.355  1.4524 -2.0898  1.8019
32050SOL    HW296729   5.163   8.474   0.429  2.5228  0.1755  1.7336
32051SOL     OW96730   4.025   1.553   9.744 -0.0726 -0.1919 -0.4278
32051SOL    HW196731   3.998   1.462   9.725  1.4520 -0.7763  0.0856
32051SOL    HW296732   4.107   1.544   9.792  0.6196  1.5055 -1.2391
32052SOL     OW96733   1.160   9.957   1.032 -0.1198  0.2708 -0.2934
32052SOL    HW196734   1.069   9.980   1.014  0.0735  0.9804 -0.4275
32052SOL    HW296735   1.175   9.876   0.983 -1.0359 -0.5617  0.7523
32053SOL     OW96736   1.054   9.112   5.180 -0.2787  0.6390 -0.0196
32053SOL    HW196737   1.095   9.071   5.104  0.2330 -1.1540  1.1484
32053SOL    HW296738   1.108   9.084   5.254 -0.6811  2.4411  1.0156
32054SOL     OW96739   8.162   3.975   6.965  0.4743  0.1285  0.2479
32054SOL    HW196740   8.134   3.929   7.044 -0.6149  0.3125 -0.0022
32054SOL    HW296741   8.232   4.033   6.994  0.2734 -0.0042  1.0297
32055SOL     OW96742   6.073   2.167   6.614 -0.7154  0.1433 -0.4535
32055SOL    HW196743   6.064   2.100   6.682  0.8862  0.2829 -0.0619
32055SOL    HW296744   6.129   2.234   6.653 -0.3962  0.6019 -1.6291
32056SOL     OW96745   6.551   7.041   3.938  0.3767  0.2453 -0.0212
32056SOL    HW196746   6.463   7.037   3.902 -0.0012 -0.8997  0.9376
32056SOL    HW296747   6.538   7.038   4.033  1.4590 -0.7401  0.1176
32057SOL     OW96748   0.179   0.249   5.613  0.2016  0.0346  0.0513
32057SOL    HW196749   0.118   0.284   5.678  0.6790  1.4706 -0.2342
32057SOL    HW296750   0.151   0.289   5.530  0.1636 -1.0624 -0.4799
32058SOL     OW96751   3.171   3.192   5.495  0.7877  0.0017  0.0239
32058SOL    HW196752   3.174   3.133   5.420  1.7886 -3.2487  2.4140
32058SOL    HW296753   3.096   3.249   5.478  0.2223 -1.4053 -2.7812
32059SOL     OW96754   2.547   7.379   8.307  0.4785 -0.0611  0.2984
32059SOL    HW196755   2.495   7.413   8.380 -0.6290  0.1726 -0.5731
32059SOL    HW296756   2.515   7.290   8.294  1.6182 -0.5995  0.9346
32060SOL     OW96757   7.422   2.713   1.436 -0.0513  0.0639 -0.3065
32060SOL    HW196758   7.437   2.640   1.495 -2.4706  0.9743  1.5660
32060SOL    HW296759   7.452   2.681   1.351  1.2703 -2.1677  0.9069
32061SOL     OW96760   4.929   4.211   2.762 -0.4332 -0.4900 -0.2009
32061SOL    HW196761   5.020   4.239   2.766 -1.2198  2.2662  0.1461
32061SOL    HW296762   4.892   4.260   2.689 -1.6892 -1.4308 -0.2270
32062SOL     OW96763   7.234   5.034   3.183 -0.2036  0.7887  0.3488
32062SOL    HW196764   7.166   5.013   3.246  0.1980  1.1623  0.9105
32062SOL    HW296765   7.221   5.127   3.163  0.5531  1.0533  0.9899
32063SOL     OW96766   1.553   7.647   6.169  0.0746  0.1449 -0.1695
32063SOL    HW196767   1.620   7.682   6.111  1.1584 -1.1362  0.2579
32063SOL    HW296768   1.552   7.553   6.152 -1.1415  0.0389  0.3263
32064SOL     OW96769   5.524   6.606   8.872  0.2586  0.1327  0.4847
32064SOL    HW196770   5.597   6.653   8.832  0.6342 -0.2186  0.7495
32064SOL    HW296771   5.564   6.527   8.910 -0.2719 -0.1117  0.5429
32065SOL     OW96772   1.147   8.154   3.397 -0.0823 -0.3364  0.4228
32065SOL    HW196773   1.162   8.158   3.303  1.2039 -0.2120  0.6078
32065SOL    HW296774   1.159   8.245   3.427 -2.0261 -0.0665  0.5285
32066SOL     OW96775   4.962   4.407   9.313 -0.2256  0.0659  0.4884
32066SOL    HW196776   4.880   4.452   9.330 -0.4614  0.1338 -0.7461
32066SOL    HW296777   4.994   4.383   9.400 -0.4002  2.0364  1.1629
32067SOL     OW96778   9.118   5.304   2.987  0.2415  0.6377 -0.3873
32067SOL    HW196779   9.178   5.230   3.000 -0.6990  0.0827  1.0434
32067SOL    HW296780   9.109   5.311   2.892  1.7835  0.1074 -0.6062
32068SOL     OW96781   7.468   4.201   5.374  0.2377 -0.0180  0.2411
32068SOL    HW196782   7.433   4.126   5.326  1.1185  0.1498 -0.6926
32068SOL    HW296783   7.526   4.245   5.312  0.6260  0.7891  1.1407
32069SOL     OW96784   8.230   8.834   6.509  0.3565 -0.0276 -0.1645
32069SOL    HW196785   8.187   8.816   6.592  0.0496 -0.5681 -0.4314
32069SOL    HW296786   8.322   8.846   6.532  0.6873 -2.4296  0.0222
32070SOL     OW96787   9.768   1.695   6.467 -0.6109 -0.1518 -0.5392
32070SOL    HW196788   9.698   1.696   6.402 -0.1167  1.0004 -1.0862
32070SOL    HW296789   9.725   1.666   6.548 -1.8269  0.9126 -0.7581
32071SOL     OW96790   2.617   3.530   1.181 -0.2877  0.1340 -0.0467
32071SOL    HW196791   2.601   3.456   1.239 -2.0709  1.0201  0.6525
32071SOL    HW296792   2.670   3.590   1.234  2.7107 -1.2755 -1.1873
32072SOL     OW96793   6.187   6.462   2.599 -0.3169 -0.5139 -0.0987
32072SOL    HW196794   6.252   6.407   2.643 -0.6192 -0.8590 -0.0782
32072SOL    HW296795   6.154   6.520   2.668  1.4337  1.1045 -0.5261
32073SOL     OW96796   3.578   6.935   9.725  0.3740  0.5087 -0.1798
32073SOL    HW196797   3.526   6.998   9.775 -1.1867  0.4119 -1.6031
32073SOL    HW296798   3.518   6.864   9.705  1.1938  0.1360 -1.4360
32074SOL     OW96799   5.561   2.751   0.270 -0.0760 -0.2908 -0.5004
32074SOL    HW196800   5.630   2.712   0.324 -0.6233  1.1213  1.3320
32074SOL    HW296801   5.505   2.677   0.247 -0.8240 -0.7825  2.4598
32075SOL     OW96802   5.329   9.398   1.601 -0.3757 -0.1089 -0.2737
32075SOL    HW196803   5.280   9.459   1.546  2.0007  1.3946 -0.8945
32075SOL    HW296804   5.365   9.334   1.539  0.5223  0.3097 -0.1985
32076SOL     OW96805   3.644   0.990   3.460 -0.1640  0.1386  0.2031
32076SOL    HW196806   3.738   0.973   3.468  0.1674 -0.1051 -2.8593
32076SOL    HW296807   3.603   0.905   3.476  0.3476 -0.2745 -0.5906
32077SOL     OW96808   7.207   1.155   7.515  0.6148  0.2511 -0.3524
32077SOL    HW196809   7.288   1.105   7.520  0.0155 -0.8362 -1.1244
32077SOL    HW296810   7.140   1.096   7.550  0.1616  1.1829  0.4197
32078SOL     OW96811   6.163   3.588   2.366  0.5688  0.3579  0.4153
32078SOL    HW196812   6.111   3.509   2.380  2.3267 -1.1923 -1.1867
32078SOL    HW296813   6.118   3.656   2.416 -1.6136 -1.3990  0.9916
32079SOL     OW96814   0.029   4.568   9.064  0.1244 -0.2216 -0.0982
32079SOL    HW196815   0.001   4.624   8.992 -0.9312  0.9620  1.1630
32079SOL    HW296816   0.021   4.624   9.142 -0.4572 -1.9626  1.1491
32080SOL     OW96817   4.988   7.684   8.397 -0.1437  0.2472  0.0722
32080SOL    HW196818   5.063   7.741   8.413  0.1028 -0.3022  0.9459
32080SOL    HW296819   4.928   7.702   8.470  0.7135 -1.8445  1.3845
32081SOL     OW96820   6.698   2.212   2.512 -0.4494 -0.1100 -0.1690
32081SOL    HW196821   6.659   2.292   2.547  0.3498 -0.1442  0.8627
32081SOL    HW296822   6.787   2.238   2.486  0.0410 -0.7797  0.7609
32082SOL     OW96823   0.595   7.972   7.215  0.5786 -0.0309  0.3271
32082SOL    HW196824   0.629   7.883   7.204  1.2901  0.2726 -0.0392
32082SOL    HW296825   0.509   7.961   7.255  1.5566 -0.8091  2.4128
32083SOL     OW96826   4.790   4.475   7.443 -0.9039  0.5707  0.0192
32083SOL    HW196827   4.741   4.475   7.361 -1.0552  1.4767  0.1031
32083SOL    HW296828   4.776   4.562   7.480  0.0365  0.5405  0.4842
32084SOL     OW96829   3.981   0.398   4.911  0.2745  0.5155  0.4387
32084SOL    HW196830   3.969   0.359   4.825 -1.0872  0.1370  0.7800
32084SOL    HW296831   3.968   0.492   4.896  0.0780  0.4566  0.2283
32085SOL     OW96832   5.599   3.317   8.638  0.2206  0.1483 -0.0225
32085SOL    HW196833   5.548   3.256   8.692  0.7298 -1.7396 -1.5416
32085SOL    HW296834   5.535   3.351   8.574 -0.0125  1.0579  0.6809
32086SOL     OW96835   0.950   0.617   9.194  0.0967 -0.1396  0.3358
32086SOL    HW196836   1.032   0.628   9.145 -0.0397  1.0474  0.3437
32086SOL    HW296837   0.947   0.693   9.253 -1.5502  0.4597 -0.4549
32087SOL     OW96838   3.669   2.023   5.449 -0.0427  0.5878  0.3177
32087SOL    HW196839   3.727   2.037   5.524 -0.8338  0.7497  0.9058
32087SOL    HW296840   3.600   2.088   5.458 -0.3548  0.3662 -0.3512
32088SOL     OW96841   0.380   2.372   6.054 -0.0831 -0.1871 -0.2531
32088SOL    HW196842   0.295   2.411   6.068  1.1385  2.0693  1.4761
32088SOL    HW296843   0.389   2.366   5.959 -2.2316 -0.7397 -0.4557
32089SOL     OW96844   9.842   8.467   0.722  0.0522  0.2387  0.5888
32089SOL    HW196845   9.801   8.384   0.748  1.3433 -0.6054  0.0419
32089SOL    HW296846   9.772   8.516   0.680 -0.2738 -1.4886 -1.0409
32090SOL     OW96847   7.157   0.596   9.907 -0.1002 -0.0750  0.2807
32090SOL    HW196848   7.173   0.513   9.953  0.9349  0.7762  1.5383
32090SOL    HW296849   7.188   0.663   9.968  1.2187  1.1345 -1.6134
32091SOL     OW96850   9.802   5.157   1.690  0.6343 -0.0123 -0.0016
32091SOL    HW196851   9.862   5.152   1.616 -0.0710 -0.2146 -0.5650
32091SOL    HW296852   9.845   5.106   1.759  1.3664  0.3071 -0.2101
32092SOL     OW96853   6.834   1.480   2.164 -0.3695 -0.0093  0.1867
32092SOL    HW196854   6.823   1.571   2.138 -0.8461 -0.5978 -1.8388
32092SOL    HW296855   6.820   1.480   2.259 -0.8589  1.9312  0.1480
32093SOL     OW96856   0.399   5.018   7.984  0.4192 -0.2009 -0.2738
32093SOL    HW196857   0.386   5.003   8.078 -0.2443  0.0100 -0.3245
32093SOL    HW296858   0.454   4.945   7.955  0.9490 -0.0614  0.3481
32094SOL     OW96859   5.659   1.107   7.939  0.4921 -0.8289  0.1334
32094SOL    HW196860   5.634   1.160   7.864 -1.2686 -1.3973  0.2708
32094SOL    HW296861   5.654   1.167   8.014  2.9026 -0.0863 -0.2169
32095SOL     OW96862   1.745   3.080   6.280  0.2496 -0.0333  0.0768
32095SOL    HW196863   1.760   3.154   6.339 -0.9005 -0.5767  1.1022
32095SOL    HW296864   1.745   3.119   6.193  1.3429  0.8987  0.4587
32096SOL     OW96865   3.518   2.920   5.325 -0.1516 -0.2422 -0.6680
32096SOL    HW196866   3.601   2.877   5.302  0.6744  0.5483  0.6604
32096SOL    HW296867   3.532   3.012   5.305 -1.2480 -0.2920 -1.7635
32097SOL     OW96868   0.136   4.959   9.630  0.0948  0.0615  0.6859
32097SOL    HW196869   0.047   4.946   9.597 -0.2981 -0.7943  1.9752
32097SOL    HW296870   0.192   4.912   9.568 -0.3167  0.8087 -0.2702
32098SOL     OW96871   9.645   6.792   7.839  0.4173  0.1029 -0.2956
32098SOL    HW196872   9.578   6.729   7.812 -0.4062 -0.3398  2.4891
32098SOL    HW296873   9.597   6.872   7.859  0.7978  0.0485  0.9035
32099SOL     OW96874   7.163   3.181   6.936  0.3010 -0.4572 -0.3397
32099SOL    HW196875   7.189   3.132   7.014  1.2365  0.2704 -0.1678
32099SOL    HW296876   7.245   3.217   6.902 -0.2127 -0.0038 -1.1332
32100SOL     OW96877   8.733   7.976   0.474 -0.2416  0.4086 -0.2331
32100SOL    HW196878   8.821   7.944   0.455 -0.1014 -0.0103  1.0360
32100SOL    HW296879   8.695   7.909   0.531 -1.1466  0.9099 -0.2247
32101SOL     OW96880   4.634   9.631   2.634  0.4716  0.1912  0.1787
32101SOL    HW196881   4.653   9.707   2.689  0.6823 -0.6516  1.3102
32101SOL    HW296882   4.720   9.598   2.608  0.4650 -0.7107  1.2078
32102SOL     OW96883   7.262   2.741   7.271 -0.2233 -0.6231 -0.0486
32102SOL    HW196884   7.328   2.680   7.239 -0.4413 -1.5927  1.2527
32102SOL    HW296885   7.213   2.692   7.337 -0.5696  0.8708  0.8672
32103SOL     OW96886   2.853   0.329   4.830 -0.2802 -0.0925 -0.0996
32103SOL    HW196887   2.885   0.413   4.863 -2.0241  1.0878 -1.2471
32103SOL    HW296888   2.783   0.305   4.890 -1.1289  0.3266 -0.8852
32104SOL     OW96889   5.275   1.917   6.783  0.1142  0.1663 -0.2666
32104SOL    HW196890   5.260   1.903   6.876  1.3507 -2.5776 -0.4048
32104SOL    HW296891   5.191   1.896   6.742 -0.3995  1.2724  0.1775
32105SOL     OW96892   5.566   0.417   0.296  0.0298 -0.1693 -0.0238
32105SOL    HW196893   5.601   0.396   0.383 -1.2118 -0.5769  0.4094
32105SOL    HW296894   5.503   0.347   0.278 -1.7548  1.3348 -0.0225
32106SOL     OW96895   2.819   9.615   1.420  0.0758 -0.3068  0.5943
32106SOL    HW196896   2.810   9.520   1.426  0.9974 -0.4207  0.3161
32106SOL    HW296897   2.769   9.639   1.342  0.9876 -0.7418 -0.1356
32107SOL     OW96898   2.985   5.361   6.283  0.0734  0.1172 -0.1857
32107SOL    HW196899   2.944   5.280   6.252 -0.9624  0.6624 -0.2733
32107SOL    HW296900   2.999   5.347   6.377  0.3682 -0.3521 -0.2981
32108SOL     OW96901   2.725   9.749   0.623 -0.0212 -0.2761  0.4085
32108SOL    HW196902   2.761   9.830   0.658  1.6085 -0.1107 -1.4756
32108SOL    HW296903   2.680   9.775   0.542 -1.7352 -0.9348  1.1076
32109SOL     OW96904   2.637   9.083   1.695 -0.2082 -0.3855  0.2321
32109SOL    HW196905   2.722   9.127   1.687 -0.3365  0.4029  2.5253
32109SOL    HW296906   2.659   8.993   1.718  0.0220 -0.1075  1.1255
32110SOL     OW96907   7.117   4.078   8.331  0.1072  0.7588 -0.3811
32110SOL    HW196908   7.196   4.118   8.368  0.9866 -0.0598 -1.3026
32110SOL    HW296909   7.081   4.145   8.273 -1.9260  2.5052  2.6446
32111SOL     OW96910   7.953   1.566   0.833  0.2489 -0.3327 -0.6748
32111SOL    HW196911   7.971   1.491   0.777  0.8860 -0.3765 -0.4156
32111SOL    HW296912   7.967   1.534   0.922 -0.1176 -0.0831 -0.5226
32112SOL     OW96913   6.565   9.599   3.194  0.2145 -0.3795  0.0444
32112SOL    HW196914   6.508   9.526   3.217 -0.5694 -0.4730 -2.0098
32112SOL    HW296915   6.643   9.557   3.157  0.1529 -0.1824 -0.3053
32113SOL     OW96916   1.986   7.733   1.576 -0.2560 -0.3325  0.2110
32113SOL    HW196917   2.068   7.688   1.595  1.0985  1.5757 -0.7356
32113SOL    HW296918   1.950   7.754   1.663  0.6564 -0.5494  0.6559
32114SOL     OW96919   1.992   9.031   2.158 -0.2290  0.1584 -0.3993
32114SOL    HW196920   2.083   9.027   2.129  0.0572  2.6135 -0.0883
32114SOL    HW296921   1.994   9.089   2.234 -2.0219  0.0274 -0.2174
32115SOL     OW96922   0.671   2.146   6.288  0.1167  0.0425 -0.0813
32115SOL    HW196923   0.764   2.134   6.268 -0.3190 -1.0638 -1.6306
32115SOL    HW296924   0.638   2.058   6.305 -0.9380  0.2216 -1.0665
32116SOL     OW96925   3.705   6.023   2.323 -0.1321 -0.2231  0.0497
32116SOL    HW196926   3.682   5.941   2.279 -0.9596  0.3874 -0.6969
32116SOL    HW296927   3.657   6.022   2.406  0.6346 -0.9270  0.4922
32117SOL     OW96928   8.954   2.322   2.533  0.0861  0.5135  0.1096
32117SOL    HW196929   8.981   2.340   2.623  0.1666  0.5049  0.0864
32117SOL    HW296930   9.020   2.364   2.479  1.2729 -1.3532  0.0406
32118SOL     OW96931   0.290   1.166   7.923 -0.4106 -0.3756  0.3155
32118SOL    HW196932   0.352   1.147   7.994 -0.1636  0.0881  0.2272
32118SOL    HW296933   0.252   1.250   7.947  0.7628  0.5278 -0.8436
32119SOL     OW96934   1.829   1.421   2.312 -0.2694  0.0775  0.0252
32119SOL    HW196935   1.897   1.470   2.358  0.0380 -0.4487  0.1332
32119SOL    HW296936   1.750   1.475   2.321  0.2335  0.9079 -0.5005
32120SOL     OW96937   2.715   2.272   4.077  0.2456 -0.7109 -0.0504
32120SOL    HW196938   2.709   2.258   4.171 -0.5296 -0.3832 -0.0385
32120SOL    HW296939   2.628   2.248   4.044  0.2602 -0.0754 -0.5734
32121SOL     OW96940   0.206   3.820   9.923 -0.0608  0.7475 -0.1967
32121SOL    HW196941   0.199   3.790   9.833 -0.0629  1.1993 -0.3469
32121SOL    HW296942   0.267   3.893   9.920 -0.8447  1.4266  0.0085
32122SOL     OW96943   4.382   1.659   5.177  0.3378 -0.2356  0.0310
32122SOL    HW196944   4.352   1.592   5.116 -0.1409  1.0612 -1.2100
32122SOL    HW296945   4.478   1.654   5.172  0.3748  1.0366 -2.3018
32123SOL     OW96946   5.640   7.364   5.618  0.3310  0.0457 -0.0171
32123SOL    HW196947   5.670   7.331   5.533 -0.7705  0.2031 -0.4871
32123SOL    HW296948   5.714   7.350   5.677  0.4862 -1.7635 -0.5781
32124SOL     OW96949   8.783   9.283   5.141 -0.0834 -0.4057 -0.2072
32124SOL    HW196950   8.723   9.213   5.117 -1.4074  0.6934 -0.2690
32124SOL    HW296951   8.861   9.267   5.089 -1.0828 -0.7537 -1.6691
32125SOL     OW96952   8.267   7.952   4.270  0.2184  0.8627 -0.2174
32125SOL    HW196953   8.237   7.893   4.339 -0.1410  2.3565  0.9777
32125SOL    HW296954   8.208   7.935   4.197  0.9722 -1.1582 -0.3935
32126SOL     OW96955   1.159   2.395   1.069  0.1237  0.4152  0.6451
32126SOL    HW196956   1.208   2.373   0.990  1.1777  0.1715  1.3407
32126SOL    HW296957   1.143   2.310   1.112 -2.3444  0.3044 -0.3442
32127SOL     OW96958   7.343   6.634   8.077 -0.0385  0.5498  0.3015
32127SOL    HW196959   7.382   6.605   7.995 -1.5920 -0.4168 -0.1320
32127SOL    HW296960   7.271   6.691   8.051  0.7515  1.9682  1.0716
32128SOL     OW96961   6.121   5.638   9.751 -1.0185 -0.6277 -0.6315
32128SOL    HW196962   6.034   5.602   9.737 -2.1038  1.8889 -0.8595
32128SOL    HW296963   6.119   5.672   9.841 -0.0990 -0.9345 -0.4780
32129SOL     OW96964   4.024   6.116   7.313  1.1177  0.1548 -0.4125
32129SOL    HW196965   3.974   6.035   7.312  0.1921  0.6974  0.1651
32129SOL    HW296966   4.072   6.116   7.230  1.2618 -1.0489 -0.3463
32130SOL     OW96967   3.912   4.246   8.381  0.3189  0.1948  0.0467
32130SOL    HW196968   3.904   4.163   8.428  1.7413 -0.5881 -1.0214
32130SOL    HW296969   4.001   4.276   8.399 -0.0982  1.4005  0.2301
32131SOL     OW96970   6.831   6.030   0.505  0.0046  0.2140 -0.1978
32131SOL    HW196971   6.786   6.075   0.434  1.2569  0.2467 -0.9841
32131SOL    HW296972   6.858   6.100   0.565  2.7707  0.7120 -1.8734
32132SOL     OW96973   4.542   8.489   3.157  0.2175  0.2508  0.0852
32132SOL    HW196974   4.473   8.538   3.112  1.7613  1.7062 -0.8277
32132SOL    HW296975   4.585   8.439   3.088  0.5486 -0.0847  0.5273
32133SOL     OW96976   6.216   2.297   5.006 -0.1153 -0.2699 -0.2323
32133SOL    HW196977   6.125   2.329   5.002 -1.0308 -2.7487 -1.0787
32133SOL    HW296978   6.221   2.232   4.937  2.1555 -0.6657  0.2441
32134SOL     OW96979   6.053   4.459   5.217 -0.1360  0.4725  0.8446
32134SOL    HW196980   6.048   4.524   5.147 -0.6629 -0.6096 -0.1546
32134SOL    HW296981   6.076   4.377   5.173  2.6692  0.3364  2.3182
32135SOL     OW96982   2.623   0.967   4.045 -0.2556  0.3088  0.3077
32135SOL    HW196983   2.620   0.989   3.952  0.2482  1.7601  0.6171
32135SOL    HW296984   2.708   0.927   4.057  0.2682  1.4154  0.3981
32136SOL     OW96985   3.697   8.632   8.080 -0.5216  0.1106 -0.2895
32136SOL    HW196986   3.619   8.665   8.036 -1.7098  0.5455  1.9976
32136SOL    HW296987   3.742   8.579   8.014 -2.2042  0.6641 -1.9543
32137SOL     OW96988   7.494   5.217   0.011  0.0867 -0.1381  0.0325
32137SOL    HW196989   7.557   5.164   0.059  0.0688 -0.1250  0.0699
32137SOL    HW296990   7.459   5.278   0.076 -0.3171 -0.4604  0.1219
32138SOL     OW96991   7.009   9.465   0.475  0.2792 -0.6516 -0.1486
32138SOL    HW196992   6.942   9.435   0.413  0.4439  2.7220 -2.2466
32138SOL    HW296993   6.968   9.458   0.561 -3.0371  1.6100 -1.3687
32139SOL     OW96994   9.804   7.525   9.783 -0.4057 -0.4432  0.3047
32139SOL    HW196995   9.850   7.609   9.787 -0.1445 -0.6348  1.5579
32139SOL    HW296996   9.800   7.504   9.689  2.6592 -0.7719  0.1727
32140SOL     OW96997   4.980   0.708   6.299 -0.1606 -0.1184  0.0108
32140SOL    HW196998   4.921   0.783   6.292  0.0375  0.1340  0.8973
32140SOL    HW296999   5.067   0.747   6.302 -0.1396 -0.2256  2.3703
32141SOL     OW97000   6.553   8.262   2.880 -0.5885  0.1258  0.7409
32141SOL    HW197001   6.555   8.213   2.798 -1.8869  4.5885 -2.3143
32141SOL    HW297002   6.462   8.288   2.891  0.1375  2.5152  1.6531
32142SOL     OW97003   0.506   5.456   5.686  0.5860 -0.2007  0.7382
32142SOL    HW197004   0.538   5.401   5.757  1.7398 -0.7057 -0.1475
32142SOL    HW297005   0.582   5.472   5.631 -0.4019 -0.3831 -0.7563
32143SOL     OW97006   2.990   1.262   7.083 -0.1045  0.1570 -0.3109
32143SOL    HW197007   3.019   1.353   7.076  0.6571 -0.0892 -0.5020
32143SOL    HW297008   2.968   1.251   7.176  2.7525 -0.2839  0.4137
32144SOL     OW97009   6.486   1.463   0.271 -0.2517 -0.1140  0.4186
32144SOL    HW197010   6.530   1.436   0.191  3.1071 -0.9395  2.3632
32144SOL    HW297011   6.460   1.381   0.313  0.2643  0.1801  1.3259
32145SOL     OW97012   9.672   2.275   3.284  0.2878 -0.2371  0.1457
32145SOL    HW197013   9.654   2.354   3.234 -1.1637  0.5501  1.8227
32145SOL    HW297014   9.707   2.306   3.367 -0.5701 -1.3226  0.9446
32146SOL     OW97015   7.049   8.096   7.202 -0.1783 -0.1319 -0.1402
32146SOL    HW197016   7.034   8.002   7.190 -1.8911  0.1373 -0.3403
32146SOL    HW297017   7.062   8.106   7.296  0.0429 -0.5727 -0.1210
32147SOL     OW97018   1.606   9.809   6.076  0.3826 -0.1211 -0.0351
32147SOL    HW197019   1.598   9.714   6.084  1.5037 -0.1781  0.6473
32147SOL    HW297020   1.575   9.843   6.160 -0.4091  0.1465 -0.4307
32148SOL     OW97021   7.434   3.776   4.992  0.0467  0.3757  0.2463
32148SOL    HW197022   7.391   3.691   5.003 -0.4407  0.6754  0.7177
32148SOL    HW297023   7.364   3.834   4.963 -0.3124  1.2807  2.6966
32149SOL     OW97024   4.974   7.864   4.285  0.1320 -0.3138 -0.3756
32149SOL    HW197025   5.018   7.778   4.284 -0.2240 -0.5214  0.8781
32149SOL    HW297026   4.924   7.865   4.203 -2.1365 -2.5408  0.8541
32150SOL     OW97027   0.347   7.703   3.641  0.1171  1.2845 -0.4095
32150SOL    HW197028   0.262   7.739   3.617  0.3889  1.3312 -1.3450
32150SOL    HW297029   0.399   7.708   3.561  1.0205  1.2991  0.1606
32151SOL     OW97030   3.587   3.802   8.675  0.0431 -0.1315 -0.0154
32151SOL    HW197031   3.680   3.800   8.699  0.0877 -1.3928 -0.2141
32151SOL    HW297032   3.582   3.750   8.595 -0.9608 -0.8878  0.5133
32152SOL     OW97033   1.154   5.856   2.370  0.1356  0.2670  0.2124
32152SOL    HW197034   1.175   5.844   2.277 -0.5894  0.5522  0.0055
32152SOL    HW297035   1.059   5.853   2.373  0.1490 -3.1832  1.3948
32153SOL     OW97036   2.409   7.277   1.161 -0.4552  0.4993  0.1091
32153SOL    HW197037   2.385   7.308   1.249 -0.8485 -0.2711  0.2804
32153SOL    HW297038   2.364   7.194   1.152  0.1598  0.2307 -0.5557
32154SOL     OW97039   9.245   1.179   0.779 -0.1156  0.3168 -0.0158
32154SOL    HW197040   9.189   1.255   0.769  1.5309  1.7043  0.7482
32154SOL    HW297041   9.234   1.152   0.870 -0.8061 -0.4579 -0.3253
32155SOL     OW97042   3.039   0.174   5.309  0.6113  0.6897 -0.0128
32155SOL    HW197043   3.030   0.207   5.399  0.7547  1.7656 -0.3807
32155SOL    HW297044   3.020   0.250   5.254 -0.3185 -0.1734 -0.9114
32156SOL     OW97045   5.237   3.141   1.930  0.3321 -0.3204 -0.0876
32156SOL    HW197046   5.176   3.087   1.980 -0.5170 -0.7358 -1.5151
32156SOL    HW297047   5.274   3.202   1.994 -0.7883 -0.7560  1.0055
32157SOL     OW97048   2.210   1.739   1.779 -0.6530 -0.5226  0.2286
32157SOL    HW197049   2.214   1.648   1.807  0.2156 -1.2556 -2.0055
32157SOL    HW297050   2.273   1.745   1.707 -0.8595  1.7907  0.1453
32158SOL     OW97051   0.718   7.605   5.048  0.1538  0.0376  0.2590
32158SOL    HW197052   0.789   7.541   5.051 -0.1994 -0.3440  0.7168
32158SOL    HW297053   0.720   7.647   5.134  2.1421  2.6382 -0.9134
32159SOL     OW97054   0.964   0.267   8.087 -0.3128  0.1077 -0.5033
32159SOL    HW197055   0.873   0.277   8.117  0.0079  1.4146  0.1098
32159SOL    HW297056   0.957   0.255   7.993 -1.0882  1.3730 -0.6292
32160SOL     OW97057   3.400   9.888   3.569  0.4986 -0.0973 -0.1434
32160SOL    HW197058   3.338   9.945   3.524  1.0634  0.5375 -0.1410
32160SOL    HW297059   3.365   9.880   3.658 -1.2088 -2.2397 -0.9143
32161SOL     OW97060   9.772   8.824   4.192 -0.1541  0.1126 -0.3421
32161SOL    HW197061   9.789   8.748   4.136 -6.0760 -0.0855 -2.6883
32161SOL    HW297062   9.743   8.786   4.275  0.7188  0.0524 -0.0543
32162SOL     OW97063   3.256   2.133   7.654  0.2438 -1.1763  0.4364
32162SOL    HW197064   3.204   2.055   7.640  1.4205 -1.6974 -1.3900
32162SOL    HW297065   3.346   2.106   7.634  0.9631  0.1477  1.7022
32163SOL     OW97066   4.346   4.137   6.625  0.1382 -0.1640  0.2752
32163SOL    HW197067   4.342   4.132   6.720 -0.5868  0.2239  0.2695
32163SOL    HW297068   4.287   4.208   6.602  1.5425  0.8382 -0.3686
32164SOL     OW97069   7.878   2.212   1.799 -0.0531  0.8016  0.3692
32164SOL    HW197070   7.845   2.216   1.709 -1.2450  1.3127  0.8045
32164SOL    HW297071   7.852   2.125   1.830  0.9981  0.3437 -0.0025
32165SOL     OW97072   9.598   4.783   0.919 -0.8954 -0.0711  0.6311
32165SOL    HW197073   9.677   4.735   0.896 -1.1496  0.0058 -0.4250
32165SOL    HW297074   9.624   4.840   0.992  0.4655  1.2101 -0.7944
32166SOL     OW97075   3.256   6.222   0.410  0.1117  0.5033 -0.8105
32166SOL    HW197076   3.341   6.193   0.442  0.6012  2.4285 -0.2168
32166SOL    HW297077   3.264   6.218   0.314 -0.0670 -1.7202 -0.7950
32167SOL     OW97078   5.126   7.116   7.646 -0.7094 -0.0560 -0.6443
32167SOL    HW197079   5.123   7.071   7.730 -1.8901 -0.2443 -0.7657
32167SOL    HW297080   5.150   7.206   7.667 -2.3142  0.2352  0.0698
32168SOL     OW97081   2.172   5.830   2.239 -0.0913  0.6016 -0.1597
32168SOL    HW197082   2.258   5.850   2.202  0.7924 -1.5088  0.5775
32168SOL    HW297083   2.128   5.778   2.171 -0.7805  1.5889 -0.4941
32169SOL     OW97084   9.799   5.341   6.478  0.2049 -0.7052  0.2162
32169SOL    HW197085   9.714   5.383   6.464  1.5833  2.6917  0.8319
32169SOL    HW297086   9.847   5.403   6.534  3.7236 -1.4812 -1.6201
32170SOL     OW97087   5.916   6.054   3.209 -0.4180  0.1641 -0.0097
32170SOL    HW197088   5.837   6.000   3.197  0.5575 -1.4869  0.6357
32170SOL    HW297089   5.937   6.086   3.121 -0.2570 -1.6849 -0.6829
32171SOL     OW97090   5.908   0.557   2.135  0.3119  0.5748  0.0879
32171SOL    HW197091   5.993   0.515   2.151 -0.3140 -0.2301  1.5212
32171SOL    HW297092   5.851   0.486   2.107 -0.1443  0.9220  0.1306
32172SOL     OW97093   3.700   3.341   1.623  0.5204  0.0344 -0.1062
32172SOL    HW197094   3.680   3.431   1.649  0.7356 -0.0750  0.4495
32172SOL    HW297095   3.786   3.346   1.582  1.3035 -0.1782  1.4724
32173SOL     OW97096   5.009   8.197   6.222  0.2028 -0.3356 -0.8392
32173SOL    HW197097   5.003   8.174   6.314 -2.1441  2.4647 -0.1509
32173SOL    HW297098   5.067   8.273   6.220 -1.6171  1.0989 -1.2713
32174SOL     OW97099   0.244   8.375   8.602  0.2068  0.0872 -0.2244
32174SOL    HW197100   0.293   8.455   8.581 -1.2537  0.8374 -0.8951
32174SOL    HW297101   0.200   8.394   8.684  1.7558 -0.9534  0.9153
32175SOL     OW97102   2.100   4.750   0.367  0.2472 -0.3030  0.5116
32175SOL    HW197103   2.084   4.805   0.290  0.1489 -1.3510 -0.2297
32175SOL    HW297104   2.194   4.759   0.383  0.4391 -0.7945 -0.2965
32176SOL     OW97105   3.520   7.592   1.051 -0.1221 -0.1081 -0.0740
32176SOL    HW197106   3.431   7.626   1.059 -0.3334 -0.2255 -1.5733
32176SOL    HW297107   3.577   7.667   1.069 -0.5076 -0.1471  1.3455
32177SOL     OW97108   4.792   1.772   8.779 -0.3076  0.4520  0.1872
32177SOL    HW197109   4.790   1.741   8.870  3.8374 -1.0525 -0.0130
32177SOL    HW297110   4.773   1.694   8.727  1.2308  0.3226 -0.2208
32178SOL     OW97111   6.165   9.213   3.138  0.4501  0.2275  0.0189
32178SOL    HW197112   6.217   9.171   3.206 -2.2508 -2.8323  0.4861
32178SOL    HW297113   6.207   9.187   3.056 -0.2969 -2.4035  0.3722
32179SOL     OW97114   4.587   2.330   4.509  0.0456  0.5122 -0.2329
32179SOL    HW197115   4.518   2.334   4.442  0.7097  0.1496 -0.9501
32179SOL    HW297116   4.635   2.250   4.489 -0.6734 -0.4448  1.6292
32180SOL     OW97117   4.975   5.204   9.043 -0.0776  0.1324 -0.2771
32180SOL    HW197118   5.068   5.184   9.055 -0.2062 -1.3649 -1.3987
32180SOL    HW297119   4.969   5.233   8.952 -0.4999  1.7454  0.2426
32181SOL     OW97120   5.449   8.899   8.283  0.0432 -0.1890  0.3163
32181SOL    HW197121   5.476   8.973   8.337  0.5205 -0.8150  0.9468
32181SOL    HW297122   5.384   8.936   8.222 -0.1499  0.6204  1.0024
32182SOL     OW97123   7.214   3.565   2.934  0.1097 -0.0723 -0.5937
32182SOL    HW197124   7.150   3.493   2.935 -2.0909  1.7805 -1.0524
32182SOL    HW297125   7.241   3.571   2.843 -0.1073  0.0133 -0.6535
32183SOL     OW97126   7.140   4.311   7.917 -0.0913 -0.0457  0.3700
32183SOL    HW197127   7.141   4.216   7.908 -1.5393 -0.0069 -0.7633
32183SOL    HW297128   7.130   4.343   7.827 -0.4465  1.1441  0.8094
32184SOL     OW97129   2.981   0.866   1.103 -0.1837 -0.0420  0.1659
32184SOL    HW197130   3.065   0.823   1.118 -0.9548 -1.2052  1.4149
32184SOL    HW297131   2.947   0.883   1.191 -1.5739 -0.2698 -0.3088
32185SOL     OW97132   4.284   6.822   7.814  0.2036 -0.8671 -0.1978
32185SOL    HW197133   4.262   6.884   7.745  0.2950 -0.2106  0.3572
32185SOL    HW297134   4.374   6.841   7.837 -0.4667  0.4013  1.5968
32186SOL     OW97135   6.581   3.827   3.143  0.8332  0.7043  0.4095
32186SOL    HW197136   6.582   3.922   3.155  3.2203  0.9107 -0.8407
32186SOL    HW297137   6.673   3.802   3.140  0.3036 -1.3403 -1.4678
32187SOL     OW97138   3.357   9.244   9.578 -0.3246  0.9988  0.2302
32187SOL    HW197139   3.332   9.280   9.494  2.2068  0.8181 -0.6682
32187SOL    HW297140   3.413   9.310   9.618  0.7571 -0.0623  0.5239
32188SOL     OW97141   0.800   3.126   0.749 -0.1995 -0.0688 -0.2306
32188SOL    HW197142   0.735   3.071   0.706 -1.4443 -0.1830  1.6408
32188SOL    HW297143   0.867   3.065   0.779  0.0328 -0.1459 -0.9037
32189SOL     OW97144   7.771   3.394   9.890 -0.3042  1.1056  0.5016
32189SOL    HW197145   7.725   3.463   9.937 -1.6777 -0.3532  1.3884
32189SOL    HW297146   7.817   3.344   9.958  0.7795  1.1826 -0.1382
32190SOL     OW97147   7.723   4.148   7.808 -0.1291 -0.6962  0.3884
32190SOL    HW197148   7.635   4.150   7.771  0.3843  0.4247 -0.8245
32190SOL    HW297149   7.733   4.231   7.854  0.8592 -0.0627 -0.9022
32191SOL     OW97150   6.228   4.597   2.210 -0.1852 -0.2763 -0.3984
32191SOL    HW197151   6.167   4.627   2.277  2.6238  0.6417  1.9801
32191SOL    HW297152   6.260   4.677   2.170 -1.3075 -0.7962 -2.4579
32192SOL     OW97153   0.850   0.293   0.302  0.0265 -0.2564  0.5561
32192SOL    HW197154   0.923   0.306   0.363  0.3072 -0.1316  0.1915
32192SOL    HW297155   0.818   0.205   0.323  0.2549 -0.2976  0.7409
32193SOL     OW97156   7.468   4.999   7.200 -0.1620  0.0871 -0.2650
32193SOL    HW197157   7.496   4.914   7.165 -0.2133 -0.2845  0.5814
32193SOL    HW297158   7.381   5.013   7.161 -0.0497 -0.1256 -0.5990
32194SOL     OW97159   5.525   3.209   0.080 -0.3365 -0.6090 -0.2184
32194SOL    HW197160   5.526   3.156   0.001  2.9867 -0.5564 -0.3506
32194SOL    HW297161   5.573   3.288   0.057  0.2546 -0.3535  1.6637
32195SOL     OW97162   2.399   7.454   0.467  0.1412  0.2289 -0.4232
32195SOL    HW197163   2.373   7.421   0.381 -0.5507  0.0420 -0.1493
32195SOL    HW297164   2.406   7.376   0.522  0.8030  0.3266 -0.3628
32196SOL     OW97165   8.027   5.304   6.732  0.0125 -0.1346 -0.4057
32196SOL    HW197166   8.099   5.304   6.795 -0.8581  0.8563  0.6321
32196SOL    HW297167   8.014   5.212   6.711 -0.7331 -0.6685  2.1490
32197SOL     OW97168   2.346   7.240   3.336  0.0723 -0.1182  1.0377
32197SOL    HW197169   2.289   7.175   3.376  1.2798 -1.6496  0.3730
32197SOL    HW297170   2.305   7.259   3.252  1.1614 -2.2589 -0.0596
32198SOL     OW97171   3.350   2.312   2.768  0.4773 -0.1114 -0.2968
32198SOL    HW197172   3.298   2.383   2.731 -0.0556 -1.3400 -2.0562
32198SOL    HW297173   3.419   2.296   2.704  0.8021 -0.9223  0.2388
32199SOL     OW97174   5.201   4.115   4.580  0.4732  0.7880  0.2192
32199SOL    HW197175   5.204   4.035   4.633  1.3086  0.2279 -0.6353
32199SOL    HW297176   5.267   4.101   4.512 -2.8085 -0.0204 -3.0867
32200SOL     OW97177   3.714   7.597   7.252  0.2008  0.6872  0.2050
32200SOL    HW197178   3.717   7.603   7.156 -2.2391  0.1878  0.0271
32200SOL    HW297179   3.681   7.683   7.279 -4.8418 -0.8477  0.0043
32201SOL     OW97180   6.141   1.256   3.899  0.3684  0.1019 -0.0305
32201SOL    HW197181   6.158   1.161   3.898  1.4471  0.2464  1.5812
32201SOL    HW297182   6.227   1.296   3.894 -0.1533  1.0659 -2.1336
32202SOL     OW97183   2.311   6.628   2.037  0.1710 -0.2765 -0.2256
32202SOL    HW197184   2.340   6.702   2.090 -0.4075  0.2755 -0.6644
32202SOL    HW297185   2.232   6.660   1.992  0.3355 -0.9122 -0.9884
32203SOL     OW97186   2.511   7.010   5.414 -0.3916 -0.3541  0.4094
32203SOL    HW197187   2.577   7.076   5.433  0.9434 -1.5099 -0.0641
32203SOL    HW297188   2.434   7.038   5.464  0.9787  0.1212  2.3577
32204SOL     OW97189   5.006   4.499   7.628 -0.2713 -0.7188 -0.1079
32204SOL    HW197190   4.958   4.552   7.691 -0.3922  1.4508 -1.9133
32204SOL    HW297191   4.942   4.476   7.561  0.5384 -0.2403 -1.0737
32205SOL     OW97192   2.055   8.607   9.078 -0.5179  0.4131 -0.5660
32205SOL    HW197193   2.114   8.545   9.037 -2.2468 -1.3050 -0.5930
32205SOL    HW297194   2.063   8.590   9.172  0.9293  2.0090 -0.3573
32206SOL     OW97195   8.605   8.777   9.905 -0.3612 -0.3300  0.1239
32206SOL    HW197196   8.675   8.731   9.951 -0.5261 -0.3704  0.3322
32206SOL    HW297197   8.630   8.869   9.909  0.8952 -0.5008 -1.7954
32207SOL     OW97198   0.265   2.006   6.581  0.3269 -0.5171 -0.2172
32207SOL    HW197199   0.221   1.970   6.658 -0.8686  1.5796  0.1418
32207SOL    HW297200   0.314   2.081   6.614  0.3498  0.0068 -1.3879
32208SOL     OW97201   1.548   4.283   8.522 -0.0118  0.4148  0.2245
32208SOL    HW197202   1.576   4.212   8.580 -0.3031 -0.1804 -0.3473
32208SOL    HW297203   1.573   4.363   8.569 -0.3669 -0.0436  1.2337
32209SOL     OW97204   4.177   3.228   8.296  0.5972  0.0707 -0.3631
32209SOL    HW197205   4.111   3.180   8.247 -2.5800  3.2612  0.3440
32209SOL    HW297206   4.226   3.276   8.230 -1.0182  1.2799 -0.7527
32210SOL     OW97207   4.140   8.391   8.882  0.0288  0.2291 -0.0848
32210SOL    HW197208   4.208   8.456   8.898  0.3063 -0.1627  0.3288
32210SOL    HW297209   4.065   8.422   8.933 -0.3966  1.1058 -1.1854
32211SOL     OW97210   1.816   4.365   0.858  0.8859 -0.0584  0.1766
32211SOL    HW197211   1.895   4.419   0.849  0.9268 -0.1002  0.2953
32211SOL    HW297212   1.845   4.286   0.902  0.9458 -0.4363 -0.5215
32212SOL     OW97213   6.958   2.491   0.899  0.5425 -0.1764  0.2703
32212SOL    HW197214   6.933   2.426   0.964 -0.2232  0.5732  0.7310
32212SOL    HW297215   6.955   2.574   0.945  0.0974  0.3556 -0.6958
32213SOL     OW97216   2.341   4.035   7.385  0.3894  0.3133 -0.1686
32213SOL    HW197217   2.313   4.036   7.294 -1.0123  0.8707  0.2260
32213SOL    HW297218   2.418   4.092   7.388 -1.1786  2.5937 -0.5785
32214SOL     OW97219   0.796   1.650   0.732  0.1313  0.1668  0.3188
32214SOL    HW197220   0.859   1.687   0.793  0.6928  0.8165 -0.6364
32214SOL    HW297221   0.717   1.703   0.744  0.4558  0.7262  0.0087
32215SOL     OW97222   8.174   8.785   3.696 -0.2321 -0.3968 -0.4143
32215SOL    HW197223   8.216   8.824   3.772 -0.2071 -1.4324  0.1271
32215SOL    HW297224   8.217   8.825   3.621 -0.7248  1.1455  0.0975
32216SOL     OW97225   9.828   0.861   8.716  0.6142  0.3628 -0.2197
32216SOL    HW197226   9.798   0.934   8.662 -0.1582 -0.3348 -0.7460
32216SOL    HW297227   9.751   0.838   8.769  0.4461 -0.9068 -0.9877
32217SOL     OW97228   0.902   4.268   6.836 -0.3296 -0.1965 -0.0583
32217SOL    HW197229   0.854   4.211   6.897 -0.0738  0.3220  0.6408
32217SOL    HW297230   0.870   4.242   6.749 -0.1936 -1.4346  0.2326
32218SOL     OW97231   1.997   3.878   2.607 -0.2953  0.1891  0.4014
32218SOL    HW197232   1.953   3.829   2.537  0.4344  0.1310 -0.0270
32218SOL    HW297233   2.044   3.948   2.561 -0.5087  0.6719  0.9187
32219SOL     OW97234   0.610   7.866   1.884 -0.1413  0.1821 -0.3158
32219SOL    HW197235   0.583   7.778   1.857  0.0694  0.3742 -1.1773
32219SOL    HW297236   0.649   7.904   1.806 -1.0442  1.3742 -0.2185
32220SOL     OW97237   0.767   0.894   4.947 -0.2631  1.1154 -0.1040
32220SOL    HW197238   0.766   0.800   4.933 -0.7434  1.2392 -0.9892
32220SOL    HW297239   0.730   0.907   5.034 -3.2407  0.6657 -1.1921
32221SOL     OW97240   9.102   9.617   7.114  0.0018 -0.1186 -0.0533
32221SOL    HW197241   9.181   9.669   7.097 -0.7396  0.8445 -0.6456
32221SOL    HW297242   9.131   9.550   7.176  1.2717  0.2412 -0.2214
32222SOL     OW97243   2.293   3.494   5.976 -0.1472  0.0604 -0.3726
32222SOL    HW197244   2.201   3.500   6.003 -0.1150  0.0605 -0.2622
32222SOL    HW297245   2.324   3.413   6.015 -0.2639 -0.2457 -0.9094
32223SOL     OW97246   6.522   2.908   4.340  0.4291 -0.5150  0.0996
32223SOL    HW197247   6.612   2.917   4.309 -0.0182  0.3148 -1.0415
32223SOL    HW297248   6.513   2.978   4.405  0.2778  0.1705 -0.6415
32224SOL     OW97249   9.157   1.612   8.054  0.7082 -0.0302  0.8534
32224SOL    HW197250   9.202   1.564   7.985 -0.0128  0.8970 -0.2950
32224SOL    HW297251   9.140   1.699   8.016 -0.3367  0.2611  1.9298
32225SOL     OW97252   3.427   9.787   7.269 -0.0447  0.2640  0.4387
32225SOL    HW197253   3.380   9.800   7.187  1.2930 -0.4170 -0.4696
32225SOL    HW297254   3.395   9.703   7.301  0.5258 -0.2023 -0.1815
32226SOL     OW97255   7.509   2.430   6.239  0.1898 -0.1363 -0.4520
32226SOL    HW197256   7.427   2.423   6.190  0.9576 -1.3255 -1.6573
32226SOL    HW297257   7.537   2.339   6.251  0.7232  0.2007  1.0518
32227SOL     OW97258   5.736   2.672   6.443  0.1151 -0.5032  0.0054
32227SOL    HW197259   5.688   2.749   6.413  0.7974 -0.4711 -1.0590
32227SOL    HW297260   5.669   2.603   6.446 -0.3832 -0.0163  0.4108
32228SOL     OW97261   0.880   6.521   4.440 -0.7556 -0.8381  0.9416
32228SOL    HW197262   0.907   6.429   4.444 -1.1765 -1.0603 -0.5389
32228SOL    HW297263   0.932   6.557   4.368 -2.5578 -0.6410 -0.3078
32229SOL     OW97264   4.307   8.188   5.167  0.2610 -0.0574 -0.5528
32229SOL    HW197265   4.312   8.258   5.102  1.0919 -2.3970 -3.2252
32229SOL    HW297266   4.392   8.188   5.209  0.5861 -0.0176 -1.2000
32230SOL     OW97267   1.767   3.951   2.112  0.5621  0.0212 -0.0877
32230SOL    HW197268   1.768   4.044   2.089  1.6734  0.2088  0.6228
32230SOL    HW297269   1.744   3.906   2.030  0.4736  0.8953 -0.5494
32231SOL     OW97270   9.827   9.613   9.712 -0.6473  0.4702 -0.4953
32231SOL    HW197271   9.871   9.682   9.762 -0.4873  0.1362 -0.1600
32231SOL    HW297272   9.738   9.645   9.699 -0.6274  0.6606 -0.1804
32232SOL     OW97273   4.996   2.164   0.534 -0.6934  0.2169 -0.3816
32232SOL    HW197274   4.944   2.233   0.494 -2.4541 -0.7916  0.0575
32232SOL    HW297275   4.951   2.144   0.617  0.4358 -0.6491  0.0627
32233SOL     OW97276   9.148   9.381   7.722  0.1372 -0.5915 -0.5796
32233SOL    HW197277   9.202   9.439   7.666 -0.0593  0.3221  0.1503
32233SOL    HW297278   9.076   9.437   7.751  0.4162 -0.9549  0.8606
32234SOL     OW97279   8.549   9.236   5.801 -0.5442 -0.7122 -0.0830
32234SOL    HW197280   8.545   9.297   5.874  2.7084  0.2881 -0.6161
32234SOL    HW297281   8.459   9.233   5.767 -1.1001  2.7440  0.7729
32235SOL     OW97282   9.749   3.187   9.655  0.3550 -0.0649 -0.3430
32235SOL    HW197283   9.770   3.121   9.720  0.8767 -0.5125 -0.9534
32235SOL    HW297284   9.814   3.175   9.586 -0.3648  0.1879 -1.0906
32236SOL     OW97285   0.579   8.301   9.269 -0.2232  0.1171 -0.0126
32236SOL    HW197286   0.536   8.258   9.342 -0.6118  0.2037 -0.1894
32236SOL    HW297287   0.604   8.387   9.303 -3.0537  1.3578 -0.8078
32237SOL     OW97288   6.108   5.214   4.070 -0.1439  0.5702 -0.0758
32237SOL    HW197289   6.030   5.270   4.075 -0.3144  0.2642  3.7863
32237SOL    HW297290   6.179   5.270   4.103  0.5641 -0.2010 -0.2660
32238SOL     OW97291   1.705   6.652   9.167 -0.7821 -0.2834  0.3359
32238SOL    HW197292   1.730   6.562   9.146 -0.4594  0.2328 -1.6986
32238SOL    HW297293   1.765   6.678   9.236  1.0787 -0.7014 -1.0613
32239SOL     OW97294   3.690   5.055   6.603 -0.1062  0.2254 -0.3522
32239SOL    HW197295   3.658   5.143   6.624  0.4539  0.4395 -0.3902
32239SOL    HW297296   3.783   5.067   6.583 -0.0421 -0.3661 -0.4255
32240SOL     OW97297   4.229   7.976   8.485  0.1878 -0.3217 -0.4819
32240SOL    HW197298   4.200   7.893   8.448 -0.4052 -1.0011  1.4215
32240SOL    HW297299   4.226   7.963   8.579  1.8963  1.2539 -0.1452
32241SOL     OW97300   5.437   2.180   3.607 -0.2233  0.1499  0.1074
32241SOL    HW197301   5.433   2.270   3.638 -1.5946  0.0057  0.4258
32241SOL    HW297302   5.496   2.136   3.668 -2.2374  0.0521  2.1363
32242SOL     OW97303   1.595   8.476   2.426  0.7968 -0.7600  0.1989
32242SOL    HW197304   1.572   8.386   2.450 -2.4508 -0.3184 -0.7097
32242SOL    HW297305   1.609   8.473   2.331  0.4605 -0.2963  0.1282
32243SOL     OW97306   4.888   9.369   9.686  0.2840 -0.2762 -0.4048
32243SOL    HW197307   4.856   9.322   9.609 -1.1558 -1.8200  1.0174
32243SOL    HW297308   4.879   9.461   9.664  2.8767 -0.5273 -3.2027
32244SOL     OW97309   4.519   2.047   4.203  0.0113  0.2277 -0.0385
32244SOL    HW197310   4.612   2.041   4.223  0.2343  1.4506 -0.6539
32244SOL    HW297311   4.476   2.003   4.276  1.1413 -2.2831 -0.7733
32245SOL     OW97312   5.407   3.685   9.517  0.1034 -0.1214 -0.4524
32245SOL    HW197313   5.471   3.640   9.572  0.0733  0.6912  0.2808
32245SOL    HW297314   5.376   3.619   9.456 -0.2864 -1.2079  0.8824
32246SOL     OW97315   0.124   3.610   0.426  0.1573  0.2133 -0.3976
32246SOL    HW197316   0.195   3.664   0.391  0.7318 -0.6832 -0.6365
32246SOL    HW297317   0.045   3.642   0.383  0.6672  0.0414 -1.4726
32247SOL     OW97318   9.199   2.355   8.446  0.2970 -0.2764 -0.5515
32247SOL    HW197319   9.281   2.373   8.493 -0.0215  0.1843 -0.1703
32247SOL    HW297320   9.161   2.282   8.493  0.1082  0.0136 -0.2536
32248SOL     OW97321   6.018   0.794   6.347  0.2193  0.1684 -0.4539
32248SOL    HW197322   6.015   0.700   6.366 -0.1025 -0.1747 -2.0435
32248SOL    HW297323   6.111   0.812   6.330  0.9834  1.0194  3.5862
32249SOL     OW97324   1.741   2.571   7.045 -0.0586 -0.4988  0.1629
32249SOL    HW197325   1.670   2.593   6.985 -0.0665  0.3484  0.4630
32249SOL    HW297326   1.721   2.482   7.074 -0.3689 -0.7003 -0.6310
32250SOL     OW97327   8.871   3.109   7.097  0.1218 -0.8681 -0.6827
32250SOL    HW197328   8.888   3.203   7.107  0.5746 -0.9491 -0.6548
32250SOL    HW297329   8.944   3.067   7.143 -1.1563 -1.2503  1.0817
32251SOL     OW97330   4.969   4.800   0.876 -0.1645 -0.8989 -0.2261
32251SOL    HW197331   5.044   4.740   0.875  0.4824 -0.1167  0.4562
32251SOL    HW297332   4.998   4.875   0.824 -0.4937 -0.6265 -0.0198
32252SOL     OW97333   8.736   0.484   8.113 -0.1976  0.4297  0.0161
32252SOL    HW197334   8.688   0.406   8.141  1.6777 -0.4619  0.9385
32252SOL    HW297335   8.669   0.552   8.104 -1.4896 -0.3846  2.5751
32253SOL     OW97336   7.230   8.123   9.149  0.0878  0.4141  0.4366
32253SOL    HW197337   7.223   8.176   9.069 -2.9953  1.0456  1.0077
32253SOL    HW297338   7.208   8.184   9.219  0.0423 -0.8046  1.5026
32254SOL     OW97339   1.798   5.070   1.520  0.0152  0.2122  0.3355
32254SOL    HW197340   1.755   5.039   1.441 -1.3925  1.8182  0.4193
32254SOL    HW297341   1.834   5.155   1.496  2.3251 -0.6142  0.5795
32255SOL     OW97342   3.593   5.533   0.107 -0.4314  0.2275  0.1189
32255SOL    HW197343   3.595   5.554   0.013  1.4573  0.4776  0.1725
32255SOL    HW297344   3.682   5.551   0.137 -0.2465 -2.3863  1.3932
32256SOL     OW97345   5.559   6.368   6.077  0.1588  0.4131  0.1627
32256SOL    HW197346   5.612   6.289   6.086 -0.8649 -0.2297  0.7435
32256SOL    HW297347   5.477   6.348   6.123 -1.7069  0.3910 -2.8945
32257SOL     OW97348   3.964   6.786   2.076  0.3965  0.2073  0.1366
32257SOL    HW197349   3.881   6.831   2.091  0.6075  0.9879 -0.9649
32257SOL    HW297350   3.940   6.694   2.066 -0.3121  0.4011  0.0430
32258SOL     OW97351   6.906   7.234   0.985  0.2349 -0.0214 -0.4847
32258SOL    HW197352   6.910   7.140   1.004 -1.9313  0.2228  1.7441
32258SOL    HW297353   6.993   7.267   1.008  0.5377 -1.2590  0.2435
32259SOL     OW97354   8.115   6.298   8.508  0.3461 -0.3700 -0.0976
32259SOL    HW197355   8.143   6.386   8.484 -2.4420  0.9195  0.8601
32259SOL    HW297356   8.138   6.290   8.600  0.0688 -0.3978 -0.0299
32260SOL     OW97357   2.285   9.731   2.765 -0.3498 -0.4265  0.3485
32260SOL    HW197358   2.202   9.726   2.718 -0.5687 -0.7808  0.7612
32260SOL    HW297359   2.295   9.823   2.787 -0.4502 -0.3268 -0.0270
32261SOL     OW97360   3.519   9.331   9.329  0.4671  0.0038 -0.1203
32261SOL    HW197361   3.427   9.352   9.345  0.5134  0.3378 -0.2934
32261SOL    HW297362   3.520   9.296   9.240  0.0674 -2.7017  0.8464
32262SOL     OW97363   0.484   7.120   2.207  0.2918 -0.9824 -0.0942
32262SOL    HW197364   0.395   7.149   2.187  0.2556 -0.7079  0.4393
32262SOL    HW297365   0.539   7.197   2.192  0.6933 -1.6109 -2.1005
32263SOL     OW97366   1.320   7.922   9.564 -0.1068 -0.3505 -0.1687
32263SOL    HW197367   1.275   7.843   9.536 -2.0053  0.2398  1.0431
32263SOL    HW297368   1.395   7.890   9.614  1.6162 -1.3653 -3.1275
32264SOL     OW97369   2.994   6.936   9.544  0.2880  0.2234  0.7304
32264SOL    HW197370   2.989   6.997   9.471 -0.7035 -0.2011  0.4238
32264SOL    HW297371   3.000   6.992   9.621  0.7086  0.6882  0.3654
32265SOL     OW97372   3.376   0.507   2.535  0.1589  0.3229  0.0454
32265SOL    HW197373   3.338   0.420   2.538 -0.4672  0.5805 -0.3191
32265SOL    HW297374   3.396   0.522   2.442  0.7712  0.3576  0.1747
32266SOL     OW97375   1.226   2.688   7.543  0.0208  0.0546 -0.6324
32266SOL    HW197376   1.238   2.780   7.520 -0.7360  0.0013 -1.2625
32266SOL    HW297377   1.138   2.666   7.512 -0.1588 -0.6400  0.3053
32267SOL     OW97378   8.483   0.119   6.715  0.2079 -0.1719 -0.2504
32267SOL    HW197379   8.553   0.135   6.652  0.5895  0.7551  0.3974
32267SOL    HW297380   8.405   0.154   6.673  0.5605  0.9424  0.0094
32268SOL     OW97381   1.026   1.168   8.183  0.0299 -1.0848 -0.2864
32268SOL    HW197382   0.964   1.151   8.254 -0.2135 -0.7185 -0.4089
32268SOL    HW297383   1.112   1.171   8.226 -0.3145  1.5035  0.4145
32269SOL     OW97384   4.829   9.062   5.713 -0.3264 -0.2025 -0.3602
32269SOL    HW197385   4.813   9.134   5.774  3.2183  1.0025 -0.6310
32269SOL    HW297386   4.851   8.987   5.769  1.7857  0.5965 -0.0148
32270SOL     OW97387   3.059   1.781   6.410 -0.0445 -0.4743  0.1159
32270SOL    HW197388   3.147   1.746   6.395  0.8824  1.1152  1.4811
32270SOL    HW297389   3.013   1.711   6.455  1.4577 -0.3463  1.9599
32271SOL     OW97390   3.395   5.560   8.226 -0.4031 -0.2456  0.0174
32271SOL    HW197391   3.440   5.500   8.285 -1.0722  0.6042  1.4262
32271SOL    HW297392   3.309   5.574   8.266 -0.8274  0.4460 -1.0920
32272SOL     OW97393   6.449   9.865   4.461 -0.1555  0.3910 -0.0429
32272SOL    HW197394   6.365   9.819   4.458  0.9499 -1.7196 -1.2478
32272SOL    HW297395   6.513   9.796   4.480  1.4882  1.6313 -0.8232
32273SOL     OW97396   4.433   2.478   5.163 -0.0846  0.2230  0.2804
32273SOL    HW197397   4.450   2.485   5.257 -0.1085 -0.6314  0.3588
32273SOL    HW297398   4.368   2.546   5.145  1.5011  1.8683  0.4599
32274SOL     OW97399   4.150   5.925   6.605  0.1990 -0.4336  0.1681
32274SOL    HW197400   4.221   5.861   6.606 -0.9080 -1.7150  1.4795
32274SOL    HW297401   4.095   5.896   6.532  0.8336  0.3736 -0.6494
32275SOL     OW97402   7.760   2.463   8.928  0.6216  0.2901  0.1936
32275SOL    HW197403   7.670   2.488   8.946  0.5177 -0.3450  0.5986
32275SOL    HW297404   7.801   2.543   8.895  0.0722  0.7479  0.5905
32276SOL     OW97405   2.038   4.267   6.064 -0.3368  0.1465 -0.1787
32276SOL    HW197406   2.067   4.358   6.051 -0.6728  0.3137  0.2296
32276SOL    HW297407   2.114   4.214   6.038 -0.2155  0.5365 -0.6273
32277SOL     OW97408   0.263   3.645   5.376  0.1575 -0.5133 -0.0232
32277SOL    HW197409   0.276   3.706   5.449  0.2785  0.2954 -0.6966
32277SOL    HW297410   0.219   3.697   5.309 -0.3892 -1.3764 -0.3511
32278SOL     OW97411   8.844   5.399   0.710  0.3674  0.0996  0.0657
32278SOL    HW197412   8.907   5.349   0.658  1.6112 -1.0230  2.4654
32278SOL    HW297413   8.865   5.490   0.692  1.0106 -0.2486 -1.0477
32279SOL     OW97414   7.229   6.987   5.451 -0.2132 -0.4215  0.1751
32279SOL    HW197415   7.149   6.989   5.399  0.6804  2.7923 -1.3389
32279SOL    HW297416   7.226   7.068   5.502  2.5045  0.3389 -0.7206
32280SOL     OW97417   1.496   9.825   8.758  0.4926 -0.5020  0.0658
32280SOL    HW197418   1.488   9.837   8.663  0.1567  0.0676  0.1577
32280SOL    HW297419   1.539   9.905   8.788  1.4595 -1.0877  0.2856
32281SOL     OW97420   0.019   3.638   8.397 -0.2777  0.3853  0.1372
32281SOL    HW197421   0.109   3.657   8.370 -0.6451  0.2142 -1.2477
32281SOL    HW297422  -0.029   3.719   8.383 -0.1428  0.7945  1.8630
32282SOL     OW97423   5.728   7.105   7.410  0.3403  0.3131  0.4048
32282SOL    HW197424   5.637   7.087   7.431 -0.7607  0.8173 -3.3165
32282SOL    HW297425   5.774   7.023   7.430 -1.0084 -0.1903  1.6154
32283SOL     OW97426   4.416   8.047   7.909  0.5441 -0.0455  0.2416
32283SOL    HW197427   4.440   8.118   7.969 -0.4862 -0.1337  0.7807
32283SOL    HW297428   4.342   8.082   7.860  1.3482  0.0096 -0.9821
32284SOL     OW97429   9.897   5.705   2.764  0.3137  0.8682  0.6359
32284SOL    HW197430   9.989   5.732   2.764  0.7418 -0.3042 -1.9066
32284SOL    HW297431   9.891   5.642   2.836  1.4342  1.0844  0.9442
32285SOL     OW97432   8.233   0.741   8.019  0.3523  0.2346  0.1193
32285SOL    HW197433   8.142   0.766   8.006  0.8545  2.1196  0.0175
32285SOL    HW297434   8.278   0.771   7.940  1.0800 -0.6701  0.1711
32286SOL     OW97435   2.089   9.477   4.972 -0.1162 -0.6367 -0.1915
32286SOL    HW197436   2.123   9.508   5.056  0.0890 -0.8336 -0.2014
32286SOL    HW297437   2.069   9.557   4.924 -1.6327 -0.5135  0.5920
32287SOL     OW97438   9.609   4.169   7.156 -0.3054  0.3396  0.3188
32287SOL    HW197439   9.681   4.233   7.153 -0.4581  0.7440  2.8345
32287SOL    HW297440   9.651   4.085   7.137  1.2781  0.3341  3.1794
32288SOL     OW97441   9.176   8.913  -0.002  0.4885 -0.0050  0.6508
32288SOL    HW197442   9.133   8.996   0.019 -0.1908 -0.6473  1.9510
32288SOL    HW297443   9.229   8.893   0.075  0.5021 -0.8595  0.4337
32289SOL     OW97444   5.733   3.782   2.039 -0.0306 -0.0054  0.1405
32289SOL    HW197445   5.803   3.741   1.987 -0.4407 -0.3019 -0.1798
32289SOL    HW297446   5.755   3.759   2.130  0.0056 -0.5408  0.0029
32290SOL     OW97447   0.285   3.755   1.931 -0.0520  0.1109  0.7295
32290SOL    HW197448   0.216   3.707   1.886  1.0915 -0.3092 -0.6521
32290SOL    HW297449   0.287   3.840   1.888  0.9779 -0.2567 -0.0088
32291SOL     OW97450   0.272   7.986   7.934 -0.1384  0.1545 -0.0453
32291SOL    HW197451   0.178   7.988   7.953 -0.4415 -1.0214 -1.2249
32291SOL    HW297452   0.287   8.064   7.881 -1.0854 -1.0447 -2.2493
32292SOL     OW97453   3.068   3.472   5.714 -0.4319 -0.6061  0.0528
32292SOL    HW197454   3.058   3.456   5.808  2.0178 -0.4618  0.4097
32292SOL    HW297455   3.162   3.460   5.698 -0.8296 -0.9247 -2.4469
32293SOL     OW97456   0.576   2.983   8.108 -0.2110  0.4924  0.1867
32293SOL    HW197457   0.624   3.056   8.146 -0.4413  0.2990  0.8588
32293SOL    HW297458   0.643   2.933   8.061  0.2797  0.2038  1.1520
32294SOL     OW97459   3.949   0.109   9.189  0.7483  0.6322  0.1111
32294SOL    HW197460   3.906   0.056   9.122  0.3681  0.6133  0.3684
32294SOL    HW297461   4.025   0.147   9.144  1.4409 -0.7073  0.1133
32295SOL     OW97462   7.332   2.721   2.669  0.1571 -0.2668  0.2994
32295SOL    HW197463   7.244   2.753   2.649  0.2037 -0.1871  0.2213
32295SOL    HW297464   7.369   2.698   2.585 -0.3914 -1.9088  0.4827
32296SOL     OW97465   8.344   6.860   5.270  0.1057 -0.4511  0.4768
32296SOL    HW197466   8.283   6.934   5.268  1.2819  0.5476 -0.3819
32296SOL    HW297467   8.312   6.804   5.340 -3.3867 -1.3869 -1.6064
32297SOL     OW97468   0.465   7.232   1.688 -0.1083 -0.2435 -0.4663
32297SOL    HW197469   0.381   7.218   1.645 -0.6579  0.4143  0.3522
32297SOL    HW297470   0.479   7.327   1.683 -0.1081 -0.1758  0.6425
32298SOL     OW97471   4.642   2.039   0.671 -0.0789  0.4505 -0.1423
32298SOL    HW197472   4.615   2.095   0.598 -0.1849 -0.5170 -0.8584
32298SOL    HW297473   4.562   1.993   0.696  0.1631  0.0934 -0.0230
32299SOL     OW97474   0.993   0.113   2.315 -0.5525 -0.1989  0.4408
32299SOL    HW197475   1.002   0.144   2.225 -0.6498  0.0914  0.5312
32299SOL    HW297476   1.071   0.146   2.360 -0.2932 -0.6973  0.3642
32300SOL     OW97477   8.709   6.052   0.084 -0.0052  0.2104  0.8644
32300SOL    HW197478   8.644   6.059   0.154 -0.1288 -1.3372  0.9254
32300SOL    HW297479   8.714   5.959   0.063 -1.4772  0.7562 -2.6393
32301SOL     OW97480   6.971   8.538   6.331 -0.1873 -0.6177  0.3325
32301SOL    HW197481   6.978   8.622   6.376  0.9941 -1.3283  1.5483
32301SOL    HW297482   7.048   8.535   6.274 -0.6747 -0.5174 -0.3306
32302SOL     OW97483   5.397   0.865   8.410  0.6614  0.3656  0.5191
32302SOL    HW197484   5.492   0.858   8.417  0.5000 -1.0891  1.7887
32302SOL    HW297485   5.379   0.854   8.317  1.6258 -1.5240  0.5140
32303SOL     OW97486   3.299   7.333   8.246  0.2578  0.1605 -0.0249
32303SOL    HW197487   3.294   7.380   8.163  0.5627  0.6574  0.2335
32303SOL    HW297488   3.224   7.365   8.296  0.6887  0.6788  0.3025
32304SOL     OW97489   4.290   1.694   6.895 -0.2915  0.1973 -0.0325
32304SOL    HW197490   4.288   1.599   6.898 -2.7202  0.2129  0.5007
32304SOL    HW297491   4.283   1.722   6.986  0.5316  0.9171 -0.1688
32305SOL     OW97492   5.854   0.088   7.500  0.4619 -0.0698 -0.0939
32305SOL    HW197493   5.877   0.037   7.577  1.3445  0.9279  0.3328
32305SOL    HW297494   5.821   0.171   7.535  1.0434  0.4633 -0.7855
32306SOL     OW97495   9.069   6.313   7.035 -0.4495  0.2723 -0.0795
32306SOL    HW197496   9.163   6.323   7.052 -0.4434 -0.1036  0.1202
32306SOL    HW297497   9.028   6.316   7.122 -0.7452  1.6152 -0.2492
32307SOL     OW97498   9.834   8.465   9.265  0.1858  0.4533  0.9055
32307SOL    HW197499   9.890   8.489   9.191 -2.2220 -0.8989 -1.5682
32307SOL    HW297500   9.809   8.374   9.248 -0.4055  0.0440  3.4867
32308SOL     OW97501   5.495   4.255   9.248  0.1992 -0.5510 -0.0260
32308SOL    HW197502   5.547   4.228   9.323  0.5105 -1.6976 -0.6217
32308SOL    HW297503   5.526   4.343   9.227  0.1997 -0.2680  1.0888
32309SOL     OW97504   8.804   6.344   0.949  0.3351 -0.2485 -0.0228
32309SOL    HW197505   8.709   6.348   0.945  0.3093  2.5022  1.0469
32309SOL    HW297506   8.828   6.276   0.887 -2.3737 -2.1453  0.8123
32310SOL     OW97507   6.408   3.766   4.776  0.7588  0.2973 -0.7825
32310SOL    HW197508   6.493   3.791   4.809  1.3175 -1.0127 -1.1420
32310SOL    HW297509   6.377   3.843   4.728  1.1915  1.1972  0.3345
32311SOL     OW97510   5.054   4.897   9.192 -0.3260  0.0544  0.3083
32311SOL    HW197511   5.018   4.875   9.106  1.0101 -0.0278 -0.2522
32311SOL    HW297512   5.148   4.901   9.179  0.2683 -2.9535  2.3637
32312SOL     OW97513   7.583   4.442   1.902  0.2643  0.0331  0.4849
32312SOL    HW197514   7.597   4.363   1.955 -1.1284 -0.1808  0.5727
32312SOL    HW297515   7.546   4.410   1.820  0.8926  0.5058  0.0007
32313SOL     OW97516   9.471   4.885   2.132  0.3158 -0.1127 -0.1944
32313SOL    HW197517   9.510   4.936   2.203 -1.6308 -0.4024  1.1527
32313SOL    HW297518   9.539   4.882   2.064  1.7900  1.1833  1.1579
32314SOL     OW97519   2.296   1.153   2.797  0.6135 -0.0113 -0.2477
32314SOL    HW197520   2.250   1.228   2.834  0.6240 -0.4388  0.6655
32314SOL    HW297521   2.227   1.098   2.761  0.3025 -0.9134  1.5967
32315SOL     OW97522   9.626   6.624   1.838  0.3859 -0.1990  0.0748
32315SOL    HW197523   9.621   6.671   1.921 -1.9320 -1.0407  0.4765
32315SOL    HW297524   9.592   6.537   1.858  0.2380 -0.5636 -1.6573
32316SOL     OW97525   8.202   8.056   5.658 -0.0340 -0.6228  0.1687
32316SOL    HW197526   8.118   8.010   5.647 -0.9550  0.3877  2.2848
32316SOL    HW297527   8.180   8.132   5.713  1.6748  1.5888 -1.9734
32317SOL     OW97528   8.442   6.031   5.823 -0.3546 -0.0197 -0.0279
32317SOL    HW197529   8.380   6.091   5.866 -0.1741  0.3082 -0.2239
32317SOL    HW297530   8.425   5.946   5.864 -2.3732 -0.4023 -1.4862
32318SOL     OW97531   1.156   3.701   3.410  0.0443 -0.1346 -0.0272
32318SOL    HW197532   1.246   3.701   3.379 -0.2584  1.1546 -1.0182
32318SOL    HW297533   1.111   3.637   3.355  0.1845 -0.1860 -0.0817
32319SOL     OW97534   1.625   2.783   1.212  0.2086 -0.1553  0.0043
32319SOL    HW197535   1.690   2.848   1.186  0.3998 -0.6227 -0.7263
32319SOL    HW297536   1.580   2.823   1.286  1.0110  0.3728  0.2285
32320SOL     OW97537   4.448   0.204   2.741 -0.4718  0.3959 -0.2711
32320SOL    HW197538   4.378   0.238   2.797 -1.2232  0.6321 -1.3244
32320SOL    HW297539   4.528   0.242   2.776 -1.1905  2.6087 -0.9054
32321SOL     OW97540   8.183   2.687   0.779  0.0842 -0.1509 -0.4377
32321SOL    HW197541   8.128   2.680   0.858 -0.4766  2.3760 -0.4982
32321SOL    HW297542   8.272   2.696   0.813 -0.2768  2.3243  0.1148
32322SOL     OW97543   0.543   9.709   5.291 -0.4324  0.0421 -0.4822
32322SOL    HW197544   0.513   9.642   5.352 -1.1368  0.6404 -0.1607
32322SOL    HW297545   0.463   9.751   5.260  0.0119  0.9367 -0.4488
32323SOL     OW97546   9.418   3.442   9.506 -0.0232 -0.2467 -0.1033
32323SOL    HW197547   9.451   3.520   9.552  0.7026 -0.4931 -0.2015
32323SOL    HW297548   9.429   3.463   9.413 -0.7431 -0.0769 -0.1603
32324SOL     OW97549   1.805   2.874   5.697 -0.3083  0.3263 -1.0137
32324SOL    HW197550   1.833   2.899   5.609  2.5733  1.0908 -0.0051
32324SOL    HW297551   1.775   2.784   5.687  2.9852 -0.7996 -2.3680
32325SOL     OW97552   5.145   5.648   5.576  0.2429 -0.0864 -0.3770
32325SOL    HW197553   5.150   5.695   5.492 -0.4944 -0.9577 -0.9281
32325SOL    HW297554   5.105   5.710   5.636  0.1306  0.3116 -0.8530
32326SOL     OW97555   6.323   6.318   5.013 -0.4001  0.4406  0.0893
32326SOL    HW197556   6.416   6.342   5.022 -0.4707  0.7126  0.0885
32326SOL    HW297557   6.312   6.299   4.920 -0.1327 -0.4691  0.2351
32327SOL     OW97558   0.660   5.079   2.589  0.3145  0.0952  0.3849
32327SOL    HW197559   0.582   5.031   2.617  0.4005  0.6690  1.6702
32327SOL    HW297560   0.685   5.131   2.665  2.5582 -0.8556  0.3739
32328SOL     OW97561   3.550   6.965   2.066  0.1972  0.0693  0.3182
32328SOL    HW197562   3.587   6.926   2.146  0.9536  0.7716  0.3358
32328SOL    HW297563   3.609   6.936   1.996  1.4176  1.9872  0.4806
32329SOL     OW97564   4.662   7.762   7.975 -0.2727  0.0091 -0.8753
32329SOL    HW197565   4.745   7.775   8.021  0.9805 -1.4466 -2.6020
32329SOL    HW297566   4.596   7.790   8.038  1.3179 -1.9311  1.9166
32330SOL     OW97567   4.814   7.172   0.528  0.0555 -0.0947  0.1168
32330SOL    HW197568   4.797   7.119   0.450 -0.2366  1.0957 -0.6421
32330SOL    HW297569   4.767   7.126   0.598 -0.0191 -0.9458 -0.4740
32331SOL     OW97570   3.133   5.794   8.044 -0.2962 -0.4529 -0.1307
32331SOL    HW197571   3.202   5.860   8.049 -0.3746 -0.4477  2.3160
32331SOL    HW297572   3.053   5.841   8.068 -0.6133 -1.1115  0.1285
32332SOL     OW97573   7.998   3.696   7.113  0.1985  0.0381  0.7395
32332SOL    HW197574   7.922   3.670   7.165 -0.0066 -1.1873 -0.1333
32332SOL    HW297575   7.966   3.767   7.058 -0.3020 -0.3870  0.4649
32333SOL     OW97576   8.613   3.900   9.343  0.2013  0.3689 -0.2337
32333SOL    HW197577   8.590   3.933   9.257  1.2604 -1.6183 -1.3469
32333SOL    HW297578   8.610   3.805   9.334 -1.3064  0.0497  2.4031
32334SOL     OW97579   3.678   9.059   2.167  0.0780 -0.0313 -0.4307
32334SOL    HW197580   3.765   9.078   2.200  0.3880 -0.0162 -1.2287
32334SOL    HW297581   3.634   9.144   2.163  0.6104  0.2107 -1.6206
32335SOL     OW97582   6.435   7.170   3.239 -0.4114  0.3967 -0.0894
32335SOL    HW197583   6.428   7.092   3.185  2.4834  2.4315 -3.9061
32335SOL    HW297584   6.381   7.235   3.195 -0.8068  1.2783  1.5872
32336SOL     OW97585   6.099   4.615   3.354  0.0244  0.0349  0.2794
32336SOL    HW197586   6.068   4.685   3.296  1.8499  1.3809  0.8367
32336SOL    HW297587   6.122   4.543   3.294  0.4382  0.8326 -0.5453
32337SOL     OW97588   4.182   0.474   3.443 -0.3139  0.5278 -0.4919
32337SOL    HW197589   4.197   0.509   3.531  1.8095  0.1331 -0.6436
32337SOL    HW297590   4.249   0.517   3.389 -1.9961  1.2706 -2.0890
32338SOL     OW97591   9.228   6.291   1.595  0.1778  0.0193  0.5895
32338SOL    HW197592   9.289   6.364   1.607 -0.6841  0.9505 -0.5210
32338SOL    HW297593   9.244   6.261   1.505 -0.8145  0.1117  0.3726
32339SOL     OW97594   0.392   1.497   4.050  0.8187 -0.0565  0.3076
32339SOL    HW197595   0.477   1.538   4.030  1.3122 -0.8473  0.6986
32339SOL    HW297596   0.346   1.562   4.102  0.6189  0.9315 -1.0498
32340SOL     OW97597   9.140   4.515   8.605  0.2813  0.4423  0.0237
32340SOL    HW197598   9.197   4.591   8.613  0.4846  0.4712 -1.4261
32340SOL    HW297599   9.161   4.461   8.682  2.4254  0.3631 -0.5520
32341SOL     OW97600   6.866   5.154   4.710 -0.3483 -0.1363  0.0854
32341SOL    HW197601   6.891   5.194   4.793  0.9790 -0.4080 -0.1553
32341SOL    HW297602   6.947   5.114   4.677 -1.1342 -1.1454 -0.7206
32342SOL     OW97603   4.205   0.781   8.031 -0.4218 -0.3977  0.6004
32342SOL    HW197604   4.227   0.862   7.984  0.1054 -2.4000 -2.9904
32342SOL    HW297605   4.284   0.760   8.081  0.5093 -0.1119 -0.6923
32343SOL     OW97606   9.265   9.908   7.583  0.4771 -0.6238  0.0648
32343SOL    HW197607   9.352   9.916   7.622  1.0592 -2.3933 -0.8115
32343SOL    HW297608   9.247   9.995   7.547  1.6465 -0.1022  0.6862
32344SOL     OW97609   5.466   3.748   5.277  0.6765 -0.0550  0.8902
32344SOL    HW197610   5.394   3.780   5.222  0.8727 -1.1532 -0.0424
32344SOL    HW297611   5.545   3.782   5.235  0.9816 -2.7357 -0.8962
32345SOL     OW97612   9.234   6.482   2.226  0.2762  0.0507  0.5790
32345SOL    HW197613   9.268   6.461   2.140 -0.5197  0.7225  0.0817
32345SOL    HW297614   9.311   6.502   2.279  0.7170  0.3788 -0.1869
32346SOL     OW97615   6.117   7.799   5.240  0.2862 -0.3048 -0.4832
32346SOL    HW197616   6.092   7.709   5.261 -0.1288 -0.2913 -0.9265
32346SOL    HW297617   6.171   7.792   5.162 -0.2646 -0.1084 -0.8826
32347SOL     OW97618   7.833   0.536   4.748  0.3242  0.0660 -0.4246
32347SOL    HW197619   7.886   0.496   4.679  0.3020  1.7367 -1.4743
32347SOL    HW297620   7.748   0.550   4.707 -0.1246 -0.1839  0.4090
32348SOL     OW97621   7.660   7.268   8.229  0.5189 -0.1925  0.3845
32348SOL    HW197622   7.675   7.248   8.137  0.2756 -2.0858  0.7243
32348SOL    HW297623   7.720   7.211   8.276  0.1250  0.2402  1.4350
32349SOL     OW97624   3.052   2.716   4.264  0.5736  0.1909 -0.2033
32349SOL    HW197625   3.038   2.676   4.179  0.8416 -1.7602  0.6174
32349SOL    HW297626   3.136   2.681   4.295 -1.3709 -2.6279  2.5938
32350SOL     OW97627   8.676   2.169   2.940  0.1188 -0.1563  0.2447
32350SOL    HW197628   8.679   2.181   2.845 -2.5830 -0.2623  0.0626
32350SOL    HW297629   8.610   2.232   2.970 -0.5002 -1.4608  1.7881
32351SOL     OW97630   4.751   5.877   7.601  0.2763 -0.3963  0.9623
32351SOL    HW197631   4.837   5.842   7.622  0.3050 -1.8906 -1.3171
32351SOL    HW297632   4.762   5.916   7.514 -1.0799  0.4625  1.1478
32352SOL     OW97633   9.211   8.590   3.161  0.2216 -0.0528 -0.0071
32352SOL    HW197634   9.166   8.507   3.145  0.1502  0.1532 -0.9006
32352SOL    HW297635   9.190   8.610   3.253 -0.8633 -0.3617 -0.1663
32353SOL     OW97636   6.484   3.130   2.236 -0.3241  0.2387 -0.3292
32353SOL    HW197637   6.470   3.223   2.251  0.4897  0.2697  0.2974
32353SOL    HW297638   6.461   3.089   2.319  0.4498  0.0091 -0.2201
32354SOL     OW97639   5.211   9.816   5.110 -0.0371  0.5881  0.2386
32354SOL    HW197640   5.254   9.824   5.195 -0.6929  0.8688  0.5534
32354SOL    HW297641   5.118   9.829   5.129 -0.2992 -0.3082 -0.3775
32355SOL     OW97642   4.666   7.730   8.802  0.2060 -0.3732  0.3231
32355SOL    HW197643   4.643   7.678   8.879  0.7239  1.8861  2.1169
32355SOL    HW297644   4.609   7.807   8.807  2.1980  1.1868  0.0694
32356SOL     OW97645   8.788   4.052   8.324  0.3198 -0.4835 -0.1516
32356SOL    HW197646   8.729   4.108   8.274 -1.5610 -2.4531 -0.2866
32356SOL    HW297647   8.872   4.099   8.325 -1.4830  2.9970  1.0479
32357SOL     OW97648   7.058   2.777   4.553  0.1649 -0.0590  0.2137
32357SOL    HW197649   7.133   2.836   4.549  2.5610 -2.5943  2.9006
32357SOL    HW297650   7.065   2.724   4.473 -0.4059  1.4455 -0.8634
32358SOL     OW97651   7.091   7.481   0.661 -0.4297 -0.0556  0.2863
32358SOL    HW197652   7.029   7.409   0.648 -0.6678  0.1425  0.3069
32358SOL    HW297653   7.071   7.515   0.749 -2.0406  1.6415 -0.6483
32359SOL     OW97654   3.673   4.043   1.377  0.3155 -0.5779 -0.3368
32359SOL    HW197655   3.749   4.042   1.318 -0.0755 -2.4112 -0.8498
32359SOL    HW297656   3.634   4.129   1.364  1.4374 -0.1717 -1.1922
32360SOL     OW97657   8.504   0.892   3.809  0.4234 -0.1284  0.4963
32360SOL    HW197658   8.489   0.948   3.885 -1.3188  0.3683 -0.1648
32360SOL    HW297659   8.462   0.938   3.737  4.1816  0.6815 -1.3842
32361SOL     OW97660   7.582   2.750   7.954  0.2252  0.2175 -0.1590
32361SOL    HW197661   7.669   2.748   7.994 -0.4526  0.2573  1.3985
32361SOL    HW297662   7.563   2.844   7.942  0.5135  0.1995 -0.8068
32362SOL     OW97663   2.314   0.913   1.442 -0.1648 -0.1400 -0.2696
32362SOL    HW197664   2.257   0.898   1.517  1.5994 -2.5571  0.7159
32362SOL    HW297665   2.260   0.960   1.379 -2.8192 -1.1945  1.0927
32363SOL     OW97666   2.412   3.054   2.372 -0.1830 -0.9060  0.2906
32363SOL    HW197667   2.434   2.976   2.424 -1.0011 -0.5496  1.1966
32363SOL    HW297668   2.371   3.114   2.435 -3.2377 -1.3137 -1.1494
32364SOL     OW97669   1.348   3.477   0.474  0.2813  0.7579  0.1382
32364SOL    HW197670   1.336   3.456   0.567  0.0450  0.8466  0.1295
32364SOL    HW297671   1.364   3.571   0.473  0.3039  0.7534  0.0912
32365SOL     OW97672   4.600   2.362   3.895 -0.1346  0.4831  0.9064
32365SOL    HW197673   4.573   2.446   3.857  1.8450  0.8370  0.1885
32365SOL    HW297674   4.552   2.297   3.843 -0.9186  1.1167  0.8100
32366SOL     OW97675   5.593   7.640   5.191 -0.3664 -0.5885 -0.3801
32366SOL    HW197676   5.571   7.583   5.117 -2.1551 -1.1232  0.5075
32366SOL    HW297677   5.540   7.606   5.264 -1.8242  2.3969  0.1081
32367SOL     OW97678   6.835   0.354   3.552 -0.3060 -0.3815 -0.3218
32367SOL    HW197679   6.812   0.394   3.636  1.3678 -0.3794  0.1663
32367SOL    HW297680   6.815   0.261   3.563 -0.9570 -0.2423 -0.2642
32368SOL     OW97681   6.306   8.682   9.293 -0.1109  0.2472  0.8592
32368SOL    HW197682   6.324   8.599   9.248 -0.7807  0.0131  1.0035
32368SOL    HW297683   6.219   8.708   9.262  0.7227  1.7052 -0.3632
32369SOL     OW97684   8.903   0.536   3.560  0.6985 -0.1958 -0.0837
32369SOL    HW197685   8.884   0.466   3.498  0.3434 -0.6857  0.5685
32369SOL    HW297686   8.975   0.585   3.520  1.0837 -1.0471 -0.4548
32370SOL     OW97687   4.430   2.580   4.552  0.0531  0.7241  0.1722
32370SOL    HW197688   4.500   2.516   4.560  0.5558  1.2199 -0.2199
32370SOL    HW297689   4.367   2.539   4.493  0.8886  1.0232 -0.9565
32371SOL     OW97690   3.851   6.758   7.806  0.4344 -0.1651  0.0822
32371SOL    HW197691   3.837   6.719   7.720 -1.8472  0.6180  0.0102
32371SOL    HW297692   3.866   6.684   7.864  0.5766 -0.8072 -0.7529
32372SOL     OW97693   5.245   4.274   3.675  0.7282  0.0346  0.0792
32372SOL    HW197694   5.248   4.209   3.604  1.2732 -0.7404  0.7958
32372SOL    HW297695   5.296   4.348   3.641  1.6208 -0.6316 -0.0659
32373SOL     OW97696   9.801   1.396   4.678  0.7286 -0.0438 -0.1373
32373SOL    HW197697   9.785   1.481   4.718 -0.1019 -0.9224  1.4804
32373SOL    HW297698   9.864   1.354   4.737  1.2218 -0.5094 -0.9850
32374SOL     OW97699   7.724   4.058   8.512  0.5895 -0.2187 -0.8296
32374SOL    HW197700   7.638   4.090   8.484  0.6486  1.6189  0.8990
32374SOL    HW297701   7.784   4.088   8.445  0.0813 -0.2276 -1.2940
32375SOL     OW97702   7.021   1.067   2.834 -0.5073  0.5558  0.7790
32375SOL    HW197703   7.041   1.159   2.817  1.7981 -0.0403 -0.0705
32375SOL    HW297704   7.034   1.023   2.750  0.4172 -0.8248  1.5967
32376SOL     OW97705   7.976   7.715   2.612 -0.2920 -0.6477 -0.1079
32376SOL    HW197706   7.905   7.729   2.675  1.5780 -1.0808  2.2385
32376SOL    HW297707   8.032   7.792   2.622  0.1429 -0.8104 -1.1759
32377SOL     OW97708   8.307   3.747   7.819  0.3011  0.1619 -0.5706
32377SOL    HW197709   8.319   3.789   7.905 -0.6038  0.8046 -0.7523
32377SOL    HW297710   8.394   3.749   7.780  0.7812 -0.3458  0.4211
32378SOL     OW97711   1.413   4.686   7.813  0.1409 -0.3147 -0.1634
32378SOL    HW197712   1.415   4.776   7.844  0.5110 -0.7062  1.0049
32378SOL    HW297713   1.413   4.633   7.892  0.3481 -1.3548 -0.8322
32379SOL     OW97714   5.230   0.530   9.850  0.2142  0.0032 -0.3216
32379SOL    HW197715   5.234   0.442   9.887  0.7463  0.0580 -0.2504
32379SOL    HW297716   5.297   0.530   9.781  0.3960  0.4369 -0.1444
32380SOL     OW97717   5.651   8.698   6.810 -0.3035  0.8307  0.0507
32380SOL    HW197718   5.717   8.641   6.771 -0.8438 -0.6485  1.1849
32380SOL    HW297719   5.568   8.652   6.795 -0.5141 -0.0695  3.1983
32381SOL     OW97720   7.905   7.312   2.097  0.2912 -0.4592 -0.1826
32381SOL    HW197721   7.993   7.342   2.075  0.1641 -0.3568 -0.5678
32381SOL    HW297722   7.900   7.223   2.061 -0.0444 -0.1548 -0.9282
32382SOL     OW97723   9.076   8.656   8.426 -0.2839 -0.2522 -0.4204
32382SOL    HW197724   9.141   8.596   8.463 -0.0096  0.2746 -0.0316
32382SOL    HW297725   9.044   8.611   8.348  0.7372 -0.4120 -0.7648
32383SOL     OW97726   0.216   0.122   7.579  0.3600 -0.8701  0.2529
32383SOL    HW197727   0.122   0.123   7.596  0.4121 -2.0739  0.6649
32383SOL    HW297728   0.256   0.128   7.666  0.6415 -2.8387  0.2931
32384SOL     OW97729   7.623   1.174   6.361  0.5084  0.3053  0.5620
32384SOL    HW197730   7.561   1.247   6.358  1.4823  1.1437 -2.4211
32384SOL    HW297731   7.572   1.100   6.392 -1.6414  1.2855 -0.4738
32385SOL     OW97732   6.114   8.774   1.992 -0.3616 -0.3451 -0.2443
32385SOL    HW197733   6.030   8.818   1.978 -0.2937 -0.1579 -0.0769
32385SOL    HW297734   6.176   8.826   1.943 -0.1719  0.1390  0.4848
32386SOL     OW97735   2.843   9.257   9.404 -0.3551 -0.1863 -0.8038
32386SOL    HW197736   2.904   9.222   9.468 -0.2563 -1.6404 -1.6541
32386SOL    HW297737   2.763   9.274   9.453 -0.2573 -1.2091 -0.2657
32387SOL     OW97738   9.290   7.022   3.113  0.2685 -0.2075  0.3953
32387SOL    HW197739   9.230   7.022   3.039 -0.0777 -0.2736  0.6752
32387SOL    HW297740   9.330   6.935   3.111 -0.9542 -0.8094  1.2608
32388SOL     OW97741   5.602   2.152   0.879 -0.4055 -0.0518 -0.2270
32388SOL    HW197742   5.650   2.201   0.813 -0.5658  1.5131  0.7509
32388SOL    HW297743   5.670   2.119   0.939 -0.4494  2.0774  1.1008
32389SOL     OW97744   5.689   2.525   5.757 -0.2543  0.0904 -0.0073
32389SOL    HW197745   5.682   2.499   5.665  0.6197 -0.7769  0.1601
32389SOL    HW297746   5.707   2.444   5.804 -1.9293  0.3103  1.1129
32390SOL     OW97747   9.883   2.986   4.066  0.9079 -0.2329  0.4367
32390SOL    HW197748   9.792   2.994   4.037  1.0059 -0.1525  0.1378
32390SOL    HW297749   9.879   2.931   4.144  0.6399 -0.5253  0.2228
32391SOL     OW97750   5.409   4.414   9.951  0.8202 -0.3404  0.2904
32391SOL    HW197751   5.430   4.412   9.858  1.8394  1.6419  0.4185
32391SOL    HW297752   5.465   4.348   9.991  2.2365  0.5096 -0.2151
32392SOL     OW97753   2.643   0.725   3.252 -0.5376 -1.0011  0.4839
32392SOL    HW197754   2.624   0.637   3.286 -0.0914 -1.6709 -0.9509
32392SOL    HW297755   2.560   0.773   3.262 -1.3102 -2.1161 -0.3113
32393SOL     OW97756   7.565   3.720   8.958 -0.1720  0.3368 -0.1071
32393SOL    HW197757   7.657   3.749   8.955  0.3638 -1.2327  0.2111
32393SOL    HW297758   7.562   3.645   8.899 -1.3256  0.4965 -0.2725
32394SOL     OW97759   1.790   4.935   3.534 -0.3995  0.0043  0.4147
32394SOL    HW197760   1.867   4.883   3.555 -1.4972 -1.4358  1.0625
32394SOL    HW297761   1.730   4.921   3.608 -2.6450 -1.7056 -1.5635
32395SOL     OW97762   1.535   7.359   5.355 -0.2370 -0.0409  0.0132
32395SOL    HW197763   1.517   7.421   5.284 -1.1043 -1.2092 -0.8339
32395SOL    HW297764   1.569   7.282   5.310  0.6017 -0.2775  1.0262
32396SOL     OW97765   9.142   9.091   4.715  0.8510 -0.6846 -0.2291
32396SOL    HW197766   9.049   9.092   4.741  0.9693 -0.9007  0.2195
32396SOL    HW297767   9.151   9.009   4.666  1.0258 -1.1806  0.6031
32397SOL     OW97768   2.412   9.340   0.889 -0.2621  0.6477 -0.0766
32397SOL    HW197769   2.400   9.352   0.983 -0.6337  1.0492 -0.1687
32397SOL    HW297770   2.400   9.428   0.852  0.3188  0.5759 -0.4548
32398SOL     OW97771   1.586   6.557   4.372  0.1299  0.3954 -1.0160
32398SOL    HW197772   1.679   6.575   4.385  0.9274 -2.4476 -2.1077
32398SOL    HW297773   1.542   6.608   4.441  2.6479  0.1564  0.9301
32399SOL     OW97774   1.114   5.790   3.225 -0.2421  0.6521 -0.1276
32399SOL    HW197775   1.184   5.846   3.258 -0.7528  0.9496  0.4770
32399SOL    HW297776   1.145   5.701   3.241 -0.4995  0.7875  1.2638
32400SOL     OW97777   0.699   0.729   0.512  0.1811  0.7351 -0.5055
32400SOL    HW197778   0.790   0.708   0.494  0.9341  3.1739 -0.0052
32400SOL    HW297779   0.690   0.717   0.607 -0.9179 -2.3142 -0.8975
32401SOL     OW97780   0.998   0.438   3.651  0.8275  0.1879 -0.5541
32401SOL    HW197781   1.078   0.399   3.687  1.5535  2.0093 -0.0825
32401SOL    HW297782   0.953   0.475   3.727 -0.2436 -0.4310 -0.8791
32402SOL     OW97783   1.664   8.953   0.993  0.0328 -0.5066  0.3393
32402SOL    HW197784   1.585   8.998   1.023 -1.1802 -0.7967 -2.1476
32402SOL    HW297785   1.656   8.864   1.029 -1.1815 -0.7384 -0.4202
32403SOL     OW97786   5.815   3.297   3.842  0.4611 -0.4248  0.1574
32403SOL    HW197787   5.819   3.319   3.935  0.4377  1.0391 -0.1598
32403SOL    HW297788   5.732   3.333   3.812  0.4521 -0.9126 -0.4281
32404SOL     OW97789   2.856   6.772   3.268 -0.3923 -0.1639 -0.5320
32404SOL    HW197790   2.764   6.754   3.290 -0.3528 -1.0868 -1.0933
32404SOL    HW297791   2.905   6.740   3.344 -0.6115  1.6567  0.4186
32405SOL     OW97792   2.525   3.811   4.690  0.4058  0.1553 -0.8874
32405SOL    HW197793   2.501   3.809   4.782 -0.3952  1.6221 -1.0265
32405SOL    HW297794   2.586   3.738   4.679 -1.0567 -1.3359  0.3435
32406SOL     OW97795   7.454   9.702   0.439 -0.3141  0.0017  0.0243
32406SOL    HW197796   7.367   9.672   0.465 -0.3279 -0.9359 -1.0491
32406SOL    HW297797   7.508   9.623   0.442  0.1055  0.2366 -0.9354
32407SOL     OW97798   4.457   6.726   4.400 -0.5449 -0.1353 -0.1958
32407SOL    HW197799   4.463   6.774   4.318 -1.8882 -0.0997 -0.2974
32407SOL    HW297800   4.454   6.794   4.468 -0.8350 -0.1181 -0.2238
32408SOL     OW97801   4.491   6.823   9.885 -0.2861 -0.0679 -0.3529
32408SOL    HW197802   4.423   6.889   9.870  0.6870  1.5159  1.6899
32408SOL    HW297803   4.571   6.863   9.852  0.2972 -0.2207  0.8193
32409SOL     OW97804   2.455   8.866   0.166  0.3752 -0.4434  0.3971
32409SOL    HW197805   2.477   8.775   0.145  1.4402 -0.9692  3.4016
32409SOL    HW297806   2.485   8.878   0.256 -0.9045  2.5252  0.5261
32410SOL     OW97807   3.920   2.740   8.234 -0.0497  0.3390 -0.1116
32410SOL    HW197808   3.929   2.653   8.195  1.2054  0.8064 -0.9231
32410SOL    HW297809   3.826   2.753   8.242 -0.2757 -0.7047 -0.8667
32411SOL     OW97810   8.411   8.407   1.541 -0.2730  0.1715 -0.0543
32411SOL    HW197811   8.470   8.351   1.592 -1.3819  0.2103  1.3128
32411SOL    HW297812   8.331   8.411   1.593 -1.1975  0.7915 -1.4827
32412SOL     OW97813   2.286   0.544   3.011  0.4012 -0.5496 -0.2868
32412SOL    HW197814   2.346   0.618   3.023 -0.5539 -0.0655  2.1210
32412SOL    HW297815   2.205   0.583   2.978  0.3545 -0.7292 -0.3884
32413SOL     OW97816   0.222   7.368   3.012  0.3335  0.1195 -0.0965
32413SOL    HW197817   0.253   7.436   3.072 -0.1683  0.4395 -0.1915
32413SOL    HW297818   0.270   7.290   3.037  0.9311  0.5122  0.0105
32414SOL     OW97819   1.499   8.909   5.158 -0.2422 -0.4488  0.3058
32414SOL    HW197820   1.583   8.874   5.126  0.3409 -0.6365  1.9171
32414SOL    HW297821   1.458   8.835   5.203 -0.5291  0.0631  0.9001
32415SOL     OW97822   1.907   4.699   7.502  0.1696 -0.8950 -0.4475
32415SOL    HW197823   1.991   4.730   7.468  0.9765 -2.9112 -0.4563
32415SOL    HW297824   1.931   4.636   7.571 -1.3170 -1.6622 -0.5927
32416SOL     OW97825   9.480   3.263   3.858 -0.1226 -0.6133 -0.5157
32416SOL    HW197826   9.461   3.198   3.790 -0.3158 -0.3565 -0.7096
32416SOL    HW297827   9.477   3.347   3.812  0.9566 -0.5228 -0.4381
32417SOL     OW97828   5.508   3.852   4.575 -0.1753 -0.1025 -0.4657
32417SOL    HW197829   5.510   3.904   4.656  2.9485  2.5802 -2.0415
32417SOL    HW297830   5.595   3.811   4.571 -1.0255 -1.9377 -1.5042
32418SOL     OW97831   9.898   2.369   2.789 -0.1806 -0.0248  0.6058
32418SOL    HW197832   9.922   2.377   2.696  0.7235  0.3024  0.8657
32418SOL    HW297833   9.978   2.342   2.832 -0.3681  0.7079  1.4348
32419SOL     OW97834   8.712   1.739   9.587  0.1380 -0.4727 -0.1069
32419SOL    HW197835   8.805   1.751   9.567  0.0951 -0.2368 -0.1734
32419SOL    HW297836   8.702   1.645   9.600  1.0109 -0.2582  2.9937
32420SOL     OW97837   2.185   9.486   6.963  0.0483  0.1856 -0.2729
32420SOL    HW197838   2.184   9.398   7.002 -0.6553  0.9400  1.5294
32420SOL    HW297839   2.095   9.500   6.933  0.1965  0.2311 -0.6960
32421SOL     OW97840   0.848   6.941   1.937  0.0728  0.2244  0.3278
32421SOL    HW197841   0.909   6.870   1.955 -1.1245 -0.8481  0.2282
32421SOL    HW297842   0.806   6.959   2.021  1.3342  1.7817  0.6733
32422SOL     OW97843   7.269   6.905   0.242  0.6187  0.1399 -0.0260
32422SOL    HW197844   7.211   6.849   0.190  1.4074  0.6669 -1.5350
32422SOL    HW297845   7.226   6.990   0.243 -0.1370 -0.2274  1.5106
32423SOL     OW97846   4.991   8.900   9.254  0.0389 -0.0925  0.4249
32423SOL    HW197847   5.039   8.820   9.278  1.9449  0.5360 -1.0952
32423SOL    HW297848   4.909   8.894   9.305  0.8177 -2.1997  1.5784
32424SOL     OW97849   0.441   2.882   3.175  0.1610 -0.0298  0.1320
32424SOL    HW197850   0.377   2.895   3.245 -0.1714 -0.3338 -0.1111
32424SOL    HW297851   0.423   2.953   3.113 -0.4146 -0.5270 -0.2812
32425SOL     OW97852   1.436   6.848   8.368  0.5498  0.3245  0.0634
32425SOL    HW197853   1.389   6.915   8.419  0.1153  0.4352 -0.4739
32425SOL    HW297854   1.392   6.766   8.391 -1.0381  0.6152 -1.6695
32426SOL     OW97855   6.890   5.336   6.109 -0.4880 -0.3829 -0.1486
32426SOL    HW197856   6.848   5.361   6.192 -1.6744 -0.6864 -0.6334
32426SOL    HW297857   6.982   5.321   6.132 -0.3903  1.2968  0.7739
32427SOL     OW97858   1.692   7.938   0.843  0.2670  0.3461 -0.3026
32427SOL    HW197859   1.607   7.949   0.884  0.6162  0.9528  0.2602
32427SOL    HW297860   1.676   7.953   0.750  0.2418  3.1931  0.0961
32428SOL     OW97861   6.825   9.618   8.776 -0.6966  0.0348 -0.2772
32428SOL    HW197862   6.895   9.555   8.792 -1.0047 -0.0745  0.6479
32428SOL    HW297863   6.840   9.688   8.839 -0.8488  0.4902 -0.7369
32429SOL     OW97864   9.201   0.858   3.796  0.7209 -0.2308  0.1545
32429SOL    HW197865   9.203   0.941   3.747  1.6910 -0.7273 -0.6813
32429SOL    HW297866   9.118   0.860   3.843  0.0089  0.5201 -1.0738
32430SOL     OW97867   1.629   9.844   7.901  0.0034 -0.3117  0.6047
32430SOL    HW197868   1.626   9.888   7.816  2.0340  0.6413  0.9785
32430SOL    HW297869   1.541   9.855   7.937  0.2527  3.0357  0.4585
32431SOL     OW97870   3.293   2.891   2.187 -0.0320 -0.3181 -0.6665
32431SOL    HW197871   3.339   2.936   2.258 -0.4631 -1.2707  0.2476
32431SOL    HW297872   3.328   2.929   2.107  1.1117  0.1554  0.0399
32432SOL     OW97873   4.622   6.938   3.661 -0.0228 -0.4786 -0.0961
32432SOL    HW197874   4.622   7.032   3.681 -0.9637 -0.5010  0.0687
32432SOL    HW297875   4.711   6.919   3.634  0.4513  0.2524  0.8834
32433SOL     OW97876   5.464   1.639   8.673 -0.2153  0.0758 -0.3626
32433SOL    HW197877   5.396   1.602   8.729 -1.3881  1.6429 -0.6585
32433SOL    HW297878   5.505   1.563   8.631  0.1581 -1.0890  1.9495
32434SOL     OW97879   5.537   6.577   1.245  0.1934  0.1067  0.2050
32434SOL    HW197880   5.538   6.578   1.341  4.4067 -1.3289  0.3727
32434SOL    HW297881   5.490   6.656   1.221  0.3359  1.3502  3.4705
32435SOL     OW97882   0.680   1.625   6.883 -0.2628  0.5683 -0.1853
32435SOL    HW197883   0.592   1.594   6.862  0.6227 -2.4888  0.1379
32435SOL    HW297884   0.718   1.646   6.797 -0.8389  0.6345 -0.4345
32436SOL     OW97885   1.452   1.053   2.885  0.5389 -0.2673  0.4206
32436SOL    HW197886   1.543   1.024   2.886  0.8189  0.5825  0.5052
32436SOL    HW297887   1.402   0.973   2.873  1.2281 -0.9250  1.6707
32437SOL     OW97888   9.774   5.992   8.376  0.7863  0.4196 -0.2150
32437SOL    HW197889   9.739   6.079   8.393  1.1487 -0.0693  4.3887
32437SOL    HW297890   9.869   6.005   8.373  0.8125  0.2455 -0.1426
32438SOL     OW97891   3.943   6.274   6.794 -0.0842 -0.2518  0.1979
32438SOL    HW197892   3.935   6.290   6.699 -0.3528  0.2625  0.3034
32438SOL    HW297893   3.961   6.180   6.801  1.9572  0.0476 -0.4653
32439SOL     OW97894   1.690   3.073   9.025  0.3804 -0.0205  0.7032
32439SOL    HW197895   1.614   3.050   8.972  0.5434  2.4439 -0.7632
32439SOL    HW297896   1.751   3.001   9.012 -0.5562 -0.6327 -0.5155
32440SOL     OW97897   2.663   5.719   7.257  0.2867 -0.5245 -0.4374
32440SOL    HW197898   2.625   5.659   7.321 -0.0907  0.8540  0.6821
32440SOL    HW297899   2.637   5.683   7.172 -3.7146  0.3332  0.2253
32441SOL     OW97900   1.152   2.581   4.947  0.1958 -0.3383 -0.0673
32441SOL    HW197901   1.237   2.549   4.976  1.4567  1.7624 -1.2368
32441SOL    HW297902   1.140   2.663   4.995 -0.7779 -0.1817 -0.5606
32442SOL     OW97903   7.290   4.688   3.623  0.3233  0.1070  0.0394
32442SOL    HW197904   7.256   4.661   3.538 -1.9099  0.9214  0.5945
32442SOL    HW297905   7.331   4.609   3.659  0.8722 -0.3680 -1.5712
32443SOL     OW97906   2.271   8.896   3.946 -0.0007  0.4001 -0.5206
32443SOL    HW197907   2.260   8.914   3.853 -2.1858  2.6065  0.0430
32443SOL    HW297908   2.271   8.982   3.987 -0.8909 -0.5535  1.6457
32444SOL     OW97909   0.926   8.009   4.480  0.0264 -0.3544  0.5678
32444SOL    HW197910   0.871   8.042   4.551 -1.3904  0.2811 -0.7609
32444SOL    HW297911   0.865   7.963   4.422  1.3207 -1.8016  0.2782
32445SOL     OW97912   5.462   6.409   6.532  0.4292  0.4007  0.1457
32445SOL    HW197913   5.417   6.436   6.612 -1.0455 -1.4519  0.0238
32445SOL    HW297914   5.535   6.355   6.563 -0.2473 -0.4665  0.2733
32446SOL     OW97915   7.001   3.605   4.843 -0.3693  0.3000  0.2098
32446SOL    HW197916   6.998   3.526   4.788 -0.5904  0.9424 -0.7353
32446SOL    HW297917   7.088   3.641   4.829 -0.1039 -0.0134  1.0038
32447SOL     OW97918   9.801   7.960   7.392 -0.6077 -0.1435  0.0326
32447SOL    HW197919   9.817   8.002   7.308 -0.9386 -1.7857 -0.8999
32447SOL    HW297920   9.876   7.986   7.447 -0.1859  0.6290 -0.8911
32448SOL     OW97921   8.857   8.876   9.183  0.1881  0.2666 -0.1065
32448SOL    HW197922   8.913   8.847   9.110  0.1796 -0.8134  0.2920
32448SOL    HW297923   8.919   8.905   9.250  0.3142 -0.9775  0.3540
32449SOL     OW97924   4.574   4.066   9.721  0.2306 -0.0992  0.3885
32449SOL    HW197925   4.633   4.045   9.794  0.7979  0.0777 -0.0097
32449SOL    HW297926   4.505   4.000   9.726  1.2447 -1.2448 -0.0145
32450SOL     OW97927   8.596   3.756   1.743  0.0916 -0.4215  0.1095
32450SOL    HW197928   8.595   3.661   1.731 -0.3639 -0.3082 -0.8301
32450SOL    HW297929   8.665   3.788   1.686 -0.9499 -0.0314 -0.9658
32451SOL     OW97930   8.198   7.223   9.013 -0.0998 -0.0558 -0.0359
32451SOL    HW197931   8.252   7.233   9.091 -2.1544  1.6514  1.2931
32451SOL    HW297932   8.118   7.180   9.044 -0.0626 -1.3987 -1.6792
32452SOL     OW97933   1.271   4.674   2.926  0.1673 -0.0432 -0.2672
32452SOL    HW197934   1.356   4.655   2.889  1.3185 -0.1903  2.2325
32452SOL    HW297935   1.259   4.768   2.912  1.3312  0.2273  0.4368
32453SOL     OW97936   5.910   3.847   6.413  0.1682  0.0088  1.1519
32453SOL    HW197937   5.944   3.933   6.436 -0.6478  0.9673 -1.0267
32453SOL    HW297938   5.839   3.832   6.476  0.7108  0.6427  1.9291
32454SOL     OW97939   7.888   7.523   5.219 -0.4905  0.2905  0.7684
32454SOL    HW197940   7.815   7.543   5.277  1.7938  1.5659  3.4325
32454SOL    HW297941   7.875   7.581   5.144 -2.2560  0.3824  1.0969
32455SOL     OW97942   8.750   0.674   4.782 -0.1495  0.0258 -0.0667
32455SOL    HW197943   8.730   0.580   4.786 -0.5650  0.1356  0.5711
32455SOL    HW297944   8.710   0.710   4.861  0.5529  0.6445  0.0100
32456SOL     OW97945   6.531   5.921   4.642  0.5819  0.0765 -0.5859
32456SOL    HW197946   6.606   5.892   4.695  0.8521  1.1168 -0.3852
32456SOL    HW297947   6.455   5.883   4.686  1.0370 -1.8338 -1.3519
32457SOL     OW97948   8.849   7.085   5.285 -0.1825 -0.1477  0.4055
32457SOL    HW197949   8.763   7.045   5.272  0.0455 -0.6320  0.3709
32457SOL    HW297950   8.834   7.155   5.349 -0.3143 -1.2396  1.5879
32458SOL     OW97951   6.032   5.814   5.887 -0.1014  0.1326  0.3544
32458SOL    HW197952   5.952   5.852   5.923 -2.0497 -1.2354 -2.1349
32458SOL    HW297953   6.033   5.843   5.796  0.7838 -1.9913 -0.3785
32459SOL     OW97954   4.828   7.340   8.636 -0.0097  0.2681  0.1451
32459SOL    HW197955   4.822   7.344   8.731 -0.7424  0.6365  0.0931
32459SOL    HW297956   4.737   7.336   8.606  0.2326 -1.2043 -0.4910
32460SOL     OW97957   7.186   9.590   0.829 -0.0620 -0.0803  0.4734
32460SOL    HW197958   7.209   9.651   0.759 -0.2483 -0.6922 -0.1354
32460SOL    HW297959   7.215   9.505   0.797  0.5165 -0.2661  1.4717
32461SOL     OW97960  -0.005   0.893   8.312 -0.2168  0.1109 -0.1553
32461SOL    HW197961   0.090   0.907   8.318 -0.2003  0.1893 -0.5650
32461SOL    HW297962  -0.015   0.799   8.297 -0.2075  0.0916 -0.0416
32462SOL     OW97963   6.642   5.485   8.835  0.1265  0.1948  0.0074
32462SOL    HW197964   6.558   5.490   8.881  0.6030 -0.2106  0.9642
32462SOL    HW297965   6.694   5.557   8.872 -0.1608  1.1660 -1.3942
32463SOL     OW97966   1.103   0.259   8.512 -0.1996  0.0243  0.3399
32463SOL    HW197967   1.181   0.297   8.552  0.7746 -0.3452 -1.1057
32463SOL    HW297968   1.082   0.184   8.566  1.0992 -0.4836  0.1724
32464SOL     OW97969   2.062   5.674   2.042  0.1047  0.2460  0.6101
32464SOL    HW197970   2.112   5.621   1.980  0.6698  1.1244  0.2911
32464SOL    HW297971   1.972   5.643   2.033  0.5461 -1.2846  1.1126
32465SOL     OW97972   2.816   6.474   9.553  0.3814 -0.5431  0.1796
32465SOL    HW197973   2.835   6.403   9.615  2.4581 -0.7830 -0.6655
32465SOL    HW297974   2.869   6.453   9.476 -1.3395  0.2998 -1.3236
32466SOL     OW97975   9.244   7.062   8.302  0.0123 -0.4886  0.1057
32466SOL    HW197976   9.270   6.984   8.350 -0.2947  0.3408  1.6635
32466SOL    HW297977   9.153   7.078   8.327  0.2658  0.7380  0.3481
32467SOL     OW97978   0.419   4.798   5.209 -0.0807  0.1636 -0.4813
32467SOL    HW197979   0.366   4.760   5.139  0.3999  0.8893 -1.2669
32467SOL    HW297980   0.488   4.847   5.163  1.4628 -0.9814  0.4989
32468SOL     OW97981   3.917   9.870   6.496 -0.4894 -0.2219  0.9397
32468SOL    HW197982   4.008   9.849   6.478 -0.9144 -1.1425 -0.2279
32468SOL    HW297983   3.919   9.962   6.523  0.6204  0.1968 -0.4494
32469SOL     OW97984   2.251   2.274   2.177  0.1450 -0.2074 -0.1485
32469SOL    HW197985   2.308   2.337   2.134 -0.0143 -0.3527 -0.5724
32469SOL    HW297986   2.164   2.314   2.173 -0.3840 -1.4187 -2.4278
32470SOL     OW97987   1.480   7.797   7.538 -0.1634  0.0721 -0.8399
32470SOL    HW197988   1.544   7.868   7.540  0.3388 -0.3684 -1.0807
32470SOL    HW297989   1.512   7.738   7.471  0.0030 -0.9213  0.0846
32471SOL     OW97990   7.080   8.715   0.489 -0.2327  0.3062 -0.1105
32471SOL    HW197991   7.168   8.678   0.487 -0.0674  0.7144 -0.7619
32471SOL    HW297992   7.073   8.758   0.574  0.3062  0.5166 -0.1716
32472SOL     OW97993   4.457   8.394   4.554 -0.4848  0.0591 -0.7537
32472SOL    HW197994   4.447   8.320   4.494  1.2027  0.5925 -1.7646
32472SOL    HW297995   4.461   8.354   4.641 -1.3003 -0.8762 -1.1238
32473SOL     OW97996   5.322   1.064   6.116  0.7024 -1.2491 -0.5129
32473SOL    HW197997   5.382   1.081   6.189  0.3244 -0.4225 -0.3793
32473SOL    HW297998   5.378   1.029   6.047  1.0431 -2.1949  0.2141
32474SOL     OW97999   2.037   8.317   5.882 -0.4821 -0.5979  0.2062
32474SOL    HW198000   2.026   8.246   5.818 -0.9804 -1.5217  1.2793
32474SOL    HW298001   1.989   8.391   5.844 -0.6395 -1.0804 -0.5580
32475SOL     OW98002   4.865   9.394   4.941 -0.0961 -0.0895  0.2583
32475SOL    HW198003   4.882   9.303   4.965  0.7080 -0.4008 -1.3640
32475SOL    HW298004   4.925   9.412   4.869  1.7595  2.6147  2.2921
32476SOL     OW98005   2.204   8.329   5.103  0.0141 -0.0090 -0.0791
32476SOL    HW198006   2.293   8.325   5.138  0.2900  0.2920 -0.7103
32476SOL    HW298007   2.198   8.416   5.064  0.5925 -1.1246 -2.9252
32477SOL     OW98008   9.715   6.125   0.828 -0.2732 -0.0425 -0.2284
32477SOL    HW198009   9.735   6.187   0.897 -0.4085 -0.1954 -0.0499
32477SOL    HW298010   9.621   6.134   0.814 -0.7390 -1.7887  1.3697
32478SOL     OW98011   2.726   5.218   8.308 -0.4954  0.4766 -0.2199
32478SOL    HW198012   2.641   5.183   8.280  0.3539 -1.6318 -0.3250
32478SOL    HW298013   2.715   5.235   8.401 -1.2629  0.9999 -0.3940
32479SOL     OW98014   1.881   0.908   0.262 -0.0195  0.1222  0.1382
32479SOL    HW198015   1.872   0.974   0.330 -0.6512 -0.4962  0.6785
32479SOL    HW298016   1.792   0.899   0.226  0.2538  0.2403 -0.5727
32480SOL     OW98017   2.517   0.453   7.909 -0.7154  0.6129 -0.2175
32480SOL    HW198018   2.482   0.400   7.838 -1.4552  0.7652  0.0262
32480SOL    HW298019   2.454   0.524   7.920  0.6911  2.0941 -1.1359
32481SOL     OW98020   1.226   0.749   7.786  0.5424 -0.4847 -0.0492
32481SOL    HW198021   1.281   0.741   7.708  0.8221  0.0644  0.0843
32481SOL    HW298022   1.157   0.810   7.760  1.0583  0.2888  0.3546
32482SOL     OW98023   3.944   7.748   0.846 -0.1093 -0.1310  0.1580
32482SOL    HW198024   3.957   7.810   0.775  0.9376 -1.8623 -1.2613
32482SOL    HW298025   4.024   7.753   0.897 -0.3092  0.1689  0.4433
32483SOL     OW98026   2.861   8.550   2.899 -0.4841 -0.5328  0.2478
32483SOL    HW198027   2.805   8.622   2.928 -0.8265 -1.1645  1.1866
32483SOL    HW298028   2.864   8.490   2.973  2.7409  0.1990  0.8985
32484SOL     OW98029   8.776   4.890   0.406  0.1476  0.0809 -0.2087
32484SOL    HW198030   8.743   4.915   0.492  1.2699  2.8652 -0.4811
32484SOL    HW298031   8.725   4.941   0.344  0.8120 -0.2330 -1.0536
32485SOL     OW98032   6.042   5.415   2.068 -0.1995  0.0479 -0.3723
32485SOL    HW198033   6.038   5.480   2.138  0.4856  0.5219 -0.7633
32485SOL    HW298034   5.957   5.370   2.072 -0.5609  0.7528  0.1028
32486SOL     OW98035   4.188   9.850   4.607  0.1855  0.1484 -0.2126
32486SOL    HW198036   4.109   9.841   4.554 -0.4832 -0.6345  0.8751
32486SOL    HW298037   4.208   9.762   4.637  2.6303 -0.0151 -2.0076
32487SOL     OW98038   4.330   9.724   7.554 -0.0272 -0.0334  0.3785
32487SOL    HW198039   4.351   9.771   7.474  2.0150  1.2059  1.5451
32487SOL    HW298040   4.304   9.637   7.525  1.1676  0.2127 -1.6098
32488SOL     OW98041   2.240   3.949   1.374 -0.3174  0.0389 -0.6534
32488SOL    HW198042   2.294   3.889   1.323 -1.2086 -1.9450  0.6382
32488SOL    HW298043   2.153   3.942   1.335 -0.4957  0.2849 -0.2985
32489SOL     OW98044   8.257   0.162   7.779  0.2322  0.3147  0.5595
32489SOL    HW198045   8.235   0.247   7.817 -1.1766  0.2262 -0.0093
32489SOL    HW298046   8.174   0.114   7.776  1.1328 -1.4142  1.6260
32490SOL     OW98047   9.913   5.108   3.547  0.5129  0.1845 -0.3058
32490SOL    HW198048   9.869   5.036   3.592 -0.1577  0.0133 -1.2162
32490SOL    HW298049   9.972   5.066   3.485  1.0501  0.4222  0.0388
32491SOL     OW98050   9.926   8.029   7.629 -1.0753  0.4399  0.3635
32491SOL    HW198051   9.960   7.974   7.700  1.3355 -1.1914 -1.8713
32491SOL    HW298052   9.927   8.118   7.665  2.8058  0.1132  1.5943
32492SOL     OW98053   8.683   1.158   7.006  0.6518 -0.1693 -0.4937
32492SOL    HW198054   8.668   1.250   7.025  0.1691  0.0232 -1.6979
32492SOL    HW298055   8.620   1.112   7.061 -1.1581  0.3996 -1.9511
32493SOL     OW98056   1.406   5.383   1.440 -0.4188  0.5140  0.2207
32493SOL    HW198057   1.486   5.378   1.388  0.6008  3.5641  1.2886
32493SOL    HW298058   1.336   5.387   1.375  0.5322  0.6680 -0.8306
32494SOL     OW98059   0.125   0.749   0.524  0.2329 -0.4598 -0.0651
32494SOL    HW198060   0.033   0.768   0.507 -0.2020 -2.2311  0.0908
32494SOL    HW298061   0.128   0.727   0.617  0.8042 -0.5055 -0.0901
32495SOL     OW98062   2.557   2.066   6.333  0.4057  0.1817 -0.1154
32495SOL    HW198063   2.549   2.091   6.241  2.2063  0.7431 -0.1491
32495SOL    HW298064   2.472   2.026   6.354 -0.4085  0.9550 -1.7238
32496SOL     OW98065   1.177   3.661   3.712 -0.3213 -0.4721  0.2800
32496SOL    HW198066   1.159   3.754   3.728 -1.3604 -0.5420 -0.3895
32496SOL    HW298067   1.172   3.652   3.617  2.9034 -0.6178  0.0081
32497SOL     OW98068   7.933   7.781   6.886  0.5641  0.2916 -0.6753
32497SOL    HW198069   7.872   7.831   6.833 -1.6189 -0.5224  0.9116
32497SOL    HW298070   7.962   7.709   6.830 -0.5377  0.2839 -1.2480
32498SOL     OW98071   5.784   6.568   1.077 -0.7387  0.0147  0.2023
32498SOL    HW198072   5.705   6.573   1.132 -0.5512  0.9871  0.4026
32498SOL    HW298073   5.833   6.647   1.099  0.7154 -0.9970  0.7045
32499SOL     OW98074   7.775   0.580   9.334  0.1268 -0.2870 -0.2660
32499SOL    HW198075   7.685   0.567   9.366  0.2456  0.9351  0.6685
32499SOL    HW298076   7.777   0.535   9.250 -1.9807  1.2832 -1.2688
32500SOL     OW98077   3.580   4.720   5.420 -0.3734 -0.2730 -0.2218
32500SOL    HW198078   3.664   4.761   5.440 -0.4619  0.3123 -1.0068
32500SOL    HW298079   3.518   4.793   5.415 -1.0900 -0.7527  1.0520
32501SOL     OW98080   3.442   3.089   6.360  0.4187 -0.6490 -0.1829
32501SOL    HW198081   3.463   3.176   6.327  0.4939 -0.9634 -0.9724
32501SOL    HW298082   3.509   3.073   6.427  1.3947 -0.7431 -1.1520
32502SOL     OW98083   5.303   9.231   4.900 -0.4359  0.6070  0.5502
32502SOL    HW198084   5.297   9.245   4.805  1.1453  0.0586  0.3471
32502SOL    HW298085   5.300   9.319   4.937 -1.2599  0.8162  0.0155
32503SOL     OW98086   3.365   2.543   7.877  0.1882 -0.2860 -0.3854
32503SOL    HW198087   3.422   2.525   7.802  1.7594  0.6719  0.5255
32503SOL    HW298088   3.280   2.562   7.837  0.5961 -1.2555 -1.8214
32504SOL     OW98089   7.774   9.000   5.942 -0.2035  0.0644 -0.3162
32504SOL    HW198090   7.717   9.068   5.906 -1.0182 -0.1808  0.4916
32504SOL    HW298091   7.842   9.047   5.990 -1.2136  0.3106  0.9127
32505SOL     OW98092   7.353   9.044   6.783 -0.4536  0.1265 -0.0589
32505SOL    HW198093   7.306   9.043   6.700 -2.0124 -0.3525  0.7782
32505SOL    HW298094   7.290   9.084   6.844  1.1148  1.6335  0.6431
32506SOL     OW98095   3.321   1.628   7.415  0.0208 -0.2639  0.0350
32506SOL    HW198096   3.226   1.620   7.422  0.1182 -1.3088  0.3908
32506SOL    HW298097   3.354   1.541   7.439  1.0179 -0.2528 -1.2051
32507SOL     OW98098   4.528   9.726   4.642  0.4344  0.6066  0.3873
32507SOL    HW198099   4.580   9.698   4.717  0.0486  0.5821  0.6470
32507SOL    HW298100   4.455   9.775   4.680  0.4475  0.9231  0.0056
32508SOL     OW98101   1.737   5.959   0.223  0.3343 -0.3278 -0.0854
32508SOL    HW198102   1.725   5.995   0.135  3.2538 -1.5551 -1.1137
32508SOL    HW298103   1.822   5.992   0.252  0.7642 -2.2338  1.0247
32509SOL     OW98104   4.569   8.006   8.827 -0.2457 -0.2777 -0.6258
32509SOL    HW198105   4.590   8.070   8.894 -1.8747  1.9985 -2.1470
32509SOL    HW298106   4.484   8.033   8.793 -2.6059 -5.0093  0.6279
32510SOL     OW98107   2.832   7.803   1.786 -0.2307 -0.7332 -0.2760
32510SOL    HW198108   2.867   7.751   1.714 -0.7736 -2.8583  0.9171
32510SOL    HW298109   2.903   7.864   1.808  1.3076 -2.4186 -0.3575
32511SOL     OW98110   0.224   5.559   8.292 -0.2610 -0.3385  0.4545
32511SOL    HW198111   0.314   5.557   8.260 -0.6331 -0.3298 -0.6393
32511SOL    HW298112   0.232   5.558   8.387  0.8914 -0.3488  0.3686
32512SOL     OW98113   2.176   9.896   5.963 -0.4524 -0.2719 -0.2031
32512SOL    HW198114   2.130   9.829   6.013  0.8319 -1.4405 -0.5217
32512SOL    HW298115   2.235   9.938   6.026 -0.5451 -0.1163 -0.2194
32513SOL     OW98116   0.918   7.089   8.415  0.0078 -0.1611  0.9423
32513SOL    HW198117   0.864   7.155   8.460 -1.6171 -1.4028  0.9001
32513SOL    HW298118   0.980   7.060   8.482  0.8818  1.5268  0.9061
32514SOL     OW98119   8.100   2.816   1.948 -0.1436 -0.8392 -0.2637
32514SOL    HW198120   8.012   2.821   1.910 -0.6294 -0.0780  0.9262
32514SOL    HW298121   8.086   2.817   2.043  1.0885 -1.9991 -0.0309
32515SOL     OW98122   9.708   0.709   0.161 -0.4203  0.7180  0.2492
32515SOL    HW198123   9.726   0.742   0.073 -1.4948  1.3994  0.2636
32515SOL    HW298124   9.641   0.768   0.195 -1.7988 -0.9819  0.6084
32516SOL     OW98125   6.787   4.918   5.397  0.3437 -0.7750 -0.0904
32516SOL    HW198126   6.701   4.879   5.408  0.5137 -0.7380  1.7204
32516SOL    HW298127   6.790   4.989   5.462  1.9346 -1.1752  0.3275
32517SOL     OW98128   4.103   4.124   0.970 -0.8916 -0.1609  0.9029
32517SOL    HW198129   4.099   4.211   0.931  2.9890 -1.0402 -2.2175
32517SOL    HW298130   4.117   4.140   1.063  3.2160  2.9008  0.0540
32518SOL     OW98131   5.542   3.296   7.170  0.3034  0.5176  0.0232
32518SOL    HW198132   5.494   3.235   7.227 -0.6674  2.4885  1.4287
32518SOL    HW298133   5.487   3.374   7.167  1.1008  1.0785 -2.3948
32519SOL     OW98134   0.345   8.630   2.981  0.2438 -0.0729  0.2734
32519SOL    HW198135   0.406   8.626   2.908  0.2772 -1.9256  0.3516
32519SOL    HW298136   0.305   8.543   2.983 -1.1138  0.5429  1.3146
32520SOL     OW98137   3.924   5.622   0.158  0.0373  0.4635 -0.0794
32520SOL    HW198138   3.945   5.708   0.195  2.7792 -0.4496  0.7351
32520SOL    HW298139   3.982   5.614   0.082  0.9462 -1.2220  0.7477
32521SOL     OW98140   7.028   3.115   3.771 -0.1876 -0.4047 -0.0676
32521SOL    HW198141   7.040   3.072   3.686 -0.7505 -0.0755 -0.3182
32521SOL    HW298142   6.950   3.169   3.759  0.8836  1.2125  0.0350
32522SOL     OW98143   4.013   9.813   5.957 -0.4385  0.3116  0.0432
32522SOL    HW198144   4.022   9.772   5.871 -0.3741 -2.8897  1.4204
32522SOL    HW298145   3.945   9.879   5.946 -0.0853  0.3214 -2.5392
32523SOL     OW98146   6.716   9.036   1.331 -0.2603  0.2233 -0.4331
32523SOL    HW198147   6.715   9.131   1.327  0.9486  0.3308  0.9787
32523SOL    HW298148   6.714   9.008   1.240 -2.9199  1.5095 -0.8564
32524SOL     OW98149   7.064   8.941   3.401 -0.1350 -0.3283  0.8885
32524SOL    HW198150   6.977   8.908   3.379 -0.1532  0.5375 -0.4718
32524SOL    HW298151   7.121   8.865   3.394 -0.4563 -0.4703 -0.3719
32525SOL     OW98152   2.286   2.707   7.448 -0.3745  0.3107  0.3795
32525SOL    HW198153   2.283   2.718   7.353 -0.4424 -2.4742 -0.0332
32525SOL    HW298154   2.279   2.796   7.483 -1.0129  1.3627 -2.1860
32526SOL     OW98155   2.409   1.415   8.516  0.0044  0.0590 -0.0525
32526SOL    HW198156   2.459   1.360   8.576  1.4807  0.0262 -1.2585
32526SOL    HW298157   2.462   1.494   8.506 -1.3125  1.0579  0.3926
32527SOL     OW98158   4.958   0.227   0.760 -0.4846 -0.0167  0.0473
32527SOL    HW198159   4.939   0.270   0.677 -0.4245  0.3287  0.2136
32527SOL    HW298160   4.887   0.163   0.770  1.4744 -2.7992 -2.1219
32528SOL     OW98161   1.827   0.979   8.558  0.2013  0.1721  0.0395
32528SOL    HW198162   1.903   1.034   8.575  1.6095 -0.8712 -2.3311
32528SOL    HW298163   1.864   0.900   8.518 -1.9899 -1.2548  0.6636
32529SOL     OW98164   1.454   3.801   7.222 -0.9136 -0.3129  0.3912
32529SOL    HW198165   1.436   3.861   7.294  1.3760  0.1435  0.6766
32529SOL    HW298166   1.445   3.854   7.143 -1.4991 -0.2986  0.4651
32530SOL     OW98167   3.871   1.639   9.039 -0.0124  0.1452  0.1524
32530SOL    HW198168   3.800   1.644   9.103 -0.5325 -0.8369 -0.3260
32530SOL    HW298169   3.827   1.643   8.954  0.7157  1.9895 -0.1670
32531SOL     OW98170   1.758   8.707   4.395 -0.5466 -0.5404  0.2046
32531SOL    HW198171   1.736   8.758   4.317  0.9898 -1.4064 -0.8494
32531SOL    HW298172   1.811   8.634   4.362 -1.1402 -1.7968  1.8844
32532SOL     OW98173   9.276   7.943   9.246 -0.3421 -0.2263  0.0644
32532SOL    HW198174   9.212   8.008   9.215 -1.0726 -1.1298 -0.3624
32532SOL    HW298175   9.225   7.885   9.303  0.7365  0.7800  2.1947
32533SOL     OW98176   0.861   0.900   1.144  0.1805  0.1501  0.0416
32533SOL    HW198177   0.766   0.891   1.138  0.0583  1.9786 -2.1085
32533SOL    HW298178   0.894   0.857   1.065  0.8828  1.7763 -0.6037
32534SOL     OW98179   1.576   1.664   7.339  0.2977 -0.2263 -0.3821
32534SOL    HW198180   1.641   1.618   7.285  0.9710 -1.3806  1.3245
32534SOL    HW298181   1.550   1.599   7.405  0.0264  1.3292  1.0943
32535SOL     OW98182   8.996   4.426   2.152  0.0818  0.2512 -0.4177
32535SOL    HW198183   9.005   4.413   2.058 -1.1663  1.2779 -0.7015
32535SOL    HW298184   9.053   4.360   2.191  0.5252 -0.2606 -1.8885
32536SOL     OW98185   0.364   2.778   5.284  0.1118 -0.4006  0.0998
32536SOL    HW198186   0.404   2.828   5.212 -1.3879  0.7255  0.0018
32536SOL    HW298187   0.374   2.687   5.257 -0.3331 -0.0134 -1.5255
32537SOL     OW98188   1.468   1.472   2.833  0.3242  0.2125  0.4684
32537SOL    HW198189   1.507   1.506   2.753 -1.7314  1.0071 -0.2797
32537SOL    HW298190   1.539   1.426   2.877  1.1153 -1.9937 -2.7450
32538SOL     OW98191   7.770   9.416   4.166 -0.4783 -0.3675  0.8940
32538SOL    HW198192   7.760   9.466   4.247  2.3138  0.6596  0.6954
32538SOL    HW298193   7.829   9.344   4.190  0.3891 -0.0389 -0.2081
32539SOL     OW98194   8.419   6.078   6.766 -0.3768  0.4584 -0.0028
32539SOL    HW198195   8.465   5.995   6.750 -0.2676  0.3442  0.8742
32539SOL    HW298196   8.327   6.053   6.774 -0.2887  0.3516  0.7312
32540SOL     OW98197   4.557   3.140   4.181  0.3154 -0.7505 -0.2906
32540SOL    HW198198   4.635   3.084   4.176 -0.9533 -2.7457  0.7782
32540SOL    HW298199   4.557   3.174   4.271  0.1027 -0.5308 -0.3715
32541SOL     OW98200   4.955   6.886   0.140 -0.3476 -0.5085 -0.1141
32541SOL    HW198201   4.959   6.980   0.124 -0.6199 -0.6958 -1.3633
32541SOL    HW298202   4.981   6.846   0.057  1.4322 -1.5477  0.8710
32542SOL     OW98203   3.067   1.901   2.729  0.1919 -0.5853  0.0550
32542SOL    HW198204   3.087   1.995   2.730  0.9566 -0.7371 -0.0506
32542SOL    HW298205   2.985   1.894   2.680  1.2584 -0.1650 -1.8765
32543SOL     OW98206   4.005   5.245   0.150  0.3471  0.6076  0.6723
32543SOL    HW198207   3.910   5.238   0.143  0.4067  0.0172  0.4008
32543SOL    HW298208   4.038   5.175   0.094  0.9519  1.1690  0.3117
32544SOL     OW98209   1.595   9.023   9.899 -0.3580  0.6561 -0.1394
32544SOL    HW198210   1.602   8.935   9.935 -1.9339  0.6756  0.3230
32544SOL    HW298211   1.522   9.018   9.837  0.1556  1.4212 -0.8394
32545SOL     OW98212   3.959   7.407   4.674  0.2162 -0.0586 -0.3061
32545SOL    HW198213   3.865   7.426   4.681 -0.0855 -1.9224  1.9263
32545SOL    HW298214   3.994   7.433   4.760  1.5147 -0.5332 -0.6766
32546SOL     OW98215   3.282   2.721   0.540 -0.1621  0.4384  0.0008
32546SOL    HW198216   3.212   2.721   0.606  1.2096  3.2472  1.6511
32546SOL    HW298217   3.298   2.629   0.521 -1.9536 -0.3982  2.1576
32547SOL     OW98218   4.197   4.436   6.921  0.1347 -0.0932 -0.2321
32547SOL    HW198219   4.142   4.359   6.936 -0.2389 -0.2145 -2.0704
32547SOL    HW298220   4.178   4.494   6.995 -1.3165 -0.7783 -0.0431
32548SOL     OW98221   1.717   0.770   9.869 -0.0877 -0.1626 -0.1331
32548SOL    HW198222   1.697   0.788   9.961 -2.6700 -3.4108  0.1253
32548SOL    HW298223   1.639   0.799   9.821  0.2134 -0.7223 -0.9863
32549SOL     OW98224   9.378   4.519   3.332 -0.1221 -0.3029 -0.5376
32549SOL    HW198225   9.405   4.589   3.272  0.5991 -0.1968 -0.1046
32549SOL    HW298226   9.460   4.487   3.370 -0.6106  0.3138  1.1450
32550SOL     OW98227   0.923   4.503   3.978  0.0862 -0.4164 -0.0332
32550SOL    HW198228   0.901   4.593   3.955  1.5275 -0.3779 -1.4454
32550SOL    HW298229   0.902   4.496   4.071 -3.8229  0.1368 -0.7044
32551SOL     OW98230   4.034   1.019   7.892  0.1394  0.0565 -0.6436
32551SOL    HW198231   4.128   1.014   7.908 -0.2315 -0.8082  1.7051
32551SOL    HW298232   4.010   0.931   7.861 -0.1798 -0.4592  0.9475
32552SOL     OW98233   9.003   7.828   0.107 -0.3677 -0.4962 -0.0714
32552SOL    HW198234   9.073   7.765   0.124 -1.1821 -1.5797 -0.5716
32552SOL    HW298235   8.923   7.777   0.119 -1.1423  1.1273  2.1435
32553SOL     OW98236   5.205   0.868   6.261 -0.3138  0.0591  0.3076
32553SOL    HW198237   5.214   0.948   6.210 -1.4758 -0.0011 -0.0196
32553SOL    HW298238   5.294   0.834   6.268  0.0347  0.7511 -0.5660
32554SOL     OW98239   6.811   8.978   6.513 -0.3090  0.2909 -0.1129
32554SOL    HW198240   6.718   9.001   6.506 -0.8385 -1.4201  0.7170
32554SOL    HW298241   6.856   9.062   6.521 -1.7251  1.1851 -1.0252
32555SOL     OW98242   3.276   5.637   4.748 -0.2862 -0.4650 -0.2526
32555SOL    HW198243   3.325   5.702   4.696  0.0181 -0.8116 -0.4005
32555SOL    HW298244   3.339   5.603   4.810 -0.1339 -1.4407 -0.9179
32556SOL     OW98245   6.797   0.961   2.673  0.2662  0.0831  0.1504
32556SOL    HW198246   6.879   0.965   2.625  0.8202 -3.0601  0.5788
32556SOL    HW298247   6.823   0.944   2.764 -0.8169 -0.7858  0.3302
32557NA      NA98248   5.920   1.673   9.913  0.1517  0.1193  0.0948
32558NA      NA98249   3.845   4.334   7.333  0.5464  0.1446  0.4277
32559NA      NA98250   0.571   9.024   4.383  0.3067 -0.1624  0.0050
32560NA      NA98251   3.718   3.287   6.838  0.3161  0.0913 -0.1608
32561NA      NA98252   2.113   6.652   6.388 -0.0664  0.0058 -0.4487
32562NA      NA98253   1.745   6.648   5.231  0.0702 -0.2472  0.3050
32563NA      NA98254   7.376   4.133   1.760 -0.0697 -0.2336  0.0539
32564NA      NA98255   6.541   3.479   7.027  0.1272  0.2497 -0.2456
32565NA      NA98256   4.788   7.565   2.039  0.0022 -0.1539  0.0245
32566NA      NA98257   8.243   1.282   6.316 -0.3038 -0.1681 -0.0518
32567NA      NA98258   4.750   4.278   4.129 -0.3392  0.0189  0.1442
32568NA      NA98259   5.458   8.981   7.165 -0.0513  0.0602 -0.2576
32569NA      NA98260   5.204   6.056   5.982  0.0644 -0.1209  0.1524
32570NA      NA98261   6.330   5.745   1.874 -0.0184 -0.1621  0.2122
32571NA      NA98262   5.051   3.059   6.155 -0.3783  0.0417 -0.1523
32572NA      NA98263   0.896   9.541   2.872 -0.0739 -0.0170  0.1200
32573NA      NA98264   9.899   3.585   9.369 -0.5372 -0.2714 -0.2987
32574NA      NA98265   4.242   6.211   2.393  0.0097 -0.1721 -0.0701
32575NA      NA98266   3.442   5.601   7.458  0.3949 -0.0579 -0.1055
   9.97960   9.97960   9.97960
