Protein in water
12154
    1DT5    H5T    1   2.289   2.269   2.137 -0.2644 -0.0241 -2.6083
    1DT5    O5'    2   2.325   2.182   2.156 -0.4473  0.4403  0.2918
    1DT5    C5'    3   2.463   2.191   2.100 -0.3033  0.2417 -0.5728
    1DT5   H5'1    4   2.447   2.256   2.014  2.2431  2.2933  0.3817
    1DT5   H5'2    5   2.500   2.096   2.061 -2.0178  0.4858 -2.9973
    1DT5    C4'    6   2.550   2.281   2.194  0.1986  0.0478  0.8064
    1DT5    H4'    7   2.648   2.294   2.148 -0.4382  2.0151 -0.1228
    1DT5    O4'    8   2.480   2.406   2.186  0.3872  0.3816  0.3903
    1DT5    C1'    9   2.470   2.447   2.320 -0.0056 -0.3999  0.5528
    1DT5    H1'   10   2.560   2.506   2.340 -0.3790  0.5113 -0.3772
    1DT5     N1   11   2.355   2.541   2.341 -0.4934 -0.2609  0.2110
    1DT5     C6   12   2.229   2.491   2.331 -0.2499  0.4537 -0.7224
    1DT5     H6   13   2.217   2.387   2.306  3.3550 -0.1076 -0.6138
    1DT5     C5   14   2.119   2.575   2.347  0.2339  0.5215 -0.6002
    1DT5     C7   15   1.982   2.508   2.365  0.0093  0.8919 -0.4376
    1DT5    H71   16   1.995   2.400   2.368 -1.0482  0.7628  1.5417
    1DT5    H72   17   1.930   2.528   2.459  0.3955 -1.5098  0.3601
    1DT5    H73   18   1.917   2.535   2.282 -0.5293  0.9155 -0.0140
    1DT5     C4   19   2.126   2.717   2.368 -0.0916  1.0685 -0.1697
    1DT5     O4   20   2.030   2.790   2.384  0.5228  0.0035 -0.2656
    1DT5     N3   21   2.258   2.759   2.361 -0.6691 -0.2555 -0.6176
    1DT5     H3   22   2.272   2.859   2.354  0.3007 -0.4513 -1.9506
    1DT5     C2   23   2.374   2.680   2.342  0.6719 -0.9796 -0.4996
    1DT5     O2   24   2.482   2.741   2.338  0.0151 -0.1128 -0.3806
    1DT5    C3'   25   2.556   2.234   2.337  0.8182 -1.0273  0.3882
    1DT5    H3'   26   2.507   2.138   2.351 -0.9981  0.0062  1.4688
    1DT5    C2'   27   2.464   2.328   2.412  0.5610 -0.2774  0.5820
    1DT5   H2'1   28   2.364   2.284   2.424  1.9819 -3.1231  3.8073
    1DT5   H2'2   29   2.500   2.356   2.511 -0.5251  0.4396  0.7917
    1DT5    O3'   30   2.693   2.228   2.379 -0.4639 -0.3428 -0.2123
    2DT3      P   31   2.741   2.213   2.524  0.1932 -0.0067  0.1657
    2DT3    O1P   32   2.879   2.154   2.514  0.5667  0.0919  0.6228
    2DT3    O2P   33   2.649   2.142   2.612 -0.2353  0.4856 -0.8154
    2DT3    O5'   34   2.753   2.363   2.573  0.2587 -0.2257 -0.3594
    2DT3    C5'   35   2.856   2.452   2.523  0.2066  0.2215 -0.0368
    2DT3   H5'1   36   2.846   2.468   2.415  0.7672  0.7536 -0.0171
    2DT3   H5'2   37   2.958   2.417   2.536 -0.1381 -0.5518  0.6108
    2DT3    C4'   38   2.845   2.597   2.585  0.0612  0.1616  0.2912
    2DT3    H4'   39   2.915   2.667   2.539  0.6143 -0.0961  0.7247
    2DT3    O4'   40   2.713   2.647   2.574 -0.3874 -0.4087 -0.2778
    2DT3    C1'   41   2.665   2.698   2.697 -0.1796 -0.0522  0.0322
    2DT3    H1'   42   2.699   2.802   2.702 -0.7059  0.1214  0.1292
    2DT3     N1   43   2.516   2.678   2.713 -0.6092  0.7248  0.0528
    2DT3     C6   44   2.458   2.551   2.708  0.1151 -0.0674 -0.0959
    2DT3     H6   45   2.516   2.460   2.715 -0.0469 -0.0935  1.2490
    2DT3     C5   46   2.325   2.542   2.693 -0.4022  0.3096  0.4662
    2DT3     C7   47   2.259   2.400   2.686 -0.2768 -0.6792 -0.9383
    2DT3    H71   48   2.187   2.404   2.604 -0.5314  1.5322 -0.6744
    2DT3    H72   49   2.322   2.312   2.671  1.3858  0.3431 -0.2579
    2DT3    H73   50   2.213   2.377   2.782  1.8551 -0.7571  0.1098
    2DT3     C4   51   2.235   2.658   2.685  0.1154  0.1054  0.3585
    2DT3     O4   52   2.111   2.662   2.661 -0.1003  0.1067 -0.0260
    2DT3     N3   53   2.305   2.777   2.704 -0.2839 -0.3304  0.4117
    2DT3     H3   54   2.253   2.863   2.692  1.3085  0.5470 -0.6475
    2DT3     C2   55   2.440   2.790   2.706  0.3440 -0.7195  0.9363
    2DT3     O2   56   2.488   2.902   2.705 -0.0002 -0.4117  0.5596
    2DT3    C3'   57   2.885   2.601   2.735  0.4390 -0.1421  0.6357
    2DT3    H3'   58   2.935   2.509   2.765  0.5126 -0.7787 -1.2652
    2DT3    C2'   59   2.745   2.622   2.801  0.3884 -0.3929 -0.5928
    2DT3   H2'1   60   2.705   2.521   2.814 -1.0078  0.2975  0.7685
    2DT3   H2'2   61   2.759   2.670   2.898 -2.5101  1.5630 -1.0410
    2DT3    O3'   62   2.973   2.716   2.764  0.5965  0.0746  0.1307
    2DT3    H3T   63   3.057   2.682   2.795  0.8255  0.6760  0.1827
    3SOL     OW   64   4.523   1.061   3.452  0.2008 -0.6592 -0.1429
    3SOL    HW1   65   4.591   1.050   3.519  0.8848 -0.5251 -0.8049
    3SOL    HW2   66   4.461   0.991   3.470  0.8590 -1.2106  0.0624
    4SOL     OW   67   4.478   1.814   4.455  0.5493  0.2754  0.0854
    4SOL    HW1   68   4.412   1.745   4.443  0.9623  0.0065 -0.6802
    4SOL    HW2   69   4.528   1.785   4.532 -0.4058  0.6410  0.8672
    5SOL     OW   70   3.472   0.355   0.583 -0.5020 -0.4879  0.2786
    5SOL    HW1   71   3.469   0.431   0.524  0.1290  0.4175  1.3689
    5SOL    HW2   72   3.557   0.314   0.565 -1.5236 -1.9783 -1.5042
    6SOL     OW   73   3.957   0.531   3.561  0.2270 -0.4183  0.0446
    6SOL    HW1   74   4.038   0.580   3.544  0.4946 -1.0427 -0.5656
    6SOL    HW2   75   3.954   0.521   3.656  0.7129 -0.1350  0.0929
    7SOL     OW   76   4.438   4.020   4.962 -0.1737 -0.3041 -0.4395
    7SOL    HW1   77   4.477   3.939   4.992 -0.1563 -0.3517 -0.5930
    7SOL    HW2   78   4.350   3.996   4.933 -0.3262 -0.1937 -0.0753
    8SOL     OW   79   1.697   3.406   2.192 -0.0871  0.4983  0.1607
    8SOL    HW1   80   1.629   3.417   2.259 -0.2710 -0.8433  0.2058
    8SOL    HW2   81   1.680   3.320   2.154 -0.0399  1.2543 -1.6810
    9SOL     OW   82   0.896   4.062   0.445  0.2350 -0.0795  0.0001
    9SOL    HW1   83   0.931   4.148   0.471  0.3873  0.2804 -1.3140
    9SOL    HW2   84   0.802   4.077   0.433  0.0108 -0.4613  1.1711
   10SOL     OW   85   2.013   1.752   2.943  0.3676 -0.1563  0.0853
   10SOL    HW1   86   2.021   1.811   3.018  1.1452 -0.7874  0.5211
   10SOL    HW2   87   1.931   1.706   2.958 -0.8194  1.5843 -0.8463
   11SOL     OW   88   3.781   3.949   4.763  0.0539 -0.0048 -0.1136
   11SOL    HW1   89   3.758   4.041   4.772  0.7347  0.3646 -1.8151
   11SOL    HW2   90   3.741   3.922   4.680  1.8627 -0.5598 -0.8593
   12SOL     OW   91   0.595   0.822   1.199  0.3322 -0.6069 -0.4104
   12SOL    HW1   92   0.615   0.916   1.202 -1.5228 -0.1933  0.5872
   12SOL    HW2   93   0.670   0.780   1.242  0.6420  0.5392  0.2171
   13SOL     OW   94   2.218   3.089   3.877 -0.0405 -0.5055 -0.4187
   13SOL    HW1   95   2.279   3.129   3.816 -0.8769  1.1432 -0.2341
   13SOL    HW2   96   2.190   3.161   3.933  1.1348 -2.0570  2.3342
   14SOL     OW   97   3.587   1.246   0.051 -0.1172  0.1798  0.3244
   14SOL    HW1   98   3.571   1.339   0.034  0.8706  0.5722  1.4241
   14SOL    HW2   99   3.556   1.232   0.140 -0.0364 -0.4924  0.2494
   15SOL     OW  100   4.260   3.019   2.137 -0.3910 -0.2630 -0.3880
   15SOL    HW1  101   4.199   3.086   2.106 -2.1792 -1.4084  0.5071
   15SOL    HW2  102   4.334   3.068   2.171 -1.4604  1.2529 -0.1523
   16SOL     OW  103   3.262   2.051   3.237  0.1016  0.5920 -0.0340
   16SOL    HW1  104   3.246   2.047   3.331 -1.7054  0.9551 -0.2888
   16SOL    HW2  105   3.176   2.065   3.199  0.4195 -1.8196 -1.9026
   17SOL     OW  106   4.559   0.596   4.836  0.4508 -0.2905 -0.4297
   17SOL    HW1  107   4.638   0.626   4.881  0.2358  0.2543 -0.4043
   17SOL    HW2  108   4.493   0.663   4.857 -0.2315 -1.1235  0.1809
   18SOL     OW  109   1.173   3.127   3.558  0.1048 -0.2592  0.0960
   18SOL    HW1  110   1.254   3.076   3.561 -0.6053 -1.3926  0.5496
   18SOL    HW2  111   1.170   3.173   3.642  0.1608 -0.4104  0.1807
   19SOL     OW  112   1.124   0.949   1.449  0.2010  0.6500  0.6382
   19SOL    HW1  113   1.181   0.962   1.525  0.1525  0.8292  0.6428
   19SOL    HW2  114   1.035   0.946   1.486  0.3377 -1.9342  0.9368
   20SOL     OW  115   3.664   1.073   2.933 -0.6353  0.5639  0.4568
   20SOL    HW1  116   3.574   1.049   2.956 -0.3621  0.6604  1.7337
   20SOL    HW2  117   3.690   1.009   2.867 -1.5150  0.2977  0.3575
   21SOL     OW  118   1.756   4.432   4.230  0.1282  0.1965  0.3594
   21SOL    HW1  119   1.805   4.435   4.312  1.1094  0.0056 -0.2095
   21SOL    HW2  120   1.746   4.523   4.203  1.0982  0.1939 -0.0511
   22SOL     OW  121   2.464   1.741   3.997  0.3552  0.9629  0.0724
   22SOL    HW1  122   2.447   1.650   3.970  1.0398  0.8156  0.1313
   22SOL    HW2  123   2.412   1.752   4.076  0.3906  0.5692  0.1537
   23SOL     OW  124   1.103   1.239   3.482  1.0212  0.0279  0.1844
   23SOL    HW1  125   1.079   1.249   3.575 -1.8930 -0.1085 -0.4643
   23SOL    HW2  126   1.103   1.327   3.447  3.2939  0.2172  0.4700
   24SOL     OW  127   0.739   0.346   1.620 -0.2073  0.1994  1.1270
   24SOL    HW1  128   0.725   0.403   1.545 -2.5308 -0.7816  0.7261
   24SOL    HW2  129   0.661   0.357   1.674 -0.3170 -1.8774  1.4755
   25SOL     OW  130   1.544   0.436   3.316 -0.3064 -0.0873  0.0343
   25SOL    HW1  131   1.543   0.346   3.285  0.2373 -0.0819 -0.0154
   25SOL    HW2  132   1.579   0.486   3.242  2.4061 -0.2585  1.0672
   26SOL     OW  133   3.480   0.214   4.377  0.1038  0.2440 -0.2896
   26SOL    HW1  134   3.548   0.257   4.429  1.6952 -0.2857 -1.8436
   26SOL    HW2  135   3.449   0.281   4.316  0.7197 -0.0527 -0.9487
   27SOL     OW  136   3.781   4.448   0.177 -0.0062 -0.2383  0.5775
   27SOL    HW1  137   3.778   4.352   0.178 -0.2221 -0.2429  0.0435
   27SOL    HW2  138   3.787   4.471   0.084  0.4559  0.2575  0.7236
   28SOL     OW  139   1.920   2.928   0.371 -0.3225  0.0487  0.2214
   28SOL    HW1  140   1.883   2.989   0.307 -0.4025  1.0686  1.2057
   28SOL    HW2  141   1.854   2.923   0.440 -0.9346 -2.2230 -0.4201
   29SOL     OW  142   1.789   3.658   0.033 -0.2310  0.0583  0.1727
   29SOL    HW1  143   1.749   3.573   0.053 -1.7522  0.7954  0.4418
   29SOL    HW2  144   1.748   3.684  -0.049 -0.3971  0.8928  0.5123
   30SOL     OW  145   0.269   2.496   1.348 -0.2951  0.1810 -0.5670
   30SOL    HW1  146   0.236   2.409   1.327 -0.4155  0.3270 -0.9895
   30SOL    HW2  147   0.198   2.537   1.397 -0.4990  0.2743 -0.9371
   31SOL     OW  148   2.724   0.169   3.962  0.5714 -0.3610 -0.1827
   31SOL    HW1  149   2.718   0.083   3.920  1.8373 -0.4528 -0.2101
   31SOL    HW2  150   2.818   0.190   3.961  0.3336  0.7974  0.2743
   32SOL     OW  151   2.433   3.421   3.756  0.5086 -0.5273 -0.3335
   32SOL    HW1  152   2.457   3.331   3.736  0.6742 -0.7022  0.6185
   32SOL    HW2  153   2.346   3.432   3.719  0.5387 -1.0449 -0.5547
   33SOL     OW  154   2.177   3.853   2.056 -0.3466  0.5446 -0.6921
   33SOL    HW1  155   2.121   3.854   2.134 -2.5866  0.3672 -2.2232
   33SOL    HW2  156   2.134   3.793   1.996  1.7291  0.1162 -1.8350
   34SOL     OW  157   1.472   3.029   1.472 -0.3278 -0.5747 -0.1208
   34SOL    HW1  158   1.484   3.120   1.443 -1.8350  0.3034  1.7521
   34SOL    HW2  159   1.548   2.983   1.438  0.8373  1.5318 -0.5746
   35SOL     OW  160   0.592   0.821   3.832  0.4763 -0.2289 -0.6322
   35SOL    HW1  161   0.663   0.884   3.848  0.8419 -1.2082  2.0708
   35SOL    HW2  162   0.634   0.735   3.841 -0.7402 -0.8360 -0.5624
   36SOL     OW  163   0.115   4.340   3.586 -0.6065  0.0955 -0.0069
   36SOL    HW1  164   0.150   4.384   3.508 -1.1883  0.9290  0.1956
   36SOL    HW2  165   0.052   4.402   3.622 -1.2817 -0.8221  0.4120
   37SOL     OW  166   3.281   0.294   2.324  0.0438 -0.4376  0.1745
   37SOL    HW1  167   3.287   0.199   2.322 -0.9576 -0.5249  0.7192
   37SOL    HW2  168   3.299   0.317   2.416 -0.6163 -0.1759  0.2432
   38SOL     OW  169   3.495   1.682   1.358 -0.0752 -0.3330  0.0125
   38SOL    HW1  170   3.541   1.712   1.437 -0.0550 -1.8570  0.6162
   38SOL    HW2  171   3.561   1.632   1.310 -0.8427 -1.8719  0.4935
   39SOL     OW  172   3.798   0.896   2.193  0.4555 -0.0473 -0.0565
   39SOL    HW1  173   3.858   0.963   2.159 -1.0279  1.1638 -0.4424
   39SOL    HW2  174   3.755   0.938   2.268 -1.1982 -0.1622 -0.8785
   40SOL     OW  175   2.293   3.471   1.206  0.2125  0.3026  0.2358
   40SOL    HW1  176   2.199   3.458   1.191  0.2502  1.5098 -1.4847
   40SOL    HW2  177   2.330   3.481   1.118  2.0092 -0.3970  0.8612
   41SOL     OW  178   4.337   1.201   2.614 -0.3623  0.9229 -0.0950
   41SOL    HW1  179   4.381   1.250   2.684  1.0367  0.1432 -0.3995
   41SOL    HW2  180   4.271   1.148   2.660  0.7819  0.1387  0.7040
   42SOL     OW  181   3.926   0.596   1.048 -0.4406 -0.1917  0.3278
   42SOL    HW1  182   3.921   0.571   1.140  1.1707  0.1826  0.5481
   42SOL    HW2  183   3.888   0.683   1.044  1.7217  0.8746  1.1481
   43SOL     OW  184   4.833   1.507   4.591 -0.1691 -0.2225 -0.1016
   43SOL    HW1  185   4.788   1.459   4.660  1.2450  0.4213  1.3467
   43SOL    HW2  186   4.776   1.582   4.573 -0.0065  0.2549  1.2557
   44SOL     OW  187   1.114   2.703   4.535 -0.2970 -0.3987  0.3747
   44SOL    HW1  188   1.035   2.738   4.575 -0.7915 -1.6399  0.5447
   44SOL    HW2  189   1.119   2.746   4.450 -0.0349  1.1792  1.1466
   45SOL     OW  190   3.943   3.195   0.501  0.2824 -0.0949 -0.2957
   45SOL    HW1  191   3.937   3.100   0.498 -2.7537 -0.0254  0.5611
   45SOL    HW2  192   3.858   3.224   0.532  1.5179  2.8855  0.7181
   46SOL     OW  193   1.911   3.862   1.728 -0.2585  0.3886  0.8087
   46SOL    HW1  194   1.907   3.865   1.823  0.3130  0.5248  0.8335
   46SOL    HW2  195   1.984   3.802   1.709 -1.2691 -0.7502  0.4402
   47SOL     OW  196   0.166   1.249   3.167  0.5887 -0.0056  0.2690
   47SOL    HW1  197   0.209   1.193   3.231  0.7744  0.6670  0.7348
   47SOL    HW2  198   0.136   1.325   3.217  0.9358  0.6330 -0.4728
   48SOL     OW  199   0.849   2.616   2.576 -0.4761 -0.1641 -0.7331
   48SOL    HW1  200   0.889   2.684   2.630  1.0420 -0.8332 -0.9697
   48SOL    HW2  201   0.872   2.534   2.620 -0.1028 -0.6553 -1.8141
   49SOL     OW  202   3.075   0.932   1.210 -0.2637 -0.3867 -0.3773
   49SOL    HW1  203   3.018   0.862   1.241  0.7220 -1.9694 -1.9247
   49SOL    HW2  204   3.037   0.959   1.126 -1.4615  2.0301  0.8497
   50SOL     OW  205   1.885   3.626   4.460 -0.3608 -0.2752 -0.1840
   50SOL    HW1  206   1.801   3.643   4.502  0.1766 -0.3461  0.9778
   50SOL    HW2  207   1.942   3.696   4.492 -0.0521 -0.0483 -1.2080
   51SOL     OW  208   3.705   3.260   0.154  0.1036  0.1121  0.0080
   51SOL    HW1  209   3.738   3.173   0.132  0.5227  0.0333  0.9242
   51SOL    HW2  210   3.777   3.303   0.199  0.7015  1.7549 -2.3223
   52SOL     OW  211   3.169   4.135   4.198 -0.1994 -0.4316  0.1696
   52SOL    HW1  212   3.170   4.045   4.230 -1.4075  0.0653  1.7357
   52SOL    HW2  213   3.077   4.151   4.176 -0.0630  0.5245  0.2677
   53SOL     OW  214   2.930   2.437   0.069 -0.3887 -0.4198 -0.7436
   53SOL    HW1  215   2.882   2.401   0.144 -0.1841 -1.4191 -1.0719
   53SOL    HW2  216   2.864   2.441  -0.001 -0.4178 -0.1261 -0.6988
   54SOL     OW  217   0.138   1.047   0.588 -0.1627 -0.6314 -0.0388
   54SOL    HW1  218   0.079   0.972   0.577  1.7588 -2.0943 -1.0945
   54SOL    HW2  219   0.199   1.019   0.656  0.1251  0.3127  0.1099
   55SOL     OW  220   1.855   3.683   4.149 -0.2183  0.0650  0.9215
   55SOL    HW1  221   1.920   3.687   4.220  1.3855 -0.5632 -0.4231
   55SOL    HW2  222   1.803   3.762   4.159 -0.6456 -0.4620  3.3292
   56SOL     OW  223   0.428   3.599   1.441  0.3207  0.2118  0.5059
   56SOL    HW1  224   0.483   3.527   1.472 -0.3365 -0.4798  0.1141
   56SOL    HW2  225   0.457   3.675   1.491  0.8421 -0.3819  1.1312
   57SOL     OW  226   0.262   1.161   1.713 -0.2604  0.1234 -0.5093
   57SOL    HW1  227   0.261   1.071   1.744 -1.9215 -0.1794 -1.3458
   57SOL    HW2  228   0.329   1.162   1.645  0.6959 -0.1306  0.3949
   58SOL     OW  229   2.116   1.290   3.068  0.1332  0.3094 -0.1741
   58SOL    HW1  230   2.147   1.380   3.058 -1.2304  0.6591 -1.7864
   58SOL    HW2  231   2.046   1.282   3.004  0.3585 -1.9859 -0.2192
   59SOL     OW  232   2.480  -0.018   3.160 -0.0837  0.4149 -0.2508
   59SOL    HW1  233   2.455   0.074   3.157 -0.2820  0.4414  1.4234
   59SOL    HW2  234   2.572  -0.018   3.132  0.4836  1.4001  1.4244
   60SOL     OW  235   2.827   3.797   3.990  0.0956 -0.3075  0.6732
   60SOL    HW1  236   2.872   3.742   4.054 -1.2508 -1.0338  1.0288
   60SOL    HW2  237   2.892   3.813   3.922  1.8792  1.2740  2.6406
   61SOL     OW  238   4.029   4.602   4.957  0.0719  0.4761  0.2478
   61SOL    HW1  239   4.088   4.676   4.974 -0.8057  1.3102 -0.2295
   61SOL    HW2  240   3.961   4.638   4.901 -0.7533 -0.5338  0.5695
   62SOL     OW  241   2.506   1.399   4.292 -0.1190 -0.3412 -0.9990
   62SOL    HW1  242   2.584   1.452   4.272  2.5730 -3.7817 -0.5971
   62SOL    HW2  243   2.502   1.336   4.220 -0.7015 -2.0887  0.5213
   63SOL     OW  244   2.013   4.874   4.419 -0.0335  0.5049  0.4257
   63SOL    HW1  245   2.057   4.877   4.504  1.4250 -0.9104 -0.2457
   63SOL    HW2  246   2.080   4.901   4.356 -0.6089 -0.0737 -0.4494
   64SOL     OW  247   3.105   0.425   3.350 -0.3300 -0.3254  0.1871
   64SOL    HW1  248   3.083   0.338   3.384  0.4781 -1.0365 -1.0294
   64SOL    HW2  249   3.071   0.424   3.260 -0.3027  0.6191  0.1630
   65SOL     OW  250   3.918   3.008   2.294  0.0538  0.0670 -0.1692
   65SOL    HW1  251   3.961   3.090   2.321 -0.8189  0.4739  0.0258
   65SOL    HW2  252   3.919   2.954   2.373 -0.8651  0.5483  0.1826
   66SOL     OW  253   0.795   4.776   4.905  0.1573  0.2220  0.1203
   66SOL    HW1  254   0.845   4.748   4.981  2.3724  0.8448 -1.0194
   66SOL    HW2  255   0.821   4.867   4.892 -1.3424  0.5922 -0.5126
   67SOL     OW  256   2.436   2.775   4.497  0.2528 -0.0826 -0.2840
   67SOL    HW1  257   2.366   2.838   4.512  0.8958  0.4284  0.6865
   67SOL    HW2  258   2.409   2.697   4.546 -0.9247 -0.8959 -2.1210
   68SOL     OW  259   1.485   4.996   0.072 -0.3834  0.0353 -0.3728
   68SOL    HW1  260   1.470   4.902   0.067  0.6101 -0.0804 -2.3271
   68SOL    HW2  261   1.565   5.010   0.021 -1.1753  2.0505 -1.1797
   69SOL     OW  262   3.057   1.432   3.653 -0.8372  0.3778  0.2583
   69SOL    HW1  263   3.048   1.506   3.593 -0.2414  0.4474  0.2442
   69SOL    HW2  264   3.041   1.470   3.740 -0.5305  0.5239  0.2510
   70SOL     OW  265   1.582   2.159   4.843 -0.1920  0.4537 -0.5530
   70SOL    HW1  266   1.662   2.190   4.801  0.5051 -0.3726  0.1156
   70SOL    HW2  267   1.580   2.065   4.825 -0.2928  0.2198  0.5744
   71SOL     OW  268   4.483   1.756   2.493  0.2981 -0.3645  0.6835
   71SOL    HW1  269   4.505   1.726   2.581 -0.6591  1.9996  1.8024
   71SOL    HW2  270   4.528   1.840   2.484  2.8292 -1.8408 -2.3011
   72SOL     OW  271   1.228   2.698   1.854  0.5444 -0.0416 -0.6953
   72SOL    HW1  272   1.256   2.667   1.940  2.2532 -0.3753 -1.3364
   72SOL    HW2  273   1.230   2.794   1.861 -0.2109 -0.0538 -0.1219
   73SOL     OW  274   2.574   0.915   4.010 -0.1132 -0.5564  0.6921
   73SOL    HW1  275   2.525   0.925   3.928  2.4992 -0.1755 -0.9490
   73SOL    HW2  276   2.507   0.907   4.078 -2.3939 -0.0669 -1.3753
   74SOL     OW  277   0.262   3.838   1.687  0.2997 -0.0312 -0.6967
   74SOL    HW1  278   0.192   3.813   1.627 -0.5817  0.3334  0.1560
   74SOL    HW2  279   0.295   3.755   1.722 -1.1608 -0.1532  0.4980
   75SOL     OW  280   3.469   0.601   3.996  0.3330 -0.5719 -0.1273
   75SOL    HW1  281   3.413   0.665   3.952 -0.8057 -0.0338  1.9648
   75SOL    HW2  282   3.441   0.517   3.961 -1.4470 -0.2608  0.4329
   76SOL     OW  283   4.920   4.275   4.519  0.0024  0.3119 -0.8961
   76SOL    HW1  284   4.908   4.211   4.588  0.6357 -0.5779 -1.5902
   76SOL    HW2  285   4.832   4.290   4.483 -0.3572  0.9279  0.2048
   77SOL     OW  286   2.935   4.598   2.932  0.3239  0.0020  0.5206
   77SOL    HW1  287   2.987   4.525   2.964  1.4841  1.3907  2.0146
   77SOL    HW2  288   2.845   4.567   2.935  0.8572 -1.6978  0.0839
   78SOL     OW  289   4.233   2.488   4.081  0.4213  0.0034 -0.2183
   78SOL    HW1  290   4.299   2.502   4.014 -0.1502  0.8659 -0.6179
   78SOL    HW2  291   4.222   2.573   4.123  0.2628 -0.3570  0.4956
   79SOL     OW  292   1.522   2.508   3.684  0.2453 -0.0576 -0.1726
   79SOL    HW1  293   1.558   2.555   3.759 -0.9959 -0.1511  0.5076
   79SOL    HW2  294   1.596   2.498   3.624  1.0036  0.9749  0.5565
   80SOL     OW  295   3.807   2.233   1.074  0.1120  0.3913 -0.3257
   80SOL    HW1  296   3.805   2.256   1.167 -0.8162 -0.2015 -0.1766
   80SOL    HW2  297   3.775   2.142   1.071  0.2803  0.3492 -1.2079
   81SOL     OW  298   4.772   4.355   1.606 -0.0267 -0.3075  0.4986
   81SOL    HW1  299   4.699   4.407   1.571  0.2382 -0.6379 -0.5570
   81SOL    HW2  300   4.741   4.328   1.692 -1.4665 -1.0462 -0.2133
   82SOL     OW  301   1.602   1.253   1.610 -0.2424 -0.4524 -0.2437
   82SOL    HW1  302   1.667   1.182   1.620 -0.1433 -0.1759  1.5362
   82SOL    HW2  303   1.618   1.309   1.686 -0.7899  1.1142 -1.2614
   83SOL     OW  304   2.884   0.796   2.408 -0.0072  0.0175 -0.0359
   83SOL    HW1  305   2.807   0.743   2.430 -0.4657  0.7847  0.2489
   83SOL    HW2  306   2.847   0.878   2.374  0.6834 -0.1861 -1.3352
   84SOL     OW  307   3.152   1.735   3.677 -0.1182 -0.1400  0.2670
   84SOL    HW1  308   3.139   1.691   3.761 -0.1089  0.0251  0.3535
   84SOL    HW2  309   3.149   1.828   3.697 -0.0576 -0.1002  0.0931
   85SOL     OW  310   1.776   2.644   4.651 -0.1781 -0.1480 -0.5768
   85SOL    HW1  311   1.815   2.628   4.737  1.1910 -0.7664 -1.2793
   85SOL    HW2  312   1.694   2.690   4.669  0.5074  0.4892  1.0022
   86SOL     OW  313   0.290   1.638   1.134 -0.0095  0.4334 -0.6578
   86SOL    HW1  314   0.194   1.645   1.130  0.0393  0.9535 -1.1328
   86SOL    HW2  315   0.308   1.545   1.123 -0.4953  0.1928  0.4348
   87SOL     OW  316   2.275   3.204   4.857  0.4130 -0.3836 -0.1158
   87SOL    HW1  317   2.357   3.241   4.890  1.6749 -2.6097 -0.5795
   87SOL    HW2  318   2.261   3.246   4.773 -0.4738  2.0691  1.1614
   88SOL     OW  319   0.049   3.648   3.732 -0.2771  0.6475  0.2595
   88SOL    HW1  320   0.016   3.666   3.820 -3.2037  0.4689 -0.6911
   88SOL    HW2  321  -0.008   3.578   3.699  1.9975 -0.6998 -1.1156
   89SOL     OW  322   1.920   2.343   1.041  0.1576 -0.8618  0.3652
   89SOL    HW1  323   1.917   2.325   1.135 -2.0501 -4.5506 -0.2325
   89SOL    HW2  324   1.890   2.433   1.033 -0.1989 -0.6490  3.1338
   90SOL     OW  325   2.546   2.434   0.663  0.4490 -1.1903 -0.8992
   90SOL    HW1  326   2.605   2.368   0.700 -1.3781 -1.6505  1.3822
   90SOL    HW2  327   2.465   2.387   0.645 -0.2509  0.0452 -1.0876
   91SOL     OW  328   2.948   4.178   1.956 -0.1238  0.1034 -0.2534
   91SOL    HW1  329   2.924   4.191   1.864 -1.1181 -2.2690 -0.4046
   91SOL    HW2  330   3.042   4.197   1.959  0.2728 -1.2773 -2.1122
   92SOL     OW  331   4.560   4.823   1.040  0.1516  0.2153 -0.8294
   92SOL    HW1  332   4.534   4.901   0.990  0.8162  1.2773  0.4149
   92SOL    HW2  333   4.534   4.843   1.130  2.2839 -0.0763 -0.1104
   93SOL     OW  334   1.421   1.308   3.537  0.8406  0.4112 -0.2749
   93SOL    HW1  335   1.399   1.353   3.455  1.8903 -2.6666 -2.4656
   93SOL    HW2  336   1.350   1.246   3.550  0.2257  1.4574  1.7536
   94SOL     OW  337   3.080   0.101   2.575  0.3350  0.5761 -0.3903
   94SOL    HW1  338   3.017   0.041   2.615  0.8281  0.2625 -0.0682
   94SOL    HW2  339   3.057   0.103   2.482  1.8428 -2.0936 -0.9262
   95SOL     OW  340   0.055   0.271   0.314 -0.0724 -0.0197  0.2807
   95SOL    HW1  341   0.095   0.350   0.351  1.7714  0.0981 -1.7607
   95SOL    HW2  342  -0.037   0.294   0.303  0.1613  1.3605  0.9464
   96SOL     OW  343   4.906   1.394   3.687 -0.0580 -0.0265 -0.8962
   96SOL    HW1  344   4.981   1.347   3.723 -0.9957 -1.1018 -0.2914
   96SOL    HW2  345   4.876   1.451   3.758 -0.0415  0.1297 -1.0136
   97SOL     OW  346   1.050   1.194   3.967 -0.0499 -0.1106 -0.3348
   97SOL    HW1  347   1.054   1.286   3.943 -1.5399 -0.2354 -1.1364
   97SOL    HW2  348   0.962   1.180   4.000 -0.7311 -1.7405 -2.5378
   98SOL     OW  349   3.966   0.601   2.713  0.4075 -0.5140 -0.2471
   98SOL    HW1  350   3.991   0.518   2.673  0.6496 -1.0339  0.9354
   98SOL    HW2  351   3.919   0.648   2.644 -0.3037 -1.8908 -0.7363
   99SOL     OW  352   3.627   4.088   3.379 -0.1555  0.3208  0.1625
   99SOL    HW1  353   3.635   4.105   3.473 -0.2332  0.3682  0.1607
   99SOL    HW2  354   3.717   4.080   3.348 -0.0584  2.0719 -0.0801
  100SOL     OW  355   1.386   3.906   0.426 -0.2924 -0.1354  0.2846
  100SOL    HW1  356   1.457   3.926   0.365  1.4474 -2.6718  1.3124
  100SOL    HW2  357   1.313   3.881   0.371  1.0912 -1.9089 -0.8638
  101SOL     OW  358   3.138   1.252   1.735 -0.0708  0.3589  0.7752
  101SOL    HW1  359   3.170   1.165   1.757  1.8240  0.5261 -0.9679
  101SOL    HW2  360   3.051   1.236   1.697  0.5895 -0.9222 -0.3169
  102SOL     OW  361   0.823   1.090   1.994 -0.6152  0.1973  0.3295
  102SOL    HW1  362   0.863   1.006   1.972 -1.9026 -0.6112  0.9528
  102SOL    HW2  363   0.874   1.154   1.946  0.7767 -0.8805  0.3100
  103SOL     OW  364   2.598   1.159   4.162  0.0292 -0.2262  0.0747
  103SOL    HW1  365   2.671   1.196   4.113 -1.1356  0.8596 -0.9249
  103SOL    HW2  366   2.577   1.078   4.118  2.0010 -1.7364  1.7131
  104SOL     OW  367   0.838   3.251   1.652 -0.3561  0.1662  0.6321
  104SOL    HW1  368   0.921   3.226   1.611  0.0184 -0.3799  1.7006
  104SOL    HW2  369   0.853   3.341   1.682  0.4861 -0.5266  2.3981
  105SOL     OW  370   4.172   1.587   4.042 -0.6104 -0.3594  0.2545
  105SOL    HW1  371   4.115   1.664   4.031 -1.3061 -0.7127  1.1807
  105SOL    HW2  372   4.113   1.513   4.030 -0.5197 -0.7346  1.8550
  106SOL     OW  373   1.202   0.966   0.139 -0.0653 -0.3991 -0.3720
  106SOL    HW1  374   1.241   0.959   0.226  0.1772  1.4171 -0.3060
  106SOL    HW2  375   1.266   1.015   0.088 -0.6297 -0.6330 -1.3187
  107SOL     OW  376   2.117   0.186   1.607  0.2418 -0.2611 -0.0719
  107SOL    HW1  377   2.206   0.186   1.641  0.3468  0.1288 -0.3296
  107SOL    HW2  378   2.070   0.123   1.661  0.7961 -0.8424 -0.2565
  108SOL     OW  379   2.514   3.719   3.319  0.3660 -0.0726 -0.0875
  108SOL    HW1  380   2.502   3.724   3.224  0.1138  0.6103 -0.0262
  108SOL    HW2  381   2.437   3.672   3.351  0.7612 -0.8732 -0.2743
  109SOL     OW  382   3.426   4.583   3.498  0.0091  0.5619  0.4739
  109SOL    HW1  383   3.480   4.567   3.421 -0.9858 -0.7972  0.0120
  109SOL    HW2  384   3.440   4.507   3.554 -2.6128 -0.7346 -0.4354
  110SOL     OW  385   1.729   1.719   1.902 -0.9434 -0.0854 -0.0734
  110SOL    HW1  386   1.777   1.719   1.984  0.8903  1.5547 -1.0567
  110SOL    HW2  387   1.649   1.670   1.920  0.3698 -1.5775  2.0808
  111SOL     OW  388   1.938   3.863   2.207  0.0863 -0.9609  0.5245
  111SOL    HW1  389   1.980   3.802   2.267  0.5095 -1.4504 -0.2512
  111SOL    HW2  390   1.847   3.836   2.205  0.0274 -0.8146  1.0940
  112SOL     OW  391   4.163   3.686   0.514 -0.2173  0.0202 -0.3546
  112SOL    HW1  392   4.220   3.698   0.438 -1.0963 -0.8140 -1.1651
  112SOL    HW2  393   4.151   3.774   0.549 -0.1167  0.4706 -1.4172
  113SOL     OW  394   2.661   0.267   3.081 -0.5725 -0.4984 -0.1556
  113SOL    HW1  395   2.734   0.205   3.088  0.6338  0.9744  1.2514
  113SOL    HW2  396   2.685   0.324   3.007 -0.5829 -0.3745 -0.0641
  114SOL     OW  397   2.831   1.152   3.480 -0.2565  0.0945  0.1147
  114SOL    HW1  398   2.772   1.079   3.458 -0.2156 -0.0107  0.3520
  114SOL    HW2  399   2.822   1.212   3.406  1.1210 -1.0260 -1.0203
  115SOL     OW  400   3.574   0.370   2.389  0.4514  0.3261 -0.2826
  115SOL    HW1  401   3.622   0.420   2.323 -0.0283  0.1429 -0.7803
  115SOL    HW2  402   3.567   0.282   2.352 -0.0343  0.2849 -0.0954
  116SOL     OW  403   0.626   0.602   2.444  0.0259 -0.0859 -0.0644
  116SOL    HW1  404   0.615   0.694   2.421 -0.1562  0.3845  1.7558
  116SOL    HW2  405   0.714   0.598   2.482 -0.2914 -0.4673  0.6537
  117SOL     OW  406   0.655   3.035   1.571 -0.1012  0.3759 -0.8372
  117SOL    HW1  407   0.673   3.033   1.477  0.6690  2.2927 -0.7817
  117SOL    HW2  408   0.730   3.083   1.608  0.4488 -1.7366  0.9780
  118SOL     OW  409   1.290   0.365   1.343 -0.5382 -0.1767  0.5906
  118SOL    HW1  410   1.302   0.368   1.438 -0.2899 -0.8637  0.5812
  118SOL    HW2  411   1.249   0.449   1.322 -1.2045 -0.2823  1.3916
  119SOL     OW  412   3.247   1.293   4.948 -0.0009  0.0387 -0.5136
  119SOL    HW1  413   3.272   1.201   4.944  0.1614 -0.0292  1.4252
  119SOL    HW2  414   3.177   1.302   4.882  0.1223 -1.3961 -0.8701
  120SOL     OW  415   2.940   3.556   0.900 -0.4340  0.1526  0.1523
  120SOL    HW1  416   2.947   3.612   0.977  0.8183  2.3846 -1.4357
  120SOL    HW2  417   2.847   3.537   0.891 -0.5927 -0.2123  2.1964
  121SOL     OW  418   4.406   1.537   4.190 -0.1854 -0.2078  0.8372
  121SOL    HW1  419   4.447   1.618   4.161  1.7810 -0.5733  2.3175
  121SOL    HW2  420   4.341   1.517   4.123 -0.0586  2.0591 -0.0535
  122SOL     OW  421   0.640   1.827   0.414  0.0947 -0.4947  0.0758
  122SOL    HW1  422   0.591   1.908   0.428 -0.3318 -0.4529 -1.4574
  122SOL    HW2  423   0.589   1.760   0.459 -0.6927 -0.2471 -0.4280
  123SOL     OW  424   4.447   1.521   1.246 -0.1368 -0.9113  0.8020
  123SOL    HW1  425   4.387   1.501   1.174 -0.6745 -0.2202  1.0534
  123SOL    HW2  426   4.405   1.482   1.323  0.0384 -0.9532  0.8763
  124SOL     OW  427   0.987   2.560   1.814  0.1488 -0.0036  0.1788
  124SOL    HW1  428   1.056   2.624   1.828  2.9477 -3.0519  1.7467
  124SOL    HW2  429   0.974   2.519   1.899 -2.1773 -0.9480 -0.5525
  125SOL     OW  430   4.822   4.615   2.588 -0.8114 -0.4234 -0.5046
  125SOL    HW1  431   4.771   4.677   2.536 -0.5923  1.5368  1.4995
  125SOL    HW2  432   4.756   4.561   2.632 -1.0821  0.1370 -0.2163
  126SOL     OW  433   1.442   2.459   0.368  0.2820  0.0067 -0.4898
  126SOL    HW1  434   1.499   2.426   0.299  0.6720 -0.8001  0.1994
  126SOL    HW2  435   1.465   2.407   0.445 -0.6565  0.3839  0.0609
  127SOL     OW  436   2.111   2.263   3.099  0.0040  0.3335 -0.2263
  127SOL    HW1  437   2.074   2.351   3.109  0.6184  0.5273  0.4214
  127SOL    HW2  438   2.044   2.215   3.051 -0.5933  0.9941 -0.0800
  128SOL     OW  439   1.174   2.994   4.135  0.5288  0.4995  0.3129
  128SOL    HW1  440   1.125   3.007   4.053  2.2027 -0.6101 -0.9314
  128SOL    HW2  441   1.263   3.020   4.113  1.3544 -1.3357  1.2936
  129SOL     OW  442   3.378   3.158   3.104 -0.3132  0.6344 -0.0745
  129SOL    HW1  443   3.398   3.083   3.159 -4.9630 -0.0763  1.0517
  129SOL    HW2  444   3.408   3.234   3.154 -0.7386 -0.2183  1.5196
  130SOL     OW  445   3.118   1.420   2.324  0.2905  0.1168  0.0151
  130SOL    HW1  446   3.156   1.503   2.293 -0.5192  0.9780  1.2185
  130SOL    HW2  447   3.103   1.369   2.245  1.2979  0.9028 -0.7109
  131SOL     OW  448   3.898   0.061   4.489 -0.1547  0.1986 -0.1549
  131SOL    HW1  449   3.948  -0.017   4.511 -1.4010 -1.3613 -2.3734
  131SOL    HW2  450   3.854   0.085   4.570  0.0219 -1.5925  0.5247
  132SOL     OW  451   4.088   1.811   3.137  0.1087  0.5183  0.0167
  132SOL    HW1  452   4.150   1.854   3.078  0.0880 -1.5070 -1.5670
  132SOL    HW2  453   4.002   1.838   3.106  0.1031  1.9628  1.1579
  133SOL     OW  454   2.052   2.910   4.729 -0.0008 -0.3054  0.6922
  133SOL    HW1  455   2.138   2.935   4.762  1.1243  0.4156 -2.4032
  133SOL    HW2  456   2.064   2.821   4.695 -1.4388 -1.5118  3.0353
  134SOL     OW  457   0.044   2.285   4.435 -0.0730 -0.1795 -0.2142
  134SOL    HW1  458   0.137   2.274   4.414  0.0444  0.4959 -0.0792
  134SOL    HW2  459   0.001   2.210   4.395  0.3669  0.1706 -1.3997
  135SOL     OW  460   3.891   0.169   2.667  0.4765  0.3329 -0.4446
  135SOL    HW1  461   3.891   0.223   2.588 -0.8701 -1.3732 -1.6958
  135SOL    HW2  462   3.930   0.225   2.734  1.3343  1.9746 -2.2085
  136SOL     OW  463   4.359   2.386   0.609 -0.1201  0.1326  0.4894
  136SOL    HW1  464   4.299   2.313   0.625 -2.1110  1.1418 -1.8431
  136SOL    HW2  465   4.320   2.459   0.655  1.1564  0.1128  1.6880
  137SOL     OW  466   3.876   3.646   0.123  0.5449  0.8665 -0.2499
  137SOL    HW1  467   3.942   3.615   0.060 -0.3266 -0.0325 -0.7467
  137SOL    HW2  468   3.854   3.569   0.175 -1.3444  0.6805 -1.2249
  138SOL     OW  469   1.615   3.373   1.771 -0.5972  0.4644 -0.0172
  138SOL    HW1  470   1.700   3.401   1.804 -0.8930  1.4223 -0.0124
  138SOL    HW2  471   1.611   3.280   1.789 -0.0548  0.6403  1.0969
  139SOL     OW  472   3.731   4.043   3.619  0.3467 -0.1784 -0.1583
  139SOL    HW1  473   3.765   3.960   3.584  0.0120 -0.2115 -0.4169
  139SOL    HW2  474   3.801   4.106   3.603  1.1401 -0.6644  1.2071
  140SOL     OW  475   3.525   4.547   1.321  0.8358 -0.5353 -0.1422
  140SOL    HW1  476   3.437   4.584   1.312  0.4513 -1.1039  1.0044
  140SOL    HW2  477   3.584   4.618   1.296  0.0609 -0.0293 -0.5684
  141SOL     OW  478   2.296   1.049   2.194  0.0669  0.4901 -0.4502
  141SOL    HW1  479   2.388   1.027   2.178  0.3369  2.8050 -2.8193
  141SOL    HW2  480   2.298   1.112   2.266  0.3102  0.3904 -0.3706
  142SOL     OW  481   2.996   2.273   3.280  0.4860 -0.1430 -0.0210
  142SOL    HW1  482   2.934   2.213   3.238 -0.5547  0.3192  0.8042
  142SOL    HW2  483   3.039   2.220   3.347  1.6396 -0.6946 -1.1590
  143SOL     OW  484   1.824   0.661   1.011  0.5242 -0.5534  0.3237
  143SOL    HW1  485   1.870   0.732   1.056  0.2146  0.9335 -1.5843
  143SOL    HW2  486   1.825   0.686   0.919  0.1856 -2.9352 -0.3989
  144SOL     OW  487   4.111   1.879   1.102  0.2795 -0.5073  0.2307
  144SOL    HW1  488   4.161   1.837   1.032 -0.5923  0.9513 -1.3421
  144SOL    HW2  489   4.151   1.965   1.111  1.2480 -1.1050  2.5539
  145SOL     OW  490   2.283   2.350   0.510  0.2169  0.1057 -0.6078
  145SOL    HW1  491   2.201   2.372   0.554  0.9139  1.1565  0.2047
  145SOL    HW2  492   2.263   2.269   0.463 -1.2945  0.3632 -0.4718
  146SOL     OW  493   2.242   0.438   2.425 -0.3688 -0.1630  0.0518
  146SOL    HW1  494   2.224   0.510   2.485 -2.5091  0.1930 -0.8967
  146SOL    HW2  495   2.209   0.360   2.470 -0.9956 -0.0488 -0.1904
  147SOL     OW  496   2.983   3.659   0.053 -0.0782 -0.1594  0.7591
  147SOL    HW1  497   2.979   3.581  -0.003 -0.1310  0.3702  0.0021
  147SOL    HW2  498   2.956   3.628   0.139 -0.3418 -0.9280  0.4138
  148SOL     OW  499   2.261   2.206   4.109  0.0022  0.3052 -0.6319
  148SOL    HW1  500   2.263   2.135   4.045 -0.1186  0.1565 -0.4715
  148SOL    HW2  501   2.214   2.276   4.066  1.2776  0.7878 -1.3068
  149SOL     OW  502   4.330   3.692   1.568  0.3212 -0.0024  0.7756
  149SOL    HW1  503   4.344   3.730   1.482 -0.5198  1.7980  1.3740
  149SOL    HW2  504   4.235   3.677   1.572  0.4713 -0.9419  1.0572
  150SOL     OW  505   2.785   2.085   4.069  0.8740 -0.4451  0.8396
  150SOL    HW1  506   2.753   2.171   4.096 -0.0937 -0.9083  1.2265
  150SOL    HW2  507   2.878   2.098   4.050  0.3192  1.1462 -1.1117
  151SOL     OW  508   1.537   0.425   4.662 -0.3074 -0.3195  0.4733
  151SOL    HW1  509   1.510   0.436   4.571 -2.5141  1.3044  1.2362
  151SOL    HW2  510   1.544   0.331   4.675  1.9967 -0.5716 -1.8470
  152SOL     OW  511   2.249   0.729   1.528  0.0809 -0.2785 -0.4186
  152SOL    HW1  512   2.177   0.777   1.487 -1.4619 -1.8662  0.2874
  152SOL    HW2  513   2.218   0.710   1.617  2.3528  0.9647  0.7139
  153SOL     OW  514   2.847   2.861   0.110  0.6832 -0.0424  0.0535
  153SOL    HW1  515   2.876   2.775   0.140  3.2304  1.4286  2.1802
  153SOL    HW2  516   2.799   2.897   0.185  0.7809  0.8952 -0.3277
  154SOL     OW  517   0.335   3.577   1.752 -0.2188  0.6435  0.1868
  154SOL    HW1  518   0.269   3.513   1.776 -0.7152  1.0603 -0.0584
  154SOL    HW2  519   0.416   3.526   1.745 -0.6996 -0.0498 -0.4750
  155SOL     OW  520   2.328   3.081   0.382  0.1179  0.1360  0.3334
  155SOL    HW1  521   2.378   3.153   0.343 -1.1392  0.0729 -1.5247
  155SOL    HW2  522   2.395   3.021   0.416  1.3894 -0.0134 -2.1875
  156SOL     OW  523   0.035   4.456   1.949  0.5515  0.2325  0.6063
  156SOL    HW1  524  -0.002   4.539   1.918  0.2773  0.0240  0.3797
  156SOL    HW2  525   0.130   4.468   1.940  0.5813  0.9944  1.7653
  157SOL     OW  526   3.198   2.915   0.229 -0.0444  0.5432 -0.3064
  157SOL    HW1  527   3.176   2.881   0.143  1.3571 -2.0351  0.2648
  157SOL    HW2  528   3.293   2.927   0.227 -0.0671  1.0047  0.6915
  158SOL     OW  529   0.392   2.216   2.478  0.2097 -0.3152 -0.0278
  158SOL    HW1  530   0.351   2.234   2.393  0.7807 -1.1854 -0.5039
  158SOL    HW2  531   0.468   2.161   2.456 -0.3016 -1.5436  1.1663
  159SOL     OW  532   4.012   3.690   4.543  0.1334  0.2087 -0.1810
  159SOL    HW1  533   3.918   3.682   4.526  0.0867  0.6541 -0.1395
  159SOL    HW2  534   4.022   3.775   4.585  0.5393  0.1000 -0.0476
  160SOL     OW  535   2.753   2.405   0.961  0.4866 -0.0600 -0.8183
  160SOL    HW1  536   2.780   2.329   0.909 -1.6731 -1.5615  0.1018
  160SOL    HW2  537   2.786   2.387   1.049  1.0797  0.7437 -0.8613
  161SOL     OW  538   2.958   3.054   3.546 -0.0473 -0.3987  0.4347
  161SOL    HW1  539   2.990   3.033   3.459 -1.4396  0.1463 -0.2231
  161SOL    HW2  540   2.864   3.038   3.543 -0.2819  0.5684  1.5319
  162SOL     OW  541   3.775   4.876   0.002 -0.2123  0.3668  0.6845
  162SOL    HW1  542   3.699   4.828   0.033  0.3886  0.2012  1.9755
  162SOL    HW2  543   3.797   4.935   0.074  1.3040 -0.0953  0.6268
  163SOL     OW  544   0.761   4.078   2.115 -0.3997  0.6510 -0.6110
  163SOL    HW1  545   0.765   3.983   2.110 -2.4540  0.4354  0.6164
  163SOL    HW2  546   0.722   4.105   2.031  0.4323  0.4729 -1.0705
  164SOL     OW  547   4.406   2.062   2.339 -0.4578  0.4073 -0.5912
  164SOL    HW1  548   4.470   1.991   2.349 -0.6333 -0.0486 -2.4564
  164SOL    HW2  549   4.455   2.142   2.358  0.1663 -0.0701 -0.1430
  165SOL     OW  550   5.001   4.549   2.809  0.6640 -0.8585 -0.4527
  165SOL    HW1  551   4.947   4.566   2.733 -0.3315  0.6066  0.5421
  165SOL    HW2  552   4.939   4.523   2.878  1.4718 -1.5189  0.0518
  166SOL     OW  553   3.621   2.083   3.696 -0.1428  0.1659  0.5640
  166SOL    HW1  554   3.621   1.995   3.732  0.6195  0.1225  0.4850
  166SOL    HW2  555   3.679   2.133   3.753 -1.5032  0.9408  1.3261
  167SOL     OW  556   0.777   2.300   1.360  0.0023  0.3847 -0.1708
  167SOL    HW1  557   0.798   2.290   1.453  1.8161 -1.9089 -0.7214
  167SOL    HW2  558   0.692   2.344   1.359 -0.0341  0.5587  2.5420
  168SOL     OW  559   4.234   2.673   4.568  0.5214 -0.1691  0.4478
  168SOL    HW1  560   4.289   2.747   4.542  0.0809  0.1316  0.3716
  168SOL    HW2  561   4.168   2.666   4.499 -0.0275 -0.0171  0.9515
  169SOL     OW  562   3.968   1.686   2.736  0.2243 -0.1626  0.0718
  169SOL    HW1  563   4.048   1.738   2.741 -0.0361  0.1555  1.0053
  169SOL    HW2  564   3.938   1.678   2.826 -0.7909 -0.2871 -0.2606
  170SOL     OW  565   0.719   4.402   0.976  0.4713 -0.7254 -0.5202
  170SOL    HW1  566   0.654   4.371   0.913 -1.0807  0.5274  0.3654
  170SOL    HW2  567   0.711   4.344   1.051 -2.8658  1.8466  1.3898
  171SOL     OW  568   4.908   4.527   3.591  0.0181 -0.0782  0.4943
  171SOL    HW1  569   4.834   4.488   3.544  0.8590 -1.4700  0.2679
  171SOL    HW2  570   4.931   4.604   3.539 -0.6366 -0.2159 -0.0074
  172SOL     OW  571   4.378   3.904   4.336 -0.3641 -0.6882  0.0399
  172SOL    HW1  572   4.350   3.855   4.413 -2.4829  1.7777  0.9828
  172SOL    HW2  573   4.464   3.867   4.314 -1.4249 -4.1616  1.0867
  173SOL     OW  574   4.390   2.855   1.782  0.5666 -0.2142 -0.2980
  173SOL    HW1  575   4.390   2.804   1.863  0.7751  1.1822  0.6192
  173SOL    HW2  576   4.311   2.908   1.787  1.5582  1.3125 -0.0310
  174SOL     OW  577   1.634   2.576   2.136  0.0423  0.3226  0.0596
  174SOL    HW1  578   1.707   2.636   2.122  0.0938  0.2334 -0.0517
  174SOL    HW2  579   1.561   2.633   2.163  0.5736  0.2572  1.7703
  175SOL     OW  580   2.273   1.358   4.013  0.4634  0.0080  0.4547
  175SOL    HW1  581   2.367   1.364   3.995  0.4459 -0.4247  0.2311
  175SOL    HW2  582   2.231   1.356   3.927  0.0658  2.7026  0.4932
  176SOL     OW  583   1.758   2.216   3.760  0.4943 -0.3977  0.0487
  176SOL    HW1  584   1.666   2.228   3.781  0.8006  1.9268  0.3899
  176SOL    HW2  585   1.761   2.137   3.706 -1.6827 -0.5309  0.0578
  177SOL     OW  586   2.858   2.267   0.286  0.5385  0.2237 -0.0359
  177SOL    HW1  587   2.822   2.319   0.359 -0.8194 -0.9303  0.1585
  177SOL    HW2  588   2.800   2.191   0.280  1.0115 -0.0239 -1.9302
  178SOL     OW  589   4.618   1.238   1.858 -0.2233 -0.0155  0.1144
  178SOL    HW1  590   4.708   1.204   1.857 -0.6791 -1.3119  0.6798
  178SOL    HW2  591   4.573   1.184   1.923 -1.5696  0.1952 -0.6062
  179SOL     OW  592   3.232   4.264   3.787  0.3536 -0.3305  0.2177
  179SOL    HW1  593   3.150   4.231   3.824 -0.2322 -0.7163 -1.3427
  179SOL    HW2  594   3.295   4.257   3.858 -0.8885 -0.2986  1.3667
  180SOL     OW  595   3.987   0.846   3.659 -0.4673 -0.0615 -0.3467
  180SOL    HW1  596   3.918   0.909   3.677 -0.1225  0.1076  0.4231
  180SOL    HW2  597   3.991   0.792   3.738  0.9081  0.5280  0.0194
  181SOL     OW  598   4.378   2.102   3.762  0.3042  0.1953  0.1763
  181SOL    HW1  599   4.374   2.193   3.790 -1.4630  0.4670 -0.7625
  181SOL    HW2  600   4.392   2.107   3.667 -2.7930 -0.3280 -0.4160
  182SOL     OW  601   0.822   4.081   4.235 -0.0684  0.0423 -0.2513
  182SOL    HW1  602   0.873   4.141   4.181 -0.5498 -0.5238 -1.3549
  182SOL    HW2  603   0.871   3.999   4.232 -0.7805 -0.3633 -0.9140
  183SOL     OW  604   3.811   1.708   0.932 -0.6691  0.2264 -0.0827
  183SOL    HW1  605   3.898   1.727   0.896 -1.4667  2.2685 -1.0019
  183SOL    HW2  606   3.815   1.741   1.022 -0.2497 -0.4523  0.1588
  184SOL     OW  607   4.185   1.375   3.491 -0.0985  0.3899 -0.5913
  184SOL    HW1  608   4.110   1.320   3.469  1.4981 -2.4959  0.5367
  184SOL    HW2  609   4.168   1.403   3.581  0.1085 -0.1604 -0.3790
  185SOL     OW  610   2.870   4.336   4.650  0.0569  0.3596  0.0585
  185SOL    HW1  611   2.797   4.359   4.593  1.1049 -0.5983 -1.7826
  185SOL    HW2  612   2.829   4.306   4.732 -1.6805 -0.9634 -1.2214
  186SOL     OW  613   0.814   3.316   2.076 -0.4524 -0.4541  0.4953
  186SOL    HW1  614   0.747   3.382   2.059 -1.7598 -1.5976  1.0753
  186SOL    HW2  615   0.821   3.267   1.994 -0.0970 -0.1606  0.3439
  187SOL     OW  616   4.660   0.922   2.493 -0.5965  0.0445  0.5270
  187SOL    HW1  617   4.632   0.923   2.585  5.1582 -0.6322  2.7328
  187SOL    HW2  618   4.676   1.015   2.472 -0.0235  0.0607  0.9995
  188SOL     OW  619   2.068   4.308   0.171  0.0818  0.0951  1.0142
  188SOL    HW1  620   1.976   4.329   0.191  0.2361  2.2804 -0.3232
  188SOL    HW2  621   2.102   4.271   0.253 -1.4742  1.0595  2.1573
  189SOL     OW  622   0.794   1.513   0.756  0.3122 -0.1508 -0.0731
  189SOL    HW1  623   0.722   1.512   0.692 -0.9388 -0.0998  1.2720
  189SOL    HW2  624   0.759   1.466   0.832  1.5952  0.1576  0.7406
  190SOL     OW  625   3.539   3.932   3.829  0.2026  0.1381  0.5204
  190SOL    HW1  626   3.590   3.856   3.858  0.0571 -0.9100 -1.7757
  190SOL    HW2  627   3.605   3.993   3.795  0.2117  0.5047  1.1768
  191SOL     OW  628   2.293   2.550   3.437 -0.2997 -0.2183 -0.3227
  191SOL    HW1  629   2.322   2.612   3.371 -0.6384  1.8001  1.3180
  191SOL    HW2  630   2.368   2.492   3.450  0.5624  0.7386 -0.8944
  192SOL     OW  631   2.397   0.969   1.311 -0.0964  0.2707 -0.2614
  192SOL    HW1  632   2.457   1.008   1.248  0.0962 -0.8432 -0.7859
  192SOL    HW2  633   2.362   0.892   1.267 -0.8445  0.1183  0.5673
  193SOL     OW  634   3.909   3.305   1.115 -0.7624  0.1156  0.1250
  193SOL    HW1  635   3.826   3.306   1.163  0.4960 -2.8790  2.7216
  193SOL    HW2  636   3.950   3.388   1.138 -2.5048  1.1788 -0.3541
  194SOL     OW  637   4.480   2.247   2.702 -0.0399  0.2768 -0.2287
  194SOL    HW1  638   4.478   2.340   2.679  0.9770  0.0861 -1.1349
  194SOL    HW2  639   4.506   2.246   2.794 -0.1263  0.8884 -0.1931
  195SOL     OW  640   0.409   1.853   3.655  0.6272 -0.9768 -0.4744
  195SOL    HW1  641   0.485   1.905   3.628  1.3551  0.3813  3.4906
  195SOL    HW2  642   0.446   1.775   3.695  0.1076  0.0024  2.0965
  196SOL     OW  643   2.432   1.909   1.312  0.0477 -0.1908  0.5397
  196SOL    HW1  644   2.506   1.848   1.310 -0.5396 -0.9036 -0.9767
  196SOL    HW2  645   2.469   1.992   1.341  1.3423 -0.6660  0.2809
  197SOL     OW  646   2.196   2.666   0.597 -0.2959  0.4801  0.5153
  197SOL    HW1  647   2.190   2.726   0.672  2.0917  0.2727  0.9438
  197SOL    HW2  648   2.108   2.669   0.558 -1.1271  1.9029  2.2970
  198SOL     OW  649   2.242   1.980   4.514  0.2351 -0.0114  0.1783
  198SOL    HW1  650   2.215   1.971   4.605 -0.1779 -2.1035 -0.0945
  198SOL    HW2  651   2.172   1.938   4.464  1.1214 -0.1505 -0.9956
  199SOL     OW  652   1.829   4.916   1.431 -0.0921 -0.2577  0.3893
  199SOL    HW1  653   1.770   4.855   1.477 -0.1861 -0.0173  0.5873
  199SOL    HW2  654   1.778   4.947   1.356 -0.0991 -0.3016  0.3758
  200SOL     OW  655   1.314   2.902  -0.015 -0.2613 -0.5428 -0.3353
  200SOL    HW1  656   1.407   2.900   0.006 -0.6911 -0.7860  1.8619
  200SOL    HW2  657   1.279   2.974   0.038 -1.4837 -1.2203 -0.1637
  201SOL     OW  658   3.300   1.452   1.406  0.8944 -0.0326  0.0894
  201SOL    HW1  659   3.359   1.527   1.413 -0.1324  0.7004  1.2639
  201SOL    HW2  660   3.224   1.476   1.459  0.5149 -1.8897  0.4588
  202SOL     OW  661   2.681   1.594   1.807  0.2102 -0.2681 -0.4331
  202SOL    HW1  662   2.591   1.608   1.780 -1.0479 -0.7952  2.9834
  202SOL    HW2  663   2.726   1.567   1.727 -2.7678 -0.5303 -2.1703
  203SOL     OW  664   3.364   2.587   2.094 -1.0842 -0.3668  1.0936
  203SOL    HW1  665   3.352   2.613   2.002  0.2784 -1.2333  0.6364
  203SOL    HW2  666   3.429   2.649   2.128  1.8811 -2.6769  0.1087
  204SOL     OW  667   2.738   3.459   2.253 -0.4178  0.3721 -0.1470
  204SOL    HW1  668   2.735   3.443   2.159  0.7871  0.4759 -0.2285
  204SOL    HW2  669   2.703   3.380   2.293  0.9716 -0.5460 -0.6594
  205SOL     OW  670   1.710   2.629   3.858  0.0086  0.6633 -0.1776
  205SOL    HW1  671   1.776   2.564   3.835  0.4866  0.5873  1.3165
  205SOL    HW2  672   1.734   2.659   3.946 -2.5917 -0.2316  0.9597
  206SOL     OW  673   1.786   0.061   1.839  0.0793 -0.3994  0.0311
  206SOL    HW1  674   1.760   0.090   1.752  0.7263  0.8207  0.2203
  206SOL    HW2  675   1.788  -0.035   1.834  1.3057 -0.3102 -1.6342
  207SOL     OW  676   2.913   0.090   0.740  0.3520  0.0804  0.0488
  207SOL    HW1  677   2.833   0.107   0.791  0.9144 -0.3868  1.1216
  207SOL    HW2  678   2.894   0.127   0.654 -0.6213  0.9287  0.5947
  208SOL     OW  679   3.048   1.570   3.913 -0.4028  0.3819  0.6605
  208SOL    HW1  680   2.958   1.571   3.945 -0.0758 -1.8657  1.8143
  208SOL    HW2  681   3.098   1.527   3.982  1.3532  0.4765 -0.4850
  209SOL     OW  682   3.939   0.850   0.737 -0.6885 -0.4738  0.1604
  209SOL    HW1  683   3.957   0.894   0.653  0.9182  2.7117  2.0028
  209SOL    HW2  684   3.845   0.862   0.750 -0.6896  0.3199 -0.5097
  210SOL     OW  685   4.851   1.039   4.472 -1.1652 -0.0005 -0.4860
  210SOL    HW1  686   4.927   1.059   4.527 -1.7289  0.4937  0.1362
  210SOL    HW2  687   4.865   1.088   4.392 -0.1199 -1.0652 -0.9849
  211SOL     OW  688   2.073   3.833   3.971 -0.5351 -0.2793  0.6474
  211SOL    HW1  689   2.140   3.781   3.927 -1.2856  0.6896 -1.8107
  211SOL    HW2  690   1.996   3.827   3.913 -1.0902  2.3358  1.0146
  212SOL     OW  691   4.639   3.444   2.941  1.0447  0.4761  0.1780
  212SOL    HW1  692   4.620   3.350   2.934  0.3363  0.3610  2.7462
  212SOL    HW2  693   4.654   3.472   2.850 -1.2293 -1.5817 -0.9382
  213SOL     OW  694   0.716   1.751   3.197 -0.0757  0.0552 -0.5788
  213SOL    HW1  695   0.726   1.742   3.292  0.1806  3.6418 -0.1333
  213SOL    HW2  696   0.638   1.805   3.186 -1.0306 -1.5721 -2.5820
  214SOL     OW  697   4.152   2.998   1.853 -0.6308 -0.0781  0.2175
  214SOL    HW1  698   4.106   3.032   1.776 -0.8564  0.1524  0.4544
  214SOL    HW2  699   4.087   3.002   1.923 -0.0529  0.8546  0.7026
  215SOL     OW  700   3.115   1.815   4.220 -0.1735 -0.0148  0.0473
  215SOL    HW1  701   3.179   1.811   4.149  0.4245  0.6397  0.5465
  215SOL    HW2  702   3.093   1.723   4.238 -0.0502 -0.2014 -0.7247
  216SOL     OW  703   1.846   3.038   2.764 -0.1455  0.7621  0.1931
  216SOL    HW1  704   1.788   3.093   2.816 -1.9467 -1.5446  0.7866
  216SOL    HW2  705   1.887   2.979   2.827 -1.6121 -1.4116 -0.7461
  217SOL     OW  706   4.808   1.883   2.164  0.3406 -0.1787 -0.2877
  217SOL    HW1  707   4.772   1.961   2.120  1.2764  0.3197 -0.1917
  217SOL    HW2  708   4.732   1.842   2.205 -0.1389  0.8327 -0.1261
  218SOL     OW  709   3.568   3.169   0.413  0.0732  0.1423  0.0280
  218SOL    HW1  710   3.631   3.197   0.480 -0.8699  0.2634  0.8821
  218SOL    HW2  711   3.530   3.251   0.381 -0.9792 -0.0155  0.8402
  219SOL     OW  712   2.434   0.567   3.699  0.0164 -0.0500 -0.0245
  219SOL    HW1  713   2.447   0.609   3.784  1.3655 -0.8536  0.2027
  219SOL    HW2  714   2.348   0.525   3.706  0.2871 -0.4555  1.1061
  220SOL     OW  715   3.146   1.347   2.919 -0.0207  0.2416  0.2804
  220SOL    HW1  716   3.241   1.330   2.922 -0.1351 -0.7850 -0.9000
  220SOL    HW2  717   3.134   1.398   2.839 -0.3581  1.2355  0.9592
  221SOL     OW  718   4.209   0.394   4.591 -0.4070 -0.0450 -0.4279
  221SOL    HW1  719   4.237   0.303   4.584  1.0836  0.2513  0.9644
  221SOL    HW2  720   4.288   0.445   4.570 -0.9821  0.9055 -0.3330
  222SOL     OW  721   1.236   2.190   3.400  0.1562 -0.0256 -0.1803
  222SOL    HW1  722   1.301   2.144   3.347  1.9602  1.2843  0.8025
  222SOL    HW2  723   1.287   2.246   3.458 -1.8326  0.3577  1.3111
  223SOL     OW  724   4.161   3.527   4.147  0.0130  0.1804  0.4223
  223SOL    HW1  725   4.164   3.462   4.217  2.9242  1.2529  1.4124
  223SOL    HW2  726   4.234   3.504   4.090  0.5261  2.0225  0.2961
  224SOL     OW  727   1.099   2.164   1.790  0.0641  0.1445  0.5231
  224SOL    HW1  728   1.101   2.215   1.709  0.6125  1.4601  1.3383
  224SOL    HW2  729   1.067   2.078   1.763 -2.2165  1.2688 -0.6898
  225SOL     OW  730   1.425   2.601   1.050 -0.0332 -0.2212 -0.2597
  225SOL    HW1  731   1.516   2.596   1.020  0.5623 -3.4368  1.6459
  225SOL    HW2  732   1.430   2.649   1.133 -0.4132  1.2020 -1.0262
  226SOL     OW  733   3.655   3.880   1.695 -0.0483 -0.1777 -0.3046
  226SOL    HW1  734   3.644   3.973   1.676  0.5935 -0.1783 -0.7165
  226SOL    HW2  735   3.747   3.862   1.676  0.1216 -0.6368  0.8946
  227SOL     OW  736   2.562   0.332   0.706 -0.0374 -0.3777 -0.1556
  227SOL    HW1  737   2.530   0.344   0.796 -0.1358  1.3648 -0.3897
  227SOL    HW2  738   2.616   0.410   0.689  0.9718 -1.2594 -1.2071
  228SOL     OW  739   1.816   4.279   1.058 -0.0067  0.2401 -0.8169
  228SOL    HW1  740   1.774   4.272   1.143 -2.2163 -0.2538 -1.8707
  228SOL    HW2  741   1.887   4.215   1.061  0.4683  0.7840  0.8758
  229SOL     OW  742   4.869   4.634   2.168 -0.1440  0.0313  0.4272
  229SOL    HW1  743   4.940   4.577   2.198  1.9058  1.3933 -1.4587
  229SOL    HW2  744   4.865   4.619   2.073 -4.0317 -1.6577  0.6740
  230SOL     OW  745   1.855   1.566   2.247  0.7128 -0.3666  0.1470
  230SOL    HW1  746   1.925   1.550   2.184  1.1680 -0.1944  0.6048
  230SOL    HW2  747   1.881   1.647   2.292 -0.2826  0.2824 -0.3824
  231SOL     OW  748   4.350   0.520   2.731  0.2600 -0.4034  0.2868
  231SOL    HW1  749   4.330   0.603   2.775 -1.2136 -1.2642  1.3619
  231SOL    HW2  750   4.322   0.453   2.794  2.5009 -1.7588 -0.0389
  232SOL     OW  751   0.028   2.193   3.433  0.5147 -0.1114  0.2609
  232SOL    HW1  752   0.024   2.218   3.525 -1.8717  0.1691  0.1462
  232SOL    HW2  753   0.113   2.227   3.402 -0.7587  4.4904  1.0955
  233SOL     OW  754   1.299   0.177   4.892 -0.3667 -0.8211  0.1445
  233SOL    HW1  755   1.357   0.137   4.957  2.6652 -1.3519 -2.6412
  233SOL    HW2  756   1.311   0.272   4.904  0.4098 -0.9174  0.1698
  234SOL     OW  757   1.344   2.133   1.251  0.2641 -0.6920 -0.3246
  234SOL    HW1  758   1.383   2.207   1.203 -4.2125  1.9197 -0.4204
  234SOL    HW2  759   1.373   2.145   1.341  1.1172 -0.0245 -0.6672
  235SOL     OW  760   1.269   2.452   4.794  0.0336  0.6180 -0.2399
  235SOL    HW1  761   1.355   2.491   4.809  0.6554  0.3994 -2.7554
  235SOL    HW2  762   1.288   2.360   4.773 -0.8835  0.3768 -0.0652
  236SOL     OW  763   4.591   0.241   1.508  0.0186 -0.1401  0.1247
  236SOL    HW1  764   4.674   0.285   1.490  0.5629 -1.0907  0.2648
  236SOL    HW2  765   4.524   0.309   1.494  0.9296  1.3957  2.5671
  237SOL     OW  766   1.837   3.272   0.621 -0.5835  0.2205  0.2257
  237SOL    HW1  767   1.797   3.308   0.700 -0.3711  1.8865 -0.3884
  237SOL    HW2  768   1.865   3.348   0.571  0.0788 -0.8192 -1.0623
  238SOL     OW  769   3.635   2.723   1.521 -0.0038  0.4261  0.9165
  238SOL    HW1  770   3.621   2.648   1.463  0.6082  1.4596 -0.6131
  238SOL    HW2  771   3.571   2.788   1.493  0.4808  1.0438  1.2033
  239SOL     OW  772   2.124   1.306   1.188 -0.4593  0.2318  0.2507
  239SOL    HW1  773   2.135   1.251   1.111 -1.6270  0.1992  0.0787
  239SOL    HW2  774   2.114   1.244   1.261 -0.8875  0.2198  0.1876
  240SOL     OW  775   0.053   3.185   3.898  0.7123  0.4525 -0.1168
  240SOL    HW1  776  -0.000   3.107   3.884  2.0698 -0.7348  1.0836
  240SOL    HW2  777   0.024   3.219   3.983  1.5451  0.0435  0.3414
  241SOL     OW  778   2.818   4.797   2.276 -0.3610 -0.1137  0.5159
  241SOL    HW1  779   2.807   4.867   2.212 -0.5450  0.6478  1.3599
  241SOL    HW2  780   2.833   4.718   2.223 -1.6227  0.2847 -0.4843
  242SOL     OW  781   2.950   2.757   0.584 -0.3337 -0.2147  0.0452
  242SOL    HW1  782   2.991   2.717   0.507  1.3207  1.7372 -0.1829
  242SOL    HW2  783   2.961   2.692   0.653  0.9223 -0.7795 -0.6459
  243SOL     OW  784   1.929   3.090   3.814 -0.4596 -0.0185  0.1426
  243SOL    HW1  785   1.856   3.073   3.873  0.4765  1.0983  1.7020
  243SOL    HW2  786   2.007   3.064   3.863  0.2078 -2.1023 -1.8372
  244SOL     OW  787   4.932   0.474   1.272 -0.3110  0.3405 -0.2731
  244SOL    HW1  788   4.838   0.490   1.279 -0.0434  1.9883 -0.1595
  244SOL    HW2  789   4.950   0.478   1.178 -0.0653  1.9534 -0.1798
  245SOL     OW  790   0.602   1.955   2.729  0.5008  0.1811  0.1792
  245SOL    HW1  791   0.627   2.004   2.807 -2.1665 -0.7611  1.7678
  245SOL    HW2  792   0.508   1.938   2.740 -0.1022  0.2727 -3.4179
  246SOL     OW  793   0.056   1.025   4.173  0.4499  0.0414  0.1059
  246SOL    HW1  794   0.111   1.029   4.252  0.1219 -0.6620  0.3834
  246SOL    HW2  795  -0.002   1.101   4.180  2.2656  1.6128 -0.8918
  247SOL     OW  796   2.445   4.028   2.458 -0.3540  0.1555  0.2026
  247SOL    HW1  797   2.492   4.106   2.487 -1.3681  0.4939  1.0122
  247SOL    HW2  798   2.395   4.057   2.382 -1.2398  0.4989  0.8919
  248SOL     OW  799   0.462   1.252   2.060  0.4475 -0.1305  0.5900
  248SOL    HW1  800   0.462   1.300   1.977 -0.8235 -0.7747  0.1946
  248SOL    HW2  801   0.482   1.162   2.035  0.0072 -0.3373  0.9691
  249SOL     OW  802   0.557   3.463   2.587  0.8610  0.3856 -0.6895
  249SOL    HW1  803   0.497   3.528   2.551 -1.3343  0.2930  2.4144
  249SOL    HW2  804   0.520   3.379   2.562  0.6060  0.3307 -0.1354
  250SOL     OW  805   0.454   0.771   0.337  0.0469  0.2695  0.3441
  250SOL    HW1  806   0.545   0.753   0.316  0.3718  0.3576  1.5932
  250SOL    HW2  807   0.422   0.690   0.377 -1.0002 -0.4327 -1.7610
  251SOL     OW  808   0.883   0.177   2.281  0.1387  0.6209  0.3843
  251SOL    HW1  809   0.907   0.239   2.212  0.1514 -0.5476 -0.6859
  251SOL    HW2  810   0.792   0.154   2.263  0.7826 -1.3991 -0.6549
  252SOL     OW  811   0.059   1.176   4.604 -0.1780  0.4719 -0.0736
  252SOL    HW1  812   0.070   1.120   4.681  0.7367 -0.6613 -0.9791
  252SOL    HW2  813   0.031   1.260   4.639 -2.3784 -0.7275  1.3076
  253SOL     OW  814   4.729   0.140   1.930  0.7986 -0.6437  0.1717
  253SOL    HW1  815   4.719   0.233   1.908  0.3641 -1.0332 -1.4471
  253SOL    HW2  816   4.814   0.116   1.893  1.1914 -0.7567  1.1299
  254SOL     OW  817   0.863   0.570   2.586  0.7301  0.1498  0.3361
  254SOL    HW1  818   0.929   0.504   2.564  2.6123  2.0849 -0.3043
  254SOL    HW2  819   0.863   0.574   2.681 -0.5103 -1.7625  0.4470
  255SOL     OW  820   2.478   0.788   2.673 -0.1613 -0.0404  0.2123
  255SOL    HW1  821   2.510   0.858   2.616  0.1133 -0.9041 -0.7232
  255SOL    HW2  822   2.538   0.788   2.747  1.1833 -0.6888 -0.8286
  256SOL     OW  823   3.930   3.491   3.309  0.4646 -0.3601  0.3189
  256SOL    HW1  824   3.860   3.432   3.338  1.6208 -1.9817 -0.0896
  256SOL    HW2  825   3.950   3.544   3.387 -2.0383  1.0499  0.1034
  257SOL     OW  826   3.547   2.677   3.143  0.3774 -0.4386 -1.1186
  257SOL    HW1  827   3.534   2.582   3.136 -0.7781 -0.4342  0.3374
  257SOL    HW2  828   3.466   2.715   3.108  0.1430 -0.0585 -0.1923
  258SOL     OW  829   1.969   4.407   2.812  0.1897 -0.4153  0.0764
  258SOL    HW1  830   1.930   4.387   2.727 -2.0629  0.1026  0.9337
  258SOL    HW2  831   1.925   4.349   2.873  0.8303  0.1365  1.0911
  259SOL     OW  832   4.486   4.789   2.619  0.0927 -0.4981  0.4378
  259SOL    HW1  833   4.398   4.754   2.606 -0.4800  1.0029  0.0349
  259SOL    HW2  834   4.542   4.735   2.564 -0.4468 -1.8853  1.1893
  260SOL     OW  835   1.832   3.841   0.214  0.2346 -0.1661 -0.0025
  260SOL    HW1  836   1.814   3.765   0.159 -0.1864 -0.2947  0.3060
  260SOL    HW2  837   1.889   3.897   0.160  0.1555 -0.4734 -0.4115
  261SOL     OW  838   4.708   2.952   0.877  0.1446 -0.8110  0.0576
  261SOL    HW1  839   4.644   3.010   0.835  0.6755  0.5336  1.0421
  261SOL    HW2  840   4.661   2.915   0.952  0.0230 -1.1456 -0.1773
  262SOL     OW  841   2.946   1.691   1.226 -0.5897  0.2791 -0.1069
  262SOL    HW1  842   2.951   1.597   1.244 -0.7556  0.2435 -0.2503
  262SOL    HW2  843   3.010   1.729   1.286 -0.5929  0.0846  0.0244
  263SOL     OW  844   3.584   1.234   0.703 -0.2269  0.3509  0.3749
  263SOL    HW1  845   3.576   1.325   0.672 -1.0324  0.6986  1.5632
  263SOL    HW2  846   3.664   1.234   0.755  1.3473 -0.3260 -1.8815
  264SOL     OW  847   0.810   4.463   2.758 -0.1644  0.0326  0.8250
  264SOL    HW1  848   0.819   4.416   2.676 -0.6808  0.9683  0.2186
  264SOL    HW2  849   0.728   4.511   2.750  0.9204  2.0459  0.8747
  265SOL     OW  850   2.515   2.744   1.243 -0.6440 -0.1905 -0.2278
  265SOL    HW1  851   2.599   2.704   1.217 -0.3547 -0.2765  0.7906
  265SOL    HW2  852   2.532   2.780   1.330 -1.6586 -0.1737 -0.0267
  266SOL     OW  853   2.987   0.693   4.249  0.1540 -0.2898  0.3515
  266SOL    HW1  854   3.081   0.676   4.241  0.5220  1.6249  0.2187
  266SOL    HW2  855   2.960   0.717   4.161 -1.1500 -3.6418 -0.3057
  267SOL     OW  856   1.193   1.707   4.140 -0.2054  0.1762 -0.2835
  267SOL    HW1  857   1.278   1.705   4.184 -0.0342 -1.9006 -0.5720
  267SOL    HW2  858   1.170   1.799   4.136  1.6316  0.7289  0.5686
  268SOL     OW  859   2.868   3.876   1.802 -0.2653 -0.2790 -0.1652
  268SOL    HW1  860   2.914   3.959   1.792 -0.2816 -0.2823 -0.2688
  268SOL    HW2  861   2.777   3.897   1.784 -0.4611 -0.0760  0.9622
  269SOL     OW  862   0.490   1.215   3.487 -0.1738  0.3948 -0.4502
  269SOL    HW1  863   0.462   1.274   3.417 -0.7870  0.3846 -0.2278
  269SOL    HW2  864   0.546   1.151   3.444 -0.6808  0.2910 -0.9717
  270SOL     OW  865   4.272   0.561   0.508 -0.1461 -0.1574  0.1273
  270SOL    HW1  866   4.223   0.601   0.580  0.9419  0.3830  0.5967
  270SOL    HW2  867   4.292   0.633   0.449  1.7706  0.0384  0.9434
  271SOL     OW  868   1.916   3.956   2.558  0.3215  0.1828 -0.8490
  271SOL    HW1  869   1.828   3.927   2.532  0.2993  0.0600 -0.6356
  271SOL    HW2  870   1.901   4.014   2.633  0.4875 -0.5668 -0.2282
  272SOL     OW  871   4.542   2.653   4.235  0.0906  0.3083 -0.2797
  272SOL    HW1  872   4.582   2.730   4.276  0.1235 -0.1418  0.5571
  272SOL    HW2  873   4.615   2.607   4.193 -0.1779  1.6676 -2.3989
  273SOL     OW  874   2.647   2.912   1.639 -0.2581  0.0359 -0.1692
  273SOL    HW1  875   2.732   2.890   1.676 -0.6952  1.5314  1.9008
  273SOL    HW2  876   2.657   3.003   1.610 -1.0868  0.1630 -0.0816
  274SOL     OW  877   4.926   2.551   4.960  0.1474 -0.2557  0.5167
  274SOL    HW1  878   4.961   2.629   5.003  0.5078  0.8038 -1.5653
  274SOL    HW2  879   5.000   2.518   4.908 -1.0776  0.4059 -1.7715
  275SOL     OW  880   4.088   3.196   2.397 -0.1169 -0.2246  0.6261
  275SOL    HW1  881   4.122   3.225   2.482 -2.2018  2.3601  0.6817
  275SOL    HW2  882   4.117   3.263   2.335  1.6537 -2.2330 -0.8988
  276SOL     OW  883   4.396   2.958   0.311  0.2426 -0.6724 -0.3709
  276SOL    HW1  884   4.412   2.872   0.272 -0.1775 -1.8414  1.8452
  276SOL    HW2  885   4.468   2.970   0.373  1.1502  1.3319 -1.7210
  277SOL     OW  886   1.869   1.033   3.208  0.2208  0.2280 -0.9362
  277SOL    HW1  887   1.902   0.964   3.151 -1.7653 -1.0584 -0.6329
  277SOL    HW2  888   1.855   1.107   3.149  2.0216  0.2841 -1.3358
  278SOL     OW  889   1.545   1.406   2.568  0.1846  0.7878  0.2345
  278SOL    HW1  890   1.584   1.333   2.519  0.8101  1.0090  0.3924
  278SOL    HW2  891   1.494   1.364   2.636  0.1010  0.4868 -0.0093
  279SOL     OW  892   0.176   0.829   3.981  0.1950 -0.2478 -0.3160
  279SOL    HW1  893   0.223   0.756   4.021 -0.3113 -0.4179 -0.0282
  279SOL    HW2  894   0.146   0.882   4.054  0.1646  0.0071 -0.5094
  280SOL     OW  895   0.573   4.110   4.908 -0.4163  0.1140 -0.4554
  280SOL    HW1  896   0.657   4.154   4.894 -1.0996  2.0724  1.1209
  280SOL    HW2  897   0.591   4.018   4.889  1.9258  0.5722 -0.7834
  281SOL     OW  898   2.111   3.016   1.700  0.1067 -0.4815  0.0313
  281SOL    HW1  899   2.140   2.936   1.744  1.9002 -0.1138 -0.3774
  281SOL    HW2  900   2.188   3.073   1.701 -0.6718  0.6471 -1.0209
  282SOL     OW  901   2.998   0.054   1.686 -0.1218  0.0422 -0.2511
  282SOL    HW1  902   2.930   0.047   1.619 -0.0659  0.0474 -0.3082
  282SOL    HW2  903   3.020   0.147   1.688 -0.9781  0.2456  0.6175
  283SOL     OW  904   4.079   4.497   4.495  0.3031  0.1445  0.3058
  283SOL    HW1  905   4.154   4.496   4.435  1.8986  0.8644  2.1852
  283SOL    HW2  906   4.096   4.571   4.554 -1.8361  0.2480  0.8944
  284SOL     OW  907   3.584   3.164   3.588  0.5048 -0.0045 -0.2732
  284SOL    HW1  908   3.489   3.159   3.594  0.5121  1.1160  1.4173
  284SOL    HW2  909   3.606   3.251   3.623  2.1736 -0.3609 -0.3427
  285SOL     OW  910   3.195   3.611   3.850  0.2691 -0.4197  0.2225
  285SOL    HW1  911   3.290   3.606   3.856  0.4278 -0.0998 -1.4085
  285SOL    HW2  912   3.166   3.520   3.846  0.3729 -0.5602  1.8569
  286SOL     OW  913   1.246   1.612   2.101 -0.3804  0.5845 -0.0538
  286SOL    HW1  914   1.275   1.526   2.131 -1.5494 -0.1169 -0.8700
  286SOL    HW2  915   1.268   1.671   2.174 -1.2317 -0.7043  1.3005
  287SOL     OW  916   3.894   3.363   2.773  0.3245  0.4314 -0.2334
  287SOL    HW1  917   3.899   3.416   2.853 -1.5339  0.1525  0.0965
  287SOL    HW2  918   3.801   3.359   2.751  0.5260 -1.6223 -0.9914
  288SOL     OW  919   1.241   3.747   3.749 -0.0105 -0.2994 -0.1508
  288SOL    HW1  920   1.218   3.834   3.717  1.1481  0.3222  0.5996
  288SOL    HW2  921   1.314   3.719   3.693  0.1242 -0.4477  0.0952
  289SOL     OW  922   4.860   2.873   0.447 -0.0581 -0.1337 -0.6228
  289SOL    HW1  923   4.767   2.861   0.462  0.2477 -0.1458  1.6014
  289SOL    HW2  924   4.899   2.788   0.467  0.5709  0.2855 -0.0349
  290SOL     OW  925   4.846   2.106   4.051  0.6455 -0.1919 -0.0065
  290SOL    HW1  926   4.796   2.067   4.124 -0.7972 -2.0508 -1.8614
  290SOL    HW2  927   4.819   2.198   4.050 -0.6371 -0.5327  0.7660
  291SOL     OW  928   2.553   0.664   2.196 -0.3910 -0.7154  0.2625
  291SOL    HW1  929   2.460   0.685   2.203  0.3537  2.6246  2.6484
  291SOL    HW2  930   2.569   0.608   2.272 -0.0840  0.7842  1.3557
  292SOL     OW  931   2.821   2.389   3.955  0.1165 -0.1054  0.0824
  292SOL    HW1  932   2.896   2.448   3.948  0.1528 -0.1757 -0.1349
  292SOL    HW2  933   2.774   2.418   4.033  0.2561  0.0696  0.1007
  293SOL     OW  934   4.981   1.694   2.809 -0.0443 -0.4351 -0.7425
  293SOL    HW1  935   4.929   1.639   2.867 -0.4073  0.7760  0.1042
  293SOL    HW2  936   4.917   1.745   2.760  0.3127  0.0308 -0.7282
  294SOL     OW  937   1.403   1.857   1.321  0.1377 -0.2511  0.1431
  294SOL    HW1  938   1.343   1.834   1.392  1.3605 -0.6637  1.0879
  294SOL    HW2  939   1.382   1.947   1.300 -1.6242 -0.7615 -0.4009
  295SOL     OW  940   4.374   0.791   2.547  0.2058  0.6162 -0.1099
  295SOL    HW1  941   4.446   0.853   2.559  0.5941 -0.0291  1.0254
  295SOL    HW2  942   4.296   0.840   2.575  0.3050  1.0410 -0.5532
  296SOL     OW  943   0.479   2.230   3.833  0.5681  0.4998 -0.0889
  296SOL    HW1  944   0.535   2.164   3.872 -0.3782 -0.1831  0.1627
  296SOL    HW2  945   0.391   2.208   3.864  0.1048  1.3005 -0.7801
  297SOL     OW  946   4.179   4.337   0.495 -0.0588 -0.5679  0.3693
  297SOL    HW1  947   4.200   4.245   0.484  0.4129 -0.3840 -0.3525
  297SOL    HW2  948   4.131   4.360   0.415 -0.0263 -0.1491  0.4689
  298SOL     OW  949   4.045   1.103   3.818 -0.2201  0.6203 -0.4430
  298SOL    HW1  950   4.117   1.041   3.805 -1.0890 -1.1384  2.2795
  298SOL    HW2  951   3.971   1.064   3.771 -0.9480 -0.9090  1.8168
  299SOL     OW  952   0.785   0.203   1.217  0.3011 -0.3097  0.4921
  299SOL    HW1  953   0.691   0.218   1.211  0.2767  0.1509  1.7126
  299SOL    HW2  954   0.793   0.110   1.240  0.0859 -0.0964  1.4701
  300SOL     OW  955   1.023   0.487   3.947 -0.3606 -0.1957  0.5256
  300SOL    HW1  956   1.051   0.513   4.035  1.8337  0.5085 -0.3075
  300SOL    HW2  957   0.997   0.396   3.956  0.9914 -0.5113  1.7107
  301SOL     OW  958   1.285   0.247   1.914 -0.2092  0.1993  0.0155
  301SOL    HW1  959   1.302   0.264   2.007 -0.3866  1.3924 -0.1561
  301SOL    HW2  960   1.358   0.288   1.868 -1.6782  2.3514 -0.5274
  302SOL     OW  961   1.712   0.997   1.576 -0.1710 -0.0747 -0.3660
  302SOL    HW1  962   1.716   1.046   1.494  1.7720  0.1049 -0.2064
  302SOL    HW2  963   1.659   0.919   1.555  0.0693  0.0990 -1.7103
  303SOL     OW  964   2.932   1.208   0.510 -0.0974  0.3677  0.3036
  303SOL    HW1  965   2.864   1.172   0.453  0.6722 -2.5003  1.0367
  303SOL    HW2  966   3.005   1.228   0.451  0.1402 -1.1395  0.0529
  304SOL     OW  967   3.568   3.638   4.347  0.3448  0.4872  0.0172
  304SOL    HW1  968   3.636   3.642   4.414  0.5552  0.0110 -0.1609
  304SOL    HW2  969   3.614   3.660   4.266  0.5121 -0.7960 -0.2568
  305SOL     OW  970   2.030   3.642   1.946  0.1788 -0.4612  0.0276
  305SOL    HW1  971   2.057   3.558   1.982 -1.9529 -0.8051  1.0011
  305SOL    HW2  972   1.947   3.623   1.902  0.2882  0.9058 -0.8213
  306SOL     OW  973   2.303   4.241   1.061 -0.7154 -0.1991 -0.3385
  306SOL    HW1  974   2.322   4.148   1.045  0.7688  0.1429 -0.7469
  306SOL    HW2  975   2.303   4.250   1.156 -1.9502 -0.7983 -0.2553
  307SOL     OW  976   3.375   2.489   4.025 -0.5338 -0.0188 -0.8209
  307SOL    HW1  977   3.335   2.415   4.070 -2.5078 -0.0963 -2.5514
  307SOL    HW2  978   3.360   2.564   4.082 -0.2447 -0.6035  0.0386
  308SOL     OW  979   3.987   4.821   3.150  0.5212  0.1595 -0.0240
  308SOL    HW1  980   4.036   4.862   3.221  0.0664 -2.2280  1.8152
  308SOL    HW2  981   3.897   4.815   3.184  0.1937 -0.6256 -0.9877
  309SOL     OW  982   4.810   3.810   2.940 -0.5276 -0.1492 -0.1594
  309SOL    HW1  983   4.881   3.845   2.994  0.2365 -2.0618  0.1505
  309SOL    HW2  984   4.761   3.753   2.999 -0.6695 -0.9840 -1.0661
  310SOL     OW  985   0.855   1.500   3.211 -0.7899  0.4238 -0.0624
  310SOL    HW1  986   0.907   1.526   3.135  0.9232 -0.6159  0.6874
  310SOL    HW2  987   0.788   1.568   3.219  1.1407  2.4852 -0.4420
  311SOL     OW  988   0.428   3.635   2.414 -0.5922 -0.6609 -0.4341
  311SOL    HW1  989   0.338   3.605   2.403 -0.5639 -0.7610 -0.3870
  311SOL    HW2  990   0.419   3.728   2.437 -0.6793 -0.6462 -0.5279
  312SOL     OW  991   1.484   2.283   0.745 -0.2821 -0.0622 -0.4462
  312SOL    HW1  992   1.481   2.211   0.807  0.9991  0.3499  0.1144
  312SOL    HW2  993   1.411   2.340   0.771 -0.9055 -0.8098 -0.5020
  313SOL     OW  994   2.284   2.904   1.258 -0.0160  0.0632  0.1529
  313SOL    HW1  995   2.313   2.988   1.294  1.0813 -1.2813  2.6723
  313SOL    HW2  996   2.365   2.859   1.233 -0.1149 -1.7985  2.7240
  314SOL     OW  997   0.836   1.159   0.026 -0.3153 -0.0107  0.3444
  314SOL    HW1  998   0.838   1.191   0.116  0.0504 -0.0589  0.3565
  314SOL    HW2  999   0.749   1.122   0.015  0.5056 -2.5150  1.5608
  315SOL     OW 1000   3.277   2.771   2.811 -0.3253 -0.1466  0.1075
  315SOL    HW1 1001   3.302   2.694   2.759 -0.8580  0.2616 -0.7828
  315SOL    HW2 1002   3.296   2.746   2.901  2.0318 -0.3342 -0.3796
  316SOL     OW 1003   4.057   3.635   1.562 -0.4670  0.0118 -0.1770
  316SOL    HW1 1004   4.033   3.575   1.633  0.5815 -0.0942  0.0981
  316SOL    HW2 1005   4.022   3.720   1.589  0.7932  0.1908  0.9713
  317SOL     OW 1006   0.799   1.294   1.097  0.5105 -0.5367 -0.0386
  317SOL    HW1 1007   0.843   1.232   1.040  0.0262 -1.7369  0.8577
  317SOL    HW2 1008   0.843   1.286   1.181  0.1285 -0.0123  0.2237
  318SOL     OW 1009   2.916   2.335   4.237 -0.1609  0.4325 -0.3189
  318SOL    HW1 1010   2.929   2.298   4.324 -1.6312  1.8365  0.5518
  318SOL    HW2 1011   2.842   2.396   4.247 -2.5845 -1.6984 -3.2136
  319SOL     OW 1012   0.542   3.195   4.741  0.2939 -0.7939  0.5170
  319SOL    HW1 1013   0.568   3.163   4.654 -1.0460  1.1942 -0.7152
  319SOL    HW2 1014   0.448   3.178   4.745 -0.3063  1.9209  0.1695
  320SOL     OW 1015   1.926   2.659   1.473  0.0318 -0.2029 -0.2970
  320SOL    HW1 1016   1.972   2.603   1.535 -0.2924  1.2715  1.3691
  320SOL    HW2 1017   1.992   2.723   1.445  0.4181 -1.3764 -2.2237
  321SOL     OW 1018   0.474   1.661   2.694 -0.2228 -0.3055 -0.1969
  321SOL    HW1 1019   0.539   1.679   2.627  0.7681  0.4594  0.9423
  321SOL    HW2 1020   0.390   1.666   2.647  0.5031 -2.2527 -1.8959
  322SOL     OW 1021   1.820   0.756   1.650 -0.1499  0.4684  0.5442
  322SOL    HW1 1022   1.810   0.813   1.727  2.1475  1.2971  0.3103
  322SOL    HW2 1023   1.745   0.697   1.654 -0.4531  0.9036  3.0649
  323SOL     OW 1024   2.894   3.198   0.834  0.7010  0.5363  0.3032
  323SOL    HW1 1025   2.800   3.213   0.827  0.6310  0.9627  1.8750
  323SOL    HW2 1026   2.905   3.104   0.822 -0.0969  0.2659  1.5804
  324SOL     OW 1027   0.972   0.763   2.355 -0.1314  0.2045  0.8082
  324SOL    HW1 1028   0.960   0.858   2.355 -0.9385  0.1172  1.7397
  324SOL    HW2 1029   0.965   0.737   2.447  0.7548 -0.6879  0.6510
  325SOL     OW 1030   4.027   4.762   1.237 -0.2323 -0.6426 -0.1159
  325SOL    HW1 1031   4.013   4.728   1.325 -1.1316  0.2333  0.1076
  325SOL    HW2 1032   3.969   4.709   1.182 -0.9084 -0.1301  0.0840
  326SOL     OW 1033   1.218   4.752   0.108 -0.0309 -0.1505 -0.3272
  326SOL    HW1 1034   1.276   4.765   0.033  0.6898  1.5826  0.4705
  326SOL    HW2 1035   1.259   4.680   0.157  0.7977  0.2591 -0.3926
  327SOL     OW 1036   1.869   2.163   0.856  0.3580 -0.0108  0.1238
  327SOL    HW1 1037   1.880   2.210   0.939 -1.8255  0.6996  0.0744
  327SOL    HW2 1038   1.825   2.082   0.881 -1.9584  0.9796 -0.4274
  328SOL     OW 1039   0.301   3.808   1.246 -0.3079 -0.1063 -0.5271
  328SOL    HW1 1040   0.291   3.784   1.154 -0.0656  0.7233 -0.7821
  328SOL    HW2 1041   0.395   3.798   1.263 -0.3768 -0.4031 -0.3333
  329SOL     OW 1042   2.787   1.112   0.233 -0.1228 -0.3564 -0.5063
  329SOL    HW1 1043   2.869   1.159   0.217  0.1466 -0.3602  0.7735
  329SOL    HW2 1044   2.720   1.180   0.231 -0.1007 -0.3442 -1.4999
  330SOL     OW 1045   4.651   4.192   4.515  0.0084 -0.4209 -0.1630
  330SOL    HW1 1046   4.600   4.208   4.594 -1.5213 -0.2417 -1.1472
  330SOL    HW2 1047   4.648   4.097   4.502 -1.3342 -0.2907 -0.9910
  331SOL     OW 1048   0.264   0.286   1.960 -0.4728 -0.2528 -0.5791
  331SOL    HW1 1049   0.353   0.292   1.995 -0.9195 -0.4862  0.6169
  331SOL    HW2 1050   0.222   0.216   2.010 -1.5243  0.2694 -0.6922
  332SOL     OW 1051   4.641   3.513   3.910  0.0089  0.0575 -0.7150
  332SOL    HW1 1052   4.561   3.474   3.874  0.5548 -0.7233 -1.1053
  332SOL    HW2 1053   4.624   3.607   3.910 -0.3838  0.0151 -2.1286
  333SOL     OW 1054   0.458   1.589   4.044 -0.5375  0.0653  0.1425
  333SOL    HW1 1055   0.442   1.513   4.100  1.0887 -0.7037 -0.3806
  333SOL    HW2 1056   0.392   1.582   3.975 -1.4949  0.1044  1.0297
  334SOL     OW 1057   3.189   3.628   0.900  0.0818  0.2541  0.8876
  334SOL    HW1 1058   3.094   3.633   0.907  0.1851  2.0101  1.4788
  334SOL    HW2 1059   3.205   3.544   0.857 -1.6629 -0.7085  1.9847
  335SOL     OW 1060   1.637   3.123   1.843  0.2232 -0.0952  0.1403
  335SOL    HW1 1061   1.641   3.140   1.938  0.5532 -1.4757  0.3869
  335SOL    HW2 1062   1.714   3.070   1.825  0.3392  0.4347 -0.9793
  336SOL     OW 1063   2.660   3.252   2.950  0.2978 -0.5736 -0.5813
  336SOL    HW1 1064   2.586   3.193   2.963  0.0085 -0.5253 -1.8348
  336SOL    HW2 1065   2.624   3.325   2.898  0.7450  0.5069  0.5734
  337SOL     OW 1066   1.628   4.901   1.250 -0.3486 -0.9006 -0.3481
  337SOL    HW1 1067   1.557   4.965   1.253 -0.7107 -1.3438  2.3311
  337SOL    HW2 1068   1.584   4.816   1.251  0.1785 -1.1771  1.3323
  338SOL     OW 1069   1.274   1.262   2.279  0.5288  0.3546 -0.0364
  338SOL    HW1 1070   1.240   1.217   2.356  2.3974  0.1906  0.7668
  338SOL    HW2 1071   1.296   1.192   2.218  0.8071  0.3386  0.0759
  339SOL     OW 1072   4.175   0.548   0.976  0.0634  0.3076  0.1607
  339SOL    HW1 1073   4.224   0.610   1.031 -0.9381  3.3699 -2.1095
  339SOL    HW2 1074   4.083   0.562   0.999 -0.2413  0.2877 -0.9762
  340SOL     OW 1075   1.627   1.764   4.529 -0.2377  0.6983 -0.2827
  340SOL    HW1 1076   1.616   1.834   4.464  1.6071  0.6523 -0.7253
  340SOL    HW2 1077   1.706   1.718   4.500  1.2766  1.2878  2.4989
  341SOL     OW 1078   3.115  -0.021   0.648 -0.3992 -0.4241  0.2939
  341SOL    HW1 1079   3.156   0.066   0.643 -1.6233  0.1509 -0.4719
  341SOL    HW2 1080   3.037  -0.007   0.702 -0.8975 -0.9047 -0.2859
  342SOL     OW 1081   3.684   0.061   4.734 -0.3912  0.0048  0.0393
  342SOL    HW1 1082   3.685  -0.015   4.792  1.5099 -1.1881 -1.4259
  342SOL    HW2 1083   3.635   0.033   4.657  1.5139 -0.3014 -1.1192
  343SOL     OW 1084   0.450   4.428   2.798  0.2949 -0.5880 -0.9670
  343SOL    HW1 1085   0.362   4.396   2.782  0.5893 -1.8858 -0.1353
  343SOL    HW2 1086   0.446   4.466   2.886  0.4340 -0.1580 -1.1462
  344SOL     OW 1087   1.639   4.570   4.529 -0.1723 -0.1935  0.2845
  344SOL    HW1 1088   1.571   4.612   4.582 -2.1740  1.4224 -3.1641
  344SOL    HW2 1089   1.706   4.638   4.518 -0.0918 -0.2852  0.2059
  345SOL     OW 1090   3.486   4.958   4.029 -0.0315 -0.0885  0.3388
  345SOL    HW1 1091   3.567   4.982   3.983  0.1445 -1.1012  0.1008
  345SOL    HW2 1092   3.510   4.960   4.121  1.2532 -3.4865  0.2364
  346SOL     OW 1093   0.313   0.416   3.961 -0.5802 -0.2607  0.8004
  346SOL    HW1 1094   0.359   0.369   3.892  1.5125 -0.0928  1.9902
  346SOL    HW2 1095   0.220   0.401   3.943 -0.0609 -1.4373 -1.1617
  347SOL     OW 1096   2.442   3.096   3.719 -0.1414  0.1365  1.1128
  347SOL    HW1 1097   2.430   3.007   3.687 -0.8426  0.4343  0.5111
  347SOL    HW2 1098   2.509   3.089   3.787  0.0178 -0.7978  0.8653
  348SOL     OW 1099   4.202   2.066   4.205 -0.2882  0.2734  0.0453
  348SOL    HW1 1100   4.113   2.061   4.173 -0.9659  1.6299  1.5784
  348SOL    HW2 1101   4.255   2.024   4.137 -1.9601  0.3306 -1.3451
  349SOL     OW 1102   4.350   3.155   3.089 -0.6653 -0.3021 -0.2172
  349SOL    HW1 1103   4.323   3.100   3.162 -1.2476 -0.9935 -0.9481
  349SOL    HW2 1104   4.269   3.192   3.055 -0.3338  0.5714 -0.0920
  350SOL     OW 1105   2.910   1.946   0.305  0.0822 -0.4928 -0.0256
  350SOL    HW1 1106   2.945   1.864   0.272  2.2337  1.1300 -2.1058
  350SOL    HW2 1107   2.983   1.987   0.350 -0.1873  1.3114 -1.1318
  351SOL     OW 1108   3.130   2.317   2.905  0.5093 -0.2376  0.1994
  351SOL    HW1 1109   3.129   2.230   2.865 -0.5137  0.1998 -0.7617
  351SOL    HW2 1110   3.154   2.376   2.833 -1.4473  0.5731  0.1612
  352SOL     OW 1111   0.567   1.845   4.128 -0.2591 -0.0477  0.1826
  352SOL    HW1 1112   0.512   1.875   4.200 -1.7654 -1.8441 -0.1480
  352SOL    HW2 1113   0.533   1.758   4.106  1.2217 -0.2397 -1.6143
  353SOL     OW 1114   0.779   2.160   2.912  0.0072  0.1988 -0.2454
  353SOL    HW1 1115   0.777   2.083   2.969  1.4234  1.4647  1.6306
  353SOL    HW2 1116   0.872   2.178   2.898 -0.2987  0.2447 -2.5957
  354SOL     OW 1117   1.409   0.724   0.295 -0.5797  0.7383 -0.3298
  354SOL    HW1 1118   1.389   0.632   0.277  0.1007  0.1242  1.7875
  354SOL    HW2 1119   1.450   0.756   0.215 -1.0533 -0.7214 -1.1836
  355SOL     OW 1120   3.295   3.310   2.713 -0.3454 -0.0958 -0.4675
  355SOL    HW1 1121   3.219   3.346   2.760 -1.1745 -0.9524 -1.1086
  355SOL    HW2 1122   3.274   3.217   2.702  1.2600 -0.5746  0.2202
  356SOL     OW 1123   2.459   0.901   4.435 -0.3706  0.2838  0.1837
  356SOL    HW1 1124   2.444   0.907   4.341  0.9824  1.9949  0.0145
  356SOL    HW2 1125   2.428   0.985   4.470  1.1918  0.6106  0.8924
  357SOL     OW 1126   1.055   4.404   1.330  0.3256 -0.0359  0.6092
  357SOL    HW1 1127   0.989   4.442   1.388 -0.4266  1.1146 -0.9451
  357SOL    HW2 1128   1.086   4.477   1.278 -0.2219 -1.2833 -1.5725
  358SOL     OW 1129   1.341   0.389   3.095  0.8617  0.7439 -0.5631
  358SOL    HW1 1130   1.384   0.372   3.179  2.9840  2.1298 -1.2651
  358SOL    HW2 1131   1.315   0.303   3.063  1.4741  0.0321  0.7820
  359SOL     OW 1132   4.373   3.487   4.908 -0.2491  0.4270 -0.5299
  359SOL    HW1 1133   4.325   3.408   4.884  0.1721  0.3620 -1.1724
  359SOL    HW2 1134   4.456   3.455   4.944  0.3710  0.5876 -1.7771
  360SOL     OW 1135   1.007   1.996   0.692  0.2863 -0.1586 -0.5187
  360SOL    HW1 1136   0.943   2.017   0.760  0.5856  0.0743 -0.3115
  360SOL    HW2 1137   0.953   1.982   0.613  0.0655  1.3508 -0.6631
  361SOL     OW 1138   4.866   2.953   3.883 -0.1180 -0.1404 -0.2405
  361SOL    HW1 1139   4.832   2.926   3.797 -1.1744  0.6747 -0.0988
  361SOL    HW2 1140   4.910   2.875   3.916  1.0058 -0.2470 -1.8496
  362SOL     OW 1141   3.701   4.938   3.888 -0.2422 -0.1576  0.2383
  362SOL    HW1 1142   3.747   4.854   3.880  1.6497  0.7007  1.4335
  362SOL    HW2 1143   3.743   4.995   3.824  0.0180  0.4885  0.9649
  363SOL     OW 1144   0.172   3.290   0.113  0.1687  0.3905 -0.2860
  363SOL    HW1 1145   0.120   3.211   0.103  1.5489 -0.6788  0.5402
  363SOL    HW2 1146   0.136   3.351   0.049 -0.2142 -1.2878 -1.7489
  364SOL     OW 1147   0.505   3.883   1.514  0.2435  0.3863 -0.3945
  364SOL    HW1 1148   0.429   3.895   1.570  0.4099  0.8160 -0.2598
  364SOL    HW2 1149   0.530   3.971   1.487 -1.1318  0.0950 -2.9261
  365SOL     OW 1150   0.962   1.068   0.288  0.3284  0.3037  0.0326
  365SOL    HW1 1151   1.019   1.002   0.248 -0.5543 -0.6391  0.3054
  365SOL    HW2 1152   1.000   1.152   0.260  1.0337 -0.3111 -0.9300
  366SOL     OW 1153   2.111   4.282   2.483 -0.0158 -0.0145  0.1762
  366SOL    HW1 1154   2.100   4.214   2.416 -0.0150 -1.7398  1.8330
  366SOL    HW2 1155   2.200   4.314   2.471  0.1893 -0.7246 -0.2937
  367SOL     OW 1156   3.145   3.195   1.193  0.1762 -0.0539 -0.5810
  367SOL    HW1 1157   3.062   3.164   1.156 -0.3122 -1.1709  1.3424
  367SOL    HW2 1158   3.139   3.291   1.189 -0.9325 -0.1313 -1.0298
  368SOL     OW 1159   4.300   4.354   1.419  0.2706  0.8409  0.0627
  368SOL    HW1 1160   4.222   4.389   1.375 -0.2206  0.6718  0.7725
  368SOL    HW2 1161   4.329   4.283   1.363  0.2248  1.2424 -0.4822
  369SOL     OW 1162   1.440   0.437   4.414 -0.1968  0.3268 -0.0915
  369SOL    HW1 1163   1.413   0.357   4.371  0.1393  0.7398 -1.0854
  369SOL    HW2 1164   1.516   0.468   4.365 -1.2162  2.0476 -0.6807
  370SOL     OW 1165   1.795   1.457   1.328 -0.0419  0.1846 -0.0508
  370SOL    HW1 1166   1.816   1.496   1.413  2.7798 -0.5175 -0.3424
  370SOL    HW2 1167   1.800   1.530   1.267 -0.4567  0.3883  0.1522
  371SOL     OW 1168   1.076   0.804   2.897  0.0601 -0.0671 -0.5783
  371SOL    HW1 1169   1.066   0.709   2.902 -0.5148  0.0290  0.2865
  371SOL    HW2 1170   1.170   0.817   2.886  0.9071 -0.6311  4.0356
  372SOL     OW 1171   2.479   4.002   3.016 -0.6100  0.6002  0.0941
  372SOL    HW1 1172   2.444   4.081   2.975 -3.5210 -0.6713 -0.1055
  372SOL    HW2 1173   2.412   3.975   3.078 -0.3252 -2.3825 -0.7357
  373SOL     OW 1174   3.576   4.858   3.594  0.3058  0.3548  0.1084
  373SOL    HW1 1175   3.653   4.832   3.544  1.5582 -0.9006  2.5061
  373SOL    HW2 1176   3.583   4.809   3.677 -1.9933  1.7552  1.2463
  374SOL     OW 1177   0.109   0.772   3.651 -0.1555 -0.4361 -0.1466
  374SOL    HW1 1178   0.049   0.705   3.619 -0.5447  0.5749 -1.5950
  374SOL    HW2 1179   0.088   0.780   3.745 -3.8644  1.3626 -0.9368
  375SOL     OW 1180   0.076   4.881   0.750  0.1585 -0.3118 -0.0907
  375SOL    HW1 1181   0.130   4.849   0.822  1.6301  0.0786 -0.9784
  375SOL    HW2 1182   0.138   4.897   0.679 -1.1326  0.2032 -1.1412
  376SOL     OW 1183   3.575   2.715   3.396  0.0053  0.4928  0.6784
  376SOL    HW1 1184   3.564   2.666   3.315  0.2938  1.9371 -0.2771
  376SOL    HW2 1185   3.559   2.806   3.372  1.5136  1.1426  1.9204
  377SOL     OW 1186   0.264   2.603   4.610 -0.1768  0.1232  0.7132
  377SOL    HW1 1187   0.290   2.556   4.531  2.1033  1.7571  0.4055
  377SOL    HW2 1188   0.176   2.637   4.590  0.0487 -0.1319 -0.8286
  378SOL     OW 1189   4.549   1.707   0.189 -0.1716 -0.2015 -0.1934
  378SOL    HW1 1190   4.481   1.650   0.154  0.2758  0.0883 -1.6017
  378SOL    HW2 1191   4.571   1.669   0.274 -0.9655 -1.2214 -0.4215
  379SOL     OW 1192   3.545   4.098   1.411 -0.4672 -0.6186  0.0437
  379SOL    HW1 1193   3.595   4.051   1.344 -0.4433  0.1030 -0.4569
  379SOL    HW2 1194   3.598   4.089   1.491  0.3501 -0.0805 -0.4221
  380SOL     OW 1195   4.431   4.686   1.630  0.2428 -0.3056 -0.2109
  380SOL    HW1 1196   4.453   4.779   1.627  0.1895 -0.2809  0.2234
  380SOL    HW2 1197   4.422   4.666   1.723  2.4687 -1.2824 -0.1694
  381SOL     OW 1198   3.578   1.366   4.732  0.0317  0.2912  0.4761
  381SOL    HW1 1199   3.492   1.362   4.691 -0.2748  0.0276  1.1347
  381SOL    HW2 1200   3.614   1.278   4.722  1.1342  0.9000 -1.6717
  382SOL     OW 1201   4.358   2.310   2.094 -0.3537  0.5541  0.5967
  382SOL    HW1 1202   4.284   2.334   2.038  2.0582 -0.6519 -3.5365
  382SOL    HW2 1203   4.421   2.381   2.081  0.4735 -0.0093  1.4392
  383SOL     OW 1204   2.662   4.355   0.152 -0.0931  0.6751 -0.1604
  383SOL    HW1 1205   2.659   4.342   0.247  0.6513 -0.2801 -0.2438
  383SOL    HW2 1206   2.670   4.449   0.140  0.4793  0.7553  0.7630
  384SOL     OW 1207   0.107   2.526   2.069 -0.3122  0.1833 -0.0994
  384SOL    HW1 1208   0.177   2.554   2.009 -0.4387  0.0464 -0.3125
  384SOL    HW2 1209   0.140   2.548   2.156  0.9434 -1.8512 -0.0026
  385SOL     OW 1210   0.240   2.834   0.635 -0.4263  0.0191 -0.1121
  385SOL    HW1 1211   0.211   2.922   0.661 -1.0142  0.3471 -1.7640
  385SOL    HW2 1212   0.322   2.821   0.682 -0.5030  1.3081  0.4290
  386SOL     OW 1213   2.147   1.525   3.512  0.0449 -0.1798 -0.2844
  386SOL    HW1 1214   2.156   1.430   3.519  1.3233 -0.3880 -3.3688
  386SOL    HW2 1215   2.237   1.558   3.511 -0.3812  1.2383  1.6783
  387SOL     OW 1216   4.395   3.327   0.257 -0.0494  0.4115  0.4549
  387SOL    HW1 1217   4.478   3.331   0.209 -0.5967  1.6100 -0.4433
  387SOL    HW2 1218   4.419   3.296   0.344  1.2380  0.0746  0.0082
  388SOL     OW 1219   4.795   4.447   2.982 -0.3985 -0.4781  0.4449
  388SOL    HW1 1220   4.756   4.361   2.997  1.2962 -1.1541  1.2163
  388SOL    HW2 1221   4.791   4.491   3.067  0.7487 -0.6694  0.6086
  389SOL     OW 1222   4.401   3.175   1.924 -0.0810  0.0073  0.7179
  389SOL    HW1 1223   4.449   3.119   1.986  0.5730 -0.9795 -0.6433
  389SOL    HW2 1224   4.318   3.129   1.911 -0.5075  0.5710  1.3601
  390SOL     OW 1225   2.395   3.725   0.350 -0.2077  0.2934 -0.3729
  390SOL    HW1 1226   2.372   3.649   0.404 -0.1233 -0.7179 -1.6936
  390SOL    HW2 1227   2.313   3.750   0.309 -0.4840  1.7041  0.9467
  391SOL     OW 1228   4.508   4.103   0.452  0.4143 -0.3166  0.4401
  391SOL    HW1 1229   4.522   4.130   0.361  0.3503  1.2809  0.8761
  391SOL    HW2 1230   4.415   4.084   0.457  0.6156 -1.5192 -0.0903
  392SOL     OW 1231   2.807   4.900   3.877 -0.3609  0.0148  0.0317
  392SOL    HW1 1232   2.816   4.855   3.962  0.7821 -0.9613 -0.5711
  392SOL    HW2 1233   2.869   4.854   3.819  0.2801  1.8781 -0.8410
  393SOL     OW 1234   4.844   4.656   4.612 -0.4325  0.0232  0.5235
  393SOL    HW1 1235   4.765   4.635   4.662 -0.9969  0.6936 -0.0788
  393SOL    HW2 1236   4.841   4.751   4.601 -0.0518 -0.0549 -0.3436
  394SOL     OW 1237   1.517   1.910   3.847  0.0881 -0.1926 -0.5741
  394SOL    HW1 1238   1.543   1.962   3.771  1.3013 -1.8212 -1.3442
  394SOL    HW2 1239   1.449   1.851   3.813 -1.3075  0.8478  0.2945
  395SOL     OW 1240   3.539   4.483   2.020  0.0564  0.3075 -0.1117
  395SOL    HW1 1241   3.615   4.540   2.032  0.4586  0.0542 -1.2693
  395SOL    HW2 1242   3.543   4.422   2.094 -0.0783  1.4178  0.8460
  396SOL     OW 1243   1.202   4.396   0.202 -0.4178  0.2692 -0.1570
  396SOL    HW1 1244   1.214   4.303   0.217  0.4148  0.3634 -0.2267
  396SOL    HW2 1245   1.118   4.402   0.157 -0.6250 -0.4145  0.1218
  397SOL     OW 1246   0.333   0.966   2.504 -0.3726  0.5721 -0.6488
  397SOL    HW1 1247   0.256   0.946   2.558 -2.1469  2.2351 -2.4066
  397SOL    HW2 1248   0.361   1.053   2.534  1.0488 -0.1372  0.1650
  398SOL     OW 1249   2.118   0.255   0.448  0.0951 -0.5842 -0.2372
  398SOL    HW1 1250   2.189   0.217   0.500 -0.1627 -0.5982  0.1044
  398SOL    HW2 1251   2.162   0.318   0.390  0.2848  0.0594  0.5946
  399SOL     OW 1252   2.986   3.407   3.845  0.0609 -0.0396 -0.1312
  399SOL    HW1 1253   2.913   3.456   3.808 -1.4946 -1.7433  0.5374
  399SOL    HW2 1254   2.966   3.399   3.938  1.7014  0.4393  0.2953
  400SOL     OW 1255   1.719   1.822   0.631  0.1465  0.1249  0.0493
  400SOL    HW1 1256   1.709   1.868   0.714 -1.0926  1.3242 -0.7153
  400SOL    HW2 1257   1.635   1.778   0.617  0.3729 -0.1422 -0.5246
  401SOL     OW 1258   2.662   0.103   0.862  0.4372  0.4941  0.5879
  401SOL    HW1 1259   2.608   0.084   0.939 -0.9764 -0.1260 -0.4907
  401SOL    HW2 1260   2.622   0.181   0.824  0.8272  0.5254  0.2344
  402SOL     OW 1261   1.583   1.895   4.770  0.2384 -0.2974  0.2836
  402SOL    HW1 1262   1.543   1.831   4.828 -0.6647 -1.4707 -1.5280
  402SOL    HW2 1263   1.585   1.852   4.684  0.7346  1.6552 -0.7578
  403SOL     OW 1264   0.898   1.151   0.894 -0.5566 -0.5466 -0.5321
  403SOL    HW1 1265   0.839   1.147   0.818 -1.3943  0.3534  0.0381
  403SOL    HW2 1266   0.984   1.127   0.859 -0.7013  0.8648 -2.0062
  404SOL     OW 1267   2.691   0.657   4.055 -0.4332  0.2250 -0.6500
  404SOL    HW1 1268   2.786   0.662   4.056 -0.4827  1.0593  0.0260
  404SOL    HW2 1269   2.663   0.741   4.020 -0.9419  0.2243 -0.2495
  405SOL     OW 1270   2.352   1.108   4.559 -0.5895  0.0432 -0.0972
  405SOL    HW1 1271   2.429   1.153   4.594 -1.7134  0.4768  1.9746
  405SOL    HW2 1272   2.300   1.085   4.636 -3.1634  0.8926 -1.4483
  406SOL     OW 1273   4.062   0.996   0.440  0.5769  0.0940  0.3232
  406SOL    HW1 1274   4.042   0.911   0.402 -2.4329  0.3364  1.1566
  406SOL    HW2 1275   4.123   0.977   0.512  0.4775 -1.2558  0.0699
  407SOL     OW 1276   4.045   0.055   4.031 -0.4061  0.3188  0.0741
  407SOL    HW1 1277   4.119   0.110   4.054  0.7410 -1.4775  0.9308
  407SOL    HW2 1278   4.080  -0.008   3.968 -1.3886 -0.0810 -0.0920
  408SOL     OW 1279   1.885   2.280   1.927 -0.2219  0.1412 -0.1387
  408SOL    HW1 1280   1.827   2.211   1.961  1.4378 -1.2189  0.0601
  408SOL    HW2 1281   1.906   2.333   2.004  1.4227 -1.3685  0.5144
  409SOL     OW 1282   0.179   4.720   1.486  0.2412  0.1289  0.6127
  409SOL    HW1 1283   0.113   4.651   1.488 -0.3817  0.7242  2.0067
  409SOL    HW2 1284   0.214   4.723   1.575  0.9538  0.9457  0.3258
  410SOL     OW 1285   2.094   3.234   0.331  0.1820 -0.7970 -0.8161
  410SOL    HW1 1286   2.137   3.151   0.352 -0.8699 -1.2153 -0.2181
  410SOL    HW2 1287   2.076   3.229   0.237  0.7066 -0.9613 -0.9103
  411SOL     OW 1288   1.747   0.402   3.504 -0.6205 -0.1514 -0.9413
  411SOL    HW1 1289   1.752   0.394   3.600 -0.0943  1.2008 -0.8365
  411SOL    HW2 1290   1.656   0.380   3.483 -1.0617  0.6764  0.0108
  412SOL     OW 1291   1.403   4.012   4.960  0.4314 -0.4404  0.3921
  412SOL    HW1 1292   1.490   4.052   4.953  0.3551 -0.4005 -0.4872
  412SOL    HW2 1293   1.421   3.919   4.974  0.6231 -0.4763 -0.0703
  413SOL     OW 1294   2.060   4.114   2.960  0.5309 -0.1961 -0.2299
  413SOL    HW1 1295   1.983   4.167   2.941 -0.3444 -1.7236 -1.1182
  413SOL    HW2 1296   2.077   4.067   2.879  1.5251 -0.9680  0.4096
  414SOL     OW 1297   0.027   4.486   1.540  0.1163 -0.0674 -0.1217
  414SOL    HW1 1298  -0.055   4.446   1.568 -0.9795  1.3129 -1.2090
  414SOL    HW2 1299   0.095   4.435   1.584 -1.3590 -0.1836  2.1997
  415SOL     OW 1300   0.358   1.763   2.430  0.0682  0.4125 -0.2402
  415SOL    HW1 1301   0.290   1.734   2.491  0.6634  2.3650  1.4502
  415SOL    HW2 1302   0.311   1.814   2.363 -0.7492 -2.7284 -2.2722
  416SOL     OW 1303   2.113   4.145   4.644 -0.2747 -0.1144 -0.4858
  416SOL    HW1 1304   2.147   4.113   4.560  1.7437 -0.6355  0.4639
  416SOL    HW2 1305   2.181   4.123   4.707 -2.0033 -0.3059  1.4240
  417SOL     OW 1306   0.932   0.589   0.709  0.5102 -0.4976  0.7431
  417SOL    HW1 1307   1.000   0.585   0.642  0.6731  0.5079  0.8205
  417SOL    HW2 1308   0.884   0.670   0.689 -1.1384 -1.5586  0.2477
  418SOL     OW 1309   1.372   2.101   2.970  0.3833  0.1381 -0.8571
  418SOL    HW1 1310   1.425   2.058   2.904 -0.6213 -0.3654 -1.3594
  418SOL    HW2 1311   1.284   2.066   2.956  0.0509  0.4450  0.3882
  419SOL     OW 1312   0.490   2.795   0.085  0.1080 -0.1890  0.1343
  419SOL    HW1 1313   0.578   2.820   0.057 -1.2000  2.0240 -2.4895
  419SOL    HW2 1314   0.454   2.874   0.126 -2.0683  0.5687 -2.8612
  420SOL     OW 1315   2.250   0.174   1.862  0.0028 -0.3435  0.3119
  420SOL    HW1 1316   2.292   0.152   1.946 -0.1533  1.1338  0.8104
  420SOL    HW2 1317   2.224   0.266   1.872  0.5130  0.0486 -1.5746
  421SOL     OW 1318   0.846   2.023   4.569 -0.4493 -0.1870 -0.0624
  421SOL    HW1 1319   0.823   1.932   4.587  2.2008 -0.8869  0.1603
  421SOL    HW2 1320   0.851   2.028   4.473  0.3725 -0.5674 -0.0468
  422SOL     OW 1321   3.102   1.128   3.553 -0.0247  0.0703  0.6433
  422SOL    HW1 1322   3.008   1.118   3.536  0.4439 -0.8679 -1.7715
  422SOL    HW2 1323   3.114   1.222   3.568 -1.4374  0.0875  1.9147
  423SOL     OW 1324   4.975   4.507   4.789  0.0338  0.0560  0.4478
  423SOL    HW1 1325   4.950   4.570   4.721  0.3965  0.4300  0.6517
  423SOL    HW2 1326   4.918   4.528   4.863  0.2023  0.1949  0.5399
  424SOL     OW 1327   1.481   0.019   3.590 -0.1753 -0.0230  0.9557
  424SOL    HW1 1328   1.394   0.047   3.562 -0.3441 -0.9543  0.5149
  424SOL    HW2 1329   1.482   0.036   3.684 -1.3202 -1.1922  1.2128
  425SOL     OW 1330   2.575   1.958   3.898  0.6785  0.3747  0.2713
  425SOL    HW1 1331   2.601   2.007   3.976 -0.9228 -0.0767  1.1269
  425SOL    HW2 1332   2.526   1.883   3.931  0.7276 -0.3202 -1.1400
  426SOL     OW 1333   4.635   1.740   3.618 -0.2289  0.1605  0.2072
  426SOL    HW1 1334   4.655   1.782   3.535  0.6664 -2.4295 -0.9981
  426SOL    HW2 1335   4.628   1.647   3.596  0.1941 -0.6270  3.0630
  427SOL     OW 1336   1.565   4.923   4.621 -0.1332 -0.0210  0.4468
  427SOL    HW1 1337   1.575   4.893   4.711 -0.3962  0.4210  0.6276
  427SOL    HW2 1338   1.646   4.898   4.578 -0.8551 -2.2132  0.2207
  428SOL     OW 1339   0.647   1.387   4.822  0.2514  0.1965 -0.4481
  428SOL    HW1 1340   0.616   1.411   4.909 -0.3184 -0.5904 -0.4201
  428SOL    HW2 1341   0.567   1.380   4.770  0.6671  1.9940 -1.4034
  429SOL     OW 1342   2.458   2.233   1.204  0.5952 -0.0580 -0.3029
  429SOL    HW1 1343   2.492   2.217   1.292  1.3473  0.7164 -0.4487
  429SOL    HW2 1344   2.422   2.321   1.208  1.9349  0.5436 -1.1570
  430SOL     OW 1345   3.813   2.134   1.432  0.4328  0.3692  0.2972
  430SOL    HW1 1346   3.869   2.094   1.365 -0.3641  0.0059 -0.1670
  430SOL    HW2 1347   3.795   2.222   1.397  1.0005  0.6225  0.6241
  431SOL     OW 1348   0.752   3.021   2.334 -0.1333  0.4275 -0.5138
  431SOL    HW1 1349   0.742   2.925   2.338  0.4741  0.4018  1.3951
  431SOL    HW2 1350   0.674   3.051   2.286 -0.7660 -0.9596 -0.4075
  432SOL     OW 1351   2.930   3.239   1.783 -0.6900  0.0187  0.3404
  432SOL    HW1 1352   2.951   3.309   1.721 -1.3888 -2.8013 -3.4579
  432SOL    HW2 1353   3.013   3.220   1.827  0.2075  1.2434 -0.7410
  433SOL     OW 1354   4.456   1.398   3.550  0.1980 -0.6448 -0.0707
  433SOL    HW1 1355   4.369   1.403   3.510  0.3975  0.2512 -0.4220
  433SOL    HW2 1356   4.511   1.451   3.493  1.3028 -2.3248 -0.6470
  434SOL     OW 1357   0.779   4.733   4.370 -0.6651 -0.1724  0.1603
  434SOL    HW1 1358   0.686   4.725   4.346 -1.1192  1.3940  1.2486
  434SOL    HW2 1359   0.779   4.793   4.444  1.2627  0.0556  0.0138
  435SOL     OW 1360   3.486   0.989   0.845  0.6943 -0.5931 -0.0460
  435SOL    HW1 1361   3.480   1.081   0.867  0.2175 -0.6932  0.2431
  435SOL    HW2 1362   3.396   0.958   0.843  0.7719 -0.7971 -1.2634
  436SOL     OW 1363   3.946   4.849   4.756  0.5692 -0.9940  0.1044
  436SOL    HW1 1364   3.877   4.852   4.822 -0.2389 -2.3638 -0.6426
  436SOL    HW2 1365   3.991   4.934   4.765 -2.6456  0.9988 -0.9244
  437SOL     OW 1366   4.547   1.792   2.209 -0.2747 -0.4623 -0.1804
  437SOL    HW1 1367   4.487   1.814   2.139 -1.5590  0.4129  1.1294
  437SOL    HW2 1368   4.491   1.774   2.285  1.0127 -2.4361  0.3736
  438SOL     OW 1369   4.602   4.931   3.110  0.2877 -0.2479 -0.6283
  438SOL    HW1 1370   4.680   4.877   3.120 -0.1231 -0.7444 -0.0536
  438SOL    HW2 1371   4.555   4.894   3.036  0.6205  0.0942 -1.0199
  439SOL     OW 1372   2.444   1.782   2.229  0.8902 -0.3625 -0.1218
  439SOL    HW1 1373   2.503   1.804   2.301  0.5320 -1.9746  0.7059
  439SOL    HW2 1374   2.495   1.803   2.150  1.4162  1.0946  0.5584
  440SOL     OW 1375   2.123   3.065   2.921  1.2159  0.5776  0.1255
  440SOL    HW1 1376   2.162   2.995   2.972  0.3320  0.4221  0.6163
  440SOL    HW2 1377   2.093   3.022   2.840 -0.6616  0.0361  1.0506
  441SOL     OW 1378   0.671   2.272   3.193 -0.7389 -0.0155  0.5657
  441SOL    HW1 1379   0.642   2.348   3.143 -1.5059 -0.1583  0.7712
  441SOL    HW2 1380   0.746   2.303   3.244 -0.5940  0.3990  0.1021
  442SOL     OW 1381   4.840   4.859   1.026  0.1816 -0.3565  0.2074
  442SOL    HW1 1382   4.746   4.849   1.013  0.4214 -1.1959 -1.0111
  442SOL    HW2 1383   4.879   4.789   0.974  1.4532 -0.5256  1.3359
  443SOL     OW 1384   1.079   1.468   3.400 -0.0482  0.0413 -0.5097
  443SOL    HW1 1385   1.102   1.533   3.466  0.1789 -0.8825  0.3473
  443SOL    HW2 1386   1.014   1.512   3.345 -1.2221  0.4148  1.0930
  444SOL     OW 1387   2.452   3.052   2.943 -0.6721 -0.3503 -0.5162
  444SOL    HW1 1388   2.376   3.014   2.987 -1.0029  2.5351  1.6896
  444SOL    HW2 1389   2.451   3.013   2.856 -4.6792 -0.4727 -0.6095
  445SOL     OW 1390   3.850   4.038   1.479  0.6038  0.5051 -0.0422
  445SOL    HW1 1391   3.861   4.013   1.571 -0.7215 -0.9395 -0.2423
  445SOL    HW2 1392   3.904   3.975   1.431  1.0049  1.0313 -0.2941
  446SOL     OW 1393   0.405   0.891   0.916 -0.1390  0.6387  0.8113
  446SOL    HW1 1394   0.410   0.870   0.823 -2.2898 -0.0228  0.7850
  446SOL    HW2 1395   0.340   0.961   0.921  0.6318  1.3088  1.7489
  447SOL     OW 1396   0.384   2.872   0.370  0.2026  0.0021 -0.5370
  447SOL    HW1 1397   0.333   2.832   0.441  0.8520 -0.9330 -0.5892
  447SOL    HW2 1398   0.329   2.944   0.339 -0.8355 -0.6324 -0.2116
  448SOL     OW 1399   1.152   2.372   2.519  0.2125 -0.0290 -0.3719
  448SOL    HW1 1400   1.080   2.322   2.480 -1.1608  1.7253 -0.2097
  448SOL    HW2 1401   1.230   2.339   2.475 -0.7352 -1.6214 -0.9510
  449SOL     OW 1402   2.321   1.224   2.376  0.3581  0.0981 -0.6716
  449SOL    HW1 1403   2.346   1.304   2.329  1.4132  0.0145 -0.2760
  449SOL    HW2 1404   2.250   1.252   2.433  0.3914  0.6496 -0.8862
  450SOL     OW 1405   0.392   0.045   3.222  0.2546  0.7453 -0.0752
  450SOL    HW1 1406   0.307   0.075   3.253 -0.3297 -0.3819 -0.5275
  450SOL    HW2 1407   0.411  -0.033   3.273  1.5954  1.6439  0.8546
  451SOL     OW 1408   4.895   0.782   2.444  0.7907 -0.3374 -0.4121
  451SOL    HW1 1409   4.804   0.808   2.460  0.2079 -0.4928 -2.9918
  451SOL    HW2 1410   4.945   0.863   2.457 -0.1642  0.5637 -1.8848
  452SOL     OW 1411   3.628   4.683   1.044  0.0467 -0.0156 -0.7795
  452SOL    HW1 1412   3.696   4.699   0.979  0.4303  1.0722 -0.1401
  452SOL    HW2 1413   3.674   4.686   1.128 -0.7999  0.9316 -0.3218
  453SOL     OW 1414   4.590   4.790   3.733  0.6748  0.1194  0.3322
  453SOL    HW1 1415   4.623   4.762   3.818 -2.2026  0.2222  1.5567
  453SOL    HW2 1416   4.584   4.709   3.682  0.6454 -0.2210  0.8675
  454SOL     OW 1417   2.766   1.530   4.280  0.4744  0.4342  0.1474
  454SOL    HW1 1418   2.781   1.544   4.374  0.1455 -0.1711  0.2958
  454SOL    HW2 1419   2.735   1.615   4.248 -3.2708 -0.3079  1.3690
  455SOL     OW 1420   3.619   2.824   4.297 -0.1820 -0.5170 -0.3020
  455SOL    HW1 1421   3.538   2.818   4.246 -0.9266  0.8214  0.6560
  455SOL    HW2 1422   3.687   2.843   4.232 -0.8390 -0.4327 -0.9858
  456SOL     OW 1423   3.734   2.347   3.492 -0.1299  0.0476 -0.5165
  456SOL    HW1 1424   3.669   2.318   3.428  1.0443 -2.4436 -0.6928
  456SOL    HW2 1425   3.700   2.316   3.576  1.0201 -1.7881 -0.6775
  457SOL     OW 1426   0.280   4.547   4.351  0.7985  0.4829  0.0357
  457SOL    HW1 1427   0.190   4.523   4.373  0.5635  0.9406 -0.4216
  457SOL    HW2 1428   0.294   4.509   4.264  0.7949  1.0353 -0.2120
  458SOL     OW 1429   0.705   2.197   0.530  0.1975 -0.2078 -0.1681
  458SOL    HW1 1430   0.767   2.265   0.504  0.0377 -0.1141 -0.2996
  458SOL    HW2 1431   0.760   2.120   0.544  0.2577 -0.3293 -1.0241
  459SOL     OW 1432   1.507   2.335   1.191  0.5126 -0.4151 -0.6022
  459SOL    HW1 1433   1.552   2.344   1.275 -1.6868 -1.5340  0.7942
  459SOL    HW2 1434   1.483   2.424   1.166  0.2094 -0.1556  0.5588
  460SOL     OW 1435   1.556   4.435   3.665  0.1579  0.3977 -0.2612
  460SOL    HW1 1436   1.642   4.431   3.623  1.0257 -0.4002  1.5083
  460SOL    HW2 1437   1.535   4.528   3.667  0.2370  0.4946 -2.0854
  461SOL     OW 1438   2.461   1.497   3.832  0.3860 -0.1051 -0.2515
  461SOL    HW1 1439   2.554   1.518   3.823  0.1788  1.8008  1.3421
  461SOL    HW2 1440   2.453   1.410   3.794  2.8231 -0.3490 -0.4037
  462SOL     OW 1441   2.563   0.958   2.128  0.2823  0.6069  0.0990
  462SOL    HW1 1442   2.594   0.871   2.150 -0.6983  0.1946 -0.0892
  462SOL    HW2 1443   2.557   0.959   2.033  0.2516  0.8624  0.1006
  463SOL     OW 1444   0.427   1.487   2.407 -0.5478 -0.1313  0.1453
  463SOL    HW1 1445   0.432   1.582   2.420 -0.1652 -0.3433  1.6165
  463SOL    HW2 1446   0.482   1.471   2.331 -0.1130  0.7465  0.2601
  464SOL     OW 1447   2.182   1.703   1.936 -0.2429  0.9493 -0.1505
  464SOL    HW1 1448   2.102   1.659   1.966  0.2708  0.6592  0.8388
  464SOL    HW2 1449   2.152   1.785   1.898 -1.3486 -0.6439 -2.9861
  465SOL     OW 1450   1.314   4.915   1.401  0.2539  0.5065  0.0313
  465SOL    HW1 1451   1.349   4.963   1.326 -0.2490 -0.5305 -0.8982
  465SOL    HW2 1452   1.276   4.982   1.458  1.8125  1.4421  0.0197
  466SOL     OW 1453   1.198   0.813   0.425 -0.1763  0.8320 -0.4397
  466SOL    HW1 1454   1.215   0.903   0.452 -0.9639  1.5267 -2.1463
  466SOL    HW2 1455   1.274   0.789   0.371 -0.5726  0.9489 -1.0601
  467SOL     OW 1456   4.065   4.421   1.281 -0.3263  0.0360 -0.4761
  467SOL    HW1 1457   3.996   4.355   1.277 -0.1649 -0.6458  3.6676
  467SOL    HW2 1458   4.021   4.500   1.310  0.4158 -0.1387  1.2278
  468SOL     OW 1459   4.256   3.116   0.111  0.3329 -0.0030 -0.5094
  468SOL    HW1 1460   4.293   3.200   0.137 -0.8912  0.3114  0.3312
  468SOL    HW2 1461   4.269   3.059   0.187  0.5718 -0.3855 -0.8290
  469SOL     OW 1462   1.438   3.529   3.645  0.1518  0.4624 -0.2950
  469SOL    HW1 1463   1.359   3.530   3.591  0.9162  0.0613 -1.4650
  469SOL    HW2 1464   1.439   3.441   3.683  0.4086  0.2123 -0.8679
  470SOL     OW 1465   1.477   4.309   4.303 -0.7056 -0.3611  0.3208
  470SOL    HW1 1466   1.570   4.313   4.281 -0.3469 -0.6647  1.7172
  470SOL    HW2 1467   1.433   4.341   4.224  0.5435 -0.7728 -0.5861
  471SOL     OW 1468   2.051   0.001   0.016  0.0228 -0.4040  0.2961
  471SOL    HW1 1469   2.002   0.029   0.094  0.0194 -1.0273  0.5226
  471SOL    HW2 1470   2.121   0.066   0.007 -0.2667 -0.0507  0.5304
  472SOL     OW 1471   0.603   2.349   2.803 -0.1931 -0.4239  0.6137
  472SOL    HW1 1472   0.653   2.285   2.852 -1.5626 -0.7861  1.5977
  472SOL    HW2 1473   0.511   2.327   2.820 -0.7056  1.2006  0.2128
  473SOL     OW 1474   4.011   2.921   0.281 -0.1934 -0.1152  0.0161
  473SOL    HW1 1475   3.952   2.911   0.206 -1.2806 -0.0980  0.8479
  473SOL    HW2 1476   4.082   2.860   0.263 -1.2438 -1.2936 -0.2656
  474SOL     OW 1477   4.178   4.706   2.778 -0.7918 -0.5820  0.5563
  474SOL    HW1 1478   4.135   4.790   2.791 -1.8887 -1.1407  0.6893
  474SOL    HW2 1479   4.185   4.697   2.683 -0.4607 -0.2411  0.5471
  475SOL     OW 1480   3.725   0.594   4.088  0.0434 -0.0748 -0.3457
  475SOL    HW1 1481   3.649   0.618   4.035 -0.1705  1.1540  0.4626
  475SOL    HW2 1482   3.717   0.499   4.099 -1.7195  0.0890  0.1936
  476SOL     OW 1483   2.109   0.236   3.607 -0.0647 -0.6280 -0.1664
  476SOL    HW1 1484   2.199   0.264   3.594  0.5925 -1.1955  2.5844
  476SOL    HW2 1485   2.074   0.297   3.672 -2.7288  1.4293 -3.2082
  477SOL     OW 1486   0.330   4.971   3.891  0.4101  0.4053  0.2833
  477SOL    HW1 1487   0.283   5.042   3.847  2.7756  0.0880 -3.2147
  477SOL    HW2 1488   0.287   4.891   3.860 -0.7873  0.1723  2.3776
  478SOL     OW 1489   4.929   2.687   1.110 -0.3719  0.8306 -0.2919
  478SOL    HW1 1490   4.980   2.606   1.108 -1.4890  0.0962 -2.1766
  478SOL    HW2 1491   4.993   2.756   1.095  0.2331 -0.0048 -1.8718
  479SOL     OW 1492   1.220   1.899   1.563 -0.2136 -0.2550  0.0670
  479SOL    HW1 1493   1.140   1.850   1.546  0.1154 -0.8972  0.3434
  479SOL    HW2 1494   1.212   1.924   1.655 -0.7869  0.9843 -0.2937
  480SOL     OW 1495   3.945   1.446   0.762 -0.3505  0.2524  0.2477
  480SOL    HW1 1496   3.851   1.455   0.748 -0.2487  0.3344 -0.3966
  480SOL    HW2 1497   3.953   1.422   0.854 -1.1517 -2.0343 -0.2059
  481SOL     OW 1498   4.449   0.097   2.675 -0.1941  0.4643  0.2626
  481SOL    HW1 1499   4.462   0.006   2.701 -0.4119  1.1131  2.9646
  481SOL    HW2 1500   4.380   0.093   2.609 -1.6115 -1.2192  1.7164
  482SOL     OW 1501   4.858   4.257   0.436 -0.3952 -0.2466 -0.9625
  482SOL    HW1 1502   4.809   4.293   0.510  1.0006  1.5664 -0.8414
  482SOL    HW2 1503   4.930   4.208   0.476 -0.0530  0.1353 -1.0967
  483SOL     OW 1504   0.930   4.250   3.971 -0.1274  0.3023  0.4231
  483SOL    HW1 1505   0.973   4.324   3.928  1.3494 -0.5455  0.3953
  483SOL    HW2 1506   0.852   4.234   3.917  0.1920  1.0461 -0.2934
  484SOL     OW 1507   0.592   1.986   1.548 -0.2571  0.4897  0.4449
  484SOL    HW1 1508   0.624   1.961   1.634  0.4012  1.9455  0.6491
  484SOL    HW2 1509   0.621   2.076   1.536  2.3530 -0.5175 -2.5205
  485SOL     OW 1510   1.595   4.977   2.941  0.3766  0.0414  0.1695
  485SOL    HW1 1511   1.614   4.883   2.934 -0.5541 -0.0832 -0.9935
  485SOL    HW2 1512   1.521   4.983   3.000 -0.7464 -0.1487 -1.1634
  486SOL     OW 1513   1.307   3.785   2.644  0.4939  0.4578  0.0075
  486SOL    HW1 1514   1.213   3.768   2.638  0.4746  0.6898 -0.4276
  486SOL    HW2 1515   1.319   3.830   2.727  0.2102  0.4784  0.0364
  487SOL     OW 1516   4.567   3.772   0.518 -0.3018 -0.3689 -0.3121
  487SOL    HW1 1517   4.557   3.864   0.493  1.5082  0.0741  0.4672
  487SOL    HW2 1518   4.645   3.770   0.574 -1.8796 -1.9282  2.0346
  488SOL     OW 1519   0.939   0.241   4.010 -0.0957  0.2234  0.2522
  488SOL    HW1 1520   0.948   0.212   4.101  0.4987  3.2094  1.2635
  488SOL    HW2 1521   0.845   0.252   3.997 -0.1060  1.1672  1.0275
  489SOL     OW 1522   4.108   3.661   1.904  0.1826  0.4604  0.0918
  489SOL    HW1 1523   4.094   3.683   1.996  2.0448 -1.0398  0.8142
  489SOL    HW2 1524   4.189   3.707   1.881 -0.9155  1.8510 -1.2456
  490SOL     OW 1525   3.274   3.944   2.068 -0.1945 -0.2601 -0.0037
  490SOL    HW1 1526   3.196   3.901   2.103 -1.3719  1.6056 -0.1538
  490SOL    HW2 1527   3.335   3.946   2.141 -0.4126 -1.4194  0.2331
  491SOL     OW 1528   4.040   1.449   1.198 -0.5893 -0.5303 -0.2862
  491SOL    HW1 1529   3.985   1.378   1.167 -1.8745 -0.0203  0.7475
  491SOL    HW2 1530   3.989   1.493   1.266  1.1286 -0.0875  0.8103
  492SOL     OW 1531   0.368   1.890   1.093 -0.2482 -0.2106 -0.4225
  492SOL    HW1 1532   0.349   1.797   1.087 -1.0300 -0.3058  2.2674
  492SOL    HW2 1533   0.446   1.903   1.039  0.3637 -2.5591 -0.1948
  493SOL     OW 1534   0.134   4.673   0.012 -0.3176 -0.5543 -0.7277
  493SOL    HW1 1535   0.050   4.629   0.006 -1.2931  1.0933  0.1122
  493SOL    HW2 1536   0.123   4.736   0.083  0.9104  1.1776 -1.9913
  494SOL     OW 1537   3.088   3.453   1.190  0.0603  0.3777 -0.5044
  494SOL    HW1 1538   3.141   3.479   1.265 -0.9252 -0.7100  0.6204
  494SOL    HW2 1539   3.033   3.529   1.171 -2.6046 -0.5166  2.5621
  495SOL     OW 1540   0.277   3.555   0.209 -0.1198  0.4944 -0.3294
  495SOL    HW1 1541   0.346   3.611   0.175 -2.0436  1.7487 -2.4722
  495SOL    HW2 1542   0.255   3.498   0.136 -0.0878 -1.2453  0.9430
  496SOL     OW 1543   3.645   2.674   3.953 -0.2447  0.4876  0.6071
  496SOL    HW1 1544   3.668   2.734   3.882 -0.1151  0.0586  0.2857
  496SOL    HW2 1545   3.605   2.599   3.910  2.2276 -0.9927  0.7194
  497SOL     OW 1546   3.341   3.500   4.188  0.4986 -0.0643  0.4383
  497SOL    HW1 1547   3.339   3.405   4.200 -0.0177  0.0718  1.5583
  497SOL    HW2 1548   3.424   3.527   4.226  0.9573 -0.1325 -0.4941
  498SOL     OW 1549   0.195   2.826   2.693  0.4804 -0.4978  0.0677
  498SOL    HW1 1550   0.176   2.827   2.787  1.2405 -0.2484  0.2291
  498SOL    HW2 1551   0.135   2.761   2.657  0.2077 -0.6230  0.7322
  499SOL     OW 1552   1.868   1.316   1.094 -0.6661 -0.5374 -0.7257
  499SOL    HW1 1553   1.858   1.372   1.171  1.9360 -0.9917  0.0654
  499SOL    HW2 1554   1.960   1.326   1.069 -0.2319 -3.8821 -0.9652
  500SOL     OW 1555   4.863   2.635   0.598  0.0332 -0.2424  0.2348
  500SOL    HW1 1556   4.880   2.638   0.693 -1.3970 -1.1892  0.5408
  500SOL    HW2 1557   4.805   2.560   0.586 -3.1280  2.1750 -0.8600
  501SOL     OW 1558   2.648   3.240   4.612  0.5608 -0.2327  0.1491
  501SOL    HW1 1559   2.652   3.184   4.691 -0.6135 -0.9498 -0.2795
  501SOL    HW2 1560   2.586   3.309   4.635  1.3313  0.4164  0.3510
  502SOL     OW 1561   1.951   3.536   4.784  0.1885 -0.1993  0.5685
  502SOL    HW1 1562   1.959   3.631   4.794 -0.7091 -0.3133  3.0175
  502SOL    HW2 1563   2.037   3.508   4.751  0.6853  1.3912  0.4656
  503SOL     OW 1564   0.981   4.455   0.897  0.6644 -0.8037 -0.2412
  503SOL    HW1 1565   0.889   4.442   0.919  0.2335  0.2842 -1.2651
  503SOL    HW2 1566   1.028   4.395   0.954 -0.5380  0.0651  1.7562
  504SOL     OW 1567   2.960   0.330   1.930  0.2851 -0.1142 -0.3424
  504SOL    HW1 1568   2.870   0.360   1.921  0.5833  0.8742 -0.2049
  504SOL    HW2 1569   2.993   0.324   1.841 -0.2097 -1.4878 -0.4605
  505SOL     OW 1570   0.140   3.121   3.535  0.3765 -0.3350  0.1919
  505SOL    HW1 1571   0.178   3.046   3.490 -1.9435 -1.3166 -0.2417
  505SOL    HW2 1572   0.183   3.122   3.621  2.5784 -0.3192 -0.8378
  506SOL     OW 1573   3.858   2.046   0.344  0.0268  0.3673 -0.6904
  506SOL    HW1 1574   3.920   2.108   0.382  2.4496 -1.0811 -2.0388
  506SOL    HW2 1575   3.820   2.093   0.270  0.1416  1.0041 -0.3526
  507SOL     OW 1576   3.625   4.387   0.406 -0.1867  0.6330  0.3367
  507SOL    HW1 1577   3.624   4.291   0.402  0.0228  0.6700 -0.7884
  507SOL    HW2 1578   3.664   4.414   0.323 -1.7123  1.7339 -0.0473
  508SOL     OW 1579   0.480   0.805   4.650  0.0320 -0.1120 -0.3907
  508SOL    HW1 1580   0.563   0.758   4.641 -0.9886 -1.8466 -1.0141
  508SOL    HW2 1581   0.423   0.767   4.584 -0.8494  2.0675 -0.9649
  509SOL     OW 1582   2.893   3.931   4.560 -0.1496 -0.1639 -0.1329
  509SOL    HW1 1583   2.838   4.007   4.579 -0.7514 -0.7378  0.4121
  509SOL    HW2 1584   2.936   3.911   4.643  1.5304  0.7672 -0.7229
  510SOL     OW 1585   0.295   4.253   1.883  0.1014 -0.2110  0.1080
  510SOL    HW1 1586   0.248   4.179   1.847  0.9959 -0.2669 -1.0137
  510SOL    HW2 1587   0.318   4.307   1.807  1.7580 -0.1566  0.5902
  511SOL     OW 1588   0.053   1.233   2.752  0.0058 -0.3765 -0.0413
  511SOL    HW1 1589   0.002   1.227   2.833  0.8811  0.5229  0.6055
  511SOL    HW2 1590   0.136   1.272   2.779  1.0206 -1.7223 -1.0867
  512SOL     OW 1591   0.812   2.363   0.171 -0.1644 -0.1040  0.0078
  512SOL    HW1 1592   0.783   2.428   0.236 -0.9706 -0.0589 -0.3881
  512SOL    HW2 1593   0.839   2.416   0.096  0.0341 -0.1897  0.0196
  513SOL     OW 1594   3.410   3.889   3.546 -0.1051 -0.1451  0.3936
  513SOL    HW1 1595   3.372   3.975   3.527  0.7844  0.2254  0.2417
  513SOL    HW2 1596   3.447   3.898   3.633 -0.9017 -0.7005  0.8031
  514SOL     OW 1597   3.100   4.590   4.213 -0.0249 -0.0153 -0.0704
  514SOL    HW1 1598   3.110   4.685   4.208 -0.6151  0.0176 -0.7138
  514SOL    HW2 1599   3.124   4.558   4.127  0.1975 -0.4616  0.1524
  515SOL     OW 1600   1.417   0.567   2.856 -0.1236  0.3408  0.4830
  515SOL    HW1 1601   1.427   0.519   2.773 -0.1806  1.2178 -0.0444
  515SOL    HW2 1602   1.414   0.499   2.923  0.8731 -0.3492 -0.1407
  516SOL     OW 1603   2.255   2.106   2.900  0.8265 -0.2204  0.4736
  516SOL    HW1 1604   2.210   2.151   2.971  1.4481  1.4964 -0.1850
  516SOL    HW2 1605   2.328   2.163   2.877  0.1422 -0.2559 -2.1358
  517SOL     OW 1606   1.928   1.428   0.520  0.6280 -0.6676  0.3335
  517SOL    HW1 1607   1.912   1.428   0.614 -1.3043 -0.4771  0.0384
  517SOL    HW2 1608   1.963   1.515   0.502 -1.3916  0.2391  0.5467
  518SOL     OW 1609   2.911   3.220   4.709  0.1279  0.5988  0.0091
  518SOL    HW1 1610   2.927   3.144   4.766  1.6560  3.2100  3.4230
  518SOL    HW2 1611   2.821   3.209   4.679 -0.0973 -1.9457  1.3284
  519SOL     OW 1612   2.498   3.281   2.308  0.1373 -0.4594 -0.1036
  519SOL    HW1 1613   2.475   3.335   2.383  2.4775  1.8023 -0.8578
  519SOL    HW2 1614   2.510   3.193   2.345  1.3299  0.5944  2.2494
  520SOL     OW 1615   3.646   0.654   2.220 -0.2036  0.4934 -0.0170
  520SOL    HW1 1616   3.692   0.735   2.199  2.4444 -0.3682  1.9904
  520SOL    HW2 1617   3.564   0.661   2.172 -0.4081  4.6403  0.5163
  521SOL     OW 1618   0.709   0.494   0.102  0.4606  0.3749 -0.5024
  521SOL    HW1 1619   0.732   0.426   0.165 -0.7218  0.4998  0.0978
  521SOL    HW2 1620   0.709   0.575   0.154 -1.3617  0.3657 -0.4276
  522SOL     OW 1621   0.053   2.749   0.169 -0.8066 -0.0317  0.5338
  522SOL    HW1 1622   0.075   2.720   0.258  0.4392 -1.8949 -0.3102
  522SOL    HW2 1623   0.124   2.808   0.145  0.3190 -1.5978 -0.1333
  523SOL     OW 1624   1.711   1.919   0.901  0.0832 -0.3572 -0.3348
  523SOL    HW1 1625   1.667   1.852   0.954  0.4141 -0.4542 -0.1823
  523SOL    HW2 1626   1.664   2.000   0.921  2.0341  0.2303  2.4032
  524SOL     OW 1627   3.379   4.717   0.973  0.5924  0.2790  0.0215
  524SOL    HW1 1628   3.363   4.624   0.988  1.9107  0.3044  1.9261
  524SOL    HW2 1629   3.469   4.732   1.004 -0.2500  2.5515  1.6765
  525SOL     OW 1630   2.913   0.045   4.350 -0.6687 -0.0076  1.3460
  525SOL    HW1 1631   2.846   0.098   4.305  0.6867  0.3743 -0.3338
  525SOL    HW2 1632   2.985   0.105   4.366  0.9939 -1.2548 -0.7867
  526SOL     OW 1633   2.914   3.627   2.017 -0.0692 -0.0234  0.4541
  526SOL    HW1 1634   2.945   3.629   1.927 -1.1934  1.5775  0.0598
  526SOL    HW2 1635   2.917   3.535   2.042  1.5116 -0.3257 -0.7505
  527SOL     OW 1636   3.191   2.934   4.844  0.3967  0.5524  0.1933
  527SOL    HW1 1637   3.258   2.876   4.880 -0.6001 -0.4630  0.4512
  527SOL    HW2 1638   3.237   3.018   4.832  1.0097  0.7714  3.1134
  528SOL     OW 1639  -0.012   2.844   1.916 -0.2723 -0.0739 -0.0436
  528SOL    HW1 1640   0.081   2.845   1.939 -0.0283 -0.2398 -0.9820
  528SOL    HW2 1641  -0.025   2.760   1.873 -0.5573  0.4876 -1.0776
  529SOL     OW 1642   3.013   0.017   3.621  0.1486 -0.4311  0.0390
  529SOL    HW1 1643   3.102   0.036   3.652  0.1378 -0.0444 -0.1691
  529SOL    HW2 1644   2.972   0.102   3.613  0.6210 -0.3822 -2.5033
  530SOL     OW 1645   0.428   3.796   3.265 -0.3361 -0.0459  0.2629
  530SOL    HW1 1646   0.522   3.809   3.253 -0.3875  0.5213  0.4551
  530SOL    HW2 1647   0.422   3.713   3.314  0.0655 -0.0590  0.2962
  531SOL     OW 1648   1.258   2.437   3.722  0.3307  0.0383 -0.0192
  531SOL    HW1 1649   1.351   2.447   3.701  0.8885 -1.0332  1.7073
  531SOL    HW2 1650   1.247   2.486   3.804 -0.2021 -1.2819  0.7304
  532SOL     OW 1651   2.471   4.521   4.475  0.3054  0.3944 -0.0442
  532SOL    HW1 1652   2.498   4.613   4.473  0.8107  0.2723  0.7261
  532SOL    HW2 1653   2.545   4.474   4.436  0.0419  0.3095 -0.4496
  533SOL     OW 1654   0.741   0.770   3.041  0.1303 -0.0337  0.0341
  533SOL    HW1 1655   0.646   0.782   3.043 -0.4056 -2.9244 -2.0113
  533SOL    HW2 1656   0.769   0.783   3.131 -2.3906 -0.3656  0.9431
  534SOL     OW 1657   0.857   1.381   0.445 -0.3203 -0.1488  0.4275
  534SOL    HW1 1658   0.916   1.457   0.439  0.9857 -1.0937  0.8860
  534SOL    HW2 1659   0.879   1.340   0.528 -1.1450 -0.9297  0.2724
  535SOL     OW 1660   1.232   2.305   0.089 -0.3133  0.3576  0.0894
  535SOL    HW1 1661   1.242   2.382   0.033 -0.2181  0.1568 -0.1758
  535SOL    HW2 1662   1.292   2.240   0.050 -1.1311 -0.1878 -0.2943
  536SOL     OW 1663   3.160   2.209   2.462 -0.0929  0.3873  0.0933
  536SOL    HW1 1664   3.156   2.293   2.415 -0.1369  1.1517  1.4124
  536SOL    HW2 1665   3.074   2.200   2.502 -0.5320 -0.9400 -1.0578
  537SOL     OW 1666   3.459   2.718   4.714  0.3435 -0.0340 -0.5455
  537SOL    HW1 1667   3.457   2.649   4.648 -1.0050 -0.3956 -0.1678
  537SOL    HW2 1668   3.435   2.797   4.666  2.9652  0.4327 -1.2062
  538SOL     OW 1669   0.874   1.905   4.313 -0.1234 -0.2715 -0.2647
  538SOL    HW1 1670   0.876   1.832   4.375 -1.5524 -1.5390 -1.6110
  538SOL    HW2 1671   0.841   1.866   4.232 -2.5026  2.1922 -0.6122
  539SOL     OW 1672   3.450   2.787   2.354 -0.4990  0.5383 -0.1433
  539SOL    HW1 1673   3.510   2.795   2.279 -0.5859  0.6298 -0.2028
  539SOL    HW2 1674   3.484   2.712   2.404 -0.3771  0.5451 -0.2158
  540SOL     OW 1675   4.459   1.879   1.182  0.2974 -0.4042 -0.0928
  540SOL    HW1 1676   4.393   1.860   1.115 -0.7200  1.1988  0.4110
  540SOL    HW2 1677   4.413   1.930   1.248  2.0929  0.9774  0.1792
  541SOL     OW 1678   1.688   0.814   4.216 -0.5065  0.8509  0.1863
  541SOL    HW1 1679   1.756   0.881   4.213 -1.2228  1.5598 -0.6447
  541SOL    HW2 1680   1.606   0.863   4.224 -1.1034  0.1232 -1.2131
  542SOL     OW 1681   2.439   4.238   3.657 -0.2723  0.0459  0.3811
  542SOL    HW1 1682   2.458   4.332   3.652 -2.9415  0.5788 -2.0198
  542SOL    HW2 1683   2.359   4.233   3.709  1.6222 -1.3588  3.4703
  543SOL     OW 1684   2.065   4.110   3.246  0.7915  0.3552 -0.0800
  543SOL    HW1 1685   2.050   4.105   3.151  0.6804  0.7547 -0.0829
  543SOL    HW2 1686   1.984   4.147   3.281  0.3394 -0.9368  0.3147
  544SOL     OW 1687   4.649   4.641   3.176  0.0242 -0.2068  0.4333
  544SOL    HW1 1688   4.577   4.677   3.123 -2.2478  0.8028  3.8822
  544SOL    HW2 1689   4.616   4.557   3.207  0.4759  0.0705  1.7147
  545SOL     OW 1690   4.142   2.386   1.942  0.3028  0.5324 -0.0580
  545SOL    HW1 1691   4.070   2.351   1.993  0.3477  1.0878  0.3944
  545SOL    HW2 1692   4.100   2.438   1.873  0.2693  1.7177  0.8261
  546SOL     OW 1693   4.216   2.689   1.567 -0.6283  0.5909 -0.5704
  546SOL    HW1 1694   4.195   2.738   1.647  2.4368 -0.6404  1.1583
  546SOL    HW2 1695   4.217   2.597   1.594  2.6385  0.2730 -1.3376
  547SOL     OW 1696   0.185   4.631   3.054  0.2008  0.1550 -0.6078
  547SOL    HW1 1697   0.262   4.575   3.049  1.8522  2.2578  0.1253
  547SOL    HW2 1698   0.203   4.704   2.995 -1.1559  0.7778 -0.3085
  548SOL     OW 1699   4.679   1.429   4.817 -0.5271  0.2113 -0.2386
  548SOL    HW1 1700   4.605   1.388   4.862 -1.5265  2.1065 -0.0527
  548SOL    HW2 1701   4.720   1.485   4.883  0.0115  0.5000 -0.7994
  549SOL     OW 1702   1.630   0.771   2.891 -0.2004 -0.3386  0.3453
  549SOL    HW1 1703   1.602   0.679   2.891 -0.0840 -0.3758  0.1068
  549SOL    HW2 1704   1.627   0.797   2.799 -0.6535  0.0282  0.4615
  550SOL     OW 1705   2.358   2.472   1.240  0.4159 -0.3411 -0.0773
  550SOL    HW1 1706   2.272   2.429   1.239  0.1840  0.0092  1.6036
  550SOL    HW2 1707   2.339   2.565   1.235  0.7724 -0.3034 -0.8626
  551SOL     OW 1708   4.096   3.249   3.023 -0.4561 -0.0818 -0.0779
  551SOL    HW1 1709   4.021   3.213   3.069 -0.4097  0.0351  0.0889
  551SOL    HW2 1710   4.080   3.343   3.021  0.1268  0.0365  0.7496
  552SOL     OW 1711   1.767   0.476   0.388  0.1882 -0.0281  0.1840
  552SOL    HW1 1712   1.820   0.445   0.315 -1.7109 -0.3449 -1.1348
  552SOL    HW2 1713   1.679   0.442   0.370 -0.2738 -0.4021  2.8183
  553SOL     OW 1714   0.354   4.272   1.497  0.1392 -0.3925  0.5023
  553SOL    HW1 1715   0.270   4.230   1.481 -0.7218  1.3246  0.2806
  553SOL    HW2 1716   0.390   4.288   1.409 -0.2090  0.5964  0.5317
  554SOL     OW 1717   2.615   3.757   2.186  0.6030  0.0304 -0.0957
  554SOL    HW1 1718   2.653   3.680   2.144 -0.7238 -0.1575 -1.0175
  554SOL    HW2 1719   2.658   3.831   2.145  0.4175 -0.1881 -0.6855
  555SOL     OW 1720   0.657   1.351   3.072  0.1389  0.8682  0.0324
  555SOL    HW1 1721   0.639   1.423   3.011 -0.4028  1.3195  0.7103
  555SOL    HW2 1722   0.741   1.374   3.112 -1.4723  2.8206  2.5767
  556SOL     OW 1723   4.040   1.398   4.362  0.2316 -0.3441  0.3465
  556SOL    HW1 1724   3.994   1.314   4.362 -2.2747  0.9445  1.6776
  556SOL    HW2 1725   4.003   1.446   4.288  0.8163  0.0303  0.2919
  557SOL     OW 1726   0.144   1.863   1.870 -0.1186  0.7123  0.5316
  557SOL    HW1 1727   0.149   1.820   1.784 -0.6879  0.4747  0.6168
  557SOL    HW2 1728   0.069   1.823   1.913 -0.4204  1.5195  0.7689
  558SOL     OW 1729   3.837   4.510   0.654 -0.1530  0.1701 -0.3560
  558SOL    HW1 1730   3.838   4.574   0.583 -1.1560 -0.5669 -1.0476
  558SOL    HW2 1731   3.766   4.538   0.711  0.4559  0.5859  0.2155
  559SOL     OW 1732  -0.006   0.159   4.153  0.4072  0.0461  0.3893
  559SOL    HW1 1733  -0.012   0.248   4.187 -0.2892  0.7505 -1.4854
  559SOL    HW2 1734   0.084   0.152   4.121 -0.1086  0.8422 -1.3549
  560SOL     OW 1735   2.768   4.936   4.728  0.2752 -0.1346  0.1301
  560SOL    HW1 1736   2.814   4.921   4.645 -0.1914  1.7511 -0.5261
  560SOL    HW2 1737   2.769   5.031   4.738 -0.9800 -0.2425  1.5560
  561SOL     OW 1738   0.106   1.520   4.656 -0.4754 -0.1103 -0.2325
  561SOL    HW1 1739   0.017   1.515   4.622 -0.2394  1.2894 -1.1455
  561SOL    HW2 1740   0.096   1.544   4.748 -1.0319  1.3632 -0.6586
  562SOL     OW 1741   0.826   4.754   1.710  0.4503  0.0419  0.1600
  562SOL    HW1 1742   0.850   4.794   1.794 -1.0347  0.1900  0.5413
  562SOL    HW2 1743   0.828   4.826   1.647  0.1214  0.2318  0.3661
  563SOL     OW 1744   1.469   1.739   2.865  0.2704 -0.9208 -0.8204
  563SOL    HW1 1745   1.482   1.833   2.851  0.7808 -0.8510  0.0331
  563SOL    HW2 1746   1.532   1.697   2.806 -0.4759 -0.7638 -1.7569
  564SOL     OW 1747   1.149   3.448   0.907  0.4909 -0.1238 -0.2766
  564SOL    HW1 1748   1.057   3.423   0.917  0.8685 -2.3370 -1.6018
  564SOL    HW2 1749   1.195   3.364   0.899  2.3473  0.9718 -1.7169
  565SOL     OW 1750   2.852   4.146   1.678 -0.2067  0.4975 -0.0444
  565SOL    HW1 1751   2.845   4.085   1.604  0.3138 -0.3508  0.5895
  565SOL    HW2 1752   2.784   4.212   1.661 -0.7086 -0.1908 -0.7966
  566SOL     OW 1753   0.200   4.482   3.346  0.3612  1.0485 -0.5257
  566SOL    HW1 1754   0.224   4.405   3.294 -0.7813  0.8166 -0.7298
  566SOL    HW2 1755   0.165   4.544   3.283  0.4216  1.3713 -0.2416
  567SOL     OW 1756   1.767   2.827   4.438  0.1022  0.5433  0.8868
  567SOL    HW1 1757   1.833   2.893   4.419 -0.2383  1.2472  2.0815
  567SOL    HW2 1758   1.778   2.808   4.532  0.4767 -1.4168  0.5021
  568SOL     OW 1759   0.583   3.802   3.642 -0.3429 -0.0143 -0.2128
  568SOL    HW1 1760   0.550   3.720   3.604 -0.4369 -1.0649  2.0205
  568SOL    HW2 1761   0.508   3.862   3.637 -0.8763 -0.6636 -0.1491
  569SOL     OW 1762   3.453   0.518   0.136  0.0385  0.2029  0.2630
  569SOL    HW1 1763   3.478   0.603   0.099 -0.4415  0.6483  0.9506
  569SOL    HW2 1764   3.436   0.463   0.060  0.5872  0.6484 -0.1912
  570SOL     OW 1765   3.799  -0.033   1.503  0.2210  0.2283 -0.2445
  570SOL    HW1 1766   3.859   0.030   1.543 -0.4186  0.8964 -0.3348
  570SOL    HW2 1767   3.731   0.020   1.463 -0.7924 -0.5448  0.4116
  571SOL     OW 1768   3.305   3.162   3.625 -0.5650  0.2688 -0.0478
  571SOL    HW1 1769   3.301   3.253   3.597  3.4923  1.4876  2.5665
  571SOL    HW2 1770   3.270   3.162   3.714 -2.0276 -1.1168 -0.5785
  572SOL     OW 1771   1.700   3.127   4.255 -0.1528 -0.1952  0.1986
  572SOL    HW1 1772   1.764   3.062   4.284 -0.1555  0.0326  0.7142
  572SOL    HW2 1773   1.729   3.209   4.296 -1.3807 -0.2937  1.3011
  573SOL     OW 1774   3.254   4.252   4.945 -0.0896 -0.4794  0.2178
  573SOL    HW1 1775   3.241   4.306   4.867  0.0792  0.7298  1.0015
  573SOL    HW2 1776   3.193   4.179   4.935  1.9476 -1.9921 -2.4739
  574SOL     OW 1777   0.687   2.757   2.383  0.4097 -0.7682 -0.2961
  574SOL    HW1 1778   0.594   2.735   2.386 -0.2510  1.8004  0.1442
  574SOL    HW2 1779   0.723   2.720   2.464 -0.9231  0.8623  1.1055
  575SOL     OW 1780   3.302   0.580   3.197  0.1915  0.1973  0.4624
  575SOL    HW1 1781   3.228   0.580   3.136  0.0579 -1.0524  0.6095
  575SOL    HW2 1782   3.275   0.523   3.269  1.2625 -0.2202  0.5571
  576SOL     OW 1783   0.231   2.193   2.249  0.1920 -0.0054 -0.9436
  576SOL    HW1 1784   0.210   2.101   2.263  1.1843 -0.1506 -0.2869
  576SOL    HW2 1785   0.146   2.237   2.248 -0.2470 -0.7842 -0.1677
  577SOL     OW 1786   1.190   1.038   0.880  0.2966  0.9672  0.0454
  577SOL    HW1 1787   1.192   1.028   0.975 -0.0281 -0.0034 -0.0329
  577SOL    HW2 1788   1.249   0.969   0.847  2.5003  2.9265 -0.3916
  578SOL     OW 1789   3.277   1.972   2.312 -0.1269  0.0485  0.0724
  578SOL    HW1 1790   3.232   2.045   2.354 -3.6464 -1.8164 -0.1091
  578SOL    HW2 1791   3.308   1.918   2.385 -1.3540 -0.3969  0.2923
  579SOL     OW 1792   0.048   0.836   0.745  1.1937  0.4613  0.1212
  579SOL    HW1 1793   0.014   0.769   0.685  1.2459  0.5978 -0.0607
  579SOL    HW2 1794   0.097   0.787   0.811  0.6803  0.2639  0.3602
  580SOL     OW 1795   4.987   2.560   4.292 -0.4390 -0.0467 -0.4415
  580SOL    HW1 1796   4.986   2.472   4.329  1.1039 -0.3491 -1.0416
  580SOL    HW2 1797   4.906   2.565   4.241 -0.2738 -1.3344 -0.8663
  581SOL     OW 1798   2.322   2.842   0.989  0.0505  0.1566  0.4320
  581SOL    HW1 1799   2.274   2.763   0.962  0.9382 -0.9299  1.8846
  581SOL    HW2 1800   2.280   2.868   1.071  2.0296 -0.9479  1.8565
  582SOL     OW 1801   3.952   1.159   4.221  0.3568  0.3479  0.1448
  582SOL    HW1 1802   3.993   1.074   4.242  0.0792  0.6428  2.0361
  582SOL    HW2 1803   3.975   1.174   4.130 -0.5615 -2.3147 -0.6033
  583SOL     OW 1804   2.957   1.694   0.121  0.7891 -0.6665  0.4911
  583SOL    HW1 1805   3.038   1.691   0.069  0.5602 -1.5333  0.1640
  583SOL    HW2 1806   2.985   1.668   0.209  0.8254 -1.2656  0.3092
  584SOL     OW 1807   2.032   1.803   1.621 -0.4733 -0.0230 -0.5746
  584SOL    HW1 1808   2.096   1.864   1.587  1.0435 -1.0055  0.4139
  584SOL    HW2 1809   1.984   1.852   1.689  1.8597 -0.3183  1.4226
  585SOL     OW 1810   4.599   3.066   2.125 -0.2593 -0.2657  0.0506
  585SOL    HW1 1811   4.642   3.049   2.208 -0.5763 -0.8060  0.1044
  585SOL    HW2 1812   4.648   3.015   2.061  1.3344  1.8004 -0.4738
  586SOL     OW 1813   0.093   1.622   1.382  0.4197 -0.1811 -0.5732
  586SOL    HW1 1814   0.047   1.588   1.306 -0.8175 -1.8358  0.8298
  586SOL    HW2 1815   0.144   1.548   1.415  2.2289  0.9644 -0.6893
  587SOL     OW 1816   3.936   2.354   4.673 -0.1889 -0.0645  0.3422
  587SOL    HW1 1817   3.940   2.365   4.578 -1.1960 -0.2579  0.2733
  587SOL    HW2 1818   3.916   2.441   4.706  0.4215  0.0578  0.4034
  588SOL     OW 1819   0.498   1.456   0.103  0.7567  0.0335 -0.0969
  588SOL    HW1 1820   0.447   1.417   0.174 -1.1683  0.1545 -1.3402
  588SOL    HW2 1821   0.569   1.503   0.148  0.3591 -0.9437  1.6586
  589SOL     OW 1822   1.654   1.145   2.656 -0.3555 -0.0653 -0.2058
  589SOL    HW1 1823   1.630   1.153   2.748  2.3371  3.0382  0.4407
  589SOL    HW2 1824   1.743   1.109   2.657 -1.2721 -2.6815 -1.8801
  590SOL     OW 1825   4.780   4.859   1.567  0.2768 -0.0489  0.6588
  590SOL    HW1 1826   4.775   4.763   1.560  1.0180  0.0113 -1.4760
  590SOL    HW2 1827   4.751   4.878   1.657 -0.6570 -2.1979  0.8868
  591SOL     OW 1828   0.886   3.188   4.255 -0.4825 -0.1662  0.1981
  591SOL    HW1 1829   0.877   3.119   4.321  1.1555  0.1971  0.8528
  591SOL    HW2 1830   0.858   3.146   4.173 -0.9129 -1.1498  0.8261
  592SOL     OW 1831   1.168   1.932   2.939  0.3741 -0.0965  0.3510
  592SOL    HW1 1832   1.168   1.864   2.870 -0.2228 -0.5229  0.7648
  592SOL    HW2 1833   1.092   1.912   2.992 -0.0869  1.1985  0.2135
  593SOL     OW 1834   0.462   2.251   0.670 -0.6332  0.9059  0.0095
  593SOL    HW1 1835   0.541   2.254   0.616  0.5551  0.8723  1.6495
  593SOL    HW2 1836   0.460   2.335   0.716 -2.3732  1.4924 -1.0588
  594SOL     OW 1837   1.921   1.170   4.454  0.1512 -0.5852 -0.0121
  594SOL    HW1 1838   1.981   1.117   4.402 -0.0225 -0.7675 -0.0279
  594SOL    HW2 1839   1.946   1.260   4.435  0.0235 -0.6491 -0.4859
  595SOL     OW 1840   2.527   0.177   1.108  0.3651 -0.5222 -0.4282
  595SOL    HW1 1841   2.509   0.101   1.164 -0.1789  0.4027  0.6830
  595SOL    HW2 1842   2.473   0.247   1.144  2.4243  0.9926 -0.1074
  596SOL     OW 1843   0.622   2.239   1.635  0.1298 -0.0518  0.1948
  596SOL    HW1 1844   0.582   2.307   1.582  0.7726 -0.7528 -1.2515
  596SOL    HW2 1845   0.548   2.185   1.664 -0.1403 -0.3351 -0.9835
  597SOL     OW 1846   4.894   3.041   0.694 -0.1815 -0.5179 -0.2926
  597SOL    HW1 1847   4.899   2.994   0.611  0.2747 -1.2922  0.1686
  597SOL    HW2 1848   4.821   3.002   0.740 -1.0417  0.5501 -0.7021
  598SOL     OW 1849   1.948   4.755   3.595 -0.2220  0.1092  0.6106
  598SOL    HW1 1850   1.873   4.799   3.556 -0.9213 -0.7184  0.9673
  598SOL    HW2 1851   1.939   4.664   3.566  0.6692  0.0088  0.6293
  599SOL     OW 1852   4.551   3.007   0.073  0.5021  0.3254 -0.4107
  599SOL    HW1 1853   4.520   2.952   0.002  1.2097  1.1394 -1.3710
  599SOL    HW2 1854   4.478   3.010   0.135  0.0615 -0.7941 -0.8423
  600SOL     OW 1855   4.840   4.513   0.746  0.2934  0.4079  0.3046
  600SOL    HW1 1856   4.881   4.487   0.829 -1.0383  0.4183  0.9961
  600SOL    HW2 1857   4.768   4.570   0.773 -0.7712 -0.3740 -0.8062
  601SOL     OW 1858   2.354   4.931   0.186 -0.1405  0.4705  0.0210
  601SOL    HW1 1859   2.439   4.973   0.169 -1.1973  2.1264 -1.5644
  601SOL    HW2 1860   2.291   5.002   0.179 -1.7422 -0.8491  0.5227
  602SOL     OW 1861   3.557   0.032   1.068 -0.3766  0.2124 -0.3891
  602SOL    HW1 1862   3.507  -0.040   1.030 -0.4710 -1.0676  1.9676
  602SOL    HW2 1863   3.539   0.107   1.011 -1.1726 -1.3270 -2.2746
  603SOL     OW 1864   3.948   1.374   1.833 -0.3777  0.2320 -0.4526
  603SOL    HW1 1865   3.938   1.360   1.927  1.0433  0.3530 -0.2555
  603SOL    HW2 1866   3.861   1.358   1.797 -0.5011 -1.8992  0.6213
  604SOL     OW 1867   0.763   0.365   0.669  0.4010  0.1406 -0.3084
  604SOL    HW1 1868   0.831   0.432   0.667  0.1335  0.7596  3.4828
  604SOL    HW2 1869   0.806   0.288   0.706  0.1025 -1.0954 -2.3527
  605SOL     OW 1870   3.324   3.624   4.526  0.0027  0.0601  0.0644
  605SOL    HW1 1871   3.349   3.627   4.434  0.4726  1.4279  0.2183
  605SOL    HW2 1872   3.231   3.645   4.528  0.0918  0.4687 -0.0667
  606SOL     OW 1873   0.170   1.871   3.193  0.3452 -0.2017 -0.0458
  606SOL    HW1 1874   0.209   1.845   3.277  1.1383  1.8352  0.2825
  606SOL    HW2 1875   0.234   1.843   3.128  1.7984  1.8980  0.3933
  607SOL     OW 1876   2.409   0.717   3.093 -0.1576 -0.1384 -0.1836
  607SOL    HW1 1877   2.418   0.765   3.175 -0.8506  0.2440 -0.3211
  607SOL    HW2 1878   2.488   0.664   3.087 -1.3455 -2.3969  2.1568
  608SOL     OW 1879   2.524   2.968   0.550  0.1204 -0.0848  0.3778
  608SOL    HW1 1880   2.481   3.018   0.619  0.0698 -0.4744  0.6362
  608SOL    HW2 1881   2.522   2.877   0.582  1.1928 -0.1052  0.4240
  609SOL     OW 1882   3.858   3.914   0.048  0.3667 -0.1609 -0.0927
  609SOL    HW1 1883   3.871   3.824   0.076 -0.4409 -0.0256  0.7739
  609SOL    HW2 1884   3.807   3.907  -0.033 -0.1953 -0.4712  0.2838
  610SOL     OW 1885   4.863   1.350   3.379  0.2273 -0.1905 -0.0624
  610SOL    HW1 1886   4.829   1.264   3.354 -0.6047 -0.0924  0.6838
  610SOL    HW2 1887   4.866   1.349   3.474 -2.4001  1.4924  0.1668
  611SOL     OW 1888   1.800   2.214   1.673 -0.4288 -0.1180 -0.1216
  611SOL    HW1 1889   1.765   2.124   1.672  1.1745 -0.8057 -2.8476
  611SOL    HW2 1890   1.842   2.221   1.759 -0.0996 -2.1908 -0.0434
  612SOL     OW 1891   2.097   0.890   4.064  0.4621 -0.3460 -0.4290
  612SOL    HW1 1892   2.066   0.915   3.977 -0.1273  0.3879 -0.0164
  612SOL    HW2 1893   2.055   0.806   4.081 -2.5227  1.2147  0.6721
  613SOL     OW 1894   2.888   2.732   3.299 -0.1312  0.6603  0.1226
  613SOL    HW1 1895   2.937   2.700   3.375 -1.0808  1.5696  1.1492
  613SOL    HW2 1896   2.949   2.720   3.225  0.9599  0.1283  1.0696
  614SOL     OW 1897   3.581   1.604   4.855 -0.1819 -0.0398 -0.5219
  614SOL    HW1 1898   3.590   1.514   4.824  2.8018 -0.7450  1.9037
  614SOL    HW2 1899   3.565   1.595   4.949  0.2399  1.9376 -0.2265
  615SOL     OW 1900   0.094   1.727   4.467 -0.5641 -0.5812  0.2884
  615SOL    HW1 1901   0.146   1.683   4.534 -1.7449 -1.5871  0.5828
  615SOL    HW2 1902   0.112   1.820   4.479  0.5306 -0.8608  0.8948
  616SOL     OW 1903   1.886   1.399   2.465  0.3697  0.1295  0.1004
  616SOL    HW1 1904   1.929   1.317   2.443 -1.5486 -1.0053  0.3462
  616SOL    HW2 1905   1.873   1.442   2.380  0.8289 -0.0988 -0.0883
  617SOL     OW 1906   2.582   3.786   0.093 -0.1422  0.1749 -0.0351
  617SOL    HW1 1907   2.556   3.757   0.180 -2.4017  1.1856 -0.3099
  617SOL    HW2 1908   2.595   3.705   0.043  0.6220 -0.4009  1.0443
  618SOL     OW 1909   3.963   1.211   1.476  0.0631  0.3098  0.5935
  618SOL    HW1 1910   3.902   1.254   1.415 -1.6413 -1.0442  1.2398
  618SOL    HW2 1911   3.934   1.239   1.563  0.1668 -0.5681  0.9284
  619SOL     OW 1912   0.946   0.357   4.903 -0.0384 -0.6315  0.1568
  619SOL    HW1 1913   0.887   0.416   4.950  2.0176  0.7892  1.1358
  619SOL    HW2 1914   0.909   0.351   4.815  0.5566  3.7267 -0.6328
  620SOL     OW 1915   2.168   3.163   4.240  0.1673 -0.6259 -0.3779
  620SOL    HW1 1916   2.164   3.228   4.169  0.5123 -0.3308 -0.1302
  620SOL    HW2 1917   2.245   3.188   4.291 -0.6498 -0.2365  0.6875
  621SOL     OW 1918   0.934   0.525   4.569  0.2845  0.0214  0.4397
  621SOL    HW1 1919   1.025   0.513   4.541  0.2248  0.9898 -0.2420
  621SOL    HW2 1920   0.936   0.605   4.622 -0.4450  1.0645 -1.0500
  622SOL     OW 1921   0.319   4.919   2.295 -0.3071  0.2479  0.2379
  622SOL    HW1 1922   0.248   4.904   2.232 -1.2132 -1.1471  1.5213
  622SOL    HW2 1923   0.330   5.014   2.297 -0.5936  0.3503 -1.6420
  623SOL     OW 1924   0.481   3.806   4.531 -0.0235  0.1055 -0.1568
  623SOL    HW1 1925   0.488   3.899   4.512 -0.3666 -0.1403 -1.5940
  623SOL    HW2 1926   0.533   3.763   4.463 -1.2877 -0.8199 -0.5961
  624SOL     OW 1927   4.968   3.427   2.751 -0.1264  0.2638  0.2696
  624SOL    HW1 1928   5.008   3.372   2.685  0.0241  1.6333 -0.8288
  624SOL    HW2 1929   4.921   3.494   2.701 -0.3982  1.0648  1.5453
  625SOL     OW 1930   0.034   2.784   2.935 -0.5964  0.0130 -0.8612
  625SOL    HW1 1931   0.056   2.726   3.007  1.5192  1.7114 -0.0394
  625SOL    HW2 1932  -0.053   2.756   2.908 -1.1993 -1.0811  1.9068
  626SOL     OW 1933   1.613   3.837   1.871  0.2868  0.0911 -0.3055
  626SOL    HW1 1934   1.666   3.910   1.901 -1.2616  0.8983  0.6096
  626SOL    HW2 1935   1.632   3.766   1.933 -1.7634  1.2780  1.8596
  627SOL     OW 1936   3.436   3.423   3.636 -0.5094 -0.1846  0.5613
  627SOL    HW1 1937   3.515   3.473   3.613  0.2576 -1.6697 -0.1792
  627SOL    HW2 1938   3.421   3.445   3.728 -0.7460  2.0611  0.0517
  628SOL     OW 1939   0.533   2.082   0.879 -0.2490 -0.4534  0.2781
  628SOL    HW1 1940   0.497   2.124   0.801 -2.2462 -1.6476  0.4751
  628SOL    HW2 1941   0.550   2.154   0.939  0.2086  0.3851 -0.8154
  629SOL     OW 1942   2.369   3.252   0.932  0.5750 -0.3194 -0.0739
  629SOL    HW1 1943   2.421   3.322   0.894  0.3231 -1.1777 -2.0964
  629SOL    HW2 1944   2.387   3.258   1.026  1.6001  1.5727 -0.3416
  630SOL     OW 1945   1.337   1.231   4.504 -0.6426  0.7106 -0.3185
  630SOL    HW1 1946   1.282   1.180   4.445  1.5719 -1.1540 -0.9197
  630SOL    HW2 1947   1.397   1.167   4.543 -1.0743  2.0991  2.9339
  631SOL     OW 1948   4.209   3.292   4.807 -0.0883  0.1231 -0.0270
  631SOL    HW1 1949   4.208   3.209   4.854 -1.2901  1.3990  2.3536
  631SOL    HW2 1950   4.119   3.322   4.809  0.4915  1.9474  0.0410
  632SOL     OW 1951   4.611   1.723   1.351 -0.5666 -0.1870  0.6461
  632SOL    HW1 1952   4.579   1.805   1.314 -0.8836  0.2827  1.8844
  632SOL    HW2 1953   4.552   1.655   1.316 -0.4786  0.1471 -0.1573
  633SOL     OW 1954   3.165   0.224   1.406 -0.1531 -0.1719 -0.3349
  633SOL    HW1 1955   3.238   0.224   1.468  1.7726 -2.4998 -2.4112
  633SOL    HW2 1956   3.145   0.317   1.394  1.6860  0.4951  1.1970
  634SOL     OW 1957   0.114   1.200   0.359 -0.3295  0.8550 -0.0341
  634SOL    HW1 1958   0.023   1.193   0.330  0.1434  1.7004 -1.8945
  634SOL    HW2 1959   0.120   1.141   0.434 -2.2523  0.3259 -0.2437
  635SOL     OW 1960   4.066   0.515   4.385  0.5497  0.2085  0.3389
  635SOL    HW1 1961   4.042   0.423   4.393  2.3810 -0.3498 -0.1026
  635SOL    HW2 1962   4.100   0.538   4.472  1.2889  0.0822  0.0899
  636SOL     OW 1963   2.128   4.020   3.529 -0.1189  0.3259  0.1535
  636SOL    HW1 1964   2.105   4.094   3.472  0.3236 -0.4194 -1.0330
  636SOL    HW2 1965   2.223   4.011   3.519  0.2872  1.3378  2.4803
  637SOL     OW 1966   2.824   0.068   3.041 -0.0399 -0.1920 -0.2057
  637SOL    HW1 1967   2.755   0.015   3.002 -1.2367  0.7298  0.5667
  637SOL    HW2 1968   2.892   0.005   3.066 -1.0862 -1.2663  0.0210
  638SOL     OW 1969   4.510   3.117   0.792  0.2157  0.0956  0.2323
  638SOL    HW1 1970   4.527   3.211   0.782 -1.8053  0.4357 -0.5641
  638SOL    HW2 1971   4.422   3.105   0.755  0.1625 -2.0029  0.9276
  639SOL     OW 1972   2.671   4.332   0.442  0.1615 -0.7351  0.3753
  639SOL    HW1 1973   2.674   4.396   0.513  1.9926 -0.0104 -0.2842
  639SOL    HW2 1974   2.689   4.248   0.484  2.9083 -0.1055  0.6324
  640SOL     OW 1975   4.704   2.002   1.088 -0.2781  0.2566  0.1409
  640SOL    HW1 1976   4.702   2.026   0.995  0.7693  1.6579  0.4463
  640SOL    HW2 1977   4.618   1.963   1.104 -0.2079 -0.7214 -1.5749
  641SOL     OW 1978   0.903   1.240   4.502  0.6349 -0.2758  0.4348
  641SOL    HW1 1979   0.820   1.208   4.538 -0.6093  1.6417 -0.5551
  641SOL    HW2 1980   0.931   1.308   4.564  0.2108  0.7077 -0.4196
  642SOL     OW 1981   0.916   4.403   1.929 -0.4286  0.5962  0.0855
  642SOL    HW1 1982   0.985   4.444   1.877  0.2993  0.1809  0.7116
  642SOL    HW2 1983   0.835   4.425   1.883  0.2436 -0.4494 -1.7022
  643SOL     OW 1984   0.419   1.514   1.955  0.5558  0.1212  0.0669
  643SOL    HW1 1985   0.365   1.524   1.877  1.0889  1.2057 -0.1718
  643SOL    HW2 1986   0.476   1.590   1.956 -0.1417  0.6878  2.0726
  644SOL     OW 1987   1.275   1.399   0.128 -0.2062  0.3324  0.2097
  644SOL    HW1 1988   1.330   1.429   0.201  0.9506  1.1529 -0.9414
  644SOL    HW2 1989   1.194   1.369   0.169  0.5717  0.3881  1.8548
  645SOL     OW 1990   2.875   0.779   0.987  0.5908 -0.7860  0.3484
  645SOL    HW1 1991   2.886   0.874   0.977  2.4968 -1.0704 -0.6515
  645SOL    HW2 1992   2.958   0.742   0.959 -1.2218 -3.0071 -2.6268
  646SOL     OW 1993   2.617   4.994   1.464 -0.8146  0.1658  0.4220
  646SOL    HW1 1994   2.542   4.975   1.407 -1.0859  0.8497  0.5497
  646SOL    HW2 1995   2.631   4.912   1.511 -1.8644  0.1990  0.8246
  647SOL     OW 1996   2.410   2.215   4.492  0.0063  0.1129 -0.0623
  647SOL    HW1 1997   2.441   2.230   4.403 -2.6060 -0.6318 -1.1828
  647SOL    HW2 1998   2.366   2.130   4.489  0.0499 -0.0374  2.0017
  648SOL     OW 1999   4.444   3.671   3.540 -0.2160  0.2997  0.4171
  648SOL    HW1 2000   4.468   3.642   3.452  0.3141 -0.0210  0.6620
  648SOL    HW2 2001   4.418   3.591   3.585  1.4215  0.1485  1.1513
  649SOL     OW 2002   1.039   4.870   4.709  0.2535  0.2272 -0.2426
  649SOL    HW1 2003   1.126   4.908   4.722  0.2225  0.4930 -0.7885
  649SOL    HW2 2004   1.042   4.787   4.757  0.5572  0.5780  0.3589
  650SOL     OW 2005   2.233   4.833   4.183  0.7660  0.5969  0.0017
  650SOL    HW1 2006   2.328   4.825   4.185  0.7147 -1.6262 -1.5775
  650SOL    HW2 2007   2.207   4.780   4.107 -1.6381  2.3136 -0.4689
  651SOL     OW 2008   2.622   1.796   2.044  0.7561 -0.0623  0.1065
  651SOL    HW1 2009   2.711   1.813   2.073  1.0812  0.0622 -0.9153
  651SOL    HW2 2010   2.628   1.793   1.949 -0.6394  1.9443 -0.1141
  652SOL     OW 2011   2.588   1.014   4.756  0.0775  1.0155  0.3801
  652SOL    HW1 2012   2.588   0.999   4.851  1.6877 -0.2730  0.2151
  652SOL    HW2 2013   2.675   0.986   4.727 -1.2120 -1.0607 -1.8501
  653SOL     OW 2014   4.197   2.290   3.414 -0.0621  0.0687 -0.5632
  653SOL    HW1 2015   4.105   2.300   3.392  0.1767  1.5729 -1.0286
  653SOL    HW2 2016   4.212   2.353   3.485  1.0759  1.5750 -2.0516
  654SOL     OW 2017   4.309   1.403   1.461  0.1908  0.0206 -0.5305
  654SOL    HW1 2018   4.386   1.359   1.496 -0.6068 -2.0211 -1.2046
  654SOL    HW2 2019   4.254   1.421   1.537  0.2758 -0.6962 -0.2961
  655SOL     OW 2020   4.409   4.488   0.527 -0.0814 -0.2348  0.4626
  655SOL    HW1 2021   4.387   4.503   0.619 -1.1949  1.1116  0.0114
  655SOL    HW2 2022   4.346   4.422   0.498 -1.5650  1.3482 -0.0206
  656SOL     OW 2023   1.251   4.043   1.184 -0.5893  0.0458  0.1222
  656SOL    HW1 2024   1.238   4.091   1.267  0.9047 -0.9842  0.9963
  656SOL    HW2 2025   1.346   4.039   1.174 -0.7237 -1.4003 -0.7285
  657SOL     OW 2026   1.009   1.334   0.200 -0.2048 -0.1384 -0.4908
  657SOL    HW1 2027   0.976   1.394   0.133  0.7526  0.0018 -0.8434
  657SOL    HW2 2028   1.014   1.387   0.280  0.3572  0.1739 -0.7313
  658SOL     OW 2029   3.999   3.085   1.616 -0.0506 -0.3994 -0.5991
  658SOL    HW1 2030   4.035   3.151   1.557 -1.0159  1.3196  0.6175
  658SOL    HW2 2031   3.964   3.018   1.559 -1.2574  1.3522 -2.0291
  659SOL     OW 2032   2.289   4.719   1.580 -0.1273  0.3940  0.3157
  659SOL    HW1 2033   2.239   4.722   1.498 -0.1096  3.1043  0.3291
  659SOL    HW2 2034   2.265   4.799   1.626  2.2535  0.4868  1.5547
  660SOL     OW 2035   4.178   1.205   1.307  0.1336  0.2530 -0.2503
  660SOL    HW1 2036   4.214   1.290   1.333 -0.2449 -0.0008  1.1656
  660SOL    HW2 2037   4.102   1.192   1.364  0.7649 -1.4745  0.2780
  661SOL     OW 2038   1.167   1.212   0.611 -0.0774  0.4508 -0.4216
  661SOL    HW1 2039   1.202   1.190   0.697  1.6580  0.2619 -1.1410
  661SOL    HW2 2040   1.150   1.306   0.615 -2.2711  0.0831  0.8496
  662SOL     OW 2041   2.650   3.031   4.784 -0.0812  0.2635  0.1210
  662SOL    HW1 2042   2.580   2.967   4.801  0.0267 -0.1207 -0.8406
  662SOL    HW2 2043   2.731   2.982   4.801  0.0298 -0.1165 -1.3534
  663SOL     OW 2044   1.496   0.792   0.048  0.1097  0.1992  0.3599
  663SOL    HW1 2045   1.562   0.727   0.023  0.8609  0.2318  2.0750
  663SOL    HW2 2046   1.490   0.851  -0.027  2.4316  0.4691  0.2979
  664SOL     OW 2047   1.672   2.620   1.591  0.3699  0.3074 -0.4886
  664SOL    HW1 2048   1.682   2.631   1.686  1.0213  1.0736 -0.6409
  664SOL    HW2 2049   1.749   2.661   1.554  1.0973 -1.6544 -1.2752
  665SOL     OW 2050   4.215   0.738   1.699 -0.2055  0.1764 -0.0723
  665SOL    HW1 2051   4.211   0.738   1.795  2.2108 -0.7173  0.1040
  665SOL    HW2 2052   4.137   0.787   1.672 -0.8014  0.7159  2.3440
  666SOL     OW 2053   0.133   1.843   0.111  0.0231 -0.1565  0.5158
  666SOL    HW1 2054   0.137   1.909   0.180 -0.0487  1.4195 -0.9288
  666SOL    HW2 2055   0.219   1.846   0.071 -0.6494  0.6471 -0.9430
  667SOL     OW 2056   1.933   2.635   0.982  0.3806  0.1262 -0.4312
  667SOL    HW1 2057   1.959   2.678   0.901  1.2768  0.4149 -0.0111
  667SOL    HW2 2058   2.016   2.611   1.024 -0.0782 -1.2692 -0.2504
  668SOL     OW 2059   3.315   4.135   3.470  0.1312  0.6940 -0.3178
  668SOL    HW1 2060   3.365   4.182   3.402  0.6514  1.3446  0.4915
  668SOL    HW2 2061   3.299   4.201   3.538  1.3097 -0.3881  1.0804
  669SOL     OW 2062   2.778   3.109   1.511  0.8096 -0.3998 -0.2342
  669SOL    HW1 2063   2.745   3.181   1.458 -0.7695 -1.1416 -0.3233
  669SOL    HW2 2064   2.861   3.083   1.470  0.4167  0.0956 -1.3540
  670SOL     OW 2065   4.605   4.162   4.156 -0.4419 -0.0223 -0.4833
  670SOL    HW1 2066   4.591   4.173   4.062 -2.0616  1.0087 -0.1818
  670SOL    HW2 2067   4.620   4.068   4.168  3.1709  0.2012 -2.0850
  671SOL     OW 2068   4.726   2.718   2.569 -0.1861  0.0014 -0.1968
  671SOL    HW1 2069   4.690   2.801   2.600  0.2608  0.2468 -0.3294
  671SOL    HW2 2070   4.754   2.737   2.479  0.6387 -0.0729  0.0348
  672SOL     OW 2071   0.828   1.719   4.127  0.2261  1.0132  0.1909
  672SOL    HW1 2072   0.751   1.748   4.078 -0.3253  1.8545  1.5009
  672SOL    HW2 2073   0.899   1.720   4.062 -1.4206 -3.4333 -2.0835
  673SOL     OW 2074   3.118   2.033   0.492  0.0405 -0.8124  0.1107
  673SOL    HW1 2075   3.176   1.959   0.513  0.5256  0.4177  3.8164
  673SOL    HW2 2076   3.177   2.102   0.464  0.1158 -0.4573  1.1002
  674SOL     OW 2077   2.891   3.561   0.282 -0.4717  0.3510 -0.8968
  674SOL    HW1 2078   2.952   3.526   0.347  0.9082  2.4731 -0.9550
  674SOL    HW2 2079   2.827   3.610   0.332 -1.9475 -1.5073 -0.8743
  675SOL     OW 2080   2.649   4.598   2.388 -0.0376 -0.3692 -0.7907
  675SOL    HW1 2081   2.727   4.644   2.356  1.0354 -1.3612  0.3349
  675SOL    HW2 2082   2.662   4.507   2.361 -1.0308 -0.4836 -0.9489
  676SOL     OW 2083   3.510   2.205   2.929  0.1205  0.6463  0.1190
  676SOL    HW1 2084   3.590   2.190   2.879  0.1668  0.8650  0.1269
  676SOL    HW2 2085   3.509   2.136   2.995 -0.4578 -0.2689 -0.8125
  677SOL     OW 2086   1.361   0.819   0.803  0.1751  0.1797 -0.6678
  677SOL    HW1 2087   1.300   0.755   0.766 -0.7919  0.7565 -0.1084
  677SOL    HW2 2088   1.442   0.805   0.754 -0.8084  0.3684 -2.4576
  678SOL     OW 2089   0.796   1.581   2.307 -0.1199  0.5096 -0.3698
  678SOL    HW1 2090   0.883   1.540   2.313 -0.3206  0.1992  0.8185
  678SOL    HW2 2091   0.744   1.520   2.256  0.0998  0.1981 -0.2297
  679SOL     OW 2092   4.220   2.691   3.662  0.1067  0.0035 -0.0951
  679SOL    HW1 2093   4.261   2.695   3.576  0.0695 -0.4975 -0.1385
  679SOL    HW2 2094   4.160   2.766   3.663  1.4953  1.1557  0.2279
  680SOL     OW 2095   4.442   2.714   2.652 -0.0021 -0.8732  0.1777
  680SOL    HW1 2096   4.351   2.742   2.643  0.6586  1.1495 -0.7738
  680SOL    HW2 2097   4.470   2.692   2.563  1.0290  0.6381  0.0848
  681SOL     OW 2098   3.735   4.499   1.641 -0.3009 -0.2778 -0.5357
  681SOL    HW1 2099   3.720   4.450   1.560  0.8173  0.3222 -1.1381
  681SOL    HW2 2100   3.654   4.548   1.654 -0.2933  0.0645 -1.6354
  682SOL     OW 2101   3.418   1.421   3.822  0.0299  0.0152 -0.7599
  682SOL    HW1 2102   3.357   1.473   3.874 -0.3091 -0.5233 -0.6130
  682SOL    HW2 2103   3.408   1.332   3.855  1.3251  0.0028 -0.3284
  683SOL     OW 2104   0.758   3.942   1.028 -0.0053  0.3732  0.2242
  683SOL    HW1 2105   0.818   3.934   1.102 -0.7139  1.2715  0.9109
  683SOL    HW2 2106   0.680   3.893   1.055 -1.5005  3.2150  1.4199
  684SOL     OW 2107   2.744   2.639   1.135 -0.2154 -0.2453 -0.1062
  684SOL    HW1 2108   2.749   2.689   1.054 -0.8118  1.1920  0.7104
  684SOL    HW2 2109   2.813   2.574   1.127  0.2459  0.3714 -1.4338
  685SOL     OW 2110   3.272   4.679   2.243 -0.4474 -0.0196  0.0823
  685SOL    HW1 2111   3.240   4.704   2.330 -1.1061  0.9378 -0.4061
  685SOL    HW2 2112   3.251   4.586   2.235 -1.0486  0.0598  0.6665
  686SOL     OW 2113   3.413   3.621   1.112  0.0851  0.2273 -0.0837
  686SOL    HW1 2114   3.320   3.624   1.092 -0.1870  1.6709  1.2038
  686SOL    HW2 2115   3.456   3.662   1.037 -0.0172 -2.7035 -1.8790
  687SOL     OW 2116   2.991   3.792   3.776 -0.1666  0.6567  0.0471
  687SOL    HW1 2117   3.081   3.768   3.800 -0.5628 -0.6564  0.2835
  687SOL    HW2 2118   3.001   3.839   3.693  0.9598  2.8181  1.3183
  688SOL     OW 2119   0.832   3.649   3.996  0.1900  0.3842  0.3265
  688SOL    HW1 2120   0.904   3.592   3.971 -0.0522 -0.4209  1.3560
  688SOL    HW2 2121   0.869   3.708   4.062  0.4444  1.4662 -0.7465
  689SOL     OW 2122   1.743   1.159   1.342 -0.4092  0.5832 -0.5871
  689SOL    HW1 2123   1.788   1.226   1.291  1.4023 -0.2753 -0.1984
  689SOL    HW2 2124   1.668   1.134   1.287 -0.6415  2.3059 -1.0961
  690SOL     OW 2125   4.881   0.240   3.914 -0.4474  0.0710 -0.0642
  690SOL    HW1 2126   4.843   0.177   3.853  0.2725 -0.2296 -0.2172
  690SOL    HW2 2127   4.894   0.190   3.994 -0.8142  0.3022  0.1437
  691SOL     OW 2128   3.055   2.536   3.933  0.7748  0.2476 -0.0891
  691SOL    HW1 2129   3.070   2.550   4.027  4.1485 -1.0610 -0.3007
  691SOL    HW2 2130   3.116   2.595   3.890 -1.7491  1.9122 -1.6336
  692SOL     OW 2131   0.564   2.275   1.065 -0.2728  0.2680 -0.3816
  692SOL    HW1 2132   0.637   2.253   1.123 -1.1733 -0.5707  0.4797
  692SOL    HW2 2133   0.486   2.243   1.111 -0.8763 -2.3494 -2.9265
  693SOL     OW 2134   3.770   3.732   4.178  0.3593  0.0223  0.5018
  693SOL    HW1 2135   3.830   3.674   4.130 -2.7757 -2.9104 -0.2243
  693SOL    HW2 2136   3.760   3.808   4.120  1.6334 -0.4438 -0.3808
  694SOL     OW 2137   1.526   1.528   3.701  0.4951 -0.1543  0.3525
  694SOL    HW1 2138   1.618   1.551   3.687  0.7797 -0.9135  0.9403
  694SOL    HW2 2139   1.516   1.442   3.660  0.1604 -0.2744  0.6827
  695SOL     OW 2140   0.924   0.770   0.423  0.0817  0.0024  0.3876
  695SOL    HW1 2141   1.015   0.798   0.409  0.0882  0.1559  0.7130
  695SOL    HW2 2142   0.903   0.804   0.510 -0.7567  1.1913 -0.2573
  696SOL     OW 2143   0.741   4.516   1.385 -0.2293  0.1958  0.2238
  696SOL    HW1 2144   0.676   4.541   1.321 -0.2600 -0.9873 -0.2438
  696SOL    HW2 2145   0.807   4.584   1.381 -2.0306  2.1439  1.6595
  697SOL     OW 2146   1.247   2.837   3.692  0.4179 -0.7857  0.3616
  697SOL    HW1 2147   1.317   2.814   3.753  1.4350  2.5833  0.6345
  697SOL    HW2 2148   1.167   2.831   3.745  1.0109 -0.3230  1.3394
  698SOL     OW 2149   2.730   3.917   2.747  0.1972  0.7459  0.4274
  698SOL    HW1 2150   2.725   3.903   2.652  1.9030  0.6703  0.3114
  698SOL    HW2 2151   2.644   3.951   2.771 -0.6980 -0.4354 -0.9328
  699SOL     OW 2152   1.112   3.969   0.292 -0.5324  0.0897 -0.1541
  699SOL    HW1 2153   1.069   3.885   0.277  0.3012 -0.2850 -0.5063
  699SOL    HW2 2154   1.047   4.021   0.339 -0.3476 -1.4629  1.9578
  700SOL     OW 2155   1.312   4.156   0.211  0.0674 -0.5117  0.4119
  700SOL    HW1 2156   1.323   4.120   0.123 -2.0387  0.3875 -0.2784
  700SOL    HW2 2157   1.252   4.095   0.254  0.1021 -0.2800  0.7904
  701SOL     OW 2158   3.348   2.055   2.761  0.1122  0.4263 -0.4290
  701SOL    HW1 2159   3.257   2.078   2.779  0.0262  0.1610 -0.5258
  701SOL    HW2 2160   3.399   2.110   2.821 -0.1342  0.1291  0.0581
  702SOL     OW 2161   0.450   2.035   3.275  0.3218 -0.4720  0.2925
  702SOL    HW1 2162   0.376   2.060   3.330 -1.1714  0.3916 -1.9514
  702SOL    HW2 2163   0.505   2.113   3.272  0.0078 -0.2597 -0.0288
  703SOL     OW 2164   2.931   1.052   1.010 -0.2589  0.0035 -0.5531
  703SOL    HW1 2165   2.853   1.102   1.035 -1.5637 -1.6005 -1.1983
  703SOL    HW2 2166   2.936   1.061   0.915  1.2539  1.2973 -0.3893
  704SOL     OW 2167   1.045   0.982   1.845  0.0608  0.7731 -0.4504
  704SOL    HW1 2168   0.999   0.914   1.795  0.2546 -1.0546  1.6805
  704SOL    HW2 2169   1.123   1.000   1.794  0.3884 -1.2139 -0.7513
  705SOL     OW 2170   3.447   1.573   4.077  0.4729  0.1522 -1.3478
  705SOL    HW1 2171   3.503   1.495   4.076  2.4140  1.2876  2.1335
  705SOL    HW2 2172   3.370   1.547   4.127  2.1478  0.9154  1.8290
  706SOL     OW 2173   2.816   3.641   2.435 -0.2006  0.1938  0.3992
  706SOL    HW1 2174   2.907   3.610   2.443  0.1274  1.3396  1.3384
  706SOL    HW2 2175   2.779   3.587   2.365  1.2872 -0.1101 -0.1952
  707SOL     OW 2176   4.265   0.737   1.180 -0.2833  0.2936 -0.0581
  707SOL    HW1 2177   4.257   0.695   1.265  0.2122 -1.5280 -0.8474
  707SOL    HW2 2178   4.358   0.732   1.159 -0.4150  0.6134 -0.7483
  708SOL     OW 2179   2.186   3.294   3.046 -0.4372 -0.3539  0.7442
  708SOL    HW1 2180   2.156   3.206   3.026  2.1996 -0.8566 -1.7478
  708SOL    HW2 2181   2.249   3.282   3.118  1.9711 -1.0592 -1.3410
  709SOL     OW 2182   1.848   0.955   0.527  0.5208  0.1127 -0.0611
  709SOL    HW1 2183   1.914   0.983   0.463  0.5036  1.3203  0.4306
  709SOL    HW2 2184   1.864   0.862   0.538  1.8738  0.3017 -0.2725
  710SOL     OW 2185   0.424   1.333   4.159 -0.6419 -0.0189 -0.0421
  710SOL    HW1 2186   0.434   1.288   4.243  0.6318 -1.4360 -0.9173
  710SOL    HW2 2187   0.334   1.315   4.133 -0.4942 -1.1483  0.1646
  711SOL     OW 2188   1.540   1.136   0.190  0.0978  0.1051 -0.6964
  711SOL    HW1 2189   1.527   1.217   0.239  2.9407  0.9154 -1.0738
  711SOL    HW2 2190   1.454   1.095   0.188 -0.8888  1.7898  1.8164
  712SOL     OW 2191   0.323   4.288   4.210  0.5476 -0.3757  0.1638
  712SOL    HW1 2192   0.267   4.280   4.287  0.1445  0.5364 -0.0237
  712SOL    HW2 2193   0.412   4.271   4.243  0.3607 -0.1331  0.7945
  713SOL     OW 2194   3.112   0.660   1.059  0.3632 -0.4015  0.3655
  713SOL    HW1 2195   3.131   0.693   0.971 -2.0847 -0.2406 -0.1890
  713SOL    HW2 2196   3.126   0.736   1.116  0.8030 -0.1607 -0.0515
  714SOL     OW 2197   2.732   0.211   0.036 -0.3860  0.1296 -0.2641
  714SOL    HW1 2198   2.815   0.234   0.077  0.1042  1.1803 -1.7292
  714SOL    HW2 2199   2.704   0.131   0.080  1.3837 -0.2294  0.2949
  715SOL     OW 2200   2.905   1.903   2.441 -0.1623  0.6430 -0.5862
  715SOL    HW1 2201   2.913   1.898   2.345 -1.5473 -0.0399 -0.7066
  715SOL    HW2 2202   2.899   1.997   2.460  1.0502  0.8250 -1.0674
  716SOL     OW 2203   0.555   1.826   0.826 -0.0559  0.3888  0.0388
  716SOL    HW1 2204   0.581   1.792   0.912  0.4222 -0.3077 -0.3671
  716SOL    HW2 2205   0.556   1.921   0.836  0.2744  0.3207  0.7256
  717SOL     OW 2206   2.071   1.257   0.734 -0.1843 -0.9480 -0.0997
  717SOL    HW1 2207   2.022   1.339   0.741 -0.9183 -1.3081 -0.9596
  717SOL    HW2 2208   2.005   1.189   0.746  0.2227 -1.4288 -0.6121
  718SOL     OW 2209   4.469   3.771   1.956  0.4284  0.5260  0.2055
  718SOL    HW1 2210   4.487   3.703   2.021  0.5477  0.7469  0.4033
  718SOL    HW2 2211   4.480   3.726   1.872 -1.6240 -0.2574  0.3121
  719SOL     OW 2212   0.097   3.250   1.079 -0.1788 -0.2483 -0.0891
  719SOL    HW1 2213   0.124   3.208   0.998  0.2384  0.0756 -0.1215
  719SOL    HW2 2214   0.008   3.218   1.094  0.5083 -2.0046  0.4743
  720SOL     OW 2215   2.378   2.773   3.288 -0.1283 -0.9097 -0.1561
  720SOL    HW1 2216   2.471   2.781   3.306 -0.0409 -0.2577 -0.8397
  720SOL    HW2 2217   2.335   2.831   3.351 -0.0477 -0.9694 -0.0470
  721SOL     OW 2218   4.561   4.378   3.178 -0.2416 -0.9800 -0.0985
  721SOL    HW1 2219   4.483   4.393   3.124  0.0604  0.4493 -0.1758
  721SOL    HW2 2220   4.569   4.283   3.182 -2.0937 -1.1688  0.0595
  722SOL     OW 2221   3.064   3.276   3.241  0.7107 -0.5372  0.1280
  722SOL    HW1 2222   2.986   3.319   3.207  0.7766 -0.3118  0.2622
  722SOL    HW2 2223   3.115   3.346   3.281  2.0344 -0.2666 -1.8656
  723SOL     OW 2224   0.873   3.598   2.232  0.0307  0.3799  0.1178
  723SOL    HW1 2225   0.855   3.539   2.158  0.2765 -1.8284  1.7157
  723SOL    HW2 2226   0.958   3.570   2.265 -1.1262 -0.3773  2.6997
  724SOL     OW 2227   2.511   1.708   3.486  0.3459  0.7186 -0.0204
  724SOL    HW1 2228   2.570   1.729   3.559 -0.6081 -1.4873  1.5148
  724SOL    HW2 2229   2.484   1.618   3.503 -0.8701  0.5403 -2.4985
  725SOL     OW 2230   4.862   3.183   3.620  0.6193  0.2826  0.0006
  725SOL    HW1 2231   4.850   3.116   3.687  1.0144  1.0713  0.8934
  725SOL    HW2 2232   4.956   3.182   3.601  0.2777 -1.0886 -1.8118
  726SOL     OW 2233   1.132   4.181   2.778 -0.3662  0.0284  0.6157
  726SOL    HW1 2234   1.046   4.204   2.812  0.5766  0.0820  3.1927
  726SOL    HW2 2235   1.150   4.094   2.813 -0.8729 -1.7723 -3.0794
  727SOL     OW 2236   0.950   2.412   2.061  0.6234  0.3727 -0.7579
  727SOL    HW1 2237   0.874   2.355   2.067  0.4939  0.4860 -1.2870
  727SOL    HW2 2238   0.921   2.496   2.097  1.2856 -0.3224  1.5817
  728SOL     OW 2239   2.177   1.020   2.767  0.1194 -0.1072 -0.1535
  728SOL    HW1 2240   2.251   1.048   2.821  0.6736 -0.4415 -0.7326
  728SOL    HW2 2241   2.186   0.925   2.761 -1.2167 -0.3469  1.0206
  729SOL     OW 2242   4.424   0.701   3.770  0.3123  0.3310 -0.6006
  729SOL    HW1 2243   4.459   0.639   3.836 -1.6898 -0.7167 -0.4441
  729SOL    HW2 2244   4.409   0.782   3.819 -2.8196 -0.9455  0.8170
  730SOL     OW 2245   2.518   0.520   4.286  0.0540  0.0823 -0.4881
  730SOL    HW1 2246   2.601   0.486   4.317  0.8225  1.0344 -1.4346
  730SOL    HW2 2247   2.538   0.559   4.201 -0.9477  2.0294  0.1093
  731SOL     OW 2248   2.304   0.955   0.628 -0.1234  0.5412 -0.3663
  731SOL    HW1 2249   2.211   0.932   0.628  0.4446 -1.9831 -1.3632
  731SOL    HW2 2250   2.348   0.881   0.587  2.3599  1.6856  0.0365
  732SOL     OW 2251   2.113   3.377   2.030  0.0181  0.1148 -0.0230
  732SOL    HW1 2252   2.110   3.304   2.092 -0.1332  0.2210  0.0927
  732SOL    HW2 2253   2.207   3.395   2.019  0.0990 -0.6054 -0.6470
  733SOL     OW 2254   2.714   1.759   3.732 -0.8504  1.1052 -0.1299
  733SOL    HW1 2255   2.680   1.810   3.805 -1.9809  1.3266 -0.7759
  733SOL    HW2 2256   2.714   1.669   3.764 -0.9677  1.2463  0.2690
  734SOL     OW 2257   3.808   0.699   1.851  0.1369  0.2781 -0.1741
  734SOL    HW1 2258   3.843   0.649   1.925 -0.3622 -0.6804 -0.5696
  734SOL    HW2 2259   3.717   0.715   1.874  0.4017  1.4284  0.1513
  735SOL     OW 2260   0.528   4.855   1.404  0.1962  0.1841 -0.3517
  735SOL    HW1 2261   0.459   4.904   1.447 -0.1396 -0.3565 -0.2694
  735SOL    HW2 2262   0.514   4.870   1.310 -0.0871 -0.0040 -0.3383
  736SOL     OW 2263   4.028   2.663   4.348 -0.1438 -0.3311 -0.1848
  736SOL    HW1 2264   3.967   2.701   4.285 -0.9294  0.1826  0.8527
  736SOL    HW2 2265   4.115   2.689   4.316 -0.5722  0.6651 -0.5905
  737SOL     OW 2266   1.935   0.426   1.626 -0.0356 -0.5755  0.1093
  737SOL    HW1 2267   1.996   0.359   1.594  2.9003  1.2363  1.5150
  737SOL    HW2 2268   1.915   0.478   1.548  1.5959 -0.2557 -0.1520
  738SOL     OW 2269   2.554   4.201   1.876 -0.5955  0.3968 -0.0237
  738SOL    HW1 2270   2.584   4.226   1.789 -1.3249  0.8999 -0.1388
  738SOL    HW2 2271   2.624   4.144   1.910  0.1369  0.9509 -0.5600
  739SOL     OW 2272   0.740   2.569   0.320 -0.0849  0.1075  0.7537
  739SOL    HW1 2273   0.802   2.623   0.271 -0.4345  0.8775  1.1428
  739SOL    HW2 2274   0.746   2.601   0.410 -0.3801 -0.4306  0.9697
  740SOL     OW 2275   1.494   0.079   3.865 -0.3543  0.1563 -0.0674
  740SOL    HW1 2276   1.586   0.067   3.885 -0.3056 -2.8759 -1.5141
  740SOL    HW2 2277   1.448   0.053   3.944 -0.0352  1.6964  0.6653
  741SOL     OW 2278   1.752   2.656   0.241 -0.7233  0.7434 -0.5351
  741SOL    HW1 2279   1.808   2.733   0.253  0.2407 -0.0670  0.4203
  741SOL    HW2 2280   1.766   2.605   0.321 -0.5857 -0.8889 -1.5642
  742SOL     OW 2281   2.303   3.438   0.084  0.9003 -0.1316  0.1167
  742SOL    HW1 2282   2.213   3.443   0.052  0.2278  1.4605  2.0920
  742SOL    HW2 2283   2.354   3.487   0.019  0.2432 -0.3764 -0.6021
  743SOL     OW 2284   2.952   3.060   4.034  0.1474 -0.1637 -0.1332
  743SOL    HW1 2285   2.895   2.982   4.034 -2.6498  1.6736 -1.9923
  743SOL    HW2 2286   2.943   3.097   4.121  0.4498 -1.1992  0.3489
  744SOL     OW 2287   2.680   3.155   3.865 -0.9999 -0.5450  0.0366
  744SOL    HW1 2288   2.634   3.143   3.948  1.4332  1.4427  1.8352
  744SOL    HW2 2289   2.773   3.147   3.888 -0.2531 -0.2674 -2.5721
  745SOL     OW 2290   3.811   2.747   3.741 -0.0218  0.2212 -0.9626
  745SOL    HW1 2291   3.804   2.694   3.662 -1.1007  0.3616 -0.9766
  745SOL    HW2 2292   3.742   2.813   3.733 -1.1751 -0.6786  0.7561
  746SOL     OW 2293   1.676   4.518   0.483  0.3642  0.2308 -0.0585
  746SOL    HW1 2294   1.669   4.581   0.411  0.7367  1.0834  0.6338
  746SOL    HW2 2295   1.590   4.521   0.526 -0.5687 -1.7472 -1.6080
  747SOL     OW 2296   2.304   3.368   1.597  0.0109  0.1115 -0.2438
  747SOL    HW1 2297   2.216   3.389   1.565  0.5888 -0.6632 -2.5895
  747SOL    HW2 2298   2.304   3.273   1.607  0.6220  0.0826 -0.4619
  748SOL     OW 2299   1.468   2.098   0.122 -0.1796  0.0094 -0.6137
  748SOL    HW1 2300   1.513   2.160   0.180 -1.4165 -0.8968  1.4548
  748SOL    HW2 2301   1.491   2.126   0.034  0.1606  2.7528  0.2525
  749SOL     OW 2302   3.349   1.208   2.667 -0.0274 -0.1032 -0.8790
  749SOL    HW1 2303   3.263   1.250   2.668 -0.4700 -0.9774 -1.1628
  749SOL    HW2 2304   3.331   1.115   2.656  0.9727 -0.2639 -1.3494
  750SOL     OW 2305   0.703   1.602   0.279 -0.3805  0.4507  0.7017
  750SOL    HW1 2306   0.686   1.688   0.318  0.2416  0.3737  1.1542
  750SOL    HW2 2307   0.711   1.543   0.354 -1.4765 -0.1407  0.3796
  751SOL     OW 2308   4.372   3.257   4.422 -0.1431 -0.0802 -0.4493
  751SOL    HW1 2309   4.333   3.345   4.421 -0.2777 -0.1308 -0.0139
  751SOL    HW2 2310   4.411   3.249   4.509  0.2264 -0.3014 -0.6305
  752SOL     OW 2311   0.893   1.315   1.856 -0.4016  0.0331 -0.1337
  752SOL    HW1 2312   0.809   1.360   1.861 -0.7379 -0.1623 -2.6859
  752SOL    HW2 2313   0.958   1.385   1.864 -0.8147  0.3021  0.9501
  753SOL     OW 2314   1.288   1.088   3.901 -0.5495  0.2386 -0.0368
  753SOL    HW1 2315   1.196   1.113   3.908 -0.4523  0.6257 -0.1664
  753SOL    HW2 2316   1.311   1.059   3.990 -0.8800 -0.1527 -0.0760
  754SOL     OW 2317   4.779   3.545   1.619  0.0230 -0.2360  0.0858
  754SOL    HW1 2318   4.692   3.507   1.634 -1.3464  3.0822  1.4447
  754SOL    HW2 2319   4.792   3.536   1.524 -2.2486  0.0342 -0.3110
  755SOL     OW 2320   3.505   3.754   1.350  0.0642 -0.1285  0.8629
  755SOL    HW1 2321   3.451   3.710   1.285  1.8966 -1.8230  0.3669
  755SOL    HW2 2322   3.443   3.795   1.411 -1.7587 -2.3206  0.5883
  756SOL     OW 2323   3.719   4.782   3.220 -0.0622  0.0753  0.1586
  756SOL    HW1 2324   3.643   4.820   3.265  0.0403 -0.7094  1.0445
  756SOL    HW2 2325   3.686   4.756   3.134 -1.4363 -2.2338  1.2767
  757SOL     OW 2326   1.208   3.487   4.069 -0.1995  0.4113 -0.2777
  757SOL    HW1 2327   1.245   3.573   4.090 -1.7030  1.0259  0.0247
  757SOL    HW2 2328   1.172   3.497   3.981  0.2866 -0.1519 -0.5443
  758SOL     OW 2329   0.072   0.589   2.586 -0.1722 -0.6091 -0.2035
  758SOL    HW1 2330   0.016   0.511   2.593 -0.2008 -0.6995 -1.3439
  758SOL    HW2 2331   0.014   0.657   2.552 -0.1644 -0.0515  0.8541
  759SOL     OW 2332   0.039   2.578   3.805 -0.1891  1.1675 -0.2055
  759SOL    HW1 2333   0.066   2.667   3.780  0.1051  1.2398  0.3364
  759SOL    HW2 2334   0.121   2.531   3.818 -0.3443  0.5212 -1.4545
  760SOL     OW 2335   0.973   1.651   1.584 -0.8209  0.1168 -0.3983
  760SOL    HW1 2336   1.045   1.590   1.570 -0.7777 -0.0199  0.3890
  760SOL    HW2 2337   0.901   1.616   1.531 -1.8981 -2.5300  2.5508
  761SOL     OW 2338   1.688   2.925   1.363  0.1402 -0.5363  0.0524
  761SOL    HW1 2339   1.694   2.899   1.271  1.2242  1.4160 -0.4981
  761SOL    HW2 2340   1.775   2.908   1.400  0.6225  1.3180 -0.1098
  762SOL     OW 2341   4.706   2.158   3.577 -0.2612  0.2130  0.5157
  762SOL    HW1 2342   4.758   2.133   3.654  1.4489  2.1778  0.0979
  762SOL    HW2 2343   4.664   2.240   3.602  0.8413  1.2255 -0.7975
  763SOL     OW 2344   4.807   0.692   1.016  0.2360  0.1314  0.0184
  763SOL    HW1 2345   4.844   0.606   0.995 -0.5465  0.1799 -1.7650
  763SOL    HW2 2346   4.882   0.743   1.048  1.6654 -0.0136 -2.7321
  764SOL     OW 2347   0.848   3.829   2.811  0.1679 -0.0678  0.3518
  764SOL    HW1 2348   0.837   3.866   2.899 -0.4064 -1.1411  0.7430
  764SOL    HW2 2349   0.764   3.841   2.769  0.4690  0.5225 -0.1000
  765SOL     OW 2350   3.540   2.615   0.912 -0.2437 -0.1763  0.2143
  765SOL    HW1 2351   3.571   2.649   0.996 -1.0473  1.6970 -0.1904
  765SOL    HW2 2352   3.618   2.616   0.856 -0.4626  2.6202 -0.2218
  766SOL     OW 2353   3.579   2.909   2.721 -0.2067  0.3019  0.2458
  766SOL    HW1 2354   3.508   2.957   2.679  0.8052  0.9360 -0.8138
  766SOL    HW2 2355   3.632   2.976   2.764  1.2000  0.1803 -1.2063
  767SOL     OW 2356   2.551   0.101   4.171  0.5308 -0.5648 -0.3397
  767SOL    HW1 2357   2.606   0.139   4.240  3.0812 -1.9640 -1.4456
  767SOL    HW2 2358   2.585   0.140   4.090 -0.8656 -0.6720 -0.9962
  768SOL     OW 2359   0.573   3.459   1.166  0.5804  0.6396  0.4903
  768SOL    HW1 2360   0.524   3.433   1.244 -0.3163  0.5152 -0.0984
  768SOL    HW2 2361   0.664   3.459   1.194  0.3642 -0.4270  1.2654
  769SOL     OW 2362   0.410   4.538   2.488 -0.2860 -0.1355 -0.1495
  769SOL    HW1 2363   0.319   4.564   2.499  0.2714  1.4733  0.7903
  769SOL    HW2 2364   0.432   4.493   2.569 -0.2998 -0.7840 -0.4936
  770SOL     OW 2365   0.285   4.248   3.181  0.3997 -0.4999  0.1965
  770SOL    HW1 2366   0.287   4.153   3.171 -0.5425 -0.3171 -2.8679
  770SOL    HW2 2367   0.208   4.276   3.131  0.6916  1.8935  0.9450
  771SOL     OW 2368   3.326   3.592   3.359 -0.1202 -0.2588 -0.1684
  771SOL    HW1 2369   3.272   3.662   3.325 -0.4421 -0.6946 -0.5617
  771SOL    HW2 2370   3.265   3.533   3.403  0.2827  0.2961  1.1869
  772SOL     OW 2371   0.867   3.257   4.700  0.4778  0.1792 -0.3177
  772SOL    HW1 2372   0.827   3.201   4.633 -0.6354  0.0778  0.4092
  772SOL    HW2 2373   0.961   3.243   4.690  0.2330 -1.9695 -0.0431
  773SOL     OW 2374   2.838   0.676   2.148 -0.0937  0.2155 -0.1467
  773SOL    HW1 2375   2.747   0.702   2.161  0.4751  2.6001 -0.3077
  773SOL    HW2 2376   2.873   0.666   2.237  0.0308  1.6224 -0.0106
  774SOL     OW 2377   1.363   3.006   1.120 -0.0519  0.0690  0.3813
  774SOL    HW1 2378   1.348   3.058   1.199 -1.5595  2.3987 -1.3345
  774SOL    HW2 2379   1.457   3.015   1.103 -0.0260  1.0165  0.9569
  775SOL     OW 2380   0.829   0.320   0.963  0.3464 -0.1034  1.1110
  775SOL    HW1 2381   0.810   0.314   1.057 -1.7344  0.7594  0.7904
  775SOL    HW2 2382   0.817   0.413   0.942  2.0621 -0.0490  0.2084
  776SOL     OW 2383   1.718   4.773   3.824 -0.1187  0.8879 -0.7940
  776SOL    HW1 2384   1.792   4.733   3.871 -0.0539  1.8938  0.0023
  776SOL    HW2 2385   1.749   4.861   3.802 -0.5980  0.8442 -1.6771
  777SOL     OW 2386   0.664   2.935   4.808  0.0940 -0.2597  0.4224
  777SOL    HW1 2387   0.608   3.012   4.811 -0.8784 -0.8789 -0.9716
  777SOL    HW2 2388   0.604   2.861   4.798  1.0953 -1.0519  0.0306
  778SOL     OW 2389   2.351   0.304   4.135  0.3204  0.1164  0.3247
  778SOL    HW1 2390   2.316   0.302   4.046 -0.8972 -1.3798  0.7771
  778SOL    HW2 2391   2.436   0.347   4.128  0.8490 -1.1676 -1.7843
  779SOL     OW 2392   1.324   3.472   1.371 -0.2763  0.0122 -1.2561
  779SOL    HW1 2393   1.323   3.491   1.277 -0.2218  2.1223 -0.8859
  779SOL    HW2 2394   1.309   3.557   1.412  2.4134 -0.3310  0.7100
  780SOL     OW 2395   1.677   2.550   0.936  0.3266 -0.2055  0.2364
  780SOL    HW1 2396   1.754   2.598   0.966  0.0728 -0.5792  1.5390
  780SOL    HW2 2397   1.710   2.491   0.868  0.9376  0.5717 -0.1523
  781SOL     OW 2398   3.447   3.754   0.834 -0.1066 -0.1635 -0.1888
  781SOL    HW1 2399   3.359   3.791   0.827 -0.4994 -1.2214 -1.1687
  781SOL    HW2 2400   3.504   3.824   0.801 -0.7366 -0.0503 -1.0765
  782SOL     OW 2401   0.197   1.528   4.291 -0.0845 -0.7638  0.5091
  782SOL    HW1 2402   0.180   1.569   4.376  0.5147 -0.1407  0.3397
  782SOL    HW2 2403   0.278   1.478   4.305  1.5463  1.4611 -0.3506
  783SOL     OW 2404   4.439   1.442   0.078 -0.5453 -0.4899 -0.1439
  783SOL    HW1 2405   4.447   1.500   0.002 -1.3732 -0.1155  0.0385
  783SOL    HW2 2406   4.347   1.414   0.076 -0.8417  0.2947  1.2595
  784SOL     OW 2407   0.334   3.701   0.579 -0.4306  0.2157  0.2436
  784SOL    HW1 2408   0.338   3.793   0.553  1.8976  0.2286  0.4704
  784SOL    HW2 2409   0.425   3.674   0.585 -0.9856 -2.9026 -2.5330
  785SOL     OW 2410   3.579   0.351   4.895  0.0922  0.0099  0.3225
  785SOL    HW1 2411   3.619   0.430   4.860  0.6321  0.7868  2.4823
  785SOL    HW2 2412   3.641   0.319   4.961 -0.1880 -2.1487 -0.3747
  786SOL     OW 2413   3.614   2.998   1.947 -0.2948  0.9004 -0.2228
  786SOL    HW1 2414   3.669   3.054   2.001  1.1686 -0.4546 -0.2452
  786SOL    HW2 2415   3.649   3.007   1.859 -0.2336  0.2115 -0.2777
  787SOL     OW 2416   0.907   1.194   1.633 -0.3305  0.0087  0.2536
  787SOL    HW1 2417   0.908   1.240   1.718 -1.0674  0.2185  0.1549
  787SOL    HW2 2418   0.941   1.107   1.653  0.9429  0.5288  0.4729
  788SOL     OW 2419   4.388   1.830   2.000 -0.3070 -0.3481 -0.4168
  788SOL    HW1 2420   4.417   1.830   1.909  0.8785 -0.3663 -0.0570
  788SOL    HW2 2421   4.311   1.887   2.001 -0.4155 -0.4606 -1.4511
  789SOL     OW 2422   0.185   1.340   0.852  0.2312  0.3056 -0.9266
  789SOL    HW1 2423   0.245   1.350   0.778  0.0324 -1.1481 -1.2981
  789SOL    HW2 2424   0.107   1.299   0.816  0.0717 -0.3038  0.0670
  790SOL     OW 2425   4.379   2.356   3.831  0.2671 -0.1109  0.3621
  790SOL    HW1 2426   4.283   2.349   3.833  0.0549  2.0174  1.9320
  790SOL    HW2 2427   4.396   2.448   3.854  2.7186 -0.9941  2.5600
  791SOL     OW 2428   1.255   2.484   1.473 -0.2336 -0.3262 -0.2386
  791SOL    HW1 2429   1.290   2.552   1.531  0.1239 -1.1798  0.5817
  791SOL    HW2 2430   1.166   2.513   1.453 -0.2414  0.1608  0.4614
  792SOL     OW 2431   2.789   0.237   1.485 -0.2417 -0.2674 -0.0555
  792SOL    HW1 2432   2.705   0.193   1.501  0.2408 -1.2078 -0.0565
  792SOL    HW2 2433   2.841   0.174   1.436 -0.3375  1.1632 -2.1545
  793SOL     OW 2434   1.356   3.099   3.983 -0.5586  0.1313  0.1077
  793SOL    HW1 2435   1.326   3.144   3.904 -2.2244  1.7182  1.5424
  793SOL    HW2 2436   1.386   3.170   4.040  0.9841 -1.0193  0.7619
  794SOL     OW 2437   2.257   1.592   3.252 -0.3511  0.4837 -0.2148
  794SOL    HW1 2438   2.163   1.601   3.269 -0.4052  3.7692 -1.6811
  794SOL    HW2 2439   2.296   1.668   3.294  1.4764  0.0563 -1.0696
  795SOL     OW 2440   1.682   4.749   1.887 -0.6228  0.2799  0.3740
  795SOL    HW1 2441   1.678   4.739   1.982 -0.3081  2.1976  0.6291
  795SOL    HW2 2442   1.591   4.749   1.858 -0.9335  2.6484  1.0980
  796SOL     OW 2443   1.346   3.471   2.699  0.3103 -0.0933  0.0558
  796SOL    HW1 2444   1.287   3.434   2.765 -1.2422  0.6586 -0.8583
  796SOL    HW2 2445   1.359   3.561   2.727  2.2132 -0.6061  1.0046
  797SOL     OW 2446   0.033   2.319   0.783  0.3239  0.1862  0.0578
  797SOL    HW1 2447  -0.040   2.314   0.845  0.4432 -0.5339  0.1567
  797SOL    HW2 2448   0.052   2.412   0.775 -0.5136  0.3692  0.1397
  798SOL     OW 2449   3.856   2.797   2.490 -0.0944  0.2090  0.2445
  798SOL    HW1 2450   3.874   2.706   2.467  0.2457  0.3349  0.0000
  798SOL    HW2 2451   3.765   2.797   2.521 -0.8895  0.1651 -1.8989
  799SOL     OW 2452   2.510   4.834   1.865 -0.1583  0.5520  0.7021
  799SOL    HW1 2453   2.564   4.758   1.846 -0.0922  0.4545  1.2569
  799SOL    HW2 2454   2.540   4.901   1.804 -0.9597 -0.1894 -0.5491
  800SOL     OW 2455   3.420   4.897   0.049 -0.0065  0.2354  0.1674
  800SOL    HW1 2456   3.422   4.864   0.138  0.4875 -0.4709 -0.0915
  800SOL    HW2 2457   3.367   4.977   0.053 -2.0751 -1.0866  0.6417
  801SOL     OW 2458   0.654   1.769   1.063 -0.4700 -0.1946 -0.3140
  801SOL    HW1 2459   0.659   1.823   1.142 -0.5087  0.7380 -0.9367
  801SOL    HW2 2460   0.713   1.696   1.081  1.1647  1.0895 -0.2163
  802SOL     OW 2461   4.419   4.609   3.311  0.1104 -0.0201  0.5708
  802SOL    HW1 2462   4.373   4.579   3.233 -0.2606 -0.5162  0.9751
  802SOL    HW2 2463   4.351   4.645   3.367  0.0342 -1.6579  1.5995
  803SOL     OW 2464   1.268   0.417   0.833 -0.1935 -0.7257 -0.3120
  803SOL    HW1 2465   1.269   0.502   0.789 -0.3954 -1.5596 -1.9731
  803SOL    HW2 2466   1.349   0.375   0.806 -2.5994 -3.3847 -4.3626
  804SOL     OW 2467   4.596   4.041   0.871  0.4220 -0.2447  0.3526
  804SOL    HW1 2468   4.638   4.123   0.845 -0.4857  0.1488  0.0756
  804SOL    HW2 2469   4.512   4.067   0.909  1.0082 -0.9265  2.2250
  805SOL     OW 2470   3.314   0.279   0.298 -0.3222 -0.3368 -0.0552
  805SOL    HW1 2471   3.378   0.209   0.285  0.3624  0.2100  0.2870
  805SOL    HW2 2472   3.231   0.233   0.312  0.1683 -1.0977  0.4738
  806SOL     OW 2473   1.323   2.462   3.244 -0.4836 -0.4343  0.2734
  806SOL    HW1 2474   1.400   2.442   3.296  0.7558  1.9663 -0.5260
  806SOL    HW2 2475   1.309   2.556   3.255 -0.0151  0.2867 -3.7990
  807SOL     OW 2476   2.968   3.740   0.591 -0.4078 -0.2757  0.5477
  807SOL    HW1 2477   3.002   3.793   0.663 -0.6304  2.4539 -1.2015
  807SOL    HW2 2478   2.924   3.803   0.534  0.4185 -2.1473 -2.3821
  808SOL     OW 2479   4.434   4.978   0.630 -0.1566  0.0369  0.4705
  808SOL    HW1 2480   4.432   4.885   0.656  0.7662 -0.2691 -0.4982
  808SOL    HW2 2481   4.361   4.987   0.569  0.2954 -0.2807 -0.1281
  809SOL     OW 2482   1.600   4.372   0.089 -0.0141  0.1314  0.1176
  809SOL    HW1 2483   1.567   4.441   0.146  0.8471  1.9309 -1.4670
  809SOL    HW2 2484   1.539   4.369   0.016  0.5126 -0.0948 -0.3206
  810SOL     OW 2485   4.345   4.716   0.717  0.2616  0.4040 -0.0143
  810SOL    HW1 2486   4.301   4.707   0.802  0.8236 -2.0995  0.0933
  810SOL    HW2 2487   4.274   4.712   0.653  0.0540 -0.7697  0.2620
  811SOL     OW 2488   4.549   1.338   1.581  0.3145  0.2536 -0.3453
  811SOL    HW1 2489   4.565   1.289   1.662  1.0570  0.0955 -0.5806
  811SOL    HW2 2490   4.608   1.414   1.587  0.6530  0.0418 -0.9060
  812SOL     OW 2491   3.558   0.723   0.016 -0.1414  0.3963  0.1532
  812SOL    HW1 2492   3.652   0.708   0.003 -0.3590  0.0230 -1.0768
  812SOL    HW2 2493   3.548   0.818   0.005  0.2502  0.6091  1.4545
  813SOL     OW 2494   0.792   3.557   2.731  0.4841  0.0756  1.0245
  813SOL    HW1 2495   0.785   3.651   2.717  0.1281 -0.1995 -1.0086
  813SOL    HW2 2496   0.714   3.520   2.689  1.1306 -1.1874  0.8647
  814SOL     OW 2497   4.809   2.660   0.877 -0.2545 -0.1947 -0.3952
  814SOL    HW1 2498   4.862   2.665   0.957  0.3293  0.5380 -0.8136
  814SOL    HW2 2499   4.758   2.741   0.877  0.5871  0.3559 -1.3272
  815SOL     OW 2500   4.321   4.085   1.005 -0.6682 -0.7134 -0.5838
  815SOL    HW1 2501   4.378   4.152   1.043 -0.2567 -0.7142 -1.1915
  815SOL    HW2 2502   4.249   4.134   0.965 -0.7398 -0.6762 -0.4106
  816SOL     OW 2503   2.602   4.755   4.852 -0.0642  0.5185 -0.6909
  816SOL    HW1 2504   2.643   4.828   4.805  0.5102  0.7847  0.2133
  816SOL    HW2 2505   2.519   4.742   4.806  0.6398  0.5211 -2.0226
  817SOL     OW 2506   3.325   0.910   4.125  0.0807  0.5540  0.5917
  817SOL    HW1 2507   3.410   0.931   4.164  0.6976  0.5678 -0.7024
  817SOL    HW2 2508   3.345   0.891   4.033 -1.3271  0.6472  0.2429
  818SOL     OW 2509   2.165   4.821   1.174 -0.0421  0.5309 -0.0974
  818SOL    HW1 2510   2.105   4.845   1.102  0.3216  0.3476 -0.4663
  818SOL    HW2 2511   2.110   4.770   1.234  0.0625 -0.8657 -1.1368
  819SOL     OW 2512   2.472   1.450   3.501  0.4736 -0.1007  0.2145
  819SOL    HW1 2513   2.464   1.388   3.430 -2.6319 -0.5470  0.8162
  819SOL    HW2 2514   2.505   1.399   3.575  0.3324 -0.4476  0.0363
  820SOL     OW 2515   3.816   2.517   3.143  0.4049  0.0329 -0.2557
  820SOL    HW1 2516   3.866   2.593   3.173  0.7791 -0.4911  0.4806
  820SOL    HW2 2517   3.732   2.554   3.113  0.5855  0.7373  0.0769
  821SOL     OW 2518   3.933   0.298   4.646 -0.0606  0.3837  0.7040
  821SOL    HW1 2519   4.015   0.335   4.613  0.7213 -1.7739  0.0729
  821SOL    HW2 2520   3.930   0.324   4.738  0.4126  1.9917  0.2910
  822SOL     OW 2521   0.092   3.457   2.995  0.2877  0.4667 -0.2195
  822SOL    HW1 2522   0.049   3.456   2.909  0.1889 -0.9209 -0.1755
  822SOL    HW2 2523   0.161   3.523   2.987  0.2217  0.4164 -1.3259
  823SOL     OW 2524   0.451   2.781   1.731 -0.4564 -0.4903  0.1701
  823SOL    HW1 2525   0.464   2.743   1.643 -1.0239 -2.4923  0.8897
  823SOL    HW2 2526   0.390   2.854   1.716  0.4682  0.0415 -1.2569
  824SOL     OW 2527   0.101   4.114   1.527 -0.1397  0.7019  0.1035
  824SOL    HW1 2528   0.014   4.075   1.533  0.8585 -1.7518 -0.0601
  824SOL    HW2 2529   0.118   4.150   1.614 -0.7025 -0.2129  0.6026
  825SOL     OW 2530   2.729   4.094   3.104 -0.1109  0.1765 -0.0835
  825SOL    HW1 2531   2.802   4.043   3.138  0.9856  1.0966 -0.9465
  825SOL    HW2 2532   2.658   4.031   3.091  0.8247 -0.9074 -0.0513
  826SOL     OW 2533   4.616   0.684   3.520  0.1611  0.8371 -0.3297
  826SOL    HW1 2534   4.551   0.754   3.524  0.3924  1.0080  1.6456
  826SOL    HW2 2535   4.571   0.611   3.478 -0.9698  1.2987  0.0377
  827SOL     OW 2536   0.545   2.539   2.191 -0.3682  0.6393  0.6299
  827SOL    HW1 2537   0.486   2.611   2.214 -1.0801  0.3212 -0.1552
  827SOL    HW2 2538   0.586   2.515   2.273 -0.1483  1.9162  0.9170
  828SOL     OW 2539   3.303   3.044   1.981  0.0499  0.6601  0.0251
  828SOL    HW1 2540   3.284   3.003   1.897  0.9970  0.3471 -0.0528
  828SOL    HW2 2541   3.394   3.020   1.999 -0.2433  0.4200  1.3111
  829SOL     OW 2542   0.446   3.972   1.862  0.3599 -0.2177  0.1268
  829SOL    HW1 2543   0.385   3.908   1.824 -0.2593  0.2055  0.3943
  829SOL    HW2 2544   0.440   3.959   1.956 -0.8583  1.1856  0.2782
  830SOL     OW 2545   1.723   1.250   4.277 -0.6041 -0.0327 -0.2920
  830SOL    HW1 2546   1.799   1.226   4.331  1.0738  0.8368 -2.1174
  830SOL    HW2 2547   1.661   1.178   4.290  1.4554 -1.9711 -0.4130
  831SOL     OW 2548   3.832   1.804   1.178  0.1840 -0.1166  0.2058
  831SOL    HW1 2549   3.883   1.864   1.232 -0.1708 -0.2095  0.6533
  831SOL    HW2 2550   3.834   1.721   1.226  1.0807 -0.6051 -0.6519
  832SOL     OW 2551   1.879   0.656   3.417 -0.2812  0.0845 -0.0656
  832SOL    HW1 2552   1.824   0.579   3.426 -0.8981  0.5618  0.3248
  832SOL    HW2 2553   1.832   0.714   3.357 -0.5632  0.7932  0.8182
  833SOL     OW 2554   3.642   0.331   4.598  0.0413 -0.4921 -0.0241
  833SOL    HW1 2555   3.736   0.324   4.581  0.3260  1.8880  0.1728
  833SOL    HW2 2556   3.626   0.271   4.671  1.3069 -1.2177 -0.3092
  834SOL     OW 2557   3.737   2.783   0.249  0.7917 -0.0799  0.6524
  834SOL    HW1 2558   3.769   2.698   0.280 -0.6405 -0.3989  1.3351
  834SOL    HW2 2559   3.677   2.812   0.317 -1.5906 -0.2764 -1.2607
  835SOL     OW 2560   4.029   2.312   3.932 -0.6099 -0.0508  0.1183
  835SOL    HW1 2561   4.075   2.359   4.002 -0.9591 -0.6799  0.7719
  835SOL    HW2 2562   3.979   2.380   3.887  3.0540  1.2963 -2.4606
  836SOL     OW 2563   2.682   1.338   1.918  0.3096  0.8048 -0.0150
  836SOL    HW1 2564   2.666   1.430   1.898  1.8573  0.8179 -1.3549
  836SOL    HW2 2565   2.733   1.305   1.844  0.3781 -0.9665  0.7627
  837SOL     OW 2566   2.049   3.496   0.359 -0.5485 -0.1894  0.5431
  837SOL    HW1 2567   1.983   3.497   0.428 -1.5880 -0.4586 -0.4110
  837SOL    HW2 2568   2.071   3.404   0.347 -0.7059 -0.1865  0.2152
  838SOL     OW 2569   1.997   3.983   0.936 -0.3754 -0.6186 -0.6446
  838SOL    HW1 2570   2.046   3.901   0.930 -1.2029 -1.0801 -1.5398
  838SOL    HW2 2571   1.987   4.011   0.845  0.0192  0.5616 -0.3373
  839SOL     OW 2572   4.819   2.402   4.641  0.3363 -0.7803 -0.1806
  839SOL    HW1 2573   4.844   2.491   4.620  0.7249 -0.9657 -0.5095
  839SOL    HW2 2574   4.885   2.347   4.598  1.0398 -1.1805  1.3421
  840SOL     OW 2575   0.096   3.757   3.486  0.4723 -0.3979  0.5722
  840SOL    HW1 2576   0.182   3.796   3.502  0.4954 -0.7485  1.3808
  840SOL    HW2 2577   0.071   3.721   3.571 -0.8131  0.3658  0.5347
  841SOL     OW 2578   4.850   0.530   3.865  0.0529  0.1406  0.2084
  841SOL    HW1 2579   4.873   0.440   3.889 -2.4335 -0.8184 -0.6265
  841SOL    HW2 2580   4.821   0.570   3.947 -1.8526 -0.9008  0.0925
  842SOL     OW 2581   1.195   4.554   2.599 -0.5352 -0.3249  0.3255
  842SOL    HW1 2582   1.188   4.507   2.515 -5.4674  2.3376 -1.1954
  842SOL    HW2 2583   1.243   4.634   2.577 -0.8274 -0.1480  0.3305
  843SOL     OW 2584   2.917   0.294   3.630 -0.2736  0.1360 -0.3304
  843SOL    HW1 2585   2.970   0.279   3.709 -1.3505 -2.0439  0.0575
  843SOL    HW2 2586   2.844   0.347   3.661 -0.5308 -0.4518  0.0905
  844SOL     OW 2587   3.669   1.896   2.675 -0.4446 -0.2195  0.1272
  844SOL    HW1 2588   3.675   1.815   2.726  1.8448  1.1673  2.2876
  844SOL    HW2 2589   3.679   1.966   2.740 -0.8783  1.7884 -1.8470
  845SOL     OW 2590   0.807   4.928   4.578  0.0353 -0.1905 -0.9032
  845SOL    HW1 2591   0.809   5.024   4.575 -0.0785 -0.1477 -4.6008
  845SOL    HW2 2592   0.876   4.904   4.639 -1.6892  2.1652  2.2594
  846SOL     OW 2593   2.415   3.038   0.794 -0.0928 -0.0589  0.1068
  846SOL    HW1 2594   2.395   2.965   0.853  0.1103 -0.4553 -0.3120
  846SOL    HW2 2595   2.386   3.116   0.842 -2.6053 -0.5771 -0.4159
  847SOL     OW 2596   0.548   0.329   1.213 -0.5814 -0.1221  0.3649
  847SOL    HW1 2597   0.527   0.414   1.254 -0.1985 -0.7847  2.0358
  847SOL    HW2 2598   0.463   0.293   1.189 -0.7127  1.0215 -1.0612
  848SOL     OW 2599   2.735   0.831   2.892 -0.5918  0.1515  0.0750
  848SOL    HW1 2600   2.742   0.917   2.849  1.2749  0.7443  1.4275
  848SOL    HW2 2601   2.714   0.852   2.983  1.6448 -0.6712  0.8380
  849SOL     OW 2602   1.533   4.651   1.483 -0.3491  0.4042  0.6626
  849SOL    HW1 2603   1.520   4.658   1.389 -1.9488  1.0107  0.8973
  849SOL    HW2 2604   1.468   4.586   1.511 -1.8680  2.2307  1.6688
  850SOL     OW 2605   4.953   0.054   1.205  0.0999  0.7954 -0.1229
  850SOL    HW1 2606   4.917   0.025   1.121  1.1841  2.1845 -1.0973
  850SOL    HW2 2607   5.038   0.010   1.212  0.2759  1.1490 -0.0296
  851SOL     OW 2608   1.035   4.892   2.346 -0.6648  0.2367 -0.0110
  851SOL    HW1 2609   1.107   4.869   2.288  0.1476  0.8562  0.7031
  851SOL    HW2 2610   1.008   4.979   2.317 -1.4883 -0.2065 -0.6053
  852SOL     OW 2611   1.725   2.067   0.401 -0.0217 -0.2589  0.0149
  852SOL    HW1 2612   1.663   2.051   0.473 -0.3504 -1.4016 -0.5011
  852SOL    HW2 2613   1.811   2.066   0.443 -0.2175 -0.7660  0.4182
  853SOL     OW 2614   2.798   0.916   1.855 -0.2901 -0.7034  0.0127
  853SOL    HW1 2615   2.886   0.886   1.880 -0.9154 -2.7081 -0.0139
  853SOL    HW2 2616   2.814   0.980   1.785  1.1952  0.3115  1.2159
  854SOL     OW 2617   3.754   0.319   4.105 -0.0995 -0.1434 -0.0982
  854SOL    HW1 2618   3.808   0.295   4.181 -0.9967  2.1573  1.3704
  854SOL    HW2 2619   3.728   0.235   4.067  2.8553 -1.3582  0.2782
  855SOL     OW 2620   2.433   4.365   2.119  0.2019  0.1919  0.9353
  855SOL    HW1 2621   2.405   4.450   2.086  0.2457 -0.2960 -0.4068
  855SOL    HW2 2622   2.478   4.324   2.045 -2.4027 -2.2260  0.5310
  856SOL     OW 2623   4.129   2.797   2.957 -0.2071  0.5566  0.0040
  856SOL    HW1 2624   4.219   2.827   2.951  0.3223 -1.1857 -1.6409
  856SOL    HW2 2625   4.130   2.732   3.027  0.0580 -0.1686 -0.6584
  857SOL     OW 2626   4.741   1.856   3.399  0.1524 -0.3842  0.3438
  857SOL    HW1 2627   4.789   1.814   3.328 -0.3401  0.8973 -0.7708
  857SOL    HW2 2628   4.732   1.947   3.372 -1.0854 -0.1321  1.5092
  858SOL     OW 2629   4.553   0.245   0.302  0.6691 -0.4592  0.1000
  858SOL    HW1 2630   4.549   0.333   0.265 -2.4384  0.1159  1.4271
  858SOL    HW2 2631   4.608   0.254   0.380 -0.1746  0.5524  0.6140
  859SOL     OW 2632   3.019   0.802   0.415  0.6825  0.6020 -0.3534
  859SOL    HW1 2633   3.106   0.803   0.454  0.9888 -2.7767 -0.7343
  859SOL    HW2 2634   2.962   0.770   0.485  0.0795  0.7663 -0.7617
  860SOL     OW 2635   1.064   0.977   3.512  0.6561  0.3334  0.5324
  860SOL    HW1 2636   1.075   1.071   3.494 -1.2547  0.3503 -0.8737
  860SOL    HW2 2637   0.975   0.969   3.545  0.3705 -1.1138 -0.4964
  861SOL     OW 2638   1.929   0.806   1.909  0.0596 -0.2777 -0.1630
  861SOL    HW1 2639   1.971   0.725   1.878  2.0711  0.5467  0.2349
  861SOL    HW2 2640   1.983   0.834   1.983 -0.4579  1.5350 -0.4168
  862SOL     OW 2641   2.839   4.945   2.724 -0.4054  0.0339 -0.5870
  862SOL    HW1 2642   2.844   4.872   2.662 -1.2483  0.0965 -0.7371
  862SOL    HW2 2643   2.780   4.914   2.793 -1.1560  0.7388 -0.8958
  863SOL     OW 2644   2.203   0.782   2.919  0.9032 -0.3779 -0.4047
  863SOL    HW1 2645   2.204   0.705   2.863  1.0344 -0.2171 -0.6253
  863SOL    HW2 2646   2.283   0.775   2.971  1.6717  0.3432 -1.4386
  864SOL     OW 2647   4.272   0.272   0.077 -0.3751  0.2567  0.0750
  864SOL    HW1 2648   4.272   0.270   0.173  0.4921  0.2602  0.0848
  864SOL    HW2 2649   4.237   0.358   0.054 -1.6984 -0.1800  0.3552
  865SOL     OW 2650   1.255   2.005   2.061 -0.3362  0.2791 -0.7325
  865SOL    HW1 2651   1.175   2.023   2.111 -0.6222 -1.1767 -0.6316
  865SOL    HW2 2652   1.306   2.086   2.068 -1.4099  0.9249 -0.0665
  866SOL     OW 2653   2.904   0.372   4.107  0.0215 -0.1295  0.7408
  866SOL    HW1 2654   2.966   0.299   4.115 -1.0763 -1.0821  0.8441
  866SOL    HW2 2655   2.957   0.445   4.076  0.7986 -1.5406 -1.4775
  867SOL     OW 2656   4.910   4.707   1.862 -0.3343 -0.9492  0.1445
  867SOL    HW1 2657   4.830   4.758   1.849 -0.0145 -0.1798  1.0882
  867SOL    HW2 2658   4.981   4.772   1.858  0.3742 -1.7835 -1.9093
  868SOL     OW 2659   2.078   2.158   4.301 -0.0021 -0.0416 -0.4526
  868SOL    HW1 2660   2.088   2.071   4.339 -2.0664  0.2666  1.0074
  868SOL    HW2 2661   2.154   2.169   4.244  0.9824 -2.2643  0.3244
  869SOL     OW 2662   4.151   2.218   4.440  0.2332  0.0957 -0.3213
  869SOL    HW1 2663   4.160   2.162   4.363  0.7012 -0.6742  0.2793
  869SOL    HW2 2664   4.232   2.205   4.489 -0.2088  0.2935  0.4830
  870SOL     OW 2665   4.204   0.485   3.934  0.4428 -0.1626 -0.3172
  870SOL    HW1 2666   4.148   0.513   3.861  1.0878  1.1052 -0.3561
  870SOL    HW2 2667   4.169   0.531   4.010 -0.2848 -1.5512  0.2205
  871SOL     OW 2668   2.702   1.434   1.196 -0.1386  0.4292 -0.2056
  871SOL    HW1 2669   2.737   1.386   1.270  1.4869  2.1923  0.2593
  871SOL    HW2 2670   2.617   1.394   1.179  1.1344 -2.6311  0.0284
  872SOL     OW 2671   2.748   0.874   1.518 -0.0021  0.3730  0.1380
  872SOL    HW1 2672   2.841   0.891   1.533  0.3762 -1.5776  0.2628
  872SOL    HW2 2673   2.744   0.841   1.428 -0.3377 -0.9755  0.6199
  873SOL     OW 2674   4.120   2.441   3.628 -0.3273 -0.3517 -0.2542
  873SOL    HW1 2675   4.030   2.449   3.659 -0.7355 -2.1233 -0.9024
  873SOL    HW2 2676   4.159   2.527   3.645 -1.8977  0.1906  0.7593
  874SOL     OW 2677   2.246   0.917   3.598 -0.0361  0.0688  0.1365
  874SOL    HW1 2678   2.184   0.846   3.619  1.3852 -1.5823 -0.9497
  874SOL    HW2 2679   2.192   0.986   3.560 -1.1062 -1.9574 -2.3161
  875SOL     OW 2680   2.776   4.494   3.824 -0.1366  0.5206  0.2740
  875SOL    HW1 2681   2.837   4.568   3.816 -0.2732  0.6154  0.1070
  875SOL    HW2 2682   2.760   4.467   3.733  1.2300 -0.7955  0.3821
  876SOL     OW 2683   3.357   3.483   2.534 -0.4053  0.5334 -0.1170
  876SOL    HW1 2684   3.330   3.427   2.462  0.9178 -0.3156  0.0033
  876SOL    HW2 2685   3.336   3.432   2.613 -1.3392  1.2204  0.0918
  877SOL     OW 2686   4.848   4.617   0.041 -0.0419  0.1672  0.1182
  877SOL    HW1 2687   4.797   4.695   0.062 -1.8601 -1.4396  2.1174
  877SOL    HW2 2688   4.827   4.554   0.110  2.5014 -1.6207 -0.5579
  878SOL     OW 2689   4.903   0.641   0.561  0.4421 -0.1265 -0.0734
  878SOL    HW1 2690   4.820   0.656   0.607  0.4830 -0.9578  0.2789
  878SOL    HW2 2691   4.886   0.671   0.472  0.2883  1.2781  0.4063
  879SOL     OW 2692   0.578   3.440   0.196  0.3307 -0.4199  0.0090
  879SOL    HW1 2693   0.576   3.368   0.132  1.7682 -0.3023 -0.2153
  879SOL    HW2 2694   0.555   3.518   0.145  1.8384 -0.2655 -0.5107
  880SOL     OW 2695   0.045   1.800   1.616 -0.2543  0.5124  0.0619
  880SOL    HW1 2696  -0.005   1.875   1.584 -0.1666  0.3646 -0.4216
  880SOL    HW2 2697   0.074   1.754   1.537  1.9411  1.4196  0.2629
  881SOL     OW 2698   4.226   0.360   1.356  0.1951  0.1969 -0.1172
  881SOL    HW1 2699   4.310   0.394   1.388  0.5424  0.8036 -1.6347
  881SOL    HW2 2700   4.245   0.325   1.269 -1.3326  1.2968 -0.9334
  882SOL     OW 2701   3.689   0.647   3.482  0.2234 -0.6730 -0.8947
  882SOL    HW1 2702   3.707   0.685   3.396  0.2921 -1.4685 -1.2387
  882SOL    HW2 2703   3.775   0.626   3.518  0.1710 -0.7598 -0.8193
  883SOL     OW 2704   4.770   0.118   2.638 -1.2031 -0.0380  0.0441
  883SOL    HW1 2705   4.677   0.129   2.657 -0.8638  4.4881  0.1286
  883SOL    HW2 2706   4.805   0.070   2.713 -2.8405  1.8203  2.0944
  884SOL     OW 2707   2.899   4.561   0.333 -0.0833  0.2145 -0.3673
  884SOL    HW1 2708   2.815   4.589   0.297 -0.2078 -0.8375 -0.9337
  884SOL    HW2 2709   2.926   4.633   0.390 -0.6089  1.2655 -1.4032
  885SOL     OW 2710   1.522   0.169   3.217 -0.4675  0.0849  0.0254
  885SOL    HW1 2711   1.443   0.114   3.224 -0.2070 -0.8253 -2.7514
  885SOL    HW2 2712   1.593   0.106   3.210  0.2415  0.8631  0.1647
  886SOL     OW 2713   4.806   2.663   1.372 -0.0931  0.1241 -0.1155
  886SOL    HW1 2714   4.812   2.671   1.276  1.5683  0.5568 -0.0017
  886SOL    HW2 2715   4.813   2.569   1.388  1.9023  0.1911 -0.3367
  887SOL     OW 2716   4.220   4.755   3.439 -0.0169  0.1384 -0.1457
  887SOL    HW1 2717   4.155   4.774   3.507 -1.1924 -0.4078 -1.0859
  887SOL    HW2 2718   4.245   4.841   3.406 -1.6696  0.3264 -1.0310
  888SOL     OW 2719   0.623   1.990   1.835  0.0671 -0.0768  0.3029
  888SOL    HW1 2720   0.654   1.901   1.854 -1.0073 -0.0124  2.7205
  888SOL    HW2 2721   0.693   2.047   1.866 -0.5380 -0.0343  1.6320
  889SOL     OW 2722   1.387   1.506   4.359  0.0646 -0.3430 -0.6576
  889SOL    HW1 2723   1.296   1.489   4.382  0.6667 -0.4628  1.9357
  889SOL    HW2 2724   1.388   1.598   4.334 -0.9476 -0.6600 -2.0298
  890SOL     OW 2725   0.640   2.872   0.380 -0.3435  0.2943  0.1276
  890SOL    HW1 2726   0.547   2.891   0.389 -0.3666 -0.1385  0.9656
  890SOL    HW2 2727   0.662   2.823   0.460  0.4437 -0.2216 -0.3920
  891SOL     OW 2728   1.471   2.114   0.543  0.0227  0.4159  0.0677
  891SOL    HW1 2729   1.408   2.047   0.570  1.3287 -1.1054 -0.5608
  891SOL    HW2 2730   1.490   2.163   0.623  0.3157 -1.0409  0.9173
  892SOL     OW 2731   3.349   4.716   0.260  0.4666  0.2872 -1.0801
  892SOL    HW1 2732   3.378   4.651   0.324 -1.8345  1.6327  1.5515
  892SOL    HW2 2733   3.275   4.674   0.216 -0.2279  0.5984 -0.2533
  893SOL     OW 2734   3.196   1.466   0.169  0.9224  0.7297  0.5826
  893SOL    HW1 2735   3.212   1.547   0.121  0.1543  0.5923  0.0795
  893SOL    HW2 2736   3.214   1.397   0.106  1.7132  0.4942  1.0531
  894SOL     OW 2737   3.539   2.957   4.001 -0.0299  0.0690 -0.0781
  894SOL    HW1 2738   3.557   2.946   3.907  0.3063 -2.2631  0.2012
  894SOL    HW2 2739   3.450   2.922   4.012  0.4090 -0.8516  0.6458
  895SOL     OW 2740   0.163   2.805   3.642 -0.3294 -0.4528  0.6170
  895SOL    HW1 2741   0.123   2.811   3.555  0.5011 -1.9196  0.0902
  895SOL    HW2 2742   0.227   2.876   3.644 -1.9633  1.0960  0.9773
  896SOL     OW 2743   2.289   0.454   1.955 -0.5939 -0.0481 -0.4950
  896SOL    HW1 2744   2.355   0.520   1.932 -0.4663 -0.3282 -0.9404
  896SOL    HW2 2745   2.221   0.504   2.001 -0.1336  0.2626 -0.1336
  897SOL     OW 2746   1.289   1.595   1.161  0.3602  0.8485  0.0355
  897SOL    HW1 2747   1.311   1.506   1.189 -2.8384  0.0873  0.4187
  897SOL    HW2 2748   1.295   1.647   1.242 -3.0134 -0.1759  1.0879
  898SOL     OW 2749   2.170   1.543   2.870  0.8997  0.0564  0.0983
  898SOL    HW1 2750   2.130   1.629   2.888 -0.9649 -0.9588  1.1186
  898SOL    HW2 2751   2.121   1.510   2.795 -2.4132 -2.3707  2.9704
  899SOL     OW 2752   2.393   0.649   0.513  0.6760 -0.7400  0.7436
  899SOL    HW1 2753   2.339   0.645   0.592 -0.7427 -0.1349 -0.1452
  899SOL    HW2 2754   2.379   0.565   0.470 -1.0932  0.0778 -0.3997
  900SOL     OW 2755   3.627   1.118   4.584  0.7831 -0.0575  0.4851
  900SOL    HW1 2756   3.541   1.081   4.606  0.2520 -0.5454 -2.1153
  900SOL    HW2 2757   3.689   1.067   4.636 -0.4304 -0.1551  1.8976
  901SOL     OW 2758   2.967   3.026   0.332 -0.0624  0.4012  0.3891
  901SOL    HW1 2759   2.994   3.113   0.303 -1.4951  0.9859  0.7166
  901SOL    HW2 2760   3.038   2.968   0.303  0.6411  1.5835 -0.3486
  902SOL     OW 2761   2.679   0.607   1.636  0.0512  0.1123  0.1274
  902SOL    HW1 2762   2.772   0.618   1.657  0.5389 -3.1718  0.1835
  902SOL    HW2 2763   2.633   0.631   1.716  1.1072 -1.1063  1.1539
  903SOL     OW 2764   4.229   0.153   2.537  0.3466 -0.3730  0.2379
  903SOL    HW1 2765   4.259   0.207   2.464  0.8095 -1.3490 -0.3045
  903SOL    HW2 2766   4.145   0.117   2.508  0.5267 -0.7569  0.1945
  904SOL     OW 2767   2.609   3.549   4.888  0.3708  0.0754  0.0463
  904SOL    HW1 2768   2.698   3.514   4.885 -0.3747 -2.1516  1.6369
  904SOL    HW2 2769   2.556   3.477   4.923 -1.5486  2.3231  2.0924
  905SOL     OW 2770   2.664   2.507   4.186 -0.3232  0.1102  0.5115
  905SOL    HW1 2771   2.683   2.587   4.137 -0.8945  0.5566  1.0054
  905SOL    HW2 2772   2.578   2.523   4.225 -0.2167 -0.5442  1.0260
  906SOL     OW 2773   4.629   2.920   4.351  0.7513  0.7834 -0.0868
  906SOL    HW1 2774   4.709   2.915   4.402  0.2989  0.2071  0.5809
  906SOL    HW2 2775   4.652   2.974   4.275  2.4325 -1.2310 -1.1270
  907SOL     OW 2776   1.083   2.313   0.720 -0.0070  0.2676 -0.2493
  907SOL    HW1 2777   1.174   2.311   0.748 -0.1176  1.1053  0.2122
  907SOL    HW2 2778   1.051   2.225   0.735  0.1736  0.4715  1.5230
  908SOL     OW 2779   3.035   3.285   0.183  0.3925  0.6802  0.8987
  908SOL    HW1 2780   3.096   3.248   0.120 -1.5676 -1.4117  0.1086
  908SOL    HW2 2781   3.090   3.315   0.255  2.3350 -2.0196  0.6789
  909SOL     OW 2782   3.139   3.746   3.270  0.0003  0.6002  0.5399
  909SOL    HW1 2783   3.121   3.821   3.214 -0.4507  0.8822  1.0507
  909SOL    HW2 2784   3.069   3.747   3.335 -0.0020 -0.2541  0.5669
  910SOL     OW 2785   1.761   1.562   4.420  0.1055  0.4064 -0.1985
  910SOL    HW1 2786   1.702   1.504   4.468  0.5371 -1.0259 -1.3158
  910SOL    HW2 2787   1.849   1.529   4.441  0.3018 -0.4151 -2.0732
  911SOL     OW 2788   1.512   1.999   4.352 -0.3640 -0.3559  0.1596
  911SOL    HW1 2789   1.587   2.031   4.402  0.6262 -1.3259 -0.6372
  911SOL    HW2 2790   1.440   2.057   4.376  0.8849  1.2486  0.1950
  912SOL     OW 2791   4.465   3.193   4.652 -0.3258 -0.1723 -0.1335
  912SOL    HW1 2792   4.491   3.280   4.682  0.2896 -0.4825  0.2535
  912SOL    HW2 2793   4.429   3.150   4.729  0.5116 -0.6873 -0.0154
  913SOL     OW 2794   3.310   2.827   1.110 -0.4025  0.2094  0.2604
  913SOL    HW1 2795   3.318   2.794   1.021  3.2265 -1.8670  1.1367
  913SOL    HW2 2796   3.327   2.921   1.103 -2.0718  0.4381 -1.3684
  914SOL     OW 2797   3.258   3.899   3.996  0.0854  0.5830  0.1440
  914SOL    HW1 2798   3.307   3.903   3.914 -0.2858  1.4431 -0.0376
  914SOL    HW2 2799   3.323   3.918   4.064  0.8374 -1.9732  0.2631
  915SOL     OW 2800   3.896   3.497   3.003  0.0168  0.4029  0.5767
  915SOL    HW1 2801   3.862   3.585   3.012  1.1213  0.9156 -0.0792
  915SOL    HW2 2802   3.891   3.460   3.092 -1.7378  0.6007  0.6001
  916SOL     OW 2803   2.761   1.313   3.266 -0.2075 -0.0112  0.0088
  916SOL    HW1 2804   2.811   1.303   3.185  1.8710  1.1261  1.0684
  916SOL    HW2 2805   2.724   1.401   3.261  0.5238  0.3346  0.5984
  917SOL     OW 2806   0.878   3.816   0.536  0.0616  0.4317 -0.2322
  917SOL    HW1 2807   0.892   3.905   0.503  0.4499  0.0221 -1.1884
  917SOL    HW2 2808   0.909   3.820   0.626  0.9917  1.0206 -0.5649
  918SOL     OW 2809   2.046   1.137   1.954  0.0827  0.0645  0.4955
  918SOL    HW1 2810   1.962   1.138   2.001  0.6741  0.7632  1.5671
  918SOL    HW2 2811   2.104   1.192   2.007  0.3588  2.1986 -1.8668
  919SOL     OW 2812   1.605   0.852   2.635 -0.0528 -0.1044  0.0040
  919SOL    HW1 2813   1.610   0.940   2.672 -0.6152  0.2048 -0.6277
  919SOL    HW2 2814   1.675   0.850   2.569  1.6757 -1.0168  1.7397
  920SOL     OW 2815   2.146   1.243   3.570  0.1007  0.2792 -0.1315
  920SOL    HW1 2816   2.094   1.182   3.518  0.8204 -0.8236  0.4006
  920SOL    HW2 2817   2.096   1.254   3.651  0.0572  0.2554 -0.1551
  921SOL     OW 2818   2.671   3.034   3.494  0.1157  0.2766  0.9681
  921SOL    HW1 2819   2.626   3.056   3.575  1.1568  1.8522  1.1640
  921SOL    HW2 2820   2.660   3.112   3.439 -0.4624 -0.7083 -0.3716
  922SOL     OW 2821   1.671   2.872   3.736 -0.0513  0.3408  0.2635
  922SOL    HW1 2822   1.680   2.777   3.744 -0.3477  0.2627 -0.2299
  922SOL    HW2 2823   1.689   2.906   3.824 -0.0699 -0.1823  0.4740
  923SOL     OW 2824   1.008   4.541   4.758  0.3407 -0.5093  0.5511
  923SOL    HW1 2825   0.930   4.529   4.811 -0.3482  1.0652 -0.0469
  923SOL    HW2 2826   0.979   4.527   4.668  0.4568  1.0931  0.2227
  924SOL     OW 2827   4.253   4.455   2.823 -0.2324 -0.1223 -0.2617
  924SOL    HW1 2828   4.162   4.424   2.825 -0.7227  1.0739 -1.9621
  924SOL    HW2 2829   4.249   4.539   2.778  1.5592  0.6148  0.8350
  925SOL     OW 2830   4.807   3.656   3.409 -0.0854 -0.6024 -0.3779
  925SOL    HW1 2831   4.900   3.679   3.413 -0.4124  0.8912 -0.6999
  925SOL    HW2 2832   4.806   3.566   3.377  1.3005 -1.1805  1.0416
  926SOL     OW 2833   4.568   1.987   0.203 -0.1584 -0.1670 -0.1750
  926SOL    HW1 2834   4.561   1.896   0.176 -0.1773 -0.6205  1.2656
  926SOL    HW2 2835   4.620   1.985   0.283  2.5722  1.4405 -1.7355
  927SOL     OW 2836   4.324   1.750   3.605 -0.2062  0.7450  0.1856
  927SOL    HW1 2837   4.326   1.733   3.511 -1.1180 -0.6457  0.3941
  927SOL    HW2 2838   4.416   1.764   3.629  0.3848 -1.5692 -0.4700
  928SOL     OW 2839   0.535   0.808   2.721  0.2406 -0.4549  0.2076
  928SOL    HW1 2840   0.575   0.725   2.697  0.3096 -0.4291  0.2308
  928SOL    HW2 2841   0.445   0.802   2.691 -0.4204 -1.4391  2.2133
  929SOL     OW 2842   1.259   0.068   1.696 -0.4919  0.1776  0.3157
  929SOL    HW1 2843   1.225   0.098   1.780 -0.6296 -0.5440  0.5289
  929SOL    HW2 2844   1.193   0.094   1.632 -0.4187  0.6712  0.4391
  930SOL     OW 2845   4.190   0.710   2.854 -0.1768 -0.1646 -0.3726
  930SOL    HW1 2846   4.169   0.656   2.930  1.4054 -1.6761 -0.9400
  930SOL    HW2 2847   4.132   0.677   2.784  0.9121 -1.3205 -0.7672
  931SOL     OW 2848   4.825   2.037   3.783  0.3770 -0.6335 -0.1727
  931SOL    HW1 2849   4.747   1.984   3.798  0.9259 -0.9844  1.7154
  931SOL    HW2 2850   4.868   2.041   3.868  1.4399  1.1429 -0.7315
  932SOL     OW 2851   1.062   0.213   1.279  0.0231 -0.0587 -0.1227
  932SOL    HW1 2852   1.123   0.284   1.261 -0.9571  0.7551 -0.3013
  932SOL    HW2 2853   0.977   0.246   1.251 -0.5143 -1.1651  0.1370
  933SOL     OW 2854   2.679   1.413   0.330  0.8493  0.8331  0.1552
  933SOL    HW1 2855   2.686   1.498   0.288 -0.9586  1.4192  0.9529
  933SOL    HW2 2856   2.723   1.424   0.414  0.9968  0.8587  0.0739
  934SOL     OW 2857   2.410   4.017   3.509 -0.0850 -0.6241  0.2879
  934SOL    HW1 2858   2.424   4.099   3.557  0.7022 -1.1964  1.0785
  934SOL    HW2 2859   2.421   4.040   3.417 -0.8356  0.3451  0.4263
  935SOL     OW 2860   1.713   1.596   0.969  0.1075  0.3565 -0.2106
  935SOL    HW1 2861   1.778   1.607   1.038  0.2628 -2.5858  0.2705
  935SOL    HW2 2862   1.634   1.639   1.002  0.5713  0.1621  1.2197
  936SOL     OW 2863   3.882   1.112   1.076 -0.0008 -0.0979 -0.0082
  936SOL    HW1 2864   3.958   1.069   1.116  0.2654  0.8469  0.5236
  936SOL    HW2 2865   3.834   1.150   1.150  0.5199  1.7087 -0.5567
  937SOL     OW 2866   4.204   2.172   0.701 -0.1974 -0.0839  0.4113
  937SOL    HW1 2867   4.254   2.092   0.711 -0.0407 -0.0977 -0.4102
  937SOL    HW2 2868   4.128   2.160   0.758  1.8903  0.9789  3.7444
  938SOL     OW 2869   1.129   4.248   1.052  0.3255  0.0035 -0.5904
  938SOL    HW1 2870   1.068   4.250   1.126 -0.8292 -1.1929 -1.4673
  938SOL    HW2 2871   1.153   4.156   1.044  1.4379  0.3157 -0.9192
  939SOL     OW 2872   0.274   2.019   2.628  0.4497 -0.0162 -0.6481
  939SOL    HW1 2873   0.349   2.047   2.576 -0.5481  1.8853 -1.1380
  939SOL    HW2 2874   0.197   2.045   2.577 -0.5629 -1.0286  0.2965
  940SOL     OW 2875   4.455   1.271   4.728  0.2648 -0.3189 -0.2321
  940SOL    HW1 2876   4.496   1.322   4.659  0.3459  0.1910  0.1811
  940SOL    HW2 2877   4.362   1.290   4.720  0.2951 -0.1041 -0.0780
  941SOL     OW 2878   3.102   4.631   4.503  0.0819 -0.6042  0.5539
  941SOL    HW1 2879   3.140   4.632   4.415 -0.1643  0.9834  0.4374
  941SOL    HW2 2880   3.036   4.562   4.500 -0.5930  0.0578 -0.8179
  942SOL     OW 2881   4.310   2.015   1.367  0.2913  0.1692 -0.4592
  942SOL    HW1 2882   4.277   1.965   1.441 -0.0964 -1.6939 -1.8334
  942SOL    HW2 2883   4.233   2.058   1.330  0.4450  0.8870  0.0203
  943SOL     OW 2884   1.421   0.615   3.470 -0.2404  0.0327 -0.3430
  943SOL    HW1 2885   1.458   0.543   3.419 -0.2717 -1.1273  1.1749
  943SOL    HW2 2886   1.340   0.638   3.425 -0.8569 -1.7322 -0.2165
  944SOL     OW 2887   1.517   1.059   3.253  0.5145 -0.1250  0.1707
  944SOL    HW1 2888   1.502   1.002   3.329  1.7546  1.2746  1.5296
  944SOL    HW2 2889   1.442   1.042   3.196 -0.4843 -1.2067  1.7098
  945SOL     OW 2890   4.532   2.329   1.150 -0.0292  0.3785 -0.4491
  945SOL    HW1 2891   4.515   2.259   1.087 -0.4420  0.7981 -0.8148
  945SOL    HW2 2892   4.570   2.285   1.226  0.2978 -0.1622 -0.9162
  946SOL     OW 2893   1.784   1.642   1.560  0.0307  0.1448  0.5440
  946SOL    HW1 2894   1.764   1.626   1.653 -1.2193  0.8438  0.4123
  946SOL    HW2 2895   1.855   1.705   1.562 -2.4390  3.1513  1.1193
  947SOL     OW 2896   4.513   3.339   4.209  0.1646  0.0222 -0.5831
  947SOL    HW1 2897   4.468   3.295   4.282 -0.8737  1.3858 -0.3701
  947SOL    HW2 2898   4.568   3.405   4.251  1.5393 -0.8765 -0.9152
  948SOL     OW 2899   0.470   2.579   0.252  0.3302  0.3246  0.2169
  948SOL    HW1 2900   0.563   2.566   0.270  0.2197  0.6242  1.0557
  948SOL    HW2 2901   0.466   2.663   0.207  0.4553  0.3723  0.2945
  949SOL     OW 2902   0.928   3.842   0.803 -0.0284  0.4592  0.1385
  949SOL    HW1 2903   0.859   3.882   0.857 -0.6525 -0.8457  0.3662
  949SOL    HW2 2904   0.961   3.770   0.857  0.6127  0.2768 -0.4921
  950SOL     OW 2905   0.605   3.657   4.339 -0.0449 -0.3719  0.0029
  950SOL    HW1 2906   0.662   3.581   4.352  0.9618  0.5208  1.1183
  950SOL    HW2 2907   0.637   3.697   4.258  1.7200  0.7213  1.1605
  951SOL     OW 2908   2.933   3.846   4.827  0.3787  0.5184 -0.0505
  951SOL    HW1 2909   3.026   3.869   4.832  0.9860 -1.6054 -0.3243
  951SOL    HW2 2910   2.925   3.766   4.879 -0.8827 -0.4115 -1.5726
  952SOL     OW 2911   0.475   3.578   3.433  0.6995 -0.4726  0.5006
  952SOL    HW1 2912   0.402   3.522   3.459 -0.3048  0.5657  0.0485
  952SOL    HW2 2913   0.553   3.526   3.449 -0.1464 -1.6345  0.9682
  953SOL     OW 2914   4.260   4.634   2.276  0.3207  0.6739 -0.0264
  953SOL    HW1 2915   4.351   4.636   2.245 -0.3394  0.6690 -2.1024
  953SOL    HW2 2916   4.230   4.546   2.256  0.1910  0.2787  1.7831
  954SOL     OW 2917   4.448   4.773   1.319  0.4713 -0.1159 -0.5544
  954SOL    HW1 2918   4.510   4.700   1.311 -0.0339 -0.7275  0.8585
  954SOL    HW2 2919   4.501   4.851   1.304  1.3304 -0.6928 -0.5803
  955SOL     OW 2920   2.260   1.273   4.797  0.3628 -0.1380  0.0760
  955SOL    HW1 2921   2.324   1.304   4.733  0.6861 -0.3476  0.2941
  955SOL    HW2 2922   2.176   1.281   4.753  0.7069 -1.6367 -0.9187
  956SOL     OW 2923   4.122   1.156   0.234 -0.0943  0.1497  0.0512
  956SOL    HW1 2924   4.070   1.117   0.164  0.7605 -1.0467  0.0416
  956SOL    HW2 2925   4.084   1.122   0.314  0.9697 -1.1960  0.0270
  957SOL     OW 2926   2.822   0.210   0.492  0.1471  0.2187 -0.1036
  957SOL    HW1 2927   2.750   0.150   0.516  1.6147 -1.6364 -0.1358
  957SOL    HW2 2928   2.778   0.292   0.469 -1.9688 -0.8641 -0.1655
  958SOL     OW 2929   4.581   3.680   2.223  0.1688  0.2170  0.3745
  958SOL    HW1 2930   4.614   3.598   2.258 -1.3320  0.1804  1.8372
  958SOL    HW2 2931   4.600   3.745   2.291  1.4257  1.1432 -0.7964
  959SOL     OW 2932   2.406   3.260   4.352 -0.4319 -0.5113  0.0590
  959SOL    HW1 2933   2.446   3.346   4.336  0.7686 -1.1876 -0.7269
  959SOL    HW2 2934   2.470   3.214   4.406 -0.6961 -1.1890 -0.2008
  960SOL     OW 2935   1.865   0.237   4.764  0.0831 -0.1360  0.0456
  960SOL    HW1 2936   1.939   0.190   4.727  0.7026  0.6626  0.2591
  960SOL    HW2 2937   1.863   0.320   4.718 -1.4636 -0.6199 -0.8649
  961SOL     OW 2938   0.575   1.043   1.911 -0.3162 -0.7334 -0.2842
  961SOL    HW1 2939   0.665   1.064   1.936 -1.3866  2.6034  1.3276
  961SOL    HW2 2940   0.560   0.955   1.945  1.5804 -0.3726  1.6649
  962SOL     OW 2941   1.210   3.483   3.484  0.0951 -0.0077 -0.0083
  962SOL    HW1 2942   1.283   3.460   3.427  1.1230 -1.0701  1.6387
  962SOL    HW2 2943   1.135   3.436   3.448  0.8737 -1.2136 -0.0993
  963SOL     OW 2944   3.619   1.059   1.561 -0.8228 -0.0787  0.3550
  963SOL    HW1 2945   3.557   1.131   1.574 -0.9687 -0.2863  0.7995
  963SOL    HW2 2946   3.623   1.049   1.466 -0.2084  1.0355  0.2347
  964SOL     OW 2947   3.319   0.049   1.308 -0.1002 -0.1962  0.1937
  964SOL    HW1 2948   3.347   0.084   1.223  2.3388  1.5434  1.5874
  964SOL    HW2 2949   3.255   0.112   1.340  0.9830  0.6362  0.7722
  965SOL     OW 2950   4.576   2.640   4.565  0.1470 -0.5161 -0.2165
  965SOL    HW1 2951   4.544   2.558   4.529  0.0069 -0.9480  0.8544
  965SOL    HW2 2952   4.498   2.694   4.577  0.1427 -0.5295 -0.1821
  966SOL     OW 2953   1.734   0.874   2.382  0.2371  0.0725  0.4032
  966SOL    HW1 2954   1.694   0.954   2.348 -0.4256 -1.2178 -2.0961
  966SOL    HW2 2955   1.675   0.804   2.354 -0.0916 -1.2457  3.9191
  967SOL     OW 2956   4.440   0.029   3.589 -0.6798 -0.3131  0.4649
  967SOL    HW1 2957   4.493   0.062   3.516 -0.8764 -0.4609  0.2549
  967SOL    HW2 2958   4.478  -0.057   3.608 -0.7278 -0.3426  0.4299
  968SOL     OW 2959   4.772   1.193   2.395 -0.4280  0.4830  0.0963
  968SOL    HW1 2960   4.865   1.214   2.387 -0.6521  1.3550 -0.3401
  968SOL    HW2 2961   4.751   1.210   2.487  0.0732 -0.7567  0.4632
  969SOL     OW 2962   0.485   4.924   0.196 -0.5837 -0.0042  0.4426
  969SOL    HW1 2963   0.562   4.940   0.250 -1.4847 -0.1070  1.8010
  969SOL    HW2 2964   0.467   4.831   0.205 -0.7490 -0.0223 -0.0390
  970SOL     OW 2965   3.977   0.661   4.175 -0.4841 -0.5085  0.0098
  970SOL    HW1 2966   4.003   0.595   4.239 -0.2209 -1.4647 -1.0518
  970SOL    HW2 2967   3.887   0.638   4.153  0.1279 -1.5742 -1.5844
  971SOL     OW 2968   2.908   1.710   4.752 -0.3464  0.1882  0.2956
  971SOL    HW1 2969   2.916   1.626   4.798 -0.5946  0.5843  1.0690
  971SOL    HW2 2970   2.881   1.772   4.819  3.3868  1.7005  0.5954
  972SOL     OW 2971   4.271   1.994   3.063 -0.0530 -0.2790 -0.1577
  972SOL    HW1 2972   4.234   2.055   3.126 -1.9117  0.7925 -2.1411
  972SOL    HW2 2973   4.366   2.001   3.075 -0.3087  1.1119  1.3673
  973SOL     OW 2974   0.264   3.322   1.599 -0.7225  0.5190  0.5042
  973SOL    HW1 2975   0.269   3.395   1.538  0.8056  3.1781  3.4884
  973SOL    HW2 2976   0.178   3.331   1.641 -1.6839 -1.1693 -0.9800
  974SOL     OW 2977   1.368   0.140   1.222 -0.5692 -0.1736  0.0352
  974SOL    HW1 2978   1.429   0.214   1.221 -0.9710  0.2086  1.6223
  974SOL    HW2 2979   1.284   0.178   1.249 -1.5825 -0.6710 -2.1893
  975SOL     OW 2980   4.740   1.069   0.361 -0.0731  0.4154 -0.5930
  975SOL    HW1 2981   4.677   1.104   0.298 -1.1461  2.0517  1.2721
  975SOL    HW2 2982   4.689   1.051   0.440  1.6689  1.2453  0.8015
  976SOL     OW 2983   3.609   3.567   1.878  0.1243  0.4671  0.4800
  976SOL    HW1 2984   3.546   3.571   1.950 -1.0529 -2.5661 -0.2264
  976SOL    HW2 2985   3.682   3.515   1.912 -0.2292 -0.5820 -0.2961
  977SOL     OW 2986   1.547   4.702   3.643 -0.1187  0.0082  0.5916
  977SOL    HW1 2987   1.518   4.790   3.617  0.1478  0.0398  0.4016
  977SOL    HW2 2988   1.613   4.718   3.711  0.0037 -0.0418  0.4845
  978SOL     OW 2989   3.752   3.287   4.524 -0.1902 -0.2639  0.1106
  978SOL    HW1 2990   3.659   3.303   4.543  0.4871  2.5161  1.6246
  978SOL    HW2 2991   3.789   3.258   4.607  0.5379 -0.0420 -0.1292
  979SOL     OW 2992   1.740   4.725   0.311  0.5720  0.2370  0.1997
  979SOL    HW1 2993   1.822   4.747   0.356  1.1276  0.5944 -0.9358
  979SOL    HW2 2994   1.695   4.809   0.302  0.2745  0.1043  0.4508
  980SOL     OW 2995   2.155   4.351   4.095  0.1141  0.2685  0.0388
  980SOL    HW1 2996   2.172   4.278   4.036  1.3669  0.8394 -0.3338
  980SOL    HW2 2997   2.066   4.378   4.075 -0.5643 -1.4411  0.5167
  981SOL     OW 2998   1.702   4.258   1.767  0.0847 -0.2668 -0.0812
  981SOL    HW1 2999   1.738   4.343   1.791 -0.4944  0.4575 -1.6631
  981SOL    HW2 3000   1.774   4.196   1.782  0.7152  0.5834  0.4702
  982SOL     OW 3001   3.075   1.869   2.692  0.3034  0.2828 -0.3034
  982SOL    HW1 3002   3.030   1.873   2.607 -0.9963  0.2660  0.3456
  982SOL    HW2 3003   3.038   1.942   2.741  1.4814  0.6510  0.0635
  983SOL     OW 3004   4.674   2.591   0.080 -0.1180  0.0106  0.2424
  983SOL    HW1 3005   4.764   2.592   0.047  0.1083 -0.8524  0.7878
  983SOL    HW2 3006   4.624   2.543   0.014 -0.5768  2.0144 -0.9501
  984SOL     OW 3007   4.300   0.342   0.817  0.3166 -0.1090 -0.5411
  984SOL    HW1 3008   4.223   0.286   0.831 -0.0079  0.0821 -1.4772
  984SOL    HW2 3009   4.277   0.425   0.860  0.3498 -0.3181 -0.1056
  985SOL     OW 3010   3.486   2.525   4.510 -0.5694 -0.0754 -0.2489
  985SOL    HW1 3011   3.495   2.444   4.562  0.1816 -0.2395 -0.6143
  985SOL    HW2 3012   3.569   2.531   4.462 -0.1596  1.4844  0.5758
  986SOL     OW 3013   4.762   2.542   3.874  0.0284 -0.3600 -0.2518
  986SOL    HW1 3014   4.718   2.554   3.790  2.3644  1.3471 -1.3412
  986SOL    HW2 3015   4.855   2.533   3.851  0.7349  0.0950  2.1404
  987SOL     OW 3016   4.751   2.421   0.333 -0.2020  0.0830  0.7838
  987SOL    HW1 3017   4.696   2.344   0.319  2.0672 -1.7007  1.1539
  987SOL    HW2 3018   4.735   2.476   0.257  0.1084 -2.0072 -0.8759
  988SOL     OW 3019   2.168   3.907   4.917  0.3859  0.4285 -0.6286
  988SOL    HW1 3020   2.223   3.980   4.888 -1.0880  1.3301 -1.3347
  988SOL    HW2 3021   2.089   3.949   4.952 -1.2729 -0.7743 -2.6365
  989SOL     OW 3022   2.443   3.048   1.757 -0.1417  0.7175  0.1498
  989SOL    HW1 3023   2.507   3.119   1.769  1.9079 -0.7737 -1.1765
  989SOL    HW2 3024   2.483   2.992   1.691 -2.4996 -0.7757 -0.1064
  990SOL     OW 3025   0.249   3.368   3.837 -0.4117 -0.3560  0.1480
  990SOL    HW1 3026   0.200   3.304   3.889 -2.6024  1.2034  0.1277
  990SOL    HW2 3027   0.269   3.439   3.898  2.4383 -1.1300  0.2970
  991SOL     OW 3028   4.852   1.508   2.981 -0.4317  0.1474 -0.0675
  991SOL    HW1 3029   4.863   1.413   2.980 -0.7214  0.1140 -0.5555
  991SOL    HW2 3030   4.757   1.521   2.989 -0.3462  0.4039  0.6682
  992SOL     OW 3031   2.807   3.905   0.425  0.6571 -0.0384 -0.5636
  992SOL    HW1 3032   2.758   3.980   0.389  1.7472  1.1498  0.3257
  992SOL    HW2 3033   2.753   3.829   0.404 -2.6309  1.3217  1.9737
  993SOL     OW 3034   2.024   3.503   1.650  0.5295  0.0189  0.0172
  993SOL    HW1 3035   2.087   3.568   1.619 -0.1831  1.4423  1.3958
  993SOL    HW2 3036   1.956   3.501   1.582 -0.4540  2.2564  0.8500
  994SOL     OW 3037   2.057   1.677   0.534 -0.1292  0.1243  0.2052
  994SOL    HW1 3038   2.086   1.644   0.619  0.5354 -0.1268 -0.1144
  994SOL    HW2 3039   2.137   1.701   0.488 -0.3776 -0.9036 -0.8169
  995SOL     OW 3040   2.499   4.354   1.254  0.3480  0.0991  0.2417
  995SOL    HW1 3041   2.570   4.354   1.189 -3.0719  1.5113 -3.9691
  995SOL    HW2 3042   2.506   4.438   1.298  2.0728 -0.4222  1.0581
  996SOL     OW 3043   4.240   1.487   0.773 -0.7102  0.1141 -0.0373
  996SOL    HW1 3044   4.169   1.474   0.710 -0.5182  1.6219 -0.6160
  996SOL    HW2 3045   4.316   1.508   0.719 -0.2306  0.1546  0.6429
  997SOL     OW 3046   0.332   0.104   2.769 -0.2802 -0.1209  0.0177
  997SOL    HW1 3047   0.420   0.142   2.766 -0.7860  1.4055  2.0245
  997SOL    HW2 3048   0.290   0.135   2.689 -0.0046  1.9781  0.6084
  998SOL     OW 3049   4.745   1.003   0.805  0.4436 -0.0427  0.1118
  998SOL    HW1 3050   4.681   0.991   0.875 -0.4423 -0.2350 -0.7088
  998SOL    HW2 3051   4.809   0.934   0.818  0.5917  0.2624  1.0557
  999SOL     OW 3052   0.520   2.440   1.464  0.1457 -0.4578  0.1272
  999SOL    HW1 3053   0.548   2.531   1.455 -0.6231 -0.3193 -1.2463
  999SOL    HW2 3054   0.429   2.440   1.434  0.3771 -1.7951 -0.6741
 1000SOL     OW 3055   2.242   3.168   2.145 -0.3068  0.6186 -0.2523
 1000SOL    HW1 3056   2.305   3.240   2.156 -0.0366  0.3019  0.3443
 1000SOL    HW2 3057   2.290   3.103   2.092 -1.7581  2.3338 -4.0739
 1001SOL     OW 3058   4.357   3.886   2.772 -0.5737 -0.3161 -0.5545
 1001SOL    HW1 3059   4.314   3.895   2.687  2.1464  1.7546 -1.8729
 1001SOL    HW2 3060   4.372   3.792   2.782 -2.4166 -0.7676 -1.5023
 1002SOL     OW 3061   1.036   1.103   4.812  0.2172 -0.1666 -0.4196
 1002SOL    HW1 3062   0.951   1.137   4.839 -0.3887 -1.0399 -1.1624
 1002SOL    HW2 3063   1.079   1.079   4.894 -0.0046  0.8274 -0.0024
 1003SOL     OW 3064   3.335   4.925   1.857  0.1600 -0.3208  0.2608
 1003SOL    HW1 3065   3.348   4.850   1.914  0.2049 -0.6962 -0.2382
 1003SOL    HW2 3066   3.403   4.987   1.883 -0.9335  0.2732  1.8427
 1004SOL     OW 3067   3.733   4.757   2.066  0.2453  0.0570  0.3995
 1004SOL    HW1 3068   3.783   4.677   2.081 -1.0361 -1.0243 -0.7273
 1004SOL    HW2 3069   3.745   4.776   1.973 -1.0728 -0.0090  0.1866
 1005SOL     OW 3070   1.798   0.553   1.419 -0.4504  0.7427  0.6370
 1005SOL    HW1 3071   1.775   0.493   1.349  0.4423  0.7137  0.3496
 1005SOL    HW2 3072   1.716   0.569   1.466 -0.3739 -2.4792  2.1353
 1006SOL     OW 3073   4.315   4.474   3.107 -0.0492  0.3891  0.0861
 1006SOL    HW1 3074   4.265   4.394   3.127 -0.2590  0.6814  0.7382
 1006SOL    HW2 3075   4.315   4.478   3.011  0.7298 -0.8734  0.0052
 1007SOL     OW 3076   0.325   1.011   3.315  0.1096 -0.2106 -0.2719
 1007SOL    HW1 3077   0.297   1.026   3.405 -0.1035 -2.2218  0.0487
 1007SOL    HW2 3078   0.420   1.024   3.317  0.2539 -1.2796  0.5056
 1008SOL     OW 3079   2.562   3.599   2.591 -0.3207  0.3178  0.3457
 1008SOL    HW1 3080   2.524   3.650   2.519  0.2384  1.1423  0.6215
 1008SOL    HW2 3081   2.654   3.591   2.568  0.1282  1.6686  1.5703
 1009SOL     OW 3082   0.894   3.192   3.493  0.1261  0.2072  0.2280
 1009SOL    HW1 3083   0.902   3.176   3.399 -1.8729  0.5670 -0.0483
 1009SOL    HW2 3084   0.979   3.168   3.529  0.7970 -0.3268 -1.6144
 1010SOL     OW 3085   3.422   0.982   2.995  0.3945 -0.0307  0.2719
 1010SOL    HW1 3086   3.408   0.948   3.083 -2.3871  0.2735  0.0402
 1010SOL    HW2 3087   3.421   0.904   2.939 -2.4360  0.0084  0.1166
 1011SOL     OW 3088   1.907   1.993   3.643 -0.3700  0.2661 -0.3731
 1011SOL    HW1 3089   1.990   1.973   3.600  0.3996 -0.5482  1.3633
 1011SOL    HW2 3090   1.887   1.914   3.694 -0.9168  1.3394  1.1590
 1012SOL     OW 3091   1.238   4.641   2.293 -0.4601  0.0163 -0.5098
 1012SOL    HW1 3092   1.231   4.723   2.243  0.2820  0.7489  0.5230
 1012SOL    HW2 3093   1.314   4.597   2.256 -0.6273 -0.0170 -0.8134
 1013SOL     OW 3094   4.676   4.621   1.250 -0.0918  0.6445 -0.6301
 1013SOL    HW1 3095   4.769   4.633   1.230  0.4267  1.7858  2.0006
 1013SOL    HW2 3096   4.675   4.563   1.326 -1.3986  1.8209  0.3219
 1014SOL     OW 3097   1.775   2.999   0.575  0.4388  0.5390  0.9337
 1014SOL    HW1 3098   1.690   3.002   0.533  1.3204 -0.1438 -1.0392
 1014SOL    HW2 3099   1.779   3.079   0.628 -1.6635  0.2239  1.6426
 1015SOL     OW 3100   2.118   0.115   1.338  0.6248  0.3571  0.1834
 1015SOL    HW1 3101   2.067   0.034   1.330  1.1620  0.1487 -1.5790
 1015SOL    HW2 3102   2.100   0.146   1.426  0.1160 -1.4963  0.7776
 1016SOL     OW 3103   3.551   0.241   0.888 -0.1536  0.3941  0.2516
 1016SOL    HW1 3104   3.570   0.199   0.804 -2.0670  1.6382 -0.8897
 1016SOL    HW2 3105   3.604   0.321   0.887  2.1246 -0.9698  1.6451
 1017SOL     OW 3106   1.015   2.845   2.102 -0.2881  0.8237  0.7010
 1017SOL    HW1 3107   0.960   2.918   2.130 -0.8815  0.7925 -0.3029
 1017SOL    HW2 3108   1.089   2.887   2.059 -0.1104  0.8498  1.0325
 1018SOL     OW 3109   1.133   1.790   1.051 -0.3712  0.6655  0.6846
 1018SOL    HW1 3110   1.192   1.722   1.084 -0.6918  0.6361  1.2011
 1018SOL    HW2 3111   1.080   1.746   0.985 -0.2163  0.5465  0.6379
 1019SOL     OW 3112   4.821   3.181   1.737  0.1283  0.2974 -0.3504
 1019SOL    HW1 3113   4.740   3.129   1.739  0.4021 -0.1157  0.8805
 1019SOL    HW2 3114   4.888   3.118   1.709  0.4484 -0.0289  1.0744
 1020SOL     OW 3115   2.600   3.942   1.738  0.3750 -0.2082 -0.1376
 1020SOL    HW1 3116   2.564   3.863   1.698  1.4403 -0.2435 -1.0711
 1020SOL    HW2 3117   2.526   3.983   1.781 -0.4170 -1.1515 -0.5672
 1021SOL     OW 3118   2.563   4.919   3.751  0.0866 -0.2292  0.1084
 1021SOL    HW1 3119   2.518   4.961   3.825  0.4109  0.3053  0.0112
 1021SOL    HW2 3120   2.655   4.915   3.779 -0.0815 -1.7158  0.4910
 1022SOL     OW 3121   1.620   0.191   2.682 -0.1564  0.1184  0.6247
 1022SOL    HW1 3122   1.652   0.199   2.772 -0.5585  0.8478  0.7117
 1022SOL    HW2 3123   1.699   0.180   2.629  0.1124  0.1100  1.0294
 1023SOL     OW 3124   3.939   1.699   4.346  0.2834  0.4054 -0.4126
 1023SOL    HW1 3125   4.016   1.692   4.290 -0.1657  0.2177 -1.0231
 1023SOL    HW2 3126   3.870   1.732   4.288  0.0315  1.0798  0.2488
 1024SOL     OW 3127   2.475   2.389   3.589  0.1304  0.3169  0.0503
 1024SOL    HW1 3128   2.559   2.354   3.560  0.8093  0.9751  1.1324
 1024SOL    HW2 3129   2.495   2.431   3.673 -1.0108  1.6408 -0.3090
 1025SOL     OW 3130   0.634   1.045   4.332 -0.2223 -0.3270  0.1118
 1025SOL    HW1 3131   0.565   1.101   4.367 -0.6181 -0.6327 -0.1847
 1025SOL    HW2 3132   0.590   0.984   4.273  0.5630  0.9337 -1.9055
 1026SOL     OW 3133   3.020   3.910   2.641  0.1525 -0.0022 -0.1373
 1026SOL    HW1 3134   3.027   3.886   2.734 -0.2804 -0.7845 -0.2975
 1026SOL    HW2 3135   2.940   3.963   2.636  0.0428 -0.1643 -0.1036
 1027SOL     OW 3136   1.757   3.719   1.420 -0.4015 -0.6714 -0.0097
 1027SOL    HW1 3137   1.826   3.784   1.432 -1.1236  0.2914 -0.9126
 1027SOL    HW2 3138   1.804   3.638   1.401  0.5179 -0.4810  1.3192
 1028SOL     OW 3139   2.394   0.047   3.935  0.2661 -0.0687  0.1077
 1028SOL    HW1 3140   2.415   0.062   4.027 -3.6345  1.9295  0.8868
 1028SOL    HW2 3141   2.345   0.124   3.908  0.3603 -1.0432 -3.3967
 1029SOL     OW 3142   4.400   3.624   2.765  0.5467 -0.1078  0.0193
 1029SOL    HW1 3143   4.477   3.576   2.734  2.0075  1.0126  1.7560
 1029SOL    HW2 3144   4.372   3.576   2.842 -0.6440 -0.5997 -0.6903
 1030SOL     OW 3145   1.674   3.732   2.257 -0.4189 -0.3953 -0.5762
 1030SOL    HW1 3146   1.586   3.744   2.292 -0.7494 -3.1013 -0.2476
 1030SOL    HW2 3147   1.661   3.685   2.174  0.6624  0.7229 -1.4168
 1031SOL     OW 3148   2.748   0.808   1.241 -0.0519  0.2070  0.8371
 1031SOL    HW1 3149   2.789   0.808   1.155 -2.2622  1.1626 -0.2993
 1031SOL    HW2 3150   2.745   0.715   1.266 -0.0958 -0.1710 -0.5072
 1032SOL     OW 3151   1.869   4.461   3.540 -0.0337 -0.3371  0.0429
 1032SOL    HW1 3152   1.890   4.415   3.622  2.2647  1.0553  0.3180
 1032SOL    HW2 3153   1.904   4.404   3.471  1.0827  0.0348  0.2742
 1033SOL     OW 3154   4.938   1.232   0.777 -0.1030  0.2094 -0.3248
 1033SOL    HW1 3155   4.964   1.179   0.701  0.9995  0.6289 -0.2621
 1033SOL    HW2 3156   4.880   1.175   0.828  1.7772 -1.3010  0.2186
 1034SOL     OW 3157   3.345   2.180   4.643  0.3513  0.0419  0.3331
 1034SOL    HW1 3158   3.334   2.099   4.593 -2.5793 -0.0048  0.9165
 1034SOL    HW2 3159   3.358   2.248   4.577 -1.3091 -0.3297 -0.4065
 1035SOL     OW 3160   3.073   1.958   4.667 -0.2062  0.3697  0.2964
 1035SOL    HW1 3161   3.109   2.011   4.737 -1.3788  0.3826  0.9118
 1035SOL    HW2 3162   2.999   1.912   4.706 -0.0298 -0.7106 -0.5671
 1036SOL     OW 3163   0.688   3.222   0.811 -0.4134 -0.3233 -0.2375
 1036SOL    HW1 3164   0.641   3.298   0.846  0.4591  0.7114 -1.2143
 1036SOL    HW2 3165   0.627   3.149   0.820 -0.6123  0.0493  2.4994
 1037SOL     OW 3166   2.050   1.185   4.078  0.3270  0.4095  0.1720
 1037SOL    HW1 3167   2.139   1.217   4.089  0.3957  0.4549 -0.4818
 1037SOL    HW2 3168   2.046   1.106   4.132  0.7718  0.3857  0.1722
 1038SOL     OW 3169   2.079   3.534   3.350  0.4454 -0.4144  0.1962
 1038SOL    HW1 3170   2.144   3.577   3.406  0.0850  0.1052  0.2229
 1038SOL    HW2 3171   2.112   3.545   3.261 -0.5264  1.5558  0.0163
 1039SOL     OW 3172   2.327   1.886   0.177  0.4042 -0.3124  0.2632
 1039SOL    HW1 3173   2.389   1.838   0.122  0.1070 -0.0063 -0.3369
 1039SOL    HW2 3174   2.241   1.855   0.149  0.2524 -0.2024  0.6022
 1040SOL     OW 3175   3.734   0.950   2.453  0.5255 -0.6610 -0.4863
 1040SOL    HW1 3176   3.712   0.857   2.449  3.6309 -1.4919 -0.7757
 1040SOL    HW2 3177   3.786   0.959   2.533 -0.7534  1.1155  0.1947
 1041SOL     OW 3178   4.609   3.468   2.643 -0.2374  0.2900  0.0041
 1041SOL    HW1 3179   4.587   3.403   2.577 -3.1146 -0.0235  1.1349
 1041SOL    HW2 3180   4.685   3.514   2.606 -0.5081 -1.1232 -2.5867
 1042SOL     OW 3181   0.328   2.710   0.930  0.5134  0.0734 -0.1281
 1042SOL    HW1 3182   0.282   2.768   0.990  0.1034 -0.4887  0.1108
 1042SOL    HW2 3183   0.395   2.667   0.983  2.4275  2.0442 -0.7967
 1043SOL     OW 3184   1.523   0.514   3.728 -0.3201  0.6339 -0.4189
 1043SOL    HW1 3185   1.452   0.551   3.780 -1.7556 -1.8325 -0.4334
 1043SOL    HW2 3186   1.496   0.527   3.637 -0.7453 -0.2209 -0.4255
 1044SOL     OW 3187   2.959   0.997   4.393  0.2171  0.1863 -0.3733
 1044SOL    HW1 3188   2.917   0.969   4.474  0.6266 -1.8949 -0.8325
 1044SOL    HW2 3189   2.987   0.916   4.351  4.3856  1.3579 -0.3037
 1045SOL     OW 3190   1.994   0.373   2.635 -0.1930  0.2446  0.3599
 1045SOL    HW1 3191   1.974   0.400   2.725 -1.9679 -0.1997  0.1228
 1045SOL    HW2 3192   1.981   0.451   2.583  0.4520  0.3983  0.4120
 1046SOL     OW 3193   1.681   3.968   2.387  0.7401 -0.1422  0.5018
 1046SOL    HW1 3194   1.700   3.887   2.340  1.1363  0.0472  0.3317
 1046SOL    HW2 3195   1.677   4.035   2.319 -0.4565 -0.1583  0.5429
 1047SOL     OW 3196   4.062   4.757   0.344  0.2998  0.4200 -0.0054
 1047SOL    HW1 3197   3.988   4.700   0.364 -1.8319  2.7144 -0.7371
 1047SOL    HW2 3198   4.115   4.708   0.282 -1.4227 -0.7613 -0.6148
 1048SOL     OW 3199   4.465   0.486   1.395  0.1272  0.1501  0.2005
 1048SOL    HW1 3200   4.542   0.499   1.340  1.1519  1.0716  1.7645
 1048SOL    HW2 3201   4.443   0.574   1.426 -0.6132 -0.3021  1.0029
 1049SOL     OW 3202  -0.016   1.901   0.724  0.5301 -0.6007 -0.9632
 1049SOL    HW1 3203   0.024   1.820   0.755  2.9641  0.5086 -1.0218
 1049SOL    HW2 3204   0.052   1.968   0.735 -0.9702  1.2176 -2.0672
 1050SOL     OW 3205   0.835   1.695   2.764 -0.0035 -0.4229 -0.5317
 1050SOL    HW1 3206   0.761   1.703   2.825  0.5620 -0.8283  0.2312
 1050SOL    HW2 3207   0.851   1.601   2.757 -0.1601 -0.3889 -1.4442
 1051SOL     OW 3208   3.384   1.001   2.008  0.3321  0.3679 -0.1752
 1051SOL    HW1 3209   3.345   1.087   2.023  1.2317  0.6967  0.3941
 1051SOL    HW2 3210   3.341   0.944   2.070  0.1672  0.5447 -0.1261
 1052SOL     OW 3211   3.871   2.590   4.815  0.7811 -0.1161 -0.2419
 1052SOL    HW1 3212   3.825   2.673   4.799  0.8925 -0.2207 -1.1329
 1052SOL    HW2 3213   3.959   2.617   4.841  0.9793  0.0475 -1.0499
 1053SOL     OW 3214   2.214   4.884   3.071 -0.1138 -0.0184  0.1623
 1053SOL    HW1 3215   2.303   4.891   3.104 -0.2001  1.4773  0.1466
 1053SOL    HW2 3216   2.212   4.939   2.993 -0.8943 -0.5444 -0.2099
 1054SOL     OW 3217   4.144   4.231   3.316 -0.1563 -0.0249 -0.2443
 1054SOL    HW1 3218   4.107   4.251   3.229  2.2427  1.4548 -1.0389
 1054SOL    HW2 3219   4.207   4.161   3.299 -1.0991 -1.1459  0.7259
 1055SOL     OW 3220   0.557   4.678   1.995 -0.5054  0.0858 -0.2454
 1055SOL    HW1 3221   0.513   4.759   2.020  1.6168  1.1181  0.3888
 1055SOL    HW2 3222   0.634   4.674   2.052 -0.0530 -1.9027 -0.9193
 1056SOL     OW 3223   1.959   2.094   2.859 -0.1110  0.5443 -0.2818
 1056SOL    HW1 3224   1.971   2.150   2.782 -0.7080 -1.3627 -1.8338
 1056SOL    HW2 3225   2.007   2.013   2.838 -2.5677 -1.1028  0.0892
 1057SOL     OW 3226   1.514   2.570   2.453 -0.0327  0.2176  0.2076
 1057SOL    HW1 3227   1.598   2.538   2.421 -0.2452  1.1994 -1.5063
 1057SOL    HW2 3228   1.513   2.549   2.546  1.6897 -0.6684  0.0588
 1058SOL     OW 3229   0.614   4.409   4.560 -0.1628  0.2364 -0.2611
 1058SOL    HW1 3230   0.582   4.471   4.626 -1.2630 -1.1119  0.5243
 1058SOL    HW2 3231   0.706   4.433   4.548 -0.6765  2.3529 -0.4021
 1059SOL     OW 3232   0.369   3.374   2.827 -0.1311 -0.3257 -0.1028
 1059SOL    HW1 3233   0.341   3.359   2.736  1.2582  0.7881 -0.7405
 1059SOL    HW2 3234   0.406   3.290   2.854  1.9626  0.0425 -1.5538
 1060SOL     OW 3235   1.969   0.364   3.344  0.0650  0.0157  0.0417
 1060SOL    HW1 3236   1.887   0.352   3.391  0.0737 -0.4903 -0.0591
 1060SOL    HW2 3237   2.021   0.286   3.366  1.0693  0.9797  1.2187
 1061SOL     OW 3238   2.517   2.868   0.078  0.4838 -0.2816  0.2674
 1061SOL    HW1 3239   2.532   2.915   0.160 -0.5553 -1.7097  1.3334
 1061SOL    HW2 3240   2.468   2.790   0.104 -0.0701 -0.6634 -1.7584
 1062SOL     OW 3241   2.169   1.918   0.899  0.7217 -0.1657  0.1846
 1062SOL    HW1 3242   2.190   2.006   0.932 -0.4165  0.3286 -0.3706
 1062SOL    HW2 3243   2.169   1.863   0.977  0.0669  0.6017  0.7350
 1063SOL     OW 3244   3.624   1.807   4.432 -0.3988 -0.7760 -0.1308
 1063SOL    HW1 3245   3.618   1.739   4.365 -1.2383 -1.5404  0.6938
 1063SOL    HW2 3246   3.675   1.877   4.391  0.0468 -1.6851 -1.1733
 1064SOL     OW 3247   1.276   2.805   0.960 -0.0598  0.1799  0.1332
 1064SOL    HW1 3248   1.311   2.719   0.980 -3.0172 -1.2963 -0.5163
 1064SOL    HW2 3249   1.302   2.860   1.034 -0.1455 -1.8925  1.7758
 1065SOL     OW 3250   3.979   1.948   0.604 -0.3092 -0.0158  0.5088
 1065SOL    HW1 3251   3.975   2.029   0.553  0.7674 -0.1261  0.2078
 1065SOL    HW2 3252   4.025   1.887   0.547  0.6348 -0.2395  1.4744
 1066SOL     OW 3253   0.816   1.722   4.538  0.4937 -0.4661 -0.0914
 1066SOL    HW1 3254   0.795   1.674   4.618  0.4560  2.0433  1.5207
 1066SOL    HW2 3255   0.789   1.664   4.467  0.3375 -2.7085  1.6972
 1067SOL     OW 3256   0.201   1.197   2.127  0.3371 -0.7732 -0.2354
 1067SOL    HW1 3257   0.166   1.271   2.077 -0.1715  0.1885  1.4622
 1067SOL    HW2 3258   0.296   1.212   2.127  0.2410 -0.1251  0.0706
 1068SOL     OW 3259   4.134   1.718   1.774 -0.0405 -0.4564 -0.2157
 1068SOL    HW1 3260   4.153   1.686   1.863 -1.4369 -0.4181  0.1069
 1068SOL    HW2 3261   4.129   1.638   1.721 -2.2551 -0.7439  0.3465
 1069SOL     OW 3262   2.221   2.066   3.884 -0.2290 -0.5267 -0.4777
 1069SOL    HW1 3263   2.180   1.983   3.909  1.9245 -1.3901  0.3975
 1069SOL    HW2 3264   2.304   2.041   3.844  0.5558  1.2075 -0.0255
 1070SOL     OW 3265   3.330   2.203   3.995 -0.2106  0.4706 -0.3161
 1070SOL    HW1 3266   3.330   2.197   4.091 -1.6394 -0.8280 -0.3478
 1070SOL    HW2 3267   3.379   2.125   3.967 -0.1385  0.6344 -0.6439
 1071SOL     OW 3268   3.127   3.573   1.444  0.0819 -0.3416  1.1525
 1071SOL    HW1 3269   3.186   3.647   1.458  0.4282  0.7635 -4.0740
 1071SOL    HW2 3270   3.039   3.611   1.451  0.2171  0.1230  0.3674
 1072SOL     OW 3271   3.725   0.672   0.531  0.2029  0.4193  0.4516
 1072SOL    HW1 3272   3.688   0.755   0.502 -0.0291 -0.0868 -0.7381
 1072SOL    HW2 3273   3.690   0.660   0.620 -0.1929  1.3215  0.4276
 1073SOL     OW 3274   1.098   2.569   2.313  0.0622  0.0650 -0.1281
 1073SOL    HW1 3275   1.081   2.517   2.391  0.4161 -0.3901 -0.3491
 1073SOL    HW2 3276   1.011   2.597   2.283 -0.0501  0.5906  0.6554
 1074SOL     OW 3277   1.933   4.105   1.603  0.4323 -0.4247  0.3302
 1074SOL    HW1 3278   1.873   4.079   1.533  0.7603  0.0049 -0.1197
 1074SOL    HW2 3279   1.935   4.030   1.662 -1.7462  0.1247  1.1695
 1075SOL     OW 3280   4.043   2.581   2.721 -0.1686 -0.0907 -0.1045
 1075SOL    HW1 3281   3.960   2.624   2.699 -0.9053 -1.8638 -0.9193
 1075SOL    HW2 3282   4.085   2.565   2.637 -0.5988 -2.2528  0.0467
 1076SOL     OW 3283   0.858   2.353   4.628 -0.0367  1.0596 -0.4581
 1076SOL    HW1 3284   0.857   2.259   4.612 -1.5302  1.1342 -1.0186
 1076SOL    HW2 3285   0.942   2.383   4.593  1.0415 -0.2300  0.9208
 1077SOL     OW 3286   1.445   1.385   0.351 -0.1967  0.6806 -0.3631
 1077SOL    HW1 3287   1.477   1.475   0.357 -0.0616  0.6407 -0.4740
 1077SOL    HW2 3288   1.460   1.349   0.439 -1.3216  1.1131  0.0341
 1078SOL     OW 3289   2.841   4.245   2.202  0.2472  0.1671  0.4218
 1078SOL    HW1 3290   2.911   4.221   2.262 -0.4863 -0.5590  1.0182
 1078SOL    HW2 3291   2.882   4.245   2.116  1.7276  2.8193  1.0104
 1079SOL     OW 3292   3.789   3.976   4.285 -0.2869  0.4339 -0.8108
 1079SOL    HW1 3293   3.848   4.017   4.222  0.4246 -1.8420 -1.7323
 1079SOL    HW2 3294   3.806   3.882   4.276 -2.6154 -0.1760  0.3632
 1080SOL     OW 3295   3.562   4.839   2.258 -0.0935 -0.1037 -0.6541
 1080SOL    HW1 3296   3.623   4.820   2.186  0.6433 -1.9749  0.3950
 1080SOL    HW2 3297   3.540   4.754   2.294 -0.3913  0.7694  1.3832
 1081SOL     OW 3298   4.681   1.305   2.630 -0.2093 -0.5452  0.1857
 1081SOL    HW1 3299   4.611   1.345   2.578 -0.6388 -0.6433  0.6936
 1081SOL    HW2 3300   4.645   1.298   2.718  0.3018 -0.9527  0.3624
 1082SOL     OW 3301   0.034   4.424   1.182  0.3020  0.2515  0.9127
 1082SOL    HW1 3302  -0.021   4.375   1.243  1.8474  0.7014  2.7617
 1082SOL    HW2 3303   0.021   4.515   1.206  0.2785  0.5203 -0.0541
 1083SOL     OW 3304   4.172   2.350   1.336 -0.4887  0.3400  1.0286
 1083SOL    HW1 3305   4.221   2.356   1.418  0.4100  1.1274  0.4645
 1083SOL    HW2 3306   4.147   2.441   1.317 -0.6436  0.1728  0.4105
 1084SOL     OW 3307   0.435   3.652   2.860 -0.3220 -0.0744  0.0375
 1084SOL    HW1 3308   0.357   3.688   2.902 -0.2742 -0.6042  0.5852
 1084SOL    HW2 3309   0.411   3.563   2.837  0.6503 -0.7972  1.6910
 1085SOL     OW 3310   3.614   1.602   2.756 -0.4244 -0.0210  0.4088
 1085SOL    HW1 3311   3.599   1.591   2.850 -0.3761 -0.6419  0.3461
 1085SOL    HW2 3312   3.539   1.560   2.714 -0.2692 -0.0540  0.1630
 1086SOL     OW 3313   1.170   2.948   1.899  0.2823 -0.0771  0.5648
 1086SOL    HW1 3314   1.087   2.927   1.855  0.5972 -2.0371  0.8097
 1086SOL    HW2 3315   1.222   2.992   1.832 -0.6059  0.3281  0.1225
 1087SOL     OW 3316   3.538   1.008   4.264 -0.0711  0.4339  0.4492
 1087SOL    HW1 3317   3.590   0.928   4.257 -0.6817  0.0218  0.4869
 1087SOL    HW2 3318   3.597   1.073   4.301  1.3630  0.8452 -2.3155
 1088SOL     OW 3319   0.167   4.750   4.137  0.2001  0.1544  0.2812
 1088SOL    HW1 3320   0.132   4.707   4.060  0.0685  1.0921 -0.2016
 1088SOL    HW2 3321   0.189   4.679   4.197 -1.0483 -0.5255 -0.0337
 1089SOL     OW 3322   4.597   4.129   1.825 -0.5883  0.1600 -0.6616
 1089SOL    HW1 3323   4.656   4.058   1.850  1.0352  1.6165 -0.1797
 1089SOL    HW2 3324   4.557   4.100   1.744 -1.0785 -1.9116  0.2709
 1090SOL     OW 3325   0.486   2.736   4.719 -0.3727  0.1892  0.2209
 1090SOL    HW1 3326   0.409   2.706   4.671  1.3021 -0.5671 -2.1916
 1090SOL    HW2 3327   0.549   2.665   4.712  1.1324  1.4048  0.6843
 1091SOL     OW 3328   3.324   2.399   2.270  0.3219  0.0406 -0.5210
 1091SOL    HW1 3329   3.309   2.477   2.216  2.9336 -0.7809 -2.6476
 1091SOL    HW2 3330   3.407   2.363   2.238  0.6409 -2.0839  2.2733
 1092SOL     OW 3331   1.860   4.719   0.919 -0.0817  0.5441 -0.5627
 1092SOL    HW1 3332   1.873   4.689   0.829  0.0519 -1.9411  0.1900
 1092SOL    HW2 3333   1.929   4.675   0.969 -1.6027 -0.1055  1.0874
 1093SOL     OW 3334   1.839   2.555   4.908 -0.6714 -0.4246 -0.0647
 1093SOL    HW1 3335   1.851   2.643   4.944 -0.6139 -1.0312  1.4844
 1093SOL    HW2 3336   1.898   2.500   4.959 -1.6791 -1.5816 -0.0960
 1094SOL     OW 3337   4.222   4.083   0.373  0.3706  0.6534  0.0718
 1094SOL    HW1 3338   4.275   4.131   0.309  0.1509  0.4883 -0.2364
 1094SOL    HW2 3339   4.192   4.005   0.325  1.0529 -0.0066  0.6809
 1095SOL     OW 3340   3.054   2.097   4.022  0.4444 -0.0836  0.1753
 1095SOL    HW1 3341   3.085   2.087   4.112 -0.5261 -0.4085  0.4891
 1095SOL    HW2 3342   3.100   2.173   3.989 -0.7597  1.3619  1.6636
 1096SOL     OW 3343   4.069   4.588   3.727 -0.4433  0.9221  1.0923
 1096SOL    HW1 3344   4.097   4.568   3.816 -0.7110 -1.2980  0.7455
 1096SOL    HW2 3345   4.131   4.541   3.671 -1.9189 -0.0873  0.2219
 1097SOL     OW 3346   4.463   0.957   0.228  0.0012  0.2958  0.3542
 1097SOL    HW1 3347   4.520   1.033   0.214 -0.6889  0.5627 -1.1929
 1097SOL    HW2 3348   4.388   0.973   0.171 -0.2073 -1.4983  0.0846
 1098SOL     OW 3349   1.791   2.918   4.018  0.3126 -0.6995  0.3151
 1098SOL    HW1 3350   1.749   2.958   4.094 -2.1705 -0.7657 -0.9415
 1098SOL    HW2 3351   1.830   2.837   4.051  0.1809 -0.2251  1.6896
 1099SOL     OW 3352   4.242   3.867   1.193  0.0060  0.3460 -0.7479
 1099SOL    HW1 3353   4.238   3.889   1.100 -2.1724 -0.1958 -0.8288
 1099SOL    HW2 3354   4.151   3.869   1.223  0.3862 -1.7555  0.8241
 1100SOL     OW 3355   1.479   1.917   1.622  0.5543 -0.2274 -0.2599
 1100SOL    HW1 3356   1.464   1.993   1.678 -0.0555  0.4430 -1.2818
 1100SOL    HW2 3357   1.392   1.888   1.597  0.8020 -0.0819 -1.3842
 1101SOL     OW 3358   3.661   0.801   0.779  0.0106  0.7174 -0.4197
 1101SOL    HW1 3359   3.603   0.731   0.809 -1.5806  2.3913  0.6891
 1101SOL    HW2 3360   3.614   0.882   0.801  1.4535  2.1511 -2.2302
 1102SOL     OW 3361   3.442   2.603   0.598  0.2860  0.1387 -0.0252
 1102SOL    HW1 3362   3.385   2.668   0.556  0.3875  0.5449  0.4611
 1102SOL    HW2 3363   3.382   2.543   0.642  0.0661 -1.3177 -2.1391
 1103SOL     OW 3364   0.244   0.265   0.094  0.1921  0.2768  0.4879
 1103SOL    HW1 3365   0.316   0.204   0.105 -1.0630 -1.1158  1.3556
 1103SOL    HW2 3366   0.215   0.284   0.183  0.9795  2.7339  0.2869
 1104SOL     OW 3367   1.888   3.484   1.389 -0.4281 -0.1273 -0.7674
 1104SOL    HW1 3368   1.933   3.485   1.304 -0.4298  0.3871 -0.7619
 1104SOL    HW2 3369   1.855   3.395   1.397 -1.8966  0.2622 -2.0689
 1105SOL     OW 3370   1.220   0.097   3.553 -0.1632  0.4609  0.0787
 1105SOL    HW1 3371   1.138   0.113   3.506 -0.5349  0.4020  0.7051
 1105SOL    HW2 3372   1.232   0.175   3.608  0.0294  0.3216  0.2357
 1106SOL     OW 3373   4.840   1.228   4.241 -0.2746 -0.1464  0.2387
 1106SOL    HW1 3374   4.778   1.170   4.285  0.7836 -0.1001  1.8311
 1106SOL    HW2 3375   4.818   1.315   4.274  0.5778 -0.1220  0.7558
 1107SOL     OW 3376   3.424   3.623   0.120  0.4002 -0.2942  0.2539
 1107SOL    HW1 3377   3.473   3.582   0.049 -0.6388  0.8293 -1.1728
 1107SOL    HW2 3378   3.482   3.690   0.154  0.7436 -0.5507  0.1754
 1108SOL     OW 3379   2.852   1.507   4.924 -0.5499 -0.4168  0.0891
 1108SOL    HW1 3380   2.765   1.468   4.929 -1.8372  2.2229 -0.1114
 1108SOL    HW2 3381   2.859   1.562   5.003  0.1040  0.9346 -0.8675
 1109SOL     OW 3382   3.641   3.959   4.512  0.0129 -0.1550  0.3286
 1109SOL    HW1 3383   3.711   3.980   4.450  0.0177 -0.1597  0.3323
 1109SOL    HW2 3384   3.564   4.004   4.477 -0.0465 -0.3723  0.1780
 1110SOL     OW 3385   0.128   2.073   4.225  0.2089 -0.0573  0.3124
 1110SOL    HW1 3386   0.144   1.978   4.224  0.2851 -0.0499 -1.6255
 1110SOL    HW2 3387   0.033   2.081   4.229  0.1568 -0.2434 -0.3738
 1111SOL     OW 3388   4.315   2.233   0.944  0.2377 -0.3751 -0.1364
 1111SOL    HW1 3389   4.319   2.328   0.947 -0.3188 -0.3538 -0.1529
 1111SOL    HW2 3390   4.320   2.211   0.851  1.4222 -0.4101 -0.0798
 1112SOL     OW 3391   4.716   2.941   1.919  0.2567 -0.2272 -0.6138
 1112SOL    HW1 3392   4.664   2.862   1.908 -0.8235  0.6288 -2.0764
 1112SOL    HW2 3393   4.800   2.911   1.953 -0.9413 -1.7321  1.2166
 1113SOL     OW 3394   4.277   0.291   2.309  0.8978 -0.3682  0.3762
 1113SOL    HW1 3395   4.245   0.380   2.322  0.2358 -0.7170  1.2700
 1113SOL    HW2 3396   4.372   0.298   2.309  0.8469  0.3379  0.4264
 1114SOL     OW 3397   3.459   2.010   4.862 -0.4736  0.4842 -0.6144
 1114SOL    HW1 3398   3.531   1.963   4.820  0.0468 -0.5967  1.3439
 1114SOL    HW2 3399   3.417   2.058   4.791  1.3174  0.0450 -2.0521
 1115SOL     OW 3400   2.401   3.181   1.252  0.4437  0.2028  0.3455
 1115SOL    HW1 3401   2.459   3.248   1.288 -0.0936  2.1151 -2.0905
 1115SOL    HW2 3402   2.313   3.210   1.275  0.2549 -0.7125  0.8510
 1116SOL     OW 3403   2.139   4.685   0.254  0.1765 -0.0910  0.1198
 1116SOL    HW1 3404   2.122   4.739   0.176 -0.5866 -1.8060 -0.9733
 1116SOL    HW2 3405   2.057   4.688   0.303 -0.0806 -0.7499 -0.2656
 1117SOL     OW 3406   1.760   0.648   3.964 -0.3961 -0.2740  0.2325
 1117SOL    HW1 3407   1.792   0.722   3.913  0.9825 -0.6136  0.5644
 1117SOL    HW2 3408   1.699   0.686   4.027  0.7267  0.6799  0.7836
 1118SOL     OW 3409   1.960   3.154   0.837 -0.3693  0.7168  0.3663
 1118SOL    HW1 3410   1.912   3.203   0.770  2.1192  2.4588 -0.2972
 1118SOL    HW2 3411   2.015   3.093   0.787 -0.0007  0.5745  0.9435
 1119SOL     OW 3412   0.932   3.120   3.843 -0.3360 -0.3760  0.4134
 1119SOL    HW1 3413   0.855   3.165   3.808 -0.0173 -0.7024 -0.7717
 1119SOL    HW2 3414   0.898   3.036   3.873 -0.4756 -0.4666  0.0173
 1120SOL     OW 3415   1.248   0.418   1.621  0.2795 -0.1771 -0.0106
 1120SOL    HW1 3416   1.288   0.493   1.666  1.4259 -0.2254 -0.9040
 1120SOL    HW2 3417   1.190   0.379   1.687 -1.0028  1.9544  0.2312
 1121SOL     OW 3418   3.700   3.293   3.353  0.1717  0.3246 -0.0175
 1121SOL    HW1 3419   3.661   3.256   3.433  0.8110  0.5145  0.3901
 1121SOL    HW2 3420   3.625   3.328   3.304 -0.3347 -0.6084  0.0539
 1122SOL     OW 3421   0.415   4.688   3.478  0.9821 -0.3225 -0.4965
 1122SOL    HW1 3422   0.383   4.688   3.568  0.0780 -0.7162 -0.8102
 1122SOL    HW2 3423   0.371   4.614   3.437 -2.0336  2.2497 -2.4321
 1123SOL     OW 3424   1.740   3.811   0.781  0.1933 -0.2286 -0.5997
 1123SOL    HW1 3425   1.666   3.755   0.756 -0.4201  0.5135 -0.4655
 1123SOL    HW2 3426   1.767   3.853   0.699 -0.1432  0.2166 -0.4857
 1124SOL     OW 3427   1.294   4.002   4.268 -0.1915  0.1087  0.1482
 1124SOL    HW1 3428   1.355   3.961   4.206 -0.8114 -0.7945  0.1000
 1124SOL    HW2 3429   1.259   4.078   4.221 -0.7816 -0.6639 -0.7018
 1125SOL     OW 3430   3.193   2.441   3.546  0.0147 -0.0073 -0.1336
 1125SOL    HW1 3431   3.147   2.365   3.512 -0.4172  0.0309  0.3514
 1125SOL    HW2 3432   3.245   2.407   3.620  1.3165 -0.1817 -1.0901
 1126SOL     OW 3433   4.382   3.391   3.717  0.1367  0.4167  0.2192
 1126SOL    HW1 3434   4.320   3.338   3.667 -0.3315 -1.1989  2.3632
 1126SOL    HW2 3435   4.467   3.372   3.678 -0.3166 -0.0932 -0.5290
 1127SOL     OW 3436   2.215   3.553   4.116 -0.0077 -0.0601  0.0077
 1127SOL    HW1 3437   2.232   3.625   4.055  1.7734  0.2079  0.7512
 1127SOL    HW2 3438   2.156   3.591   4.181  1.1374  0.8639  0.5504
 1128SOL     OW 3439   0.967   4.519   2.346  0.4446  0.4028 -0.4967
 1128SOL    HW1 3440   1.055   4.556   2.339 -0.2903  2.0705 -1.5785
 1128SOL    HW2 3441   0.961   4.457   2.273  0.7685  0.1412 -0.3050
 1129SOL     OW 3442   4.229   3.502   2.538 -0.0352 -0.0042  0.6362
 1129SOL    HW1 3443   4.188   3.430   2.586 -0.3015  0.3015  0.8669
 1129SOL    HW2 3444   4.295   3.536   2.599  0.2493 -0.1931  0.4416
 1130SOL     OW 3445   1.595   4.706   2.396 -0.1768 -0.3281  0.1204
 1130SOL    HW1 3446   1.629   4.755   2.471  0.1649  0.7694 -0.7142
 1130SOL    HW2 3447   1.607   4.614   2.419  0.0888 -0.0080  1.3243
 1131SOL     OW 3448   2.826   2.670   2.273  0.0156 -0.7459 -0.2037
 1131SOL    HW1 3449   2.909   2.708   2.300  1.1562 -1.7272 -2.0720
 1131SOL    HW2 3450   2.761   2.736   2.293  1.3251  0.2861  0.7810
 1132SOL     OW 3451   2.776   2.233   1.201  0.4047 -0.3535 -0.2873
 1132SOL    HW1 3452   2.682   2.251   1.201  0.5027  0.1571 -0.0388
 1132SOL    HW2 3453   2.800   2.227   1.293  0.7356  0.1418 -0.3365
 1133SOL     OW 3454   1.433   1.815   1.953  0.2906  0.4181 -0.3228
 1133SOL    HW1 3455   1.403   1.818   1.862 -2.4387  1.0308  0.4900
 1133SOL    HW2 3456   1.371   1.871   2.000  2.1683  0.8611  1.8019
 1134SOL     OW 3457   2.635   0.857   3.442 -0.2354  0.1638  0.1427
 1134SOL    HW1 3458   2.683   0.857   3.360  0.4041 -0.8916  0.5022
 1134SOL    HW2 3459   2.547   0.887   3.418  0.4825  1.8449 -0.5663
 1135SOL     OW 3460   3.586   3.820   0.456  0.2461  0.0053 -0.1947
 1135SOL    HW1 3461   3.570   3.823   0.362  0.0239 -1.0788 -0.1997
 1135SOL    HW2 3462   3.662   3.763   0.466  2.3535  2.6361  0.0758
 1136SOL     OW 3463   2.615   4.029   0.272 -0.2073  0.7567  0.1498
 1136SOL    HW1 3464   2.601   3.968   0.200 -2.1616  1.1049  0.1883
 1136SOL    HW2 3465   2.559   4.104   0.251  0.6518  1.6949  1.0866
 1137SOL     OW 3466   3.737   3.755   2.918 -0.3138 -0.0542 -0.3441
 1137SOL    HW1 3467   3.693   3.699   2.853 -1.9117  1.7991 -0.9696
 1137SOL    HW2 3468   3.676   3.759   2.991 -0.4820  1.2597 -0.5343
 1138SOL     OW 3469   3.537   1.243   0.311  0.6591 -0.4596 -0.1247
 1138SOL    HW1 3470   3.505   1.193   0.386 -0.1128  1.4438  0.8809
 1138SOL    HW2 3471   3.629   1.261   0.332 -0.2855  2.7223  2.0368
 1139SOL     OW 3472   3.225   2.509   4.781 -0.1499 -0.1986  0.0754
 1139SOL    HW1 3473   3.220   2.559   4.862  1.1319 -0.2134  0.1793
 1139SOL    HW2 3474   3.312   2.469   4.782 -0.6525 -1.3708 -0.6260
 1140SOL     OW 3475   0.304   1.402   2.790 -0.5125 -0.0966 -0.2095
 1140SOL    HW1 3476   0.244   1.435   2.856  0.4786 -0.8002  1.0907
 1140SOL    HW2 3477   0.379   1.461   2.794  0.0823 -0.8639  0.1897
 1141SOL     OW 3478   4.414   2.717   1.367  0.0565 -0.1376  0.3929
 1141SOL    HW1 3479   4.466   2.796   1.382 -1.5699  1.3197 -1.0592
 1141SOL    HW2 3480   4.352   2.716   1.440  0.2267 -0.1942  0.5365
 1142SOL     OW 3481   1.048   0.100   1.517  0.4116 -0.3619  0.2783
 1142SOL    HW1 3482   0.969   0.047   1.522 -1.7122  2.5165 -0.5807
 1142SOL    HW2 3483   1.044   0.141   1.431  2.2321  0.7832  0.6838
 1143SOL     OW 3484   4.537   3.114   3.847  0.3090 -0.1015 -0.2617
 1143SOL    HW1 3485   4.557   3.167   3.770 -1.2009  0.8243 -0.0393
 1143SOL    HW2 3486   4.443   3.096   3.842  0.1873 -0.0850  1.3175
 1144SOL     OW 3487   2.808   3.953   2.062  0.2192 -0.1340  0.6550
 1144SOL    HW1 3488   2.825   4.047   2.054  1.1789 -0.4192 -1.2367
 1144SOL    HW2 3489   2.824   3.918   1.974  0.9921 -2.2483  1.5687
 1145SOL     OW 3490   0.681   2.104   4.794 -0.1985  0.0118 -0.6281
 1145SOL    HW1 3491   0.752   2.087   4.733  0.8959 -0.8145  0.8192
 1145SOL    HW2 3492   0.602   2.108   4.739  0.5687 -1.8507 -1.9697
 1146SOL     OW 3493   1.748   3.378   2.827  0.0196  0.3186 -0.2319
 1146SOL    HW1 3494   1.694   3.393   2.749  0.5122 -1.3847 -0.9497
 1146SOL    HW2 3495   1.694   3.320   2.881 -0.2383  1.3402  0.6247
 1147SOL     OW 3496   2.886   2.621   4.337  0.1247  0.8374  0.2768
 1147SOL    HW1 3497   2.812   2.677   4.361 -0.1583 -0.4164  2.5946
 1147SOL    HW2 3498   2.940   2.618   4.416  1.0992 -0.6262 -0.4150
 1148SOL     OW 3499   2.385   2.010   1.717 -0.6538 -0.3404  0.0409
 1148SOL    HW1 3500   2.415   2.098   1.697 -0.5962 -0.6628 -1.4217
 1148SOL    HW2 3501   2.329   1.986   1.643 -1.2323 -1.2670  0.7568
 1149SOL     OW 3502   4.669   2.477   3.117  0.1667 -0.6232 -0.2658
 1149SOL    HW1 3503   4.657   2.546   3.051  1.4025  0.1068  0.2402
 1149SOL    HW2 3504   4.763   2.463   3.119  0.2836  0.1115  2.0815
 1150SOL     OW 3505   1.450   2.270   1.510  0.2313  0.2872 -0.1676
 1150SOL    HW1 3506   1.373   2.327   1.499  0.5601  0.8875  0.5428
 1150SOL    HW2 3507   1.432   2.221   1.590 -0.0401 -0.6078 -0.7692
 1151SOL     OW 3508   1.255   3.739   0.601 -0.7331  0.1988 -0.1297
 1151SOL    HW1 3509   1.184   3.700   0.550 -0.5179  1.5155 -1.4951
 1151SOL    HW2 3510   1.288   3.810   0.546  1.0411  0.2090  0.8728
 1152SOL     OW 3511   4.321   4.473   0.132 -0.2668 -0.2381 -0.6546
 1152SOL    HW1 3512   4.387   4.538   0.156 -0.6892 -0.5083  1.3830
 1152SOL    HW2 3513   4.351   4.440   0.047  2.0668 -0.1459  0.0475
 1153SOL     OW 3514   4.800   1.953   4.601 -0.0284 -0.4857  0.0280
 1153SOL    HW1 3515   4.885   1.958   4.646 -1.2044 -2.4931  2.7401
 1153SOL    HW2 3516   4.739   1.999   4.658 -1.1652 -0.8859 -0.8292
 1154SOL     OW 3517   0.324   1.882   2.058  0.1121  0.0901  0.2413
 1154SOL    HW1 3518   0.274   1.836   1.990 -0.5344 -0.1309  0.8478
 1154SOL    HW2 3519   0.415   1.870   2.033 -0.0268 -1.6466  0.4350
 1155SOL     OW 3520   1.925   2.823   4.967 -0.2899 -1.1000  0.2902
 1155SOL    HW1 3521   1.971   2.879   5.029 -1.1058  0.8379 -0.7390
 1155SOL    HW2 3522   1.965   2.845   4.882 -3.1210  0.8555 -0.6781
 1156SOL     OW 3523   0.175   3.626   1.059 -0.1098 -0.4218  0.2353
 1156SOL    HW1 3524   0.224   3.635   0.977  1.2993 -0.2287  1.0672
 1156SOL    HW2 3525   0.096   3.678   1.045  0.3572  0.0480 -0.8140
 1157SOL     OW 3526   4.061   1.706   0.790  0.0881  0.0883 -0.1363
 1157SOL    HW1 3527   4.113   1.716   0.710 -0.0194  0.2459 -0.1855
 1157SOL    HW2 3528   4.011   1.626   0.776 -2.5419  1.8377 -1.6954
 1158SOL     OW 3529   3.843   2.380   2.890  0.3631  0.0006  0.1736
 1158SOL    HW1 3530   3.852   2.403   2.982 -0.4478 -0.7344  0.4485
 1158SOL    HW2 3531   3.777   2.440   2.855  0.8961  0.4854 -0.0123
 1159SOL     OW 3532   3.782   1.309   1.282 -0.3764  0.1753  0.0909
 1159SOL    HW1 3533   3.710   1.253   1.253  0.5518 -0.5682 -0.8697
 1159SOL    HW2 3534   3.749   1.399   1.271 -0.9020 -0.1388 -1.0624
 1160SOL     OW 3535   4.483   4.215   2.104 -0.7879 -0.7739  0.0656
 1160SOL    HW1 3536   4.388   4.213   2.095 -0.9715  1.9221  0.4815
 1160SOL    HW2 3537   4.516   4.182   2.021 -2.1534  0.5645 -1.0764
 1161SOL     OW 3538   1.305   1.009   3.080 -0.1046 -0.2313 -0.2822
 1161SOL    HW1 3539   1.312   0.933   3.022 -2.2723 -0.9924  0.3854
 1161SOL    HW2 3540   1.218   1.044   3.064 -0.5536 -0.1032  2.0625
 1162SOL     OW 3541   3.796   1.269   3.903  0.5278 -0.3464  0.3182
 1162SOL    HW1 3542   3.803   1.347   3.848 -0.4524 -1.2891 -1.2250
 1162SOL    HW2 3543   3.865   1.211   3.871 -0.8498 -1.4146 -0.8731
 1163SOL     OW 3544   1.883   3.404   1.861 -0.3421  0.5740  0.0263
 1163SOL    HW1 3545   1.948   3.436   1.799  0.1303 -1.7858 -0.8158
 1163SOL    HW2 3546   1.933   3.381   1.939 -0.1881 -0.8287 -0.4614
 1164SOL     OW 3547   1.249   4.664   3.452 -0.1504  0.0775 -0.1126
 1164SOL    HW1 3548   1.258   4.735   3.389 -1.2364  0.5223  0.2090
 1164SOL    HW2 3549   1.276   4.585   3.404  4.1962  1.0168  0.4305
 1165SOL     OW 3550   1.512   3.841   3.535 -0.0371 -0.1767  0.0128
 1165SOL    HW1 3551   1.581   3.777   3.520 -0.1718 -0.2744 -0.1980
 1165SOL    HW2 3552   1.558   3.920   3.564  0.2179 -0.0333 -0.7587
 1166SOL     OW 3553   3.953   1.048   2.636 -0.1248 -0.4319 -0.1558
 1166SOL    HW1 3554   3.982   1.124   2.686 -0.7868 -0.8986  1.0095
 1166SOL    HW2 3555   3.883   1.010   2.690 -1.1522 -0.7473 -1.6495
 1167SOL     OW 3556   2.394   3.954   4.539  0.3972  0.2155 -0.0093
 1167SOL    HW1 3557   2.430   3.876   4.496  2.0807  0.6897  0.4718
 1167SOL    HW2 3558   2.433   3.953   4.627 -2.1000 -0.1254  1.1849
 1168SOL     OW 3559   2.013   4.632   4.836  0.9154 -0.0891 -0.3216
 1168SOL    HW1 3560   1.938   4.637   4.895  1.9353  0.7483  0.9646
 1168SOL    HW2 3561   2.008   4.544   4.798  0.6821 -1.0248  1.6981
 1169SOL     OW 3562   3.987   3.109   0.890  0.4446 -0.2638 -0.1528
 1169SOL    HW1 3563   3.958   3.139   0.976  0.7475  0.0973 -0.1741
 1169SOL    HW2 3564   3.906   3.090   0.843  0.2763 -0.3941  0.1848
 1170SOL     OW 3565   0.186  -0.015   2.988  0.0369  0.1985  0.3150
 1170SOL    HW1 3566   0.261  -0.005   3.046  0.3927  2.6822 -0.4728
 1170SOL    HW2 3567   0.216   0.021   2.904 -2.4610  2.7846  0.4002
 1171SOL     OW 3568   2.050   2.755   4.177  0.1746  0.0187  0.2022
 1171SOL    HW1 3569   2.101   2.796   4.107  0.0060  0.2285  0.2041
 1171SOL    HW2 3570   2.078   2.801   4.256 -0.7063  0.7762  0.0849
 1172SOL     OW 3571   3.403   0.735   2.871 -0.4356 -0.2985  0.0320
 1172SOL    HW1 3572   3.327   0.749   2.814  0.7705  1.8017 -1.2064
 1172SOL    HW2 3573   3.458   0.674   2.823 -0.9398 -1.1762  0.5493
 1173SOL     OW 3574   0.024   2.135   1.941  0.1461 -0.1049 -0.6700
 1173SOL    HW1 3575   0.078   2.056   1.933  0.2437 -0.1432  0.2338
 1173SOL    HW2 3576   0.086   2.207   1.929  0.5351 -0.1386  0.9059
 1174SOL     OW 3577   0.310   4.623   3.728  0.1623 -0.7544  0.0724
 1174SOL    HW1 3578   0.236   4.598   3.783  0.9276 -1.3723  0.8778
 1174SOL    HW2 3579   0.387   4.602   3.782  0.9223 -0.3760 -0.8338
 1175SOL     OW 3580   2.693   3.976   0.660  0.5831  0.1955 -0.1843
 1175SOL    HW1 3581   2.736   4.060   0.679 -0.9400  1.2698 -1.2162
 1175SOL    HW2 3582   2.738   3.943   0.583 -0.5953  1.5026 -1.4911
 1176SOL     OW 3583   1.561   1.088   4.593  0.1007 -0.2015 -0.4041
 1176SOL    HW1 3584   1.618   1.025   4.550  0.3882  0.0134 -0.3364
 1176SOL    HW2 3585   1.591   1.090   4.684  0.2259  0.1848 -0.4528
 1177SOL     OW 3586   2.220   4.316   1.544  0.1723  0.4599 -0.6052
 1177SOL    HW1 3587   2.151   4.342   1.605  0.8285 -0.5804  0.6079
 1177SOL    HW2 3588   2.186   4.342   1.458 -2.4135 -1.3151 -0.2359
 1178SOL     OW 3589   2.624   3.421   0.852 -0.2493 -0.1618  0.4250
 1178SOL    HW1 3590   2.575   3.460   0.779  1.9674  0.0796 -1.0507
 1178SOL    HW2 3591   2.669   3.346   0.812  2.4993  1.0518  0.9701
 1179SOL     OW 3592   1.222   3.174   0.906  0.3417 -0.0047  0.4025
 1179SOL    HW1 3593   1.259   3.139   0.987  0.9140 -1.6412 -0.5217
 1179SOL    HW2 3594   1.243   3.109   0.839 -1.3439  0.6105 -0.8114
 1180SOL     OW 3595   1.267   1.035   1.667 -0.1095 -0.2315  0.3593
 1180SOL    HW1 3596   1.281   1.125   1.636  1.6073 -0.3410  0.6929
 1180SOL    HW2 3597   1.324   1.027   1.743  0.4358 -1.8576 -0.1692
 1181SOL     OW 3598   4.446   4.459   4.582  0.5035  0.0227 -0.8818
 1181SOL    HW1 3599   4.405   4.398   4.521 -1.3556  1.6347 -1.3431
 1181SOL    HW2 3600   4.471   4.534   4.529 -0.1076  0.9787  0.1187
 1182SOL     OW 3601   1.511   3.536   4.367 -0.3082 -0.5787 -0.1305
 1182SOL    HW1 3602   1.543   3.447   4.384  1.8340 -0.0626 -1.1242
 1182SOL    HW2 3603   1.564   3.592   4.423 -0.6501  0.1824 -0.5546
 1183SOL     OW 3604   1.974   0.939   1.170 -0.6594  0.3187 -0.1554
 1183SOL    HW1 3605   2.011   1.021   1.201 -0.1827  0.6904 -1.6417
 1183SOL    HW2 3606   1.977   0.881   1.246 -0.3929  1.4631  0.7269
 1184SOL     OW 3607   3.079   4.079   3.307  0.3781 -0.0815 -0.1692
 1184SOL    HW1 3608   3.116   4.056   3.393  0.1225 -1.4792 -0.4244
 1184SOL    HW2 3609   3.116   4.166   3.289 -0.6361  0.8783  1.9658
 1185SOL     OW 3610   3.287   1.713   1.193 -0.1246 -0.1275  0.0190
 1185SOL    HW1 3611   3.325   1.733   1.107  0.2604  1.2440  0.4729
 1185SOL    HW2 3612   3.363   1.700   1.250 -0.3606 -0.2230  0.3134
 1186SOL     OW 3613   2.688   2.093   1.744 -0.0237 -0.5008  0.6737
 1186SOL    HW1 3614   2.754   2.133   1.687 -1.1929  2.2345  1.0785
 1186SOL    HW2 3615   2.738   2.062   1.820  0.9638  0.1974  0.3305
 1187SOL     OW 3616   0.894   4.025   1.397  0.6581  0.3712 -0.1604
 1187SOL    HW1 3617   0.826   4.091   1.407 -0.7338 -0.9740 -0.3047
 1187SOL    HW2 3618   0.963   4.051   1.459 -0.0664  1.6526  0.1387
 1188SOL     OW 3619   1.635   2.286   0.249  0.2150  0.4291 -0.2362
 1188SOL    HW1 3620   1.717   2.318   0.211  0.0331  1.1785 -0.0119
 1188SOL    HW2 3621   1.662   2.212   0.304  0.7460  0.7073 -0.1132
 1189SOL     OW 3622   4.983   4.529   4.411  0.4957 -0.0728  0.1727
 1189SOL    HW1 3623   4.931   4.452   4.434  0.7443 -0.1533  0.4725
 1189SOL    HW2 3624   4.938   4.602   4.454  0.6545 -0.1493  0.4748
 1190SOL     OW 3625   4.464   0.626   1.981 -0.1855 -0.3724  0.3038
 1190SOL    HW1 3626   4.498   0.612   2.069 -1.2718  0.0240  0.8039
 1190SOL    HW2 3627   4.376   0.662   1.994  0.2339  1.2088 -0.9318
 1191SOL     OW 3628   0.845   3.454   0.314  0.4870 -0.1753  0.1064
 1191SOL    HW1 3629   0.750   3.442   0.315 -0.3378  4.4745 -0.1311
 1191SOL    HW2 3630   0.869   3.458   0.407  0.3785 -0.6630  0.1623
 1192SOL     OW 3631   1.922   0.731   2.732  0.0890  0.0969 -0.2393
 1192SOL    HW1 3632   1.926   0.648   2.778 -0.4482 -0.2597 -0.8266
 1192SOL    HW2 3633   1.984   0.721   2.659 -1.7259 -0.7145 -1.7558
 1193SOL     OW 3634   0.338   4.624   1.013 -0.8388 -0.0347  0.5776
 1193SOL    HW1 3635   0.363   4.623   1.105 -0.4440 -1.9977  0.4889
 1193SOL    HW2 3636   0.420   4.636   0.966 -1.2261  2.8188  0.4546
 1194SOL     OW 3637   1.482   3.309   4.708  0.6007  0.0210 -0.2647
 1194SOL    HW1 3638   1.436   3.393   4.702  1.1610  0.2463 -2.1313
 1194SOL    HW2 3639   1.531   3.303   4.626  1.1046 -1.8385  0.1287
 1195SOL     OW 3640   3.522   0.497   1.488  0.1512  0.2085 -0.2692
 1195SOL    HW1 3641   3.544   0.588   1.507  0.0038  0.2229 -0.1675
 1195SOL    HW2 3642   3.592   0.446   1.528 -0.7187  0.1744  1.2664
 1196SOL     OW 3643   4.102   0.235   1.919  0.1961 -0.5108 -0.6204
 1196SOL    HW1 3644   4.046   0.164   1.889  0.6806 -0.8197 -0.8062
 1196SOL    HW2 3645   4.137   0.204   2.003 -2.7692  1.1785  1.4375
 1197SOL     OW 3646   0.370   4.284   3.941 -0.2466  0.4048 -0.0988
 1197SOL    HW1 3647   0.348   4.282   4.034 -0.4227 -1.7483 -0.1239
 1197SOL    HW2 3648   0.441   4.348   3.934  0.0980  0.2626  1.6066
 1198SOL     OW 3649   0.659   0.809   0.902  0.0587  0.0528 -0.4318
 1198SOL    HW1 3650   0.657   0.714   0.914  1.7293 -0.2097 -1.9330
 1198SOL    HW2 3651   0.575   0.839   0.937 -0.2830 -1.9055  0.5487
 1199SOL     OW 3652   0.408   1.514   1.666  0.2047 -0.0116 -0.0607
 1199SOL    HW1 3653   0.449   1.586   1.618 -0.6420  0.2526 -0.3926
 1199SOL    HW2 3654   0.360   1.465   1.599 -1.9342  1.0018  0.6412
 1200SOL     OW 3655   3.870   0.254   4.914 -0.3186  0.5576  0.2141
 1200SOL    HW1 3656   3.868   0.208   4.998  0.1268  0.8690  0.3989
 1200SOL    HW2 3657   3.836   0.190   4.851  0.2156  0.0007  0.4790
 1201SOL     OW 3658   0.335   0.713   3.237  0.0418  0.0731 -0.0575
 1201SOL    HW1 3659   0.333   0.804   3.265 -0.4292 -0.0131  0.2014
 1201SOL    HW2 3660   0.303   0.664   3.313 -1.4759 -0.1416 -0.7986
 1202SOL     OW 3661   1.928   4.731   3.972 -0.5016  0.1780  0.3578
 1202SOL    HW1 3662   2.019   4.714   3.952 -0.2385  1.7489  0.1445
 1202SOL    HW2 3663   1.905   4.663   4.036  1.0662  0.3045  1.1007
 1203SOL     OW 3664   2.134   0.768   0.428 -0.3461 -0.3913 -0.8224
 1203SOL    HW1 3665   2.229   0.756   0.426 -0.3413 -0.4730 -0.1160
 1203SOL    HW2 3666   2.114   0.812   0.345  0.0603 -2.0726 -1.8646
 1204SOL     OW 3667   3.783   2.617   2.033  0.3314 -0.1909  0.2080
 1204SOL    HW1 3668   3.764   2.667   1.954  1.1906 -1.3922 -0.8098
 1204SOL    HW2 3669   3.782   2.525   2.004  1.8544 -0.5988  1.3240
 1205SOL     OW 3670   4.124   4.873   4.450  0.4741  0.1338 -0.1214
 1205SOL    HW1 3671   4.197   4.829   4.493  0.5113 -0.8646 -1.1658
 1205SOL    HW2 3672   4.134   4.850   4.358  0.4355  2.2606 -0.7063
 1206SOL     OW 3673   4.727   0.785   4.335 -0.0666 -0.5554  0.3551
 1206SOL    HW1 3674   4.632   0.790   4.334 -0.0974 -0.5556  1.5307
 1206SOL    HW2 3675   4.755   0.867   4.375  0.5180  0.1619 -1.4493
 1207SOL     OW 3676   0.732   3.810   2.146 -0.0952  0.2169 -0.0270
 1207SOL    HW1 3677   0.784   3.739   2.184  0.5485  0.4427 -0.4564
 1207SOL    HW2 3678   0.679   3.767   2.078  0.1251  0.1068 -0.1315
 1208SOL     OW 3679   3.532   3.538   4.840  0.3746 -0.3718  0.6642
 1208SOL    HW1 3680   3.617   3.495   4.843  0.3762 -0.3204  1.3458
 1208SOL    HW2 3681   3.551   3.626   4.809  0.3354 -0.9155 -1.0601
 1209SOL     OW 3682   2.744   1.480   3.867 -0.1512  0.5660  0.7580
 1209SOL    HW1 3683   2.770   1.425   3.794  1.0476  1.9820  0.0748
 1209SOL    HW2 3684   2.740   1.421   3.942  0.8733 -0.4953  0.0019
 1210SOL     OW 3685   3.608   1.224   2.439  0.3241  0.1548  0.1342
 1210SOL    HW1 3686   3.631   1.131   2.431  0.5171  0.1846  0.3274
 1210SOL    HW2 3687   3.613   1.242   2.533 -2.8315 -0.4237  0.5125
 1211SOL     OW 3688   2.197   4.163   2.044  0.5193  0.2309  0.4147
 1211SOL    HW1 3689   2.287   4.194   2.034  1.1949 -2.2087 -2.5770
 1211SOL    HW2 3690   2.196   4.076   2.004 -2.6960 -0.8508  2.4115
 1212SOL     OW 3691   4.342   2.296   4.225  0.3126  0.7673  0.1039
 1212SOL    HW1 3692   4.298   2.211   4.216  1.6941 -0.4096  2.9726
 1212SOL    HW2 3693   4.294   2.354   4.166 -0.5631 -2.0084 -2.1586
 1213SOL     OW 3694   4.099   3.403   0.591 -0.4952 -0.3389 -0.2700
 1213SOL    HW1 3695   4.048   3.343   0.537  1.3365 -1.4080 -0.9145
 1213SOL    HW2 3696   4.108   3.482   0.538 -1.7812  0.0380  0.0313
 1214SOL     OW 3697   4.664   1.559   0.411 -0.3732  0.6113  0.2649
 1214SOL    HW1 3698   4.643   1.483   0.466 -0.3947  1.4439  1.4491
 1214SOL    HW2 3699   4.706   1.621   0.471  0.9456  0.9822 -0.9849
 1215SOL     OW 3700   0.156   3.068   0.865  0.0895  0.0544 -0.3049
 1215SOL    HW1 3701   0.214   3.124   0.814 -0.1835  1.0347  0.4194
 1215SOL    HW2 3702   0.074   3.067   0.815 -0.5700  1.9691  0.6191
 1216SOL     OW 3703   4.312   4.502   4.318 -0.1403  0.2581  0.1152
 1216SOL    HW1 3704   4.397   4.541   4.339  0.0723 -1.0458  1.8818
 1216SOL    HW2 3705   4.329   4.446   4.242  0.6119 -0.0543  0.5034
 1217SOL     OW 3706   1.540   1.064   1.120  0.3927 -0.4184 -0.3142
 1217SOL    HW1 3707   1.506   0.977   1.099  1.8336 -1.1707  0.3096
 1217SOL    HW2 3708   1.603   1.082   1.050 -1.2669  1.0147 -1.5327
 1218SOL     OW 3709   4.012   2.264   2.131 -0.0275 -0.3009 -0.4868
 1218SOL    HW1 3710   3.958   2.187   2.112 -2.1197  0.7904  0.6536
 1218SOL    HW2 3711   4.037   2.254   2.223  0.8626 -0.2698 -0.7167
 1219SOL     OW 3712   2.302   4.023   0.519  0.1319 -0.3689 -0.0454
 1219SOL    HW1 3713   2.234   3.971   0.476 -2.5310  1.8305  1.2066
 1219SOL    HW2 3714   2.320   4.094   0.458  0.1267 -0.0723  0.2972
 1220SOL     OW 3715   0.030   3.163   2.910  0.2706 -0.2641  0.1419
 1220SOL    HW1 3716   0.045   3.132   2.821 -0.6505  2.0035 -0.8752
 1220SOL    HW2 3717   0.070   3.249   2.913 -3.6147  1.7917  0.3283
 1221SOL     OW 3718   3.379   2.926   3.262 -0.5369  0.3731 -0.3338
 1221SOL    HW1 3719   3.370   2.917   3.356  1.1182 -1.0485 -0.2861
 1221SOL    HW2 3720   3.292   2.904   3.227 -1.0010  0.3578  0.8089
 1222SOL     OW 3721   0.960   3.604   3.129 -0.5448 -0.6375  0.2220
 1222SOL    HW1 3722   0.870   3.614   3.160 -0.6877  0.9658 -0.5897
 1222SOL    HW2 3723   0.991   3.524   3.170 -0.1908  1.8924  5.8705
 1223SOL     OW 3724   4.651   1.842   3.881  0.7931  0.1219  0.2221
 1223SOL    HW1 3725   4.565   1.824   3.919  1.1838 -0.0569  1.0406
 1223SOL    HW2 3726   4.647   1.803   3.794 -0.2988  0.9820 -0.1437
 1224SOL     OW 3727   0.478   3.401   0.885 -0.0369 -0.0638  0.3150
 1224SOL    HW1 3728   0.409   3.463   0.862  0.1182  0.0117  0.0464
 1224SOL    HW2 3729   0.496   3.419   0.977 -0.8490 -0.5550  0.5785
 1225SOL     OW 3730   1.299   3.460   0.597  0.2064  0.0004 -1.1862
 1225SOL    HW1 3731   1.214   3.452   0.555  0.3407 -1.5086 -1.2264
 1225SOL    HW2 3732   1.300   3.549   0.633 -1.6533 -0.1680 -0.6002
 1226SOL     OW 3733   1.460   2.791   2.248 -0.1816 -0.2078 -0.0469
 1226SOL    HW1 3734   1.466   2.882   2.274  1.3406 -0.3184  0.0658
 1226SOL    HW2 3735   1.497   2.742   2.321 -1.1277 -0.9519 -0.0321
 1227SOL     OW 3736   2.901   4.504   1.727  0.6121  0.2050 -0.0984
 1227SOL    HW1 3737   2.962   4.478   1.657  0.3741 -3.1315  0.7376
 1227SOL    HW2 3738   2.952   4.493   1.807 -0.8090 -2.0888  0.5733
 1228SOL     OW 3739   1.089   3.575   1.207 -0.5904  0.1314 -0.5533
 1228SOL    HW1 3740   1.179   3.598   1.187  0.7474 -2.0166  2.2493
 1228SOL    HW2 3741   1.055   3.648   1.259  0.8613 -0.5737  1.4916
 1229SOL     OW 3742   0.977   0.288   1.717 -0.6429  0.1982  0.2431
 1229SOL    HW1 3743   0.887   0.308   1.693 -0.1039  0.5179 -1.6962
 1229SOL    HW2 3744   1.000   0.212   1.664  0.3782  0.3930  0.3797
 1230SOL     OW 3745   3.927   3.849   1.686  0.0600  0.0013 -0.3221
 1230SOL    HW1 3746   4.013   3.891   1.672 -0.0165  0.3192  0.1282
 1230SOL    HW2 3747   3.922   3.836   1.781  0.2715 -1.4565 -0.4813
 1231SOL     OW 3748   4.034   0.585   3.157 -0.0854  0.0957 -0.5148
 1231SOL    HW1 3749   4.020   0.500   3.198 -0.0639 -0.4510 -1.6027
 1231SOL    HW2 3750   4.115   0.617   3.195 -0.1718 -0.3035  0.0127
 1232SOL     OW 3751   3.863   0.487   0.113 -0.2891  0.1690 -0.5450
 1232SOL    HW1 3752   3.861   0.464   0.206 -1.9926  0.1787 -0.5444
 1232SOL    HW2 3753   3.886   0.405   0.069 -1.1658 -0.2734 -0.2058
 1233SOL     OW 3754   1.175   0.122   2.503  0.1985 -0.2676 -0.2462
 1233SOL    HW1 3755   1.146   0.056   2.440 -0.2528  1.0900 -1.5340
 1233SOL    HW2 3756   1.268   0.133   2.486  0.3742 -0.9197  0.3024
 1234SOL     OW 3757   4.566   2.328   3.328 -0.0796 -0.5919  0.1682
 1234SOL    HW1 3758   4.576   2.378   3.409 -0.3952 -0.2245 -0.0116
 1234SOL    HW2 3759   4.579   2.393   3.258 -1.3875 -0.5499 -0.0652
 1235SOL     OW 3760   4.780   0.270   4.526  0.2374  0.7536 -0.6105
 1235SOL    HW1 3761   4.773   0.237   4.436  0.6156 -0.8103 -0.0817
 1235SOL    HW2 3762   4.765   0.365   4.517 -1.0872  0.4500 -2.1424
 1236SOL     OW 3763   3.465   4.836   3.348 -0.1858  0.2727 -0.0086
 1236SOL    HW1 3764   3.509   4.899   3.406  0.8632 -0.5744  0.1378
 1236SOL    HW2 3765   3.444   4.762   3.405  2.8719 -1.5700 -1.0386
 1237SOL     OW 3766   3.845   1.910   3.061 -0.3914  0.2721 -0.7423
 1237SOL    HW1 3767   3.800   1.828   3.079  0.3817 -0.2090 -0.9599
 1237SOL    HW2 3768   3.848   1.954   3.146 -0.6994  0.0190 -0.5973
 1238SOL     OW 3769   2.696   4.491   4.331  0.0477 -0.1648 -0.3793
 1238SOL    HW1 3770   2.707   4.474   4.238  1.3702  2.4506 -0.7914
 1238SOL    HW2 3771   2.737   4.576   4.345  0.1232 -0.5934  2.6577
 1239SOL     OW 3772   3.759   4.251   4.768 -0.1976  0.1410  0.2694
 1239SOL    HW1 3773   3.798   4.273   4.684 -0.7631 -1.8021 -0.5470
 1239SOL    HW2 3774   3.705   4.327   4.790  2.0082  1.8317  0.2392
 1240SOL     OW 3775   1.092   0.078   0.199  0.0611  0.2402 -0.1117
 1240SOL    HW1 3776   1.000   0.061   0.219 -0.5755  0.7049 -2.3984
 1240SOL    HW2 3777   1.123  -0.003   0.158 -0.3374  1.2322 -2.4808
 1241SOL     OW 3778   1.364   0.771   4.060 -0.0292 -0.1879 -0.3028
 1241SOL    HW1 3779   1.350   0.814   4.144  1.6814 -0.5000  0.1952
 1241SOL    HW2 3780   1.352   0.677   4.079 -2.0418 -0.1171 -0.9927
 1242SOL     OW 3781   3.434   3.871   4.215  0.6667  0.1042 -0.2049
 1242SOL    HW1 3782   3.410   3.904   4.302  1.8921  1.2944 -0.2724
 1242SOL    HW2 3783   3.479   3.789   4.232  1.8135  0.8298  0.4094
 1243SOL     OW 3784   4.742   0.100   3.744 -0.5261  0.0697 -0.2005
 1243SOL    HW1 3785   4.708   0.011   3.743  2.6676 -1.3273 -1.9600
 1243SOL    HW2 3786   4.724   0.134   3.656  0.9934 -0.1136 -0.6209
 1244SOL     OW 3787   1.733   1.580   3.896 -0.3349 -0.4462 -0.7567
 1244SOL    HW1 3788   1.823   1.591   3.867 -0.2175 -1.2336 -0.7195
 1244SOL    HW2 3789   1.723   1.486   3.910 -0.4469 -0.1535  1.5426
 1245SOL     OW 3790   0.859   2.203   1.117 -0.0709 -0.6695 -0.0765
 1245SOL    HW1 3791   0.835   2.253   1.195 -0.2612  0.0148 -0.5643
 1245SOL    HW2 3792   0.931   2.147   1.145 -0.2462 -0.5474  0.6310
 1246SOL     OW 3793   4.368   4.364   0.808  0.1324  0.2863  0.1729
 1246SOL    HW1 3794   4.278   4.381   0.837  0.0392  2.4215 -1.1688
 1246SOL    HW2 3795   4.419   4.358   0.888 -0.9252  0.7876  0.9000
 1247SOL     OW 3796   1.508   0.094   0.831  0.2421  0.2103  0.2841
 1247SOL    HW1 3797   1.539   0.158   0.895  0.9968 -0.0529  0.1919
 1247SOL    HW2 3798   1.577   0.027   0.828  1.7444  1.6658 -2.9799
 1248SOL     OW 3799   4.091   0.513   0.330 -0.6539 -0.2197 -0.0302
 1248SOL    HW1 3800   4.157   0.494   0.396  0.0195 -0.6531 -0.8041
 1248SOL    HW2 3801   4.064   0.603   0.348  1.7118  0.7624 -0.9665
 1249SOL     OW 3802   0.219   4.568   0.739  0.2257  0.0200  0.0122
 1249SOL    HW1 3803   0.254   4.583   0.827 -0.7491  0.3959  0.3404
 1249SOL    HW2 3804   0.126   4.548   0.753 -0.3871  1.9573 -1.0674
 1250SOL     OW 3805   2.782   2.736   4.583  0.0215 -0.5239  0.3661
 1250SOL    HW1 3806   2.770   2.831   4.584 -0.3972 -0.5262 -1.2188
 1250SOL    HW2 3807   2.727   2.704   4.655 -0.5003  0.3819  0.3874
 1251SOL     OW 3808   3.453   2.356   0.158  0.2653 -0.1674 -0.6968
 1251SOL    HW1 3809   3.466   2.329   0.249  0.0275 -2.1103 -1.2003
 1251SOL    HW2 3810   3.541   2.365   0.122  0.3471 -1.1823 -0.7611
 1252SOL     OW 3811   0.115   0.953   4.773  0.4578 -0.0653 -0.4081
 1252SOL    HW1 3812   0.139   0.903   4.851  2.4851 -0.9486 -1.5256
 1252SOL    HW2 3813   0.148   0.901   4.700 -0.3263  1.3191 -1.8047
 1253SOL     OW 3814   1.725   3.324   0.851 -0.1694 -0.2069 -0.0014
 1253SOL    HW1 3815   1.674   3.247   0.876  0.8498 -0.8696  0.1032
 1253SOL    HW2 3816   1.689   3.395   0.904 -0.6223 -0.7701  0.4645
 1254SOL     OW 3817   2.281   1.395   1.811 -0.5411 -0.1162  0.4857
 1254SOL    HW1 3818   2.349   1.444   1.858 -0.1826  0.0305 -0.1658
 1254SOL    HW2 3819   2.233   1.462   1.762 -0.8325 -0.2786  0.5478
 1255SOL     OW 3820   1.008   3.513   0.020 -0.3275 -0.2021  0.4414
 1255SOL    HW1 3821   0.996   3.430   0.066 -0.4090 -0.5475 -0.1915
 1255SOL    HW2 3822   0.949   3.507  -0.056  0.6407 -0.1334 -0.3406
 1256SOL     OW 3823   4.599   2.724   1.674 -0.2388  0.0503 -0.4736
 1256SOL    HW1 3824   4.517   2.773   1.682 -0.2282  0.4270 -2.3957
 1256SOL    HW2 3825   4.586   2.666   1.599  1.6521  0.9720 -1.5941
 1257SOL     OW 3826   1.100   0.535   2.987  0.2454  0.5721  0.6118
 1257SOL    HW1 3827   1.190   0.507   3.002 -0.1753 -1.3152 -0.1264
 1257SOL    HW2 3828   1.053   0.510   3.066 -0.1515 -1.0485 -0.0887
 1258SOL     OW 3829   0.082   4.083   3.540 -0.0293 -0.5256  0.3314
 1258SOL    HW1 3830   0.082   4.179   3.541  1.4455 -0.4705 -1.1363
 1258SOL    HW2 3831   0.165   4.058   3.580  0.2315 -1.1351 -0.5550
 1259SOL     OW 3832   2.330   3.598   3.484 -0.1250 -0.7403 -0.6056
 1259SOL    HW1 3833   2.396   3.537   3.517 -2.1798 -2.8360 -0.1937
 1259SOL    HW2 3834   2.337   3.674   3.543 -0.1331 -2.1922  1.3638
 1260SOL     OW 3835   0.611   1.724   1.951 -0.1721  0.3163 -0.2954
 1260SOL    HW1 3836   0.647   1.748   2.036 -0.6977 -1.5228  0.4764
 1260SOL    HW2 3837   0.687   1.696   1.900 -0.1799 -1.3476  0.5590
 1261SOL     OW 3838   1.372   1.982   0.885 -0.3625 -0.1037  0.2073
 1261SOL    HW1 3839   1.285   1.974   0.925  0.5074  0.5439  2.3455
 1261SOL    HW2 3840   1.355   1.974   0.791 -2.6290 -0.8066  0.5980
 1262SOL     OW 3841   0.804   1.556   4.334  0.5042  0.2976 -0.3162
 1262SOL    HW1 3842   0.793   1.608   4.254 -0.0192 -0.1863 -0.5664
 1262SOL    HW2 3843   0.889   1.514   4.324  0.5887  0.5008 -0.4657
 1263SOL     OW 3844   4.839   1.553   0.216 -0.3230 -0.1480  0.0377
 1263SOL    HW1 3845   4.783   1.552   0.294  0.3006  0.1163  0.4954
 1263SOL    HW2 3846   4.840   1.463   0.185 -1.6834 -0.0188 -0.4776
 1264SOL     OW 3847   1.243   3.957   2.889 -0.0202  0.0227  0.1120
 1264SOL    HW1 3848   1.221   3.909   2.969  0.3755  0.0302  0.2273
 1264SOL    HW2 3849   1.332   3.989   2.904 -0.4600  1.2497  0.2569
 1265SOL     OW 3850   1.604   2.819   4.718 -0.1920 -0.0033  0.1638
 1265SOL    HW1 3851   1.513   2.789   4.714  0.4839 -2.5215  1.6407
 1265SOL    HW2 3852   1.599   2.902   4.766 -1.6567 -0.3535  0.6781
 1266SOL     OW 3853   2.390   4.580   1.976  0.5461 -0.2385  0.0644
 1266SOL    HW1 3854   2.389   4.535   1.892  0.3990 -0.7547  0.3363
 1266SOL    HW2 3855   2.440   4.660   1.960 -1.9118  1.1404 -1.2486
 1267SOL     OW 3856   4.465   1.891   0.787 -0.2381  0.4676  0.2944
 1267SOL    HW1 3857   4.548   1.934   0.807  0.1186 -0.3981  0.7354
 1267SOL    HW2 3858   4.426   1.944   0.717  0.4982  1.0997  0.3535
 1268SOL     OW 3859   1.241   0.616   0.612  0.1650  0.0737 -0.6920
 1268SOL    HW1 3860   1.200   0.680   0.554  0.0851 -0.3154 -1.0754
 1268SOL    HW2 3861   1.320   0.589   0.565 -0.4269 -1.0098 -1.1223
 1269SOL     OW 3862   2.241   1.794   1.129 -0.0232  0.1306  0.4357
 1269SOL    HW1 3863   2.295   1.715   1.138 -0.2859 -0.0205  0.7024
 1269SOL    HW2 3864   2.298   1.865   1.157  0.5622  0.1720 -0.7852
 1270SOL     OW 3865   3.165   2.010   1.235  0.1833  0.9400 -0.0795
 1270SOL    HW1 3866   3.092   1.972   1.185  1.2413  0.1265 -1.0873
 1270SOL    HW2 3867   3.126   2.041   1.316 -1.1473 -0.1941 -0.2558
 1271SOL     OW 3868   0.694   2.564   4.354  0.0745 -0.1495 -0.0989
 1271SOL    HW1 3869   0.670   2.482   4.398  0.2045  0.6137  1.4831
 1271SOL    HW2 3870   0.776   2.543   4.308  0.7175 -0.6438  1.2156
 1272SOL     OW 3871   3.348   1.607   1.958 -0.4445 -0.4345 -0.5221
 1272SOL    HW1 3872   3.428   1.655   1.938 -0.4687 -0.5084 -0.7894
 1272SOL    HW2 3873   3.314   1.649   2.037  0.4543 -1.1091  0.2488
 1273SOL     OW 3874   4.403   2.607   3.861  0.4073  0.1931  0.5047
 1273SOL    HW1 3875   4.347   2.639   3.791 -0.6671 -1.1018  0.7187
 1273SOL    HW2 3876   4.450   2.684   3.891 -0.2242  1.0624 -0.6229
 1274SOL     OW 3877   2.319   1.177   4.285 -0.0101  0.2443  0.3280
 1274SOL    HW1 3878   2.306   1.157   4.377 -0.6014 -0.4933  0.0950
 1274SOL    HW2 3879   2.410   1.207   4.280  0.3679 -0.7258  0.9878
 1275SOL     OW 3880   3.783   4.191   0.524  0.2675 -0.3607  0.6660
 1275SOL    HW1 3881   3.851   4.252   0.497 -1.1445  1.6202  1.4084
 1275SOL    HW2 3882   3.734   4.172   0.443  1.2881 -1.3334  0.2466
 1276SOL     OW 3883   2.245   2.898   3.073 -0.2098  0.7863  0.0121
 1276SOL    HW1 3884   2.242   2.809   3.038  0.5623  1.4119 -1.7334
 1276SOL    HW2 3885   2.241   2.886   3.168  1.4336 -1.1978 -0.0957
 1277SOL     OW 3886   0.879   1.845   2.319 -0.7880  0.3721  0.2834
 1277SOL    HW1 3887   0.918   1.841   2.406 -0.5797  0.5574  0.2016
 1277SOL    HW2 3888   0.840   1.759   2.306 -2.1686  0.8394  1.1732
 1278SOL     OW 3889   4.097   3.305   3.859  0.1819  0.7276 -0.4482
 1278SOL    HW1 3890   4.144   3.278   3.780  1.2596  0.3330  0.3108
 1278SOL    HW2 3891   4.163   3.304   3.928 -1.1231 -0.6526  0.8354
 1279SOL     OW 3892   4.498   1.171   2.301 -0.8297 -0.7144  0.2554
 1279SOL    HW1 3893   4.433   1.217   2.355 -0.5907  1.1461 -0.9738
 1279SOL    HW2 3894   4.582   1.206   2.330 -0.3411 -2.7234  1.4587
 1280SOL     OW 3895   0.379   3.207   3.180 -0.3368  0.2587  0.5331
 1280SOL    HW1 3896   0.416   3.193   3.093  0.4706  0.1612  0.8874
 1280SOL    HW2 3897   0.288   3.177   3.173 -0.0236 -0.5628 -0.0314
 1281SOL     OW 3898   3.955   0.740   0.415 -0.1192  0.4052  0.0974
 1281SOL    HW1 3899   3.911   0.691   0.485  1.3552 -0.8671  0.2046
 1281SOL    HW2 3900   3.887   0.755   0.349 -0.8983 -0.8342  0.5810
 1282SOL     OW 3901   1.071   2.399   3.167  0.2508  0.5996 -0.0836
 1282SOL    HW1 3902   1.080   2.320   3.114  0.7422 -0.9523  2.1556
 1282SOL    HW2 3903   1.161   2.433   3.174  0.0164  1.4936 -1.1837
 1283SOL     OW 3904   4.063   4.127   0.755 -0.6843  0.2858 -0.4873
 1283SOL    HW1 3905   4.020   4.099   0.836 -1.8632  0.0604 -1.1539
 1283SOL    HW2 3906   4.065   4.222   0.760 -2.2172  0.3681 -0.8663
 1284SOL     OW 3907   0.836   3.882   3.221  0.4390 -0.1148  0.0971
 1284SOL    HW1 3908   0.812   3.801   3.176  0.9747  0.3114 -0.9877
 1284SOL    HW2 3909   0.932   3.884   3.216  0.3491  1.5323 -1.5937
 1285SOL     OW 3910   0.975   0.533   2.194 -0.2599 -0.2453 -0.1938
 1285SOL    HW1 3911   0.934   0.614   2.225  0.7865  0.3150 -0.2354
 1285SOL    HW2 3912   1.033   0.506   2.265 -0.4204 -0.8280 -0.2805
 1286SOL     OW 3913   4.082   2.757   4.861  0.0978 -0.3242  0.2170
 1286SOL    HW1 3914   4.083   2.797   4.948  0.2950 -1.7377  0.8838
 1286SOL    HW2 3915   4.173   2.733   4.844  0.1142  0.2292 -0.5284
 1287SOL     OW 3916   0.425   2.262   3.545 -0.2656  0.2622 -0.1492
 1287SOL    HW1 3917   0.515   2.294   3.552  0.5371 -1.8067 -0.4788
 1287SOL    HW2 3918   0.405   2.226   3.632 -1.0866  1.3891  0.1573
 1288SOL     OW 3919   3.965   2.214   1.676 -0.4401 -0.0260  0.1775
 1288SOL    HW1 3920   3.915   2.212   1.595 -0.2770  0.2293  0.0683
 1288SOL    HW2 3921   3.968   2.307   1.700  0.7637  0.0749 -0.3090
 1289SOL     OW 3922   2.768   2.151   3.781  0.3091 -0.1567 -0.1337
 1289SOL    HW1 3923   2.775   2.077   3.842  1.5805  1.2786  1.5805
 1289SOL    HW2 3924   2.756   2.228   3.837  2.4685  1.3689 -1.5798
 1290SOL     OW 3925   3.554   1.560   4.316  0.4630 -0.4461 -0.1220
 1290SOL    HW1 3926   3.567   1.584   4.225 -1.0565 -0.6623 -0.4237
 1290SOL    HW2 3927   3.609   1.482   4.328 -0.8980 -1.7069 -1.4924
 1291SOL     OW 3928   0.494   0.847   4.185  0.0886  0.3730  0.2446
 1291SOL    HW1 3929   0.460   0.793   4.257  1.0929  1.9457  1.9937
 1291SOL    HW2 3930   0.525   0.784   4.121  1.3823 -1.1976  2.2780
 1292SOL     OW 3931   2.187   0.192   1.078 -0.0546  0.3136 -0.1485
 1292SOL    HW1 3932   2.103   0.159   1.045 -0.7178  0.0405  1.7306
 1292SOL    HW2 3933   2.192   0.161   1.168  2.1641  0.1884 -0.2549
 1293SOL     OW 3934   4.036   0.809   4.594 -0.2129 -0.4329  0.4523
 1293SOL    HW1 3935   3.974   0.882   4.590 -0.6938 -0.8230  0.7564
 1293SOL    HW2 3936   4.032   0.778   4.684  1.5014  0.4467  0.8747
 1294SOL     OW 3937   4.821   0.816   3.137  0.7984  0.5128  0.0097
 1294SOL    HW1 3938   4.840   0.828   3.044  0.7366  1.9924  0.1686
 1294SOL    HW2 3939   4.893   0.859   3.182  0.4572  0.4239  0.6462
 1295SOL     OW 3940   2.987   3.374   2.627 -0.2784  0.4692 -0.4428
 1295SOL    HW1 3941   2.908   3.320   2.635 -1.6413  2.3106 -0.6985
 1295SOL    HW2 3942   3.005   3.403   2.716  3.5813 -4.3043  0.7704
 1296SOL     OW 3943   0.432   3.336   0.393  0.1065 -0.6355  0.7526
 1296SOL    HW1 3944   0.478   3.382   0.323 -0.0061 -2.5269 -0.6259
 1296SOL    HW2 3945   0.370   3.401   0.427  2.1100  1.2221  1.0960
 1297SOL     OW 3946   1.994   2.449   1.647  0.2148 -0.4099  0.1077
 1297SOL    HW1 3947   1.908   2.412   1.626  0.6793 -0.4906 -1.8534
 1297SOL    HW2 3948   2.049   2.373   1.667  0.1958 -0.4912 -0.1379
 1298SOL     OW 3949   1.757   0.306   4.396 -0.1180 -0.2480 -0.3646
 1298SOL    HW1 3950   1.798   0.272   4.475 -0.7010 -0.5686 -0.1948
 1298SOL    HW2 3951   1.779   0.399   4.395 -0.8457 -0.0539  0.6418
 1299SOL     OW 3952   2.471   0.647   1.881  0.0565 -0.1543 -0.4631
 1299SOL    HW1 3953   2.456   0.741   1.883  0.1062 -0.1229 -1.2896
 1299SOL    HW2 3954   2.531   0.630   1.954 -1.7820  0.1024  1.1764
 1300SOL     OW 3955   3.844   1.276   0.442 -0.3326  0.2122  0.1431
 1300SOL    HW1 3956   3.899   1.350   0.415  0.6970 -0.7697 -0.5321
 1300SOL    HW2 3957   3.866   1.262   0.534 -2.4160  2.3245  1.0688
 1301SOL     OW 3958   0.014   4.850   3.764 -0.3194  0.5126 -0.5379
 1301SOL    HW1 3959   0.031   4.799   3.685  0.0945  0.5990 -0.5054
 1301SOL    HW2 3960  -0.021   4.933   3.732 -0.2704  0.4995 -0.6268
 1302SOL     OW 3961   1.595   2.875   2.571  0.3382 -0.3306  0.2677
 1302SOL    HW1 3962   1.687   2.848   2.569 -0.4514 -3.2421 -0.2994
 1302SOL    HW2 3963   1.571   2.870   2.664  1.0571  1.8915  0.6426
 1303SOL     OW 3964   3.593   2.332   4.118 -0.0335  0.0351 -0.4691
 1303SOL    HW1 3965   3.621   2.383   4.194  2.4057 -0.1538 -1.1437
 1303SOL    HW2 3966   3.525   2.385   4.077 -0.3302  0.8486  1.0207
 1304SOL     OW 3967   4.784   4.906   0.698  0.5425  0.1452 -0.4707
 1304SOL    HW1 3968   4.757   4.836   0.758  0.8118  0.2882 -0.1774
 1304SOL    HW2 3969   4.879   4.898   0.695  0.5079 -0.0248 -1.0854
 1305SOL     OW 3970   1.509   4.711   4.006  0.4678 -0.1335 -0.0653
 1305SOL    HW1 3971   1.588   4.740   3.961 -0.3477 -1.3707 -2.4662
 1305SOL    HW2 3972   1.507   4.763   4.087  2.1944  2.0135 -1.2950
 1306SOL     OW 3973   3.246   3.631   2.274 -0.6216 -0.1467  0.4316
 1306SOL    HW1 3974   3.162   3.590   2.253 -0.3250  0.0298 -1.2370
 1306SOL    HW2 3975   3.228   3.684   2.353 -1.7126 -1.1807  0.9108
 1307SOL     OW 3976   2.143   3.553   3.090 -0.1927 -0.0940 -0.0286
 1307SOL    HW1 3977   2.148   3.467   3.048 -1.6599 -0.0183 -0.4097
 1307SOL    HW2 3978   2.177   3.614   3.024 -2.4984  0.0267 -1.1846
 1308SOL     OW 3979   0.645   0.089   3.361  0.2666  0.2792 -0.1443
 1308SOL    HW1 3980   0.599   0.126   3.286 -0.1231 -1.0402 -0.5686
 1308SOL    HW2 3981   0.595   0.119   3.437  0.8189  1.8506 -0.3495
 1309SOL     OW 3982   1.032   3.696   0.234  0.0408 -0.3138 -0.0981
 1309SOL    HW1 3983   1.018   3.642   0.312 -2.1735  0.2647 -0.0113
 1309SOL    HW2 3984   1.023   3.634   0.161 -3.7336 -0.0700 -0.0624
 1310SOL     OW 3985   0.659   1.426   1.820 -0.4928  0.0571 -0.0424
 1310SOL    HW1 3986   0.609   1.414   1.740 -0.8050  0.4410  0.0890
 1310SOL    HW2 3987   0.611   1.494   1.868  1.3933  2.1111 -0.9261
 1311SOL     OW 3988   2.331   4.232   0.315  0.1605 -0.3484  0.1013
 1311SOL    HW1 3989   2.341   4.259   0.224  0.6399 -0.0174  0.2531
 1311SOL    HW2 3990   2.337   4.313   0.366  0.1002 -0.5534  0.4435
 1312SOL     OW 3991   1.847   3.678   1.011  0.0815 -0.0174 -0.5716
 1312SOL    HW1 3992   1.801   3.710   0.934 -2.0262 -1.1227  0.1416
 1312SOL    HW2 3993   1.779   3.672   1.079  1.5739 -0.4019  0.9627
 1313SOL     OW 3994   1.510   1.991   2.761 -0.4074 -0.0280  0.2288
 1313SOL    HW1 3995   1.545   2.012   2.674 -0.8956  1.8976  0.4506
 1313SOL    HW2 3996   1.584   2.006   2.820 -0.2811 -0.6396  0.2335
 1314SOL     OW 3997   4.858   1.293   0.113 -0.3015  0.2951  0.3416
 1314SOL    HW1 3998   4.898   1.225   0.060 -0.9900  0.0777  0.0955
 1314SOL    HW2 3999   4.770   1.261   0.132 -0.7282  1.2276  0.0036
 1315SOL     OW 4000   0.322   2.871   4.324 -0.1007 -0.3584  0.6695
 1315SOL    HW1 4001   0.393   2.856   4.261 -2.7323 -0.8877 -2.4494
 1315SOL    HW2 4002   0.289   2.783   4.345 -2.8190 -0.0865 -1.8503
 1316SOL     OW 4003   4.130   4.343   2.161 -0.0635 -0.5825 -0.2504
 1316SOL    HW1 4004   4.174   4.304   2.085  0.6320  0.9269 -0.6550
 1316SOL    HW2 4005   4.070   4.275   2.191 -0.2111 -1.2973 -2.0304
 1317SOL     OW 4006   1.144   2.335   4.276  0.2580 -0.1231  0.0602
 1317SOL    HW1 4007   1.182   2.248   4.289 -0.8326 -0.7507 -0.7896
 1317SOL    HW2 4008   1.089   2.349   4.353  0.3608 -0.2173  0.1505
 1318SOL     OW 4009   4.209   3.839   4.892  0.1462  0.3586  0.2945
 1318SOL    HW1 4010   4.174   3.900   4.827 -0.6197  1.0279  1.3026
 1318SOL    HW2 4011   4.270   3.784   4.843 -1.1405  0.1917 -1.2106
 1319SOL     OW 4012   2.181   1.564   0.747  0.0323  0.0064  0.4312
 1319SOL    HW1 4013   2.094   1.543   0.781  0.2215  0.2287  1.0721
 1319SOL    HW2 4014   2.223   1.613   0.818  0.2152  1.0224 -0.3599
 1320SOL     OW 4015   2.060   4.089   2.287 -0.1712 -0.2924  0.0381
 1320SOL    HW1 4016   2.103   4.105   2.203  0.4095  0.0245  0.3893
 1320SOL    HW2 4017   1.981   4.039   2.265  1.0338 -2.0350 -0.4913
 1321SOL     OW 4018   3.455   2.866   1.395 -0.3007  0.1534 -0.6492
 1321SOL    HW1 4019   3.422   2.951   1.424 -0.8155  0.0353 -0.8776
 1321SOL    HW2 4020   3.391   2.836   1.330  0.4456  0.0766 -1.3558
 1322SOL     OW 4021   1.966   4.145   4.242 -0.0021 -0.1106 -0.1625
 1322SOL    HW1 4022   1.964   4.231   4.282 -0.6601 -0.6495  1.0268
 1322SOL    HW2 4023   2.058   4.118   4.247  0.1263  0.3280 -0.1241
 1323SOL     OW 4024   1.341   0.279   2.184 -0.1039 -0.5938  1.0474
 1323SOL    HW1 4025   1.286   0.299   2.259  0.2388  0.0592  1.1279
 1323SOL    HW2 4026   1.409   0.221   2.219 -0.0762 -0.4740  1.1928
 1324SOL     OW 4027   4.803   3.339   4.108 -0.0608 -0.2930 -0.5567
 1324SOL    HW1 4028   4.743   3.379   4.046 -2.8793  0.0873  2.1642
 1324SOL    HW2 4029   4.754   3.265   4.144  2.3548 -1.9465 -0.4088
 1325SOL     OW 4030   1.117   0.098   4.400 -0.3666  0.6944 -0.1428
 1325SOL    HW1 4031   1.177   0.074   4.470  1.4279  0.2813 -1.7278
 1325SOL    HW2 4032   1.087   0.014   4.364  0.0241  0.8604 -0.8870
 1326SOL     OW 4033   1.606   1.904   2.148 -0.0729 -0.0450 -0.3678
 1326SOL    HW1 4034   1.550   1.860   2.085 -0.0120 -2.5441  1.1690
 1326SOL    HW2 4035   1.546   1.940   2.213 -0.0443  0.8731 -0.8320
 1327SOL     OW 4036   2.317   0.349   0.872  0.0823  0.5012 -0.2884
 1327SOL    HW1 4037   2.280   0.293   0.940 -0.3591 -0.6540 -1.4469
 1327SOL    HW2 4038   2.241   0.379   0.821  0.3296  1.9713  0.1400
 1328SOL     OW 4039   4.705   2.536   1.858 -0.2149 -0.1577  0.2499
 1328SOL    HW1 4040   4.760   2.466   1.822  1.0700  0.6459  0.5940
 1328SOL    HW2 4041   4.701   2.602   1.788  1.1627  0.7960  1.0218
 1329SOL     OW 4042   1.905   1.480   3.200  0.2106 -0.4041 -0.1696
 1329SOL    HW1 4043   1.866   1.549   3.146 -1.6472 -0.8561  0.5336
 1329SOL    HW2 4044   1.914   1.519   3.287 -0.2226 -0.8290  0.0703
 1330SOL     OW 4045   3.679   2.649   2.853 -0.0461  0.2182 -0.1616
 1330SOL    HW1 4046   3.622   2.718   2.820 -0.5612 -0.6821 -1.2327
 1330SOL    HW2 4047   3.758   2.694   2.882 -0.8260  1.3638  0.2484
 1331SOL     OW 4048   1.346   4.360   0.833 -0.1091  0.2178  0.3716
 1331SOL    HW1 4049   1.306   4.309   0.903 -0.3037 -0.3888 -0.1769
 1331SOL    HW2 4050   1.440   4.354   0.848 -0.1840  1.3507  1.4601
 1332SOL     OW 4051   0.765   1.206   2.745  0.0197  0.0343  0.3172
 1332SOL    HW1 4052   0.720   1.206   2.661 -0.9866  1.5821  0.8096
 1332SOL    HW2 4053   0.790   1.114   2.759 -3.5041 -1.1166  0.2517
 1333SOL     OW 4054   4.565   2.500   2.076 -0.0655 -0.0946  0.1884
 1333SOL    HW1 4055   4.506   2.575   2.084 -0.6040 -0.5687  0.8546
 1333SOL    HW2 4056   4.596   2.503   1.986 -1.0623  0.2097 -0.1619
 1334SOL     OW 4057   4.593   2.421   3.654  0.3516  0.0682  0.9344
 1334SOL    HW1 4058   4.509   2.398   3.694 -0.4673  0.4131 -0.5194
 1334SOL    HW2 4059   4.585   2.513   3.631  1.2205  0.1652  0.9762
 1335SOL     OW 4060   1.819   1.163   2.115 -0.0757 -0.1522 -0.2084
 1335SOL    HW1 4061   1.855   1.137   2.199 -0.4317 -2.4323 -0.7163
 1335SOL    HW2 4062   1.750   1.226   2.137 -1.1502 -1.7988  1.3399
 1336SOL     OW 4063   4.633   4.659   0.829 -0.3078 -0.2890 -0.1819
 1336SOL    HW1 4064   4.546   4.668   0.790 -0.5371 -1.8970 -0.1254
 1336SOL    HW2 4065   4.617   4.645   0.922  0.1032  0.8260  0.0727
 1337SOL     OW 4066   3.100   3.011   3.294  0.5485 -0.2298  0.0720
 1337SOL    HW1 4067   3.023   2.991   3.242  0.6902 -0.4858 -0.0436
 1337SOL    HW2 4068   3.113   3.105   3.283  0.2983 -0.2008  0.0316
 1338SOL     OW 4069   1.358   0.454   4.885  0.3757  0.5273 -0.5463
 1338SOL    HW1 4070   1.417   0.445   4.811 -0.7865  0.2581 -1.4635
 1338SOL    HW2 4071   1.288   0.512   4.854  0.1544  0.8800  0.5288
 1339SOL     OW 4072   2.198   3.313   4.622 -0.3105  0.2968 -0.1435
 1339SOL    HW1 4073   2.244   3.315   4.539  0.5138 -0.5686  0.2756
 1339SOL    HW2 4074   2.107   3.293   4.599 -0.7114  2.7693 -1.0461
 1340SOL     OW 4075   0.208   4.647   4.610  0.2962 -0.3331  0.3995
 1340SOL    HW1 4076   0.239   4.588   4.541  0.4134  0.0807  0.0962
 1340SOL    HW2 4077   0.132   4.691   4.572 -0.3151 -0.8979  0.9245
 1341SOL     OW 4078   2.735   4.605   0.078  1.2527  0.3910  0.1000
 1341SOL    HW1 4079   2.810   4.615   0.019  1.2258  2.2199  0.3328
 1341SOL    HW2 4080   2.664   4.653   0.035  0.9858  0.9967  1.2009
 1342SOL     OW 4081   0.827   4.326   3.495  0.4180 -0.2589  0.4204
 1342SOL    HW1 4082   0.813   4.297   3.585  2.4370 -0.8653  0.6065
 1342SOL    HW2 4083   0.801   4.418   3.495  0.4435 -0.2358  1.6457
 1343SOL     OW 4084   2.482   2.135   4.932 -0.1804 -0.5352 -0.2400
 1343SOL    HW1 4085   2.430   2.193   4.986  1.0337 -0.7740  1.2400
 1343SOL    HW2 4086   2.563   2.183   4.913 -0.5069 -0.5102 -1.7511
 1344SOL     OW 4087   4.935   3.773   1.012 -0.0753  0.3963  0.6660
 1344SOL    HW1 4088   4.846   3.760   0.980  0.2391  0.9618 -0.5215
 1344SOL    HW2 4089   4.945   3.868   1.017  0.0460  0.3239  2.0392
 1345SOL     OW 4090   1.829   2.410   2.706 -0.2072  0.1289 -0.2073
 1345SOL    HW1 4091   1.914   2.451   2.721 -0.6771  0.6336  1.2517
 1345SOL    HW2 4092   1.808   2.366   2.789 -0.4540 -1.7442 -1.2101
 1346SOL     OW 4093   3.383   0.846   3.871 -0.1738  0.2230  0.5228
 1346SOL    HW1 4094   3.329   0.891   3.806  2.0692  1.5507 -0.5496
 1346SOL    HW2 4095   3.456   0.810   3.820  0.6523 -0.3663  2.0605
 1347SOL     OW 4096   2.230   2.583   0.972  0.4311 -0.2713  0.5420
 1347SOL    HW1 4097   2.326   2.579   0.974  0.5693 -1.8857 -2.7531
 1347SOL    HW2 4098   2.202   2.493   0.990 -0.3666 -0.2192 -0.4094
 1348SOL     OW 4099   2.895   1.168   1.643  0.4245  0.1000 -0.0783
 1348SOL    HW1 4100   2.932   1.143   1.558  1.5798  0.5875  0.2646
 1348SOL    HW2 4101   2.800   1.167   1.629  0.6091  1.6737 -1.8271
 1349SOL     OW 4102   1.508   1.244   3.913 -0.2007  1.1528 -0.3360
 1349SOL    HW1 4103   1.488   1.273   4.002  1.5963  1.1146  0.1162
 1349SOL    HW2 4104   1.437   1.183   3.891 -0.6117  1.0758  1.1117
 1350SOL     OW 4105   0.397   1.251   2.543  0.5802 -0.2715  0.2200
 1350SOL    HW1 4106   0.366   1.272   2.631 -0.1036  0.5227 -0.1911
 1350SOL    HW2 4107   0.397   1.334   2.497 -0.0164 -0.8153 -0.8109
 1351SOL     OW 4108   2.593   4.363   4.680 -0.0107  0.5193  0.2214
 1351SOL    HW1 4109   2.584   4.356   4.775 -0.3981 -0.3791  0.1284
 1351SOL    HW2 4110   2.527   4.426   4.654 -2.2893 -1.7295  0.1992
 1352SOL     OW 4111   0.491   1.538   4.398 -0.8938 -0.1459  0.0374
 1352SOL    HW1 4112   0.480   1.624   4.357  0.6299 -0.1467 -0.4287
 1352SOL    HW2 4113   0.585   1.521   4.392 -1.0325 -1.3724  1.0959
 1353SOL     OW 4114   0.162   0.222   0.590 -0.5706  0.0370  0.3683
 1353SOL    HW1 4115   0.103   0.157   0.553 -1.6877  0.9981  0.3779
 1353SOL    HW2 4116   0.232   0.230   0.526 -0.9562 -0.4490 -0.1234
 1354SOL     OW 4117   4.845   1.517   2.344 -0.8827 -0.1570  0.5639
 1354SOL    HW1 4118   4.914   1.493   2.283 -1.7015  0.9113 -0.8660
 1354SOL    HW2 4119   4.877   1.489   2.430  0.3830 -1.5590 -0.3138
 1355SOL     OW 4120   4.864   3.750   0.582  0.3505 -0.3016  0.0118
 1355SOL    HW1 4121   4.918   3.701   0.520  0.9116 -0.7672  0.8470
 1355SOL    HW2 4122   4.857   3.692   0.658 -0.0084  0.4161  0.5358
 1356SOL     OW 4123   3.172   2.500   2.634 -0.1840 -0.1654 -0.3828
 1356SOL    HW1 4124   3.197   2.544   2.553  0.8234  0.4398  0.2360
 1356SOL    HW2 4125   3.255   2.489   2.682 -0.6677 -1.1280  0.2656
 1357SOL     OW 4126   4.793   3.111   3.070 -1.2000 -0.3678  0.0526
 1357SOL    HW1 4127   4.866   3.109   3.008 -1.5108 -1.0915 -0.3110
 1357SOL    HW2 4128   4.829   3.152   3.148 -0.6323  0.0256 -0.4065
 1358SOL     OW 4129   2.260   0.716   1.022 -0.3427  0.6218 -0.2755
 1358SOL    HW1 4130   2.236   0.667   1.101  0.7509 -0.9618 -0.8757
 1358SOL    HW2 4131   2.337   0.767   1.048 -0.2609  0.4546 -0.1876
 1359SOL     OW 4132   0.461   3.455   2.215  0.2381 -0.0265  0.4396
 1359SOL    HW1 4133   0.488   3.520   2.280 -0.5642 -0.7767  1.5556
 1359SOL    HW2 4134   0.515   3.475   2.138 -1.3185  3.1843  0.0219
 1360SOL     OW 4135   3.112   4.442   2.273 -0.3411  0.7114  0.1296
 1360SOL    HW1 4136   3.134   4.359   2.230 -1.9151  0.3221  0.0439
 1360SOL    HW2 4137   3.060   4.418   2.349 -2.0626  1.6648 -0.6895
 1361SOL     OW 4138   2.132   2.443   4.014  0.3519 -0.4426  0.2904
 1361SOL    HW1 4139   2.066   2.423   3.948 -0.1143 -0.3527  0.7270
 1361SOL    HW2 4140   2.140   2.538   4.012  1.0088 -0.5002 -0.2766
 1362SOL     OW 4141   3.797   2.390   1.319  0.1353  0.5329  1.1896
 1362SOL    HW1 4142   3.719   2.426   1.361  0.2529  1.5896  0.5529
 1362SOL    HW2 4143   3.870   2.436   1.361  0.4067 -0.1608  1.5019
 1363SOL     OW 4144   4.680   3.055   4.105  0.4460  1.3077 -0.1710
 1363SOL    HW1 4145   4.749   3.006   4.060 -0.8849 -1.3568  0.4571
 1363SOL    HW2 4146   4.625   3.090   4.036 -0.2825 -0.7827 -0.7244
 1364SOL     OW 4147   0.408   1.370   0.680  0.1733 -0.5185 -0.0749
 1364SOL    HW1 4148   0.497   1.401   0.692  0.2511  0.5684 -2.6595
 1364SOL    HW2 4149   0.411   1.320   0.599 -1.6431  0.0914 -0.5805
 1365SOL     OW 4150   0.527   1.569   1.286 -0.3175  0.4751 -0.0645
 1365SOL    HW1 4151   0.453   1.571   1.226 -1.2804 -1.4282  0.9890
 1365SOL    HW2 4152   0.508   1.637   1.351 -0.9673  0.2340  0.0021
 1366SOL     OW 4153   0.923   2.787   4.759 -0.6622 -0.0226 -0.1133
 1366SOL    HW1 4154   0.982   2.803   4.832 -1.6048 -1.5822  1.0660
 1366SOL    HW2 4155   0.853   2.852   4.770 -0.2184  0.4919 -0.3115
 1367SOL     OW 4156   0.715   4.493   0.171 -0.1605 -0.3217 -0.2857
 1367SOL    HW1 4157   0.649   4.427   0.195  0.0743  0.0112  1.3871
 1367SOL    HW2 4158   0.746   4.528   0.254  2.3179 -0.6165 -0.9882
 1368SOL     OW 4159   1.885   3.336   3.703 -0.2594 -0.1589 -0.1773
 1368SOL    HW1 4160   1.847   3.344   3.616 -5.3258  2.4660  1.8106
 1368SOL    HW2 4161   1.865   3.247   3.731  0.6964 -0.7596 -1.3571
 1369SOL     OW 4162   4.411   3.510   0.625  0.5271 -0.0622  0.5304
 1369SOL    HW1 4163   4.326   3.529   0.665  0.6446  0.4363  0.5515
 1369SOL    HW2 4164   4.432   3.590   0.575  1.3147  0.0942  1.1022
 1370SOL     OW 4165   1.926   3.129   4.619 -0.2866 -0.3153  0.2691
 1370SOL    HW1 4166   1.964   3.057   4.670  0.2215  0.4890  1.0530
 1370SOL    HW2 4167   1.836   3.101   4.601  0.2364 -1.6359 -0.4209
 1371SOL     OW 4168   2.674   3.183   0.689 -0.3684 -0.3098 -0.2500
 1371SOL    HW1 4169   2.597   3.126   0.686 -0.1248 -0.6621  0.1516
 1371SOL    HW2 4170   2.746   3.131   0.655 -0.0197 -0.4569  0.6884
 1372SOL     OW 4171   1.926   3.102   2.253 -0.3117 -0.3824 -0.4042
 1372SOL    HW1 4172   2.003   3.051   2.279  0.7543  0.2873 -2.0553
 1372SOL    HW2 4173   1.910   3.160   2.328  0.6957 -0.6540  0.0466
 1373SOL     OW 4174   4.174   0.531   0.063 -0.1066 -0.2672  0.0978
 1373SOL    HW1 4175   4.128   0.527   0.147  1.1660 -2.9866  0.7805
 1373SOL    HW2 4176   4.266   0.541   0.087  0.5464 -3.2338 -0.7334
 1374SOL     OW 4177   4.398   4.192   0.198  1.4401  0.1610  0.0549
 1374SOL    HW1 4178   4.412   4.145   0.116 -2.0740 -0.1362 -0.5339
 1374SOL    HW2 4179   4.371   4.280   0.171 -0.5705 -0.1820  0.7961
 1375SOL     OW 4180   2.108   4.808   3.335  0.3843 -0.3713 -0.0051
 1375SOL    HW1 4181   2.060   4.881   3.375  2.3456  0.9761  0.0537
 1375SOL    HW2 4182   2.151   4.847   3.259 -0.6304 -2.1381 -1.5568
 1376SOL     OW 4183   4.157   0.970   2.472  0.2475  0.2106  0.6413
 1376SOL    HW1 4184   4.180   1.062   2.460 -1.3039  0.5855  0.3107
 1376SOL    HW2 4185   4.083   0.971   2.533 -0.7742 -0.6748 -0.5285
 1377SOL     OW 4186   4.698   1.995   4.839  0.8319  0.6163 -0.2873
 1377SOL    HW1 4187   4.604   2.009   4.841  0.7067  0.4748 -2.4260
 1377SOL    HW2 4188   4.735   2.064   4.894 -0.4910  0.9677  0.1726
 1378SOL     OW 4189   4.085   4.222   0.048 -0.3956 -0.0159  0.1416
 1378SOL    HW1 4190   4.078   4.267  -0.036  0.7547 -0.4435 -0.1992
 1378SOL    HW2 4191   4.122   4.286   0.107 -1.2471  0.2995  0.3537
 1379SOL     OW 4192   2.371   3.340   3.272 -0.2506  0.4276  0.4934
 1379SOL    HW1 4193   2.330   3.427   3.281  1.0278  0.9329  1.7396
 1379SOL    HW2 4194   2.337   3.291   3.346 -0.2397  0.1633  0.3225
 1380SOL     OW 4195   4.568   3.096   1.736 -0.0692  0.3266  0.2604
 1380SOL    HW1 4196   4.610   3.033   1.794  0.6676 -0.5216 -1.1629
 1380SOL    HW2 4197   4.511   3.148   1.794 -0.7942 -1.7029  1.4494
 1381SOL     OW 4198   2.947   2.353   4.724  0.2878 -0.2742  0.5425
 1381SOL    HW1 4199   2.886   2.426   4.729 -0.0725 -0.6436  2.1177
 1381SOL    HW2 4200   3.034   2.394   4.724  0.0685  0.1909 -0.0125
 1382SOL     OW 4201   0.461   0.462   2.134 -0.2455 -0.1406 -0.1499
 1382SOL    HW1 4202   0.532   0.427   2.188 -0.3518  1.0787  0.8039
 1382SOL    HW2 4203   0.384   0.457   2.190 -0.2821  1.5180 -0.0320
 1383SOL     OW 4204   2.943   4.783   0.486 -0.1219 -0.3028  0.1050
 1383SOL    HW1 4205   3.023   4.828   0.512 -0.8507  0.2181  1.6082
 1383SOL    HW2 4206   2.890   4.782   0.566 -0.4675 -3.1742 -0.0806
 1384SOL     OW 4207   0.063   4.290   3.035 -0.3457 -0.3521  0.1335
 1384SOL    HW1 4208   0.040   4.213   2.983  0.3955  0.0749 -0.8425
 1384SOL    HW2 4209   0.002   4.358   3.007  0.4743  0.0687 -0.6789
 1385SOL     OW 4210   4.398   1.610   4.829 -0.3999  0.1220 -0.1495
 1385SOL    HW1 4211   4.467   1.669   4.797 -1.2511  1.0817 -0.2588
 1385SOL    HW2 4212   4.318   1.642   4.788 -1.1048 -0.2282  0.9166
 1386SOL     OW 4213   3.328   2.374   3.791 -0.5702  0.3612 -0.1528
 1386SOL    HW1 4214   3.346   2.441   3.857 -0.4310 -0.5876  0.8136
 1386SOL    HW2 4215   3.318   2.293   3.842 -0.0007 -0.4842 -1.3370
 1387SOL     OW 4216   4.652   1.976   0.478  0.6626 -0.1178  0.4841
 1387SOL    HW1 4217   4.685   1.900   0.526  0.7773 -0.1638  0.3357
 1387SOL    HW2 4218   4.699   2.050   0.515  2.1574 -0.3535 -0.8028
 1388SOL     OW 4219   0.312   2.315   3.325  0.4841 -0.0595 -0.5193
 1388SOL    HW1 4220   0.316   2.411   3.320 -0.5556 -0.0699 -3.3597
 1388SOL    HW2 4221   0.356   2.294   3.407  0.7426  2.8413  0.2104
 1389SOL     OW 4222   2.430   1.685   0.890 -0.1809  0.0517  0.5979
 1389SOL    HW1 4223   2.443   1.778   0.876 -1.0912  0.3659  1.6377
 1389SOL    HW2 4224   2.449   1.644   0.806 -0.4091  1.2473 -0.0480
 1390SOL     OW 4225   1.855   4.285   4.023 -0.2165  0.5039 -0.3101
 1390SOL    HW1 4226   1.890   4.221   4.085  0.2031  1.2034  0.1860
 1390SOL    HW2 4227   1.796   4.339   4.076  0.9185  1.7422 -0.2849
 1391SOL     OW 4228   0.708   0.606   4.404  0.4788  0.1646  0.4040
 1391SOL    HW1 4229   0.750   0.657   4.335  0.3480 -0.7603 -0.3900
 1391SOL    HW2 4230   0.780   0.577   4.460  0.8769 -0.9100 -0.6093
 1392SOL     OW 4231   4.356   2.094   1.680 -0.1338  0.2910  0.2306
 1392SOL    HW1 4232   4.425   2.028   1.693 -0.8494 -0.8577 -1.4706
 1392SOL    HW2 4233   4.276   2.043   1.668 -1.2367  1.5922  1.6601
 1393SOL     OW 4234   2.041   4.057   0.680 -0.1370  0.2253  0.1322
 1393SOL    HW1 4235   2.116   4.111   0.706 -0.7532  1.6432 -0.8531
 1393SOL    HW2 4236   2.067   4.018   0.597  1.1191 -2.8096  1.8043
 1394SOL     OW 4237   1.633   3.093   0.999  0.3434 -0.0018  0.2320
 1394SOL    HW1 4238   1.720   3.059   0.978  0.3731 -0.3002  0.8026
 1394SOL    HW2 4239   1.575   3.052   0.935  0.4041 -1.0317  0.8060
 1395SOL     OW 4240   3.583   2.795   2.131 -0.5859  0.1605 -0.2022
 1395SOL    HW1 4241   3.631   2.718   2.101 -0.3455  0.7645 -1.3798
 1395SOL    HW2 4242   3.585   2.856   2.058 -3.2754  0.1554 -0.3894
 1396SOL     OW 4243   4.532   0.503   0.881  0.0682  0.3264 -0.3943
 1396SOL    HW1 4244   4.576   0.433   0.930 -0.6383 -0.1827 -0.4767
 1396SOL    HW2 4245   4.464   0.458   0.830 -0.8213  1.1448  0.0426
 1397SOL     OW 4246   4.007   3.548   0.974 -0.3387 -0.1871 -0.8215
 1397SOL    HW1 4247   3.959   3.627   0.950 -1.9479 -0.9815 -0.3419
 1397SOL    HW2 4248   4.067   3.576   1.043 -0.7643  0.6485 -0.7812
 1398SOL     OW 4249   3.505   1.871   1.802  0.1459  0.1104 -0.1775
 1398SOL    HW1 4250   3.567   1.844   1.733  0.6023 -2.0202  0.9990
 1398SOL    HW2 4251   3.532   1.822   1.879 -1.8423  0.6119  0.9014
 1399SOL     OW 4252   1.699   0.011   0.304  0.0815 -0.2123  0.0161
 1399SOL    HW1 4253   1.678   0.027   0.396 -1.7011 -0.0055 -0.3904
 1399SOL    HW2 4254   1.626   0.049   0.255  2.0217  1.6822 -1.6420
 1400SOL     OW 4255   4.247   4.219   1.635  0.0473 -0.0808 -0.1646
 1400SOL    HW1 4256   4.294   4.275   1.697  1.7664 -2.1521  0.5581
 1400SOL    HW2 4257   4.261   4.260   1.550  1.0383  0.7432  0.3738
 1401SOL     OW 4258   3.994   0.385   0.591 -0.2428  0.2065  1.2017
 1401SOL    HW1 4259   4.004   0.307   0.644  0.5437 -0.4377  0.1525
 1401SOL    HW2 4260   4.064   0.443   0.619  1.6783 -1.0658 -0.6347
 1402SOL     OW 4261   4.677   1.534   2.111  0.1241 -0.0622 -0.0062
 1402SOL    HW1 4262   4.639   1.621   2.117  2.8951  1.2202  0.3315
 1402SOL    HW2 4263   4.729   1.525   2.191  0.7334 -1.5749 -0.5292
 1403SOL     OW 4264   4.508   2.555   0.797  0.2900  0.3334  0.6070
 1403SOL    HW1 4265   4.536   2.582   0.885 -0.3251  0.4662  0.7702
 1403SOL    HW2 4266   4.487   2.637   0.753  1.8752  0.3638 -0.1217
 1404SOL     OW 4267   2.502   0.575   0.927 -0.5996 -0.3189  0.2774
 1404SOL    HW1 4268   2.453   0.498   0.954 -1.0690  0.6399  2.3510
 1404SOL    HW2 4269   2.461   0.648   0.974  0.7312  0.9917 -0.4848
 1405SOL     OW 4270   2.624   2.897   4.343  0.0889  0.0988 -0.0675
 1405SOL    HW1 4271   2.592   2.831   4.406  1.9027 -0.4255  0.3650
 1405SOL    HW2 4272   2.547   2.948   4.322 -0.6361  0.2828  2.5925
 1406SOL     OW 4273   3.642   4.350   1.114 -0.3017  0.2012  0.0846
 1406SOL    HW1 4274   3.646   4.350   1.209 -0.8340 -0.6426  0.1164
 1406SOL    HW2 4275   3.594   4.431   1.092  0.2878  0.6689  0.4965
 1407SOL     OW 4276   3.199   1.456   1.130 -0.6504  0.4873 -0.6262
 1407SOL    HW1 4277   3.225   1.540   1.168  1.5068 -1.2026  1.9540
 1407SOL    HW2 4278   3.125   1.427   1.183  1.2486 -1.0491  1.3930
 1408SOL     OW 4279   1.830   4.617   0.666  0.2277 -0.9959 -0.0002
 1408SOL    HW1 4280   1.761   4.588   0.606 -0.4159  0.5695 -0.0536
 1408SOL    HW2 4281   1.911   4.581   0.629 -0.4541 -2.2129 -0.3593
 1409SOL     OW 4282   1.261   1.940   0.627 -0.3181 -0.5756 -0.4321
 1409SOL    HW1 4283   1.168   1.950   0.644 -0.5530 -0.0907 -1.8719
 1409SOL    HW2 4284   1.265   1.881   0.552  0.6789 -3.1060  1.4449
 1410SOL     OW 4285   2.626   0.460   3.296 -0.3914  0.0920 -0.1242
 1410SOL    HW1 4286   2.637   0.376   3.252 -0.7401 -0.1730  0.2868
 1410SOL    HW2 4287   2.647   0.525   3.229  0.6060 -0.3295 -0.2347
 1411SOL     OW 4288   4.856   4.258   2.336 -0.2454 -0.2597  0.3391
 1411SOL    HW1 4289   4.890   4.276   2.248 -1.2294  1.5229  0.2789
 1411SOL    HW2 4290   4.773   4.213   2.320  0.0516 -0.8517  0.4068
 1412SOL     OW 4291   1.092   1.646   2.491  0.0909 -0.4936  0.3599
 1412SOL    HW1 4292   1.146   1.718   2.460 -0.8288  0.6313  1.2660
 1412SOL    HW2 4293   1.105   1.576   2.427  2.0117 -0.0004  0.1732
 1413SOL     OW 4294   4.404   0.764   1.469  0.7078  0.6163  0.4634
 1413SOL    HW1 4295   4.400   0.746   1.563  1.4024  2.1822  0.8229
 1413SOL    HW2 4296   4.343   0.836   1.455  0.1864  0.0343 -0.4116
 1414SOL     OW 4297   1.996   1.044   3.446  0.0712 -0.0490  0.6811
 1414SOL    HW1 4298   1.949   1.041   3.362  1.0849  0.3476  0.0708
 1414SOL    HW2 4299   1.930   1.025   3.512 -0.4700 -1.7780 -0.3063
 1415SOL     OW 4300   0.989   2.684   3.608 -0.0073  0.3991  0.2610
 1415SOL    HW1 4301   0.989   2.765   3.659  0.2099  0.1695  0.6330
 1415SOL    HW2 4302   1.050   2.701   3.536  1.6109 -0.1031  1.4543
 1416SOL     OW 4303   3.803   2.010   2.266  0.0095 -0.8308  0.6261
 1416SOL    HW1 4304   3.865   2.008   2.339 -0.6453 -0.7646  1.1876
 1416SOL    HW2 4305   3.750   1.931   2.277 -0.7949 -0.2759  0.8450
 1417SOL     OW 4306   0.365   0.055   4.433 -0.1994 -0.3392  0.7199
 1417SOL    HW1 4307   0.279   0.079   4.466 -0.5307  1.2714 -1.1292
 1417SOL    HW2 4308   0.356   0.060   4.337  1.7609 -0.7718  0.4746
 1418SOL     OW 4309   4.441   2.887   4.544  1.0130  0.4617  0.3549
 1418SOL    HW1 4310   4.462   2.967   4.593  1.8950  1.6667 -1.8501
 1418SOL    HW2 4311   4.476   2.903   4.456 -3.4950 -0.0416 -1.8185
 1419SOL     OW 4312   0.630   1.997   3.589  0.3921  0.4986  0.2041
 1419SOL    HW1 4313   0.697   2.040   3.642  0.0252  0.0041  1.0781
 1419SOL    HW2 4314   0.655   2.017   3.499  0.3608  2.3571  0.5691
 1420SOL     OW 4315   3.232   4.007   1.812 -0.6965 -0.4773  0.1830
 1420SOL    HW1 4316   3.224   3.975   1.902 -2.3467 -0.5200  0.0498
 1420SOL    HW2 4317   3.325   4.028   1.803 -0.4140 -0.8676  1.7563
 1421SOL     OW 4318   3.476   3.463   0.813 -0.5593 -0.0692  0.1047
 1421SOL    HW1 4319   3.440   3.531   0.870 -0.8899  1.4556 -1.8218
 1421SOL    HW2 4320   3.569   3.460   0.836 -0.9482 -0.6141  1.7605
 1422SOL     OW 4321   0.833   4.186   4.877  0.3100  0.1964  0.9377
 1422SOL    HW1 4322   0.874   4.143   4.802 -0.6913 -0.0711  0.5250
 1422SOL    HW2 4323   0.862   4.134   4.952 -0.6169 -1.0540  0.4758
 1423SOL     OW 4324   3.114   1.974   3.771  0.3900  0.1148 -0.1051
 1423SOL    HW1 4325   3.088   1.988   3.862  0.9892 -2.8925  0.6172
 1423SOL    HW2 4326   3.185   2.038   3.757  1.1021 -0.1471  1.9431
 1424SOL     OW 4327   2.801   0.453   2.630 -0.3240 -0.1491 -0.7014
 1424SOL    HW1 4328   2.880   0.466   2.579 -0.5360 -0.3049 -1.0697
 1424SOL    HW2 4329   2.762   0.373   2.595 -0.7083 -0.0063 -0.6036
 1425SOL     OW 4330   0.528   2.816   0.722 -0.7554  0.2232  0.2697
 1425SOL    HW1 4331   0.488   2.736   0.756 -2.5052  0.4259 -1.1318
 1425SOL    HW2 4332   0.621   2.796   0.715 -1.0077 -1.3035  0.9656
 1426SOL     OW 4333   4.559   0.540   2.548  0.2972 -0.7222 -0.3048
 1426SOL    HW1 4334   4.638   0.568   2.594  0.6258 -0.6171 -0.9280
 1426SOL    HW2 4335   4.492   0.535   2.616  0.5607  0.2759  0.0360
 1427SOL     OW 4336   4.610  -0.010   2.154  0.1678 -0.5823  0.0966
 1427SOL    HW1 4337   4.677   0.025   2.213  0.1686 -0.7202  0.1782
 1427SOL    HW2 4338   4.613   0.048   2.078 -1.3156  0.9419  1.1056
 1428SOL     OW 4339   2.538   3.770   4.028  0.2568 -0.1952 -0.3907
 1428SOL    HW1 4340   2.632   3.785   4.037  0.1712  0.0032  0.2234
 1428SOL    HW2 4341   2.530   3.705   3.958  0.8572 -0.3408 -0.3271
 1429SOL     OW 4342   2.002   4.406   0.546  0.0318 -0.5451 -0.4840
 1429SOL    HW1 4343   2.040   4.323   0.573 -1.1777 -0.5020  1.5319
 1429SOL    HW2 4344   1.935   4.382   0.482 -0.1942 -1.1147 -0.0394
 1430SOL     OW 4345   0.898   0.919   1.601  0.6454  0.3040 -0.1453
 1430SOL    HW1 4346   0.942   0.834   1.597  0.5689  0.2673 -0.2247
 1430SOL    HW2 4347   0.805   0.898   1.590  0.4176  0.2134  1.6265
 1431SOL     OW 4348   3.487   1.210   3.372 -0.0762  0.7501  0.2756
 1431SOL    HW1 4349   3.473   1.273   3.443 -0.0647  1.8920 -0.6987
 1431SOL    HW2 4350   3.399   1.195   3.337 -0.0781  0.2100  0.5107
 1432SOL     OW 4351   0.995   1.741   2.035  0.0127 -0.0776  0.1146
 1432SOL    HW1 4352   0.952   1.800   2.096 -1.9055 -0.4271 -0.8296
 1432SOL    HW2 4353   1.069   1.705   2.084  0.8119  2.4884  0.9642
 1433SOL     OW 4354   4.184   1.724   0.532 -0.4556 -0.1216  0.1298
 1433SOL    HW1 4355   4.218   1.658   0.472  1.1678  1.3919 -0.7265
 1433SOL    HW2 4356   4.256   1.787   0.542 -1.2771  0.5747  2.3510
 1434SOL     OW 4357   2.491   0.770   1.126  0.0846 -0.2511 -0.1353
 1434SOL    HW1 4358   2.548   0.745   1.198  0.0388 -4.2999 -1.2919
 1434SOL    HW2 4359   2.537   0.843   1.084  1.5804  0.2456  2.1825
 1435SOL     OW 4360   4.733   0.620   4.106  0.5972 -0.7676  0.3173
 1435SOL    HW1 4361   4.644   0.629   4.070  0.4257 -0.5008  0.8029
 1435SOL    HW2 4362   4.726   0.650   4.196  1.2062 -0.6564  0.3327
 1436SOL     OW 4363   1.899   0.396   0.147  0.1983  0.3590  0.2745
 1436SOL    HW1 4364   1.897   0.320   0.089 -0.6738 -0.3132  1.1647
 1436SOL    HW2 4365   1.876   0.470   0.090 -0.4489 -0.2609 -0.2930
 1437SOL     OW 4366   1.310   0.021   4.635 -0.0546  0.0475 -0.6406
 1437SOL    HW1 4367   1.398  -0.015   4.637 -0.1808 -0.2535 -0.5159
 1437SOL    HW2 4368   1.297   0.058   4.723  0.5902  1.6494 -1.1798
 1438SOL     OW 4369   1.280   2.649   2.110  0.1036  0.1738 -0.8675
 1438SOL    HW1 4370   1.202   2.635   2.163 -0.2553  3.1183 -0.4442
 1438SOL    HW2 4371   1.343   2.690   2.169  1.0646  0.1084 -1.8112
 1439SOL     OW 4372   4.542   2.270   2.975  0.2909  0.0823  0.6269
 1439SOL    HW1 4373   4.542   2.193   3.032 -2.3410  1.0882  2.1330
 1439SOL    HW2 4374   4.598   2.333   3.020 -0.8712  0.4676  1.5815
 1440SOL     OW 4375   2.715   2.325   3.484  0.7464  0.0409 -0.6090
 1440SOL    HW1 4376   2.731   2.232   3.498 -0.4410 -0.1767 -0.5897
 1440SOL    HW2 4377   2.773   2.348   3.411  3.1966  0.0073  1.1791
 1441SOL     OW 4378   0.154   1.621   2.080 -0.1711  0.2971 -0.2448
 1441SOL    HW1 4379   0.247   1.621   2.058 -0.1932  1.2813 -0.3985
 1441SOL    HW2 4380   0.112   1.577   2.006  0.1737 -0.2023 -0.1459
 1442SOL     OW 4381   4.591   3.839   2.469 -0.0261  0.2222  0.5725
 1442SOL    HW1 4382   4.543   3.919   2.488 -0.5727 -0.3386  1.6631
 1442SOL    HW2 4383   4.668   3.843   2.526  0.7741  0.6869 -0.5072
 1443SOL     OW 4384   3.743   0.874   4.143  0.4486  0.1457  0.1796
 1443SOL    HW1 4385   3.828   0.864   4.187  0.5899  1.0448  0.1390
 1443SOL    HW2 4386   3.729   0.791   4.098  0.5645 -0.5911  1.4657
 1444SOL     OW 4387   3.460   4.020   4.770 -0.0135 -0.4191 -0.2509
 1444SOL    HW1 4388   3.484   3.929   4.750 -0.1622  0.0119 -2.7632
 1444SOL    HW2 4389   3.444   4.059   4.684 -1.9423  1.4557  0.8865
 1445SOL     OW 4390   1.651   3.560   3.480 -0.2163 -0.0035 -0.4671
 1445SOL    HW1 4391   1.577   3.522   3.526 -0.4598  1.1070  0.1064
 1445SOL    HW2 4392   1.723   3.560   3.544 -0.0320 -0.1170 -0.6737
 1446SOL     OW 4393   3.480   4.377   4.753 -0.1488 -0.5033 -0.4841
 1446SOL    HW1 4394   3.408   4.435   4.778  0.5358  0.2900 -0.3044
 1446SOL    HW2 4395   3.486   4.315   4.826  0.1761  0.2183  0.1166
 1447SOL     OW 4396   2.670   3.844   3.781 -1.0585  0.4159 -0.1113
 1447SOL    HW1 4397   2.654   3.937   3.797 -0.5576  0.3246  1.0206
 1447SOL    HW2 4398   2.729   3.817   3.852 -0.7623 -0.6410 -0.7334
 1448SOL     OW 4399   0.314   0.933   2.168  0.4410  0.1914  0.2029
 1448SOL    HW1 4400   0.276   1.015   2.136  0.1904  0.6519  1.6104
 1448SOL    HW2 4401   0.331   0.949   2.261 -0.7107 -1.7333  0.8015
 1449SOL     OW 4402   0.016   0.481   4.922  0.3572  0.5240  0.4798
 1449SOL    HW1 4403  -0.062   0.428   4.938 -0.2873  1.4493  0.5017
 1449SOL    HW2 4404   0.082   0.418   4.891 -0.3660 -0.2846  0.5356
 1450SOL     OW 4405   0.118   4.856   2.577 -0.0296  0.1113 -0.2536
 1450SOL    HW1 4406   0.177   4.822   2.509  0.6911  0.3099  0.2658
 1450SOL    HW2 4407   0.039   4.802   2.568  0.6401 -0.9058 -0.2363
 1451SOL     OW 4408   1.891   0.469   2.878 -0.0975  0.1751 -0.5005
 1451SOL    HW1 4409   1.823   0.402   2.879 -0.8623  0.8726 -2.1024
 1451SOL    HW2 4410   1.935   0.460   2.963  0.1292 -2.6315 -0.8213
 1452SOL     OW 4411   3.929   2.290   3.270 -0.0951 -0.3564  0.1126
 1452SOL    HW1 4412   3.880   2.298   3.352 -2.1168 -0.0869 -1.0651
 1452SOL    HW2 4413   3.901   2.365   3.218 -0.5628 -1.7128 -1.6718
 1453SOL     OW 4414   3.882   2.464   3.789  0.2852 -0.1401 -0.1586
 1453SOL    HW1 4415   3.794   2.455   3.751 -0.1472  1.1033  0.4777
 1453SOL    HW2 4416   3.885   2.555   3.819  1.6732 -0.2711  0.1494
 1454SOL     OW 4417   0.864   1.394   3.955  0.3267 -0.1912  0.7275
 1454SOL    HW1 4418   0.834   1.418   3.867  1.0383 -3.7117 -0.6818
 1454SOL    HW2 4419   0.784   1.367   4.001  0.1285  0.2249  0.6286
 1455SOL     OW 4420   1.716   0.618   4.855  0.5289  0.2327  0.1074
 1455SOL    HW1 4421   1.792   0.578   4.813  1.2456  1.6866 -0.0773
 1455SOL    HW2 4422   1.646   0.554   4.846  1.4765 -0.7345 -0.6034
 1456SOL     OW 4423   3.176   1.323   0.893  0.1696  0.5891 -0.2509
 1456SOL    HW1 4424   3.197   1.385   0.824 -0.7527  1.0640 -0.1197
 1456SOL    HW2 4425   3.180   1.374   0.974  0.6272  0.1800 -0.0073
 1457SOL     OW 4426   0.949   4.170   1.643 -0.3084 -0.7214  0.5331
 1457SOL    HW1 4427   0.908   4.257   1.647 -0.4670 -0.7889  0.3621
 1457SOL    HW2 4428   0.906   4.120   1.712  0.0933 -0.5317  0.9260
 1458SOL     OW 4429   1.448   4.498   1.820 -0.7123  0.0803  0.2005
 1458SOL    HW1 4430   1.428   4.589   1.795 -0.1429 -0.2744 -1.7043
 1458SOL    HW2 4431   1.528   4.477   1.772 -0.6273 -1.3234  0.9045
 1459SOL     OW 4432   1.751   2.639   1.862  0.4013 -0.5380  0.2437
 1459SOL    HW1 4433   1.820   2.639   1.928 -1.1008  1.9191  1.9801
 1459SOL    HW2 4434   1.686   2.577   1.895  0.8590 -1.3518 -0.3612
 1460SOL     OW 4435   4.217   1.500   2.570  0.0969  0.4685 -0.2359
 1460SOL    HW1 4436   4.290   1.495   2.632  0.7559  0.8995 -0.9617
 1460SOL    HW2 4437   4.147   1.451   2.613  1.0778 -0.7044  0.1035
 1461SOL     OW 4438   2.152   4.923   0.875 -0.4733  0.9766 -0.4912
 1461SOL    HW1 4439   2.206   4.848   0.848 -0.8049  0.2246  0.8299
 1461SOL    HW2 4440   2.196   4.957   0.952 -1.6975  0.5458  0.4239
 1462SOL     OW 4441   4.759   0.173   3.193  0.3840 -0.2901 -1.1098
 1462SOL    HW1 4442   4.767   0.259   3.152 -0.3468  0.1647 -0.3268
 1462SOL    HW2 4443   4.702   0.124   3.133 -0.2101  0.1854 -0.9480
 1463SOL     OW 4444   3.672   0.728   1.547  0.0845 -0.2417  0.1036
 1463SOL    HW1 4445   3.760   0.698   1.525  0.9644  1.4216  1.1670
 1463SOL    HW2 4446   3.680   0.768   1.634 -1.2402  1.8207 -0.6384
 1464SOL     OW 4447   4.270   3.912   2.095 -0.2900 -0.3917 -0.2597
 1464SOL    HW1 4448   4.195   3.857   2.119  1.5076 -2.2213  1.5147
 1464SOL    HW2 4449   4.326   3.855   2.043  0.2227  0.7343 -0.9761
 1465SOL     OW 4450   3.629   1.789   2.365 -0.1661  0.0074  0.0530
 1465SOL    HW1 4451   3.568   1.825   2.429  2.2080  3.2267  0.7382
 1465SOL    HW2 4452   3.686   1.732   2.417  0.5982  1.1344  0.4715
 1466SOL     OW 4453   2.231   1.518   4.350  0.2670  0.2746 -0.1774
 1466SOL    HW1 4454   2.239   1.607   4.314  0.8770  0.8769  1.3632
 1466SOL    HW2 4455   2.301   1.469   4.307  0.8814  0.9406  0.0296
 1467SOL     OW 4456   3.241   1.595   3.093 -0.6160 -0.1989  0.4248
 1467SOL    HW1 4457   3.153   1.557   3.093 -1.1483  0.9699 -0.3590
 1467SOL    HW2 4458   3.232   1.676   3.044  0.5106  0.8864  1.9365
 1468SOL     OW 4459   2.773   0.559   0.015  0.4501  0.5041 -0.4873
 1468SOL    HW1 4460   2.692   0.585   0.060  1.2408  2.4587 -0.0924
 1468SOL    HW2 4461   2.803   0.482   0.062 -1.4857 -0.6776 -1.0481
 1469SOL     OW 4462   3.519   2.002   3.122  0.0506  0.2077 -0.8585
 1469SOL    HW1 4463   3.580   1.963   3.185 -0.2934 -0.5474 -0.9745
 1469SOL    HW2 4464   3.434   1.998   3.165  0.0983  1.3817 -0.6464
 1470SOL     OW 4465   2.060   3.572   0.080  0.1108 -0.2949  0.1775
 1470SOL    HW1 4466   2.041   3.558   0.173 -0.1249 -0.9673  0.0344
 1470SOL    HW2 4467   1.974   3.574   0.038  0.0021  2.8611  0.3117
 1471SOL     OW 4468   2.235   3.663   3.862 -0.2142  0.8125  0.0111
 1471SOL    HW1 4469   2.199   3.605   3.794  1.9759 -1.0046  0.2855
 1471SOL    HW2 4470   2.311   3.704   3.821  0.1705  0.9706  0.8701
 1472SOL     OW 4471   0.862   2.505   0.845  0.0819  0.2202  0.0212
 1472SOL    HW1 4472   0.845   2.443   0.916 -0.1747  0.0955 -0.1475
 1472SOL    HW2 4473   0.933   2.465   0.794 -1.0957 -0.6951 -0.9747
 1473SOL     OW 4474   3.809   1.311   2.952  0.2943  0.0961 -0.5596
 1473SOL    HW1 4475   3.868   1.306   3.027 -0.0559  1.9042 -0.1194
 1473SOL    HW2 4476   3.752   1.235   2.962  0.8396 -0.1913  0.4969
 1474SOL     OW 4477   4.330   4.037   3.267 -0.2833  0.2516  0.1958
 1474SOL    HW1 4478   4.326   3.960   3.210 -0.2787  1.8435 -2.1090
 1474SOL    HW2 4479   4.338   4.001   3.355  2.4876 -2.4201 -0.9339
 1475SOL     OW 4480   4.552   3.722   4.473 -0.1113  0.3547  0.1719
 1475SOL    HW1 4481   4.599   3.656   4.525  1.3462  0.8530 -0.4471
 1475SOL    HW2 4482   4.477   3.747   4.527  0.4598 -0.3228  1.3126
 1476SOL     OW 4483   1.000   3.521   2.886  0.4058 -0.7278 -0.2546
 1476SOL    HW1 4484   0.921   3.546   2.838 -0.1003  0.0130  0.9038
 1476SOL    HW2 4485   0.987   3.558   2.974  1.2025 -2.1864  0.5137
 1477SOL     OW 4486   1.441   4.511   0.263  0.1706 -0.7429 -0.5876
 1477SOL    HW1 4487   1.355   4.470   0.253 -0.8709  0.9043  0.9588
 1477SOL    HW2 4488   1.478   4.470   0.342 -0.5304  0.6300  0.4948
 1478SOL     OW 4489   1.876   4.725   1.659  0.3680  0.0393 -0.0018
 1478SOL    HW1 4490   1.953   4.760   1.704  1.1830 -1.0335 -0.5253
 1478SOL    HW2 4491   1.806   4.733   1.723  1.5023 -1.4942  1.5102
 1479SOL     OW 4492   4.885   4.628   4.131 -0.3288 -0.3924  0.0290
 1479SOL    HW1 4493   4.937   4.679   4.193 -0.9697 -0.0778  0.3178
 1479SOL    HW2 4494   4.932   4.545   4.124  1.8371  0.8625 -1.9272
 1480SOL     OW 4495   1.959   1.158   4.978  0.8468  0.6836 -0.1459
 1480SOL    HW1 4496   2.011   1.221   5.028 -1.0292  2.8208 -0.7459
 1480SOL    HW2 4497   1.958   1.192   4.889  2.6150 -2.1007 -1.3936
 1481SOL     OW 4498   2.779   0.594   4.401 -0.6083 -0.2135  0.2708
 1481SOL    HW1 4499   2.838   0.526   4.434  0.4782  0.4491 -0.2940
 1481SOL    HW2 4500   2.827   0.636   4.331 -0.8502  1.8566  1.2873
 1482SOL     OW 4501   0.949   4.827   3.112  0.2603  0.0096  0.0336
 1482SOL    HW1 4502   0.924   4.843   3.021 -0.2832  0.5799  0.2757
 1482SOL    HW2 4503   0.976   4.912   3.145 -2.1309  0.3991  1.1775
 1483SOL     OW 4504   4.522   2.471   4.854 -0.5176 -0.8693  0.0168
 1483SOL    HW1 4505   4.447   2.418   4.826 -1.7325  0.7609  0.0074
 1483SOL    HW2 4506   4.591   2.451   4.790 -1.9670 -0.1496 -1.8672
 1484SOL     OW 4507   0.435   3.320   4.344 -0.5955  0.6398  0.5041
 1484SOL    HW1 4508   0.400   3.350   4.260  0.2647 -1.6810 -0.7914
 1484SOL    HW2 4509   0.510   3.377   4.360 -0.2923  0.6278 -0.7347
 1485SOL     OW 4510   0.444   2.684   3.683 -0.1073 -0.6032  0.5961
 1485SOL    HW1 4511   0.410   2.734   3.608 -0.5741  0.5815  1.5702
 1485SOL    HW2 4512   0.395   2.602   3.681  0.4290 -0.9213 -0.8307
 1486SOL     OW 4513   4.506   1.431   2.459  0.0444  0.2038  0.4663
 1486SOL    HW1 4514   4.451   1.473   2.525  2.8602  0.7066  2.7088
 1486SOL    HW2 4515   4.560   1.502   2.424  0.3912 -0.5053 -0.4947
 1487SOL     OW 4516   0.683   2.983   2.569  0.4000  0.2209  0.1257
 1487SOL    HW1 4517   0.721   3.004   2.484 -2.0603  1.5848 -0.7310
 1487SOL    HW2 4518   0.732   3.037   2.632  1.3636  0.2034 -0.6013
 1488SOL     OW 4519   1.594   3.973   0.252  0.0054  0.0048 -0.7233
 1488SOL    HW1 4520   1.667   3.912   0.265 -0.0274  0.2574  0.9581
 1488SOL    HW2 4521   1.597   3.995   0.159  1.4991 -0.7030 -0.8756
 1489SOL     OW 4522   2.797   1.337   4.081  0.2127  0.2021 -0.1187
 1489SOL    HW1 4523   2.811   1.386   4.163 -0.4488  0.8921 -0.4006
 1489SOL    HW2 4524   2.885   1.324   4.046  0.4739  0.2918  0.4813
 1490SOL     OW 4525   1.801   2.395   4.233 -0.0817  0.2239 -0.8354
 1490SOL    HW1 4526   1.727   2.334   4.237  0.0812  0.0502 -0.4750
 1490SOL    HW2 4527   1.869   2.348   4.186  0.4521 -0.3068  0.4418
 1491SOL     OW 4528   4.705   3.524   4.325  0.1331 -0.3628 -0.0289
 1491SOL    HW1 4529   4.681   3.614   4.346  0.6147 -0.4625  1.0072
 1491SOL    HW2 4530   4.793   3.532   4.287 -0.1290 -0.3291 -0.6368
 1492SOL     OW 4531   4.403   1.729   3.974 -0.5735  0.1598  0.2866
 1492SOL    HW1 4532   4.311   1.715   3.996  0.0392 -1.0135  2.3219
 1492SOL    HW2 4533   4.434   1.644   3.943 -0.5130  0.9221 -1.9143
 1493SOL     OW 4534   1.593   3.243   3.631 -0.1874 -0.6454  0.1327
 1493SOL    HW1 4535   1.549   3.158   3.626 -0.5028 -0.6085  1.5970
 1493SOL    HW2 4536   1.620   3.250   3.723 -0.7770  1.1310  0.2112
 1494SOL     OW 4537   0.095   1.465   4.934 -0.0811  0.1463 -0.5408
 1494SOL    HW1 4538   0.138   1.544   4.966 -0.1655  0.5315 -1.3442
 1494SOL    HW2 4539   0.035   1.440   5.004  0.4330  0.4056  0.0002
 1495SOL     OW 4540   4.034   0.539   4.758 -0.3053  0.4135  0.2631
 1495SOL    HW1 4541   4.101   0.492   4.708 -0.5512 -0.9119  1.1339
 1495SOL    HW2 4542   4.067   0.538   4.848 -0.2411  2.0997  0.2865
 1496SOL     OW 4543   0.063   2.367   2.595  0.3632 -0.1060  0.4029
 1496SOL    HW1 4544   0.061   2.287   2.542  1.2331  0.3261 -0.3218
 1496SOL    HW2 4545   0.056   2.336   2.685 -0.0986 -0.9416  0.0926
 1497SOL     OW 4546   2.422   4.346   2.626  0.1688  0.3798 -0.5227
 1497SOL    HW1 4547   2.499   4.289   2.623 -0.4463 -0.5908  1.0029
 1497SOL    HW2 4548   2.416   4.382   2.537  1.4453 -0.7779 -1.1206
 1498SOL     OW 4549   4.504   3.296   2.365  0.2214 -0.0738  0.0435
 1498SOL    HW1 4550   4.476   3.331   2.280  1.4491 -0.3497 -0.4842
 1498SOL    HW2 4551   4.430   3.242   2.393 -1.2104  1.8850  0.3060
 1499SOL     OW 4552   2.754   3.914   2.488  0.1551 -0.6064  0.3893
 1499SOL    HW1 4553   2.804   3.832   2.485  0.0184 -0.7261  1.1408
 1499SOL    HW2 4554   2.695   3.908   2.412  1.1012 -0.5689 -0.3585
 1500SOL     OW 4555   1.329   1.170   4.956  0.5564  0.6719  0.1069
 1500SOL    HW1 4556   1.412   1.186   4.912 -0.7103  1.4393 -2.1421
 1500SOL    HW2 4557   1.315   1.248   5.010  1.4637  0.3546  0.8162
 1501SOL     OW 4558   2.023   3.093   3.518 -0.4286  0.4608  0.2759
 1501SOL    HW1 4559   1.990   3.083   3.607  0.1245  0.9066  0.5357
 1501SOL    HW2 4560   1.978   3.169   3.483 -2.8060 -1.3359 -0.8539
 1502SOL     OW 4561   3.464   2.011   0.600 -0.2336  0.5520  0.5551
 1502SOL    HW1 4562   3.461   2.062   0.681 -1.1455 -2.3186  2.5073
 1502SOL    HW2 4563   3.555   1.982   0.592 -0.3646 -0.0903  1.2502
 1503SOL     OW 4564   2.687   3.333   1.355 -0.3110  0.6012  0.4958
 1503SOL    HW1 4565   2.674   3.302   1.266 -0.3496 -2.3935  1.4539
 1503SOL    HW2 4566   2.614   3.393   1.370 -0.9462  0.2768 -1.1030
 1504SOL     OW 4567   4.562   0.993   1.014  0.4102 -0.7238 -0.0357
 1504SOL    HW1 4568   4.574   0.976   1.107  1.1504 -0.1878 -0.0239
 1504SOL    HW2 4569   4.468   1.008   1.004  0.7043  3.1405  1.3416
 1505SOL     OW 4570   4.457   4.810   2.899 -0.6937 -0.2002  0.5309
 1505SOL    HW1 4571   4.385   4.751   2.922 -1.1484  0.1979  0.1415
 1505SOL    HW2 4572   4.485   4.780   2.812  0.4552 -1.1564  1.2041
 1506SOL     OW 4573   1.821   4.342   0.343 -0.1997 -0.2327  0.1990
 1506SOL    HW1 4574   1.767   4.405   0.391  0.4500  0.3419  0.1839
 1506SOL    HW2 4575   1.758   4.282   0.304 -0.7829 -0.2046  1.0562
 1507SOL     OW 4576   2.886   3.008   0.606 -0.4703 -0.2535  0.0338
 1507SOL    HW1 4577   2.907   2.917   0.584 -0.8387 -0.0938 -1.0201
 1507SOL    HW2 4578   2.937   3.060   0.544  0.0551  0.2764  0.9013
 1508SOL     OW 4579   3.227   3.539   1.839  0.3304  0.2197 -0.2690
 1508SOL    HW1 4580   3.304   3.595   1.846  0.3908 -0.0426  2.0242
 1508SOL    HW2 4581   3.161   3.594   1.797  1.3340  0.9109 -0.9826
 1509SOL     OW 4582   0.802   4.741   2.214 -0.0528 -0.3291 -0.4555
 1509SOL    HW1 4583   0.827   4.657   2.252  0.5202  0.4186  0.8632
 1509SOL    HW2 4584   0.869   4.802   2.243 -2.2765  1.3301  1.5627
 1510SOL     OW 4585   4.485   2.788   3.105 -0.8699 -0.5034  0.2272
 1510SOL    HW1 4586   4.473   2.722   3.036  1.0839  1.0788 -1.7718
 1510SOL    HW2 4587   4.580   2.793   3.116 -0.8821  2.4072 -0.1928
 1511SOL     OW 4588   4.325   0.227   1.747 -0.1144 -0.7356  0.8692
 1511SOL    HW1 4589   4.357   0.316   1.728  0.1031 -1.4209 -2.5600
 1511SOL    HW2 4590   4.242   0.241   1.793  0.5709  1.1950  1.6315
 1512SOL     OW 4591   3.670   4.065   2.873 -0.4754 -0.1076  0.4705
 1512SOL    HW1 4592   3.655   3.982   2.919 -0.2543 -0.2901  0.2156
 1512SOL    HW2 4593   3.641   4.132   2.935 -1.9938 -0.4176  0.1352
 1513SOL     OW 4594   0.969   3.983   4.701 -0.6302 -0.7545  0.6826
 1513SOL    HW1 4595   0.955   3.912   4.764 -0.0276 -0.3431  1.3015
 1513SOL    HW2 4596   1.058   4.014   4.720 -0.3521 -0.7686 -0.5313
 1514SOL     OW 4597   1.171   3.977   0.776 -0.4597  0.0372  0.3587
 1514SOL    HW1 4598   1.138   4.062   0.748 -0.4958  0.2691  1.0836
 1514SOL    HW2 4599   1.093   3.925   0.795 -0.4317  0.2847  1.1895
 1515SOL     OW 4600   3.568   3.235   2.440  0.1060  0.4901  0.3546
 1515SOL    HW1 4601   3.561   3.293   2.516  0.4425  0.8097  0.1447
 1515SOL    HW2 4602   3.551   3.291   2.365 -0.9210  0.0260  0.2290
 1516SOL     OW 4603   0.556   4.618   4.822 -0.0621 -0.0612 -0.0124
 1516SOL    HW1 4604   0.592   4.533   4.846  0.4145 -0.1797 -1.1036
 1516SOL    HW2 4605   0.626   4.680   4.843  0.6526 -0.2421 -1.6963
 1517SOL     OW 4606   2.149   0.602   1.237 -0.3823 -0.6550 -0.4290
 1517SOL    HW1 4607   2.145   0.530   1.299 -0.2237 -2.1618 -2.0890
 1517SOL    HW2 4608   2.106   0.675   1.282  0.8562 -1.2649  1.9190
 1518SOL     OW 4609   2.557   1.848   0.043  0.0013 -0.6066 -0.1980
 1518SOL    HW1 4610   2.500   1.808  -0.023  0.5593  0.1315 -1.1695
 1518SOL    HW2 4611   2.608   1.913  -0.006  1.2234 -0.8008  0.7552
 1519SOL     OW 4612   0.171   2.441   4.842 -0.0635  0.0418  0.6110
 1519SOL    HW1 4613   0.193   2.500   4.770  1.1607  0.0847  0.9929
 1519SOL    HW2 4614   0.247   2.445   4.900 -1.6313  1.2011  2.7126
 1520SOL     OW 4615   2.150   4.077   2.696 -0.3197 -0.4877  0.2507
 1520SOL    HW1 4616   2.163   4.156   2.645  0.8641 -0.6089  0.3250
 1520SOL    HW2 4617   2.114   4.013   2.634  1.7242 -0.8375 -0.6533
 1521SOL     OW 4618   3.472   4.129   0.099  0.1239  0.4291  0.1189
 1521SOL    HW1 4619   3.487   4.112   0.006 -0.4942  0.5100 -0.0012
 1521SOL    HW2 4620   3.397   4.188   0.100 -1.1515 -1.1416  0.7400
 1522SOL     OW 4621   2.606   0.339   1.665 -0.0746  0.5163  0.2761
 1522SOL    HW1 4622   2.678   0.333   1.603  0.3395 -0.0052  0.7961
 1522SOL    HW2 4623   2.607   0.431   1.694  0.8001  0.3670  0.7622
 1523SOL     OW 4624   0.841   1.580   1.141 -0.2893 -0.0449 -0.4426
 1523SOL    HW1 4625   0.925   1.618   1.117  1.1423 -0.7262  2.9028
 1523SOL    HW2 4626   0.840   1.495   1.097  0.5857  0.1441 -0.8460
 1524SOL     OW 4627   4.282   3.063   3.950  0.1060 -0.0418 -0.0357
 1524SOL    HW1 4628   4.324   3.078   4.035  0.2056  0.8703 -0.2386
 1524SOL    HW2 4629   4.214   2.998   3.969  0.4183 -0.1837  0.6531
 1525SOL     OW 4630   1.903   1.492   0.774 -1.3662 -0.0626  0.2457
 1525SOL    HW1 4631   1.918   1.586   0.775 -0.0353 -0.2189  2.5314
 1525SOL    HW2 4632   1.817   1.481   0.816 -0.8080  0.0960  1.4801
 1526SOL     OW 4633   3.693   1.717   3.421  0.5158 -0.3455 -0.8904
 1526SOL    HW1 4634   3.628   1.698   3.489 -0.3411 -1.3378 -1.9418
 1526SOL    HW2 4635   3.768   1.662   3.444  0.9777  0.7042  0.2530
 1527SOL     OW 4636   0.658   1.681   2.507 -0.1103 -0.0965 -0.4776
 1527SOL    HW1 4637   0.740   1.721   2.537  0.1067 -0.3849 -0.6854
 1527SOL    HW2 4638   0.682   1.630   2.430 -0.7225  0.9057 -1.3745
 1528SOL     OW 4639   2.637   0.418   3.586 -0.5339  0.0838  0.0068
 1528SOL    HW1 4640   2.628   0.417   3.491 -0.9051  1.6526  0.0003
 1528SOL    HW2 4641   2.559   0.465   3.617  0.0064  0.3368  1.0334
 1529SOL     OW 4642   4.625   1.129   2.937  0.2158 -0.7761 -0.5925
 1529SOL    HW1 4643   4.549   1.172   2.975  1.8147  0.4306  1.4587
 1529SOL    HW2 4644   4.604   1.035   2.940 -1.0243 -0.4897  0.2351
 1530SOL     OW 4645   4.274   0.130   0.345 -0.1658 -0.7428  0.0743
 1530SOL    HW1 4646   4.351   0.181   0.372  0.1049 -2.2413  2.3625
 1530SOL    HW2 4647   4.311   0.053   0.301 -0.3255 -1.4892  1.2183
 1531SOL     OW 4648   3.701   2.962   0.043 -0.4382  0.2555 -0.2481
 1531SOL    HW1 4649   3.708   2.904  -0.032  1.5351  0.3182 -0.1612
 1531SOL    HW2 4650   3.719   2.906   0.119 -0.2929  0.6035 -0.0182
 1532SOL     OW 4651   0.505   3.115   1.121 -0.4184 -1.1922  0.0709
 1532SOL    HW1 4652   0.462   3.200   1.134  0.1683 -0.8533 -0.1661
 1532SOL    HW2 4653   0.486   3.093   1.030  0.2218 -0.8594 -0.1471
 1533SOL     OW 4654   4.350   2.075   3.386 -0.0580 -0.1005  0.1350
 1533SOL    HW1 4655   4.427   2.125   3.363 -0.2443  1.0809  1.8894
 1533SOL    HW2 4656   4.282   2.140   3.401 -0.9429 -1.0210  0.2649
 1534SOL     OW 4657   1.171   1.895   1.826  0.0543 -0.1698 -0.2133
 1534SOL    HW1 4658   1.206   1.943   1.901  2.3740 -2.1830  0.1202
 1534SOL    HW2 4659   1.095   1.848   1.860  0.8212 -0.7137  0.8049
 1535SOL     OW 4660   0.975   4.676   1.348 -0.0186  0.1638 -0.4025
 1535SOL    HW1 4661   1.028   4.666   1.269 -0.4599  0.0169 -0.6850
 1535SOL    HW2 4662   1.038   4.676   1.420  0.3147 -0.5498 -0.6909
 1536SOL     OW 4663   4.865   1.771   2.463 -0.3468 -0.0076 -0.4191
 1536SOL    HW1 4664   4.876   1.679   2.442 -2.0085 -0.3577  0.0887
 1536SOL    HW2 4665   4.863   1.815   2.377 -0.5203 -0.5751 -0.7102
 1537SOL     OW 4666   2.635   3.053   1.125 -0.3993 -0.6247  0.2146
 1537SOL    HW1 4667   2.545   3.082   1.141 -0.1006 -0.6663  2.1816
 1537SOL    HW2 4668   2.626   2.988   1.055 -1.8652 -0.4627  0.2066
 1538SOL     OW 4669   0.208   2.880   3.381 -0.0983 -0.0483  1.0292
 1538SOL    HW1 4670   0.296   2.860   3.350 -0.7145 -0.8520 -0.3223
 1538SOL    HW2 4671   0.165   2.921   3.306 -0.7572  0.7118  1.8021
 1539SOL     OW 4672   4.065   0.716   2.317 -0.6348 -0.4723 -0.9044
 1539SOL    HW1 4673   4.081   0.808   2.298 -0.0408 -0.7704 -1.9272
 1539SOL    HW2 4674   4.152   0.680   2.334 -0.6751 -1.1785 -2.1192
 1540SOL     OW 4675   3.333   0.044   3.670  0.2055  0.0863 -1.0779
 1540SOL    HW1 4676   3.395  -0.026   3.651  2.3848  1.5363  0.2189
 1540SOL    HW2 4677   3.382   0.125   3.654 -0.8630  1.3061  1.2656
 1541SOL     OW 4678   1.595   4.632   1.006 -0.4801  0.0714 -0.0107
 1541SOL    HW1 4679   1.681   4.663   0.980 -0.8368  0.9056 -0.2348
 1541SOL    HW2 4680   1.537   4.707   0.990 -1.7003 -1.2382 -2.2475
 1542SOL     OW 4681   4.161   3.835   4.116 -0.1729  0.0772 -0.2494
 1542SOL    HW1 4682   4.228   3.816   4.181 -2.0800  0.5740  1.9844
 1542SOL    HW2 4683   4.149   3.753   4.068  1.0737 -0.3870  0.2032
 1543SOL     OW 4684   4.894   2.413   3.325 -0.0472  0.0813 -0.0089
 1543SOL    HW1 4685   4.804   2.397   3.353  0.3092  0.3341  1.3452
 1543SOL    HW2 4686   4.937   2.328   3.331 -0.2629 -0.1120 -0.9917
 1544SOL     OW 4687   4.558   0.621   0.489 -0.1305 -0.3133  0.1544
 1544SOL    HW1 4688   4.498   0.692   0.465 -0.2557 -0.6413 -0.5223
 1544SOL    HW2 4689   4.584   0.642   0.579  0.3880  0.9726 -0.2626
 1545SOL     OW 4690   0.368   2.733   2.254 -0.0176 -0.1027  0.2437
 1545SOL    HW1 4691   0.311   2.663   2.286  1.0826 -0.6980  0.9826
 1545SOL    HW2 4692   0.378   2.791   2.330 -0.0984  0.3035 -0.0556
 1546SOL     OW 4693   3.307   0.865   3.246 -0.0341 -0.8453  0.0828
 1546SOL    HW1 4694   3.221   0.907   3.242  0.6347  0.4797 -1.0894
 1546SOL    HW2 4695   3.288   0.771   3.238 -1.3575 -0.5841 -0.0973
 1547SOL     OW 4696   3.213   3.809   4.928 -0.1027 -0.1440 -0.3903
 1547SOL    HW1 4697   3.289   3.761   4.895 -0.1026 -0.6687  0.3573
 1547SOL    HW2 4698   3.152   3.740   4.957 -0.5187  0.2876 -0.2346
 1548SOL     OW 4699   2.077   2.942   3.281 -0.5064  0.1822 -0.0153
 1548SOL    HW1 4700   2.061   3.000   3.355  0.4009 -0.3337  0.6118
 1548SOL    HW2 4701   1.999   2.949   3.226 -1.4401  0.1254  1.2856
 1549SOL     OW 4702   3.331   4.889   2.908 -0.0934 -0.2455  0.2450
 1549SOL    HW1 4703   3.305   4.879   3.000  0.0214 -0.5415  0.2479
 1549SOL    HW2 4704   3.276   4.826   2.862  2.3394 -2.8382  0.5534
 1550SOL     OW 4705   2.954   0.221   2.846 -0.3342 -0.1776 -0.0553
 1550SOL    HW1 4706   2.946   0.165   2.769 -1.2030 -0.0536 -0.0705
 1550SOL    HW2 4707   2.946   0.161   2.920  3.2666 -0.7346  0.0590
 1551SOL     OW 4708   0.756   2.835   0.136 -0.0667  0.7948  0.1831
 1551SOL    HW1 4709   0.835   2.792   0.167 -1.8657 -3.2302 -0.1562
 1551SOL    HW2 4710   0.706   2.855   0.216 -0.0952  0.3392  0.2789
 1552SOL     OW 4711   3.875   3.768   3.397 -0.8047 -0.0698 -0.5170
 1552SOL    HW1 4712   3.795   3.739   3.353 -1.6640  1.1741  0.1542
 1552SOL    HW2 4713   3.944   3.757   3.332 -1.1871 -2.7335 -0.5908
 1553SOL     OW 4714   4.414   4.358   4.852  0.1920 -0.4660  0.4381
 1553SOL    HW1 4715   4.455   4.384   4.771  0.4415  0.8851  0.9808
 1553SOL    HW2 4716   4.320   4.355   4.832  0.4411 -3.6297 -0.8182
 1554SOL     OW 4717   3.273   4.944   0.406 -0.2330  0.5095  0.0393
 1554SOL    HW1 4718   3.279   4.856   0.370  0.0089 -0.1692  1.6646
 1554SOL    HW2 4719   3.339   4.947   0.476  0.0375  2.1076 -0.2422
 1555SOL     OW 4720   3.066   1.564   4.356  0.6096  0.1807  0.3216
 1555SOL    HW1 4721   3.092   1.602   4.440 -0.3635  1.1372  0.2148
 1555SOL    HW2 4722   3.004   1.496   4.380 -1.6773  2.1298  0.3409
 1556SOL     OW 4723   1.028   0.542   1.929  0.0522 -0.0832  0.0753
 1556SOL    HW1 4724   1.014   0.543   2.024  4.2110 -0.7318  0.8948
 1556SOL    HW2 4725   0.995   0.456   1.901 -0.8909 -0.0317  0.9866
 1557SOL     OW 4726   1.138   3.719   0.909 -0.0909  0.1383 -0.2627
 1557SOL    HW1 4727   1.202   3.753   0.846  0.1760 -0.1267 -0.1397
 1557SOL    HW2 4728   1.143   3.624   0.898 -1.3166  0.1486 -1.0878
 1558SOL     OW 4729   1.659   3.236   0.386 -0.8592 -0.2671 -0.0296
 1558SOL    HW1 4730   1.732   3.214   0.444 -2.6659 -1.9992  1.7401
 1558SOL    HW2 4731   1.594   3.168   0.403 -3.6263  2.1768 -0.1844
 1559SOL     OW 4732   2.791   0.566   1.358 -0.2413 -0.2296  0.4577
 1559SOL    HW1 4733   2.785   0.471   1.353  0.5144 -0.4828  3.0070
 1559SOL    HW2 4734   2.723   0.591   1.420  0.9440  0.6377  1.4634
 1560SOL     OW 4735   1.450   4.204   3.784  0.3118 -0.2970  0.5335
 1560SOL    HW1 4736   1.358   4.179   3.777 -0.2466  0.5559  3.5329
 1560SOL    HW2 4737   1.456   4.289   3.740 -0.6456  0.1951  1.3070
 1561SOL     OW 4738   3.705   3.866   2.342 -0.0367  0.3399 -1.0830
 1561SOL    HW1 4739   3.800   3.872   2.358 -0.1600 -0.3327  0.0410
 1561SOL    HW2 4740   3.688   3.772   2.337 -0.6998  0.4498 -0.9001
 1562SOL     OW 4741   2.144   3.360   2.501  0.4091  0.1821  0.5274
 1562SOL    HW1 4742   2.180   3.448   2.516  0.6124  0.1710  0.1198
 1562SOL    HW2 4743   2.057   3.376   2.464  0.9238  0.2280 -0.7062
 1563SOL     OW 4744   1.029   1.050   3.031 -0.1812  0.2423  0.5598
 1563SOL    HW1 4745   1.046   0.965   2.990  0.6533  0.8859 -0.4874
 1563SOL    HW2 4746   0.947   1.080   2.992  0.3987  0.6649 -0.3784
 1564SOL     OW 4747   3.743   0.129   2.301  0.1654 -0.2873  0.1320
 1564SOL    HW1 4748   3.706   0.048   2.266  0.3197 -0.6590  0.8002
 1564SOL    HW2 4749   3.731   0.121   2.396  1.2284 -0.0518  0.2973
 1565SOL     OW 4750   2.746   2.631   1.635 -0.1682 -0.0751  0.1574
 1565SOL    HW1 4751   2.784   2.674   1.559  0.8921 -1.2301 -0.0101
 1565SOL    HW2 4752   2.665   2.592   1.603  0.0528 -0.1848 -0.2718
 1566SOL     OW 4753   0.066   1.040   1.528 -0.1193 -0.0073 -0.6933
 1566SOL    HW1 4754   0.122   1.118   1.536 -0.2742  0.2398 -1.7933
 1566SOL    HW2 4755   0.075   0.995   1.612 -0.6793  1.6250  0.2887
 1567SOL     OW 4756   2.873   3.411   3.512  0.4180 -0.5550  0.2049
 1567SOL    HW1 4757   2.862   3.321   3.543 -0.0538 -0.1576  1.2191
 1567SOL    HW2 4758   2.823   3.465   3.573  1.8330  0.5510  0.4608
 1568SOL     OW 4759   2.258   0.512   4.804  0.1884 -0.1671 -0.1043
 1568SOL    HW1 4760   2.312   0.573   4.855 -1.7506  2.2609 -0.7994
 1568SOL    HW2 4761   2.321   0.450   4.768  2.2353  1.1980  0.9150
 1569SOL     OW 4762   0.667   3.290   0.524  0.2307  0.3176  0.1194
 1569SOL    HW1 4763   0.645   3.238   0.602  0.8733 -1.4021 -0.8053
 1569SOL    HW2 4764   0.586   3.292   0.473  0.7298 -1.6095 -0.8267
 1570SOL     OW 4765   0.154   0.161   2.565  0.6417 -0.3692 -0.5963
 1570SOL    HW1 4766   0.078   0.219   2.572  1.1071  0.5721 -2.5474
 1570SOL    HW2 4767   0.120   0.074   2.583 -0.2131  0.3600  1.7723
 1571SOL     OW 4768   1.720   4.664   2.159 -0.6229 -0.1544 -0.3615
 1571SOL    HW1 4769   1.652   4.674   2.226  0.7639  0.5009  1.0265
 1571SOL    HW2 4770   1.800   4.647   2.209  0.3949 -0.0524 -1.8890
 1572SOL     OW 4771   1.908   0.864   3.831  0.2445  0.1582 -0.4855
 1572SOL    HW1 4772   1.883   0.940   3.778  2.7628 -0.1172 -2.2397
 1572SOL    HW2 4773   1.946   0.803   3.768 -1.4780 -2.5406  0.9126
 1573SOL     OW 4774   0.673   1.213   0.678 -0.2405  0.0888 -0.2827
 1573SOL    HW1 4775   0.731   1.148   0.640 -0.3258 -0.9493  1.2684
 1573SOL    HW2 4776   0.604   1.226   0.613  0.4177 -0.4761 -1.1009
 1574SOL     OW 4777   3.216   0.814   2.722 -0.1247  0.2915  0.3139
 1574SOL    HW1 4778   3.143   0.757   2.699  1.2100 -2.3914  2.1011
 1574SOL    HW2 4779   3.178   0.901   2.732 -2.5800 -0.5387 -1.1082
 1575SOL     OW 4780   1.493   2.880   2.822 -0.1021 -0.0056  1.0154
 1575SOL    HW1 4781   1.522   2.802   2.870 -0.3045 -0.9860 -0.3796
 1575SOL    HW2 4782   1.398   2.871   2.817  0.0365 -0.8985 -1.0742
 1576SOL     OW 4783   4.965   2.745   4.050 -0.0740  0.4725 -0.3306
 1576SOL    HW1 4784   4.891   2.689   4.075  0.6323  0.4426  1.8059
 1576SOL    HW2 4785   5.036   2.684   4.032 -0.1418  0.5715 -0.9633
 1577SOL     OW 4786   0.552   2.768   4.237 -0.1636  0.3390  0.7031
 1577SOL    HW1 4787   0.532   2.721   4.155  3.3080 -0.1631  0.0138
 1577SOL    HW2 4788   0.576   2.699   4.299  2.6888  0.9456  0.3822
 1578SOL     OW 4789   3.194   0.974   1.792  0.5286 -0.1865 -0.2146
 1578SOL    HW1 4790   3.267   0.980   1.854  0.9199  1.6846 -0.7767
 1578SOL    HW2 4791   3.149   0.893   1.815  1.4286 -0.2054  1.6510
 1579SOL     OW 4792   3.942   4.626   4.153  0.0334  0.0460  0.1304
 1579SOL    HW1 4793   3.992   4.646   4.232 -1.6764  1.3301  0.9415
 1579SOL    HW2 4794   3.861   4.586   4.186 -1.1331  1.4937 -0.8835
 1580SOL     OW 4795   4.449   1.331   4.417 -0.4863 -0.0216  1.1325
 1580SOL    HW1 4796   4.357   1.312   4.434 -0.3838 -1.4070  0.3150
 1580SOL    HW2 4797   4.447   1.408   4.359 -1.2555 -1.1618 -0.4459
 1581SOL     OW 4798   3.638   1.219   2.701 -0.3023 -0.0901 -0.3036
 1581SOL    HW1 4799   3.543   1.234   2.700 -0.1388  1.0233 -0.2471
 1581SOL    HW2 4800   3.658   1.199   2.792 -0.4221  0.0606 -0.2441
 1582SOL     OW 4801   1.013   1.554   3.004 -0.0198 -0.2293  0.2127
 1582SOL    HW1 4802   0.986   1.502   2.928  0.3940 -2.3576  1.4476
 1582SOL    HW2 4803   1.109   1.547   3.004  0.0717  0.9257  0.1576
 1583SOL     OW 4804   0.999   3.851   4.227  0.4331 -0.2123 -0.5309
 1583SOL    HW1 4805   1.002   3.776   4.286 -1.0620  0.1546  0.0725
 1583SOL    HW2 4806   1.087   3.857   4.190  1.1405 -1.0404  0.9394
 1584SOL     OW 4807   1.186   0.996   2.086  0.2249 -0.4079  0.1753
 1584SOL    HW1 4808   1.271   1.028   2.057 -0.5499  2.5884  0.8440
 1584SOL    HW2 4809   1.137   0.982   2.005  1.3370 -2.3261 -0.2177
 1585SOL     OW 4810   3.789   1.039   3.656 -0.1724  0.0548 -0.2948
 1585SOL    HW1 4811   3.769   1.041   3.563  1.8518  2.3250 -0.8048
 1585SOL    HW2 4812   3.705   1.053   3.699 -1.0984 -0.7156 -1.7635
 1586SOL     OW 4813   4.552   3.971   3.946 -0.1243 -0.6060 -0.1423
 1586SOL    HW1 4814   4.612   3.925   4.005  0.0261 -0.1696  0.0460
 1586SOL    HW2 4815   4.552   3.919   3.866 -1.4816 -2.0677  0.7349
 1587SOL     OW 4816   1.981   0.348   4.196  0.2831 -0.3250 -0.0650
 1587SOL    HW1 4817   1.893   0.344   4.233  0.2831 -1.3259 -0.1585
 1587SOL    HW2 4818   2.027   0.273   4.234  0.6631 -0.6258 -1.0829
 1588SOL     OW 4819   0.291   4.709   2.722  0.3804 -0.2438  0.1957
 1588SOL    HW1 4820   0.229   4.646   2.685  0.4191 -0.4924  0.5428
 1588SOL    HW2 4821   0.243   4.791   2.725  1.2580  0.5357 -3.0838
 1589SOL     OW 4822   1.659   3.429   1.117  0.6154 -0.1210  0.0067
 1589SOL    HW1 4823   1.587   3.376   1.083 -0.1526  1.3752 -0.8546
 1589SOL    HW2 4824   1.716   3.367   1.162  0.1367 -1.7753 -1.5164
 1590SOL     OW 4825   2.862   1.467   0.549 -0.1442 -0.4198  0.3908
 1590SOL    HW1 4826   2.848   1.515   0.631  2.3405  1.4335 -0.1628
 1590SOL    HW2 4827   2.868   1.375   0.576 -1.2616 -0.0726  1.9905
 1591SOL     OW 4828   4.458   0.089   0.918  0.0060 -0.3828 -0.0039
 1591SOL    HW1 4829   4.364   0.106   0.927 -0.4694 -2.9327  0.8062
 1591SOL    HW2 4830   4.473   0.087   0.823 -0.8760 -0.5174 -0.1461
 1592SOL     OW 4831   4.848   0.241   4.805 -0.0651  0.2749  0.1774
 1592SOL    HW1 4832   4.870   0.257   4.713 -0.4176  0.6427  0.1526
 1592SOL    HW2 4833   4.810   0.153   4.805  1.7662 -0.5609  0.2940
 1593SOL     OW 4834   0.938   2.884   1.459 -0.0971  0.1586  0.0562
 1593SOL    HW1 4835   1.032   2.884   1.443 -0.2006 -2.0262 -0.9210
 1593SOL    HW2 4836   0.900   2.923   1.380 -0.0545  0.7521  0.3194
 1594SOL     OW 4837   1.080   1.543   0.387  0.3558 -0.8826  0.7467
 1594SOL    HW1 4838   1.091   1.634   0.361 -1.1054 -0.8073  0.3668
 1594SOL    HW2 4839   1.127   1.537   0.471  2.9119 -0.5247 -0.5452
 1595SOL     OW 4840   2.448   3.751   2.380 -0.3518 -0.0904  0.3722
 1595SOL    HW1 4841   2.417   3.842   2.373 -0.0757 -0.1372 -2.3261
 1595SOL    HW2 4842   2.502   3.738   2.303  1.1059 -2.0496  1.6419
 1596SOL     OW 4843   1.154   4.397   3.113  0.0280  0.3335 -0.4361
 1596SOL    HW1 4844   1.086   4.351   3.162 -1.0217  1.8672 -0.4015
 1596SOL    HW2 4845   1.106   4.454   3.053  1.1381  3.6329  1.5340
 1597SOL     OW 4846   2.122   3.364   0.920  0.1802 -0.6070  1.1437
 1597SOL    HW1 4847   2.068   3.290   0.891  0.2030 -0.1755 -0.0550
 1597SOL    HW2 4848   2.212   3.336   0.904  0.1437  0.4240 -1.3438
 1598SOL     OW 4849   0.184   2.094   1.074  0.1458  0.1360 -0.4876
 1598SOL    HW1 4850   0.159   2.077   0.983 -0.3489 -0.3209 -0.2665
 1598SOL    HW2 4851   0.232   2.016   1.101 -1.1738 -0.4585  0.1791
 1599SOL     OW 4852   4.527   1.532   3.825 -0.0414  0.5670  0.0613
 1599SOL    HW1 4853   4.506   1.469   3.757 -2.8125  0.2024  1.1392
 1599SOL    HW2 4854   4.601   1.492   3.872  1.0203  0.1987 -1.8163
 1600SOL     OW 4855   0.116   0.639   0.186  0.5859  0.2852  0.2007
 1600SOL    HW1 4856   0.128   0.597   0.271  1.9520  0.5079  0.1347
 1600SOL    HW2 4857   0.151   0.576   0.123  2.0945  1.2289  0.0483
 1601SOL     OW 4858   3.768   3.665   1.366 -0.0223 -0.0325 -0.4011
 1601SOL    HW1 4859   3.676   3.684   1.344  0.1129 -0.8989 -1.8369
 1601SOL    HW2 4860   3.764   3.624   1.452 -1.0093 -0.2239 -0.5247
 1602SOL     OW 4861   4.629   4.100   3.254 -0.7605 -0.4183 -0.1322
 1602SOL    HW1 4862   4.666   4.097   3.343 -2.0560  1.3205  0.5290
 1602SOL    HW2 4863   4.534   4.096   3.268 -0.9574 -0.9408 -1.5150
 1603SOL     OW 4864   1.902   1.260   2.842  0.2028 -0.2267  0.0637
 1603SOL    HW1 4865   1.868   1.223   2.923  0.4668 -0.5619  0.0289
 1603SOL    HW2 4866   1.872   1.199   2.774  0.1424 -0.0524 -0.0661
 1604SOL     OW 4867   4.068   3.934   4.667 -0.2088  0.2048 -0.6070
 1604SOL    HW1 4868   3.989   3.947   4.720  1.2817  1.4924  1.4304
 1604SOL    HW2 4869   4.077   4.016   4.617 -0.2342  0.0007 -0.9483
 1605SOL     OW 4870   2.505   2.829   3.726 -0.7963  0.4486  0.3322
 1605SOL    HW1 4871   2.559   2.781   3.663 -2.3837  1.3454 -1.8555
 1605SOL    HW2 4872   2.429   2.773   3.741 -0.9403  0.7065  0.5844
 1606SOL     OW 4873   2.839   3.513   1.516 -0.1208  0.3598  0.2172
 1606SOL    HW1 4874   2.815   3.434   1.467  0.8363  0.6722 -0.8043
 1606SOL    HW2 4875   2.779   3.580   1.483 -0.1752  0.3204  0.2374
 1607SOL     OW 4876   4.308   1.822   3.337 -0.0243 -0.7574  0.0287
 1607SOL    HW1 4877   4.228   1.811   3.287 -0.1146 -0.2508  0.0589
 1607SOL    HW2 4878   4.312   1.915   3.357 -1.0075 -1.1905  2.6203
 1608SOL     OW 4879   1.960   2.480   3.100 -0.1109 -0.2717 -0.2960
 1608SOL    HW1 4880   1.956   2.508   3.192 -0.4424  0.6228 -0.5787
 1608SOL    HW2 4881   1.872   2.449   3.081 -0.1879  0.0520 -0.4693
 1609SOL     OW 4882   0.049   3.556   4.625  0.1402 -0.2114 -0.2384
 1609SOL    HW1 4883  -0.014   3.509   4.570  0.8893 -1.5594  0.0156
 1609SOL    HW2 4884   0.066   3.637   4.577 -0.5721 -0.5504 -1.1098
 1610SOL     OW 4885   3.341   1.297   2.018 -0.1735  0.1023 -0.5582
 1610SOL    HW1 4886   3.251   1.309   1.988  0.3186  0.6139 -1.9216
 1610SOL    HW2 4887   3.367   1.384   2.049  0.6843  0.6852 -2.6897
 1611SOL     OW 4888   2.393   3.533   1.814 -0.4120  0.3328  0.4291
 1611SOL    HW1 4889   2.375   3.480   1.736 -1.2946  0.2965  0.6485
 1611SOL    HW2 4890   2.431   3.472   1.877  2.3491  0.7752 -0.6726
 1612SOL     OW 4891   3.913   1.464   4.125 -0.4030 -0.0279  0.1142
 1612SOL    HW1 4892   3.820   1.453   4.103 -0.5747 -0.4274  1.0170
 1612SOL    HW2 4893   3.959   1.405   4.065 -0.5482  1.5624 -1.6639
 1613SOL     OW 4894   1.061   3.610   4.335  0.7316  0.7676  0.4631
 1613SOL    HW1 4895   1.093   3.520   4.323  0.4583  0.7091  0.1797
 1613SOL    HW2 4896   1.116   3.645   4.406  0.1424  0.0300  1.3045
 1614SOL     OW 4897   0.748   4.898   4.082  0.2548  0.5297  0.6388
 1614SOL    HW1 4898   0.708   4.812   4.092  1.9631 -0.3586  0.1643
 1614SOL    HW2 4899   0.708   4.934   4.003  0.9272 -0.6669 -0.2744
 1615SOL     OW 4900   1.518   4.713   0.648  0.0498 -0.2175 -0.2059
 1615SOL    HW1 4901   1.469   4.794   0.633  1.8759  1.0677  0.4258
 1615SOL    HW2 4902   1.587   4.738   0.708 -0.0475 -2.5596  0.9887
 1616SOL     OW 4903   2.748   4.704   1.827  0.0770  0.0392 -0.3243
 1616SOL    HW1 4904   2.783   4.777   1.878  1.6304 -0.1810 -1.0163
 1616SOL    HW2 4905   2.826   4.659   1.794 -0.8330 -2.0070  0.1693
 1617SOL     OW 4906   0.643   0.601   1.980 -0.1937 -0.0988  0.7462
 1617SOL    HW1 4907   0.559   0.566   2.011 -0.4076  0.0406  0.3343
 1617SOL    HW2 4908   0.647   0.689   2.019 -0.3431 -0.0219  0.5917
 1618SOL     OW 4909   2.427   3.780   3.680 -0.1085  0.0922 -0.3291
 1618SOL    HW1 4910   2.519   3.768   3.703  0.4801 -2.2335 -3.2269
 1618SOL    HW2 4911   2.428   3.844   3.609 -0.6448 -0.2808 -0.6859
 1619SOL     OW 4912   2.281   0.648   3.947 -0.1686 -0.0554 -0.0784
 1619SOL    HW1 4913   2.253   0.668   4.036  0.6776  0.2142  0.1341
 1619SOL    HW2 4914   2.304   0.555   3.949 -2.6455 -0.7644 -0.6902
 1620SOL     OW 4915   1.035   0.695   1.649 -0.6270 -0.0864 -0.2870
 1620SOL    HW1 4916   0.988   0.611   1.652  0.0556 -0.4532  0.4863
 1620SOL    HW2 4917   1.126   0.672   1.666 -0.3151  0.7348 -0.7975
 1621SOL     OW 4918   1.643   1.146   4.897  0.0154  0.0320  0.4917
 1621SOL    HW1 4919   1.734   1.119   4.893 -0.3582 -1.2989  0.3227
 1621SOL    HW2 4920   1.619   1.136   4.990 -0.3825 -1.2388  0.2831
 1622SOL     OW 4921   0.351   0.706   1.086 -0.6737  0.0259 -0.4304
 1622SOL    HW1 4922   0.406   0.731   1.160 -2.2382  1.8112  0.2019
 1622SOL    HW2 4923   0.365   0.774   1.021  1.0936 -1.7960 -2.1175
 1623SOL     OW 4924   3.144   4.458   3.340  0.5599  0.8499 -0.0696
 1623SOL    HW1 4925   3.067   4.515   3.334 -0.8651 -0.6419  2.3922
 1623SOL    HW2 4926   3.167   4.459   3.433  0.5002 -2.4632  0.0989
 1624SOL     OW 4927   4.627   1.109   4.867 -0.1954  0.7655 -0.3906
 1624SOL    HW1 4928   4.558   1.143   4.810 -1.0147 -1.2182 -0.6574
 1624SOL    HW2 4929   4.708   1.122   4.817 -0.4646  2.2268 -0.4884
 1625SOL     OW 4930   1.578   2.126   0.994 -0.1151  0.0449  0.0921
 1625SOL    HW1 4931   1.500   2.072   1.007  1.1435 -1.4362  2.0003
 1625SOL    HW2 4932   1.561   2.205   1.046 -0.5374 -0.0511  0.1003
 1626SOL     OW 4933   3.129   0.056   2.014  0.0153  0.5876 -0.2216
 1626SOL    HW1 4934   3.183  -0.012   1.973  0.7181  1.4744 -0.8094
 1626SOL    HW2 4935   3.111   0.118   1.942 -0.3497  1.1756  0.3687
 1627SOL     OW 4936   3.709   2.830   4.775 -0.6117 -0.2992  0.1900
 1627SOL    HW1 4937   3.618   2.803   4.770 -1.8580  3.4742 -0.9979
 1627SOL    HW2 4938   3.744   2.815   4.687  0.3333 -2.6663  0.8946
 1628SOL     OW 4939   0.287   2.637   3.999 -0.6248  0.0737  0.1723
 1628SOL    HW1 4940   0.270   2.644   3.905  2.5494  1.0269 -0.4593
 1628SOL    HW2 4941   0.358   2.573   4.006  1.2887  2.1613  1.4930
 1629SOL     OW 4942   0.970   1.797   3.369 -0.4240 -0.1929 -0.8076
 1629SOL    HW1 4943   0.989   1.890   3.354  1.5159  0.1081  2.4266
 1629SOL    HW2 4944   0.882   1.796   3.406 -0.0292  0.5647  0.2099
 1630SOL     OW 4945   4.330   1.176   3.300  0.1669  0.1551  0.0828
 1630SOL    HW1 4946   4.411   1.141   3.338  1.0286  0.7325 -1.1490
 1630SOL    HW2 4947   4.274   1.194   3.375  1.9459  1.6239  1.1534
 1631SOL     OW 4948   3.025   3.587   4.337  0.6809  0.2910  0.0466
 1631SOL    HW1 4949   3.060   3.502   4.361 -1.3467 -0.3294  1.0212
 1631SOL    HW2 4950   3.058   3.602   4.248  0.1519 -2.0768 -0.6356
 1632SOL     OW 4951   3.558   3.860   0.179 -0.5123  0.3630  0.0740
 1632SOL    HW1 4952   3.643   3.887   0.144  0.1453  1.1504  2.1338
 1632SOL    HW2 4953   3.499   3.931   0.156 -1.1537 -1.0233 -3.0111
 1633SOL     OW 4954   0.206   4.235   4.446  0.0860 -0.0244 -0.3047
 1633SOL    HW1 4955   0.246   4.251   4.532 -0.3472 -0.3675 -0.0328
 1633SOL    HW2 4956   0.115   4.261   4.457  0.0240 -0.0931 -0.6590
 1634SOL     OW 4957   4.184   1.095   0.831 -0.2065 -0.0519  0.7022
 1634SOL    HW1 4958   4.145   1.028   0.887 -0.1387  1.2226  2.3522
 1634SOL    HW2 4959   4.228   1.155   0.892 -1.7299  2.4719 -0.4947
 1635SOL     OW 4960   2.513   0.950   1.609 -0.4651  0.0220 -0.0029
 1635SOL    HW1 4961   2.459   0.899   1.548 -0.2476 -0.7007  0.4081
 1635SOL    HW2 4962   2.602   0.942   1.574 -0.8428  3.3615 -2.2204
 1636SOL     OW 4963   2.057   2.281   4.550 -0.2036 -0.0979  0.7331
 1636SOL    HW1 4964   2.054   2.222   4.475 -0.1904  1.2478 -0.3529
 1636SOL    HW2 4965   1.997   2.352   4.528  0.7046  0.9262  1.4599
 1637SOL     OW 4966   1.099   0.551   3.678 -0.0811  0.2798 -0.3313
 1637SOL    HW1 4967   1.176   0.598   3.709 -0.8573  1.2089  0.2746
 1637SOL    HW2 4968   1.067   0.505   3.755 -1.7939  2.2789  0.2742
 1638SOL     OW 4969   0.718   1.756   3.471  0.0592 -0.2319  0.7063
 1638SOL    HW1 4970   0.726   1.694   3.543 -0.7831 -0.0012  1.0231
 1638SOL    HW2 4971   0.681   1.835   3.513 -2.2687 -0.7198 -0.2492
 1639SOL     OW 4972   1.267   4.069   2.006  0.6584 -0.4740 -0.0527
 1639SOL    HW1 4973   1.280   4.163   1.992 -0.7514 -0.0497  1.1538
 1639SOL    HW2 4974   1.220   4.064   2.090  1.0579 -2.2822  0.0969
 1640SOL     OW 4975   2.192   4.703   3.935 -0.3738  0.5928  0.0212
 1640SOL    HW1 4976   2.272   4.660   3.906 -0.5969 -0.2782  0.6386
 1640SOL    HW2 4977   2.190   4.786   3.888 -0.3285 -0.4086 -1.8124
 1641SOL     OW 4978   3.718   0.443   0.978 -0.9617  0.0029  0.1883
 1641SOL    HW1 4979   3.730   0.357   1.018 -1.2819 -0.9901 -1.7244
 1641SOL    HW2 4980   3.806   0.479   0.970 -0.6938 -0.7299 -0.2084
 1642SOL     OW 4981   2.701   0.271   2.454  0.3762 -0.5039  0.0475
 1642SOL    HW1 4982   2.750   0.297   2.377 -1.9404  1.7393 -0.8239
 1642SOL    HW2 4983   2.612   0.254   2.421 -0.2438 -1.3000  1.9660
 1643SOL     OW 4984   0.773   2.170   2.122 -0.1914  0.3612  0.3244
 1643SOL    HW1 4985   0.764   2.170   2.027  1.7566  1.2800  0.0931
 1643SOL    HW2 4986   0.738   2.085   2.149 -1.8572  0.5529 -1.0585
 1644SOL     OW 4987   3.809   0.076   3.650  0.3900 -0.2433  0.3819
 1644SOL    HW1 4988   3.834   0.161   3.615 -0.3520  0.3226  1.1650
 1644SOL    HW2 4989   3.728   0.054   3.604 -0.4888  0.4187  1.5347
 1645SOL     OW 4990   3.123   0.789   0.813  0.0274 -0.2802  0.0121
 1645SOL    HW1 4991   3.042   0.772   0.764  0.5150  0.3821 -1.0736
 1645SOL    HW2 4992   3.189   0.736   0.769 -0.0484 -1.9190  1.7655
 1646SOL     OW 4993   3.247   2.230   4.268 -0.0607 -0.7924  0.4545
 1646SOL    HW1 4994   3.213   2.155   4.318  1.3845 -0.9230  1.3058
 1646SOL    HW2 4995   3.238   2.304   4.327  0.5614 -0.7247  0.4725
 1647SOL     OW 4996   0.403   4.456   0.115 -0.2329 -0.2623 -0.2607
 1647SOL    HW1 4997   0.331   4.434   0.056 -0.7148 -0.4728  0.3998
 1647SOL    HW2 4998   0.418   4.376   0.165  1.1447 -0.5525 -1.0786
 1648SOL     OW 4999   0.626   3.513   1.988  0.7514 -0.1863 -0.2805
 1648SOL    HW1 5000   0.570   3.464   1.928  1.3245 -0.8779 -0.2693
 1648SOL    HW2 5001   0.648   3.593   1.940 -1.1569  0.6504  0.1644
 1649SOL     OW 5002   2.480   1.728   2.587 -0.6567  0.0094 -0.2687
 1649SOL    HW1 5003   2.397   1.759   2.622 -1.9076 -0.7808 -2.3488
 1649SOL    HW2 5004   2.534   1.807   2.576 -1.7485  0.7475 -0.4013
 1650SOL     OW 5005   3.054   2.066   3.058  0.0564  0.5860 -0.0533
 1650SOL    HW1 5006   3.096   2.149   3.038 -0.7688  0.5141 -2.3090
 1650SOL    HW2 5007   2.963   2.077   3.030 -0.5276 -0.5104  1.2620
 1651SOL     OW 5008   1.523   2.243   3.914 -0.2660 -0.5433  0.2024
 1651SOL    HW1 5009   1.458   2.192   3.866 -0.2313 -0.2758 -0.1363
 1651SOL    HW2 5010   1.472   2.292   3.979 -0.5006  0.2446 -0.5648
 1652SOL     OW 5011   1.387   4.366   0.560 -0.3004  0.2971  0.3263
 1652SOL    HW1 5012   1.388   4.351   0.654 -0.3029  0.8080  0.4120
 1652SOL    HW2 5013   1.430   4.289   0.523 -2.1434 -0.9217  0.5907
 1653SOL     OW 5014   0.042   3.854   2.765 -0.1808 -0.4850 -0.1543
 1653SOL    HW1 5015  -0.037   3.845   2.818  0.8940 -0.1921  1.5893
 1653SOL    HW2 5016   0.011   3.855   2.675 -2.4979  2.5962  0.4979
 1654SOL     OW 5017   2.475   0.901   3.757 -0.5791  0.1318  0.0075
 1654SOL    HW1 5018   2.389   0.900   3.714 -0.3888 -0.2801 -0.3663
 1654SOL    HW2 5019   2.536   0.873   3.690  0.2400  2.8807 -0.5046
 1655SOL     OW 5020   3.245   0.470   1.703  0.4019  0.1565  0.0630
 1655SOL    HW1 5021   3.165   0.426   1.674  0.2897  0.0847  0.4861
 1655SOL    HW2 5022   3.315   0.427   1.653  0.2312 -0.0998  0.0408
 1656SOL     OW 5023   4.387   0.595   4.547 -0.3137  0.2489  0.2855
 1656SOL    HW1 5024   4.366   0.684   4.575 -1.4171 -0.0246  0.3766
 1656SOL    HW2 5025   4.480   0.586   4.565 -0.3284  1.1611  0.9139
 1657SOL     OW 5026   0.296   0.638   1.639  0.1909 -0.6938 -0.3323
 1657SOL    HW1 5027   0.233   0.594   1.696  0.6259 -0.3994  0.3845
 1657SOL    HW2 5028   0.265   0.618   1.550  0.2326 -2.2437 -0.0366
 1658SOL     OW 5029   0.162   4.767   0.282 -0.2657 -0.1660 -0.6661
 1658SOL    HW1 5030   0.251   4.739   0.265 -0.4669 -0.7405 -0.8097
 1658SOL    HW2 5031   0.131   4.707   0.350 -0.1086  0.8698  0.3308
 1659SOL     OW 5032   3.409   4.530   0.454  0.3671  0.0032 -0.6256
 1659SOL    HW1 5033   3.345   4.480   0.403  0.8953 -0.8931 -0.4392
 1659SOL    HW2 5034   3.490   4.479   0.446  0.5997  0.1501  0.6399
 1660SOL     OW 5035   1.967   0.912   4.313 -0.4209  0.1065 -0.4640
 1660SOL    HW1 5036   1.970   0.833   4.366  0.3271  1.2602  1.3037
 1660SOL    HW2 5037   2.039   0.903   4.250  0.1959 -0.2442  0.2881
 1661SOL     OW 5038   3.111   1.504   1.838 -0.2757  0.3245  0.2637
 1661SOL    HW1 5039   3.120   1.410   1.822 -1.3215  0.2204  0.2620
 1661SOL    HW2 5040   3.201   1.535   1.846  0.1051 -0.5636 -0.3851
 1662SOL     OW 5041   2.512   0.161   4.520 -0.0702  0.4777  0.1954
 1662SOL    HW1 5042   2.553   0.119   4.445  0.6518 -1.0187  1.3580
 1662SOL    HW2 5043   2.450   0.224   4.483 -0.5836 -1.0417 -1.6457
 1663SOL     OW 5044   0.391   0.959   0.120 -0.7422 -0.4446 -0.0970
 1663SOL    HW1 5045   0.407   0.913   0.203 -2.0779  0.1721  0.5452
 1663SOL    HW2 5046   0.382   0.889   0.056  1.9267 -0.8949 -0.1018
 1664SOL     OW 5047   0.317   4.335   1.213 -0.0569 -0.0258 -0.2518
 1664SOL    HW1 5048   0.222   4.321   1.205 -0.3366  0.7212  1.4019
 1664SOL    HW2 5049   0.326   4.428   1.234  0.9099 -0.4340  1.3004
 1665SOL     OW 5050   3.092   2.606   1.437  0.0574  0.0625 -0.2690
 1665SOL    HW1 5051   3.025   2.560   1.487  0.0487 -0.1994 -0.5229
 1665SOL    HW2 5052   3.148   2.536   1.403  0.3221  0.2666 -0.2551
 1666SOL     OW 5053   3.609   1.838   4.702 -0.9749  0.3592 -0.1893
 1666SOL    HW1 5054   3.606   1.828   4.607  1.0444 -0.4595 -0.2003
 1666SOL    HW2 5055   3.599   1.749   4.736 -0.1211  0.4401  0.3003
 1667SOL     OW 5056   2.482   0.601   1.425  0.3410  0.3864  0.6104
 1667SOL    HW1 5057   2.391   0.627   1.443  0.4453 -0.0859  1.9791
 1667SOL    HW2 5058   2.525   0.604   1.511  1.7421  1.0295 -0.0854
 1668SOL     OW 5059   4.203   4.815   0.049 -0.3106 -0.1034  0.6540
 1668SOL    HW1 5060   4.175   4.877  -0.018 -1.1049 -0.4961  0.6133
 1668SOL    HW2 5061   4.208   4.867   0.129  0.2764  0.2847  0.3705
 1669SOL     OW 5062   3.797   2.191   4.853 -0.4575  0.1403  0.1822
 1669SOL    HW1 5063   3.832   2.272   4.817  0.2617  0.0552  0.6589
 1669SOL    HW2 5064   3.781   2.135   4.777  0.0615  0.3395 -0.0794
 1670SOL     OW 5065   4.887   1.175   1.841 -0.5621  0.1913  0.0483
 1670SOL    HW1 5066   4.951   1.246   1.830  1.0173 -1.2360 -0.3577
 1670SOL    HW2 5067   4.926   1.118   1.908 -0.9667 -1.1889 -0.8506
 1671SOL     OW 5068   1.691   0.254   2.933 -0.3051 -0.3495  0.5991
 1671SOL    HW1 5069   1.647   0.169   2.940  0.3872 -0.6200  1.7862
 1671SOL    HW2 5070   1.639   0.313   2.988 -0.3110 -0.1924  0.4280
 1672SOL     OW 5071   2.800   1.216   1.382  0.3500  0.4586  0.3824
 1672SOL    HW1 5072   2.734   1.231   1.450  1.1692  0.4247  1.2093
 1672SOL    HW2 5073   2.796   1.121   1.366  2.3267 -0.1366  2.7528
 1673SOL     OW 5074   4.602   3.869   3.675 -0.5977  0.7191 -0.1050
 1673SOL    HW1 5075   4.553   3.823   3.606  0.3015 -0.7309  0.1717
 1673SOL    HW2 5076   4.693   3.845   3.659 -0.1160  2.2142  0.2501
 1674SOL     OW 5077   0.930   0.182   2.796 -0.4774 -0.1486  0.1123
 1674SOL    HW1 5078   1.026   0.182   2.789 -0.4098  1.5506  0.6123
 1674SOL    HW2 5079   0.908   0.092   2.819  1.1232 -0.2413  1.4708
 1675SOL     OW 5080   1.804   4.209   2.906 -0.0220 -0.1587  0.1876
 1675SOL    HW1 5081   1.788   4.116   2.922  0.7088 -0.4287 -0.5942
 1675SOL    HW2 5082   1.732   4.236   2.849 -1.8774  0.4853  2.6575
 1676SOL     OW 5083   1.194   2.611   3.968  0.6129  0.2618 -0.9669
 1676SOL    HW1 5084   1.256   2.672   4.008  0.5817 -1.2348  1.6019
 1676SOL    HW2 5085   1.118   2.664   3.946  0.3490  1.1338  1.7193
 1677SOL     OW 5086   1.867   3.285   4.841 -0.1188  0.1790 -0.4886
 1677SOL    HW1 5087   1.880   3.379   4.829  0.3677  0.1721 -0.0431
 1677SOL    HW2 5088   1.875   3.248   4.753 -0.8492  0.6116 -0.7490
 1678SOL     OW 5089   1.075   0.709   3.425 -0.8583 -0.1173 -0.6493
 1678SOL    HW1 5090   1.064   0.651   3.500  0.5340 -0.8376 -0.9615
 1678SOL    HW2 5091   1.092   0.795   3.462  1.1162 -0.7134 -0.0894
 1679SOL     OW 5092   0.472  -0.031   2.024 -0.1683 -0.0826 -0.0753
 1679SOL    HW1 5093   0.514   0.054   2.013  0.4865 -0.1743  1.4805
 1679SOL    HW2 5094   0.378  -0.012   2.023 -0.0261  0.6509  0.2425
 1680SOL     OW 5095   0.420   4.033   2.897 -0.6444 -0.1362 -0.3014
 1680SOL    HW1 5096   0.393   4.078   2.818 -1.0488  0.4355  0.1501
 1680SOL    HW2 5097   0.460   3.951   2.867 -1.5534 -0.3184 -1.0516
 1681SOL     OW 5098   0.070   1.192   2.382 -0.3369  0.2914 -0.0745
 1681SOL    HW1 5099   0.096   1.169   2.293  2.8688 -0.1712  0.8488
 1681SOL    HW2 5100   0.133   1.259   2.409 -0.6012 -0.2613  2.1337
 1682SOL     OW 5101   3.826   3.262   3.828  0.0585 -0.0777  0.5112
 1682SOL    HW1 5102   3.783   3.225   3.905  2.0354 -1.7972  0.8739
 1682SOL    HW2 5103   3.912   3.289   3.859  1.0082 -1.0829 -1.1387
 1683SOL     OW 5104   3.462   1.717   0.334 -0.1772  0.2124 -0.1190
 1683SOL    HW1 5105   3.453   1.676   0.248  1.0181 -0.4496  0.0514
 1683SOL    HW2 5106   3.539   1.773   0.326  1.1434 -1.3660  1.0719
 1684SOL     OW 5107   4.598   3.371   0.044  0.2120 -0.0895  0.1196
 1684SOL    HW1 5108   4.641   3.416   0.117  1.3951 -0.0428 -0.5822
 1684SOL    HW2 5109   4.669   3.329  -0.003 -0.7160 -1.4948 -0.0895
 1685SOL     OW 5110   4.846   3.656   2.121  0.0031  0.6004  0.4229
 1685SOL    HW1 5111   4.756   3.688   2.123 -0.7370 -1.3067  1.5533
 1685SOL    HW2 5112   4.841   3.575   2.070  1.6248  1.7482 -1.7035
 1686SOL     OW 5113   2.059   1.174   0.439  0.3858 -0.0801  0.4306
 1686SOL    HW1 5114   2.080   1.166   0.532 -1.6427  0.1592  0.9522
 1686SOL    HW2 5115   2.018   1.260   0.430 -2.4880 -1.3664  0.0208
 1687SOL     OW 5116   3.207   2.750   4.314 -0.5415  0.1904 -0.5059
 1687SOL    HW1 5117   3.151   2.804   4.370  0.4719  1.0595 -0.3195
 1687SOL    HW2 5118   3.233   2.677   4.371 -1.3982 -0.1851 -0.5721
 1688SOL     OW 5119   2.176   2.310   0.942 -0.0957  0.0618  0.0483
 1688SOL    HW1 5120   2.089   2.276   0.964  0.8089 -2.6219 -0.1799
 1688SOL    HW2 5121   2.160   2.368   0.868 -1.6852 -0.6275 -0.1999
 1689SOL     OW 5122   4.362   0.216   4.401 -0.4345 -0.2171 -0.1839
 1689SOL    HW1 5123   4.454   0.212   4.373 -0.4841 -0.8315 -0.2725
 1689SOL    HW2 5124   4.313   0.226   4.319 -0.3372  2.7077 -0.0151
 1690SOL     OW 5125   3.381   1.147   3.952 -0.0359  0.2045  0.6898
 1690SOL    HW1 5126   3.444   1.076   3.948  0.0296  0.2180  1.3635
 1690SOL    HW2 5127   3.378   1.172   4.045 -1.8702 -0.5446  0.8664
 1691SOL     OW 5128   1.711   2.019   2.958  0.4589  0.7073 -0.0457
 1691SOL    HW1 5129   1.797   2.052   2.932  0.2293  1.7777  0.4845
 1691SOL    HW2 5130   1.730   1.954   3.026  0.8374  1.0030  0.1336
 1692SOL     OW 5131   2.203   0.609   0.729 -0.3951  0.3572  0.0513
 1692SOL    HW1 5132   2.117   0.570   0.739 -0.5428  0.0927 -1.8268
 1692SOL    HW2 5133   2.248   0.591   0.812 -1.6167 -0.8099  0.4915
 1693SOL     OW 5134   3.330   3.345   2.044 -0.0125  0.4672  0.5720
 1693SOL    HW1 5135   3.319   3.251   2.028 -2.9130  1.0043 -1.3300
 1693SOL    HW2 5136   3.314   3.385   1.959  1.1873  2.7228  1.3447
 1694SOL     OW 5137   2.842   4.667   0.723 -0.9383 -0.0381  0.1038
 1694SOL    HW1 5138   2.923   4.617   0.737 -1.4042 -1.6373 -2.3071
 1694SOL    HW2 5139   2.784   4.606   0.678 -2.0431  2.2662 -1.8259
 1695SOL     OW 5140   0.288   1.801   4.689  0.3487 -0.1015  0.0360
 1695SOL    HW1 5141   0.343   1.753   4.751  0.7546  1.4220  0.9101
 1695SOL    HW2 5142   0.199   1.794   4.725  0.3490 -0.4969 -0.0393
 1696SOL     OW 5143   1.952   0.085   0.239  0.3325  0.3891 -0.3086
 1696SOL    HW1 5144   1.868   0.052   0.270  0.9296 -2.0056 -0.9784
 1696SOL    HW2 5145   1.987   0.135   0.313 -1.3518  0.8746  0.2093
 1697SOL     OW 5146   4.356   4.105   4.044 -0.0512 -0.3362  0.1944
 1697SOL    HW1 5147   4.437   4.062   4.015  0.9274  1.2635  0.4363
 1697SOL    HW2 5148   4.289   4.072   3.984  0.9363 -1.0355 -0.5769
 1698SOL     OW 5149   1.791   1.257   3.100  0.2968  0.2393  0.2926
 1698SOL    HW1 5150   1.703   1.272   3.133  0.4490  1.8283  0.0594
 1698SOL    HW2 5151   1.844   1.325   3.141  1.2433 -0.1458 -0.2474
 1699SOL     OW 5152   3.922   1.093   2.046 -0.0868  0.5928 -0.5503
 1699SOL    HW1 5153   3.965   1.178   2.055  0.0964  0.4962 -0.5196
 1699SOL    HW2 5154   3.829   1.115   2.037  0.0387  0.8333 -1.2992
 1700SOL     OW 5155   0.372   0.157   0.383  0.1602  0.0891  0.2394
 1700SOL    HW1 5156   0.399   0.096   0.314  0.8408  2.4288 -1.6808
 1700SOL    HW2 5157   0.449   0.210   0.401 -0.5205  0.6800  1.5865
 1701SOL     OW 5158   0.308   2.464   0.441 -0.3799  0.6006  0.4216
 1701SOL    HW1 5159   0.223   2.496   0.410 -2.0436 -3.0062  0.7112
 1701SOL    HW2 5160   0.369   2.490   0.372 -1.4236  4.0635  0.6061
 1702SOL     OW 5161   2.713   0.430   0.374  0.3892  0.2018 -0.2315
 1702SOL    HW1 5162   2.629   0.394   0.405  0.3160  0.5626 -0.0115
 1702SOL    HW2 5163   2.688   0.490   0.304  0.6205 -1.4626 -1.8295
 1703SOL     OW 5164   1.602   1.372   0.861 -0.2030  0.0389  0.0674
 1703SOL    HW1 5165   1.647   1.440   0.911  1.1672  0.3282 -1.4799
 1703SOL    HW2 5166   1.656   1.294   0.873 -1.3979 -0.6603  1.2684
 1704SOL     OW 5167   1.433   4.847   0.984  0.6626  0.1959 -0.1172
 1704SOL    HW1 5168   1.367   4.794   0.939 -0.1100  0.6449  0.4486
 1704SOL    HW2 5169   1.425   4.934   0.944  0.4111  0.4318  0.4322
 1705SOL     OW 5170   0.096   3.600   0.414 -0.2065  0.0226 -0.6066
 1705SOL    HW1 5171   0.128   3.561   0.332 -1.8278  0.5479 -1.5375
 1705SOL    HW2 5172   0.176   3.619   0.463  0.8582  0.1107 -2.2611
 1706SOL     OW 5173   0.383   3.645   4.718  0.0692  0.3614  0.3824
 1706SOL    HW1 5174   0.435   3.691   4.652  0.8730  0.5225  1.1116
 1706SOL    HW2 5175   0.355   3.564   4.674  0.9789  0.2521 -0.0134
 1707SOL     OW 5176   4.698   3.469   1.964 -0.7852 -0.4022  0.3020
 1707SOL    HW1 5177   4.717   3.524   1.887  0.2208 -1.4918 -0.2581
 1707SOL    HW2 5178   4.736   3.384   1.942 -1.1681 -0.9501  1.7010
 1708SOL     OW 5179   3.216   0.726   4.898  0.1323 -0.0826 -0.7504
 1708SOL    HW1 5180   3.205   0.635   4.927 -1.7569  0.4279  0.2774
 1708SOL    HW2 5181   3.136   0.746   4.850  0.5292  1.0448 -0.9648
 1709SOL     OW 5182   2.159   0.445   0.256  0.1245 -0.5677 -0.8986
 1709SOL    HW1 5183   2.181   0.538   0.243 -0.6683 -0.2207  0.1348
 1709SOL    HW2 5184   2.064   0.442   0.248 -0.0259 -0.9908  0.7387
 1710SOL     OW 5185   2.433   4.404   4.079 -0.4847  0.1402  0.0760
 1710SOL    HW1 5186   2.431   4.493   4.046 -2.0908 -0.5853 -2.0359
 1710SOL    HW2 5187   2.343   4.372   4.069  0.1190 -1.8331  0.4107
 1711SOL     OW 5188   0.256   1.842   1.374 -0.2053 -0.8814 -0.1821
 1711SOL    HW1 5189   0.178   1.786   1.374 -0.1712 -0.9315  0.3348
 1711SOL    HW2 5190   0.276   1.854   1.282 -0.3898 -1.4818 -0.3080
 1712SOL     OW 5191   0.345   3.414   4.578  0.4290  0.4932 -0.0988
 1712SOL    HW1 5192   0.373   3.360   4.504 -0.2762 -0.1608  0.0922
 1712SOL    HW2 5193   0.257   3.381   4.599  0.8544  0.2559  1.4134
 1713SOL     OW 5194   1.299   1.466   4.838 -0.2832 -0.4423  0.3241
 1713SOL    HW1 5195   1.353   1.545   4.835  0.6853 -1.1014  0.0767
 1713SOL    HW2 5196   1.296   1.442   4.930 -0.4191 -0.2360  0.3760
 1714SOL     OW 5197   3.262   3.091   1.702 -0.8474 -0.2931 -0.4030
 1714SOL    HW1 5198   3.222   3.167   1.659 -1.2139 -0.4294 -0.3055
 1714SOL    HW2 5199   3.217   3.016   1.663 -0.9186 -0.4329 -0.0456
 1715SOL     OW 5200   0.390   2.181   2.835 -0.1260 -0.0430  0.4448
 1715SOL    HW1 5201   0.416   2.107   2.890 -0.5838 -0.0394  0.6726
 1715SOL    HW2 5202   0.352   2.141   2.757 -0.0063 -0.0471  0.3882
 1716SOL     OW 5203   1.960   1.776   4.553 -0.1818  0.5427  0.0114
 1716SOL    HW1 5204   1.941   1.796   4.645  0.6692  1.3465  0.0232
 1716SOL    HW2 5205   2.034   1.715   4.556 -0.8896 -0.3404 -0.1173
 1717SOL     OW 5206   0.633   0.221   0.487  0.1042  0.4136 -0.4849
 1717SOL    HW1 5207   0.644   0.127   0.503 -1.3298  0.0430 -1.4928
 1717SOL    HW2 5208   0.691   0.263   0.550  1.0606 -1.1561 -0.2715
 1718SOL     OW 5209   0.266   0.403   2.823  0.2117  0.2525  0.3172
 1718SOL    HW1 5210   0.348   0.387   2.777 -0.2640  0.4249 -0.6343
 1718SOL    HW2 5211   0.210   0.329   2.799 -0.0724  0.3898  0.5515
 1719SOL     OW 5212   2.395   4.965   1.323  0.0748  0.5205  0.5812
 1719SOL    HW1 5213   2.307   5.004   1.329 -0.3033 -0.5381  2.8058
 1719SOL    HW2 5214   2.380   4.879   1.284 -0.1425 -0.2661  2.3078
 1720SOL     OW 5215   3.869   4.941   0.482 -0.1050 -0.0850 -0.1172
 1720SOL    HW1 5216   3.964   4.935   0.487  0.0451  2.0742  0.5099
 1720SOL    HW2 5217   3.850   4.944   0.389  0.5457  0.6425 -0.2319
 1721SOL     OW 5218   4.348   3.372   3.992  0.6653  0.1856 -0.1883
 1721SOL    HW1 5219   4.376   3.317   3.919  1.2276  2.4092 -1.7336
 1721SOL    HW2 5220   4.405   3.345   4.064 -0.3436 -2.5168 -0.2633
 1722SOL     OW 5221   4.149   1.057   4.841 -0.1277  0.1138  0.0795
 1722SOL    HW1 5222   4.121   1.142   4.807 -0.1501  0.2082  0.3281
 1722SOL    HW2 5223   4.209   1.023   4.775  0.4497  0.6505  0.3165
 1723SOL     OW 5224   2.673   3.076   2.093  0.1036  0.1998  0.3705
 1723SOL    HW1 5225   2.685   3.041   2.181  0.5068 -1.2198 -0.2253
 1723SOL    HW2 5226   2.584   3.049   2.069 -0.4279  1.5382  0.7337
 1724SOL     OW 5227   1.715   0.833   3.273  0.4903 -0.0545 -1.1249
 1724SOL    HW1 5228   1.764   0.914   3.262  2.0326 -0.8784 -0.6159
 1724SOL    HW2 5229   1.628   0.861   3.301  1.5432  1.3814  0.9262
 1725SOL     OW 5230   0.604   0.488   4.160  0.4281 -0.8774 -0.1986
 1725SOL    HW1 5231   0.516   0.474   4.196  0.1398  0.6672 -0.2219
 1725SOL    HW2 5232   0.658   0.508   4.236  0.8851 -2.2692 -0.1325
 1726SOL     OW 5233   0.451   1.384   3.261 -0.6486  0.2162  0.1435
 1726SOL    HW1 5234   0.382   1.340   3.212 -0.2751  0.1521 -0.3262
 1726SOL    HW2 5235   0.530   1.372   3.209  0.1990 -1.6038  1.7238
 1727SOL     OW 5236   1.532   1.371   1.375 -0.1015 -0.2212  0.0043
 1727SOL    HW1 5237   1.618   1.393   1.339 -0.1398 -0.5249 -0.2828
 1727SOL    HW2 5238   1.551   1.324   1.456 -0.0210  1.0169  0.7349
 1728SOL     OW 5239   4.813   2.831   0.018 -0.1892  0.3693 -0.0329
 1728SOL    HW1 5240   4.745   2.878   0.066 -0.0788  1.5583 -0.9799
 1728SOL    HW2 5241   4.884   2.819   0.081 -0.6436  0.5576  0.5162
 1729SOL     OW 5242   0.894   0.977   4.465 -0.1284  0.9082  0.4818
 1729SOL    HW1 5243   0.802   0.995   4.447 -0.6905  0.0329  2.3137
 1729SOL    HW2 5244   0.934   1.064   4.477 -0.3450  1.3756 -1.7420
 1730SOL     OW 5245   4.527   2.667   3.507  0.3698 -0.1157  0.3154
 1730SOL    HW1 5246   4.478   2.729   3.453 -0.0220  0.6821  1.5370
 1730SOL    HW2 5247   4.610   2.711   3.525  0.3361 -0.2074  0.6944
 1731SOL     OW 5248   0.955   0.227   0.523 -0.2745  0.4456 -0.4616
 1731SOL    HW1 5249   0.908   0.187   0.597 -2.1214  0.9137 -1.3166
 1731SOL    HW2 5250   1.034   0.173   0.513  0.1141  0.4664  1.9168
 1732SOL     OW 5251   4.123   4.426   4.809  0.7728  0.5239  0.2125
 1732SOL    HW1 5252   4.083   4.491   4.866 -2.8420 -2.1048  1.0569
 1732SOL    HW2 5253   4.084   4.443   4.723 -0.4860 -0.6087  0.5179
 1733SOL     OW 5254   2.769   3.325   0.163 -0.6099  0.0421 -0.0589
 1733SOL    HW1 5255   2.784   3.410   0.205 -1.7741  1.3224 -2.0512
 1733SOL    HW2 5256   2.856   3.285   0.159  0.6245  2.6018 -1.9176
 1734SOL     OW 5257   3.265   1.003  -0.005  0.3523 -0.1609 -0.3570
 1734SOL    HW1 5258   3.278   0.984   0.088 -1.0066 -0.9823 -0.3004
 1734SOL    HW2 5259   3.239   0.919  -0.042  0.2100  0.3108 -1.3441
 1735SOL     OW 5260   1.530   3.528   4.034  0.1059  0.3034  0.2320
 1735SOL    HW1 5261   1.491   3.446   4.063  0.4787  0.4770  1.2726
 1735SOL    HW2 5262   1.548   3.576   4.115  0.1513  1.2966 -0.3420
 1736SOL     OW 5263   4.194   2.074   4.993  0.3994 -0.2923 -0.4067
 1736SOL    HW1 5264   4.109   2.118   4.988  0.2575 -0.5171 -0.0116
 1736SOL    HW2 5265   4.190   2.007   4.925 -0.6659 -1.8667  1.1207
 1737SOL     OW 5266   1.666   2.788   0.776  0.2586 -0.3041  0.2679
 1737SOL    HW1 5267   1.604   2.719   0.798  1.8269 -1.2708  1.8117
 1737SOL    HW2 5268   1.612   2.867   0.768 -1.1293 -0.9831  2.2117
 1738SOL     OW 5269   1.808   2.599   0.525 -0.1180 -0.7802  0.3181
 1738SOL    HW1 5270   1.758   2.542   0.582 -0.3958  0.3775  1.2850
 1738SOL    HW2 5271   1.862   2.652   0.585 -0.4821  0.5247 -0.4514
 1739SOL     OW 5272   2.839   0.321   2.217  0.0456 -0.2864  0.1925
 1739SOL    HW1 5273   2.812   0.281   2.135  0.2738  0.8933 -0.4762
 1739SOL    HW2 5274   2.917   0.373   2.194 -0.1227  0.3747  1.0593
 1740SOL     OW 5275   3.810   2.610   3.495 -0.6215  0.5119  0.1157
 1740SOL    HW1 5276   3.810   2.515   3.486 -2.5150  0.4256  0.6545
 1740SOL    HW2 5277   3.731   2.639   3.448 -0.6722  1.7070  0.8894
 1741SOL     OW 5278   1.078   3.304   1.179 -0.8088 -0.0645 -0.0047
 1741SOL    HW1 5279   1.083   3.400   1.181 -2.2031  0.0518 -0.7989
 1741SOL    HW2 5280   1.072   3.283   1.086 -1.7861 -0.8331  0.2179
 1742SOL     OW 5281   0.500   1.198   3.781  0.2285 -0.3722  0.1802
 1742SOL    HW1 5282   0.507   1.194   3.686  1.8810  0.0538  0.2638
 1742SOL    HW2 5283   0.435   1.131   3.802 -2.7915  1.7984 -1.4563
 1743SOL     OW 5284   3.730   1.789   0.323 -0.0378 -0.1268  0.1592
 1743SOL    HW1 5285   3.803   1.727   0.323  0.4940  0.4957 -0.4162
 1743SOL    HW2 5286   3.767   1.871   0.292 -1.2496 -0.1395 -1.4953
 1744SOL     OW 5287   0.724   1.153   4.693 -0.2041  0.0205 -0.5019
 1744SOL    HW1 5288   0.698   1.229   4.746 -1.1155 -0.9076  0.4304
 1744SOL    HW2 5289   0.669   1.081   4.725  1.9470 -1.5151 -0.0122
 1745SOL     OW 5290   0.084   0.124   3.224 -0.7498 -0.9590 -0.6102
 1745SOL    HW1 5291  -0.001   0.166   3.206 -0.1546  1.4255  1.4700
 1745SOL    HW2 5292   0.147   0.180   3.179 -0.0731 -0.8453  0.4587
 1746SOL     OW 5293   0.156   1.486   3.009  0.8243  0.6267  0.2836
 1746SOL    HW1 5294   0.063   1.510   3.013  0.9937  1.3802 -0.1989
 1746SOL    HW2 5295   0.166   1.421   3.078  0.1877  1.4044  1.1408
 1747SOL     OW 5296   1.362   0.312   2.739  0.1167  0.2986 -0.2238
 1747SOL    HW1 5297   1.307   0.308   2.817 -2.4241  0.9471 -1.8836
 1747SOL    HW2 5298   1.362   0.223   2.705 -0.4723  0.4202 -0.5598
 1748SOL     OW 5299   3.154   2.932   4.506  0.0454 -0.0323 -0.2118
 1748SOL    HW1 5300   3.167   3.026   4.520  2.4844 -0.5923  2.3257
 1748SOL    HW2 5301   3.153   2.894   4.595  3.1393 -2.7262 -1.0925
 1749SOL     OW 5302   1.974   1.808   2.359 -0.0030  0.0777 -0.1290
 1749SOL    HW1 5303   2.061   1.834   2.328  0.2920 -0.3961  0.2983
 1749SOL    HW2 5304   1.964   1.854   2.442 -0.4104  0.5990 -0.4559
 1750SOL     OW 5305   4.062   2.950   4.064 -0.1980  0.2867 -0.4201
 1750SOL    HW1 5306   3.970   2.977   4.073 -0.0953  0.1577  1.2314
 1750SOL    HW2 5307   4.097   2.953   4.152  0.4938 -2.8442 -0.4691
 1751SOL     OW 5308   1.048   2.034   2.237 -0.0788 -0.1590  0.0817
 1751SOL    HW1 5309   0.990   1.964   2.265  1.9971 -1.5025  1.2577
 1751SOL    HW2 5310   0.997   2.114   2.250 -2.2590 -1.3439 -0.6331
 1752SOL     OW 5311   3.792   0.620   4.858  0.3836 -0.6004 -0.2235
 1752SOL    HW1 5312   3.865   0.610   4.797  0.5853  0.0771 -0.1023
 1752SOL    HW2 5313   3.826   0.590   4.942 -0.2720 -2.7197 -0.6631
 1753SOL     OW 5314   3.261   4.820   3.158 -0.3791  0.1629  0.1809
 1753SOL    HW1 5315   3.188   4.880   3.176 -0.2549 -0.0925  1.6278
 1753SOL    HW2 5316   3.325   4.839   3.227 -0.1684 -1.3657  0.4331
 1754SOL     OW 5317   0.926   0.450   3.193  0.5912 -0.7996 -0.0165
 1754SOL    HW1 5318   0.835   0.433   3.172  0.3182  1.3582 -0.8642
 1754SOL    HW2 5319   0.936   0.421   3.284 -1.9068  1.9532  1.3015
 1755SOL     OW 5320   2.994   2.386   0.635  0.0752 -0.2871  0.1061
 1755SOL    HW1 5321   2.910   2.342   0.636 -0.3641  0.4961 -0.8753
 1755SOL    HW2 5322   3.003   2.421   0.724 -0.5885 -0.4480  0.2419
 1756SOL     OW 5323   1.796   3.222   2.548  0.1827  0.3837 -0.1269
 1756SOL    HW1 5324   1.776   3.129   2.547 -3.6441  1.0570 -0.3984
 1756SOL    HW2 5325   1.806   3.244   2.641 -0.0188 -0.1130  0.0121
 1757SOL     OW 5326   3.608   1.752   0.759  0.0345  0.2288 -0.3298
 1757SOL    HW1 5327   3.690   1.759   0.806 -0.1476  0.0223  0.0248
 1757SOL    HW2 5328   3.608   1.825   0.697  1.1805 -0.6523 -1.4216
 1758SOL     OW 5329   2.622   4.489   0.669  0.3096 -0.3670  0.2072
 1758SOL    HW1 5330   2.576   4.459   0.748  1.1485 -0.8631  0.5215
 1758SOL    HW2 5331   2.570   4.563   0.638  0.3770  0.3287  1.6589
 1759SOL     OW 5332   0.989   3.370   2.576 -0.4250 -0.3727  0.2618
 1759SOL    HW1 5333   1.038   3.401   2.500 -1.2312  0.0220 -0.1069
 1759SOL    HW2 5334   0.931   3.442   2.599  0.8672  0.1158  2.2270
 1760SOL     OW 5335   0.037   2.283   3.740  0.0417 -0.2288  0.1299
 1760SOL    HW1 5336  -0.043   2.237   3.765 -1.2172  1.0836 -1.2620
 1760SOL    HW2 5337   0.097   2.268   3.813 -2.0172  0.0665  1.9866
 1761SOL     OW 5338   4.366   3.002   4.215  0.3623  1.0922 -0.3923
 1761SOL    HW1 5339   4.304   3.061   4.258  0.3171 -0.1541  1.4162
 1761SOL    HW2 5340   4.447   3.012   4.265  0.7246  0.5686 -0.8618
 1762SOL     OW 5341   4.549   0.821   3.067 -0.0700  0.2487 -0.5233
 1762SOL    HW1 5342   4.529   0.728   3.076  0.5432  0.1735  0.1220
 1762SOL    HW2 5343   4.602   0.842   3.144 -0.7958  1.2961 -0.2760
 1763SOL     OW 5344   1.863   1.698   1.200 -0.5707  0.1018 -0.3083
 1763SOL    HW1 5345   1.806   1.774   1.208 -0.9488 -0.2508  0.4828
 1763SOL    HW2 5346   1.944   1.733   1.162 -0.2637  1.1621  1.1914
 1764SOL     OW 5347   3.453   0.757   4.718 -0.6528 -0.1684  0.0689
 1764SOL    HW1 5348   3.427   0.707   4.796  0.6171 -0.5009  0.2982
 1764SOL    HW2 5349   3.527   0.708   4.682 -0.7459  0.4031 -0.9132
 1765SOL     OW 5350   4.375   3.540   3.034 -0.1836 -0.3876 -0.1794
 1765SOL    HW1 5351   4.342   3.513   3.120  0.2231 -1.4154 -0.3211
 1765SOL    HW2 5352   4.461   3.498   3.028 -0.0178  0.0486 -0.8995
 1766SOL     OW 5353   3.233   1.148   3.278 -0.6678  0.1272  0.4108
 1766SOL    HW1 5354   3.190   1.137   3.362  0.3886  1.6917  1.2038
 1766SOL    HW2 5355   3.173   1.109   3.214 -1.8866 -0.2907  1.7829
 1767SOL     OW 5356   2.646   0.631   2.470 -0.1606 -0.1055  0.3641
 1767SOL    HW1 5357   2.593   0.699   2.510  0.4623  0.4652  0.2378
 1767SOL    HW2 5358   2.684   0.583   2.544  0.0987  0.2427  0.4587
 1768SOL     OW 5359   2.050   3.616   0.813 -0.1417  0.0328  0.5698
 1768SOL    HW1 5360   1.985   3.649   0.876 -1.1415  1.0408 -0.9107
 1768SOL    HW2 5361   2.068   3.527   0.841 -2.5823 -0.4694  0.7669
 1769SOL     OW 5362   3.114   0.485   4.942 -0.5783 -0.2098  0.3422
 1769SOL    HW1 5363   3.095   0.392   4.926  1.4558 -0.8493  1.2393
 1769SOL    HW2 5364   3.124   0.491   5.037  0.9462  0.5512  0.1673
 1770SOL     OW 5365   3.102   2.019   1.750  0.0021  0.3333  0.0071
 1770SOL    HW1 5366   3.011   1.999   1.773 -1.0004  2.3448 -1.8672
 1770SOL    HW2 5367   3.117   2.107   1.784  0.1977  1.2347 -2.2395
 1771SOL     OW 5368   2.298   2.076   0.409  0.4056  0.0585 -0.2345
 1771SOL    HW1 5369   2.290   2.037   0.496  1.7460 -0.9196 -0.5106
 1771SOL    HW2 5370   2.335   2.006   0.355 -0.0159  0.7771 -1.5044
 1772SOL     OW 5371   1.154   2.875   0.363 -0.0301  0.6091 -0.3636
 1772SOL    HW1 5372   1.126   2.783   0.359  0.1002  0.5800 -0.6210
 1772SOL    HW2 5373   1.249   2.870   0.372 -0.0449  0.7168 -0.1517
 1773SOL     OW 5374   3.809   0.033   4.236 -0.0225  0.2325 -0.4173
 1773SOL    HW1 5375   3.851   0.042   4.322 -0.8015 -1.4220  0.1873
 1773SOL    HW2 5376   3.880   0.044   4.173  1.0036 -0.7863  0.5228
 1774SOL     OW 5377   1.421   1.095   1.956 -0.1020 -0.1581 -0.4674
 1774SOL    HW1 5378   1.448   1.172   1.906 -0.5555 -0.1661 -0.7238
 1774SOL    HW2 5379   1.498   1.073   2.009  1.7070 -2.2602 -3.6750
 1775SOL     OW 5380   1.111   2.023   4.647 -0.6690  0.6149  0.2753
 1775SOL    HW1 5381   1.127   1.936   4.684  0.7458  0.3109 -0.9564
 1775SOL    HW2 5382   1.016   2.033   4.651 -0.7959 -0.6535  1.1578
 1776SOL     OW 5383   3.317   4.209   2.226  0.2458 -0.2867 -0.1401
 1776SOL    HW1 5384   3.297   4.116   2.214  0.8994 -0.5180  0.5258
 1776SOL    HW2 5385   3.377   4.212   2.300  0.0745  0.6905 -0.0226
 1777SOL     OW 5386   2.265   2.448   1.741 -0.4890  0.3368 -0.5231
 1777SOL    HW1 5387   2.228   2.477   1.824  2.9380  0.5958  1.0593
 1777SOL    HW2 5388   2.264   2.352   1.746  0.8982  0.3512  0.4526
 1778SOL     OW 5389   4.080   2.189   0.429  0.0447 -0.0058 -0.1624
 1778SOL    HW1 5390   4.161   2.208   0.382 -0.0680  2.4174  0.5049
 1778SOL    HW2 5391   4.099   2.211   0.520 -0.6883 -1.6717  0.4389
 1779SOL     OW 5392   1.908   0.023   4.052 -0.1307 -0.5342 -0.3712
 1779SOL    HW1 5393   1.939  -0.052   4.000  0.2328  0.3823 -1.5334
 1779SOL    HW2 5394   1.987   0.058   4.092 -0.2148 -0.4272 -0.3007
 1780SOL     OW 5395   0.906   4.866   1.949 -0.1032 -0.3188 -0.2324
 1780SOL    HW1 5396   0.846   4.847   2.021  0.0929 -1.7890 -0.4247
 1780SOL    HW2 5397   0.931   4.957   1.962  1.6401 -1.0859  2.8672
 1781SOL     OW 5398   3.278   2.676   1.840  0.5050 -0.4256  0.5916
 1781SOL    HW1 5399   3.305   2.728   1.764  2.2413  1.3930  2.3647
 1781SOL    HW2 5400   3.186   2.700   1.853  0.8679  1.1251  0.4843
 1782SOL     OW 5401   3.956   3.922   3.043 -0.3270 -0.5926 -0.0472
 1782SOL    HW1 5402   3.933   3.836   3.006 -0.3991 -0.4677 -0.2937
 1782SOL    HW2 5403   3.982   3.974   2.967 -0.4131 -0.3537  0.0884
 1783SOL     OW 5404   4.700   0.537   4.544  0.4969  0.2808  0.0855
 1783SOL    HW1 5405   4.731   0.617   4.502 -0.7195  0.6989 -0.0581
 1783SOL    HW2 5406   4.717   0.552   4.638 -0.0382  0.8668  0.0972
 1784SOL     OW 5407   0.533   0.325   2.753  0.4125 -0.0584 -0.6606
 1784SOL    HW1 5408   0.594   0.381   2.801  0.0596  1.4584 -1.9040
 1784SOL    HW2 5409   0.586   0.282   2.687  0.6763 -1.2133  0.2698
 1785SOL     OW 5410   2.084   2.602   2.042 -0.2633  0.5303 -0.2263
 1785SOL    HW1 5411   2.179   2.616   2.047  0.2815 -2.3168 -0.7961
 1785SOL    HW2 5412   2.049   2.686   2.015  2.2140  1.3921 -1.0570
 1786SOL     OW 5413   0.325   2.593   1.914 -0.1778 -0.4591  0.3429
 1786SOL    HW1 5414   0.371   2.650   1.853 -0.3258 -0.9774 -0.2599
 1786SOL    HW2 5415   0.384   2.518   1.925 -0.2905 -0.5095  0.5990
 1787SOL     OW 5416   2.998   3.464   0.612  0.2543  0.0388 -0.5389
 1787SOL    HW1 5417   2.978   3.556   0.596  1.8229  0.4477 -0.2985
 1787SOL    HW2 5418   2.996   3.455   0.707  1.8040  0.2736 -0.4538
 1788SOL     OW 5419   0.530   3.754   1.114 -0.4974 -0.2729  0.6462
 1788SOL    HW1 5420   0.509   3.758   1.021  2.0056 -0.0464  0.0174
 1788SOL    HW2 5421   0.546   3.662   1.131 -0.0157 -0.2044  0.5909
 1789SOL     OW 5422   4.639   4.950   1.329  0.0873 -0.0736  0.6551
 1789SOL    HW1 5423   4.658   4.925   1.419  0.5779 -1.1920  0.2527
 1789SOL    HW2 5424   4.720   4.993   1.299  0.5470 -1.1924  0.2364
 1790SOL     OW 5425   2.652   0.605   0.643 -0.2919 -0.9490 -0.5019
 1790SOL    HW1 5426   2.611   0.643   0.721 -0.3860 -0.0062 -1.0038
 1790SOL    HW2 5427   2.581   0.602   0.578  0.4600  0.9639 -1.4737
 1791SOL     OW 5428   3.926   0.238   1.561 -0.0146 -0.1896  0.0854
 1791SOL    HW1 5429   4.012   0.198   1.578  0.2855  0.1245 -0.6404
 1791SOL    HW2 5430   3.919   0.307   1.627  1.3711  1.3748 -1.3103
 1792SOL     OW 5431   2.892   1.631   2.593  0.0946 -0.6368  0.0362
 1792SOL    HW1 5432   2.915   1.707   2.539 -1.5924  0.0310  0.1878
 1792SOL    HW2 5433   2.839   1.576   2.536 -0.5871 -0.5666  0.5709
 1793SOL     OW 5434   1.870   2.719   2.633  0.4016  0.3586 -0.1349
 1793SOL    HW1 5435   1.840   2.689   2.547 -0.1164 -1.5576  0.6552
 1793SOL    HW2 5436   1.965   2.705   2.631  0.4369  0.6218 -0.4897
 1794SOL     OW 5437   4.466   2.707   0.226 -0.1666 -0.7966  0.7618
 1794SOL    HW1 5438   4.543   2.681   0.176 -0.6041 -1.3601  0.3808
 1794SOL    HW2 5439   4.468   2.652   0.304 -0.0211 -0.6054  0.8924
 1795SOL     OW 5440   3.040   0.480   0.613 -0.4181 -0.1427  0.6256
 1795SOL    HW1 5441   3.041   0.399   0.563  0.0885  0.1942  0.0810
 1795SOL    HW2 5442   3.026   0.452   0.704  3.2392 -1.1837  1.0256
 1796SOL     OW 5443   3.298   3.823   2.755 -0.0880 -0.6203  0.2847
 1796SOL    HW1 5444   3.251   3.795   2.834 -1.3554  0.1499 -0.1697
 1796SOL    HW2 5445   3.246   3.789   2.682  1.0567 -1.2945 -0.2481
 1797SOL     OW 5446   0.612   3.862   4.821 -0.5232 -0.1373  0.1347
 1797SOL    HW1 5447   0.702   3.847   4.791 -0.1067  0.9561  0.7617
 1797SOL    HW2 5448   0.560   3.798   4.773  0.4744 -0.2435 -0.8632
 1798SOL     OW 5449   2.502   4.804   4.181 -0.3056  0.1521  0.1894
 1798SOL    HW1 5450   2.524   4.894   4.157 -0.5179  0.0980 -0.2147
 1798SOL    HW2 5451   2.567   4.750   4.136 -0.5814  0.0643 -0.1107
 1799SOL     OW 5452   0.236   2.167   0.492 -0.0229 -0.0267  0.1750
 1799SOL    HW1 5453   0.326   2.166   0.525 -0.3280  0.0614  1.0200
 1799SOL    HW2 5454   0.205   2.256   0.509  0.2742  0.4818 -1.6645
 1800SOL     OW 5455   1.303   0.130   2.985 -0.5392 -0.0952  0.8037
 1800SOL    HW1 5456   1.269   0.097   2.902 -1.0710  1.1782  0.4902
 1800SOL    HW2 5457   1.304   0.055   3.043 -1.1108 -0.7831 -0.0622
 1801SOL     OW 5458   0.381   3.247   2.567  0.3547 -0.1173  0.0624
 1801SOL    HW1 5459   0.340   3.163   2.588  2.0401 -0.8475  0.5803
 1801SOL    HW2 5460   0.402   3.241   2.474  0.6308 -0.3459  0.1384
 1802SOL     OW 5461   1.786   4.938   3.184  0.1845 -0.3908 -0.3830
 1802SOL    HW1 5462   1.812   4.986   3.262  0.7215 -1.1259 -0.1018
 1802SOL    HW2 5463   1.803   4.846   3.205 -1.9617 -0.8488 -0.4542
 1803SOL     OW 5464   0.602   4.535   3.278  0.3124  0.2245 -0.0927
 1803SOL    HW1 5465   0.696   4.544   3.262  0.5671 -0.4715  0.9289
 1803SOL    HW2 5466   0.584   4.599   3.347 -0.1976  1.1497 -1.0648
 1804SOL     OW 5467   3.749   4.718   1.271  0.6067 -0.3762 -0.2730
 1804SOL    HW1 5468   3.804   4.664   1.327  0.6413 -0.2821 -0.2153
 1804SOL    HW2 5469   3.759   4.807   1.306  0.6277 -0.3172 -0.4279
 1805SOL     OW 5470   1.629   3.726   4.519  0.1333  0.0452 -0.2119
 1805SOL    HW1 5471   1.560   3.775   4.475 -1.7943 -0.5777  1.8955
 1805SOL    HW2 5472   1.637   3.767   4.605 -1.9650 -3.4040  1.8827
 1806SOL     OW 5473   0.598   2.397   4.867 -0.2556 -0.4794 -0.0979
 1806SOL    HW1 5474   0.684   2.437   4.878 -0.0111 -0.9062 -0.4418
 1806SOL    HW2 5475   0.616   2.308   4.838 -0.7497 -1.2377  1.7448
 1807SOL     OW 5476   0.818   3.491   4.806 -0.0301 -0.1493  0.1848
 1807SOL    HW1 5477   0.746   3.477   4.868  0.8727 -0.4048  1.2091
 1807SOL    HW2 5478   0.829   3.407   4.762  0.4466 -0.4872  0.9292
 1808SOL     OW 5479   3.198   1.760   0.043  0.1340 -0.1622  0.2790
 1808SOL    HW1 5480   3.195   1.845   0.088 -1.3192 -0.3516  0.5692
 1808SOL    HW2 5481   3.207   1.782  -0.049  0.4049  0.2850  0.4070
 1809SOL     OW 5482   4.259   4.076   2.335  0.1239 -0.5133  0.4391
 1809SOL    HW1 5483   4.188   4.120   2.287 -1.3025  0.1562  2.9592
 1809SOL    HW2 5484   4.296   4.014   2.272 -0.3720  1.5467 -2.0520
 1810SOL     OW 5485   3.876   2.869   2.919  0.1205  0.1917 -0.4724
 1810SOL    HW1 5486   3.878   2.940   2.855  0.0776  0.5252 -0.1122
 1810SOL    HW2 5487   3.968   2.848   2.934  0.4362  2.7419  2.1823
 1811SOL     OW 5488   0.735   3.779   0.280 -0.0241 -0.2415  0.1688
 1811SOL    HW1 5489   0.791   3.703   0.264 -0.4404 -0.7760  1.1748
 1811SOL    HW2 5490   0.741   3.794   0.374 -2.6778 -1.2224  0.5861
 1812SOL     OW 5491   1.391   3.920   4.514  0.3785  0.1661  0.9113
 1812SOL    HW1 5492   1.321   3.964   4.563 -0.5120 -0.2775  0.0805
 1812SOL    HW2 5493   1.377   3.947   4.423  0.0206 -1.5022  0.4222
 1813SOL     OW 5494   0.616   4.207   2.373  0.5198  0.2762 -0.7534
 1813SOL    HW1 5495   0.596   4.118   2.344 -0.2940 -0.3867  1.6493
 1813SOL    HW2 5496   0.698   4.199   2.422  0.3248  0.7959 -0.3318
 1814SOL     OW 5497   1.620   3.497   2.628  0.6292 -0.2470 -0.1097
 1814SOL    HW1 5498   1.628   3.516   2.534 -0.8101  0.0352 -0.1893
 1814SOL    HW2 5499   1.527   3.482   2.642  1.0163 -1.9153  0.9829
 1815SOL     OW 5500   3.013   3.034   1.403 -0.5043  0.4223 -0.4075
 1815SOL    HW1 5501   2.970   3.014   1.320  2.8830 -0.4097 -2.1363
 1815SOL    HW2 5502   3.077   3.102   1.381  0.5062  0.1605  1.5256
 1816SOL     OW 5503   0.723   0.135   4.264  0.5555  0.2160  0.3723
 1816SOL    HW1 5504   0.809   0.177   4.266  0.0195  1.4043 -0.5719
 1816SOL    HW2 5505   0.735   0.061   4.204  0.8205  0.6188 -0.0801
 1817SOL     OW 5506   3.204   3.972   0.219  0.2980 -0.2534  0.1905
 1817SOL    HW1 5507   3.164   3.936   0.140  1.3479 -0.5039 -0.2427
 1817SOL    HW2 5508   3.250   3.898   0.259  0.9356  0.1833  0.2827
 1818SOL     OW 5509   2.214   1.613   1.645  0.2243  0.6920 -0.1519
 1818SOL    HW1 5510   2.184   1.542   1.587 -0.0496 -0.3782  1.2533
 1818SOL    HW2 5511   2.138   1.670   1.655  0.0872  0.5443 -0.3406
 1819SOL     OW 5512   3.656   1.539   1.172  0.6266 -0.3722  0.3337
 1819SOL    HW1 5513   3.692   1.539   1.083  0.1805 -0.3625  0.1527
 1819SOL    HW2 5514   3.576   1.487   1.166  0.9518 -0.9539  0.8807
 1820SOL     OW 5515   3.019   0.954   1.532 -0.2747 -0.4663  0.0349
 1820SOL    HW1 5516   3.044   0.881   1.476 -0.2801 -0.3047 -0.1787
 1820SOL    HW2 5517   3.096   0.970   1.587  0.2155  0.2244 -0.8225
 1821SOL     OW 5518   3.345   4.442   0.998 -0.1655  0.3117 -0.0195
 1821SOL    HW1 5519   3.363   4.374   1.064  1.1862  0.8798  0.2300
 1821SOL    HW2 5520   3.363   4.399   0.914 -1.1347 -0.1834  0.0165
 1822SOL     OW 5521   4.852   4.490   0.282  0.5869 -0.0687  0.3042
 1822SOL    HW1 5522   4.854   4.399   0.314  3.1481 -0.2286 -0.0606
 1822SOL    HW2 5523   4.850   4.543   0.361 -0.7852 -0.4197  0.5256
 1823SOL     OW 5524   3.250   1.860   2.051 -0.3795 -0.5759  0.4249
 1823SOL    HW1 5525   3.233   1.858   2.145 -0.7589 -0.9355  0.3540
 1823SOL    HW2 5526   3.235   1.951   2.026  2.3070  0.1390  1.1492
 1824SOL     OW 5527   4.272   2.735   4.208 -0.5365 -0.1935 -0.3739
 1824SOL    HW1 5528   4.363   2.706   4.213 -0.6237 -0.2747  1.6427
 1824SOL    HW2 5529   4.278   2.831   4.207 -0.4204 -0.1506  1.2931
 1825SOL     OW 5530   0.455   3.990   0.570 -0.0979  0.3010 -0.9607
 1825SOL    HW1 5531   0.399   4.067   0.577 -0.9003 -0.2028 -1.6982
 1825SOL    HW2 5532   0.449   3.948   0.656 -0.9899  0.1581 -1.0892
 1826SOL     OW 5533   1.144   1.844   3.833  0.0715 -0.0883  0.1389
 1826SOL    HW1 5534   1.219   1.792   3.862  0.0837  0.4049  1.0452
 1826SOL    HW2 5535   1.179   1.933   3.821 -0.2444  0.0204  0.0077
 1827SOL     OW 5536   0.283   2.081   1.498 -0.1924  0.8568  0.5935
 1827SOL    HW1 5537   0.311   2.044   1.582  0.0398  2.1970  1.1374
 1827SOL    HW2 5538   0.254   2.005   1.447  2.3681 -0.3762  0.7822
 1828SOL     OW 5539   1.959   1.236   4.723 -0.3950  0.1958  0.2317
 1828SOL    HW1 5540   1.953   1.205   4.633 -1.6704  0.4693  0.1982
 1828SOL    HW2 5541   1.901   1.312   4.726  1.0078  1.3089  0.8400
 1829SOL     OW 5542   0.645   0.563   1.039  0.1028 -0.4233 -0.2963
 1829SOL    HW1 5543   0.671   0.557   1.131 -1.1645  0.4038  0.1417
 1829SOL    HW2 5544   0.558   0.603   1.041  0.4405  0.4627 -1.9166
 1830SOL     OW 5545   0.694   3.614   3.141 -0.1087 -0.5888 -0.0837
 1830SOL    HW1 5546   0.693   3.527   3.181  2.1807 -1.1704 -1.0957
 1830SOL    HW2 5547   0.650   3.601   3.057  1.5513 -1.2357 -0.9191
 1831SOL     OW 5548   1.927   1.347   1.783 -0.5997 -0.3192  0.2120
 1831SOL    HW1 5549   1.939   1.334   1.689  0.9920  0.0444  0.3292
 1831SOL    HW2 5550   1.987   1.284   1.824  0.0726  0.7442  0.9270
 1832SOL     OW 5551   4.002   0.109   1.256 -0.0006  0.2390 -0.0295
 1832SOL    HW1 5552   4.044   0.161   1.325 -0.2887  0.8474 -0.3066
 1832SOL    HW2 5553   4.043   0.023   1.263  1.5748  0.9138 -0.5345
 1833SOL     OW 5554   1.681   3.627   2.967 -0.2519 -0.3169  0.0862
 1833SOL    HW1 5555   1.655   3.573   3.041 -1.5680  1.5514  1.0766
 1833SOL    HW2 5556   1.755   3.581   2.928 -0.8929 -2.4395  1.2507
 1834SOL     OW 5557   3.781   4.773   1.779 -0.5054 -0.8023  0.1824
 1834SOL    HW1 5558   3.823   4.688   1.793  3.0263  0.5509 -0.9883
 1834SOL    HW2 5559   3.771   4.780   1.684  0.5909  0.5996  0.1378
 1835SOL     OW 5560   0.492   0.321   3.731  0.3862 -0.3245  0.2743
 1835SOL    HW1 5561   0.495   0.229   3.706  1.1012 -0.5996  1.3187
 1835SOL    HW2 5562   0.514   0.368   3.651 -2.3136 -0.9079 -0.9219
 1836SOL     OW 5563   3.260   1.368   3.490 -0.2679  0.2165 -0.0289
 1836SOL    HW1 5564   3.207   1.403   3.561 -1.2011  2.2535 -1.6266
 1836SOL    HW2 5565   3.291   1.445   3.443  1.0403 -1.0439 -1.3373
 1837SOL     OW 5566   3.956   1.812   3.555  0.6437 -0.0448 -0.3065
 1837SOL    HW1 5567   4.047   1.842   3.559  0.5456  0.1598  0.4451
 1837SOL    HW2 5568   3.906   1.892   3.539  0.5286 -0.0414  0.0623
 1838SOL     OW 5569   0.940   0.764   1.075 -0.1439  0.1612 -0.2843
 1838SOL    HW1 5570   0.945   0.679   1.030 -2.0884 -0.9585  1.4056
 1838SOL    HW2 5571   0.853   0.796   1.055 -0.4733  0.3704  1.3574
 1839SOL     OW 5572   2.466   3.516   1.439 -0.1620 -0.1966  0.0974
 1839SOL    HW1 5573   2.401   3.486   1.504  1.6775 -0.8884  1.7076
 1839SOL    HW2 5574   2.427   3.493   1.355 -1.2428 -2.2932  1.0651
 1840SOL     OW 5575   0.346   2.433   2.652 -0.0178 -0.0409 -0.3891
 1840SOL    HW1 5576   0.253   2.433   2.672  0.1278 -0.4757  0.3134
 1840SOL    HW2 5577   0.359   2.354   2.599  0.2459 -0.9765  1.0131
 1841SOL     OW 5578   3.911   3.793   0.923  0.5833 -0.0418  0.3404
 1841SOL    HW1 5579   3.863   3.765   0.845  1.3503  1.0904 -0.5707
 1841SOL    HW2 5580   3.937   3.883   0.904  0.5924  0.3448  2.0076
 1842SOL     OW 5581   3.875   2.938   0.493 -0.5954 -0.0608  0.5943
 1842SOL    HW1 5582   3.920   2.921   0.411 -1.8801 -0.3398 -0.0823
 1842SOL    HW2 5583   3.793   2.889   0.486 -1.6757  1.5631  1.1502
 1843SOL     OW 5584   0.220   1.076   4.403  0.4007 -0.0565  0.4403
 1843SOL    HW1 5585   0.193   1.134   4.475  2.0098 -0.2571  1.2672
 1843SOL    HW2 5586   0.203   0.988   4.437  2.7859 -0.2305  1.3671
 1844SOL     OW 5587   2.297   2.919   4.859  0.4147  0.4539 -0.4453
 1844SOL    HW1 5588   2.338   2.904   4.944 -0.3289 -1.2894 -0.3434
 1844SOL    HW2 5589   2.283   3.013   4.855  2.1453  0.7997  0.5546
 1845SOL     OW 5590   3.151   0.504   1.957  0.3712 -0.3452  0.3481
 1845SOL    HW1 5591   3.197   0.496   1.874  1.8917 -0.9002  1.2078
 1845SOL    HW2 5592   3.095   0.427   1.961  0.6448 -0.5604  0.0543
 1846SOL     OW 5593   1.711   0.598   4.388 -0.1795 -0.2217  0.4254
 1846SOL    HW1 5594   1.794   0.602   4.435 -0.6523  1.5109  1.1915
 1846SOL    HW2 5595   1.713   0.673   4.328 -0.0409 -1.7658 -1.6156
 1847SOL     OW 5596   1.454   4.633   3.179  0.3205 -0.5490  0.4175
 1847SOL    HW1 5597   1.433   4.549   3.138 -1.5540 -1.1671  2.4674
 1847SOL    HW2 5598   1.514   4.610   3.250 -0.6829 -0.2536  1.3722
 1848SOL     OW 5599   3.046   2.531   0.866  0.1430 -0.2262  0.0203
 1848SOL    HW1 5600   3.106   2.603   0.883 -1.1114  0.5888  1.2098
 1848SOL    HW2 5601   3.000   2.518   0.949 -2.7725  0.6017 -1.3235
 1849SOL     OW 5602   4.756   4.055   0.268 -0.3683  0.1514  0.2161
 1849SOL    HW1 5603   4.804   4.100   0.198 -1.9947 -0.6016 -1.4897
 1849SOL    HW2 5604   4.733   4.124   0.330  1.6119  0.7552  0.3310
 1850SOL     OW 5605   4.607   2.258   0.181 -0.3158 -0.0630 -0.3861
 1850SOL    HW1 5606   4.578   2.167   0.174 -0.7856  0.1403 -1.3272
 1850SOL    HW2 5607   4.666   2.270   0.107  1.5521 -0.2203  1.0164
 1851SOL     OW 5608   0.510   0.504   4.894  0.4241  0.0274  0.1457
 1851SOL    HW1 5609   0.574   0.472   4.957  0.6001 -2.0011 -0.9885
 1851SOL    HW2 5610   0.483   0.426   4.845 -3.5461  0.6108  1.1000
 1852SOL     OW 5611   1.459   2.066   2.310  0.2567 -0.0939 -0.0562
 1852SOL    HW1 5612   1.377   2.103   2.343  0.3872  0.2709 -0.1301
 1852SOL    HW2 5613   1.501   2.139   2.265  1.1781  0.0562  1.0031
 1853SOL     OW 5614   3.789   3.009   4.087  0.4881 -0.1811  0.6801
 1853SOL    HW1 5615   3.789   3.087   4.143 -0.4813  0.9824 -0.8565
 1853SOL    HW2 5616   3.699   3.003   4.054  0.9249 -1.0821 -0.3963
 1854SOL     OW 5617   4.823   1.895   1.431  0.4899  0.1994 -0.1056
 1854SOL    HW1 5618   4.752   1.830   1.427  1.5122 -0.9432 -0.2729
 1854SOL    HW2 5619   4.870   1.884   1.348 -0.0668  2.0746 -0.7175
 1855SOL     OW 5620   3.575   4.658   4.412 -0.3823 -0.7428 -0.4803
 1855SOL    HW1 5621   3.623   4.654   4.494 -2.0985  1.2283  0.7035
 1855SOL    HW2 5622   3.565   4.751   4.394 -3.1713 -1.0468 -0.9681
 1856SOL     OW 5623   1.018   0.142   1.933  0.6762 -0.0930  0.4328
 1856SOL    HW1 5624   1.099   0.193   1.934  1.1023 -0.7178  2.4941
 1856SOL    HW2 5625   0.961   0.190   1.873  2.4397  0.5159 -0.8743
 1857SOL     OW 5626   4.367   0.895   4.679 -0.5865 -0.3115  0.4847
 1857SOL    HW1 5627   4.453   0.923   4.649 -0.1639  0.2747  2.1519
 1857SOL    HW2 5628   4.307   0.926   4.611  0.5510 -1.6555 -1.2584
 1858SOL     OW 5629   2.236   1.842   2.794 -0.1313 -0.0248  0.0441
 1858SOL    HW1 5630   2.296   1.797   2.853 -2.6174 -1.5416  1.5381
 1858SOL    HW2 5631   2.225   1.929   2.833  1.7249  0.6595 -0.7892
 1859SOL     OW 5632   2.056   4.873   4.729  0.0189 -0.0458  0.2745
 1859SOL    HW1 5633   2.048   4.917   4.814  0.2297  1.3480 -0.3958
 1859SOL    HW2 5634   2.070   4.781   4.751  1.7924  0.5220  1.8059
 1860SOL     OW 5635   2.690   3.667   1.356 -0.1372  0.4627 -0.4347
 1860SOL    HW1 5636   2.615   3.633   1.405 -0.9635  1.6532 -0.8233
 1860SOL    HW2 5637   2.657   3.676   1.266  0.7958  0.0581 -0.8381
 1861SOL     OW 5638   4.940   4.691   1.244  0.1560 -0.6331  0.1209
 1861SOL    HW1 5639   4.974   4.754   1.308 -2.0202 -0.3573  1.0842
 1861SOL    HW2 5640   4.918   4.745   1.168  0.3451 -0.5602  0.1180
 1862SOL     OW 5641   2.338   0.919   4.166  0.1076  0.2114  0.1425
 1862SOL    HW1 5642   2.329   1.008   4.199 -1.0700 -0.2429  1.0911
 1862SOL    HW2 5643   2.262   0.907   4.108  0.0351 -0.3024  0.3364
 1863SOL     OW 5644   1.411   0.274   0.420  0.2757  1.0930  0.3479
 1863SOL    HW1 5645   1.432   0.354   0.467  0.5671  1.6026 -0.6129
 1863SOL    HW2 5646   1.379   0.305   0.335 -0.6563  0.2193  0.3565
 1864SOL     OW 5647   1.336   0.514   4.116 -0.3908  0.4093 -0.1118
 1864SOL    HW1 5648   1.249   0.532   4.153 -1.4213 -0.5750 -1.9292
 1864SOL    HW2 5649   1.351   0.421   4.136 -0.9548 -0.1350 -2.0261
 1865SOL     OW 5650   2.057   0.872   2.141 -0.6044  0.1984 -0.4673
 1865SOL    HW1 5651   2.000   0.922   2.199 -0.9704  0.9650 -1.4601
 1865SOL    HW2 5652   2.139   0.921   2.139  0.0334 -0.7660  0.7548
 1866SOL     OW 5653   4.559   0.745   2.318 -0.1307  0.1147 -0.4524
 1866SOL    HW1 5654   4.556   0.676   2.384  1.5375  0.0306 -0.4141
 1866SOL    HW2 5655   4.576   0.825   2.367 -1.8436  0.5642 -0.5181
 1867SOL     OW 5656   3.541   0.800   3.644 -0.5290 -0.2724  0.3307
 1867SOL    HW1 5657   3.477   0.845   3.589  0.4237 -0.8533 -1.3176
 1867SOL    HW2 5658   3.608   0.770   3.583  1.5831  0.7399  2.0407
 1868SOL     OW 5659   2.049   0.125   2.655  0.4911 -0.0603 -0.4338
 1868SOL    HW1 5660   2.036   0.220   2.658 -0.4848 -0.1796 -0.3159
 1868SOL    HW2 5661   2.000   0.092   2.731  2.2221 -0.5319  0.5326
 1869SOL     OW 5662   0.905   2.054   1.426  0.1011 -0.0160  0.1092
 1869SOL    HW1 5663   0.978   2.049   1.364  0.0407  0.1784  0.0229
 1869SOL    HW2 5664   0.892   2.148   1.440  0.5342 -0.0611  0.9061
 1870SOL     OW 5665   3.357   0.197   1.598 -0.0650 -0.7348 -0.0146
 1870SOL    HW1 5666   3.375   0.103   1.594 -1.4346 -1.4120  4.3179
 1870SOL    HW2 5667   3.412   0.228   1.670 -0.5451  1.5527 -0.5750
 1871SOL     OW 5668   4.187   4.477   1.871 -0.3063  0.0627 -0.0250
 1871SOL    HW1 5669   4.212   4.534   1.944  2.6373 -0.6409 -0.3692
 1871SOL    HW2 5670   4.268   4.431   1.848 -1.9080 -2.1406 -1.6376
 1872SOL     OW 5671   1.342   2.749   4.686  0.1198  0.3279 -0.3607
 1872SOL    HW1 5672   1.284   2.773   4.614  1.2817  1.1080 -1.0822
 1872SOL    HW2 5673   1.289   2.693   4.742 -0.8211 -0.3410 -1.8383
 1873SOL     OW 5674   0.456   1.950   3.009 -0.1856  0.1846  0.1261
 1873SOL    HW1 5675   0.432   1.860   2.989 -0.3255  0.4464 -0.9851
 1873SOL    HW2 5676   0.456   1.955   3.104 -0.3786 -0.9316  0.1933
 1874SOL     OW 5677   3.230   2.000   0.165  0.6209  0.6232  0.3470
 1874SOL    HW1 5678   3.175   2.074   0.140 -0.1425 -0.4559 -1.3997
 1874SOL    HW2 5679   3.318   2.025   0.136  0.4155  0.9842  0.0210
 1875SOL     OW 5680   4.199   2.753   1.047  0.0942  0.5946  0.3548
 1875SOL    HW1 5681   4.144   2.757   0.969 -0.8978  0.4568  1.0279
 1875SOL    HW2 5682   4.278   2.802   1.024 -0.1925  0.5687 -0.7225
 1876SOL     OW 5683   4.126   1.956   1.621  0.0017  0.2620  0.2893
 1876SOL    HW1 5684   4.059   2.017   1.650 -2.9994 -2.7418  0.3094
 1876SOL    HW2 5685   4.120   1.883   1.683  1.7347 -1.1045 -1.0520
 1877SOL     OW 5686   1.510   4.134   1.510 -0.0452 -0.2838 -0.5049
 1877SOL    HW1 5687   1.571   4.095   1.572  0.8200  1.3020 -0.3232
 1877SOL    HW2 5688   1.491   4.063   1.448  2.5852 -0.6287 -1.0155
 1878SOL     OW 5689   4.180   2.047   1.987 -0.6078  0.0454 -0.4470
 1878SOL    HW1 5690   4.174   2.142   2.000 -1.2462  0.2447 -1.9054
 1878SOL    HW2 5691   4.168   2.010   2.074 -0.3446  1.3068  0.1530
 1879SOL     OW 5692   4.633   3.937   2.779  0.2943  0.0389  0.0204
 1879SOL    HW1 5693   4.691   3.872   2.818  0.4101 -1.2004 -2.0442
 1879SOL    HW2 5694   4.545   3.901   2.789  0.0864  0.8081  1.1040
 1880SOL     OW 5695   2.314   3.202   3.482  0.0077 -0.0634 -0.3281
 1880SOL    HW1 5696   2.369   3.157   3.545  0.1791  2.5134  1.5306
 1880SOL    HW2 5697   2.227   3.163   3.493  0.2871 -0.4285  0.6889
 1881SOL     OW 5698   2.954   4.161   1.072  0.0256  0.1268 -0.4062
 1881SOL    HW1 5699   2.995   4.237   1.033  0.9393  1.0478  2.1194
 1881SOL    HW2 5700   2.997   4.086   1.031 -1.3057  0.8504 -3.3734
 1882SOL     OW 5701   0.924   0.153   3.197  0.2681  0.3152  0.2226
 1882SOL    HW1 5702   0.828   0.156   3.193  0.2611  1.2940  0.7508
 1882SOL    HW2 5703   0.952   0.236   3.160  0.9491 -0.1838 -0.4143
 1883SOL     OW 5704   1.769   0.367   3.841  0.3337  0.2167  0.1815
 1883SOL    HW1 5705   1.798   0.389   3.930  0.1176  0.6885  0.1400
 1883SOL    HW2 5706   1.680   0.400   3.836 -0.0100 -0.6877  0.1077
 1884SOL     OW 5707   1.544   2.728   0.079  0.3077 -0.3452 -0.1732
 1884SOL    HW1 5708   1.516   2.654   0.026  0.0101 -0.1271 -0.3244
 1884SOL    HW2 5709   1.601   2.690   0.146  2.0873 -0.4040 -1.6747
 1885SOL     OW 5710   3.174   2.314   0.435  0.5803 -0.1338  0.2088
 1885SOL    HW1 5711   3.185   2.408   0.419 -0.6048 -0.0110  0.0868
 1885SOL    HW2 5712   3.113   2.309   0.508 -0.4781 -0.8274 -0.6978
 1886SOL     OW 5713   2.529   1.831   4.571  0.0933 -0.4161 -0.2497
 1886SOL    HW1 5714   2.581   1.912   4.580 -0.8032  0.0452  1.1363
 1886SOL    HW2 5715   2.483   1.841   4.487  0.1305  0.4348 -0.1772
 1887SOL     OW 5716   4.951   2.660   4.579  0.5841  0.1723 -0.4635
 1887SOL    HW1 5717   4.890   2.717   4.626  1.6216  0.1828  0.9419
 1887SOL    HW2 5718   4.949   2.692   4.489  1.3077  2.6700  0.3058
 1888SOL     OW 5719   1.846   4.260   2.556  0.1664  0.6262  0.0596
 1888SOL    HW1 5720   1.820   4.181   2.508  2.6104 -0.7479  0.8234
 1888SOL    HW2 5721   1.939   4.270   2.536 -0.0034  3.1613  0.2640
 1889SOL     OW 5722   0.296   1.628   0.560  0.4815 -0.3637  0.6747
 1889SOL    HW1 5723   0.335   1.715   0.550  2.3242 -1.2574 -0.3876
 1889SOL    HW2 5724   0.262   1.607   0.473  2.5334 -1.7931  0.1589
 1890SOL     OW 5725   1.050   3.704   2.665 -0.2328 -0.0033 -0.1317
 1890SOL    HW1 5726   1.057   3.615   2.699 -0.9038  0.3202  0.9078
 1890SOL    HW2 5727   0.987   3.747   2.723  3.2795  2.4579  2.2546
 1891SOL     OW 5728   1.603   4.897   1.631 -0.3631 -0.0813 -0.6711
 1891SOL    HW1 5729   1.562   4.817   1.600 -1.3594  0.5113 -0.9186
 1891SOL    HW2 5730   1.554   4.968   1.589 -0.0307  0.6810  0.1821
 1892SOL     OW 5731   1.818   0.394   1.864 -0.0838 -0.2460 -0.6222
 1892SOL    HW1 5732   1.879   0.365   1.932 -1.0818 -1.1028 -0.0616
 1892SOL    HW2 5733   1.864   0.377   1.781  0.4816 -0.7774 -0.2059
 1893SOL     OW 5734   2.533   2.126   2.846  0.4737  0.0658 -0.0534
 1893SOL    HW1 5735   2.556   2.039   2.880  0.7194  0.8233  1.8675
 1893SOL    HW2 5736   2.590   2.137   2.769  1.2386 -1.0429  0.3218
 1894SOL     OW 5737   0.937   0.395   3.478 -0.1352  0.4607 -0.4393
 1894SOL    HW1 5738   0.974   0.448   3.548 -0.6091  1.3632 -0.8452
 1894SOL    HW2 5739   0.957   0.305   3.502 -0.6270  0.7263  1.0493
 1895SOL     OW 5740   4.273   3.236   0.981 -0.6239 -0.5638  0.3826
 1895SOL    HW1 5741   4.268   3.319   0.934 -2.0332 -0.8212  0.0271
 1895SOL    HW2 5742   4.238   3.172   0.919  1.6818 -1.6814  0.1401
 1896SOL     OW 5743   1.419   4.736   4.893 -0.0086 -0.2861 -0.0434
 1896SOL    HW1 5744   1.378   4.682   4.825 -0.7439  0.3401 -0.1182
 1896SOL    HW2 5745   1.513   4.723   4.881 -0.1566 -0.9321 -0.5590
 1897SOL     OW 5746   2.916   2.977   4.842 -0.3482  0.1899 -0.1111
 1897SOL    HW1 5747   2.901   2.952   4.933  1.0707 -0.7487 -0.1082
 1897SOL    HW2 5748   3.011   2.970   4.831 -0.5503 -0.2036 -1.7951
 1898SOL     OW 5749   3.752   0.847   2.791 -0.5904  0.2031 -0.0065
 1898SOL    HW1 5750   3.692   0.777   2.765 -0.3901 -0.9249  2.3432
 1898SOL    HW2 5751   3.805   0.809   2.860  0.8278  2.1226  0.0289
 1899SOL     OW 5752   1.031   4.941   4.048  0.0270  0.2834  0.0337
 1899SOL    HW1 5753   0.990   5.016   4.004 -1.5802 -0.1916  0.6489
 1899SOL    HW2 5754   0.957   4.888   4.078  1.1266 -0.9182  0.7027
 1900SOL     OW 5755   2.876   1.110   2.649  0.1847 -0.4051 -0.2193
 1900SOL    HW1 5756   2.837   1.096   2.562 -0.2652  1.3806 -0.3333
 1900SOL    HW2 5757   2.801   1.113   2.708  0.3754 -0.0359  0.0043
 1901SOL     OW 5758   1.410   2.758   0.306 -0.0356  0.5179 -0.3671
 1901SOL    HW1 5759   1.406   2.667   0.334  0.2520  0.6804  0.2032
 1901SOL    HW2 5760   1.443   2.754   0.216 -0.6629  0.0216 -0.5828
 1902SOL     OW 5761   4.631   2.905   2.772 -0.0033  0.3184 -0.3502
 1902SOL    HW1 5762   4.600   2.993   2.793 -0.3418  0.3608 -0.9927
 1902SOL    HW2 5763   4.553   2.861   2.737 -0.1412 -0.6047  1.0308
 1903SOL     OW 5764   0.304   0.205   0.821 -0.1201 -0.0874 -0.2172
 1903SOL    HW1 5765   0.227   0.218   0.765  1.3500  1.4673 -1.9584
 1903SOL    HW2 5766   0.376   0.247   0.775  1.7219 -1.0289  1.6206
 1904SOL     OW 5767   0.619   2.999   3.193 -0.2974 -0.2604 -0.0121
 1904SOL    HW1 5768   0.566   3.020   3.116 -1.6454 -0.0449  0.9335
 1904SOL    HW2 5769   0.625   3.082   3.241  0.5073 -0.3965  0.1271
 1905SOL     OW 5770   0.646   1.885   2.182 -0.6919  0.0758  0.1553
 1905SOL    HW1 5771   0.593   1.946   2.233  1.5758  2.3561 -0.0280
 1905SOL    HW2 5772   0.729   1.881   2.228  1.5771  2.4616 -3.2820
 1906SOL     OW 5773   1.305   2.095   2.619  0.0279  0.0906 -0.2950
 1906SOL    HW1 5774   1.342   2.013   2.584 -0.5447 -0.8742  1.2407
 1906SOL    HW2 5775   1.358   2.114   2.696  0.2580  1.2755 -0.7385
 1907SOL     OW 5776   1.857   0.874   4.779  0.0967  0.2801 -0.1049
 1907SOL    HW1 5777   1.936   0.886   4.833 -0.7529  1.6431  0.9111
 1907SOL    HW2 5778   1.816   0.795   4.815  0.9083 -0.3823 -0.5753
 1908SOL     OW 5779   0.752   4.820   3.375  0.0017 -0.2093 -0.4587
 1908SOL    HW1 5780   0.689   4.891   3.366 -0.3002 -0.2859  0.8387
 1908SOL    HW2 5781   0.805   4.824   3.295  0.3016  1.7706 -0.2034
 1909SOL     OW 5782   3.386   3.969   3.250 -0.6462  0.0756  0.1108
 1909SOL    HW1 5783   3.342   3.916   3.316 -1.5869  2.2355  1.3596
 1909SOL    HW2 5784   3.454   4.017   3.298  0.8363 -0.6888 -1.1550
 1910SOL     OW 5785   0.057   3.016   1.706  0.9135  0.5806  0.0280
 1910SOL    HW1 5786   0.123   2.991   1.641  0.9201  0.0455  0.2358
 1910SOL    HW2 5787   0.073   2.958   1.780  0.1044  0.3384  0.0191
 1911SOL     OW 5788   3.148   4.918   4.575  0.3660  0.2310 -0.2977
 1911SOL    HW1 5789   3.147   4.838   4.522 -0.7309  0.5682 -0.8254
 1911SOL    HW2 5790   3.144   4.886   4.666  1.0465 -0.3305 -0.4589
 1912SOL     OW 5791   1.499   0.876   1.786  0.3200  0.0412 -0.1679
 1912SOL    HW1 5792   1.510   0.961   1.745 -0.3255 -0.1939 -0.8604
 1912SOL    HW2 5793   1.556   0.878   1.863 -0.4977  1.4705  0.4129
 1913SOL     OW 5794   1.251   2.773   4.278 -0.8044 -0.0296 -0.0283
 1913SOL    HW1 5795   1.338   2.781   4.239 -0.9904  1.4715 -0.1682
 1913SOL    HW2 5796   1.194   2.827   4.223 -2.3499 -2.7198 -1.3199
 1914SOL     OW 5797   1.506   1.038   4.204  0.4263  0.1750  0.1449
 1914SOL    HW1 5798   1.420   0.997   4.210 -0.2354  1.5129  0.3238
 1914SOL    HW2 5799   1.487   1.132   4.205  1.9463  0.5026  1.2161
 1915SOL     OW 5800   4.396   3.772   3.184 -0.4214  0.6321  0.2434
 1915SOL    HW1 5801   4.384   3.705   3.117 -1.2388  1.3441 -0.3514
 1915SOL    HW2 5802   4.490   3.777   3.197 -0.1786  1.1043 -1.5180
 1916SOL     OW 5803   0.654   1.121   2.501 -0.1449 -0.0502  0.5504
 1916SOL    HW1 5804   0.565   1.156   2.510 -0.1822  0.0628 -0.2284
 1916SOL    HW2 5805   0.687   1.161   2.421  0.6106 -0.0967  0.8372
 1917SOL     OW 5806   3.838   2.525   0.269 -0.2512  0.1149 -0.2385
 1917SOL    HW1 5807   3.926   2.532   0.306 -0.7737  1.8935  0.8078
 1917SOL    HW2 5808   3.792   2.466   0.329 -0.5190  1.3892  0.8577
 1918SOL     OW 5809   2.133   4.381   3.381 -0.2318 -0.2745 -0.2583
 1918SOL    HW1 5810   2.106   4.422   3.298  0.5519 -0.0365 -0.4068
 1918SOL    HW2 5811   2.186   4.448   3.424  1.6569 -1.3465 -0.8130
 1919SOL     OW 5812   4.282   1.453   1.028  0.3456 -0.0433  0.0570
 1919SOL    HW1 5813   4.201   1.472   1.075 -0.5950 -3.1617 -0.0857
 1919SOL    HW2 5814   4.255   1.444   0.937  0.9248 -0.6297 -0.0636
 1920SOL     OW 5815   3.139   3.375   4.575 -1.0003  0.1915 -0.3474
 1920SOL    HW1 5816   3.078   3.324   4.628 -0.3008 -0.6521 -0.3374
 1920SOL    HW2 5817   3.192   3.422   4.639 -2.0593  1.4853 -0.3595
 1921SOL     OW 5818   1.597   1.029   2.932  0.1889 -0.5197 -0.0227
 1921SOL    HW1 5819   1.608   0.935   2.932 -1.4542 -0.7901  1.8393
 1921SOL    HW2 5820   1.558   1.049   3.018 -1.4129  1.5688 -1.1318
 1922SOL     OW 5821   3.515   2.338   2.538  0.5889  0.0325  0.2893
 1922SOL    HW1 5822   3.453   2.289   2.485 -0.1634 -0.2037  1.3383
 1922SOL    HW2 5823   3.583   2.275   2.560  0.4430 -0.1110  0.3298
 1923SOL     OW 5824   3.444   0.613   0.424  0.0874  0.2630 -0.2697
 1923SOL    HW1 5825   3.463   0.707   0.430 -1.1646  0.5813 -0.7979
 1923SOL    HW2 5826   3.454   0.593   0.331 -0.4785  0.0849 -0.2995
 1924SOL     OW 5827   0.206   2.888   1.525 -0.2490  0.1124  0.0638
 1924SOL    HW1 5828   0.261   2.929   1.458  0.0013 -0.1496  0.1060
 1924SOL    HW2 5829   0.191   2.799   1.492 -2.0466  0.6735 -0.7767
 1925SOL     OW 5830   0.631   4.089   0.396  0.1749 -0.2981  0.0680
 1925SOL    HW1 5831   0.587   4.139   0.328 -0.4359  1.7356  1.8574
 1925SOL    HW2 5832   0.564   4.029   0.430 -0.4138  0.7750  0.8463
 1926SOL     OW 5833   2.381   4.966   2.056 -0.1270  0.1645  0.2834
 1926SOL    HW1 5834   2.435   4.931   1.985  1.3359 -0.5354  1.6811
 1926SOL    HW2 5835   2.382   4.898   2.123 -1.9781  0.5510  0.7714
 1927SOL     OW 5836   3.246   2.790   0.465 -0.4033  0.2350 -0.1451
 1927SOL    HW1 5837   3.240   2.858   0.399  0.0151 -1.6155 -2.1884
 1927SOL    HW2 5838   3.201   2.715   0.427 -1.7588 -0.4032  2.4347
 1928SOL     OW 5839   2.584   3.261   4.925 -0.3122  0.1562 -0.0791
 1928SOL    HW1 5840   2.658   3.276   4.984  1.2328  1.5600 -2.2331
 1928SOL    HW2 5841   2.606   3.179   4.881  0.1190  0.6910 -0.8838
 1929SOL     OW 5842   0.784   3.777   1.554  0.3486  0.5482  0.6800
 1929SOL    HW1 5843   0.719   3.827   1.506 -1.2101 -0.7308  1.3662
 1929SOL    HW2 5844   0.852   3.756   1.489 -0.0056  1.7172 -0.0948
 1930SOL     OW 5845   4.125   3.242   1.428  0.1671  0.2923 -0.1050
 1930SOL    HW1 5846   4.138   3.187   1.350 -3.0399  0.0601 -0.6420
 1930SOL    HW2 5847   4.132   3.332   1.396 -1.9476  0.2155 -0.9464
 1931SOL     OW 5848   0.416   1.072   4.655 -0.9858 -0.3074  0.1297
 1931SOL    HW1 5849   0.451   0.983   4.661  0.6973  0.3559  1.1213
 1931SOL    HW2 5850   0.379   1.088   4.742  0.5753  0.6124  0.6852
 1932SOL     OW 5851   3.246   4.537   4.764 -0.5606  0.0687  0.1137
 1932SOL    HW1 5852   3.201   4.539   4.679 -0.9880  2.7238  0.3058
 1932SOL    HW2 5853   3.258   4.629   4.787  2.3073 -0.5254  1.5351
 1933SOL     OW 5854   3.354   1.608   2.298  0.6638  0.2318  0.2213
 1933SOL    HW1 5855   3.396   1.637   2.379  0.5306  0.8864  0.0654
 1933SOL    HW2 5856   3.388   1.520   2.284  1.3935  0.4515  0.5077
 1934SOL     OW 5857   2.035   2.342   0.688 -0.4375  0.2498  0.6028
 1934SOL    HW1 5858   1.957   2.375   0.642 -0.3460  2.5013  1.9123
 1934SOL    HW2 5859   2.011   2.253   0.715 -1.4292 -0.1900 -1.5063
 1935SOL     OW 5860   3.150   3.184   3.876 -0.3998  0.2082 -0.0789
 1935SOL    HW1 5861   3.071   3.138   3.905 -0.2885 -0.6606 -1.1256
 1935SOL    HW2 5862   3.122   3.276   3.870 -2.0201 -0.3554 -2.6303
 1936SOL     OW 5863   4.861   2.086   4.351 -0.5371  0.0142  0.3957
 1936SOL    HW1 5864   4.769   2.075   4.326 -0.5035 -1.1312  0.6892
 1936SOL    HW2 5865   4.868   2.040   4.435  0.3106  0.0469  0.3467
 1937SOL     OW 5866   4.897   0.030   2.863 -0.2527 -0.0014  0.0705
 1937SOL    HW1 5867   4.864  -0.055   2.894  2.4154 -0.8625  0.9090
 1937SOL    HW2 5868   4.977   0.043   2.914  0.5696  1.9826 -1.6247
 1938SOL     OW 5869   4.188   3.401   2.212  0.1519  0.2970 -0.3281
 1938SOL    HW1 5870   4.129   3.476   2.207  0.0694  0.2466 -0.1457
 1938SOL    HW2 5871   4.264   3.426   2.159  1.7959  2.0476  2.5797
 1939SOL     OW 5872   2.641   2.806   3.336 -0.0654  0.3531 -0.6834
 1939SOL    HW1 5873   2.673   2.879   3.389  1.7491 -0.4368 -0.6129
 1939SOL    HW2 5874   2.721   2.762   3.305 -1.0962 -1.4685 -0.8982
 1940SOL     OW 5875   4.701   4.866   1.814  0.0505 -0.1580  0.1407
 1940SOL    HW1 5876   4.613   4.870   1.775  0.0883 -0.4441  0.0244
 1940SOL    HW2 5877   4.704   4.942   1.873 -0.4000 -0.3372  0.4038
 1941SOL     OW 5878   2.219   2.584   1.504  0.3280  0.5732  0.1805
 1941SOL    HW1 5879   2.203   2.534   1.584  0.7274 -1.1852 -0.8055
 1941SOL    HW2 5880   2.313   2.576   1.489 -0.1476 -1.9302 -2.1876
 1942SOL     OW 5881   1.731   2.120   3.306  0.0091 -0.1133  1.2392
 1942SOL    HW1 5882   1.674   2.184   3.263 -0.7026 -1.3400  0.2803
 1942SOL    HW2 5883   1.792   2.173   3.358  1.7304  1.5885 -2.1708
 1943SOL     OW 5884   1.258   4.096   2.539  0.1083 -0.1644 -0.5373
 1943SOL    HW1 5885   1.222   4.116   2.626  0.4553  1.0335 -0.6461
 1943SOL    HW2 5886   1.216   4.014   2.514  1.6667 -1.7566  1.7008
 1944SOL     OW 5887   1.613   4.297   2.742  0.3061 -0.1487 -0.4135
 1944SOL    HW1 5888   1.623   4.232   2.673  0.6430 -1.8007  1.1328
 1944SOL    HW2 5889   1.520   4.318   2.742  0.2014 -0.5821 -0.9613
 1945SOL     OW 5890   0.349   4.122   1.002  0.2989 -0.5943  0.1081
 1945SOL    HW1 5891   0.259   4.097   1.021 -0.3494  1.6062  0.1145
 1945SOL    HW2 5892   0.368   4.194   1.062  3.1824 -2.9070  2.3631
 1946SOL     OW 5893   3.755   2.208   0.157  0.1610  0.0702  0.2492
 1946SOL    HW1 5894   3.772   2.223   0.063 -2.9885 -2.0255 -0.8189
 1946SOL    HW2 5895   3.769   2.294   0.197  0.1602  1.4158 -2.3886
 1947SOL     OW 5896   1.329   1.068   0.422 -0.0322  0.2374 -0.4694
 1947SOL    HW1 5897   1.289   1.127   0.486 -0.9497 -1.1613  0.3009
 1947SOL    HW2 5898   1.416   1.049   0.459 -0.0937  0.3746 -0.2519
 1948SOL     OW 5899   4.097   1.639   2.371 -0.2830 -0.1130  0.3441
 1948SOL    HW1 5900   4.104   1.569   2.436 -2.1021  0.3434  1.0911
 1948SOL    HW2 5901   4.135   1.715   2.414 -3.0661  0.6370  1.6563
 1949SOL     OW 5902   4.240   3.456   0.841  0.1881  0.0795  0.3626
 1949SOL    HW1 5903   4.200   3.404   0.772 -0.0092  0.6934  0.0028
 1949SOL    HW2 5904   4.167   3.486   0.895  0.3357 -0.3411  0.7982
 1950SOL     OW 5905   1.308   4.978   4.084 -0.0432 -0.1304 -0.1399
 1950SOL    HW1 5906   1.344   4.899   4.123 -0.0543  0.0117  0.1632
 1950SOL    HW2 5907   1.215   4.959   4.073 -0.5452  0.6997  2.1855
 1951SOL     OW 5908   1.350   3.227   3.024 -0.1571  0.1554  0.3252
 1951SOL    HW1 5909   1.321   3.264   3.108 -0.6043  0.2690  0.1221
 1951SOL    HW2 5910   1.274   3.236   2.967  0.5227  1.1535 -0.4454
 1952SOL     OW 5911   3.613   1.060   1.289 -0.1910 -1.2301  1.0735
 1952SOL    HW1 5912   3.525   1.072   1.253  1.0948  1.3769 -1.5556
 1952SOL    HW2 5913   3.638   0.972   1.262  0.1141  0.0216 -3.5433
 1953SOL     OW 5914   1.324   1.507   1.777 -0.2968 -0.1771  0.2068
 1953SOL    HW1 5915   1.396   1.554   1.735  1.4637 -2.0719  0.9217
 1953SOL    HW2 5916   1.308   1.432   1.720 -2.4451  0.7074 -0.4534
 1954SOL     OW 5917   2.260   0.144   4.930  0.1862 -0.1463 -0.5043
 1954SOL    HW1 5918   2.348   0.129   4.897  0.2110  0.0799 -0.5389
 1954SOL    HW2 5919   2.267   0.222   4.985 -0.2719  0.7455 -1.6655
 1955SOL     OW 5920   4.828   4.267   1.358 -0.1486 -0.2084  0.1147
 1955SOL    HW1 5921   4.825   4.327   1.431  0.5644  0.0861 -0.0913
 1955SOL    HW2 5922   4.751   4.211   1.369 -2.7123  2.7166 -1.4181
 1956SOL     OW 5923   1.600   1.537   0.110  0.0085 -0.0805 -0.4195
 1956SOL    HW1 5924   1.589   1.561   0.202  0.1341  1.0906 -0.6856
 1956SOL    HW2 5925   1.676   1.478   0.109  0.3933  0.3888  0.1665
 1957SOL     OW 5926   0.820   4.934   1.499 -0.4576 -0.8965 -0.2305
 1957SOL    HW1 5927   0.765   4.996   1.548 -0.6622 -1.3436  0.1123
 1957SOL    HW2 5928   0.779   4.929   1.413 -0.4053 -0.5091 -0.2799
 1958SOL     OW 5929   0.153   1.915   2.253 -0.4795  0.4301  0.3549
 1958SOL    HW1 5930   0.236   1.913   2.206 -0.0717  1.4528  0.9825
 1958SOL    HW2 5931   0.089   1.878   2.192  0.3411  0.1012 -0.3250
 1959SOL     OW 5932   1.596   4.362   0.928 -0.4376  0.2104 -0.6173
 1959SOL    HW1 5933   1.614   4.453   0.954 -0.7482 -0.1067  0.8220
 1959SOL    HW2 5934   1.678   4.316   0.946  0.0530  0.3513 -2.2870
 1960SOL     OW 5935   1.187   3.314   4.267  0.6882  0.3524 -0.1903
 1960SOL    HW1 5936   1.195   3.371   4.190 -0.6088  1.1124  0.1942
 1960SOL    HW2 5937   1.106   3.265   4.251  1.2687 -0.6614 -0.0452
 1961SOL     OW 5938   2.108   4.935   2.106 -0.5916  0.2910 -0.3142
 1961SOL    HW1 5939   2.192   4.946   2.063  0.1340  2.0494  1.4213
 1961SOL    HW2 5940   2.107   4.843   2.133  1.5381  0.5845  1.0368
 1962SOL     OW 5941   3.512   2.128   1.924  0.5566  0.3391 -0.3810
 1962SOL    HW1 5942   3.503   2.048   1.873 -0.2229 -0.9136  1.6293
 1962SOL    HW2 5943   3.602   2.126   1.956  0.4329  0.0980 -0.0509
 1963SOL     OW 5944   1.109   2.766   3.350 -0.1868  0.3317  0.2059
 1963SOL    HW1 5945   1.085   2.834   3.286 -1.8500 -0.6953 -0.3100
 1963SOL    HW2 5946   1.195   2.736   3.320 -0.0878  1.1791 -0.4239
 1964SOL     OW 5947   4.772   3.150   2.532 -0.6557  0.3534 -0.5227
 1964SOL    HW1 5948   4.687   3.118   2.502 -1.0889  0.3356  0.6618
 1964SOL    HW2 5949   4.768   3.143   2.627  1.2705 -1.1190 -0.4970
 1965SOL     OW 5950   4.828   0.468   3.126 -0.1845  1.1138  0.1349
 1965SOL    HW1 5951   4.878   0.466   3.045 -1.9845  0.7055 -1.0222
 1965SOL    HW2 5952   4.834   0.559   3.156 -2.2311  2.1738 -2.3221
 1966SOL     OW 5953   1.781   1.270   3.978 -0.0443  0.1228 -0.2169
 1966SOL    HW1 5954   1.826   1.239   4.057 -0.0360 -0.5112 -0.4600
 1966SOL    HW2 5955   1.688   1.256   3.996 -0.1597  1.4316  0.2844
 1967SOL     OW 5956   2.084   4.402   1.320 -0.0215 -0.8063  0.4090
 1967SOL    HW1 5957   2.068   4.497   1.323  1.6776 -0.4134 -0.8644
 1967SOL    HW2 5958   2.033   4.372   1.245  1.5571 -0.3403 -0.9270
 1968SOL     OW 5959   0.588   0.343   2.358 -0.1416  0.1666  0.4182
 1968SOL    HW1 5960   0.625   0.287   2.426 -0.0672 -0.9772 -0.5297
 1968SOL    HW2 5961   0.608   0.432   2.387  0.4198 -0.3171  1.5791
 1969SOL     OW 5962   1.372   3.549   1.878  0.2005 -0.1621 -0.3333
 1969SOL    HW1 5963   1.420   3.598   1.812  0.0538 -0.5534 -0.7378
 1969SOL    HW2 5964   1.346   3.468   1.834  0.7739 -0.7838  0.4324
 1970SOL     OW 5965   3.073   0.786   1.953 -0.1939  0.0234 -0.4723
 1970SOL    HW1 5966   3.108   0.698   1.968 -0.1744  0.2264  0.7846
 1970SOL    HW2 5967   3.022   0.805   2.033 -0.9722  0.7821 -1.1290
 1971SOL     OW 5968   0.737   3.923   3.857 -0.3267 -0.0384 -0.2852
 1971SOL    HW1 5969   0.797   3.854   3.885  0.1444  0.2942 -0.4657
 1971SOL    HW2 5970   0.679   3.880   3.794 -0.3915 -0.4035  0.0207
 1972SOL     OW 5971   2.733   0.252   4.281 -0.1661 -0.3476 -0.3294
 1972SOL    HW1 5972   2.757   0.303   4.359 -1.4251  0.1966 -0.2761
 1972SOL    HW2 5973   2.768   0.302   4.208 -0.6825  0.1808 -0.2247
 1973SOL     OW 5974   2.851   1.577   0.875  0.2413 -0.6133  0.5325
 1973SOL    HW1 5975   2.943   1.568   0.899  0.0484 -1.6207  0.9265
 1973SOL    HW2 5976   2.817   1.643   0.935  0.8459  0.2228 -0.0292
 1974SOL     OW 5977   3.385   0.760   2.508  0.4574 -0.1942  0.1192
 1974SOL    HW1 5978   3.341   0.764   2.594 -0.3228 -1.5989 -0.1894
 1974SOL    HW2 5979   3.446   0.687   2.515  0.7535 -0.0001 -0.3721
 1975SOL     OW 5980   0.924   4.659   0.704  0.0944  0.7043  0.3897
 1975SOL    HW1 5981   0.956   4.723   0.769  1.5583 -0.1943  0.5871
 1975SOL    HW2 5982   0.950   4.574   0.740  0.4862  0.1630 -1.1320
 1976SOL     OW 5983   4.461   2.883   1.008  0.0795  0.2117  0.8684
 1976SOL    HW1 5984   4.468   2.949   1.077  0.2500 -0.3874  1.4266
 1976SOL    HW2 5985   4.507   2.807   1.042 -0.0194 -0.1667  0.1780
 1977SOL     OW 5986   1.105   2.415   4.550  0.5230 -0.3461  0.0904
 1977SOL    HW1 5987   1.128   2.508   4.562  1.8437 -0.5225 -0.7953
 1977SOL    HW2 5988   1.171   2.368   4.601  1.0003 -0.8229 -0.9207
 1978SOL     OW 5989   2.721   1.139   2.892 -0.0845  0.1934  0.1705
 1978SOL    HW1 5990   2.631   1.122   2.922 -0.0208 -0.2392  0.1238
 1978SOL    HW2 5991   2.754   1.205   2.953 -0.2936  0.0459  0.4453
 1979SOL     OW 5992   2.682   2.444   0.405  0.6956  1.0025  0.0039
 1979SOL    HW1 5993   2.659   2.430   0.497 -0.7837  2.2747 -0.1248
 1979SOL    HW2 5994   2.598   2.448   0.359  1.4177 -0.1066 -1.5079
 1980SOL     OW 5995   2.025   0.637   4.124 -0.1769 -0.4457  0.5991
 1980SOL    HW1 5996   2.060   0.548   4.130 -1.2686 -0.8777  0.6630
 1980SOL    HW2 5997   1.933   0.625   4.102 -0.8780  0.5998  2.7527
 1981SOL     OW 5998   3.488   4.712   3.853  0.0121 -0.0738  0.1374
 1981SOL    HW1 5999   3.562   4.661   3.885 -1.2534 -1.1172  1.5424
 1981SOL    HW2 6000   3.493   4.795   3.901  0.8853  0.3241 -0.6119
 1982SOL     OW 6001   3.692   3.046   1.422 -0.0330 -0.4460  0.0831
 1982SOL    HW1 6002   3.598   3.052   1.434 -0.2820 -2.0125 -0.8947
 1982SOL    HW2 6003   3.714   3.124   1.371 -0.6610  0.3171  0.9456
 1983SOL     OW 6004   0.799   2.326   2.614  0.3557 -0.0748 -0.2574
 1983SOL    HW1 6005   0.856   2.256   2.646 -0.2617  0.0744  1.2227
 1983SOL    HW2 6006   0.743   2.348   2.688  1.2591  2.7681 -0.3113
 1984SOL     OW 6007   3.075   1.541   1.558 -0.4386  0.2107 -0.0825
 1984SOL    HW1 6008   3.054   1.634   1.542 -2.0383 -0.3103 -1.3068
 1984SOL    HW2 6009   3.076   1.533   1.653  1.1722  1.7691  0.0716
 1985SOL     OW 6010   1.134   4.089   2.256 -0.1461  0.5403  0.5811
 1985SOL    HW1 6011   1.077   4.156   2.218  0.5776  0.1494 -1.3333
 1985SOL    HW2 6012   1.183   4.135   2.324 -1.6424  1.2311  1.2360
 1986SOL     OW 6013   1.740   3.404   0.165  0.7099 -0.2356 -0.5696
 1986SOL    HW1 6014   1.760   3.346   0.092 -0.2727  0.1674 -1.1771
 1986SOL    HW2 6015   1.715   3.345   0.236  0.1265 -0.5852 -1.0535
 1987SOL     OW 6016   1.275   3.694   1.507  0.3203 -0.0323  0.5409
 1987SOL    HW1 6017   1.268   3.789   1.519  0.9698 -0.1429  1.9042
 1987SOL    HW2 6018   1.359   3.671   1.545  0.5103 -1.0688 -0.4646
 1988SOL     OW 6019   2.148   2.460   3.637  0.2044 -0.2998 -0.3521
 1988SOL    HW1 6020   2.136   2.365   3.632  1.6730 -0.4743 -1.3088
 1988SOL    HW2 6021   2.226   2.477   3.585  0.8559  1.2795  1.0437
 1989SOL     OW 6022   0.542   3.319   3.847  0.4102 -0.4554 -0.1673
 1989SOL    HW1 6023   0.447   3.323   3.841  0.4070  0.2302  0.2321
 1989SOL    HW2 6024   0.563   3.364   3.929  1.2373  2.1966 -1.6896
 1990SOL     OW 6025   3.790   0.446   0.385 -0.3804 -0.5430  1.0365
 1990SOL    HW1 6026   3.860   0.428   0.448 -0.1564 -0.3263  0.8536
 1990SOL    HW2 6027   3.732   0.507   0.430  0.2293  0.2849  0.7425
 1991SOL     OW 6028   2.769   3.215   2.677 -0.2876  0.1833 -0.3238
 1991SOL    HW1 6029   2.763   3.221   2.773  0.6309 -0.4005 -0.2228
 1991SOL    HW2 6030   2.805   3.128   2.661  1.7908  1.1221 -1.0949
 1992SOL     OW 6031   3.755   3.466   0.816  0.5131  0.0402  0.1075
 1992SOL    HW1 6032   3.778   3.520   0.740  2.0817 -3.6439 -2.2717
 1992SOL    HW2 6033   3.837   3.457   0.865 -0.1018  0.9613  1.3834
 1993SOL     OW 6034   2.442   3.560   0.713 -0.5474 -0.5417  0.5633
 1993SOL    HW1 6035   2.475   3.645   0.684 -0.3960 -0.1927  1.7242
 1993SOL    HW2 6036   2.390   3.529   0.638  0.8815 -0.2840 -0.5861
 1994SOL     OW 6037   2.930   3.921   3.151  0.3291 -0.3510 -0.3513
 1994SOL    HW1 6038   2.913   3.861   3.224  1.0898 -0.5997 -0.3754
 1994SOL    HW2 6039   2.989   3.987   3.187 -1.0925  0.8397 -0.1121
 1995SOL     OW 6040   4.251   1.001   4.477 -0.1822 -0.2030 -0.2853
 1995SOL    HW1 6041   4.174   0.969   4.429 -0.7806  1.6161 -0.6637
 1995SOL    HW2 6042   4.228   1.092   4.499  0.2829 -0.7843  3.0450
 1996SOL     OW 6043   1.458   3.019   3.620 -0.2012 -0.3479  0.1167
 1996SOL    HW1 6044   1.375   2.974   3.635 -0.3323 -0.2297 -0.2300
 1996SOL    HW2 6045   1.524   2.963   3.661 -0.3973 -0.6878 -0.0268
 1997SOL     OW 6046   1.589   0.632   1.561  0.2167  0.0877  0.3111
 1997SOL    HW1 6047   1.542   0.693   1.505 -0.2484 -1.1009 -0.6499
 1997SOL    HW2 6048   1.530   0.617   1.635  0.4964  1.0627  0.7491
 1998SOL     OW 6049   1.699   2.972   0.208  0.0056 -0.3000  0.1867
 1998SOL    HW1 6050   1.705   2.896   0.150 -0.1718  0.5109 -0.9276
 1998SOL    HW2 6051   1.680   3.045   0.150 -0.9991  0.4193  1.3623
 1999SOL     OW 6052   1.298   0.694   3.806  0.2911  0.4683 -0.2082
 1999SOL    HW1 6053   1.329   0.736   3.887 -1.8843  0.9346  0.4267
 1999SOL    HW2 6054   1.301   0.764   3.741  1.0697  0.3586 -0.3034
 2000SOL     OW 6055   0.225   3.970   4.423 -0.1957  0.1179 -0.7141
 2000SOL    HW1 6056   0.223   4.065   4.420 -2.4511  0.3792  2.8968
 2000SOL    HW2 6057   0.305   3.948   4.470  0.2192  0.2418 -1.3620
 2001SOL     OW 6058   4.750   2.822   3.120  0.1687  0.2004  0.1063
 2001SOL    HW1 6059   4.746   2.913   3.090 -2.5408 -0.2428 -1.0989
 2001SOL    HW2 6060   4.791   2.775   3.047 -0.6277  0.1067 -0.2904
 2002SOL     OW 6061   2.764   1.906   0.746 -0.6379  0.6848  0.2479
 2002SOL    HW1 6062   2.853   1.942   0.750 -0.6971  0.7637  1.0850
 2002SOL    HW2 6063   2.755   1.855   0.826 -0.8255 -0.5953 -0.5660
 2003SOL     OW 6064   0.116   2.486   1.059 -0.6426  0.1048  0.0962
 2003SOL    HW1 6065   0.156   2.423   0.999 -0.5106  0.4538 -0.1892
 2003SOL    HW2 6066   0.186   2.510   1.119 -0.9042 -0.6086  0.7003
 2004SOL     OW 6067   1.709   3.936   3.262  0.5706  0.0485 -0.5633
 2004SOL    HW1 6068   1.655   3.861   3.238  2.2252 -1.6513  0.7715
 2004SOL    HW2 6069   1.799   3.904   3.258  1.2739  1.6551  1.0306
 2005SOL     OW 6070   0.283   2.476   3.734  0.4657  0.0191 -0.7315
 2005SOL    HW1 6071   0.355   2.414   3.752  0.9137  0.2359 -1.7216
 2005SOL    HW2 6072   0.246   2.446   3.651 -1.2286 -0.6519  0.2226
 2006SOL     OW 6073   3.312   4.385   0.694 -0.0342 -0.2598  0.6521
 2006SOL    HW1 6074   3.321   4.302   0.647  1.0270 -1.3683  2.6925
 2006SOL    HW2 6075   3.328   4.451   0.627 -1.9578 -1.5947 -1.2812
 2007SOL     OW 6076   4.553   0.955   1.279  0.3410 -0.2350  0.1526
 2007SOL    HW1 6077   4.461   0.947   1.303  0.2155  0.4344 -0.0849
 2007SOL    HW2 6078   4.592   1.004   1.352  0.9725 -2.3278  1.3028
 2008SOL     OW 6079   1.564   1.576   2.322  0.1764 -0.6007 -0.6542
 2008SOL    HW1 6080   1.544   1.530   2.403  1.6254 -2.0243 -1.0523
 2008SOL    HW2 6081   1.639   1.632   2.344 -1.2615  1.2779 -0.3027
 2009SOL     OW 6082   4.392   0.789   4.920  0.5337  0.1203 -0.1533
 2009SOL    HW1 6083   4.338   0.836   4.983  2.7108  1.0849  1.0990
 2009SOL    HW2 6084   4.387   0.842   4.840  0.3560  0.6938  0.2323
 2010SOL     OW 6085   0.297   0.622   3.484 -0.0889 -0.4171 -0.2131
 2010SOL    HW1 6086   0.262   0.671   3.558  1.3888  0.0361  0.2239
 2010SOL    HW2 6087   0.384   0.593   3.514 -0.2587 -1.9065 -1.0560
 2011SOL     OW 6088   4.504   2.597   1.088  0.3059  0.6559 -0.2223
 2011SOL    HW1 6089   4.473   2.620   1.176 -0.1067  0.2785 -0.2629
 2011SOL    HW2 6090   4.532   2.506   1.096  2.2774  1.2289  0.0319
 2012SOL     OW 6091   3.732   3.139   2.153  0.3430 -0.2741  0.0878
 2012SOL    HW1 6092   3.797   3.092   2.205  1.4268  0.7045 -0.3297
 2012SOL    HW2 6093   3.690   3.199   2.215  1.1639  0.4151 -0.0049
 2013SOL     OW 6094   3.858   4.522   2.172  0.2534  0.7013  0.6131
 2013SOL    HW1 6095   3.797   4.480   2.234 -0.3221  1.1498  0.3589
 2013SOL    HW2 6096   3.907   4.449   2.133 -2.0317  0.0192 -1.2168
 2014SOL     OW 6097   2.627   0.951   2.488 -0.0320 -0.4764 -0.5296
 2014SOL    HW1 6098   2.652   0.983   2.401 -1.6220 -0.2292 -0.9274
 2014SOL    HW2 6099   2.589   1.027   2.531 -0.9068 -1.0457 -0.2832
 2015SOL     OW 6100   0.723   0.203   2.597  0.0530 -0.0562  0.2031
 2015SOL    HW1 6101   0.685   0.117   2.610  0.0865 -0.0553  0.3085
 2015SOL    HW2 6102   0.804   0.202   2.649  0.3208 -0.1451 -0.2143
 2016SOL     OW 6103   0.543   2.823   1.991 -0.5423  0.0103  0.3097
 2016SOL    HW1 6104   0.551   2.742   2.041  0.7947 -0.6967 -0.9630
 2016SOL    HW2 6105   0.522   2.794   1.902  2.0906  0.8603 -0.6759
 2017SOL     OW 6106   1.411   3.040   1.753  0.0512 -0.5206 -0.6683
 2017SOL    HW1 6107   1.488   3.069   1.802  0.3326 -2.4620  0.1334
 2017SOL    HW2 6108   1.442   3.035   1.662  0.7556 -0.8164 -0.4242
 2018SOL     OW 6109   4.289   3.488   3.300  0.3334  0.2287  0.2264
 2018SOL    HW1 6110   4.226   3.417   3.289  0.7660  0.0195 -1.0190
 2018SOL    HW2 6111   4.259   3.535   3.378  0.0413 -1.3053  1.0677
 2019SOL     OW 6112   4.571   4.509   1.507 -0.2545  0.1779 -0.3248
 2019SOL    HW1 6113   4.496   4.466   1.466  0.1472  0.3291 -1.2455
 2019SOL    HW2 6114   4.534   4.585   1.550 -0.5955  0.4663 -1.0987
 2020SOL     OW 6115   2.980   0.257   1.129 -0.0797  0.3577 -0.5718
 2020SOL    HW1 6116   2.899   0.287   1.169  1.0903  0.6872  1.7195
 2020SOL    HW2 6117   2.970   0.162   1.124 -0.4219  0.3382  0.2247
 2021SOL     OW 6118   2.977   2.060   0.722  0.0554  0.9224  0.4004
 2021SOL    HW1 6119   3.005   2.063   0.631  1.2517 -0.1567  0.7113
 2021SOL    HW2 6120   3.057   2.044   0.772 -0.5931  1.3835  1.6426
 2022SOL     OW 6121   4.357   0.051   3.895  0.0985  0.2234  0.0771
 2022SOL    HW1 6122   4.265   0.025   3.904 -0.2273  1.6370  1.1465
 2022SOL    HW2 6123   4.387   0.006   3.816 -1.6171  0.0309 -0.5071
 2023SOL     OW 6124   2.610   1.199   1.604 -0.5309 -0.1780 -0.2583
 2023SOL    HW1 6125   2.557   1.121   1.620 -0.7721  0.2441  1.0820
 2023SOL    HW2 6126   2.559   1.271   1.642  1.6024  0.0604  2.3996
 2024SOL     OW 6127   2.177   3.807   0.201 -0.0721 -0.4645 -0.1661
 2024SOL    HW1 6128   2.154   3.715   0.192  2.5883 -1.2254  0.0101
 2024SOL    HW2 6129   2.192   3.837   0.111 -1.3183 -0.0601 -0.2555
 2025SOL     OW 6130   3.144   0.732   3.001 -0.1824  0.0145  0.6967
 2025SOL    HW1 6131   3.228   0.769   2.975 -0.0785  1.0997  2.4030
 2025SOL    HW2 6132   3.093   0.727   2.920  1.0074  0.7002 -0.1203
 2026SOL     OW 6133   4.517   2.146   1.888  0.8567 -0.4751  0.4853
 2026SOL    HW1 6134   4.472   2.163   1.806  2.1434  0.6459 -0.0167
 2026SOL    HW2 6135   4.451   2.163   1.956  0.7459  2.0447 -0.1838
 2027SOL     OW 6136   3.427   3.462   3.893 -0.0429 -0.4866  0.6797
 2027SOL    HW1 6137   3.410   3.458   3.987  2.5508  1.5474  1.3396
 2027SOL    HW2 6138   3.505   3.515   3.885 -1.0337  0.6965 -2.7757
 2028SOL     OW 6139   1.904   3.440   2.406 -0.2441  0.5013  0.0954
 2028SOL    HW1 6140   1.856   3.439   2.323  0.2403 -0.1682 -0.1928
 2028SOL    HW2 6141   1.858   3.376   2.461 -0.0444  0.2952  0.0264
 2029SOL     OW 6142   3.935   0.330   2.892 -0.9402  0.3106  0.2798
 2029SOL    HW1 6143   3.951   0.298   2.980 -0.3599 -0.0932  0.0367
 2029SOL    HW2 6144   3.851   0.375   2.897 -0.1310  1.7504  1.4164
 2030SOL     OW 6145   4.669   2.459   2.578  0.0160  0.0545 -0.1797
 2030SOL    HW1 6146   4.698   2.549   2.562 -1.7688  0.7168  0.0904
 2030SOL    HW2 6147   4.697   2.440   2.667 -0.1303  0.5691 -0.0225
 2031SOL     OW 6148   0.304   0.005   1.477 -0.1124  0.7106  0.4143
 2031SOL    HW1 6149   0.276   0.064   1.547  0.1670  0.7038  0.5315
 2031SOL    HW2 6150   0.242  -0.068   1.480 -0.5377  1.0613  0.1848
 2032SOL     OW 6151   3.244   4.685   3.705  0.2650  0.0491  0.0398
 2032SOL    HW1 6152   3.275   4.694   3.614 -0.0444  0.4594 -0.0299
 2032SOL    HW2 6153   3.320   4.709   3.758  0.2133  0.5934 -0.1238
 2033SOL     OW 6154   1.091   4.559   2.863 -0.1104  0.2517 -0.4470
 2033SOL    HW1 6155   0.999   4.535   2.865  0.3179 -1.4873  0.6872
 2033SOL    HW2 6156   1.117   4.550   2.771 -0.9503  0.2807 -0.6896
 2034SOL     OW 6157   3.853   1.654   1.981  0.5080  0.6173 -0.1916
 2034SOL    HW1 6158   3.823   1.631   2.069  0.4845  3.1103  0.5263
 2034SOL    HW2 6159   3.948   1.642   1.984  0.3794 -0.4831 -0.2361
 2035SOL     OW 6160   2.995   0.208   4.876 -0.2251 -0.2956  0.3610
 2035SOL    HW1 6161   3.012   0.228   4.784 -0.3438 -0.5459  0.2821
 2035SOL    HW2 6162   2.906   0.240   4.891 -0.5056 -0.9651  0.1692
 2036SOL     OW 6163   4.119   3.043   4.324 -0.3659 -0.0715 -0.0380
 2036SOL    HW1 6164   4.134   3.033   4.418  0.5139  1.9296  0.0809
 2036SOL    HW2 6165   4.072   3.126   4.316  2.7519  1.7117 -1.5503
 2037SOL     OW 6166   2.353   2.592   4.731 -0.4003 -0.3862  0.2806
 2037SOL    HW1 6167   2.395   2.508   4.749 -0.3800 -0.3875  0.2257
 2037SOL    HW2 6168   2.293   2.605   4.805  0.4500  0.1060  0.9027
 2038SOL     OW 6169   4.771   4.345   4.286  0.0269 -0.1811 -0.2505
 2038SOL    HW1 6170   4.855   4.298   4.283  0.5060  0.5591  0.9008
 2038SOL    HW2 6171   4.707   4.282   4.253  0.5566 -1.8646  1.7434
 2039SOL     OW 6172   0.315   0.205   1.078 -0.2551 -0.3845  0.0669
 2039SOL    HW1 6173   0.294   0.195   0.985 -0.8372 -0.9363  0.2500
 2039SOL    HW2 6174   0.232   0.232   1.117  0.2322  0.8853  0.2720
 2040SOL     OW 6175   2.820   1.530   2.293  0.1301 -0.0336  0.6727
 2040SOL    HW1 6176   2.902   1.484   2.276 -0.9757 -1.5841 -1.0451
 2040SOL    HW2 6177   2.753   1.462   2.283 -1.6092  1.8266 -1.7076
 2041SOL     OW 6178   4.173   4.099   2.599 -0.1247 -0.1268 -0.5023
 2041SOL    HW1 6179   4.229   4.082   2.523  0.2831  0.1034 -0.2585
 2041SOL    HW2 6180   4.153   4.193   2.593  1.0643  0.2050  0.4378
 2042SOL     OW 6181   3.877   1.672   4.869  0.4789  0.0946  0.2443
 2042SOL    HW1 6182   3.885   1.765   4.850 -0.0638  0.3540  1.2380
 2042SOL    HW2 6183   3.802   1.643   4.817 -1.3868  0.9349  2.3437
 2043SOL     OW 6184   1.189   0.055   2.755 -0.3770 -0.2794 -0.0879
 2043SOL    HW1 6185   1.196  -0.041   2.761 -3.2662 -0.6109 -0.6933
 2043SOL    HW2 6186   1.174   0.071   2.661 -2.6634  0.4524  0.3467
 2044SOL     OW 6187   2.188   1.120   0.977 -0.2380  0.1752  0.3293
 2044SOL    HW1 6188   2.274   1.079   0.972 -1.4479 -2.5516  0.4521
 2044SOL    HW2 6189   2.172   1.154   0.889  0.7216  0.2238  0.1658
 2045SOL     OW 6190   4.955   0.427   4.230  0.7104  0.1604 -0.0421
 2045SOL    HW1 6191   4.870   0.464   4.206  0.7060  0.5807  0.6140
 2045SOL    HW2 6192   4.980   0.472   4.310  2.1296  0.9278 -0.8740
 2046SOL     OW 6193   4.888   3.972   1.963 -0.4048 -0.2990 -0.3292
 2046SOL    HW1 6194   4.950   3.908   1.999 -1.2565 -0.9182  0.0734
 2046SOL    HW2 6195   4.816   3.973   2.026 -0.0968  1.6043  0.0486
 2047SOL     OW 6196   1.286   4.551   4.732  0.2151  0.3497  0.3925
 2047SOL    HW1 6197   1.274   4.529   4.640  1.2606  0.9389  0.0939
 2047SOL    HW2 6198   1.197   4.561   4.767 -0.1848 -0.0403 -0.5099
 2048SOL     OW 6199   3.120   1.061   3.829  0.2796 -0.2056  0.3464
 2048SOL    HW1 6200   3.198   1.108   3.857 -0.5712  0.9443  0.8625
 2048SOL    HW2 6201   3.126   1.058   3.734  0.4222  0.8311  0.3198
 2049SOL     OW 6202   2.356   1.793   4.275  0.1886  0.6083 -0.3591
 2049SOL    HW1 6203   2.298   1.858   4.314  0.8369 -1.4020  4.5837
 2049SOL    HW2 6204   2.444   1.829   4.286  0.3542  0.3679 -0.8308
 2050SOL     OW 6205   3.348   3.486   2.928 -0.2287  0.0527  0.0208
 2050SOL    HW1 6206   3.273   3.427   2.931 -0.5931  0.5182  2.8913
 2050SOL    HW2 6207   3.311   3.573   2.943  0.8498  0.2185  2.1086
 2051SOL     OW 6208   2.437   2.578   4.297  0.0806  0.1547 -0.9007
 2051SOL    HW1 6209   2.357   2.531   4.320 -0.3755  0.2655 -2.1498
 2051SOL    HW2 6210   2.433   2.659   4.348 -0.3114 -0.0963 -0.5255
 2052SOL     OW 6211   2.427   2.160   3.445 -0.3233 -0.0909  0.4795
 2052SOL    HW1 6212   2.458   2.116   3.525  4.5242  0.9534 -0.4868
 2052SOL    HW2 6213   2.431   2.253   3.466  1.6014  0.2216 -1.0334
 2053SOL     OW 6214   0.839   3.960   1.775 -0.3049 -0.3201  0.3109
 2053SOL    HW1 6215   0.845   3.895   1.705 -1.6856 -0.4856  0.3158
 2053SOL    HW2 6216   0.926   3.961   1.816  0.3430 -0.6571 -1.0093
 2054SOL     OW 6217   4.405   1.422   2.165 -0.2468  0.2333 -0.0261
 2054SOL    HW1 6218   4.492   1.393   2.139 -0.2594  0.1381  0.0416
 2054SOL    HW2 6219   4.389   1.382   2.250 -0.0916  0.7766  0.2608
 2055SOL     OW 6220   3.598   2.559   2.423 -0.2132 -0.1691 -0.0439
 2055SOL    HW1 6221   3.572   2.483   2.476 -0.6665  0.1130  0.1432
 2055SOL    HW2 6222   3.609   2.525   2.335  1.8054 -0.9201  0.4467
 2056SOL     OW 6223   3.513   0.191   1.851 -0.3400 -0.2498  0.2045
 2056SOL    HW1 6224   3.482   0.239   1.928  0.6046 -0.0959  0.4994
 2056SOL    HW2 6225   3.588   0.242   1.820 -1.5825  0.5425 -1.7271
 2057SOL     OW 6226   1.172   3.248   3.806 -0.1694 -0.3131  0.1803
 2057SOL    HW1 6227   1.179   3.339   3.833 -1.7110 -0.2081  0.2790
 2057SOL    HW2 6228   1.085   3.220   3.834 -0.3138 -1.3662 -1.1728
 2058SOL     OW 6229   1.751   0.040   4.938  0.5531 -0.3646  0.0889
 2058SOL    HW1 6230   1.756   0.126   4.896 -1.8946  0.5624  1.4552
 2058SOL    HW2 6231   1.842   0.012   4.945  1.6191  2.7934  0.8808
 2059SOL     OW 6232   4.752   3.783   0.274  0.1021  0.0393 -0.0629
 2059SOL    HW1 6233   4.797   3.854   0.228 -1.0779  0.9195  0.0981
 2059SOL    HW2 6234   4.723   3.822   0.357 -2.3298  0.0256 -0.8140
 2060SOL     OW 6235   4.917   1.745   3.226  0.5224  0.4215  0.3109
 2060SOL    HW1 6236   4.882   1.746   3.136  0.6815  3.0124  0.2227
 2060SOL    HW2 6237   5.000   1.791   3.220  0.4907  0.7064  1.8265
 2061SOL     OW 6238   0.281   2.596   4.275 -0.0580 -0.3188  0.0689
 2061SOL    HW1 6239   0.294   2.611   4.181 -0.7899  0.8763  0.1422
 2061SOL    HW2 6240   0.186   2.598   4.287 -0.2151 -3.5962  0.3712
 2062SOL     OW 6241   2.124   4.671   2.149  0.0646  0.3272 -0.5054
 2062SOL    HW1 6242   2.207   4.630   2.124 -0.1923 -0.2339 -0.4681
 2062SOL    HW2 6243   2.082   4.606   2.207  0.2598  1.2198  0.6658
 2063SOL     OW 6244   1.781   3.952   4.172  0.1889 -0.3762 -0.5219
 2063SOL    HW1 6245   1.741   3.998   4.098 -1.1053  1.0880  1.0026
 2063SOL    HW2 6246   1.859   4.003   4.194 -0.0644 -0.1336 -0.1729
 2064SOL     OW 6247   1.545   2.792   4.210  0.2792 -0.4181 -0.2668
 2064SOL    HW1 6248   1.571   2.817   4.299  0.8207  1.3054 -0.8808
 2064SOL    HW2 6249   1.624   2.755   4.171 -0.0356 -1.4498  0.0390
 2065SOL     OW 6250   3.524   1.555   3.589  0.3395  0.1661  0.0012
 2065SOL    HW1 6251   3.446   1.531   3.539 -0.2598  0.0628  0.9627
 2065SOL    HW2 6252   3.518   1.504   3.670  0.1557  1.9099  1.1484
 2066SOL     OW 6253   4.750   0.340   2.886  0.7782  0.0597  0.5383
 2066SOL    HW1 6254   4.811   0.406   2.853  1.7685 -1.4978 -0.8970
 2066SOL    HW2 6255   4.793   0.257   2.868 -1.7101 -1.1148 -0.4645
 2067SOL     OW 6256   1.849   1.827   4.802  0.2601  0.0970  0.1736
 2067SOL    HW1 6257   1.864   1.745   4.849  0.8220 -0.1724 -0.4621
 2067SOL    HW2 6258   1.755   1.829   4.786  0.3904 -1.0446 -0.9005
 2068SOL     OW 6259   0.807   4.391   1.613  0.1273 -0.5676 -0.3610
 2068SOL    HW1 6260   0.773   4.451   1.679  0.5336 -0.7490  0.0184
 2068SOL    HW2 6261   0.794   4.436   1.530  2.2339  0.9432  0.0334
 2069SOL     OW 6262   0.773   3.824   4.575  0.2848  0.0164 -0.1513
 2069SOL    HW1 6263   0.724   3.898   4.539  2.2946  0.6621 -1.7522
 2069SOL    HW2 6264   0.840   3.865   4.630  1.1959 -0.5952 -0.7801
 2070SOL     OW 6265   1.860   2.783   2.895  0.6399  0.0983 -0.1587
 2070SOL    HW1 6266   1.867   2.758   2.802  1.4911 -1.7318  0.3475
 2070SOL    HW2 6267   1.779   2.741   2.924  0.4740  0.5097 -0.0316
 2071SOL     OW 6268   4.737   1.550   1.596 -0.0243  0.4534 -0.4838
 2071SOL    HW1 6269   4.734   1.543   1.692 -0.7373  0.1243 -0.5218
 2071SOL    HW2 6270   4.819   1.595   1.578  0.3393  0.1084  0.2622
 2072SOL     OW 6271   4.260   2.922   0.528  0.5793 -0.2148 -0.2663
 2072SOL    HW1 6272   4.257   2.930   0.433 -1.1677 -0.0837 -0.2450
 2072SOL    HW2 6273   4.253   3.012   0.560  1.0762 -0.2652 -0.0178
 2073SOL     OW 6274   4.024   3.613   2.415 -0.0503  0.3111 -0.3481
 2073SOL    HW1 6275   3.947   3.619   2.472  1.0866  0.7302  1.2117
 2073SOL    HW2 6276   4.091   3.571   2.469  1.7744  2.7396 -0.5581
 2074SOL     OW 6277   0.165   2.097   0.766  0.1204 -0.1302  0.1573
 2074SOL    HW1 6278   0.222   2.127   0.695 -0.2744  1.7511  0.5870
 2074SOL    HW2 6279   0.112   2.173   0.789 -1.4973 -1.3977  0.8209
 2075SOL     OW 6280   1.636   4.059   3.640  0.1441  0.0791 -0.4142
 2075SOL    HW1 6281   1.558   4.109   3.662 -0.2471 -0.9611  0.6684
 2075SOL    HW2 6282   1.669   4.027   3.724 -1.4289 -4.1169 -1.1261
 2076SOL     OW 6283   1.180   3.161   3.293 -0.1670  0.2651 -0.2397
 2076SOL    HW1 6284   1.111   3.107   3.254  0.7679 -0.9248 -0.2887
 2076SOL    HW2 6285   1.176   3.141   3.387  0.6061 -0.3984 -0.3425
 2077SOL     OW 6286   4.729   2.354   0.901  0.1040  0.6015  0.2064
 2077SOL    HW1 6287   4.679   2.355   0.983 -1.2530 -0.1587 -0.5886
 2077SOL    HW2 6288   4.688   2.420   0.846  0.6954  0.7590 -0.0567
 2078SOL     OW 6289   3.870   2.925   1.139  0.4479 -0.2873 -0.4705
 2078SOL    HW1 6290   3.857   2.836   1.106  2.5086 -0.3599 -1.2436
 2078SOL    HW2 6291   3.789   2.971   1.118 -0.4342 -1.8310 -0.5662
 2079SOL     OW 6292   3.367   2.766   4.967 -0.2092  0.2411  0.1323
 2079SOL    HW1 6293   3.350   2.690   5.023  1.0147  0.3955  0.7406
 2079SOL    HW2 6294   3.418   2.731   4.894 -1.6154  0.0806 -0.8175
 2080SOL     OW 6295   3.947   2.075   3.625 -0.3319  0.5422  0.0949
 2080SOL    HW1 6296   3.958   2.163   3.588 -1.5329 -0.0861 -1.8909
 2080SOL    HW2 6297   4.033   2.055   3.664  0.5954  1.7885 -1.1893
 2081SOL     OW 6298   0.427   2.152   4.634 -0.4474  0.2891 -0.6604
 2081SOL    HW1 6299   0.424   2.062   4.601 -0.8689  0.1506 -0.2565
 2081SOL    HW2 6300   0.359   2.155   4.701  1.6645  0.0158  1.6115
 2082SOL     OW 6301   3.976   0.933   1.803  0.0286  0.3996  0.0528
 2082SOL    HW1 6302   3.908   0.867   1.820  0.3132  0.1323  0.1605
 2082SOL    HW2 6303   3.990   0.974   1.889  0.7352 -0.2506  0.2581
 2083SOL     OW 6304   3.179   2.198   2.096  0.8066 -1.4404  0.1209
 2083SOL    HW1 6305   3.244   2.210   2.165  0.7971  0.0113 -0.0979
 2083SOL    HW2 6306   3.094   2.209   2.140  0.6129 -3.9004  0.5267
 2084SOL     OW 6307   0.044   0.885   0.105  0.0383  0.0691  0.5230
 2084SOL    HW1 6308   0.067   0.794   0.127  0.5203  0.8872  3.9524
 2084SOL    HW2 6309   0.122   0.935   0.129 -0.6465  1.5293 -0.2231
 2085SOL     OW 6310   0.836   4.903   1.232  0.0993  0.0583 -0.1373
 2085SOL    HW1 6311   0.873   4.834   1.287 -1.4991 -0.1426  0.7453
 2085SOL    HW2 6312   0.902   4.917   1.164  0.6626 -2.0447 -0.1111
 2086SOL     OW 6313   2.455   4.604   3.904 -0.3362 -0.2703 -0.7024
 2086SOL    HW1 6314   2.476   4.538   3.837 -1.7703 -0.2653 -1.1901
 2086SOL    HW2 6315   2.519   4.674   3.890  0.4779 -1.0444 -0.9247
 2087SOL     OW 6316   4.818   0.069   2.348 -0.4188 -0.1608  0.1137
 2087SOL    HW1 6317   4.815   0.083   2.442  0.3677 -0.3763  0.1742
 2087SOL    HW2 6318   4.841   0.154   2.312  0.3572 -0.3275  0.1991
 2088SOL     OW 6319   2.977   0.346   1.652  0.3040 -0.4113  0.6785
 2088SOL    HW1 6320   2.945   0.436   1.664 -1.5730 -0.6485 -1.5982
 2088SOL    HW2 6321   2.916   0.308   1.587  3.0459 -2.2045 -1.0578
 2089SOL     OW 6322   3.965   4.628   2.958 -0.3697 -0.0712  0.5168
 2089SOL    HW1 6323   3.971   4.692   3.030  0.3265 -0.5446  0.8873
 2089SOL    HW2 6324   3.999   4.675   2.882 -3.1793  1.2065 -0.0766
 2090SOL     OW 6325   3.964   4.521   1.037  0.2779 -0.2901  0.2790
 2090SOL    HW1 6326   3.948   4.427   1.022  1.3510 -0.4633  0.0938
 2090SOL    HW2 6327   3.901   4.565   0.981  1.0678 -0.9219 -1.1609
 2091SOL     OW 6328   2.055   0.726   3.628  0.3244 -0.2737  0.8324
 2091SOL    HW1 6329   1.983   0.724   3.565  2.1589  2.0772 -1.5028
 2091SOL    HW2 6330   2.118   0.663   3.594  1.1340  0.6820  0.5306
 2092SOL     OW 6331   3.445   2.979   0.243 -0.2148  0.0294  0.1314
 2092SOL    HW1 6332   3.517   2.957   0.184 -0.7528 -0.8857 -0.1993
 2092SOL    HW2 6333   3.480   3.049   0.299  1.5367 -1.5642  1.1450
 2093SOL     OW 6334   2.016   2.913   1.322 -0.0556 -0.2099 -0.1305
 2093SOL    HW1 6335   2.106   2.880   1.320 -0.6553 -2.0150  0.5352
 2093SOL    HW2 6336   2.017   2.991   1.266  1.7984 -0.4866 -0.5281
 2094SOL     OW 6337   3.391   3.153   1.397  0.0026  0.3056 -0.2519
 2094SOL    HW1 6338   3.342   3.160   1.315  1.0865  1.2160 -0.8625
 2094SOL    HW2 6339   3.416   3.244   1.417  2.7988 -0.2137 -0.8701
 2095SOL     OW 6340   1.753   3.246   1.279  0.1825 -0.1260  0.7710
 2095SOL    HW1 6341   1.684   3.280   1.336  0.6958  1.5372  0.4474
 2095SOL    HW2 6342   1.738   3.152   1.277 -1.8056  0.1475  1.0561
 2096SOL     OW 6343   2.305   3.606   0.941  0.3855 -0.2874  0.3463
 2096SOL    HW1 6344   2.264   3.691   0.925 -1.2442 -0.7534  1.7836
 2096SOL    HW2 6345   2.345   3.582   0.857 -2.6597  0.0280 -1.3205
 2097SOL     OW 6346   0.922   1.105   0.559 -0.0940 -0.3568  0.4287
 2097SOL    HW1 6347   0.897   1.095   0.467 -1.4975 -0.3051  0.7793
 2097SOL    HW2 6348   1.015   1.128   0.556 -0.1062 -0.3814 -0.9712
 2098SOL     OW 6349   2.747   3.886   3.403 -0.2311 -0.4609  0.1377
 2098SOL    HW1 6350   2.661   3.860   3.368 -0.1586  0.6008 -0.9238
 2098SOL    HW2 6351   2.727   3.959   3.461  0.1083  1.7017 -2.2524
 2099SOL     OW 6352   3.015   0.102   2.306 -0.5466  0.4382  0.2344
 2099SOL    HW1 6353   2.944   0.165   2.294 -1.7153 -1.0006 -0.8435
 2099SOL    HW2 6354   3.054   0.094   2.219 -1.7308 -1.7389 -0.1772
 2100SOL     OW 6355   0.761   0.368   2.937 -0.5439  0.4668 -0.9333
 2100SOL    HW1 6356   0.816   0.447   2.938  3.1579 -1.8840 -1.1595
 2100SOL    HW2 6357   0.801   0.312   2.870 -1.0410 -2.8108  1.2754
 2101SOL     OW 6358   0.831   3.808   3.513 -0.3123 -0.3815  0.6342
 2101SOL    HW1 6359   0.818   3.842   3.425 -1.6240 -2.7572 -0.2045
 2101SOL    HW2 6360   0.749   3.826   3.558  0.5076  1.2117  1.5704
 2102SOL     OW 6361   3.703   1.744   1.513  0.0209  0.0706 -0.4526
 2102SOL    HW1 6362   3.726   1.834   1.536  0.1202 -0.1202  0.2168
 2102SOL    HW2 6363   3.720   1.694   1.593  1.2548 -0.7754 -1.2026
 2103SOL     OW 6364   1.044   0.552   0.946 -0.0038  0.2926 -0.5115
 2103SOL    HW1 6365   1.007   0.566   0.859 -0.6243  0.1943 -0.2637
 2103SOL    HW2 6366   1.113   0.487   0.932 -2.1609 -2.1714 -0.4747
 2104SOL     OW 6367   1.549   0.419   0.808 -0.8740  0.3640 -0.1822
 2104SOL    HW1 6368   1.540   0.469   0.889  1.1245  1.5952 -0.6768
 2104SOL    HW2 6369   1.628   0.367   0.820 -0.7217  0.3295 -1.2462
 2105SOL     OW 6370   1.902   2.817   3.550 -0.1215 -0.0689  0.2932
 2105SOL    HW1 6371   1.865   2.841   3.465 -0.2691 -0.6460  0.1917
 2105SOL    HW2 6372   1.856   2.874   3.613  0.2163  0.5825 -0.0385
 2106SOL     OW 6373   2.893   4.134   3.652  0.2658 -0.3315  0.4414
 2106SOL    HW1 6374   2.952   4.151   3.726  0.3296 -1.5469  0.6957
 2106SOL    HW2 6375   2.806   4.151   3.687  0.3105 -0.7025  0.7419
 2107SOL     OW 6376   4.735   4.838   0.137  0.0071 -0.2487 -0.0849
 2107SOL    HW1 6377   4.690   4.911   0.095  0.6044 -0.1464 -0.5622
 2107SOL    HW2 6378   4.723   4.853   0.231  2.5101  2.0880  0.0100
 2108SOL     OW 6379   1.162   3.308   2.808  0.3213 -0.3254  0.1870
 2108SOL    HW1 6380   1.118   3.356   2.878 -1.5170  0.9984 -1.7423
 2108SOL    HW2 6381   1.106   3.320   2.731  2.4246 -1.3496 -1.6505
 2109SOL     OW 6382   1.142   4.371   4.501 -0.5170  0.0221  0.3656
 2109SOL    HW1 6383   1.109   4.283   4.518 -1.5468  0.1200 -0.9421
 2109SOL    HW2 6384   1.179   4.365   4.412  0.5879  0.5895  0.7754
 2110SOL     OW 6385   4.332   1.191   1.051  0.5275  0.4213 -0.5316
 2110SOL    HW1 6386   4.269   1.161   1.116  1.5287  0.4941  0.5107
 2110SOL    HW2 6387   4.346   1.283   1.072  1.3748  0.2719 -0.4035
 2111SOL     OW 6388   2.647   4.730   1.579 -0.3377  0.2210 -0.2792
 2111SOL    HW1 6389   2.703   4.666   1.535 -0.0554  1.2665 -1.4800
 2111SOL    HW2 6390   2.679   4.731   1.670  0.5689 -0.3078 -0.5843
 2112SOL     OW 6391   2.127   4.499   0.848 -0.0016  0.2561 -0.1941
 2112SOL    HW1 6392   2.148   4.416   0.803 -1.7800  0.1389 -0.8834
 2112SOL    HW2 6393   2.196   4.559   0.819 -0.2187 -0.2517 -1.8850
 2113SOL     OW 6394   4.615   2.218   2.383 -0.6243  0.0216  0.8778
 2113SOL    HW1 6395   4.636   2.213   2.290 -1.0224 -1.8841  0.8638
 2113SOL    HW2 6396   4.684   2.274   2.420  0.5052 -0.5438 -0.2867
 2114SOL     OW 6397   4.199   4.435   3.488  0.0350  0.0532  0.2214
 2114SOL    HW1 6398   4.164   4.370   3.427  2.7302  0.7692 -2.2943
 2114SOL    HW2 6399   4.205   4.516   3.436 -0.3928  1.5589  2.3771
 2115SOL     OW 6400   2.557   0.412   4.006 -0.0621  0.0304  0.1915
 2115SOL    HW1 6401   2.617   0.345   3.973 -0.0237  1.0509 -1.9262
 2115SOL    HW2 6402   2.612   0.487   4.027 -0.4761  0.6910 -1.0064
 2116SOL     OW 6403   0.202   1.623   2.619  0.4276 -0.7804 -0.0757
 2116SOL    HW1 6404   0.203   1.528   2.632 -1.1105 -0.9758 -1.1641
 2116SOL    HW2 6405   0.136   1.655   2.681  0.8477 -0.4198  0.1937
 2117SOL     OW 6406   1.965   0.882   3.034  0.3267 -0.7643 -0.2844
 2117SOL    HW1 6407   2.051   0.849   3.008 -0.1762 -0.9166 -1.8549
 2117SOL    HW2 6408   1.902   0.826   2.988 -0.5885  0.3560 -0.4627
 2118SOL     OW 6409   4.170   1.940   3.729  0.7988  0.4912 -0.0573
 2118SOL    HW1 6410   4.243   1.993   3.763  1.1370  0.9822 -1.4838
 2118SOL    HW2 6411   4.213   1.862   3.693  0.6152  0.7162 -0.7734
 2119SOL     OW 6412   2.399   3.805   4.267 -0.0492  0.0076 -0.4087
 2119SOL    HW1 6413   2.453   3.810   4.188  0.7623 -1.2251  0.0290
 2119SOL    HW2 6414   2.431   3.727   4.312 -2.1049 -0.6616 -0.0257
 2120SOL     OW 6415   1.021   0.336   2.461 -0.2086 -0.4856 -0.0115
 2120SOL    HW1 6416   1.082   0.264   2.475  1.1053  0.5839  0.0350
 2120SOL    HW2 6417   0.958   0.303   2.397  0.2860 -1.7035  0.1097
 2121SOL     OW 6418   3.483   0.239   3.591  0.5045  0.3673  0.2180
 2121SOL    HW1 6419   3.472   0.329   3.559 -0.4558  0.7040  1.4248
 2121SOL    HW2 6420   3.557   0.205   3.541 -0.2870  1.1816 -1.6328
 2122SOL     OW 6421   4.753   0.639   2.719 -0.1414 -0.2956 -0.1564
 2122SOL    HW1 6422   4.790   0.664   2.804 -0.0701 -0.6671 -0.0761
 2122SOL    HW2 6423   4.817   0.579   2.682 -0.3688 -0.4531 -0.2933
 2123SOL     OW 6424   1.597   3.163   2.939 -0.1888 -0.0216 -0.2600
 2123SOL    HW1 6425   1.568   3.074   2.916 -1.5439  0.0720  0.9657
 2123SOL    HW2 6426   1.520   3.204   2.977  0.8911  1.1202  0.7688
 2124SOL     OW 6427   0.125   4.383   0.210  0.4480  0.2760  0.0647
 2124SOL    HW1 6428   0.043   4.424   0.238  0.8030  1.5310 -0.6704
 2124SOL    HW2 6429   0.190   4.414   0.273  0.2603 -1.2880  1.0776
 2125SOL     OW 6430   2.681   4.191   1.045  0.2291 -0.1127 -0.1895
 2125SOL    HW1 6431   2.664   4.106   1.003  0.3310 -0.0834 -0.2917
 2125SOL    HW2 6432   2.773   4.187   1.070  0.5412  0.3815 -1.1763
 2126SOL     OW 6433   1.049   4.124   3.463 -0.0244  0.2602 -0.0592
 2126SOL    HW1 6434   0.972   4.179   3.475  0.2324  0.7394 -0.5647
 2126SOL    HW2 6435   1.089   4.155   3.382 -0.1077 -0.9610 -0.5972
 2127SOL     OW 6436   1.185   2.662   0.676 -0.0348 -0.5961  0.5210
 2127SOL    HW1 6437   1.097   2.696   0.660  0.7054  1.0501 -0.2873
 2127SOL    HW2 6438   1.230   2.733   0.721  0.7054 -1.6871  1.5802
 2128SOL     OW 6439   3.308   0.207   2.635 -0.1447 -0.2615 -0.5789
 2128SOL    HW1 6440   3.364   0.131   2.618  0.8935 -0.1764  1.9846
 2128SOL    HW2 6441   3.220   0.177   2.613  0.4554 -1.6263 -1.2508
 2129SOL     OW 6442   2.087   3.880   0.446  0.3313  0.0926 -0.1657
 2129SOL    HW1 6443   2.063   3.790   0.469 -1.4063  0.6357  0.2290
 2129SOL    HW2 6444   2.087   3.881   0.351  2.3552 -0.8026 -0.2396
 2130SOL     OW 6445   1.979   4.619   4.217 -0.1559 -0.2297 -0.9930
 2130SOL    HW1 6446   2.059   4.567   4.226  0.2298  0.2367 -1.6119
 2130SOL    HW2 6447   1.982   4.681   4.289  0.7968  0.7471 -1.8338
 2131SOL     OW 6448   0.657   2.436   3.799  0.2454  0.0539 -0.0459
 2131SOL    HW1 6449   0.597   2.361   3.798  0.3453 -0.0393  0.4925
 2131SOL    HW2 6450   0.672   2.456   3.707 -1.6655  0.9105 -0.2288
 2132SOL     OW 6451   3.670   0.323   2.781  0.2371 -0.1038  0.1016
 2132SOL    HW1 6452   3.698   0.271   2.706  0.2401  1.2522 -0.8665
 2132SOL    HW2 6453   3.631   0.259   2.841  0.0431 -1.1794 -1.1270
 2133SOL     OW 6454   1.334   4.350   2.761  0.2118 -0.0187 -0.1797
 2133SOL    HW1 6455   1.267   4.282   2.757  0.9751 -0.7489 -0.9686
 2133SOL    HW2 6456   1.298   4.422   2.711  0.6956 -1.0622 -2.1405
 2134SOL     OW 6457   0.653   1.119   1.616 -0.0311  0.6641 -0.6406
 2134SOL    HW1 6458   0.739   1.161   1.618  0.7621 -0.9166 -0.1729
 2134SOL    HW2 6459   0.632   1.102   1.708 -0.3816  0.1300 -0.8117
 2135SOL     OW 6460   4.838   3.580   2.515 -0.0353 -0.1963 -0.2424
 2135SOL    HW1 6461   4.874   3.520   2.449  0.9359 -0.4686  0.5083
 2135SOL    HW2 6462   4.885   3.662   2.500  0.9623 -0.5653  0.7705
 2136SOL     OW 6463   4.463   0.851   4.325 -0.2289  0.1605 -0.1690
 2136SOL    HW1 6464   4.418   0.811   4.251 -0.8462 -0.5605  0.5774
 2136SOL    HW2 6465   4.393   0.888   4.379 -0.0023 -1.2545  1.1752
 2137SOL     OW 6466   4.835   3.264   4.898 -0.3823  0.5896  0.4412
 2137SOL    HW1 6467   4.798   3.231   4.816 -1.6401  1.6949  0.5191
 2137SOL    HW2 6468   4.925   3.288   4.876 -0.4351  0.0662 -0.3891
 2138SOL     OW 6469   4.956   0.676   4.715 -0.1216  0.1842 -0.5253
 2138SOL    HW1 6470   4.964   0.622   4.794  0.6064  1.2422  0.1553
 2138SOL    HW2 6471   4.890   0.742   4.738  1.0134  1.2919 -0.2896
 2139SOL     OW 6472   1.296   3.234   2.515 -0.1700 -0.5317  0.3190
 2139SOL    HW1 6473   1.230   3.286   2.468 -1.2046 -1.5438  0.5962
 2139SOL    HW2 6474   1.338   3.296   2.574 -0.5577  0.2329 -0.1858
 2140SOL     OW 6475   3.197   4.261   1.979 -0.5813 -0.0986  0.1536
 2140SOL    HW1 6476   3.213   4.221   2.065 -2.5416  1.4354  1.3121
 2140SOL    HW2 6477   3.275   4.238   1.928  0.2816 -1.7601  2.0512
 2141SOL     OW 6478   1.800   4.027   4.457  0.0773 -0.1195  0.1238
 2141SOL    HW1 6479   1.887   3.993   4.478  0.9728  1.4623 -0.7630
 2141SOL    HW2 6480   1.788   4.005   4.364 -0.1096  0.3592  0.0315
 2142SOL     OW 6481   0.206   3.647   4.370 -0.1659  0.4009  0.2366
 2142SOL    HW1 6482   0.228   3.734   4.337  0.6629 -0.2520 -1.0315
 2142SOL    HW2 6483   0.279   3.625   4.429 -0.5019  0.6464  0.7566
 2143SOL     OW 6484   2.571   3.098   2.496  0.1061  0.3957 -0.6272
 2143SOL    HW1 6485   2.574   3.182   2.543 -1.4669  0.2560 -0.2208
 2143SOL    HW2 6486   2.548   3.034   2.563  1.2774 -0.3792 -0.9390
 2144SOL     OW 6487   0.201   1.069   0.957  0.2967  0.1741  0.0876
 2144SOL    HW1 6488   0.140   1.072   1.030  1.8634 -0.0830  1.4701
 2144SOL    HW2 6489   0.218   1.160   0.935  1.6654  0.3540  1.7102
 2145SOL     OW 6490   4.832   3.460   1.149 -0.5313 -0.2683  0.1803
 2145SOL    HW1 6491   4.786   3.410   1.081 -0.2481 -0.5764  0.2168
 2145SOL    HW2 6492   4.917   3.482   1.110 -0.4608 -0.2412  0.3480
 2146SOL     OW 6493   1.946   0.080   2.922 -0.3202 -0.1589 -0.6841
 2146SOL    HW1 6494   1.941   0.004   2.979  0.2500  1.3713  1.5624
 2146SOL    HW2 6495   1.858   0.116   2.921 -0.3847 -0.3219 -0.9882
 2147SOL     OW 6496   4.161   1.062   3.056  0.0180 -0.2852 -0.8202
 2147SOL    HW1 6497   4.086   1.075   3.114  0.6477 -1.4147  0.2985
 2147SOL    HW2 6498   4.225   1.127   3.084 -0.0605 -0.1540 -0.9416
 2148SOL     OW 6499   2.187   3.718   1.599 -0.3231  0.4608 -0.3176
 2148SOL    HW1 6500   2.186   3.812   1.579  0.4842  0.9750  1.7700
 2148SOL    HW2 6501   2.263   3.707   1.657 -0.9752 -1.3093  0.2499
 2149SOL     OW 6502   4.859   0.593   3.607 -0.0311 -0.3594 -0.0745
 2149SOL    HW1 6503   4.778   0.623   3.566  0.4544 -0.0508 -0.8149
 2149SOL    HW2 6504   4.832   0.565   3.695 -1.3881 -2.5705 -1.1016
 2150SOL     OW 6505   0.848   1.299   3.601  0.3023 -0.0963  0.5884
 2150SOL    HW1 6506   0.814   1.227   3.654 -2.0810 -0.4849 -1.3034
 2150SOL    HW2 6507   0.842   1.268   3.511  2.4546  1.2518 -0.1036
 2151SOL     OW 6508   1.728   1.149   0.919  0.3434 -0.6220 -0.5307
 2151SOL    HW1 6509   1.776   1.216   0.968 -0.0288 -0.0505 -0.9170
 2151SOL    HW2 6510   1.794   1.107   0.864  0.3259  0.5731 -1.5088
 2152SOL     OW 6511   3.274   2.682   3.070  0.7061 -0.1289  0.2036
 2152SOL    HW1 6512   3.213   2.753   3.093  0.2505 -0.3629 -0.2460
 2152SOL    HW2 6513   3.241   2.606   3.117  1.1671 -0.0603  0.6463
 2153SOL     OW 6514   4.825   0.377   2.329  0.1905  0.4140 -0.4733
 2153SOL    HW1 6515   4.777   0.450   2.291  1.0709  1.2159 -0.0665
 2153SOL    HW2 6516   4.895   0.359   2.267 -1.7271 -2.1097 -2.1303
 2154SOL     OW 6517   3.133   2.517   4.189 -0.0683  0.3247 -0.0250
 2154SOL    HW1 6518   3.086   2.595   4.217 -2.6995 -0.9928 -0.4640
 2154SOL    HW2 6519   3.081   2.444   4.223  1.2362 -1.2671 -1.2775
 2155SOL     OW 6520   1.058   4.860   0.879 -0.3228  0.2363 -0.0517
 2155SOL    HW1 6521   1.132   4.876   0.821 -0.4075 -1.3419 -0.6167
 2155SOL    HW2 6522   1.090   4.887   0.966  0.2009  1.4731 -0.5961
 2156SOL     OW 6523   1.894   4.749   2.508  0.5459  0.2361 -0.3104
 2156SOL    HW1 6524   1.956   4.807   2.553  0.2744  0.0336  0.3364
 2156SOL    HW2 6525   1.865   4.687   2.576 -0.4453  0.3927 -0.5717
 2157SOL     OW 6526   1.954   1.746   0.845  0.3905  0.2082  0.1502
 2157SOL    HW1 6527   2.016   1.819   0.837 -0.3229  0.7657 -0.5223
 2157SOL    HW2 6528   1.869   1.789   0.860  0.1317 -0.5326  0.8721
 2158SOL     OW 6529   3.196   0.100   0.046 -0.0831 -0.5839  0.0661
 2158SOL    HW1 6530   3.157   0.113  -0.040 -0.6375  1.2021  0.5401
 2158SOL    HW2 6531   3.122   0.110   0.107  0.3700 -1.4386  0.7670
 2159SOL     OW 6532   2.896   4.912   1.096  0.2726  0.3364 -0.3297
 2159SOL    HW1 6533   2.911   4.914   1.191  0.1919 -1.0602 -0.2770
 2159SOL    HW2 6534   2.983   4.920   1.058  0.2947  1.0393 -0.1610
 2160SOL     OW 6535   2.507   3.180   4.069  0.5507 -0.4453 -0.2031
 2160SOL    HW1 6536   2.432   3.238   4.083 -0.7388 -1.7338 -1.4179
 2160SOL    HW2 6537   2.508   3.124   4.147  0.1005 -0.5623 -0.2765
 2161SOL     OW 6538   0.606   0.190   4.507 -0.4353 -0.1733 -0.5225
 2161SOL    HW1 6539   0.667   0.152   4.444 -0.3346 -1.9670  0.5881
 2161SOL    HW2 6540   0.522   0.149   4.487 -0.7293  0.3733 -0.4302
 2162SOL     OW 6541   1.187   4.207   3.691  0.1123 -0.1428 -0.0776
 2162SOL    HW1 6542   1.154   4.160   3.615 -1.0551 -1.2972  1.0981
 2162SOL    HW2 6543   1.123   4.276   3.707  0.6812  0.4960 -0.4878
 2163SOL     OW 6544   1.397   3.644   2.898  0.4939  0.6358 -0.1552
 2163SOL    HW1 6545   1.382   3.571   2.959  1.1475  1.2734  0.7925
 2163SOL    HW2 6546   1.489   3.665   2.909 -0.0193  2.6279  0.7494
 2164SOL     OW 6547   3.666   2.007   1.076 -0.1842  0.7266 -0.3172
 2164SOL    HW1 6548   3.600   1.995   1.144 -1.6162 -0.4502 -1.8431
 2164SOL    HW2 6549   3.721   1.929   1.082 -0.8296  0.2060 -1.0345
 2165SOL     OW 6550   0.812   0.970   3.892  0.3607  0.2790 -0.0885
 2165SOL    HW1 6551   0.872   0.901   3.921  0.7672  0.3754 -0.6647
 2165SOL    HW2 6552   0.814   1.036   3.961  1.1463  0.4111 -0.2272
 2166SOL     OW 6553   3.992   0.339   3.230  0.3595  0.2611 -0.1783
 2166SOL    HW1 6554   3.972   0.294   3.312 -1.0949 -0.2081 -0.7480
 2166SOL    HW2 6555   4.005   0.268   3.166 -0.7823  0.6072 -0.8280
 2167SOL     OW 6556   0.848   1.222   3.306  0.1266  0.5441 -0.4113
 2167SOL    HW1 6557   0.939   1.194   3.296  0.1490  0.6421 -0.4832
 2167SOL    HW2 6558   0.848   1.314   3.280 -0.7225 -0.3879 -4.2647
 2168SOL     OW 6559   4.667   0.215   0.678  0.3346 -0.5398  0.5394
 2168SOL    HW1 6560   4.583   0.260   0.668  0.4029 -0.1239  1.6489
 2168SOL    HW2 6561   4.647   0.123   0.660 -0.1904 -0.3336  0.0383
 2169SOL     OW 6562   2.093   2.416   1.294 -0.0977 -0.0012 -0.1959
 2169SOL    HW1 6563   1.998   2.430   1.290 -0.1004 -0.0267 -0.2275
 2169SOL    HW2 6564   2.122   2.463   1.372 -0.1183  0.1121 -0.2552
 2170SOL     OW 6565   0.735   2.985   3.590  0.3206 -0.4844  0.0667
 2170SOL    HW1 6566   0.799   3.048   3.557  0.8303 -0.3255  1.3055
 2170SOL    HW2 6567   0.659   3.037   3.614 -0.9497 -0.8069 -2.7474
 2171SOL     OW 6568   4.870   0.815   0.355  0.1873 -0.1154 -0.4868
 2171SOL    HW1 6569   4.821   0.886   0.397  0.6659  0.7927 -1.4178
 2171SOL    HW2 6570   4.897   0.851   0.270  2.0680 -0.7399 -0.2051
 2172SOL     OW 6571   1.472   4.055   3.018  0.8356  0.0460  0.6235
 2172SOL    HW1 6572   1.560   4.060   3.057  1.1680  0.9297 -0.2104
 2172SOL    HW2 6573   1.427   4.134   3.050  0.6052 -0.0083  0.4351
 2173SOL     OW 6574   1.497   1.818   3.591  0.2841 -0.7289  0.5742
 2173SOL    HW1 6575   1.423   1.784   3.541  0.4186 -1.1397  0.6554
 2173SOL    HW2 6576   1.567   1.755   3.577  1.1437  0.4781 -0.8211
 2174SOL     OW 6577   1.802   4.169   3.368  0.0998  0.3463  0.8383
 2174SOL    HW1 6578   1.778   4.148   3.458 -1.2365  0.2978  0.4805
 2174SOL    HW2 6579   1.765   4.098   3.316  4.1083 -1.7923  0.5199
 2175SOL     OW 6580   1.978   4.502   1.074 -0.4128 -0.1877  0.3304
 2175SOL    HW1 6581   2.047   4.486   1.009 -0.3162 -0.3226  0.4647
 2175SOL    HW2 6582   1.918   4.428   1.064  1.3492 -2.0984  2.6779
 2176SOL     OW 6583   3.074   1.664   2.052  1.0043 -0.0421 -0.0706
 2176SOL    HW1 6584   3.054   1.616   1.972  0.2564  0.6971 -0.3382
 2176SOL    HW2 6585   3.141   1.727   2.026  0.2654  0.6699 -0.2972
 2177SOL     OW 6586   3.155   3.720   2.972 -0.1348  0.4380  0.5375
 2177SOL    HW1 6587   3.114   3.667   3.041 -1.3254 -0.1491 -0.5828
 2177SOL    HW2 6588   3.082   3.765   2.931  0.6182  1.1427 -0.0511
 2178SOL     OW 6589   0.891   2.614   1.145  0.4162  0.0322  0.1516
 2178SOL    HW1 6590   0.938   2.685   1.102  0.9519 -0.8237 -0.7068
 2178SOL    HW2 6591   0.806   2.611   1.101  0.6123 -0.2372 -0.2079
 2179SOL     OW 6592   3.171   0.397   2.798 -0.3902  0.4126  0.4346
 2179SOL    HW1 6593   3.186   0.311   2.758 -0.3192 -0.1173  1.5546
 2179SOL    HW2 6594   3.186   0.459   2.727 -0.6231 -0.5032 -0.4442
 2180SOL     OW 6595   3.511   4.722   3.042  0.7173 -0.1911  0.2340
 2180SOL    HW1 6596   3.498   4.634   3.077 -0.2445 -0.3641 -0.5153
 2180SOL    HW2 6597   3.424   4.761   3.042  0.4737 -0.5083 -2.6882
 2181SOL     OW 6598   3.692   3.510   1.593 -0.0133 -1.2050  0.0632
 2181SOL    HW1 6599   3.655   3.574   1.654  0.5108 -0.7730 -0.0584
 2181SOL    HW2 6600   3.679   3.426   1.636  0.2264 -0.9183  0.7114
 2182SOL     OW 6601   3.946   2.547   2.437 -0.6726  0.2017 -0.3111
 2182SOL    HW1 6602   4.038   2.522   2.425 -1.3200 -2.3138 -0.6792
 2182SOL    HW2 6603   3.903   2.466   2.464 -2.9877  1.0119 -1.3058
 2183SOL     OW 6604   2.743   2.229   0.690  0.4671 -0.5287 -0.2776
 2183SOL    HW1 6605   2.673   2.183   0.644  0.2748 -0.3176 -0.1986
 2183SOL    HW2 6606   2.803   2.159   0.717  1.0949 -0.5681 -1.6972
 2184SOL     OW 6607   3.034   3.383   2.093 -0.2099 -0.8084  0.1034
 2184SOL    HW1 6608   3.005   3.388   2.184 -0.5190 -1.7447  0.0746
 2184SOL    HW2 6609   3.130   3.379   2.098 -0.0767  1.4774  0.2457
 2185SOL     OW 6610   1.972   0.550   4.862  0.1759 -0.3541 -0.1088
 2185SOL    HW1 6611   2.057   0.540   4.818 -0.6692  0.9221 -2.1600
 2185SOL    HW2 6612   1.974   0.639   4.897 -0.6275  0.0124 -0.9568
 2186SOL     OW 6613   1.013   2.121   2.621 -0.2895 -0.0044  0.0987
 2186SOL    HW1 6614   0.971   2.039   2.594  1.2644 -1.3757  1.5832
 2186SOL    HW2 6615   1.106   2.108   2.602  0.1888  0.8013  1.6992
 2187SOL     OW 6616   4.198   3.444   4.502 -0.1771  0.5913 -0.3615
 2187SOL    HW1 6617   4.187   3.539   4.509 -1.4161  0.4114  0.4241
 2187SOL    HW2 6618   4.212   3.415   4.593 -2.3352 -0.2352 -0.2363
 2188SOL     OW 6619   4.487   4.110   2.482  0.8197 -0.2130 -0.5916
 2188SOL    HW1 6620   4.428   4.114   2.407  0.4702  0.1635 -0.3040
 2188SOL    HW2 6621   4.465   4.187   2.534  2.4641  0.6301 -1.1121
 2189SOL     OW 6622   2.860   3.080   4.307 -0.1509  0.3629 -0.4235
 2189SOL    HW1 6623   2.800   3.009   4.285  0.0337  1.0049 -3.4453
 2189SOL    HW2 6624   2.804   3.153   4.333 -0.7270  0.6672 -2.3448
 2190SOL     OW 6625   2.664   3.673   0.411 -0.3236 -0.2762 -0.3155
 2190SOL    HW1 6626   2.575   3.698   0.385 -0.5153  0.1590  0.7408
 2190SOL    HW2 6627   2.653   3.590   0.456  0.2913 -2.3614 -3.6636
 2191SOL     OW 6628   1.073   3.809   1.784 -0.0308 -0.1541  0.2295
 2191SOL    HW1 6629   1.056   3.718   1.760 -0.5275  0.1013 -0.4104
 2191SOL    HW2 6630   1.106   3.850   1.704  0.9061  0.0627  0.6991
 2192SOL     OW 6631   1.074   2.005   3.607  0.3343  0.0475  0.0847
 2192SOL    HW1 6632   1.039   1.931   3.657 -1.1090 -0.3833 -1.4947
 2192SOL    HW2 6633   0.999   2.063   3.594  0.5079 -0.1376 -2.0553
 2193SOL     OW 6634   1.119   3.874   3.509  0.3777  0.3147 -0.7612
 2193SOL    HW1 6635   1.111   3.969   3.510  2.0287  0.5004  0.7944
 2193SOL    HW2 6636   1.029   3.841   3.503 -0.3147  1.9790  0.0184
 2194SOL     OW 6637   4.455   4.638   1.893  0.8534  0.0068  0.4575
 2194SOL    HW1 6638   4.406   4.711   1.930  0.4904 -0.3032  0.5971
 2194SOL    HW2 6639   4.499   4.598   1.968  0.4932 -0.3378  0.4870
 2195SOL     OW 6640   4.289   0.589   3.342 -0.3577  0.3147  0.4038
 2195SOL    HW1 6641   4.271   0.676   3.309 -1.6753 -0.6652 -1.6424
 2195SOL    HW2 6642   4.381   0.573   3.318 -0.8842  0.1545 -1.7088
 2196SOL     OW 6643   0.041   0.066   1.573 -0.6641 -0.3178 -0.0788
 2196SOL    HW1 6644   0.033   0.161   1.576 -2.1110 -0.4445  1.9087
 2196SOL    HW2 6645  -0.037   0.037   1.524 -0.9194 -0.5271  0.4436
 2197SOL     OW 6646   3.741   2.717   1.777 -0.2950  0.2356 -0.2152
 2197SOL    HW1 6647   3.747   2.812   1.771 -1.0535  0.2692 -0.6204
 2197SOL    HW2 6648   3.693   2.691   1.698 -0.8556 -0.3947  0.3179
 2198SOL     OW 6649   1.799   0.236   1.314  0.2231 -0.3601  0.4941
 2198SOL    HW1 6650   1.791   0.194   1.399 -0.4371 -0.2603  0.4878
 2198SOL    HW2 6651   1.710   0.265   1.293  0.8654  2.3841  1.1787
 2199SOL     OW 6652   2.508   2.278   1.717 -0.4026  0.2162 -0.0824
 2199SOL    HW1 6653   2.563   2.205   1.746 -0.8747 -0.2414 -0.3029
 2199SOL    HW2 6654   2.517   2.344   1.785  0.8881  0.4015 -0.4009
 2200SOL     OW 6655   1.347   1.370   0.848 -0.3366  0.3001  0.2921
 2200SOL    HW1 6656   1.443   1.370   0.845 -0.2797 -0.9605  1.1280
 2200SOL    HW2 6657   1.327   1.366   0.942 -1.1943 -0.0738  0.1016
 2201SOL     OW 6658   0.738   4.579   3.545  0.3513  0.0501  0.2681
 2201SOL    HW1 6659   0.755   4.638   3.619 -1.6777 -0.9998  1.6779
 2201SOL    HW2 6660   0.752   4.633   3.467 -1.5904  2.4991  1.4977
 2202SOL     OW 6661   4.279   1.949   0.281 -0.2101  0.1635 -0.5485
 2202SOL    HW1 6662   4.252   2.021   0.223 -1.2130 -0.6132 -1.0876
 2202SOL    HW2 6663   4.367   1.925   0.250 -0.1633  0.6876 -0.8339
 2203SOL     OW 6664   0.034   4.248   2.563  0.8319 -0.5195  0.0281
 2203SOL    HW1 6665  -0.017   4.280   2.489 -0.4648 -0.3644  0.9551
 2203SOL    HW2 6666   0.073   4.328   2.601 -1.8154  0.0315  1.9022
 2204SOL     OW 6667   3.722   1.193   4.322 -0.1182  0.0852 -0.0357
 2204SOL    HW1 6668   3.814   1.206   4.297  0.2205 -1.0845  0.5484
 2204SOL    HW2 6669   3.726   1.163   4.413 -1.0074 -1.0380 -0.3553
 2205SOL     OW 6670   0.390   0.530   0.514 -0.6179 -0.0360  0.0337
 2205SOL    HW1 6671   0.414   0.545   0.605 -0.6328  0.4021 -0.0321
 2205SOL    HW2 6672   0.473   0.528   0.467 -0.6954  1.8497 -0.2489
 2206SOL     OW 6673   0.567   4.689   1.633  0.1063  0.0268  0.4092
 2206SOL    HW1 6674   0.637   4.716   1.692  0.4563  1.6773 -0.7002
 2206SOL    HW2 6675   0.583   4.737   1.552 -1.7885 -0.2421 -0.1829
 2207SOL     OW 6676   3.820   4.643   0.397 -0.0657 -0.1954 -0.2540
 2207SOL    HW1 6677   3.810   4.586   0.321  0.3138  0.5984 -0.9176
 2207SOL    HW2 6678   3.742   4.698   0.396 -0.2289 -0.4130  0.1440
 2208SOL     OW 6679   2.205   2.914   4.453 -0.4505  0.4030 -0.3522
 2208SOL    HW1 6680   2.168   2.836   4.495 -1.3968  0.3352 -1.2550
 2208SOL    HW2 6681   2.136   2.980   4.460 -0.2127  0.7132 -0.8575
 2209SOL     OW 6682   4.771   2.108   3.297  0.4042 -0.2569 -0.7234
 2209SOL    HW1 6683   4.739   2.126   3.386 -0.2196 -0.7309 -0.8486
 2209SOL    HW2 6684   4.866   2.112   3.305  0.4432 -2.1252  0.3811
 2210SOL     OW 6685   2.141   0.739   4.609 -0.0244  0.4228 -0.4760
 2210SOL    HW1 6686   2.171   0.671   4.670 -1.0708 -0.4052 -0.8590
 2210SOL    HW2 6687   2.202   0.811   4.623  1.4280 -0.7589 -0.3953
 2211SOL     OW 6688   0.338   2.144   0.065 -0.4885 -0.1749  0.1140
 2211SOL    HW1 6689   0.433   2.135   0.080 -0.4011 -0.0155 -0.3300
 2211SOL    HW2 6690   0.324   2.238   0.054 -0.3201 -0.3714 -2.1779
 2212SOL     OW 6691   1.963   3.778   3.527  0.1800  0.1395 -0.5306
 2212SOL    HW1 6692   1.950   3.764   3.433 -0.0069  1.5340 -0.7256
 2212SOL    HW2 6693   2.004   3.864   3.533  2.1117 -0.7912  0.5673
 2213SOL     OW 6694   4.933   1.165   1.321 -0.4659  0.0113  0.3222
 2213SOL    HW1 6695   4.947   1.128   1.409  1.0194  3.4926  1.7423
 2213SOL    HW2 6696   4.862   1.229   1.333  0.2383  1.0511 -0.7906
 2214SOL     OW 6697   0.238   3.863   4.822  0.3034  0.0795 -0.3326
 2214SOL    HW1 6698   0.203   3.830   4.905 -0.7010 -0.8649 -1.0976
 2214SOL    HW2 6699   0.289   3.789   4.787 -1.0683 -0.3395 -1.5531
 2215SOL     OW 6700   3.255   2.880   4.065  0.1673 -0.4775 -0.5747
 2215SOL    HW1 6701   3.257   2.834   4.149  0.5765  0.5002 -0.0350
 2215SOL    HW2 6702   3.164   2.873   4.036  0.0473 -0.9080 -0.1133
 2216SOL     OW 6703   1.246   0.469   2.389 -0.3509  0.3901  0.4750
 2216SOL    HW1 6704   1.308   0.441   2.457 -0.7433 -0.9265  0.3085
 2216SOL    HW2 6705   1.167   0.418   2.405 -0.8881  0.9756 -0.2248
 2217SOL     OW 6706   0.890   2.354   3.355  0.0980  0.5452  0.1718
 2217SOL    HW1 6707   0.926   2.369   3.442 -1.1284 -0.9196  0.9930
 2217SOL    HW2 6708   0.967   2.340   3.299  0.8775 -1.0160  1.5488
 2218SOL     OW 6709   4.683   0.494   1.239  0.0461  0.1290 -0.0205
 2218SOL    HW1 6710   4.674   0.432   1.166 -1.3565  0.5529 -0.2379
 2218SOL    HW2 6711   4.659   0.579   1.201  2.6087  0.9835  0.0912
 2219SOL     OW 6712   0.320   3.000   1.317  0.0982  0.1301  0.4149
 2219SOL    HW1 6713   0.390   3.002   1.252  2.0856  0.3805  2.4450
 2219SOL    HW2 6714   0.311   3.091   1.345 -0.8317  0.0438  0.4387
 2220SOL     OW 6715   1.467   3.466   0.896  0.6991 -0.2024  0.1744
 2220SOL    HW1 6716   1.428   3.407   0.830  1.5991 -0.9859  0.3184
 2220SOL    HW2 6717   1.477   3.550   0.851 -1.0260 -0.0105  0.0984
 2221SOL     OW 6718   1.827   2.463   1.275  0.5808  0.0034  0.5857
 2221SOL    HW1 6719   1.765   2.411   1.325  0.4355  0.6180  1.0517
 2221SOL    HW2 6720   1.826   2.549   1.317 -0.6002  0.9841 -1.2981
 2222SOL     OW 6721   3.811   0.755   0.192 -0.1756 -0.1059 -0.5945
 2222SOL    HW1 6722   3.845   0.668   0.168  2.0262  0.4252  0.2951
 2222SOL    HW2 6723   3.847   0.814   0.126  0.0649  0.3996 -0.0168
 2223SOL     OW 6724   2.414   4.002   3.921 -0.0831  0.3240 -0.1218
 2223SOL    HW1 6725   2.453   3.922   3.955 -0.9387 -0.2794 -0.5436
 2223SOL    HW2 6726   2.423   3.995   3.826 -0.5632  0.5148 -0.1821
 2224SOL     OW 6727   3.301   3.369   4.808 -0.2018  0.1585  0.0619
 2224SOL    HW1 6728   3.350   3.448   4.832 -0.2769  0.3246 -0.3196
 2224SOL    HW2 6729   3.314   3.309   4.882 -0.1751  0.5405  0.3709
 2225SOL     OW 6730   1.504   2.303   3.093 -0.8258 -0.1904  0.3973
 2225SOL    HW1 6731   1.426   2.339   3.136  0.5899 -0.2268  3.1873
 2225SOL    HW2 6732   1.470   2.231   3.040 -2.8283  0.5862  0.5283
 2226SOL     OW 6733   1.700   3.107   2.113 -0.5429  0.2285  0.1895
 2226SOL    HW1 6734   1.639   3.096   2.186  1.1996 -0.5037  1.6090
 2226SOL    HW2 6735   1.787   3.107   2.154  0.5067 -0.2455 -1.8969
 2227SOL     OW 6736   4.203   0.206   3.535 -0.6141  0.0287 -0.0976
 2227SOL    HW1 6737   4.236   0.296   3.541 -0.5212  0.1158 -1.5484
 2227SOL    HW2 6738   4.277   0.152   3.562  0.4741  0.2761 -2.3150
 2228SOL     OW 6739   3.088   3.713   4.091 -0.2638  0.2763  0.2981
 2228SOL    HW1 6740   3.144   3.790   4.085 -0.7524  0.7063  0.9683
 2228SOL    HW2 6741   3.122   3.653   4.026  0.0219  1.1292 -0.3609
 2229SOL     OW 6742   1.154   4.617   1.151  0.2966  0.1428  0.9096
 2229SOL    HW1 6743   1.224   4.676   1.179 -0.0511  0.2537  1.5548
 2229SOL    HW2 6744   1.185   4.581   1.067 -0.7011  3.4636 -1.0940
 2230SOL     OW 6745   4.745   2.379   2.835  0.1072 -0.5658 -0.5512
 2230SOL    HW1 6746   4.826   2.328   2.834  0.0836 -0.6134 -0.0350
 2230SOL    HW2 6747   4.684   2.325   2.884  0.3005  0.2924  0.6540
 2231SOL     OW 6748   2.357   1.224   0.585 -0.4616  0.2073 -0.1928
 2231SOL    HW1 6749   2.301   1.262   0.652  0.9152  1.8547  0.1102
 2231SOL    HW2 6750   2.345   1.129   0.594 -2.5167  0.4837  0.3805
 2232SOL     OW 6751   3.715   1.640   3.157  0.2105  0.2609  0.1505
 2232SOL    HW1 6752   3.694   1.680   3.241 -0.2505 -1.2194  0.7700
 2232SOL    HW2 6753   3.635   1.594   3.132  0.7543 -0.3694 -0.4771
 2233SOL     OW 6754   3.045   3.487   2.411  0.3884  0.0147  0.0327
 2233SOL    HW1 6755   3.000   3.450   2.487  0.2489  0.5099  0.1948
 2233SOL    HW2 6756   3.129   3.441   2.408 -0.2057 -1.0853 -0.4104
 2234SOL     OW 6757   0.870   0.103   0.793  0.7857  0.5588  0.3301
 2234SOL    HW1 6758   0.848   0.161   0.866 -0.4554 -1.2057  1.4490
 2234SOL    HW2 6759   0.918   0.031   0.834 -0.4469 -0.7673 -0.4468
 2235SOL     OW 6760   1.349   0.219   4.272  0.3816 -0.3145  0.4703
 2235SOL    HW1 6761   1.277   0.184   4.325 -2.2392  1.0770 -1.8959
 2235SOL    HW2 6762   1.374   0.146   4.216  2.7037 -1.5808  2.9222
 2236SOL     OW 6763   0.113   4.077   1.798  0.2740 -0.1346 -0.2673
 2236SOL    HW1 6764   0.040   4.044   1.849  0.4968 -0.6161 -0.2524
 2236SOL    HW2 6765   0.151   3.999   1.757  0.5880  0.1466 -0.5225
 2237SOL     OW 6766   3.137   0.515   0.240  0.6198  0.0867  0.3006
 2237SOL    HW1 6767   3.135   0.594   0.295 -0.2522  0.4532 -0.2337
 2237SOL    HW2 6768   3.209   0.463   0.275  2.2730  1.8279 -0.2864
 2238SOL     OW 6769   1.067   4.473   3.857 -0.2231  0.5347  0.2933
 2238SOL    HW1 6770   1.133   4.542   3.869 -0.8949  1.1357  0.5949
 2238SOL    HW2 6771   0.985   4.520   3.844 -0.2825 -0.1428 -2.4299
 2239SOL     OW 6772   0.768   1.192   2.282  0.2351 -0.2262 -0.0419
 2239SOL    HW1 6773   0.750   1.190   2.188 -1.2889 -0.0175  0.2029
 2239SOL    HW2 6774   0.853   1.150   2.292  0.2730 -0.5434 -1.4837
 2240SOL     OW 6775   3.155   2.455   1.708 -0.0530 -0.0867 -0.5278
 2240SOL    HW1 6776   3.198   2.529   1.751 -0.2591 -0.5776  0.5363
 2240SOL    HW2 6777   3.211   2.380   1.727  0.3700 -0.1625 -1.9440
 2241SOL     OW 6778   4.185   0.091   2.154 -0.3064  0.6407  0.4023
 2241SOL    HW1 6779   4.198   0.165   2.214 -0.3388 -0.4565  1.8119
 2241SOL    HW2 6780   4.200   0.014   2.208  0.9733 -0.3896 -1.3277
 2242SOL     OW 6781   3.246   0.841   0.532  0.3223 -0.0753  0.5843
 2242SOL    HW1 6782   3.294   0.771   0.574 -0.2327  0.1117  1.5522
 2242SOL    HW2 6783   3.234   0.907   0.600  1.6242  1.3957 -0.5241
 2243SOL     OW 6784   1.293   1.593   3.006 -0.2187 -0.3461 -0.3591
 2243SOL    HW1 6785   1.342   1.634   2.934 -0.6000 -0.2955 -0.5916
 2243SOL    HW2 6786   1.285   1.662   3.071  2.4250 -1.1024  0.9203
 2244SOL     OW 6787   0.290   3.411   3.556 -0.1498 -0.0691 -0.6174
 2244SOL    HW1 6788   0.253   3.396   3.643 -1.5910 -1.0171 -1.3599
 2244SOL    HW2 6789   0.229   3.367   3.496 -0.6793  2.7371 -2.3442
 2245SOL     OW 6790   0.095   0.340   2.175 -0.0465  0.2309  0.0385
 2245SOL    HW1 6791   0.085   0.431   2.202 -1.1093 -0.4069  1.9926
 2245SOL    HW2 6792   0.180   0.314   2.210 -0.1660  0.2054  0.3107
 2246SOL     OW 6793   1.630   0.244   4.151  0.2318 -0.0004  0.7080
 2246SOL    HW1 6794   1.663   0.258   4.239  0.0180  1.2416  0.6029
 2246SOL    HW2 6795   1.580   0.323   4.131 -1.6581 -1.2142  0.3380
 2247SOL     OW 6796   1.409   2.698   3.518  0.1662  0.1006 -0.2469
 2247SOL    HW1 6797   1.446   2.636   3.581 -0.5206  0.1492  0.2192
 2247SOL    HW2 6798   1.339   2.742   3.566 -0.8406 -0.3565 -1.2366
 2248SOL     OW 6799   3.955   4.640   2.380 -0.1356 -0.7979 -0.7049
 2248SOL    HW1 6800   3.905   4.598   2.309 -0.9195  1.0325 -1.2825
 2248SOL    HW2 6801   4.047   4.628   2.354 -0.2826 -2.5917 -0.5605
 2249SOL     OW 6802   2.168   3.446   3.676 -0.0760  0.0125 -0.2414
 2249SOL    HW1 6803   2.084   3.407   3.699  0.0689  1.4995  3.5328
 2249SOL    HW2 6804   2.155   3.479   3.587 -3.8015  0.8318  0.4071
 2250SOL     OW 6805   3.053   0.105   0.327 -0.1361 -0.3372  0.2572
 2250SOL    HW1 6806   3.119   0.068   0.385  0.2028 -0.4779 -0.2162
 2250SOL    HW2 6807   2.994   0.154   0.386  0.4480 -0.1146  0.6662
 2251SOL     OW 6808   0.142   3.171   2.403 -0.2925  0.2456  0.2551
 2251SOL    HW1 6809   0.222   3.185   2.351 -0.4824  0.0986 -0.0796
 2251SOL    HW2 6810   0.077   3.228   2.362 -0.2871  0.5839  0.7062
 2252SOL     OW 6811   0.742   3.435   4.328  0.0564  0.2700  0.0888
 2252SOL    HW1 6812   0.775   3.466   4.413 -1.8095 -0.8420  1.3000
 2252SOL    HW2 6813   0.802   3.365   4.303  0.6737  0.6623  0.4333
 2253SOL     OW 6814   1.756   3.956   2.847  0.2097 -0.2486  0.3638
 2253SOL    HW1 6815   1.701   3.896   2.797 -0.3887  0.2227  0.4380
 2253SOL    HW2 6816   1.803   3.900   2.909  0.6723 -0.7909 -0.4588
 2254SOL     OW 6817   3.299   0.887   4.442  0.2476 -0.0373 -0.2805
 2254SOL    HW1 6818   3.278   0.937   4.363 -1.6151 -0.1937  0.0508
 2254SOL    HW2 6819   3.375   0.834   4.419  1.0563  1.4994 -1.2569
 2255SOL     OW 6820   0.815   1.797   3.849 -0.3102 -0.5385 -0.3185
 2255SOL    HW1 6821   0.864   1.727   3.805 -0.2084  0.9389 -2.7838
 2255SOL    HW2 6822   0.727   1.791   3.812 -0.6040 -0.0807  0.2910
 2256SOL     OW 6823   3.291   1.865   1.644 -0.7021 -0.8755 -0.0274
 2256SOL    HW1 6824   3.232   1.926   1.687  0.5824  0.5458 -0.1982
 2256SOL    HW2 6825   3.355   1.841   1.711 -0.7833 -1.4660 -0.1588
 2257SOL     OW 6826   2.324   4.444   2.380 -0.9077  0.2470 -0.0210
 2257SOL    HW1 6827   2.268   4.510   2.340  0.0595  0.9065 -0.3240
 2257SOL    HW2 6828   2.372   4.406   2.306 -2.7353 -2.1279 -0.1389
 2258SOL     OW 6829   4.873   1.237   2.994 -0.1233  0.3420 -0.3850
 2258SOL    HW1 6830   4.902   1.202   3.078 -1.6539  0.8599  0.3986
 2258SOL    HW2 6831   4.791   1.190   2.976 -0.8417  1.6438 -0.6007
 2259SOL     OW 6832   2.048   0.287   4.519 -0.1310 -0.1436 -0.1444
 2259SOL    HW1 6833   2.107   0.258   4.450 -1.4034  0.6396 -1.6379
 2259SOL    HW2 6834   2.090   0.365   4.555  1.0522 -1.1455  0.7345
 2260SOL     OW 6835   2.889   3.012   3.071  0.0146  0.6350  0.3560
 2260SOL    HW1 6836   2.947   3.043   3.002 -1.4937  1.7350 -0.4784
 2260SOL    HW2 6837   2.851   3.092   3.108 -1.9592 -0.0647 -0.0342
 2261SOL     OW 6838   0.795   0.931   2.760  0.2187 -0.2428 -0.0201
 2261SOL    HW1 6839   0.716   0.877   2.757  0.1967 -0.1994 -0.2198
 2261SOL    HW2 6840   0.856   0.880   2.814 -0.2525  0.1454  0.8951
 2262SOL     OW 6841   0.288   3.583   0.820  0.1213 -0.0787 -0.0020
 2262SOL    HW1 6842   0.210   3.531   0.801 -0.0344 -0.7998  2.3284
 2262SOL    HW2 6843   0.310   3.623   0.736 -2.5017 -0.1580 -0.8376
 2263SOL     OW 6844   4.196   0.825   0.148  0.6309  0.2384 -0.7673
 2263SOL    HW1 6845   4.152   0.753   0.104 -0.8739  0.9072 -0.4032
 2263SOL    HW2 6846   4.230   0.787   0.229 -2.6270  0.4740  0.8445
 2264SOL     OW 6847   4.469   2.120   4.858  0.6485 -0.1218 -0.3641
 2264SOL    HW1 6848   4.482   2.184   4.789 -0.9533  0.3982 -0.2381
 2264SOL    HW2 6849   4.404   2.160   4.916  1.2077 -0.9636  0.9026
 2265SOL     OW 6850   1.659   4.069   3.924  0.0683  0.5666 -0.4056
 2265SOL    HW1 6851   1.736   4.125   3.917 -0.1664  0.8613 -0.6718
 2265SOL    HW2 6852   1.586   4.124   3.896 -0.3281  0.4680  0.4005
 2266SOL     OW 6853   2.692   1.574   3.289  0.4805  0.3199  0.5425
 2266SOL    HW1 6854   2.638   1.601   3.363 -0.9518  3.1855 -1.3652
 2266SOL    HW2 6855   2.762   1.640   3.285  0.0325  0.7338 -1.1049
 2267SOL     OW 6856   4.977   0.352   1.528  0.7445  0.3468 -0.4566
 2267SOL    HW1 6857   4.911   0.403   1.575  0.9552 -0.8859  1.2596
 2267SOL    HW2 6858   4.966   0.379   1.436  0.6481  3.2082  0.2796
 2268SOL     OW 6859   1.621   1.123   2.353 -0.4009  0.3366  0.0791
 2268SOL    HW1 6860   1.555   1.065   2.315 -0.9547  1.0147 -0.0031
 2268SOL    HW2 6861   1.627   1.196   2.292  1.0089 -0.0818 -0.3271
 2269SOL     OW 6862   2.635   3.371   0.476  0.1443  0.4831 -0.3283
 2269SOL    HW1 6863   2.607   3.350   0.565  0.7013 -0.1300 -0.2934
 2269SOL    HW2 6864   2.713   3.317   0.462  0.3001  0.8846 -1.0392
 2270SOL     OW 6865   1.011   1.095   2.326  0.0484 -0.2408  0.1405
 2270SOL    HW1 6866   1.055   1.119   2.407 -0.5819 -0.5837  0.5909
 2270SOL    HW2 6867   1.081   1.058   2.271  0.3820 -0.5167  0.7360
 2271SOL     OW 6868   2.948   0.524   4.743  0.0500 -0.5778 -0.4359
 2271SOL    HW1 6869   3.015   0.585   4.712 -0.2080 -0.6442 -1.1172
 2271SOL    HW2 6870   2.964   0.518   4.838  0.4408  0.0985 -0.4540
 2272SOL     OW 6871   3.611   4.547   4.099 -0.5736  0.1448  0.0272
 2272SOL    HW1 6872   3.529   4.563   4.145 -1.2204 -0.4582 -0.8738
 2272SOL    HW2 6873   3.671   4.515   4.167 -1.2407  0.1135  0.6080
 2273SOL     OW 6874   2.055   0.439   3.785 -0.4165  0.6161  0.0253
 2273SOL    HW1 6875   2.058   0.510   3.720  0.1886 -0.1665 -0.8314
 2273SOL    HW2 6876   1.964   0.439   3.815 -0.6425  1.1891 -0.6083
 2274SOL     OW 6877   0.882   3.781   4.864  0.0263 -0.3990 -0.9035
 2274SOL    HW1 6878   0.852   3.827   4.943 -1.1171 -1.7963 -0.4798
 2274SOL    HW2 6879   0.881   3.688   4.889  1.3252 -0.7329 -2.0375
 2275SOL     OW 6880   3.322   0.161   3.378  0.3247 -0.5612 -0.5861
 2275SOL    HW1 6881   3.325   0.181   3.472  0.7722  2.1426 -1.0855
 2275SOL    HW2 6882   3.413   0.169   3.349 -0.0981  0.8373 -1.6159
 2276SOL     OW 6883   2.519   3.497   2.871  0.0144 -0.4946 -0.6589
 2276SOL    HW1 6884   2.434   3.453   2.884 -0.2013  0.1526  0.3108
 2276SOL    HW2 6885   2.521   3.520   2.778 -1.4164  0.5002 -0.4892
 2277SOL     OW 6886   1.941   3.037   4.362 -0.2960 -1.1147  0.3286
 2277SOL    HW1 6887   1.936   3.105   4.430  1.8715 -2.5572  2.0634
 2277SOL    HW2 6888   2.008   3.068   4.302  0.9450 -1.7953  1.3104
 2278SOL     OW 6889   0.285   3.988   3.149 -0.0953  0.1520 -0.2622
 2278SOL    HW1 6890   0.305   3.986   3.056 -0.2960  0.4180 -0.3090
 2278SOL    HW2 6891   0.332   3.912   3.185  1.2547  0.9290 -0.3178
 2279SOL     OW 6892   4.846   4.776   3.011 -0.4565  0.0949  1.1187
 2279SOL    HW1 6893   4.801   4.699   3.047  1.7559 -0.4862  2.8863
 2279SOL    HW2 6894   4.912   4.797   3.077  1.8364  0.8830 -1.2780
 2280SOL     OW 6895   4.661   3.539   0.317  0.3394  0.2686 -0.0671
 2280SOL    HW1 6896   4.641   3.530   0.410 -5.9107  1.7217 -0.8342
 2280SOL    HW2 6897   4.692   3.629   0.308  1.0507  0.0979  0.5360
 2281SOL     OW 6898   0.372   4.611   1.320 -0.1884  0.0326  0.2092
 2281SOL    HW1 6899   0.445   4.668   1.343 -0.3397  0.3744 -0.1460
 2281SOL    HW2 6900   0.294   4.657   1.353 -0.2375 -0.3679  0.6601
 2282SOL     OW 6901   1.491   3.088   2.305  0.5294 -0.2025 -0.1198
 2282SOL    HW1 6902   1.455   3.100   2.393 -0.4900 -2.5502 -0.1535
 2282SOL    HW2 6903   1.423   3.118   2.246 -0.4267 -2.2599 -0.1325
 2283SOL     OW 6904   4.292   4.162   4.325  0.0243  0.3505 -0.1886
 2283SOL    HW1 6905   4.317   4.098   4.259 -1.2409 -0.7252  0.3232
 2283SOL    HW2 6906   4.375   4.191   4.363  0.7058  0.2304 -1.5350
 2284SOL     OW 6907   2.650   4.152   3.793  0.5879 -0.0806  0.1890
 2284SOL    HW1 6908   2.586   4.203   3.744 -0.9938 -2.0501  0.1280
 2284SOL    HW2 6909   2.635   4.177   3.884  0.5896  0.3679  0.0716
 2285SOL     OW 6910   1.909   3.747   3.260 -0.2318  0.3994  0.2258
 2285SOL    HW1 6911   1.936   3.658   3.282  0.4826  0.5255 -0.1317
 2285SOL    HW2 6912   1.942   3.761   3.171 -1.8993  0.3832 -0.4450
 2286SOL     OW 6913   2.106   1.466   1.457  0.2817  0.4604 -0.2876
 2286SOL    HW1 6914   2.087   1.490   1.366  0.6129 -0.4265 -0.6016
 2286SOL    HW2 6915   2.037   1.404   1.479 -1.1331  2.3206  0.8289
 2287SOL     OW 6916   2.299   4.706   0.856 -0.7482 -0.0778  0.3047
 2287SOL    HW1 6917   2.300   4.658   0.938 -1.2781 -0.5408  0.0493
 2287SOL    HW2 6918   2.385   4.748   0.851 -0.3438 -0.8592  0.6090
 2288SOL     OW 6919   3.818   1.166   0.837  0.2489  0.1583  0.0116
 2288SOL    HW1 6920   3.899   1.148   0.789  0.1609  0.2269 -0.1623
 2288SOL    HW2 6921   3.843   1.158   0.929  0.4406  0.1225 -0.0424
 2289SOL     OW 6922   4.308   2.258   0.251 -0.2847 -0.4149 -0.0749
 2289SOL    HW1 6923   4.394   2.294   0.273  0.3098 -1.6096 -0.4053
 2289SOL    HW2 6924   4.322   2.210   0.170 -1.4190 -0.0850 -0.4932
 2290SOL     OW 6925   2.553   3.719   1.113 -0.4797 -0.5567 -0.4089
 2290SOL    HW1 6926   2.591   3.797   1.071  0.6711 -0.7717  0.2011
 2290SOL    HW2 6927   2.459   3.740   1.121 -0.1054  1.0501  0.3109
 2291SOL     OW 6928   3.890   4.493   3.542  0.0516  0.3029 -0.3441
 2291SOL    HW1 6929   3.943   4.512   3.619 -0.8108  0.4391  0.2256
 2291SOL    HW2 6930   3.889   4.398   3.535 -0.6840  0.2477  0.4029
 2292SOL     OW 6931   2.219   4.439   2.947  0.3485  0.0945  0.3427
 2292SOL    HW1 6932   2.126   4.460   2.950  0.9686  3.2804  0.9128
 2292SOL    HW2 6933   2.222   4.344   2.960 -2.8358 -0.3258 -1.0000
 2293SOL     OW 6934   0.080   4.823   4.384  0.6425 -0.3429 -0.1677
 2293SOL    HW1 6935   0.105   4.833   4.292  1.0592 -1.5955 -0.2071
 2293SOL    HW2 6936   0.107   4.905   4.425 -1.0351  0.9239 -1.4557
 2294SOL     OW 6937   3.641   1.032   3.963  0.3094 -0.5521  0.2639
 2294SOL    HW1 6938   3.679   0.998   4.044  1.7533 -1.2467 -0.6580
 2294SOL    HW2 6939   3.672   1.122   3.958 -2.4026  0.6290  2.0172
 2295SOL     OW 6940   3.750   1.992   1.649 -0.2241 -0.2666  0.0198
 2295SOL    HW1 6941   3.793   2.039   1.578  0.4675 -1.3873 -0.3316
 2295SOL    HW2 6942   3.820   1.974   1.712 -0.4180 -1.0221  0.0297
 2296SOL     OW 6943   3.443   0.160   2.921  0.0067 -0.1657 -0.4012
 2296SOL    HW1 6944   3.390   0.081   2.915  1.4999 -1.1194 -2.0039
 2296SOL    HW2 6945   3.391   0.227   2.876 -0.5459 -0.6575 -0.5035
 2297SOL     OW 6946   0.869   0.598   2.859 -0.0530 -0.7097  0.4154
 2297SOL    HW1 6947   0.838   0.661   2.924  1.5343  0.4384  0.1500
 2297SOL    HW2 6948   0.947   0.559   2.899  1.4238  0.6084 -1.0443
 2298SOL     OW 6949   1.494   0.862   1.405 -0.2610 -0.3187  0.0717
 2298SOL    HW1 6950   1.408   0.835   1.373 -1.7960  1.4950  2.3463
 2298SOL    HW2 6951   1.516   0.940   1.353 -0.3883 -0.2805  0.0765
 2299SOL     OW 6952   3.147   4.731   2.784 -0.4336  0.2793 -0.4602
 2299SOL    HW1 6953   3.124   4.768   2.698 -0.6492  0.6088 -0.2665
 2299SOL    HW2 6954   3.063   4.707   2.823 -0.3327  0.0871 -0.3593
 2300SOL     OW 6955   2.224   3.810   2.892 -0.0641  0.0617 -0.2888
 2300SOL    HW1 6956   2.191   3.753   2.823 -0.0616  0.7754 -0.8887
 2300SOL    HW2 6957   2.309   3.840   2.860 -0.0705  0.4079  0.0153
 2301SOL     OW 6958   0.359   2.055   1.758 -0.1319  0.2713  0.0734
 2301SOL    HW1 6959   0.291   2.011   1.810 -0.8129  2.9762  1.6398
 2301SOL    HW2 6960   0.441   2.031   1.801 -0.2871 -0.9919 -0.2948
 2302SOL     OW 6961   1.644   1.783   4.061 -0.0916  0.4624 -0.4739
 2302SOL    HW1 6962   1.670   1.710   4.004 -1.9084  0.0649 -0.8696
 2302SOL    HW2 6963   1.591   1.839   4.005 -0.7324  0.8006  0.4537
 2303SOL     OW 6964   2.248   2.884   3.534  0.0552 -0.1058 -0.4764
 2303SOL    HW1 6965   2.174   2.939   3.506 -0.7205 -0.0411  1.5524
 2303SOL    HW2 6966   2.212   2.829   3.603  1.6602 -0.8666 -0.2121
 2304SOL     OW 6967   2.178   1.053   3.223  0.2103 -0.2700  0.1572
 2304SOL    HW1 6968   2.097   1.048   3.275  0.8018 -1.1603  1.0381
 2304SOL    HW2 6969   2.163   1.125   3.162 -2.3289 -2.0655 -1.5486
 2305SOL     OW 6970   3.349   2.244   1.100  0.1391  0.4043 -0.4945
 2305SOL    HW1 6971   3.324   2.152   1.091  0.7735  0.3253 -1.6619
 2305SOL    HW2 6972   3.444   2.243   1.104  0.1276  0.9726  0.1780
 2306SOL     OW 6973   1.479   3.023   0.797 -0.5939 -0.2011  0.9430
 2306SOL    HW1 6974   1.478   3.101   0.742 -1.1111 -0.9045 -0.0816
 2306SOL    HW2 6975   1.399   2.976   0.773  0.9086 -2.2919 -0.3515
 2307SOL     OW 6976   4.064   4.420   0.242  0.0743 -0.0997 -0.0546
 2307SOL    HW1 6977   3.991   4.474   0.213 -0.1206 -0.1207  0.3783
 2307SOL    HW2 6978   4.140   4.457   0.198  0.3177  1.9568  1.8834
 2308SOL     OW 6979   0.899   2.427   4.174 -0.5594  0.3461 -1.1486
 2308SOL    HW1 6980   0.847   2.348   4.181 -2.7179  1.8382  1.3526
 2308SOL    HW2 6981   0.990   2.398   4.186 -0.9218 -2.0219 -3.3111
 2309SOL     OW 6982   4.763   3.991   4.725  0.8668 -0.0676 -0.4244
 2309SOL    HW1 6983   4.796   3.979   4.814  1.3062 -0.6187 -0.6536
 2309SOL    HW2 6984   4.842   3.994   4.670  0.5533 -1.2223 -0.9591
 2310SOL     OW 6985   1.631   4.048   4.645 -1.0431  0.1450 -0.0288
 2310SOL    HW1 6986   1.580   4.129   4.637  1.3098  1.8058  0.7376
 2310SOL    HW2 6987   1.678   4.040   4.562 -0.4628  0.1715  0.2863
 2311SOL     OW 6988   0.727   0.731   0.245  0.3363  0.2925  0.2650
 2311SOL    HW1 6989   0.791   0.738   0.316  0.7491  0.2684 -0.1005
 2311SOL    HW2 6990   0.764   0.782   0.173 -0.0753  0.3115  0.0595
 2312SOL     OW 6991   4.491   1.584   0.939  0.2147 -0.8285 -0.3398
 2312SOL    HW1 6992   4.424   1.541   0.992  0.1772 -1.1389 -0.6317
 2312SOL    HW2 6993   4.478   1.677   0.955  0.0926 -0.9138  0.0613
 2313SOL     OW 6994   1.345   1.336   1.194 -0.1290 -0.6648  0.1087
 2313SOL    HW1 6995   1.387   1.355   1.277  1.8012  0.9928 -1.1409
 2313SOL    HW2 6996   1.394   1.261   1.159 -0.8926 -1.3185  0.4273
 2314SOL     OW 6997   3.272   4.257   1.180  0.4060 -0.1489  0.0894
 2314SOL    HW1 6998   3.193   4.228   1.134 -1.2593  2.0831  1.3575
 2314SOL    HW2 6999   3.300   4.180   1.229 -0.5775 -1.1884 -0.8990
 2315SOL     OW 7000   0.028   3.954   4.612  0.5195 -0.0688 -0.3146
 2315SOL    HW1 7001   0.042   3.939   4.705 -0.5059  1.9738  0.2197
 2315SOL    HW2 7002   0.116   3.964   4.576  0.9283  3.1123  1.2194
 2316SOL     OW 7003   3.864   3.929   3.996  0.2416 -0.5319 -0.7107
 2316SOL    HW1 7004   3.802   3.990   3.956  0.2705 -0.4359 -0.6105
 2316SOL    HW2 7005   3.945   3.941   3.946  1.0712  1.4444  0.9402
 2317SOL     OW 7006   2.848   4.187   0.655  0.6187 -0.0651  0.0496
 2317SOL    HW1 7007   2.931   4.209   0.612  1.4350 -0.2139  1.5023
 2317SOL    HW2 7008   2.848   4.237   0.736 -0.3187 -0.7464  0.4938
 2318SOL     OW 7009   2.326   3.967   1.058 -0.0467  0.6731 -0.2046
 2318SOL    HW1 7010   2.286   3.918   0.986  0.9769  0.6743 -0.7925
 2318SOL    HW2 7011   2.310   3.913   1.135 -0.5896  0.3534 -0.5348
 2319SOL     OW 7012   3.420   2.604   1.233 -0.0775 -0.6670  0.2398
 2319SOL    HW1 7013   3.346   2.544   1.231 -0.2052 -0.5092  0.0687
 2319SOL    HW2 7014   3.390   2.679   1.180  0.1488 -0.5402  0.2925
 2320SOL     OW 7015   0.201   3.719   2.949 -0.3070 -0.4876 -0.0675
 2320SOL    HW1 7016   0.158   3.752   3.028 -0.8424 -1.9026  0.2701
 2320SOL    HW2 7017   0.159   3.767   2.877 -0.1015  0.5229  0.4753
 2321SOL     OW 7018   2.216   3.829   0.832 -0.2604 -0.2160  0.6272
 2321SOL    HW1 7019   2.261   3.865   0.756 -3.4625  0.3660 -1.1489
 2321SOL    HW2 7020   2.168   3.753   0.798 -3.0551  0.9957  1.5912
 2322SOL     OW 7021   1.499   0.867   3.485  0.1891  0.3745 -0.4826
 2322SOL    HW1 7022   1.502   0.773   3.467  0.7354  0.4521 -0.8078
 2322SOL    HW2 7023   1.414   0.880   3.526 -0.3591 -0.0953 -1.4201
 2323SOL     OW 7024   2.954   0.936   4.695  0.0185  0.7159 -0.0190
 2323SOL    HW1 7025   3.003   0.987   4.760  1.8982 -2.1480  1.0295
 2323SOL    HW2 7026   2.878   0.903   4.743  0.9739 -0.7218  0.5822
 2324SOL     OW 7027   3.504   2.386   4.772  0.3766 -0.0473 -0.0153
 2324SOL    HW1 7028   3.560   2.430   4.836 -1.5136  1.0260  0.9943
 2324SOL    HW2 7029   3.452   2.325   4.824 -3.2257  2.8085  0.1891
 2325SOL     OW 7030   0.158   1.313   3.864 -0.7989  0.4966  0.0795
 2325SOL    HW1 7031   0.207   1.393   3.845 -0.7231  0.5049  0.3118
 2325SOL    HW2 7032   0.140   1.317   3.958  1.5774 -1.0657  0.6717
 2326SOL     OW 7033   0.019   1.581   3.901 -0.0168  0.4002 -0.0320
 2326SOL    HW1 7034  -0.032   1.651   3.942 -1.9404 -0.6825 -0.4313
 2326SOL    HW2 7035   0.025   1.514   3.969  0.8453  0.4927 -0.0131
 2327SOL     OW 7036   4.628   4.471   2.057  0.0536  0.4908  0.1733
 2327SOL    HW1 7037   4.722   4.451   2.060 -0.0410  0.1072  0.5477
 2327SOL    HW2 7038   4.585   4.391   2.085 -0.3809  0.7491  0.2494
 2328SOL     OW 7039   4.671   0.514   0.281 -0.1931  0.2536 -0.1879
 2328SOL    HW1 7040   4.725   0.446   0.321  0.0044  0.7245  0.3567
 2328SOL    HW2 7041   4.646   0.571   0.354 -1.9835 -0.3220 -0.2994
 2329SOL     OW 7042   2.489   2.369   4.737  0.2360 -0.0961  0.1361
 2329SOL    HW1 7043   2.445   2.303   4.790 -0.2578  0.4576  0.4308
 2329SOL    HW2 7044   2.453   2.357   4.649 -1.4395  1.1071  0.5986
 2330SOL     OW 7045   2.527   0.463   4.665  0.0319  0.2808 -0.2018
 2330SOL    HW1 7046   2.585   0.408   4.612 -1.4933  0.0374 -1.6950
 2330SOL    HW2 7047   2.547   0.553   4.639  0.0676  0.2264 -0.3597
 2331SOL     OW 7048   3.858   4.156   0.208 -0.3250 -0.1797 -0.3524
 2331SOL    HW1 7049   3.847   4.073   0.161 -0.8600  0.1376 -0.7968
 2331SOL    HW2 7050   3.940   4.192   0.176 -0.1958 -0.4375 -0.3112
 2332SOL     OW 7051   0.375   1.428   4.647  0.1713 -0.2786 -0.5504
 2332SOL    HW1 7052   0.298   1.483   4.663  0.4794  0.2741 -0.9314
 2332SOL    HW2 7053   0.415   1.466   4.568  0.7738 -0.6285 -0.4140
 2333SOL     OW 7054   4.170   0.996   3.542 -0.0244  0.3153 -0.0011
 2333SOL    HW1 7055   4.099   0.944   3.581  0.0618 -0.8170 -1.2700
 2333SOL    HW2 7056   4.128   1.045   3.472  0.0764  1.2606  0.5882
 2334SOL     OW 7057   1.801   2.675   4.162  0.3810  0.0319 -0.3863
 2334SOL    HW1 7058   1.896   2.688   4.168  0.2458  1.0913 -0.3132
 2334SOL    HW2 7059   1.785   2.593   4.209  1.0180  0.9113  1.4507
 2335SOL     OW 7060   1.692   2.277   1.430  0.2828  0.6591  0.1195
 2335SOL    HW1 7061   1.751   2.288   1.504 -0.2063 -0.6942  0.7373
 2335SOL    HW2 7062   1.605   2.291   1.466  0.0814  0.5438 -0.3158
 2336SOL     OW 7063   2.538   1.467   1.586 -0.0531 -0.0865 -0.2991
 2336SOL    HW1 7064   2.509   1.405   1.520 -0.6175 -1.8714  1.5310
 2336SOL    HW2 7065   2.485   1.545   1.571  1.1458  0.2867 -3.0740
 2337SOL     OW 7066   0.672   4.213   1.435  0.4179  0.5105  0.4548
 2337SOL    HW1 7067   0.692   4.305   1.455 -3.0856  1.2604  1.2437
 2337SOL    HW2 7068   0.643   4.177   1.519  0.4832 -0.9457 -0.1344
 2338SOL     OW 7069   3.934   1.573   0.157  0.3824  0.2372 -0.1246
 2338SOL    HW1 7070   3.921   1.595   0.065  2.7202  2.5961 -0.0177
 2338SOL    HW2 7071   3.961   1.655   0.198 -0.6808 -0.7093  2.7364
 2339SOL     OW 7072   1.241   4.614   0.483  0.7055 -0.4174  0.3578
 2339SOL    HW1 7073   1.269   4.665   0.559  1.0281 -1.8534  1.2388
 2339SOL    HW2 7074   1.307   4.545   0.474 -0.8301 -1.9977  0.5609
 2340SOL     OW 7075   4.283   3.416   1.302  0.1404  0.2413  0.3431
 2340SOL    HW1 7076   4.322   3.359   1.236 -0.3772 -0.6035  0.7539
 2340SOL    HW2 7077   4.346   3.488   1.312  1.0738 -0.5462  0.2357
 2341SOL     OW 7078   0.624   0.516   0.410 -0.2286 -0.1318 -0.0363
 2341SOL    HW1 7079   0.697   0.577   0.412 -0.6522  0.3658  0.9369
 2341SOL    HW2 7080   0.661   0.435   0.376  0.6825  0.2277  0.0716
 2342SOL     OW 7081   0.272   0.238   1.674  0.0471  0.0781 -0.4068
 2342SOL    HW1 7082   0.196   0.281   1.636 -1.8917 -2.8259 -0.1062
 2342SOL    HW2 7083   0.250   0.226   1.766  1.2775 -0.0328 -0.1013
 2343SOL     OW 7084   3.605   3.118   2.943 -0.4391 -0.3125  0.0453
 2343SOL    HW1 7085   3.639   3.044   2.994 -0.3406  0.4608  1.1602
 2343SOL    HW2 7086   3.517   3.131   2.977 -0.3907  0.1882 -0.0171
 2344SOL     OW 7087   2.270   2.029   4.796  0.2797 -0.3641  0.4124
 2344SOL    HW1 7088   2.199   2.045   4.859  0.8315  0.0803  0.9344
 2344SOL    HW2 7089   2.348   2.063   4.839  0.7591 -0.5447 -0.2988
 2345SOL     OW 7090   3.963   2.962   4.645 -0.0434 -0.5764 -0.5118
 2345SOL    HW1 7091   3.892   2.919   4.598 -0.6057 -0.5373  0.2897
 2345SOL    HW2 7092   3.968   2.916   4.728  1.1858 -0.8873 -0.7376
 2346SOL     OW 7093   1.506   3.658   1.669 -0.0278 -0.1349  0.3148
 2346SOL    HW1 7094   1.574   3.592   1.682  0.5254 -0.0016 -1.6057
 2346SOL    HW2 7095   1.546   3.739   1.699 -0.0321 -0.3496  0.9241
 2347SOL     OW 7096   0.547   4.733   2.797  0.4386  0.2659  0.5413
 2347SOL    HW1 7097   0.585   4.659   2.750 -0.2795  2.0786 -3.2601
 2347SOL    HW2 7098   0.452   4.720   2.789  0.3049  1.2753  0.3255
 2348SOL     OW 7099   4.684   3.767   0.929  0.2384 -0.0770  0.8106
 2348SOL    HW1 7100   4.600   3.727   0.950  0.4592 -0.5401  0.8246
 2348SOL    HW2 7101   4.662   3.856   0.904 -0.1577  0.1248  1.8225
 2349SOL     OW 7102   3.131   2.837   1.554 -0.2411 -0.0005  0.4038
 2349SOL    HW1 7103   3.141   2.755   1.506  1.2674 -0.3265  1.2137
 2349SOL    HW2 7104   3.102   2.900   1.487 -0.4798 -0.9658 -0.4283
 2350SOL     OW 7105   3.280   3.197   0.074  0.0457  0.3271 -0.0150
 2350SOL    HW1 7106   3.336   3.255   0.126  1.3775 -1.2911  0.4709
 2350SOL    HW2 7107   3.301   3.109   0.107 -2.0001 -0.4379 -0.6012
 2351SOL     OW 7108   3.573   3.334   2.774 -0.4713 -0.4059 -0.1436
 2351SOL    HW1 7109   3.489   3.363   2.808 -1.3812 -2.1560 -0.7412
 2351SOL    HW2 7110   3.595   3.257   2.826 -0.1575 -1.0473 -1.1911
 2352SOL     OW 7111   3.799   4.684   4.592  0.4394 -0.4182 -0.2082
 2352SOL    HW1 7112   3.859   4.754   4.620 -0.5385  0.8400 -1.1052
 2352SOL    HW2 7113   3.855   4.622   4.546  1.1972  0.2826 -0.2676
 2353SOL     OW 7114   3.282   2.245   1.836 -0.2098  0.4412 -0.1220
 2353SOL    HW1 7115   3.215   2.229   1.902 -0.1299 -0.2763 -0.2033
 2353SOL    HW2 7116   3.362   2.208   1.872 -0.2425 -0.2808 -0.7605
 2354SOL     OW 7117   1.332   1.464   3.289  0.0784  0.0676 -0.6233
 2354SOL    HW1 7118   1.342   1.549   3.247 -0.9669  0.2684 -0.4822
 2354SOL    HW2 7119   1.241   1.462   3.319  0.6259 -0.2972  1.1447
 2355SOL     OW 7120   1.268   3.948   1.542 -0.2903  0.5948  0.3884
 2355SOL    HW1 7121   1.262   4.039   1.512  2.1342  0.4572 -0.7294
 2355SOL    HW2 7122   1.332   3.950   1.612 -0.5361 -0.1963  0.6454
 2356SOL     OW 7123   4.536   1.336   0.524  0.2517 -0.8247 -0.2953
 2356SOL    HW1 7124   4.526   1.418   0.572 -1.8146 -0.0551 -1.9080
 2356SOL    HW2 7125   4.450   1.320   0.485  1.3486 -2.3079 -2.2920
 2357SOL     OW 7126   2.477   1.231   3.732 -0.1350 -0.4864 -0.2066
 2357SOL    HW1 7127   2.570   1.209   3.729 -0.0416 -0.5556  1.7329
 2357SOL    HW2 7128   2.433   1.147   3.746 -0.5937 -0.5757 -2.0053
 2358SOL     OW 7129   3.785   0.891   4.684 -0.0712  0.1903  0.5858
 2358SOL    HW1 7130   3.743   0.809   4.661 -0.1797  0.3738  0.1305
 2358SOL    HW2 7131   3.738   0.921   4.762 -0.7256  0.3409  0.1461
 2359SOL     OW 7132   2.800   0.448   2.897 -0.0562 -0.1196  0.1784
 2359SOL    HW1 7133   2.804   0.444   2.802 -0.5796 -0.1626  0.1520
 2359SOL    HW2 7134   2.860   0.380   2.927  0.1625 -0.0586 -0.1206
 2360SOL     OW 7135   3.797   4.732   3.489 -0.1914 -0.1146  0.0009
 2360SOL    HW1 7136   3.815   4.737   3.395 -1.7344  2.4316 -0.2402
 2360SOL    HW2 7137   3.818   4.641   3.512  3.1554 -0.0858 -2.1282
 2361SOL     OW 7138   2.712   3.351   4.339 -0.0240  0.2377 -0.2260
 2361SOL    HW1 7139   2.703   3.329   4.431  0.4910  0.1034 -0.2036
 2361SOL    HW2 7140   2.658   3.429   4.327 -0.7282 -0.2105  0.0054
 2362SOL     OW 7141   1.492   3.263   4.153 -0.6283  0.3506  0.2300
 2362SOL    HW1 7142   1.565   3.205   4.173 -0.6296  0.8952  1.9329
 2362SOL    HW2 7143   1.451   3.282   4.238 -0.8445  2.5449 -0.2978
 2363SOL     OW 7144   0.389   4.832   4.917  0.1038 -0.3460  0.3728
 2363SOL    HW1 7145   0.306   4.878   4.913 -1.2716 -2.7604 -1.1976
 2363SOL    HW2 7146   0.440   4.880   4.983 -2.3895  1.3737  1.1915
 2364SOL     OW 7147   4.139   2.164   2.382 -0.2121  0.4779  0.0892
 2364SOL    HW1 7148   4.143   2.133   2.472 -1.9501 -0.9764 -0.2680
 2364SOL    HW2 7149   4.200   2.107   2.335 -0.6073  0.0676  0.0663
 2365SOL     OW 7150   1.762   4.941   3.538 -0.1319  0.3551 -0.0388
 2365SOL    HW1 7151   1.669   4.960   3.527 -0.0443  0.7431 -0.1275
 2365SOL    HW2 7152   1.779   4.954   3.631 -0.3037 -0.3483  0.0950
 2366SOL     OW 7153   2.468   2.709   0.656  0.2426  0.0394  0.2816
 2366SOL    HW1 7154   2.497   2.620   0.677 -0.7631 -0.1813  0.7620
 2366SOL    HW2 7155   2.376   2.700   0.631  0.5520  0.7365 -1.2470
 2367SOL     OW 7156   0.730   2.619   0.617  0.0643 -0.2523  0.0911
 2367SOL    HW1 7157   0.637   2.599   0.618  0.2564 -1.2142 -0.2515
 2367SOL    HW2 7158   0.766   2.567   0.689  0.8061 -2.4166 -1.7580
 2368SOL     OW 7159   0.572   2.505   3.105 -0.5719  0.0121 -0.3871
 2368SOL    HW1 7160   0.500   2.501   3.042 -0.1048 -0.5714 -0.8903
 2368SOL    HW2 7161   0.617   2.587   3.087 -0.8418  0.1683 -0.3589
 2369SOL     OW 7162   1.720   2.246   4.617 -0.3009  0.2878 -0.2154
 2369SOL    HW1 7163   1.789   2.296   4.662 -0.7335  0.3989  0.3464
 2369SOL    HW2 7164   1.766   2.174   4.574  0.0566 -0.3461  1.1558
 2370SOL     OW 7165   2.400   0.415   1.209 -0.1343 -0.0853  0.0780
 2370SOL    HW1 7166   2.313   0.448   1.230 -0.4931 -1.5482  1.0008
 2370SOL    HW2 7167   2.452   0.432   1.287  1.4052  3.6773 -1.4910
 2371SOL     OW 7168   2.895   4.724   2.529  0.5624 -0.4281 -0.4338
 2371SOL    HW1 7169   2.932   4.637   2.541  1.2092 -0.0783  0.2171
 2371SOL    HW2 7170   2.919   4.749   2.439  1.8910 -0.2322 -0.0456
 2372SOL     OW 7171   0.590   4.346   4.275  0.4594  0.2067  0.2712
 2372SOL    HW1 7172   0.604   4.433   4.239 -1.1478 -0.2578 -1.6498
 2372SOL    HW2 7173   0.574   4.360   4.368  1.5985  1.7971  0.2599
 2373SOL     OW 7174   3.866   3.653   0.604 -0.4058 -0.3220 -0.0029
 2373SOL    HW1 7175   3.852   3.748   0.598 -1.0697 -0.4874 -1.6046
 2373SOL    HW2 7176   3.961   3.642   0.598 -0.0524  0.3553  2.9382
 2374SOL     OW 7177   3.586   3.634   2.402  0.0538 -0.2574  0.1268
 2374SOL    HW1 7178   3.646   3.645   2.476  1.7216 -0.2771 -1.1728
 2374SOL    HW2 7179   3.504   3.604   2.442  0.8100  0.0295  1.9829
 2375SOL     OW 7180   4.347   0.691   4.108 -0.0050  0.1206 -0.3223
 2375SOL    HW1 7181   4.400   0.668   4.032 -0.2328 -0.7135 -0.2298
 2375SOL    HW2 7182   4.372   0.629   4.176 -1.5481 -0.7202 -0.4786
 2376SOL     OW 7183   2.888   4.779   3.483  0.9948  0.7478 -0.7076
 2376SOL    HW1 7184   2.956   4.756   3.420  0.2613  2.0680 -2.0356
 2376SOL    HW2 7185   2.926   4.850   3.535  1.3416  0.1279 -0.0925
 2377SOL     OW 7186   0.877   4.000   0.103 -0.1917 -0.1620 -0.3084
 2377SOL    HW1 7187   0.946   4.060   0.130  1.1163 -1.6538 -0.2359
 2377SOL    HW2 7188   0.831   3.979   0.184  0.7676 -0.9904  0.0295
 2378SOL     OW 7189   3.375   1.613   3.357  0.0547 -0.2288 -0.5678
 2378SOL    HW1 7190   3.357   1.625   3.264 -1.5984  0.1280 -0.2267
 2378SOL    HW2 7191   3.368   1.701   3.395 -1.8930 -0.7080  0.2947
 2379SOL     OW 7192   4.193   3.953   1.676 -0.2526  0.3348 -0.9959
 2379SOL    HW1 7193   4.268   3.895   1.664  0.3803  0.8722  0.1837
 2379SOL    HW2 7194   4.228   4.041   1.667 -0.4654  0.6392  0.7419
 2380SOL     OW 7195   4.157   4.574   3.980 -0.3810 -0.4268  0.5173
 2380SOL    HW1 7196   4.096   4.575   4.054 -0.9568 -1.4410  0.0764
 2380SOL    HW2 7197   4.225   4.512   4.005 -2.0085 -2.9639 -0.8431
 2381SOL     OW 7198   4.067   4.930   0.959 -0.1808 -0.4004  0.0060
 2381SOL    HW1 7199   4.145   4.886   0.995 -0.3894 -1.3086 -0.6287
 2381SOL    HW2 7200   4.015   4.953   1.036 -0.5280 -2.1429  0.3343
 2382SOL     OW 7201   3.244   2.710   3.818 -0.1491 -0.4812  0.4442
 2382SOL    HW1 7202   3.299   2.761   3.877  1.2203 -1.7206  0.2863
 2382SOL    HW2 7203   3.180   2.773   3.784  0.6771  0.8166  1.2360
 2383SOL     OW 7204   3.114   3.342   2.927  0.0818  0.3601  0.3480
 2383SOL    HW1 7205   3.098   3.253   2.897  1.2938  0.4194 -0.5798
 2383SOL    HW2 7206   3.089   3.341   3.020 -0.9283 -0.6393  0.0857
 2384SOL     OW 7207   3.440   4.320   1.823  0.7253 -0.3966  0.1902
 2384SOL    HW1 7208   3.474   4.372   1.896  3.2044 -1.5654 -0.0490
 2384SOL    HW2 7209   3.410   4.385   1.759  0.0060  0.6503  1.5299
 2385SOL     OW 7210   0.618   2.087   0.120  0.1943  0.0515  0.0609
 2385SOL    HW1 7211   0.689   2.120   0.175  1.3305 -3.4074  0.9421
 2385SOL    HW2 7212   0.654   2.091   0.031  0.4294  0.8333  0.1861
 2386SOL     OW 7213   3.723   4.571   4.849  0.2920 -0.4075 -0.2948
 2386SOL    HW1 7214   3.637   4.614   4.846  0.9922  1.1090 -0.0278
 2386SOL    HW2 7215   3.771   4.609   4.776  1.4471  0.4774  0.8617
 2387SOL     OW 7216   0.080   2.508   3.513  0.4991  0.1023  0.0967
 2387SOL    HW1 7217   0.013   2.479   3.451  0.0100  0.4714  0.4484
 2387SOL    HW2 7218   0.032   2.527   3.593  1.3829 -2.5988  1.4029
 2388SOL     OW 7219   0.300   3.635   3.891 -0.2898  0.3234 -0.2616
 2388SOL    HW1 7220   0.257   3.619   3.807 -1.5433 -0.4317  0.4727
 2388SOL    HW2 7221   0.355   3.712   3.877  0.4552 -0.4758 -2.0797
 2389SOL     OW 7222   1.643   0.767   0.680 -0.1096  0.1257  0.1011
 2389SOL    HW1 7223   1.720   0.722   0.643 -0.9871 -0.5343 -0.9916
 2389SOL    HW2 7224   1.634   0.846   0.627  2.0783  2.3068  2.7078
 2390SOL     OW 7225   0.913   3.011   1.167 -0.0277 -0.2137  0.3896
 2390SOL    HW1 7226   0.900   2.948   1.095 -1.5022  1.4407 -0.8747
 2390SOL    HW2 7227   1.002   3.042   1.155 -0.2404  0.0128 -0.7437
 2391SOL     OW 7228   3.216   1.488   0.685 -0.4523 -0.0210 -0.0960
 2391SOL    HW1 7229   3.145   1.542   0.651 -0.9369 -0.3558  0.3678
 2391SOL    HW2 7230   3.240   1.430   0.613 -2.0664 -1.3392  0.3577
 2392SOL     OW 7231   3.638   1.163   2.035  0.0814 -0.4208  0.0295
 2392SOL    HW1 7232   3.564   1.104   2.053 -1.0409  0.8537 -0.2502
 2392SOL    HW2 7233   3.609   1.215   1.960  0.6641  1.0908  0.8243
 2393SOL     OW 7234   3.607   0.591   2.755  0.0473 -0.3500  0.3012
 2393SOL    HW1 7235   3.637   0.513   2.801 -1.6685  0.0086  2.2190
 2393SOL    HW2 7236   3.566   0.557   2.675  0.2527 -1.3111  0.5872
 2394SOL     OW 7237   4.062   2.925   3.728  0.1283 -0.0097 -0.0015
 2394SOL    HW1 7238   3.975   2.884   3.723  0.1025  0.1737 -1.1793
 2394SOL    HW2 7239   4.056   2.982   3.805  0.5083 -2.9533  2.3731
 2395SOL     OW 7240   1.651   4.107   0.029 -0.0234  0.2504  0.4531
 2395SOL    HW1 7241   1.637   4.197   0.059  0.3914  0.3844  0.2593
 2395SOL    HW2 7242   1.717   4.115  -0.040  1.6268 -0.4247  1.8745
 2396SOL     OW 7243   1.152   1.668   4.489 -0.1215 -1.1070 -0.4684
 2396SOL    HW1 7244   1.120   1.619   4.564  0.3231  0.4000  0.7506
 2396SOL    HW2 7245   1.235   1.706   4.518  1.3655 -2.4730 -2.5494
 2397SOL     OW 7246   2.492   0.086   4.828 -0.2929 -0.0615 -0.1499
 2397SOL    HW1 7247   2.500   0.080   4.733 -2.7415  0.9395 -0.5097
 2397SOL    HW2 7248   2.575   0.123   4.858  0.3405  0.0420 -1.9577
 2398SOL     OW 7249   0.006   3.559   4.192 -0.2249  0.0351  0.1794
 2398SOL    HW1 7250   0.085   3.557   4.246  1.1092  0.2035 -1.6868
 2398SOL    HW2 7251  -0.011   3.467   4.173 -0.4247  0.0074  0.4774
 2399SOL     OW 7252   1.794   2.838   3.283  0.3874 -0.3503  0.0676
 2399SOL    HW1 7253   1.770   2.767   3.224 -0.9454  0.0140  0.1459
 2399SOL    HW2 7254   1.750   2.915   3.247 -0.6111 -0.1556  1.6094
 2400SOL     OW 7255   3.768   4.310   3.230  0.0289  0.1602  0.4858
 2400SOL    HW1 7256   3.841   4.255   3.258  0.0606 -0.1488 -0.1805
 2400SOL    HW2 7257   3.693   4.250   3.224  0.1425  0.1024 -0.5751
 2401SOL     OW 7258   4.937   3.837   2.476  0.0003 -0.0995 -0.0785
 2401SOL    HW1 7259   5.006   3.900   2.455  1.1189 -0.4937  2.0883
 2401SOL    HW2 7260   4.866   3.891   2.511  0.8803  0.0555  1.5931
 2402SOL     OW 7261   4.782   0.839   4.830 -0.3474 -0.1019  0.1036
 2402SOL    HW1 7262   4.758   0.801   4.914 -1.7574  1.3178  0.3996
 2402SOL    HW2 7263   4.850   0.903   4.851 -0.8211  0.3765  0.2171
 2403SOL     OW 7264   3.065   2.095   3.498  0.3874  0.0196 -0.4080
 2403SOL    HW1 7265   3.093   2.145   3.575  1.8267  0.3472 -1.1160
 2403SOL    HW2 7266   2.998   2.035   3.531  1.7823 -0.6573  1.3326
 2404SOL     OW 7267   4.531   0.377   3.025  0.7485  0.5862 -0.0594
 2404SOL    HW1 7268   4.459   0.405   2.969  0.4035  1.1881  0.6599
 2404SOL    HW2 7269   4.607   0.372   2.967  0.0259 -0.5744 -0.9330
 2405SOL     OW 7270   1.656   2.308   2.265 -0.1676 -0.3475 -0.2108
 2405SOL    HW1 7271   1.700   2.251   2.202  2.2824 -0.2142  1.2759
 2405SOL    HW2 7272   1.629   2.385   2.214 -0.7121 -1.4134 -1.5909
 2406SOL     OW 7273   0.528   1.112   1.232 -0.3045 -0.1053  0.2754
 2406SOL    HW1 7274   0.495   1.117   1.142 -1.3589 -1.6026  0.5321
 2406SOL    HW2 7275   0.582   1.190   1.242 -0.5391  0.3406 -1.5032
 2407SOL     OW 7276   3.376   1.014   4.686 -0.1338  0.1018  0.3408
 2407SOL    HW1 7277   3.336   1.028   4.772 -2.7213 -0.1736 -0.7472
 2407SOL    HW2 7278   3.393   0.920   4.682  2.7608  0.4460  1.5896
 2408SOL     OW 7279   3.182   4.504   1.340  0.6585 -0.1404  0.2715
 2408SOL    HW1 7280   3.230   4.578   1.301 -0.3420 -0.0429 -0.8305
 2408SOL    HW2 7281   3.233   4.427   1.315  0.8674  0.0493  0.0976
 2409SOL     OW 7282   2.718   4.978   3.375 -0.1374 -0.3645 -0.4289
 2409SOL    HW1 7283   2.630   4.977   3.414 -1.1008 -1.7388 -2.4338
 2409SOL    HW2 7284   2.758   4.896   3.403 -1.4950 -2.2530 -3.3992
 2410SOL     OW 7285   3.247   0.207   0.688  0.0353  0.6164 -0.3946
 2410SOL    HW1 7286   3.225   0.247   0.773  1.5689  0.2710  0.1948
 2410SOL    HW2 7287   3.329   0.248   0.663  0.9187 -1.1125 -0.4620
 2411SOL     OW 7288   4.005   1.823   0.301 -0.2392  0.4002  0.0242
 2411SOL    HW1 7289   3.987   1.912   0.332  0.6693 -0.1374  2.3116
 2411SOL    HW2 7290   4.096   1.807   0.325 -0.6885 -1.4914  0.6628
 2412SOL     OW 7291   3.042   2.612   4.568 -0.2916  0.1778 -0.1937
 2412SOL    HW1 7292   3.098   2.619   4.646  0.9439  1.3317 -1.1464
 2412SOL    HW2 7293   2.959   2.652   4.594  0.0131  0.3097  0.6040
 2413SOL     OW 7294   1.260   3.529   2.178  0.1443 -0.3202  0.0042
 2413SOL    HW1 7295   1.240   3.599   2.116 -0.5480 -1.6270 -1.2999
 2413SOL    HW2 7296   1.258   3.449   2.126  1.4392 -1.2853  1.3509
 2414SOL     OW 7297   3.433   1.361   2.296 -0.3263  0.0482  0.5524
 2414SOL    HW1 7298   3.492   1.306   2.348  0.3365  0.1556 -0.0615
 2414SOL    HW2 7299   3.351   1.313   2.293 -0.1606 -0.2817  1.1140
 2415SOL     OW 7300   1.783   3.111   3.175  0.1669 -0.3290 -0.5456
 2415SOL    HW1 7301   1.735   3.130   3.095 -1.1180  0.2180  0.3230
 2415SOL    HW2 7302   1.730   3.150   3.245  1.8441  0.2603  0.4625
 2416SOL     OW 7303   0.177   0.727   2.036 -0.3162  0.1344 -0.0064
 2416SOL    HW1 7304   0.243   0.788   2.070 -1.3488  2.9613 -2.5967
 2416SOL    HW2 7305   0.135   0.693   2.115  3.1726 -0.7226  1.7135
 2417SOL     OW 7306   1.136   2.957   3.062  0.3427  0.1614 -0.1294
 2417SOL    HW1 7307   1.077   2.891   3.025  0.6857 -0.1610 -0.1118
 2417SOL    HW2 7308   1.197   2.976   2.991  2.0191 -1.6622  0.7289
 2418SOL     OW 7309   3.935   2.958   2.023  0.2649  0.0950  0.4460
 2418SOL    HW1 7310   3.883   2.877   2.027 -0.2837  0.4798  1.2416
 2418SOL    HW2 7311   3.932   2.994   2.112  0.6399  0.9108  0.1414
 2419SOL     OW 7312   1.753   4.809   4.418  0.1147  0.3446 -0.5575
 2419SOL    HW1 7313   1.843   4.839   4.427  0.3987 -0.8906  1.0514
 2419SOL    HW2 7314   1.720   4.856   4.341  1.4731  2.3497  0.0233
 2420SOL     OW 7315   0.361   3.053   0.104  0.2063 -0.4921 -0.5554
 2420SOL    HW1 7316   0.308   3.132   0.107  2.9300  1.4335  1.4709
 2420SOL    HW2 7317   0.430   3.073   0.040  1.0804 -1.0986  0.1682
 2421SOL     OW 7318   0.562   1.646   3.763 -0.6726 -0.5604 -0.1359
 2421SOL    HW1 7319   0.537   1.639   3.856  0.0086 -0.1977  0.0844
 2421SOL    HW2 7320   0.584   1.556   3.738 -2.5680 -0.9592 -0.4610
 2422SOL     OW 7321   0.134   0.732   3.038 -0.4564  0.2431 -0.6841
 2422SOL    HW1 7322   0.116   0.826   3.050 -0.4104  0.2875 -0.9659
 2422SOL    HW2 7323   0.203   0.713   3.101 -1.5485  0.0514  0.4888
 2423SOL     OW 7324   0.904   1.615   0.080  0.0055 -0.0724 -0.2997
 2423SOL    HW1 7325   0.871   1.607  -0.009  0.1320  0.0375 -0.3570
 2423SOL    HW2 7326   0.827   1.601   0.135 -0.6086  2.2641 -0.4568
 2424SOL     OW 7327   1.370   0.449   0.190  0.2421 -0.0652 -0.5873
 2424SOL    HW1 7328   1.278   0.423   0.191  0.6994 -1.8045 -0.9791
 2424SOL    HW2 7329   1.396   0.441   0.098  1.2330 -1.3463 -0.2194
 2425SOL     OW 7330   1.868   1.449   0.188 -0.2035  0.0805 -0.1551
 2425SOL    HW1 7331   1.959   1.422   0.185 -0.0084  0.6412  0.4019
 2425SOL    HW2 7332   1.864   1.510   0.262 -1.0251  0.0658 -0.1814
 2426SOL     OW 7333   3.483   0.583   0.942  0.0807 -0.2633 -0.3603
 2426SOL    HW1 7334   3.487   0.608   1.034 -0.6801  0.3586 -0.4785
 2426SOL    HW2 7335   3.558   0.526   0.928  0.0668 -0.5497  0.7002
 2427SOL     OW 7336   1.675   1.553   2.778 -0.5666 -0.2245  0.0703
 2427SOL    HW1 7337   1.635   1.514   2.701 -0.9904 -0.2162  0.2857
 2427SOL    HW2 7338   1.769   1.536   2.767 -0.7312 -1.2127  0.1159
 2428SOL     OW 7339   0.024   3.945   3.111 -0.1498 -0.3928 -0.8271
 2428SOL    HW1 7340   0.107   3.991   3.126 -0.3347  0.0191 -1.0377
 2428SOL    HW2 7341  -0.029   3.966   3.188  0.2264 -1.3235 -0.3012
 2429SOL     OW 7342   1.520   1.611   0.606 -0.2341  0.2423  0.0243
 2429SOL    HW1 7343   1.543   1.605   0.513  0.4401 -0.2810  0.2194
 2429SOL    HW2 7344   1.472   1.530   0.624  2.0076 -0.9954  0.7650
 2430SOL     OW 7345   0.840   0.720   3.273 -0.5301 -0.5298 -0.3042
 2430SOL    HW1 7346   0.904   0.657   3.239 -2.2112 -1.9570 -0.9672
 2430SOL    HW2 7347   0.878   0.751   3.355  1.9144  0.1890 -1.6106
 2431SOL     OW 7348   2.384   2.951   4.202  0.1428  0.2941  0.2459
 2431SOL    HW1 7349   2.318   2.932   4.135  0.0793  2.4931 -0.3797
 2431SOL    HW2 7350   2.337   2.942   4.285  0.2378 -2.5306  0.1043
 2432SOL     OW 7351   4.776  -0.018   4.604 -0.4402  0.0108 -0.3623
 2432SOL    HW1 7352   4.725  -0.008   4.684 -0.6045  0.4208 -0.5178
 2432SOL    HW2 7353   4.759   0.061   4.554  0.3324  0.1447 -0.4307
 2433SOL     OW 7354   1.155   3.826   2.297 -0.1130  0.5466 -0.9498
 2433SOL    HW1 7355   1.135   3.919   2.287 -2.0204  0.3303  0.4075
 2433SOL    HW2 7356   1.178   3.797   2.209  1.9570  2.5722 -1.1774
 2434SOL     OW 7357   2.855   4.645   1.019  0.1028 -0.7061 -0.8020
 2434SOL    HW1 7358   2.846   4.658   0.924 -2.2406 -0.5021 -0.6126
 2434SOL    HW2 7359   2.857   4.734   1.055 -1.6870 -0.7457 -0.5140
 2435SOL     OW 7360   3.009   2.774   3.051  0.5327 -0.4615 -0.3231
 2435SOL    HW1 7361   2.954   2.721   2.993  0.7668 -0.8808 -0.1646
 2435SOL    HW2 7362   2.960   2.855   3.063  0.1270 -0.6786 -0.4902
 2436SOL     OW 7363   4.495   4.839   4.096 -0.1246 -0.0124 -0.1873
 2436SOL    HW1 7364   4.471   4.915   4.042 -0.0003 -0.0498 -0.2958
 2436SOL    HW2 7365   4.528   4.775   4.033  0.6359  0.1862 -0.0001
 2437SOL     OW 7366   2.221   3.628   4.822 -0.3077 -0.1039  0.2897
 2437SOL    HW1 7367   2.165   3.633   4.899  1.2973  0.2606  1.4648
 2437SOL    HW2 7368   2.236   3.720   4.797 -0.3293 -0.2047 -0.1119
 2438SOL     OW 7369   3.142   3.842   1.253  0.3568 -0.7690 -0.2197
 2438SOL    HW1 7370   3.054   3.874   1.274  0.1396 -1.1887 -0.4692
 2438SOL    HW2 7371   3.199   3.885   1.317 -0.2023 -1.5065  0.7949
 2439SOL     OW 7372   2.949   1.037   0.724  0.4868  0.2638  0.1062
 2439SOL    HW1 7373   2.939   1.106   0.657  0.2338  0.5676  0.4538
 2439SOL    HW2 7374   2.919   0.957   0.681  0.5760  0.4091 -0.2304
 2440SOL     OW 7375   3.035   3.852   2.195  0.0912 -0.1261 -0.7546
 2440SOL    HW1 7376   2.961   3.906   2.168  0.0477  0.1832 -0.0133
 2440SOL    HW2 7377   3.012   3.764   2.165 -1.2948 -0.3300  0.7893
 2441SOL     OW 7378   2.556   1.445   2.598  0.3993 -0.1245 -0.4644
 2441SOL    HW1 7379   2.545   1.429   2.692  0.1146  0.0870 -0.4582
 2441SOL    HW2 7380   2.553   1.541   2.590  0.3673 -0.1436 -0.6949
 2442SOL     OW 7381   0.569   1.568   2.925 -0.3745 -0.2157 -0.1336
 2442SOL    HW1 7382   0.525   1.586   2.842 -1.5419  0.7092  0.6589
 2442SOL    HW2 7383   0.516   1.613   2.990  0.4893 -0.9849  1.1311
 2443SOL     OW 7384   4.258   0.287   2.873  0.1914 -0.2460 -0.0265
 2443SOL    HW1 7385   4.201   0.221   2.911  1.0107 -0.8523  0.1782
 2443SOL    HW2 7386   4.317   0.239   2.814  0.9307  0.2546  0.2768
 2444SOL     OW 7387   3.717   4.793   0.642  0.3193  0.0679  0.1881
 2444SOL    HW1 7388   3.791   4.831   0.595 -0.8159 -1.0654 -2.7990
 2444SOL    HW2 7389   3.642   4.808   0.584 -1.1833 -1.6512  1.5690
 2445SOL     OW 7390   4.964   1.880   3.592  0.1238 -0.0658 -0.6609
 2445SOL    HW1 7391   4.908   1.866   3.515 -1.9294 -1.5120  1.0062
 2445SOL    HW2 7392   4.911   1.932   3.651  0.8294 -0.8287  0.6818
 2446SOL     OW 7393   0.497   1.171   0.463 -0.1903 -0.1702 -0.0193
 2446SOL    HW1 7394   0.446   1.095   0.435 -1.3084  1.4813 -2.9261
 2446SOL    HW2 7395   0.470   1.241   0.404  1.0429  2.4350  2.2868
 2447SOL     OW 7396   3.981   0.455   1.287  0.2181  0.3834 -0.4143
 2447SOL    HW1 7397   3.912   0.391   1.304  0.0507  0.6277 -0.1722
 2447SOL    HW2 7398   4.063   0.407   1.302  0.1155 -0.0124 -1.0716
 2448SOL     OW 7399   4.924   1.029   1.062  0.3033 -0.5103  0.1176
 2448SOL    HW1 7400   4.907   1.076   1.144  2.2463 -0.4023  0.5148
 2448SOL    HW2 7401   4.980   0.956   1.087  2.5020  0.5786 -1.2906
 2449SOL     OW 7402   0.334   1.371   0.322  0.0431 -0.4106 -0.0057
 2449SOL    HW1 7403   0.282   1.451   0.319  0.4156 -0.1588  0.1882
 2449SOL    HW2 7404   0.270   1.300   0.320 -0.3444 -0.1000  0.8676
 2450SOL     OW 7405   1.824   2.938   1.785 -0.1004  0.2404  0.1062
 2450SOL    HW1 7406   1.798   2.866   1.843 -0.7932  1.2833  1.1271
 2450SOL    HW2 7407   1.914   2.916   1.759 -0.9386 -1.9904 -1.2015
 2451SOL     OW 7408   3.608   4.412   3.626 -0.0416  0.3359  0.0548
 2451SOL    HW1 7409   3.676   4.469   3.592 -0.5793  0.8205 -0.2241
 2451SOL    HW2 7410   3.632   4.396   3.717  1.2939 -0.7924 -0.4585
 2452SOL     OW 7411   2.734   4.566   3.496 -0.0562 -0.3606  0.3363
 2452SOL    HW1 7412   2.798   4.496   3.512 -1.0017 -1.1540  0.6881
 2452SOL    HW2 7413   2.785   4.647   3.504  0.8977 -0.9776  0.6515
 2453SOL     OW 7414   2.016   2.566   3.353 -0.3079 -0.4332  0.5472
 2453SOL    HW1 7415   2.105   2.549   3.382 -0.8007 -1.3503  1.5900
 2453SOL    HW2 7416   2.004   2.660   3.364  0.8118 -0.1374 -0.4886
 2454SOL     OW 7417   4.212   2.457   2.913  0.2038  0.5238  0.1160
 2454SOL    HW1 7418   4.171   2.488   2.833  1.1214  0.0776 -0.5411
 2454SOL    HW2 7419   4.222   2.363   2.900 -0.2551  0.3358  1.0409
 2455SOL     OW 7420   0.829   1.109   4.107 -0.1012  0.7143  0.8548
 2455SOL    HW1 7421   0.813   1.091   4.199 -0.3129 -0.1114  0.6645
 2455SOL    HW2 7422   0.751   1.156   4.078  0.1025  1.2519  1.1654
 2456SOL     OW 7423   3.981   3.890   3.617 -0.1251  0.0615  0.2209
 2456SOL    HW1 7424   4.050   3.832   3.650  2.2378  1.3695 -2.0477
 2456SOL    HW2 7425   3.952   3.849   3.535  0.7048  1.3743 -0.7710
 2457SOL     OW 7426   4.409   4.822   4.577 -0.1529  0.0848 -0.3201
 2457SOL    HW1 7427   4.477   4.826   4.509  1.4486  0.8035  1.2547
 2457SOL    HW2 7428   4.422   4.901   4.629 -1.5147 -0.3110  0.6986
 2458SOL     OW 7429   0.324   4.129   4.814  0.2851  0.0565  0.5561
 2458SOL    HW1 7430   0.413   4.116   4.845  0.2685 -1.4571  0.0748
 2458SOL    HW2 7431   0.283   4.043   4.823 -0.5476  0.2592 -0.9699
 2459SOL     OW 7432   2.332   2.325   0.075 -0.5500 -0.2729 -0.4438
 2459SOL    HW1 7433   2.368   2.373   0.149  0.4789 -3.0047  0.9599
 2459SOL    HW2 7434   2.248   2.292   0.106 -1.7130  1.3070 -1.7319
 2460SOL     OW 7435   4.442   2.419   4.438 -0.2999 -0.0163  0.4984
 2460SOL    HW1 7436   4.441   2.507   4.401  0.5577  0.5742  1.8127
 2460SOL    HW2 7437   4.402   2.364   4.370 -0.9121  1.3832 -0.3123
 2461SOL     OW 7438   2.880   1.325   3.013 -0.4670  0.0247 -0.4860
 2461SOL    HW1 7439   2.964   1.285   2.993 -1.0075 -0.0694 -2.7671
 2461SOL    HW2 7440   2.897   1.419   3.010 -0.2747  0.0085 -0.0586
 2462SOL     OW 7441   0.444   3.130   1.704  0.0588  0.1087 -0.0738
 2462SOL    HW1 7442   0.486   3.093   1.627 -1.7693 -0.5877 -0.7887
 2462SOL    HW2 7443   0.382   3.195   1.669 -1.0748 -0.4877  0.7535
 2463SOL     OW 7444   2.001   0.053   3.440 -0.0739 -0.5264  0.6334
 2463SOL    HW1 7445   2.044   0.110   3.504 -0.6443 -0.2708  0.7973
 2463SOL    HW2 7446   1.920   0.026   3.483  0.2862 -1.6372  0.6378
 2464SOL     OW 7447   4.751   2.666   2.863  0.5300 -0.2929  0.0635
 2464SOL    HW1 7448   4.747   2.574   2.837  0.6650  0.3242 -2.4993
 2464SOL    HW2 7449   4.708   2.712   2.791 -0.7496  1.5875  1.9254
 2465SOL     OW 7450   2.331   4.573   3.174  0.1138 -0.1908  0.0360
 2465SOL    HW1 7451   2.303   4.511   3.107  1.0098  1.6695 -2.2253
 2465SOL    HW2 7452   2.411   4.612   3.138  0.6490  0.8964  2.2281
 2466SOL     OW 7453   2.933   4.334   3.070  0.0823 -0.5111 -0.3393
 2466SOL    HW1 7454   2.980   4.308   3.150  2.5171 -0.1175 -1.5273
 2466SOL    HW2 7455   2.855   4.278   3.069  0.0056 -0.6082  2.2237
 2467SOL     OW 7456   2.929   3.048   1.108 -0.0315 -0.4010  0.6820
 2467SOL    HW1 7457   2.834   3.059   1.114  0.1266  1.8194  0.1155
 2467SOL    HW2 7458   2.942   2.999   1.027 -0.6638  0.8601 -0.2329
 2468SOL     OW 7459   2.015   1.700   3.377  0.0791 -0.2156  0.2230
 2468SOL    HW1 7460   2.034   1.760   3.449  0.8159 -0.0157 -0.1295
 2468SOL    HW2 7461   2.052   1.616   3.406  1.0497  0.0403 -0.2236
 2469SOL     OW 7462   3.545   0.180   3.198  0.5894  0.0419 -0.2514
 2469SOL    HW1 7463   3.511   0.143   3.117 -0.8094  0.7081 -0.0056
 2469SOL    HW2 7464   3.560   0.273   3.178 -0.1977  0.3132  0.3575
 2470SOL     OW 7465   4.104   0.620   0.706  0.0841 -0.1157 -0.2679
 2470SOL    HW1 7466   4.145   0.617   0.792 -0.5562  0.4668  0.0709
 2470SOL    HW2 7467   4.036   0.687   0.714  1.9580  2.1671 -2.0678
 2471SOL     OW 7468   1.784   4.495   1.915  0.0983  0.5354  0.2657
 2471SOL    HW1 7469   1.758   4.515   2.005  0.9662  2.3484  0.1528
 2471SOL    HW2 7470   1.803   4.580   1.876  2.0081 -0.3603 -0.9159
 2472SOL     OW 7471   0.061   3.054   4.964 -0.2857  0.7699  0.3885
 2472SOL    HW1 7472  -0.027   3.045   5.002  0.3219 -0.7267  1.5232
 2472SOL    HW2 7473   0.085   2.966   4.936  1.6426  0.7194  1.9736
 2473SOL     OW 7474   3.907   1.571   2.986  0.3843 -0.3916 -0.0920
 2473SOL    HW1 7475   3.854   1.493   2.974  0.2319 -0.4075  0.5972
 2473SOL    HW2 7476   3.850   1.632   3.034 -0.4042  1.1434 -2.7398
 2474SOL     OW 7477   3.329   3.100   4.644 -0.2288  0.0774  0.0029
 2474SOL    HW1 7478   3.385   3.064   4.576  0.2608 -0.1213  0.5008
 2474SOL    HW2 7479   3.383   3.097   4.724 -0.7557  0.3864  0.3795
 2475SOL     OW 7480   1.193   1.520   0.665 -0.3726  0.1144 -0.0278
 2475SOL    HW1 7481   1.252   1.462   0.714 -2.1188 -2.5118 -0.8183
 2475SOL    HW2 7482   1.135   1.557   0.732 -0.4197 -0.5421  0.2993
 2476SOL     OW 7483   4.540   0.331   4.736 -0.0532  0.4362 -0.2060
 2476SOL    HW1 7484   4.525   0.422   4.762 -0.4391  1.2526 -2.9312
 2476SOL    HW2 7485   4.635   0.324   4.729 -0.0121  0.5762  0.1746
 2477SOL     OW 7486   3.037   0.689   1.400 -0.0341 -0.1644  0.3470
 2477SOL    HW1 7487   2.971   0.629   1.364 -0.2857  0.3642 -0.0906
 2477SOL    HW2 7488   3.121   0.650   1.375 -0.2024  0.5741 -1.5034
 2478SOL     OW 7489   1.425   0.166   2.473  0.2039 -0.7048  0.4181
 2478SOL    HW1 7490   1.482   0.189   2.546  0.5104 -0.4463  0.1058
 2478SOL    HW2 7491   1.485   0.152   2.400  0.0010 -2.2440  0.5258
 2479SOL     OW 7492   1.998   1.505   2.001 -0.3339  0.3283 -0.0253
 2479SOL    HW1 7493   1.958   1.462   1.925  1.1032 -0.5079 -0.3409
 2479SOL    HW2 7494   2.075   1.452   2.021  1.3753  2.5828 -0.2533
 2480SOL     OW 7495   3.918   0.409   2.493 -0.7326  0.7754 -0.2014
 2480SOL    HW1 7496   3.858   0.481   2.475 -0.4231  1.1508  0.2639
 2480SOL    HW2 7497   3.948   0.380   2.406 -1.3127  0.8096 -0.4192
 2481SOL     OW 7498   4.632   4.126   3.537 -0.1693  0.0506 -0.1248
 2481SOL    HW1 7499   4.633   4.064   3.610  0.3668  0.4647  0.2283
 2481SOL    HW2 7500   4.555   4.180   3.553 -0.7776 -0.6630 -0.5638
 2482SOL     OW 7501   3.196   4.823   1.663  0.6055  0.4503 -0.1177
 2482SOL    HW1 7502   3.120   4.880   1.676  0.2643 -0.1024  0.3936
 2482SOL    HW2 7503   3.262   4.857   1.723  0.9316  1.2178 -0.8999
 2483SOL     OW 7504   4.782   3.125   1.315 -0.0401 -0.0993  0.6429
 2483SOL    HW1 7505   4.817   3.061   1.377  0.1277  0.1337  0.7896
 2483SOL    HW2 7506   4.808   3.210   1.351 -2.5812  0.2286  1.9372
 2484SOL     OW 7507   2.197   1.335   2.071  0.4208  0.0649  0.5898
 2484SOL    HW1 7508   2.212   1.299   1.984  0.8029 -0.2448  0.7782
 2484SOL    HW2 7509   2.284   1.345   2.109  0.3026  0.9783  0.6319
 2485SOL     OW 7510   3.288   4.404   0.214 -0.6752  0.2724 -0.3002
 2485SOL    HW1 7511   3.269   4.493   0.184 -0.1998  0.1136 -1.0844
 2485SOL    HW2 7512   3.277   4.349   0.136 -0.9893 -0.3642  0.1817
 2486SOL     OW 7513   2.250   1.994   1.483  0.3353  0.7085 -0.1284
 2486SOL    HW1 7514   2.196   2.063   1.444  1.3546  1.3674 -0.4172
 2486SOL    HW2 7515   2.291   1.951   1.408 -1.2485 -1.0863 -0.0507
 2487SOL     OW 7516   3.439   4.910   4.579  0.4077  0.0070  0.4610
 2487SOL    HW1 7517   3.419   4.919   4.486  1.4687  1.6021  0.3533
 2487SOL    HW2 7518   3.354   4.916   4.623 -0.0279 -0.0196 -0.3584
 2488SOL     OW 7519   3.142   1.567   2.705  0.1978  0.5365 -0.0211
 2488SOL    HW1 7520   3.052   1.580   2.675  0.3102  0.8919 -0.2150
 2488SOL    HW2 7521   3.155   1.637   2.770  0.1801  0.1945  0.3536
 2489SOL     OW 7522   3.242   2.510   0.094 -0.6608 -0.2851  0.1412
 2489SOL    HW1 7523   3.312   2.472   0.147 -0.2137  1.7104  1.0698
 2489SOL    HW2 7524   3.166   2.454   0.111  0.1192 -1.1340  0.9172
 2490SOL     OW 7525   1.002   3.261   0.210  0.0067  0.3936 -0.0953
 2490SOL    HW1 7526   0.946   3.333   0.238 -0.2481  0.0920  0.1821
 2490SOL    HW2 7527   0.944   3.203   0.161 -0.2508 -0.5851  1.3118
 2491SOL     OW 7528   0.543   3.459   4.858 -0.7848 -0.6171  0.9157
 2491SOL    HW1 7529   0.543   3.366   4.833 -1.6923 -1.1315  2.6871
 2491SOL    HW2 7530   0.466   3.496   4.814  0.0903 -0.4514 -0.5379
 2492SOL     OW 7531   0.466   4.101   3.752  0.0686 -0.0849  0.3821
 2492SOL    HW1 7532   0.414   4.170   3.793  1.8157  1.4810  0.1104
 2492SOL    HW2 7533   0.437   4.098   3.661 -0.1889  0.1097  0.4602
 2493SOL     OW 7534   3.045   1.241   0.198  0.0094  0.3824  0.3087
 2493SOL    HW1 7535   3.123   1.187   0.186  0.1072  0.5645  0.1318
 2493SOL    HW2 7536   3.074   1.330   0.180 -0.2244  0.4581  0.3042
 2494SOL     OW 7537   3.813   1.440   3.453  0.0025 -0.1032  0.1950
 2494SOL    HW1 7538   3.841   1.486   3.374  1.4032 -1.6001 -0.2364
 2494SOL    HW2 7539   3.717   1.440   3.448  0.0439  0.8035 -0.9191
 2495SOL     OW 7540   2.594   3.433   1.119  0.7334  0.6698  0.1964
 2495SOL    HW1 7541   2.605   3.519   1.159  2.4739 -0.1193  1.5470
 2495SOL    HW2 7542   2.613   3.447   1.026  0.6515  1.7795  0.3281
 2496SOL     OW 7543   2.376   0.248   1.577 -0.0622 -0.9352  0.5226
 2496SOL    HW1 7544   2.429   0.290   1.646 -0.3941  1.3827 -0.5403
 2496SOL    HW2 7545   2.440   0.202   1.523  0.6291  0.0007  0.5145
 2497SOL     OW 7546   2.344   0.226   3.113 -0.8425 -0.0700  0.4356
 2497SOL    HW1 7547   2.428   0.260   3.082 -0.5793  0.4833  1.6848
 2497SOL    HW2 7548   2.305   0.186   3.036 -0.1785  1.1415 -0.5746
 2498SOL     OW 7549   4.758   2.299   4.925  0.5794  0.0018 -0.1713
 2498SOL    HW1 7550   4.830   2.356   4.953  0.0422 -0.1679  1.6832
 2498SOL    HW2 7551   4.765   2.296   4.829  1.5535  1.9315 -0.2008
 2499SOL     OW 7552   2.688   3.544   3.220  0.0365  0.5099  0.0820
 2499SOL    HW1 7553   2.652   3.579   3.138 -1.8416 -0.3524  0.4926
 2499SOL    HW2 7554   2.660   3.606   3.287 -0.8215 -0.2402  0.4264
 2500SOL     OW 7555   0.331   1.036   2.846  0.0102  0.4481 -0.2118
 2500SOL    HW1 7556   0.369   0.954   2.815 -0.5765  1.3019 -3.5419
 2500SOL    HW2 7557   0.395   1.070   2.908  1.0055 -1.7531  0.0579
 2501SOL     OW 7558   3.641   4.347   1.419  0.1372  0.3495 -0.1950
 2501SOL    HW1 7559   3.580   4.274   1.414 -1.3333  1.3787  1.4110
 2501SOL    HW2 7560   3.591   4.423   1.389  0.8680  1.0708  0.3503
 2502SOL     OW 7561   3.114   3.327   0.866  0.1661 -0.8937 -0.0623
 2502SOL    HW1 7562   3.082   3.372   0.944 -0.1320 -0.4073 -0.4570
 2502SOL    HW2 7563   3.038   3.279   0.834 -0.1534  0.1359 -0.9127
 2503SOL     OW 7564   3.245   2.399   1.318 -0.2823  0.8244 -0.1960
 2503SOL    HW1 7565   3.273   2.353   1.397 -0.9482 -0.3493 -0.6330
 2503SOL    HW2 7566   3.267   2.341   1.246 -1.8071  0.8418 -0.7059
 2504SOL     OW 7567   4.139   1.412   2.970  0.2211  0.5030 -0.2024
 2504SOL    HW1 7568   4.083   1.485   2.995 -1.7090 -1.1410  0.5556
 2504SOL    HW2 7569   4.106   1.385   2.884 -0.7586 -0.9513  0.5760
 2505SOL     OW 7570   4.403   4.264   2.706 -0.4665  0.1677  0.1423
 2505SOL    HW1 7571   4.348   4.313   2.767  0.2959 -0.4451  1.3769
 2505SOL    HW2 7572   4.395   4.173   2.735 -0.3306 -0.1856 -0.8865
 2506SOL     OW 7573   3.907   0.339   2.223  0.2176  0.3424 -0.6420
 2506SOL    HW1 7574   3.830   0.288   2.245  0.7561 -0.7169 -1.1316
 2506SOL    HW2 7575   3.959   0.281   2.167  2.5346  0.0641  1.6059
 2507SOL     OW 7576   3.606   4.825   0.344  0.0670  0.4472  0.0702
 2507SOL    HW1 7577   3.526   4.773   0.336  0.6878 -0.3386 -1.6716
 2507SOL    HW2 7578   3.579   4.905   0.388 -1.2894 -0.5751  1.1886
 2508SOL     OW 7579   4.574   0.245   4.229 -0.2526  0.5310 -0.2207
 2508SOL    HW1 7580   4.574   0.248   4.134  1.5700  2.2408 -0.2250
 2508SOL    HW2 7581   4.646   0.184   4.250 -0.1465  0.7480  0.0479
 2509SOL     OW 7582   3.946   1.362   2.423 -0.2461 -0.2128  0.0758
 2509SOL    HW1 7583   3.880   1.326   2.364 -0.2056  0.6808 -0.5340
 2509SOL    HW2 7584   3.904   1.439   2.461 -0.6514 -1.2945  2.0127
 2510SOL     OW 7585   4.443   4.373   1.794 -0.0650 -0.0136 -0.1771
 2510SOL    HW1 7586   4.474   4.454   1.833  0.5417 -0.5120  0.4107
 2510SOL    HW2 7587   4.506   4.307   1.824 -0.8466 -0.7888 -0.1965
 2511SOL     OW 7588   0.130   3.218   4.233 -0.0629 -0.1674 -0.4539
 2511SOL    HW1 7589   0.206   3.232   4.175  0.1182 -0.0824 -0.1985
 2511SOL    HW2 7590   0.109   3.125   4.224 -0.8427  0.0971 -1.6444
 2512SOL     OW 7591  -0.024   0.307   1.871  0.1425  0.0793 -0.3960
 2512SOL    HW1 7592   0.020   0.383   1.834 -2.1773  2.3765  1.1630
 2512SOL    HW2 7593   0.034   0.277   1.941  0.5606  1.2074 -0.2358
 2513SOL     OW 7594   3.793   4.222   0.923  0.2732  0.4071 -0.0133
 2513SOL    HW1 7595   3.728   4.204   0.856  0.1942  1.7834 -0.3344
 2513SOL    HW2 7596   3.747   4.273   0.989  0.6523  0.0865  0.5129
 2514SOL     OW 7597   0.511   3.164   2.919  0.3412 -0.3167  0.4150
 2514SOL    HW1 7598   0.518   3.076   2.882 -0.9205 -1.3446  2.3946
 2514SOL    HW2 7599   0.597   3.203   2.907  0.9940 -1.9127 -0.3029
 2515SOL     OW 7600   0.697   1.863   1.317 -0.1667  0.3095  0.2771
 2515SOL    HW1 7601   0.776   1.909   1.345  0.1410  0.8837 -1.4306
 2515SOL    HW2 7602   0.626   1.902   1.368  0.4727  0.6868  0.8845
 2516SOL     OW 7603   3.119   2.585   0.340  0.0535 -0.1505  0.3452
 2516SOL    HW1 7604   3.024   2.584   0.336 -0.0183  1.1305  1.3769
 2516SOL    HW2 7605   3.147   2.593   0.249 -0.7570 -2.0262 -0.1248
 2517SOL     OW 7606   2.456   3.454   4.622 -0.4240 -0.4336  0.2244
 2517SOL    HW1 7607   2.361   3.455   4.614 -0.3359 -0.4905 -1.0162
 2517SOL    HW2 7608   2.481   3.546   4.625 -0.4245 -0.3657 -1.0741
 2518SOL     OW 7609   0.095   0.995   2.986  0.8294  0.4995 -0.2471
 2518SOL    HW1 7610   0.068   1.082   3.013 -0.4537  0.0816 -0.1247
 2518SOL    HW2 7611   0.179   1.008   2.943  0.5655  1.8120 -0.3922
 2519SOL     OW 7612   0.975   2.056   3.947  0.4166  0.2288  0.0749
 2519SOL    HW1 7613   0.973   1.970   3.905  0.3351  0.0031  0.5380
 2519SOL    HW2 7614   1.034   2.045   4.021 -0.9701  0.0834  1.1813
 2520SOL     OW 7615   0.481   0.288   4.745 -0.6236 -0.0207  0.1063
 2520SOL    HW1 7616   0.494   0.194   4.758 -1.9855 -0.2995 -0.3788
 2520SOL    HW2 7617   0.524   0.306   4.662 -1.8462 -0.6042 -0.6892
 2521SOL     OW 7618   4.148   4.937   0.534  0.1227 -0.0847  0.5688
 2521SOL    HW1 7619   4.139   4.864   0.473 -0.0477  0.8914 -0.6137
 2521SOL    HW2 7620   4.146   5.015   0.479 -1.8833  0.9495  1.9424
 2522SOL     OW 7621   4.046   4.063   2.830  0.0165 -0.1946  0.1009
 2522SOL    HW1 7622   3.991   4.133   2.794  0.6328  0.5119  0.5123
 2522SOL    HW2 7623   4.123   4.062   2.773 -0.5831 -1.4655 -0.7287
 2523SOL     OW 7624   1.253   0.665   1.389  0.1311  0.3282  0.0165
 2523SOL    HW1 7625   1.210   0.712   1.461 -0.8027  0.3727 -0.5510
 2523SOL    HW2 7626   1.181   0.635   1.334  0.8191 -0.0141 -0.7145
 2524SOL     OW 7627   3.228   4.467   2.851  0.1391  0.4945  0.1847
 2524SOL    HW1 7628   3.313   4.472   2.895  1.0706  1.3877 -1.6136
 2524SOL    HW2 7629   3.196   4.557   2.849  0.3247  0.5499 -1.3007
 2525SOL     OW 7630   3.838   3.259   4.263 -0.4338 -0.3177  0.4297
 2525SOL    HW1 7631   3.833   3.271   4.358 -1.9842 -3.3862  0.8634
 2525SOL    HW2 7632   3.754   3.291   4.231 -0.2410 -0.0593  0.1761
 2526SOL     OW 7633   0.390   4.315   2.321  0.0502  0.5013  0.0950
 2526SOL    HW1 7634   0.467   4.259   2.333 -0.5143 -0.3672 -0.1599
 2526SOL    HW2 7635   0.417   4.402   2.349  2.4057  1.1924 -3.5723
 2527SOL     OW 7636   2.874   3.880   1.328  0.4128  0.1633  0.8175
 2527SOL    HW1 7637   2.829   3.948   1.378 -2.0661  0.8686 -2.0695
 2527SOL    HW2 7638   2.815   3.805   1.330  1.0338 -0.3516  0.3163
 2528SOL     OW 7639   1.688   4.428   3.070 -0.1861  0.3529  0.4446
 2528SOL    HW1 7640   1.718   4.358   3.013  0.7130  1.7554 -0.8928
 2528SOL    HW2 7641   1.594   4.435   3.054 -0.0375  0.3520 -0.4630
 2529SOL     OW 7642   1.263   0.860   4.424 -0.6601  0.0235  0.3539
 2529SOL    HW1 7643   1.207   0.881   4.499 -2.9862 -1.2605 -0.9036
 2529SOL    HW2 7644   1.331   0.802   4.460 -0.6834  0.8010  1.7442
 2530SOL     OW 7645   2.034   0.069   0.619  0.0773  0.5596  0.2076
 2530SOL    HW1 7646   2.106   0.077   0.682  1.4288  0.2158 -1.2251
 2530SOL    HW2 7647   2.046   0.144   0.560 -0.0294 -0.1232 -0.7105
 2531SOL     OW 7648   2.211   4.259   3.798  0.2853 -0.1599 -0.5791
 2531SOL    HW1 7649   2.125   4.297   3.777  0.0050 -0.3417  0.2040
 2531SOL    HW2 7650   2.191   4.184   3.853  0.9192 -0.6146 -0.9625
 2532SOL     OW 7651   1.889   3.650   2.775  0.0224 -0.2856 -0.1076
 2532SOL    HW1 7652   1.870   3.563   2.740 -1.2394  0.5438 -1.6251
 2532SOL    HW2 7653   1.858   3.710   2.707 -0.2621  1.3856  1.4335
 2533SOL     OW 7654   2.123   1.597   4.695  0.7073 -0.1676 -0.0264
 2533SOL    HW1 7655   2.122   1.599   4.790 -0.5610  3.1169  0.0084
 2533SOL    HW2 7656   2.209   1.561   4.673  2.1016  1.3707  2.4289
 2534SOL     OW 7657   4.813   1.698   4.899 -0.1524 -0.0942 -0.1854
 2534SOL    HW1 7658   4.823   1.672   4.991  2.0402 -0.7809 -0.5754
 2534SOL    HW2 7659   4.759   1.777   4.903 -0.0460 -0.0687  1.7058
 2535SOL     OW 7660   4.359   4.373   4.051  0.4462 -0.0312 -0.0133
 2535SOL    HW1 7661   4.414   4.383   3.973  0.8743  0.6151  0.3592
 2535SOL    HW2 7662   4.365   4.280   4.073 -0.3161 -0.3894 -1.2002
 2536SOL     OW 7663   0.762   2.297   1.855 -0.0862 -0.1945  0.3948
 2536SOL    HW1 7664   0.699   2.277   1.785  0.2736  0.0099  0.0083
 2536SOL    HW2 7665   0.841   2.324   1.809  0.1390 -0.0044  0.8870
 2537SOL     OW 7666   1.485   2.608   1.312  0.2206 -0.7573 -0.1512
 2537SOL    HW1 7667   1.423   2.576   1.378  0.2054 -1.6347 -0.5749
 2537SOL    HW2 7668   1.564   2.629   1.361  0.1824 -1.3226  0.1610
 2538SOL     OW 7669   0.153   4.052   1.221  0.3427 -0.1287 -0.1241
 2538SOL    HW1 7670   0.223   3.987   1.218 -1.1316 -1.8031 -0.2175
 2538SOL    HW2 7671   0.143   4.071   1.314  1.8919  1.3008 -0.2029
 2539SOL     OW 7672   2.400   1.746   4.801  0.3798 -0.1307  0.2955
 2539SOL    HW1 7673   2.319   1.796   4.793  0.3437 -0.2153  0.1235
 2539SOL    HW2 7674   2.444   1.759   4.717 -0.1115 -1.2220 -0.1477
 2540SOL     OW 7675   3.267   4.040   1.401  0.0278  0.6470 -0.2325
 2540SOL    HW1 7676   3.359   4.047   1.426 -0.3437  2.2693  0.8616
 2540SOL    HW2 7677   3.223   4.105   1.455 -1.9330 -0.7805 -0.0163
 2541SOL     OW 7678   3.918   1.929   2.511  0.0615  0.5016 -0.4097
 2541SOL    HW1 7679   3.967   1.849   2.530  0.0011  0.3466 -0.8966
 2541SOL    HW2 7680   3.893   1.963   2.597 -1.4741 -0.9836 -0.2080
 2542SOL     OW 7681   4.163   3.561   3.541  0.2471 -0.2280  0.5665
 2542SOL    HW1 7682   4.167   3.576   3.635 -2.6491 -0.1412  0.7652
 2542SOL    HW2 7683   4.103   3.487   3.531  0.7440 -0.4306 -1.2149
 2543SOL     OW 7684   2.877   1.354   4.553 -0.1984  0.1142  0.1419
 2543SOL    HW1 7685   2.838   1.286   4.499  0.0580  0.7166 -0.8262
 2543SOL    HW2 7686   2.804   1.409   4.581 -0.7059 -1.6605  2.6356
 2544SOL     OW 7687   3.441   2.407   3.101 -0.4733 -0.8787 -0.2370
 2544SOL    HW1 7688   3.348   2.423   3.081 -0.2805 -0.3802 -0.7743
 2544SOL    HW2 7689   3.473   2.355   3.027 -0.0917 -0.1947 -0.5727
 2545SOL     OW 7690   3.562   4.917   4.329  0.1190 -0.2696  0.7126
 2545SOL    HW1 7691   3.647   4.940   4.293 -1.7446  2.0023 -2.6901
 2545SOL    HW2 7692   3.536   4.993   4.382 -1.5921  1.1841 -2.0064
 2546SOL     OW 7693   0.054   2.540   0.395 -0.1606 -0.6926 -0.0930
 2546SOL    HW1 7694   0.009   2.580   0.469 -0.1821  0.1227 -0.5452
 2546SOL    HW2 7695  -0.014   2.489   0.350 -1.3862  2.5808 -2.2911
 2547SOL     OW 7696   3.355   4.054   2.919 -0.1417 -0.2265 -0.2566
 2547SOL    HW1 7697   3.310   3.997   2.857 -1.1243  2.5789 -2.3111
 2547SOL    HW2 7698   3.316   4.033   3.004  0.0849 -3.0357 -0.7526
 2548SOL     OW 7699   3.433   0.656   4.415  0.4066  0.8766 -0.8148
 2548SOL    HW1 7700   3.528   0.647   4.422  0.3199  0.8225  0.5925
 2548SOL    HW2 7701   3.399   0.613   4.493 -0.7558  1.1759 -1.1403
 2549SOL     OW 7702   4.552   0.535   3.232 -0.6922 -0.0326  0.8282
 2549SOL    HW1 7703   4.541   0.468   3.165 -1.1462 -1.0367  1.8835
 2549SOL    HW2 7704   4.640   0.520   3.267 -1.0469 -0.5438  1.5350
 2550SOL     OW 7705   2.108   3.011   0.629  0.0977  0.2628  0.0735
 2550SOL    HW1 7706   2.058   2.995   0.549 -1.0566  2.2427  0.3245
 2550SOL    HW2 7707   2.187   3.056   0.600  0.4210 -0.4093 -0.0884
 2551SOL     OW 7708   2.889   4.890   0.175  0.0966 -0.0979 -0.0431
 2551SOL    HW1 7709   2.940   4.945   0.234 -0.0908  0.8275 -0.7073
 2551SOL    HW2 7710   2.880   4.806   0.220  1.5145 -0.0096  0.4279
 2552SOL     OW 7711   0.816   0.491   1.289 -0.2146 -0.4217 -0.0384
 2552SOL    HW1 7712   0.776   0.404   1.279 -0.4743 -0.3452  0.3201
 2552SOL    HW2 7713   0.784   0.522   1.373  2.4099 -1.2974  1.4054
 2553SOL     OW 7714   4.724   1.472   1.267  0.4744 -0.1241  0.1913
 2553SOL    HW1 7715   4.713   1.560   1.304 -1.9970  0.2350 -1.1696
 2553SOL    HW2 7716   4.643   1.426   1.290  1.6625 -2.0462  0.7530
 2554SOL     OW 7717   3.798   3.837   1.934 -0.4985 -0.1888 -0.1708
 2554SOL    HW1 7718   3.765   3.750   1.960 -0.7122 -0.4731 -1.3560
 2554SOL    HW2 7719   3.735   3.868   1.869 -0.2934  0.7620  0.0707
 2555SOL     OW 7720   3.092   1.703   0.941 -0.2812 -0.1734 -0.0881
 2555SOL    HW1 7721   3.072   1.735   1.028  0.1106  4.1749 -1.3946
 2555SOL    HW2 7722   3.188   1.706   0.935 -0.3630  0.9904 -1.0975
 2556SOL     OW 7723   1.907   3.304   3.417  0.5528 -0.3083  0.2366
 2556SOL    HW1 7724   1.856   3.271   3.344 -0.4267  0.5731  0.4917
 2556SOL    HW2 7725   1.933   3.392   3.390 -1.1840  0.6772  1.5217
 2557SOL     OW 7726   4.945   3.659   0.050  0.4028 -0.2367 -0.2332
 2557SOL    HW1 7727   4.987   3.738   0.083  3.5325 -1.6395 -0.5082
 2557SOL    HW2 7728   4.915   3.612   0.128 -0.0765  0.4901  0.0216
 2558SOL     OW 7729   3.268   0.668   4.184  0.1081 -0.1516  0.8244
 2558SOL    HW1 7730   3.344   0.667   4.243  1.6441 -0.5138 -1.0567
 2558SOL    HW2 7731   3.273   0.752   4.140 -0.8950  0.0180  1.0100
 2559SOL     OW 7732   4.657   2.308   4.192 -0.3173 -0.5762 -0.4728
 2559SOL    HW1 7733   4.645   2.268   4.278  1.1238 -1.0225 -0.4568
 2559SOL    HW2 7734   4.568   2.315   4.156 -0.9930  0.0415  1.2183
 2560SOL     OW 7735   3.983   3.908   2.401  0.3519  0.2133 -0.1322
 2560SOL    HW1 7736   3.986   3.968   2.475 -2.3499  0.7020 -0.3216
 2560SOL    HW2 7737   4.032   3.831   2.430  0.4088  0.8880  1.6781
 2561SOL     OW 7738   2.398   1.372   0.355  0.0928  0.1956 -0.1925
 2561SOL    HW1 7739   2.370   1.318   0.428  0.5327  1.0764  0.6590
 2561SOL    HW2 7740   2.494   1.364   0.355  0.1122  0.4064 -0.5038
 2562SOL     OW 7741   1.303   2.195   4.749  0.0534 -0.1146  0.2223
 2562SOL    HW1 7742   1.252   2.118   4.722  1.6778 -1.4941  0.8726
 2562SOL    HW2 7743   1.390   2.160   4.768  1.2613  2.1182 -0.7696
 2563SOL     OW 7744   3.811   3.397   2.000  0.3476 -0.3458  0.1806
 2563SOL    HW1 7745   3.799   3.308   2.033  1.6468 -0.5050  0.2807
 2563SOL    HW2 7746   3.886   3.390   1.942  0.7047  0.7637  0.4952
 2564SOL     OW 7747   3.635   2.421   0.431 -0.0978  0.9288 -0.5182
 2564SOL    HW1 7748   3.593   2.334   0.433  1.2784  0.1575  2.8453
 2564SOL    HW2 7749   3.572   2.478   0.475  0.5046  0.7182  0.6749
 2565SOL     OW 7750   2.740   3.555   3.676  0.3333 -0.0298  0.7492
 2565SOL    HW1 7751   2.657   3.512   3.697  0.3733 -1.1927 -1.1604
 2565SOL    HW2 7752   2.745   3.630   3.735 -1.3668 -0.7675  1.9007
 2566SOL     OW 7753   2.621   1.910   2.436  0.3215 -0.7902 -0.0114
 2566SOL    HW1 7754   2.625   1.995   2.479  1.0327 -0.9074  0.1653
 2566SOL    HW2 7755   2.713   1.886   2.421  0.1159 -0.6677 -1.7571
 2567SOL     OW 7756   4.833   3.932   1.497  0.0693 -0.3251 -0.0584
 2567SOL    HW1 7757   4.801   3.882   1.572 -0.9781 -0.4436 -0.5714
 2567SOL    HW2 7758   4.913   3.885   1.470  0.4869 -0.2487  0.9943
 2568SOL     OW 7759   1.595   4.571   3.393 -0.5921  0.1259 -0.2688
 2568SOL    HW1 7760   1.686   4.597   3.409 -0.3636 -1.0312  0.4307
 2568SOL    HW2 7761   1.552   4.582   3.477 -0.4475 -1.8420  0.0971
 2569SOL     OW 7762   4.553   3.187   2.911  0.3365  0.2850 -0.0192
 2569SOL    HW1 7763   4.610   3.142   2.974 -0.0902 -1.0346 -0.5449
 2569SOL    HW2 7764   4.464   3.173   2.945  0.2169  1.1658  0.0632
 2570SOL     OW 7765   4.308   3.751   0.287  0.3374  0.0227  0.1684
 2570SOL    HW1 7766   4.249   3.815   0.246  0.3280 -0.5951 -0.8335
 2570SOL    HW2 7767   4.379   3.741   0.224  2.4258  1.9676  2.0584
 2571SOL     OW 7768   0.235   2.298   3.063 -0.1549  0.0510 -0.2872
 2571SOL    HW1 7769   0.265   2.317   3.152  0.0191 -0.8960 -0.1346
 2571SOL    HW2 7770   0.290   2.227   3.033 -1.1927 -0.6565 -0.5897
 2572SOL     OW 7771   4.296   1.543   0.361  0.3419 -0.7742  0.6561
 2572SOL    HW1 7772   4.260   1.513   0.278  0.0116  0.2117  0.4347
 2572SOL    HW2 7773   4.322   1.462   0.406 -2.2722 -1.5660  0.9189
 2573SOL     OW 7774   4.294   3.145   0.649 -0.1524 -0.1505  0.0161
 2573SOL    HW1 7775   4.230   3.210   0.619 -0.0874  0.8846  1.9759
 2573SOL    HW2 7776   4.366   3.153   0.586 -1.0015  0.2117 -0.9490
 2574SOL     OW 7777   0.618   4.103   1.679  0.0276  0.3027  0.4357
 2574SOL    HW1 7778   0.541   4.107   1.736  0.7338  1.7854  1.3807
 2574SOL    HW2 7779   0.684   4.058   1.732 -0.2703 -1.3102 -0.5162
 2575SOL     OW 7780   4.729   2.091   1.619 -0.3270  0.5005  0.6367
 2575SOL    HW1 7781   4.751   2.010   1.571  1.9616  1.4173  0.0137
 2575SOL    HW2 7782   4.692   2.149   1.552  0.4659  0.8751  0.5180
 2576SOL     OW 7783   3.323   1.822   4.041  0.3191  0.0795 -0.0522
 2576SOL    HW1 7784   3.362   1.736   4.056 -0.0150 -0.1941 -0.7140
 2576SOL    HW2 7785   3.355   1.848   3.954  0.0450  0.4182 -0.0521
 2577SOL     OW 7786   0.635   4.937   2.680 -0.0526  0.5069 -0.0426
 2577SOL    HW1 7787   0.592   4.913   2.598  1.6484 -0.3593 -0.7217
 2577SOL    HW2 7788   0.623   4.861   2.737 -1.2110  1.0978  0.5351
 2578SOL     OW 7789   3.946   0.424   1.765  0.1885 -0.1642  0.1196
 2578SOL    HW1 7790   3.969   0.511   1.732 -1.1017  0.2573  0.2744
 2578SOL    HW2 7791   4.028   0.389   1.800  0.8796  0.6911 -0.6045
 2579SOL     OW 7792   2.292   0.294   3.858 -0.0135 -1.2471 -0.3232
 2579SOL    HW1 7793   2.349   0.279   3.782  0.0209 -1.8726 -0.1809
 2579SOL    HW2 7794   2.227   0.356   3.827 -0.3777 -1.9785 -1.0716
 2580SOL     OW 7795   2.876   2.909   0.895 -0.3683 -0.0417  0.1426
 2580SOL    HW1 7796   2.921   2.847   0.837 -2.2190 -2.2827  0.9632
 2580SOL    HW2 7797   2.785   2.908   0.866 -0.5959  1.7817  0.6688
 2581SOL     OW 7798   1.873   2.473   4.480 -0.0750 -0.0862 -0.0702
 2581SOL    HW1 7799   1.842   2.462   4.390 -1.9075 -1.0606  0.6296
 2581SOL    HW2 7800   1.818   2.542   4.516 -1.3556 -1.6417  1.1155
 2582SOL     OW 7801   0.792   0.372   2.060  0.4149 -0.6930  0.2638
 2582SOL    HW1 7802   0.861   0.428   2.096  0.1813 -0.1997 -0.0421
 2582SOL    HW2 7803   0.732   0.433   2.016  0.6575 -1.2754 -0.9072
 2583SOL     OW 7804   4.828   2.929   1.476  0.0877 -0.2670 -0.1794
 2583SOL    HW1 7805   4.818   2.834   1.482  0.5981 -0.3212 -0.1191
 2583SOL    HW2 7806   4.886   2.951   1.549  0.2157  0.0500 -0.3767
 2584SOL     OW 7807   3.624   3.953   1.198  0.1064 -0.4040  0.1185
 2584SOL    HW1 7808   3.559   3.889   1.228 -0.8142  0.1533 -0.6199
 2584SOL    HW2 7809   3.701   3.900   1.175 -0.3269 -1.1466  0.3246
 2585SOL     OW 7810   1.808   1.955   4.202  0.3397 -0.7013  0.2391
 2585SOL    HW1 7811   1.737   1.908   4.157 -1.4865  0.8218  1.3731
 2585SOL    HW2 7812   1.823   2.033   4.149  0.5453 -0.5723  0.4844
 2586SOL     OW 7813   3.028   3.097   2.849  0.0085 -0.2473  0.0565
 2586SOL    HW1 7814   2.986   3.028   2.799 -1.8913  1.9145 -1.5531
 2586SOL    HW2 7815   3.112   3.110   2.805  0.2650 -1.2906  0.2104
 2587SOL     OW 7816   4.939   2.099   0.104 -0.1875  0.1148  0.2234
 2587SOL    HW1 7817   4.856   2.075   0.145  0.1869 -0.3185  0.7420
 2587SOL    HW2 7818   5.005   2.086   0.172  0.1249  2.0280  0.3496
 2588SOL     OW 7819   3.325   0.266   2.064 -0.1467 -0.4845  0.0647
 2588SOL    HW1 7820   3.321   0.270   2.159 -1.7649  0.1762  0.0008
 2588SOL    HW2 7821   3.276   0.187   2.041  1.6058 -1.5544 -0.1889
 2589SOL     OW 7822   3.509   3.409   3.186 -0.2008  0.4220 -0.0996
 2589SOL    HW1 7823   3.522   3.441   3.097 -1.6590  0.5307 -0.2958
 2589SOL    HW2 7824   3.431   3.455   3.217 -0.0525 -0.0535  1.0242
 2590SOL     OW 7825   2.064   2.657   4.583 -0.0570 -0.7775  0.5040
 2590SOL    HW1 7826   1.972   2.632   4.590 -1.0434  1.9129 -1.1435
 2590SOL    HW2 7827   2.102   2.592   4.524 -1.4496 -0.7797 -0.4337
 2591SOL     OW 7828   3.125   4.505   1.908 -0.3161 -0.5276  0.4075
 2591SOL    HW1 7829   3.153   4.419   1.942 -1.4918 -1.6386 -1.2721
 2591SOL    HW2 7830   3.191   4.566   1.940  3.2636 -2.7043 -2.0497
 2592SOL     OW 7831   2.462   0.222   2.318 -0.0730  0.5076  0.1394
 2592SOL    HW1 7832   2.404   0.160   2.362 -1.2565  2.4783  1.4692
 2592SOL    HW2 7833   2.412   0.303   2.311  0.7156  0.8797 -3.2863
 2593SOL     OW 7834   1.745   1.921   1.710  0.0382  0.3312 -0.2371
 2593SOL    HW1 7835   1.664   1.901   1.663 -0.5971  1.1380  0.4831
 2593SOL    HW2 7836   1.758   1.847   1.769 -0.6616  0.6050  0.2707
 2594SOL     OW 7837   4.574   0.255   3.945  0.1738 -0.3038 -0.2985
 2594SOL    HW1 7838   4.657   0.283   3.907 -0.1852  0.9401 -0.2279
 2594SOL    HW2 7839   4.533   0.202   3.878  0.5908 -0.1115 -0.7120
 2595SOL     OW 7840   3.908   0.275   3.497  0.3779  0.4208  0.2106
 2595SOL    HW1 7841   3.998   0.253   3.522  0.4107  1.0783  0.6850
 2595SOL    HW2 7842   3.894   0.363   3.531 -1.0361 -0.3130  1.6634
 2596SOL     OW 7843   0.364   2.439   0.046 -0.2378 -0.4312  0.5146
 2596SOL    HW1 7844   0.385   2.504   0.114 -0.1361 -0.2097  0.2762
 2596SOL    HW2 7845   0.439   2.443  -0.014 -0.1510 -0.8958  0.5892
 2597SOL     OW 7846   3.323   4.750   1.245  0.4642 -0.1419 -0.4595
 2597SOL    HW1 7847   3.325   4.839   1.282 -0.9176 -1.0353  1.9869
 2597SOL    HW2 7848   3.334   4.763   1.151 -0.7443  2.7165 -0.3080
 2598SOL     OW 7849   0.880   4.530   4.496 -0.5351 -0.1910 -0.0871
 2598SOL    HW1 7850   0.927   4.462   4.446 -0.5057 -0.1736 -0.0829
 2598SOL    HW2 7851   0.862   4.598   4.431 -2.1095 -0.9560 -0.5164
 2599SOL     OW 7852   1.373   0.738   2.546  0.7204 -1.2762  0.1723
 2599SOL    HW1 7853   1.460   0.759   2.580  1.8513 -0.8349 -2.6699
 2599SOL    HW2 7854   1.376   0.643   2.532  0.0310 -1.5575  1.7727
 2600SOL     OW 7855   3.857   4.181   1.240  0.5299 -0.6230  0.1830
 2600SOL    HW1 7856   3.877   4.147   1.327 -0.8868 -2.1717 -0.0308
 2600SOL    HW2 7857   3.762   4.170   1.232  0.6534 -0.6443 -1.6010
 2601SOL     OW 7858   3.520   0.882   0.429  0.1585  0.0929 -0.2248
 2601SOL    HW1 7859   3.588   0.929   0.381 -0.1918 -0.9304 -1.8022
 2601SOL    HW2 7860   3.472   0.950   0.475  0.9153  1.0677 -0.8365
 2602SOL     OW 7861   1.873   4.105   4.777  0.1366 -0.2712 -0.7050
 2602SOL    HW1 7862   1.797   4.089   4.722  0.2551  1.6275 -1.4885
 2602SOL    HW2 7863   1.948   4.094   4.719  0.4726 -1.7017 -0.0418
 2603SOL     OW 7864   0.105   0.086   4.565 -0.0066 -0.1068  0.0636
 2603SOL    HW1 7865   0.040   0.072   4.633  0.3490  1.1991  0.7045
 2603SOL    HW2 7866   0.108   0.181   4.553 -2.0988 -0.2933 -3.7832
 2604SOL     OW 7867   4.772   0.675   0.075  0.0360  0.0637 -0.5385
 2604SOL    HW1 7868   4.744   0.601   0.128  2.4183 -0.5576 -0.0508
 2604SOL    HW2 7869   4.859   0.697   0.107  0.6661  1.0899 -2.7352
 2605SOL     OW 7870   0.144   4.174   3.826  0.5385  0.2714 -0.0616
 2605SOL    HW1 7871   0.217   4.226   3.858  2.2122 -0.6364 -2.0911
 2605SOL    HW2 7872   0.107   4.226   3.755  1.8367 -0.9089 -1.6947
 2606SOL     OW 7873   2.230   0.985   1.813  0.3469  0.5988 -0.3637
 2606SOL    HW1 7874   2.148   1.033   1.821 -1.2496 -1.9884 -0.1844
 2606SOL    HW2 7875   2.251   0.959   1.903  0.8365  0.3888 -0.5345
 2607SOL     OW 7876   3.245   3.040   2.698  0.2355 -0.5382  0.4306
 2607SOL    HW1 7877   3.252   2.954   2.738  2.7539  0.1664  1.7378
 2607SOL    HW2 7878   3.295   3.033   2.616  1.0432 -0.1817  0.8771
 2608SOL     OW 7879   3.090   4.041   0.507  0.3027  0.0988  0.1368
 2608SOL    HW1 7880   3.102   4.030   0.412 -0.7604 -0.5374  0.0582
 2608SOL    HW2 7881   2.996   4.027   0.521  0.7736 -2.1482  1.5658
 2609SOL     OW 7882   2.461   1.731   1.707  0.5052 -0.0717  0.3617
 2609SOL    HW1 7883   2.442   1.818   1.742  1.1978  1.0700 -1.9124
 2609SOL    HW2 7884   2.375   1.689   1.701 -0.4715  1.9721 -2.1366
 2610SOL     OW 7885   0.102   2.650   1.496  0.2907 -0.2437  0.1855
 2610SOL    HW1 7886   0.027   2.686   1.450 -0.0619 -1.1973 -0.0046
 2610SOL    HW2 7887   0.073   2.640   1.587 -0.0103 -1.1492 -0.0058
 2611SOL     OW 7888   1.898   2.309   3.478 -0.2103  0.1240 -0.1538
 2611SOL    HW1 7889   1.968   2.350   3.427 -0.3273  3.1274  1.8601
 2611SOL    HW2 7890   1.943   2.265   3.550 -0.3160  1.8934  1.0341
 2612SOL     OW 7891   3.761   4.435   2.969 -0.2954 -0.1474 -0.0601
 2612SOL    HW1 7892   3.815   4.509   2.940 -1.9456  1.4468  0.7291
 2612SOL    HW2 7893   3.813   4.393   3.037  0.6337  0.3213 -0.4516
 2613SOL     OW 7894   0.893   0.769   4.264 -0.7801  0.0764  0.1163
 2613SOL    HW1 7895   0.913   0.817   4.345 -0.6385 -0.6622  0.5348
 2613SOL    HW2 7896   0.899   0.835   4.195  0.4529  0.4575  0.5445
 2614SOL     OW 7897   1.989   0.763   1.409 -0.1638  0.5635 -0.3337
 2614SOL    HW1 7898   1.918   0.698   1.411 -0.3997  0.8389  0.6630
 2614SOL    HW2 7899   1.974   0.817   1.487  0.6892  1.1114 -0.5424
 2615SOL     OW 7900   1.803   2.199   4.054  0.5732 -0.9975 -0.0458
 2615SOL    HW1 7901   1.716   2.227   4.023  0.3844 -0.1633  1.1698
 2615SOL    HW2 7902   1.853   2.184   3.974 -0.1813  0.1712 -0.7676
 2616SOL     OW 7903   1.507   2.348   3.401 -0.8485  0.2152 -0.2028
 2616SOL    HW1 7904   1.574   2.387   3.457 -2.0991  1.7207  0.3098
 2616SOL    HW2 7905   1.485   2.265   3.444  2.2578 -1.5155 -1.6218
 2617SOL     OW 7906   2.714   1.096   2.280  0.3899 -0.0494 -0.1594
 2617SOL    HW1 7907   2.661   1.049   2.215 -1.1960 -0.6178  1.4595
 2617SOL    HW2 7908   2.706   1.188   2.255 -0.4029 -0.2325 -0.6162
 2618SOL     OW 7909   1.004   1.925   0.214  0.5889 -0.8159  0.4466
 2618SOL    HW1 7910   1.011   2.011   0.173 -0.7255 -1.1092 -0.4494
 2618SOL    HW2 7911   0.978   1.867   0.143  2.0020 -2.0797  0.9273
 2619SOL     OW 7912   1.525   3.613   0.428  0.2099  0.3213  0.0739
 2619SOL    HW1 7913   1.521   3.531   0.476  1.8550 -0.6957 -1.4001
 2619SOL    HW2 7914   1.487   3.593   0.342 -0.9937  1.6052  0.2680
 2620SOL     OW 7915   1.103   1.227   4.305 -0.2541  0.1690  0.5397
 2620SOL    HW1 7916   1.089   1.301   4.246  1.1655  0.8747  1.0241
 2620SOL    HW2 7917   1.030   1.230   4.366 -0.8707  0.4134 -0.2041
 2621SOL     OW 7918   0.890   4.880   2.832  0.3278 -0.0222  0.0268
 2621SOL    HW1 7919   0.931   4.832   2.760  1.9207  0.6311  0.4495
 2621SOL    HW2 7920   0.797   4.883   2.809 -0.0879 -4.1967  0.5120
 2622SOL     OW 7921   0.409   0.079   3.595  1.0810  0.0690  0.5465
 2622SOL    HW1 7922   0.379  -0.012   3.601  1.4298 -0.0754  0.1381
 2622SOL    HW2 7923   0.329   0.129   3.576  1.2410 -0.4592 -1.7610
 2623SOL     OW 7924   1.215   0.650   4.735  0.1202  0.9749  0.2439
 2623SOL    HW1 7925   1.133   0.698   4.723  0.2672  0.7177 -2.3191
 2623SOL    HW2 7926   1.276   0.716   4.769 -1.3201  0.9190  3.2669
 2624SOL     OW 7927   3.913   1.489   3.762 -0.7211  0.0662 -0.0072
 2624SOL    HW1 7928   3.885   1.485   3.670 -0.9528 -0.5249  0.0876
 2624SOL    HW2 7929   4.004   1.518   3.758  0.1505 -2.5078 -0.5961
 2625SOL     OW 7930   2.432   3.810   2.719 -0.8265 -0.3194  0.7401
 2625SOL    HW1 7931   2.482   3.730   2.700 -0.6349 -0.2226  0.8332
 2625SOL    HW2 7932   2.428   3.857   2.636  1.3431  0.8593  1.2344
 2626SOL     OW 7933   1.576   1.296   0.560 -0.1891 -0.0720 -0.1102
 2626SOL    HW1 7934   1.671   1.308   0.557 -0.1178 -0.3651  0.7686
 2626SOL    HW2 7935   1.560   1.256   0.645 -1.3600  2.2789  0.8774
 2627SOL     OW 7936   4.653   4.826   3.391  0.1647  0.0616 -0.2712
 2627SOL    HW1 7937   4.629   4.735   3.408 -1.3756  0.1450 -1.7603
 2627SOL    HW2 7938   4.619   4.844   3.303 -0.0105  2.2063  0.1781
 2628SOL     OW 7939   2.888   0.363   4.532 -0.2670 -0.1695  0.0772
 2628SOL    HW1 7940   2.892   0.407   4.617 -0.4479  1.0706 -0.5306
 2628SOL    HW2 7941   2.971   0.316   4.525  0.0337  0.2637  0.6505
 2629SOL     OW 7942   0.467   1.740   1.512 -0.1387  0.8311  0.0264
 2629SOL    HW1 7943   0.402   1.780   1.454  1.0331  0.8745 -1.3082
 2629SOL    HW2 7944   0.521   1.813   1.541 -0.0777  0.6600  0.3464
 2630SOL     OW 7945   0.293   4.541   1.956 -0.2424  0.4437 -0.6654
 2630SOL    HW1 7946   0.368   4.586   1.995 -0.5641 -0.1460  0.6876
 2630SOL    HW2 7947   0.331   4.472   1.902  0.2085 -0.0432  0.2428
 2631SOL     OW 7948   4.278   4.439   1.058  0.2606  0.1627 -0.2547
 2631SOL    HW1 7949   4.296   4.422   1.151  1.4940  1.9811 -0.0904
 2631SOL    HW2 7950   4.183   4.445   1.052  0.1530 -0.2525  0.8282
 2632SOL     OW 7951   1.797   4.586   0.068  0.3355  0.3199 -0.1503
 2632SOL    HW1 7952   1.800   4.629   0.154  1.0732 -1.4717  0.7827
 2632SOL    HW2 7953   1.760   4.499   0.087  1.5592 -0.5224 -1.4418
 2633SOL     OW 7954   0.494   0.415   1.693  0.0801  0.6150 -0.1669
 2633SOL    HW1 7955   0.426   0.348   1.688  0.1471  0.5586 -0.3192
 2633SOL    HW2 7956   0.447   0.498   1.691  0.0679  0.5995 -1.2707
 2634SOL     OW 7957   0.950   3.788   1.307  0.6867 -0.3859  0.5088
 2634SOL    HW1 7958   0.968   3.812   1.216  1.2589  1.4276  1.0404
 2634SOL    HW2 7959   0.926   3.871   1.349 -1.8031 -1.5179  1.5381
 2635SOL     OW 7960   1.795   3.985   1.363 -0.3267  0.9221 -0.3823
 2635SOL    HW1 7961   1.722   3.988   1.301 -1.2526  0.0803  0.6245
 2635SOL    HW2 7962   1.873   4.003   1.310 -1.0007 -0.5087 -1.9356
 2636SOL     OW 7963   1.039   3.584   0.483 -0.5855 -0.8576  0.2920
 2636SOL    HW1 7964   0.985   3.663   0.481  1.5169  0.6686 -0.1622
 2636SOL    HW2 7965   0.988   3.521   0.535 -1.6364  1.3239  2.0894
 2637SOL     OW 7966   3.037   0.363   0.863 -0.0897 -0.0392 -0.0072
 2637SOL    HW1 7967   3.017   0.435   0.924 -0.1402  0.4893 -0.6384
 2637SOL    HW2 7968   3.020   0.284   0.914  1.4757  0.3660  1.2216
 2638SOL     OW 7969   4.585   4.537   4.347  1.2552  0.0598 -0.5511
 2638SOL    HW1 7970   4.647   4.466   4.326 -0.8103 -1.5023 -1.7865
 2638SOL    HW2 7971   4.630   4.617   4.320  2.0897 -1.1738 -3.1044
 2639SOL     OW 7972   4.809   3.349   0.833 -0.1022 -0.5380  0.6738
 2639SOL    HW1 7973   4.720   3.384   0.825  0.2317  0.1614 -0.1276
 2639SOL    HW2 7974   4.800   3.273   0.890 -0.8556  0.8363  2.4740
 2640SOL     OW 7975   2.178   3.966   1.491  0.0995  0.2915  0.3511
 2640SOL    HW1 7976   2.265   3.997   1.467  0.3841 -1.0386 -0.4472
 2640SOL    HW2 7977   2.132   4.044   1.522  1.8166  0.8878  1.5521
 2641SOL     OW 7978   1.125   0.369   0.167 -0.0818 -0.2789  0.4370
 2641SOL    HW1 7979   1.068   0.373   0.089 -2.3914 -0.0618  2.0281
 2641SOL    HW2 7980   1.125   0.276   0.190  0.4977 -0.3232  0.2630
 2642SOL     OW 7981   4.836   3.464   3.729 -0.4391  0.2002 -0.0644
 2642SOL    HW1 7982   4.828   3.369   3.728  1.1923  0.0065  1.1706
 2642SOL    HW2 7983   4.781   3.491   3.803 -1.1145  0.2694 -0.5774
 2643SOL     OW 7984   0.088   3.792   2.042  0.5799  0.0905  0.1442
 2643SOL    HW1 7985   0.016   3.752   2.089 -1.0121  1.9872 -0.5145
 2643SOL    HW2 7986   0.150   3.721   2.026 -0.4387 -1.2910  2.0087
 2644SOL     OW 7987   3.922   2.077   4.057 -0.1639 -0.0996  0.5125
 2644SOL    HW1 7988   3.946   2.150   4.000  0.2962 -0.5516  0.1135
 2644SOL    HW2 7989   3.829   2.091   4.077 -0.2514  0.2299 -0.1042
 2645SOL     OW 7990   1.283   0.980   2.455  0.5731 -0.6259 -0.2745
 2645SOL    HW1 7991   1.320   1.016   2.535  1.0333 -1.4329 -0.1128
 2645SOL    HW2 7992   1.300   0.886   2.461 -1.2746 -1.0017 -0.3119
 2646SOL     OW 7993   3.046   0.221   3.864 -0.0864 -0.6084  0.9818
 2646SOL    HW1 7994   3.079   0.158   3.928  2.1800 -0.2773  0.2036
 2646SOL    HW2 7995   3.106   0.296   3.870 -1.3392  0.5024  0.2446
 2647SOL     OW 7996   1.369   0.785   1.084  0.1578  1.3976  0.0934
 2647SOL    HW1 7997   1.288   0.821   1.119 -0.9901 -0.7033 -0.2047
 2647SOL    HW2 7998   1.356   0.785   0.989 -0.8941 -1.6932  0.1130
 2648SOL     OW 7999   3.044   4.188   0.225 -0.0932 -0.0513 -0.3380
 2648SOL    HW1 8000   3.115   4.125   0.230 -0.5845 -0.5647  0.2407
 2648SOL    HW2 8001   2.985   4.152   0.159  0.4100  0.6213 -1.1774
 2649SOL     OW 8002   3.200   0.412   1.145  0.1747 -0.3344  0.1168
 2649SOL    HW1 8003   3.164   0.494   1.110  1.8441 -0.1294 -1.2487
 2649SOL    HW2 8004   3.130   0.348   1.132 -0.2172  0.3227 -1.1959
 2650SOL     OW 8005   0.022   0.507   2.885  0.2062 -0.8653 -0.6538
 2650SOL    HW1 8006   0.107   0.489   2.845 -0.0357 -1.4522 -0.9181
 2650SOL    HW2 8007   0.027   0.599   2.911  0.4418 -0.4941 -1.9031
 2651SOL     OW 8008   3.813   1.152   1.701 -0.0292  0.1598 -0.4809
 2651SOL    HW1 8009   3.764   1.099   1.638 -0.9280 -1.3884  1.4376
 2651SOL    HW2 8010   3.894   1.104   1.715  0.3415  0.7052 -0.7193
 2652SOL     OW 8011   4.653   4.057   1.351  0.2525 -0.6886 -0.2429
 2652SOL    HW1 8012   4.714   4.005   1.403 -1.0443 -0.8940  1.1513
 2652SOL    HW2 8013   4.579   3.999   1.335 -1.0618  0.5601  1.0247
 2653SOL     OW 8014   3.515   3.982   2.615  0.6751 -0.3076 -0.0926
 2653SOL    HW1 8015   3.467   3.899   2.621 -0.6547  0.5459  2.7985
 2653SOL    HW2 8016   3.519   4.014   2.705  4.1665  1.1704 -0.6335
 2654SOL     OW 8017   0.068   0.579   2.257 -0.2369 -0.0437 -0.4386
 2654SOL    HW1 8018  -0.001   0.627   2.303  0.3614  2.1758 -1.7101
 2654SOL    HW2 8019   0.147   0.597   2.306 -0.1870 -0.8214 -0.2115
 2655SOL     OW 8020   3.132   2.107   4.901 -0.0078  0.3361 -0.1961
 2655SOL    HW1 8021   3.114   2.170   4.970  1.1218 -0.5406  0.9480
 2655SOL    HW2 8022   3.200   2.148   4.848  0.5008  0.2225  0.3606
 2656SOL     OW 8023   0.696   2.620   2.898  0.0506  0.2038 -0.0606
 2656SOL    HW1 8024   0.655   2.542   2.860 -0.1642  0.3593 -0.1564
 2656SOL    HW2 8025   0.786   2.594   2.915 -0.1343 -0.2018  0.3164
 2657SOL     OW 8026   0.772   1.546   1.430 -0.0527  0.1209  0.7504
 2657SOL    HW1 8027   0.677   1.556   1.436 -0.0638 -0.5693  2.1872
 2657SOL    HW2 8028   0.792   1.561   1.338 -1.7908 -1.5989  0.0141
 2658SOL     OW 8029   4.502   3.245   0.490  0.6550  0.5149 -0.0073
 2658SOL    HW1 8030   4.480   3.316   0.550 -0.5973  0.3426 -0.2354
 2658SOL    HW2 8031   4.594   3.261   0.466  0.6752  1.4950  0.6879
 2659SOL     OW 8032   2.974   1.648   0.373 -0.0597  0.1179  0.1096
 2659SOL    HW1 8033   2.935   1.567   0.406 -0.3010 -0.5310 -1.6718
 2659SOL    HW2 8034   3.032   1.677   0.444  2.5194 -3.3269 -0.3354
 2660SOL     OW 8035   1.083   0.541   1.211 -0.0006  0.1322 -0.1303
 2660SOL    HW1 8036   1.079   0.562   1.118 -1.6091  0.4983 -0.0076
 2660SOL    HW2 8037   0.992   0.527   1.237  0.5182 -1.2372  1.1218
 2661SOL     OW 8038   2.454   1.604   1.164  0.6382  0.0825 -0.6707
 2661SOL    HW1 8039   2.448   1.509   1.173 -0.2670  0.2232  0.5319
 2661SOL    HW2 8040   2.432   1.621   1.072 -2.0109 -0.7152 -0.2797
 2662SOL     OW 8041   1.411   4.778   1.835 -0.8411 -0.1746 -0.3776
 2662SOL    HW1 8042   1.437   4.868   1.820  3.0011 -0.8691  0.9072
 2662SOL    HW2 8043   1.319   4.783   1.861 -0.9002  3.2564 -0.8283
 2663SOL     OW 8044   3.910   4.263   2.718 -0.2489 -0.0752 -0.3425
 2663SOL    HW1 8045   3.879   4.262   2.808 -1.7645 -0.0834 -0.8319
 2663SOL    HW2 8046   3.841   4.308   2.669  0.8624  0.5763 -1.3987
 2664SOL     OW 8047   1.674   4.741   4.840  0.3149  0.0685 -0.3248
 2664SOL    HW1 8048   1.695   4.831   4.865 -1.3818  0.5448 -0.5248
 2664SOL    HW2 8049   1.729   4.687   4.897 -0.2942  1.2080  1.4114
 2665SOL     OW 8050   4.643   0.017   4.838  0.5104  0.0635 -0.5368
 2665SOL    HW1 8051   4.574   0.065   4.883 -0.6201 -1.4854 -0.5564
 2665SOL    HW2 8052   4.615  -0.075   4.841  1.8712 -0.4300 -1.7780
 2666SOL     OW 8053   3.831   1.334   4.596 -1.0138  0.2929  0.1464
 2666SOL    HW1 8054   3.737   1.316   4.588 -0.7089 -0.9546 -0.9905
 2666SOL    HW2 8055   3.839   1.428   4.579 -2.0416  0.3891  0.1371
 2667SOL     OW 8056   0.190   0.314   4.782 -0.2810 -0.0322  0.2426
 2667SOL    HW1 8057   0.194   0.295   4.876 -0.8665 -2.3290 -0.1388
 2667SOL    HW2 8058   0.280   0.338   4.759 -0.1382  0.6095  1.3798
 2668SOL     OW 8059   3.552   3.690   3.409  0.3408  0.0254 -0.0624
 2668SOL    HW1 8060   3.482   3.637   3.372 -0.3078  1.8424 -1.6534
 2668SOL    HW2 8061   3.507   3.764   3.450  1.2678  1.0812 -0.8630
 2669SOL     OW 8062   4.357   1.285   3.048  0.2132 -0.1755  0.2136
 2669SOL    HW1 8063   4.383   1.277   3.140  1.6495 -1.1928 -0.2419
 2669SOL    HW2 8064   4.273   1.330   3.050 -0.0965 -0.7683  2.0672
 2670SOL     OW 8065   3.605   0.995   4.879 -0.5038 -0.2196 -0.5042
 2670SOL    HW1 8066   3.529   0.967   4.828 -0.1788 -1.4641 -0.3432
 2670SOL    HW2 8067   3.568   1.050   4.948 -1.4453 -1.8392  0.3463
 2671SOL     OW 8068   4.197   4.676   4.640 -0.5699 -0.4365  0.5890
 2671SOL    HW1 8069   4.278   4.714   4.605 -1.2525  0.2142 -0.3488
 2671SOL    HW2 8070   4.164   4.742   4.701 -0.9151 -0.2340  0.1904
 2672SOL     OW 8071   2.605   0.721   4.579  0.1416 -0.5540  0.0679
 2672SOL    HW1 8072   2.559   0.794   4.538  1.8808  1.5341  1.6004
 2672SOL    HW2 8073   2.660   0.685   4.509 -0.8884 -0.5995 -0.7525
 2673SOL     OW 8074   4.255   4.172   3.759 -0.3440 -0.2154 -0.3060
 2673SOL    HW1 8075   4.326   4.236   3.761  2.2651 -2.7495 -2.1766
 2673SOL    HW2 8076   4.195   4.200   3.828  0.7737  3.8913 -0.7470
 2674SOL     OW 8077   4.813   1.751   4.352  0.0055 -0.2790  0.3958
 2674SOL    HW1 8078   4.906   1.734   4.368 -0.0453 -1.2932 -0.3355
 2674SOL    HW2 8079   4.790   1.820   4.415  2.0070  2.2463 -1.4278
 2675SOL     OW 8080   0.256   1.385   1.398  0.0678 -0.1127 -0.0146
 2675SOL    HW1 8081   0.270   1.295   1.426 -0.5637 -0.1059  0.3464
 2675SOL    HW2 8082   0.277   1.384   1.304 -0.7652 -0.8388 -0.2085
 2676SOL     OW 8083   2.271   3.361   2.767 -0.5926 -0.3647  0.3662
 2676SOL    HW1 8084   2.248   3.318   2.849 -1.8997  0.1420  0.2943
 2676SOL    HW2 8085   2.213   3.322   2.702 -0.5492  0.2371 -0.0431
 2677SOL     OW 8086   1.826   4.955   0.780  0.2161 -0.4088  0.0483
 2677SOL    HW1 8087   1.902   4.972   0.724  0.6290 -1.9494  0.1001
 2677SOL    HW2 8088   1.854   4.885   0.838 -1.4135 -1.4035 -0.2936
 2678SOL     OW 8089   1.705   2.130   2.023 -0.2307 -0.0641 -0.2022
 2678SOL    HW1 8090   1.617   2.152   1.993 -0.1239  1.1889  0.3451
 2678SOL    HW2 8091   1.699   2.037   2.046 -1.0112 -0.3780 -1.5197
 2679SOL     OW 8092   1.722   1.664   3.479 -0.2681 -0.0502 -0.1526
 2679SOL    HW1 8093   1.722   1.578   3.438  0.8672  0.0568 -0.4102
 2679SOL    HW2 8094   1.814   1.681   3.499 -0.6905  0.2516  1.7164
 2680SOL     OW 8095   0.968   4.612   0.445  0.1296  0.4683  0.0901
 2680SOL    HW1 8096   0.940   4.628   0.535 -0.5524  1.1069 -0.2167
 2680SOL    HW2 8097   1.063   4.622   0.446  0.1593  0.1227  0.8048
 2681SOL     OW 8098   3.594   2.462   3.734  0.3298 -0.0917  0.0740
 2681SOL    HW1 8099   3.520   2.406   3.759  0.2910  0.0009  0.1635
 2681SOL    HW2 8100   3.554   2.539   3.695  0.3289  0.5816  1.3500
 2682SOL     OW 8101   2.376   2.974   2.029 -0.1862 -0.8283  0.3459
 2682SOL    HW1 8102   2.400   3.002   1.941 -2.8050  1.0339  0.0984
 2682SOL    HW2 8103   2.342   2.885   2.018 -0.6726 -0.5414 -0.5902
 2683SOL     OW 8104   2.677   4.365   1.673  0.2149 -0.2748  0.1137
 2683SOL    HW1 8105   2.596   4.414   1.684  0.0868  0.0879 -2.0937
 2683SOL    HW2 8106   2.746   4.431   1.682  0.1268 -0.0539 -0.7190
 2684SOL     OW 8107   2.702   4.400   4.074  0.3702  0.7800 -0.3905
 2684SOL    HW1 8108   2.723   4.417   3.982 -0.4895 -1.6190 -1.1214
 2684SOL    HW2 8109   2.607   4.391   4.075  0.4481 -0.0611  0.5639
 2685SOL     OW 8110   4.382   0.811   0.434  0.6934  0.5071  0.6229
 2685SOL    HW1 8111   4.342   0.875   0.492 -3.0087  0.1265 -1.1923
 2685SOL    HW2 8112   4.428   0.864   0.368  1.1266  1.0709  1.3583
 2686SOL     OW 8113   4.216   4.798   4.225  0.1930  0.3687 -0.2468
 2686SOL    HW1 8114   4.200   4.784   4.131  0.2583 -1.8809  0.0315
 2686SOL    HW2 8115   4.309   4.778   4.237 -0.0775 -0.4731  0.4813
 2687SOL     OW 8116   0.169   0.598   1.388  0.1884  0.4549 -0.2328
 2687SOL    HW1 8117   0.105   0.533   1.358  0.2276  0.9036 -1.3289
 2687SOL    HW2 8118   0.119   0.679   1.396 -0.0274  0.1694  1.8519
 2688SOL     OW 8119   4.431   4.870   0.322 -0.1473  0.3420 -0.0520
 2688SOL    HW1 8120   4.448   4.777   0.313 -0.4435  0.4458 -2.1498
 2688SOL    HW2 8121   4.506   4.904   0.370 -0.0861 -0.9675  0.8236
 2689SOL     OW 8122   4.587   1.130   4.337 -0.2723  0.5216  0.0013
 2689SOL    HW1 8123   4.547   1.211   4.367 -0.8359  0.8129 -1.4903
 2689SOL    HW2 8124   4.539   1.061   4.384 -0.9245  0.9690 -0.0002
 2690SOL     OW 8125   2.683   1.722   1.288  0.1276 -0.3582  0.5085
 2690SOL    HW1 8126   2.758   1.695   1.235 -0.2326 -1.1119  0.3721
 2690SOL    HW2 8127   2.608   1.683   1.244 -0.5376  1.6696 -0.2591
 2691SOL     OW 8128   1.968   1.979   0.527  0.0368  0.3974  0.3988
 2691SOL    HW1 8129   2.063   1.984   0.518 -0.2141  1.4624 -3.3525
 2691SOL    HW2 8130   1.949   1.885   0.526  1.0567  0.0770  3.1155
 2692SOL     OW 8131   3.359   1.828   3.530  0.0651  0.0959 -0.3789
 2692SOL    HW1 8132   3.375   1.922   3.541 -3.0418  0.7753 -0.7696
 2692SOL    HW2 8133   3.298   1.806   3.601 -0.6034 -1.2082 -1.3199
 2693SOL     OW 8134   2.116   2.731   3.723  0.2110  0.0913 -0.2874
 2693SOL    HW1 8135   2.136   2.640   3.700 -0.8392 -0.9764  2.6367
 2693SOL    HW2 8136   2.043   2.755   3.666 -0.6229 -1.5212  0.0466
 2694SOL     OW 8137   1.993   4.091   1.196 -0.3215  0.1133 -0.3602
 2694SOL    HW1 8138   2.086   4.113   1.205 -0.3925  0.5833 -0.7309
 2694SOL    HW2 8139   1.985   4.058   1.107 -0.3490 -0.7795 -0.0364
 2695SOL     OW 8140   0.130   4.918   1.794  0.3020  0.2354  0.3006
 2695SOL    HW1 8141   0.204   4.869   1.757  0.7612  0.3679  1.0224
 2695SOL    HW2 8142   0.090   4.961   1.718 -0.8502 -2.1792 -0.5643
 2696SOL     OW 8143   3.615   3.005   1.110 -0.5283 -0.3634  0.0244
 2696SOL    HW1 8144   3.529   3.046   1.094  0.1009  1.3950  0.8229
 2696SOL    HW2 8145   3.615   2.987   1.204 -0.8354 -2.4422 -0.3276
 2697SOL     OW 8146   4.115   3.614   3.817  0.1330  0.1454  0.6592
 2697SOL    HW1 8147   4.165   3.535   3.840 -0.7906 -0.1235  1.8541
 2697SOL    HW2 8148   4.027   3.598   3.851 -1.4919 -0.3113 -3.2318
 2698SOL     OW 8149   3.236   2.615   2.410  0.0052  0.1598  0.5102
 2698SOL    HW1 8150   3.266   2.544   2.353 -0.3709  0.7525 -0.4624
 2698SOL    HW2 8151   3.288   2.691   2.381 -0.5456  0.5814  0.6260
 2699SOL     OW 8152   4.234   2.748   2.247  0.3711  0.1588 -0.4474
 2699SOL    HW1 8153   4.162   2.688   2.231 -0.1479  0.3375  1.0043
 2699SOL    HW2 8154   4.200   2.834   2.223  0.5379  0.0880 -0.9444
 2700SOL     OW 8155   1.974   3.194   1.551  0.3054  0.0070  0.6457
 2700SOL    HW1 8156   1.940   3.216   1.638 -2.0362  0.3136 -0.2733
 2700SOL    HW2 8157   2.000   3.102   1.558 -0.8443 -0.2808  1.4140
 2701SOL     OW 8158   3.799   3.619   2.157  0.3993 -0.1597 -0.0145
 2701SOL    HW1 8159   3.803   3.531   2.118  0.6315 -1.3074  2.3881
 2701SOL    HW2 8160   3.709   3.627   2.188 -0.0270  1.0920 -1.4898
 2702SOL     OW 8161   4.223   4.917   1.388  0.0578  0.6891  0.1640
 2702SOL    HW1 8162   4.148   4.870   1.352 -0.8395  2.1002  0.1459
 2702SOL    HW2 8163   4.296   4.854   1.381 -0.6671 -0.0073 -1.6158
 2703SOL     OW 8164   0.213   1.076   3.579 -0.3396 -0.0525 -0.5734
 2703SOL    HW1 8165   0.224   0.993   3.624 -0.9548 -0.4604 -1.1624
 2703SOL    HW2 8166   0.281   1.133   3.616  0.3812 -0.9515 -0.5030
 2704SOL     OW 8167   0.078   3.010   2.177  0.3583 -0.5702  0.3922
 2704SOL    HW1 8168   0.143   2.984   2.111 -0.1168 -0.4559 -0.1232
 2704SOL    HW2 8169   0.131   3.046   2.249  1.0277 -2.5537  0.9787
 2705SOL     OW 8170   3.148   2.483   3.260 -0.4428  0.3628 -0.2813
 2705SOL    HW1 8171   3.094   2.407   3.239 -0.1212 -0.2304  0.9369
 2705SOL    HW2 8172   3.144   2.490   3.355 -0.4461  1.8777 -0.3643
 2706SOL     OW 8173   3.050   1.252   4.051 -0.3902  0.1932 -0.0701
 2706SOL    HW1 8174   3.069   1.202   3.971 -0.8574  0.8111 -0.5853
 2706SOL    HW2 8175   3.110   1.217   4.117 -0.1326 -0.4625 -0.6443
 2707SOL     OW 8176   0.115   3.913   3.903 -0.9862 -0.4722 -0.3260
 2707SOL    HW1 8177   0.124   4.004   3.876 -1.0027 -0.4816 -0.3650
 2707SOL    HW2 8178   0.204   3.885   3.924 -0.8938 -0.6128 -0.8691
 2708SOL     OW 8179   0.134   1.319   1.875  0.5717  0.2213  0.3251
 2708SOL    HW1 8180   0.194   1.271   1.818  0.7895  2.1662 -1.2008
 2708SOL    HW2 8181   0.130   1.407   1.837 -2.7239  0.3888  0.7384
 2709SOL     OW 8182   1.675   0.534   3.072 -0.2289 -0.2495 -0.4048
 2709SOL    HW1 8183   1.641   0.623   3.075 -0.7221 -0.4553  1.2623
 2709SOL    HW2 8184   1.769   0.544   3.081 -0.4422  0.0714  2.6991
 2710SOL     OW 8185   0.343   1.236   4.847 -0.0732  0.5044 -0.0714
 2710SOL    HW1 8186   0.352   1.284   4.765 -1.0433  0.0376 -0.4714
 2710SOL    HW2 8187   0.273   1.281   4.894 -0.9178 -0.4163 -0.4030
 2711SOL     OW 8188   1.540   1.647   0.352  0.5668  0.0295  0.1314
 2711SOL    HW1 8189   1.634   1.658   0.365  0.7630 -1.4204  0.1475
 2711SOL    HW2 8190   1.509   1.734   0.327  1.6118  0.9277  1.7452
 2712SOL     OW 8191   1.671   3.227   3.912 -0.5129 -0.2414 -0.1069
 2712SOL    HW1 8192   1.618   3.243   3.990  0.2453  0.1536  0.3431
 2712SOL    HW2 8193   1.755   3.270   3.931  0.7477 -2.6243  0.1057
 2713SOL     OW 8194   3.515   2.057   1.522  0.2825 -0.5391  0.0243
 2713SOL    HW1 8195   3.479   1.983   1.572  1.6403 -0.7125  0.8037
 2713SOL    HW2 8196   3.607   2.061   1.549 -0.0127  2.1823  0.9434
 2714SOL     OW 8197   3.694   2.494   0.021 -0.1451  0.9917  0.1917
 2714SOL    HW1 8198   3.766   2.511  -0.040 -1.1853  0.6669 -1.1793
 2714SOL    HW2 8199   3.728   2.520   0.106  1.3485  1.4971 -0.5247
 2715SOL     OW 8200   2.538   2.171   0.508 -0.4854  1.2279 -0.5592
 2715SOL    HW1 8201   2.580   2.163   0.422 -0.5342  2.5282 -0.7244
 2715SOL    HW2 8202   2.447   2.145   0.493  0.0087 -0.7616 -0.3857
 2716SOL     OW 8203   2.332   3.492   0.464 -0.6817  0.3403  0.4670
 2716SOL    HW1 8204   2.253   3.491   0.411 -1.3760  0.7159  1.4639
 2716SOL    HW2 8205   2.383   3.417   0.434 -1.8940 -0.5182  0.5211
 2717SOL     OW 8206   0.360   3.455   4.122  0.3738  0.2303  0.4933
 2717SOL    HW1 8207   0.440   3.489   4.082  0.2312  0.9612  0.8009
 2717SOL    HW2 8208   0.303   3.532   4.129  0.0316 -0.0786  1.2006
 2718SOL     OW 8209   2.321   4.083   4.815 -0.0206  0.1649  0.3210
 2718SOL    HW1 8210   2.403   4.034   4.806 -0.1019  0.3335 -1.8073
 2718SOL    HW2 8211   2.349   4.171   4.841  0.3510 -0.1490  1.0273
 2719SOL     OW 8212   1.099   3.569   1.653 -0.3700  0.0827 -0.5441
 2719SOL    HW1 8213   1.173   3.611   1.610  1.4028 -1.5707  0.7395
 2719SOL    HW2 8214   1.135   3.489   1.691 -2.6083 -0.2923  0.9990
 2720SOL     OW 8215   2.070   1.901   3.165 -0.0749 -0.1475 -0.5514
 2720SOL    HW1 8216   2.040   1.838   3.231  0.6920 -0.0822 -0.1232
 2720SOL    HW2 8217   2.144   1.945   3.207  1.8112 -1.5457 -2.1829
 2721SOL     OW 8218   0.824   0.291   4.677  0.1762 -0.0435 -0.0636
 2721SOL    HW1 8219   0.854   0.353   4.610  0.7410 -0.2560 -0.0188
 2721SOL    HW2 8220   0.733   0.272   4.655  0.8115 -1.3872 -1.7509
 2722SOL     OW 8221   0.058   1.563   1.835  0.1831 -0.6250  0.2728
 2722SOL    HW1 8222  -0.008   1.610   1.886 -1.0172 -1.6651 -0.2610
 2722SOL    HW2 8223   0.060   1.608   1.751  0.5809 -0.2358  0.4902
 2723SOL     OW 8224   3.039   4.445   0.706 -0.3663 -0.2069  0.2131
 2723SOL    HW1 8225   3.001   4.413   0.625 -0.1466 -2.3809  0.8999
 2723SOL    HW2 8226   3.133   4.431   0.696 -0.1498  1.1255  0.2018
 2724SOL     OW 8227   0.601   1.456   0.962  0.1396 -0.1512  0.3227
 2724SOL    HW1 8228   0.656   1.446   1.040 -0.5374 -2.3453  0.5920
 2724SOL    HW2 8229   0.576   1.548   0.962 -0.1659 -0.1528  2.9616
 2725SOL     OW 8230   1.611   3.677   1.186  0.0864 -0.4136  0.4123
 2725SOL    HW1 8231   1.667   3.693   1.262 -0.4405 -0.6136  0.8502
 2725SOL    HW2 8232   1.624   3.584   1.165  1.0965 -0.1003 -0.4620
 2726SOL     OW 8233   4.181   1.447   1.696  0.2481  0.1714 -0.2783
 2726SOL    HW1 8234   4.257   1.444   1.754  0.7873  1.4129 -0.8653
 2726SOL    HW2 8235   4.112   1.401   1.743  1.3010 -0.7891  0.3646
 2727SOL     OW 8236   2.740   1.247   3.716  0.3513 -0.2503  0.0385
 2727SOL    HW1 8237   2.791   1.236   3.637  0.4302  1.0737 -0.1126
 2727SOL    HW2 8238   2.769   1.176   3.773  0.4694 -1.0681 -1.0105
 2728SOL     OW 8239   2.461   3.361   2.576 -0.0394  0.4086 -0.3334
 2728SOL    HW1 8240   2.491   3.452   2.571  0.1137  0.3254 -1.0124
 2728SOL    HW2 8241   2.378   3.366   2.624 -0.5425  1.0405 -1.2379
 2729SOL     OW 8242   4.740   0.619   2.180 -0.3277  0.6734 -0.2797
 2729SOL    HW1 8243   4.683   0.659   2.246  0.1877  0.1229  0.5192
 2729SOL    HW2 8244   4.757   0.689   2.117 -2.4611  0.6727 -0.9554
 2730SOL     OW 8245   1.027   2.599   1.389 -0.3697 -0.4514  0.0402
 2730SOL    HW1 8246   0.967   2.656   1.437  1.2910  1.7976 -0.3906
 2730SOL    HW2 8247   0.993   2.597   1.300  0.7225  1.7883 -0.4978
 2731SOL     OW 8248   0.561   0.240   3.051 -0.0294  0.2990 -0.3858
 2731SOL    HW1 8249   0.638   0.269   3.003  2.2618 -2.3266  1.3492
 2731SOL    HW2 8250   0.551   0.147   3.028 -2.0604  0.2932  0.2573
 2732SOL     OW 8251   1.513   3.886   4.101 -0.1956 -0.3174 -0.1307
 2732SOL    HW1 8252   1.596   3.875   4.147 -0.5669 -1.8473  0.2287
 2732SOL    HW2 8253   1.533   3.946   4.029  0.8348  0.5903  0.8898
 2733SOL     OW 8254   4.711   4.263   0.974  0.1367 -0.4487  0.0006
 2733SOL    HW1 8255   4.804   4.249   0.955  0.3260  1.5748 -0.8599
 2733SOL    HW2 8256   4.685   4.335   0.916 -1.2268  0.9194  2.1436
 2734SOL     OW 8257   1.249   4.352   1.937  0.1098 -0.5043 -0.1648
 2734SOL    HW1 8258   1.196   4.338   1.858 -0.5950  0.6851  0.0662
 2734SOL    HW2 8259   1.321   4.407   1.908  2.3509 -3.5239 -0.8737
 2735SOL     OW 8260   0.056   4.119   2.809 -0.0092  0.3112  0.3368
 2735SOL    HW1 8261   0.028   4.155   2.725 -2.0592  0.3641  1.0089
 2735SOL    HW2 8262   0.060   4.024   2.794 -0.3027  0.3266  0.1573
 2736SOL     OW 8263   4.464   3.033   1.241 -0.0555 -0.4965 -0.1460
 2736SOL    HW1 8264   4.372   3.047   1.259  0.4676  1.7961  1.0572
 2736SOL    HW2 8265   4.502   3.008   1.325  0.9096  1.6671  0.1267
 2737SOL     OW 8266   4.993   3.381   1.707  0.3125 -0.4511  0.3332
 2737SOL    HW1 8267   4.936   3.308   1.730  0.6395 -0.8293 -0.0361
 2737SOL    HW2 8268   4.934   3.445   1.666  0.1964 -0.9887 -0.3716
 2738SOL     OW 8269   0.309   0.026   4.158 -0.1525  0.4775 -0.0739
 2738SOL    HW1 8270   0.276  -0.063   4.147  2.1575 -0.6613  1.3982
 2738SOL    HW2 8271   0.327   0.056   4.068 -0.2509 -0.8340 -0.5532
 2739SOL     OW 8272   3.468   3.642   2.112  0.4262 -0.0698  0.4801
 2739SOL    HW1 8273   3.475   3.738   2.118  1.5897  0.0126 -1.3343
 2739SOL    HW2 8274   3.388   3.621   2.159 -1.3777  2.1157 -1.3707
 2740SOL     OW 8275   4.274   0.938   3.982 -0.0864  0.5135  0.1666
 2740SOL    HW1 8276   4.363   0.964   3.958 -0.7144  1.4400 -1.2956
 2740SOL    HW2 8277   4.286   0.873   4.051  1.7429  0.1795 -0.4020
 2741SOL     OW 8278   3.343   0.383   4.200  0.4244 -0.1417  0.2415
 2741SOL    HW1 8279   3.294   0.461   4.227  0.9151  0.7957 -1.4233
 2741SOL    HW2 8280   3.384   0.408   4.117  2.0694 -1.5795  0.5634
 2742SOL     OW 8281   1.252   1.817   2.291 -0.0140 -0.2287  0.0400
 2742SOL    HW1 8282   1.203   1.899   2.291 -3.4734 -2.0911  0.7676
 2742SOL    HW2 8283   1.312   1.824   2.365 -0.3223  1.5947  0.1516
 2743SOL     OW 8284   4.260   0.986   1.426 -0.1827  0.6400  0.2672
 2743SOL    HW1 8285   4.244   1.064   1.374  2.1161  0.3456 -0.9998
 2743SOL    HW2 8286   4.295   1.018   1.509  2.0199  0.9813 -0.7433
 2744SOL     OW 8287   0.605   4.209   0.651  0.3920  0.0078 -0.0358
 2744SOL    HW1 8288   0.621   4.152   0.576  0.3393  0.7333 -0.6134
 2744SOL    HW2 8289   0.690   4.218   0.694  0.7098  0.6290 -0.7705
 2745SOL     OW 8290   0.267   1.743   2.942 -0.0985  0.7779  0.2185
 2745SOL    HW1 8291   0.264   1.665   2.997 -0.3521  0.4323 -0.2822
 2745SOL    HW2 8292   0.187   1.739   2.890  0.4636  0.7565 -0.6521
 2746SOL     OW 8293   0.934   2.906   1.741 -0.1638  0.7025 -0.6377
 2746SOL    HW1 8294   0.860   2.876   1.793  0.4743  0.4781  0.1732
 2746SOL    HW2 8295   0.910   2.886   1.651 -0.2367 -1.2649 -0.2307
 2747SOL     OW 8296   1.240   0.988   4.192 -0.5720 -0.6923 -0.2962
 2747SOL    HW1 8297   1.238   0.949   4.279 -1.9215 -0.0568 -0.0160
 2747SOL    HW2 8298   1.156   1.035   4.184 -0.0450  0.1086 -1.5402
 2748SOL     OW 8299   0.147   4.035   2.424  0.8438  0.0444  0.1197
 2748SOL    HW1 8300   0.160   4.072   2.337  1.5533  0.4307  0.3833
 2748SOL    HW2 8301   0.105   4.105   2.474 -0.6581 -0.5618 -0.2056
 2749SOL     OW 8302   2.611   3.927   0.929 -0.9407  0.3551 -0.0781
 2749SOL    HW1 8303   2.650   3.940   0.842 -0.9016  1.3347  0.0778
 2749SOL    HW2 8304   2.519   3.948   0.917 -1.3743 -1.5221 -0.3400
 2750SOL     OW 8305   3.413   3.419   1.453  0.5623  0.2147  0.0112
 2750SOL    HW1 8306   3.349   3.489   1.440 -2.1578 -1.7814  1.4820
 2750SOL    HW2 8307   3.478   3.457   1.511 -1.1642  1.4333  1.2710
 2751SOL     OW 8308   1.208   3.668   4.869  0.1963 -0.2094 -0.6292
 2751SOL    HW1 8309   1.141   3.614   4.911  1.2621 -0.0417  1.4154
 2751SOL    HW2 8310   1.158   3.727   4.812 -1.2344 -1.2383 -0.5174
 2752SOL     OW 8311   4.775   3.246   0.516 -0.6000  0.2000  0.3096
 2752SOL    HW1 8312   4.845   3.199   0.471 -0.9601  1.6042 -1.8847
 2752SOL    HW2 8313   4.805   3.252   0.607  0.5183 -2.1372  0.1921
 2753SOL     OW 8314   4.168   1.344   4.779 -0.1008  0.3668  0.8057
 2753SOL    HW1 8315   4.180   1.379   4.867 -1.7852  0.5655  0.9895
 2753SOL    HW2 8316   4.102   1.401   4.739  0.1264 -0.1471 -0.3312
 2754SOL     OW 8317   3.413   1.266   1.604  0.4236  0.1077  0.0862
 2754SOL    HW1 8318   3.337   1.272   1.662  1.0188 -0.6155  0.9516
 2754SOL    HW2 8319   3.387   1.317   1.526 -1.9205 -2.0905 -0.7191
 2755SOL     OW 8320   3.105   3.237   4.320  0.2090 -0.1614  0.0701
 2755SOL    HW1 8321   3.028   3.185   4.345  3.4509 -4.1194  3.3476
 2755SOL    HW2 8322   3.128   3.285   4.399  1.3230  0.6556 -0.7265
 2756SOL     OW 8323   4.720   3.715   4.879  0.3661  0.0982 -0.1137
 2756SOL    HW1 8324   4.755   3.789   4.830  1.0256 -0.8764 -1.1700
 2756SOL    HW2 8325   4.793   3.684   4.932 -0.5638  1.6825  2.2867
 2757SOL     OW 8326   3.709   1.970   3.340 -0.0356  0.3813  0.4098
 2757SOL    HW1 8327   3.717   1.880   3.373  0.4372 -0.1895 -1.1485
 2757SOL    HW2 8328   3.695   2.023   3.418  0.2687 -0.9751  1.4336
 2758SOL     OW 8329   0.512   4.719   4.388 -0.3664  0.3903 -0.8757
 2758SOL    HW1 8330   0.495   4.812   4.405 -0.6792  0.1369  0.2890
 2758SOL    HW2 8331   0.428   4.676   4.401  0.4406 -0.5153  2.3569
 2759SOL     OW 8332   2.041   2.305   4.816  0.3778  0.1405  0.0225
 2759SOL    HW1 8333   2.027   2.213   4.840 -1.7416  0.4069 -0.0024
 2759SOL    HW2 8334   2.054   2.302   4.721 -0.2779 -0.0939 -0.0658
 2760SOL     OW 8335   2.657   2.197   3.086 -0.3429 -0.2072 -0.2568
 2760SOL    HW1 8336   2.638   2.190   2.993 -0.7595 -0.5895 -0.1461
 2760SOL    HW2 8337   2.588   2.255   3.120 -0.5379 -0.5342 -0.0877
 2761SOL     OW 8338   1.106   1.211   2.808 -0.5820  0.3829  0.0182
 2761SOL    HW1 8339   1.092   1.119   2.832 -1.2080  0.5160  0.1821
 2761SOL    HW2 8340   1.195   1.230   2.837 -0.2814 -0.2973 -0.4192
 2762SOL     OW 8341   2.729   1.632   4.535 -0.1123 -0.5716  0.0847
 2762SOL    HW1 8342   2.785   1.655   4.609 -1.1229 -0.8948  0.9727
 2762SOL    HW2 8343   2.665   1.703   4.531  0.2799 -0.2585 -0.8556
 2763SOL     OW 8344   4.333   3.831   4.617 -0.0491  0.1170 -0.3374
 2763SOL    HW1 8345   4.247   3.873   4.605 -0.5274  0.1700  2.6257
 2763SOL    HW2 8346   4.390   3.902   4.647  0.7162 -0.2010 -0.9964
 2764SOL     OW 8347   3.538   4.144   0.394  0.1720  0.1669 -0.2150
 2764SOL    HW1 8348   3.517   4.121   0.303 -0.9695 -2.3248  0.5770
 2764SOL    HW2 8349   3.453   4.165   0.433  0.6124  0.8910  0.3593
 2765SOL     OW 8350   0.573   0.033   1.682  0.2644  0.0721 -0.3594
 2765SOL    HW1 8351   0.539   0.110   1.638  2.4114  2.8848  2.4500
 2765SOL    HW2 8352   0.501   0.002   1.737 -0.1905  1.0249 -0.4134
 2766SOL     OW 8353   3.117   1.315   2.565  0.1071  0.1967  0.2439
 2766SOL    HW1 8354   3.110   1.345   2.474 -1.3621 -2.4850 -0.6556
 2766SOL    HW2 8355   3.104   1.394   2.618  2.0363  2.0381 -1.8081
 2767SOL     OW 8356   0.851   2.935   4.024 -0.1511  0.3138  0.0045
 2767SOL    HW1 8357   0.782   2.887   3.978  0.6811 -2.0734  1.1014
 2767SOL    HW2 8358   0.822   2.938   4.115  1.0779 -0.6504  0.4646
 2768SOL     OW 8359   3.226   2.434   4.481 -0.0809 -0.1922 -0.0145
 2768SOL    HW1 8360   3.152   2.488   4.509 -0.2267  0.5832 -1.7718
 2768SOL    HW2 8361   3.302   2.476   4.519 -0.1427  1.6078 -1.7309
 2769SOL     OW 8362   3.262   0.771   2.246 -0.3446  0.0731  0.4960
 2769SOL    HW1 8363   3.296   0.685   2.220  0.6835  0.3638  0.8046
 2769SOL    HW2 8364   3.290   0.780   2.337  0.2947  1.0758  0.2119
 2770SOL     OW 8365   3.931   1.915   1.865 -0.3125 -0.4411  0.2638
 2770SOL    HW1 8366   3.930   1.824   1.896  0.3391 -0.6568 -0.3256
 2770SOL    HW2 8367   4.019   1.946   1.884  0.0242 -0.4956 -1.1221
 2771SOL     OW 8368   2.826   1.827   4.197 -0.2119  0.1055 -0.1620
 2771SOL    HW1 8369   2.916   1.810   4.225  0.2551  0.7910 -1.1688
 2771SOL    HW2 8370   2.831   1.912   4.152 -1.1763 -0.2582 -0.9916
 2772SOL     OW 8371   0.792   0.607   1.759  0.2228  0.2025 -0.7312
 2772SOL    HW1 8372   0.723   0.612   1.825  0.0645  0.6516 -0.9236
 2772SOL    HW2 8373   0.870   0.578   1.807 -0.4170 -1.6294 -0.7654
 2773SOL     OW 8374   0.820   3.977   2.402  0.2651 -0.4668 -0.3087
 2773SOL    HW1 8375   0.866   3.904   2.444 -0.0717 -0.3653  0.2541
 2773SOL    HW2 8376   0.787   3.941   2.320  1.7494 -0.4140 -0.9749
 2774SOL     OW 8377   3.445   4.214   4.548 -0.6376  0.0856  0.3426
 2774SOL    HW1 8378   3.478   4.274   4.615 -0.6913  0.6728 -0.1435
 2774SOL    HW2 8379   3.360   4.251   4.523 -0.7725 -0.3207  0.1971
 2775SOL     OW 8380   4.695   2.061   0.801  0.0211  0.5160  0.4183
 2775SOL    HW1 8381   4.772   2.018   0.763 -1.3971 -0.6210 -1.3012
 2775SOL    HW2 8382   4.710   2.154   0.785  0.4865  0.2176 -1.0640
 2776SOL     OW 8383   2.603   4.286   2.944 -0.1516 -0.2372 -0.3215
 2776SOL    HW1 8384   2.641   4.215   2.996  2.1546 -0.6611 -2.3725
 2776SOL    HW2 8385   2.515   4.254   2.922 -0.5865 -0.7225  1.9082
 2777SOL     OW 8386   3.969   4.194   3.525  0.3179 -0.1745 -0.1170
 2777SOL    HW1 8387   4.020   4.137   3.582  0.4259  0.1125  0.0745
 2777SOL    HW2 8388   4.025   4.208   3.449  1.0562  1.1452  0.6367
 2778SOL     OW 8389   0.328   3.297   1.242  0.4219  0.2892 -0.2969
 2778SOL    HW1 8390   0.261   3.310   1.176 -0.1850  0.5163  0.3522
 2778SOL    HW2 8391   0.298   3.349   1.317 -0.6700 -2.6034  1.4066
 2779SOL     OW 8392   4.412   3.648   0.952 -0.1073 -0.2398 -0.2794
 2779SOL    HW1 8393   4.356   3.725   0.939  0.8616  0.1509 -2.8068
 2779SOL    HW2 8394   4.354   3.573   0.936 -0.8988 -0.0491  1.5211
 2780SOL     OW 8395   3.651   3.636   3.869 -0.0158 -0.1682  0.3087
 2780SOL    HW1 8396   3.694   3.613   3.787  1.9327  0.0736  1.1991
 2780SOL    HW2 8397   3.713   3.611   3.937 -1.8689 -1.0202  1.7892
 2781SOL     OW 8398   4.090   0.143   0.757 -0.5118  0.4329  0.1929
 2781SOL    HW1 8399   4.052   0.084   0.822 -1.8949  0.1256 -0.8440
 2781SOL    HW2 8400   4.144   0.086   0.701  0.0999  0.5777  0.6236
 2782SOL     OW 8401   1.122   4.266   0.688  0.0058 -0.2735 -0.3461
 2782SOL    HW1 8402   1.198   4.239   0.637 -0.0518 -0.1206 -0.5159
 2782SOL    HW2 8403   1.146   4.353   0.721  0.2721 -0.6153  0.3652
 2783SOL     OW 8404   0.828   2.604   3.949  0.7458 -0.3047 -0.7164
 2783SOL    HW1 8405   0.786   2.535   3.897  1.7427 -1.1084 -0.4815
 2783SOL    HW2 8406   0.859   2.559   4.027 -1.4455  1.0246  1.0466
 2784SOL     OW 8407   1.403   2.821   3.969  0.3632  0.2025 -0.1789
 2784SOL    HW1 8408   1.462   2.802   4.042  0.7525 -0.0810 -0.5597
 2784SOL    HW2 8409   1.374   2.910   3.985  1.1200  0.4496 -0.1306
 2785SOL     OW 8410   4.885   2.342   1.777 -0.4811 -0.5520 -0.1581
 2785SOL    HW1 8411   4.896   2.305   1.690  1.6653 -1.9513  0.6477
 2785SOL    HW2 8412   4.898   2.268   1.837 -1.0081  0.5526  1.3917
 2786SOL     OW 8413   1.422   4.322   4.855 -0.7066 -0.1430 -0.1589
 2786SOL    HW1 8414   1.364   4.395   4.833 -0.5312 -0.3425 -1.3572
 2786SOL    HW2 8415   1.469   4.303   4.773 -0.2198 -1.1196  0.3277
 2787SOL     OW 8416   0.669   4.181   3.040 -0.0413  0.3304  0.1485
 2787SOL    HW1 8417   0.596   4.138   2.998 -2.5089  2.4098  1.9554
 2787SOL    HW2 8418   0.634   4.212   3.124  3.0006  1.1873  1.2510
 2788SOL     OW 8419   4.671   2.246   2.117 -0.0500  0.3789  0.7171
 2788SOL    HW1 8420   4.632   2.197   2.045  0.4310 -2.8874  2.5103
 2788SOL    HW2 8421   4.654   2.338   2.095 -2.2103 -0.5663 -2.1892
 2789SOL     OW 8422   3.267   0.531   1.385  0.7820 -0.4332  0.4276
 2789SOL    HW1 8423   3.259   0.488   1.299  1.4047  0.2306  0.0255
 2789SOL    HW2 8424   3.359   0.521   1.408 -0.0430 -4.1449  2.9366
 2790SOL     OW 8425   4.975   1.424   1.187 -0.1163 -0.2380 -0.3859
 2790SOL    HW1 8426   4.969   1.330   1.199  0.1496 -0.4596 -1.8399
 2790SOL    HW2 8427   4.886   1.456   1.202 -0.1193 -0.6526  0.5414
 2791SOL     OW 8428   1.641   3.191   4.955 -0.0739 -0.0654 -0.6133
 2791SOL    HW1 8429   1.559   3.230   4.924 -0.5681  1.1881  1.9312
 2791SOL    HW2 8430   1.710   3.240   4.910 -0.7147  0.1637 -1.3669
 2792SOL     OW 8431   4.610   1.344   3.166 -0.1729 -0.0234  0.6575
 2792SOL    HW1 8432   4.602   1.358   3.260  0.3416 -3.3649  1.3527
 2792SOL    HW2 8433   4.672   1.271   3.158  0.7472  0.9227 -2.3710
 2793SOL     OW 8434   2.709   4.080   1.425  0.2368 -0.1963  0.5280
 2793SOL    HW1 8435   2.745   4.168   1.434 -0.0533 -0.0144 -0.0136
 2793SOL    HW2 8436   2.618   4.094   1.398  0.0574 -0.6564  0.8832
 2794SOL     OW 8437   3.911   0.480   3.830  0.0607 -0.5094  0.5158
 2794SOL    HW1 8438   3.884   0.394   3.863  0.1556 -1.3512 -1.4632
 2794SOL    HW2 8439   3.855   0.542   3.875 -0.6426 -1.6810  1.3100
 2795SOL     OW 8440   0.518   4.078   4.475  0.5890  0.5582 -0.1705
 2795SOL    HW1 8441   0.556   4.101   4.390  2.5842  1.3942  0.8764
 2795SOL    HW2 8442   0.574   4.122   4.539 -0.3651 -0.7052  1.6274
 2796SOL     OW 8443   4.771   2.549   4.127  0.2099 -0.0241 -0.2897
 2796SOL    HW1 8444   4.756   2.544   4.033 -1.4989  1.2398 -0.1308
 2796SOL    HW2 8445   4.725   2.473   4.163 -0.5032  0.3630 -0.3614
 2797SOL     OW 8446   2.665   4.839   2.919  0.0639  0.8288 -0.0236
 2797SOL    HW1 8447   2.575   4.858   2.891  0.3005  1.4812 -0.3618
 2797SOL    HW2 8448   2.663   4.747   2.946 -0.4734  0.5592 -0.9495
 2798SOL     OW 8449   4.427   2.443   2.345  0.4363  0.5740  0.1472
 2798SOL    HW1 8450   4.415   2.388   2.268 -0.0058  1.2149 -0.2592
 2798SOL    HW2 8451   4.500   2.404   2.392  0.0809 -0.3965 -0.0863
 2799SOL     OW 8452   1.905   1.031   2.706 -0.1149  0.1738  0.7902
 2799SOL    HW1 8453   1.993   1.056   2.732  0.8828 -1.5706 -0.6780
 2799SOL    HW2 8454   1.901   0.936   2.719 -2.2694  0.3638  2.0969
 2800SOL     OW 8455   3.988   1.332   2.733  0.0385  0.0517 -0.2962
 2800SOL    HW1 8456   3.962   1.369   2.649 -2.4231  2.2282  1.2628
 2800SOL    HW2 8457   3.906   1.321   2.781  1.4593  1.1212  2.6189
 2801SOL     OW 8458   0.141   4.121   0.537  0.5654 -0.1435  0.1271
 2801SOL    HW1 8459   0.216   4.162   0.580 -0.5453  1.3003  0.7376
 2801SOL    HW2 8460   0.099   4.069   0.606 -0.3323  0.9518  0.4411
 2802SOL     OW 8461   0.890   3.382   0.936  0.0030  0.0886  0.2955
 2802SOL    HW1 8462   0.841   3.306   0.904 -0.5567  1.1705 -1.5774
 2802SOL    HW2 8463   0.832   3.422   1.001  0.3101 -1.0616  1.3100
 2803SOL     OW 8464   0.909   1.978   1.698  0.4745  0.0652  0.1099
 2803SOL    HW1 8465   0.898   2.006   1.607  0.1321  0.3049  0.2251
 2803SOL    HW2 8466   0.861   1.895   1.704 -1.3918  1.1272  0.6224
 2804SOL     OW 8467   4.145   1.572   2.133  0.1277  0.0951 -0.3231
 2804SOL    HW1 8468   4.128   1.601   2.223  0.0108  0.8677 -0.5924
 2804SOL    HW2 8469   4.230   1.527   2.138 -0.8950 -1.8609  0.6084
 2805SOL     OW 8470   2.503   4.376   0.911  0.0699 -0.1775  0.0133
 2805SOL    HW1 8471   2.570   4.332   0.963  0.5765  1.6177  0.9527
 2805SOL    HW2 8472   2.421   4.355   0.955  0.4971  1.3692  1.6513
 2806SOL     OW 8473   0.921   4.271   0.197 -0.0398 -0.4116 -0.1563
 2806SOL    HW1 8474   0.922   4.305   0.287  1.6896  0.1411 -0.3522
 2806SOL    HW2 8475   0.833   4.292   0.165  0.2782  2.1352  0.4206
 2807SOL     OW 8476   2.305   0.104   2.864 -0.1982  0.0832  0.5876
 2807SOL    HW1 8477   2.369   0.056   2.812 -0.6919 -0.0890  0.1269
 2807SOL    HW2 8478   2.240   0.135   2.800  0.2445  1.6007  0.8356
 2808SOL     OW 8479   1.454   2.324   4.493  0.4513  0.0096  0.0961
 2808SOL    HW1 8480   1.428   2.415   4.480 -0.1102 -0.4434 -2.4863
 2808SOL    HW2 8481   1.547   2.322   4.472  0.2816 -0.1297 -0.6804
 2809SOL     OW 8482   3.721   1.942   0.575  0.1258  0.1572  0.0476
 2809SOL    HW1 8483   3.812   1.967   0.589  0.1657  1.4890 -2.1781
 2809SOL    HW2 8484   3.718   1.910   0.485 -1.0316 -2.9907  1.0593
 2810SOL     OW 8485   4.269   1.238   0.451  0.5401  0.0031 -0.0038
 2810SOL    HW1 8486   4.231   1.189   0.524  0.3689  1.9981  1.3047
 2810SOL    HW2 8487   4.219   1.208   0.374  0.4554 -1.8269  0.7063
 2811SOL     OW 8488   4.205   1.831   2.503 -0.6152 -0.2569 -0.0511
 2811SOL    HW1 8489   4.282   1.773   2.506  0.0014  0.5710  0.5985
 2811SOL    HW2 8490   4.239   1.917   2.528 -1.4154  0.5093 -1.4889
 2812SOL     OW 8491   0.623   4.888   0.797  0.2839  0.1594 -0.3352
 2812SOL    HW1 8492   0.618   4.963   0.857  0.7847  0.1199 -0.2401
 2812SOL    HW2 8493   0.676   4.920   0.724  0.2072  0.0039 -0.4584
 2813SOL     OW 8494   0.614   2.522   1.923 -0.1001  0.6253 -0.2364
 2813SOL    HW1 8495   0.580   2.531   2.011  1.1336  0.6689  0.2647
 2813SOL    HW2 8496   0.674   2.448   1.928 -1.1061 -0.3108 -1.4104
 2814SOL     OW 8497   2.015   3.697   2.398 -0.1556  1.2404  0.1907
 2814SOL    HW1 8498   1.999   3.759   2.469 -1.8297  0.9811  0.0741
 2814SOL    HW2 8499   1.963   3.620   2.421 -0.7644  1.1583 -1.3254
 2815SOL     OW 8500   3.761   2.987   1.705 -0.3076 -0.0130  0.0543
 2815SOL    HW1 8501   3.851   3.013   1.725 -0.4972  1.0203 -0.4039
 2815SOL    HW2 8502   3.757   2.986   1.609 -0.2704 -1.9149  0.0376
 2816SOL     OW 8503   2.268   0.499   2.908 -0.0726 -0.1671 -0.1646
 2816SOL    HW1 8504   2.212   0.437   2.955  1.1562 -0.8721  0.4039
 2816SOL    HW2 8505   2.313   0.549   2.976  0.2864  0.1318 -0.6086
 2817SOL     OW 8506   4.060   4.098   4.194  0.0998  0.8238 -0.1041
 2817SOL    HW1 8507   4.108   4.021   4.164  0.5727  0.6173  1.0999
 2817SOL    HW2 8508   4.120   4.141   4.256 -1.5937 -0.0259  2.2767
 2818SOL     OW 8509   2.294   0.326   4.405 -0.4108 -0.3016 -0.2704
 2818SOL    HW1 8510   2.281   0.315   4.310  0.6383 -0.6283 -0.3845
 2818SOL    HW2 8511   2.352   0.401   4.413 -0.8754  0.0243  0.1511
 2819SOL     OW 8512   3.626   2.797   0.504 -0.2914 -0.0911 -0.4912
 2819SOL    HW1 8513   3.616   2.865   0.571 -0.7100  0.4674 -1.1146
 2819SOL    HW2 8514   3.580   2.721   0.539  0.5521 -0.2018  0.4085
 2820SOL     OW 8515   3.559   0.876   1.798 -0.0951 -0.0190 -0.4355
 2820SOL    HW1 8516   3.559   0.926   1.717  1.8110 -0.0714 -0.5159
 2820SOL    HW2 8517   3.513   0.932   1.861 -1.3316  0.1396 -1.4535
 2821SOL     OW 8518   0.086   3.439   3.281 -0.3135  0.0860 -0.1680
 2821SOL    HW1 8519   0.118   3.519   3.322  0.5040 -0.5756  0.5358
 2821SOL    HW2 8520   0.096   3.454   3.187 -0.5717  0.9639 -0.0639
 2822SOL     OW 8521   0.172   2.869   1.116 -0.4506  0.8550 -0.2207
 2822SOL    HW1 8522   0.215   2.903   1.195 -0.6764 -0.4053  0.4734
 2822SOL    HW2 8523   0.167   2.944   1.058  1.4222  1.3844  0.2155
 2823SOL     OW 8524   0.829   0.677   3.627  0.0881  1.1688 -0.1953
 2823SOL    HW1 8525   0.779   0.608   3.671  1.4427  0.2865  0.0477
 2823SOL    HW2 8526   0.912   0.681   3.675  0.5974  1.9745 -1.0965
 2824SOL     OW 8527   2.580   1.940   4.319 -0.3633  0.5274  0.0493
 2824SOL    HW1 8528   2.646   1.911   4.255  0.3595 -0.9683  1.3857
 2824SOL    HW2 8529   2.604   2.030   4.339  0.8830  0.2296 -0.0196
 2825SOL     OW 8530   1.074   1.452   4.114  0.2173  0.4186  0.3860
 2825SOL    HW1 8531   1.010   1.457   4.043  0.6209  0.5314  0.0257
 2825SOL    HW2 8532   1.134   1.525   4.097  1.0841 -0.3510  0.0936
 2826SOL     OW 8533   3.345   1.909   4.582  0.0713  0.0498 -0.3376
 2826SOL    HW1 8534   3.386   1.885   4.665  0.4170  0.4511 -0.3869
 2826SOL    HW2 8535   3.317   1.825   4.544 -0.3038 -0.1174  0.2862
 2827SOL     OW 8536   2.371   4.229   3.261 -0.2341  0.3924 -0.5849
 2827SOL    HW1 8537   2.453   4.273   3.281  0.0337 -0.4402  0.2514
 2827SOL    HW2 8538   2.303   4.286   3.298  0.0014  0.7698 -0.7275
 2828SOL     OW 8539   2.974   2.237   1.889 -0.0157  0.4268  0.0480
 2828SOL    HW1 8540   3.000   2.291   1.963  1.3726  0.7126 -0.6113
 2828SOL    HW2 8541   2.891   2.275   1.860 -0.4851  0.4228  1.3114
 2829SOL     OW 8542   0.061   2.596   3.142 -0.1151  0.3386  0.1053
 2829SOL    HW1 8543   0.134   2.625   3.197  1.5611 -1.5457 -0.9930
 2829SOL    HW2 8544   0.017   2.529   3.194 -1.6272  2.0192  1.0886
 2830SOL     OW 8545   1.967   1.587   3.743 -0.4444  0.0544 -0.3678
 2830SOL    HW1 8546   2.059   1.573   3.722 -0.2888  0.8762 -0.2871
 2830SOL    HW2 8547   1.919   1.535   3.678  0.0611  0.6748 -1.2568
 2831SOL     OW 8548   4.144   3.284   2.649 -0.0676 -0.5772 -0.3880
 2831SOL    HW1 8549   4.172   3.210   2.703 -1.1707 -1.6795 -1.2571
 2831SOL    HW2 8550   4.061   3.312   2.687  0.8303  0.9218  0.5576
 2832SOL     OW 8551   1.403   0.583   2.017 -0.1838  0.2295 -0.3960
 2832SOL    HW1 8552   1.431   0.638   2.090 -0.0082 -2.0979  1.3939
 2832SOL    HW2 8553   1.308   0.593   2.013 -0.1749  0.4942  0.0265
 2833SOL     OW 8554   4.705   4.948   0.426  0.4315 -0.0263  0.3959
 2833SOL    HW1 8555   4.701   4.914   0.515  1.3741  0.6828  0.7243
 2833SOL    HW2 8556   4.797   4.971   0.413  0.3819 -0.4440 -0.8895
 2834SOL     OW 8557   4.769   1.127   3.251 -0.1542  0.2191 -0.0290
 2834SOL    HW1 8558   4.686   1.104   3.293  0.1034 -1.8283 -0.5675
 2834SOL    HW2 8559   4.817   1.045   3.244  2.5436  1.5414  1.4918
 2835SOL     OW 8560   4.534   3.016   2.444 -0.5456 -0.4501  0.0759
 2835SOL    HW1 8561   4.542   2.925   2.415  0.0489 -1.8234  3.9388
 2835SOL    HW2 8562   4.445   3.023   2.477 -0.0800 -0.2597  1.3777
 2836SOL     OW 8563   2.463   4.668   0.151 -0.5215  0.2234 -0.3694
 2836SOL    HW1 8564   2.387   4.621   0.118 -0.7383  1.2329 -1.4107
 2836SOL    HW2 8565   2.436   4.760   0.148  0.1817  0.4776  0.7847
 2837SOL     OW 8566   1.408   0.845   4.764  0.8334 -0.0570  0.1920
 2837SOL    HW1 8567   1.463   0.805   4.696  0.5833 -0.0702 -0.0052
 2837SOL    HW2 8568   1.354   0.908   4.717  0.8730  0.1523  0.4272
 2838SOL     OW 8569   0.878   4.315   2.496 -0.0377  0.3863  0.3616
 2838SOL    HW1 8570   0.924   4.245   2.449 -0.2453 -0.1932  1.0133
 2838SOL    HW2 8571   0.903   4.395   2.449  3.0127  0.3373  1.6366
 2839SOL     OW 8572   4.104   2.462   0.278  0.0705  0.2931 -0.3163
 2839SOL    HW1 8573   4.156   2.385   0.259  2.6665  1.5522  1.1194
 2839SOL    HW2 8574   4.099   2.465   0.374 -1.3304  1.0731 -0.3834
 2840SOL     OW 8575   4.518   4.697   2.183 -0.8239 -0.0129 -0.3047
 2840SOL    HW1 8576   4.561   4.779   2.156 -0.7962  0.5863  1.4479
 2840SOL    HW2 8577   4.583   4.629   2.165  0.7932  0.8256  1.8853
 2841SOL     OW 8578   0.410   3.908   2.480  0.6499  0.5756 -0.2612
 2841SOL    HW1 8579   0.329   3.958   2.476  0.5723  0.4714 -0.0082
 2841SOL    HW2 8580   0.477   3.973   2.502  0.8645  0.9120 -1.7988
 2842SOL     OW 8581   1.445   3.511   0.173  0.0498 -0.3849  0.1015
 2842SOL    HW1 8582   1.385   3.453   0.127  0.4123 -0.1125 -0.7357
 2842SOL    HW2 8583   1.532   3.484   0.143  0.3393 -0.5867  1.0773
 2843SOL     OW 8584   4.912   3.436   1.404  0.1484 -0.6424 -0.0004
 2843SOL    HW1 8585   5.001   3.468   1.388  0.1084 -0.7527 -0.4645
 2843SOL    HW2 8586   4.868   3.445   1.319  0.2249 -2.1859 -0.2357
 2844SOL     OW 8587   2.208   4.754   2.524 -0.1343 -0.2614 -0.3071
 2844SOL    HW1 8588   2.160   4.728   2.603 -2.1193  0.2749 -1.2655
 2844SOL    HW2 8589   2.283   4.804   2.557  1.0542 -2.9178  1.3361
 2845SOL     OW 8590   4.628   1.254   4.055  0.0641 -0.2271 -0.2026
 2845SOL    HW1 8591   4.601   1.201   4.130 -0.1404  0.1701  0.0043
 2845SOL    HW2 8592   4.722   1.267   4.068  0.1782 -0.7983 -0.4185
 2846SOL     OW 8593   2.600   1.857   2.897  0.9254 -0.2125 -0.7006
 2846SOL    HW1 8594   2.518   1.812   2.917  0.5890  1.0342  0.9671
 2846SOL    HW2 8595   2.660   1.787   2.869 -0.5427 -1.2000 -1.4590
 2847SOL     OW 8596   1.299   4.659   0.888  0.2953  0.6068  0.9465
 2847SOL    HW1 8597   1.210   4.637   0.864 -0.1904  1.3345  1.9987
 2847SOL    HW2 8598   1.348   4.577   0.879  0.1040  0.7314 -2.0365
 2848SOL     OW 8599   1.410   4.360   3.049 -0.3474  0.2508 -0.1164
 2848SOL    HW1 8600   1.399   4.343   2.955  1.0325 -1.9861  0.0694
 2848SOL    HW2 8601   1.320   4.368   3.082 -0.9064 -0.5391 -1.3679
 2849SOL     OW 8602   0.210   0.364   4.511 -0.2887  0.8381  0.0861
 2849SOL    HW1 8603   0.226   0.365   4.605 -0.2345 -0.1276  0.0894
 2849SOL    HW2 8604   0.134   0.422   4.499 -2.3514 -1.4563  1.1220
 2850SOL     OW 8605   1.666   2.611   3.219 -0.0184  0.2515 -0.4244
 2850SOL    HW1 8606   1.583   2.630   3.175  0.0079 -0.8979 -0.9980
 2850SOL    HW2 8607   1.641   2.593   3.310 -0.3245  0.4686 -0.4647
 2851SOL     OW 8608   2.824   2.710   1.387 -0.2657 -0.7886  0.1972
 2851SOL    HW1 8609   2.914   2.740   1.393 -0.3754 -0.5329  0.6447
 2851SOL    HW2 8610   2.811   2.689   1.294 -0.4261  1.3875 -0.3369
 2852SOL     OW 8611   2.779   4.020   0.001 -0.0119  0.3936 -0.2429
 2852SOL    HW1 8612   2.768   3.962   0.076 -0.9264  0.6719 -0.1530
 2852SOL    HW2 8613   2.837   3.972  -0.058 -0.2596 -0.3475  0.1060
 2853SOL     OW 8614   3.906   0.620   1.490  0.3264  0.4636 -0.6635
 2853SOL    HW1 8615   3.926   0.709   1.463 -1.1671  0.9043 -0.4038
 2853SOL    HW2 8616   3.939   0.565   1.419  0.7188  1.2537 -1.1048
 2854SOL     OW 8617   2.369   4.780   2.306 -0.5330  0.2488  0.2917
 2854SOL    HW1 8618   2.440   4.809   2.363 -1.8712  1.3962  1.4345
 2854SOL    HW2 8619   2.294   4.771   2.364 -1.6178  0.1749 -1.0834
 2855SOL     OW 8620   1.935   2.399   0.207 -0.5951  0.1088  0.2332
 2855SOL    HW1 8621   1.985   2.317   0.204  0.6742  0.8733 -0.8622
 2855SOL    HW2 8622   1.952   2.435   0.294 -0.0082 -0.1242  0.2233
 2856SOL     OW 8623   2.510   0.925   1.871  0.2961  0.3107 -0.4839
 2856SOL    HW1 8624   2.601   0.895   1.870  0.5597  0.7799  2.1980
 2856SOL    HW2 8625   2.491   0.948   1.780  2.4374 -0.9510 -1.3195
 2857SOL     OW 8626   4.566   2.986   3.538  0.3156  0.0526  0.4092
 2857SOL    HW1 8627   4.571   3.011   3.446 -0.5635 -1.9894 -0.2596
 2857SOL    HW2 8628   4.472   2.976   3.555  0.5093 -0.4580  1.2605
 2858SOL     OW 8629   2.005   1.458   4.481  0.4181  0.6729 -0.2611
 2858SOL    HW1 8630   2.084   1.463   4.426 -0.7210  0.6678 -1.9773
 2858SOL    HW2 8631   2.021   1.522   4.551  2.0566  0.4610 -0.3882
 2859SOL     OW 8632   4.913   3.313   4.389 -0.3606 -0.1513  0.2437
 2859SOL    HW1 8633   4.969   3.271   4.323 -1.9482 -1.9186 -0.0800
 2859SOL    HW2 8634   4.847   3.360   4.337  1.5682  3.2718  0.5851
 2860SOL     OW 8635   4.176   0.041   3.314  0.5045 -0.3823 -0.0045
 2860SOL    HW1 8636   4.183   0.086   3.398  1.8189 -0.1932 -0.1820
 2860SOL    HW2 8637   4.257   0.064   3.268 -0.1042 -0.6242 -1.2523
 2861SOL     OW 8638   0.604   1.399   2.229  0.5669 -0.1751 -0.3890
 2861SOL    HW1 8639   0.551   1.362   2.158 -0.6447  0.9907 -0.1462
 2861SOL    HW2 8640   0.660   1.327   2.257 -1.3754 -1.7197 -0.2075
 2862SOL     OW 8641   2.451   4.996   3.431 -0.5906  0.2933  0.1218
 2862SOL    HW1 8642   2.417   4.937   3.498 -0.9597  0.7949  0.3866
 2862SOL    HW2 8643   2.434   4.952   3.348  0.7755 -0.8023  0.3903
 2863SOL     OW 8644   2.022   0.800   0.007  0.3279  0.4582 -0.8318
 2863SOL    HW1 8645   1.962   0.815   0.080  1.1387  1.0238 -0.2663
 2863SOL    HW2 8646   2.104   0.774   0.048  1.9873  4.3506 -1.1823
 2864SOL     OW 8647   0.411   1.179   1.487 -0.1844 -0.3658 -0.5279
 2864SOL    HW1 8648   0.423   1.153   1.395  1.1164 -1.5860 -0.0567
 2864SOL    HW2 8649   0.486   1.140   1.532 -0.2996  0.9959  0.9140
 2865SOL     OW 8650   2.053   3.844   4.501 -0.6886 -0.5436 -0.3779
 2865SOL    HW1 8651   2.092   3.837   4.414  0.7183 -0.1053  0.1974
 2865SOL    HW2 8652   2.123   3.876   4.557 -1.5236 -0.9685  0.9666
 2866SOL     OW 8653   1.241   4.875   2.142  0.4242  0.8866  0.5209
 2866SOL    HW1 8654   1.311   4.932   2.111  1.4544 -0.0531  1.0390
 2866SOL    HW2 8655   1.207   4.834   2.063  0.6099  1.1905  0.2823
 2867SOL     OW 8656   1.051   4.788   4.339 -0.4652 -0.0509  0.3683
 2867SOL    HW1 8657   1.088   4.708   4.377 -2.2550 -1.3344 -0.4823
 2867SOL    HW2 8658   0.961   4.792   4.371 -0.6650  1.2057 -0.2481
 2868SOL     OW 8659   1.438   1.777   4.234  0.2171  0.0194  0.4370
 2868SOL    HW1 8660   1.437   1.868   4.265 -1.2331 -0.2502  1.2518
 2868SOL    HW2 8661   1.528   1.764   4.201  0.6543  1.5117  0.9583
 2869SOL     OW 8662   4.970   0.822   1.406  0.2011  0.0769  0.0701
 2869SOL    HW1 8663   4.989   0.904   1.452 -0.3677  0.4984 -0.4280
 2869SOL    HW2 8664   4.882   0.798   1.435  0.4416 -0.4696  0.3645
 2870SOL     OW 8665   0.226   0.897   1.806  0.8575 -0.2051 -0.4694
 2870SOL    HW1 8666   0.230   0.821   1.748  1.2891 -0.4505 -0.1269
 2870SOL    HW2 8667   0.236   0.860   1.894  1.0274  0.2462 -0.2971
 2871SOL     OW 8668   3.445   2.043   4.324  0.0722 -0.4948 -0.1851
 2871SOL    HW1 8669   3.392   1.976   4.368 -0.2386 -0.9023 -1.1533
 2871SOL    HW2 8670   3.388   2.120   4.318  0.0062 -0.5414 -0.1483
 2872SOL     OW 8671   0.557   0.833   2.115  0.4191  0.3457  0.0419
 2872SOL    HW1 8672   0.591   0.848   2.203  0.4449  1.3049 -0.1161
 2872SOL    HW2 8673   0.468   0.867   2.118  0.0558 -0.5717 -0.0262
 2873SOL     OW 8674   3.606   3.802   3.160  0.3603 -0.2879  0.0243
 2873SOL    HW1 8675   3.536   3.867   3.158  0.5784  0.1472  2.6016
 2873SOL    HW2 8676   3.585   3.746   3.235  2.7430 -0.0918  0.9374
 2874SOL     OW 8677   4.047   3.564   4.891  0.1440 -0.3520 -0.4183
 2874SOL    HW1 8678   4.136   3.565   4.927  0.0952 -1.0113 -0.2720
 2874SOL    HW2 8679   4.058   3.597   4.801  0.2974  1.0707  0.0976
 2875SOL     OW 8680   4.174   3.482   0.222 -0.1222 -0.0521  0.3316
 2875SOL    HW1 8681   4.194   3.572   0.247 -0.3934 -0.1621  0.9483
 2875SOL    HW2 8682   4.259   3.437   0.225  0.5107  0.7243 -2.4361
 2876SOL     OW 8683   4.673   4.771   2.410 -0.1015  0.9999 -0.2813
 2876SOL    HW1 8684   4.614   4.741   2.340  0.7952 -0.4056 -0.4820
 2876SOL    HW2 8685   4.660   4.866   2.413 -0.4049  1.0740 -2.1607
 2877SOL     OW 8686   3.849   1.240   4.857  0.6816  0.2421  0.2572
 2877SOL    HW1 8687   3.765   1.276   4.885  0.0410 -0.2815 -0.8833
 2877SOL    HW2 8688   3.863   1.277   4.770  1.6411  0.3143  0.4287
 2878SOL     OW 8689   3.491  -0.012   0.563 -0.1766 -0.4493  0.3725
 2878SOL    HW1 8690   3.473  -0.035   0.654  2.2687  0.8897  1.2958
 2878SOL    HW2 8691   3.545   0.067   0.568 -1.8984  1.0998 -2.3583
 2879SOL     OW 8692   0.868   1.976   0.474  0.6197 -0.3914 -0.0505
 2879SOL    HW1 8693   0.811   1.899   0.481  0.2983 -0.1699 -0.1916
 2879SOL    HW2 8694   0.916   1.962   0.392 -0.5417  0.2838 -0.8674
 2880SOL     OW 8695   2.958   0.625   1.657  0.6475  0.4246  0.0632
 2880SOL    HW1 8696   3.036   0.647   1.709  0.9700  0.9159 -0.6018
 2880SOL    HW2 8697   2.976   0.663   1.571 -0.7002  1.2861  0.1353
 2881SOL     OW 8698   2.855   2.557   2.017  0.5655 -0.7162  0.3820
 2881SOL    HW1 8699   2.926   2.608   1.980  0.0201 -0.9104 -0.9819
 2881SOL    HW2 8700   2.839   2.596   2.103  0.6595  0.9219 -0.3160
 2882SOL     OW 8701   1.214   1.009   4.649 -0.6726 -0.2712  0.5652
 2882SOL    HW1 8702   1.277   1.077   4.670 -0.1012 -0.1815 -1.2554
 2882SOL    HW2 8703   1.133   1.035   4.693 -0.1283  0.9428  0.8659
 2883SOL     OW 8704   2.929   4.378   4.306 -0.2474  0.5991 -0.7125
 2883SOL    HW1 8705   2.851   4.430   4.327  0.9301  1.5682  1.6422
 2883SOL    HW2 8706   2.992   4.442   4.273  0.1722  0.1347 -0.8226
 2884SOL     OW 8707   0.076   3.445   0.715  0.2230  1.1340 -0.2444
 2884SOL    HW1 8708   0.075   3.395   0.633  2.2548  1.3675 -0.4810
 2884SOL    HW2 8709   0.000   3.414   0.764  0.1459 -0.5292 -1.3496
 2885SOL     OW 8710   3.857   3.206   3.140 -0.2318  0.6110 -0.1440
 2885SOL    HW1 8711   3.801   3.252   3.203 -1.5873  1.2164 -1.7282
 2885SOL    HW2 8712   3.797   3.172   3.074  1.2381  1.2170 -1.8860
 2886SOL     OW 8713   4.790   3.330   2.336 -0.1164  0.3497  0.3780
 2886SOL    HW1 8714   4.695   3.332   2.323  0.0277  0.9807 -0.6855
 2886SOL    HW2 8715   4.804   3.259   2.399 -1.2857  0.2281  0.5273
 2887SOL     OW 8716   4.656   4.407   2.720 -0.2295 -0.4124 -0.5761
 2887SOL    HW1 8717   4.594   4.343   2.685  0.2072 -1.1954  0.0812
 2887SOL    HW2 8718   4.649   4.398   2.815  0.0928  0.2736 -0.4841
 2888SOL     OW 8719  -0.021   0.447   1.009  0.2625 -0.2143 -0.1473
 2888SOL    HW1 8720   0.075   0.451   1.010  0.3152  0.1080  2.9689
 2888SOL    HW2 8721  -0.040   0.356   0.988  1.3452 -0.6566  0.6330
 2889SOL     OW 8722   3.882   4.331   4.534  0.1760  0.0122 -0.2411
 2889SOL    HW1 8723   3.951   4.265   4.540  0.4315  0.3834  1.6291
 2889SOL    HW2 8724   3.928   4.412   4.513  0.2984  0.2206  0.8025
 2890SOL     OW 8725   4.151   1.406   0.158  0.2719 -0.0462 -0.1304
 2890SOL    HW1 8726   4.069   1.455   0.167 -0.2514 -0.9138 -0.0347
 2890SOL    HW2 8727   4.125   1.315   0.171  1.0726 -0.4392 -1.2172
 2891SOL     OW 8728   4.492   0.115   0.072  0.1826 -0.4558  0.2971
 2891SOL    HW1 8729   4.514   0.146   0.159  0.8559 -0.1649  0.0274
 2891SOL    HW2 8730   4.424   0.175   0.041  2.4301  1.7079 -0.7702
 2892SOL     OW 8731   3.427   3.740   1.787 -0.4807 -0.6119  0.1430
 2892SOL    HW1 8732   3.477   3.671   1.830 -0.9555 -0.8451  0.3325
 2892SOL    HW2 8733   3.490   3.810   1.771  0.1498 -1.3181 -0.5848
 2893SOL     OW 8734   3.794   1.725   3.860  0.4450 -0.1902 -0.1787
 2893SOL    HW1 8735   3.823   1.636   3.843  1.0041  0.0742 -0.6811
 2893SOL    HW2 8736   3.851   1.779   3.805 -0.7932  0.3808 -0.9415
 2894SOL     OW 8737   2.736   0.339   1.195 -0.0483  0.0217 -0.7632
 2894SOL    HW1 8738   2.683   0.275   1.148 -0.1261  0.3492 -1.1317
 2894SOL    HW2 8739   2.745   0.412   1.133  0.7707 -0.0003 -0.6868
 2895SOL     OW 8740   2.505   1.935   0.803 -0.3990 -0.4596 -0.4080
 2895SOL    HW1 8741   2.575   1.947   0.739  0.7714  1.6652  1.1774
 2895SOL    HW2 8742   2.494   2.020   0.845 -2.0240 -1.4348  1.3506
 2896SOL     OW 8743   2.981   2.504   1.155  0.1170  0.1269  0.2527
 2896SOL    HW1 8744   3.017   2.418   1.132 -1.1533 -0.2863 -0.2589
 2896SOL    HW2 8745   2.997   2.511   1.249  0.0462 -0.7694  0.3440
 2897SOL     OW 8746   2.730   2.489   4.818 -0.1574  0.0101  0.5786
 2897SOL    HW1 8747   2.660   2.553   4.831 -0.5432 -0.3020  0.0668
 2897SOL    HW2 8748   2.684   2.406   4.803  0.3287 -0.2859  0.6983
 2898SOL     OW 8749   1.860   3.443   3.996  0.3058  0.1236  0.7727
 2898SOL    HW1 8750   1.841   3.535   4.016  0.9835  0.3277  0.5310
 2898SOL    HW2 8751   1.855   3.438   3.900  0.0393 -0.1446  0.8023
 2899SOL     OW 8752   0.170   3.086   4.514  0.3504 -0.1380  0.6855
 2899SOL    HW1 8753   0.206   3.108   4.428 -0.5340 -2.3977 -0.3441
 2899SOL    HW2 8754   0.085   3.046   4.494  0.5412 -1.5929  2.5383
 2900SOL     OW 8755   2.752   1.783   1.556  0.2716  0.0616 -0.2833
 2900SOL    HW1 8756   2.657   1.789   1.563  0.3019  0.7368 -0.3011
 2900SOL    HW2 8757   2.768   1.744   1.471  0.0025 -0.9851  0.1336
 2901SOL     OW 8758   3.572   3.267   4.184  0.9409 -0.5414 -0.0396
 2901SOL    HW1 8759   3.557   3.273   4.279  0.9724  0.6155 -0.0883
 2901SOL    HW2 8760   3.488   3.239   4.148  1.0387 -1.3892  0.3534
 2902SOL     OW 8761   2.563   2.195   1.459 -0.2626 -0.2458  0.8671
 2902SOL    HW1 8762   2.534   2.226   1.545 -0.6019  0.9284  0.3436
 2902SOL    HW2 8763   2.659   2.193   1.466 -0.0285  3.2424  0.2176
 2903SOL     OW 8764   3.632   1.527   0.146  0.1193  0.2642  0.0487
 2903SOL    HW1 8765   3.711   1.581   0.158  2.1152 -2.2394 -0.9885
 2903SOL    HW2 8766   3.621   1.481   0.228 -0.3195  0.6266  0.2005
 2904SOL     OW 8767   1.512   4.296   4.596  0.1359  0.0557 -0.0671
 2904SOL    HW1 8768   1.582   4.360   4.581 -1.6750  2.1144 -0.2711
 2904SOL    HW2 8769   1.476   4.280   4.509 -0.6217  0.2413  0.2032
 2905SOL     OW 8770   3.351   2.297   1.541  0.0980  0.2253 -0.2110
 2905SOL    HW1 8771   3.353   2.318   1.634  0.3315  0.8203 -0.3508
 2905SOL    HW2 8772   3.404   2.217   1.533  2.7763  1.9041 -0.2788
 2906SOL     OW 8773   4.251   4.842   1.919  0.3728  0.9049  0.0201
 2906SOL    HW1 8774   4.252   4.917   1.977 -2.1276  0.6005  0.5836
 2906SOL    HW2 8775   4.188   4.866   1.850 -1.0351 -0.8795  0.6071
 2907SOL     OW 8776   4.584   2.828   0.507 -0.4763  0.1813 -0.4939
 2907SOL    HW1 8777   4.575   2.859   0.597  1.8297  1.8591 -0.7553
 2907SOL    HW2 8778   4.554   2.737   0.510  0.3673 -0.0938  2.1884
 2908SOL     OW 8779   4.484  -0.004   1.660  0.3993  0.1940 -0.5783
 2908SOL    HW1 8780   4.545   0.036   1.598 -0.4083  1.2802 -0.6989
 2908SOL    HW2 8781   4.434   0.069   1.695  0.7411 -0.4115  1.2774
 2909SOL     OW 8782   4.299   0.862   2.225 -0.0860  0.4414  0.0492
 2909SOL    HW1 8783   4.310   0.914   2.304 -0.0603  0.0224  0.3290
 2909SOL    HW2 8784   4.360   0.789   2.236 -2.6676 -1.7404  1.4650
 2910SOL     OW 8785   1.409   1.658   4.642  0.0920 -0.8408  0.2645
 2910SOL    HW1 8786   1.489   1.684   4.596  0.1217 -1.2330  0.0944
 2910SOL    HW2 8787   1.413   1.563   4.646  0.1059 -0.8116  1.1172
 2911SOL     OW 8788   0.862   1.907   2.585  0.4740  0.1803 -0.1676
 2911SOL    HW1 8789   0.782   1.939   2.627  1.2131 -0.3194  1.7128
 2911SOL    HW2 8790   0.892   1.836   2.642  2.4386  0.5712 -0.6654
 2912SOL     OW 8791   3.349   4.278   2.660 -0.1941 -0.0868  0.2858
 2912SOL    HW1 8792   3.394   4.229   2.728  0.5233 -0.3153 -0.3370
 2912SOL    HW2 8793   3.290   4.337   2.707  1.4395  0.9134  1.1695
 2913SOL     OW 8794   3.795   3.000   3.429  0.0488  0.1785  0.0335
 2913SOL    HW1 8795   3.733   3.039   3.491 -0.5497 -2.9883  1.6427
 2913SOL    HW2 8796   3.747   2.999   3.346 -0.8556  0.5753  0.5245
 2914SOL     OW 8797   1.746   3.775   0.473 -0.6033 -0.0441 -0.1843
 2914SOL    HW1 8798   1.668   3.727   0.444 -0.2252 -0.5096 -0.4597
 2914SOL    HW2 8799   1.781   3.813   0.393 -0.9094  0.7156  0.0394
 2915SOL     OW 8800   1.274   2.131   3.710 -0.5485 -0.6855 -0.4535
 2915SOL    HW1 8801   1.262   2.226   3.701 -1.8533 -0.6970  0.8555
 2915SOL    HW2 8802   1.204   2.094   3.657 -3.3566 -0.8080  3.0331
 2916SOL     OW 8803   3.197   1.092   0.762 -0.1773  0.0455  0.0565
 2916SOL    HW1 8804   3.200   1.150   0.838 -0.2865  0.4262 -0.2288
 2916SOL    HW2 8805   3.105   1.071   0.751 -0.1695  0.0471 -0.0140
 2917SOL     OW 8806   1.735   2.507   3.484  0.1921 -0.0598  0.0221
 2917SOL    HW1 8807   1.787   2.427   3.480 -0.8275 -0.7114 -2.3253
 2917SOL    HW2 8808   1.795   2.576   3.456  0.5196 -0.3467  0.0067
 2918SOL     OW 8809   2.630   1.336   2.194  0.2046 -0.5438 -0.5950
 2918SOL    HW1 8810   2.658   1.313   2.106  0.3483  0.2685 -0.7718
 2918SOL    HW2 8811   2.545   1.378   2.182 -0.8617 -2.4718 -0.1164
 2919SOL     OW 8812   3.173   1.493   4.123  0.1303  0.1221  0.2984
 2919SOL    HW1 8813   3.139   1.535   4.201 -2.5081 -0.8717 -0.2077
 2919SOL    HW2 8814   3.179   1.400   4.146 -0.4782 -0.1531 -0.5918
 2920SOL     OW 8815   4.719   4.176   3.001  0.2911 -0.4007 -0.6230
 2920SOL    HW1 8816   4.778   4.118   2.953  0.1525 -1.2447  0.1956
 2920SOL    HW2 8817   4.688   4.123   3.074 -1.0095  0.2248 -0.6918
 2921SOL     OW 8818   0.555   0.708   3.547 -0.2787 -0.0343 -0.1689
 2921SOL    HW1 8819   0.644   0.701   3.514 -0.4859 -2.0077 -0.4390
 2921SOL    HW2 8820   0.565   0.743   3.636  0.6762  0.6095 -0.5199
 2922SOL     OW 8821   2.493   2.522   1.537 -0.0076  0.3766  0.1748
 2922SOL    HW1 8822   2.509   2.476   1.454  2.7802  0.1740  0.7553
 2922SOL    HW2 8823   2.440   2.460   1.588 -1.6109  0.4281 -1.3027
 2923SOL     OW 8824   3.791   1.596   2.544  0.6098  0.4370 -0.1109
 2923SOL    HW1 8825   3.727   1.589   2.615  1.7352  1.3070  1.0202
 2923SOL    HW2 8826   3.868   1.633   2.584  1.7735 -0.3420 -1.5146
 2924SOL     OW 8827   4.538   4.509   1.036  0.3083 -0.1991 -0.5881
 2924SOL    HW1 8828   4.448   4.478   1.048 -0.2662  0.2960 -3.0776
 2924SOL    HW2 8829   4.558   4.555   1.117 -0.9838 -1.8865  0.7654
 2925SOL     OW 8830   2.551   2.241   4.239  0.2748  0.5200  0.2052
 2925SOL    HW1 8831   2.481   2.228   4.175 -0.1353  0.3800  0.6741
 2925SOL    HW2 8832   2.570   2.334   4.236  2.0151  0.1756 -1.9249
 2926SOL     OW 8833   1.537   1.744   1.086 -0.0725  0.1304  0.1043
 2926SOL    HW1 8834   1.456   1.693   1.086  0.8610 -1.4200  0.1080
 2926SOL    HW2 8835   1.551   1.768   1.178 -0.0890 -0.3234  0.2251
 2927SOL     OW 8836   0.144   3.844   0.148  0.2756  0.2490  0.6052
 2927SOL    HW1 8837   0.181   3.777   0.205  1.1868  0.1292 -0.1021
 2927SOL    HW2 8838   0.178   3.927   0.183 -0.3606  0.3039  1.1126
 2928SOL     OW 8839   4.134   2.630   1.290  0.0412 -0.2538  0.2152
 2928SOL    HW1 8840   4.188   2.675   1.356  0.4468 -0.4291  0.0009
 2928SOL    HW2 8841   4.168   2.661   1.206  1.6047 -2.3995 -0.0091
 2929SOL     OW 8842   1.540   4.149   2.056  0.5826  0.2855 -0.2459
 2929SOL    HW1 8843   1.550   4.203   1.978 -0.0057 -0.4495 -0.8464
 2929SOL    HW2 8844   1.459   4.101   2.043  0.2528  0.4523  1.0167
 2930SOL     OW 8845   3.875   2.276   0.666 -0.3336  0.3432  0.3775
 2930SOL    HW1 8846   3.784   2.294   0.691 -0.3605  0.1021  0.4642
 2930SOL    HW2 8847   3.908   2.220   0.736 -0.4936 -0.5643 -0.2557
 2931SOL     OW 8848   3.561   4.110   4.161  0.1577  0.2448  0.1066
 2931SOL    HW1 8849   3.504   4.034   4.152  0.1960  0.4191 -2.3563
 2931SOL    HW2 8850   3.643   4.075   4.196  0.4018 -1.0128 -1.6041
 2932SOL     OW 8851   1.049   1.397   4.718  0.0127 -0.4841 -0.4324
 2932SOL    HW1 8852   1.132   1.427   4.755 -0.5850 -0.8972  1.3281
 2932SOL    HW2 8853   1.047   1.303   4.737 -0.6335 -0.5691 -0.9169
 2933SOL     OW 8854   1.391   4.723   2.570  0.6133  0.0492 -0.1046
 2933SOL    HW1 8855   1.464   4.779   2.598 -0.0682  1.3023 -0.7501
 2933SOL    HW2 8856   1.416   4.694   2.482 -0.6133  2.3234 -1.2836
 2934SOL     OW 8857   2.530   4.806   4.448 -0.1522 -0.2204 -0.3577
 2934SOL    HW1 8858   2.443   4.819   4.486 -0.0860 -1.7167  0.3884
 2934SOL    HW2 8859   2.514   4.792   4.355 -0.8915 -1.7890 -0.0412
 2935SOL     OW 8860   0.988   2.165   0.120 -0.0619 -0.2609 -0.2800
 2935SOL    HW1 8861   1.050   2.238   0.107  1.1099 -0.9413  1.1503
 2935SOL    HW2 8862   0.915   2.205   0.168 -0.0803  0.2597 -0.7307
 2936SOL     OW 8863   4.548   1.666   2.746  0.4299  0.0728  0.1801
 2936SOL    HW1 8864   4.636   1.700   2.733  0.4503  0.1873  0.5932
 2936SOL    HW2 8865   4.548   1.633   2.836  0.3453 -0.8211 -0.1404
 2937SOL     OW 8866   1.447   4.631   1.235 -0.3005  0.4814 -0.1800
 2937SOL    HW1 8867   1.407   4.545   1.250  0.9537 -0.0066  0.5959
 2937SOL    HW2 8868   1.508   4.616   1.162  2.0723 -0.1011  1.7805
 2938SOL     OW 8869   2.563   4.883   2.492 -0.2140  0.7668  0.4396
 2938SOL    HW1 8870   2.624   4.957   2.493 -1.6044  1.9748  1.3395
 2938SOL    HW2 8871   2.612   4.811   2.453  1.5522  1.8619  0.5443
 2939SOL     OW 8872   3.490   2.973   4.486  0.1144  0.5553 -0.0853
 2939SOL    HW1 8873   3.555   2.924   4.436 -0.0232 -0.5381  0.7734
 2939SOL    HW2 8874   3.429   3.007   4.420  1.0635  0.8756 -0.8186
 2940SOL     OW 8875   1.392   3.980   1.771  0.2171  0.0150  0.4205
 2940SOL    HW1 8876   1.340   4.009   1.845 -0.0526  0.0096  0.2334
 2940SOL    HW2 8877   1.461   3.925   1.810  0.0303 -0.0517  0.6566
 2941SOL     OW 8878   1.520   1.545   2.032 -0.6584 -0.8266  0.2024
 2941SOL    HW1 8879   1.532   1.572   2.123  1.2831  0.5075 -0.3711
 2941SOL    HW2 8880   1.454   1.606   1.997  1.6282  1.5389 -0.3146
 2942SOL     OW 8881   4.870   4.041   1.088  0.0981  0.4619  0.4777
 2942SOL    HW1 8882   4.937   4.054   1.156  0.2618 -0.3668  0.4846
 2942SOL    HW2 8883   4.788   4.065   1.131  0.2253  0.1284  0.9226
 2943SOL     OW 8884   0.932   2.286   2.343 -0.1268 -0.3747 -0.1646
 2943SOL    HW1 8885   0.876   2.310   2.417 -2.8879  2.8262 -2.9542
 2943SOL    HW2 8886   0.871   2.261   2.274  1.9885  0.8366 -2.6438
 2944SOL     OW 8887   1.868   2.448   3.785 -0.0171 -0.2201 -0.2567
 2944SOL    HW1 8888   1.935   2.444   3.717 -0.3541 -1.2143 -0.5410
 2944SOL    HW2 8889   1.827   2.362   3.784 -0.4163 -0.0611  0.8176
 2945SOL     OW 8890   0.258   0.770   2.736  0.1271  0.1112  0.0553
 2945SOL    HW1 8891   0.227   0.747   2.824 -0.6124  0.2631 -0.1629
 2945SOL    HW2 8892   0.195   0.730   2.677  0.7346 -0.1630 -0.4201
 2946SOL     OW 8893   1.962   4.372   4.782  0.4390 -0.2715  0.3697
 2946SOL    HW1 8894   1.870   4.375   4.756  0.5311 -0.9761 -0.0604
 2946SOL    HW2 8895   1.987   4.280   4.772  1.0339 -0.1936  1.0443
 2947SOL     OW 8896   4.502   3.491   1.640  0.5421  0.2920 -0.1147
 2947SOL    HW1 8897   4.447   3.561   1.604 -0.7581 -0.7642 -0.2433
 2947SOL    HW2 8898   4.444   3.415   1.645  1.7180 -0.5826  0.7371
 2948SOL     OW 8899   4.634   3.959   2.079 -0.3685 -0.3898  0.5465
 2948SOL    HW1 8900   4.578   3.884   2.057  0.9760 -1.5510  0.8816
 2948SOL    HW2 8901   4.592   3.999   2.155 -0.8866 -1.0709  0.6355
 2949SOL     OW 8902   0.406   4.434   1.691 -0.1521 -0.2739  0.3820
 2949SOL    HW1 8903   0.429   4.516   1.648 -1.3940 -0.3578 -0.4950
 2949SOL    HW2 8904   0.413   4.368   1.622  1.8643 -1.1390  1.3136
 2950SOL     OW 8905   0.751   4.203   3.766  0.5293  0.0735  0.4069
 2950SOL    HW1 8906   0.656   4.193   3.773  0.6035 -0.2113  1.0656
 2950SOL    HW2 8907   0.785   4.113   3.773  0.9018  0.2614  1.0304
 2951SOL     OW 8908   1.955   4.061   3.732  0.1814 -0.3789 -0.2340
 2951SOL    HW1 8909   1.938   3.970   3.757 -0.4454  0.2334  1.7470
 2951SOL    HW2 8910   2.018   4.055   3.661 -1.0927 -2.4084 -1.2812
 2952SOL     OW 8911   0.347   3.155   4.070  0.1117 -0.0650 -0.6168
 2952SOL    HW1 8912   0.431   3.192   4.097  0.0476 -0.0051 -0.4958
 2952SOL    HW2 8913   0.369   3.073   4.025  0.3540  0.8060 -2.1565
 2953SOL     OW 8914   0.444   4.184   0.196 -0.2100 -0.3180 -0.2559
 2953SOL    HW1 8915   0.456   4.152   0.106  0.9242  1.4647 -0.7976
 2953SOL    HW2 8916   0.362   4.145   0.224  0.6016 -2.9081 -1.1490
 2954SOL     OW 8917   3.946   3.866   1.272  0.1846  0.6447 -0.1716
 2954SOL    HW1 8918   3.926   3.780   1.310  0.0810  0.5287 -0.4863
 2954SOL    HW2 8919   3.942   3.852   1.178  0.5000  0.9202 -0.2273
 2955SOL     OW 8920   3.849   4.722   0.869 -0.2889  0.1662  0.0682
 2955SOL    HW1 8921   3.934   4.763   0.884  0.1990 -1.1021  0.9552
 2955SOL    HW2 8922   3.824   4.751   0.781  0.8948  0.8384 -0.0683
 2956SOL     OW 8923   2.325   1.550   0.047  0.0849 -0.0558  0.6239
 2956SOL    HW1 8924   2.415   1.518   0.036  0.1136  0.4198 -0.7704
 2956SOL    HW2 8925   2.317   1.619  -0.019 -0.9866  0.6111  1.4283
 2957SOL     OW 8926   1.963   0.409   2.217  0.4606  0.1543 -0.2653
 2957SOL    HW1 8927   1.875   0.390   2.249  0.0513  0.3277 -1.2488
 2957SOL    HW2 8928   1.984   0.334   2.160  0.2558  0.9199 -1.3753
 2958SOL     OW 8929   3.233   4.827   2.495 -0.1718  0.1126  0.4832
 2958SOL    HW1 8930   3.291   4.883   2.546 -0.0425  0.8368 -0.4359
 2958SOL    HW2 8931   3.180   4.887   2.443 -2.1575 -0.5037  1.6842
 2959SOL     OW 8932   2.599   1.412   0.778 -0.2435  0.1697  0.2969
 2959SOL    HW1 8933   2.555   1.466   0.713 -0.7826  0.9521  1.2801
 2959SOL    HW2 8934   2.662   1.471   0.820  0.9875 -0.6487 -0.3302
 2960SOL     OW 8935   2.304   1.186   1.638 -0.4610 -0.4481  0.2291
 2960SOL    HW1 8936   2.297   1.109   1.695  0.7349 -0.3751  0.4923
 2960SOL    HW2 8937   2.290   1.261   1.697 -0.8177 -0.4281  0.1222
 2961SOL     OW 8938   1.200   4.170   4.074 -0.2085 -0.0482  0.1911
 2961SOL    HW1 8939   1.259   4.230   4.029 -0.1778  0.5417  0.9973
 2961SOL    HW2 8940   1.128   4.157   4.012  0.7342 -0.7626 -0.7914
 2962SOL     OW 8941   0.390   3.886   3.907 -0.1982  0.3682  0.1808
 2962SOL    HW1 8942   0.426   3.898   3.995 -0.0487 -0.9393  0.3224
 2962SOL    HW2 8943   0.430   3.955   3.855 -1.0929  1.8126  1.3547
 2963SOL     OW 8944   3.630   4.135   1.728 -0.6049 -0.6882 -0.1473
 2963SOL    HW1 8945   3.704   4.174   1.775  0.2847  0.5764 -2.4292
 2963SOL    HW2 8946   3.555   4.188   1.755  0.1049  0.8181 -1.0022
 2964SOL     OW 8947   1.381   2.144   1.746  0.0888  0.9602 -0.1055
 2964SOL    HW1 8948   1.290   2.124   1.766  0.8281 -0.4496  2.2564
 2964SOL    HW2 8949   1.406   2.210   1.810  0.6171  1.6917 -1.0413
 2965SOL     OW 8950   0.085   2.956   4.200 -0.7043  0.1141 -0.0532
 2965SOL    HW1 8951   0.052   2.885   4.144  2.7929  0.4121 -2.8176
 2965SOL    HW2 8952   0.166   2.921   4.238 -0.4276  1.6784  0.8804
 2966SOL     OW 8953   0.165   3.646   2.353  0.2783 -0.2113  0.0317
 2966SOL    HW1 8954   0.094   3.709   2.365 -0.1808 -0.9698  1.5524
 2966SOL    HW2 8955   0.152   3.613   2.264 -0.2027  0.9472 -0.3450
 2967SOL     OW 8956   3.248   1.168   4.222 -0.6799  0.3911  0.1820
 2967SOL    HW1 8957   3.267   1.075   4.206  0.7897  0.9003 -1.3400
 2967SOL    HW2 8958   3.241   1.175   4.317  2.8668 -0.6885  0.6766
 2968SOL     OW 8959   0.996   2.824   2.650 -0.5962 -0.2360 -0.0996
 2968SOL    HW1 8960   0.958   2.905   2.616 -1.8294 -1.3555 -1.5124
 2968SOL    HW2 8961   1.089   2.831   2.629 -0.7262  0.7356 -0.3942
 2969SOL     OW 8962   0.576   0.452   3.231 -0.0624 -0.7601  0.5502
 2969SOL    HW1 8963   0.497   0.503   3.216  0.3894 -0.3328 -0.4520
 2969SOL    HW2 8964   0.566   0.375   3.175  0.1702 -0.7686  0.5179
 2970SOL     OW 8965   0.323   2.537   2.921  0.5170 -0.0630  0.2989
 2970SOL    HW1 8966   0.276   2.477   2.979 -0.7192  1.5418  1.0536
 2970SOL    HW2 8967   0.307   2.503   2.833  0.2177 -1.0635  0.7266
 2971SOL     OW 8968   3.636   2.998   0.808 -0.0815 -0.5113 -0.4267
 2971SOL    HW1 8969   3.657   2.982   0.901 -1.6031  1.4988  0.3338
 2971SOL    HW2 8970   3.544   2.974   0.800  0.5412 -2.6562 -2.0040
 2972SOL     OW 8971   4.581   1.069   0.597  0.3212 -0.4524 -0.2718
 2972SOL    HW1 8972   4.642   1.061   0.670 -1.3299 -0.1050  1.1959
 2972SOL    HW2 8973   4.581   1.162   0.576  1.6149 -0.6855 -1.5131
 2973SOL     OW 8974   0.055   4.806   3.243  0.1041  0.2061  0.0935
 2973SOL    HW1 8975   0.115   4.762   3.183  0.7975 -0.8772  1.5251
 2973SOL    HW2 8976   0.076   4.899   3.235 -0.4137  0.1997 -1.9431
 2974SOL     OW 8977   4.903   3.225   3.297  0.8970  0.1521 -0.2971
 2974SOL    HW1 8978   4.968   3.294   3.284  1.5890 -0.6287 -1.0557
 2974SOL    HW2 8979   4.913   3.200   3.389  0.3833  1.3096  0.0845
 2975SOL     OW 8980   0.285   0.569   2.441  0.2499 -0.4952  0.3024
 2975SOL    HW1 8981   0.365   0.604   2.480 -0.0055  0.7494 -0.2304
 2975SOL    HW2 8982   0.220   0.573   2.510  0.1231  0.4846  0.1334
 2976SOL     OW 8983   4.406   0.128   3.179 -0.2021 -0.2148  0.9039
 2976SOL    HW1 8984   4.482   0.093   3.133 -0.7372 -0.7402  0.3893
 2976SOL    HW2 8985   4.404   0.221   3.157 -1.6323 -0.8159 -1.9105
 2977SOL     OW 8986   0.443   0.526   1.334  0.2292  1.1660 -0.0147
 2977SOL    HW1 8987   0.481   0.509   1.421  1.1384 -0.8353 -0.7416
 2977SOL    HW2 8988   0.349   0.519   1.347  0.3582  0.8659  0.8161
 2978SOL     OW 8989   4.735   3.898   4.142  0.5679  0.5009 -0.4809
 2978SOL    HW1 8990   4.777   3.879   4.227  0.3290  1.0273 -0.2422
 2978SOL    HW2 8991   4.773   3.834   4.082  0.0379 -0.5005  0.2305
 2979SOL     OW 8992   4.148   4.837   3.849  0.2083 -0.0178  0.0211
 2979SOL    HW1 8993   4.140   4.747   3.880  3.3054 -0.2759  0.3620
 2979SOL    HW2 8994   4.130   4.831   3.755 -2.2896 -0.4291  0.4472
 2980SOL     OW 8995   2.624   2.853   4.041 -0.3169 -0.3642 -0.5099
 2980SOL    HW1 8996   2.566   2.805   3.982 -1.0998  1.6806 -1.5001
 2980SOL    HW2 8997   2.577   2.857   4.123 -0.5079 -0.7539 -0.5984
 2981SOL     OW 8998   4.615   0.993   4.597 -0.4282 -0.1366 -0.6695
 2981SOL    HW1 8999   4.642   0.952   4.679 -1.6239  1.2094  0.4543
 2981SOL    HW2 9000   4.694   0.995   4.544  0.9671  0.9059  1.2979
 2982SOL     OW 9001   4.056   2.749   0.569 -0.0749  0.2024  0.0725
 2982SOL    HW1 9002   4.127   2.813   0.562 -1.1324  1.3650 -0.2341
 2982SOL    HW2 9003   3.978   2.795   0.539 -0.9201 -1.1577  0.0846
 2983SOL     OW 9004   3.330   0.031   2.264  0.3005 -0.0539 -0.0979
 2983SOL    HW1 9005   3.280  -0.021   2.201 -0.0531 -0.0169  0.1510
 2983SOL    HW2 9006   3.417  -0.008   2.264 -0.0680 -0.8944  0.3822
 2984SOL     OW 9007   1.886   1.638   4.138  0.4800  0.5331  0.0057
 2984SOL    HW1 9008   1.886   1.579   4.213 -0.6048  1.4974  0.7904
 2984SOL    HW2 9009   1.797   1.673   4.135  0.7715  1.2162 -1.1704
 2985SOL     OW 9010   0.193   3.014   3.126  0.7251  0.1467  0.1753
 2985SOL    HW1 9011   0.131   3.049   3.063  1.4928  0.3649 -0.4831
 2985SOL    HW2 9012   0.230   2.937   3.084  0.5495 -0.2633  0.7609
 2986SOL     OW 9013   1.323   4.853   3.071 -0.1514  0.0050 -0.6693
 2986SOL    HW1 9014   1.291   4.822   2.987 -2.0825 -0.1225  0.0475
 2986SOL    HW2 9015   1.340   4.774   3.121 -0.2823  0.0808 -0.5030
 2987SOL     OW 9016   0.689   3.020   1.295  0.1649 -0.1678 -0.3316
 2987SOL    HW1 9017   0.626   3.065   1.238  0.7471  1.1560  0.0391
 2987SOL    HW2 9018   0.770   3.020   1.245  0.3258 -0.2371 -0.0712
 2988SOL     OW 9019   4.863   3.969   3.365  0.0791  0.3628  0.1316
 2988SOL    HW1 9020   4.856   3.884   3.408 -1.9836  0.9139  0.9961
 2988SOL    HW2 9021   4.926   4.018   3.418 -0.2466  0.0362  0.8309
 2989SOL     OW 9022   4.494   4.362   3.821 -0.4793  0.2140 -0.0022
 2989SOL    HW1 9023   4.571   4.311   3.848  0.3129  1.4848  0.2057
 2989SOL    HW2 9024   4.493   4.353   3.725 -1.6008 -1.9023  0.1556
 2990SOL     OW 9025   0.438   2.664   1.236 -0.5728  0.2128  0.4204
 2990SOL    HW1 9026   0.458   2.728   1.304  2.3210 -0.6468  0.5131
 2990SOL    HW2 9027   0.382   2.600   1.280  1.4914 -0.5067  2.2145
 2991SOL     OW 9028   0.635   0.874   1.518 -0.3144 -0.0012 -0.0753
 2991SOL    HW1 9029   0.574   0.871   1.444  1.6468 -0.7606 -1.7398
 2991SOL    HW2 9030   0.625   0.963   1.553 -2.9424 -0.3379  0.2866
 2992SOL     OW 9031   1.315   3.514   4.697  0.0359  0.0599 -0.4363
 2992SOL    HW1 9032   1.271   3.570   4.762 -0.3958  0.5155 -1.1057
 2992SOL    HW2 9033   1.306   3.562   4.615 -0.0459 -0.8524 -0.9664
 2993SOL     OW 9034  -0.027   1.077   3.767 -0.0265  0.0578  0.1421
 2993SOL    HW1 9035   0.047   1.032   3.726  0.0935 -0.2348  0.6769
 2993SOL    HW2 9036   0.012   1.128   3.838 -0.1684  0.9746 -0.4131
 2994SOL     OW 9037   4.717   1.017   3.651 -0.3562  0.0519 -0.7693
 2994SOL    HW1 9038   4.775   1.059   3.714 -0.3686  0.7713 -1.2299
 2994SOL    HW2 9039   4.760   0.934   3.632 -0.0231  0.1081 -0.3038
 2995SOL     OW 9040   2.913   1.847   3.561 -0.1781  0.3075 -0.1604
 2995SOL    HW1 9041   2.993   1.813   3.599  0.0742  0.7176 -0.3156
 2995SOL    HW2 9042   2.843   1.809   3.614  0.2068  2.1655  1.8102
 2996SOL     OW 9043   1.004   0.778   3.961  0.6443  0.4331 -0.3298
 2996SOL    HW1 9044   1.089   0.813   3.936  1.0621 -0.7027 -0.5431
 2996SOL    HW2 9045   1.009   0.685   3.940  1.1157 -0.7586  4.0675
 2997SOL     OW 9046   1.800   0.089   3.813 -0.0732 -0.1109 -0.5837
 2997SOL    HW1 9047   1.844   0.087   3.898  0.2657 -0.0942 -0.7540
 2997SOL    HW2 9048   1.783   0.182   3.796  0.7084 -0.0237 -0.9545
 2998SOL     OW 9049   3.481   0.615   1.785 -0.3184  0.2174 -0.2872
 2998SOL    HW1 9050   3.507   0.704   1.764  1.1784 -0.1860 -0.2715
 2998SOL    HW2 9051   3.406   0.598   1.729  0.5272  0.8612 -1.6682
 2999SOL     OW 9052   3.420   3.435   0.512 -0.3797  0.7944 -0.8256
 2999SOL    HW1 9053   3.384   3.521   0.534  1.1325  1.0333  0.9677
 2999SOL    HW2 9054   3.443   3.397   0.597 -1.6154 -1.6920 -1.5260
 3000SOL     OW 9055   2.427   0.707   4.922 -0.8941  0.0091 -0.6012
 3000SOL    HW1 9056   2.490   0.715   4.993 -0.7700  0.9585 -0.8090
 3000SOL    HW2 9057   2.433   0.790   4.875 -2.2747  0.1079 -0.6444
 3001SOL     OW 9058   3.345   3.182   0.823 -0.1535 -0.1574  0.5426
 3001SOL    HW1 9059   3.414   3.247   0.836  0.7060 -1.0171  0.4125
 3001SOL    HW2 9060   3.273   3.231   0.784 -0.1343  1.0304  1.9204
 3002SOL     OW 9061   2.847   1.778   3.294  0.4259 -0.2805  0.6560
 3002SOL    HW1 9062   2.807   1.854   3.253  0.3382 -0.2651  0.7685
 3002SOL    HW2 9063   2.896   1.813   3.369  0.9003 -0.2676  0.3407
 3003SOL     OW 9064   4.068   3.747   2.164  0.0771 -0.5124  0.1618
 3003SOL    HW1 9065   4.067   3.720   2.256 -0.2281 -2.1409 -0.2748
 3003SOL    HW2 9066   3.975   3.747   2.139  0.1516  0.0273 -0.1210
 3004SOL     OW 9067   0.104   1.593   3.578  0.4329  0.2882 -0.6599
 3004SOL    HW1 9068   0.047   1.525   3.614  0.1706 -0.4423 -2.3351
 3004SOL    HW2 9069   0.080   1.672   3.625 -0.5828 -0.4094  0.0407
 3005SOL     OW 9070   4.325   3.956   3.549  0.0194 -0.3232  0.3871
 3005SOL    HW1 9071   4.328   3.863   3.572  3.3228 -0.5139 -0.3425
 3005SOL    HW2 9072   4.351   4.002   3.629 -0.7798 -0.0498  0.5035
 3006SOL     OW 9073   0.787   3.011   4.533  0.2929 -0.1446  0.5275
 3006SOL    HW1 9074   0.816   2.927   4.570  2.4029 -0.3999 -1.4652
 3006SOL    HW2 9075   0.693   3.013   4.548  0.3366 -2.4550  1.4570
 3007SOL     OW 9076   0.126   4.447   2.252 -0.2481 -0.0556 -0.0081
 3007SOL    HW1 9077   0.145   4.428   2.160 -0.6939 -0.7644  0.0381
 3007SOL    HW2 9078   0.194   4.402   2.301  0.4872  1.0088 -0.0051
 3008SOL     OW 9079   2.709   2.023   3.554  0.7004  0.0134 -0.8216
 3008SOL    HW1 9080   2.724   2.072   3.635  0.3986  2.8600 -2.3405
 3008SOL    HW2 9081   2.780   1.959   3.552  1.8675  1.1475  0.7919
 3009SOL     OW 9082   3.868   4.041   3.279  0.0471 -0.3543  0.0314
 3009SOL    HW1 9083   3.877   3.963   3.333  1.8173 -1.0105 -1.1402
 3009SOL    HW2 9084   3.923   4.025   3.203 -0.2159  1.6912 -0.6650
 3010SOL     OW 9085   2.958   2.308   2.222 -0.0678  0.3919 -0.1897
 3010SOL    HW1 9086   2.925   2.270   2.303  1.2276  2.0729  1.2051
 3010SOL    HW2 9087   2.896   2.377   2.201  0.5644  1.1747  0.4369
 3011SOL     OW 9088   1.519   3.907   1.346 -0.1647 -0.6955  0.0173
 3011SOL    HW1 9089   1.583   3.844   1.379  0.3922  0.1723  0.6388
 3011SOL    HW2 9090   1.487   3.869   1.265  1.5575 -0.9038 -0.6127
 3012SOL     OW 9091   2.632   2.857   3.011  0.3939 -1.0311 -0.1455
 3012SOL    HW1 9092   2.717   2.884   3.047 -0.6637 -0.3292  2.0115
 3012SOL    HW2 9093   2.580   2.937   3.013 -0.6156 -1.6671 -0.5116
 3013SOL     OW 9094   2.172   2.090   3.347  0.0642  0.2953 -0.5616
 3013SOL    HW1 9095   2.159   2.143   3.268  0.9360  0.5119 -0.5770
 3013SOL    HW2 9096   2.254   2.124   3.385 -0.1757 -0.0246  0.2582
 3014SOL     OW 9097   3.389   2.110   3.556 -0.4308  0.4687  0.2297
 3014SOL    HW1 9098   3.423   2.157   3.480 -0.8373  0.9871  0.3654
 3014SOL    HW2 9099   3.455   2.122   3.624 -0.6758  1.1029  0.3581
 3015SOL     OW 9100   3.796   1.608   4.542 -0.2027  0.4530  0.0235
 3015SOL    HW1 9101   3.727   1.668   4.515 -0.3659 -0.8119 -2.6904
 3015SOL    HW2 9102   3.868   1.625   4.482  0.4203 -0.8100  0.3672
 3016SOL     OW 9103   0.801   2.092   0.849  0.2414 -1.6791 -0.2510
 3016SOL    HW1 9104   0.706   2.094   0.846  0.2305 -1.0015  0.2500
 3016SOL    HW2 9105   0.823   2.130   0.934  0.9589 -1.7188 -0.4128
 3017SOL     OW 9106   2.745   3.330   1.985 -0.0820  0.4996  0.3844
 3017SOL    HW1 9107   2.823   3.305   1.936 -0.8650  0.6002 -0.9627
 3017SOL    HW2 9108   2.732   3.259   2.048 -0.0566 -0.5525 -0.7558
 3018SOL     OW 9109   2.355   4.162   1.358  0.2228  0.6071  0.1540
 3018SOL    HW1 9110   2.310   4.208   1.429 -0.4375  0.7110 -0.3116
 3018SOL    HW2 9111   2.418   4.226   1.324  0.4846  0.5832  0.5869
 3019SOL     OW 9112   4.656   0.296   1.061  0.3752 -0.1390  0.2235
 3019SOL    HW1 9113   4.732   0.261   1.015 -0.7309 -0.1900 -1.6429
 3019SOL    HW2 9114   4.599   0.220   1.075 -0.5402  0.3189 -0.8731
 3020SOL     OW 9115   0.127   4.563   2.507  0.4199  0.0624 -0.7282
 3020SOL    HW1 9116   0.035   4.581   2.523  0.8667  0.4813  1.7844
 3020SOL    HW2 9117   0.131   4.540   2.414 -1.8841  1.9529 -1.3951
 3021SOL     OW 9118   2.490   2.708   1.795  0.2995  0.0758  0.2141
 3021SOL    HW1 9119   2.557   2.659   1.746 -1.4349 -1.6748 -0.5320
 3021SOL    HW2 9120   2.506   2.800   1.773  2.3836 -0.2757  0.0119
 3022SOL     OW 9121   4.689   4.346   4.859  1.0371 -0.0151 -0.4064
 3022SOL    HW1 9122   4.678   4.437   4.832  0.4516 -0.1517 -0.6478
 3022SOL    HW2 9123   4.606   4.324   4.902  1.1735 -0.4335 -0.3546
 3023SOL     OW 9124   4.867   3.728   3.981  0.1420  0.0809 -0.0794
 3023SOL    HW1 9125   4.909   3.668   4.043  1.2022 -3.7418 -3.9802
 3023SOL    HW2 9126   4.940   3.778   3.944  0.3460 -1.3016 -1.6633
 3024SOL     OW 9127   3.140   0.733   4.631  0.3747 -0.0569 -0.2826
 3024SOL    HW1 9128   3.071   0.799   4.629 -0.4565 -0.8415  0.9634
 3024SOL    HW2 9129   3.213   0.772   4.583 -0.8771  0.8530 -1.5238
 3025SOL     OW 9130   4.795   1.014   2.124 -0.2390 -0.0271 -0.0187
 3025SOL    HW1 9131   4.750   1.051   2.201 -0.2496 -1.1454  0.5262
 3025SOL    HW2 9132   4.884   0.998   2.153 -0.1586 -0.1745 -0.3393
 3026SOL     OW 9133   4.303   0.450   3.585 -0.1681 -0.0617  0.2334
 3026SOL    HW1 9134   4.302   0.491   3.499  0.3529 -0.2411  0.1435
 3026SOL    HW2 9135   4.323   0.521   3.646  2.3164 -0.4294 -0.0659
 3027SOL     OW 9136   2.653   0.143   1.849  0.3202  0.0024  0.2577
 3027SOL    HW1 9137   2.640   0.216   1.788 -1.6863 -0.8798 -0.4433
 3027SOL    HW2 9138   2.609   0.170   1.929  1.9955  0.6881  0.9963
 3028SOL     OW 9139   3.047   4.747   1.438 -0.0239  0.2266  0.1775
 3028SOL    HW1 9140   3.124   4.753   1.494  1.5358  2.0149 -1.9956
 3028SOL    HW2 9141   3.073   4.689   1.366 -1.3619 -0.6054  0.3225
 3029SOL     OW 9142   2.052   1.886   4.323 -0.1773 -0.0407  0.3268
 3029SOL    HW1 9143   1.984   1.894   4.256  0.3719  0.5068 -0.1799
 3029SOL    HW2 9144   2.010   1.837   4.394 -0.6534 -0.9823 -0.5723
 3030SOL     OW 9145   0.677   3.153   1.862  0.3339 -0.3309  0.3920
 3030SOL    HW1 9146   0.735   3.164   1.787  0.5796 -1.6461  0.3700
 3030SOL    HW2 9147   0.592   3.130   1.823  0.2932 -0.3548  0.4947
 3031SOL     OW 9148   1.535   0.737   2.274 -0.1838  0.3280  0.0539
 3031SOL    HW1 9149   1.590   0.667   2.307 -0.2692 -0.6163 -1.6919
 3031SOL    HW2 9150   1.445   0.709   2.292 -0.2125  0.0405 -0.5119
 3032SOL     OW 9151   2.886   1.609   3.050 -0.2857  0.2691 -0.4599
 3032SOL    HW1 9152   2.880   1.670   3.123 -0.9574  0.6895 -0.8591
 3032SOL    HW2 9153   2.823   1.642   2.985 -3.3969 -2.7990  0.7272
 3033SOL     OW 9154   4.551   3.411   0.817  0.1379 -0.3823  0.2569
 3033SOL    HW1 9155   4.546   3.478   0.885  0.8753  0.1247 -0.1727
 3033SOL    HW2 9156   4.491   3.441   0.749  0.6445 -0.0329 -0.0383
 3034SOL     OW 9157   3.771   2.090   2.011  0.5038 -0.4696 -0.0252
 3034SOL    HW1 9158   3.765   2.059   2.101 -1.7584 -1.2873 -0.3798
 3034SOL    HW2 9159   3.814   2.018   1.964  1.2460 -0.2504  0.3224
 3035SOL     OW 9160   3.674   3.301   1.298  0.3782  0.0566 -0.9942
 3035SOL    HW1 9161   3.585   3.334   1.307  0.0452 -0.7068 -1.3940
 3035SOL    HW2 9162   3.727   3.359   1.352 -0.8185 -1.4468  1.9836
 3036SOL     OW 9163   0.962   4.326   0.447 -0.3283  0.0325  0.0502
 3036SOL    HW1 9164   0.930   4.413   0.472 -1.4160 -0.0916 -0.8196
 3036SOL    HW2 9165   1.057   4.333   0.455 -0.1306  2.2168 -2.6219
 3037SOL     OW 9166   3.584   2.900   3.733 -0.1105  0.1697 -0.1592
 3037SOL    HW1 9167   3.523   2.836   3.697  0.3067 -0.3620  0.0662
 3037SOL    HW2 9168   3.563   2.982   3.688 -2.4486  0.5498  1.4053
 3038SOL     OW 9169   3.060   4.370   0.975 -0.3507 -0.2618 -0.4923
 3038SOL    HW1 9170   3.022   4.410   0.897 -2.2388 -1.7955 -0.4276
 3038SOL    HW2 9171   3.151   4.400   0.975 -0.2364 -0.3502 -3.3626
 3039SOL     OW 9172   2.767   3.719   4.426  0.1249 -0.5009 -0.1841
 3039SOL    HW1 9173   2.839   3.656   4.415  0.1111 -0.4756 -0.4096
 3039SOL    HW2 9174   2.811   3.801   4.448  0.0900 -0.9754  1.9572
 3040SOL     OW 9175   4.256   2.384   4.705  0.0136 -0.1845 -0.2220
 3040SOL    HW1 9176   4.273   2.478   4.698  2.0706 -0.3054  1.8073
 3040SOL    HW2 9177   4.161   2.375   4.690 -0.8183  2.6175  2.3272
 3041SOL     OW 9178   1.735   0.302   2.310 -0.5392 -0.3236 -0.4170
 3041SOL    HW1 9179   1.675   0.246   2.260  2.5261 -2.4741 -1.9959
 3041SOL    HW2 9180   1.764   0.247   2.383  1.6895 -0.4714 -1.3529
 3042SOL     OW 9181   3.792   3.705   2.576 -0.2736 -0.4498  0.2208
 3042SOL    HW1 9182   3.734   3.671   2.644  0.6805  0.2650  1.4429
 3042SOL    HW2 9183   3.835   3.780   2.618  1.3974 -0.8574 -0.6892
 3043SOL     OW 9184   4.623   4.598   4.757  0.0050  0.3085 -0.2141
 3043SOL    HW1 9185   4.577   4.650   4.823 -2.3219 -2.9938  1.0490
 3043SOL    HW2 9186   4.554   4.564   4.701  1.5487 -0.3659 -1.8128
 3044SOL     OW 9187   0.203   2.130   3.934  0.3645 -0.4464  0.4136
 3044SOL    HW1 9188   0.179   2.123   4.027  0.3031  0.5111  0.4843
 3044SOL    HW2 9189   0.200   2.040   3.902  0.1300 -0.7635  1.2770
 3045SOL     OW 9190   3.893   1.605   1.381 -0.1539 -0.8695 -0.4738
 3045SOL    HW1 9191   3.806   1.606   1.421 -0.0784  0.5373 -0.2825
 3045SOL    HW2 9192   3.937   1.681   1.419  1.3282 -1.8085 -0.2386
 3046SOL     OW 9193   3.124   1.063   2.542  0.1330  0.3578  0.6576
 3046SOL    HW1 9194   3.042   1.049   2.589  0.0435 -1.5740  0.0393
 3046SOL    HW2 9195   3.138   1.157   2.545 -0.4653  0.4392  3.5235
 3047SOL     OW 9196   3.499   4.408   2.909  0.0625 -0.0411  0.3021
 3047SOL    HW1 9197   3.583   4.444   2.937 -0.8669  0.9209  2.0481
 3047SOL    HW2 9198   3.491   4.326   2.958 -0.1284  0.0114  0.3603
 3048SOL     OW 9199   0.504   3.068   4.462 -0.3823 -0.1064  0.0390
 3048SOL    HW1 9200   0.485   3.144   4.407 -1.9266  0.5503  1.3922
 3048SOL    HW2 9201   0.438   3.003   4.438 -0.3031 -0.2794  0.2824
 3049SOL     OW 9202   0.171   0.135   3.498 -0.5739 -0.5700  0.0348
 3049SOL    HW1 9203   0.127   0.220   3.510 -1.2421 -1.2915  3.6440
 3049SOL    HW2 9204   0.115   0.088   3.436 -1.8542  0.5195  0.3217
 3050SOL     OW 9205   2.183   3.099   2.414  0.4739 -0.0624 -0.5215
 3050SOL    HW1 9206   2.206   3.100   2.321  0.0797 -1.0906 -0.6347
 3050SOL    HW2 9207   2.197   3.190   2.442  1.0487  0.1616 -1.4642
 3051SOL     OW 9208   3.463   3.356   0.204  0.2014  0.5126 -0.5655
 3051SOL    HW1 9209   3.473   3.451   0.201  1.2689  0.4538  0.5137
 3051SOL    HW2 9210   3.552   3.322   0.196  0.0799 -0.3152  1.1599
 3052SOL     OW 9211   3.402   0.464   2.578  0.2646 -0.3151 -0.0702
 3052SOL    HW1 9212   3.475   0.434   2.524  0.6546 -0.7954  0.7027
 3052SOL    HW2 9213   3.366   0.385   2.617 -1.1078 -0.1612 -0.9411
 3053SOL     OW 9214   4.715   3.787   1.741 -0.5357 -0.0990 -0.0634
 3053SOL    HW1 9215   4.754   3.803   1.827  1.0472  1.7862 -1.0623
 3053SOL    HW2 9216   4.760   3.708   1.710  2.5831  1.8830 -1.0872
 3054SOL     OW 9217   0.939   2.809   0.686  0.1678 -0.5043  0.4176
 3054SOL    HW1 9218   0.941   2.866   0.609 -2.4386  3.1587  2.7447
 3054SOL    HW2 9219   0.870   2.746   0.666 -0.6094  0.5039 -0.2331
 3055SOL     OW 9220   4.597   3.104   3.297  0.2752  0.2399 -0.0753
 3055SOL    HW1 9221   4.654   3.118   3.222  0.6533 -0.8124  0.0029
 3055SOL    HW2 9222   4.575   3.193   3.327 -0.5460  0.7122 -1.8960
 3056SOL     OW 9223   2.665   2.081   4.586 -0.6080  0.6766  0.3046
 3056SOL    HW1 9224   2.750   2.124   4.571  0.0354  0.7270  3.3830
 3056SOL    HW2 9225   2.605   2.153   4.605 -0.2838  0.5059  2.2420
 3057SOL     OW 9226   1.193   3.794   2.044  0.7442 -0.4953 -0.1789
 3057SOL    HW1 9227   1.175   3.887   2.028  1.1544 -0.7668 -2.5474
 3057SOL    HW2 9228   1.169   3.751   1.962  0.6413 -2.4849  0.8557
 3058SOL     OW 9229   1.176   1.599   3.615  0.3625  0.0548 -0.3539
 3058SOL    HW1 9230   1.232   1.576   3.689 -0.1417 -0.1143 -0.0248
 3058SOL    HW2 9231   1.182   1.695   3.609 -0.2101  0.1386  0.3904
 3059SOL     OW 9232   3.355   1.079   1.169 -0.4169  0.1309  0.0219
 3059SOL    HW1 9233   3.294   1.042   1.233 -1.1976  0.5895 -0.4352
 3059SOL    HW2 9234   3.318   1.053   1.084  0.5441 -0.3823 -0.2482
 3060SOL     OW 9235   4.086   0.958   1.133 -0.2422 -0.0371  0.0012
 3060SOL    HW1 9236   4.161   0.905   1.159  0.1157  0.3363 -0.2590
 3060SOL    HW2 9237   4.010   0.905   1.156  0.0949 -0.2577  0.6158
 3061SOL     OW 9238   2.765   0.543   1.003  0.1858  0.1117  0.1196
 3061SOL    HW1 9239   2.672   0.557   0.982 -0.1266  0.2476  1.4958
 3061SOL    HW2 9240   2.808   0.624   0.979  0.1528 -0.3244 -1.5321
 3062SOL     OW 9241   1.278   3.324   1.739 -0.1920  0.0987 -0.2664
 3062SOL    HW1 9242   1.358   3.274   1.754 -0.2429  0.6706  2.2680
 3062SOL    HW2 9243   1.211   3.257   1.723  0.7716 -0.3740 -2.7573
 3063SOL     OW 9244   0.529   2.541   4.041  0.1967 -0.0218 -0.2569
 3063SOL    HW1 9245   0.542   2.499   3.956 -0.1487 -0.7342  0.0374
 3063SOL    HW2 9246   0.552   2.474   4.105  0.4110  0.4966  0.2181
 3064SOL     OW 9247   0.949   2.341   0.496 -0.5600  0.0612  0.2722
 3064SOL    HW1 9248   0.997   2.340   0.579 -0.0583 -2.3069  0.0158
 3064SOL    HW2 9249   0.985   2.415   0.448  0.5302  0.2876  1.3933
 3065SOL     OW 9250   3.512   4.655   1.641  0.0025 -0.1145  0.2973
 3065SOL    HW1 9251   3.489   4.748   1.650  0.5532 -0.0733  1.3363
 3065SOL    HW2 9252   3.429   4.609   1.648 -0.0401  0.1704  1.9513
 3066SOL     OW 9253   4.044   3.422   1.825  0.1572 -0.3398 -0.1508
 3066SOL    HW1 9254   4.129   3.385   1.802 -0.1452  0.0505 -2.1094
 3066SOL    HW2 9255   4.062   3.512   1.849  0.1818  0.2782 -2.2553
 3067SOL     OW 9256   1.587   1.312   2.173  0.0149  0.0749  0.3969
 3067SOL    HW1 9257   1.533   1.344   2.100  1.4623  1.4131 -0.1527
 3067SOL    HW2 9258   1.602   1.389   2.228  0.1288 -0.6086  1.3470
 3068SOL     OW 9259   0.260   3.157   4.756 -0.1237 -0.6579  0.4898
 3068SOL    HW1 9260   0.222   3.127   4.673 -0.3561  1.3427 -0.2090
 3068SOL    HW2 9261   0.194   3.136   4.822 -0.3574 -1.4432  0.0120
 3069SOL     OW 9262   0.859   2.634   2.178  0.6236 -0.2283  0.1361
 3069SOL    HW1 9263   0.918   2.702   2.146 -0.6618  0.5953 -0.5767
 3069SOL    HW2 9264   0.822   2.671   2.258  0.0228 -0.1337 -0.1818
 3070SOL     OW 9265   0.324   0.224   2.331 -0.3108  0.1009 -0.7243
 3070SOL    HW1 9266   0.406   0.271   2.350  0.4510 -0.6586 -1.9847
 3070SOL    HW2 9267   0.279   0.221   2.415  0.2467  1.8613 -0.3158
 3071SOL     OW 9268   0.130   0.509   0.431  0.3560 -1.1399  0.7707
 3071SOL    HW1 9269   0.218   0.518   0.467  0.7712 -0.7131 -0.3304
 3071SOL    HW2 9270   0.075   0.560   0.490  1.4261  1.9244 -0.7016
 3072SOL     OW 9271   0.648   4.472   1.834 -0.8208 -0.2968  0.2582
 3072SOL    HW1 9272   0.619   4.523   1.910 -0.6391 -0.7966  0.6662
 3072SOL    HW2 9273   0.567   4.447   1.790 -1.0183 -1.4389  1.2312
 3073SOL     OW 9274   4.768   1.845   2.696 -0.0827 -0.1629 -0.5728
 3073SOL    HW1 9275   4.818   1.822   2.618 -0.3094 -1.0612 -0.4694
 3073SOL    HW2 9276   4.716   1.921   2.671  0.9012  0.4211 -0.8595
 3074SOL     OW 9277   0.666   2.411   3.524 -0.5513 -0.1371 -0.1042
 3074SOL    HW1 9278   0.671   2.507   3.515  0.4608 -0.2151 -0.4810
 3074SOL    HW2 9279   0.735   2.378   3.467 -0.7284 -1.0928  0.2202
 3075SOL     OW 9280   0.209   2.821   4.850 -0.0634 -0.0466 -0.0140
 3075SOL    HW1 9281   0.256   2.777   4.779  0.9563 -0.7116  1.0358
 3075SOL    HW2 9282   0.277   2.867   4.899 -0.3145 -1.6696  2.0169
 3076SOL     OW 9283   2.545   4.438   3.316  0.0108  0.0827 -0.2195
 3076SOL    HW1 9284   2.463   4.483   3.336  0.2249 -0.2175  1.4669
 3076SOL    HW2 9285   2.608   4.473   3.379  0.9579 -0.3574 -0.8897
 3077SOL     OW 9286   0.089   2.285   1.564  0.0851  0.4965  0.1765
 3077SOL    HW1 9287   0.119   2.308   1.652 -0.2754  0.1502  0.3960
 3077SOL    HW2 9288   0.121   2.195   1.551  2.0564  1.2905 -0.9306
 3078SOL     OW 9289   3.660   4.318   2.214 -0.2408 -0.6234  0.2428
 3078SOL    HW1 9290   3.635   4.281   2.298  0.8252  0.5571  1.1397
 3078SOL    HW2 9291   3.672   4.243   2.156 -0.5414 -1.4914  1.2865
 3079SOL     OW 9292   2.628   1.788   0.499 -0.1245 -0.2263  0.5281
 3079SOL    HW1 9293   2.669   1.826   0.576 -0.2478 -0.2186  0.5895
 3079SOL    HW2 9294   2.702   1.760   0.444 -0.0046  1.0592 -0.0075
 3080SOL     OW 9295   3.165   3.355   1.650  0.2532  0.0862  0.6712
 3080SOL    HW1 9296   3.177   3.402   1.733 -1.2342 -0.0296  0.9643
 3080SOL    HW2 9297   3.164   3.424   1.584  1.3276  0.1875  0.7408
 3081SOL     OW 9298   3.721   1.573   2.216 -0.9781 -0.3279 -0.0037
 3081SOL    HW1 9299   3.667   1.598   2.291 -2.1555 -1.3937 -0.4581
 3081SOL    HW2 9300   3.717   1.477   2.215  0.5096 -0.4164 -0.3788
 3082SOL     OW 9301   0.987   4.292   2.168  0.0395 -0.5197 -0.5302
 3082SOL    HW1 9302   0.903   4.250   2.151 -0.4815  1.1618 -2.4617
 3082SOL    HW2 9303   1.005   4.343   2.089  3.0561 -1.0765 -0.3217
 3083SOL     OW 9304   2.983   4.827   4.103  0.5625  0.1442 -0.3856
 3083SOL    HW1 9305   3.065   4.863   4.071  0.5807 -0.3283 -0.8791
 3083SOL    HW2 9306   2.946   4.896   4.159  2.5842 -0.5989  2.0702
 3084SOL     OW 9307   0.562   1.093   4.943  0.2043 -0.0101 -0.0388
 3084SOL    HW1 9308   0.503   1.159   4.906  0.0867 -1.0339 -1.8359
 3084SOL    HW2 9309   0.506   1.038   4.997 -0.0283  0.3959  0.1313
 3085SOL     OW 9310   3.139   1.769   1.428  0.2199  0.0125  0.1318
 3085SOL    HW1 9311   3.206   1.744   1.365  0.1704 -1.0734  0.4872
 3085SOL    HW2 9312   3.188   1.800   1.504  0.2974  3.4075 -1.1422
 3086SOL     OW 9313   3.756   3.588   4.549 -0.1822  0.4416 -0.1359
 3086SOL    HW1 9314   3.701   3.582   4.628  0.9236  1.1199  0.7025
 3086SOL    HW2 9315   3.789   3.499   4.537 -0.1430  0.3894  0.3267
 3087SOL     OW 9316   2.145   1.401   0.180  0.1986  0.1969 -0.3584
 3087SOL    HW1 9317   2.201   1.376   0.253 -0.7036 -0.3326  0.1665
 3087SOL    HW2 9318   2.204   1.443   0.118  0.9397  0.9124  0.7946
 3088SOL     OW 9319   4.351   2.999   4.835 -0.8014  0.0744 -0.2691
 3088SOL    HW1 9320   4.293   3.024   4.906  1.6541  0.6053  1.7117
 3088SOL    HW2 9321   4.326   2.909   4.814 -1.2514 -0.3096  1.7149
 3089SOL     OW 9322   3.056   2.045   1.487  0.2275 -0.4106  0.5783
 3089SOL    HW1 9323   3.110   2.074   1.560  0.3829  0.2412  0.2131
 3089SOL    HW2 9324   3.071   1.951   1.482  1.2814 -0.2539  0.5301
 3090SOL     OW 9325   1.925   1.105   2.368 -0.3055  0.4193 -0.1967
 3090SOL    HW1 9326   1.994   1.103   2.434 -0.1633  1.9318 -0.2561
 3090SOL    HW2 9327   1.851   1.059   2.408 -0.3754  1.6739  1.2166
 3091SOL     OW 9328   4.240   4.730   2.520 -0.0735 -0.8220  0.0542
 3091SOL    HW1 9329   4.166   4.786   2.498  0.4382  0.0806  0.5445
 3091SOL    HW2 9330   4.260   4.682   2.439  0.9325  1.4226 -1.1196
 3092SOL     OW 9331   4.090   3.746   3.234  0.2030 -0.6709  0.3525
 3092SOL    HW1 9332   4.167   3.780   3.281 -0.0497  0.0524  0.2589
 3092SOL    HW2 9333   4.087   3.797   3.153  1.3563 -2.7401 -1.0972
 3093SOL     OW 9334   0.938   2.350   1.577  0.3024  0.1603  0.2671
 3093SOL    HW1 9335   0.969   2.413   1.643 -2.7037  0.3118  1.6725
 3093SOL    HW2 9336   0.965   2.389   1.493  1.1364  1.7659  1.2239
 3094SOL     OW 9337   3.224   4.533   3.980  0.0084  0.0213  0.1798
 3094SOL    HW1 9338   3.272   4.586   3.917  0.3563  1.8216  1.8663
 3094SOL    HW2 9339   3.275   4.452   3.986  1.0846  0.6305 -0.3511
 3095SOL     OW 9340   4.594   2.017   2.584 -0.3261 -0.6551  0.0043
 3095SOL    HW1 9341   4.551   2.074   2.648  0.1388 -0.1271 -0.1456
 3095SOL    HW2 9342   4.614   2.075   2.511  1.9813 -0.5290  0.6643
 3096SOL     OW 9343   4.444   2.604   2.926 -0.3111 -0.3491  0.2735
 3096SOL    HW1 9344   4.436   2.637   2.836  1.3227 -1.3467 -0.2852
 3096SOL    HW2 9345   4.379   2.534   2.932 -0.8410  0.1253  0.0667
 3097SOL     OW 9346   0.855   2.164   3.685  0.1459 -0.2835 -0.4312
 3097SOL    HW1 9347   0.889   2.245   3.646  1.0530 -0.3487  0.1740
 3097SOL    HW2 9348   0.877   2.172   3.778  1.6489 -1.8790 -0.5853
 3098SOL     OW 9349   3.263   0.898   3.633  0.5131 -0.7335  0.0906
 3098SOL    HW1 9350   3.242   0.953   3.557  0.2994  1.7229  1.8133
 3098SOL    HW2 9351   3.248   0.809   3.602  1.2510  0.0754 -2.9931
 3099SOL     OW 9352   0.976   3.096   2.559  0.2983  0.0215 -0.1716
 3099SOL    HW1 9353   1.007   3.095   2.468 -2.0066 -1.0715 -1.0350
 3099SOL    HW2 9354   0.966   3.189   2.580  2.1523  0.3451 -0.4910
 3100SOL     OW 9355   0.018   0.723   4.257 -0.1427 -0.6645 -0.3409
 3100SOL    HW1 9356   0.062   0.797   4.215  0.4774 -0.3381  0.8411
 3100SOL    HW2 9357  -0.075   0.744   4.253  0.0886  0.7375  0.9627
 3101SOL     OW 9358   3.825   2.717   4.137  0.1653 -0.0696 -0.1524
 3101SOL    HW1 9359   3.754   2.692   4.079  0.2912  2.2871 -1.4424
 3101SOL    HW2 9360   3.857   2.800   4.102  2.8502 -0.4975  1.0177
 3102SOL     OW 9361   2.855   4.327   2.746 -0.4411  0.2594 -0.6974
 3102SOL    HW1 9362   2.898   4.312   2.830  2.2546  2.6426 -1.4787
 3102SOL    HW2 9363   2.782   4.385   2.766  0.5010  1.2473  0.0030
 3103SOL     OW 9364   2.949   3.701   3.441  0.0528 -0.1226 -0.2370
 3103SOL    HW1 9365   2.912   3.615   3.461 -1.7908 -0.4380 -4.1221
 3103SOL    HW2 9366   2.874   3.761   3.444  0.3921  0.4555 -1.8978
 3104SOL     OW 9367   2.365   0.392   3.351 -0.3937  0.0722 -0.1934
 3104SOL    HW1 9368   2.346   0.316   3.297 -0.0670  1.4432 -2.3394
 3104SOL    HW2 9369   2.459   0.407   3.339  0.0241 -0.4178  1.9576
 3105SOL     OW 9370   1.652   2.043   2.528  0.3453  0.1991  0.0532
 3105SOL    HW1 9371   1.602   2.071   2.452  0.5799  0.8128  0.1224
 3105SOL    HW2 9372   1.730   2.098   2.528 -0.1681  0.9679  1.3462
 3106SOL     OW 9373   0.034   2.637   2.575  0.5436  0.0831  0.4177
 3106SOL    HW1 9374   0.030   2.542   2.587 -1.6152 -0.0737 -0.9451
 3106SOL    HW2 9375  -0.056   2.666   2.588  0.6168  1.5684 -1.8009
 3107SOL     OW 9376   0.051   1.998   2.949  0.8199  0.1286 -0.1832
 3107SOL    HW1 9377   0.095   1.989   3.034  0.1619  2.0391  0.4215
 3107SOL    HW2 9378   0.108   1.953   2.887  0.9046 -2.0457  1.3671
 3108SOL     OW 9379   0.936   4.747   0.185 -0.2281 -0.6596 -0.2211
 3108SOL    HW1 9380   0.931   4.684   0.257 -0.7555  0.9256  1.1935
 3108SOL    HW2 9381   1.029   4.750   0.163 -0.0159 -0.9761  0.5964
 3109SOL     OW 9382   3.555   1.830   3.793  0.0516  0.6173 -0.7891
 3109SOL    HW1 9383   3.632   1.779   3.819 -1.3247 -1.3930 -0.3914
 3109SOL    HW2 9384   3.515   1.778   3.722 -0.4260  2.1213 -1.6646
 3110SOL     OW 9385   2.132   3.795   4.227  0.3385  0.3279 -0.3045
 3110SOL    HW1 9386   2.101   3.820   4.140  0.1438 -2.7901 -1.2491
 3110SOL    HW2 9387   2.227   3.804   4.222  0.2525  1.3283 -0.3901
 3111SOL     OW 9388   0.631   4.012   3.337  0.2432  0.1219 -0.0217
 3111SOL    HW1 9389   0.631   4.106   3.320  0.8147  0.2761  0.7664
 3111SOL    HW2 9390   0.708   3.980   3.290  0.8804  0.2866  0.8930
 3112SOL     OW 9391   4.733   1.924   2.958  1.0580  0.2351 -0.1554
 3112SOL    HW1 9392   4.821   1.959   2.973  0.9731  1.2189 -1.7843
 3112SOL    HW2 9393   4.735   1.887   2.870  0.3529 -1.4825  0.4988
 3113SOL     OW 9394   0.875   0.866   0.040 -0.3392 -0.0113 -0.4035
 3113SOL    HW1 9395   0.962   0.835   0.066 -0.4982  0.8896  1.4656
 3113SOL    HW2 9396   0.885   0.962   0.037 -1.1879  0.0792 -0.4402
 3114SOL     OW 9397   1.990   3.483   1.134  0.4287 -0.2430 -0.2784
 3114SOL    HW1 9398   1.961   3.560   1.085  0.5857 -0.0392 -0.0541
 3114SOL    HW2 9399   2.002   3.415   1.068  1.5225  0.2895 -0.6380
 3115SOL     OW 9400   0.183   1.843   3.825  0.4313 -0.4731  0.3466
 3115SOL    HW1 9401   0.117   1.888   3.772 -0.7844  0.1672  2.2899
 3115SOL    HW2 9402   0.265   1.854   3.776  0.0512  3.1286  0.2341
 3116SOL     OW 9403   4.190   2.092   2.638  0.1408  0.8152 -0.3241
 3116SOL    HW1 9404   4.117   2.140   2.677  0.0570  0.3129  0.1406
 3116SOL    HW2 9405   4.268   2.137   2.671  0.0738  2.2480 -1.9254
 3117SOL     OW 9406   0.596   4.662   0.969 -0.7702 -0.0545  0.0909
 3117SOL    HW1 9407   0.612   4.716   0.892  2.1682 -0.6714  0.1597
 3117SOL    HW2 9408   0.647   4.582   0.954 -0.7427 -0.5248  2.3366
 3118SOL     OW 9409   0.948   3.545   3.584  0.9809 -0.1610 -0.8227
 3118SOL    HW1 9410   1.041   3.554   3.561  1.1664 -0.9409 -0.4241
 3118SOL    HW2 9411   0.908   3.627   3.554  1.9083  0.4454 -0.4513
 3119SOL     OW 9412   0.598   2.712   1.472  0.2803  0.1548 -0.0139
 3119SOL    HW1 9413   0.643   2.681   1.551  1.4020 -0.7284 -0.9680
 3119SOL    HW2 9414   0.644   2.791   1.447  0.8626 -0.3526 -0.5798
 3120SOL     OW 9415   0.362   4.892   0.816 -0.2879 -0.9453  0.6226
 3120SOL    HW1 9416   0.457   4.888   0.823 -0.0638 -0.2694 -1.3779
 3120SOL    HW2 9417   0.341   4.986   0.819 -0.7485 -1.0102 -0.0897
 3121SOL     OW 9418   1.790   4.491   1.542  0.2091 -0.2663 -0.1245
 3121SOL    HW1 9419   1.747   4.516   1.460  1.5619 -0.6537 -1.0028
 3121SOL    HW2 9420   1.804   4.573   1.588 -1.7576 -0.1671  0.3718
 3122SOL     OW 9421   2.307   4.891   4.593  0.5149 -0.8612 -0.5837
 3122SOL    HW1 9422   2.262   4.911   4.675 -0.9051 -0.9496 -1.3138
 3122SOL    HW2 9423   2.346   4.975   4.567  0.9355 -0.8216  0.1351
 3123SOL     OW 9424   1.286   4.932   0.721 -0.0229 -0.0368  0.1384
 3123SOL    HW1 9425   1.251   4.945   0.633 -1.3256 -1.7694  0.3506
 3123SOL    HW2 9426   1.342   5.008   0.737  0.8229 -0.0432 -2.4462
 3124SOL     OW 9427   1.258   4.774   2.818  0.2925  0.0234  0.6072
 3124SOL    HW1 9428   1.196   4.704   2.840 -0.5973  0.4688 -0.4067
 3124SOL    HW2 9429   1.306   4.740   2.742  0.6300  0.0756  0.7946
 3125SOL     OW 9430   2.083   0.646   1.740 -0.2974  0.0361  0.2592
 3125SOL    HW1 9431   2.074   0.553   1.762 -1.6481  0.1637  0.3456
 3125SOL    HW2 9432   2.020   0.660   1.669  0.5712  0.6842 -0.3923
 3126SOL     OW 9433   4.403   1.994   4.030  0.4531 -0.4499  0.0924
 3126SOL    HW1 9434   4.415   2.063   3.963  2.9543  0.6242  1.5201
 3126SOL    HW2 9435   4.427   1.913   3.985  1.2327  0.1296 -0.5731
 3127SOL     OW 9436   0.064   4.690   0.944 -0.3372 -0.5298  0.0534
 3127SOL    HW1 9437   0.137   4.683   1.005  0.2980  1.2443 -0.4322
 3127SOL    HW2 9438   0.046   4.600   0.917  0.2281 -1.2202  1.8259
 3128SOL     OW 9439   4.636   4.279   0.639  0.0186  0.4360 -0.3146
 3128SOL    HW1 9440   4.561   4.339   0.642 -0.5700 -0.3370  1.3101
 3128SOL    HW2 9441   4.602   4.201   0.595  0.2512  0.5617 -0.7246
 3129SOL     OW 9442   3.447   2.508   2.737  0.0698  0.3131  0.2373
 3129SOL    HW1 9443   3.531   2.534   2.773  0.5295  1.9576 -1.8340
 3129SOL    HW2 9444   3.469   2.463   2.655 -1.0516 -0.1687  0.1784
 3130SOL     OW 9445   3.999   3.135   0.033 -0.3755  0.2195 -0.0021
 3130SOL    HW1 9446   3.963   3.190   0.102 -2.8527 -1.7728  0.4586
 3130SOL    HW2 9447   4.091   3.124   0.057 -0.9245  0.3885  2.4980
 3131SOL     OW 9448   2.737   2.657   3.592  0.0052 -0.1157 -0.0782
 3131SOL    HW1 9449   2.828   2.663   3.563 -0.1929  1.0811 -0.5054
 3131SOL    HW2 9450   2.686   2.673   3.513 -0.5526  1.0267  0.4954
 3132SOL     OW 9451   3.696   3.539   3.604  0.0972  0.2260  0.3515
 3132SOL    HW1 9452   3.685   3.591   3.525  0.1849 -1.1078 -0.5734
 3132SOL    HW2 9453   3.782   3.497   3.594  0.2009  0.1933  1.2483
 3133SOL     OW 9454   0.792   2.164   4.193  0.1512  0.2168  0.1941
 3133SOL    HW1 9455   0.805   2.119   4.109 -0.1457  2.6510 -1.2586
 3133SOL    HW2 9456   0.810   2.097   4.259  1.2101 -1.5957 -1.7934
 3134SOL     OW 9457   1.148   4.582   4.130  1.0573  0.2730  0.7070
 3134SOL    HW1 9458   1.111   4.660   4.171 -2.1177 -0.5328 -0.2979
 3134SOL    HW2 9459   1.177   4.612   4.044 -0.9083  0.2808 -0.0021
 3135SOL     OW 9460   4.770   0.978   1.687 -0.5295  0.7747 -1.1981
 3135SOL    HW1 9461   4.819   1.034   1.748  0.3256 -1.3361  0.1514
 3135SOL    HW2 9462   4.696   0.945   1.738  0.0163 -0.7682 -1.3446
 3136SOL     OW 9463   3.317   3.220   4.120  0.0676  0.0142 -0.7198
 3136SOL    HW1 9464   3.288   3.181   4.037 -0.6976 -1.1059  0.0475
 3136SOL    HW2 9465   3.249   3.195   4.183  1.0123  0.2281  0.4089
 3137SOL     OW 9466   2.127   3.213   1.315  0.0697  0.2075 -0.3524
 3137SOL    HW1 9467   2.076   3.190   1.392  0.4223  1.2737  0.2110
 3137SOL    HW2 9468   2.064   3.209   1.243 -0.7129  1.0156  0.2581
 3138SOL     OW 9469   3.917   3.365   3.587 -0.5008  0.3598  0.5344
 3138SOL    HW1 9470   3.870   3.325   3.660 -1.1334  0.7859  0.3696
 3138SOL    HW2 9471   3.951   3.291   3.537 -2.4822 -0.0545 -0.3194
 3139SOL     OW 9472   3.054   0.665   3.744  0.7546 -0.1240  0.2304
 3139SOL    HW1 9473   2.969   0.685   3.704  0.4641  0.4177  1.0771
 3139SOL    HW2 9474   3.107   0.631   3.673 -0.1320 -0.3288 -0.3473
 3140SOL     OW 9475   1.642   0.020   0.588 -0.1490  0.3634 -0.2066
 3140SOL    HW1 9476   1.712   0.002   0.652 -0.7073 -0.5183  0.1677
 3140SOL    HW2 9477   1.599   0.099   0.622 -0.0387  0.2688  0.1648
 3141SOL     OW 9478   0.510   1.197   0.978 -0.5211  0.0621  0.4631
 3141SOL    HW1 9479   0.554   1.123   0.935  1.2240 -0.1423  2.4647
 3141SOL    HW2 9480   0.557   1.274   0.946  1.0682 -0.1195  2.1876
 3142SOL     OW 9481   1.497   4.128   1.094  0.1986  0.0429 -0.4500
 3142SOL    HW1 9482   1.492   4.193   1.024  1.0543 -0.2368 -0.7944
 3142SOL    HW2 9483   1.590   4.106   1.099  0.2896  0.7566  1.4339
 3143SOL     OW 9484   3.999   1.122   3.355 -0.9693  0.1545  0.6111
 3143SOL    HW1 9485   4.007   1.170   3.273 -1.3516 -2.1797 -0.8891
 3143SOL    HW2 9486   3.905   1.110   3.367 -0.9131  0.4333  1.3910
 3144SOL     OW 9487   1.039   4.581   1.754 -0.4911 -0.3190  0.0389
 3144SOL    HW1 9488   1.088   4.584   1.672  0.2386  2.4886  0.4833
 3144SOL    HW2 9489   0.954   4.618   1.732 -0.3158  0.3824  0.5216
 3145SOL     OW 9490   3.359   3.945   4.450  0.0450  0.1101  0.6778
 3145SOL    HW1 9491   3.268   3.918   4.440 -0.1933 -0.3130  3.2198
 3145SOL    HW2 9492   3.354   4.038   4.470  0.2432  0.2842 -0.0831
 3146SOL     OW 9493   1.991   2.053   4.900 -0.0944  0.5593  0.2483
 3146SOL    HW1 9494   1.920   2.075   4.960 -1.6250  1.1578 -1.6971
 3146SOL    HW2 9495   1.959   1.977   4.851  0.7612  0.6017 -0.3990
 3147SOL     OW 9496   3.732   4.775   2.836 -0.0840  0.4366 -0.3914
 3147SOL    HW1 9497   3.654   4.758   2.889  0.3319  2.0709  0.8334
 3147SOL    HW2 9498   3.702   4.767   2.745 -1.7358  1.2275  0.0522
 3148SOL     OW 9499   4.013   0.254   4.298 -0.4344 -0.5206  0.0988
 3148SOL    HW1 9500   4.081   0.198   4.260  1.8160  1.7597  0.4602
 3148SOL    HW2 9501   3.987   0.208   4.378  0.6296 -1.4903 -0.0772
 3149SOL     OW 9502   2.909   2.956   1.764  0.1213 -0.2211  0.1840
 3149SOL    HW1 9503   2.928   3.048   1.780 -0.3772  0.0642 -0.7577
 3149SOL    HW2 9504   2.947   2.938   1.677  2.2575 -1.5417  1.3039
 3150SOL     OW 9505   4.426   1.063   2.069 -0.2626 -0.2550  0.0877
 3150SOL    HW1 9506   4.470   1.098   2.147 -0.8249  0.9448 -0.1223
 3150SOL    HW2 9507   4.347   1.021   2.103 -0.5069  0.2657  0.1588
 3151SOL     OW 9508   4.439   2.817   0.735 -0.0512  0.4053 -0.0149
 3151SOL    HW1 9509   4.353   2.837   0.699 -0.9086 -2.3527  0.2297
 3151SOL    HW2 9510   4.445   2.870   0.814 -1.7884  0.2713  0.2515
 3152SOL     OW 9511   0.768   2.768   3.200 -0.3363 -0.4084 -0.1896
 3152SOL    HW1 9512   0.702   2.836   3.186  0.1618 -0.0437 -0.8114
 3152SOL    HW2 9513   0.753   2.739   3.290 -1.6700 -0.6960 -0.4759
 3153SOL     OW 9514   1.990   1.951   2.110  0.2074  0.3925 -0.0481
 3153SOL    HW1 9515   1.912   1.928   2.161  1.1798 -0.0710  1.2801
 3153SOL    HW2 9516   2.063   1.923   2.164  1.3586  2.4161 -0.4664
 3154SOL     OW 9517   0.899   3.400   0.623  0.2072  0.4842 -0.4087
 3154SOL    HW1 9518   0.916   3.356   0.705  1.3094  2.0218  0.2407
 3154SOL    HW2 9519   0.821   3.356   0.587 -0.8139  0.3317  1.8470
 3155SOL     OW 9520   3.069   0.459   3.065  0.0263  0.4617 -0.5721
 3155SOL    HW1 9521   3.108   0.401   2.999 -0.4158  0.9658 -1.2884
 3155SOL    HW2 9522   3.045   0.538   3.017 -0.3794  0.8137  0.1827
 3156SOL     OW 9523   4.846   2.961   4.512  0.3872 -0.9313 -0.2599
 3156SOL    HW1 9524   4.801   2.908   4.577  1.5491 -1.1378  0.3982
 3156SOL    HW2 9525   4.901   3.021   4.563  0.3737 -0.2497 -1.0244
 3157SOL     OW 9526   3.184   2.009   0.853 -0.3053  0.0233 -0.4702
 3157SOL    HW1 9527   3.158   1.935   0.906 -1.2285  1.3391  0.9921
 3157SOL    HW2 9528   3.278   2.020   0.870 -0.3309 -0.3299 -0.1083
 3158SOL     OW 9529   2.369   1.495   2.284 -0.3928  0.4458 -0.2728
 3158SOL    HW1 9530   2.356   1.554   2.358  1.7278  0.6240 -0.0002
 3158SOL    HW2 9531   2.388   1.552   2.210  1.0267  0.1673 -0.1476
 3159SOL     OW 9532   1.542   0.175   1.486 -0.6099  0.0634 -0.3817
 3159SOL    HW1 9533   1.524   0.245   1.548 -0.1137  0.3840 -0.5987
 3159SOL    HW2 9534   1.475   0.185   1.418 -1.4981 -0.6197  0.3593
 3160SOL     OW 9535   3.615   0.303   0.243 -0.0330  0.1190 -0.2645
 3160SOL    HW1 9536   3.669   0.351   0.305  1.0160  0.0727 -1.1010
 3160SOL    HW2 9537   3.539   0.360   0.227  0.1091  0.5024  0.3957
 3161SOL     OW 9538   2.973   1.402   1.304 -0.5548  0.1550 -0.3792
 3161SOL    HW1 9539   2.939   1.313   1.313 -0.2219 -0.0552 -1.1279
 3161SOL    HW2 9540   2.974   1.436   1.394 -0.2957 -0.7430 -0.0266
 3162SOL     OW 9541   1.793   2.001   4.473  0.2397  0.1969 -0.2289
 3162SOL    HW1 9542   1.822   1.926   4.525  1.4676 -0.2253 -1.4589
 3162SOL    HW2 9543   1.810   1.976   4.383  2.7334  2.7466 -0.5949
 3163SOL     OW 9544   1.393   4.797   4.326 -0.2146 -0.0436 -0.3338
 3163SOL    HW1 9545   1.381   4.713   4.371  0.0168 -0.4061 -0.9396
 3163SOL    HW2 9546   1.393   4.862   4.397 -0.0106 -0.5906  0.1795
 3164SOL     OW 9547   2.907   2.920   2.102 -0.6754  0.1460 -0.4869
 3164SOL    HW1 9548   2.840   2.973   2.060 -1.0667 -0.8164 -1.0981
 3164SOL    HW2 9549   2.879   2.915   2.194 -0.2138  1.6231 -0.2340
 3165SOL     OW 9550   0.229   2.290   1.823 -0.2150 -0.3190 -0.5132
 3165SOL    HW1 9551   0.277   2.213   1.793 -1.4065 -2.1867  2.0327
 3165SOL    HW2 9552   0.272   2.315   1.905 -2.2436 -0.8012  0.7706
 3166SOL     OW 9553   3.058   1.075   2.835  0.0024 -0.0306  0.1859
 3166SOL    HW1 9554   2.999   1.049   2.765  1.2406 -0.6860 -0.6626
 3166SOL    HW2 9555   3.022   1.157   2.869 -0.5790  0.3449 -1.2773
 3167SOL     OW 9556   2.738   1.181   4.410  0.3334 -0.1306 -0.1271
 3167SOL    HW1 9557   2.683   1.188   4.333 -0.4449 -0.8384  0.3448
 3167SOL    HW2 9558   2.786   1.099   4.398  0.6976  0.0864 -0.1633
 3168SOL     OW 9559   0.686   0.605   1.496  0.1705  0.0206  0.6912
 3168SOL    HW1 9560   0.716   0.582   1.584 -0.2080  0.0620  0.8286
 3168SOL    HW2 9561   0.655   0.695   1.503 -1.3615 -0.4926  0.8929
 3169SOL     OW 9562   0.543   2.305   4.183 -0.1465 -0.4774 -0.4607
 3169SOL    HW1 9563   0.609   2.243   4.152  1.8787  1.1198  0.4651
 3169SOL    HW2 9564   0.566   2.321   4.274 -0.6520  1.5797 -0.6529
 3170SOL     OW 9565   2.121   1.599   4.028  0.1819  0.6638  0.0973
 3170SOL    HW1 9566   2.150   1.510   4.044 -1.4652 -0.0150 -0.5092
 3170SOL    HW2 9567   2.040   1.608   4.080  0.9450  2.2052  1.1005
 3171SOL     OW 9568   1.888   2.172   2.564  0.1937 -0.0433 -0.2646
 3171SOL    HW1 9569   1.873   2.266   2.578  2.3227  0.3123 -0.0235
 3171SOL    HW2 9570   1.982   2.165   2.546  0.3311 -2.2849  0.9677
 3172SOL     OW 9571   4.449   4.331   3.549  0.4506 -0.1534 -0.3474
 3172SOL    HW1 9572   4.506   4.386   3.496  1.6166  0.0479  1.0417
 3172SOL    HW2 9573   4.360   4.363   3.531  0.8612  0.2345 -1.7473
 3173SOL     OW 9574   3.750   2.412   0.868 -0.4984 -0.1746 -0.2599
 3173SOL    HW1 9575   3.734   2.352   0.941 -1.3651  1.0589  0.6043
 3173SOL    HW2 9576   3.833   2.455   0.890 -0.4638 -0.2167 -0.3061
 3174SOL     OW 9577   0.806   0.840   0.662 -0.0516 -0.2813 -0.5476
 3174SOL    HW1 9578   0.842   0.929   0.659  3.4671 -1.5068  0.3804
 3174SOL    HW2 9579   0.771   0.831   0.750 -0.8964  0.2948 -0.8085
 3175SOL     OW 9580   3.247   3.956   0.747  0.2702 -0.2327  0.3191
 3175SOL    HW1 9581   3.332   3.999   0.738 -0.4634  1.4341  0.9062
 3175SOL    HW2 9582   3.196   3.988   0.672 -0.7678  1.1701  1.5696
 3176SOL     OW 9583   1.708   0.956   1.931  0.2884  0.3051  0.1011
 3176SOL    HW1 9584   1.737   1.025   1.989 -1.4299  1.1972 -0.0261
 3176SOL    HW2 9585   1.786   0.904   1.914  1.4798  1.8120  0.7444
 3177SOL     OW 9586   0.047   4.866   2.233  0.6617  0.7070  0.6428
 3177SOL    HW1 9587  -0.008   4.788   2.228 -0.5342  1.4836  1.2772
 3177SOL    HW2 9588  -0.005   4.929   2.282  0.2410  3.0428 -2.4978
 3178SOL     OW 9589   4.034   4.254   3.974 -0.2373 -0.2836  0.2817
 3178SOL    HW1 9590   4.057   4.204   4.052  0.0442 -0.5512  0.0284
 3178SOL    HW2 9591   3.945   4.285   3.992 -0.4049 -0.8413  0.4630
 3179SOL     OW 9592   4.138   0.052   1.622 -0.0710 -0.1497  0.3470
 3179SOL    HW1 9593   4.209   0.095   1.670  0.4370 -2.9990  2.3743
 3179SOL    HW2 9594   4.182   0.010   1.547  0.3299 -1.2815  1.1840
 3180SOL     OW 9595   3.812   0.097   0.194 -0.3315 -0.3070  0.3310
 3180SOL    HW1 9596   3.885   0.134   0.242 -0.6085 -1.1474  1.4477
 3180SOL    HW2 9597   3.735   0.139   0.232 -0.5325 -0.7440  0.4161
 3181SOL     OW 9598   2.442   3.829   0.647 -0.1650  0.5406 -0.2271
 3181SOL    HW1 9599   2.375   3.888   0.614 -0.8329  0.9206  1.6528
 3181SOL    HW2 9600   2.518   3.885   0.662  0.1945  0.3365 -1.2309
 3182SOL     OW 9601   1.121   3.517   3.818 -0.5448  0.0833  0.6279
 3182SOL    HW1 9602   1.055   3.485   3.757  0.6980 -0.5808 -0.4089
 3182SOL    HW2 9603   1.139   3.607   3.790  0.7938 -0.5585 -0.7221
 3183SOL     OW 9604   4.865   4.247   2.063 -0.2854 -0.2094 -0.0044
 3183SOL    HW1 9605   4.939   4.288   2.019 -1.0992 -0.2441 -1.4819
 3183SOL    HW2 9606   4.864   4.157   2.031  1.0344 -1.2844  2.6441
 3184SOL     OW 9607   2.444   1.238   1.410  0.0324 -0.2785 -0.3965
 3184SOL    HW1 9608   2.495   1.157   1.404 -0.2581 -0.4450 -0.6720
 3184SOL    HW2 9609   2.387   1.225   1.485 -1.0417 -0.9355 -1.2936
 3185SOL     OW 9610   3.518   4.229   2.450 -0.0714 -0.0500 -0.1159
 3185SOL    HW1 9611   3.525   4.137   2.475  1.0377 -0.0291 -0.2854
 3185SOL    HW2 9612   3.443   4.261   2.499 -0.8035 -1.1698 -0.4662
 3186SOL     OW 9613   0.954   0.282   4.276  0.3016 -0.2188  0.0151
 3186SOL    HW1 9614   1.010   0.227   4.330  2.6393  0.7851 -1.2380
 3186SOL    HW2 9615   0.998   0.367   4.274 -1.7232  0.9003 -0.3927
 3187SOL     OW 9616   2.001   4.365   4.415  0.4153 -0.0842 -0.2850
 3187SOL    HW1 9617   2.072   4.427   4.395  1.1417 -0.9766 -0.5355
 3187SOL    HW2 9618   2.016   4.340   4.506 -0.7152  1.1621  0.2760
 3188SOL     OW 9619   4.767   3.231   4.630 -0.2507  0.6511  0.2164
 3188SOL    HW1 9620   4.814   3.275   4.559 -1.1822  1.0398 -0.1806
 3188SOL    HW2 9621   4.696   3.184   4.586 -0.3216  0.1826  0.8135
 3189SOL     OW 9622   0.248   3.563   2.092  1.1328  0.5160 -0.2179
 3189SOL    HW1 9623   0.289   3.496   2.148  1.3146  1.5206  0.8872
 3189SOL    HW2 9624   0.275   3.540   2.003  3.6379  0.7931  0.4032
 3190SOL     OW 9625   0.657   2.808   3.897 -0.1941  0.6539  0.1754
 3190SOL    HW1 9626   0.576   2.790   3.848 -1.1144 -0.2892  1.9477
 3190SOL    HW2 9627   0.700   2.723   3.905  0.4774  0.9804  0.1346
 3191SOL     OW 9628   3.745   4.462   4.319 -0.1640  0.5057  0.1899
 3191SOL    HW1 9629   3.687   4.526   4.361 -0.1150 -0.1097  1.2132
 3191SOL    HW2 9630   3.739   4.384   4.374  0.4535 -0.0840 -0.5577
 3192SOL     OW 9631   0.410   0.376   4.312 -0.0913  0.7537  0.0055
 3192SOL    HW1 9632   0.472   0.303   4.316 -0.9069 -0.0406 -1.1835
 3192SOL    HW2 9633   0.355   0.365   4.389 -0.3601 -0.0447 -0.2892
 3193SOL     OW 9634   0.188   3.539   1.313  0.4328  0.5707 -0.1230
 3193SOL    HW1 9635   0.171   3.563   1.222 -0.1786  1.6927  0.2637
 3193SOL    HW2 9636   0.273   3.577   1.333  0.3016  0.8428 -0.0655
 3194SOL     OW 9637   0.085   4.103   0.896  0.1131 -0.5982  0.2875
 3194SOL    HW1 9638  -0.002   4.088   0.934 -0.7247 -0.8108 -1.6102
 3194SOL    HW2 9639   0.104   4.023   0.848  0.8481 -0.1030 -0.2677
 3195SOL     OW 9640   4.490   0.503   3.963 -0.3500 -0.3274 -0.2076
 3195SOL    HW1 9641   4.548   0.432   3.933  0.8293  0.5103 -0.0059
 3195SOL    HW2 9642   4.410   0.459   3.991  0.5740 -1.6403  0.4564
 3196SOL     OW 9643   4.654   1.716   4.674  0.5529  0.2948 -0.5373
 3196SOL    HW1 9644   4.706   1.796   4.679 -1.0037  1.2641  1.2622
 3196SOL    HW2 9645   4.701   1.653   4.729  1.8232 -0.1223 -2.0191
 3197SOL     OW 9646   1.579   0.275   1.136 -0.1948 -0.4843 -0.2198
 3197SOL    HW1 9647   1.577   0.370   1.147  1.4268 -0.2046 -1.7740
 3197SOL    HW2 9648   1.615   0.263   1.048  0.2672 -2.5574  0.2166
 3198SOL     OW 9649   3.422   2.998   2.497 -0.0845  0.0374 -0.0404
 3198SOL    HW1 9650   3.440   2.930   2.432  1.1290 -1.3320  1.6537
 3198SOL    HW2 9651   3.460   3.078   2.460  1.0882 -0.8382 -0.7742
 3199SOL     OW 9652   3.625   0.778   1.274 -0.7506  0.3267  0.6653
 3199SOL    HW1 9653   3.652   0.768   1.365 -1.8252  0.2765  0.9950
 3199SOL    HW2 9654   3.590   0.692   1.250  2.0119 -0.5373 -0.6972
 3200SOL     OW 9655   1.049   3.938   1.073  0.2285  0.2690 -0.3980
 3200SOL    HW1 9656   1.123   3.964   1.128  0.8812 -1.9129 -0.1369
 3200SOL    HW2 9657   1.086   3.873   1.013 -0.4225  2.5930 -3.6091
 3201SOL     OW 9658   1.619   3.603   2.018 -0.5360  0.0350  0.4715
 3201SOL    HW1 9659   1.671   3.540   2.068 -0.8738 -0.3847  0.3062
 3201SOL    HW2 9660   1.535   3.558   2.002 -0.3920  0.1023 -0.5731
 3202SOL     OW 9661   2.523   0.986   0.059 -0.4150  0.6317 -0.6521
 3202SOL    HW1 9662   2.478   1.069   0.078  0.3766  0.5165  2.1615
 3202SOL    HW2 9663   2.475   0.921   0.110  1.4612  0.1146  0.5585
 3203SOL     OW 9664   2.889   2.978   2.605 -0.1177  0.2138  0.2026
 3203SOL    HW1 9665   2.951   2.967   2.533 -1.0362 -1.2479 -0.4232
 3203SOL    HW2 9666   2.886   2.892   2.647 -1.7607  0.2190  0.1579
 3204SOL     OW 9667   0.566   4.554   3.914  0.0635 -0.2531  0.0745
 3204SOL    HW1 9668   0.609   4.589   3.836 -0.4419  0.1357 -0.0315
 3204SOL    HW2 9669   0.631   4.564   3.984  0.1992  0.1983 -0.1152
 3205SOL     OW 9670   2.246   0.673   0.144 -0.2819 -0.4301 -0.0268
 3205SOL    HW1 9671   2.289   0.648   0.062 -0.3073 -2.0365  0.4073
 3205SOL    HW2 9672   2.302   0.741   0.181  0.3477 -0.4954 -0.8224
 3206SOL     OW 9673   0.298   4.709   1.718  0.1698  0.6474 -0.1178
 3206SOL    HW1 9674   0.273   4.657   1.794 -0.9812  0.8428 -0.3476
 3206SOL    HW2 9675   0.390   4.685   1.702 -0.4534 -1.7060 -0.5256
 3207SOL     OW 9676   3.976   0.917   1.437 -0.2410 -0.0197 -0.0606
 3207SOL    HW1 9677   4.061   0.946   1.404 -0.6142  0.8668 -0.2639
 3207SOL    HW2 9678   3.931   0.998   1.461 -1.3168 -0.4243 -0.6700
 3208SOL     OW 9679   3.269   1.833   0.508  0.3489  0.6196  0.4973
 3208SOL    HW1 9680   3.310   1.786   0.436  1.0402  1.5462  0.2798
 3208SOL    HW2 9681   3.337   1.890   0.543 -0.2666  0.9347  1.2295
 3209SOL     OW 9682   3.014   4.365   1.514 -0.0646  0.3306 -0.1638
 3209SOL    HW1 9683   3.079   4.416   1.465 -0.5879  0.9425 -0.2406
 3209SOL    HW2 9684   2.940   4.357   1.454  0.0865 -0.6957 -0.2198
 3210SOL     OW 9685   0.152   1.782   4.203 -0.3515 -0.2676 -0.2550
 3210SOL    HW1 9686   0.077   1.761   4.147  0.2567 -1.4310 -0.6719
 3210SOL    HW2 9687   0.154   1.712   4.267 -0.1760  0.2824  0.3485
 3211SOL     OW 9688   0.612   3.652   0.609  0.4019  0.3123 -0.2694
 3211SOL    HW1 9689   0.672   3.591   0.652  0.1838 -1.4782 -2.3445
 3211SOL    HW2 9690   0.669   3.715   0.564  0.7871 -1.0950 -1.8358
 3212SOL     OW 9691   2.735   2.193   4.858 -0.0785 -0.9278 -0.3352
 3212SOL    HW1 9692   2.806   2.245   4.820  0.5453 -1.4525  0.0994
 3212SOL    HW2 9693   2.775   2.109   4.880  0.2685  0.0314  3.5856
 3213SOL     OW 9694   2.022   3.157   0.067  0.5472 -1.1276 -0.0814
 3213SOL    HW1 9695   1.947   3.182   0.013  0.1582  1.3845  1.4468
 3213SOL    HW2 9696   2.098   3.187   0.017  0.2530  0.1216  0.1734
 3214SOL     OW 9697   1.406   4.453   4.103 -0.1265  0.2073  0.4833
 3214SOL    HW1 9698   1.447   4.499   4.030 -0.0558 -0.5229  0.0516
 3214SOL    HW2 9699   1.324   4.501   4.118  1.1523  2.1208  1.8366
 3215SOL     OW 9700   0.842   1.715   1.822  0.1347  0.6408 -0.6901
 3215SOL    HW1 9701   0.912   1.719   1.888  0.0968  1.2052 -0.6787
 3215SOL    HW2 9702   0.877   1.658   1.753  0.3283  0.3603 -0.3640
 3216SOL     OW 9703   2.345   2.672   0.123 -0.1027 -0.0358 -0.3453
 3216SOL    HW1 9704   2.276   2.731   0.151 -0.8892 -1.0417 -0.0994
 3216SOL    HW2 9705   2.305   2.616   0.057  0.9421  0.4226 -1.4083
 3217SOL     OW 9706   0.375   4.159   2.656 -0.1335 -0.3223  0.4364
 3217SOL    HW1 9707   0.359   4.229   2.720  0.2787 -0.1665  0.3720
 3217SOL    HW2 9708   0.335   4.191   2.575  2.2264  1.0155 -0.3010
 3218SOL     OW 9709   2.525   1.049   3.102  0.3026  0.3604  0.3131
 3218SOL    HW1 9710   2.449   1.026   3.049  0.7145  1.5210 -0.8291
 3218SOL    HW2 9711   2.490   1.105   3.171  0.1466  1.1380 -0.3851
 3219SOL     OW 9712   1.599   4.867   2.678 -0.5753 -0.0104 -0.1254
 3219SOL    HW1 9713   1.603   4.957   2.711 -2.2383 -0.5811  1.8221
 3219SOL    HW2 9714   1.641   4.814   2.745 -1.1358 -0.8595 -0.4239
 3220SOL     OW 9715   1.183   0.084   0.476 -0.3639 -0.2431  0.2100
 3220SOL    HW1 9716   1.169   0.072   0.382  1.4114 -2.4879  0.1569
 3220SOL    HW2 9717   1.272   0.117   0.484 -0.8860  1.0399  1.0917
 3221SOL     OW 9718   2.741   1.265   0.997 -0.3643  0.3469  0.7212
 3221SOL    HW1 9719   2.759   1.338   1.057  1.6201  0.4757  0.0690
 3221SOL    HW2 9720   2.718   1.307   0.914  2.2799  0.3751 -0.1000
 3222SOL     OW 9721   4.221   2.578   2.485 -0.1024  0.5426  0.1197
 3222SOL    HW1 9722   4.264   2.647   2.434  1.4723 -0.6116 -0.1961
 3222SOL    HW2 9723   4.264   2.497   2.457 -3.7272 -1.0301 -1.6031
 3223SOL     OW 9724   0.973   2.836   0.968 -0.6758  0.3443  0.0839
 3223SOL    HW1 9725   1.068   2.834   0.964 -0.6983 -1.3820 -0.5176
 3223SOL    HW2 9726   0.944   2.833   0.877 -1.2927  0.0826  0.2771
 3224SOL     OW 9727   2.002   4.527   2.329 -0.0760  0.6239  0.5217
 3224SOL    HW1 9728   1.981   4.437   2.354  0.0832  0.4632  0.0979
 3224SOL    HW2 9729   1.974   4.580   2.403  1.0995  0.0896  1.3815
 3225SOL     OW 9730   0.646   2.035   3.958 -0.2858  0.1528 -0.1270
 3225SOL    HW1 9731   0.609   1.967   4.014  0.6442 -0.2060  0.0655
 3225SOL    HW2 9732   0.721   1.994   3.916 -0.0450  0.8894 -0.4350
 3226SOL     OW 9733   1.640   1.219   3.663  0.1027  0.1872 -0.7764
 3226SOL    HW1 9734   1.628   1.246   3.755  1.5705  1.6218 -0.9536
 3226SOL    HW2 9735   1.552   1.219   3.627 -0.4631 -0.0019  0.5360
 3227SOL     OW 9736   0.824   0.118   4.977 -0.2375  0.3496 -0.4302
 3227SOL    HW1 9737   0.792   0.108   4.887 -0.0991 -0.5870 -0.3933
 3227SOL    HW2 9738   0.889   0.188   4.972  1.0794 -0.8640 -1.4424
 3228SOL     OW 9739   4.680   0.149   3.484 -0.4297 -0.0597 -0.0456
 3228SOL    HW1 9740   4.714   0.208   3.418  2.5236  0.5165  1.7831
 3228SOL    HW2 9741   4.710   0.062   3.457 -0.0237  0.0540  0.0261
 3229SOL     OW 9742   0.942   4.299   3.252  0.5625  0.0081 -0.3868
 3229SOL    HW1 9743   0.874   4.310   3.318 -0.4164 -0.1620 -1.3436
 3229SOL    HW2 9744   0.896   4.263   3.176  1.4772  1.1176 -1.5012
 3230SOL     OW 9745   1.455   4.545   2.176  0.5743  0.7715  0.5458
 3230SOL    HW1 9746   1.471   4.511   2.088 -1.3500 -0.5404  0.6312
 3230SOL    HW2 9747   1.527   4.510   2.229  1.3232  0.9365 -0.3361
 3231SOL     OW 9748   1.107   3.546   2.393  0.0273 -0.2035  0.4325
 3231SOL    HW1 9749   1.160   3.544   2.313 -0.6545  2.5682 -0.2137
 3231SOL    HW2 9750   1.135   3.626   2.437 -2.3922  0.4257  0.9341
 3232SOL     OW 9751   4.519   4.598   0.307  0.6058  0.4002 -0.1148
 3232SOL    HW1 9752   4.614   4.588   0.302  0.7220  0.8884  0.9919
 3232SOL    HW2 9753   4.493   4.553   0.387 -0.0184  0.7847 -0.0893
 3233SOL     OW 9754   0.327   0.766   4.881 -0.5440 -0.4212 -0.2117
 3233SOL    HW1 9755   0.373   0.817   4.814  0.6585  1.8458  2.1528
 3233SOL    HW2 9756   0.384   0.691   4.897 -0.0693 -0.1570 -0.6420
 3234SOL     OW 9757   3.040   2.848   2.381 -0.1099  0.2313  0.7422
 3234SOL    HW1 9758   3.112   2.787   2.395 -1.1226 -0.8765  1.2907
 3234SOL    HW2 9759   3.077   2.916   2.325  0.9890 -0.9964 -0.0833
 3235SOL     OW 9760   3.324   1.379   4.601 -0.2369  0.2318 -0.7722
 3235SOL    HW1 9761   3.325   1.316   4.529 -0.3068  2.6044 -2.9751
 3235SOL    HW2 9762   3.249   1.353   4.655  0.7149 -2.5045 -0.6246
 3236SOL     OW 9763   0.727   2.626   1.696 -0.2058 -0.2562 -0.0277
 3236SOL    HW1 9764   0.810   2.599   1.737 -0.5236  1.5372  1.9794
 3236SOL    HW2 9765   0.661   2.606   1.762 -0.9775  1.1528 -0.3380
 3237SOL     OW 9766   1.558   0.064   2.268 -0.0945 -0.2933  0.5854
 3237SOL    HW1 9767   1.582  -0.026   2.291 -0.6763 -0.1841  1.6861
 3237SOL    HW2 9768   1.584   0.073   2.176 -2.5133 -2.4864 -0.4448
 3238SOL     OW 9769   2.869   1.792   2.204 -0.7253 -0.2412 -0.2123
 3238SOL    HW1 9770   2.837   1.713   2.247 -0.8799 -0.4006 -0.6118
 3238SOL    HW2 9771   2.943   1.763   2.152 -1.8835 -0.4994 -1.8124
 3239SOL     OW 9772   0.348   2.584   3.263  0.0515  0.3544  0.0591
 3239SOL    HW1 9773   0.426   2.560   3.213  0.7354 -1.2007  1.7506
 3239SOL    HW2 9774   0.370   2.667   3.306  0.4610  0.3430 -0.1327
 3240SOL     OW 9775   1.850   3.998   1.979  0.6987  0.0943  0.0789
 3240SOL    HW1 9776   1.829   4.092   1.980 -0.1556 -0.0675  2.3598
 3240SOL    HW2 9777   1.900   3.983   2.059  0.7829 -1.4198 -0.2210
 3241SOL     OW 9778   3.009   0.553   2.473 -0.1391 -0.4764 -0.5648
 3241SOL    HW1 9779   2.984   0.645   2.462 -1.0448 -0.7872 -1.1695
 3241SOL    HW2 9780   3.042   0.528   2.387  1.1503 -0.4214 -0.1098
 3242SOL     OW 9781   0.561   3.851   2.725  0.2372  0.3393  0.0397
 3242SOL    HW1 9782   0.504   3.860   2.649 -0.2282 -0.6413  0.2518
 3242SOL    HW2 9783   0.527   3.775   2.771  2.4827 -1.0942 -0.5107
 3243SOL     OW 9784   3.970   4.126   2.237 -0.1780 -0.2597 -0.3934
 3243SOL    HW1 9785   3.992   4.045   2.283  0.7156 -0.1882 -0.6801
 3243SOL    HW2 9786   3.886   4.108   2.195 -0.3696 -0.7662  0.1922
 3244SOL     OW 9787   3.686   2.347   2.232 -0.8014  0.0325  0.3394
 3244SOL    HW1 9788   3.697   2.355   2.137 -0.1616 -0.2203  0.3889
 3244SOL    HW2 9789   3.618   2.281   2.243 -1.4320  0.6202  0.0494
 3245SOL     OW 9790   2.137   2.202   1.729 -0.1008 -0.1630 -0.0965
 3245SOL    HW1 9791   2.130   2.153   1.647 -1.5265  0.9350 -0.6723
 3245SOL    HW2 9792   2.098   2.145   1.795 -0.2854 -0.4548 -0.4564
 3246SOL     OW 9793   4.908   1.854   1.172  0.1400  0.2933  0.6270
 3246SOL    HW1 9794   4.832   1.901   1.138 -0.0520 -1.5464 -1.8011
 3246SOL    HW2 9795   4.957   1.828   1.094  1.7080 -1.1019  1.9881
 3247SOL     OW 9796   4.094   1.300   3.997 -0.4065 -0.3980  0.0536
 3247SOL    HW1 9797   4.189   1.313   3.995 -0.4804  0.0723 -0.9710
 3247SOL    HW2 9798   4.077   1.234   3.930 -0.8201 -0.3210  0.0789
 3248SOL     OW 9799   3.747   2.094   2.855 -0.6254  0.3296  0.4787
 3248SOL    HW1 9800   3.777   2.048   2.934 -0.1203 -0.1650  0.0030
 3248SOL    HW2 9801   3.809   2.167   2.845  0.1212 -0.3887 -0.2103
 3249SOL     OW 9802   1.976   1.469   2.695 -0.4290 -0.0425  0.6422
 3249SOL    HW1 9803   1.949   1.445   2.606 -0.3289  0.2609  0.5270
 3249SOL    HW2 9804   1.944   1.398   2.750 -2.6728  0.9091  0.6970
 3250SOL     OW 9805   2.678   4.120   4.580  0.4509 -0.6442 -0.6474
 3250SOL    HW1 9806   2.655   4.125   4.487  1.0320 -2.2163 -0.9219
 3250SOL    HW2 9807   2.640   4.198   4.619 -1.0525 -0.6817 -1.9483
 3251SOL     OW 9808   1.897   3.528   0.583  0.2736 -0.3404 -0.3210
 3251SOL    HW1 9809   1.843   3.605   0.566 -0.4780 -1.0719 -1.3734
 3251SOL    HW2 9810   1.939   3.546   0.668 -0.6370  0.7950 -0.0917
 3252SOL     OW 9811   4.652   3.774   3.242 -0.0646 -0.0587 -0.3104
 3252SOL    HW1 9812   4.686   3.736   3.323 -3.9991 -0.6079  1.3394
 3252SOL    HW2 9813   4.663   3.869   3.254 -2.8086  0.0824  2.2302
 3253SOL     OW 9814   4.811   3.155   1.049  0.6174 -0.7177 -0.6192
 3253SOL    HW1 9815   4.781   3.128   1.136  0.8957  2.3176  0.5356
 3253SOL    HW2 9816   4.762   3.099   0.988 -2.5726 -0.3408  1.3725
 3254SOL     OW 9817   0.398   3.209   2.285  0.4176  0.2281  0.2847
 3254SOL    HW1 9818   0.403   3.298   2.250  1.7096 -0.1361 -0.5116
 3254SOL    HW2 9819   0.451   3.156   2.226 -2.7091 -1.6995 -1.0569
 3255SOL     OW 9820   1.367   1.817   2.546  0.2256  0.0064  0.6455
 3255SOL    HW1 9821   1.457   1.783   2.541 -0.0456 -0.5632 -0.9498
 3255SOL    HW2 9822   1.338   1.794   2.634  0.4320 -3.0405  0.0431
 3256SOL     OW 9823   0.319   1.384   1.124 -0.8672  0.4371  0.2858
 3256SOL    HW1 9824   0.390   1.336   1.082  0.5193  1.1304  1.7181
 3256SOL    HW2 9825   0.249   1.388   1.058  1.4381  2.0982 -2.2599
 3257SOL     OW 9826   0.379   1.648   3.199  0.1193 -0.1365 -0.2394
 3257SOL    HW1 9827   0.419   1.561   3.202 -1.9355 -1.1141 -0.1493
 3257SOL    HW2 9828   0.341   1.660   3.285 -2.7009 -0.7135 -1.3133
 3258SOL     OW 9829   3.511   2.176   0.376 -0.3967  0.1224 -0.0138
 3258SOL    HW1 9830   3.489   2.133   0.459  1.6051 -0.7263  0.1378
 3258SOL    HW2 9831   3.506   2.106   0.311 -0.1002  0.3377 -0.2713
 3259SOL     OW 9832   1.229   4.698   3.903 -0.6906  0.7090  0.1737
 3259SOL    HW1 9833   1.188   4.766   3.850 -0.3554  0.3288 -0.6072
 3259SOL    HW2 9834   1.322   4.720   3.902 -0.3281 -0.5848 -1.4470
 3260SOL     OW 9835   2.535   0.899   0.435 -0.1707 -0.2843 -0.1929
 3260SOL    HW1 9836   2.555   0.974   0.490 -0.4644 -0.2813 -0.0841
 3260SOL    HW2 9837   2.620   0.866   0.407  0.0027 -0.4897  0.5423
 3261SOL     OW 9838   0.575   1.646   0.619  0.3818  0.4528  0.2223
 3261SOL    HW1 9839   0.583   1.714   0.685 -2.9154  0.8536  0.4047
 3261SOL    HW2 9840   0.480   1.633   0.609  0.8101 -2.0783 -1.8974
 3262SOL     OW 9841   0.628   0.378   3.495  0.3597  0.4156  0.4326
 3262SOL    HW1 9842   0.721   0.380   3.472 -0.0233  0.8870 -1.1876
 3262SOL    HW2 9843   0.583   0.399   3.414 -1.3777 -4.2414 -0.0957
 3263SOL     OW 9844   4.764   4.206   3.907  0.9848  0.4512 -0.6206
 3263SOL    HW1 9845   4.767   4.119   3.869 -0.5308  0.1060 -0.0134
 3263SOL    HW2 9846   4.790   4.194   3.999 -1.5379  0.1666  0.1399
 3264SOL     OW 9847   4.863   3.952   3.702 -0.0514  0.3563  0.3247
 3264SOL    HW1 9848   4.915   4.011   3.648  0.6004 -0.3883  0.1127
 3264SOL    HW2 9849   4.921   3.930   3.776 -0.9064  1.3214  1.3246
 3265SOL     OW 9850   3.807   2.058   4.436  0.0875  0.2435  0.0627
 3265SOL    HW1 9851   3.747   2.133   4.432  0.4083  0.6570  2.1389
 3265SOL    HW2 9852   3.880   2.083   4.379 -1.0375  0.2940 -1.4331
 3266SOL     OW 9853   2.162   4.087   4.001  0.3697 -0.5101 -0.5646
 3266SOL    HW1 9854   2.092   4.022   3.991 -0.9701  0.8391 -0.4024
 3266SOL    HW2 9855   2.240   4.036   4.019 -1.0740 -2.0368  2.0653
 3267SOL     OW 9856   4.071   4.405   0.727 -0.4046  0.1515 -0.4579
 3267SOL    HW1 9857   3.989   4.452   0.714 -0.7745 -0.4277 -0.2440
 3267SOL    HW2 9858   4.101   4.383   0.639  0.1270  1.3789 -0.5999
 3268SOL     OW 9859   0.744   2.955   4.272  0.6646 -0.2464 -0.0797
 3268SOL    HW1 9860   0.672   2.893   4.257  1.3392 -1.2626  0.7916
 3268SOL    HW2 9861   0.756   2.956   4.367  1.5465  0.2138 -0.1859
 3269SOL     OW 9862   1.384   1.272   4.185  0.4253 -0.7209  0.4215
 3269SOL    HW1 9863   1.410   1.342   4.245  2.0058 -0.9643  0.0781
 3269SOL    HW2 9864   1.289   1.266   4.195  0.0175  2.3321 -0.4573
 3270SOL     OW 9865   3.016   2.755   1.910 -0.2187  0.1963 -0.2465
 3270SOL    HW1 9866   2.997   2.802   1.991  1.9516  0.0531  0.4047
 3270SOL    HW2 9867   2.967   2.802   1.843 -1.3618  0.8567  0.9925
 3271SOL     OW 9868   4.465   3.288   1.143  0.2956 -0.6514  0.1681
 3271SOL    HW1 9869   4.406   3.269   1.070  1.4397  1.2893 -1.3541
 3271SOL    HW2 9870   4.494   3.202   1.173 -2.0840 -1.5927 -0.0036
 3272SOL     OW 9871   4.472   3.742   0.040  0.2770 -0.0026  0.5363
 3272SOL    HW1 9872   4.561   3.733   0.006 -0.4278  0.9902 -1.7589
 3272SOL    HW2 9873   4.428   3.662   0.014  0.1478  0.0944  0.4551
 3273SOL     OW 9874   2.782   2.055   3.296 -0.5630 -0.2121 -0.5096
 3273SOL    HW1 9875   2.744   2.075   3.381  1.9326  1.0720  0.4239
 3273SOL    HW2 9876   2.739   2.114   3.235 -2.4063 -1.1668 -0.1811
 3274SOL     OW 9877   2.849   3.368   3.105  0.7188  0.3135  0.4668
 3274SOL    HW1 9878   2.776   3.322   3.064  1.5066 -0.0405 -0.5919
 3274SOL    HW2 9879   2.808   3.426   3.169 -0.3316 -1.7629  1.8057
 3275SOL     OW 9880   3.571   2.461   1.413 -0.3748  0.1051 -0.3331
 3275SOL    HW1 9881   3.501   2.426   1.469 -0.5187  0.9521  0.0350
 3275SOL    HW2 9882   3.525   2.502   1.340 -0.4199  2.6460  1.0334
 3276SOL     OW 9883   1.118   1.728   2.761 -0.3931  0.1747  0.0211
 3276SOL    HW1 9884   1.026   1.726   2.787 -0.2194 -0.0922  0.6293
 3276SOL    HW2 9885   1.117   1.716   2.666 -1.0312  0.9949 -0.0864
 3277SOL     OW 9886   0.367   2.223   1.264 -0.2620 -0.0531  0.0315
 3277SOL    HW1 9887   0.353   2.206   1.357 -0.8413  1.5727  0.2712
 3277SOL    HW2 9888   0.298   2.174   1.220 -1.2305  0.7457  0.6158
 3278SOL     OW 9889   4.502   4.038   4.706 -0.1208 -0.5089  0.0993
 3278SOL    HW1 9890   4.475   4.069   4.792 -0.6600 -2.8117  0.8293
 3278SOL    HW2 9891   4.595   4.020   4.714 -0.1053 -0.4192  0.1130
 3279SOL     OW 9892   4.492   3.822   1.306 -0.6919  0.4466 -0.4332
 3279SOL    HW1 9893   4.429   3.830   1.234 -0.2361 -0.9465 -1.0238
 3279SOL    HW2 9894   4.525   3.732   1.300  1.2737  1.0831 -0.0804
 3280SOL     OW 9895   3.359   0.264   4.822 -0.3057  0.4129 -0.1055
 3280SOL    HW1 9896   3.339   0.200   4.890 -0.3753  0.4597 -0.0817
 3280SOL    HW2 9897   3.446   0.298   4.846 -0.5759  0.8423  0.2762
 3281SOL     OW 9898   1.069   1.515   1.841 -0.5068  0.3651  0.0468
 3281SOL    HW1 9899   1.087   1.591   1.896  0.2531  1.3686 -1.5104
 3281SOL    HW2 9900   1.154   1.492   1.804 -0.6364 -1.5719  0.8355
 3282SOL     OW 9901   0.399   2.866   2.508 -0.3172  0.4418  0.0025
 3282SOL    HW1 9902   0.479   2.910   2.538  0.5911 -0.5479 -0.8773
 3282SOL    HW2 9903   0.343   2.862   2.586  1.0648 -0.0847  1.0116
 3283SOL     OW 9904   1.229   3.031   2.789 -0.3011 -0.5678  0.0600
 3283SOL    HW1 9905   1.171   3.000   2.720 -0.2902  0.7229 -0.5666
 3283SOL    HW2 9906   1.238   3.125   2.772 -2.1881  0.3351  3.1956
 3284SOL     OW 9907   0.754   2.073   3.366  0.2563  0.2762 -1.0175
 3284SOL    HW1 9908   0.849   2.075   3.357  0.2253 -0.8300 -1.8595
 3284SOL    HW2 9909   0.722   2.131   3.297  0.3387  3.8667  1.6640
 3285SOL     OW 9910   3.165   1.796   2.938  0.0152 -0.7915 -0.1276
 3285SOL    HW1 9911   3.117   1.858   2.992  1.2328  0.5608 -0.5200
 3285SOL    HW2 9912   3.165   1.836   2.850  1.4417 -0.9466 -0.2282
 3286SOL     OW 9913   4.217   3.085   1.205  0.9233  0.0249 -0.7234
 3286SOL    HW1 9914   4.187   3.000   1.175  0.7029  0.4705 -1.8018
 3286SOL    HW2 9915   4.210   3.142   1.128 -1.8751  1.8092  0.6684
 3287SOL     OW 9916   3.447   4.958   2.640 -0.3096 -0.0142  0.0467
 3287SOL    HW1 9917   3.538   4.945   2.613 -0.2064  1.3170 -0.2759
 3287SOL    HW2 9918   3.446   4.932   2.732  0.3928 -0.0488  0.0527
 3288SOL     OW 9919   3.216   1.335   0.429 -0.4221 -0.5245  0.5750
 3288SOL    HW1 9920   3.299   1.287   0.435 -0.3790 -0.2878  1.9891
 3288SOL    HW2 9921   3.215   1.368   0.339  0.2702 -1.8591  0.0390
 3289SOL     OW 9922   1.771   2.311   2.970 -0.2395  0.0129 -0.6756
 3289SOL    HW1 9923   1.706   2.332   3.038  0.6349  0.0694  0.1592
 3289SOL    HW2 9924   1.752   2.220   2.946 -0.2138 -0.1919  0.0472
 3290SOL     OW 9925   0.755   4.624   4.091 -0.0065  0.1012 -0.7030
 3290SOL    HW1 9926   0.754   4.622   4.187 -0.3555  0.3687 -0.6975
 3290SOL    HW2 9927   0.847   4.615   4.068  0.1048  0.2478 -0.3340
 3291SOL     OW 9928   3.111   2.224   0.171 -0.0093 -0.2704 -0.0902
 3291SOL    HW1 9929   3.156   2.253   0.250 -1.8552  1.3103  0.4713
 3291SOL    HW2 9930   3.018   2.236   0.191 -0.5221  0.6565 -2.6671
 3292SOL     OW 9931   0.777   4.947   0.252 -0.0520 -0.3264 -0.0130
 3292SOL    HW1 9932   0.837   4.874   0.235 -0.2211 -0.9702  1.8861
 3292SOL    HW2 9933   0.779   4.999   0.172  3.3251 -0.0834  0.0926
 3293SOL     OW 9934   3.969   2.712   3.247 -0.5892 -0.1052 -0.2076
 3293SOL    HW1 9935   3.983   2.707   3.341  0.0921 -2.6933 -0.3766
 3293SOL    HW2 9936   4.058   2.712   3.210 -0.8617 -0.2189 -0.8702
 3294SOL     OW 9937   0.049   1.841   4.794 -0.6163 -0.3911  0.2380
 3294SOL    HW1 9938  -0.020   1.775   4.791 -0.9255 -0.0643 -0.0222
 3294SOL    HW2 9939   0.061   1.859   4.887 -2.8857  1.5848  0.2348
 3295SOL     OW 9940   1.468   0.992   2.214  0.0311 -0.6110  0.5792
 3295SOL    HW1 9941   1.374   0.981   2.228 -0.2667  0.6556 -0.2639
 3295SOL    HW2 9942   1.503   0.904   2.221 -1.0714 -0.9803  1.9042
 3296SOL     OW 9943   4.524   0.905   1.870 -0.1150 -0.2420  0.4243
 3296SOL    HW1 9944   4.486   0.820   1.894  0.3734 -0.2842  1.0851
 3296SOL    HW2 9945   4.493   0.965   1.937  0.6947 -0.2064  0.7758
 3297SOL     OW 9946   3.735   1.031   0.343 -0.6743 -0.0650 -0.0388
 3297SOL    HW1 9947   3.782   1.092   0.399  0.6132 -2.3968  1.6139
 3297SOL    HW2 9948   3.774   1.042   0.256 -0.4584  1.3660  0.2202
 3298SOL     OW 9949   4.001   1.552   3.293  0.2713  0.5897  0.1118
 3298SOL    HW1 9950   4.066   1.568   3.361 -0.2781  1.8194  0.3732
 3298SOL    HW2 9951   4.002   1.632   3.239  1.0690 -0.5417 -1.6689
 3299SOL     OW 9952   1.405   4.333   1.272  0.1815  0.0505 -0.2116
 3299SOL    HW1 9953   1.451   4.312   1.353 -1.5655  0.3918  0.9149
 3299SOL    HW2 9954   1.430   4.262   1.212  2.1280  0.2160  0.3184
 3300SOL     OW 9955   0.263   0.277   3.095 -0.1462 -0.0938 -0.6072
 3300SOL    HW1 9956   0.263   0.345   3.028  0.3761 -1.1141 -1.6902
 3300SOL    HW2 9957   0.354   0.248   3.100 -0.0181  0.4683  1.1188
 3301SOL     OW 9958   2.219   2.768   1.758 -0.1167 -0.0946  0.3811
 3301SOL    HW1 9959   2.313   2.769   1.779  0.1653 -0.4746 -0.7770
 3301SOL    HW2 9960   2.216   2.747   1.664 -1.3082  1.5515  0.0254
 3302SOL     OW 9961   0.820   3.523   1.718  0.2900  0.2307  0.0415
 3302SOL    HW1 9962   0.883   3.570   1.664 -1.5529  1.6997 -0.9570
 3302SOL    HW2 9963   0.781   3.591   1.774  0.1020 -0.7672  1.1767
 3303SOL     OW 9964   0.512   2.069   0.397 -0.2938  0.3935  0.1401
 3303SOL    HW1 9965   0.532   2.063   0.303 -0.0935 -0.7260  0.2439
 3303SOL    HW2 9966   0.572   2.136   0.430  0.7123 -0.2769 -0.2632
 3304SOL     OW 9967   2.909   0.688   0.669 -0.0042 -1.1161 -0.3412
 3304SOL    HW1 9968   2.818   0.658   0.667 -0.0999 -0.8396 -1.7124
 3304SOL    HW2 9969   2.956   0.625   0.615  0.5191 -0.9636 -0.0676
 3305SOL     OW 9970   0.139   1.496   3.299 -0.4001 -0.1362  0.0488
 3305SOL    HW1 9971   0.127   1.503   3.394  1.1834  0.2114  0.2472
 3305SOL    HW2 9972   0.136   1.586   3.267  1.5612 -0.0077  0.1308
 3306SOL     OW 9973   1.274   2.649   2.615  0.2426  0.0334  0.2427
 3306SOL    HW1 9974   1.349   2.683   2.566 -0.2092 -0.0588 -0.5349
 3306SOL    HW2 9975   1.232   2.588   2.555 -1.7070  1.6817 -0.2012
 3307SOL     OW 9976   3.738   4.427   3.867  0.2647 -0.0218  0.7839
 3307SOL    HW1 9977   3.765   4.517   3.883 -0.5826  0.1838  1.0656
 3307SOL    HW2 9978   3.684   4.404   3.942  0.0551 -0.5976  0.4619
 3308SOL     OW 9979   0.572   0.875   2.402  0.1775  0.0955 -0.3084
 3308SOL    HW1 9980   0.492   0.895   2.450  0.3800 -1.3932  0.7064
 3308SOL    HW2 9981   0.633   0.944   2.430  1.0807 -2.0202  3.6789
 3309SOL     OW 9982   1.054   2.178   2.971 -1.0000  0.1582  0.3418
 3309SOL    HW1 9983   1.068   2.255   2.915 -0.1750 -0.3755 -0.1924
 3309SOL    HW2 9984   1.093   2.105   2.923  0.6407 -0.1629  2.0238
 3310SOL     OW 9985   2.222   1.936   2.226  0.1455 -0.0930  0.4406
 3310SOL    HW1 9986   2.292   1.871   2.221 -0.6251 -0.9909  0.9517
 3310SOL    HW2 9987   2.258   2.013   2.183  0.6907 -1.2076 -1.1944
 3311SOL     OW 9988   1.717   4.229   2.255  0.0350  0.0977  0.2785
 3311SOL    HW1 9989   1.643   4.199   2.202  0.0923  0.3199  0.0670
 3311SOL    HW2 9990   1.792   4.227   2.195  1.0086 -3.5673  1.4005
 3312SOL     OW 9991   2.695   0.455   1.972  0.3959 -0.0557  0.3652
 3312SOL    HW1 9992   2.726   0.512   2.042 -0.4888  0.1589  0.5961
 3312SOL    HW2 9993   2.628   0.400   2.013  1.0965 -1.1352  0.0955
 3313SOL     OW 9994   4.529   0.693   1.085  0.2121  0.1834 -0.0372
 3313SOL    HW1 9995   4.620   0.722   1.080  0.4340 -0.1956  1.4082
 3313SOL    HW2 9996   4.503   0.681   0.994  2.2346 -1.5603 -0.4710
 3314SOL     OW 9997   4.510   0.952   3.834 -0.2010  0.0094  0.0737
 3314SOL    HW1 9998   4.595   0.957   3.790 -0.4349 -0.8762 -0.5105
 3314SOL    HW2 9999   4.467   1.035   3.814  0.7576  0.7351  0.8968
 3315SOL     OW10000   0.423   0.661   4.422 -0.0034  0.1227  0.2581
 3315SOL    HW110001   0.516   0.644   4.406 -0.4380 -1.9289 -0.4494
 3315SOL    HW210002   0.378   0.595   4.368 -1.8668  1.0251  0.6476
 3316SOL     OW10003   0.048   1.708   0.979  0.3904 -0.4707  0.2472
 3316SOL    HW110004   0.119   1.672   0.927 -0.1451 -0.3572 -0.5711
 3316SOL    HW210005  -0.027   1.652   0.960  0.1802 -0.4104  0.8712
 3317SOL     OW10006   1.125   1.266   2.522 -0.1946  0.0831 -0.0612
 3317SOL    HW110007   1.211   1.309   2.525 -0.5058  0.7176  0.0052
 3317SOL    HW210008   1.108   1.240   2.612 -0.5050  0.8420  0.1049
 3318SOL     OW10009   4.038   2.472   0.545  0.3906 -0.0736 -0.1440
 3318SOL    HW110010   4.018   2.564   0.560 -0.5758 -0.0878 -1.2176
 3318SOL    HW210011   3.988   2.426   0.612 -2.3866 -0.0241 -2.0357
 3319SOL     OW10012   1.154   2.569   0.408  0.1548 -0.0450  0.0836
 3319SOL    HW110013   1.166   2.593   0.500 -2.1931  1.9025 -0.0441
 3319SOL    HW210014   1.234   2.520   0.386  0.3215 -1.5706  3.4216
 3320SOL     OW10015   3.346   2.925   0.721  0.5980  0.0337  0.0229
 3320SOL    HW110016   3.353   3.018   0.738 -2.8694  0.0679  2.0153
 3320SOL    HW210017   3.296   2.919   0.640 -1.3700 -0.0082  1.1933
 3321SOL     OW10018   1.864   2.753   2.131 -0.1004 -0.3858  0.4674
 3321SOL    HW110019   1.929   2.737   2.200 -1.1890  1.7137  2.1070
 3321SOL    HW210020   1.856   2.849   2.129 -0.9968 -0.4652 -1.7673
 3322SOL     OW10021   1.790   0.978   3.616 -0.2964  0.0332  0.3120
 3322SOL    HW110022   1.753   0.939   3.537  0.8520 -0.1275 -0.1717
 3322SOL    HW210023   1.734   1.052   3.635 -1.9705 -1.2779  0.7099
 3323SOL     OW10024   2.819   4.741   4.377 -0.4019  0.1967 -0.0871
 3323SOL    HW110025   2.880   4.814   4.368  0.3321 -0.5899 -2.2125
 3323SOL    HW210026   2.746   4.777   4.426 -0.8182  2.8962 -2.4094
 3324SOL     OW10027   4.861   0.846   2.854  0.1299  0.2762  0.0390
 3324SOL    HW110028   4.808   0.902   2.797  0.0705  1.0988  0.8670
 3324SOL    HW210029   4.942   0.894   2.866  1.0368 -0.9150 -1.1002
 3325SOL     OW10030   0.361   1.647   4.915  0.4282  0.3033 -0.6931
 3325SOL    HW110031   0.391   1.722   4.966  0.2650  0.9584 -1.5401
 3325SOL    HW210032   0.380   1.571   4.970 -2.4421  1.1124  1.6983
 3326SOL     OW10033   3.125   4.620   0.165 -0.1605  0.0931  0.1853
 3326SOL    HW110034   3.052   4.579   0.210  0.9645 -0.4776  1.5806
 3326SOL    HW210035   3.109   4.604   0.072 -2.0254  0.4141  0.4199
 3327SOL     OW10036   1.760   2.353   0.700 -0.3130  0.1215  0.1343
 3327SOL    HW110037   1.669   2.324   0.711 -0.1320 -1.9991 -2.8216
 3327SOL    HW210038   1.812   2.289   0.748 -0.3072  0.4648  0.5869
 3328SOL     OW10039   3.696   2.911   3.126 -0.0191  0.0034  0.6925
 3328SOL    HW110040   3.772   2.892   3.070 -0.6894  2.0424 -1.0681
 3328SOL    HW210041   3.650   2.827   3.134  0.0146 -0.3800 -2.0468
 3329SOL     OW10042   2.383   2.088   2.585 -0.7711 -0.0890 -0.0962
 3329SOL    HW110043   2.351   2.034   2.658 -1.1144 -0.9975 -0.8958
 3329SOL    HW210044   2.474   2.109   2.610 -0.6264 -1.0383  0.2496
 3330SOL     OW10045   0.864   0.379   0.303 -0.9304 -0.8607  0.8901
 3330SOL    HW110046   0.949   0.381   0.259 -0.4105 -0.6537  1.8807
 3330SOL    HW210047   0.881   0.338   0.388 -1.3422  1.2289  2.0571
 3331SOL     OW10048   1.919   4.266   1.992 -0.3302 -0.0706  0.0836
 3331SOL    HW110049   2.011   4.263   1.966 -0.2504 -0.9979  0.4430
 3331SOL    HW210050   1.883   4.342   1.945  0.1079 -0.9377 -1.7216
 3332SOL     OW10051   4.275   4.743   0.992  0.1828 -0.2537 -0.7034
 3332SOL    HW110052   4.223   4.672   1.028 -0.6544  1.7024  2.2551
 3332SOL    HW210053   4.363   4.730   1.027  0.6401 -1.0907 -2.0968
 3333SOL     OW10054   0.341   3.186   0.699  0.3031  0.6213 -0.1468
 3333SOL    HW110055   0.308   3.198   0.610 -3.7160  2.7324  1.3704
 3333SOL    HW210056   0.341   3.275   0.736  0.4375 -0.3596  2.3869
 3334SOL     OW10057   1.426   3.753   0.016 -0.3796 -0.8257  0.4834
 3334SOL    HW110058   1.346   3.737  -0.034  0.2635 -1.4730 -0.3677
 3334SOL    HW210059   1.422   3.690   0.089  1.2090 -3.7698 -1.7679
 3335SOL     OW10060   3.784   3.445   4.847 -0.1666 -0.2349 -0.4855
 3335SOL    HW110061   3.816   3.355   4.851 -1.8550 -0.9149 -1.1683
 3335SOL    HW210062   3.860   3.499   4.868  0.9820 -1.7999 -0.4612
 3336SOL     OW10063   1.550   2.502   4.864 -0.3030 -0.1057  0.7299
 3336SOL    HW110064   1.560   2.417   4.822  1.0101  1.5444 -2.7245
 3336SOL    HW210065   1.635   2.544   4.855 -1.5428  2.4953 -0.0658
 3337SOL     OW10066   1.344   1.652   3.873  0.0292  0.4677 -0.1190
 3337SOL    HW110067   1.404   1.585   3.839  3.8147  2.2430  2.3322
 3337SOL    HW210068   1.360   1.652   3.967 -3.4228  1.6346  0.5819
 3338SOL     OW10069   3.716   2.528   4.322 -0.6104  0.1341 -0.3717
 3338SOL    HW110070   3.750   2.589   4.256 -0.8599  1.5630  0.7790
 3338SOL    HW210071   3.791   2.475   4.346  0.0601  1.1479 -0.1488
 3339SOL     OW10072   4.398   0.324   0.567 -0.0741 -0.1199 -0.2007
 3339SOL    HW110073   4.385   0.406   0.519  0.2748 -0.7195 -1.3625
 3339SOL    HW210074   4.367   0.343   0.656  1.7686  1.8713  0.1276
 3340SOL     OW10075   3.525   2.009   0.166  0.6767 -0.1679  0.6489
 3340SOL    HW110076   3.491   2.024   0.077  0.0315  0.7656  1.0325
 3340SOL    HW210077   3.613   2.046   0.165  0.7566 -0.3662  0.3330
 3341SOL     OW10078   1.918   2.774   0.708 -0.0245 -0.3233  1.2144
 3341SOL    HW110079   1.829   2.779   0.742 -0.0397  0.2348  1.1160
 3341SOL    HW210080   1.932   2.859   0.665  1.9208  1.2289  4.5539
 3342SOL     OW10081   2.163   1.874   3.546 -0.8393  0.1792  0.0605
 3342SOL    HW110082   2.245   1.899   3.589 -1.8050  2.1682  0.8368
 3342SOL    HW210083   2.164   1.921   3.463 -1.1615  0.1081  0.0153
 3343SOL     OW10084   4.800   4.033   2.579  0.5385  0.3159  0.1904
 3343SOL    HW110085   4.829   4.122   2.561  1.5953 -0.1275 -0.3902
 3343SOL    HW210086   4.728   4.043   2.642 -0.3813  1.6446 -1.0313
 3344SOL     OW10087   1.811   0.131   2.496  0.1646  0.2860  0.5483
 3344SOL    HW110088   1.895   0.129   2.543 -1.0899 -0.7068  2.9156
 3344SOL    HW210089   1.824   0.073   2.421  1.8342  0.8575  0.3506
 3345SOL     OW10090   2.448   2.463   0.274 -0.0154 -0.7204 -0.4220
 3345SOL    HW110091   2.389   2.432   0.343  0.0534 -1.6780 -0.7820
 3345SOL    HW210092   2.407   2.544   0.243  0.2751  0.0620  1.1388
 3346SOL     OW10093   3.175   3.395   0.402  0.4418 -0.3346  0.2735
 3346SOL    HW110094   3.266   3.405   0.429 -0.1892  2.3423  1.8579
 3346SOL    HW210095   3.125   3.406   0.483 -1.3175 -1.1049 -0.6503
 3347SOL     OW10096   2.234   4.240   0.803 -0.3159 -0.7569  0.1096
 3347SOL    HW110097   2.330   4.244   0.810 -0.1746 -0.3370 -1.6152
 3347SOL    HW210098   2.203   4.255   0.892  1.2134 -0.2431  0.5872
 3348SOL     OW10099   3.165   4.449   3.601 -0.1075  0.0849 -0.3741
 3348SOL    HW110100   3.165   4.379   3.667 -1.0501 -1.2234 -1.7110
 3348SOL    HW210101   3.189   4.528   3.650  0.6228 -1.0965  1.2485
 3349SOL     OW10102   2.384   1.224   0.054  0.2878 -0.3184 -0.6322
 3349SOL    HW110103   2.322   1.227   0.127  0.0478 -0.0452 -0.8439
 3349SOL    HW210104   2.332   1.250  -0.022  0.4141 -1.0384 -0.9816
 3350SOL     OW10105   3.947   4.875   2.719 -0.1530 -0.7010 -0.6273
 3350SOL    HW110106   3.877   4.838   2.773  1.4925 -1.9355  0.8049
 3350SOL    HW210107   3.917   4.963   2.697 -1.9580 -1.0499  0.2595
 3351SOL     OW10108   1.395   2.728   3.250 -0.7065  0.0299 -0.1453
 3351SOL    HW110109   1.410   2.724   3.345  0.7491  0.1918 -0.3509
 3351SOL    HW210110   1.412   2.819   3.227 -1.5787  0.1165 -0.5012
 3352SOL     OW10111   0.155   0.518   1.839  0.2162 -0.6700 -0.2795
 3352SOL    HW110112   0.149   0.580   1.911 -1.0169  0.1914 -1.0822
 3352SOL    HW210113   0.214   0.450   1.870  0.3705  0.1169  1.2094
 3353SOL     OW10114   3.486   2.153   2.189 -0.1411  0.4564 -0.5839
 3353SOL    HW110115   3.500   2.126   2.098  1.6187  1.4557 -0.6477
 3353SOL    HW210116   3.445   2.076   2.230  0.5577 -0.6248 -1.8220
 3354SOL     OW10117   4.688   0.673   0.738 -0.0644  0.4143 -0.1186
 3354SOL    HW110118   4.647   0.587   0.749  2.9088 -1.4254 -1.8962
 3354SOL    HW210119   4.708   0.702   0.827  0.5856 -1.7170  0.4909
 3355SOL     OW10120   0.723   3.441   3.469  0.3284  0.3963  0.0196
 3355SOL    HW110121   0.718   3.352   3.435  2.6211  0.4179 -0.5341
 3355SOL    HW210122   0.798   3.439   3.528  1.2050  2.2407 -0.9631
 3356SOL     OW10123   3.352   3.086   1.078 -0.0287 -0.1360 -0.5233
 3356SOL    HW110124   3.289   3.121   1.140  3.2220  0.1610  2.9449
 3356SOL    HW210125   3.321   3.117   0.993 -3.7125  1.0675  1.0573
 3357SOL     OW10126   2.178   2.884   0.212  0.6949 -0.4667 -0.0259
 3357SOL    HW110127   2.214   2.973   0.202  1.6296 -0.7280  0.8828
 3357SOL    HW210128   2.111   2.893   0.280  0.1774 -0.2972 -0.5519
 3358SOL     OW10129   0.175   2.546   2.353  0.6287 -0.3063  0.2610
 3358SOL    HW110130   0.118   2.583   2.420  2.0868  1.3657  0.6288
 3358SOL    HW210131   0.241   2.497   2.401 -0.3714 -2.1448 -0.1596
 3359SOL     OW10132   1.055   1.451   2.315  0.3879  0.1732  0.6490
 3359SOL    HW110133   1.072   1.397   2.237 -1.0569  1.9302 -0.9590
 3359SOL    HW210134   1.069   1.391   2.388  0.2415 -2.0099 -0.9962
 3360SOL     OW10135   4.495   4.272   1.173 -0.5971 -0.1689 -0.6116
 3360SOL    HW110136   4.541   4.220   1.239  0.5195  1.8013  0.2466
 3360SOL    HW210137   4.565   4.305   1.116 -1.3001  0.1792 -1.2851
 3361SOL     OW10138   2.905   4.159   4.176  0.3159 -0.2646  0.3702
 3361SOL    HW110139   2.903   4.245   4.218  0.0984  0.3648 -0.8842
 3361SOL    HW210140   2.828   4.113   4.211 -0.5581  0.6910 -0.2455
 3362SOL     OW10141   3.225   0.009   3.952 -0.0427 -0.1896  0.5061
 3362SOL    HW110142   3.316   0.011   3.980  0.6219  0.5987 -1.5246
 3362SOL    HW210143   3.228  -0.015   3.860 -2.0306 -1.7427  0.7608
 3363SOL     OW10144   2.800   4.594   1.410  0.3223 -0.2211  0.2657
 3363SOL    HW110145   2.805   4.544   1.329 -0.7047  1.5317 -0.9523
 3363SOL    HW210146   2.884   4.641   1.414  1.3307 -2.0073  1.4639
 3364SOL     OW10147   0.730   0.731   4.816  0.2001 -0.0801 -0.1782
 3364SOL    HW110148   0.748   0.773   4.900 -0.3452 -1.4841  0.6812
 3364SOL    HW210149   0.674   0.657   4.838  1.9908 -1.9314 -1.4542
 3365SOL     OW10150   4.417   3.401   2.072  0.8368 -0.1125 -0.1739
 3365SOL    HW110151   4.415   3.321   2.018  0.6865 -1.1532  1.3195
 3365SOL    HW210152   4.510   3.424   2.077  0.8726 -0.1400 -0.6833
 3366SOL     OW10153   4.685   1.118   1.474  0.0993 -0.2039 -0.2035
 3366SOL    HW110154   4.631   1.188   1.510 -1.4718 -0.5538 -1.7155
 3366SOL    HW210155   4.703   1.061   1.548  1.1059  1.5647  0.9852
 3367SOL     OW10156   1.704   1.899   1.283 -0.0517  0.0186  0.2392
 3367SOL    HW110157   1.763   1.956   1.331 -0.2650  1.7841 -1.4448
 3367SOL    HW210158   1.621   1.905   1.331  0.0421  0.8326  0.3183
 3368SOL     OW10159   4.803   2.715   3.384 -0.8326  0.3273  0.1773
 3368SOL    HW110160   4.886   2.685   3.348 -1.3451 -1.3889  0.3595
 3368SOL    HW210161   4.750   2.735   3.307 -1.4714 -2.0783 -0.0864
 3369SOL     OW10162   1.106   2.383   2.799 -0.2407 -0.6693  0.6161
 3369SOL    HW110163   1.179   2.440   2.823  0.2018 -1.6608  1.7453
 3369SOL    HW210164   1.105   2.383   2.703 -0.7524  1.8202  0.5571
 3370SOL     OW10165   0.592   4.276   1.187  0.1163 -0.7716  0.3559
 3370SOL    HW110166   0.500   4.301   1.194  0.2583 -0.6230  2.1445
 3370SOL    HW210167   0.609   4.226   1.267  1.4528 -1.2753 -0.2212
 3371SOL     OW10168   4.658   4.656   3.977  0.3285  0.2935  0.1814
 3371SOL    HW110169   4.608   4.584   4.017 -0.1020  1.0563  1.0513
 3371SOL    HW210170   4.741   4.657   4.025  0.8824 -0.4723 -0.7380
 3372SOL     OW10171   1.270   3.771   4.054 -0.0573  1.4314  0.2600
 3372SOL    HW110172   1.235   3.798   3.969 -1.3010 -0.6724  0.0397
 3372SOL    HW210173   1.362   3.797   4.051 -0.0519  1.3660 -1.7573
 3373SOL     OW10174   3.961   2.414   4.418  0.1633 -0.5384 -0.2333
 3373SOL    HW110175   3.991   2.496   4.379 -0.2959 -0.5439 -0.6120
 3373SOL    HW210176   4.030   2.351   4.397  0.3895 -0.3107 -0.1748
 3374SOL     OW10177   3.947   4.621   1.449 -0.3489  0.5017 -0.1465
 3374SOL    HW110178   4.027   4.624   1.500 -0.1473  0.2523 -0.4461
 3374SOL    HW210179   3.881   4.587   1.510 -0.2910  0.9655  0.1771
 3375SOL     OW10180   0.637   3.482   4.079  0.4100  0.4722 -0.1471
 3375SOL    HW110181   0.673   3.473   4.167 -0.2492  0.0244  0.0798
 3375SOL    HW210182   0.698   3.541   4.034  0.6138  0.8960  0.6756
 3376SOL     OW10183   1.226   3.106   0.175  0.4122 -0.1432  0.3141
 3376SOL    HW110184   1.155   3.169   0.189 -2.2491 -2.5469 -1.4174
 3376SOL    HW210185   1.225   3.051   0.254 -0.0997 -0.5664  0.0158
 3377SOL     OW10186   1.180   2.290   2.011  0.4264 -0.2101  0.0661
 3377SOL    HW110187   1.157   2.246   1.929 -0.3171 -0.8758  0.6163
 3377SOL    HW210188   1.098   2.327   2.042  0.6522 -0.1783  0.6379
 3378SOL     OW10189   3.473   0.484   3.471  0.8941 -0.3386 -0.3360
 3378SOL    HW110190   3.511   0.482   3.383  0.1612 -1.6174 -0.6485
 3378SOL    HW210191   3.537   0.533   3.524  2.0286 -0.7842 -1.2596
 3379SOL     OW10192   0.728   4.924   0.524  0.5931  0.2081 -0.0517
 3379SOL    HW110193   0.746   4.941   0.431 -0.3207 -0.1218 -0.3024
 3379SOL    HW210194   0.767   4.839   0.541 -1.8728 -1.2276 -0.9968
 3380SOL     OW10195   4.129   4.664   1.645  0.5843  0.2389  0.2818
 3380SOL    HW110196   4.218   4.669   1.610  0.6443 -1.5679  0.0864
 3380SOL    HW210197   4.138   4.621   1.730 -0.1572 -0.8153 -0.1394
 3381SOL     OW10198   3.398   1.520   2.616 -0.0397  0.1022  0.4001
 3381SOL    HW110199   3.315   1.563   2.639 -0.2201  0.7600 -1.3167
 3381SOL    HW210200   3.373   1.433   2.586 -0.3251  0.8310 -1.6043
 3382SOL     OW10201   3.852   3.072   2.715 -0.5064 -0.4113  0.7843
 3382SOL    HW110202   3.795   3.098   2.642  0.7142 -0.0680 -0.0774
 3382SOL    HW210203   3.886   3.154   2.750  1.6711 -0.6419 -0.5693
 3383SOL     OW10204   2.022   0.480   3.102 -0.1586  0.3685  0.4133
 3383SOL    HW110205   2.009   0.405   3.160  3.1182 -0.8233 -0.1906
 3383SOL    HW210206   2.028   0.556   3.160 -0.1065 -0.3329  1.3420
 3384SOL     OW10207   2.057   4.690   2.747 -0.0275 -0.3685  0.5285
 3384SOL    HW110208   2.032   4.713   2.836  1.8519  0.1425  0.9732
 3384SOL    HW210209   2.045   4.595   2.742 -0.2153 -0.3887  1.2900
 3385SOL     OW10210   3.507   3.769   4.676 -0.6600 -0.1838  0.3103
 3385SOL    HW110211   3.442   3.715   4.633  1.2360 -3.0432  0.7323
 3385SOL    HW210212   3.532   3.835   4.611 -0.3286 -2.2362 -1.7407
 3386SOL     OW10213   2.354   0.895   0.245 -0.4582  0.1537  0.1720
 3386SOL    HW110214   2.423   0.902   0.311  0.5365  0.8690 -0.9047
 3386SOL    HW210215   2.287   0.956   0.275  0.2055  0.8480  0.2901
 3387SOL     OW10216   4.059   2.851   0.838  0.7660  0.0260 -0.1019
 3387SOL    HW110217   4.035   2.942   0.825 -0.1522 -0.0567  0.8790
 3387SOL    HW210218   4.047   2.810   0.753 -1.7953  0.1910  0.1179
 3388SOL     OW10219   3.107   0.486   3.997 -0.2309 -0.5629 -0.1614
 3388SOL    HW110220   3.130   0.556   4.057  0.6977 -0.0511 -1.0863
 3388SOL    HW210221   3.116   0.525   3.910 -0.6879 -1.5356 -0.6642
 3389SOL     OW10222   2.431   0.236   3.619 -0.1482  0.3769 -0.4158
 3389SOL    HW110223   2.512   0.286   3.615 -1.0004  1.8281 -0.1350
 3389SOL    HW210224   2.430   0.185   3.538  0.0744  1.8973 -1.4128
 3390SOL     OW10225   4.615   1.554   3.399 -0.1876  0.3800 -0.0677
 3390SOL    HW110226   4.622   1.635   3.348  2.6831 -0.3718 -1.0809
 3390SOL    HW210227   4.704   1.517   3.397 -0.3519 -0.6967  3.8979
 3391SOL     OW10228   3.710   0.168   0.593  0.6808  0.1746 -0.1817
 3391SOL    HW110229   3.755   0.084   0.589  0.7269  0.2071 -0.3730
 3391SOL    HW210230   3.780   0.232   0.607  0.6652  0.1987 -0.2141
 3392SOL     OW10231   0.036   0.952   3.321  0.5645  0.0078 -0.0474
 3392SOL    HW110232   0.024   0.940   3.415  0.7772  0.9514  0.1108
 3392SOL    HW210233   0.129   0.935   3.307  0.4907 -0.3478 -0.1332
 3393SOL     OW10234   2.358   1.753   3.022 -0.2309  0.2613 -0.1384
 3393SOL    HW110235   2.279   1.698   3.031 -0.0759 -0.1037 -0.9335
 3393SOL    HW210236   2.369   1.792   3.109  0.3174 -1.8721  0.8338
 3394SOL     OW10237   2.492   1.596   0.620  0.2178  0.4916 -0.0583
 3394SOL    HW110238   2.404   1.600   0.581  0.0042 -1.1468  0.1672
 3394SOL    HW210239   2.551   1.621   0.549 -0.2786 -0.9377 -1.0340
 3395SOL     OW10240   3.815   2.627   1.129  0.1108  0.3819  0.0809
 3395SOL    HW110241   3.880   2.577   1.079 -1.1066 -0.7421 -0.4188
 3395SOL    HW210242   3.788   2.569   1.200 -1.0665  0.4334 -0.2998
 3396SOL     OW10243   3.705   3.225   0.632 -0.2379  0.7182  0.1963
 3396SOL    HW110244   3.677   3.152   0.688 -2.2679  1.0026 -0.3537
 3396SOL    HW210245   3.721   3.297   0.693 -0.2213  0.3931  0.5800
 3397SOL     OW10246   3.362   0.493   4.646  0.5845  0.0414  0.1698
 3397SOL    HW110247   3.307   0.548   4.702 -0.0491 -0.9478  0.5279
 3397SOL    HW210248   3.333   0.404   4.663  1.3438 -0.3864 -0.6980
 3398SOL     OW10249   2.361   2.623   2.007  0.2941  0.3802  0.0241
 3398SOL    HW110250   2.401   2.657   1.927 -1.7293  0.1873 -1.1433
 3398SOL    HW210251   2.423   2.558   2.039  0.0596 -1.5234 -2.9222
 3399SOL     OW10252   1.929   1.215   1.526 -0.6307  0.6552  0.1062
 3399SOL    HW110253   1.859   1.198   1.464  0.3981  0.4726 -1.0410
 3399SOL    HW210254   1.958   1.128   1.554 -1.0282  0.7342  0.7906
 3400SOL     OW10255   2.430   1.866   3.261 -0.3524 -0.1695  0.2877
 3400SOL    HW110256   2.478   1.810   3.322 -0.7136  0.2076  0.9201
 3400SOL    HW210257   2.477   1.950   3.264 -1.1075  0.2320  0.9815
 3401SOL     OW10258   1.403   4.099   0.651  0.0994  0.3410 -0.0818
 3401SOL    HW110259   1.421   4.047   0.572 -0.3713  0.4528 -0.2641
 3401SOL    HW210260   1.335   4.050   0.696  1.7634 -0.8286  1.3275
 3402SOL     OW10261   1.618   3.675   3.800  0.4778  0.4567 -0.3872
 3402SOL    HW110262   1.602   3.628   3.882 -2.6111  3.7992  1.2072
 3402SOL    HW210263   1.567   3.628   3.734  0.7933 -0.7055  0.1694
 3403SOL     OW10264   2.913   0.207   3.372  0.2105  0.1708  0.6369
 3403SOL    HW110265   2.838   0.151   3.351 -0.6627  1.9490 -1.3347
 3403SOL    HW210266   2.888   0.253   3.451 -0.4784  0.2307  0.3845
 3404SOL     OW10267   0.670   3.725   1.830 -0.5806  0.6021 -0.2009
 3404SOL    HW110268   0.690   3.816   1.848 -2.2941  0.8324  0.7770
 3404SOL    HW210269   0.620   3.726   1.748 -2.3872  0.8344  0.8398
 3405SOL     OW10270   0.006   4.149   4.139 -0.0082 -0.6155 -0.0810
 3405SOL    HW110271  -0.050   4.079   4.172  0.5196 -1.1696 -0.3393
 3405SOL    HW210272   0.093   4.109   4.131  0.8133  0.6341  1.7716
 3406SOL     OW10273   2.905   3.396   4.109 -0.1344 -0.3690  0.0795
 3406SOL    HW110274   2.973   3.344   4.153  0.3902  0.6306  0.4921
 3406SOL    HW210275   2.829   3.389   4.166 -0.6754 -2.1603 -0.7892
 3407SOL     OW10276   2.346   0.143   0.610  0.2089 -0.1033 -0.0004
 3407SOL    HW110277   2.424   0.098   0.578  0.0615 -1.3867  1.3469
 3407SOL    HW210278   2.378   0.202   0.678 -0.1561 -2.2964  2.2085
 3408SOL     OW10279   2.489   3.263   0.233 -0.1760  0.3929  0.1009
 3408SOL    HW110280   2.456   3.313   0.158 -0.3974 -0.2332 -0.2225
 3408SOL    HW210281   2.584   3.264   0.222 -0.1641  0.9084  0.2072
 3409SOL     OW10282   2.236   4.098   4.379 -0.4457 -0.1436 -0.1804
 3409SOL    HW110283   2.293   4.139   4.314 -0.8646 -1.7123 -1.6348
 3409SOL    HW210284   2.294   4.037   4.426 -0.6397 -0.8600 -0.8434
 3410SOL     OW10285   1.872   3.787   3.812  0.2818  0.4446 -0.1827
 3410SOL    HW110286   1.777   3.781   3.816  0.2534  1.3882  1.4113
 3410SOL    HW210287   1.895   3.750   3.726 -1.3789 -1.0547 -0.0307
 3411SOL     OW10288   3.025   1.306   4.772 -0.2811 -0.1495  0.7633
 3411SOL    HW110289   2.972   1.351   4.839  0.6508  1.0404  0.7195
 3411SOL    HW210290   2.982   1.326   4.689 -1.7686 -2.0839  0.9805
 3412SOL     OW10291   3.604   4.257   0.702  0.4292  0.4452 -0.1658
 3412SOL    HW110292   3.652   4.221   0.628  0.2513  0.1451 -0.1355
 3412SOL    HW210293   3.625   4.351   0.701  1.9429  0.1415  0.5612
 3413SOL     OW10294   3.572   0.475   3.212  0.2514 -0.3312 -0.5271
 3413SOL    HW110295   3.482   0.502   3.191  0.4636  2.0441  1.1881
 3413SOL    HW210296   3.626   0.547   3.180  1.3943 -0.9690 -0.0837
 3414SOL     OW10297   0.602   3.204   4.112 -0.1238  0.8882  0.1894
 3414SOL    HW110298   0.632   3.159   4.191 -1.5438  0.9876  0.8293
 3414SOL    HW210299   0.657   3.283   4.107  0.1614  0.7443  0.9276
 3415SOL     OW10300   3.735   0.350   1.386  0.4750 -0.2054 -0.2365
 3415SOL    HW110301   3.687   0.274   1.353  0.1429  0.3102 -0.9587
 3415SOL    HW210302   3.798   0.313   1.449 -0.5251 -0.9332  0.3627
 3416SOL     OW10303   4.554   2.201   1.470  0.1027  0.2201 -0.1748
 3416SOL    HW110304   4.494   2.154   1.528  0.3956 -0.9741 -0.7988
 3416SOL    HW210305   4.521   2.183   1.382  0.2054  1.2329 -0.4286
 3417SOL     OW10306   2.139   2.127   2.455 -0.5501  0.5610 -0.6269
 3417SOL    HW110307   2.226   2.110   2.491 -1.7407 -3.6099  0.8822
 3417SOL    HW210308   2.143   2.095   2.366 -0.4385  0.8809 -0.7400
 3418SOL     OW10309   4.180   0.061   4.842  0.7142  0.2279 -0.1900
 3418SOL    HW110310   4.237   0.095   4.773  1.5117  0.8064  0.7298
 3418SOL    HW210311   4.179   0.130   4.908  1.0360 -0.8412  0.9735
 3419SOL     OW10312   0.589   0.206   1.980 -0.1990  0.2382  0.3060
 3419SOL    HW110313   0.662   0.240   2.032  1.3046 -1.0311 -0.8707
 3419SOL    HW210314   0.612   0.227   1.889 -2.3238  1.5939  0.0173
 3420SOL     OW10315   2.204   1.000   4.750  0.1195  0.1584  0.3281
 3420SOL    HW110316   2.127   0.951   4.779 -0.7359  0.9046 -0.6506
 3420SOL    HW210317   2.213   1.071   4.814 -0.5210  0.5760 -0.0419
 3421SOL     OW10318   1.993   0.958   1.592 -0.2017  0.6325  0.3644
 3421SOL    HW110319   1.901   0.933   1.594 -0.6138  2.0842  0.8275
 3421SOL    HW210320   2.028   0.926   1.675 -0.5255  0.8674  0.5955
 3422SOL     OW10321   1.141   1.685   0.008  0.6597 -0.3127  0.5186
 3422SOL    HW110322   1.052   1.668   0.037 -1.2892  0.6788 -3.9669
 3422SOL    HW210323   1.177   1.599  -0.012 -1.1857 -0.5809 -2.0693
 3423SOL     OW10324   3.395   1.748   0.925 -0.5416 -0.2626  0.0121
 3423SOL    HW110325   3.407   1.835   0.888 -3.6945 -0.5045 -1.9585
 3423SOL    HW210326   3.460   1.694   0.881 -1.1114  0.4120 -1.7395
 3424SOL     OW10327   0.541   4.835   2.424  0.1775  0.5418 -0.8892
 3424SOL    HW110328   0.453   4.855   2.391 -0.5840  2.4192  1.9067
 3424SOL    HW210329   0.535   4.743   2.452 -1.1603  0.8523 -0.0735
 3425SOL     OW10330   3.931   1.866   4.567 -0.6334 -0.1745 -0.1183
 3425SOL    HW110331   3.863   1.931   4.553 -2.7169 -2.3333 -0.5340
 3425SOL    HW210332   3.912   1.796   4.505  1.3028 -1.3893  0.5365
 3426SOL     OW10333   1.760   0.993   0.177 -0.2163 -0.8248  0.1250
 3426SOL    HW110334   1.709   1.070   0.202 -1.5425 -0.8874 -2.1591
 3426SOL    HW210335   1.708   0.951   0.108  1.8327 -2.1880 -0.6751
 3427SOL     OW10336   2.303   1.678   0.423 -0.7541  0.0687  0.1325
 3427SOL    HW110337   2.324   1.612   0.358 -0.4004 -2.2066  2.4228
 3427SOL    HW210338   2.353   1.755   0.396  2.1769 -1.8789 -0.4068
 3428SOL     OW10339   3.045   2.687   4.956 -0.2302 -0.2263 -0.3016
 3428SOL    HW110340   2.969   2.732   4.919 -0.9276 -1.3971 -0.3262
 3428SOL    HW210341   3.014   2.599   4.974  1.5901 -1.2498 -1.8974
 3429SOL     OW10342   2.364   3.815   1.860 -0.0020 -0.0204 -0.4229
 3429SOL    HW110343   2.401   3.732   1.890  2.1736  1.6253  1.8436
 3429SOL    HW210344   2.300   3.839   1.927 -1.4846 -0.3533 -1.6657
 3430SOL     OW10345   2.946   0.027   1.395 -0.0952  0.3215  0.2584
 3430SOL    HW110346   3.024   0.077   1.373 -0.5173  1.0517  0.3755
 3430SOL    HW210347   2.979  -0.057   1.426  0.6731  0.8599  0.9355
 3431SOL     OW10348   0.277   0.631   4.142 -0.7501  0.5426  0.6726
 3431SOL    HW110349   0.200   0.614   4.196 -1.2720 -0.1630 -0.2578
 3431SOL    HW210350   0.307   0.544   4.115  0.4465  0.8110  1.1252
 3432SOL     OW10351   0.073   3.453   4.873 -0.7200  0.1494 -0.2218
 3432SOL    HW110352   0.038   3.534   4.910  2.1539  1.1786  0.5024
 3432SOL    HW210353   0.096   3.475   4.783  2.9077  1.2598  0.8028
 3433SOL     OW10354   2.096   2.166   0.253  0.1812 -0.0025  0.5249
 3433SOL    HW110355   2.170   2.149   0.311 -0.7605 -1.0157  1.4774
 3433SOL    HW210356   2.072   2.081   0.218  0.9063  0.6305 -1.6343
 3434SOL     OW10357   3.748   4.067   2.134  0.4597  0.0056  0.1168
 3434SOL    HW110358   3.805   4.013   2.079  1.0773  0.1313  0.6119
 3434SOL    HW210359   3.721   4.009   2.205  2.5102  0.7248  1.6182
 3435SOL     OW10360   2.246   4.400   4.936 -0.1205 -0.0870  0.0187
 3435SOL    HW110361   2.219   4.479   4.889 -0.7284 -1.5825 -2.3163
 3435SOL    HW210362   2.173   4.380   4.994  0.3818  1.4521  1.2659
 3436SOL     OW10363   4.089   2.870   2.606 -0.2801 -0.2948  0.3756
 3436SOL    HW110364   4.101   2.782   2.643  0.2201 -0.1454  0.5864
 3436SOL    HW210365   4.000   2.871   2.573  0.2121 -1.4437 -1.1087
 3437SOL     OW10366   4.904   0.366   2.581  0.2215  0.0441 -0.1952
 3437SOL    HW110367   4.866   0.385   2.496  0.9133 -2.7876 -1.2378
 3437SOL    HW210368   4.842   0.306   2.622  1.3432 -1.0189 -0.0037
 3438SOL     OW10369   4.535   2.487   1.477  0.2090  0.3112  0.2394
 3438SOL    HW110370   4.564   2.396   1.473 -0.2592  0.2114 -2.5029
 3438SOL    HW210371   4.551   2.521   1.389  0.4575  2.9342  1.2136
 3439SOL     OW10372   0.930   4.731   2.573  0.1468  0.4328 -0.3072
 3439SOL    HW110373   1.010   4.680   2.563  1.3817  2.0438  0.8052
 3439SOL    HW210374   0.936   4.799   2.505  0.1044  1.0173  0.2681
 3440SOL     OW10375   2.580   4.961   0.508  0.0607  0.1870  0.0058
 3440SOL    HW110376   2.527   4.929   0.435  0.6683  0.9705 -0.8113
 3440SOL    HW210377   2.575   4.891   0.574 -0.1522 -0.7454 -0.9631
 3441SOL     OW10378   0.296   1.569   3.822 -0.0458  0.3264 -0.2773
 3441SOL    HW110379   0.283   1.592   3.730 -1.3146  2.0753  0.2744
 3441SOL    HW210380   0.219   1.605   3.866  1.8426  2.0935  1.8337
 3442SOL     OW10381   2.745   4.704   4.077  0.5717  0.5406 -0.4147
 3442SOL    HW110382   2.826   4.732   4.118  1.0055 -2.6856  1.2215
 3442SOL    HW210383   2.761   4.614   4.049 -1.9952  0.2985 -1.4134
 3443SOL     OW10384   1.955   0.578   2.459  0.4811 -0.0980  0.2552
 3443SOL    HW110385   1.985   0.522   2.386  0.8169 -1.8090  1.6324
 3443SOL    HW210386   1.974   0.667   2.430  1.2117 -0.7640 -1.4798
 3444SOL     OW10387   0.432   4.664   0.276  0.9010  0.4223  0.2466
 3444SOL    HW110388   0.502   4.619   0.323 -0.5103 -2.0610  0.1210
 3444SOL    HW210389   0.415   4.609   0.200 -1.9649  0.2643  0.8952
 3445SOL     OW10390   1.607   0.159   2.031  0.3456 -0.3918  0.1533
 3445SOL    HW110391   1.560   0.230   1.989 -0.8990 -1.1947  0.1324
 3445SOL    HW210392   1.668   0.127   1.964  0.6707  0.4115  0.0556
 3446SOL     OW10393   1.663   3.095   4.533 -0.5083  0.0184  0.2952
 3446SOL    HW110394   1.650   3.114   4.440 -0.6986  1.7992  0.6467
 3446SOL    HW210395   1.587   3.042   4.558 -1.1485  0.6450 -0.2778
 3447SOL     OW10396   3.456   3.066   4.869 -0.0046 -0.2118 -0.1193
 3447SOL    HW110397   3.479   3.151   4.908  1.5557 -1.0171  0.8562
 3447SOL    HW210398   3.530   3.010   4.892 -0.0187 -1.3083 -2.5228
 3448SOL     OW10399   2.861   1.061   3.889  0.4617  0.0748  0.3384
 3448SOL    HW110400   2.832   0.970   3.883  2.0717 -0.6326  2.2196
 3448SOL    HW210401   2.955   1.057   3.872  0.7019  1.2627  1.3266
 3449SOL     OW10402   0.332   0.953   3.802  0.3853  0.0474 -0.4630
 3449SOL    HW110403   0.268   0.918   3.864  1.0368 -0.2052  0.0854
 3449SOL    HW210404   0.409   0.898   3.814  0.4023 -0.2377 -1.7769
 3450SOL     OW10405   0.676   0.284   3.989 -0.3726 -0.6967 -0.0943
 3450SOL    HW110406   0.596   0.288   3.937 -0.5830  1.6309  0.2998
 3450SOL    HW210407   0.664   0.349   4.058  1.3906 -1.1238  0.6889
 3451SOL     OW10408   0.081   1.364   4.116 -0.0012  0.1990  0.0252
 3451SOL    HW110409   0.008   1.323   4.163 -0.2267  0.8029  0.2046
 3451SOL    HW210410   0.125   1.418   4.182 -0.4006  1.1594 -0.4892
 3452SOL     OW10411   0.225   0.816   4.522 -0.6813 -0.4511 -0.2196
 3452SOL    HW110412   0.182   0.744   4.567 -0.2689  0.1707  1.2431
 3452SOL    HW210413   0.295   0.775   4.471 -0.5846 -1.0915  0.4215
 3453SOL     OW10414   3.173   1.033   2.251 -0.1332 -0.0778 -0.2203
 3453SOL    HW110415   3.159   1.042   2.345 -0.4313 -0.2044 -0.2531
 3453SOL    HW210416   3.195   0.940   2.239  1.4580  0.2478 -0.0737
 3454SOL     OW10417   2.457   4.129   4.150 -0.4138 -0.3709  0.5578
 3454SOL    HW110418   2.433   4.221   4.138  1.6544  0.2462  0.8889
 3454SOL    HW210419   2.444   4.090   4.063 -0.0582  0.5303  0.0899
 3455SOL     OW10420   3.741   1.305   2.235  0.7886 -0.7349  0.0140
 3455SOL    HW110421   3.674   1.269   2.176 -0.7620  0.5582  0.9069
 3455SOL    HW210422   3.709   1.286   2.323  0.8208  1.1422  0.4853
 3456SOL     OW10423   3.521   2.291   0.749 -0.0502  0.2221  0.2126
 3456SOL    HW110424   3.583   2.355   0.784  2.1548 -0.0143 -2.9066
 3456SOL    HW210425   3.439   2.339   0.739  0.9495  1.9602 -0.0187
 3457SOL     OW10426   2.414   1.421   2.841  0.2064 -0.5502 -0.3533
 3457SOL    HW110427   2.454   1.449   2.923 -0.7256  1.0931 -0.4137
 3457SOL    HW210428   2.328   1.465   2.840 -0.8240 -2.4789 -1.0857
 3458SOL     OW10429   1.872   4.674   3.249 -0.0275 -0.3046  0.1696
 3458SOL    HW110430   1.960   4.706   3.271  0.4014 -1.1817 -0.2530
 3458SOL    HW210431   1.879   4.579   3.251 -1.5917 -0.4521  2.5984
 3459SOL     OW10432   1.423   3.267   4.410 -1.2237 -0.4411 -0.1085
 3459SOL    HW110433   1.419   3.183   4.455 -1.6009 -1.3398 -1.7252
 3459SOL    HW210434   1.335   3.303   4.417 -1.0096 -0.0671  0.7624
 3460SOL     OW10435   4.446   1.368   2.810  0.4845 -0.7727 -0.1516
 3460SOL    HW110436   4.407   1.350   2.895 -0.3477 -0.0592 -0.3722
 3460SOL    HW210437   4.519   1.427   2.828 -0.5475  0.5098 -0.0580
 3461SOL     OW10438   2.737   1.861   1.021 -0.1787 -0.5225  0.8947
 3461SOL    HW110439   2.773   1.865   1.110 -1.0607  0.2095  1.2275
 3461SOL    HW210440   2.645   1.841   1.033 -0.0661 -1.6072  0.0750
 3462SOL     OW10441   4.790   0.028   4.327  0.8706 -0.0557 -0.3952
 3462SOL    HW110442   4.854   0.046   4.257  1.6328 -0.5896  0.1534
 3462SOL    HW210443   4.823  -0.051   4.369 -0.7824 -1.0059 -0.8203
 3463SOL     OW10444   1.531   1.320   3.157 -0.0226  0.1093 -0.3730
 3463SOL    HW110445   1.482   1.238   3.168 -0.2281  0.1401 -0.9805
 3463SOL    HW210446   1.486   1.382   3.214  0.7216 -0.4285  0.8365
 3464SOL     OW10447   2.566   4.837   0.770  0.2297 -0.5433 -0.1395
 3464SOL    HW110448   2.606   4.923   0.784  0.0007 -0.4688  0.0615
 3464SOL    HW210449   2.641   4.777   0.762  0.3844 -0.4255  0.3623
 3465SOL     OW10450   1.330   0.839   2.857 -0.7990 -0.8779 -0.2679
 3465SOL    HW110451   1.362   0.753   2.887 -0.0417 -0.0990  1.2542
 3465SOL    HW210452   1.321   0.829   2.763  1.0838 -2.0896 -0.3797
 3466SOL     OW10453   3.936   0.616   2.077 -0.6120 -0.3533 -0.3332
 3466SOL    HW110454   3.946   0.668   2.156  1.9734 -1.4924  0.2006
 3466SOL    HW210455   3.933   0.525   2.108 -0.5610 -0.7701 -1.4881
 3467SOL     OW10456   0.031   2.270   2.865 -0.2982 -0.2030 -0.0866
 3467SOL    HW110457   0.027   2.184   2.907  0.4091  0.0942  0.6074
 3467SOL    HW210458   0.092   2.320   2.919  1.6572 -0.1992 -2.1947
 3468SOL     OW10459   4.009   4.962   1.840  0.1394 -0.4574 -0.6121
 3468SOL    HW110460   3.926   4.917   1.823 -0.3614  0.7632 -1.4972
 3468SOL    HW210461   4.058   4.952   1.758  0.8517 -1.1144 -0.1151
 3469SOL     OW10462   0.927   1.821   3.035  0.0115  0.1722  0.1135
 3469SOL    HW110463   0.939   1.735   2.994  0.4936  0.6134 -0.6863
 3469SOL    HW210464   0.861   1.805   3.103  1.2389 -1.1701  1.0572
 3470SOL     OW10465   0.474   4.620   0.606 -0.0380 -0.3911  0.0969
 3470SOL    HW110466   0.508   4.709   0.613 -1.6025  0.2109  0.5998
 3470SOL    HW210467   0.380   4.629   0.623 -0.2524 -2.1256  0.0384
 3471SOL     OW10468   2.073   1.847   3.945  0.3101 -0.6656  0.3830
 3471SOL    HW110469   2.084   1.755   3.969  0.8032 -0.3554  1.3983
 3471SOL    HW210470   1.996   1.876   3.994  0.1061 -0.5588  0.0026
 3472SOL     OW10471   1.844   4.924   2.281  0.2614 -0.2105 -0.0192
 3472SOL    HW110472   1.930   4.926   2.238 -0.0484 -1.0999 -0.7255
 3472SOL    HW210473   1.850   4.851   2.343  0.6885  1.0343  1.4683
 3473SOL     OW10474   2.571   1.269   4.625 -0.0181 -0.4431  0.1528
 3473SOL    HW110475   2.589   1.227   4.709 -1.0745 -1.0145  0.1094
 3473SOL    HW210476   2.646   1.246   4.570 -0.6213 -2.4675  0.0741
 3474SOL     OW10477   2.917   2.416   1.590 -0.0972  0.0953  0.1610
 3474SOL    HW110478   2.865   2.484   1.633 -0.2761  0.0441  0.0252
 3474SOL    HW210479   3.004   2.423   1.631  0.0038  0.6873 -0.1441
 3475SOL     OW10480   1.059   0.538   4.240 -0.3778  0.3615 -0.1078
 3475SOL    HW110481   1.004   0.615   4.255  0.7927  1.2335 -0.2368
 3475SOL    HW210482   1.114   0.532   4.318 -1.2825 -1.0831  0.4702
 3476SOL     OW10483   4.119   1.920   2.220  0.1311  0.2107 -0.4036
 3476SOL    HW110484   4.063   1.916   2.297 -1.8658 -0.6911 -1.8338
 3476SOL    HW210485   4.153   1.831   2.210  2.4786  0.8835  0.8282
 3477SOL     OW10486   3.959   3.318   0.239  0.0083  0.3560 -0.0424
 3477SOL    HW110487   3.982   3.311   0.332  1.4374  0.2085 -0.3894
 3477SOL    HW210488   4.031   3.368   0.200 -1.8382  2.7866 -0.6309
 3478SOL     OW10489   0.899   3.109   3.242 -0.2667  0.2921  0.3348
 3478SOL    HW110490   0.918   3.116   3.148  0.2380  1.2239  0.4888
 3478SOL    HW210491   0.829   3.044   3.248 -1.4411  1.3893 -0.8469
 3479SOL     OW10492   4.042   4.133   4.484 -0.2330  0.0871  0.4787
 3479SOL    HW110493   4.106   4.174   4.425 -0.1084 -1.2958 -0.4000
 3479SOL    HW210494   3.965   4.118   4.428 -0.6110 -0.0144  1.0258
 3480SOL     OW10495   4.496   2.562   0.453 -0.0839  0.1077 -0.4064
 3480SOL    HW110496   4.577   2.515   0.435  0.7088  0.8387  1.0774
 3480SOL    HW210497   4.444   2.501   0.504 -0.4255 -0.3130 -1.2441
 3481SOL     OW10498   4.554   1.587   3.001 -0.3455 -0.4014 -0.1595
 3481SOL    HW110499   4.561   1.515   3.064 -1.0683  0.6018  1.0957
 3481SOL    HW210500   4.525   1.662   3.052 -0.3253  0.6204 -1.5797
 3482SOL     OW10501   2.573   1.411   0.035  0.4695  0.2590  0.4033
 3482SOL    HW110502   2.541   1.321   0.023  0.3862  0.3246  0.1227
 3482SOL    HW210503   2.596   1.416   0.128  2.1621 -0.6109  0.0782
 3483SOL     OW10504   1.573   0.961   0.502  0.0342  0.1231 -0.4437
 3483SOL    HW110505   1.662   0.991   0.483 -0.2015 -0.4442 -2.6892
 3483SOL    HW210506   1.560   0.886   0.444 -1.8468  0.0783 -0.0187
 3484SOL     OW10507   3.248   3.319   2.330 -0.2118 -0.0946  0.9184
 3484SOL    HW110508   3.243   3.224   2.327  0.2125 -0.1269  1.2578
 3484SOL    HW210509   3.312   3.343   2.263 -0.7164 -0.0100  0.4551
 3485SOL     OW10510   4.924   2.292   2.257  0.2777 -0.1485 -0.3257
 3485SOL    HW110511   4.933   2.386   2.241 -1.2468 -0.1130 -1.1858
 3485SOL    HW210512   4.842   2.268   2.213  0.2491 -1.7373  0.5184
 3486SOL     OW10513   3.342   4.666   1.985  0.4833  0.1772 -0.6669
 3486SOL    HW110514   3.410   4.599   1.988 -0.0230 -0.3325 -0.5026
 3486SOL    HW210515   3.321   4.684   2.076  1.1683  1.1456 -0.6769
 3487SOL     OW10516   3.983   1.319   3.157 -0.3350  0.0366  0.0083
 3487SOL    HW110517   3.978   1.397   3.211 -0.5204 -0.4910  0.7665
 3487SOL    HW210518   4.046   1.342   3.088  0.6379  0.3974  0.9869
 3488SOL     OW10519   4.428   0.469   4.286 -0.7923  0.0817  0.3180
 3488SOL    HW110520   4.466   0.383   4.264  0.3372  0.6961 -0.2374
 3488SOL    HW210521   4.400   0.460   4.377 -0.1092 -0.6985  0.4671
 3489SOL     OW10522   4.275   2.501   0.924 -0.4391 -0.2625 -0.1887
 3489SOL    HW110523   4.362   2.517   0.889  0.2381 -0.2694  1.3964
 3489SOL    HW210524   4.256   2.579   0.976 -0.6188 -1.0190  0.9136
 3490SOL     OW10525   4.657   3.518   4.664  0.3658 -0.5622  0.0373
 3490SOL    HW110526   4.647   3.576   4.739 -0.9962  1.1735 -1.4007
 3490SOL    HW210527   4.700   3.440   4.699 -0.1058  0.2383  2.5642
 3491SOL     OW10528   1.472   2.591   2.986 -0.6206  0.4023 -0.2673
 3491SOL    HW110529   1.393   2.583   2.933 -0.6503 -0.2928 -0.1365
 3491SOL    HW210530   1.458   2.529   3.058  0.2773 -0.1556 -0.5549
 3492SOL     OW10531   1.593   0.534   1.122  0.3123 -0.1493  0.6837
 3492SOL    HW110532   1.666   0.592   1.101 -0.0177 -0.0038 -0.1011
 3492SOL    HW210533   1.527   0.593   1.159 -0.5855  0.2532 -1.4439
 3493SOL     OW10534   1.669   1.771   2.544 -0.5179 -0.0828  0.2385
 3493SOL    HW110535   1.746   1.767   2.600  1.0617 -2.1421 -1.8683
 3493SOL    HW210536   1.668   1.860   2.510  0.7065  0.0985  0.6258
 3494SOL     OW10537   0.763   4.143   4.483  0.4638 -0.5380 -0.0524
 3494SOL    HW110538   0.845   4.184   4.512  0.4464  0.4186 -1.3075
 3494SOL    HW210539   0.776   4.128   4.390 -1.5947  1.6461 -0.7792
 3495SOL     OW10540   2.350   1.442   4.616  0.3620  0.1533  0.1763
 3495SOL    HW110541   2.428   1.387   4.615  0.2997  0.0152 -1.8039
 3495SOL    HW210542   2.314   1.434   4.527 -0.4087  2.3093  0.2357
 3496SOL     OW10543   2.779   0.850   0.309  0.0204 -0.4199  0.4998
 3496SOL    HW110544   2.800   0.934   0.267 -0.6707 -0.5344 -0.0792
 3496SOL    HW210545   2.864   0.807   0.319  0.1746 -0.5509 -1.1204
 3497SOL     OW10546   3.299   4.479   1.671  0.0834  0.0570 -0.7830
 3497SOL    HW110547   3.283   4.390   1.640  0.0483 -0.3618  0.3928
 3497SOL    HW210548   3.225   4.498   1.729  0.5467  0.4992 -0.3245
 3498SOL     OW10549   3.284   2.421   0.718  0.2302 -0.9289 -0.1988
 3498SOL    HW110550   3.203   2.371   0.705 -0.6142 -0.3641  2.2215
 3498SOL    HW210551   3.259   2.490   0.780  2.6031 -0.8892  0.8160
 3499SOL     OW10552   4.370   1.095   1.657  0.0954 -0.2101  0.4297
 3499SOL    HW110553   4.372   1.057   1.745  1.2191 -0.3271  0.3571
 3499SOL    HW210554   4.348   1.187   1.672  0.6391 -0.1437  0.8714
 3500SOL     OW10555   2.838   4.273   4.938  0.5310 -0.1627 -0.4423
 3500SOL    HW110556   2.787   4.338   4.986  2.3519  1.0132 -0.0090
 3500SOL    HW210557   2.803   4.189   4.967 -0.6712  0.5807  0.3575
 3501SOL     OW10558   4.408   2.728   4.903 -0.3360  0.0017  0.0640
 3501SOL    HW110559   4.450   2.648   4.872  1.0119  0.7714 -0.1996
 3501SOL    HW210560   4.404   2.718   4.998  0.5766 -0.0451  0.1061
 3502SOL     OW10561   1.914   0.380   1.040  0.1004  0.0595 -0.3335
 3502SOL    HW110562   1.864   0.456   1.071 -0.3174 -0.4799  0.3430
 3502SOL    HW210563   1.963   0.352   1.117  2.9711  1.7168 -1.4111
 3503SOL     OW10564   4.919   4.800   3.494  0.2095  0.1223  0.1869
 3503SOL    HW110565   4.974   4.798   3.416  0.5147 -0.6624  0.4107
 3503SOL    HW210566   4.829   4.808   3.460  0.3154 -0.5095 -0.2609
 3504SOL     OW10567   2.897   1.994  -0.023  0.1722 -0.2929 -0.2036
 3504SOL    HW110568   2.981   2.033  -0.045 -0.3851  0.9692 -0.2184
 3504SOL    HW210569   2.895   1.992   0.073 -0.5792  1.6109 -0.1364
 3505SOL     OW10570   1.547   4.221   0.350  0.2304  0.3377 -0.3362
 3505SOL    HW110571   1.565   4.139   0.305  0.6646 -0.6032  1.4898
 3505SOL    HW210572   1.491   4.270   0.289 -2.3079 -2.3901 -0.3698
 3506SOL     OW10573   3.829   4.693   3.901  0.4523 -0.2187  0.1802
 3506SOL    HW110574   3.903   4.675   3.844  0.9605 -1.0965  1.0933
 3506SOL    HW210575   3.864   4.688   3.990 -1.3052 -4.4657  0.9106
 3507SOL     OW10576   3.794   2.366   1.936  0.3277 -0.3523  0.2875
 3507SOL    HW110577   3.809   2.391   1.845  0.9081  2.7312  1.1351
 3507SOL    HW210578   3.812   2.272   1.937  2.0597 -0.1826 -2.4117
 3508SOL     OW10579   0.865   4.589   3.251 -0.6170  0.0970  0.5349
 3508SOL    HW110580   0.948   4.541   3.252 -0.4861  0.3180  1.5939
 3508SOL    HW210581   0.882   4.666   3.198 -0.9124 -1.1272 -1.4517
 3509SOL     OW10582   4.898   3.984   4.345  0.1345 -0.4677 -0.1016
 3509SOL    HW110583   4.942   3.932   4.413 -0.3386 -0.6723  0.0543
 3509SOL    HW210584   4.918   4.075   4.368 -0.3053 -0.5211  0.5176
 3510SOL     OW10585   4.780   1.741   0.605  0.5679  0.0603  0.0063
 3510SOL    HW110586   4.804   1.654   0.636  0.0001 -0.0365  0.1876
 3510SOL    HW210587   4.836   1.801   0.655 -0.0428 -0.1203  0.9371
 3511SOL     OW10588   1.242   0.683   2.223 -0.5418 -0.0068  1.2309
 3511SOL    HW110589   1.234   0.607   2.281 -1.3610 -1.0528 -0.2064
 3511SOL    HW210590   1.193   0.752   2.268 -0.5707 -0.5809  2.1102
 3512SOL     OW10591   2.492   2.636   3.072 -0.2641  0.1401 -0.3656
 3512SOL    HW110592   2.553   2.701   3.039  0.3973 -1.1785 -1.8588
 3512SOL    HW210593   2.453   2.677   3.150  0.2653  2.1994 -1.1250
 3513SOL     OW10594   1.194   0.521   4.490 -0.5931  0.2721 -0.4124
 3513SOL    HW110595   1.217   0.572   4.567  0.4592  1.2703 -1.3447
 3513SOL    HW210596   1.277   0.484   4.460 -1.1168 -0.7569 -0.6165
 3514SOL     OW10597   3.021   3.652   1.725  0.1783  0.0585 -0.0227
 3514SOL    HW110598   2.971   3.721   1.768  0.0482 -0.9729  1.5709
 3514SOL    HW210599   2.955   3.601   1.677  0.2124  0.7334 -0.8121
 3515SOL     OW10600   3.872   4.253   1.816  0.1113 -0.0863 -0.0080
 3515SOL    HW110601   3.912   4.261   1.729 -0.7403 -1.2057 -0.5214
 3515SOL    HW210602   3.946   4.240   1.875  0.8515  2.2124 -0.3072
 3516SOL     OW10603   1.214   1.805   4.759 -0.0024  0.0309  0.2064
 3516SOL    HW110604   1.191   1.763   4.842  0.1431 -0.0204  0.2202
 3516SOL    HW210605   1.273   1.743   4.716  0.3682  0.3080  0.3143
 3517SOL     OW10606   1.520   4.179   2.479  0.2981 -0.5718 -0.1074
 3517SOL    HW110607   1.560   4.095   2.455  0.0045 -0.6158 -0.4502
 3517SOL    HW210608   1.430   4.156   2.505  0.9279 -0.6986  2.1980
 3518SOL     OW10609   4.231   1.195   1.912 -0.2423  0.0598 -0.0860
 3518SOL    HW110610   4.143   1.207   1.947  0.1606 -0.1254  1.0433
 3518SOL    HW210611   4.289   1.215   1.985  0.6521  0.0174 -0.7624
 3519SOL     OW10612   3.586   1.724   2.012  0.4067 -0.5720  0.3782
 3519SOL    HW110613   3.570   1.739   2.105  0.1852 -0.0023  0.2487
 3519SOL    HW210614   3.673   1.683   2.009  2.3839  3.2221  0.5803
 3520SOL     OW10615   0.075   2.608   1.781 -0.0553  0.1476 -0.0878
 3520SOL    HW110616   0.164   2.588   1.810  0.3302 -0.9613 -1.8732
 3520SOL    HW210617   0.024   2.531   1.806  0.5936 -1.5616 -3.3787
 3521SOL     OW10618   3.039   4.187   4.792 -0.1353 -0.0561  0.2844
 3521SOL    HW110619   3.011   4.231   4.712 -0.7870 -0.5330  0.2449
 3521SOL    HW210620   2.981   4.221   4.860  0.0114 -0.1125  0.4388
 3522SOL     OW10621   4.014   0.195   0.335  0.1187  0.7742 -0.0068
 3522SOL    HW110622   4.108   0.179   0.327  0.0027  0.8023 -1.8664
 3522SOL    HW210623   4.009   0.280   0.379  0.9328  0.4147  0.8243
 3523SOL     OW10624   1.199   4.071   4.767  0.1790 -0.3010  0.1344
 3523SOL    HW110625   1.263   4.034   4.827  0.8132  0.9033  0.2294
 3523SOL    HW210626   1.213   4.166   4.772 -0.2239 -0.1305 -1.3860
 3524SOL     OW10627   4.418   0.605   0.204 -0.1707 -0.0707 -0.1370
 3524SOL    HW110628   4.501   0.573   0.238 -0.4709 -0.8394 -0.1108
 3524SOL    HW210629   4.442   0.661   0.130  0.3774 -0.1665 -0.0324
 3525SOL     OW10630   1.980   4.376   1.680  0.1738  0.7982  0.0846
 3525SOL    HW110631   1.912   4.389   1.614 -1.7954 -0.4705  1.7337
 3525SOL    HW210632   1.982   4.282   1.695  1.9014  0.8638  0.5481
 3526SOL     OW10633   4.776   0.524   1.601  0.2346  0.8963  0.4632
 3526SOL    HW110634   4.774   0.601   1.545  0.0567  1.3094  1.0306
 3526SOL    HW210635   4.712   0.542   1.669  0.2830  0.3001  0.6737
 3527SOL     OW10636   3.277   2.693   0.856  0.1416  0.3148  0.0833
 3527SOL    HW110637   3.276   2.760   0.787  0.9135  0.5392  0.2729
 3527SOL    HW210638   3.370   2.671   0.866  0.1118  0.6647  1.3995
 3528SOL     OW10639   1.365   3.524   3.211  0.0321  0.3405 -0.1847
 3528SOL    HW110640   1.459   3.511   3.201  0.1195  1.3762 -0.9023
 3528SOL    HW210641   1.358   3.605   3.262 -0.4656  0.3518 -0.2661
 3529SOL     OW10642   2.755   0.776   4.799  0.1840 -0.0781  0.1275
 3529SOL    HW110643   2.769   0.691   4.839 -1.3029 -0.5587 -0.3083
 3529SOL    HW210644   2.684   0.762   4.736  1.1439  1.0706 -1.2874
 3530SOL     OW10645   3.171   3.412   3.493  0.0022  0.5847 -0.4115
 3530SOL    HW110646   3.080   3.425   3.521 -0.0824  1.4523 -1.0288
 3530SOL    HW210647   3.223   3.423   3.573 -0.3733  0.9958 -0.2213
 3531SOL     OW10648   1.340   4.559   4.439  0.2804 -0.2313 -0.1846
 3531SOL    HW110649   1.268   4.497   4.441 -0.7705  0.9494  0.0608
 3531SOL    HW210650   1.415   4.509   4.407 -0.3738 -1.7563  0.5917
 3532SOL     OW10651   0.912   3.006   0.468  0.3151 -0.0668 -0.6820
 3532SOL    HW110652   0.818   3.015   0.454  0.1453  1.2965  1.0157
 3532SOL    HW210653   0.951   3.020   0.381 -0.9605  1.1949 -1.0846
 3533SOL     OW10654   0.629  -0.014   3.852  0.0807  0.4783 -0.4957
 3533SOL    HW110655   0.534  -0.023   3.844  0.2360 -1.4244 -0.5731
 3533SOL    HW210656   0.651   0.057   3.793 -1.5707  2.8110  1.4867
 3534SOL     OW10657   2.956   2.025   1.048 -0.1235 -0.1800 -0.1993
 3534SOL    HW110658   2.883   1.975   1.012 -2.0203  1.0077  1.7225
 3534SOL    HW210659   2.917   2.110   1.072  1.8289  0.4049  1.1337
 3535SOL     OW10660   1.105   3.109   1.648  0.3504  0.2090  0.2608
 3535SOL    HW110661   1.116   3.096   1.554  0.6115 -0.2828  0.3584
 3535SOL    HW210662   1.041   3.043   1.674  1.0594 -0.3516  0.6111
 3536SOL     OW10663   4.140   1.884   2.814 -0.1638 -0.3750 -0.0417
 3536SOL    HW110664   4.146   1.944   2.740 -0.7991  1.6607  1.4672
 3536SOL    HW210665   4.178   1.932   2.888 -0.9701 -1.6977  1.3099
 3537SOL     OW10666   2.471   1.486   3.111 -0.1395 -0.0304 -0.0938
 3537SOL    HW110667   2.402   1.540   3.150 -0.7924 -0.6549 -0.3695
 3537SOL    HW210668   2.546   1.499   3.168  0.0344  1.9263 -0.6612
 3538SOL     OW10669   2.489   4.500   3.662 -0.2290 -0.1868  0.6359
 3538SOL    HW110670   2.561   4.547   3.621 -0.4065  0.6695  1.2747
 3538SOL    HW210671   2.410   4.536   3.621 -0.3140 -1.0213  0.0381
 3539SOL     OW10672   0.407   2.325   2.060  0.0168  0.1519 -1.0734
 3539SOL    HW110673   0.350   2.297   2.131  0.0905 -0.9019 -1.4227
 3539SOL    HW210674   0.458   2.397   2.098  0.3741 -0.6880  0.1036
 3540SOL     OW10675   3.770   0.206   1.075  0.4808 -0.4907 -0.2821
 3540SOL    HW110676   3.716   0.127   1.077 -0.3783  0.0852 -0.6318
 3540SOL    HW210677   3.841   0.187   1.137 -0.3278 -1.1052  0.4838
 3541SOL     OW10678   1.357   3.322   4.968  0.0926  0.0002 -0.0297
 3541SOL    HW110679   1.329   3.231   4.972 -0.2152  0.0852 -0.2151
 3541SOL    HW210680   1.390   3.332   4.878 -0.8357  0.3474 -0.3391
 3542SOL     OW10681   2.445   0.396   0.459 -0.0015 -0.2044  0.2905
 3542SOL    HW110682   2.476   0.352   0.538 -0.4671  0.2249  0.7216
 3542SOL    HW210683   2.435   0.326   0.394  2.6129 -0.2832 -0.1480
 3543SOL     OW10684   0.980   2.389   3.601 -0.4389  0.1705  0.6013
 3543SOL    HW110685   1.048   2.384   3.668  1.9338  0.3870 -1.6269
 3543SOL    HW210686   0.975   2.481   3.578 -0.9729  0.0619  0.2656
 3544SOL     OW10687   2.496   4.281   4.935  0.0125  0.2903 -0.1003
 3544SOL    HW110688   2.412   4.326   4.940  0.6614  1.8640 -1.8935
 3544SOL    HW210689   2.537   4.298   5.020 -1.8766 -1.5396  1.2797
 3545SOL     OW10690   0.888   1.548   3.680  0.6030  0.3720  0.1930
 3545SOL    HW110691   0.876   1.459   3.649 -1.6360  1.0937 -1.2669
 3545SOL    HW210692   0.981   1.567   3.664  0.6567 -1.0229 -1.3767
 3546SOL     OW10693   3.184   4.182   1.615  0.1171  0.1546 -0.5108
 3546SOL    HW110694   3.185   4.137   1.699  0.1565 -0.6651 -0.9283
 3546SOL    HW210695   3.099   4.226   1.612  0.3580  0.6739  0.1949
 3547SOL     OW10696   2.139   1.234   2.591  0.4107 -0.2444 -0.1615
 3547SOL    HW110697   2.162   1.169   2.658 -0.7104  0.4403  0.9260
 3547SOL    HW210698   2.116   1.313   2.640  1.9357  1.0811 -1.4668
 3548SOL     OW10699   3.181   1.163   4.479 -0.0156  0.1404 -0.7451
 3548SOL    HW110700   3.219   1.079   4.506 -0.8180  0.2176  0.7144
 3548SOL    HW210701   3.088   1.144   4.468 -0.2043  0.8424 -0.3713
 3549SOL     OW10702   1.959   3.108   1.137 -0.2084  0.2013 -0.2409
 3549SOL    HW110703   1.985   3.100   1.045 -0.9425  0.0329 -0.4415
 3549SOL    HW210704   1.874   3.154   1.134 -0.2265  0.2131  0.3524
 3550SOL     OW10705   0.626   1.035   3.292 -0.4074  0.1585 -0.1742
 3550SOL    HW110706   0.648   0.945   3.268  0.1295  0.3270 -0.3130
 3550SOL    HW210707   0.701   1.087   3.263 -0.6168  0.6216  0.1081
 3551SOL     OW10708   2.066   2.170   1.380 -0.1785  0.1711 -0.2360
 3551SOL    HW110709   1.992   2.124   1.340  0.4991 -0.2833 -0.9954
 3551SOL    HW210710   2.069   2.255   1.335 -0.6026  0.4237  0.2136
 3552SOL     OW10711   3.907   2.596   1.456  0.1661 -0.0269 -0.8815
 3552SOL    HW110712   3.984   2.587   1.400  1.3185  1.5343  0.3752
 3552SOL    HW210713   3.873   2.683   1.437 -0.1010  0.0742 -0.0038
 3553SOL     OW10714   1.386   2.022   3.229 -0.4627  0.0340  0.4796
 3553SOL    HW110715   1.392   2.062   3.143  0.4952 -0.6997  0.1892
 3553SOL    HW210716   1.470   1.977   3.241 -0.9379 -0.6531  1.4023
 3554SOL     OW10717   0.205   2.158   4.780 -0.1996 -0.4314  0.2227
 3554SOL    HW110718   0.144   2.204   4.838 -0.0592  1.5899 -1.1317
 3554SOL    HW210719   0.261   2.108   4.839 -1.3712 -0.1053  1.6817
 3555SOL     OW10720   1.157   3.038   4.405  0.2302  0.1453  0.4013
 3555SOL    HW110721   1.157   3.129   4.376 -1.8814 -0.6174 -2.3779
 3555SOL    HW210722   1.188   2.989   4.329  1.4098 -1.5185  1.8694
 3556SOL     OW10723   2.245   0.621   2.665 -0.0595 -0.3146 -0.5670
 3556SOL    HW110724   2.327   0.665   2.683 -0.9617  1.5217 -0.7382
 3556SOL    HW210725   2.242   0.548   2.727  0.4709  1.1870  1.2833
 3557SOL     OW10726   2.727   1.608   2.835  0.1300  0.3792 -0.4288
 3557SOL    HW110727   2.779   1.611   2.755  0.0664  0.5495 -0.4626
 3557SOL    HW210728   2.715   1.514   2.852  0.9682  0.3217 -0.0871
 3558SOL     OW10729   3.089   0.460   2.232  0.4743  0.0388 -0.0624
 3558SOL    HW110730   3.095   0.498   2.145 -1.7160 -1.0270 -0.7479
 3558SOL    HW210731   3.161   0.397   2.236 -0.1704 -0.8652 -1.6545
 3559SOL     OW10732   0.202   0.027   2.049 -0.5747 -0.3193  0.1051
 3559SOL    HW110733   0.168   0.013   1.960 -2.1807  3.6460 -0.1179
 3559SOL    HW210734   0.138  -0.015   2.106 -0.3909 -1.5147 -0.5409
 3560SOL     OW10735   4.025   4.859   3.601 -0.0139  0.7664  0.1970
 3560SOL    HW110736   3.997   4.935   3.652  0.2862 -0.0144  1.5800
 3560SOL    HW210737   3.944   4.818   3.573 -0.1798  1.4753 -0.4021
 3561SOL     OW10738   1.785   2.860   1.116  0.0295  0.1918 -0.2658
 3561SOL    HW110739   1.812   2.779   1.072  0.0443 -0.4057  0.8009
 3561SOL    HW210740   1.863   2.887   1.166  0.0172  0.8617 -0.6013
 3562SOL     OW10741   2.374   0.263   0.208 -0.2111  0.3570  0.5471
 3562SOL    HW110742   2.290   0.299   0.237 -1.4408 -0.8328 -1.2898
 3562SOL    HW210743   2.391   0.307   0.124 -0.3955 -1.3043 -0.4023
 3563SOL     OW10744   3.441   1.987   1.244  0.4575 -0.2328  0.5189
 3563SOL    HW110745   3.460   2.001   1.337  1.2407 -1.3888  0.5468
 3563SOL    HW210746   3.345   1.990   1.239  0.2322 -2.5753  1.8195
 3564SOL     OW10747   4.545   2.017   3.145  0.1690 -0.6315  0.1715
 3564SOL    HW110748   4.607   1.988   3.079  0.8474  0.8313  0.1191
 3564SOL    HW210749   4.600   2.053   3.215 -0.5859  1.1163 -0.0780
 3565SOL     OW10750   4.569   2.001   4.291 -0.2757 -0.4254 -0.0472
 3565SOL    HW110751   4.537   1.927   4.344  0.6594 -1.2991 -0.6638
 3565SOL    HW210752   4.501   2.014   4.225 -1.3034  0.4672  1.1213
 3566SOL     OW10753   2.429   1.236   3.315 -0.3211  0.3352 -0.0895
 3566SOL    HW110754   2.414   1.276   3.229  2.1189 -1.2938 -1.4017
 3566SOL    HW210755   2.352   1.182   3.330 -0.1636 -0.5280 -2.0394
 3567SOL     OW10756   0.067   0.382   3.559 -0.2916 -0.0595 -0.3750
 3567SOL    HW110757   0.146   0.430   3.534 -0.5549  0.8147  0.3901
 3567SOL    HW210758   0.001   0.450   3.572 -1.4597 -0.8335 -1.9283
 3568SOL     OW10759   0.983   2.802   2.918  0.3324  0.2524  0.1763
 3568SOL    HW110760   0.960   2.717   2.957 -0.6517  0.0044 -0.8895
 3568SOL    HW210761   0.980   2.787   2.824 -1.5663  1.8654 -0.0841
 3569SOL     OW10762   1.448   1.705  -0.034 -0.0488  0.4191 -0.1096
 3569SOL    HW110763   1.386   1.744   0.028 -1.5526 -1.3237 -0.4490
 3569SOL    HW210764   1.496   1.640   0.016  0.6771  0.9188 -0.1421
 3570SOL     OW10765   2.197   2.359   1.996 -0.3739 -0.2213  0.1885
 3570SOL    HW110766   2.140   2.435   2.009 -1.0563 -0.5609 -0.7339
 3570SOL    HW210767   2.147   2.301   1.938  0.3112 -1.1851  0.5410
 3571SOL     OW10768   4.893   4.647   0.511  0.2745 -0.3969  0.1188
 3571SOL    HW110769   4.869   4.587   0.582  1.2503  0.5348  1.2745
 3571SOL    HW210770   4.884   4.734   0.549 -0.6586  0.2083 -1.3891
 3572SOL     OW10771   3.581   3.622   2.730 -0.3701 -0.0272  0.0223
 3572SOL    HW110772   3.563   3.530   2.746  1.0599 -0.2408  0.4738
 3572SOL    HW210773   3.494   3.664   2.732 -1.0975 -1.4222 -0.7676
 3573SOL     OW10774   3.823   0.850   1.108  0.4245  0.3110 -0.1732
 3573SOL    HW110775   3.825   0.945   1.092 -1.6925  0.4735  0.2974
 3573SOL    HW210776   3.747   0.836   1.164  0.9164 -1.6482  0.0834
 3574SOL     OW10777   0.215   3.210   0.472  0.5152  0.7626 -0.1249
 3574SOL    HW110778   0.152   3.153   0.427  1.4944 -1.6898  1.3769
 3574SOL    HW210779   0.283   3.227   0.406  0.6463 -0.6354 -0.3960
 3575SOL     OW10780   1.319   1.290   1.606  0.1549 -0.2235 -0.6159
 3575SOL    HW110781   1.413   1.299   1.591  0.1706 -1.2270 -1.2318
 3575SOL    HW210782   1.279   1.328   1.528  0.0064  1.0364  0.0531
 3576SOL     OW10783   3.164   3.948   4.705  0.4522 -0.3770 -0.1326
 3576SOL    HW110784   3.219   3.921   4.779 -0.1526  0.2987  0.5856
 3576SOL    HW210785   3.125   4.031   4.734 -2.3880 -1.7009  0.1641
 3577SOL     OW10786   2.360   4.194   2.848  0.1196 -0.8496  0.5250
 3577SOL    HW110787   2.370   4.249   2.770 -0.7381  0.5742  1.3866
 3577SOL    HW210788   2.309   4.119   2.817  1.8289 -1.5238 -0.8046
 3578SOL     OW10789   1.994   0.586   4.444 -0.1504 -0.4010  0.3720
 3578SOL    HW110790   2.041   0.625   4.517 -0.0962  0.5239 -0.1389
 3578SOL    HW210791   2.061   0.571   4.377 -0.1209 -1.6566  0.6566
 3579SOL     OW10792   1.406   3.222   0.640 -0.0822 -0.4132 -0.8538
 3579SOL    HW110793   1.371   3.310   0.627  3.3776  1.1239 -0.8985
 3579SOL    HW210794   1.438   3.195   0.554  0.4543 -0.9269 -0.5059
 3580SOL     OW10795   1.312   2.933   2.527  0.0982  0.1812  0.3720
 3580SOL    HW110796   1.328   3.021   2.560  1.8218 -0.2042  0.6872
 3580SOL    HW210797   1.397   2.889   2.535 -0.3847 -1.0921 -1.0495
 3581SOL     OW10798   1.480   0.492   2.558 -0.3355 -0.5725 -0.6549
 3581SOL    HW110799   1.476   0.410   2.607  0.4657  0.6548  1.6124
 3581SOL    HW210800   1.568   0.493   2.520 -0.6954 -1.1823 -1.5419
 3582SOL     OW10801   0.167   3.883   0.744 -0.2956  0.2655 -0.1364
 3582SOL    HW110802   0.109   3.817   0.705  2.2661 -1.0156 -2.0461
 3582SOL    HW210803   0.240   3.833   0.781  0.9264  1.9210 -0.1872
 3583SOL     OW10804   3.469   2.054   0.890  0.3166  0.2471 -0.0649
 3583SOL    HW110805   3.539   2.031   0.952 -0.4396  0.3545  0.8410
 3583SOL    HW210806   3.496   2.139   0.855  0.6775  0.2526  0.2156
 3584SOL     OW10807   0.180   3.302   1.925  0.0010  0.2347  0.2363
 3584SOL    HW110808   0.121   3.317   1.999 -0.0562 -1.0175  0.4554
 3584SOL    HW210809   0.122   3.284   1.851  0.0850 -0.4687  0.3340
 3585SOL     OW10810   4.382   2.665   1.983  0.6473  0.1634 -0.2826
 3585SOL    HW110811   4.317   2.596   1.967 -0.5147  1.5704 -1.8663
 3585SOL    HW210812   4.348   2.714   2.058  0.7286 -0.0505 -0.1012
 3586SOL     OW10813   0.383   2.904   3.962  0.6111  0.1509  0.3344
 3586SOL    HW110814   0.467   2.867   3.988 -0.2083 -1.1877  1.1887
 3586SOL    HW210815   0.320   2.833   3.977 -0.4056  0.4030 -2.2058
 3587SOL     OW10816   0.607   0.123   0.983 -0.1520  0.1290 -0.6186
 3587SOL    HW110817   0.531   0.177   1.006 -0.1180 -0.9227  2.5172
 3587SOL    HW210818   0.678   0.185   0.967 -0.9449  1.0693 -0.5490
 3588SOL     OW10819   2.674   4.567   2.706  0.2531 -0.1963  0.5466
 3588SOL    HW110820   2.694   4.596   2.617  0.8370  1.4199  1.1594
 3588SOL    HW210821   2.580   4.579   2.715 -0.0819 -1.8524 -0.3204
 3589SOL     OW10822   1.546   2.983   0.428  0.0786 -0.1977  0.3586
 3589SOL    HW110823   1.477   2.917   0.431  0.4986 -0.7506 -1.3438
 3589SOL    HW210824   1.592   2.967   0.346  2.3739  0.0224  1.5053
 3590SOL     OW10825   0.034   0.995   2.567 -0.0072 -0.3125  0.1965
 3590SOL    HW110826   0.018   1.044   2.487  1.4965 -1.8871 -1.1313
 3590SOL    HW210827   0.073   1.059   2.627 -1.2815  0.9165 -0.2231
 3591SOL     OW10828   4.535   0.332   2.341 -0.0416 -0.4640 -0.1430
 3591SOL    HW110829   4.620   0.355   2.304  0.3178 -0.8255  0.4439
 3591SOL    HW210830   4.517   0.400   2.405 -1.2097  0.8235 -1.7602
 3592SOL     OW10831   4.089   3.285   3.358 -0.0305 -0.0954  0.5141
 3592SOL    HW110832   4.028   3.353   3.331 -2.8891 -1.6352  2.5606
 3592SOL    HW210833   4.067   3.210   3.302  1.9589  0.0678 -0.5903
 3593SOL     OW10834   2.458   4.833   2.738  0.3424 -0.4443  0.2211
 3593SOL    HW110835   2.424   4.743   2.737 -1.7835  0.3055  0.2828
 3593SOL    HW210836   2.498   4.845   2.652  0.2251 -1.3053  0.0390
 3594SOL     OW10837   0.955   4.410   4.199 -0.4291 -0.4077  0.0634
 3594SOL    HW110838   0.950   4.349   4.126 -1.7097 -1.3807  0.9299
 3594SOL    HW210839   1.031   4.466   4.179 -0.1021 -1.3528 -1.4417
 3595SOL     OW10840   1.690   0.553   2.385 -0.4248 -0.5528  0.7594
 3595SOL    HW110841   1.690   0.468   2.342  0.9062 -0.3590  0.3260
 3595SOL    HW210842   1.774   0.557   2.432  0.0657  0.9652 -0.1745
 3596SOL     OW10843   4.011   3.555   1.254 -0.4253  0.2838 -0.5489
 3596SOL    HW110844   4.105   3.534   1.249  0.2333  3.0271 -1.6663
 3596SOL    HW210845   4.001   3.599   1.339 -0.1759  1.9597 -1.3484
 3597SOL     OW10846   1.300   3.749   3.378  0.0238  0.1217 -0.5163
 3597SOL    HW110847   1.375   3.770   3.434  0.1481  0.6979 -0.8867
 3597SOL    HW210848   1.229   3.803   3.414  0.2579  0.9526 -1.2697
 3598SOL     OW10849   1.242   2.619   2.878 -0.5131  0.3900 -0.7473
 3598SOL    HW110850   1.161   2.632   2.926  0.0357  1.0099  0.0318
 3598SOL    HW210851   1.222   2.647   2.789 -1.7277 -1.3682 -1.0847
 3599SOL     OW10852   2.122   2.658   2.962  0.3843  0.2564 -0.4284
 3599SOL    HW110853   2.079   2.594   3.019  0.8989  0.2008 -0.0994
 3599SOL    HW210854   2.050   2.707   2.923  0.0059 -0.1011 -0.1911
 3600SOL     OW10855   2.421   1.151   2.845  0.3838  0.1375 -0.0832
 3600SOL    HW110856   2.473   1.152   2.764  1.8918 -0.9757  0.8264
 3600SOL    HW210857   2.383   1.238   2.850 -0.5593 -0.0473 -2.4930
 3601SOL     OW10858   2.928   2.194   4.492 -0.1816 -0.3778 -0.4872
 3601SOL    HW110859   2.940   2.243   4.573  0.3201 -0.0412 -0.7596
 3601SOL    HW210860   2.996   2.126   4.494  0.5933  0.3509 -1.1520
 3602SOL     OW10861   0.662   0.041   2.219 -0.4447 -1.0059 -0.0223
 3602SOL    HW110862   0.664  -0.037   2.274 -0.0692 -1.5595 -0.8053
 3602SOL    HW210863   0.613   0.015   2.142  1.5418 -1.1567 -1.2872
 3603SOL     OW10864   0.538   4.256   3.257 -0.2550 -0.6435  0.1783
 3603SOL    HW110865   0.445   4.252   3.275 -0.7266  0.3286 -1.7424
 3603SOL    HW210866   0.561   4.348   3.269  0.0512 -0.5449 -0.9963
 3604SOL     OW10867   3.515   1.486   0.654 -0.0887 -0.2565  0.2177
 3604SOL    HW110868   3.552   1.572   0.674 -0.7510  0.7804 -2.5287
 3604SOL    HW210869   3.421   1.498   0.663 -0.2684 -0.2923 -1.2684
 3605SOL     OW10870   3.420   3.935   2.288  0.3000 -0.0682 -0.1870
 3605SOL    HW110871   3.503   3.915   2.331 -0.0228 -2.3105 -0.4981
 3605SOL    HW210872   3.353   3.912   2.353 -0.1283  1.2013 -0.1436
 3606SOL     OW10873   2.101   1.798   0.052 -0.3520  0.1904  0.1415
 3606SOL    HW110874   2.030   1.740   0.025 -0.2202 -0.1451  0.4961
 3606SOL    HW210875   2.062   1.885   0.054 -0.2695  0.2809 -1.4388
 3607SOL     OW10876   4.381   2.840   3.351 -0.2578  0.3390 -0.9192
 3607SOL    HW110877   4.431   2.843   3.270  2.0414 -2.4599  0.2366
 3607SOL    HW210878   4.303   2.788   3.330 -0.0146  0.1970 -1.4698
 3608SOL     OW10879   2.410   1.561   1.968 -0.5245 -0.1414  0.2082
 3608SOL    HW110880   2.337   1.622   1.961  0.2939  0.8749  0.2234
 3608SOL    HW210881   2.484   1.616   1.993  0.2637 -1.1362  0.1113
 3609SOL     OW10882   1.960   0.202   2.047  0.3323 -0.0496  0.2851
 3609SOL    HW110883   1.905   0.162   1.980 -0.1181 -0.4931  0.9087
 3609SOL    HW210884   2.018   0.131   2.076  1.3057  0.4323 -0.4282
 3610SOL     OW10885   4.721   4.388   3.434 -0.4385 -0.1611  0.2188
 3610SOL    HW110886   4.711   4.384   3.339 -1.3423 -0.3348  0.3149
 3610SOL    HW210887   4.697   4.300   3.465  1.0124 -0.4782  0.5159
 3611SOL     OW10888   1.512   0.516   0.553 -0.4136 -0.6292  0.7084
 3611SOL    HW110889   1.503   0.460   0.630  2.1829  0.5211  1.9727
 3611SOL    HW210890   1.565   0.590   0.583  0.6988 -0.1124 -2.1999
 3612SOL     OW10891   4.855   2.804   2.335  0.0173  0.5270  0.2688
 3612SOL    HW110892   4.935   2.851   2.310  0.7893 -0.4605  0.8070
 3612SOL    HW210893   4.841   2.741   2.265 -1.0050  1.5198 -0.4414
 3613SOL     OW10894   0.807   3.193   4.962  0.1173  0.1048 -0.2222
 3613SOL    HW110895   0.742   3.215   4.895  0.4931  0.3277 -0.5116
 3613SOL    HW210896   0.799   3.098   4.972 -1.1308  0.2617  0.6448
 3614SOL     OW10897   3.370   0.665   0.708  0.1639 -0.4719 -0.3958
 3614SOL    HW110898   3.394   0.624   0.791 -1.0928 -1.5100 -0.5111
 3614SOL    HW210899   3.407   0.608   0.641  0.2062 -0.2628 -0.5491
 3615SOL     OW10900   4.831   2.611   2.120 -0.3297  0.2498  0.1752
 3615SOL    HW110901   4.909   2.574   2.079  0.1747  1.8543 -0.3675
 3615SOL    HW210902   4.761   2.597   2.056 -0.6318 -1.5502  0.8264
 3616SOL     OW10903   0.386   4.022   3.470 -0.7613 -0.1226 -0.0909
 3616SOL    HW110904   0.330   4.008   3.394 -0.5487  1.0419 -0.4854
 3616SOL    HW210905   0.474   4.001   3.438 -0.5415  1.2820 -0.4705
 3617SOL     OW10906   2.829   4.445   1.200 -0.1263  0.0928  0.2982
 3617SOL    HW110907   2.899   4.382   1.181 -0.2216  0.1089 -0.1119
 3617SOL    HW210908   2.831   4.506   1.126 -1.1675 -0.4268 -0.1829
 3618SOL     OW10909   4.273   0.202   4.096  0.2585 -0.2161  0.0508
 3618SOL    HW110910   4.341   0.164   4.041 -1.3549 -0.1130 -2.1530
 3618SOL    HW210911   4.264   0.292   4.065 -1.2198 -0.3829 -0.0970
 3619SOL     OW10912   1.178   4.208   1.471 -0.3817  0.1019 -0.0476
 3619SOL    HW110913   1.147   4.285   1.423 -0.4735 -0.1269 -0.3559
 3619SOL    HW210914   1.113   4.197   1.541  0.2554  0.9840  0.6966
 3620SOL     OW10915   0.336   4.173   0.715 -0.5063  0.2347 -0.3962
 3620SOL    HW110916   0.325   4.183   0.810 -0.8680 -0.6477 -0.3401
 3620SOL    HW210917   0.425   4.204   0.699 -1.0516  2.1306 -0.0491
 3621SOL     OW10918   1.203   2.960   0.698 -0.9010  0.1400  0.2134
 3621SOL    HW110919   1.123   2.928   0.740 -0.8652 -0.9104 -0.4932
 3621SOL    HW210920   1.178   2.977   0.608 -0.3132 -0.2728 -0.0347
 3622SOL     OW10921   4.573   0.890   2.740 -0.0936 -0.2191 -0.4636
 3622SOL    HW110922   4.500   0.903   2.802 -0.5808 -0.5435 -0.9579
 3622SOL    HW210923   4.595   0.798   2.748  1.2717  0.1778  0.7624
 3623SOL     OW10924   1.569   4.429   2.391 -0.0472 -0.0092  0.1496
 3623SOL    HW110925   1.647   4.392   2.350 -1.4392 -0.9705 -1.7572
 3623SOL    HW210926   1.528   4.355   2.436 -0.0827  0.4086  0.8249
 3624SOL     OW10927   4.526   4.761  -0.026 -0.5770 -0.6187  0.3062
 3624SOL    HW110928   4.438   4.787   0.002  0.4143  4.5645 -0.3522
 3624SOL    HW210929   4.576   4.757   0.055 -0.2755  2.5327  0.4013
 3625SOL     OW10930   2.414   1.334   1.152  0.0662  0.3692  0.4002
 3625SOL    HW110931   2.320   1.338   1.132 -0.4481  1.2189  2.6741
 3625SOL    HW210932   2.417   1.297   1.240  1.7082  2.4821  1.3061
 3626SOL     OW10933   4.770   2.816   4.706  0.0219  0.0815  0.2294
 3626SOL    HW110934   4.689   2.768   4.686  0.0518  0.0145  0.2685
 3626SOL    HW210935   4.778   2.810   4.801 -0.1310  0.4140  0.2648
 3627SOL     OW10936   0.942   1.414   2.790 -0.2419 -0.0516 -0.1220
 3627SOL    HW110937   0.861   1.380   2.753 -0.3161  0.2785 -0.2691
 3627SOL    HW210938   1.000   1.338   2.797 -0.3892 -0.1962 -0.4877
 3628SOL     OW10939   3.654   2.079   2.486  0.1686  0.2566  0.3052
 3628SOL    HW110940   3.660   2.012   2.554  1.0700  0.2059  0.1927
 3628SOL    HW210941   3.705   2.043   2.413 -0.7421  0.3307 -0.3920
 3629SOL     OW10942   0.834   1.012   3.624 -0.0967  0.4779  0.1449
 3629SOL    HW110943   0.831   1.013   3.720 -1.9909 -1.3564  0.1898
 3629SOL    HW210944   0.795   0.927   3.600 -0.4608  1.2542 -2.2662
 3630SOL     OW10945   3.136   3.058   2.244  0.0146 -0.1933 -0.1836
 3630SOL    HW110946   3.196   3.018   2.181 -0.2142  1.1174 -1.2714
 3630SOL    HW210947   3.052   3.063   2.198 -0.0685  1.1120  0.0638
 3631SOL     OW10948   3.801   3.980   2.619  0.2544  0.1348 -0.0561
 3631SOL    HW110949   3.714   3.986   2.579 -0.1490 -0.7696  0.6415
 3631SOL    HW210950   3.792   4.021   2.705 -0.3895 -2.6984  1.3586
 3632SOL     OW10951   4.013   0.796   3.934 -0.1899  0.2272  0.2464
 3632SOL    HW110952   4.101   0.835   3.935 -0.4117  0.8896 -1.8569
 3632SOL    HW210953   4.011   0.741   4.012  2.2521 -0.1171  0.1563
 3633SOL     OW10954   1.747   1.653   3.043  0.0643 -0.5404 -0.2340
 3633SOL    HW110955   1.726   1.634   2.952  1.4036  1.2490 -0.9877
 3633SOL    HW210956   1.676   1.710   3.073  0.6978  0.6153 -0.8693
 3634SOL     OW10957   2.433   2.153   0.951 -0.2648  0.5700  0.5142
 3634SOL    HW110958   2.381   2.230   0.927  0.8212  1.2570  0.2777
 3634SOL    HW210959   2.453   2.165   1.043  1.4145  1.5421  0.0738
 3635SOL     OW10960   4.009   4.927   2.451 -0.0297  0.4013 -0.5630
 3635SOL    HW110961   3.987   4.902   2.540  2.2416  0.1031 -0.0035
 3635SOL    HW210962   3.983   4.852   2.397 -1.4189  0.5898 -0.1894
 3636SOL     OW10963   1.024   2.792   3.883 -0.3588 -0.1308  0.2556
 3636SOL    HW110964   0.968   2.717   3.905  0.2613 -0.1904  1.8080
 3636SOL    HW210965   0.990   2.863   3.937 -0.0876  0.3395 -0.1887
 3637SOL     OW10966   1.977   1.186   3.793 -0.0790  0.2222  0.0813
 3637SOL    HW110967   1.892   1.145   3.806 -0.2204  0.4804 -0.0378
 3637SOL    HW210968   2.009   1.201   3.882 -0.4104  0.6484  0.1331
 3638SOL     OW10969   0.627   2.331   4.471  0.3463 -0.5492 -0.5977
 3638SOL    HW110970   0.681   2.365   4.543 -1.7935  0.5502  0.6104
 3638SOL    HW210971   0.564   2.273   4.513 -1.9321  1.2779 -1.2446
 3639SOL     OW10972   3.084   2.293   1.012  0.5594 -0.2040  0.2603
 3639SOL    HW110973   3.059   2.217   0.958 -0.1737 -0.1497  0.5050
 3639SOL    HW210974   3.179   2.293   1.010  0.5579 -0.6695 -0.3912
 3640SOL     OW10975   2.998   4.543   4.907  0.0543  0.3796 -0.0038
 3640SOL    HW110976   2.938   4.479   4.869 -0.8009  1.6254 -0.8212
 3640SOL    HW210977   3.052   4.572   4.834  1.8644 -0.8760  0.7555
 3641SOL     OW10978   0.452   1.217   4.411 -0.0846 -0.1676  0.0170
 3641SOL    HW110979   0.480   1.235   4.500 -0.4041  0.8634 -0.0876
 3641SOL    HW210980   0.375   1.161   4.421 -1.1933  1.3697  0.4620
 3642SOL     OW10981   2.474   2.536   0.980  0.1839 -0.4407 -0.1581
 3642SOL    HW110982   2.471   2.540   1.075 -1.5282 -0.7135 -0.1720
 3642SOL    HW210983   2.559   2.498   0.960  1.1719  0.9440  1.2029
 3643SOL     OW10984   1.883   4.415   3.244 -0.6742  0.4087  0.6213
 3643SOL    HW110985   1.866   4.328   3.281  0.3146 -0.0926 -0.0645
 3643SOL    HW210986   1.812   4.429   3.182 -3.3762  1.9810  3.7260
 3644SOL     OW10987   2.096   0.587   2.077 -0.1056 -1.1998  0.4541
 3644SOL    HW110988   2.077   0.680   2.085  0.7912 -1.0562  1.0547
 3644SOL    HW210989   2.018   0.543   2.111 -0.8883 -0.6915 -0.6347
 3645SOL     OW10990   2.865   2.647   0.329  0.3290 -0.6759 -0.2297
 3645SOL    HW110991   2.839   2.715   0.391 -0.0369 -0.6390 -0.4185
 3645SOL    HW210992   2.789   2.588   0.325  0.7300 -1.2157  0.1014
 3646SOL     OW10993   3.096   3.879   4.374  0.0249 -0.4406  0.3652
 3646SOL    HW110994   3.068   3.800   4.327 -0.2507  0.3709 -0.8956
 3646SOL    HW210995   3.035   3.886   4.448 -0.4364 -0.9888  0.0495
 3647SOL     OW10996   2.528   3.705   4.569 -0.3072  0.4292 -0.1781
 3647SOL    HW110997   2.560   3.770   4.631  0.6273  0.8505 -1.0793
 3647SOL    HW210998   2.604   3.685   4.514 -0.4075 -1.8163  0.4001
 3648SOL     OW10999   0.595   4.457   0.433  0.1523 -0.1016  0.4390
 3648SOL    HW111000   0.603   4.369   0.469 -1.5156 -0.1150  0.8752
 3648SOL    HW211001   0.545   4.505   0.498  2.2972  1.6445  0.9133
 3649SOL     OW11002   4.286   0.804   3.147 -0.0547 -0.2280  0.1251
 3649SOL    HW111003   4.376   0.823   3.118  0.0567 -0.3405  0.3928
 3649SOL    HW211004   4.240   0.887   3.138 -0.1903 -0.4023 -0.9900
 3650SOL     OW11005   2.942   3.702   1.129  0.2661 -0.3365  0.5168
 3650SOL    HW111006   3.016   3.728   1.184  1.5221  1.1382 -1.7201
 3650SOL    HW211007   2.899   3.784   1.106 -0.5852 -0.9746 -0.2442
 3651SOL     OW11008   3.240   0.595   3.542  0.7797  1.0945  0.4421
 3651SOL    HW111009   3.176   0.555   3.484  0.0660  3.2462 -0.3744
 3651SOL    HW211010   3.325   0.578   3.500  0.7498 -1.1990  1.1902
 3652SOL     OW11011   1.734   0.229   0.912 -0.0262  0.3089 -0.1664
 3652SOL    HW111012   1.796   0.290   0.953 -1.4406  0.3582  2.0812
 3652SOL    HW211013   1.790   0.161   0.874  1.4594  1.1348  0.4133
 3653SOL     OW11014   4.540   3.363   3.366  0.0026  0.1682  0.5350
 3653SOL    HW111015   4.462   3.400   3.325  0.1649  0.6691  0.6636
 3653SOL    HW211016   4.613   3.412   3.327  0.1262  1.0101  1.7782
 3654SOL     OW11017   3.892   2.857   1.403  0.2638 -0.2811  0.1316
 3654SOL    HW111018   3.904   2.868   1.309  0.6057 -0.1644  0.1908
 3654SOL    HW211019   3.813   2.907   1.423 -0.2510 -0.9235 -0.2213
 3655SOL     OW11020   0.596   3.344   1.499  0.4502 -0.2979 -0.0069
 3655SOL    HW111021   0.688   3.365   1.483  0.2452  2.9880  2.3001
 3655SOL    HW211022   0.599   3.262   1.548  2.1835 -0.1798  0.1666
 3656SOL     OW11023   2.232   4.479   0.392  0.1382 -0.2281 -0.3091
 3656SOL    HW111024   2.227   4.554   0.334  0.0653  0.3514  0.4330
 3656SOL    HW211025   2.150   4.480   0.440  0.0698 -0.8758 -0.4016
 3657SOL     OW11026   3.095   0.040   3.276 -0.1574 -0.0264  0.5813
 3657SOL    HW111027   3.026   0.103   3.296  0.1115  0.5986 -0.4220
 3657SOL    HW211028   3.175   0.080   3.309  0.2867  1.0022 -1.5895
 3658SOL     OW11029   2.101   2.986   2.636 -0.2167  0.5047 -0.0240
 3658SOL    HW111030   2.123   2.998   2.543 -0.2220  0.1200 -0.0774
 3658SOL    HW211031   2.009   3.012   2.642 -0.5696 -0.5861 -0.3693
 3659SOL     OW11032   3.379   4.324   3.277 -0.2027  0.5700 -0.2486
 3659SOL    HW111033   3.433   4.401   3.259 -1.4328  2.1119  2.1150
 3659SOL    HW211034   3.294   4.360   3.303 -1.8080 -1.7138 -1.9556
 3660SOL     OW11035   2.119   4.919   1.795  0.2789  0.0024  0.1191
 3660SOL    HW111036   2.121   4.843   1.853 -0.0284 -0.3687 -0.3545
 3660SOL    HW211037   2.188   4.977   1.828  1.1151 -0.8803 -0.0599
 3661SOL     OW11038   3.137   4.942   0.981 -0.0051  0.4558 -0.3163
 3661SOL    HW111039   3.125   4.952   0.886  2.1482 -0.2784 -0.7471
 3661SOL    HW211040   3.215   4.994   1.000  0.4331 -0.5375  0.7484
 3662SOL     OW11041   4.285   0.561   2.416  0.2650 -0.1838  0.0547
 3662SOL    HW111042   4.360   0.614   2.444  1.5225 -2.2252  0.8277
 3662SOL    HW211043   4.242   0.536   2.498 -0.6458  0.1255 -0.3272
 3663SOL     OW11044   2.491   1.109   0.852  0.0383  0.0273 -0.0464
 3663SOL    HW111045   2.530   1.195   0.865  0.7910 -0.4099  0.7441
 3663SOL    HW211046   2.503   1.090   0.759  0.9728  0.2615  0.0222
 3664SOL     OW11047   4.724   1.975   1.874  0.2889 -0.6336  0.1898
 3664SOL    HW111048   4.758   1.993   1.786 -1.0026 -2.9376 -0.8975
 3664SOL    HW211049   4.642   2.024   1.879  1.3374  1.1056  0.9423
 3665SOL     OW11050   1.031   4.104   4.468 -0.4917  0.1657 -0.1021
 3665SOL    HW111051   1.004   4.045   4.398 -0.8241  0.8485 -0.5640
 3665SOL    HW211052   1.008   4.058   4.549 -1.4160 -0.0226 -0.4672
 3666SOL     OW11053   2.639   3.227   1.752 -0.5010  0.3783  0.1940
 3666SOL    HW111054   2.677   3.256   1.835 -0.7908 -1.4798  1.0458
 3666SOL    HW211055   2.712   3.228   1.690  0.4673 -0.9298  1.2266
 3667SOL     OW11056   2.387   4.576   2.740  0.5366  0.2121 -0.1081
 3667SOL    HW111057   2.389   4.507   2.673  0.1634 -0.9359  1.0400
 3667SOL    HW211058   2.325   4.545   2.805  0.4860  1.5741  0.5286
 3668SOL     OW11059   1.026   2.055   3.301  0.2423 -0.1408  0.0763
 3668SOL    HW111060   1.063   2.062   3.213 -0.8602  2.2243 -0.2788
 3668SOL    HW211061   1.079   2.115   3.354 -0.3987  0.0206  0.5475
 3669SOL     OW11062   4.196   1.266   4.522 -0.1175  0.0821 -0.0641
 3669SOL    HW111063   4.126   1.320   4.484 -0.6490 -0.5803 -0.0523
 3669SOL    HW211064   4.198   1.291   4.615 -0.7335 -0.3039  0.0562
 3670SOL     OW11065   0.277   3.065   3.771 -0.1868 -0.0687 -0.1427
 3670SOL    HW111066   0.201   3.085   3.826  0.3584  2.2223 -0.1019
 3670SOL    HW211067   0.334   3.013   3.828 -1.0755 -0.5895  0.3008
 3671SOL     OW11068   3.661   2.075   4.156  0.3456 -0.2197  0.0963
 3671SOL    HW111069   3.599   2.053   4.225  0.7538  1.2200  0.9733
 3671SOL    HW211070   3.637   2.164   4.130  1.6202  0.1149  0.0025
 3672SOL     OW11071   1.370   4.404   1.550 -0.5598  0.7133 -0.3520
 3672SOL    HW111072   1.304   4.355   1.502  0.4953 -0.1647 -0.9621
 3672SOL    HW211073   1.431   4.337   1.583  1.2598  1.6080 -1.7355
 3673SOL     OW11074   1.887   1.932   0.169  0.1472 -0.9056 -0.1431
 3673SOL    HW111075   1.806   1.892   0.138 -0.3354 -0.2611  0.2476
 3673SOL    HW211076   1.863   1.974   0.252  1.2183 -1.9100  0.7149
 3674SOL     OW11077   2.066   0.974   0.264  0.1517 -0.8347 -0.2968
 3674SOL    HW111078   2.007   1.005   0.196 -0.2902 -1.2756 -0.1182
 3674SOL    HW211079   2.089   1.053   0.314  0.5757 -0.4881 -1.0174
 3675SOL     OW11080   4.057   2.027   4.741  0.5758  0.1192  0.5597
 3675SOL    HW111081   4.056   2.112   4.697 -1.6187  0.7837  1.7502
 3675SOL    HW211082   4.039   1.964   4.671 -0.8316  0.9412  0.1455
 3676SOL     OW11083   0.043   0.571   4.490 -0.2070 -0.0157 -0.5308
 3676SOL    HW111084   0.053   0.657   4.450 -1.0312  0.3455  0.0156
 3676SOL    HW211085   0.013   0.589   4.579  2.9701 -0.7336  0.8070
 3677SOL     OW11086   3.759   4.663   2.571 -0.2189  0.0632 -0.3528
 3677SOL    HW111087   3.830   4.646   2.508  0.5610  0.8901  0.2665
 3677SOL    HW211088   3.752   4.583   2.622  1.8138  0.6727  1.0140
 3678SOL     OW11089   1.976   2.002   1.849  0.1690 -0.4576 -0.1175
 3678SOL    HW111090   1.969   1.998   1.945  0.1407  0.8284 -0.0585
 3678SOL    HW211091   1.887   1.985   1.818 -0.1480  0.6711  0.1435
 3679SOL     OW11092   2.831   4.930   1.976 -0.3314 -0.2218  0.3392
 3679SOL    HW111093   2.917   4.972   1.982  1.0415 -2.7080 -0.5796
 3679SOL    HW211094   2.776   4.994   1.932  1.8585  0.3825 -1.7497
 3680SOL     OW11095   0.956   0.775   4.684  0.0043 -0.6139  0.1023
 3680SOL    HW111096   0.930   0.836   4.615 -0.7306 -1.1039 -0.0650
 3680SOL    HW211097   0.878   0.765   4.738  0.2286 -1.1156  0.3437
 3681SOL     OW11098   3.450   1.348   1.186 -0.5324 -0.1968 -0.2177
 3681SOL    HW111099   3.440   1.256   1.162 -0.4067 -0.9739  2.4295
 3681SOL    HW211100   3.360   1.379   1.199 -0.5522 -0.0973 -0.5925
 3682SOL     OW11101   1.831   2.167   1.233 -0.1843  0.2074  0.2836
 3682SOL    HW111102   1.787   2.189   1.314 -0.9293  0.5392 -0.2002
 3682SOL    HW211103   1.760   2.144   1.173  0.3821 -0.4670 -0.1410
 3683SOL     OW11104   3.381   0.447   3.760  0.2327 -0.1271 -0.0440
 3683SOL    HW111105   3.420   0.367   3.725 -0.1930 -0.1003 -0.6137
 3683SOL    HW211106   3.328   0.481   3.687  0.6707  0.8530  0.0714
 3684SOL     OW11107   0.135   2.588   0.741  0.3599  0.0363 -0.0968
 3684SOL    HW111108   0.186   2.612   0.819 -0.6037  2.4626 -0.1272
 3684SOL    HW211109   0.163   2.651   0.674 -2.1376  1.0700 -0.2916
 3685SOL     OW11110   2.802   0.672   3.621 -0.4903 -0.3057 -0.3048
 3685SOL    HW111111   2.730   0.724   3.585  0.3532 -0.3476 -2.1879
 3685SOL    HW211112   2.776   0.581   3.606 -0.2844 -0.3329 -0.5007
 3686SOL     OW11113   2.391   3.421   2.088  0.4252  0.0243  0.1699
 3686SOL    HW111114   2.470   3.383   2.126  0.7905  1.5892  1.1010
 3686SOL    HW211115   2.344   3.458   2.163 -0.9846 -0.4814 -0.4258
 3687SOL     OW11116   4.242   4.194   3.032 -0.3674 -0.0656  0.0999
 3687SOL    HW111117   4.199   4.150   2.959 -0.2510  1.1470 -0.7474
 3687SOL    HW211118   4.296   4.127   3.073 -0.6033 -0.8247 -0.8085
 3688SOL     OW11119   3.347   4.305   4.097 -0.2354  0.4924  0.2466
 3688SOL    HW111120   3.284   4.249   4.141  0.0188 -0.0745 -0.1087
 3688SOL    HW211121   3.432   4.263   4.112 -0.1471  0.2775 -0.8001
 3689SOL     OW11122   2.004   0.459   0.789  0.0008 -0.0534  0.0599
 3689SOL    HW111123   1.913   0.441   0.766 -1.0435  3.6097  0.6044
 3689SOL    HW211124   2.006   0.455   0.884 -0.5256  2.8908  0.2918
 3690SOL     OW11125   1.557   2.523   2.725 -0.3276  0.1264  0.0729
 3690SOL    HW111126   1.530   2.530   2.817 -0.1376 -1.5599  0.2946
 3690SOL    HW211127   1.646   2.488   2.730  0.3134  1.5460 -0.7432
 3691SOL     OW11128   4.708   2.883   1.149 -0.1498 -0.1099 -0.3676
 3691SOL    HW111129   4.753   2.817   1.202  0.5617  0.3541 -0.3812
 3691SOL    HW211130   4.715   2.963   1.200 -1.3534 -0.1212 -0.1712
 3692SOL     OW11131   3.112   0.179   4.145  0.0960 -0.2200  0.2015
 3692SOL    HW111132   3.160   0.106   4.106  1.3922  1.7354 -2.0620
 3692SOL    HW211133   3.178   0.244   4.165 -1.3088  1.4851 -0.4819
 3693SOL     OW11134   2.598   0.698   0.185  0.5398 -0.1703 -0.0704
 3693SOL    HW111135   2.526   0.728   0.241  0.7588 -0.1046  0.1784
 3693SOL    HW211136   2.675   0.744   0.219  0.8620 -0.9210  0.2453
 3694SOL     OW11137   0.563   2.005   2.429  0.1041  0.0566 -0.2910
 3694SOL    HW111138   0.513   1.923   2.436  0.8057 -0.4121 -0.5919
 3694SOL    HW211139   0.628   1.999   2.499  0.3968  0.1741 -0.5492
 3695SOL     OW11140   4.869   0.205   0.873  0.0076  0.8244  0.6398
 3695SOL    HW111141   4.807   0.201   0.800 -1.0270  1.0021  1.4860
 3695SOL    HW211142   4.923   0.127   0.863 -1.0831  0.0585  0.4949
 3696SOL     OW11143   4.358   1.147   3.747 -0.8510 -0.2650  0.6140
 3696SOL    HW111144   4.397   1.175   3.664 -1.2407 -0.9390  0.1984
 3696SOL    HW211145   4.267   1.174   3.742 -1.1061 -1.1346  0.4224
 3697SOL     OW11146   1.211   2.911   1.453  0.3418 -0.4473 -0.1249
 3697SOL    HW111147   1.247   2.827   1.478  1.1579 -0.5744 -1.6210
 3697SOL    HW211148   1.287   2.969   1.445  0.0864 -0.2866 -1.7057
 3698SOL     OW11149   0.573   4.965   4.765  0.0363 -0.3166 -0.0705
 3698SOL    HW111150   0.530   4.892   4.808  0.8765 -1.0930 -0.5163
 3698SOL    HW211151   0.642   4.925   4.712  0.2518  0.7637 -0.6413
 3699SOL     OW11152   3.074   1.728   0.656 -0.5537 -0.1519  0.3724
 3699SOL    HW111153   3.067   1.766   0.744 -2.0809  1.0106 -0.1945
 3699SOL    HW211154   3.152   1.769   0.619  2.0621 -3.0690  2.2087
 3700SOL     OW11155   1.749   0.911   4.518  0.2126 -0.1494  0.1759
 3700SOL    HW111156   1.821   0.961   4.480 -0.5438  2.2413  1.6845
 3700SOL    HW211157   1.780   0.887   4.605  0.1218 -1.3326 -0.1059
 3701SOL     OW11158   1.279   0.915   3.666  0.5449 -0.2547 -0.3194
 3701SOL    HW111159   1.292   0.986   3.728  0.8403  0.0088 -0.6768
 3701SOL    HW211160   1.205   0.944   3.611 -1.6124 -1.6925  1.6306
 3702SOL     OW11161   3.066   1.022   3.100  0.3108  0.1364 -0.1566
 3702SOL    HW111162   3.019   0.940   3.115 -1.7738  1.4799  1.3009
 3702SOL    HW211163   3.075   1.028   3.005 -1.2127 -0.9228 -0.4037
 3703SOL     OW11164   2.731   2.929   2.333  0.1539 -0.6913 -0.0471
 3703SOL    HW111165   2.656   2.874   2.354  0.0048 -0.0387  1.2059
 3703SOL    HW211166   2.740   2.988   2.407  1.2055  0.0167 -0.6985
 3704SOL     OW11167   0.586   3.229   3.353 -0.0376  0.0751  0.4161
 3704SOL    HW111168   0.562   3.214   3.445  0.9820  0.1213  0.7066
 3704SOL    HW211169   0.508   3.206   3.303 -0.9126  0.8979  1.3564
 3705SOL     OW11170   1.355   3.568   1.117 -0.6190  0.5245 -0.2359
 3705SOL    HW111171   1.365   3.532   1.029 -0.4468  0.0458 -0.0173
 3705SOL    HW211172   1.441   3.602   1.139 -0.0555 -1.3518  0.6352
 3706SOL     OW11173   3.770   1.779   4.152 -0.2125  0.0228  0.1436
 3706SOL    HW111174   3.725   1.863   4.150 -0.0168  0.1230  0.0221
 3706SOL    HW211175   3.779   1.754   4.060 -0.2536 -0.1224  0.1787
 3707SOL     OW11176   3.604   0.845   3.305  0.3628 -0.1520 -0.0211
 3707SOL    HW111177   3.514   0.877   3.308 -0.0091 -1.2019  0.1453
 3707SOL    HW211178   3.611   0.800   3.220  1.3121  1.5523 -0.9135
 3708SOL     OW11179   1.366   1.343   2.873  0.5416  0.1833  0.4355
 3708SOL    HW111180   1.423   1.324   2.948  0.1001  0.8176  0.9431
 3708SOL    HW211181   1.333   1.431   2.890 -0.4089 -0.0821  0.0396
 3709SOL     OW11182   2.259   1.965   0.650 -0.7546 -0.6912 -0.6367
 3709SOL    HW111183   2.193   1.966   0.720 -0.0078 -2.0632  0.1413
 3709SOL    HW211184   2.331   1.914   0.687 -0.0277 -0.7949 -2.1455
 3710SOL     OW11185   1.321   2.393   4.063 -0.3470  0.6173 -0.1156
 3710SOL    HW111186   1.283   2.394   4.151  0.2473  0.5691  0.1550
 3710SOL    HW211187   1.279   2.466   4.017 -0.9213  0.4221  0.0955
 3711SOL     OW11188   2.225   4.509   4.333 -0.2058  0.4062 -0.6546
 3711SOL    HW111189   2.296   4.531   4.393 -0.2020 -0.4095 -0.3489
 3711SOL    HW211190   2.263   4.447   4.272 -0.4974  0.4323 -0.8644
 3712SOL     OW11191   2.478   0.368   4.931 -0.4029  0.2141 -0.3696
 3712SOL    HW111192   2.560   0.319   4.946  0.1590  1.2362 -0.0063
 3712SOL    HW211193   2.492   0.413   4.847 -0.2972  0.9635  0.0440
 3713SOL     OW11194   2.550   3.458   3.981 -0.0101  0.5564 -0.2034
 3713SOL    HW111195   2.608   3.382   3.979  1.6423  1.6935  0.7725
 3713SOL    HW211196   2.495   3.449   3.903  0.3126 -1.4681 -0.2528
 3714SOL     OW11197   4.068   0.153   3.068 -0.7969 -0.9607 -0.1256
 3714SOL    HW111198   4.150   0.147   3.118 -1.3530  0.7943  1.0809
 3714SOL    HW211199   4.055   0.065   3.034  1.0915 -1.5250  0.4580
 3715SOL     OW11200   3.428   1.103   0.559  0.5344  0.1897 -0.0201
 3715SOL    HW111201   3.343   1.111   0.603  1.1707  0.5699  1.1718
 3715SOL    HW211202   3.491   1.140   0.621  1.6130 -0.3285 -0.7791
 3716SOL     OW11203   1.531   0.383   1.868 -0.0466 -0.1443 -0.3641
 3716SOL    HW111204   1.620   0.413   1.848  0.5850 -1.6733 -0.0351
 3716SOL    HW211205   1.492   0.452   1.921  0.5797  1.0081 -1.3714
 3717SOL     OW11206   3.548   0.524   1.198 -0.1686  0.2706  0.2329
 3717SOL    HW111207   3.609   0.491   1.132  0.1364 -0.2614  0.7762
 3717SOL    HW211208   3.550   0.458   1.268 -0.5709  0.7735  0.7235
 3718SOL     OW11209   0.903   1.302   1.341  0.1252 -0.1822  0.6072
 3718SOL    HW111210   0.913   1.243   1.416  2.0960  1.8494  2.0711
 3718SOL    HW211211   0.856   1.377   1.375  0.3107  0.4233 -0.4164
 3719SOL     OW11212   0.831   4.153   0.774  0.0942 -0.0507 -0.1065
 3719SOL    HW111213   0.917   4.183   0.745  0.2629 -1.4781 -1.2278
 3719SOL    HW211214   0.846   4.121   0.863  0.8750 -0.7431 -0.4650
 3720SOL     OW11215   1.352   2.438   1.847  0.7241  0.0836 -0.8431
 3720SOL    HW111216   1.303   2.501   1.793 -1.1609 -1.2280 -0.7455
 3720SOL    HW211217   1.290   2.411   1.914  2.6554  0.8020  1.3549
 3721SOL     OW11218   0.982   0.089   3.454 -0.0783 -0.1229  0.3951
 3721SOL    HW111219   0.931   0.014   3.484  1.1950 -1.1207  0.1758
 3721SOL    HW211220   0.950   0.106   3.365 -1.8473  0.9906  1.2058
 3722SOL     OW11221   1.613   1.895   3.252  0.0991  1.0097 -0.1012
 3722SOL    HW111222   1.637   1.829   3.317 -2.0095 -0.5453 -0.7934
 3722SOL    HW211223   1.669   1.970   3.272  4.0422 -1.5537 -0.4256
 3723SOL     OW11224   0.214   4.354   2.794  0.2186 -0.0531 -0.1311
 3723SOL    HW111225   0.160   4.288   2.839  1.4496  0.1960  1.8801
 3723SOL    HW211226   0.164   4.435   2.800 -0.9470 -0.6085 -1.9017
 3724SOL     OW11227   3.310   0.181   1.032  0.1396  0.2802  0.0473
 3724SOL    HW111228   3.287   0.253   1.089  0.1530 -1.0908  1.8735
 3724SOL    HW211229   3.376   0.217   0.973  0.1841  1.7210  0.9288
 3725SOL     OW11230   0.387   1.891   4.345  0.3282  0.4083 -0.2519
 3725SOL    HW111231   0.314   1.883   4.283 -0.2601  2.1827  0.1653
 3725SOL    HW211232   0.349   1.934   4.421  1.3893 -0.4182  0.7846
 3726SOL     OW11233   1.949   3.775   2.993 -0.0166  0.0520  0.1659
 3726SOL    HW111234   1.922   3.737   2.909 -1.7199  2.5750 -0.5359
 3726SOL    HW211235   2.041   3.796   2.982  0.2041 -1.1265 -0.4386
 3727SOL     OW11236   2.845   1.884   1.809  0.0658  0.0753 -0.1605
 3727SOL    HW111237   2.823   1.853   1.722  0.6569  0.0650 -0.3139
 3727SOL    HW211238   2.857   1.805   1.861 -0.3871  0.0834 -0.0449
 3728SOL     OW11239   1.263   0.310   3.735 -0.1281  0.2500  0.5021
 3728SOL    HW111240   1.284   0.261   3.814  0.9081 -0.7033 -0.3199
 3728SOL    HW211241   1.321   0.387   3.738  1.1355 -0.6446 -0.1154
 3729SOL     OW11242   4.104   1.632   4.754  0.1778  0.3182 -0.6579
 3729SOL    HW111243   4.035   1.643   4.818  1.0589  0.4204  0.2974
 3729SOL    HW211244   4.085   1.697   4.686 -1.0501 -0.1490 -0.7735
 3730SOL     OW11245   3.733   4.158   3.951 -0.5750 -0.6054  0.1351
 3730SOL    HW111246   3.722   4.237   3.898  0.2386 -1.2908 -1.0727
 3730SOL    HW211247   3.654   4.154   4.004 -0.6349  1.0197  0.2203
 3731SOL     OW11248   4.022   4.119   1.033  0.0547  0.8116  0.1364
 3731SOL    HW111249   3.944   4.155   0.991 -0.1029 -0.1541 -0.4221
 3731SOL    HW211250   3.990   4.086   1.117  0.1037  1.5133  0.4345
 3732SOL     OW11251   4.819   1.470   0.710  0.2774  0.6128 -0.3054
 3732SOL    HW111252   4.794   1.474   0.802 -1.3640 -0.1118 -0.6878
 3732SOL    HW211253   4.879   1.396   0.705 -0.4402 -0.0032  0.0201
 3733SOL     OW11254   0.783   4.442   4.884 -0.6174 -0.4898  1.0249
 3733SOL    HW111255   0.805   4.350   4.894 -0.5326 -0.3746  2.0004
 3733SOL    HW211256   0.754   4.470   4.971 -1.1153  0.2817  0.6265
 3734SOL     OW11257   4.403   0.482   1.745  0.1683 -0.1996 -0.0293
 3734SOL    HW111258   4.333   0.542   1.719  0.2133 -0.4973 -0.8687
 3734SOL    HW211259   4.440   0.521   1.825 -0.2322  0.5331 -0.1926
 3735SOL     OW11260   4.077   2.660   1.878 -1.1207 -0.3571  0.5769
 3735SOL    HW111261   4.078   2.646   1.973 -0.7723 -1.2802  0.4447
 3735SOL    HW211262   4.025   2.740   1.866 -0.8313 -0.0116  1.5693
 3736SOL     OW11263   0.175   4.096   0.248 -0.2792  0.0171  0.0377
 3736SOL    HW111264   0.149   4.185   0.224 -0.1137 -0.1582 -0.8045
 3736SOL    HW211265   0.157   4.091   0.342  0.7703  1.3132  0.3349
 3737SOL     OW11266   4.200   2.136   1.155 -0.0164  0.6927 -0.2059
 3737SOL    HW111267   4.188   2.217   1.204 -0.0065  0.6073 -0.0616
 3737SOL    HW211268   4.236   2.164   1.071  1.1352  0.7443  0.2843
 3738SOL     OW11269   1.126   3.276   4.677 -0.1567  0.1304  0.0485
 3738SOL    HW111270   1.167   3.236   4.600 -0.0880  2.5018 -1.2437
 3738SOL    HW211271   1.161   3.365   4.679  1.0633 -0.2586  3.7842
 3739SOL     OW11272   1.167   1.402   1.386  0.1642 -0.4727  0.1013
 3739SOL    HW111273   1.194   1.389   1.295 -0.0299 -0.5606  0.0543
 3739SOL    HW211274   1.080   1.362   1.391  0.1380 -0.3935  0.3049
 3740SOL     OW11275   3.457   2.674   3.652  0.2803  0.1684 -0.6821
 3740SOL    HW111276   3.370   2.670   3.692  0.4331 -1.0628 -0.4406
 3740SOL    HW211277   3.441   2.677   3.558 -0.0188 -0.4353 -0.6498
 3741SOL     OW11278   0.071   4.385   0.925  0.3528  0.0422 -0.3708
 3741SOL    HW111279   0.092   4.294   0.905  0.6282  0.1054 -0.3784
 3741SOL    HW211280   0.039   4.384   1.015 -0.3887 -0.1702 -0.6300
 3742SOL     OW11281   0.823   3.350   3.774  0.1967 -0.2597 -0.2189
 3742SOL    HW111282   0.730   3.338   3.792  0.6926 -1.0080  2.2645
 3742SOL    HW211283   0.832   3.443   3.751 -0.8364  0.6214  2.4959
 3743SOL     OW11284   1.303   3.656   4.460  0.3562  0.0590 -0.3085
 3743SOL    HW111285   1.362   3.595   4.416 -0.7673 -1.5940  0.3680
 3743SOL    HW211286   1.333   3.742   4.433  3.3087 -0.6639  0.3321
 3744SOL     OW11287   2.578   1.038   1.097  0.0331  0.2706 -0.4984
 3744SOL    HW111288   2.661   1.083   1.081 -0.6377  1.6635 -0.2794
 3744SOL    HW211289   2.522   1.065   1.024 -0.6502  0.5002  0.0918
 3745SOL     OW11290   3.673   0.114   3.422  0.2865 -0.9658  0.4516
 3745SOL    HW111291   3.760   0.152   3.409  0.6736 -1.8405  0.4023
 3745SOL    HW211292   3.627   0.131   3.340  0.7166 -1.2769  0.1414
 3746SOL     OW11293   2.268   3.554   2.309 -0.0361  0.3809 -0.5029
 3746SOL    HW111294   2.293   3.639   2.344  0.0609  1.2266 -2.4703
 3746SOL    HW211295   2.181   3.569   2.271  0.1472 -0.2865 -1.2045
 3747SOL     OW11296   2.993   4.172   3.900 -0.0778  0.3459 -0.4196
 3747SOL    HW111297   2.930   4.185   3.971  0.3895 -0.3570  0.1396
 3747SOL    HW211298   3.044   4.095   3.927 -0.1688 -0.1963 -1.7206
 3748SOL     OW11299   4.391   0.122   4.659 -0.1789  0.2334  0.0974
 3748SOL    HW111300   4.451   0.188   4.691 -0.9219  0.9502  0.0347
 3748SOL    HW211301   4.384   0.139   4.565 -0.0592 -0.1992  0.0046
 3749SOL     OW11302   2.513   4.596   1.365 -0.2333 -0.1453  0.6590
 3749SOL    HW111303   2.497   4.656   1.438 -1.8766 -0.4606  0.6005
 3749SOL    HW211304   2.608   4.596   1.354 -0.1421  1.9903  1.0363
 3750SOL     OW11305   4.191   4.144   1.960 -0.0717 -0.2682  0.0254
 3750SOL    HW111306   4.185   4.116   1.868 -0.8438  0.7398 -0.2417
 3750SOL    HW211307   4.235   4.071   2.004  2.6033  0.2204 -1.5878
 3751SOL     OW11308   4.748   1.546   0.997  0.7690  0.6580 -0.0995
 3751SOL    HW111309   4.658   1.572   0.977  0.7028  0.2368 -0.3486
 3751SOL    HW211310   4.744   1.510   1.085  0.7675  1.0162  0.0475
 3752SOL     OW11311   3.120   3.957   0.992 -0.2418 -0.2198 -0.4678
 3752SOL    HW111312   3.149   3.907   1.069  1.6758  0.4645 -0.6983
 3752SOL    HW211313   3.178   3.927   0.921 -0.1575  1.1274 -0.9845
 3753SOL     OW11314   1.297   2.438   0.869 -0.3556 -1.1658  0.4299
 3753SOL    HW111315   1.281   2.521   0.823  2.5083 -1.2509 -1.0073
 3753SOL    HW211316   1.346   2.464   0.947 -0.3807 -1.4028  0.5230
 3754SOL     OW11317   0.526   0.458   0.769 -0.2655 -0.4393 -0.3281
 3754SOL    HW111318   0.553   0.466   0.860  0.2810 -3.0927 -0.1903
 3754SOL    HW211319   0.603   0.422   0.725 -0.4524  0.9687 -1.9093
 3755SOL     OW11320   3.078   1.212   2.052  0.8820  0.3229  0.1637
 3755SOL    HW111321   2.994   1.179   2.020 -1.8101  4.6936  1.7637
 3755SOL    HW211322   3.109   1.144   2.111 -2.1991 -1.0070  0.4623
 3756SOL     OW11323   2.637   1.141   0.599  0.1550  0.2922 -0.0531
 3756SOL    HW111324   2.708   1.198   0.629 -1.0392  1.0195  1.4960
 3756SOL    HW211325   2.562   1.199   0.592  0.2076  0.1454 -4.2962
 3757SOL     OW11326   1.659   3.798   4.793 -0.0589  0.5416  0.2623
 3757SOL    HW111327   1.577   3.778   4.839  0.0698  2.1985  1.2829
 3757SOL    HW211328   1.651   3.890   4.768  1.5284  0.7718  0.4876
 3758SOL     OW11329   3.670   0.390   1.750 -0.3319  0.2716 -0.8129
 3758SOL    HW111330   3.640   0.476   1.781 -0.5758  0.8123 -2.4112
 3758SOL    HW211331   3.765   0.398   1.745  0.1586 -1.0618  3.1618
 3759SOL     OW11332   3.814   0.657   2.436 -0.0478 -0.2906  0.2108
 3759SOL    HW111333   3.901   0.679   2.405 -0.2288  0.5399  0.2712
 3759SOL    HW211334   3.764   0.638   2.356  0.2988 -1.2174  0.2042
 3760SOL     OW11335   1.136   2.681   4.948  0.2920  0.6027 -0.7350
 3760SOL    HW111336   1.199   2.620   4.910 -0.3753 -1.0523  0.6567
 3760SOL    HW211337   1.188   2.755   4.978  1.4114 -0.1477 -0.7775
 3761SOL     OW11338   3.520   4.189   3.077 -0.1729 -0.3446  0.3686
 3761SOL    HW111339   3.463   4.212   3.152  0.7761 -0.0820  1.0275
 3761SOL    HW211340   3.481   4.110   3.041 -0.0969 -1.0608  1.7681
 3762SOL     OW11341   3.717   1.560   1.746 -0.0867  0.2242 -0.1544
 3762SOL    HW111342   3.670   1.477   1.758 -0.8716  0.4070 -1.7205
 3762SOL    HW211343   3.777   1.564   1.820 -0.8797 -1.1653  0.6158
 3763SOL     OW11344   1.447   2.259   2.048 -0.0664  0.0608 -0.2299
 3763SOL    HW111345   1.423   2.331   1.990 -0.2926 -0.2981 -0.5907
 3763SOL    HW211346   1.413   2.285   2.133 -0.5836  0.1584 -0.4617
 3764SOL     OW11347   0.511   3.168   3.624  0.4929  0.1557  0.3196
 3764SOL    HW111348   0.425   3.140   3.655  0.9011 -0.9469  0.4795
 3764SOL    HW211349   0.536   3.238   3.684  0.7199 -1.0915  1.7170
 3765SOL     OW11350   2.485   4.656   0.467  0.0127 -0.1459 -0.1895
 3765SOL    HW111351   2.399   4.680   0.431  0.2254  1.5683  0.3544
 3765SOL    HW211352   2.530   4.616   0.393 -1.1184 -0.7662 -0.5801
 3766SOL     OW11353   3.828   2.780   4.517 -0.2171  0.2181 -0.1621
 3766SOL    HW111354   3.894   2.723   4.478 -0.1221 -0.5372  1.0497
 3766SOL    HW211355   3.749   2.765   4.465  0.0075 -0.4606 -0.3167
 3767SOL     OW11356   2.333   4.824   3.638  0.6516 -0.3893  0.3208
 3767SOL    HW111357   2.411   4.862   3.679  0.2120  1.2502 -0.2679
 3767SOL    HW211358   2.260   4.871   3.678 -0.0121 -1.4409  0.3810
 3768SOL     OW11359   2.063   2.222   3.712  0.1911  0.1050  0.3085
 3768SOL    HW111360   2.123   2.195   3.782 -1.0436 -0.9749  0.9872
 3768SOL    HW211361   2.005   2.147   3.700 -0.6810  0.9170 -0.7150
 3769SOL     OW11362   2.460   2.649   3.963  0.1752 -0.0954  0.4399
 3769SOL    HW111363   2.496   2.605   3.886 -1.2831  0.8846 -0.8795
 3769SOL    HW211364   2.443   2.578   4.025  0.8510 -0.9841 -0.3528
 3770SOL     OW11365   4.164   2.724   0.228 -0.3331 -0.2730 -0.0606
 3770SOL    HW111366   4.258   2.724   0.210 -0.1695 -0.9915  0.7338
 3770SOL    HW211367   4.142   2.632   0.243 -0.8945  0.0265  1.0783
 3771SOL     OW11368   0.475   3.732   0.110 -0.1468 -0.3744 -0.1712
 3771SOL    HW111369   0.483   3.788   0.033 -2.4265  0.1433 -0.1000
 3771SOL    HW211370   0.534   3.772   0.174 -0.0796  0.6499 -0.8463
 3772SOL     OW11371   0.472   0.852   0.618  0.0896  0.4935 -0.1752
 3772SOL    HW111372   0.445   0.813   0.535 -0.4088  1.3426 -0.4201
 3772SOL    HW211373   0.568   0.850   0.615  0.0748  0.5188 -0.7737
 3773SOL     OW11374   4.890   4.242   0.057  0.9595  0.6403 -0.7490
 3773SOL    HW111375   4.845   4.274  -0.020  0.1393  1.6203  0.1045
 3773SOL    HW211376   4.947   4.314   0.084  0.9096  0.4795 -0.1857
 3774SOL     OW11377   1.412   3.741   2.398 -0.3410 -0.0113  0.2666
 3774SOL    HW111378   1.344   3.756   2.332 -0.1772  0.1103  0.1217
 3774SOL    HW211379   1.380   3.784   2.477  0.2878  1.4688 -0.2395
 3775SOL     OW11380   3.719   1.068   3.393  0.1423 -0.2100  0.0418
 3775SOL    HW111381   3.690   0.985   3.357  0.4511 -1.3050  2.1369
 3775SOL    HW211382   3.648   1.130   3.374 -0.7904 -1.3317 -0.1914
 3776SOL     OW11383   3.569   3.241   1.677 -0.2615 -0.2685  0.1512
 3776SOL    HW111384   3.628   3.167   1.690  0.3554  0.3676  1.1166
 3776SOL    HW211385   3.482   3.207   1.697  0.1377 -0.4913  1.5696
 3777SOL     OW11386   1.744   3.994   1.043  0.0666  1.2276 -0.4082
 3777SOL    HW111387   1.702   3.932   0.984 -0.3598 -1.0337  2.0501
 3777SOL    HW211388   1.837   3.990   1.021 -0.0073 -0.0501 -0.5649
 3778SOL     OW11389   1.125   1.967   4.193  0.3420 -0.1580  0.0836
 3778SOL    HW111390   1.190   1.998   4.256 -1.0098  1.5447  0.7180
 3778SOL    HW211391   1.044   1.960   4.243 -0.1198 -1.7644 -0.7976
 3779SOL     OW11392   0.001   0.025   0.403 -0.2904 -0.1537  0.1072
 3779SOL    HW111393   0.051  -0.041   0.355 -0.3560 -1.1539  1.3398
 3779SOL    HW211394   0.030   0.109   0.368  0.7780 -0.7954 -0.5827
 3780SOL     OW11395   0.166   1.457   2.322 -0.8868  0.3389  0.0979
 3780SOL    HW111396   0.252   1.478   2.359 -0.5460 -1.1029  0.1938
 3780SOL    HW211397   0.171   1.487   2.231  0.2446 -0.9260 -0.2980
 3781SOL     OW11398   4.478   2.741   2.377 -0.2676 -0.4675  0.3143
 3781SOL    HW111399   4.399   2.760   2.326  0.0691  0.0840 -0.0066
 3781SOL    HW211400   4.502   2.652   2.351  0.2704  0.0372 -1.0013
 3782SOL     OW11401   2.983   4.827   4.893 -0.1885 -0.0140  0.0771
 3782SOL    HW111402   2.950   4.830   4.982 -1.9238 -2.5784 -0.3655
 3782SOL    HW211403   2.906   4.842   4.838  0.4857 -0.3804 -0.9978
 3783SOL     OW11404   3.925   3.574   4.031  0.0870 -0.4886 -0.2705
 3783SOL    HW111405   4.006   3.562   4.081 -0.3153 -2.2583  0.0164
 3783SOL    HW211406   3.877   3.492   4.043 -1.5180  0.3167 -0.8724
 3784SOL     OW11407   0.577   3.070   2.096  0.0210  0.2467  0.0050
 3784SOL    HW111408   0.558   2.978   2.080 -1.2187  0.3556  0.7569
 3784SOL    HW211409   0.632   3.096   2.022 -2.7436 -0.0874 -2.3073
 3785SOL     OW11410   4.295   0.995   0.602 -0.4763 -0.3070  0.1468
 3785SOL    HW111411   4.381   1.036   0.606 -0.6587  0.2027 -0.8763
 3785SOL    HW211412   4.257   1.009   0.688 -0.3219  1.2265 -0.0040
 3786SOL     OW11413   0.225   4.866   1.185  0.3149  0.1912 -0.3367
 3786SOL    HW111414   0.287   4.882   1.256 -0.0465  1.4259 -0.2691
 3786SOL    HW211415   0.278   4.868   1.105  0.5498 -0.0724 -0.1910
 3787SOL     OW11416   0.403   1.875   0.095  0.4114  0.1638  0.1668
 3787SOL    HW111417   0.499   1.873   0.105  0.3003 -0.9351  1.2262
 3787SOL    HW211418   0.383   1.968   0.083  1.4951  0.5639  1.2390
 3788SOL     OW11419   4.850   1.730   1.961  0.2350 -0.3814  0.3331
 3788SOL    HW111420   4.842   1.785   2.039  0.5068  0.9466 -0.5546
 3788SOL    HW211421   4.789   1.769   1.898  1.9824  0.2225 -1.0406
 3789SOL     OW11422   1.939   4.035   0.071 -0.3495 -0.1441  0.3273
 3789SOL    HW111423   1.946   4.116   0.122  1.3704 -0.0367  0.0052
 3789SOL    HW211424   1.922   4.064  -0.018  0.1715 -0.1203  0.2294
 3790SOL     OW11425   2.428   4.489   1.700 -0.5138 -0.2239  0.2767
 3790SOL    HW111426   2.376   4.419   1.659  0.2628  0.1953 -1.5128
 3790SOL    HW211427   2.413   4.565   1.644 -1.0853  0.9804  2.0116
 3791SOL     OW11428   3.301   4.219   0.459  0.1874  0.0797 -0.5893
 3791SOL    HW111429   3.286   4.248   0.369 -0.5719  0.4786 -0.3510
 3791SOL    HW211430   3.224   4.166   0.480  0.6111 -0.4470 -0.3497
 3792SOL     OW11431   4.228   2.678   3.177 -0.1763 -0.4098 -0.1045
 3792SOL    HW111432   4.234   2.586   3.150 -0.8780 -0.5228  0.0980
 3792SOL    HW211433   4.302   2.720   3.134 -1.2517 -0.5636 -2.2460
 3793SOL     OW11434   3.194   4.294   4.454 -0.0578 -0.0240  0.3645
 3793SOL    HW111435   3.242   4.292   4.371 -1.4726  2.4176 -0.6536
 3793SOL    HW211436   3.103   4.274   4.429 -0.6601  1.5667  1.1231
 3794SOL     OW11437   0.807   3.568   4.564  0.2985  0.2175  0.0485
 3794SOL    HW111438   0.781   3.660   4.568 -0.4693 -0.0289  1.2090
 3794SOL    HW211439   0.807   3.539   4.655 -0.5687 -1.2349 -0.3828
 3795SOL     OW11440   4.805   1.469   4.322  0.0175 -0.2984 -0.3796
 3795SOL    HW111441   4.829   1.483   4.413 -2.4783  0.4738  0.2075
 3795SOL    HW211442   4.801   1.557   4.284  1.7987 -0.6443 -1.5077
 3796SOL     OW11443   2.611   4.555   3.052  0.5501 -0.0492 -0.0489
 3796SOL    HW111444   2.619   4.475   3.000 -2.2409  0.8308 -2.0740
 3796SOL    HW211445   2.624   4.526   3.143  3.1585 -2.0676 -0.9462
 3797SOL     OW11446   1.676   3.781   2.630 -0.4318  0.0336 -0.5232
 3797SOL    HW111447   1.654   3.691   2.654 -1.2641  0.4431  0.3214
 3797SOL    HW211448   1.600   3.813   2.582 -1.5875  1.2760  1.9247
 3798SOL     OW11449   4.774   3.120   0.162 -0.0326  0.0655  0.4068
 3798SOL    HW111450   4.798   3.170   0.084 -0.4340 -1.1056 -0.5047
 3798SOL    HW211451   4.693   3.074   0.137 -0.1789 -0.3100  1.5213
 3799SOL     OW11452   0.741   3.279   2.825  0.3188 -0.2812  0.5305
 3799SOL    HW111453   0.805   3.341   2.862 -1.7374  0.8566  2.4002
 3799SOL    HW211454   0.714   3.320   2.742 -0.3689  0.9330  1.3264
 3800SOL     OW11455   2.219   0.091   2.435  0.1766 -0.5651  0.1690
 3800SOL    HW111456   2.158   0.078   2.362 -0.2766  1.5245  0.1266
 3800SOL    HW211457   2.165   0.079   2.513 -0.3261  1.1160  0.1309
 3801SOL     OW11458   2.641   4.940   0.088  0.0902  0.3289  0.2679
 3801SOL    HW111459   2.724   4.903   0.120  0.6783  0.9836 -0.4552
 3801SOL    HW211460   2.609   4.877   0.024  1.4172  1.3160 -1.4421
 3802SOL     OW11461   4.330   0.978   2.870  0.5330 -0.8575  0.2763
 3802SOL    HW111462   4.262   0.911   2.864 -1.3111  0.9510 -0.7135
 3802SOL    HW211463   4.317   1.018   2.956  1.8364 -1.9377  0.9969
 3803SOL     OW11464   2.615   2.812   0.902 -0.5546 -0.1183  0.3441
 3803SOL    HW111465   2.616   2.780   0.811  0.2007  2.7464 -0.7671
 3803SOL    HW211466   2.541   2.767   0.942 -0.5258 -1.9547 -1.4678
 3804SOL     OW11467   2.138   0.129   4.235  0.0686 -0.1590 -1.0521
 3804SOL    HW111468   2.228   0.155   4.216  0.4304  0.2681  1.0755
 3804SOL    HW211469   2.139   0.033   4.231  0.9933 -0.2256  0.4195
 3805SOL     OW11470   4.842   2.180   0.557  0.4556  0.1241 -0.6787
 3805SOL    HW111471   4.847   2.263   0.510 -2.1435  0.0076 -1.2887
 3805SOL    HW211472   4.919   2.131   0.528  0.1392  0.9356 -3.0677
 3806SOL     OW11473   0.583   2.894   2.831 -0.2096 -0.3058 -0.1406
 3806SOL    HW111474   0.617   2.829   2.892  2.1149  2.6925  2.0785
 3806SOL    HW211475   0.638   2.885   2.753  0.0470 -0.9972  0.1108
 3807SOL     OW11476   4.792   0.372   0.469 -0.2967 -0.0918 -0.4011
 3807SOL    HW111477   4.829   0.440   0.525 -0.8508  0.3067 -0.5116
 3807SOL    HW211478   4.756   0.308   0.531  2.1183 -1.4129 -0.2390
 3808SOL     OW11479   0.430   3.355   1.872  0.0781 -0.2366 -0.4132
 3808SOL    HW111480   0.346   3.317   1.899 -0.4203  0.7466 -0.5374
 3808SOL    HW211481   0.480   3.281   1.837 -0.6630 -0.8659 -0.1599
 3809SOL     OW11482   0.935   2.567   3.044  0.4277 -0.4360 -0.2187
 3809SOL    HW111483   0.889   2.616   3.112  0.0086 -0.3050 -0.5925
 3809SOL    HW211484   0.989   2.504   3.092 -1.3558 -1.7220  0.2409
 3810SOL     OW11485   1.491   3.462   2.355 -0.4415  0.0447  0.4138
 3810SOL    HW111486   1.417   3.408   2.329 -0.1796 -0.0871 -0.0689
 3810SOL    HW211487   1.456   3.551   2.357 -0.4556  0.0695 -0.4775
 3811SOL     OW11488   2.164   2.530   4.918  0.4907 -0.6284 -0.2469
 3811SOL    HW111489   2.088   2.516   4.860  0.3818  0.3917 -0.3827
 3811SOL    HW211490   2.205   2.444   4.926  1.7484 -0.4914 -3.5642
 3812SOL     OW11491   4.215   1.259   2.345 -0.4931 -0.6186  0.6451
 3812SOL    HW111492   4.239   1.258   2.437 -2.3987 -0.7485  1.1785
 3812SOL    HW211493   4.132   1.306   2.342 -1.3113 -2.0443 -0.7762
 3813SOL     OW11494   1.807   1.695   0.407 -0.0267 -0.3213  0.0563
 3813SOL    HW111495   1.773   1.779   0.437 -1.1436 -0.0370 -1.8049
 3813SOL    HW211496   1.896   1.691   0.443 -0.0632  1.4959  0.4672
 3814SOL     OW11497   4.068   1.845   3.972 -0.1674  0.7146  0.8776
 3814SOL    HW111498   4.087   1.881   3.885 -0.6414 -2.3175 -0.6014
 3814SOL    HW211499   4.005   1.907   4.010  0.6420  2.5253 -0.5734
 3815SOL     OW11500   3.991   2.505   0.958  0.0868 -0.6921 -0.0495
 3815SOL    HW111501   4.079   2.466   0.955 -0.2418 -1.3935 -1.4220
 3815SOL    HW211502   4.006   2.598   0.942  0.6081 -0.7718 -0.0566
 3816SOL     OW11503   1.478   2.966   3.191 -0.7791 -0.3055 -0.4527
 3816SOL    HW111504   1.487   3.043   3.247 -0.5145 -0.4387 -0.3070
 3816SOL    HW211505   1.427   2.996   3.116 -0.8049 -0.0273 -0.3243
 3817SOL     OW11506   4.527   2.947   1.496  0.4688  0.4228  0.2195
 3817SOL    HW111507   4.618   2.922   1.513  0.0046 -0.4984  1.4539
 3817SOL    HW211508   4.502   3.001   1.570 -0.1701  0.1934  0.1768
 3818SOL     OW11509   3.973   1.358   2.105 -0.4033 -0.5405  0.0994
 3818SOL    HW111510   3.892   1.386   2.149  0.1407  0.0552  0.7493
 3818SOL    HW211511   4.039   1.421   2.135  0.6306 -1.8931  0.7310
 3819SOL     OW11512   2.880   2.803   4.066  0.3203  0.3356 -0.6099
 3819SOL    HW111513   2.788   2.815   4.042  0.5225  0.8733 -1.1398
 3819SOL    HW211514   2.877   2.757   4.151 -0.4106 -0.8023 -1.2266
 3820SOL     OW11515   2.665   2.478   1.879 -0.0682 -0.5439  0.2740
 3820SOL    HW111516   2.680   2.547   1.814 -1.6929 -1.2138 -0.8777
 3820SOL    HW211517   2.731   2.494   1.946  2.3934 -0.4324 -2.0056
 3821SOL     OW11518   0.374   1.879   0.547  0.1868 -0.2700 -0.6310
 3821SOL    HW111519   0.324   1.922   0.616 -0.7938  0.7063 -1.9092
 3821SOL    HW211520   0.396   1.948   0.486  1.3124 -1.0661 -1.1691
 3822SOL     OW11521   0.856   3.410   1.376  0.2564  0.4632  0.1526
 3822SOL    HW111522   0.904   3.491   1.363 -1.3656  1.3388 -0.6494
 3822SOL    HW211523   0.913   3.342   1.341  2.1009  1.0925  1.8121
 3823SOL     OW11524   4.154   3.933   0.597  0.1853 -0.1288 -0.3747
 3823SOL    HW111525   4.205   3.960   0.521  0.3414 -0.2576 -0.3180
 3823SOL    HW211526   4.130   4.015   0.641  0.0403 -0.0531 -0.5979
 3824SOL     OW11527   1.883   3.422   3.157  0.4599 -0.4533  0.0371
 3824SOL    HW111528   1.952   3.479   3.126 -0.1223  0.1382 -0.1904
 3824SOL    HW211529   1.898   3.339   3.113  0.4647 -0.0418 -0.7402
 3825SOL     OW11530   0.440   2.550   0.663  0.7669  0.0769 -0.2753
 3825SOL    HW111531   0.396   2.511   0.587 -0.1809  0.6599 -0.0419
 3825SOL    HW211532   0.384   2.527   0.737  1.0948  0.4585  0.0937
 3826SOL     OW11533   3.982   2.131   0.857  0.2520  0.2531 -0.3204
 3826SOL    HW111534   3.977   2.170   0.944  0.2369  0.8516 -0.5802
 3826SOL    HW211535   3.964   2.038   0.871 -1.7382  0.6485  0.0671
 3827SOL     OW11536   3.825   2.309   2.514  0.3772 -0.0203 -0.2210
 3827SOL    HW111537   3.783   2.240   2.564 -2.2201  2.3569  1.1827
 3827SOL    HW211538   3.784   2.304   2.427  0.3369 -0.3326 -0.1839
 3828SOL     OW11539   4.508   1.587   0.664  0.0696  0.0504 -0.4811
 3828SOL    HW111540   4.563   1.663   0.645  0.5080  0.1823  1.1425
 3828SOL    HW211541   4.511   1.579   0.759 -2.0101 -0.4890 -0.4192
 3829SOL     OW11542   4.925   1.412   2.601 -0.1213 -0.5131  0.2155
 3829SOL    HW111543   4.972   1.346   2.651  1.0229 -1.7942 -2.3694
 3829SOL    HW211544   4.833   1.384   2.605  0.0851 -1.1422  0.7507
 3830SOL     OW11545   3.150   0.206   4.509 -0.5533  0.3813 -0.7002
 3830SOL    HW111546   3.231   0.223   4.461 -0.2343  1.7454  0.2451
 3830SOL    HW211547   3.160   0.118   4.543  0.2301  0.2726 -1.1764
 3831SOL     OW11548   2.662   4.257   2.533 -0.5103 -0.0221 -0.1847
 3831SOL    HW111549   2.721   4.278   2.606 -1.1119  1.9959 -0.2156
 3831SOL    HW211550   2.720   4.240   2.459  0.0668  0.3426  0.1766
 3832SOL     OW11551   1.102   4.810   3.640  0.0224  0.3051  0.0986
 3832SOL    HW111552   1.163   4.745   3.605  0.5360  1.0340 -0.3757
 3832SOL    HW211553   1.121   4.890   3.591 -0.5619  0.8356  0.7198
 3833SOL     OW11554   1.527   2.097   3.571 -0.6808 -0.4248 -0.4502
 3833SOL    HW111555   1.438   2.089   3.606 -1.0932 -2.2777 -1.7861
 3833SOL    HW211556   1.557   2.007   3.560  1.4406  0.1623  0.0621
 3834SOL     OW11557   1.258   2.116   4.441  0.3561 -0.0780 -0.1326
 3834SOL    HW111558   1.322   2.179   4.474  1.2286  0.2648 -2.3201
 3834SOL    HW211559   1.217   2.080   4.520  2.1685  0.7904  1.2812
 3835SOL     OW11560   2.981   4.204   2.454 -0.2266 -0.4525 -0.8341
 3835SOL    HW111561   2.896   4.193   2.496  0.2598 -0.4828  0.1713
 3835SOL    HW211562   3.030   4.261   2.513  2.1299 -4.1430  1.1906
 3836SOL     OW11563   4.471   1.801   1.700 -0.0395  0.0815 -0.5295
 3836SOL    HW111564   4.486   1.794   1.606 -1.3649 -0.5153 -0.7166
 3836SOL    HW211565   4.444   1.713   1.727  0.0206  0.3187  0.3497
 3837SOL     OW11566   4.606   1.216   0.145  0.1753 -0.0900 -0.2580
 3837SOL    HW111567   4.608   1.171   0.061 -2.1753 -0.0958 -0.3797
 3837SOL    HW211568   4.556   1.296   0.129  1.0191  0.6941  0.8096
 3838SOL     OW11569   4.790   2.863   3.625  0.7747  0.3369 -0.1664
 3838SOL    HW111570   4.719   2.907   3.579  1.5407  0.2473 -1.4790
 3838SOL    HW211571   4.820   2.795   3.565 -0.2647 -1.9645  1.7366
 3839SOL     OW11572   0.489   3.053   0.854 -0.2105 -0.1215  0.0458
 3839SOL    HW111573   0.511   2.965   0.825 -0.0168 -0.5089  1.3169
 3839SOL    HW211574   0.419   3.081   0.794  0.4120 -0.7371 -0.9926
 3840SOL     OW11575   0.975   2.659   0.203 -0.8294 -0.1360  0.2530
 3840SOL    HW111576   1.044   2.638   0.266 -0.6038  2.4706  1.0093
 3840SOL    HW211577   1.016   2.647   0.117  1.5067  3.5134  0.6470
 3841SOL     OW11578   4.246   1.628   4.410  0.8435 -0.0621  0.2202
 3841SOL    HW111579   4.189   1.579   4.470 -0.3120  1.8465  0.7828
 3841SOL    HW211580   4.260   1.569   4.337 -2.7373 -0.3476 -0.4411
 3842SOL     OW11581   3.040   2.259   3.753  0.4586 -0.5246 -0.6021
 3842SOL    HW111582   3.077   2.339   3.791 -1.5293  0.3319 -0.3298
 3842SOL    HW211583   2.950   2.258   3.785 -0.0762 -1.9380 -2.0725
 3843SOL     OW11584   3.858   3.927   0.591  0.1170  0.1014 -0.1071
 3843SOL    HW111585   3.948   3.943   0.563  0.0306 -0.5324 -0.7777
 3843SOL    HW211586   3.817   4.013   0.590  0.7118  0.3940  0.1897
 3844SOL     OW11587   1.711   4.700   2.957 -0.3242  0.1029  0.9344
 3844SOL    HW111588   1.667   4.624   2.995 -0.4722 -0.5047 -0.3761
 3844SOL    HW211589   1.799   4.697   2.994 -0.7126  0.0467  1.8804
 3845SOL     OW11590   1.005   1.630   0.851 -0.1653 -0.5666 -0.1057
 3845SOL    HW111591   0.996   1.714   0.806  0.0459 -0.6064 -0.2257
 3845SOL    HW211592   0.931   1.578   0.820  2.5717 -2.4640 -4.5145
 3846SOL     OW11593   4.260   3.328   1.674 -0.1161 -0.0492 -0.1216
 3846SOL    HW111594   4.285   3.249   1.722 -0.2530  0.2008  0.3717
 3846SOL    HW211595   4.234   3.297   1.587 -0.2562 -0.5543  0.1000
 3847SOL     OW11596   1.801   1.390   3.488  0.2225 -0.3728  0.1707
 3847SOL    HW111597   1.750   1.343   3.555  0.6953 -0.2904  0.5985
 3847SOL    HW211598   1.874   1.331   3.467  1.1707  0.3943  1.1618
 3848SOL     OW11599   2.984   4.355   0.455 -0.1995  0.0442 -0.0651
 3848SOL    HW111600   2.951   4.431   0.407  1.8012  0.0225 -1.6342
 3848SOL    HW211601   3.003   4.290   0.387 -0.6735 -1.4030  1.1281
 3849SOL     OW11602   0.172   1.608   0.787 -0.2383  0.4308  0.0010
 3849SOL    HW111603   0.213   1.607   0.701  0.0231  0.6614  0.1232
 3849SOL    HW211604   0.170   1.517   0.814 -0.8392  0.2865 -0.4935
 3850SOL     OW11605   4.261   3.872   0.861 -0.2598 -0.1872 -0.3104
 3850SOL    HW111606   4.229   3.912   0.780  0.3502  0.0688 -0.4308
 3850SOL    HW211607   4.286   3.946   0.916 -3.2709 -0.2148  1.2607
 3851SOL     OW11608   3.205   0.957   0.262 -0.0192 -0.0146  0.1716
 3851SOL    HW111609   3.275   0.928   0.321  1.3955 -0.9560 -1.8463
 3851SOL    HW211610   3.127   0.913   0.295  0.7812 -0.7430  1.1742
 3852SOL     OW11611   4.858   2.390   1.404 -0.1449 -0.3661  1.1106
 3852SOL    HW111612   4.917   2.369   1.476  2.0093  1.4378 -0.0074
 3852SOL    HW211613   4.883   2.330   1.334 -0.1411 -0.0678  0.8562
 3853SOL     OW11614   3.470   3.354   4.524  0.4500 -0.6876 -0.3098
 3853SOL    HW111615   3.452   3.447   4.515  1.2508 -0.4656  0.3183
 3853SOL    HW211616   3.409   3.324   4.592  1.5714 -0.1788  0.9723
 3854SOL     OW11617   1.947   4.787   0.481 -0.3548  0.2054 -0.7220
 3854SOL    HW111618   1.918   4.751   0.565  0.5184 -1.9936 -1.3005
 3854SOL    HW211619   1.986   4.871   0.504 -0.2605 -0.2746  1.0543
 3855SOL     OW11620   4.042   2.587   2.134  0.0880 -0.1498 -0.3935
 3855SOL    HW111621   4.056   2.493   2.121  0.5988  0.0220 -1.1201
 3855SOL    HW211622   3.947   2.596   2.142 -0.0600 -0.5961 -1.4592
 3856SOL     OW11623   1.372   2.650   1.640  0.0992  0.3943 -0.5264
 3856SOL    HW111624   1.463   2.679   1.635 -0.4969  2.2849 -1.2957
 3856SOL    HW211625   1.344   2.676   1.728  0.3698 -0.5407 -0.1411
 3857SOL     OW11626   2.918   4.383   3.479 -0.4513 -0.4411 -0.1384
 3857SOL    HW111627   2.906   4.293   3.509 -0.4067 -0.3730  0.0823
 3857SOL    HW211628   3.006   4.384   3.440 -0.2935 -0.3943  0.2170
 3858SOL     OW11629   0.261   2.960   1.982  0.1812  0.0044  0.3408
 3858SOL    HW111630   0.301   3.023   1.921 -1.2376 -0.2364 -0.8742
 3858SOL    HW211631   0.335   2.906   2.012  0.5527 -2.5710 -4.3326
 3859SOL     OW11632   4.709   0.771   1.501 -0.3392  0.2747  0.6617
 3859SOL    HW111633   4.709   0.840   1.568 -1.5530 -0.5998  1.6136
 3859SOL    HW211634   4.619   0.768   1.470 -0.2156 -0.6423  0.3632
 3860SOL     OW11635   2.643   2.050   0.275  0.0440 -0.2377 -0.2999
 3860SOL    HW111636   2.728   2.012   0.297  0.8901  0.2629 -2.4625
 3860SOL    HW211637   2.597   1.981   0.228 -0.3640 -0.1691 -0.0125
 3861SOL     OW11638   0.165   2.053   0.275 -0.3032 -0.8652  0.0625
 3861SOL    HW111639   0.224   2.107   0.221 -1.1335  0.0866  0.0829
 3861SOL    HW211640   0.187   2.077   0.365 -1.3840  0.2508  0.0538
 3862SOL     OW11641   3.280   3.721   0.323 -0.4682 -0.0844  0.2285
 3862SOL    HW111642   3.326   3.712   0.407 -0.4191  0.7615  0.3005
 3862SOL    HW211643   3.321   3.657   0.266 -0.2041 -0.3644  0.7269
 3863SOL     OW11644   0.510   4.861   1.139  0.1700 -0.2986  0.1951
 3863SOL    HW111645   0.522   4.789   1.076 -0.3375  0.5516 -0.9033
 3863SOL    HW211646   0.552   4.936   1.097  0.6762  0.0664  1.3239
 3864SOL     OW11647   4.390   0.838   3.532  0.1856 -0.6255 -0.0475
 3864SOL    HW111648   4.411   0.785   3.608 -0.6546  0.2148  0.7943
 3864SOL    HW211649   4.317   0.894   3.560 -0.2097 -0.3585 -1.4881
 3865SOL     OW11650   0.262   0.482   0.962  0.1664 -0.4129 -0.2454
 3865SOL    HW111651   0.287   0.499   0.871  0.6654 -0.0800 -0.0548
 3865SOL    HW211652   0.298   0.556   1.011  2.7543 -2.1213  0.6877
 3866SOL     OW11653   0.569   2.472   2.463  0.4651 -0.2364 -0.0452
 3866SOL    HW111654   0.515   2.446   2.538 -0.8419 -1.4195 -1.3444
 3866SOL    HW211655   0.657   2.481   2.500 -0.3186  0.2768  1.8346
 3867SOL     OW11656   3.566   3.374   2.208 -0.6067 -0.0613 -0.5607
 3867SOL    HW111657   3.532   3.377   2.119 -0.0193  1.7780 -0.7592
 3867SOL    HW211658   3.561   3.464   2.239 -1.5998 -0.7657  1.5963
 3868SOL     OW11659   4.283   2.422   1.569  0.6459 -0.3826  0.3745
 3868SOL    HW111660   4.307   2.353   1.631  1.3265 -0.7964 -0.3282
 3868SOL    HW211661   4.367   2.455   1.537  0.3464  1.0463  0.9853
 3869SOL     OW11662   2.683   0.607   3.070 -0.0079  0.5830 -0.2127
 3869SOL    HW111663   2.701   0.545   2.999  3.9538  0.4095  0.7136
 3869SOL    HW211664   2.736   0.683   3.049 -0.0712  1.2129  1.7250
 3870SOL     OW11665   2.297   3.982   3.217 -0.3141  0.3169  0.0741
 3870SOL    HW111666   2.304   4.077   3.229 -1.0302  0.1270  2.3814
 3870SOL    HW211667   2.203   3.965   3.214 -0.2378 -0.4755  1.4430
 3871SOL     OW11668   4.893   3.460   0.208 -0.6673  0.1024 -0.8572
 3871SOL    HW111669   4.803   3.443   0.238 -0.6736  1.9443  0.3546
 3871SOL    HW211670   4.948   3.406   0.264 -0.9142  0.5692 -0.1550
 3872SOL     OW11671   3.606   1.341   4.115  0.3882 -0.4616 -0.2276
 3872SOL    HW111672   3.654   1.322   4.033  0.6549  0.2886 -0.2541
 3872SOL    HW211673   3.619   1.263   4.168 -1.7184 -1.9674 -1.7625
 3873SOL     OW11674   4.573   2.293   4.642 -0.0083  0.5504 -0.1175
 3873SOL    HW111675   4.515   2.340   4.583 -0.8472  1.4227  1.3538
 3873SOL    HW211676   4.661   2.315   4.612 -0.4056  0.5075 -1.3771
 3874SOL     OW11677   0.823   4.761   3.817 -0.0488  0.2544  0.7208
 3874SOL    HW111678   0.900   4.773   3.761 -0.6712 -0.4380 -0.3213
 3874SOL    HW211679   0.783   4.848   3.821 -0.1957  0.2400 -0.2347
 3875SOL     OW11680   4.610   3.288   3.619  0.0895 -0.7241  0.0361
 3875SOL    HW111681   4.582   3.310   3.530  0.5036  0.5926  0.2075
 3875SOL    HW211682   4.700   3.258   3.609  0.5351  0.5149  0.1091
 3876SOL     OW11683   1.986   4.768   3.002 -0.6688  0.3769 -0.0814
 3876SOL    HW111684   2.067   4.818   3.015 -1.1627  1.1804 -0.0004
 3876SOL    HW211685   1.972   4.723   3.085  0.3948 -0.8421 -0.5359
 3877SOL     OW11686   2.527   1.176   2.587  0.4445  0.1080  0.4225
 3877SOL    HW111687   2.557   1.266   2.578  1.4265 -0.3593 -1.7475
 3877SOL    HW211688   2.437   1.177   2.553  0.8891  0.0805 -0.8105
 3878SOL     OW11689   4.565   3.542   1.233  0.5602 -0.3543 -0.1245
 3878SOL    HW111690   4.540   3.451   1.219 -1.0431  0.0802 -0.2060
 3878SOL    HW211691   4.657   3.545   1.206 -0.0212 -1.3996 -2.4669
 3879SOL     OW11692   0.371   3.903   2.133  0.2901  0.6362  0.4508
 3879SOL    HW111693   0.316   3.980   2.151  0.4042  0.9085 -0.3047
 3879SOL    HW211694   0.331   3.832   2.183 -0.4233  0.9593  0.3523
 3880SOL     OW11695   4.376   1.302   4.007  0.0963 -0.2162  0.2207
 3880SOL    HW111696   4.356   1.231   3.946 -1.4288 -1.4206  1.9920
 3880SOL    HW211697   4.471   1.305   4.011  0.2014 -1.0900 -1.0634
 3881SOL     OW11698   3.251   2.891   3.501  0.2202 -1.0672  0.3879
 3881SOL    HW111699   3.230   2.896   3.594  0.8998 -1.4263  0.5625
 3881SOL    HW211700   3.179   2.938   3.458  1.5735  2.1814  1.3035
 3882SOL     OW11701   3.004   4.476   2.573  0.4830  0.4089  0.0138
 3882SOL    HW111702   2.935   4.451   2.634  1.5921 -2.2665  0.3077
 3882SOL    HW211703   3.075   4.508   2.629  0.6178  0.2099 -0.0407
 3883SOL     OW11704   1.143   4.937   1.131  0.0893 -0.2285  0.1122
 3883SOL    HW111705   1.235   4.911   1.136  0.3943  0.8153  0.1662
 3883SOL    HW211706   1.133   5.000   1.203 -0.3749  0.5238 -0.6063
 3884SOL     OW11707   2.625   3.273   3.375 -0.1698 -0.3583 -0.0099
 3884SOL    HW111708   2.554   3.309   3.322  0.7212 -0.3393 -1.2235
 3884SOL    HW211709   2.699   3.331   3.360  0.9571 -1.9856 -1.0916
 3885SOL     OW11710   1.845   0.747   0.213  0.1918  0.2213 -0.1796
 3885SOL    HW111711   1.820   0.838   0.230 -1.4580 -0.0219 -1.0469
 3885SOL    HW211712   1.811   0.698   0.288 -1.5244 -0.0286 -1.0740
 3886SOL     OW11713   3.601   0.095   1.324  0.1253 -0.2621 -0.3932
 3886SOL    HW111714   3.512   0.095   1.360 -0.3447  1.0026 -1.4665
 3886SOL    HW211715   3.593   0.049   1.241  0.1817  0.9872 -1.1055
 3887SOL     OW11716   1.568   1.428   4.556  0.3295 -0.1530  0.1179
 3887SOL    HW111717   1.515   1.348   4.562 -0.2861  0.0907 -1.5412
 3887SOL    HW211718   1.536   1.472   4.477  1.0992  1.4257  0.6419
 3888SOL     OW11719   4.851   1.746   4.075 -0.3475 -0.2854 -0.1839
 3888SOL    HW111720   4.796   1.800   4.018  2.4664  2.8280 -0.2488
 3888SOL    HW211721   4.810   1.752   4.161 -1.4242 -0.0891 -0.6968
 3889SOL     OW11722   1.116   3.400   3.181 -0.0550  0.2032  0.1170
 3889SOL    HW111723   1.190   3.462   3.175  0.1622 -0.1760 -2.2070
 3889SOL    HW211724   1.155   3.319   3.212  0.5709 -0.0263 -1.2064
 3890SOL     OW11725   0.469   2.803   3.384 -0.6643  0.1214  0.2448
 3890SOL    HW111726   0.514   2.868   3.330 -2.9166  1.1188 -0.5625
 3890SOL    HW211727   0.539   2.751   3.423  1.1236  1.1203 -1.4739
 3891SOL     OW11728   1.621   3.503   3.218 -0.4640 -0.2890  0.1755
 3891SOL    HW111729   1.634   3.541   3.305 -2.1989 -0.9866  0.7985
 3891SOL    HW211730   1.707   3.470   3.193  0.2366  0.6183  1.2804
 3892SOL     OW11731   3.100   2.920   3.728 -0.4996 -0.1157 -0.1238
 3892SOL    HW111732   3.029   2.952   3.672 -1.1500 -0.9502  0.2138
 3892SOL    HW211733   3.135   2.999   3.770 -1.8922  0.2108  0.4737
 3893SOL     OW11734   0.676   4.611   2.576 -0.4674 -0.1940 -0.0215
 3893SOL    HW111735   0.675   4.561   2.494  1.5305  0.0357 -0.2193
 3893SOL    HW211736   0.750   4.671   2.567 -0.8832  0.5994  1.5225
 3894SOL     OW11737   1.149   0.907   1.165 -0.3551  0.1034  0.0859
 3894SOL    HW111738   1.132   0.932   1.256 -1.4471  0.2791 -0.1513
 3894SOL    HW211739   1.076   0.849   1.142 -0.6100  0.8175 -0.9629
 3895SOL     OW11740   3.436   0.573   2.050  0.3239  0.1975 -0.7230
 3895SOL    HW111741   3.354   0.530   2.026 -0.9834  2.9659 -1.6141
 3895SOL    HW211742   3.487   0.576   1.968  0.7542 -0.3303 -0.4805
 3896SOL     OW11743   1.650   1.360   1.857 -0.8766 -0.2392  0.0226
 3896SOL    HW111744   1.741   1.387   1.848 -0.8039 -0.5618 -0.2256
 3896SOL    HW211745   1.611   1.426   1.915 -1.2771  1.7451 -2.3337
 3897SOL     OW11746   1.485   1.598   1.541  0.1993 -0.1788 -0.3825
 3897SOL    HW111747   1.497   1.523   1.482  0.3785 -0.4830  0.0403
 3897SOL    HW211748   1.548   1.662   1.510 -0.0733 -0.1290 -0.8574
 3898SOL     OW11749   0.255   4.394   4.818  0.0620  0.5462 -0.8087
 3898SOL    HW111750   0.284   4.303   4.819 -0.0374  0.5082 -1.1930
 3898SOL    HW211751   0.161   4.388   4.801  0.1246  0.7348 -1.2350
 3899SOL     OW11752   1.910   1.040   0.771 -0.0508 -0.0183 -0.6408
 3899SOL    HW111753   1.971   0.973   0.802 -0.8944 -0.3051  0.4518
 3899SOL    HW211754   1.869   1.001   0.693 -0.8467 -0.9663  0.2307
 3900SOL     OW11755   4.754   3.437   3.225 -0.1851  0.3887  0.0694
 3900SOL    HW111756   4.724   3.434   3.134  0.2651  0.9928 -0.0998
 3900SOL    HW211757   4.827   3.375   3.229  1.0601  1.7685 -0.4595
 3901SOL     OW11758   4.106   3.911   0.191  0.0836 -0.2741 -0.8239
 3901SOL    HW111759   4.118   3.906   0.097  0.4059  1.0217 -0.8625
 3901SOL    HW211760   4.012   3.896   0.204 -0.1080  0.3999 -1.4179
 3902SOL     OW11761   2.506   0.278   2.054  0.3183  0.0372  0.0534
 3902SOL    HW111762   2.422   0.285   2.009  0.2474  1.3889  0.3482
 3902SOL    HW211763   2.488   0.226   2.133  0.3427 -1.9273 -1.1697
 3903SOL     OW11764   2.975   4.686   3.839 -0.1518 -0.1495  0.0343
 3903SOL    HW111765   3.042   4.726   3.783 -0.4347  2.9141  1.6577
 3903SOL    HW211766   3.015   4.683   3.926 -1.3012 -0.4967  0.5694
 3904SOL     OW11767   4.407   1.495   1.857  0.4349  0.3328  0.3339
 3904SOL    HW111768   4.400   1.488   1.952  0.6166  1.8527  0.4826
 3904SOL    HW211769   4.501   1.501   1.840  0.3758  0.5584  0.0962
 3905SOL     OW11770   0.239   4.166   2.165  0.2497  0.2715 -0.3119
 3905SOL    HW111771   0.296   4.232   2.202  1.1722 -0.5121 -0.2792
 3905SOL    HW211772   0.242   4.182   2.070  0.9367 -0.0799 -0.3520
 3906SOL     OW11773   2.881   4.561   2.161  0.3325 -0.6013 -0.9566
 3906SOL    HW111774   2.963   4.522   2.190 -0.8764 -2.6399 -0.0711
 3906SOL    HW211775   2.849   4.502   2.093 -1.3617 -0.9985  0.1255
 3907SOL     OW11776   4.220   3.211   3.601 -0.1677  0.0734  0.0087
 3907SOL    HW111777   4.175   3.229   3.518  0.9715 -0.8206 -0.8347
 3907SOL    HW211778   4.214   3.115   3.610  0.3103  0.1009  0.6133
 3908SOL     OW11779   3.877   4.545   1.870  0.4361  0.4117 -0.0130
 3908SOL    HW111780   3.823   4.469   1.850  0.9467 -0.1181  0.5588
 3908SOL    HW211781   3.958   4.531   1.821  1.3423 -0.4581  1.6056
 3909SOL     OW11782   1.359   2.369   2.300 -0.1301 -0.7392 -0.2941
 3909SOL    HW111783   1.296   2.438   2.280 -1.1533 -0.9344  1.9572
 3909SOL    HW211784   1.437   2.416   2.329 -0.9002 -0.4563  1.4481
 3910SOL     OW11785   0.596   3.957   4.095  0.2258 -0.1455 -0.1829
 3910SOL    HW111786   0.642   3.934   4.015  0.9082  0.5521 -0.0002
 3910SOL    HW211787   0.653   4.019   4.140 -0.6267  0.3076  0.3241
 3911SOL     OW11788   2.319   4.576   3.440 -0.0334 -0.2249  0.3650
 3911SOL    HW111789   2.269   4.654   3.466 -0.1903 -0.1318 -0.1920
 3911SOL    HW211790   2.322   4.582   3.345 -0.0747 -0.9237  0.3203
 3912SOL     OW11791   3.410   1.273   3.026  0.5538  0.8085 -0.2153
 3912SOL    HW111792   3.404   1.179   3.007 -1.1539  0.7199  0.5629
 3912SOL    HW211793   3.390   1.280   3.119 -2.6120  2.1718 -0.8762
 3913SOL     OW11794   1.297   3.212   1.299  0.1273  0.1495  0.0494
 3913SOL    HW111795   1.218   3.227   1.248  0.4868  0.2761 -0.4855
 3913SOL    HW211796   1.318   3.297   1.337  0.1299  0.1678  0.0064
 3914SOL     OW11797   3.045   2.666   3.522  0.0003 -0.0066  0.0766
 3914SOL    HW111798   3.093   2.594   3.562 -0.0967 -0.1129  0.0036
 3914SOL    HW211799   3.103   2.742   3.529  0.8291 -0.4751 -1.4222
 3915SOL     OW11800   1.200   1.783   0.359 -0.3398 -0.0649  0.1357
 3915SOL    HW111801   1.255   1.756   0.285  0.7416  0.6767  0.6562
 3915SOL    HW211802   1.149   1.856   0.325  0.3066  0.4103  0.1682
 3916SOL     OW11803   1.430   2.619   4.444 -0.0986 -0.3838 -0.7566
 3916SOL    HW111804   1.421   2.665   4.528  0.5063 -0.7275 -0.4984
 3916SOL    HW211805   1.374   2.668   4.384 -0.4789 -0.0866 -0.1700
 3917SOL     OW11806   2.159   1.096   1.353 -0.4793 -0.3743  0.4423
 3917SOL    HW111807   2.248   1.060   1.355 -0.6884 -0.9846 -0.5189
 3917SOL    HW211808   2.131   1.093   1.444  0.5768  0.0888  0.8059
 3918SOL     OW11809   2.828   2.183   1.487  0.4799  0.2839  0.4207
 3918SOL    HW111810   2.877   2.264   1.502 -0.3668  0.9699 -0.4006
 3918SOL    HW211811   2.893   2.113   1.496  1.1781  1.0303  1.3621
 3919SOL     OW11812   3.943   0.940   4.986 -0.1984  0.5496  0.2680
 3919SOL    HW111813   4.030   0.960   4.951 -0.5554 -0.2050 -1.1121
 3919SOL    HW211814   3.884   0.997   4.936 -0.6796 -0.2379 -0.0683
 3920SOL     OW11815   0.238   4.494   0.453  0.3097  0.3505 -0.1771
 3920SOL    HW111816   0.182   4.537   0.518 -1.6423 -1.3739 -0.6178
 3920SOL    HW211817   0.320   4.478   0.499 -0.7598 -0.1510  1.6380
 3921SOL     OW11818   1.086   2.067   1.205  0.4495  0.1217  0.3024
 3921SOL    HW111819   1.076   1.994   1.145  0.9471  1.7079 -1.8274
 3921SOL    HW211820   1.180   2.083   1.209  0.4272  0.0790  1.4996
 3922SOL     OW11821   0.729   2.717   3.506  0.0494 -0.1733 -0.0674
 3922SOL    HW111822   0.724   2.810   3.529  0.8957  0.6496 -2.7828
 3922SOL    HW211823   0.812   2.688   3.544  0.4166  0.5432 -0.2961
 3923SOL     OW11824   4.385   1.965   0.544 -0.2937 -0.1128  0.0290
 3923SOL    HW111825   4.479   1.979   0.529 -0.2626  0.2731  0.5669
 3923SOL    HW211826   4.345   1.975   0.458  0.3207 -1.6810 -0.4740
 3924SOL     OW11827   4.174   1.515   3.731  0.0197 -0.4566 -0.2434
 3924SOL    HW111828   4.236   1.508   3.804  0.4404 -1.6468 -0.6825
 3924SOL    HW211829   4.205   1.590   3.681  0.3628 -0.2805  0.2260
 3925SOL     OW11830   3.913   3.216   4.741  0.1693  0.1091 -0.3068
 3925SOL    HW111831   3.930   3.176   4.826 -0.0762  0.9108  0.1339
 3925SOL    HW211832   3.950   3.155   4.677  2.2613  0.4736  0.4748
 3926SOL     OW11833   1.476   1.900   0.307  0.5673  0.6014 -0.4187
 3926SOL    HW111834   1.395   1.933   0.346 -0.0719 -0.4448 -0.8037
 3926SOL    HW211835   1.501   1.966   0.243  0.5885  1.4296  0.4283
 3927SOL     OW11836   3.901   2.486   1.705 -0.3101  0.0008  0.1235
 3927SOL    HW111837   3.899   2.512   1.613 -1.3465 -1.8174 -0.4053
 3927SOL    HW211838   3.866   2.562   1.752 -0.9275  0.4907 -1.0903
 3928SOL     OW11839   2.529   3.921   4.825 -0.3497 -0.3272  0.2969
 3928SOL    HW111840   2.604   3.980   4.833 -0.1592 -0.4917 -0.2960
 3928SOL    HW211841   2.531   3.869   4.905  0.4553 -0.6690  0.0571
 3929SOL     OW11842   4.560   4.845   4.344 -0.0750 -0.2869  0.2610
 3929SOL    HW111843   4.639   4.899   4.347 -1.0064  1.0962  0.8001
 3929SOL    HW211844   4.539   4.838   4.251 -1.1591  2.1937  0.2413
 3930SOL     OW11845   2.936   0.708   2.737 -0.0186  0.2959  0.5181
 3930SOL    HW111846   2.865   0.726   2.799 -0.2906 -0.0501  0.3046
 3930SOL    HW211847   2.903   0.639   2.680  1.2960 -1.5299  1.8325
 3931SOL     OW11848   1.265   3.209   2.128  0.6421 -0.1227  0.2154
 3931SOL    HW111849   1.186   3.157   2.114  0.7076 -0.1874  0.0929
 3931SOL    HW211850   1.317   3.196   2.049  0.0825  1.1393 -0.3952
 3932SOL     OW11851   3.336   3.680   0.591 -0.4658 -0.1507 -0.1547
 3932SOL    HW111852   3.270   3.739   0.629  0.3042  0.4235  0.3171
 3932SOL    HW211853   3.412   3.689   0.649  0.2350 -0.3604 -1.0155
 3933SOL     OW11854   1.674  -0.028   4.160  0.5473 -0.4275  0.4872
 3933SOL    HW111855   1.752  -0.030   4.104  0.0236  0.7532 -0.3125
 3933SOL    HW211856   1.659   0.065   4.176 -1.2452 -0.5812 -0.1484
 3934SOL     OW11857   4.066   2.962   3.426  0.0936 -0.2587 -0.1985
 3934SOL    HW111858   4.023   2.990   3.507  0.9826  0.6465 -0.0229
 3934SOL    HW211859   3.994   2.948   3.365 -0.4465  2.3124 -0.2448
 3935SOL     OW11860   4.263   2.976   2.449 -0.0038 -0.2415 -0.1524
 3935SOL    HW111861   4.215   2.942   2.524 -1.3768 -1.1553 -1.3914
 3935SOL    HW211862   4.202   3.035   2.405 -0.1790 -1.6377 -1.9217
 3936SOL     OW11863   0.153   0.197   3.802 -0.0768 -0.0473  0.0260
 3936SOL    HW111864   0.151   0.222   3.710 -0.9445  0.6143  0.2159
 3936SOL    HW211865   0.068   0.224   3.837 -0.3380 -1.6256  0.6851
 3937SOL     OW11866   2.864   2.041   2.818 -0.0208 -0.3219 -0.7533
 3937SOL    HW111867   2.836   2.109   2.758 -0.6866  0.8876  0.8558
 3937SOL    HW211868   2.783   2.005   2.854  0.3638 -0.9336 -0.4672
 3938SOL     OW11869   2.404   1.947   3.681  0.0418  1.0709  0.1961
 3938SOL    HW111870   2.442   1.879   3.626 -0.2292 -0.1068  1.4191
 3938SOL    HW211871   2.474   1.970   3.743 -0.3528  0.8136  0.7443
 3939SOL     OW11872   3.399   4.895   0.788  0.0416 -0.4080 -0.2325
 3939SOL    HW111873   3.384   4.846   0.868  2.0064  1.3735  1.3552
 3939SOL    HW211874   3.313   4.900   0.745 -0.5013 -3.8394  0.2250
 3940SOL     OW11875   3.548   3.964   0.694  0.2680  0.3988 -0.4355
 3940SOL    HW111876   3.564   3.916   0.613  0.2437 -0.8538  0.2746
 3940SOL    HW211877   3.578   4.054   0.675  0.0508  0.1883 -1.8823
 3941SOL     OW11878   1.384   1.095   2.733  0.3794  0.0530  0.0438
 3941SOL    HW111879   1.383   1.014   2.783  2.1449 -0.2378 -0.3129
 3941SOL    HW211880   1.422   1.160   2.792 -0.7251  0.5693  0.2159
 3942SOL     OW11881   3.243   4.812   4.816  0.3016 -0.0194  0.2706
 3942SOL    HW111882   3.165   4.785   4.864  1.1048 -0.8406  1.1560
 3942SOL    HW211883   3.289   4.871   4.875  0.4023  0.3887 -0.2110
 3943SOL     OW11884   1.815   3.401   4.328  0.3606 -0.2571  0.0653
 3943SOL    HW111885   1.833   3.474   4.387 -1.1319 -0.0542  0.2978
 3943SOL    HW211886   1.817   3.439   4.240 -0.6405  0.1258  0.1990
 3944SOL     OW11887   4.920   3.293   2.103  0.0237 -0.4622 -0.3307
 3944SOL    HW111888   4.951   3.203   2.116  2.5568  0.5074  1.1202
 3944SOL    HW211889   4.875   3.314   2.185  2.0231  0.4665  0.6037
 3945SOL     OW11890   3.315   3.795   1.537  0.0541 -0.3270 -0.1410
 3945SOL    HW111891   3.353   3.800   1.624  0.6486  1.9755 -0.4544
 3945SOL    HW211892   3.252   3.867   1.534  0.8840  0.4079 -1.9229
 3946SOL     OW11893   0.596   4.964   2.975 -0.0385 -0.2003  0.6040
 3946SOL    HW111894   0.589   4.949   2.881 -1.4609 -0.6020  0.7615
 3946SOL    HW211895   0.553   4.889   3.016 -1.0350  0.8217  1.5258
 3947SOL     OW11896   1.929   4.313   3.768 -0.1488  0.3007 -0.2821
 3947SOL    HW111897   1.933   4.218   3.756 -0.3317  0.1398  0.8116
 3947SOL    HW211898   1.881   4.325   3.850 -2.2288  1.4183 -1.5928
 3948SOL     OW11899   0.957   3.141   2.211 -0.1103 -0.4417 -0.2487
 3948SOL    HW111900   0.907   3.209   2.166 -0.1826  1.0647  1.9356
 3948SOL    HW211901   0.892   3.092   2.261  0.0997 -1.3164 -0.8139
 3949SOL     OW11902   0.871   2.476   4.882 -0.3154 -0.2538  0.4227
 3949SOL    HW111903   0.878   2.432   4.797  0.6891 -0.2633  0.4940
 3949SOL    HW211904   0.910   2.562   4.868 -1.7962  0.4537  0.4198
 3950SOL     OW11905   0.063   0.815   1.147  0.2984  0.4532  0.7140
 3950SOL    HW111906   0.153   0.783   1.132 -0.4331 -1.9993  1.0971
 3950SOL    HW211907   0.046   0.797   1.239 -1.7695 -2.6793 -0.1119
 3951SOL     OW11908   1.151   4.779   1.923 -0.0726 -0.8371  0.9218
 3951SOL    HW111909   1.115   4.721   1.855 -1.3597  1.2483 -0.2846
 3951SOL    HW211910   1.083   4.845   1.938  1.9301  1.3819  0.9428
 3952SOL     OW11911   2.137   3.316   4.020 -0.4893  0.3320  0.2942
 3952SOL    HW111912   2.042   3.326   4.018 -0.3947  1.2018 -0.0680
 3952SOL    HW211913   2.168   3.396   4.062  0.2416  1.2630 -1.8813
 3953SOL     OW11914   4.031   0.883   4.346  0.5967  0.2488 -0.0644
 3953SOL    HW111915   4.044   0.823   4.272  1.0581 -0.0269  0.2362
 3953SOL    HW211916   4.050   0.830   4.423 -0.8283  0.2676  0.3146
 3954SOL     OW11917   2.462   2.352   3.127  0.0842 -0.4882  0.2357
 3954SOL    HW111918   2.478   2.443   3.102 -0.2217 -0.5730 -0.2928
 3954SOL    HW211919   2.368   2.347   3.140  0.2831 -0.3455  1.8818
 3955SOL     OW11920   1.563   3.311   1.455  0.3638 -0.2809  0.1628
 3955SOL    HW111921   1.579   3.344   1.544 -2.4772  0.1185  0.6169
 3955SOL    HW211922   1.494   3.367   1.421  1.1734 -0.6360 -2.2266
 3956SOL     OW11923   0.181   1.626   0.289 -0.4801  0.6803 -0.4040
 3956SOL    HW111924   0.085   1.620   0.286 -0.6119  1.9003  0.5816
 3956SOL    HW211925   0.200   1.717   0.265  0.3727  0.6604  0.1626
 3957SOL     OW11926   1.621   3.239   3.346  0.0899 -0.2830  0.1413
 3957SOL    HW111927   1.625   3.237   3.442 -0.0227  0.3751  0.1650
 3957SOL    HW211928   1.595   3.329   3.325  1.3115 -0.0644 -0.5469
 3958SOL     OW11929   3.701   4.939   2.554  0.1200  0.2625  0.7416
 3958SOL    HW111930   3.788   4.978   2.551 -0.3942  1.5087 -3.3246
 3958SOL    HW211931   3.713   4.851   2.517 -0.4423  0.8735 -0.9804
 3959SOL     OW11932   0.266   1.783   3.416 -0.2433  0.1145 -0.1991
 3959SOL    HW111933   0.190   1.744   3.458  0.3236  0.2251  0.9814
 3959SOL    HW211934   0.317   1.819   3.488  1.8336 -1.5376 -0.7298
 3960SOL     OW11935   1.490   3.688   0.736  0.2170 -0.1616  0.0700
 3960SOL    HW111936   1.435   3.757   0.774  0.5557  0.1873 -0.0665
 3960SOL    HW211937   1.477   3.697   0.642 -0.2258 -0.6937  0.0767
 3961SOL     OW11938   2.619   2.500   3.777 -0.1323  0.1070 -0.0421
 3961SOL    HW111939   2.658   2.561   3.714  0.4175 -1.0937 -0.8995
 3961SOL    HW211940   2.693   2.466   3.828 -0.4351  0.1661  0.4466
 3962SOL     OW11941   1.919   1.605   4.931  0.2066 -0.1655  0.7310
 3962SOL    HW111942   1.919   1.550   5.009 -1.1105 -1.2958 -0.0174
 3962SOL    HW211943   1.868   1.555   4.867  1.6310  0.5129 -1.0130
 3963SOL     OW11944   3.315   1.632   4.509 -0.7526 -0.1851  0.1407
 3963SOL    HW111945   3.319   1.554   4.564  1.1713  0.5585  1.1796
 3963SOL    HW211946   3.374   1.614   4.436 -0.5700  0.1632  0.2002
 3964SOL     OW11947   2.600   2.740   4.809 -0.3697  0.5828  0.8472
 3964SOL    HW111948   2.518   2.700   4.780  0.5383 -1.8574  1.3533
 3964SOL    HW211949   2.579   2.778   4.894 -1.2684  1.1501  0.3851
 3965SOL     OW11950   0.353   2.803   3.015  0.1094 -0.3631  0.1522
 3965SOL    HW111951   0.350   2.712   2.985  2.5493 -1.2213  2.0872
 3965SOL    HW211952   0.417   2.845   2.958 -0.5699  0.0150 -0.3506
 3966SOL     OW11953   3.194   3.874   2.427  0.6460 -0.0410  0.3626
 3966SOL    HW111954   3.140   3.899   2.502 -0.2694  0.4256 -0.4412
 3966SOL    HW211955   3.139   3.889   2.351  1.7812  0.0899 -0.4612
 3967SOL     OW11956   2.945   3.859   2.893 -0.8942  0.0014  0.2152
 3967SOL    HW111957   2.923   3.898   2.978 -0.0579 -0.0334  0.4517
 3967SOL    HW211958   2.863   3.863   2.843 -2.0397 -1.9326  1.7616
 3968SOL     OW11959   1.721   4.539   2.661 -0.0656  0.3252  0.3972
 3968SOL    HW111960   1.711   4.444   2.666 -0.2786  0.2754 -0.7756
 3968SOL    HW211961   1.702   4.570   2.750 -2.0701 -0.5490  0.3179
 3969SOL     OW11962   3.491   1.538   2.988 -0.3005 -0.2600  0.2677
 3969SOL    HW111963   3.495   1.443   2.991 -0.7684 -0.2547  2.4616
 3969SOL    HW211964   3.401   1.560   3.014 -0.9853  0.7857 -2.5129
 3970SOL     OW11965   0.504   1.143   3.010 -0.1697  0.1535 -0.0357
 3970SOL    HW111966   0.565   1.126   2.938 -0.9347 -1.1514 -0.3983
 3970SOL    HW211967   0.550   1.208   3.065  2.1690 -1.7433  0.4319
 3971SOL     OW11968   3.544   4.780   4.798 -0.1367 -0.3671  0.3424
 3971SOL    HW111969   3.501   4.808   4.717 -1.6220 -0.1854  1.1455
 3971SOL    HW211970   3.479   4.798   4.866 -0.1835 -3.3021  1.2328
 3972SOL     OW11971   1.737   1.428   4.763 -0.3893 -0.3090  0.7459
 3972SOL    HW111972   1.706   1.353   4.814 -0.2207  0.1437  1.5279
 3972SOL    HW211973   1.673   1.437   4.692 -0.2156 -1.4152  0.4157
 3973SOL     OW11974   0.041   4.581   3.843  0.2100  0.4197 -0.1751
 3973SOL    HW111975  -0.008   4.546   3.769 -0.7997 -0.1083  0.7026
 3973SOL    HW211976  -0.005   4.662   3.866  0.1650  0.2905  0.2059
 3974SOL     OW11977   0.837   1.568   4.758  0.1149 -0.1854 -0.0745
 3974SOL    HW111978   0.788   1.493   4.791  0.2235 -1.2043 -2.1094
 3974SOL    HW211979   0.919   1.531   4.726 -0.1366  0.6640 -1.8037
 3975SOL     OW11980   2.037   4.720   1.397 -0.0764  0.0887 -0.0041
 3975SOL    HW111981   1.980   4.797   1.404  1.1578  0.9576  0.9994
 3975SOL    HW211982   2.006   4.661   1.466  0.3364  0.6456  0.6734
 3976SOL     OW11983   4.874   2.186   1.195  0.1072  0.0060  0.8460
 3976SOL    HW111984   4.958   2.155   1.161  0.3129  1.9156 -0.5193
 3976SOL    HW211985   4.815   2.112   1.182  0.7333 -0.1667 -1.6762
 3977SOL     OW11986   0.431   4.455   3.065 -0.1149 -0.4050  0.2439
 3977SOL    HW111987   0.398   4.377   3.109 -0.2310 -0.9463 -0.7574
 3977SOL    HW211988   0.506   4.483   3.117  0.2797 -1.5312  0.2923
 3978SOL     OW11989   2.462   3.494   4.223 -0.1617 -0.1239 -0.4862
 3978SOL    HW111990   2.513   3.489   4.142  0.6944  3.8546 -0.4304
 3978SOL    HW211991   2.373   3.513   4.194 -0.1370 -0.0665 -0.5253
 3979SOL     OW11992   2.196   2.842   3.980 -0.1432  0.2826  0.3086
 3979SOL    HW111993   2.213   2.932   3.950  0.2632  0.6514  1.5964
 3979SOL    HW211994   2.193   2.791   3.899  2.1390  1.0377 -0.3478
 3980SOL     OW11995   4.958   3.113   0.374  0.0659  0.1518 -0.1175
 3980SOL    HW111996   4.902   3.143   0.302  0.3176 -0.2615 -0.4890
 3980SOL    HW211997   4.936   3.021   0.385  1.4947 -0.3440 -1.0619
 3981SOL     OW11998   3.857   0.664   2.960  0.4685  0.0119  0.5122
 3981SOL    HW111999   3.907   0.649   2.879  1.2644  2.7278  0.4351
 3981SOL    HW212000   3.916   0.636   3.030  0.7234 -0.0495  0.2767
 3982SOL     OW12001   3.018   4.688   3.245 -0.2670 -0.2729 -0.1439
 3982SOL    HW112002   3.112   4.696   3.227  0.2507 -1.4129  1.6851
 3982SOL    HW212003   2.975   4.707   3.162  1.5949 -0.0136 -1.0980
 3983SOL     OW12004   3.389   1.843   2.551 -0.4475 -0.0351 -0.0440
 3983SOL    HW112005   3.376   1.925   2.598 -1.6869 -0.6600  0.7724
 3983SOL    HW212006   3.430   1.785   2.616 -0.1094 -0.2314 -0.4323
 3984SOL     OW12007   3.662   0.599   4.624  0.4528 -0.2524  0.4515
 3984SOL    HW112008   3.724   0.603   4.697  0.2018 -0.1543  0.6629
 3984SOL    HW212009   3.640   0.506   4.616 -1.4361 -0.0146  2.1502
 3985SOL     OW12010   0.905   4.270   2.925  0.2529  0.4259 -0.1802
 3985SOL    HW112011   0.879   4.326   2.852 -2.5870 -0.7891 -0.2557
 3985SOL    HW212012   0.828   4.215   2.941  1.6888 -1.0941  2.0936
 3986SOL     OW12013   2.367   0.866   3.347 -0.0973  0.3293 -0.2625
 3986SOL    HW112014   2.294   0.910   3.301  0.3238  0.9809 -0.3239
 3986SOL    HW212015   2.338   0.862   3.438 -0.6665 -0.3930 -0.4634
 3987SOL     OW12016   3.554   2.237   3.291  0.4785 -0.0523  0.5196
 3987SOL    HW112017   3.594   2.163   3.245 -2.6572 -2.0265  0.6635
 3987SOL    HW212018   3.520   2.293   3.221 -1.8979 -1.6570  0.2846
 3988SOL     OW12019   4.192   0.726   1.986 -0.0526  0.0136  0.3545
 3988SOL    HW112020   4.202   0.780   2.065 -1.1532 -1.0145  1.2424
 3988SOL    HW212021   4.109   0.681   1.999 -0.6108  0.3621 -1.7586
 3989SOL     OW12022   2.677   2.936   0.327  0.3223 -0.0655  0.1101
 3989SOL    HW112023   2.759   2.971   0.362 -0.3276  0.0401  1.5979
 3989SOL    HW212024   2.612   2.956   0.394 -0.6383 -1.5271 -0.3475
 3990SOL     OW12025   2.694   1.660   0.192  0.2484  0.3191 -0.0801
 3990SOL    HW112026   2.623   1.705   0.145 -0.1378 -2.2719 -2.1554
 3990SOL    HW212027   2.769   1.718   0.182 -0.9477  2.0035  0.1257
 3991SOL     OW12028   2.159   0.507   3.502  0.9870  0.2868  0.2005
 3991SOL    HW112029   2.235   0.492   3.446  0.9138 -1.5063  0.5298
 3991SOL    HW212030   2.085   0.474   3.450  0.7413 -0.1052  0.7896
 3992SOL     OW12031   1.870   0.669   0.548 -1.1027 -0.1790  0.0509
 3992SOL    HW112032   1.851   0.590   0.497  1.0063  0.5785 -2.0738
 3992SOL    HW212033   1.965   0.674   0.549 -1.1834  1.9430  0.8001
 3993SOL     OW12034   2.693   4.045   4.285  0.5067 -0.1745  0.8453
 3993SOL    HW112035   2.622   4.097   4.247  1.2979 -0.0203 -0.4909
 3993SOL    HW212036   2.658   3.956   4.289  0.7131 -0.3922 -1.2274
 3994SOL     OW12037   0.624   1.242   4.003 -0.3162 -0.1464  0.0520
 3994SOL    HW112038   0.556   1.282   4.057 -0.6783 -3.6113  2.4844
 3994SOL    HW212039   0.584   1.231   3.918 -1.3891  1.3374  0.3239
 3995SOL     OW12040   1.909   0.043   1.106  0.0862  0.2900  0.2357
 3995SOL    HW112041   1.850  -0.026   1.075  0.4823 -0.0650  0.2580
 3995SOL    HW212042   1.856   0.096   1.165 -0.1086 -0.2581  0.5627
 3996SOL     OW12043   3.605   4.534   3.262  0.0987  0.5818 -0.0916
 3996SOL    HW112044   3.668   4.600   3.290  0.2529  0.5517 -0.3666
 3996SOL    HW212045   3.659   4.459   3.237 -0.0258  0.6874 -0.6810
 3997SOL     OW12046   4.292   1.791   0.953 -0.1942  0.6825  0.0167
 3997SOL    HW112047   4.241   1.728   0.901  0.6963  1.3108 -1.7118
 3997SOL    HW212048   4.352   1.830   0.890  1.1660  1.2906  1.6183
 3998SOL     OW12049   2.101   4.907   3.785  0.3720 -0.0088  0.7513
 3998SOL    HW112050   2.047   4.866   3.717 -0.6494  2.9831 -0.3994
 3998SOL    HW212051   2.063   4.994   3.796  2.5124  0.7411  2.8932
 3999SOL     OW12052   4.001   1.904   1.365  0.0729  0.0855 -0.3672
 3999SOL    HW112053   4.047   1.940   1.440  0.9251  0.2101 -0.9353
 3999SOL    HW212054   4.070   1.868   1.309 -0.4826  0.5324 -1.3761
 4000SOL     OW12055   2.900   0.356   0.196  0.0494 -0.4991 -0.2741
 4000SOL    HW112056   2.978   0.394   0.235  0.1737 -1.6648  0.6709
 4000SOL    HW212057   2.830   0.376   0.259 -0.0686 -0.9794 -0.2539
 4001SOL     OW12058   1.166   3.831   3.141  0.0821  0.1523  0.0152
 4001SOL    HW112059   1.226   3.821   3.215 -1.0136  1.0493  1.0692
 4001SOL    HW212060   1.115   3.751   3.141  0.9279 -0.4002 -0.5792
 4002SOL     OW12061   0.595   2.552   1.032 -0.2526 -0.4307 -0.2751
 4002SOL    HW112062   0.551   2.585   1.110 -0.3655  0.3763 -0.6713
 4002SOL    HW212063   0.590   2.456   1.041  1.3042 -0.3921  1.5722
 4003SOL     OW12064   3.009   0.802   3.981  0.3360 -0.0587 -0.0738
 4003SOL    HW112065   3.052   0.881   3.949  0.2504 -0.0743 -0.2294
 4003SOL    HW212066   3.003   0.745   3.904  0.3339 -0.1875  0.0223
 4004SOL     OW12067   3.616   1.318   1.773  0.0418 -0.5411 -0.0363
 4004SOL    HW112068   3.674   1.243   1.762 -1.7684 -2.0924  0.4498
 4004SOL    HW212069   3.549   1.307   1.705 -0.5221  0.3731  0.3450
 4005SOL     OW12070   0.134   4.458   4.082 -0.2800  0.2794  0.1950
 4005SOL    HW112071   0.110   4.469   3.990  1.6830  0.2388 -0.3596
 4005SOL    HW212072   0.163   4.367   4.089  1.9928  0.9328  0.1974
 4006SOL     OW12073   0.066   3.058   2.665 -0.0657 -0.2662  0.7396
 4006SOL    HW112074   0.094   2.967   2.656 -0.7157 -0.4575  0.5863
 4006SOL    HW212075   0.081   3.097   2.579 -2.0397 -0.8891  0.0506
 4007SOL     OW12076   0.707   0.538   3.813 -0.2720  0.7813  0.1458
 4007SOL    HW112077   0.647   0.465   3.798  0.2748  0.3754 -0.0769
 4007SOL    HW212078   0.763   0.510   3.885  0.5503  0.5869 -0.5512
 4008SOL     OW12079   2.189   2.460   4.366  0.0702 -0.2024  0.6379
 4008SOL    HW112080   2.177   2.445   4.272 -1.3614  1.2766  0.5434
 4008SOL    HW212081   2.137   2.391   4.408 -0.5275  0.0324  0.3061
 4009SOL     OW12082   2.288   3.808   1.271  0.1873  0.4601 -0.4558
 4009SOL    HW112083   2.251   3.843   1.352 -0.3174  1.0592 -0.9277
 4009SOL    HW212084   2.264   3.715   1.272  0.8018  0.2977  0.4077
 4010SOL     OW12085   1.932   1.784   2.684  0.6031  0.0883  0.2552
 4010SOL    HW112086   2.003   1.812   2.742  0.8479  2.1136 -0.9243
 4010SOL    HW212087   1.951   1.692   2.665  1.9380  0.1144  1.3134
 4011SOL     OW12088   0.100   3.787   1.449  0.4338  0.1581 -0.3512
 4011SOL    HW112089   0.067   3.700   1.427  1.2100  0.2803 -2.2451
 4011SOL    HW212090   0.165   3.805   1.380 -1.6928  3.3902 -1.7451
 4012SOL     OW12091   2.154   0.408   1.409  0.5194  0.0665 -0.1799
 4012SOL    HW112092   2.201   0.393   1.491 -0.1180 -1.3424 -0.0399
 4012SOL    HW212093   2.152   0.322   1.367 -1.4746  0.1855 -0.4180
 4013SOL     OW12094   4.681   1.497   1.842  0.5437 -0.0555  0.4403
 4013SOL    HW112095   4.720   1.521   1.925  0.6329  1.1668  0.0743
 4013SOL    HW212096   4.642   1.411   1.857  1.6992 -0.4425  1.3503
 4014SOL     OW12097   3.139   2.023   4.400 -0.5519  0.6667  0.3730
 4014SOL    HW112098   3.148   1.975   4.482  2.1927  1.8367  0.8938
 4014SOL    HW212099   3.110   1.958   4.336  1.7673 -1.4372  1.2983
 4015SOL     OW12100   1.203   4.665   1.523  0.1695  0.5368  0.6031
 4015SOL    HW112101   1.282   4.626   1.561  0.1321 -2.5723 -2.0706
 4015SOL    HW212102   1.236   4.734   1.466  0.9827 -0.3972 -0.1055
 4016SOL     OW12103   1.232   1.753   3.222 -0.2083 -0.1473  0.1960
 4016SOL    HW112104   1.262   1.843   3.210  1.4192 -0.7006 -0.2016
 4016SOL    HW212105   1.147   1.761   3.265  0.1458  1.5577  0.6510
 4017SOL     OW12106   0.505   3.936   0.846  0.5975  0.1022  0.1461
 4017SOL    HW112107   0.454   4.000   0.896 -0.1438  0.3880 -0.9521
 4017SOL    HW212108   0.595   3.966   0.853  0.7346 -0.6151  2.4482
 4018SOL     OW12109   0.183   1.991   4.537 -0.0763 -0.0696  0.5896
 4018SOL    HW112110   0.212   1.932   4.606  0.8751  1.9574  2.0195
 4018SOL    HW212111   0.170   2.075   4.581 -3.6934  0.3204 -0.8825
 4019SOL     OW12112   1.390   3.012   4.540  0.9262  0.3001  0.2759
 4019SOL    HW112113   1.306   2.996   4.497  1.6619 -2.0725 -0.4231
 4019SOL    HW212114   1.403   2.938   4.598  3.0340 -0.0386 -0.5091
 4020SOL     OW12115   0.027   2.077   2.454 -0.2030 -0.3668 -0.1803
 4020SOL    HW112116  -0.025   2.128   2.392 -0.3649  0.6036  0.7179
 4020SOL    HW212117   0.064   2.006   2.402 -2.7842 -1.3805 -0.7691
 4021SOL     OW12118   1.729   4.283   1.361 -0.5194  0.0633  0.1295
 4021SOL    HW112119   1.749   4.298   1.454 -1.9987 -0.1399  0.5135
 4021SOL    HW212120   1.685   4.198   1.360 -2.6243  1.0884 -0.4006
 4022SOL     OW12121   3.611   0.722   3.063 -0.6726 -0.4184 -0.2502
 4022SOL    HW112122   3.693   0.697   3.021 -0.3475 -2.4182  1.3904
 4022SOL    HW212123   3.543   0.700   2.999 -0.1701 -2.9577 -0.0144
 4023SOL     OW12124   1.371   0.632   1.767 -0.2326  0.1680  0.3888
 4023SOL    HW112125   1.397   0.723   1.758  1.8520 -0.4427 -0.3335
 4023SOL    HW212126   1.388   0.610   1.858  1.3784 -0.0624  0.0599
 4024SOL     OW12127   3.994   2.266   2.701  0.3590  0.1631 -0.2598
 4024SOL    HW112128   3.971   2.313   2.781 -2.1078 -0.6333 -0.4157
 4024SOL    HW212129   3.942   2.307   2.633 -0.6180 -1.7055 -0.6956
 4025SOL     OW12130   3.691   4.403   2.652  0.3345  0.4394 -0.0008
 4025SOL    HW112131   3.650   4.415   2.738 -0.9863 -0.2934 -0.4974
 4025SOL    HW212132   3.633   4.342   2.607  1.2813  0.4315 -1.2404
 4026SOL     OW12133   4.541   1.763   3.198 -1.0226  0.4241 -0.3224
 4026SOL    HW112134   4.555   1.855   3.174 -0.3376 -0.1098 -2.0590
 4026SOL    HW212135   4.463   1.765   3.255 -1.1939  2.0388 -0.5736
 4027SOL     OW12136   2.074   0.867   0.907 -0.2316  0.2858  0.1671
 4027SOL    HW112137   2.146   0.809   0.932 -0.0566  0.1314 -0.6483
 4027SOL    HW212138   2.040   0.901   0.989  0.5019  0.0250  0.5851
 4028SOL     OW12139   2.748   0.913   3.160  0.1538 -0.2432 -0.0883
 4028SOL    HW112140   2.666   0.959   3.145  1.0915  1.2274 -0.9068
 4028SOL    HW212141   2.815   0.981   3.155  1.6057 -1.6835 -1.4506
 4029SOL     OW12142   4.909   3.960  -0.019  0.6531  0.5245  0.2923
 4029SOL    HW112143   4.909   4.053   0.004  2.5693  0.6506 -0.0291
 4029SOL    HW212144   4.974   3.921   0.039 -0.3626 -0.6962  0.6432
 4030SOL     OW12145   2.552   3.724   3.058  0.0750  0.3359  0.4556
 4030SOL    HW112146   2.548   3.815   3.028  0.7569  0.2488  0.0787
 4030SOL    HW212147   2.533   3.672   2.979  3.9953  0.0265 -0.4887
 4031SOL     OW12148   3.007   3.450   4.842  0.1950 -0.2782 -0.2671
 4031SOL    HW112149   3.088   3.400   4.852 -0.5273 -1.4231  0.0393
 4031SOL    HW212150   2.943   3.386   4.812 -0.3404  0.8490 -1.6194
 4032SOL     OW12151   1.519   0.707   4.544 -0.1816  0.1421  0.0522
 4032SOL    HW112152   1.590   0.732   4.485 -1.2303 -0.1781 -1.4196
 4032SOL    HW212153   1.522   0.611   4.545  0.3377  0.1548  1.2093
 4033NA      NA12154   0.297   4.629   4.821  0.0982 -0.0450 -0.3114
   4.96978   4.96978   4.96978
