Protein in water t=   0.00000 step= 0
12154
    1DT5    H5T    1   1.137   3.005   4.518
    1DT5    O5'    2   1.208   2.944   4.538
    1DT5    C5'    3   1.231   2.970   4.673
    1DT5   H5'1    4   1.314   2.911   4.713
    1DT5   H5'2    5   1.139   2.958   4.731
    1DT5    C4'    6   1.272   3.117   4.696
    1DT5    H4'    7   1.362   3.143   4.641
    1DT5    O4'    8   1.169   3.210   4.666
    1DT5    C1'    9   1.095   3.257   4.777
    1DT5    H1'   10   1.117   3.363   4.779
    1DT5     N1   11   0.952   3.234   4.733
    1DT5     C6   12   0.882   3.117   4.747
    1DT5     H6   13   0.931   3.025   4.776
    1DT5     C5   14   0.750   3.106   4.726
    1DT5     C7   15   0.689   2.971   4.735
    1DT5    H71   16   0.758   2.887   4.745
    1DT5    H72   17   0.619   2.970   4.819
    1DT5    H73   18   0.626   2.957   4.648
    1DT5     C4   19   0.672   3.222   4.683
    1DT5     O4   20   0.545   3.227   4.658
    1DT5     N3   21   0.745   3.339   4.669
    1DT5     H3   22   0.697   3.416   4.624
    1DT5     C2   23   0.883   3.343   4.683
    1DT5     O2   24   0.932   3.448   4.648
    1DT5    C3'   25   1.296   3.141   4.848
    1DT5    H3'   26   1.339   3.059   4.904
    1DT5    C2'   27   1.154   3.179   4.894
    1DT5   H2'1   28   1.098   3.090   4.923
    1DT5   H2'2   29   1.147   3.241   0.003
    1DT5    O3'   30   1.386   3.252   4.854
    2DT3      P   31   1.433   3.318   0.022
    2DT3    O1P   32   1.555   3.394   0.008
    2DT3    O2P   33   1.418   3.220   0.130
    2DT3    O5'   34   1.319   3.420   0.049
    2DT3    C5'   35   1.291   3.526   4.940
    2DT3   H5'1   36   1.299   3.500   4.834
    2DT3   H5'2   37   1.370   3.600   4.952
    2DT3    C4'   38   1.156   3.597   4.980
    2DT3    H4'   39   1.144   3.689   4.922
    2DT3    O4'   40   1.049   3.511   4.957
    2DT3    C1'   41   0.975   3.515   0.094
    2DT3    H1'   42   0.935   3.616   0.097
    2DT3     N1   43   0.868   3.413   0.088
    2DT3     C6   44   0.884   3.279   0.122
    2DT3     H6   45   0.979   3.245   0.160
    2DT3     C5   46   0.777   3.196   0.111
    2DT3     C7   47   0.799   3.053   0.148
    2DT3    H71   48   0.728   2.994   0.089
    2DT3    H72   49   0.897   3.014   0.119
    2DT3    H73   50   0.781   3.039   0.254
    2DT3     C4   51   0.648   3.243   0.065
    2DT3     O4   52   0.542   3.175   0.051
    2DT3     N3   53   0.641   3.371   0.030
    2DT3     H3   54   0.548   3.406   0.014
    2DT3     C2   55   0.748   3.457   0.030
    2DT3     O2   56   0.736   3.564   4.950
    2DT3    C3'   57   1.161   3.628   0.149
    2DT3    H3'   58   1.262   3.615   0.188
    2DT3    C2'   59   1.081   3.516   0.205
    2DT3   H2'1   60   1.144   3.427   0.212
    2DT3   H2'2   61   1.030   3.549   0.296
    2DT3    O3'   62   1.098   3.749   0.190
    2DT3    H3T   63   1.121   3.759   0.282
    3SOL     OW   64   3.423   2.155   4.410
    3SOL    HW1   65   3.403   2.088   4.344
    3SOL    HW2   66   3.514   2.178   4.393
    4SOL     OW   67   3.012   0.652   3.022
    4SOL    HW1   68   3.019   0.637   2.928
    4SOL    HW2   69   3.095   0.694   3.046
    5SOL     OW   70   3.090   3.019   0.173
    5SOL    HW1   71   3.155   3.088   0.161
    5SOL    HW2   72   3.032   3.053   0.243
    6SOL     OW   73   1.576   0.640   2.405
    6SOL    HW1   74   1.571   0.733   2.379
    6SOL    HW2   75   1.651   0.606   2.357
    7SOL     OW   76   4.910   2.477   1.622
    7SOL    HW1   77   4.824   2.468   1.663
    7SOL    HW2   78   4.892   2.507   1.534
    8SOL     OW   79   0.288   0.685   3.264
    8SOL    HW1   80   0.317   0.743   3.194
    8SOL    HW2   81   0.325   0.600   3.241
    9SOL     OW   82   0.452   2.353   4.419
    9SOL    HW1   83   0.526   2.295   4.439
    9SOL    HW2   84   0.470   2.433   4.469
   10SOL     OW   85   3.254   2.938   1.132
   10SOL    HW1   86   3.179   2.890   1.095
   10SOL    HW2   87   3.215   3.013   1.177
   11SOL     OW   88   1.134   1.418   2.365
   11SOL    HW1   89   1.102   1.347   2.419
   11SOL    HW2   90   1.086   1.409   2.282
   12SOL     OW   91   0.322   2.755   4.842
   12SOL    HW1   92   0.347   2.799   4.761
   12SOL    HW2   93   0.281   2.824   4.894
   13SOL     OW   94   3.271   2.797   0.335
   13SOL    HW1   95   3.185   2.836   0.345
   13SOL    HW2   96   3.328   2.870   0.312
   14SOL     OW   97   0.057   0.442   1.505
   14SOL    HW1   98   0.026   0.405   1.587
   14SOL    HW2   99   0.071   0.535   1.523
   15SOL     OW  100   2.300   4.190   0.995
   15SOL    HW1  101   2.262   4.170   1.080
   15SOL    HW2  102   2.274   4.280   0.977
   16SOL     OW  103   1.650   0.934   0.848
   16SOL    HW1  104   1.581   0.958   0.910
   16SOL    HW2  105   1.635   0.842   0.829
   17SOL     OW  106   3.618   2.042   4.188
   17SOL    HW1  107   3.674   1.970   4.158
   17SOL    HW2  108   3.532   2.002   4.200
   18SOL     OW  109   4.569   1.772   4.518
   18SOL    HW1  110   4.507   1.754   4.588
   18SOL    HW2  111   4.536   1.852   4.477
   19SOL     OW  112   0.892   0.690   1.460
   19SOL    HW1  113   0.909   0.642   1.379
   19SOL    HW2  114   0.831   0.759   1.435
   20SOL     OW  115   3.790   4.412   4.734
   20SOL    HW1  116   3.695   4.402   4.745
   20SOL    HW2  117   3.802   4.424   4.640
   21SOL     OW  118   0.033   2.340   0.975
   21SOL    HW1  119   4.939   2.285   0.950
   21SOL    HW2  120   0.107   2.280   0.982
   22SOL     OW  121   1.633   4.203   4.467
   22SOL    HW1  122   1.669   4.240   4.548
   22SOL    HW2  123   1.652   4.109   4.473
   23SOL     OW  124   3.950   2.703   2.131
   23SOL    HW1  125   3.910   2.740   2.210
   23SOL    HW2  126   3.973   2.779   2.078
   24SOL     OW  127   2.887   4.559   2.466
   24SOL    HW1  128   2.961   4.535   2.409
   24SOL    HW2  129   2.818   4.584   2.405
   25SOL     OW  130   3.416   3.402   2.328
   25SOL    HW1  131   3.452   3.380   2.414
   25SOL    HW2  132   3.383   3.319   2.294
   26SOL     OW  133   3.353   1.130   0.007
   26SOL    HW1  134   3.289   1.186   4.944
   26SOL    HW2  135   3.406   1.191   0.059
   27SOL     OW  136   3.802   2.988   1.243
   27SOL    HW1  137   3.795   2.948   1.329
   27SOL    HW2  138   3.714   3.021   1.225
   28SOL     OW  139   2.953   4.105   0.326
   28SOL    HW1  140   3.028   4.048   0.345
   28SOL    HW2  141   2.985   4.164   0.258
   29SOL     OW  142   3.377   0.032   3.463
   29SOL    HW1  143   3.305   0.018   3.402
   29SOL    HW2  144   3.396   4.926   3.499
   30SOL     OW  145   4.777   0.669   4.620
   30SOL    HW1  146   4.722   0.721   4.677
   30SOL    HW2  147   4.866   0.694   4.642
   31SOL     OW  148   4.361   2.104   0.629
   31SOL    HW1  149   4.412   2.059   0.562
   31SOL    HW2  150   4.423   2.121   0.699
   32SOL     OW  151   4.943   3.087   4.017
   32SOL    HW1  152   4.943   3.091   4.112
   32SOL    HW2  153   4.850   3.079   3.993
   33SOL     OW  154   4.262   0.312   2.629
   33SOL    HW1  155   4.356   0.326   2.617
   33SOL    HW2  156   4.221   0.389   2.591
   34SOL     OW  157   0.075   2.738   0.584
   34SOL    HW1  158   0.031   2.698   0.509
   34SOL    HW2  159   0.161   2.764   0.551
   35SOL     OW  160   1.565   1.550   2.716
   35SOL    HW1  161   1.536   1.562   2.626
   35SOL    HW2  162   1.627   1.622   2.731
   36SOL     OW  163   1.229   4.221   0.761
   36SOL    HW1  164   1.202   4.310   0.736
   36SOL    HW2  165   1.265   4.184   0.681
   37SOL     OW  166   1.418   3.111   3.200
   37SOL    HW1  167   1.356   3.141   3.267
   37SOL    HW2  168   1.486   3.065   3.248
   38SOL     OW  169   2.628   3.301   2.891
   38SOL    HW1  170   2.543   3.320   2.851
   38SOL    HW2  171   2.644   3.376   2.949
   39SOL     OW  172   1.202   2.660   3.545
   39SOL    HW1  173   1.261   2.640   3.473
   39SOL    HW2  174   1.257   2.701   3.611
   40SOL     OW  175   4.187   4.524   4.174
   40SOL    HW1  176   4.096   4.554   4.163
   40SOL    HW2  177   4.230   4.595   4.221
   41SOL     OW  178   1.047   0.815   4.351
   41SOL    HW1  179   1.033   0.894   4.403
   41SOL    HW2  180   1.124   0.774   4.390
   42SOL     OW  181   2.175   2.222   2.117
   42SOL    HW1  182   2.167   2.132   2.088
   42SOL    HW2  183   2.270   2.239   2.118
   43SOL     OW  184   1.568   0.416   3.070
   43SOL    HW1  185   1.506   0.379   3.133
   43SOL    HW2  186   1.531   0.396   2.984
   44SOL     OW  187   0.208   0.790   1.766
   44SOL    HW1  188   0.218   0.790   1.862
   44SOL    HW2  189   0.233   0.879   1.740
   45SOL     OW  190   4.656   4.778   1.167
   45SOL    HW1  191   4.688   4.850   1.221
   45SOL    HW2  192   4.568   4.804   1.141
   46SOL     OW  193   1.111   0.309   0.799
   46SOL    HW1  194   1.032   0.279   0.844
   46SOL    HW2  195   1.104   0.270   0.712
   47SOL     OW  196   4.585   2.269   2.903
   47SOL    HW1  197   4.520   2.255   2.834
   47SOL    HW2  198   4.663   2.223   2.873
   48SOL     OW  199   2.240   1.542   3.235
   48SOL    HW1  200   2.153   1.503   3.237
   48SOL    HW2  201   2.227   1.633   3.260
   49SOL     OW  202   0.303   0.883   3.550
   49SOL    HW1  203   0.353   0.870   3.469
   49SOL    HW2  204   0.363   0.856   3.620
   50SOL     OW  205   3.520   3.790   3.261
   50SOL    HW1  206   3.465   3.792   3.339
   50SOL    HW2  207   3.569   3.708   3.268
   51SOL     OW  208   1.741   4.763   1.325
   51SOL    HW1  209   1.753   4.803   1.411
   51SOL    HW2  210   1.656   4.719   1.330
   52SOL     OW  211   0.082   4.622   3.445
   52SOL    HW1  212   0.047   4.678   3.376
   52SOL    HW2  213   0.172   4.653   3.458
   53SOL     OW  214   0.272   0.249   2.683
   53SOL    HW1  215   0.331   0.179   2.712
   53SOL    HW2  216   0.328   0.326   2.677
   54SOL     OW  217   0.069   3.008   2.720
   54SOL    HW1  218   0.096   2.985   2.809
   54SOL    HW2  219   0.127   3.078   2.693
   55SOL     OW  220   1.731   2.057   4.940
   55SOL    HW1  221   1.811   2.077   0.007
   55SOL    HW2  222   1.672   2.130   4.960
   56SOL     OW  223   4.613   1.683   3.639
   56SOL    HW1  224   4.693   1.736   3.636
   56SOL    HW2  225   4.551   1.736   3.688
   57SOL     OW  226   0.701   2.487   1.717
   57SOL    HW1  227   0.655   2.478   1.801
   57SOL    HW2  228   0.632   2.477   1.652
   58SOL     OW  229   1.619   0.428   4.251
   58SOL    HW1  230   1.595   0.405   4.341
   58SOL    HW2  231   1.705   0.387   4.238
   59SOL     OW  232   0.281   3.456   3.929
   59SOL    HW1  233   0.375   3.441   3.940
   59SOL    HW2  234   0.274   3.542   3.889
   60SOL     OW  235   0.113   0.370   1.077
   60SOL    HW1  236   0.201   0.407   1.082
   60SOL    HW2  237   0.100   0.351   0.985
   61SOL     OW  238   3.354   1.664   0.170
   61SOL    HW1  239   3.371   1.666   0.076
   61SOL    HW2  240   3.334   1.755   0.193
   62SOL     OW  241   3.749   4.817   4.727
   62SOL    HW1  242   3.800   4.798   4.648
   62SOL    HW2  243   3.682   4.748   4.729
   63SOL     OW  244   1.867   2.186   0.168
   63SOL    HW1  245   1.864   2.279   0.146
   63SOL    HW2  246   1.879   2.185   0.263
   64SOL     OW  247   2.977   2.560   1.589
   64SOL    HW1  248   3.016   2.521   1.668
   64SOL    HW2  249   2.970   2.653   1.610
   65SOL     OW  250   4.740   4.689   3.210
   65SOL    HW1  251   4.765   4.770   3.255
   65SOL    HW2  252   4.807   4.678   3.142
   66SOL     OW  253   2.339   2.590   0.080
   66SOL    HW1  254   2.268   2.581   0.017
   66SOL    HW2  255   2.320   2.671   0.127
   67SOL     OW  256   3.796   2.395   2.879
   67SOL    HW1  257   3.873   2.339   2.888
   67SOL    HW2  258   3.827   2.470   2.827
   68SOL     OW  259   3.309   2.655   2.892
   68SOL    HW1  260   3.386   2.710   2.902
   68SOL    HW2  261   3.261   2.665   2.975
   69SOL     OW  262   1.398   1.210   2.699
   69SOL    HW1  263   1.361   1.291   2.734
   69SOL    HW2  264   1.401   1.150   2.774
   70SOL     OW  265   2.655   2.688   1.570
   70SOL    HW1  266   2.737   2.715   1.612
   70SOL    HW2  267   2.667   2.710   1.478
   71SOL     OW  268   4.126   4.932   1.734
   71SOL    HW1  269   4.032   4.952   1.740
   71SOL    HW2  270   4.128   4.839   1.711
   72SOL     OW  271   2.712   1.635   1.971
   72SOL    HW1  272   2.692   1.714   1.922
   72SOL    HW2  273   2.661   1.642   2.051
   73SOL     OW  274   0.795   3.064   2.800
   73SOL    HW1  275   0.749   3.082   2.881
   73SOL    HW2  276   0.888   3.069   2.823
   74SOL     OW  277   4.770   4.293   4.714
   74SOL    HW1  278   4.860   4.280   4.684
   74SOL    HW2  279   4.723   4.215   4.685
   75SOL     OW  280   3.334   3.595   0.848
   75SOL    HW1  281   3.422   3.568   0.821
   75SOL    HW2  282   3.343   3.616   0.941
   76SOL     OW  283   4.079   0.008   3.082
   76SOL    HW1  284   4.119   0.028   2.997
   76SOL    HW2  285   4.003   4.935   3.061
   77SOL     OW  286   0.012   0.536   4.419
   77SOL    HW1  287   0.054   0.599   4.477
   77SOL    HW2  288   4.962   0.587   4.344
   78SOL     OW  289   1.332   2.111   2.360
   78SOL    HW1  290   1.403   2.055   2.389
   78SOL    HW2  291   1.372   2.169   2.295
   79SOL     OW  292   0.671   3.274   3.637
   79SOL    HW1  293   0.718   3.304   3.715
   79SOL    HW2  294   0.614   3.347   3.614
   80SOL     OW  295   4.562   3.041   0.416
   80SOL    HW1  296   4.485   3.094   0.437
   80SOL    HW2  297   4.527   2.957   0.388
   81SOL     OW  298   0.497   3.036   4.433
   81SOL    HW1  299   0.545   3.114   4.462
   81SOL    HW2  300   0.454   3.063   4.352
   82SOL     OW  301   4.223   3.032   1.107
   82SOL    HW1  302   4.176   2.952   1.132
   82SOL    HW2  303   4.307   3.001   1.075
   83SOL     OW  304   0.680   3.073   2.136
   83SOL    HW1  305   0.656   3.027   2.056
   83SOL    HW2  306   0.757   3.026   2.168
   84SOL     OW  307   0.055   1.187   4.434
   84SOL    HW1  308   0.039   1.277   4.405
   84SOL    HW2  309   4.949   1.154   4.458
   85SOL     OW  310   4.922   2.749   3.537
   85SOL    HW1  311   4.855   2.682   3.554
   85SOL    HW2  312   0.001   2.743   3.611
   86SOL     OW  313   4.473   4.563   3.230
   86SOL    HW1  314   4.509   4.476   3.249
   86SOL    HW2  315   4.540   4.606   3.177
   87SOL     OW  316   2.730   1.053   0.046
   87SOL    HW1  317   2.665   1.056   0.116
   87SOL    HW2  318   2.789   0.982   0.070
   88SOL     OW  319   1.338   2.647   1.186
   88SOL    HW1  320   1.334   2.581   1.117
   88SOL    HW2  321   1.371   2.600   1.262
   89SOL     OW  322   1.402   3.872   1.380
   89SOL    HW1  323   1.462   3.799   1.364
   89SOL    HW2  324   1.387   3.871   1.475
   90SOL     OW  325   1.964   0.448   0.465
   90SOL    HW1  326   2.052   0.480   0.445
   90SOL    HW2  327   1.932   0.412   0.383
   91SOL     OW  328   2.256   2.439   3.488
   91SOL    HW1  329   2.324   2.490   3.444
   91SOL    HW2  330   2.296   2.353   3.503
   92SOL     OW  331   3.383   4.139   3.469
   92SOL    HW1  332   3.454   4.199   3.492
   92SOL    HW2  333   3.416   4.053   3.493
   93SOL     OW  334   2.347   4.072   1.300
   93SOL    HW1  335   2.400   4.094   1.376
   93SOL    HW2  336   2.346   3.976   1.298
   94SOL     OW  337   2.107   0.848   4.908
   94SOL    HW1  338   2.025   0.800   4.898
   94SOL    HW2  339   2.124   0.887   4.823
   95SOL     OW  340   3.816   3.016   4.517
   95SOL    HW1  341   3.746   3.004   4.582
   95SOL    HW2  342   3.840   3.108   4.524
   96SOL     OW  343   3.963   3.916   0.546
   96SOL    HW1  344   3.996   3.856   0.479
   96SOL    HW2  345   3.868   3.917   0.532
   97SOL     OW  346   4.612   2.220   1.949
   97SOL    HW1  347   4.535   2.274   1.933
   97SOL    HW2  348   4.591   2.172   2.029
   98SOL     OW  349   3.845   4.131   3.513
   98SOL    HW1  350   3.901   4.075   3.567
   98SOL    HW2  351   3.787   4.069   3.468
   99SOL     OW  352   1.588   4.736   3.922
   99SOL    HW1  353   1.576   4.728   4.016
   99SOL    HW2  354   1.508   4.700   3.884
  100SOL     OW  355   3.707   0.097   2.248
  100SOL    HW1  356   3.621   0.101   2.205
  100SOL    HW2  357   3.714   0.008   2.280
  101SOL     OW  358   2.424   4.793   0.575
  101SOL    HW1  359   2.389   4.707   0.600
  101SOL    HW2  360   2.357   4.831   0.519
  102SOL     OW  361   3.618   3.447   0.860
  102SOL    HW1  362   3.696   3.403   0.826
  102SOL    HW2  363   3.591   3.505   0.788
  103SOL     OW  364   0.154   1.540   2.550
  103SOL    HW1  365   0.098   1.500   2.616
  103SOL    HW2  366   0.102   1.538   2.469
  104SOL     OW  367   2.637   0.765   2.125
  104SOL    HW1  368   2.620   0.858   2.138
  104SOL    HW2  369   2.706   0.744   2.189
  105SOL     OW  370   1.640   2.231   3.142
  105SOL    HW1  371   1.642   2.137   3.156
  105SOL    HW2  372   1.630   2.268   3.230
  106SOL     OW  373   2.122   0.765   3.648
  106SOL    HW1  374   2.132   0.670   3.653
  106SOL    HW2  375   2.146   0.787   3.558
  107SOL     OW  376   4.206   0.691   1.645
  107SOL    HW1  377   4.299   0.677   1.631
  107SOL    HW2  378   4.201   0.767   1.703
  108SOL     OW  379   2.304   4.269   3.896
  108SOL    HW1  380   2.384   4.224   3.870
  108SOL    HW2  381   2.333   4.337   3.957
  109SOL     OW  382   1.202   1.743   1.855
  109SOL    HW1  383   1.112   1.722   1.880
  109SOL    HW2  384   1.229   1.670   1.800
  110SOL     OW  385   4.744   1.309   0.275
  110SOL    HW1  386   4.700   1.305   0.190
  110SOL    HW2  387   4.837   1.319   0.253
  111SOL     OW  388   3.646   4.304   3.561
  111SOL    HW1  389   3.723   4.249   3.548
  111SOL    HW2  390   3.667   4.386   3.516
  112SOL     OW  391   0.289   3.365   1.520
  112SOL    HW1  392   0.378   3.398   1.532
  112SOL    HW2  393   0.283   3.345   1.427
  113SOL     OW  394   3.511   2.784   3.913
  113SOL    HW1  395   3.550   2.841   3.847
  113SOL    HW2  396   3.535   2.695   3.885
  114SOL     OW  397   2.424   3.145   0.764
  114SOL    HW1  398   2.445   3.107   0.679
  114SOL    HW2  399   2.331   3.169   0.757
  115SOL     OW  400   0.308   1.024   1.661
  115SOL    HW1  401   0.216   1.045   1.644
  115SOL    HW2  402   0.353   1.107   1.653
  116SOL     OW  403   0.082   4.939   2.526
  116SOL    HW1  404   0.151   4.885   2.564
  116SOL    HW2  405   0.073   4.907   2.436
  117SOL     OW  406   4.152   2.318   3.857
  117SOL    HW1  407   4.216   2.294   3.924
  117SOL    HW2  408   4.078   2.353   3.907
  118SOL     OW  409   4.738   3.130   4.745
  118SOL    HW1  410   4.710   3.071   4.815
  118SOL    HW2  411   4.793   3.076   4.689
  119SOL     OW  412   3.473   0.556   2.920
  119SOL    HW1  413   3.395   0.603   2.950
  119SOL    HW2  414   3.439   0.487   2.862
  120SOL     OW  415   2.890   4.804   1.789
  120SOL    HW1  416   2.867   4.837   1.702
  120SOL    HW2  417   2.807   4.776   1.827
  121SOL     OW  418   1.095   0.686   0.359
  121SOL    HW1  419   1.106   0.761   0.301
  121SOL    HW2  420   1.099   0.723   0.448
  122SOL     OW  421   0.868   0.366   4.746
  122SOL    HW1  422   0.886   0.457   4.723
  122SOL    HW2  423   0.954   0.325   4.754
  123SOL     OW  424   3.393   0.751   4.490
  123SOL    HW1  425   3.466   0.753   4.427
  123SOL    HW2  426   3.435   0.754   4.575
  124SOL     OW  427   1.272   1.544   1.709
  124SOL    HW1  428   1.263   1.520   1.617
  124SOL    HW2  429   1.364   1.528   1.729
  125SOL     OW  430   1.632   3.766   4.005
  125SOL    HW1  431   1.704   3.829   4.003
  125SOL    HW2  432   1.571   3.801   4.070
  126SOL     OW  433   0.459   3.397   2.564
  126SOL    HW1  434   0.415   3.452   2.499
  126SOL    HW2  435   0.536   3.447   2.589
  127SOL     OW  436   4.031   2.121   2.275
  127SOL    HW1  437   3.946   2.165   2.285
  127SOL    HW2  438   4.033   2.057   2.346
  128SOL     OW  439   3.729   2.379   3.794
  128SOL    HW1  440   3.782   2.309   3.756
  128SOL    HW2  441   3.693   2.341   3.874
  129SOL     OW  442   4.421   3.138   3.079
  129SOL    HW1  443   4.484   3.113   3.012
  129SOL    HW2  444   4.351   3.073   3.072
  130SOL     OW  445   3.672   1.951   1.225
  130SOL    HW1  446   3.672   1.967   1.131
  130SOL    HW2  447   3.755   1.905   1.241
  131SOL     OW  448   2.107   1.961   1.990
  131SOL    HW1  449   2.015   1.957   1.963
  131SOL    HW2  450   2.152   1.898   1.934
  132SOL     OW  451   0.836   1.592   0.131
  132SOL    HW1  452   0.862   1.507   0.096
  132SOL    HW2  453   0.762   1.618   0.077
  133SOL     OW  454   4.974   0.639   0.196
  133SOL    HW1  455   4.944   0.661   0.108
  133SOL    HW2  456   4.961   0.719   0.246
  134SOL     OW  457   0.059   0.708   3.396
  134SOL    HW1  458   0.052   0.804   3.402
  134SOL    HW2  459   0.146   0.694   3.358
  135SOL     OW  460   0.400   1.463   2.804
  135SOL    HW1  461   0.469   1.397   2.817
  135SOL    HW2  462   0.322   1.411   2.785
  136SOL     OW  463   3.506   3.885   0.619
  136SOL    HW1  464   3.455   3.965   0.609
  136SOL    HW2  465   3.444   3.814   0.598
  137SOL     OW  466   4.303   1.041   0.360
  137SOL    HW1  467   4.394   1.063   0.337
  137SOL    HW2  468   4.278   1.106   0.425
  138SOL     OW  469   3.613   2.920   2.628
  138SOL    HW1  470   3.587   2.983   2.561
  138SOL    HW2  471   3.655   2.972   2.696
  139SOL     OW  472   1.920   0.483   1.621
  139SOL    HW1  473   1.876   0.420   1.564
  139SOL    HW2  474   1.941   0.556   1.563
  140SOL     OW  475   0.180   3.425   2.069
  140SOL    HW1  476   0.159   3.487   2.000
  140SOL    HW2  477   0.102   3.423   2.125
  141SOL     OW  478   2.227   4.230   0.149
  141SOL    HW1  479   2.204   4.319   0.125
  141SOL    HW2  480   2.171   4.175   0.094
  142SOL     OW  481   0.651   3.729   1.317
  142SOL    HW1  482   0.675   3.733   1.410
  142SOL    HW2  483   0.672   3.639   1.291
  143SOL     OW  484   1.724   4.131   3.973
  143SOL    HW1  485   1.688   4.219   3.961
  143SOL    HW2  486   1.781   4.118   3.897
  144SOL     OW  487   1.524   3.046   2.672
  144SOL    HW1  488   1.520   2.961   2.716
  144SOL    HW2  489   1.602   3.088   2.709
  145SOL     OW  490   1.123   2.942   0.959
  145SOL    HW1  491   1.127   2.914   1.051
  145SOL    HW2  492   1.185   3.015   0.954
  146SOL     OW  493   0.683   0.102   4.166
  146SOL    HW1  494   0.624   0.084   4.092
  146SOL    HW2  495   0.743   0.169   4.133
  147SOL     OW  496   2.176   0.302   2.869
  147SOL    HW1  497   2.189   0.220   2.917
  147SOL    HW2  498   2.096   0.340   2.907
  148SOL     OW  499   2.952   2.882   1.956
  148SOL    HW1  500   2.865   2.915   1.978
  148SOL    HW2  501   3.010   2.923   2.021
  149SOL     OW  502   3.176   0.312   3.310
  149SOL    HW1  503   3.098   0.262   3.331
  149SOL    HW2  504   3.146   0.402   3.302
  150SOL     OW  505   2.829   3.680   0.253
  150SOL    HW1  506   2.819   3.774   0.240
  150SOL    HW2  507   2.755   3.656   0.309
  151SOL     OW  508   2.141   1.967   3.470
  151SOL    HW1  509   2.104   2.039   3.520
  151SOL    HW2  510   2.197   1.920   3.532
  152SOL     OW  511   4.006   0.267   0.271
  152SOL    HW1  512   4.052   0.327   0.329
  152SOL    HW2  513   3.919   0.307   0.260
  153SOL     OW  514   1.382   2.549   4.309
  153SOL    HW1  515   1.398   2.541   4.214
  153SOL    HW2  516   1.469   2.563   4.346
  154SOL     OW  517   1.115   3.238   2.116
  154SOL    HW1  518   1.189   3.293   2.089
  154SOL    HW2  519   1.154   3.153   2.134
  155SOL     OW  520   3.940   3.807   3.464
  155SOL    HW1  521   3.970   3.890   3.503
  155SOL    HW2  522   4.019   3.753   3.462
  156SOL     OW  523   4.074   0.404   1.180
  156SOL    HW1  524   4.012   0.357   1.124
  156SOL    HW2  525   4.052   0.376   1.269
  157SOL     OW  526   1.800   1.342   1.654
  157SOL    HW1  527   1.857   1.419   1.661
  157SOL    HW2  528   1.713   1.374   1.679
  158SOL     OW  529   3.977   2.492   3.964
  158SOL    HW1  530   3.975   2.556   3.893
  158SOL    HW2  531   3.921   2.529   4.032
  159SOL     OW  532   4.871   1.104   0.497
  159SOL    HW1  533   4.799   1.146   0.449
  159SOL    HW2  534   4.846   1.113   0.589
  160SOL     OW  535   2.883   4.241   4.642
  160SOL    HW1  536   2.876   4.271   4.551
  160SOL    HW2  537   2.796   4.206   4.662
  161SOL     OW  538   3.389   1.834   2.027
  161SOL    HW1  539   3.483   1.840   2.006
  161SOL    HW2  540   3.359   1.924   2.028
  162SOL     OW  541   2.268   1.457   4.539
  162SOL    HW1  542   2.325   1.532   4.523
  162SOL    HW2  543   2.258   1.416   4.453
  163SOL     OW  544   1.128   3.884   3.279
  163SOL    HW1  545   1.112   3.903   3.372
  163SOL    HW2  546   1.051   3.920   3.234
  164SOL     OW  547   2.959   4.498   0.717
  164SOL    HW1  548   2.915   4.557   0.657
  164SOL    HW2  549   2.926   4.411   0.694
  165SOL     OW  550   3.235   0.399   1.502
  165SOL    HW1  551   3.317   0.365   1.540
  165SOL    HW2  552   3.241   0.378   1.409
  166SOL     OW  553   1.679   2.774   1.717
  166SOL    HW1  554   1.688   2.757   1.810
  166SOL    HW2  555   1.620   2.849   1.711
  167SOL     OW  556   4.597   4.933   0.485
  167SOL    HW1  557   4.594   4.971   0.397
  167SOL    HW2  558   4.664   0.004   0.531
  168SOL     OW  559   3.953   4.668   4.587
  168SOL    HW1  560   4.024   4.623   4.542
  168SOL    HW2  561   3.975   4.663   4.680
  169SOL     OW  562   2.960   1.176   3.588
  169SOL    HW1  563   2.937   1.145   3.500
  169SOL    HW2  564   3.035   1.122   3.614
  170SOL     OW  565   2.457   1.958   2.006
  170SOL    HW1  566   2.483   1.883   2.060
  170SOL    HW2  567   2.431   2.025   2.068
  171SOL     OW  568   0.914   0.961   3.625
  171SOL    HW1  569   0.924   1.025   3.555
  171SOL    HW2  570   0.988   0.977   3.684
  172SOL     OW  571   0.542   3.105   2.527
  172SOL    HW1  572   0.474   3.171   2.517
  172SOL    HW2  573   0.615   3.152   2.568
  173SOL     OW  574   0.633   1.333   2.256
  173SOL    HW1  575   0.651   1.261   2.316
  173SOL    HW2  576   0.618   1.409   2.312
  174SOL     OW  577   2.757   1.326   0.952
  174SOL    HW1  578   2.706   1.263   0.900
  174SOL    HW2  579   2.750   1.294   1.042
  175SOL     OW  580   0.447   1.210   4.485
  175SOL    HW1  581   0.449   1.191   4.391
  175SOL    HW2  582   0.438   1.305   4.490
  176SOL     OW  583   1.688   0.982   2.104
  176SOL    HW1  584   1.680   0.982   2.009
  176SOL    HW2  585   1.758   0.919   2.123
  177SOL     OW  586   3.483   4.794   1.163
  177SOL    HW1  587   3.443   4.709   1.142
  177SOL    HW2  588   3.452   4.853   1.095
  178SOL     OW  589   4.124   1.264   2.939
  178SOL    HW1  590   4.165   1.229   3.018
  178SOL    HW2  591   4.184   1.333   2.910
  179SOL     OW  592   0.014   3.407   0.667
  179SOL    HW1  593   0.004   3.313   0.655
  179SOL    HW2  594   0.079   3.415   0.737
  180SOL     OW  595   3.869   4.540   4.135
  180SOL    HW1  596   3.774   4.536   4.134
  180SOL    HW2  597   3.898   4.456   4.100
  181SOL     OW  598   4.151   1.850   3.385
  181SOL    HW1  599   4.157   1.943   3.405
  181SOL    HW2  600   4.242   1.822   3.371
  182SOL     OW  601   1.204   0.256   1.735
  182SOL    HW1  602   1.216   0.337   1.785
  182SOL    HW2  603   1.196   0.188   1.802
  183SOL     OW  604   4.124   3.610   3.101
  183SOL    HW1  605   4.121   3.524   3.143
  183SOL    HW2  606   4.204   3.609   3.049
  184SOL     OW  607   0.356   4.094   0.870
  184SOL    HW1  608   0.355   4.184   0.903
  184SOL    HW2  609   0.269   4.060   0.891
  185SOL     OW  610   2.828   0.981   3.390
  185SOL    HW1  611   2.739   0.986   3.353
  185SOL    HW2  612   2.814   0.966   3.483
  186SOL     OW  613   2.647   3.640   1.809
  186SOL    HW1  614   2.585   3.661   1.878
  186SOL    HW2  615   2.593   3.613   1.735
  187SOL     OW  616   3.656   2.210   1.543
  187SOL    HW1  617   3.612   2.262   1.477
  187SOL    HW2  618   3.631   2.120   1.523
  188SOL     OW  619   3.969   0.995   1.779
  188SOL    HW1  620   4.060   0.966   1.772
  188SOL    HW2  621   3.923   0.921   1.818
  189SOL     OW  622   0.769   4.392   4.479
  189SOL    HW1  623   0.739   4.310   4.519
  189SOL    HW2  624   0.689   4.436   4.451
  190SOL     OW  625   4.641   0.616   3.399
  190SOL    HW1  626   4.694   0.540   3.375
  190SOL    HW2  627   4.566   0.613   3.339
  191SOL     OW  628   3.500   2.860   2.953
  191SOL    HW1  629   3.513   2.939   2.901
  191SOL    HW2  630   3.543   2.878   3.036
  192SOL     OW  631   1.447   4.954   1.832
  192SOL    HW1  632   1.353   4.947   1.848
  192SOL    HW2  633   1.487   4.932   1.916
  193SOL     OW  634   2.520   4.886   2.528
  193SOL    HW1  635   2.587   4.908   2.464
  193SOL    HW2  636   2.541   4.937   2.605
  194SOL     OW  637   4.027   3.808   0.931
  194SOL    HW1  638   4.073   3.724   0.924
  194SOL    HW2  639   3.935   3.784   0.937
  195SOL     OW  640   1.876   3.889   4.063
  195SOL    HW1  641   1.961   3.863   4.028
  195SOL    HW2  642   1.896   3.926   4.150
  196SOL     OW  643   4.627   2.066   0.458
  196SOL    HW1  644   4.626   2.112   0.373
  196SOL    HW2  645   4.698   2.109   0.507
  197SOL     OW  646   2.592   4.721   3.544
  197SOL    HW1  647   2.683   4.733   3.573
  197SOL    HW2  648   2.599   4.672   3.462
  198SOL     OW  649   2.979   3.060   2.747
  198SOL    HW1  650   3.024   3.096   2.823
  198SOL    HW2  651   3.049   3.030   2.690
  199SOL     OW  652   1.135   0.660   3.071
  199SOL    HW1  653   1.065   0.676   3.007
  199SOL    HW2  654   1.089   0.626   3.148
  200SOL     OW  655   3.243   2.015   3.666
  200SOL    HW1  656   3.179   1.945   3.677
  200SOL    HW2  657   3.319   1.971   3.626
  201SOL     OW  658   1.863   1.532   2.925
  201SOL    HW1  659   1.816   1.612   2.901
  201SOL    HW2  660   1.808   1.461   2.894
  202SOL     OW  661   0.834   2.526   2.825
  202SOL    HW1  662   0.870   2.477   2.752
  202SOL    HW2  663   0.763   2.578   2.787
  203SOL     OW  664   2.814   2.364   4.694
  203SOL    HW1  665   2.854   2.434   4.644
  203SOL    HW2  666   2.757   2.408   4.757
  204SOL     OW  667   0.983   4.300   0.269
  204SOL    HW1  668   1.027   4.259   0.343
  204SOL    HW2  669   0.896   4.259   0.268
  205SOL     OW  670   0.294   0.790   1.096
  205SOL    HW1  671   0.315   0.789   1.189
  205SOL    HW2  672   0.367   0.746   1.054
  206SOL     OW  673   4.843   4.224   0.235
  206SOL    HW1  674   4.884   4.182   0.311
  206SOL    HW2  675   4.848   4.157   0.166
  207SOL     OW  676   0.820   2.970   3.998
  207SOL    HW1  677   0.866   2.886   3.991
  207SOL    HW2  678   0.887   3.031   4.028
  208SOL     OW  679   3.608   2.441   4.558
  208SOL    HW1  680   3.660   2.371   4.597
  208SOL    HW2  681   3.622   2.517   4.616
  209SOL     OW  682   3.635   4.162   3.193
  209SOL    HW1  683   3.540   4.162   3.190
  209SOL    HW2  684   3.658   4.086   3.246
  210SOL     OW  685   0.705   1.164   4.603
  210SOL    HW1  686   0.622   1.184   4.560
  210SOL    HW2  687   0.680   1.108   4.677
  211SOL     OW  688   0.419   3.158   2.188
  211SOL    HW1  689   0.390   3.147   2.097
  211SOL    HW2  690   0.505   3.117   2.192
  212SOL     OW  691   3.199   2.859   4.500
  212SOL    HW1  692   3.186   2.774   4.543
  212SOL    HW2  693   3.125   2.912   4.530
  213SOL     OW  694   1.747   1.106   1.470
  213SOL    HW1  695   1.809   1.034   1.454
  213SOL    HW2  696   1.793   1.164   1.530
  214SOL     OW  697   0.119   2.148   2.134
  214SOL    HW1  698   0.058   2.091   2.181
  214SOL    HW2  699   0.064   2.218   2.099
  215SOL     OW  700   4.288   1.536   2.532
  215SOL    HW1  701   4.265   1.598   2.602
  215SOL    HW2  702   4.215   1.474   2.530
  216SOL     OW  703   3.534   0.989   4.843
  216SOL    HW1  704   3.452   1.003   4.890
  216SOL    HW2  705   3.584   1.070   4.857
  217SOL     OW  706   4.694   4.155   2.812
  217SOL    HW1  707   4.634   4.081   2.811
  217SOL    HW2  708   4.648   4.223   2.762
  218SOL     OW  709   2.572   4.716   1.595
  218SOL    HW1  710   2.571   4.809   1.574
  218SOL    HW2  711   2.656   4.685   1.559
  219SOL     OW  712   2.021   1.650   4.532
  219SOL    HW1  713   2.052   1.649   4.622
  219SOL    HW2  714   2.100   1.631   4.480
  220SOL     OW  715   2.644   3.433   0.749
  220SOL    HW1  716   2.639   3.441   0.844
  220SOL    HW2  717   2.555   3.415   0.721
  221SOL     OW  718   0.013   1.388   0.186
  221SOL    HW1  719   0.064   1.465   0.212
  221SOL    HW2  720   0.078   1.318   0.180
  222SOL     OW  721   1.604   0.686   0.756
  222SOL    HW1  722   1.540   0.653   0.692
  222SOL    HW2  723   1.579   0.643   0.837
  223SOL     OW  724   1.089   3.404   1.668
  223SOL    HW1  725   1.059   3.402   1.576
  223SOL    HW2  726   1.014   3.371   1.717
  224SOL     OW  727   1.419   4.555   1.772
  224SOL    HW1  728   1.409   4.616   1.845
  224SOL    HW2  729   1.454   4.475   1.813
  225SOL     OW  730   0.512   2.924   0.573
  225SOL    HW1  731   0.446   2.904   0.506
  225SOL    HW2  732   0.468   2.908   0.656
  226SOL     OW  733   0.890   0.048   3.363
  226SOL    HW1  734   0.817   0.012   3.414
  226SOL    HW2  735   0.862   0.037   3.272
  227SOL     OW  736   0.579   1.873   3.333
  227SOL    HW1  737   0.591   1.905   3.243
  227SOL    HW2  738   0.545   1.784   3.322
  228SOL     OW  739   3.840   4.768   2.199
  228SOL    HW1  740   3.895   4.838   2.233
  228SOL    HW2  741   3.898   4.717   2.143
  229SOL     OW  742   4.733   2.903   3.227
  229SOL    HW1  743   4.682   2.920   3.148
  229SOL    HW2  744   4.711   2.814   3.252
  230SOL     OW  745   1.408   2.592   3.079
  230SOL    HW1  746   1.394   2.678   3.040
  230SOL    HW2  747   1.389   2.530   3.009
  231SOL     OW  748   3.988   2.304   0.893
  231SOL    HW1  749   4.067   2.291   0.841
  231SOL    HW2  750   3.916   2.295   0.831
  232SOL     OW  751   4.104   0.394   2.167
  232SOL    HW1  752   4.040   0.335   2.128
  232SOL    HW2  753   4.115   0.362   2.257
  233SOL     OW  754   0.492   2.638   1.149
  233SOL    HW1  755   0.439   2.652   1.070
  233SOL    HW2  756   0.582   2.638   1.117
  234SOL     OW  757   3.020   1.913   1.555
  234SOL    HW1  758   2.999   1.824   1.583
  234SOL    HW2  759   2.937   1.960   1.562
  235SOL     OW  760   0.091   4.583   4.031
  235SOL    HW1  761   0.139   4.665   4.019
  235SOL    HW2  762   0.138   4.520   3.977
  236SOL     OW  763   1.363   4.739   2.988
  236SOL    HW1  764   1.274   4.715   3.013
  236SOL    HW2  765   1.373   4.829   3.018
  237SOL     OW  766   0.423   2.847   2.624
  237SOL    HW1  767   0.503   2.832   2.675
  237SOL    HW2  768   0.434   2.935   2.588
  238SOL     OW  769   1.176   2.324   3.002
  238SOL    HW1  770   1.164   2.362   3.089
  238SOL    HW2  771   1.208   2.397   2.949
  239SOL     OW  772   2.411   1.289   1.186
  239SOL    HW1  773   2.333   1.261   1.138
  239SOL    HW2  774   2.432   1.214   1.242
  240SOL     OW  775   3.221   3.557   0.415
  240SOL    HW1  776   3.303   3.508   0.416
  240SOL    HW2  777   3.217   3.596   0.327
  241SOL     OW  778   1.377   2.961   4.317
  241SOL    HW1  779   1.459   2.992   4.354
  241SOL    HW2  780   1.315   2.961   4.390
  242SOL     OW  781   1.196   4.214   4.617
  242SOL    HW1  782   1.161   4.272   4.550
  242SOL    HW2  783   1.213   4.271   4.692
  243SOL     OW  784   3.228   1.714   2.712
  243SOL    HW1  785   3.230   1.648   2.781
  243SOL    HW2  786   3.321   1.733   2.695
  244SOL     OW  787   4.769   1.518   0.964
  244SOL    HW1  788   4.825   1.499   0.888
  244SOL    HW2  789   4.803   1.601   0.998
  245SOL     OW  790   1.825   4.979   3.042
  245SOL    HW1  791   1.881   4.901   3.051
  245SOL    HW2  792   1.739   4.950   3.073
  246SOL     OW  793   4.291   0.638   2.688
  246SOL    HW1  794   4.335   0.703   2.632
  246SOL    HW2  795   4.227   0.597   2.630
  247SOL     OW  796   4.716   0.500   2.001
  247SOL    HW1  797   4.746   0.410   1.988
  247SOL    HW2  798   4.703   0.508   2.096
  248SOL     OW  799   4.072   3.110   3.447
  248SOL    HW1  800   4.148   3.083   3.498
  248SOL    HW2  801   4.045   3.193   3.486
  249SOL     OW  802   3.031   4.240   3.012
  249SOL    HW1  803   2.974   4.184   3.064
  249SOL    HW2  804   3.119   4.215   3.037
  250SOL     OW  805   2.939   0.468   4.943
  250SOL    HW1  806   2.889   0.544   4.975
  250SOL    HW2  807   2.878   0.424   4.884
  251SOL     OW  808   0.025   4.322   3.745
  251SOL    HW1  809   0.018   4.300   3.652
  251SOL    HW2  810   0.075   4.249   3.783
  252SOL     OW  811   4.407   2.304   1.482
  252SOL    HW1  812   4.502   2.295   1.496
  252SOL    HW2  813   4.398   2.324   1.389
  253SOL     OW  814   3.514   3.319   1.083
  253SOL    HW1  815   3.461   3.397   1.098
  253SOL    HW2  816   3.562   3.339   1.002
  254SOL     OW  817   1.905   2.999   4.419
  254SOL    HW1  818   1.962   2.959   4.484
  254SOL    HW2  819   1.876   3.081   4.459
  255SOL     OW  820   1.318   4.005   0.331
  255SOL    HW1  821   1.308   3.918   0.371
  255SOL    HW2  822   1.244   4.056   0.364
  256SOL     OW  823   2.865   0.902   0.526
  256SOL    HW1  824   2.804   0.936   0.460
  256SOL    HW2  825   2.933   0.858   0.475
  257SOL     OW  826   4.391   2.551   4.374
  257SOL    HW1  827   4.442   2.615   4.325
  257SOL    HW2  828   4.398   2.578   4.465
  258SOL     OW  829   0.735   2.009   2.664
  258SOL    HW1  830   0.718   2.085   2.720
  258SOL    HW2  831   0.821   1.978   2.692
  259SOL     OW  832   1.239   0.323   3.038
  259SOL    HW1  833   1.260   0.361   3.123
  259SOL    HW2  834   1.251   0.229   3.051
  260SOL     OW  835   1.187   4.449   3.849
  260SOL    HW1  836   1.181   4.387   3.776
  260SOL    HW2  837   1.248   4.408   3.911
  261SOL     OW  838   3.771   3.230   1.582
  261SOL    HW1  839   3.817   3.147   1.570
  261SOL    HW2  840   3.769   3.243   1.677
  262SOL     OW  841   4.813   4.561   3.684
  262SOL    HW1  842   4.831   4.482   3.734
  262SOL    HW2  843   4.805   4.531   3.593
  263SOL     OW  844   2.727   2.567   3.494
  263SOL    HW1  845   2.754   2.476   3.483
  263SOL    HW2  846   2.802   2.609   3.534
  264SOL     OW  847   2.589   1.417   3.836
  264SOL    HW1  848   2.592   1.383   3.747
  264SOL    HW2  849   2.678   1.448   3.852
  265SOL     OW  850   3.247   0.907   4.169
  265SOL    HW1  851   3.235   0.928   4.076
  265SOL    HW2  852   3.171   0.854   4.191
  266SOL     OW  853   4.174   0.458   1.903
  266SOL    HW1  854   4.229   0.392   1.861
  266SOL    HW2  855   4.147   0.419   1.986
  267SOL     OW  856   2.698   4.044   3.777
  267SOL    HW1  857   2.695   3.949   3.791
  267SOL    HW2  858   2.784   4.070   3.810
  268SOL     OW  859   1.806   3.710   2.020
  268SOL    HW1  860   1.892   3.748   2.039
  268SOL    HW2  861   1.744   3.778   2.045
  269SOL     OW  862   2.094   0.675   2.753
  269SOL    HW1  863   2.111   0.666   2.659
  269SOL    HW2  864   2.152   0.747   2.780
  270SOL     OW  865   2.109   0.438   0.769
  270SOL    HW1  866   2.165   0.369   0.804
  270SOL    HW2  867   2.169   0.497   0.722
  271SOL     OW  868   2.422   2.196   0.924
  271SOL    HW1  869   2.471   2.202   1.006
  271SOL    HW2  870   2.356   2.265   0.930
  272SOL     OW  871   0.837   2.130   4.966
  272SOL    HW1  872   0.892   2.052   4.957
  272SOL    HW2  873   0.764   2.115   4.906
  273SOL     OW  874   3.526   4.883   2.419
  273SOL    HW1  875   3.471   4.861   2.494
  273SOL    HW2  876   3.522   4.806   2.362
  274SOL     OW  877   2.435   2.481   0.320
  274SOL    HW1  878   2.390   2.518   0.245
  274SOL    HW2  879   2.366   2.439   0.371
  275SOL     OW  880   2.677   1.058   3.087
  275SOL    HW1  881   2.681   0.992   3.018
  275SOL    HW2  882   2.766   1.093   3.092
  276SOL     OW  883   0.965   4.958   4.159
  276SOL    HW1  884   0.971   4.933   4.067
  276SOL    HW2  885   0.947   0.072   4.158
  277SOL     OW  886   4.287   2.512   0.542
  277SOL    HW1  887   4.361   2.532   0.599
  277SOL    HW2  888   4.215   2.563   0.578
  278SOL     OW  889   4.041   4.488   2.699
  278SOL    HW1  890   4.033   4.576   2.734
  278SOL    HW2  891   4.029   4.430   2.774
  279SOL     OW  892   0.991   4.528   3.495
  279SOL    HW1  893   0.943   4.459   3.541
  279SOL    HW2  894   0.953   4.610   3.528
  280SOL     OW  895   1.081   1.973   0.486
  280SOL    HW1  896   1.109   1.882   0.476
  280SOL    HW2  897   1.139   2.010   0.553
  281SOL     OW  898   3.271   2.020   3.947
  281SOL    HW1  899   3.260   1.945   3.888
  281SOL    HW2  900   3.352   2.062   3.918
  282SOL     OW  901   1.918   2.514   3.989
  282SOL    HW1  902   1.861   2.438   4.002
  282SOL    HW2  903   1.999   2.477   3.956
  283SOL     OW  904   2.639   1.315   4.309
  283SOL    HW1  905   2.731   1.340   4.320
  283SOL    HW2  906   2.638   1.265   4.227
  284SOL     OW  907   1.806   2.007   0.919
  284SOL    HW1  908   1.826   2.099   0.934
  284SOL    HW2  909   1.770   2.004   0.831
  285SOL     OW  910   0.649   0.396   1.422
  285SOL    HW1  911   0.599   0.380   1.343
  285SOL    HW2  912   0.711   0.465   1.398
  286SOL     OW  913   3.323   4.365   0.935
  286SOL    HW1  914   3.313   4.423   0.859
  286SOL    HW2  915   3.242   4.314   0.938
  287SOL     OW  916   4.162   3.693   4.498
  287SOL    HW1  917   4.141   3.762   4.435
  287SOL    HW2  918   4.188   3.740   4.577
  288SOL     OW  919   0.458   0.427   0.197
  288SOL    HW1  920   0.454   0.479   0.277
  288SOL    HW2  921   0.389   0.463   0.141
  289SOL     OW  922   3.247   1.309   4.727
  289SOL    HW1  923   3.335   1.284   4.697
  289SOL    HW2  924   3.191   1.237   4.699
  290SOL     OW  925   1.489   1.047   1.321
  290SOL    HW1  926   1.491   0.953   1.306
  290SOL    HW2  927   1.581   1.071   1.335
  291SOL     OW  928   4.622   0.567   3.941
  291SOL    HW1  929   4.635   0.591   3.849
  291SOL    HW2  930   4.672   0.487   3.952
  292SOL     OW  931   0.774   3.883   0.081
  292SOL    HW1  932   0.853   3.832   0.068
  292SOL    HW2  933   0.745   3.906   4.972
  293SOL     OW  934   1.893   1.050   1.747
  293SOL    HW1  935   1.802   1.038   1.776
  293SOL    HW2  936   1.906   1.145   1.750
  294SOL     OW  937   3.127   4.615   1.212
  294SOL    HW1  938   3.064   4.549   1.185
  294SOL    HW2  939   3.209   4.588   1.170
  295SOL     OW  940   3.844   4.507   0.005
  295SOL    HW1  941   3.905   4.574   4.954
  295SOL    HW2  942   3.823   4.455   4.907
  296SOL     OW  943   2.666   4.605   3.038
  296SOL    HW1  944   2.602   4.632   2.971
  296SOL    HW2  945   2.714   4.534   2.997
  297SOL     OW  946   1.065   0.643   1.043
  297SOL    HW1  947   1.098   0.625   0.955
  297SOL    HW2  948   0.993   0.705   1.030
  298SOL     OW  949   2.847   0.559   3.853
  298SOL    HW1  950   2.770   0.604   3.817
  298SOL    HW2  951   2.920   0.591   3.801
  299SOL     OW  952   1.268   0.257   1.478
  299SOL    HW1  953   1.237   0.245   1.567
  299SOL    HW2  954   1.304   0.172   1.453
  300SOL     OW  955   2.300   2.265   3.046
  300SOL    HW1  956   2.333   2.178   3.021
  300SOL    HW2  957   2.358   2.294   3.116
  301SOL     OW  958   4.454   0.477   2.157
  301SOL    HW1  959   4.436   0.384   2.141
  301SOL    HW2  960   4.549   0.481   2.167
  302SOL     OW  961   4.313   0.353   1.336
  302SOL    HW1  962   4.339   0.402   1.258
  302SOL    HW2  963   4.249   0.410   1.379
  303SOL     OW  964   0.955   2.084   3.593
  303SOL    HW1  965   0.866   2.116   3.574
  303SOL    HW2  966   0.981   2.131   3.673
  304SOL     OW  967   0.786   1.163   0.952
  304SOL    HW1  968   0.760   1.203   1.036
  304SOL    HW2  969   0.881   1.176   0.949
  305SOL     OW  970   4.638   0.103   1.840
  305SOL    HW1  971   4.662   0.093   1.748
  305SOL    HW2  972   4.543   0.087   1.841
  306SOL     OW  973   4.537   1.264   0.439
  306SOL    HW1  974   4.616   1.283   0.389
  306SOL    HW2  975   4.568   1.218   0.517
  307SOL     OW  976   4.812   1.821   3.068
  307SOL    HW1  977   4.835   1.797   3.158
  307SOL    HW2  978   4.871   1.893   3.046
  308SOL     OW  979   3.946   3.369   4.203
  308SOL    HW1  980   3.962   3.275   4.191
  308SOL    HW2  981   3.980   3.388   4.290
  309SOL     OW  982   1.085   1.437   0.305
  309SOL    HW1  983   1.158   1.405   0.253
  309SOL    HW2  984   1.056   1.361   0.355
  310SOL     OW  985   1.492   2.834   3.533
  310SOL    HW1  986   1.416   2.864   3.581
  310SOL    HW2  987   1.566   2.848   3.592
  311SOL     OW  988   0.491   0.360   3.388
  311SOL    HW1  989   0.410   0.314   3.408
  311SOL    HW2  990   0.552   0.332   3.456
  312SOL     OW  991   4.667   2.252   0.959
  312SOL    HW1  992   4.638   2.162   0.976
  312SOL    HW2  993   4.702   2.250   0.869
  313SOL     OW  994   3.262   0.459   2.776
  313SOL    HW1  995   3.181   0.508   2.768
  313SOL    HW2  996   3.240   0.386   2.835
  314SOL     OW  997   2.244   0.703   0.566
  314SOL    HW1  998   2.285   0.662   0.641
  314SOL    HW2  999   2.252   0.638   0.495
  315SOL     OW 1000   4.210   0.743   0.482
  315SOL    HW1 1001   4.215   0.705   0.570
  315SOL    HW2 1002   4.297   0.780   0.467
  316SOL     OW 1003   1.636   2.753   2.636
  316SOL    HW1 1004   1.687   2.677   2.663
  316SOL    HW2 1005   1.573   2.766   2.707
  317SOL     OW 1006   1.099   4.274   1.185
  317SOL    HW1 1007   1.089   4.229   1.101
  317SOL    HW2 1008   1.038   4.347   1.180
  318SOL     OW 1009   2.761   3.145   3.115
  318SOL    HW1 1010   2.697   3.176   3.180
  318SOL    HW2 1011   2.728   3.179   3.031
  319SOL     OW 1012   1.680   4.631   2.532
  319SOL    HW1 1013   1.769   4.645   2.564
  319SOL    HW2 1014   1.624   4.678   2.594
  320SOL     OW 1015   1.170   3.500   4.526
  320SOL    HW1 1016   1.094   3.481   4.580
  320SOL    HW2 1017   1.136   3.557   4.457
  321SOL     OW 1018   1.783   2.425   2.435
  321SOL    HW1 1019   1.694   2.389   2.432
  321SOL    HW2 1020   1.801   2.450   2.345
  322SOL     OW 1021   1.266   1.042   2.144
  322SOL    HW1 1022   1.324   1.023   2.218
  322SOL    HW2 1023   1.239   0.956   2.113
  323SOL     OW 1024   2.793   1.638   3.842
  323SOL    HW1 1025   2.884   1.636   3.869
  323SOL    HW2 1026   2.757   1.717   3.882
  324SOL     OW 1027   4.480   3.156   2.131
  324SOL    HW1 1028   4.523   3.227   2.085
  324SOL    HW2 1029   4.403   3.196   2.171
  325SOL     OW 1030   2.836   0.838   2.708
  325SOL    HW1 1031   2.811   0.925   2.677
  325SOL    HW2 1032   2.910   0.854   2.767
  326SOL     OW 1033   0.321   1.994   0.473
  326SOL    HW1 1034   0.408   1.957   0.461
  326SOL    HW2 1035   0.334   2.068   0.533
  327SOL     OW 1036   0.072   4.010   4.486
  327SOL    HW1 1037   0.132   3.942   4.457
  327SOL    HW2 1038   0.003   4.012   4.420
  328SOL     OW 1039   0.450   4.727   0.535
  328SOL    HW1 1040   0.496   4.808   0.557
  328SOL    HW2 1041   0.514   4.675   0.487
  329SOL     OW 1042   0.445   4.715   1.812
  329SOL    HW1 1043   0.540   4.719   1.816
  329SOL    HW2 1044   0.420   4.784   1.751
  330SOL     OW 1045   1.445   3.308   1.509
  330SOL    HW1 1046   1.382   3.255   1.558
  330SOL    HW2 1047   1.520   3.250   1.496
  331SOL     OW 1048   4.734   0.025   1.278
  331SOL    HW1 1049   4.816   0.025   1.327
  331SOL    HW2 1050   4.713   0.118   1.268
  332SOL     OW 1051   4.067   2.761   3.478
  332SOL    HW1 1052   3.973   2.746   3.487
  332SOL    HW2 1053   4.074   2.853   3.451
  333SOL     OW 1054   0.588   1.485   0.920
  333SOL    HW1 1055   0.549   1.559   0.967
  333SOL    HW2 1056   0.597   1.516   0.830
  334SOL     OW 1057   3.540   4.336   0.210
  334SOL    HW1 1058   3.612   4.275   0.196
  334SOL    HW2 1059   3.579   4.423   0.201
  335SOL     OW 1060   0.453   2.868   0.174
  335SOL    HW1 1061   0.525   2.809   0.194
  335SOL    HW2 1062   0.495   2.950   0.148
  336SOL     OW 1063   2.198   4.431   0.922
  336SOL    HW1 1064   2.223   4.509   0.872
  336SOL    HW2 1065   2.196   4.461   1.013
  337SOL     OW 1066   3.725   4.647   2.909
  337SOL    HW1 1067   3.668   4.620   2.837
  337SOL    HW2 1068   3.809   4.665   2.867
  338SOL     OW 1069   0.569   3.648   2.602
  338SOL    HW1 1070   0.503   3.695   2.551
  338SOL    HW2 1071   0.577   3.698   2.683
  339SOL     OW 1072   1.033   1.237   1.552
  339SOL    HW1 1073   1.094   1.191   1.495
  339SOL    HW2 1074   1.053   1.330   1.540
  340SOL     OW 1075   3.031   2.046   2.355
  340SOL    HW1 1076   3.112   2.011   2.319
  340SOL    HW2 1077   3.012   1.991   2.431
  341SOL     OW 1078   2.275   2.382   0.712
  341SOL    HW1 1079   2.346   2.320   0.723
  341SOL    HW2 1080   2.238   2.361   0.626
  342SOL     OW 1081   4.329   1.874   1.440
  342SOL    HW1 1082   4.261   1.941   1.432
  342SOL    HW2 1083   4.406   1.922   1.471
  343SOL     OW 1084   0.179   4.090   3.836
  343SOL    HW1 1085   0.188   4.018   3.774
  343SOL    HW2 1086   0.102   4.066   3.889
  344SOL     OW 1087   3.738   1.184   1.362
  344SOL    HW1 1088   3.680   1.115   1.393
  344SOL    HW2 1089   3.698   1.214   1.280
  345SOL     OW 1090   0.012   2.856   3.295
  345SOL    HW1 1091   4.916   2.895   3.252
  345SOL    HW2 1092   4.958   2.821   3.377
  346SOL     OW 1093   1.727   2.516   2.737
  346SOL    HW1 1094   1.683   2.469   2.808
  346SOL    HW2 1095   1.719   2.458   2.661
  347SOL     OW 1096   3.004   0.957   2.908
  347SOL    HW1 1097   3.030   0.938   2.998
  347SOL    HW2 1098   2.951   1.037   2.915
  348SOL     OW 1099   0.431   0.631   4.370
  348SOL    HW1 1100   0.481   0.646   4.450
  348SOL    HW2 1101   0.355   0.689   4.377
  349SOL     OW 1102   4.536   3.234   2.641
  349SOL    HW1 1103   4.550   3.217   2.548
  349SOL    HW2 1104   4.621   3.222   2.681
  350SOL     OW 1105   2.416   3.579   1.605
  350SOL    HW1 1106   2.344   3.601   1.547
  350SOL    HW2 1107   2.406   3.484   1.620
  351SOL     OW 1108   0.653   2.243   1.000
  351SOL    HW1 1109   0.735   2.290   0.985
  351SOL    HW2 1110   0.662   2.163   0.948
  352SOL     OW 1111   3.154   1.227   3.323
  352SOL    HW1 1112   3.184   1.249   3.411
  352SOL    HW2 1113   3.228   1.182   3.283
  353SOL     OW 1114   2.362   3.014   0.493
  353SOL    HW1 1115   2.269   3.013   0.516
  353SOL    HW2 1116   2.400   2.942   0.544
  354SOL     OW 1117   0.130   3.318   0.360
  354SOL    HW1 1118   0.088   3.404   0.349
  354SOL    HW2 1119   0.132   3.304   0.454
  355SOL     OW 1120   3.219   2.215   0.201
  355SOL    HW1 1121   3.214   2.218   0.297
  355SOL    HW2 1122   3.158   2.283   0.172
  356SOL     OW 1123   0.607   2.916   4.199
  356SOL    HW1 1124   0.615   2.966   4.281
  356SOL    HW2 1125   0.664   2.963   4.138
  357SOL     OW 1126   1.448   0.053   4.826
  357SOL    HW1 1127   1.473   0.140   4.859
  357SOL    HW2 1128   1.512   4.974   4.866
  358SOL     OW 1129   3.180   2.067   1.774
  358SOL    HW1 1130   3.220   2.015   1.705
  358SOL    HW2 1131   3.251   2.084   1.836
  359SOL     OW 1132   1.374   3.294   1.089
  359SOL    HW1 1133   1.370   3.199   1.076
  359SOL    HW2 1134   1.459   3.309   1.131
  360SOL     OW 1135   0.909   0.867   1.024
  360SOL    HW1 1136   0.814   0.876   1.018
  360SOL    HW2 1137   0.938   0.859   0.933
  361SOL     OW 1138   0.896   2.877   3.645
  361SOL    HW1 1139   0.823   2.880   3.706
  361SOL    HW2 1140   0.961   2.937   3.682
  362SOL     OW 1141   1.579   1.359   1.388
  362SOL    HW1 1142   1.655   1.313   1.423
  362SOL    HW2 1143   1.611   1.448   1.372
  363SOL     OW 1144   1.122   1.383   1.879
  363SOL    HW1 1145   1.197   1.325   1.894
  363SOL    HW2 1146   1.156   1.454   1.826
  364SOL     OW 1147   3.936   4.124   0.352
  364SOL    HW1 1148   3.977   4.097   0.434
  364SOL    HW2 1149   3.946   4.219   0.351
  365SOL     OW 1150   2.116   3.610   0.527
  365SOL    HW1 1151   2.116   3.672   0.600
  365SOL    HW2 1152   2.116   3.666   0.449
  366SOL     OW 1153   2.558   1.018   4.589
  366SOL    HW1 1154   2.544   1.019   4.684
  366SOL    HW2 1155   2.626   0.952   4.576
  367SOL     OW 1156   4.069   3.048   2.842
  367SOL    HW1 1157   4.070   2.953   2.832
  367SOL    HW2 1158   4.161   3.075   2.833
  368SOL     OW 1159   4.778   3.906   0.843
  368SOL    HW1 1160   4.810   3.879   0.929
  368SOL    HW2 1161   4.770   4.001   0.849
  369SOL     OW 1162   4.196   0.294   0.079
  369SOL    HW1 1163   4.138   0.281   0.154
  369SOL    HW2 1164   4.143   0.341   0.015
  370SOL     OW 1165   1.302   2.106   0.617
  370SOL    HW1 1166   1.332   2.191   0.650
  370SOL    HW2 1167   1.306   2.115   0.522
  371SOL     OW 1168   1.012   3.408   1.135
  371SOL    HW1 1169   0.963   3.391   1.055
  371SOL    HW2 1170   1.097   3.441   1.104
  372SOL     OW 1171   3.922   4.193   4.104
  372SOL    HW1 1172   3.860   4.157   4.167
  372SOL    HW2 1173   3.867   4.233   4.036
  373SOL     OW 1174   0.546   4.628   3.784
  373SOL    HW1 1175   0.602   4.700   3.753
  373SOL    HW2 1176   0.520   4.655   3.872
  374SOL     OW 1177   4.896   3.356   4.734
  374SOL    HW1 1178   4.836   3.282   4.743
  374SOL    HW2 1179   4.881   3.389   4.646
  375SOL     OW 1180   4.331   4.154   0.134
  375SOL    HW1 1181   4.354   4.126   0.223
  375SOL    HW2 1182   4.415   4.161   0.089
  376SOL     OW 1183   0.286   4.803   3.581
  376SOL    HW1 1184   0.330   4.853   3.650
  376SOL    HW2 1185   0.314   4.846   3.500
  377SOL     OW 1186   0.940   2.526   2.211
  377SOL    HW1 1187   0.928   2.441   2.252
  377SOL    HW2 1188   0.854   2.547   2.175
  378SOL     OW 1189   2.251   1.261   4.725
  378SOL    HW1 1190   2.259   1.322   4.651
  378SOL    HW2 1191   2.159   1.265   4.750
  379SOL     OW 1192   1.202   1.750   0.791
  379SOL    HW1 1193   1.171   1.674   0.742
  379SOL    HW2 1194   1.180   1.731   0.882
  380SOL     OW 1195   1.283   2.596   3.318
  380SOL    HW1 1196   1.344   2.608   3.245
  380SOL    HW2 1197   1.241   2.511   3.301
  381SOL     OW 1198   4.304   2.904   0.607
  381SOL    HW1 1199   4.326   2.996   0.623
  381SOL    HW2 1200   4.260   2.876   0.687
  382SOL     OW 1201   2.954   3.436   0.287
  382SOL    HW1 1202   2.944   3.531   0.286
  382SOL    HW2 1203   2.884   3.405   0.344
  383SOL     OW 1204   0.211   4.322   0.136
  383SOL    HW1 1205   0.290   4.346   0.089
  383SOL    HW2 1206   0.188   4.236   0.102
  384SOL     OW 1207   4.090   4.744   0.206
  384SOL    HW1 1208   4.030   4.818   0.196
  384SOL    HW2 1209   4.176   4.780   0.182
  385SOL     OW 1210   2.697   1.413   0.137
  385SOL    HW1 1211   2.721   1.322   0.150
  385SOL    HW2 1212   2.604   1.417   0.161
  386SOL     OW 1213   1.694   3.173   1.393
  386SOL    HW1 1214   1.688   3.083   1.359
  386SOL    HW2 1215   1.720   3.162   1.485
  387SOL     OW 1216   3.219   2.009   4.593
  387SOL    HW1 1217   3.257   2.070   4.530
  387SOL    HW2 1218   3.150   2.060   4.636
  388SOL     OW 1219   2.232   4.157   4.442
  388SOL    HW1 1220   2.270   4.069   4.447
  388SOL    HW2 1221   2.176   4.163   4.520
  389SOL     OW 1222   3.958   4.722   4.870
  389SOL    HW1 1223   3.870   4.751   4.845
  389SOL    HW2 1224   3.995   4.796   4.918
  390SOL     OW 1225   1.258   0.219   2.153
  390SOL    HW1 1226   1.177   0.240   2.107
  390SOL    HW2 1227   1.245   0.251   2.242
  391SOL     OW 1228   2.420   0.347   4.674
  391SOL    HW1 1229   2.451   0.405   4.604
  391SOL    HW2 1230   2.474   0.268   4.666
  392SOL     OW 1231   4.464   2.060   0.910
  392SOL    HW1 1232   4.376   2.023   0.902
  392SOL    HW2 1233   4.522   1.987   0.890
  393SOL     OW 1234   2.292   0.178   0.658
  393SOL    HW1 1235   2.203   0.176   0.622
  393SOL    HW2 1236   2.339   0.242   0.605
  394SOL     OW 1237   1.023   0.530   4.116
  394SOL    HW1 1238   0.978   0.537   4.201
  394SOL    HW2 1239   1.098   0.473   4.133
  395SOL     OW 1240   0.658   0.570   2.668
  395SOL    HW1 1241   0.753   0.578   2.657
  395SOL    HW2 1242   0.628   0.523   2.591
  396SOL     OW 1243   0.147   2.662   3.969
  396SOL    HW1 1244   0.167   2.611   3.891
  396SOL    HW2 1245   0.170   2.752   3.946
  397SOL     OW 1246   4.303   4.264   2.157
  397SOL    HW1 1247   4.379   4.208   2.174
  397SOL    HW2 1248   4.309   4.285   2.064
  398SOL     OW 1249   4.323   4.188   1.675
  398SOL    HW1 1250   4.254   4.139   1.630
  398SOL    HW2 1251   4.370   4.233   1.606
  399SOL     OW 1252   3.329   1.096   2.776
  399SOL    HW1 1253   3.251   1.131   2.818
  399SOL    HW2 1254   3.387   1.171   2.765
  400SOL     OW 1255   0.146   3.868   3.034
  400SOL    HW1 1256   0.072   3.926   3.047
  400SOL    HW2 1257   0.146   3.850   2.940
  401SOL     OW 1258   3.476   2.688   4.195
  401SOL    HW1 1259   3.496   2.724   4.108
  401SOL    HW2 1260   3.500   2.596   4.188
  402SOL     OW 1261   0.754   1.347   3.675
  402SOL    HW1 1262   0.711   1.411   3.730
  402SOL    HW2 1263   0.828   1.316   3.727
  403SOL     OW 1264   3.594   0.892   2.221
  403SOL    HW1 1265   3.686   0.888   2.194
  403SOL    HW2 1266   3.547   0.840   2.157
  404SOL     OW 1267   0.873   0.888   0.580
  404SOL    HW1 1268   0.854   0.978   0.607
  404SOL    HW2 1269   0.828   0.878   0.496
  405SOL     OW 1270   0.150   0.481   2.958
  405SOL    HW1 1271   0.058   0.485   2.931
  405SOL    HW2 1272   0.147   0.460   3.051
  406SOL     OW 1273   4.691   2.284   3.179
  406SOL    HW1 1274   4.750   2.223   3.223
  406SOL    HW2 1275   4.673   2.243   3.094
  407SOL     OW 1276   0.674   0.131   3.877
  407SOL    HW1 1277   0.640   0.102   3.793
  407SOL    HW2 1278   0.664   0.226   3.875
  408SOL     OW 1279   2.582   1.007   2.208
  408SOL    HW1 1280   2.642   1.075   2.179
  408SOL    HW2 1281   2.571   1.023   2.302
  409SOL     OW 1282   1.026   1.467   2.112
  409SOL    HW1 1283   1.070   1.437   2.033
  409SOL    HW2 1284   0.933   1.452   2.095
  410SOL     OW 1285   0.705   2.880   2.524
  410SOL    HW1 1286   0.764   2.885   2.449
  410SOL    HW2 1287   0.645   2.954   2.512
  411SOL     OW 1288   0.328   0.499   3.971
  411SOL    HW1 1289   0.298   0.571   3.915
  411SOL    HW2 1290   0.423   0.507   3.972
  412SOL     OW 1291   3.377   1.960   2.510
  412SOL    HW1 1292   3.379   2.020   2.585
  412SOL    HW2 1293   3.289   1.923   2.511
  413SOL     OW 1294   1.636   2.593   4.355
  413SOL    HW1 1295   1.707   2.629   4.301
  413SOL    HW2 1296   1.620   2.660   4.422
  414SOL     OW 1297   1.138   0.970   1.127
  414SOL    HW1 1298   1.181   0.893   1.163
  414SOL    HW2 1299   1.048   0.942   1.109
  415SOL     OW 1300   4.724   1.460   2.309
  415SOL    HW1 1301   4.665   1.506   2.249
  415SOL    HW2 1302   4.684   1.469   2.395
  416SOL     OW 1303   0.335   1.720   1.983
  416SOL    HW1 1304   0.386   1.725   2.064
  416SOL    HW2 1305   0.353   1.804   1.939
  417SOL     OW 1306   4.848   0.002   4.787
  417SOL    HW1 1307   4.855   4.938   4.703
  417SOL    HW2 1308   4.928   0.055   4.794
  418SOL     OW 1309   4.547   4.216   3.220
  418SOL    HW1 1310   4.564   4.226   3.127
  418SOL    HW2 1311   4.461   4.254   3.233
  419SOL     OW 1312   0.654   4.416   1.794
  419SOL    HW1 1313   0.661   4.510   1.810
  419SOL    HW2 1314   0.727   4.378   1.844
  420SOL     OW 1315   3.537   3.839   0.916
  420SOL    HW1 1316   3.556   3.847   0.822
  420SOL    HW2 1317   3.463   3.898   0.931
  421SOL     OW 1318   4.438   1.695   4.753
  421SOL    HW1 1319   4.515   1.719   4.805
  421SOL    HW2 1320   4.364   1.734   4.801
  422SOL     OW 1321   0.234   3.656   3.215
  422SOL    HW1 1322   0.172   3.651   3.288
  422SOL    HW2 1323   0.198   3.722   3.157
  423SOL     OW 1324   4.090   1.673   2.251
  423SOL    HW1 1325   4.108   1.615   2.325
  423SOL    HW2 1326   4.176   1.691   2.214
  424SOL     OW 1327   3.426   2.727   3.485
  424SOL    HW1 1328   3.371   2.777   3.546
  424SOL    HW2 1329   3.421   2.637   3.518
  425SOL     OW 1330   2.003   4.503   2.329
  425SOL    HW1 1331   1.949   4.582   2.322
  425SOL    HW2 1332   1.944   4.432   2.304
  426SOL     OW 1333   0.726   4.386   2.431
  426SOL    HW1 1334   0.672   4.340   2.366
  426SOL    HW2 1335   0.776   4.450   2.380
  427SOL     OW 1336   1.675   4.344   4.722
  427SOL    HW1 1337   1.602   4.405   4.724
  427SOL    HW2 1338   1.657   4.283   4.793
  428SOL     OW 1339   2.289   2.831   1.403
  428SOL    HW1 1340   2.368   2.876   1.373
  428SOL    HW2 1341   2.288   2.749   1.355
  429SOL     OW 1342   3.779   3.783   4.778
  429SOL    HW1 1343   3.786   3.759   4.686
  429SOL    HW2 1344   3.812   3.873   4.782
  430SOL     OW 1345   0.049   0.416   2.616
  430SOL    HW1 1346   0.133   0.371   2.625
  430SOL    HW2 1347   0.047   0.478   2.690
  431SOL     OW 1348   4.521   0.922   3.509
  431SOL    HW1 1349   4.474   1.000   3.538
  431SOL    HW2 1350   4.510   0.859   3.580
  432SOL     OW 1351   0.409   1.431   3.491
  432SOL    HW1 1352   0.461   1.352   3.476
  432SOL    HW2 1353   0.438   1.492   3.424
  433SOL     OW 1354   1.308   4.792   0.318
  433SOL    HW1 1355   1.239   4.824   0.259
  433SOL    HW2 1356   1.379   4.855   0.308
  434SOL     OW 1357   2.086   4.842   1.818
  434SOL    HW1 1358   2.042   4.787   1.753
  434SOL    HW2 1359   2.080   4.792   1.899
  435SOL     OW 1360   1.128   0.373   0.534
  435SOL    HW1 1361   1.198   0.433   0.508
  435SOL    HW2 1362   1.066   0.375   0.461
  436SOL     OW 1363   0.126   4.809   3.265
  436SOL    HW1 1364   0.136   4.856   3.182
  436SOL    HW2 1365   0.215   4.790   3.293
  437SOL     OW 1366   4.568   0.183   3.590
  437SOL    HW1 1367   4.581   0.198   3.684
  437SOL    HW2 1368   4.481   0.143   3.584
  438SOL     OW 1369   4.466   3.828   2.510
  438SOL    HW1 1370   4.382   3.825   2.464
  438SOL    HW2 1371   4.476   3.741   2.547
  439SOL     OW 1372   2.754   1.145   2.801
  439SOL    HW1 1373   2.752   1.240   2.816
  439SOL    HW2 1374   2.677   1.112   2.848
  440SOL     OW 1375   2.246   3.723   3.114
  440SOL    HW1 1376   2.299   3.661   3.065
  440SOL    HW2 1377   2.299   3.746   3.190
  441SOL     OW 1378   4.887   2.191   0.528
  441SOL    HW1 1379   4.842   2.242   0.462
  441SOL    HW2 1380   4.941   2.254   0.575
  442SOL     OW 1381   2.240   0.471   0.413
  442SOL    HW1 1382   2.307   0.403   0.425
  442SOL    HW2 1383   2.223   0.472   0.319
  443SOL     OW 1384   2.521   1.652   2.562
  443SOL    HW1 1385   2.434   1.628   2.529
  443SOL    HW2 1386   2.536   1.741   2.527
  444SOL     OW 1387   2.941   2.844   1.082
  444SOL    HW1 1388   2.917   2.921   1.030
  444SOL    HW2 1389   2.973   2.781   1.018
  445SOL     OW 1390   1.234   0.698   4.959
  445SOL    HW1 1391   1.144   0.668   4.946
  445SOL    HW2 1392   1.226   0.782   0.024
  446SOL     OW 1393   0.405   0.662   2.493
  446SOL    HW1 1394   0.381   0.588   2.437
  446SOL    HW2 1395   0.476   0.629   2.548
  447SOL     OW 1396   2.418   3.284   0.473
  447SOL    HW1 1397   2.423   3.188   0.478
  447SOL    HW2 1398   2.481   3.307   0.405
  448SOL     OW 1399   3.312   1.205   1.480
  448SOL    HW1 1400   3.361   1.284   1.456
  448SOL    HW2 1401   3.329   1.144   1.408
  449SOL     OW 1402   2.972   2.478   0.538
  449SOL    HW1 1403   3.006   2.543   0.599
  449SOL    HW2 1404   3.027   2.487   0.460
  450SOL     OW 1405   1.655   3.070   0.761
  450SOL    HW1 1406   1.577   3.085   0.814
  450SOL    HW2 1407   1.625   3.077   0.670
  451SOL     OW 1408   2.387   2.063   1.363
  451SOL    HW1 1409   2.382   1.976   1.323
  451SOL    HW2 1410   2.340   2.120   1.302
  452SOL     OW 1411   1.484   0.804   1.148
  452SOL    HW1 1412   1.400   0.758   1.148
  452SOL    HW2 1413   1.472   0.875   1.085
  453SOL     OW 1414   0.582   2.141   2.169
  453SOL    HW1 1415   0.664   2.093   2.169
  453SOL    HW2 1416   0.542   2.122   2.084
  454SOL     OW 1417   3.754   4.111   1.903
  454SOL    HW1 1418   3.800   4.038   1.864
  454SOL    HW2 1419   3.781   4.187   1.852
  455SOL     OW 1420   3.146   3.064   2.527
  455SOL    HW1 1421   3.133   2.977   2.489
  455SOL    HW2 1422   3.180   3.117   2.455
  456SOL     OW 1423   3.796   3.284   4.570
  456SOL    HW1 1424   3.775   3.335   4.491
  456SOL    HW2 1425   3.851   3.342   4.622
  457SOL     OW 1426   1.728   3.219   3.786
  457SOL    HW1 1427   1.756   3.186   3.701
  457SOL    HW2 1428   1.633   3.233   3.776
  458SOL     OW 1429   2.273   1.250   2.862
  458SOL    HW1 1430   2.224   1.218   2.787
  458SOL    HW2 1431   2.348   1.191   2.868
  459SOL     OW 1432   0.690   1.555   4.117
  459SOL    HW1 1433   0.699   1.477   4.172
  459SOL    HW2 1434   0.720   1.627   4.172
  460SOL     OW 1435   2.006   1.554   1.996
  460SOL    HW1 1436   2.038   1.466   1.976
  460SOL    HW2 1437   2.067   1.587   2.063
  461SOL     OW 1438   1.424   4.234   0.949
  461SOL    HW1 1439   1.362   4.211   0.879
  461SOL    HW2 1440   1.397   4.181   1.024
  462SOL     OW 1441   2.527   4.868   4.628
  462SOL    HW1 1442   2.463   4.801   4.602
  462SOL    HW2 1443   2.592   4.820   4.678
  463SOL     OW 1444   0.581   3.961   4.037
  463SOL    HW1 1445   0.529   4.004   3.969
  463SOL    HW2 1446   0.517   3.930   4.101
  464SOL     OW 1447   0.735   0.780   4.784
  464SOL    HW1 1448   0.678   0.850   4.814
  464SOL    HW2 1449   0.808   0.824   4.741
  465SOL     OW 1450   1.317   4.047   2.869
  465SOL    HW1 1451   1.307   4.132   2.828
  465SOL    HW2 1452   1.318   4.065   2.963
  466SOL     OW 1453   4.542   3.918   4.365
  466SOL    HW1 1454   4.483   3.843   4.350
  466SOL    HW2 1455   4.535   3.936   4.458
  467SOL     OW 1456   1.818   0.032   0.202
  467SOL    HW1 1457   1.820   0.019   0.297
  467SOL    HW2 1458   1.908   0.018   0.174
  468SOL     OW 1459   2.686   0.777   0.980
  468SOL    HW1 1460   2.597   0.803   1.007
  468SOL    HW2 1461   2.692   0.805   0.889
  469SOL     OW 1462   2.637   2.863   4.695
  469SOL    HW1 1463   2.690   2.833   4.769
  469SOL    HW2 1464   2.639   2.790   4.632
  470SOL     OW 1465   3.340   2.761   2.183
  470SOL    HW1 1466   3.359   2.687   2.125
  470SOL    HW2 1467   3.392   2.744   2.261
  471SOL     OW 1468   2.782   0.252   2.405
  471SOL    HW1 1469   2.689   0.262   2.422
  471SOL    HW2 1470   2.793   0.279   2.314
  472SOL     OW 1471   0.480   1.589   4.499
  472SOL    HW1 1472   0.487   1.645   4.577
  472SOL    HW2 1473   0.569   1.582   4.466
  473SOL     OW 1474   1.446   0.639   4.289
  473SOL    HW1 1475   1.475   0.715   4.238
  473SOL    HW2 1476   1.512   0.572   4.270
  474SOL     OW 1477   1.896   3.115   4.859
  474SOL    HW1 1478   1.901   3.173   4.935
  474SOL    HW2 1479   1.934   3.165   4.787
  475SOL     OW 1480   3.439   2.018   1.362
  475SOL    HW1 1481   3.401   1.931   1.379
  475SOL    HW2 1482   3.522   2.000   1.319
  476SOL     OW 1483   1.766   2.266   1.685
  476SOL    HW1 1484   1.677   2.293   1.667
  476SOL    HW2 1485   1.801   2.333   1.743
  477SOL     OW 1486   2.373   4.496   4.059
  477SOL    HW1 1487   2.464   4.474   4.082
  477SOL    HW2 1488   2.325   4.489   4.142
  478SOL     OW 1489   4.466   2.192   4.314
  478SOL    HW1 1490   4.543   2.142   4.339
  478SOL    HW2 1491   4.478   2.276   4.359
  479SOL     OW 1492   4.774   4.830   3.587
  479SOL    HW1 1493   4.692   4.783   3.569
  479SOL    HW2 1494   4.832   4.765   3.626
  480SOL     OW 1495   2.937   2.657   3.618
  480SOL    HW1 1496   2.942   2.739   3.667
  480SOL    HW2 1497   3.021   2.614   3.632
  481SOL     OW 1498   2.703   2.539   0.875
  481SOL    HW1 1499   2.691   2.504   0.786
  481SOL    HW2 1500   2.793   2.517   0.898
  482SOL     OW 1501   1.923   2.437   3.468
  482SOL    HW1 1502   1.875   2.482   3.536
  482SOL    HW2 1503   1.978   2.505   3.428
  483SOL     OW 1504   0.909   3.372   2.819
  483SOL    HW1 1505   0.877   3.399   2.733
  483SOL    HW2 1506   0.988   3.320   2.800
  484SOL     OW 1507   4.844   2.250   0.115
  484SOL    HW1 1508   4.853   2.268   0.208
  484SOL    HW2 1509   4.758   2.209   0.107
  485SOL     OW 1510   0.597   4.104   2.459
  485SOL    HW1 1511   0.593   4.157   2.379
  485SOL    HW2 1512   0.564   4.018   2.432
  486SOL     OW 1513   0.359   2.120   1.623
  486SOL    HW1 1514   0.445   2.143   1.589
  486SOL    HW2 1515   0.337   2.192   1.683
  487SOL     OW 1516   2.349   2.256   4.033
  487SOL    HW1 1517   2.416   2.238   3.966
  487SOL    HW2 1518   2.375   2.340   4.071
  488SOL     OW 1519   4.281   4.605   2.446
  488SOL    HW1 1520   4.283   4.510   2.457
  488SOL    HW2 1521   4.357   4.637   2.495
  489SOL     OW 1522   0.086   0.120   0.059
  489SOL    HW1 1523   0.052   0.172   0.133
  489SOL    HW2 1524   0.177   0.104   0.081
  490SOL     OW 1525   4.136   4.979   0.660
  490SOL    HW1 1526   4.209   4.925   0.633
  490SOL    HW2 1527   4.081   0.008   0.582
  491SOL     OW 1528   1.596   2.660   4.010
  491SOL    HW1 1529   1.507   2.695   4.002
  491SOL    HW2 1530   1.642   2.724   4.064
  492SOL     OW 1531   3.277   3.034   1.845
  492SOL    HW1 1532   3.260   2.964   1.782
  492SOL    HW2 1533   3.192   3.077   1.856
  493SOL     OW 1534   1.022   0.393   4.398
  493SOL    HW1 1535   0.956   0.330   4.426
  493SOL    HW2 1536   1.024   0.458   4.469
  494SOL     OW 1537   4.328   2.780   2.754
  494SOL    HW1 1538   4.261   2.811   2.694
  494SOL    HW2 1539   4.360   2.699   2.713
  495SOL     OW 1540   2.541   3.228   3.254
  495SOL    HW1 1541   2.513   3.167   3.321
  495SOL    HW2 1542   2.463   3.243   3.200
  496SOL     OW 1543   4.296   2.835   1.880
  496SOL    HW1 1544   4.206   2.866   1.880
  496SOL    HW2 1545   4.292   2.748   1.839
  497SOL     OW 1546   3.718   0.579   4.081
  497SOL    HW1 1547   3.807   0.546   4.077
  497SOL    HW2 1548   3.664   0.500   4.091
  498SOL     OW 1549   3.757   3.664   3.107
  498SOL    HW1 1550   3.850   3.654   3.086
  498SOL    HW2 1551   3.749   3.631   3.197
  499SOL     OW 1552   3.529   4.687   2.233
  499SOL    HW1 1553   3.505   4.627   2.163
  499SOL    HW2 1554   3.612   4.654   2.266
  500SOL     OW 1555   1.744   2.374   0.943
  500SOL    HW1 1556   1.774   2.357   1.032
  500SOL    HW2 1557   1.816   2.422   0.902
  501SOL     OW 1558   2.149   3.709   4.020
  501SOL    HW1 1559   2.181   3.799   4.018
  501SOL    HW2 1560   2.224   3.656   3.994
  502SOL     OW 1561   4.831   4.765   1.586
  502SOL    HW1 1562   4.907   4.713   1.613
  502SOL    HW2 1563   4.866   4.824   1.519
  503SOL     OW 1564   2.073   4.740   4.637
  503SOL    HW1 1565   2.039   4.651   4.633
  503SOL    HW2 1566   2.027   4.787   4.567
  504SOL     OW 1567   1.783   3.922   0.787
  504SOL    HW1 1568   1.783   3.829   0.766
  504SOL    HW2 1569   1.796   3.966   0.703
  505SOL     OW 1570   2.527   4.286   1.240
  505SOL    HW1 1571   2.451   4.237   1.208
  505SOL    HW2 1572   2.497   4.376   1.246
  506SOL     OW 1573   1.758   4.631   1.905
  506SOL    HW1 1574   1.752   4.547   1.859
  506SOL    HW2 1575   1.809   4.687   1.846
  507SOL     OW 1576   2.889   1.382   4.390
  507SOL    HW1 1577   2.954   1.392   4.320
  507SOL    HW2 1578   2.895   1.462   4.441
  508SOL     OW 1579   3.332   3.380   4.139
  508SOL    HW1 1580   3.244   3.345   4.130
  508SOL    HW2 1581   3.385   3.327   4.080
  509SOL     OW 1582   0.929   3.396   4.106
  509SOL    HW1 1583   0.870   3.424   4.176
  509SOL    HW2 1584   0.988   3.333   4.148
  510SOL     OW 1585   2.375   1.502   2.013
  510SOL    HW1 1586   2.319   1.429   1.986
  510SOL    HW2 1587   2.427   1.466   2.086
  511SOL     OW 1588   1.561   2.520   3.598
  511SOL    HW1 1589   1.575   2.583   3.527
  511SOL    HW2 1590   1.624   2.545   3.665
  512SOL     OW 1591   3.930   2.047   4.660
  512SOL    HW1 1592   4.005   2.084   4.613
  512SOL    HW2 1593   3.968   2.002   4.735
  513SOL     OW 1594   2.754   2.819   2.489
  513SOL    HW1 1595   2.671   2.867   2.486
  513SOL    HW2 1596   2.747   2.763   2.567
  514SOL     OW 1597   2.704   2.591   3.037
  514SOL    HW1 1598   2.746   2.672   3.064
  514SOL    HW2 1599   2.776   2.533   3.013
  515SOL     OW 1600   3.652   0.138   3.426
  515SOL    HW1 1601   3.558   0.129   3.407
  515SOL    HW2 1602   3.670   0.071   3.492
  516SOL     OW 1603   1.984   0.130   4.391
  516SOL    HW1 1604   2.054   0.191   4.414
  516SOL    HW2 1605   1.904   0.179   4.407
  517SOL     OW 1606   1.816   2.785   0.978
  517SOL    HW1 1607   1.873   2.794   1.054
  517SOL    HW2 1608   1.728   2.796   1.013
  518SOL     OW 1609   4.798   1.882   0.675
  518SOL    HW1 1610   4.747   1.869   0.755
  518SOL    HW2 1611   4.866   1.944   0.699
  519SOL     OW 1612   3.180   1.996   0.962
  519SOL    HW1 1613   3.091   1.984   0.995
  519SOL    HW2 1614   3.235   1.951   1.027
  520SOL     OW 1615   4.416   4.106   1.082
  520SOL    HW1 1616   4.463   4.164   1.142
  520SOL    HW2 1617   4.324   4.114   1.108
  521SOL     OW 1618   0.387   1.272   1.106
  521SOL    HW1 1619   0.439   1.331   1.051
  521SOL    HW2 1620   0.349   1.330   1.173
  522SOL     OW 1621   4.972   0.834   0.463
  522SOL    HW1 1622   4.963   0.811   0.555
  522SOL    HW2 1623   4.948   0.926   0.459
  523SOL     OW 1624   3.363   3.304   1.925
  523SOL    HW1 1625   3.420   3.227   1.922
  523SOL    HW2 1626   3.274   3.267   1.930
  524SOL     OW 1627   1.000   1.214   2.522
  524SOL    HW1 1628   0.914   1.173   2.510
  524SOL    HW2 1629   1.002   1.240   2.614
  525SOL     OW 1630   0.651   1.795   4.302
  525SOL    HW1 1631   0.564   1.832   4.287
  525SOL    HW2 1632   0.685   1.843   4.377
  526SOL     OW 1633   1.137   2.421   0.812
  526SOL    HW1 1634   1.155   2.511   0.838
  526SOL    HW2 1635   1.223   2.379   0.807
  527SOL     OW 1636   3.222   4.798   0.855
  527SOL    HW1 1637   3.267   4.842   0.783
  527SOL    HW2 1638   3.254   4.707   0.851
  528SOL     OW 1639   1.846   4.328   2.007
  528SOL    HW1 1640   1.772   4.358   2.059
  528SOL    HW2 1641   1.808   4.301   1.923
  529SOL     OW 1642   3.455   4.708   0.412
  529SOL    HW1 1643   3.537   4.714   0.363
  529SOL    HW2 1644   3.461   4.626   0.460
  530SOL     OW 1645   4.762   0.133   2.686
  530SOL    HW1 1646   4.838   0.151   2.742
  530SOL    HW2 1647   4.769   0.197   2.615
  531SOL     OW 1648   1.482   3.664   1.056
  531SOL    HW1 1649   1.507   3.745   1.011
  531SOL    HW2 1650   1.534   3.665   1.137
  532SOL     OW 1651   3.820   2.173   4.410
  532SOL    HW1 1652   3.783   2.160   4.498
  532SOL    HW2 1653   3.867   2.092   4.391
  533SOL     OW 1654   1.976   0.364   4.965
  533SOL    HW1 1655   2.055   0.408   4.934
  533SOL    HW2 1656   1.965   0.290   4.905
  534SOL     OW 1657   1.789   4.420   3.324
  534SOL    HW1 1658   1.818   4.329   3.329
  534SOL    HW2 1659   1.724   4.422   3.254
  535SOL     OW 1660   0.524   1.764   2.181
  535SOL    HW1 1661   0.581   1.802   2.115
  535SOL    HW2 1662   0.579   1.700   2.226
  536SOL     OW 1663   2.981   3.837   2.059
  536SOL    HW1 1664   3.021   3.862   1.975
  536SOL    HW2 1665   2.912   3.902   2.073
  537SOL     OW 1666   4.787   1.218   1.256
  537SOL    HW1 1667   4.846   1.170   1.315
  537SOL    HW2 1668   4.841   1.287   1.219
  538SOL     OW 1669   0.298   3.727   3.888
  538SOL    HW1 1670   0.231   3.787   3.854
  538SOL    HW2 1671   0.297   3.741   3.983
  539SOL     OW 1672   4.650   1.661   0.095
  539SOL    HW1 1673   4.642   1.722   0.168
  539SOL    HW2 1674   4.579   1.598   0.108
  540SOL     OW 1675   1.971   4.745   0.389
  540SOL    HW1 1676   1.980   4.760   0.295
  540SOL    HW2 1677   1.897   4.800   0.415
  541SOL     OW 1678   0.791   3.308   3.874
  541SOL    HW1 1679   0.773   3.225   3.918
  541SOL    HW2 1680   0.835   3.361   3.941
  542SOL     OW 1681   0.930   4.638   0.071
  542SOL    HW1 1682   0.861   4.686   0.026
  542SOL    HW2 1683   0.931   4.675   0.159
  543SOL     OW 1684   0.359   1.179   2.691
  543SOL    HW1 1685   0.310   1.203   2.612
  543SOL    HW2 1686   0.297   1.131   2.744
  544SOL     OW 1687   0.151   2.210   3.212
  544SOL    HW1 1688   0.205   2.268   3.158
  544SOL    HW2 1689   0.090   2.268   3.257
  545SOL     OW 1690   1.384   4.967   1.550
  545SOL    HW1 1691   1.421   4.881   1.530
  545SOL    HW2 1692   1.394   4.975   1.645
  546SOL     OW 1693   1.106   2.781   1.209
  546SOL    HW1 1694   1.122   2.753   1.299
  546SOL    HW2 1695   1.182   2.749   1.161
  547SOL     OW 1696   3.791   0.410   2.647
  547SOL    HW1 1697   3.794   0.381   2.556
  547SOL    HW2 1698   3.709   0.373   2.682
  548SOL     OW 1699   3.916   1.214   4.359
  548SOL    HW1 1700   3.975   1.286   4.336
  548SOL    HW2 1701   3.861   1.201   4.282
  549SOL     OW 1702   4.532   0.085   4.317
  549SOL    HW1 1703   4.447   0.125   4.297
  549SOL    HW2 1704   4.595   0.157   4.306
  550SOL     OW 1705   0.694   3.037   3.058
  550SOL    HW1 1706   0.735   3.102   3.115
  550SOL    HW2 1707   0.656   2.973   3.118
  551SOL     OW 1708   3.826   4.788   2.547
  551SOL    HW1 1709   3.757   4.843   2.585
  551SOL    HW2 1710   3.869   4.844   2.483
  552SOL     OW 1711   2.485   4.351   4.292
  552SOL    HW1 1712   2.438   4.268   4.297
  552SOL    HW2 1713   2.504   4.374   4.383
  553SOL     OW 1714   4.160   0.029   4.906
  553SOL    HW1 1715   4.180   0.121   4.920
  553SOL    HW2 1716   4.110   0.003   0.004
  554SOL     OW 1717   0.545   0.618   3.752
  554SOL    HW1 1718   0.579   0.664   3.675
  554SOL    HW2 1719   0.465   0.665   3.775
  555SOL     OW 1720   4.300   1.369   0.334
  555SOL    HW1 1721   4.381   1.351   0.380
  555SOL    HW2 1722   4.231   1.337   0.392
  556SOL     OW 1723   1.421   1.155   3.121
  556SOL    HW1 1724   1.396   1.076   3.169
  556SOL    HW2 1725   1.484   1.124   3.055
  557SOL     OW 1726   1.619   3.915   3.445
  557SOL    HW1 1727   1.541   3.861   3.438
  557SOL    HW2 1728   1.590   3.994   3.491
  558SOL     OW 1729   3.259   3.880   1.572
  558SOL    HW1 1730   3.276   3.903   1.663
  558SOL    HW2 1731   3.250   3.964   1.527
  559SOL     OW 1732   0.504   0.064   0.536
  559SOL    HW1 1733   0.562   0.123   0.584
  559SOL    HW2 1734   0.509   0.095   0.445
  560SOL     OW 1735   1.503   2.465   2.013
  560SOL    HW1 1736   1.483   2.404   1.942
  560SOL    HW2 1737   1.495   2.552   1.972
  561SOL     OW 1738   4.162   2.178   2.030
  561SOL    HW1 1739   4.174   2.273   2.034
  561SOL    HW2 1740   4.112   2.156   2.109
  562SOL     OW 1741   3.175   1.514   3.325
  562SOL    HW1 1742   3.173   1.424   3.293
  562SOL    HW2 1743   3.093   1.525   3.372
  563SOL     OW 1744   0.359   2.574   2.504
  563SOL    HW1 1745   0.367   2.656   2.553
  563SOL    HW2 1746   0.271   2.542   2.524
  564SOL     OW 1747   3.634   4.553   1.757
  564SOL    HW1 1748   3.728   4.548   1.738
  564SOL    HW2 1749   3.598   4.471   1.724
  565SOL     OW 1750   2.367   0.567   0.751
  565SOL    HW1 1751   2.334   0.594   0.837
  565SOL    HW2 1752   2.447   0.518   0.771
  566SOL     OW 1753   3.972   1.832   4.862
  566SOL    HW1 1754   3.937   1.743   4.865
  566SOL    HW2 1755   3.930   1.877   4.935
  567SOL     OW 1756   3.127   4.685   1.892
  567SOL    HW1 1757   3.045   4.716   1.854
  567SOL    HW2 1758   3.183   4.763   1.895
  568SOL     OW 1759   4.549   4.357   2.705
  568SOL    HW1 1760   4.569   4.450   2.722
  568SOL    HW2 1761   4.520   4.355   2.614
  569SOL     OW 1762   4.059   4.574   0.635
  569SOL    HW1 1763   4.101   4.658   0.617
  569SOL    HW2 1764   4.095   4.515   0.568
  570SOL     OW 1765   1.969   3.581   4.185
  570SOL    HW1 1766   2.033   3.634   4.137
  570SOL    HW2 1767   1.975   3.494   4.145
  571SOL     OW 1768   2.034   3.996   4.279
  571SOL    HW1 1769   2.049   4.045   4.199
  571SOL    HW2 1770   2.041   4.061   4.349
  572SOL     OW 1771   4.841   4.548   4.420
  572SOL    HW1 1772   4.762   4.594   4.391
  572SOL    HW2 1773   4.874   4.601   4.492
  573SOL     OW 1774   3.695   0.427   2.949
  573SOL    HW1 1775   3.610   0.470   2.950
  573SOL    HW2 1776   3.756   0.495   2.918
  574SOL     OW 1777   3.940   4.725   3.929
  574SOL    HW1 1778   3.917   4.650   3.983
  574SOL    HW2 1779   3.899   4.707   3.844
  575SOL     OW 1780   4.447   0.577   2.409
  575SOL    HW1 1781   4.426   0.670   2.409
  575SOL    HW2 1782   4.435   0.550   2.318
  576SOL     OW 1783   4.450   4.451   1.525
  576SOL    HW1 1784   4.373   4.460   1.469
  576SOL    HW2 1785   4.523   4.482   1.471
  577SOL     OW 1786   3.426   1.395   2.129
  577SOL    HW1 1787   3.438   1.302   2.111
  577SOL    HW2 1788   3.469   1.439   2.055
  578SOL     OW 1789   0.151   1.067   2.830
  578SOL    HW1 1790   0.079   1.062   2.767
  578SOL    HW2 1791   0.139   0.992   2.888
  579SOL     OW 1792   0.917   4.512   1.139
  579SOL    HW1 1793   0.921   4.596   1.185
  579SOL    HW2 1794   0.827   4.505   1.108
  580SOL     OW 1795   2.198   3.192   3.359
  580SOL    HW1 1796   2.217   3.162   3.448
  580SOL    HW2 1797   2.142   3.124   3.322
  581SOL     OW 1798   1.810   2.533   1.813
  581SOL    HW1 1799   1.897   2.542   1.850
  581SOL    HW2 1800   1.754   2.587   1.869
  582SOL     OW 1801   3.728   2.021   3.818
  582SOL    HW1 1802   3.811   2.033   3.864
  582SOL    HW2 1803   3.749   1.963   3.745
  583SOL     OW 1804   3.248   3.116   3.664
  583SOL    HW1 1805   3.321   3.148   3.612
  583SOL    HW2 1806   3.172   3.164   3.631
  584SOL     OW 1807   0.171   4.361   3.332
  584SOL    HW1 1808   0.153   4.454   3.341
  584SOL    HW2 1809   0.205   4.350   3.244
  585SOL     OW 1810   1.303   3.539   4.271
  585SOL    HW1 1811   1.394   3.561   4.254
  585SOL    HW2 1812   1.278   3.594   4.345
  586SOL     OW 1813   0.421   0.034   2.774
  586SOL    HW1 1814   0.397   4.929   2.737
  586SOL    HW2 1815   0.513   0.024   2.798
  587SOL     OW 1816   2.171   0.533   3.398
  587SOL    HW1 1817   2.201   0.624   3.390
  587SOL    HW2 1818   2.080   0.534   3.367
  588SOL     OW 1819   4.006   0.010   0.143
  588SOL    HW1 1820   4.028   0.092   0.188
  588SOL    HW2 1821   3.916   0.022   0.113
  589SOL     OW 1822   0.567   0.700   0.675
  589SOL    HW1 1823   0.526   0.710   0.589
  589SOL    HW2 1824   0.593   0.789   0.699
  590SOL     OW 1825   2.672   2.158   0.672
  590SOL    HW1 1826   2.763   2.168   0.702
  590SOL    HW2 1827   2.620   2.162   0.752
  591SOL     OW 1828   2.500   3.002   2.874
  591SOL    HW1 1829   2.549   3.045   2.804
  591SOL    HW2 1830   2.502   2.909   2.850
  592SOL     OW 1831   1.641   4.869   3.233
  592SOL    HW1 1832   1.695   4.790   3.227
  592SOL    HW2 1833   1.674   4.914   3.311
  593SOL     OW 1834   4.117   3.688   1.247
  593SOL    HW1 1835   4.129   3.618   1.311
  593SOL    HW2 1836   4.205   3.717   1.226
  594SOL     OW 1837   3.295   1.878   0.308
  594SOL    HW1 1838   3.220   1.891   0.365
  594SOL    HW2 1839   3.353   1.952   0.328
  595SOL     OW 1840   4.496   3.814   4.936
  595SOL    HW1 1841   4.552   3.865   4.878
  595SOL    HW2 1842   4.556   3.755   0.001
  596SOL     OW 1843   2.966   2.743   3.042
  596SOL    HW1 1844   3.049   2.783   3.065
  596SOL    HW2 1845   2.900   2.809   3.063
  597SOL     OW 1846   4.034   1.777   0.895
  597SOL    HW1 1847   4.061   1.727   0.973
  597SOL    HW2 1848   3.952   1.735   0.867
  598SOL     OW 1849   1.656   0.177   2.653
  598SOL    HW1 1850   1.658   0.270   2.632
  598SOL    HW2 1851   1.574   0.165   2.701
  599SOL     OW 1852   3.553   0.483   2.121
  599SOL    HW1 1853   3.624   0.511   2.179
  599SOL    HW2 1854   3.578   0.395   2.093
  600SOL     OW 1855   3.856   1.465   1.348
  600SOL    HW1 1856   3.844   1.372   1.368
  600SOL    HW2 1857   3.940   1.487   1.389
  601SOL     OW 1858   1.222   1.564   1.400
  601SOL    HW1 1859   1.258   1.494   1.346
  601SOL    HW2 1860   1.258   1.644   1.362
  602SOL     OW 1861   3.177   3.845   2.418
  602SOL    HW1 1862   3.226   3.892   2.351
  602SOL    HW2 1863   3.182   3.753   2.392
  603SOL     OW 1864   4.714   1.277   3.234
  603SOL    HW1 1865   4.728   1.372   3.235
  603SOL    HW2 1866   4.711   1.251   3.326
  604SOL     OW 1867   2.298   0.185   0.997
  604SOL    HW1 1868   2.339   0.189   0.911
  604SOL    HW2 1869   2.287   0.277   1.022
  605SOL     OW 1870   4.638   3.982   3.330
  605SOL    HW1 1871   4.691   4.019   3.401
  605SOL    HW2 1872   4.592   4.057   3.293
  606SOL     OW 1873   1.961   2.967   3.676
  606SOL    HW1 1874   2.007   2.883   3.686
  606SOL    HW2 1875   2.019   3.031   3.718
  607SOL     OW 1876   4.779   3.758   4.644
  607SOL    HW1 1877   4.747   3.766   4.555
  607SOL    HW2 1878   4.734   3.681   4.679
  608SOL     OW 1879   4.917   2.573   1.340
  608SOL    HW1 1880   4.916   2.496   1.283
  608SOL    HW2 1881   4.949   2.644   1.285
  609SOL     OW 1882   4.756   0.826   2.947
  609SOL    HW1 1883   4.702   0.802   3.022
  609SOL    HW2 1884   4.752   0.921   2.944
  610SOL     OW 1885   2.955   2.618   1.866
  610SOL    HW1 1886   2.863   2.614   1.842
  610SOL    HW2 1887   2.968   2.707   1.899
  611SOL     OW 1888   4.238   0.043   3.334
  611SOL    HW1 1889   4.265   0.130   3.304
  611SOL    HW2 1890   4.244   4.968   3.256
  612SOL     OW 1891   0.402   3.481   1.766
  612SOL    HW1 1892   0.360   3.415   1.712
  612SOL    HW2 1893   0.355   3.479   1.849
  613SOL     OW 1894   1.520   1.498   4.244
  613SOL    HW1 1895   1.537   1.528   4.333
  613SOL    HW2 1896   1.425   1.488   4.239
  614SOL     OW 1897   3.531   3.578   4.180
  614SOL    HW1 1898   3.523   3.648   4.115
  614SOL    HW2 1899   3.443   3.541   4.187
  615SOL     OW 1900   2.116   1.572   1.340
  615SOL    HW1 1901   2.103   1.662   1.310
  615SOL    HW2 1902   2.150   1.581   1.429
  616SOL     OW 1903   3.377   4.877   3.070
  616SOL    HW1 1904   3.359   4.796   3.022
  616SOL    HW2 1905   3.447   4.853   3.131
  617SOL     OW 1906   0.736   1.236   4.051
  617SOL    HW1 1907   0.781   1.155   4.026
  617SOL    HW2 1908   0.800   1.305   4.032
  618SOL     OW 1909   1.953   2.833   2.976
  618SOL    HW1 1910   1.935   2.747   2.938
  618SOL    HW2 1911   1.868   2.864   3.007
  619SOL     OW 1912   4.626   4.586   1.349
  619SOL    HW1 1913   4.644   4.662   1.294
  619SOL    HW2 1914   4.707   4.572   1.398
  620SOL     OW 1915   1.351   2.966   2.432
  620SOL    HW1 1916   1.382   2.875   2.430
  620SOL    HW2 1917   1.419   3.014   2.480
  621SOL     OW 1918   1.119   0.002   1.224
  621SOL    HW1 1919   1.114   0.029   1.316
  621SOL    HW2 1920   1.077   4.897   1.223
  622SOL     OW 1921   4.726   1.961   4.296
  622SOL    HW1 1922   4.671   1.927   4.225
  622SOL    HW2 1923   4.783   1.887   4.319
  623SOL     OW 1924   0.086   2.181   4.948
  623SOL    HW1 1925   0.055   2.197   4.859
  623SOL    HW2 1926   0.012   2.205   0.023
  624SOL     OW 1927   1.635   4.932   4.972
  624SOL    HW1 1928   1.668   4.963   0.076
  624SOL    HW2 1929   1.708   4.884   4.933
  625SOL     OW 1930   1.299   0.409   0.034
  625SOL    HW1 1931   1.258   0.495   0.031
  625SOL    HW2 1932   1.362   0.410   4.942
  626SOL     OW 1933   1.378   0.310   0.832
  626SOL    HW1 1934   1.290   0.333   0.860
  626SOL    HW2 1935   1.366   0.267   0.747
  627SOL     OW 1936   1.485   1.009   2.311
  627SOL    HW1 1937   1.494   1.097   2.348
  627SOL    HW2 1938   1.541   1.009   2.234
  628SOL     OW 1939   3.552   3.110   1.245
  628SOL    HW1 1940   3.512   3.155   1.320
  628SOL    HW2 1941   3.512   3.152   1.169
  629SOL     OW 1942   3.497   4.340   4.805
  629SOL    HW1 1943   3.527   4.256   4.840
  629SOL    HW2 1944   3.402   4.332   4.802
  630SOL     OW 1945   2.898   3.309   4.396
  630SOL    HW1 1946   2.808   3.283   4.374
  630SOL    HW2 1947   2.888   3.385   4.453
  631SOL     OW 1948   0.067   4.166   4.919
  631SOL    HW1 1949   0.110   4.104   4.861
  631SOL    HW2 1950   0.011   4.112   4.975
  632SOL     OW 1951   3.170   0.013   2.888
  632SOL    HW1 1952   3.231   4.964   2.956
  632SOL    HW2 1953   3.130   0.092   2.925
  633SOL     OW 1954   2.684   2.580   1.832
  633SOL    HW1 1955   2.683   2.536   1.748
  633SOL    HW2 1956   2.644   2.518   1.893
  634SOL     OW 1957   1.773   0.779   4.752
  634SOL    HW1 1958   1.739   0.699   4.793
  634SOL    HW2 1959   1.830   0.747   4.682
  635SOL     OW 1960   2.506   0.693   4.757
  635SOL    HW1 1961   2.449   0.762   4.790
  635SOL    HW2 1962   2.525   0.638   4.833
  636SOL     OW 1963   2.337   1.501   3.731
  636SOL    HW1 1964   2.381   1.527   3.812
  636SOL    HW2 1965   2.300   1.415   3.751
  637SOL     OW 1966   2.231   3.197   0.218
  637SOL    HW1 1967   2.218   3.161   0.306
  637SOL    HW2 1968   2.236   3.292   0.232
  638SOL     OW 1969   1.627   2.882   0.457
  638SOL    HW1 1970   1.668   2.877   0.371
  638SOL    HW2 1971   1.545   2.930   0.442
  639SOL     OW 1972   4.635   2.523   1.453
  639SOL    HW1 1973   4.602   2.577   1.525
  639SOL    HW2 1974   4.662   2.586   1.386
  640SOL     OW 1975   4.718   0.286   3.927
  640SOL    HW1 1976   4.761   0.213   3.883
  640SOL    HW2 1977   4.624   0.271   3.915
  641SOL     OW 1978   3.836   4.380   2.196
  641SOL    HW1 1979   3.810   4.439   2.267
  641SOL    HW2 1980   3.916   4.418   2.161
  642SOL     OW 1981   4.228   4.965   4.563
  642SOL    HW1 1982   4.168   4.945   4.491
  642SOL    HW2 1983   4.272   4.882   4.582
  643SOL     OW 1984   2.306   2.345   4.368
  643SOL    HW1 1985   2.239   2.306   4.424
  643SOL    HW2 1986   2.260   2.368   4.288
  644SOL     OW 1987   3.238   0.811   3.015
  644SOL    HW1 1988   3.271   0.894   3.052
  644SOL    HW2 1989   3.238   0.826   2.921
  645SOL     OW 1990   1.157   3.312   4.237
  645SOL    HW1 1991   1.220   3.383   4.245
  645SOL    HW2 1992   1.157   3.269   4.322
  646SOL     OW 1993   4.317   2.858   4.974
  646SOL    HW1 1994   4.262   2.874   0.070
  646SOL    HW2 1995   4.375   2.934   4.969
  647SOL     OW 1996   4.662   2.533   2.927
  647SOL    HW1 1997   4.726   2.552   2.996
  647SOL    HW2 1998   4.635   2.443   2.944
  648SOL     OW 1999   1.277   2.271   4.016
  648SOL    HW1 2000   1.244   2.182   4.005
  648SOL    HW2 2001   1.237   2.320   3.944
  649SOL     OW 2002   0.578   1.484   2.502
  649SOL    HW1 2003   0.492   1.500   2.464
  649SOL    HW2 2004   0.589   1.554   2.567
  650SOL     OW 2005   3.173   4.268   4.460
  650SOL    HW1 2006   3.126   4.221   4.391
  650SOL    HW2 2007   3.172   4.359   4.433
  651SOL     OW 2008   0.665   3.721   3.915
  651SOL    HW1 2009   0.648   3.795   3.974
  651SOL    HW2 2010   0.717   3.758   3.844
  652SOL     OW 2011   1.199   2.719   0.839
  652SOL    HW1 2012   1.158   2.704   0.753
  652SOL    HW2 2013   1.144   2.784   0.880
  653SOL     OW 2014   2.747   1.171   3.959
  653SOL    HW1 2015   2.684   1.142   4.025
  653SOL    HW2 2016   2.709   1.142   3.876
  654SOL     OW 2017   1.944   2.519   0.316
  654SOL    HW1 2018   2.009   2.477   0.259
  654SOL    HW2 2019   1.959   2.479   0.402
  655SOL     OW 2020   0.401   0.450   1.206
  655SOL    HW1 2021   0.481   0.422   1.163
  655SOL    HW2 2022   0.416   0.542   1.229
  656SOL     OW 2023   2.450   4.650   2.832
  656SOL    HW1 2024   2.396   4.600   2.894
  656SOL    HW2 2025   2.423   4.619   2.746
  657SOL     OW 2026   0.707   3.461   1.249
  657SOL    HW1 2027   0.716   3.371   1.219
  657SOL    HW2 2028   0.621   3.489   1.216
  658SOL     OW 2029   2.937   4.758   2.212
  658SOL    HW1 2030   2.985   4.836   2.187
  658SOL    HW2 2031   3.003   4.702   2.254
  659SOL     OW 2032   1.566   4.968   1.148
  659SOL    HW1 2033   1.661   4.963   1.151
  659SOL    HW2 2034   1.540   4.888   1.101
  660SOL     OW 2035   4.390   1.134   2.819
  660SOL    HW1 2036   4.326   1.117   2.887
  660SOL    HW2 2037   4.460   1.183   2.863
  661SOL     OW 2038   1.379   2.488   4.714
  661SOL    HW1 2039   1.361   2.540   4.636
  661SOL    HW2 2040   1.426   2.548   4.772
  662SOL     OW 2041   4.271   0.087   1.352
  662SOL    HW1 2042   4.186   0.089   1.308
  662SOL    HW2 2043   4.306   0.176   1.340
  663SOL     OW 2044   4.472   2.638   0.703
  663SOL    HW1 2045   4.515   2.723   0.696
  663SOL    HW2 2046   4.488   2.609   0.793
  664SOL     OW 2047   4.030   4.719   3.206
  664SOL    HW1 2048   4.099   4.785   3.202
  664SOL    HW2 2049   3.952   4.763   3.174
  665SOL     OW 2050   2.903   3.728   3.410
  665SOL    HW1 2051   2.981   3.765   3.369
  665SOL    HW2 2052   2.885   3.648   3.359
  666SOL     OW 2053   2.104   4.313   1.913
  666SOL    HW1 2054   2.061   4.231   1.891
  666SOL    HW2 2055   2.038   4.364   1.959
  667SOL     OW 2056   0.697   1.511   0.399
  667SOL    HW1 2057   0.787   1.491   0.372
  667SOL    HW2 2058   0.670   1.582   0.340
  668SOL     OW 2059   1.695   0.856   0.049
  668SOL    HW1 2060   1.767   0.804   0.013
  668SOL    HW2 2061   1.680   0.924   4.964
  669SOL     OW 2062   4.839   2.110   3.358
  669SOL    HW1 2063   4.859   2.157   3.439
  669SOL    HW2 2064   4.904   2.039   3.355
  670SOL     OW 2065   4.922   1.453   2.725
  670SOL    HW1 2066   4.843   1.503   2.705
  670SOL    HW2 2067   4.896   1.361   2.714
  671SOL     OW 2068   0.731   1.512   2.061
  671SOL    HW1 2069   0.696   1.438   2.109
  671SOL    HW2 2070   0.730   1.585   2.124
  672SOL     OW 2071   0.806   4.171   1.436
  672SOL    HW1 2072   0.841   4.088   1.404
  672SOL    HW2 2073   0.881   4.231   1.437
  673SOL     OW 2074   4.413   3.572   3.153
  673SOL    HW1 2075   4.455   3.639   3.207
  673SOL    HW2 2076   4.440   3.594   3.063
  674SOL     OW 2077   1.834   0.372   2.366
  674SOL    HW1 2078   1.912   0.338   2.410
  674SOL    HW2 2079   1.761   0.333   2.414
  675SOL     OW 2080   2.271   4.246   2.785
  675SOL    HW1 2081   2.271   4.328   2.735
  675SOL    HW2 2082   2.353   4.248   2.835
  676SOL     OW 2083   2.313   1.826   4.543
  676SOL    HW1 2084   2.275   1.790   4.463
  676SOL    HW2 2085   2.405   1.798   4.541
  677SOL     OW 2086   3.582   3.717   1.633
  677SOL    HW1 2087   3.516   3.660   1.673
  677SOL    HW2 2088   3.573   3.701   1.539
  678SOL     OW 2089   4.496   2.154   3.744
  678SOL    HW1 2090   4.452   2.230   3.705
  678SOL    HW2 2091   4.567   2.133   3.683
  679SOL     OW 2092   4.145   3.272   1.222
  679SOL    HW1 2093   4.184   3.192   1.186
  679SOL    HW2 2094   4.220   3.322   1.255
  680SOL     OW 2095   3.557   1.290   1.670
  680SOL    HW1 2096   3.643   1.253   1.689
  680SOL    HW2 2097   3.501   1.261   1.743
  681SOL     OW 2098   4.178   0.246   4.631
  681SOL    HW1 2099   4.272   0.234   4.645
  681SOL    HW2 2100   4.148   0.161   4.600
  682SOL     OW 2101   4.115   1.277   4.581
  682SOL    HW1 2102   4.164   1.197   4.564
  682SOL    HW2 2103   4.126   1.330   4.502
  683SOL     OW 2104   1.273   4.783   4.872
  683SOL    HW1 2105   1.303   4.866   4.909
  683SOL    HW2 2106   1.315   4.778   4.787
  684SOL     OW 2107   1.751   0.845   0.535
  684SOL    HW1 2108   1.824   0.800   0.578
  684SOL    HW2 2109   1.678   0.834   0.596
  685SOL     OW 2110   1.186   0.822   3.894
  685SOL    HW1 2111   1.159   0.865   3.975
  685SOL    HW2 2112   1.140   0.738   3.896
  686SOL     OW 2113   1.841   1.742   3.160
  686SOL    HW1 2114   1.925   1.728   3.204
  686SOL    HW2 2115   1.781   1.679   3.202
  687SOL     OW 2116   3.369   3.806   1.324
  687SOL    HW1 2117   3.457   3.790   1.356
  687SOL    HW2 2118   3.327   3.858   1.392
  688SOL     OW 2119   1.079   1.478   4.568
  688SOL    HW1 2120   1.012   1.447   4.628
  688SOL    HW2 2121   1.153   1.419   4.582
  689SOL     OW 2122   1.889   1.659   0.714
  689SOL    HW1 2123   1.828   1.732   0.724
  689SOL    HW2 2124   1.881   1.609   0.795
  690SOL     OW 2125   0.119   2.470   0.066
  690SOL    HW1 2126   0.211   2.494   0.053
  690SOL    HW2 2127   0.114   2.378   0.042
  691SOL     OW 2128   1.353   2.713   1.910
  691SOL    HW1 2129   1.260   2.732   1.906
  691SOL    HW2 2130   1.382   2.750   1.993
  692SOL     OW 2131   3.817   1.889   0.098
  692SOL    HW1 2132   3.782   1.905   0.186
  692SOL    HW2 2133   3.742   1.897   0.040
  693SOL     OW 2134   0.117   4.792   4.528
  693SOL    HW1 2135   0.206   4.764   4.549
  693SOL    HW2 2136   0.061   4.732   4.578
  694SOL     OW 2137   4.396   4.979   1.865
  694SOL    HW1 2138   4.310   4.965   1.825
  694SOL    HW2 2139   4.435   4.892   1.868
  695SOL     OW 2140   3.687   1.586   1.779
  695SOL    HW1 2141   3.621   1.625   1.836
  695SOL    HW2 2142   3.645   1.509   1.742
  696SOL     OW 2143   1.600   4.891   2.606
  696SOL    HW1 2144   1.644   4.877   2.522
  696SOL    HW2 2145   1.603   0.006   2.619
  697SOL     OW 2146   0.655   3.185   0.524
  697SOL    HW1 2147   0.591   3.113   0.515
  697SOL    HW2 2148   0.739   3.141   0.537
  698SOL     OW 2149   4.940   2.507   3.105
  698SOL    HW1 2150   0.014   2.586   3.108
  698SOL    HW2 2151   0.000   2.454   3.036
  699SOL     OW 2152   0.419   2.890   1.067
  699SOL    HW1 2153   0.495   2.942   1.094
  699SOL    HW2 2154   0.345   2.934   1.108
  700SOL     OW 2155   0.511   3.261   1.060
  700SOL    HW1 2156   0.538   3.246   0.969
  700SOL    HW2 2157   0.485   3.353   1.062
  701SOL     OW 2158   0.114   0.018   1.643
  701SOL    HW1 2159   0.117   4.951   1.726
  701SOL    HW2 2160   0.196   0.068   1.641
  702SOL     OW 2161   3.682   2.128   3.040
  702SOL    HW1 2162   3.744   2.068   3.082
  702SOL    HW2 2163   3.616   2.070   3.000
  703SOL     OW 2164   0.340   2.083   0.875
  703SOL    HW1 2165   0.334   2.163   0.927
  703SOL    HW2 2166   0.332   2.112   0.784
  704SOL     OW 2167   2.693   3.891   1.202
  704SOL    HW1 2168   2.717   3.968   1.150
  704SOL    HW2 2169   2.610   3.862   1.164
  705SOL     OW 2170   1.527   1.940   4.228
  705SOL    HW1 2171   1.543   2.034   4.221
  705SOL    HW2 2172   1.577   1.913   4.305
  706SOL     OW 2173   3.700   0.034   1.004
  706SOL    HW1 2174   3.794   0.051   0.991
  706SOL    HW2 2175   3.689   0.034   1.099
  707SOL     OW 2176   1.642   1.839   4.811
  707SOL    HW1 2177   1.711   1.776   4.831
  707SOL    HW2 2178   1.675   1.922   4.843
  708SOL     OW 2179   1.209   4.307   2.823
  708SOL    HW1 2180   1.133   4.300   2.881
  708SOL    HW2 2181   1.219   4.401   2.809
  709SOL     OW 2182   2.602   0.247   1.683
  709SOL    HW1 2183   2.609   0.276   1.592
  709SOL    HW2 2184   2.518   0.201   1.687
  710SOL     OW 2185   3.362   2.470   4.940
  710SOL    HW1 2186   3.384   2.377   4.936
  710SOL    HW2 2187   3.274   2.476   4.902
  711SOL     OW 2188   1.997   0.125   3.509
  711SOL    HW1 2189   1.932   0.163   3.567
  711SOL    HW2 2190   2.069   0.099   3.566
  712SOL     OW 2191   3.991   3.138   2.125
  712SOL    HW1 2192   3.959   3.215   2.079
  712SOL    HW2 2193   3.930   3.125   2.198
  713SOL     OW 2194   4.168   4.980   0.912
  713SOL    HW1 2195   4.154   0.002   0.818
  713SOL    HW2 2196   4.157   4.888   0.937
  714SOL     OW 2197   3.842   0.892   2.142
  714SOL    HW1 2198   3.881   0.850   2.065
  714SOL    HW2 2199   3.911   0.950   2.175
  715SOL     OW 2200   1.616   2.257   2.854
  715SOL    HW1 2201   1.569   2.208   2.786
  715SOL    HW2 2202   1.592   2.214   2.936
  716SOL     OW 2203   1.973   1.136   4.425
  716SOL    HW1 2204   1.903   1.171   4.370
  716SOL    HW2 2205   2.053   1.153   4.376
  717SOL     OW 2206   2.185   0.675   4.559
  717SOL    HW1 2207   2.195   0.652   4.467
  717SOL    HW2 2208   2.227   0.760   4.567
  718SOL     OW 2209   3.491   0.460   2.574
  718SOL    HW1 2210   3.397   0.477   2.580
  718SOL    HW2 2211   3.532   0.538   2.612
  719SOL     OW 2212   2.541   0.172   2.302
  719SOL    HW1 2213   2.555   0.206   2.213
  719SOL    HW2 2214   2.450   0.140   2.301
  720SOL     OW 2215   2.211   4.784   1.220
  720SOL    HW1 2216   2.278   4.773   1.153
  720SOL    HW2 2217   2.181   4.874   1.210
  721SOL     OW 2218   3.488   0.507   3.565
  721SOL    HW1 2219   3.556   0.474   3.506
  721SOL    HW2 2220   3.420   0.440   3.563
  722SOL     OW 2221   1.176   1.581   2.921
  722SOL    HW1 2222   1.105   1.517   2.920
  722SOL    HW2 2223   1.181   1.613   2.831
  723SOL     OW 2224   4.391   4.371   4.173
  723SOL    HW1 2225   4.299   4.396   4.169
  723SOL    HW2 2226   4.436   4.451   4.200
  724SOL     OW 2227   1.678   3.241   3.139
  724SOL    HW1 2228   1.613   3.243   3.209
  724SOL    HW2 2229   1.724   3.325   3.148
  725SOL     OW 2230   1.322   3.204   2.952
  725SOL    HW1 2231   1.374   3.270   2.906
  725SOL    HW2 2232   1.376   3.178   3.027
  726SOL     OW 2233   0.442   0.436   2.084
  726SOL    HW1 2234   0.509   0.375   2.053
  726SOL    HW2 2235   0.482   0.523   2.073
  727SOL     OW 2236   0.479   2.226   0.333
  727SOL    HW1 2237   0.497   2.162   0.402
  727SOL    HW2 2238   0.388   2.210   0.309
  728SOL     OW 2239   2.069   4.000   2.491
  728SOL    HW1 2240   2.153   4.044   2.496
  728SOL    HW2 2241   2.088   3.908   2.513
  729SOL     OW 2242   3.319   3.171   3.159
  729SOL    HW1 2243   3.405   3.130   3.153
  729SOL    HW2 2244   3.315   3.230   3.084
  730SOL     OW 2245   0.436   0.076   2.277
  730SOL    HW1 2246   0.424   0.048   2.186
  730SOL    HW2 2247   0.437   4.975   2.327
  731SOL     OW 2248   4.629   3.094   2.897
  731SOL    HW1 2249   4.650   3.007   2.864
  731SOL    HW2 2250   4.714   3.138   2.905
  732SOL     OW 2251   4.944   4.432   0.086
  732SOL    HW1 2252   4.893   4.363   0.129
  732SOL    HW2 2253   0.054   4.413   0.110
  733SOL     OW 2254   1.113   2.399   1.408
  733SOL    HW1 2255   1.200   2.427   1.380
  733SOL    HW2 2256   1.091   2.458   1.480
  734SOL     OW 2257   0.051   1.896   3.803
  734SOL    HW1 2258   4.952   1.881   3.855
  734SOL    HW2 2259   0.123   1.867   3.860
  735SOL     OW 2260   0.529   3.640   0.269
  735SOL    HW1 2261   0.590   3.571   0.295
  735SOL    HW2 2262   0.504   3.682   0.352
  736SOL     OW 2263   1.854   2.054   2.324
  736SOL    HW1 2264   1.869   1.970   2.282
  736SOL    HW2 2265   1.940   2.094   2.330
  737SOL     OW 2266   1.237   2.845   2.992
  737SOL    HW1 2267   1.171   2.783   2.961
  737SOL    HW2 2268   1.216   2.857   3.085
  738SOL     OW 2269   3.949   1.724   4.565
  738SOL    HW1 2270   3.960   1.762   4.652
  738SOL    HW2 2271   3.857   1.698   4.562
  739SOL     OW 2272   3.018   3.824   4.021
  739SOL    HW1 2273   2.981   3.768   4.090
  739SOL    HW2 2274   3.112   3.823   4.038
  740SOL     OW 2275   2.306   3.570   3.634
  740SOL    HW1 2276   2.360   3.638   3.675
  740SOL    HW2 2277   2.216   3.601   3.643
  741SOL     OW 2278   2.980   3.884   4.673
  741SOL    HW1 2279   2.978   3.838   4.756
  741SOL    HW2 2280   3.050   3.949   4.683
  742SOL     OW 2281   3.931   3.366   0.106
  742SOL    HW1 2282   3.972   3.452   0.100
  742SOL    HW2 2283   4.003   3.304   0.097
  743SOL     OW 2284   2.681   1.076   0.399
  743SOL    HW1 2285   2.622   1.099   0.327
  743SOL    HW2 2286   2.624   1.035   0.464
  744SOL     OW 2287   0.353   1.551   2.366
  744SOL    HW1 2288   0.312   1.603   2.297
  744SOL    HW2 2289   0.291   1.554   2.439
  745SOL     OW 2290   3.321   4.263   2.154
  745SOL    HW1 2291   3.381   4.293   2.085
  745SOL    HW2 2292   3.360   4.295   2.235
  746SOL     OW 2293   3.624   0.690   0.836
  746SOL    HW1 2294   3.706   0.700   0.885
  746SOL    HW2 2295   3.603   0.597   0.843
  747SOL     OW 2296   1.527   0.599   3.729
  747SOL    HW1 2297   1.473   0.563   3.800
  747SOL    HW2 2298   1.501   0.550   3.652
  748SOL     OW 2299   0.262   2.147   0.187
  748SOL    HW1 2300   0.216   2.179   0.110
  748SOL    HW2 2301   0.203   2.081   0.224
  749SOL     OW 2302   4.751   4.496   2.027
  749SOL    HW1 2303   4.680   4.512   1.965
  749SOL    HW2 2304   4.756   4.576   2.079
  750SOL     OW 2305   3.664   2.626   1.717
  750SOL    HW1 2306   3.711   2.614   1.635
  750SOL    HW2 2307   3.576   2.654   1.691
  751SOL     OW 2308   2.071   1.986   1.482
  751SOL    HW1 2309   2.081   1.946   1.395
  751SOL    HW2 2310   2.013   2.060   1.467
  752SOL     OW 2311   0.493   2.405   2.353
  752SOL    HW1 2312   0.440   2.473   2.394
  752SOL    HW2 2313   0.439   2.326   2.359
  753SOL     OW 2314   2.790   1.862   2.276
  753SOL    HW1 2315   2.847   1.789   2.303
  753SOL    HW2 2316   2.826   1.891   2.193
  754SOL     OW 2317   4.573   2.440   4.065
  754SOL    HW1 2318   4.571   2.531   4.093
  754SOL    HW2 2319   4.637   2.398   4.122
  755SOL     OW 2320   1.697   1.967   1.550
  755SOL    HW1 2321   1.611   1.965   1.508
  755SOL    HW2 2322   1.691   2.039   1.614
  756SOL     OW 2323   4.622   4.503   4.862
  756SOL    HW1 2324   4.623   4.594   4.835
  756SOL    HW2 2325   4.695   4.463   4.814
  757SOL     OW 2326   3.853   1.555   0.598
  757SOL    HW1 2327   3.767   1.591   0.576
  757SOL    HW2 2328   3.843   1.523   0.688
  758SOL     OW 2329   2.003   2.094   0.672
  758SOL    HW1 2330   1.986   2.158   0.603
  758SOL    HW2 2331   1.917   2.062   0.698
  759SOL     OW 2332   4.429   1.158   2.303
  759SOL    HW1 2333   4.468   1.218   2.366
  759SOL    HW2 2334   4.504   1.110   2.267
  760SOL     OW 2335   4.042   0.736   0.283
  760SOL    HW1 2336   4.091   0.729   0.365
  760SOL    HW2 2337   4.056   0.826   0.254
  761SOL     OW 2338   1.082   4.959   4.424
  761SOL    HW1 2339   1.048   4.934   4.338
  761SOL    HW2 2340   1.100   0.072   4.416
  762SOL     OW 2341   4.128   2.069   2.708
  762SOL    HW1 2342   4.187   2.000   2.677
  762SOL    HW2 2343   4.054   2.066   2.648
  763SOL     OW 2344   2.655   4.140   4.085
  763SOL    HW1 2345   2.652   4.187   4.002
  763SOL    HW2 2346   2.747   4.113   4.094
  764SOL     OW 2347   2.774   3.715   1.390
  764SOL    HW1 2348   2.862   3.723   1.426
  764SOL    HW2 2349   2.769   3.784   1.324
  765SOL     OW 2350   2.448   0.272   0.449
  765SOL    HW1 2351   2.471   0.183   0.422
  765SOL    HW2 2352   2.524   0.302   0.499
  766SOL     OW 2353   2.711   3.129   2.692
  766SOL    HW1 2354   2.800   3.096   2.684
  766SOL    HW2 2355   2.716   3.198   2.758
  767SOL     OW 2356   3.656   0.089   2.714
  767SOL    HW1 2357   3.562   0.086   2.701
  767SOL    HW2 2358   3.667   0.102   2.808
  768SOL     OW 2359   1.311   4.528   2.691
  768SOL    HW1 2360   1.335   4.620   2.688
  768SOL    HW2 2361   1.388   4.484   2.728
  769SOL     OW 2362   1.101   4.150   0.045
  769SOL    HW1 2363   1.083   4.076   4.968
  769SOL    HW2 2364   1.018   4.167   0.090
  770SOL     OW 2365   0.524   4.190   1.990
  770SOL    HW1 2366   0.595   4.235   1.945
  770SOL    HW2 2367   0.446   4.244   1.974
  771SOL     OW 2368   2.533   0.906   1.651
  771SOL    HW1 2369   2.459   0.959   1.682
  771SOL    HW2 2370   2.608   0.964   1.659
  772SOL     OW 2371   0.505   3.563   3.340
  772SOL    HW1 2372   0.576   3.623   3.319
  772SOL    HW2 2373   0.429   3.599   3.295
  773SOL     OW 2374   2.378   4.326   1.846
  773SOL    HW1 2375   2.403   4.244   1.804
  773SOL    HW2 2376   2.285   4.317   1.865
  774SOL     OW 2377   3.892   3.460   0.617
  774SOL    HW1 2378   3.839   3.401   0.672
  774SOL    HW2 2379   3.948   3.401   0.567
  775SOL     OW 2380   0.529   2.317   4.888
  775SOL    HW1 2381   0.496   2.228   4.898
  775SOL    HW2 2382   0.466   2.371   4.936
  776SOL     OW 2383   0.454   3.825   0.083
  776SOL    HW1 2384   0.514   3.900   0.088
  776SOL    HW2 2385   0.492   3.761   0.143
  777SOL     OW 2386   3.772   1.366   4.583
  777SOL    HW1 2387   3.813   1.288   4.620
  777SOL    HW2 2388   3.781   1.356   4.488
  778SOL     OW 2389   2.306   0.542   1.345
  778SOL    HW1 2390   2.284   0.620   1.396
  778SOL    HW2 2391   2.399   0.554   1.322
  779SOL     OW 2392   4.335   3.399   2.545
  779SOL    HW1 2393   4.329   3.357   2.458
  779SOL    HW2 2394   4.399   3.346   2.592
  780SOL     OW 2395   3.312   4.798   2.615
  780SOL    HW1 2396   3.249   4.813   2.544
  780SOL    HW2 2397   3.271   4.837   2.692
  781SOL     OW 2398   0.666   0.541   4.125
  781SOL    HW1 2399   0.609   0.497   4.187
  781SOL    HW2 2400   0.726   0.592   4.179
  782SOL     OW 2401   0.961   4.942   2.425
  782SOL    HW1 2402   0.962   4.930   2.330
  782SOL    HW2 2403   1.050   4.918   2.453
  783SOL     OW 2404   0.980   3.061   4.432
  783SOL    HW1 2405   0.948   2.980   4.391
  783SOL    HW2 2406   0.927   3.130   4.394
  784SOL     OW 2407   1.523   4.329   1.916
  784SOL    HW1 2408   1.476   4.245   1.912
  784SOL    HW2 2409   1.550   4.338   2.007
  785SOL     OW 2410   2.363   0.885   4.451
  785SOL    HW1 2411   2.437   0.931   4.490
  785SOL    HW2 2412   2.402   0.832   4.382
  786SOL     OW 2413   4.436   3.982   4.601
  786SOL    HW1 2414   4.359   4.040   4.595
  786SOL    HW2 2415   4.405   3.907   4.652
  787SOL     OW 2416   1.867   4.052   1.037
  787SOL    HW1 2417   1.850   4.014   0.951
  787SOL    HW2 2418   1.806   4.125   1.044
  788SOL     OW 2419   1.193   2.923   1.704
  788SOL    HW1 2420   1.243   3.005   1.712
  788SOL    HW2 2421   1.116   2.947   1.652
  789SOL     OW 2422   1.623   1.096   0.324
  789SOL    HW1 2423   1.656   1.034   0.389
  789SOL    HW2 2424   1.566   1.155   0.373
  790SOL     OW 2425   3.074   0.909   1.554
  790SOL    HW1 2426   3.061   0.923   1.460
  790SOL    HW2 2427   3.093   0.816   1.562
  791SOL     OW 2428   0.344   1.828   4.780
  791SOL    HW1 2429   0.412   1.771   4.744
  791SOL    HW2 2430   0.261   1.787   4.753
  792SOL     OW 2431   1.416   3.397   4.556
  792SOL    HW1 2432   1.458   3.454   4.620
  792SOL    HW2 2433   1.322   3.410   4.570
  793SOL     OW 2434   3.867   0.777   1.884
  793SOL    HW1 2435   3.791   0.770   1.826
  793SOL    HW2 2436   3.869   0.693   1.930
  794SOL     OW 2437   4.175   3.391   3.241
  794SOL    HW1 2438   4.263   3.376   3.275
  794SOL    HW2 2439   4.139   3.303   3.230
  795SOL     OW 2440   3.864   1.417   0.835
  795SOL    HW1 2441   3.790   1.454   0.883
  795SOL    HW2 2442   3.876   1.330   0.873
  796SOL     OW 2443   0.214   1.984   3.588
  796SOL    HW1 2444   0.179   1.950   3.506
  796SOL    HW2 2445   0.149   1.961   3.653
  797SOL     OW 2446   2.208   3.094   3.643
  797SOL    HW1 2447   2.255   3.018   3.609
  797SOL    HW2 2448   2.246   3.109   3.730
  798SOL     OW 2449   4.069   4.836   4.142
  798SOL    HW1 2450   4.145   4.876   4.099
  798SOL    HW2 2451   4.006   4.824   4.071
  799SOL     OW 2452   0.289   2.390   3.052
  799SOL    HW1 2453   0.376   2.406   3.015
  799SOL    HW2 2454   0.274   2.464   3.110
  800SOL     OW 2455   4.458   1.068   1.784
  800SOL    HW1 2456   4.520   1.127   1.742
  800SOL    HW2 2457   4.503   1.038   1.863
  801SOL     OW 2458   3.758   2.616   2.409
  801SOL    HW1 2459   3.673   2.647   2.377
  801SOL    HW2 2460   3.807   2.696   2.427
  802SOL     OW 2461   4.384   0.653   3.859
  802SOL    HW1 2462   4.459   0.616   3.904
  802SOL    HW2 2463   4.320   0.671   3.928
  803SOL     OW 2464   2.343   2.593   1.304
  803SOL    HW1 2465   2.374   2.545   1.380
  803SOL    HW2 2466   2.420   2.601   1.247
  804SOL     OW 2467   2.142   3.231   1.631
  804SOL    HW1 2468   2.186   3.172   1.569
  804SOL    HW2 2469   2.082   3.174   1.679
  805SOL     OW 2470   1.650   1.260   3.279
  805SOL    HW1 2471   1.694   1.215   3.207
  805SOL    HW2 2472   1.558   1.260   3.256
  806SOL     OW 2473   0.192   4.033   1.732
  806SOL    HW1 2474   0.252   4.093   1.687
  806SOL    HW2 2475   0.170   4.079   1.814
  807SOL     OW 2476   4.578   2.126   4.761
  807SOL    HW1 2477   4.591   2.032   4.771
  807SOL    HW2 2478   4.500   2.145   4.814
  808SOL     OW 2479   3.135   3.867   3.648
  808SOL    HW1 2480   3.195   3.861   3.722
  808SOL    HW2 2481   3.082   3.788   3.652
  809SOL     OW 2482   4.680   1.193   1.938
  809SOL    HW1 2483   4.608   1.233   1.889
  809SOL    HW2 2484   4.753   1.255   1.930
  810SOL     OW 2485   0.613   4.653   2.856
  810SOL    HW1 2486   0.672   4.613   2.920
  810SOL    HW2 2487   0.657   4.735   2.832
  811SOL     OW 2488   2.831   1.708   1.064
  811SOL    HW1 2489   2.912   1.759   1.061
  811SOL    HW2 2490   2.856   1.622   1.029
  812SOL     OW 2491   1.893   4.348   4.108
  812SOL    HW1 2492   1.883   4.255   4.089
  812SOL    HW2 2493   1.926   4.386   4.027
  813SOL     OW 2494   1.172   1.698   2.662
  813SOL    HW1 2495   1.261   1.682   2.629
  813SOL    HW2 2496   1.134   1.759   2.599
  814SOL     OW 2497   4.763   0.788   1.623
  814SOL    HW1 2498   4.732   0.766   1.711
  814SOL    HW2 2499   4.721   0.872   1.603
  815SOL     OW 2500   1.745   1.115   2.680
  815SOL    HW1 2501   1.800   1.086   2.607
  815SOL    HW2 2502   1.744   1.039   2.739
  816SOL     OW 2503   1.670   3.943   4.488
  816SOL    HW1 2504   1.621   3.929   4.408
  816SOL    HW2 2505   1.711   3.859   4.507
  817SOL     OW 2506   2.294   1.066   3.541
  817SOL    HW1 2507   2.368   1.109   3.499
  817SOL    HW2 2508   2.329   1.032   3.623
  818SOL     OW 2509   2.231   0.297   4.462
  818SOL    HW1 2510   2.241   0.346   4.544
  818SOL    HW2 2511   2.308   0.320   4.411
  819SOL     OW 2512   2.962   3.208   3.713
  819SOL    HW1 2513   2.907   3.247   3.644
  819SOL    HW2 2514   2.920   3.125   3.732
  820SOL     OW 2515   1.522   3.122   2.223
  820SOL    HW1 2516   1.432   3.138   2.251
  820SOL    HW2 2517   1.567   3.204   2.239
  821SOL     OW 2518   0.520   2.495   4.068
  821SOL    HW1 2519   0.508   2.568   4.129
  821SOL    HW2 2520   0.528   2.537   3.982
  822SOL     OW 2521   0.069   3.035   0.340
  822SOL    HW1 2522   0.049   3.094   0.267
  822SOL    HW2 2523   0.058   3.089   0.418
  823SOL     OW 2524   0.172   1.240   2.431
  823SOL    HW1 2525   0.116   1.317   2.417
  823SOL    HW2 2526   0.136   1.174   2.372
  824SOL     OW 2527   2.315   3.008   3.892
  824SOL    HW1 2528   2.315   2.930   3.948
  824SOL    HW2 2529   2.379   3.066   3.932
  825SOL     OW 2530   0.670   2.679   0.179
  825SOL    HW1 2531   0.634   2.596   0.211
  825SOL    HW2 2532   0.699   2.659   0.090
  826SOL     OW 2533   3.915   1.869   2.836
  826SOL    HW1 2534   3.863   1.789   2.825
  826SOL    HW2 2535   3.918   1.882   2.931
  827SOL     OW 2536   0.614   4.077   0.934
  827SOL    HW1 2537   0.642   4.162   0.900
  827SOL    HW2 2538   0.520   4.073   0.912
  828SOL     OW 2539   3.103   4.007   1.892
  828SOL    HW1 2540   3.066   3.957   1.819
  828SOL    HW2 2541   3.073   4.096   1.879
  829SOL     OW 2542   2.454   3.529   2.531
  829SOL    HW1 2543   2.463   3.616   2.571
  829SOL    HW2 2544   2.502   3.535   2.449
  830SOL     OW 2545   4.875   1.879   2.784
  830SOL    HW1 2546   4.831   1.815   2.727
  830SOL    HW2 2547   4.835   1.866   2.870
  831SOL     OW 2548   1.792   0.983   3.352
  831SOL    HW1 2549   1.710   1.031   3.343
  831SOL    HW2 2550   1.841   1.031   3.418
  832SOL     OW 2551   0.042   3.550   3.401
  832SOL    HW1 2552   0.022   3.544   3.495
  832SOL    HW2 2553   0.001   3.473   3.363
  833SOL     OW 2554   2.873   0.262   0.330
  833SOL    HW1 2555   2.897   0.190   0.387
  833SOL    HW2 2556   2.927   0.336   0.358
  834SOL     OW 2557   1.458   2.009   2.799
  834SOL    HW1 2558   1.371   2.021   2.835
  834SOL    HW2 2559   1.501   1.948   2.860
  835SOL     OW 2560   2.420   0.045   4.046
  835SOL    HW1 2561   2.410   4.939   4.005
  835SOL    HW2 2562   2.388   0.032   4.136
  836SOL     OW 2563   3.340   0.250   0.861
  836SOL    HW1 2564   3.300   0.187   0.921
  836SOL    HW2 2565   3.399   0.198   0.807
  837SOL     OW 2566   3.235   0.639   1.835
  837SOL    HW1 2567   3.139   0.637   1.845
  837SOL    HW2 2568   3.252   0.714   1.779
  838SOL     OW 2569   1.353   2.398   1.092
  838SOL    HW1 2570   1.410   2.382   1.167
  838SOL    HW2 2571   1.286   2.329   1.098
  839SOL     OW 2572   3.189   0.874   3.368
  839SOL    HW1 2573   3.252   0.804   3.351
  839SOL    HW2 2574   3.203   0.937   3.297
  840SOL     OW 2575   1.360   1.586   0.581
  840SOL    HW1 2576   1.431   1.651   0.583
  840SOL    HW2 2577   1.370   1.536   0.662
  841SOL     OW 2578   1.471   2.027   1.972
  841SOL    HW1 2579   1.500   1.941   1.939
  841SOL    HW2 2580   1.547   2.063   2.016
  842SOL     OW 2581   2.770   1.382   1.901
  842SOL    HW1 2582   2.866   1.374   1.893
  842SOL    HW2 2583   2.756   1.474   1.924
  843SOL     OW 2584   4.282   4.792   3.911
  843SOL    HW1 2585   4.251   4.712   3.869
  843SOL    HW2 2586   4.369   4.806   3.873
  844SOL     OW 2587   1.061   2.671   2.892
  844SOL    HW1 2588   1.091   2.647   2.804
  844SOL    HW2 2589   0.975   2.630   2.901
  845SOL     OW 2590   3.178   4.604   3.475
  845SOL    HW1 2591   3.120   4.606   3.551
  845SOL    HW2 2592   3.135   4.546   3.413
  846SOL     OW 2593   3.615   1.659   0.526
  846SOL    HW1 2594   3.587   1.736   0.575
  846SOL    HW2 2595   3.534   1.619   0.496
  847SOL     OW 2596   4.689   1.261   3.517
  847SOL    HW1 2597   4.639   1.331   3.558
  847SOL    HW2 2598   4.675   1.185   3.574
  848SOL     OW 2599   0.272   0.690   2.027
  848SOL    HW1 2600   0.258   0.720   2.117
  848SOL    HW2 2601   0.287   0.596   2.034
  849SOL     OW 2602   0.272   3.867   1.437
  849SOL    HW1 2603   0.262   3.890   1.530
  849SOL    HW2 2604   0.362   3.837   1.430
  850SOL     OW 2605   1.387   2.109   3.715
  850SOL    HW1 2606   1.384   2.023   3.674
  850SOL    HW2 2607   1.319   2.159   3.670
  851SOL     OW 2608   2.549   1.173   3.503
  851SOL    HW1 2609   2.584   1.261   3.521
  851SOL    HW2 2610   2.544   1.169   3.408
  852SOL     OW 2611   0.884   3.264   1.855
  852SOL    HW1 2612   0.880   3.316   1.935
  852SOL    HW2 2613   0.793   3.258   1.826
  853SOL     OW 2614   1.531   4.367   1.502
  853SOL    HW1 2615   1.459   4.370   1.440
  853SOL    HW2 2616   1.488   4.358   1.588
  854SOL     OW 2617   4.495   2.711   1.619
  854SOL    HW1 2618   4.401   2.718   1.605
  854SOL    HW2 2619   4.525   2.802   1.625
  855SOL     OW 2620   2.582   1.166   0.805
  855SOL    HW1 2621   2.523   1.091   0.808
  855SOL    HW2 2622   2.619   1.165   0.717
  856SOL     OW 2623   0.467   2.453   1.584
  856SOL    HW1 2624   0.395   2.515   1.589
  856SOL    HW2 2625   0.451   2.392   1.656
  857SOL     OW 2626   0.839   3.994   2.542
  857SOL    HW1 2627   0.885   4.046   2.609
  857SOL    HW2 2628   0.766   4.050   2.515
  858SOL     OW 2629   4.692   2.520   1.781
  858SOL    HW1 2630   4.652   2.603   1.808
  858SOL    HW2 2631   4.717   2.477   1.863
  859SOL     OW 2632   2.309   0.211   3.432
  859SOL    HW1 2633   2.219   0.179   3.428
  859SOL    HW2 2634   2.354   0.149   3.489
  860SOL     OW 2635   0.676   2.071   3.812
  860SOL    HW1 2636   0.615   2.139   3.841
  860SOL    HW2 2637   0.672   2.075   3.717
  861SOL     OW 2638   4.977   3.111   3.636
  861SOL    HW1 2639   0.015   3.019   3.656
  861SOL    HW2 2640   0.025   3.122   3.545
  862SOL     OW 2641   0.748   1.537   4.502
  862SOL    HW1 2642   0.776   1.490   4.581
  862SOL    HW2 2643   0.753   1.472   4.432
  863SOL     OW 2644   0.368   3.098   1.948
  863SOL    HW1 2645   0.400   3.141   1.870
  863SOL    HW2 2646   0.309   3.030   1.916
  864SOL     OW 2647   1.093   0.233   4.737
  864SOL    HW1 2648   1.170   0.259   4.685
  864SOL    HW2 2649   1.086   0.139   4.723
  865SOL     OW 2650   0.720   1.106   2.037
  865SOL    HW1 2651   0.705   1.167   1.965
  865SOL    HW2 2652   0.812   1.120   2.061
  866SOL     OW 2653   3.570   1.925   1.690
  866SOL    HW1 2654   3.546   1.977   1.766
  866SOL    HW2 2655   3.487   1.901   1.650
  867SOL     OW 2656   0.164   0.896   4.840
  867SOL    HW1 2657   0.181   0.963   4.774
  867SOL    HW2 2658   0.104   0.939   4.902
  868SOL     OW 2659   1.141   0.100   0.517
  868SOL    HW1 2660   1.125   0.193   0.498
  868SOL    HW2 2661   1.061   0.069   0.558
  869SOL     OW 2662   1.063   2.845   0.628
  869SOL    HW1 2663   1.092   2.842   0.537
  869SOL    HW2 2664   1.012   2.926   0.634
  870SOL     OW 2665   3.131   4.567   2.292
  870SOL    HW1 2666   3.125   4.528   2.205
  870SOL    HW2 2667   3.211   4.619   2.289
  871SOL     OW 2668   1.889   1.085   3.912
  871SOL    HW1 2669   1.832   1.024   3.866
  871SOL    HW2 2670   1.959   1.031   3.948
  872SOL     OW 2671   3.457   4.645   4.270
  872SOL    HW1 2672   3.441   4.588   4.345
  872SOL    HW2 2673   3.507   4.592   4.209
  873SOL     OW 2674   3.474   2.719   4.837
  873SOL    HW1 2675   3.417   2.794   4.851
  873SOL    HW2 2676   3.424   2.643   4.867
  874SOL     OW 2677   4.768   1.728   1.803
  874SOL    HW1 2678   4.767   1.766   1.715
  874SOL    HW2 2679   4.776   1.803   1.861
  875SOL     OW 2680   3.921   4.093   2.949
  875SOL    HW1 2681   3.980   4.168   2.943
  875SOL    HW2 2682   3.941   4.053   3.034
  876SOL     OW 2683   0.969   4.528   2.812
  876SOL    HW1 2684   0.946   4.494   2.726
  876SOL    HW2 2685   0.970   4.451   2.869
  877SOL     OW 2686   1.990   4.362   1.284
  877SOL    HW1 2687   2.049   4.408   1.224
  877SOL    HW2 2688   2.013   4.269   1.273
  878SOL     OW 2689   4.412   3.942   2.018
  878SOL    HW1 2690   4.341   3.920   2.079
  878SOL    HW2 2691   4.484   3.968   2.075
  879SOL     OW 2692   2.459   1.642   0.775
  879SOL    HW1 2693   2.443   1.718   0.832
  879SOL    HW2 2694   2.456   1.567   0.834
  880SOL     OW 2695   3.984   2.922   1.665
  880SOL    HW1 2696   4.025   2.983   1.604
  880SOL    HW2 2697   3.899   2.902   1.626
  881SOL     OW 2698   3.780   3.223   3.940
  881SOL    HW1 2699   3.733   3.301   3.910
  881SOL    HW2 2700   3.762   3.219   4.034
  882SOL     OW 2701   1.599   1.211   1.097
  882SOL    HW1 2702   1.527   1.234   1.039
  882SOL    HW2 2703   1.560   1.154   1.163
  883SOL     OW 2704   4.656   3.447   3.610
  883SOL    HW1 2705   4.656   3.518   3.673
  883SOL    HW2 2706   4.719   3.384   3.644
  884SOL     OW 2707   0.399   3.213   0.331
  884SOL    HW1 2708   0.312   3.251   0.323
  884SOL    HW2 2709   0.430   3.203   0.241
  885SOL     OW 2710   4.521   2.041   1.500
  885SOL    HW1 2711   4.582   2.103   1.461
  885SOL    HW2 2712   4.538   2.047   1.594
  886SOL     OW 2713   3.608   4.284   1.657
  886SOL    HW1 2714   3.513   4.269   1.658
  886SOL    HW2 2715   3.639   4.237   1.580
  887SOL     OW 2716   2.913   4.666   4.099
  887SOL    HW1 2717   2.964   4.636   4.024
  887SOL    HW2 2718   2.960   4.743   4.130
  888SOL     OW 2719   2.136   4.804   0.891
  888SOL    HW1 2720   2.228   4.787   0.909
  888SOL    HW2 2721   2.089   4.765   0.965
  889SOL     OW 2722   3.998   1.031   3.295
  889SOL    HW1 2723   3.921   1.031   3.352
  889SOL    HW2 2724   4.071   1.009   3.353
  890SOL     OW 2725   0.429   4.477   3.544
  890SOL    HW1 2726   0.430   4.521   3.629
  890SOL    HW2 2727   0.395   4.543   3.483
  891SOL     OW 2728   0.799   0.137   2.562
  891SOL    HW1 2729   0.862   0.085   2.513
  891SOL    HW2 2730   0.749   0.183   2.495
  892SOL     OW 2731   4.071   1.596   1.086
  892SOL    HW1 2732   4.123   1.630   1.159
  892SOL    HW2 2733   4.120   1.520   1.055
  893SOL     OW 2734   0.085   0.159   0.626
  893SOL    HW1 2735   0.160   0.114   0.664
  893SOL    HW2 2736   0.057   0.220   0.694
  894SOL     OW 2737   2.833   3.599   2.710
  894SOL    HW1 2738   2.823   3.607   2.615
  894SOL    HW2 2739   2.744   3.612   2.744
  895SOL     OW 2740   4.360   2.326   1.207
  895SOL    HW1 2741   4.407   2.379   1.142
  895SOL    HW2 2742   4.365   2.237   1.172
  896SOL     OW 2743   3.112   4.198   4.975
  896SOL    HW1 2744   3.184   4.167   0.050
  896SOL    HW2 2745   3.126   4.155   4.891
  897SOL     OW 2746   2.226   1.073   3.187
  897SOL    HW1 2747   2.147   1.018   3.194
  897SOL    HW2 2748   2.202   1.142   3.124
  898SOL     OW 2749   3.901   0.315   3.146
  898SOL    HW1 2750   3.861   0.365   3.075
  898SOL    HW2 2751   3.987   0.289   3.113
  899SOL     OW 2752   2.755   2.868   3.425
  899SOL    HW1 2753   2.682   2.830   3.376
  899SOL    HW2 2754   2.715   2.936   3.479
  900SOL     OW 2755   3.705   1.183   2.911
  900SOL    HW1 2756   3.746   1.118   2.854
  900SOL    HW2 2757   3.679   1.134   2.989
  901SOL     OW 2758   0.308   1.444   0.476
  901SOL    HW1 2759   0.241   1.419   0.539
  901SOL    HW2 2760   0.375   1.488   0.529
  902SOL     OW 2761   1.537   1.624   4.476
  902SOL    HW1 2762   1.611   1.685   4.482
  902SOL    HW2 2763   1.534   1.582   4.562
  903SOL     OW 2764   2.245   0.685   0.963
  903SOL    HW1 2765   2.170   0.742   0.947
  903SOL    HW2 2766   2.306   0.739   1.014
  904SOL     OW 2767   1.378   2.962   0.831
  904SOL    HW1 2768   1.323   2.884   0.828
  904SOL    HW2 2769   1.372   2.991   0.922
  905SOL     OW 2770   4.436   2.376   1.735
  905SOL    HW1 2771   4.515   2.429   1.726
  905SOL    HW2 2772   4.418   2.345   1.646
  906SOL     OW 2773   1.766   1.314   0.012
  906SOL    HW1 2774   1.706   1.361   4.935
  906SOL    HW2 2775   1.837   1.286   4.934
  907SOL     OW 2776   0.209   1.660   3.939
  907SOL    HW1 2777   0.161   1.598   3.994
  907SOL    HW2 2778   0.214   1.617   3.854
  908SOL     OW 2779   3.817   0.984   2.762
  908SOL    HW1 2780   3.820   0.925   2.838
  908SOL    HW2 2781   3.895   0.962   2.712
  909SOL     OW 2782   3.147   2.560   3.147
  909SOL    HW1 2783   3.092   2.487   3.176
  909SOL    HW2 2784   3.087   2.634   3.140
  910SOL     OW 2785   4.537   3.934   2.746
  910SOL    HW1 2786   4.492   3.907   2.666
  910SOL    HW2 2787   4.595   3.861   2.767
  911SOL     OW 2788   2.877   4.062   0.781
  911SOL    HW1 2789   2.871   3.973   0.747
  911SOL    HW2 2790   2.790   4.082   0.813
  912SOL     OW 2791   4.915   1.277   3.904
  912SOL    HW1 2792   4.904   1.283   3.809
  912SOL    HW2 2793   4.879   1.191   3.926
  913SOL     OW 2794   1.317   1.636   4.924
  913SOL    HW1 2795   1.313   1.712   4.866
  913SOL    HW2 2796   1.302   1.672   0.031
  914SOL     OW 2797   1.126   3.157   0.538
  914SOL    HW1 2798   1.152   3.177   0.448
  914SOL    HW2 2799   1.179   3.216   0.592
  915SOL     OW 2800   2.976   1.665   1.640
  915SOL    HW1 2801   2.907   1.615   1.598
  915SOL    HW2 2802   3.042   1.600   1.663
  916SOL     OW 2803   3.413   2.376   2.896
  916SOL    HW1 2804   3.407   2.360   2.802
  916SOL    HW2 2805   3.366   2.458   2.910
  917SOL     OW 2806   0.458   0.904   3.816
  917SOL    HW1 2807   0.536   0.958   3.805
  917SOL    HW2 2808   0.403   0.953   3.877
  918SOL     OW 2809   4.010   4.135   2.207
  918SOL    HW1 2810   3.921   4.157   2.236
  918SOL    HW2 2811   4.061   4.134   2.287
  919SOL     OW 2812   3.376   3.681   4.763
  919SOL    HW1 2813   3.417   3.638   4.688
  919SOL    HW2 2814   3.303   3.624   4.787
  920SOL     OW 2815   4.702   2.962   2.156
  920SOL    HW1 2816   4.691   2.916   2.239
  920SOL    HW2 2817   4.620   3.010   2.144
  921SOL     OW 2818   3.710   3.286   4.914
  921SOL    HW1 2819   3.770   3.321   4.848
  921SOL    HW2 2820   3.732   3.333   0.014
  922SOL     OW 2821   3.413   3.165   0.890
  922SOL    HW1 2822   3.446   3.215   0.965
  922SOL    HW2 2823   3.377   3.232   0.831
  923SOL     OW 2824   1.388   2.137   0.350
  923SOL    HW1 2825   1.395   2.080   0.273
  923SOL    HW2 2826   1.378   2.225   0.314
  924SOL     OW 2827   0.212   3.866   4.119
  924SOL    HW1 2828   0.250   3.953   4.110
  924SOL    HW2 2829   0.206   3.852   4.214
  925SOL     OW 2830   4.308   1.400   3.235
  925SOL    HW1 2831   4.277   1.338   3.168
  925SOL    HW2 2832   4.368   1.458   3.187
  926SOL     OW 2833   0.487   1.880   3.032
  926SOL    HW1 2834   0.393   1.892   3.045
  926SOL    HW2 2835   0.493   1.800   2.979
  927SOL     OW 2836   4.506   0.532   4.660
  927SOL    HW1 2837   4.476   0.459   4.605
  927SOL    HW2 2838   4.561   0.490   4.727
  928SOL     OW 2839   2.006   2.733   1.189
  928SOL    HW1 2840   2.098   2.740   1.162
  928SOL    HW2 2841   1.991   2.813   1.240
  929SOL     OW 2842   3.198   1.508   2.219
  929SOL    HW1 2843   3.134   1.445   2.251
  929SOL    HW2 2844   3.271   1.454   2.188
  930SOL     OW 2845   1.131   3.719   3.061
  930SOL    HW1 2846   1.208   3.768   3.032
  930SOL    HW2 2847   1.109   3.756   3.146
  931SOL     OW 2848   4.640   1.148   3.768
  931SOL    HW1 2849   4.555   1.149   3.725
  931SOL    HW2 2850   4.624   1.101   3.850
  932SOL     OW 2851   3.944   4.202   1.607
  932SOL    HW1 2852   3.963   4.140   1.678
  932SOL    HW2 2853   3.952   4.150   1.527
  933SOL     OW 2854   2.186   4.034   2.917
  933SOL    HW1 2855   2.203   4.102   2.853
  933SOL    HW2 2856   2.211   3.952   2.873
  934SOL     OW 2857   1.608   3.408   2.609
  934SOL    HW1 2858   1.668   3.347   2.653
  934SOL    HW2 2859   1.523   3.389   2.648
  935SOL     OW 2860   3.655   0.958   3.708
  935SOL    HW1 2861   3.657   0.935   3.801
  935SOL    HW2 2862   3.577   0.916   3.674
  936SOL     OW 2863   4.522   1.825   3.048
  936SOL    HW1 2864   4.613   1.855   3.042
  936SOL    HW2 2865   4.483   1.880   3.117
  937SOL     OW 2866   3.922   1.031   2.449
  937SOL    HW1 2867   3.854   1.098   2.445
  937SOL    HW2 2868   3.955   1.025   2.359
  938SOL     OW 2869   0.337   4.936   0.146
  938SOL    HW1 2870   0.356   4.857   0.197
  938SOL    HW2 2871   0.355   0.028   0.207
  939SOL     OW 2872   2.179   1.121   1.061
  939SOL    HW1 2873   2.159   1.056   1.128
  939SOL    HW2 2874   2.094   1.139   1.020
  940SOL     OW 2875   0.594   2.069   0.146
  940SOL    HW1 2876   0.687   2.082   0.163
  940SOL    HW2 2877   0.550   2.132   0.203
  941SOL     OW 2878   0.578   1.204   3.534
  941SOL    HW1 2879   0.640   1.252   3.588
  941SOL    HW2 2880   0.623   1.122   3.512
  942SOL     OW 2881   4.540   1.343   1.764
  942SOL    HW1 2882   4.589   1.390   1.697
  942SOL    HW2 2883   4.478   1.407   1.799
  943SOL     OW 2884   1.605   0.202   2.333
  943SOL    HW1 2885   1.602   0.249   2.250
  943SOL    HW2 2886   1.551   0.256   2.392
  944SOL     OW 2887   1.654   1.769   0.826
  944SOL    HW1 2888   1.697   1.829   0.887
  944SOL    HW2 2889   1.576   1.817   0.798
  945SOL     OW 2890   3.471   1.375   0.230
  945SOL    HW1 2891   3.419   1.455   0.227
  945SOL    HW2 2892   3.559   1.404   0.255
  946SOL     OW 2893   4.085   1.683   2.718
  946SOL    HW1 2894   4.027   1.667   2.643
  946SOL    HW2 2895   4.033   1.739   2.776
  947SOL     OW 2896   0.983   4.319   2.228
  947SOL    HW1 2897   1.060   4.363   2.192
  947SOL    HW2 2898   1.018   4.243   2.274
  948SOL     OW 2899   4.787   2.336   1.226
  948SOL    HW1 2900   4.754   2.323   1.137
  948SOL    HW2 2901   4.708   2.355   1.278
  949SOL     OW 2902   1.399   1.454   2.280
  949SOL    HW1 2903   1.434   1.370   2.308
  949SOL    HW2 2904   1.306   1.451   2.306
  950SOL     OW 2905   4.929   2.785   0.255
  950SOL    HW1 2906   4.875   2.813   0.181
  950SOL    HW2 2907   0.020   2.849   0.259
  951SOL     OW 2908   0.032   0.027   3.423
  951SOL    HW1 2909   0.031   4.950   3.346
  951SOL    HW2 2910   4.971   4.955   3.492
  952SOL     OW 2911   0.800   2.231   0.662
  952SOL    HW1 2912   0.790   2.312   0.613
  952SOL    HW2 2913   0.845   2.257   0.743
  953SOL     OW 2914   0.028   4.752   3.770
  953SOL    HW1 2915   4.974   4.668   3.738
  953SOL    HW2 2916   0.103   4.771   3.714
  954SOL     OW 2917   4.932   1.419   0.788
  954SOL    HW1 2918   4.947   1.443   0.696
  954SOL    HW2 2919   4.978   1.336   0.799
  955SOL     OW 2920   1.355   1.714   4.041
  955SOL    HW1 2921   1.423   1.665   3.997
  955SOL    HW2 2922   1.399   1.756   4.115
  956SOL     OW 2923   1.726   4.164   1.532
  956SOL    HW1 2924   1.740   4.114   1.451
  956SOL    HW2 2925   1.654   4.223   1.511
  957SOL     OW 2926   0.699   2.004   0.798
  957SOL    HW1 2927   0.711   2.076   0.735
  957SOL    HW2 2928   0.752   1.933   0.762
  958SOL     OW 2929   1.338   3.297   2.366
  958SOL    HW1 2930   1.293   3.242   2.432
  958SOL    HW2 2931   1.340   3.384   2.405
  959SOL     OW 2932   2.102   4.107   4.056
  959SOL    HW1 2933   2.164   4.177   4.037
  959SOL    HW2 2934   2.064   4.085   3.971
  960SOL     OW 2935   3.248   2.294   3.661
  960SOL    HW1 2936   3.154   2.311   3.657
  960SOL    HW2 2937   3.255   2.200   3.679
  961SOL     OW 2938   4.177   2.397   3.038
  961SOL    HW1 2939   4.134   2.385   3.122
  961SOL    HW2 2940   4.121   2.350   2.975
  962SOL     OW 2941   4.197   2.980   3.806
  962SOL    HW1 2942   4.176   3.059   3.855
  962SOL    HW2 2943   4.226   3.011   3.720
  963SOL     OW 2944   0.192   3.881   3.683
  963SOL    HW1 2945   0.188   3.901   3.590
  963SOL    HW2 2946   0.280   3.845   3.696
  964SOL     OW 2947   2.355   4.906   3.529
  964SOL    HW1 2948   2.357   4.894   3.434
  964SOL    HW2 2949   2.446   4.896   3.556
  965SOL     OW 2950   4.934   0.420   2.366
  965SOL    HW1 2951   0.002   0.494   2.330
  965SOL    HW2 2952   4.940   0.430   2.461
  966SOL     OW 2953   4.906   0.430   1.259
  966SOL    HW1 2954   4.971   0.410   1.192
  966SOL    HW2 2955   4.956   0.427   1.342
  967SOL     OW 2956   2.174   3.883   4.490
  967SOL    HW1 2957   2.140   3.798   4.516
  967SOL    HW2 2958   2.133   3.901   4.405
  968SOL     OW 2959   2.774   2.828   1.331
  968SOL    HW1 2960   2.864   2.860   1.328
  968SOL    HW2 2961   2.780   2.736   1.304
  969SOL     OW 2962   4.906   4.104   3.976
  969SOL    HW1 2963   4.917   4.177   4.037
  969SOL    HW2 2964   4.818   4.069   3.996
  970SOL     OW 2965   3.851   3.843   2.563
  970SOL    HW1 2966   3.795   3.884   2.497
  970SOL    HW2 2967   3.894   3.771   2.516
  971SOL     OW 2968   1.884   3.158   2.249
  971SOL    HW1 2969   1.950   3.218   2.283
  971SOL    HW2 2970   1.833   3.132   2.325
  972SOL     OW 2971   4.405   1.772   3.430
  972SOL    HW1 2972   4.440   1.850   3.387
  972SOL    HW2 2973   4.474   1.744   3.490
  973SOL     OW 2974   4.299   4.011   3.551
  973SOL    HW1 2975   4.290   4.007   3.456
  973SOL    HW2 2976   4.344   4.093   3.568
  974SOL     OW 2977   2.933   0.983   2.302
  974SOL    HW1 2978   2.959   1.039   2.375
  974SOL    HW2 2979   2.872   1.037   2.252
  975SOL     OW 2980   4.432   4.108   3.912
  975SOL    HW1 2981   4.448   4.070   3.826
  975SOL    HW2 2982   4.337   4.122   3.914
  976SOL     OW 2983   0.961   0.680   1.746
  976SOL    HW1 2984   0.904   0.696   1.672
  976SOL    HW2 2985   0.941   0.590   1.773
  977SOL     OW 2986   0.834   1.935   2.139
  977SOL    HW1 2987   0.921   1.928   2.098
  977SOL    HW2 2988   0.773   1.915   2.068
  978SOL     OW 2989   3.807   4.365   2.602
  978SOL    HW1 2990   3.887   4.415   2.620
  978SOL    HW2 2991   3.822   4.279   2.640
  979SOL     OW 2992   4.352   1.928   2.383
  979SOL    HW1 2993   4.306   1.891   2.458
  979SOL    HW2 2994   4.314   2.014   2.371
  980SOL     OW 2995   0.532   3.309   3.212
  980SOL    HW1 2996   0.524   3.397   3.248
  980SOL    HW2 2997   0.558   3.324   3.121
  981SOL     OW 2998   0.683   0.268   0.155
  981SOL    HW1 2999   0.609   0.316   0.191
  981SOL    HW2 3000   0.653   0.238   0.069
  982SOL     OW 3001   4.469   0.958   1.233
  982SOL    HW1 3002   4.472   0.978   1.326
  982SOL    HW2 3003   4.446   0.866   1.229
  983SOL     OW 3004   1.334   4.092   1.942
  983SOL    HW1 3005   1.340   4.000   1.916
  983SOL    HW2 3006   1.240   4.112   1.941
  984SOL     OW 3007   1.930   0.084   1.884
  984SOL    HW1 3008   1.955   0.166   1.842
  984SOL    HW2 3009   2.003   0.025   1.867
  985SOL     OW 3010   2.331   4.553   3.320
  985SOL    HW1 3011   2.308   4.471   3.364
  985SOL    HW2 3012   2.427   4.555   3.324
  986SOL     OW 3013   4.516   4.631   0.762
  986SOL    HW1 3014   4.483   4.581   0.687
  986SOL    HW2 3015   4.454   4.704   0.770
  987SOL     OW 3016   1.608   4.831   2.025
  987SOL    HW1 3017   1.669   4.881   2.079
  987SOL    HW2 3018   1.664   4.771   1.975
  988SOL     OW 3019   4.287   4.438   0.213
  988SOL    HW1 3020   4.347   4.509   0.234
  988SOL    HW2 3021   4.339   4.378   0.159
  989SOL     OW 3022   0.402   0.992   3.279
  989SOL    HW1 3023   0.454   1.072   3.289
  989SOL    HW2 3024   0.456   0.934   3.225
  990SOL     OW 3025   4.205   1.963   1.172
  990SOL    HW1 3026   4.222   1.869   1.165
  990SOL    HW2 3027   4.203   1.993   1.082
  991SOL     OW 3028   2.633   4.823   4.278
  991SOL    HW1 3029   2.569   4.894   4.276
  991SOL    HW2 3030   2.604   4.763   4.209
  992SOL     OW 3031   3.571   3.695   3.676
  992SOL    HW1 3032   3.533   3.621   3.628
  992SOL    HW2 3033   3.663   3.671   3.688
  993SOL     OW 3034   2.505   1.715   2.140
  993SOL    HW1 3035   2.432   1.670   2.097
  993SOL    HW2 3036   2.527   1.658   2.214
  994SOL     OW 3037   0.337   1.908   2.574
  994SOL    HW1 3038   0.417   1.857   2.582
  994SOL    HW2 3039   0.360   1.995   2.607
  995SOL     OW 3040   1.115   2.411   1.978
  995SOL    HW1 3041   1.080   2.366   2.054
  995SOL    HW2 3042   1.101   2.504   1.996
  996SOL     OW 3043   3.720   3.863   3.978
  996SOL    HW1 3044   3.759   3.778   3.995
  996SOL    HW2 3045   3.627   3.852   3.999
  997SOL     OW 3046   3.371   2.544   0.928
  997SOL    HW1 3047   3.343   2.529   1.018
  997SOL    HW2 3048   3.445   2.485   0.916
  998SOL     OW 3049   0.358   0.024   4.298
  998SOL    HW1 3050   0.381   4.917   4.331
  998SOL    HW2 3051   0.372   0.082   4.373
  999SOL     OW 3052   0.034   2.313   4.701
  999SOL    HW1 3053   0.077   2.395   4.723
  999SOL    HW2 3054   4.931   2.315   4.748
 1000SOL     OW 3055   0.033   2.671   1.848
 1000SOL    HW1 3056   4.925   2.696   1.875
 1000SOL    HW2 3057   0.074   2.754   1.820
 1001SOL     OW 3058   4.356   2.600   4.900
 1001SOL    HW1 3059   4.321   2.684   4.931
 1001SOL    HW2 3060   4.316   2.535   4.958
 1002SOL     OW 3061   2.902   3.779   1.747
 1002SOL    HW1 3062   2.822   3.730   1.763
 1002SOL    HW2 3063   2.873   3.861   1.708
 1003SOL     OW 3064   2.255   1.682   4.013
 1003SOL    HW1 3065   2.319   1.715   3.949
 1003SOL    HW2 3066   2.175   1.670   3.961
 1004SOL     OW 3067   3.430   0.847   0.345
 1004SOL    HW1 3068   3.458   0.927   0.300
 1004SOL    HW2 3069   3.487   0.841   0.422
 1005SOL     OW 3070   2.822   4.131   2.579
 1005SOL    HW1 3071   2.869   4.199   2.627
 1005SOL    HW2 3072   2.730   4.142   2.604
 1006SOL     OW 3073   0.234   4.483   4.249
 1006SOL    HW1 3074   0.180   4.476   4.170
 1006SOL    HW2 3075   0.268   4.572   4.247
 1007SOL     OW 3076   3.143   4.189   3.597
 1007SOL    HW1 3077   3.227   4.192   3.552
 1007SOL    HW2 3078   3.132   4.097   3.622
 1008SOL     OW 3079   2.243   3.471   0.240
 1008SOL    HW1 3080   2.211   3.527   0.310
 1008SOL    HW2 3081   2.262   3.531   0.168
 1009SOL     OW 3082   0.380   2.419   2.073
 1009SOL    HW1 3083   0.290   2.403   2.045
 1009SOL    HW2 3084   0.383   2.386   2.163
 1010SOL     OW 3085   1.817   3.474   3.199
 1010SOL    HW1 3086   1.886   3.487   3.264
 1010SOL    HW2 3087   1.742   3.524   3.233
 1011SOL     OW 3088   2.468   0.894   3.308
 1011SOL    HW1 3089   2.373   0.891   3.314
 1011SOL    HW2 3090   2.488   0.865   3.219
 1012SOL     OW 3091   3.967   1.292   4.828
 1012SOL    HW1 3092   4.006   1.271   4.743
 1012SOL    HW2 3093   3.975   1.387   4.835
 1013SOL     OW 3094   0.679   4.974   2.858
 1013SOL    HW1 3095   0.737   0.058   2.900
 1013SOL    HW2 3096   0.732   4.938   2.786
 1014SOL     OW 3097   3.006   4.809   3.368
 1014SOL    HW1 3098   2.992   4.781   3.278
 1014SOL    HW2 3099   3.085   4.762   3.396
 1015SOL     OW 3100   2.146   3.988   2.027
 1015SOL    HW1 3101   2.175   3.897   2.031
 1015SOL    HW2 3102   2.063   3.985   1.979
 1016SOL     OW 3103   2.723   0.567   4.349
 1016SOL    HW1 3104   2.798   0.605   4.395
 1016SOL    HW2 3105   2.665   0.536   4.419
 1017SOL     OW 3106   1.209   2.877   0.120
 1017SOL    HW1 3107   1.197   2.821   0.197
 1017SOL    HW2 3108   1.147   2.842   0.056
 1018SOL     OW 3109   3.808   3.752   2.189
 1018SOL    HW1 3110   3.753   3.819   2.228
 1018SOL    HW2 3111   3.754   3.673   2.188
 1019SOL     OW 3112   2.344   0.879   0.041
 1019SOL    HW1 3113   2.264   0.878   4.970
 1019SOL    HW2 3114   2.362   0.787   0.058
 1020SOL     OW 3115   0.639   3.248   1.735
 1020SOL    HW1 3116   0.628   3.330   1.687
 1020SOL    HW2 3117   0.559   3.199   1.719
 1021SOL     OW 3118   0.325   1.792   0.898
 1021SOL    HW1 3119   0.331   1.887   0.898
 1021SOL    HW2 3120   0.236   1.774   0.870
 1022SOL     OW 3121   4.583   2.693   1.011
 1022SOL    HW1 3122   4.509   2.738   1.050
 1022SOL    HW2 3123   4.659   2.728   1.057
 1023SOL     OW 3124   3.183   4.230   4.077
 1023SOL    HW1 3125   3.162   4.257   3.987
 1023SOL    HW2 3126   3.168   4.308   4.130
 1024SOL     OW 3127   0.566   3.794   0.525
 1024SOL    HW1 3128   0.490   3.819   0.576
 1024SOL    HW2 3129   0.634   3.857   0.549
 1025SOL     OW 3130   0.736   2.753   1.008
 1025SOL    HW1 3131   0.760   2.677   1.062
 1025SOL    HW2 3132   0.781   2.738   0.925
 1026SOL     OW 3133   2.528   4.231   2.945
 1026SOL    HW1 3134   2.552   4.139   2.934
 1026SOL    HW2 3135   2.611   4.274   2.965
 1027SOL     OW 3136   2.495   2.486   1.496
 1027SOL    HW1 3137   2.551   2.558   1.524
 1027SOL    HW2 3138   2.531   2.409   1.540
 1028SOL     OW 3139   1.062   0.738   3.548
 1028SOL    HW1 3140   1.107   0.807   3.498
 1028SOL    HW2 3141   0.974   0.773   3.564
 1029SOL     OW 3142   4.039   2.318   0.467
 1029SOL    HW1 3143   4.038   2.401   0.420
 1029SOL    HW2 3144   4.121   2.276   0.441
 1030SOL     OW 3145   4.523   1.916   4.105
 1030SOL    HW1 3146   4.491   1.826   4.110
 1030SOL    HW2 3147   4.461   1.960   4.047
 1031SOL     OW 3148   0.377   0.007   3.346
 1031SOL    HW1 3149   0.305   0.069   3.358
 1031SOL    HW2 3150   0.399   0.013   3.253
 1032SOL     OW 3151   1.122   3.600   4.047
 1032SOL    HW1 3152   1.164   3.596   4.132
 1032SOL    HW2 3153   1.041   3.550   4.058
 1033SOL     OW 3154   2.509   2.956   4.953
 1033SOL    HW1 3155   2.508   2.921   4.863
 1033SOL    HW2 3156   2.419   2.946   0.004
 1034SOL     OW 3157   4.289   3.813   4.730
 1034SOL    HW1 3158   4.239   3.885   4.770
 1034SOL    HW2 3159   4.306   3.753   4.803
 1035SOL     OW 3160   4.665   2.947   4.910
 1035SOL    HW1 3161   4.696   2.864   4.946
 1035SOL    HW2 3162   4.578   2.927   4.875
 1036SOL     OW 3163   4.195   3.281   0.107
 1036SOL    HW1 3164   4.234   3.368   0.093
 1036SOL    HW2 3165   4.258   3.221   0.068
 1037SOL     OW 3166   2.266   2.741   3.170
 1037SOL    HW1 3167   2.221   2.659   3.153
 1037SOL    HW2 3168   2.312   2.761   3.089
 1038SOL     OW 3169   0.643   2.484   4.707
 1038SOL    HW1 3170   0.593   2.418   4.755
 1038SOL    HW2 3171   0.696   2.434   4.645
 1039SOL     OW 3172   2.688   3.726   4.775
 1039SOL    HW1 3173   2.742   3.711   4.852
 1039SOL    HW2 3174   2.751   3.741   4.704
 1040SOL     OW 3175   1.980   2.774   4.639
 1040SOL    HW1 3176   1.895   2.813   4.660
 1040SOL    HW2 3177   2.043   2.829   4.687
 1041SOL     OW 3178   4.798   3.955   1.119
 1041SOL    HW1 3179   4.787   4.050   1.125
 1041SOL    HW2 3180   4.712   3.919   1.144
 1042SOL     OW 3181   1.805   4.074   3.296
 1042SOL    HW1 3182   1.871   4.102   3.360
 1042SOL    HW2 3183   1.762   3.999   3.338
 1043SOL     OW 3184   3.451   1.642   3.277
 1043SOL    HW1 3185   3.382   1.708   3.288
 1043SOL    HW2 3186   3.460   1.633   3.182
 1044SOL     OW 3187   4.778   1.407   4.123
 1044SOL    HW1 3188   4.844   1.382   4.187
 1044SOL    HW2 3189   4.762   1.327   4.073
 1045SOL     OW 3190   4.291   2.239   2.445
 1045SOL    HW1 3191   4.201   2.220   2.418
 1045SOL    HW2 3192   4.331   2.280   2.369
 1046SOL     OW 3193   2.692   4.137   1.714
 1046SOL    HW1 3194   2.771   4.097   1.678
 1046SOL    HW2 3195   2.720   4.174   1.798
 1047SOL     OW 3196   0.812   3.884   3.469
 1047SOL    HW1 3197   0.825   3.791   3.483
 1047SOL    HW2 3198   0.727   3.903   3.510
 1048SOL     OW 3199   2.658   3.718   0.897
 1048SOL    HW1 3200   2.616   3.803   0.912
 1048SOL    HW2 3201   2.623   3.661   0.965
 1049SOL     OW 3202   0.845   4.011   0.304
 1049SOL    HW1 3203   0.821   3.950   0.234
 1049SOL    HW2 3204   0.763   4.056   0.325
 1050SOL     OW 3205   1.673   4.231   0.999
 1050SOL    HW1 3206   1.584   4.222   0.965
 1050SOL    HW2 3207   1.695   4.323   0.984
 1051SOL     OW 3208   1.366   2.359   0.199
 1051SOL    HW1 3209   1.320   2.334   0.119
 1051SOL    HW2 3210   1.360   2.455   0.201
 1052SOL     OW 3211   4.049   3.987   3.636
 1052SOL    HW1 3212   4.133   4.006   3.594
 1052SOL    HW2 3213   4.073   3.950   3.721
 1053SOL     OW 3214   4.385   1.052   4.765
 1053SOL    HW1 3215   4.383   0.966   4.807
 1053SOL    HW2 3216   4.337   1.040   4.683
 1054SOL     OW 3217   4.164   3.838   1.599
 1054SOL    HW1 3218   4.180   3.908   1.536
 1054SOL    HW2 3219   4.244   3.834   1.651
 1055SOL     OW 3220   3.507   4.336   2.363
 1055SOL    HW1 3221   3.594   4.356   2.327
 1055SOL    HW2 3222   3.524   4.264   2.425
 1056SOL     OW 3223   1.380   1.880   3.570
 1056SOL    HW1 3224   1.290   1.852   3.553
 1056SOL    HW2 3225   1.432   1.800   3.562
 1057SOL     OW 3226   2.559   3.317   4.755
 1057SOL    HW1 3227   2.525   3.402   4.729
 1057SOL    HW2 3228   2.483   3.259   4.753
 1058SOL     OW 3229   1.736   0.703   1.215
 1058SOL    HW1 3230   1.726   0.613   1.186
 1058SOL    HW2 3231   1.665   0.751   1.171
 1059SOL     OW 3232   3.559   0.997   4.556
 1059SOL    HW1 3233   3.526   0.979   4.644
 1059SOL    HW2 3234   3.653   1.010   4.567
 1060SOL     OW 3235   3.400   0.389   1.870
 1060SOL    HW1 3236   3.446   0.365   1.951
 1060SOL    HW2 3237   3.375   0.481   1.883
 1061SOL     OW 3238   1.124   0.199   0.035
 1061SOL    HW1 3239   1.219   0.212   0.040
 1061SOL    HW2 3240   1.102   0.216   4.924
 1062SOL     OW 3241   3.568   4.653   0.834
 1062SOL    HW1 3242   3.569   4.645   0.930
 1062SOL    HW2 3243   3.494   4.710   0.816
 1063SOL     OW 3244   2.100   2.294   3.927
 1063SOL    HW1 3245   2.094   2.199   3.936
 1063SOL    HW2 3246   2.184   2.316   3.967
 1064SOL     OW 3247   3.189   0.001   4.241
 1064SOL    HW1 3248   3.101   4.947   4.255
 1064SOL    HW2 3249   3.177   0.078   4.186
 1065SOL     OW 3250   2.910   3.207   4.067
 1065SOL    HW1 3251   2.888   3.204   4.161
 1065SOL    HW2 3252   2.996   3.167   4.061
 1066SOL     OW 3253   0.032   3.426   4.089
 1066SOL    HW1 3254   0.108   3.410   4.033
 1066SOL    HW2 3255   0.049   3.375   4.168
 1067SOL     OW 3256   1.894   0.323   4.125
 1067SOL    HW1 3257   1.864   0.242   4.083
 1067SOL    HW2 3258   1.890   0.388   4.055
 1068SOL     OW 3259   0.602   1.778   1.718
 1068SOL    HW1 3260   0.509   1.799   1.704
 1068SOL    HW2 3261   0.622   1.714   1.649
 1069SOL     OW 3262   0.139   3.608   0.005
 1069SOL    HW1 3263   0.087   3.674   4.939
 1069SOL    HW2 3264   0.157   3.646   0.091
 1070SOL     OW 3265   1.808   0.615   3.660
 1070SOL    HW1 3266   1.721   0.616   3.702
 1070SOL    HW2 3267   1.789   0.624   3.566
 1071SOL     OW 3268   1.073   2.750   1.909
 1071SOL    HW1 3269   1.109   2.815   1.848
 1071SOL    HW2 3270   0.981   2.741   1.883
 1072SOL     OW 3271   0.465   3.729   3.657
 1072SOL    HW1 3272   0.480   3.645   3.614
 1072SOL    HW2 3273   0.480   3.711   3.750
 1073SOL     OW 3274   4.661   0.161   1.565
 1073SOL    HW1 3275   4.600   0.233   1.584
 1073SOL    HW2 3276   4.689   0.176   1.475
 1074SOL     OW 3277   4.919   3.086   2.385
 1074SOL    HW1 3278   0.023   3.130   2.369
 1074SOL    HW2 3279   4.912   3.023   2.314
 1075SOL     OW 3280   3.369   0.717   0.121
 1075SOL    HW1 3281   3.397   0.763   0.200
 1075SOL    HW2 3282   3.447   0.670   0.092
 1076SOL     OW 3283   1.619   3.913   0.349
 1076SOL    HW1 3284   1.624   3.870   0.434
 1076SOL    HW2 3285   1.526   3.927   0.334
 1077SOL     OW 3286   1.198   2.719   1.457
 1077SOL    HW1 3287   1.131   2.653   1.474
 1077SOL    HW2 3288   1.281   2.671   1.463
 1078SOL     OW 3289   1.437   2.847   2.125
 1078SOL    HW1 3290   1.381   2.924   2.137
 1078SOL    HW2 3291   1.449   2.811   2.213
 1079SOL     OW 3292   2.987   1.209   0.656
 1079SOL    HW1 3293   2.896   1.233   0.675
 1079SOL    HW2 3294   2.981   1.128   0.605
 1080SOL     OW 3295   3.186   2.585   0.686
 1080SOL    HW1 3296   3.250   2.656   0.677
 1080SOL    HW2 3297   3.237   2.505   0.675
 1081SOL     OW 3298   4.395   4.862   1.088
 1081SOL    HW1 3299   4.384   4.951   1.056
 1081SOL    HW2 3300   4.306   4.828   1.097
 1082SOL     OW 3301   3.699   4.108   0.175
 1082SOL    HW1 3302   3.666   4.019   0.172
 1082SOL    HW2 3303   3.768   4.106   0.242
 1083SOL     OW 3304   0.334   2.737   1.975
 1083SOL    HW1 3305   0.370   2.659   1.932
 1083SOL    HW2 3306   0.266   2.702   2.034
 1084SOL     OW 3307   3.142   2.295   2.399
 1084SOL    HW1 3308   3.082   2.359   2.362
 1084SOL    HW2 3309   3.106   2.210   2.372
 1085SOL     OW 3310   4.469   4.889   0.724
 1085SOL    HW1 3311   4.481   4.912   0.632
 1085SOL    HW2 3312   4.557   4.866   0.754
 1086SOL     OW 3313   1.762   3.435   2.052
 1086SOL    HW1 3314   1.781   3.526   2.029
 1086SOL    HW2 3315   1.674   3.437   2.089
 1087SOL     OW 3316   1.977   4.905   0.699
 1087SOL    HW1 3317   2.045   4.872   0.758
 1087SOL    HW2 3318   1.907   4.936   0.757
 1088SOL     OW 3319   4.876   0.377   3.353
 1088SOL    HW1 3320   4.859   0.372   3.448
 1088SOL    HW2 3321   4.789   0.368   3.314
 1089SOL     OW 3322   0.513   4.482   4.416
 1089SOL    HW1 3323   0.424   4.449   4.398
 1089SOL    HW2 3324   0.511   4.574   4.388
 1090SOL     OW 3325   1.758   3.638   3.584
 1090SOL    HW1 3326   1.718   3.719   3.553
 1090SOL    HW2 3327   1.694   3.601   3.645
 1091SOL     OW 3328   0.063   2.564   0.321
 1091SOL    HW1 3329   4.972   2.618   0.285
 1091SOL    HW2 3330   0.098   2.518   0.245
 1092SOL     OW 3331   4.810   0.768   0.680
 1092SOL    HW1 3332   4.779   0.740   0.595
 1092SOL    HW2 3333   4.731   0.790   0.729
 1093SOL     OW 3334   4.724   4.666   0.447
 1093SOL    HW1 3335   4.666   4.742   0.453
 1093SOL    HW2 3336   4.779   4.683   0.370
 1094SOL     OW 3337   4.473   2.722   2.289
 1094SOL    HW1 3338   4.413   2.684   2.353
 1094SOL    HW2 3339   4.421   2.787   2.242
 1095SOL     OW 3340   2.933   2.379   3.224
 1095SOL    HW1 3341   2.906   2.317   3.292
 1095SOL    HW2 3342   2.932   2.327   3.143
 1096SOL     OW 3343   2.942   3.335   1.044
 1096SOL    HW1 3344   2.969   3.246   1.022
 1096SOL    HW2 3345   2.993   3.390   0.984
 1097SOL     OW 3346   3.116   1.453   1.715
 1097SOL    HW1 3347   3.079   1.462   1.803
 1097SOL    HW2 3348   3.064   1.384   1.674
 1098SOL     OW 3349   2.317   4.280   0.542
 1098SOL    HW1 3350   2.251   4.331   0.496
 1098SOL    HW2 3351   2.269   4.206   0.578
 1099SOL     OW 3352   4.936   0.999   4.029
 1099SOL    HW1 3353   0.033   1.020   4.083
 1099SOL    HW2 3354   4.958   0.916   3.988
 1100SOL     OW 3355   2.174   4.075   0.611
 1100SOL    HW1 3356   2.140   4.065   0.522
 1100SOL    HW2 3357   2.110   4.131   0.654
 1101SOL     OW 3358   0.804   3.628   0.498
 1101SOL    HW1 3359   0.765   3.602   0.581
 1101SOL    HW2 3360   0.746   3.698   0.466
 1102SOL     OW 3361   1.936   1.785   2.386
 1102SOL    HW1 3362   1.927   1.812   2.477
 1102SOL    HW2 3363   1.879   1.708   2.378
 1103SOL     OW 3364   4.489   4.746   2.565
 1103SOL    HW1 3365   4.536   4.754   2.482
 1103SOL    HW2 3366   4.523   4.817   2.619
 1104SOL     OW 3367   0.178   0.680   2.337
 1104SOL    HW1 3368   0.243   0.740   2.301
 1104SOL    HW2 3369   0.228   0.602   2.361
 1105SOL     OW 3370   0.278   4.299   4.427
 1105SOL    HW1 3371   0.246   4.364   4.364
 1105SOL    HW2 3372   0.200   4.268   4.472
 1106SOL     OW 3373   4.777   1.706   0.447
 1106SOL    HW1 3374   4.793   1.747   0.361
 1106SOL    HW2 3375   4.764   1.780   0.506
 1107SOL     OW 3376   1.200   1.042   2.511
 1107SOL    HW1 3377   1.137   1.105   2.476
 1107SOL    HW2 3378   1.268   1.097   2.551
 1108SOL     OW 3379   0.435   2.174   2.661
 1108SOL    HW1 3380   0.487   2.158   2.582
 1108SOL    HW2 3381   0.498   2.208   2.724
 1109SOL     OW 3382   4.540   2.686   4.673
 1109SOL    HW1 3383   4.591   2.608   4.649
 1109SOL    HW2 3384   4.508   2.667   4.761
 1110SOL     OW 3385   0.027   2.004   0.844
 1110SOL    HW1 3386   0.113   1.999   0.802
 1110SOL    HW2 3387   0.045   1.987   0.937
 1111SOL     OW 3388   0.673   2.224   3.234
 1111SOL    HW1 3389   0.749   2.280   3.219
 1111SOL    HW2 3390   0.677   2.160   3.163
 1112SOL     OW 3391   0.884   4.015   4.016
 1112SOL    HW1 3392   0.796   4.017   3.977
 1112SOL    HW2 3393   0.882   4.085   4.081
 1113SOL     OW 3394   4.166   4.555   3.038
 1113SOL    HW1 3395   4.127   4.581   3.122
 1113SOL    HW2 3396   4.179   4.637   2.992
 1114SOL     OW 3397   1.067   1.254   2.787
 1114SOL    HW1 3398   1.142   1.263   2.846
 1114SOL    HW2 3399   1.003   1.317   2.820
 1115SOL     OW 3400   0.314   4.439   3.924
 1115SOL    HW1 3401   0.404   4.471   3.922
 1115SOL    HW2 3402   0.321   4.344   3.918
 1116SOL     OW 3403   3.021   2.828   3.809
 1116SOL    HW1 3404   3.110   2.861   3.819
 1116SOL    HW2 3405   2.997   2.798   3.897
 1117SOL     OW 3406   3.215   3.644   3.047
 1117SOL    HW1 3407   3.175   3.662   2.962
 1117SOL    HW2 3408   3.306   3.622   3.027
 1118SOL     OW 3409   3.648   1.867   2.008
 1118SOL    HW1 3410   3.679   1.956   2.025
 1118SOL    HW2 3411   3.723   1.811   2.026
 1119SOL     OW 3412   1.191   1.258   4.699
 1119SOL    HW1 3413   1.175   1.250   4.793
 1119SOL    HW2 3414   1.285   1.270   4.691
 1120SOL     OW 3415   2.838   0.172   0.962
 1120SOL    HW1 3416   2.899   0.199   1.030
 1120SOL    HW2 3417   2.894   0.140   0.891
 1121SOL     OW 3418   0.070   3.338   2.508
 1121SOL    HW1 3419   0.128   3.270   2.473
 1121SOL    HW2 3420   0.088   3.339   2.602
 1122SOL     OW 3421   2.547   3.082   1.537
 1122SOL    HW1 3422   2.483   3.044   1.597
 1122SOL    HW2 3423   2.538   3.030   1.457
 1123SOL     OW 3424   0.321   0.281   3.696
 1123SOL    HW1 3425   0.252   0.297   3.761
 1123SOL    HW2 3426   0.395   0.333   3.726
 1124SOL     OW 3427   2.591   4.463   0.752
 1124SOL    HW1 3428   2.614   4.514   0.830
 1124SOL    HW2 3429   2.544   4.524   0.696
 1125SOL     OW 3430   0.922   1.552   2.499
 1125SOL    HW1 3431   0.997   1.513   2.455
 1125SOL    HW2 3432   0.956   1.578   2.585
 1126SOL     OW 3433   0.374   2.532   0.042
 1126SOL    HW1 3434   0.453   2.533   0.097
 1126SOL    HW2 3435   0.381   2.612   4.969
 1127SOL     OW 3436   1.013   4.857   1.857
 1127SOL    HW1 3437   0.925   4.819   1.868
 1127SOL    HW2 3438   1.058   4.797   1.798
 1128SOL     OW 3439   1.390   4.353   3.988
 1128SOL    HW1 3440   1.485   4.355   3.995
 1128SOL    HW2 3441   1.371   4.268   3.949
 1129SOL     OW 3442   3.733   2.822   4.352
 1129SOL    HW1 3443   3.644   2.804   4.384
 1129SOL    HW2 3444   3.765   2.892   4.408
 1130SOL     OW 3445   4.840   1.417   1.908
 1130SOL    HW1 3446   4.813   1.509   1.901
 1130SOL    HW2 3447   4.918   1.419   1.962
 1131SOL     OW 3448   2.632   0.740   0.652
 1131SOL    HW1 3449   2.685   0.788   0.589
 1131SOL    HW2 3450   2.543   0.773   0.637
 1132SOL     OW 3451   3.173   1.769   3.259
 1132SOL    HW1 3452   3.180   1.677   3.281
 1132SOL    HW2 3453   3.095   1.774   3.203
 1133SOL     OW 3454   2.861   3.636   1.113
 1133SOL    HW1 3455   2.817   3.657   1.031
 1133SOL    HW2 3456   2.874   3.720   1.155
 1134SOL     OW 3457   2.264   1.723   4.318
 1134SOL    HW1 3458   2.206   1.701   4.245
 1134SOL    HW2 3459   2.351   1.700   4.287
 1135SOL     OW 3460   2.459   0.762   3.057
 1135SOL    HW1 3461   2.531   0.755   2.995
 1135SOL    HW2 3462   2.409   0.681   3.046
 1136SOL     OW 3463   3.541   0.053   0.792
 1136SOL    HW1 3464   3.611   0.069   0.728
 1136SOL    HW2 3465   3.587   0.041   0.875
 1137SOL     OW 3466   4.355   0.026   3.583
 1137SOL    HW1 3467   4.321   0.016   3.494
 1137SOL    HW2 3468   4.285   0.073   3.630
 1138SOL     OW 3469   3.441   1.602   1.899
 1138SOL    HW1 3470   3.410   1.676   1.952
 1138SOL    HW2 3471   3.376   1.593   1.829
 1139SOL     OW 3472   2.670   4.787   4.927
 1139SOL    HW1 3473   2.668   4.692   4.919
 1139SOL    HW2 3474   2.639   4.804   0.036
 1140SOL     OW 3475   0.614   3.008   1.248
 1140SOL    HW1 3476   0.694   2.957   1.262
 1140SOL    HW2 3477   0.645   3.091   1.212
 1141SOL     OW 3478   3.876   2.946   3.864
 1141SOL    HW1 3479   3.838   3.033   3.878
 1141SOL    HW2 3480   3.968   2.956   3.889
 1142SOL     OW 3481   0.491   2.478   2.724
 1142SOL    HW1 3482   0.447   2.480   2.639
 1142SOL    HW2 3483   0.562   2.415   2.713
 1143SOL     OW 3484   3.535   1.557   4.260
 1143SOL    HW1 3485   3.567   1.611   4.332
 1143SOL    HW2 3486   3.441   1.549   4.276
 1144SOL     OW 3487   3.863   1.160   0.940
 1144SOL    HW1 3488   3.780   1.145   0.986
 1144SOL    HW2 3489   3.930   1.152   1.007
 1145SOL     OW 3490   4.300   1.727   0.537
 1145SOL    HW1 3491   4.281   1.654   0.596
 1145SOL    HW2 3492   4.363   1.781   0.585
 1146SOL     OW 3493   3.693   0.147   2.981
 1146SOL    HW1 3494   3.697   0.243   2.977
 1146SOL    HW2 3495   3.754   0.124   3.051
 1147SOL     OW 3496   4.181   0.837   2.095
 1147SOL    HW1 3497   4.101   0.791   2.120
 1147SOL    HW2 3498   4.243   0.768   2.070
 1148SOL     OW 3499   1.485   2.305   1.788
 1148SOL    HW1 3500   1.462   2.232   1.846
 1148SOL    HW2 3501   1.427   2.296   1.713
 1149SOL     OW 3502   2.125   1.032   1.897
 1149SOL    HW1 3503   2.151   0.944   1.925
 1149SOL    HW2 3504   2.037   1.020   1.861
 1150SOL     OW 3505   0.823   2.711   1.858
 1150SOL    HW1 3506   0.786   2.623   1.856
 1150SOL    HW2 3507   0.761   2.764   1.807
 1151SOL     OW 3508   4.867   4.106   3.028
 1151SOL    HW1 3509   4.803   4.130   2.961
 1151SOL    HW2 3510   4.855   4.170   3.097
 1152SOL     OW 3511   3.956   4.761   2.767
 1152SOL    HW1 3512   3.914   4.769   2.681
 1152SOL    HW2 3513   4.024   4.828   2.767
 1153SOL     OW 3514   4.551   1.491   2.510
 1153SOL    HW1 3515   4.465   1.531   2.497
 1153SOL    HW2 3516   4.533   1.408   2.554
 1154SOL     OW 3517   0.671   2.063   2.991
 1154SOL    HW1 3518   0.612   1.987   2.985
 1154SOL    HW2 3519   0.758   2.026   2.979
 1155SOL     OW 3520   0.430   1.052   2.402
 1155SOL    HW1 3521   0.359   1.110   2.432
 1155SOL    HW2 3522   0.510   1.097   2.429
 1156SOL     OW 3523   4.555   4.332   1.219
 1156SOL    HW1 3524   4.567   4.401   1.285
 1156SOL    HW2 3525   4.487   4.366   1.161
 1157SOL     OW 3526   4.680   2.268   1.522
 1157SOL    HW1 3527   4.688   2.357   1.489
 1157SOL    HW2 3528   4.763   2.250   1.565
 1158SOL     OW 3529   2.997   1.043   4.024
 1158SOL    HW1 3530   3.030   1.102   4.092
 1158SOL    HW2 3531   2.911   1.079   4.001
 1159SOL     OW 3532   3.291   2.324   1.631
 1159SOL    HW1 3533   3.208   2.281   1.615
 1159SOL    HW2 3534   3.353   2.253   1.645
 1160SOL     OW 3535   2.979   4.906   0.150
 1160SOL    HW1 3536   3.057   4.952   0.120
 1160SOL    HW2 3537   2.980   4.823   0.103
 1161SOL     OW 3538   3.524   1.914   0.041
 1161SOL    HW1 3539   3.542   1.835   4.971
 1161SOL    HW2 3540   3.556   1.895   0.129
 1162SOL     OW 3541   2.032   0.855   3.896
 1162SOL    HW1 3542   2.066   0.766   3.908
 1162SOL    HW2 3543   2.037   0.871   3.802
 1163SOL     OW 3544   4.012   2.725   1.357
 1163SOL    HW1 3545   4.067   2.794   1.395
 1163SOL    HW2 3546   4.070   2.650   1.348
 1164SOL     OW 3547   2.259   0.579   1.711
 1164SOL    HW1 3548   2.283   0.649   1.650
 1164SOL    HW2 3549   2.237   0.505   1.655
 1165SOL     OW 3550   0.146   1.447   3.407
 1165SOL    HW1 3551   0.231   1.435   3.451
 1165SOL    HW2 3552   0.121   1.360   3.379
 1166SOL     OW 3553   3.828   3.389   3.537
 1166SOL    HW1 3554   3.808   3.440   3.615
 1166SOL    HW2 3555   3.923   3.373   3.542
 1167SOL     OW 3556   2.055   1.239   2.685
 1167SOL    HW1 3557   2.027   1.213   2.597
 1167SOL    HW2 3558   2.032   1.332   2.690
 1168SOL     OW 3559   0.663   3.525   1.860
 1168SOL    HW1 3560   0.576   3.517   1.823
 1168SOL    HW2 3561   0.659   3.476   1.942
 1169SOL     OW 3562   4.798   0.186   2.278
 1169SOL    HW1 3563   4.848   0.264   2.300
 1169SOL    HW2 3564   4.811   0.175   2.184
 1170SOL     OW 3565   4.160   0.453   0.408
 1170SOL    HW1 3566   4.176   0.543   0.436
 1170SOL    HW2 3567   4.181   0.400   0.485
 1171SOL     OW 3568   2.241   1.376   0.766
 1171SOL    HW1 3569   2.316   1.407   0.818
 1171SOL    HW2 3570   2.165   1.404   0.816
 1172SOL     OW 3571   0.444   3.463   2.050
 1172SOL    HW1 3572   0.515   3.412   2.090
 1172SOL    HW2 3573   0.364   3.422   2.081
 1173SOL     OW 3574   0.602   2.530   1.975
 1173SOL    HW1 3575   0.518   2.501   2.011
 1173SOL    HW2 3576   0.624   2.608   2.026
 1174SOL     OW 3577   1.090   1.757   2.285
 1174SOL    HW1 3578   1.161   1.794   2.234
 1174SOL    HW2 3579   1.080   1.668   2.250
 1175SOL     OW 3580   0.488   3.128   2.874
 1175SOL    HW1 3581   0.551   3.192   2.906
 1175SOL    HW2 3582   0.532   3.044   2.885
 1176SOL     OW 3583   0.905   4.035   4.360
 1176SOL    HW1 3584   0.996   4.011   4.342
 1176SOL    HW2 3585   0.890   4.115   4.310
 1177SOL     OW 3586   2.991   0.186   3.057
 1177SOL    HW1 3587   2.910   0.136   3.042
 1177SOL    HW2 3588   2.988   0.209   3.149
 1178SOL     OW 3589   3.576   0.949   1.391
 1178SOL    HW1 3590   3.517   0.990   1.455
 1178SOL    HW2 3591   3.520   0.890   1.341
 1179SOL     OW 3592   3.127   3.658   1.811
 1179SOL    HW1 3593   3.096   3.650   1.902
 1179SOL    HW2 3594   3.055   3.701   1.765
 1180SOL     OW 3595   4.376   3.754   4.048
 1180SOL    HW1 3596   4.378   3.749   4.144
 1180SOL    HW2 3597   4.468   3.746   4.023
 1181SOL     OW 3598   3.746   0.508   1.638
 1181SOL    HW1 3599   3.839   0.515   1.659
 1181SOL    HW2 3600   3.709   0.592   1.665
 1182SOL     OW 3601   3.460   2.914   1.556
 1182SOL    HW1 3602   3.393   2.934   1.621
 1182SOL    HW2 3603   3.410   2.889   1.478
 1183SOL     OW 3604   2.405   4.588   1.928
 1183SOL    HW1 3605   2.374   4.508   1.885
 1183SOL    HW2 3606   2.370   4.583   2.016
 1184SOL     OW 3607   1.680   2.303   3.423
 1184SOL    HW1 3608   1.772   2.326   3.439
 1184SOL    HW2 3609   1.633   2.385   3.437
 1185SOL     OW 3610   1.641   3.900   2.096
 1185SOL    HW1 3611   1.658   3.974   2.155
 1185SOL    HW2 3612   1.586   3.937   2.027
 1186SOL     OW 3613   2.013   2.246   1.401
 1186SOL    HW1 3614   1.951   2.280   1.466
 1186SOL    HW2 3615   2.056   2.324   1.367
 1187SOL     OW 3616   4.848   4.928   0.095
 1187SOL    HW1 3617   4.921   0.004   0.071
 1187SOL    HW2 3618   4.840   4.866   0.023
 1188SOL     OW 3619   0.355   4.202   3.527
 1188SOL    HW1 3620   0.274   4.221   3.479
 1188SOL    HW2 3621   0.386   4.287   3.557
 1189SOL     OW 3622   0.342   2.236   0.632
 1189SOL    HW1 3623   0.400   2.300   0.673
 1189SOL    HW2 3624   0.255   2.277   0.635
 1190SOL     OW 3625   0.476   3.469   3.579
 1190SOL    HW1 3626   0.478   3.496   3.487
 1190SOL    HW2 3627   0.408   3.402   3.583
 1191SOL     OW 3628   1.847   4.977   0.487
 1191SOL    HW1 3629   1.770   0.039   0.526
 1191SOL    HW2 3630   1.893   4.938   0.560
 1192SOL     OW 3631   4.568   2.763   1.346
 1192SOL    HW1 3632   4.545   2.794   1.434
 1192SOL    HW2 3633   4.485   2.760   1.299
 1193SOL     OW 3634   1.625   3.769   0.579
 1193SOL    HW1 3635   1.708   3.726   0.601
 1193SOL    HW2 3636   1.563   3.697   0.566
 1194SOL     OW 3637   2.992   2.480   0.846
 1194SOL    HW1 3638   3.059   2.516   0.788
 1194SOL    HW2 3639   3.031   2.486   0.934
 1195SOL     OW 3640   2.339   3.378   4.375
 1195SOL    HW1 3641   2.406   3.431   4.418
 1195SOL    HW2 3642   2.384   3.341   4.299
 1196SOL     OW 3643   3.293   3.836   4.453
 1196SOL    HW1 3644   3.324   3.746   4.466
 1196SOL    HW2 3645   3.347   3.889   4.511
 1197SOL     OW 3646   3.114   0.450   0.839
 1197SOL    HW1 3647   3.175   0.521   0.857
 1197SOL    HW2 3648   3.169   0.374   0.824
 1198SOL     OW 3649   3.650   2.400   0.983
 1198SOL    HW1 3650   3.742   2.413   1.007
 1198SOL    HW2 3651   3.602   2.402   1.065
 1199SOL     OW 3652   3.112   4.205   0.569
 1199SOL    HW1 3653   3.034   4.149   0.567
 1199SOL    HW2 3654   3.105   4.258   0.489
 1200SOL     OW 3655   2.712   4.338   1.506
 1200SOL    HW1 3656   2.706   4.283   1.584
 1200SOL    HW2 3657   2.656   4.294   1.441
 1201SOL     OW 3658   1.313   1.652   3.222
 1201SOL    HW1 3659   1.238   1.609   3.182
 1201SOL    HW2 3660   1.388   1.617   3.175
 1202SOL     OW 3661   1.086   3.947   4.812
 1202SOL    HW1 3662   1.046   4.018   4.762
 1202SOL    HW2 3663   1.018   3.880   4.818
 1203SOL     OW 3664   4.171   2.095   4.573
 1203SOL    HW1 3665   4.156   2.154   4.499
 1203SOL    HW2 3666   4.221   2.022   4.536
 1204SOL     OW 3667   4.361   1.408   1.418
 1204SOL    HW1 3668   4.363   1.320   1.381
 1204SOL    HW2 3669   4.440   1.450   1.385
 1205SOL     OW 3670   2.311   3.279   3.120
 1205SOL    HW1 3671   2.258   3.241   3.191
 1205SOL    HW2 3672   2.311   3.211   3.052
 1206SOL     OW 3673   2.039   3.381   2.257
 1206SOL    HW1 3674   2.102   3.441   2.297
 1206SOL    HW2 3675   1.955   3.427   2.264
 1207SOL     OW 3676   3.723   3.588   1.884
 1207SOL    HW1 3677   3.719   3.650   1.811
 1207SOL    HW2 3678   3.672   3.630   1.953
 1208SOL     OW 3679   1.455   2.445   2.449
 1208SOL    HW1 3680   1.433   2.389   2.523
 1208SOL    HW2 3681   1.460   2.385   2.374
 1209SOL     OW 3682   0.081   4.206   2.433
 1209SOL    HW1 3683   0.128   4.150   2.370
 1209SOL    HW2 3684   0.150   4.242   2.488
 1210SOL     OW 3685   0.455   1.352   1.463
 1210SOL    HW1 3686   0.379   1.361   1.405
 1210SOL    HW2 3687   0.418   1.338   1.550
 1211SOL     OW 3688   3.793   1.437   4.190
 1211SOL    HW1 3689   3.749   1.353   4.177
 1211SOL    HW2 3690   3.723   1.497   4.216
 1212SOL     OW 3691   0.876   2.884   1.316
 1212SOL    HW1 3692   0.936   2.950   1.350
 1212SOL    HW2 3693   0.923   2.841   1.245
 1213SOL     OW 3694   4.888   3.811   3.339
 1213SOL    HW1 3695   4.879   3.750   3.413
 1213SOL    HW2 3696   4.807   3.861   3.339
 1214SOL     OW 3697   4.754   1.095   2.906
 1214SOL    HW1 3698   4.692   1.155   2.946
 1214SOL    HW2 3699   4.766   1.128   2.817
 1215SOL     OW 3700   2.793   2.190   2.222
 1215SOL    HW1 3701   2.883   2.160   2.234
 1215SOL    HW2 3702   2.748   2.167   2.304
 1216SOL     OW 3703   1.553   0.688   3.096
 1216SOL    HW1 3704   1.600   0.692   3.179
 1216SOL    HW2 3705   1.555   0.595   3.072
 1217SOL     OW 3706   0.174   2.899   0.086
 1217SOL    HW1 3707   0.260   2.871   0.118
 1217SOL    HW2 3708   0.187   2.989   0.058
 1218SOL     OW 3709   4.006   2.227   2.898
 1218SOL    HW1 3710   4.032   2.196   2.811
 1218SOL    HW2 3711   4.024   2.153   2.956
 1219SOL     OW 3712   0.832   2.813   0.375
 1219SOL    HW1 3713   0.784   2.761   0.439
 1219SOL    HW2 3714   0.818   2.767   0.292
 1220SOL     OW 3715   4.963   0.245   1.701
 1220SOL    HW1 3716   4.869   0.239   1.686
 1220SOL    HW2 3717   0.020   0.176   1.646
 1221SOL     OW 3718   1.585   4.347   0.102
 1221SOL    HW1 3719   1.537   4.264   0.095
 1221SOL    HW2 3720   1.528   4.403   0.155
 1222SOL     OW 3721   4.596   3.679   1.761
 1222SOL    HW1 3722   4.683   3.639   1.761
 1222SOL    HW2 3723   4.559   3.655   1.846
 1223SOL     OW 3724   1.188   0.334   1.173
 1223SOL    HW1 3725   1.272   0.287   1.172
 1223SOL    HW2 3726   1.171   0.350   1.266
 1224SOL     OW 3727   3.170   3.986   2.803
 1224SOL    HW1 3728   3.132   4.064   2.764
 1224SOL    HW2 3729   3.136   3.913   2.750
 1225SOL     OW 3730   1.232   4.350   2.128
 1225SOL    HW1 3731   1.271   4.351   2.041
 1225SOL    HW2 3732   1.294   4.401   2.182
 1226SOL     OW 3733   1.046   4.438   1.561
 1226SOL    HW1 3734   1.047   4.426   1.656
 1226SOL    HW2 3735   1.066   4.351   1.526
 1227SOL     OW 3736   2.155   0.591   2.454
 1227SOL    HW1 3737   2.209   0.622   2.381
 1227SOL    HW2 3738   2.187   0.503   2.472
 1228SOL     OW 3739   3.922   0.197   2.110
 1228SOL    HW1 3740   3.843   0.186   2.163
 1228SOL    HW2 3741   3.948   0.108   2.085
 1229SOL     OW 3742   4.947   4.444   0.972
 1229SOL    HW1 3743   4.882   4.509   0.946
 1229SOL    HW2 3744   4.900   4.386   1.032
 1230SOL     OW 3745   3.911   2.662   4.606
 1230SOL    HW1 3746   3.925   2.578   4.650
 1230SOL    HW2 3747   3.816   2.669   4.598
 1231SOL     OW 3748   0.862   0.521   1.251
 1231SOL    HW1 3749   0.939   0.519   1.195
 1231SOL    HW2 3750   0.795   0.474   1.202
 1232SOL     OW 3751   0.397   1.798   3.667
 1232SOL    HW1 3752   0.354   1.877   3.634
 1232SOL    HW2 3753   0.350   1.726   3.625
 1233SOL     OW 3754   2.878   0.905   4.372
 1233SOL    HW1 3755   2.970   0.916   4.396
 1233SOL    HW2 3756   2.836   0.873   4.451
 1234SOL     OW 3757   1.520   3.416   2.911
 1234SOL    HW1 3758   1.537   3.396   3.003
 1234SOL    HW2 3759   1.534   3.510   2.903
 1235SOL     OW 3760   2.975   3.080   0.934
 1235SOL    HW1 3761   2.914   3.080   0.861
 1235SOL    HW2 3762   3.052   3.034   0.902
 1236SOL     OW 3763   2.429   4.490   0.313
 1236SOL    HW1 3764   2.346   4.482   0.360
 1236SOL    HW2 3765   2.426   4.578   0.274
 1237SOL     OW 3766   0.536   2.368   3.422
 1237SOL    HW1 3767   0.571   2.316   3.350
 1237SOL    HW2 3768   0.447   2.335   3.436
 1238SOL     OW 3769   3.366   4.062   0.861
 1238SOL    HW1 3770   3.302   4.132   0.876
 1238SOL    HW2 3771   3.418   4.093   0.787
 1239SOL     OW 3772   4.947   2.819   4.162
 1239SOL    HW1 3773   0.014   2.795   4.242
 1239SOL    HW2 3774   4.970   2.752   4.098
 1240SOL     OW 3775   4.635   1.842   0.899
 1240SOL    HW1 3776   4.629   1.830   0.994
 1240SOL    HW2 3777   4.587   1.767   0.863
 1241SOL     OW 3778   0.274   3.187   3.880
 1241SOL    HW1 3779   0.192   3.158   3.841
 1241SOL    HW2 3780   0.256   3.276   3.911
 1242SOL     OW 3781   3.468   3.707   2.715
 1242SOL    HW1 3782   3.475   3.703   2.810
 1242SOL    HW2 3783   3.487   3.798   2.693
 1243SOL     OW 3784   2.687   2.037   1.243
 1243SOL    HW1 3785   2.696   1.943   1.259
 1243SOL    HW2 3786   2.596   2.047   1.214
 1244SOL     OW 3787   2.344   2.492   2.176
 1244SOL    HW1 3788   2.356   2.514   2.084
 1244SOL    HW2 3789   2.308   2.572   2.215
 1245SOL     OW 3790   2.785   2.764   4.013
 1245SOL    HW1 3791   2.789   2.780   4.108
 1245SOL    HW2 3792   2.736   2.839   3.979
 1246SOL     OW 3793   4.238   1.265   3.476
 1246SOL    HW1 3794   4.151   1.260   3.516
 1246SOL    HW2 3795   4.229   1.332   3.408
 1247SOL     OW 3796   1.675   2.100   1.297
 1247SOL    HW1 3797   1.691   2.059   1.382
 1247SOL    HW2 3798   1.758   2.093   1.250
 1248SOL     OW 3799   0.675   0.716   1.767
 1248SOL    HW1 3800   0.646   0.685   1.853
 1248SOL    HW2 3801   0.721   0.798   1.785
 1249SOL     OW 3802   3.222   0.579   4.744
 1249SOL    HW1 3803   3.303   0.628   4.756
 1249SOL    HW2 3804   3.229   0.506   4.805
 1250SOL     OW 3805   3.297   2.907   4.860
 1250SOL    HW1 3806   3.208   2.872   4.867
 1250SOL    HW2 3807   3.285   3.001   4.850
 1251SOL     OW 3808   4.770   4.082   3.526
 1251SOL    HW1 3809   4.737   4.126   3.604
 1251SOL    HW2 3810   4.862   4.108   3.520
 1252SOL     OW 3811   2.908   2.760   4.478
 1252SOL    HW1 3812   2.924   2.780   4.570
 1252SOL    HW2 3813   2.928   2.667   4.469
 1253SOL     OW 3814   2.309   0.748   1.523
 1253SOL    HW1 3815   2.387   0.802   1.533
 1253SOL    HW2 3816   2.236   0.809   1.532
 1254SOL     OW 3817   3.466   2.887   4.482
 1254SOL    HW1 3818   3.379   2.885   4.522
 1254SOL    HW2 3819   3.456   2.937   4.402
 1255SOL     OW 3820   1.345   2.478   2.834
 1255SOL    HW1 3821   1.291   2.538   2.783
 1255SOL    HW2 3822   1.356   2.402   2.777
 1256SOL     OW 3823   2.761   3.008   4.336
 1256SOL    HW1 3824   2.820   2.940   4.370
 1256SOL    HW2 3825   2.723   3.047   4.415
 1257SOL     OW 3826   3.077   3.268   1.936
 1257SOL    HW1 3827   3.046   3.316   2.012
 1257SOL    HW2 3828   3.098   3.337   1.872
 1258SOL     OW 3829   1.135   3.602   3.411
 1258SOL    HW1 3830   1.185   3.651   3.475
 1258SOL    HW2 3831   1.052   3.581   3.455
 1259SOL     OW 3832   0.839   4.952   1.369
 1259SOL    HW1 3833   0.842   4.907   1.284
 1259SOL    HW2 3834   0.905   4.908   1.422
 1260SOL     OW 3835   0.171   4.486   0.348
 1260SOL    HW1 3836   0.148   4.426   0.419
 1260SOL    HW2 3837   0.191   4.430   0.274
 1261SOL     OW 3838   3.387   4.752   3.559
 1261SOL    HW1 3839   3.337   4.714   3.487
 1261SOL    HW2 3840   3.464   4.695   3.567
 1262SOL     OW 3841   2.481   3.937   0.988
 1262SOL    HW1 3842   2.416   3.998   1.024
 1262SOL    HW2 3843   2.472   3.945   0.893
 1263SOL     OW 3844   4.371   3.472   4.182
 1263SOL    HW1 3845   4.282   3.472   4.147
 1263SOL    HW2 3846   4.387   3.381   4.209
 1264SOL     OW 3847   0.857   2.585   3.954
 1264SOL    HW1 3848   0.919   2.637   3.902
 1264SOL    HW2 3849   0.863   2.497   3.917
 1265SOL     OW 3850   2.916   3.702   4.242
 1265SOL    HW1 3851   2.895   3.775   4.300
 1265SOL    HW2 3852   2.875   3.626   4.285
 1266SOL     OW 3853   3.914   1.714   3.927
 1266SOL    HW1 3854   3.930   1.808   3.920
 1266SOL    HW2 3855   3.926   1.680   3.839
 1267SOL     OW 3856   2.588   0.456   4.962
 1267SOL    HW1 3857   2.647   0.452   0.057
 1267SOL    HW2 3858   2.639   0.420   4.889
 1268SOL     OW 3859   3.703   3.930   0.440
 1268SOL    HW1 3860   3.635   3.921   0.506
 1268SOL    HW2 3861   3.712   3.842   0.403
 1269SOL     OW 3862   3.479   1.130   3.352
 1269SOL    HW1 3863   3.412   1.148   3.419
 1269SOL    HW2 3864   3.515   1.216   3.330
 1270SOL     OW 3865   2.210   3.798   2.782
 1270SOL    HW1 3866   2.199   3.707   2.808
 1270SOL    HW2 3867   2.191   3.799   2.688
 1271SOL     OW 3868   2.860   4.537   3.666
 1271SOL    HW1 3869   2.914   4.522   3.743
 1271SOL    HW2 3870   2.847   4.632   3.664
 1272SOL     OW 3871   2.176   1.202   4.259
 1272SOL    HW1 3872   2.156   1.290   4.228
 1272SOL    HW2 3873   2.262   1.210   4.300
 1273SOL     OW 3874   0.316   2.632   0.429
 1273SOL    HW1 3875   0.330   2.720   0.394
 1273SOL    HW2 3876   0.228   2.608   0.400
 1274SOL     OW 3877   3.492   1.348   2.844
 1274SOL    HW1 3878   3.519   1.408   2.774
 1274SOL    HW2 3879   3.571   1.298   2.863
 1275SOL     OW 3880   1.947   0.695   0.646
 1275SOL    HW1 3881   2.035   0.716   0.616
 1275SOL    HW2 3882   1.930   0.607   0.612
 1276SOL     OW 3883   0.178   2.872   1.325
 1276SOL    HW1 3884   0.256   2.819   1.313
 1276SOL    HW2 3885   0.187   2.944   1.262
 1277SOL     OW 3886   2.387   3.414   1.252
 1277SOL    HW1 3887   2.478   3.434   1.274
 1277SOL    HW2 3888   2.375   3.324   1.283
 1278SOL     OW 3889   4.735   3.394   4.134
 1278SOL    HW1 3890   4.826   3.398   4.105
 1278SOL    HW2 3891   4.739   3.369   4.226
 1279SOL     OW 3892   1.586   2.762   1.109
 1279SOL    HW1 3893   1.604   2.838   1.164
 1279SOL    HW2 3894   1.504   2.726   1.144
 1280SOL     OW 3895   0.830   3.826   4.506
 1280SOL    HW1 3896   0.850   3.904   4.454
 1280SOL    HW2 3897   0.737   3.810   4.493
 1281SOL     OW 3898   1.624   3.578   3.808
 1281SOL    HW1 3899   1.713   3.566   3.840
 1281SOL    HW2 3900   1.586   3.643   3.867
 1282SOL     OW 3901   1.380   0.572   0.338
 1282SOL    HW1 3902   1.446   0.637   0.315
 1282SOL    HW2 3903   1.297   0.618   0.327
 1283SOL     OW 3904   2.967   0.734   3.426
 1283SOL    HW1 3905   2.890   0.785   3.400
 1283SOL    HW2 3906   3.041   0.793   3.411
 1284SOL     OW 3907   2.266   2.059   4.196
 1284SOL    HW1 3908   2.289   2.137   4.145
 1284SOL    HW2 3909   2.351   2.022   4.221
 1285SOL     OW 3910   0.336   2.844   4.547
 1285SOL    HW1 3911   0.309   2.919   4.601
 1285SOL    HW2 3912   0.384   2.883   4.474
 1286SOL     OW 3913   3.042   0.226   1.595
 1286SOL    HW1 3914   3.085   0.309   1.572
 1286SOL    HW2 3915   3.075   0.164   1.530
 1287SOL     OW 3916   1.256   3.368   3.282
 1287SOL    HW1 3917   1.194   3.296   3.292
 1287SOL    HW2 3918   1.205   3.446   3.304
 1288SOL     OW 3919   3.711   0.311   2.408
 1288SOL    HW1 3920   3.631   0.332   2.455
 1288SOL    HW2 3921   3.686   0.240   2.349
 1289SOL     OW 3922   0.423   1.194   0.694
 1289SOL    HW1 3923   0.458   1.283   0.699
 1289SOL    HW2 3924   0.360   1.198   0.622
 1290SOL     OW 3925   1.919   4.574   2.974
 1290SOL    HW1 3926   1.895   4.492   2.930
 1290SOL    HW2 3927   1.964   4.547   3.054
 1291SOL     OW 3928   3.726   3.948   3.346
 1291SOL    HW1 3929   3.794   3.884   3.367
 1291SOL    HW2 3930   3.647   3.896   3.332
 1292SOL     OW 3931   0.415   4.909   1.578
 1292SOL    HW1 3932   0.489   4.958   1.541
 1292SOL    HW2 3933   0.356   4.895   1.504
 1293SOL     OW 3934   0.799   0.981   3.198
 1293SOL    HW1 3935   0.736   1.052   3.205
 1293SOL    HW2 3936   0.756   0.906   3.239
 1294SOL     OW 3937   2.245   2.000   3.808
 1294SOL    HW1 3938   2.210   1.918   3.772
 1294SOL    HW2 3939   2.326   1.973   3.852
 1295SOL     OW 3940   2.834   1.945   4.499
 1295SOL    HW1 3941   2.785   1.946   4.581
 1295SOL    HW2 3942   2.893   1.870   4.507
 1296SOL     OW 3943   2.397   3.556   4.010
 1296SOL    HW1 3944   2.439   3.622   4.064
 1296SOL    HW2 3945   2.465   3.528   3.948
 1297SOL     OW 3946   4.221   4.747   0.488
 1297SOL    HW1 3947   4.291   4.705   0.439
 1297SOL    HW2 3948   4.150   4.758   0.424
 1298SOL     OW 3949   4.733   0.767   1.095
 1298SOL    HW1 3950   4.728   0.861   1.078
 1298SOL    HW2 3951   4.814   0.755   1.144
 1299SOL     OW 3952   1.928   2.313   0.502
 1299SOL    HW1 3953   1.914   2.394   0.550
 1299SOL    HW2 3954   1.840   2.288   0.472
 1300SOL     OW 3955   3.451   1.894   4.676
 1300SOL    HW1 3956   3.499   1.977   4.664
 1300SOL    HW2 3957   3.360   1.916   4.656
 1301SOL     OW 3958   0.198   3.313   4.764
 1301SOL    HW1 3959   0.103   3.321   4.761
 1301SOL    HW2 3960   0.227   3.383   4.823
 1302SOL     OW 3961   1.809   3.529   2.364
 1302SOL    HW1 3962   1.857   3.545   2.446
 1302SOL    HW2 3963   1.750   3.604   2.356
 1303SOL     OW 3964   4.284   0.964   3.336
 1303SOL    HW1 3965   4.380   0.957   3.335
 1303SOL    HW2 3966   4.261   0.964   3.428
 1304SOL     OW 3967   4.670   3.953   0.283
 1304SOL    HW1 3968   4.700   3.905   0.360
 1304SOL    HW2 3969   4.612   4.020   0.318
 1305SOL     OW 3970   4.883   3.175   2.955
 1305SOL    HW1 3971   4.884   3.220   3.040
 1305SOL    HW2 3972   4.975   3.153   2.939
 1306SOL     OW 3973   2.703   3.666   3.634
 1306SOL    HW1 3974   2.790   3.683   3.670
 1306SOL    HW2 3975   2.715   3.673   3.540
 1307SOL     OW 3976   2.205   0.071   3.002
 1307SOL    HW1 3977   2.163   4.973   2.967
 1307SOL    HW2 3978   2.167   0.082   3.089
 1308SOL     OW 3979   3.690   0.058   1.304
 1308SOL    HW1 3980   3.719   4.979   1.374
 1308SOL    HW2 3981   3.730   0.142   1.325
 1309SOL     OW 3982   0.375   2.300   1.029
 1309SOL    HW1 3983   0.360   2.292   1.123
 1309SOL    HW2 3984   0.470   2.311   1.021
 1310SOL     OW 3985   3.008   0.922   0.186
 1310SOL    HW1 3986   3.036   0.864   0.257
 1310SOL    HW2 3987   3.071   0.908   0.116
 1311SOL     OW 3988   4.231   4.594   3.411
 1311SOL    HW1 3989   4.306   4.619   3.357
 1311SOL    HW2 3990   4.155   4.623   3.360
 1312SOL     OW 3991   2.596   4.958   3.057
 1312SOL    HW1 3992   2.596   0.045   3.126
 1312SOL    HW2 3993   2.685   4.959   3.022
 1313SOL     OW 3994   1.511   0.906   4.137
 1313SOL    HW1 3995   1.549   0.872   4.057
 1313SOL    HW2 3996   1.577   0.966   4.172
 1314SOL     OW 3997   2.733   0.283   2.109
 1314SOL    HW1 3998   2.725   0.376   2.088
 1314SOL    HW2 3999   2.776   0.245   2.032
 1315SOL     OW 4000   1.217   0.346   4.059
 1315SOL    HW1 4001   1.185   0.292   3.986
 1315SOL    HW2 4002   1.291   0.394   4.021
 1316SOL     OW 4003   0.327   2.187   4.243
 1316SOL    HW1 4004   0.368   2.230   4.318
 1316SOL    HW2 4005   0.369   2.226   4.167
 1317SOL     OW 4006   0.042   1.973   4.540
 1317SOL    HW1 4007   0.120   2.025   4.561
 1317SOL    HW2 4008   0.076   1.893   4.502
 1318SOL     OW 4009   0.719   0.780   3.960
 1318SOL    HW1 4010   0.693   0.848   3.897
 1318SOL    HW2 4011   0.678   0.700   3.926
 1319SOL     OW 4012   4.512   2.819   3.879
 1319SOL    HW1 4013   4.556   2.903   3.893
 1319SOL    HW2 4014   4.534   2.795   3.789
 1320SOL     OW 4015   0.468   1.441   4.952
 1320SOL    HW1 4016   0.400   1.401   4.899
 1320SOL    HW2 4017   0.431   1.445   0.060
 1321SOL     OW 4018   0.134   0.084   4.094
 1321SOL    HW1 4019   0.222   0.108   4.122
 1321SOL    HW2 4020   0.078   0.112   4.167
 1322SOL     OW 4021   1.717   3.200   3.493
 1322SOL    HW1 4022   1.649   3.252   3.451
 1322SOL    HW2 4023   1.719   3.118   3.443
 1323SOL     OW 4024   3.951   3.935   2.030
 1323SOL    HW1 4025   3.918   3.871   2.093
 1323SOL    HW2 4026   3.965   4.015   2.081
 1324SOL     OW 4027   1.734   2.950   4.708
 1324SOL    HW1 4028   1.703   3.036   4.681
 1324SOL    HW2 4029   1.797   2.967   4.778
 1325SOL     OW 4030   4.860   4.292   4.344
 1325SOL    HW1 4031   4.858   4.306   4.249
 1325SOL    HW2 4032   4.829   4.375   4.381
 1326SOL     OW 4033   2.742   1.493   4.852
 1326SOL    HW1 4034   2.795   1.417   4.828
 1326SOL    HW2 4035   2.750   1.499   4.947
 1327SOL     OW 4036   2.478   1.192   3.249
 1327SOL    HW1 4037   2.395   1.154   3.220
 1327SOL    HW2 4038   2.545   1.138   3.206
 1328SOL     OW 4039   4.331   2.139   3.052
 1328SOL    HW1 4040   4.238   2.118   3.053
 1328SOL    HW2 4041   4.334   2.234   3.044
 1329SOL     OW 4042   2.974   1.649   2.351
 1329SOL    HW1 4043   3.059   1.655   2.307
 1329SOL    HW2 4044   2.982   1.709   2.425
 1330SOL     OW 4045   2.584   4.970   1.477
 1330SOL    HW1 4046   2.609   0.078   1.505
 1330SOL    HW2 4047   2.520   0.004   1.407
 1331SOL     OW 4048   0.890   0.705   2.881
 1331SOL    HW1 4049   0.922   0.795   2.875
 1331SOL    HW2 4050   0.795   0.714   2.887
 1332SOL     OW 4051   3.687   3.156   3.579
 1332SOL    HW1 4052   3.694   3.117   3.492
 1332SOL    HW2 4053   3.739   3.237   3.573
 1333SOL     OW 4054   4.371   4.828   0.126
 1333SOL    HW1 4055   4.365   4.841   0.031
 1333SOL    HW2 4056   4.425   4.900   0.157
 1334SOL     OW 4057   2.734   2.870   3.091
 1334SOL    HW1 4058   2.743   2.965   3.094
 1334SOL    HW2 4059   2.642   2.855   3.067
 1335SOL     OW 4060   0.271   4.640   1.560
 1335SOL    HW1 4061   0.352   4.648   1.611
 1335SOL    HW2 4062   0.295   4.673   1.473
 1336SOL     OW 4063   2.955   4.037   1.594
 1336SOL    HW1 4064   3.010   3.970   1.554
 1336SOL    HW2 4065   2.880   4.045   1.536
 1337SOL     OW 4066   0.682   2.797   2.780
 1337SOL    HW1 4067   0.697   2.806   2.686
 1337SOL    HW2 4068   0.702   2.884   2.815
 1338SOL     OW 4069   2.793   4.588   1.477
 1338SOL    HW1 4070   2.820   4.571   1.387
 1338SOL    HW2 4071   2.770   4.502   1.513
 1339SOL     OW 4072   3.703   2.966   4.104
 1339SOL    HW1 4073   3.732   2.904   4.037
 1339SOL    HW2 4074   3.702   2.915   4.185
 1340SOL     OW 4075   2.840   0.211   4.163
 1340SOL    HW1 4076   2.783   0.169   4.098
 1340SOL    HW2 4077   2.847   0.302   4.134
 1341SOL     OW 4078   1.483   2.920   3.888
 1341SOL    HW1 4079   1.538   2.944   3.963
 1341SOL    HW2 4080   1.545   2.890   3.821
 1342SOL     OW 4081   1.620   4.170   3.570
 1342SOL    HW1 4082   1.714   4.157   3.585
 1342SOL    HW2 4083   1.602   4.256   3.607
 1343SOL     OW 4084   1.715   1.418   0.267
 1343SOL    HW1 4085   1.714   1.513   0.252
 1343SOL    HW2 4086   1.732   1.380   0.180
 1344SOL     OW 4087   0.033   0.601   0.737
 1344SOL    HW1 4088   0.053   0.646   0.819
 1344SOL    HW2 4089   4.933   0.642   0.706
 1345SOL     OW 4090   0.028   2.708   4.918
 1345SOL    HW1 4091   0.045   2.615   4.936
 1345SOL    HW2 4092   0.075   2.755   0.006
 1346SOL     OW 4093   4.896   3.097   1.301
 1346SOL    HW1 4094   4.945   3.045   1.365
 1346SOL    HW2 4095   4.890   3.184   1.340
 1347SOL     OW 4096   2.131   4.169   3.296
 1347SOL    HW1 4097   2.124   4.081   3.258
 1347SOL    HW2 4098   2.206   4.209   3.251
 1348SOL     OW 4099   4.569   2.922   4.568
 1348SOL    HW1 4100   4.548   2.834   4.597
 1348SOL    HW2 4101   4.647   2.912   4.514
 1349SOL     OW 4102   1.868   4.753   2.262
 1349SOL    HW1 4103   1.948   4.776   2.215
 1349SOL    HW2 4104   1.858   4.824   2.327
 1350SOL     OW 4105   0.875   3.046   0.548
 1350SOL    HW1 4106   0.888   2.980   0.480
 1350SOL    HW2 4107   0.943   3.111   0.532
 1351SOL     OW 4108   4.466   1.464   0.128
 1351SOL    HW1 4109   4.429   1.434   0.045
 1351SOL    HW2 4110   4.416   1.419   0.195
 1352SOL     OW 4111   1.528   0.305   1.583
 1352SOL    HW1 4112   1.489   0.391   1.598
 1352SOL    HW2 4113   1.464   0.243   1.617
 1353SOL     OW 4114   0.495   3.699   4.824
 1353SOL    HW1 4115   0.556   3.645   4.875
 1353SOL    HW2 4116   0.462   3.762   4.888
 1354SOL     OW 4117   3.749   0.074   0.047
 1354SOL    HW1 4118   3.677   0.034   4.979
 1354SOL    HW2 4119   3.745   0.167   0.024
 1355SOL     OW 4120   1.848   0.895   2.477
 1355SOL    HW1 4121   1.837   0.802   2.460
 1355SOL    HW2 4122   1.881   0.931   2.394
 1356SOL     OW 4123   1.991   4.177   1.666
 1356SOL    HW1 4124   2.037   4.150   1.586
 1356SOL    HW2 4125   1.909   4.214   1.636
 1357SOL     OW 4126   2.440   0.282   2.808
 1357SOL    HW1 4127   2.351   0.280   2.843
 1357SOL    HW2 4128   2.462   0.191   2.790
 1358SOL     OW 4129   4.649   2.604   2.673
 1358SOL    HW1 4130   4.657   2.586   2.767
 1358SOL    HW2 4131   4.649   2.699   2.667
 1359SOL     OW 4132   1.274   4.890   3.405
 1359SOL    HW1 4133   1.263   4.801   3.371
 1359SOL    HW2 4134   1.276   4.880   3.500
 1360SOL     OW 4135   4.331   2.028   0.191
 1360SOL    HW1 4136   4.280   2.052   0.270
 1360SOL    HW2 4137   4.313   1.935   0.178
 1361SOL     OW 4138   0.800   1.413   4.722
 1361SOL    HW1 4139   0.819   1.396   4.814
 1361SOL    HW2 4140   0.787   1.327   4.683
 1362SOL     OW 4141   3.626   2.784   1.932
 1362SOL    HW1 4142   3.662   2.718   1.992
 1362SOL    HW2 4143   3.656   2.757   1.845
 1363SOL     OW 4144   4.281   0.644   4.112
 1363SOL    HW1 4145   4.337   0.591   4.169
 1363SOL    HW2 4146   4.192   0.623   4.142
 1364SOL     OW 4147   4.278   3.765   0.125
 1364SOL    HW1 4148   4.350   3.800   0.072
 1364SOL    HW2 4149   4.318   3.748   0.211
 1365SOL     OW 4150   3.570   3.708   4.974
 1365SOL    HW1 4151   3.508   3.697   4.902
 1365SOL    HW2 4152   3.643   3.757   4.934
 1366SOL     OW 4153   2.725   0.787   4.587
 1366SOL    HW1 4154   2.807   0.766   4.631
 1366SOL    HW2 4155   2.657   0.750   4.642
 1367SOL     OW 4156   3.137   4.535   4.441
 1367SOL    HW1 4157   3.204   4.584   4.488
 1367SOL    HW2 4158   3.063   4.595   4.435
 1368SOL     OW 4159   0.931   4.906   2.163
 1368SOL    HW1 4160   1.003   4.880   2.106
 1368SOL    HW2 4161   0.859   4.848   2.139
 1369SOL     OW 4162   0.780   2.152   1.852
 1369SOL    HW1 4163   0.813   2.216   1.914
 1369SOL    HW2 4164   0.808   2.067   1.887
 1370SOL     OW 4165   1.193   0.145   2.599
 1370SOL    HW1 4166   1.118   0.141   2.659
 1370SOL    HW2 4167   1.205   0.054   2.570
 1371SOL     OW 4168   0.329   4.697   0.277
 1371SOL    HW1 4169   0.376   4.722   0.357
 1371SOL    HW2 4170   0.271   4.626   0.304
 1372SOL     OW 4171   4.118   0.026   3.813
 1372SOL    HW1 4172   4.024   0.023   3.835
 1372SOL    HW2 4173   4.145   4.914   3.813
 1373SOL     OW 4174   1.619   0.451   0.191
 1373SOL    HW1 4175   1.696   0.395   0.197
 1373SOL    HW2 4176   1.643   0.531   0.237
 1374SOL     OW 4177   4.106   2.264   1.484
 1374SOL    HW1 4178   4.045   2.205   1.440
 1374SOL    HW2 4179   4.186   2.260   1.431
 1375SOL     OW 4180   3.711   4.543   0.248
 1375SOL    HW1 4181   3.745   4.524   0.161
 1375SOL    HW2 4182   3.777   4.507   0.308
 1376SOL     OW 4183   2.563   0.030   0.450
 1376SOL    HW1 4184   2.566   4.979   0.540
 1376SOL    HW2 4185   2.613   4.946   0.400
 1377SOL     OW 4186   1.025   1.112   3.292
 1377SOL    HW1 4187   0.955   1.055   3.260
 1377SOL    HW2 4188   1.077   1.056   3.350
 1378SOL     OW 4189   4.626   2.476   4.978
 1378SOL    HW1 4190   4.666   2.414   4.917
 1378SOL    HW2 4191   4.536   2.486   4.947
 1379SOL     OW 4192   2.586   2.181   3.866
 1379SOL    HW1 4193   2.594   2.092   3.830
 1379SOL    HW2 4194   2.661   2.190   3.924
 1380SOL     OW 4195   2.474   1.721   3.846
 1380SOL    HW1 4196   2.555   1.669   3.847
 1380SOL    HW2 4197   2.502   1.807   3.813
 1381SOL     OW 4198   2.830   1.857   0.598
 1381SOL    HW1 4199   2.782   1.786   0.555
 1381SOL    HW2 4200   2.768   1.891   0.663
 1382SOL     OW 4201   4.885   0.429   0.389
 1382SOL    HW1 4202   4.925   0.502   0.342
 1382SOL    HW2 4203   4.815   0.470   0.440
 1383SOL     OW 4204   3.820   4.840   3.118
 1383SOL    HW1 4205   3.747   4.843   3.180
 1383SOL    HW2 4206   3.791   4.780   3.049
 1384SOL     OW 4207   0.923   0.623   3.892
 1384SOL    HW1 4208   0.850   0.682   3.909
 1384SOL    HW2 4209   0.963   0.609   3.978
 1385SOL     OW 4210   1.023   1.385   3.222
 1385SOL    HW1 4211   0.963   1.420   3.288
 1385SOL    HW2 4212   1.031   1.292   3.244
 1386SOL     OW 4213   4.597   2.492   2.438
 1386SOL    HW1 4214   4.676   2.511   2.387
 1386SOL    HW2 4215   4.602   2.551   2.513
 1387SOL     OW 4216   2.963   4.730   0.857
 1387SOL    HW1 4217   2.987   4.644   0.825
 1387SOL    HW2 4218   3.042   4.783   0.846
 1388SOL     OW 4219   1.365   4.506   2.324
 1388SOL    HW1 4220   1.386   4.432   2.382
 1388SOL    HW2 4221   1.438   4.567   2.336
 1389SOL     OW 4222   0.338   3.451   4.547
 1389SOL    HW1 4223   0.331   3.382   4.614
 1389SOL    HW2 4224   0.433   3.466   4.538
 1390SOL     OW 4225   3.131   4.141   4.702
 1390SOL    HW1 4226   3.050   4.192   4.703
 1390SOL    HW2 4227   3.177   4.171   4.624
 1391SOL     OW 4228   4.944   4.697   0.271
 1391SOL    HW1 4229   0.007   4.616   0.245
 1391SOL    HW2 4230   4.965   4.759   0.201
 1392SOL     OW 4231   4.754   2.231   3.598
 1392SOL    HW1 4232   4.778   2.272   3.681
 1392SOL    HW2 4233   4.743   2.304   3.537
 1393SOL     OW 4234   2.991   3.439   0.010
 1393SOL    HW1 4235   2.959   3.352   4.967
 1393SOL    HW2 4236   2.987   3.441   0.106
 1394SOL     OW 4237   1.621   0.466   2.654
 1394SOL    HW1 4238   1.587   0.532   2.592
 1394SOL    HW2 4239   1.549   0.451   2.715
 1395SOL     OW 4240   3.476   4.948   1.992
 1395SOL    HW1 4241   3.570   4.931   1.986
 1395SOL    HW2 4242   3.470   0.052   2.037
 1396SOL     OW 4243   0.823   4.382   4.905
 1396SOL    HW1 4244   0.809   4.356   0.016
 1396SOL    HW2 4245   0.821   4.478   4.908
 1397SOL     OW 4246   3.689   4.134   2.177
 1397SOL    HW1 4247   3.741   4.213   2.189
 1397SOL    HW2 4248   3.713   4.102   2.090
 1398SOL     OW 4249   2.206   4.884   0.441
 1398SOL    HW1 4250   2.123   4.856   0.480
 1398SOL    HW2 4251   2.185   4.966   0.397
 1399SOL     OW 4252   1.757   0.291   1.414
 1399SOL    HW1 4253   1.691   0.289   1.485
 1399SOL    HW2 4254   1.818   0.221   1.438
 1400SOL     OW 4255   4.230   2.529   3.400
 1400SOL    HW1 4256   4.171   2.599   3.427
 1400SOL    HW2 4257   4.300   2.531   3.466
 1401SOL     OW 4258   4.700   0.290   4.264
 1401SOL    HW1 4259   4.692   0.307   4.170
 1401SOL    HW2 4260   4.794   0.275   4.278
 1402SOL     OW 4261   2.016   2.799   2.226
 1402SOL    HW1 4262   2.021   2.868   2.292
 1402SOL    HW2 4263   1.924   2.772   2.227
 1403SOL     OW 4264   4.498   1.509   1.075
 1403SOL    HW1 4265   4.516   1.603   1.072
 1403SOL    HW2 4266   4.565   1.470   1.018
 1404SOL     OW 4267   4.612   1.500   0.591
 1404SOL    HW1 4268   4.656   1.577   0.554
 1404SOL    HW2 4269   4.573   1.456   0.516
 1405SOL     OW 4270   1.972   3.020   0.916
 1405SOL    HW1 4271   1.879   3.000   0.930
 1405SOL    HW2 4272   1.971   3.096   0.857
 1406SOL     OW 4273   3.481   1.277   4.602
 1406SOL    HW1 4274   3.504   1.221   4.528
 1406SOL    HW2 4275   3.561   1.280   4.655
 1407SOL     OW 4276   4.204   3.867   2.188
 1407SOL    HW1 4277   4.189   3.843   2.279
 1407SOL    HW2 4278   4.168   3.955   2.180
 1408SOL     OW 4279   2.840   1.430   2.828
 1408SOL    HW1 4280   2.909   1.458   2.769
 1408SOL    HW2 4281   2.852   1.483   2.907
 1409SOL     OW 4282   3.519   3.235   1.511
 1409SOL    HW1 4283   3.518   3.140   1.523
 1409SOL    HW2 4284   3.612   3.257   1.508
 1410SOL     OW 4285   4.361   4.838   4.831
 1410SOL    HW1 4286   4.300   4.765   4.839
 1410SOL    HW2 4287   4.307   4.914   4.812
 1411SOL     OW 4288   0.565   0.995   0.831
 1411SOL    HW1 4289   0.639   1.036   0.876
 1411SOL    HW2 4290   0.518   1.069   0.791
 1412SOL     OW 4291   0.912   3.459   0.825
 1412SOL    HW1 4292   0.818   3.453   0.810
 1412SOL    HW2 4293   0.920   3.504   0.909
 1413SOL     OW 4294   4.121   4.324   0.771
 1413SOL    HW1 4295   4.077   4.253   0.818
 1413SOL    HW2 4296   4.050   4.386   0.750
 1414SOL     OW 4297   3.940   0.120   2.612
 1414SOL    HW1 4298   4.004   0.109   2.683
 1414SOL    HW2 4299   3.855   0.116   2.655
 1415SOL     OW 4300   4.203   3.998   4.886
 1415SOL    HW1 4301   4.135   4.064   4.899
 1415SOL    HW2 4302   4.268   4.017   4.953
 1416SOL     OW 4303   1.838   2.891   3.404
 1416SOL    HW1 4304   1.886   2.933   3.475
 1416SOL    HW2 4305   1.905   2.870   3.339
 1417SOL     OW 4306   3.746   4.537   2.402
 1417SOL    HW1 4307   3.768   4.475   2.471
 1417SOL    HW2 4308   3.770   4.622   2.438
 1418SOL     OW 4309   0.239   1.096   4.650
 1418SOL    HW1 4310   0.180   1.127   4.581
 1418SOL    HW2 4311   0.326   1.101   4.611
 1419SOL     OW 4312   2.720   3.919   3.346
 1419SOL    HW1 4313   2.773   3.840   3.362
 1419SOL    HW2 4314   2.762   3.987   3.399
 1420SOL     OW 4315   3.079   4.634   1.512
 1420SOL    HW1 4316   2.987   4.633   1.541
 1420SOL    HW2 4317   3.075   4.618   1.418
 1421SOL     OW 4318   4.192   0.902   3.584
 1421SOL    HW1 4319   4.213   0.927   3.674
 1421SOL    HW2 4320   4.230   0.816   3.573
 1422SOL     OW 4321   1.334   1.335   0.918
 1422SOL    HW1 4322   1.286   1.392   0.977
 1422SOL    HW2 4323   1.393   1.395   0.870
 1423SOL     OW 4324   4.200   3.258   4.528
 1423SOL    HW1 4325   4.223   3.176   4.573
 1423SOL    HW2 4326   4.240   3.249   4.441
 1424SOL     OW 4327   1.872   1.275   1.105
 1424SOL    HW1 4328   1.779   1.264   1.089
 1424SOL    HW2 4329   1.884   1.254   1.197
 1425SOL     OW 4330   4.804   0.262   0.993
 1425SOL    HW1 4331   4.826   0.271   1.085
 1425SOL    HW2 4332   4.825   0.171   0.972
 1426SOL     OW 4333   3.379   3.564   1.761
 1426SOL    HW1 4334   3.375   3.483   1.812
 1426SOL    HW2 4335   3.288   3.594   1.757
 1427SOL     OW 4336   4.791   3.121   2.639
 1427SOL    HW1 4337   4.853   3.100   2.710
 1427SOL    HW2 4338   4.841   3.106   2.559
 1428SOL     OW 4339   0.227   2.174   4.567
 1428SOL    HW1 4340   0.152   2.227   4.595
 1428SOL    HW2 4341   0.301   2.235   4.568
 1429SOL     OW 4342   0.532   1.687   2.846
 1429SOL    HW1 4343   0.550   1.720   2.759
 1429SOL    HW2 4344   0.468   1.616   2.832
 1430SOL     OW 4345   0.867   1.341   0.020
 1430SOL    HW1 4346   0.877   1.254   4.961
 1430SOL    HW2 4347   0.794   1.332   0.082
 1431SOL     OW 4348   2.809   3.929   0.177
 1431SOL    HW1 4349   2.841   3.990   0.242
 1431SOL    HW2 4350   2.769   3.984   0.110
 1432SOL     OW 4351   3.662   2.107   4.706
 1432SOL    HW1 4352   3.755   2.088   4.700
 1432SOL    HW2 4353   3.655   2.169   4.778
 1433SOL     OW 4354   2.548   0.708   0.323
 1433SOL    HW1 4355   2.480   0.757   0.369
 1433SOL    HW2 4356   2.594   0.660   0.392
 1434SOL     OW 4357   1.495   2.954   0.175
 1434SOL    HW1 4358   1.485   3.049   0.178
 1434SOL    HW2 4359   1.415   2.923   0.134
 1435SOL     OW 4360   4.596   3.178   4.393
 1435SOL    HW1 4361   4.570   3.127   4.470
 1435SOL    HW2 4362   4.640   3.115   4.336
 1436SOL     OW 4363   0.525   1.426   3.078
 1436SOL    HW1 4364   0.552   1.382   2.997
 1436SOL    HW2 4365   0.436   1.395   3.094
 1437SOL     OW 4366   0.280   3.432   0.835
 1437SOL    HW1 4367   0.308   3.419   0.745
 1437SOL    HW2 4368   0.293   3.525   0.851
 1438SOL     OW 4369   0.127   0.361   3.209
 1438SOL    HW1 4370   0.180   0.319   3.276
 1438SOL    HW2 4371   0.052   0.397   3.256
 1439SOL     OW 4372   1.901   0.066   2.756
 1439SOL    HW1 4373   1.883   0.051   2.849
 1439SOL    HW2 4374   1.817   0.097   2.721
 1440SOL     OW 4375   2.534   1.769   0.156
 1440SOL    HW1 4376   2.613   1.820   0.138
 1440SOL    HW2 4377   2.531   1.763   0.252
 1441SOL     OW 4378   3.075   3.424   1.688
 1441SOL    HW1 4379   3.079   3.505   1.738
 1441SOL    HW2 4380   2.984   3.418   1.659
 1442SOL     OW 4381   2.114   4.041   0.316
 1442SOL    HW1 4382   2.044   4.102   0.291
 1442SOL    HW2 4383   2.191   4.073   0.268
 1443SOL     OW 4384   0.528   0.313   4.649
 1443SOL    HW1 4385   0.460   0.359   4.600
 1443SOL    HW2 4386   0.562   0.248   4.587
 1444SOL     OW 4387   4.174   2.854   0.867
 1444SOL    HW1 4388   4.164   2.759   0.864
 1444SOL    HW2 4389   4.100   2.884   0.921
 1445SOL     OW 4390   3.499   3.131   3.996
 1445SOL    HW1 4391   3.510   3.058   4.057
 1445SOL    HW2 4392   3.584   3.139   3.953
 1446SOL     OW 4393   0.837   0.979   4.093
 1446SOL    HW1 4394   0.825   0.890   4.059
 1446SOL    HW2 4395   0.805   0.974   4.183
 1447SOL     OW 4396   4.973   3.779   4.857
 1447SOL    HW1 4397   4.943   3.866   4.883
 1447SOL    HW2 4398   4.925   3.761   4.776
 1448SOL     OW 4399   2.910   3.764   2.486
 1448SOL    HW1 4400   2.995   3.804   2.466
 1448SOL    HW2 4401   2.846   3.831   2.461
 1449SOL     OW 4402   2.684   2.321   0.313
 1449SOL    HW1 4403   2.609   2.365   0.353
 1449SOL    HW2 4404   2.711   2.380   0.243
 1450SOL     OW 4405   3.315   2.472   3.899
 1450SOL    HW1 4406   3.330   2.388   3.855
 1450SOL    HW2 4407   3.354   2.461   3.985
 1451SOL     OW 4408   0.094   2.394   3.440
 1451SOL    HW1 4409   0.083   2.386   3.534
 1451SOL    HW2 4410   0.158   2.327   3.417
 1452SOL     OW 4411   2.460   3.760   1.352
 1452SOL    HW1 4412   2.542   3.718   1.377
 1452SOL    HW2 4413   2.408   3.763   1.433
 1453SOL     OW 4414   0.028   1.073   1.688
 1453SOL    HW1 4415   4.916   1.088   1.711
 1453SOL    HW2 4416   0.076   1.087   1.769
 1454SOL     OW 4417   1.688   1.360   3.636
 1454SOL    HW1 4418   1.705   1.356   3.730
 1454SOL    HW2 4419   1.594   1.345   3.628
 1455SOL     OW 4420   3.491   1.409   1.430
 1455SOL    HW1 4421   3.560   1.447   1.376
 1455SOL    HW2 4422   3.537   1.376   1.508
 1456SOL     OW 4423   0.754   2.487   1.175
 1456SOL    HW1 4424   0.823   2.420   1.173
 1456SOL    HW2 4425   0.681   2.445   1.220
 1457SOL     OW 4426   2.144   1.820   0.010
 1457SOL    HW1 4427   2.230   1.861   0.001
 1457SOL    HW2 4428   2.152   1.737   4.945
 1458SOL     OW 4429   2.928   2.033   1.052
 1458SOL    HW1 4430   2.942   1.965   1.118
 1458SOL    HW2 4431   2.893   2.107   1.102
 1459SOL     OW 4432   0.414   1.936   4.253
 1459SOL    HW1 4433   0.375   1.915   4.168
 1459SOL    HW2 4434   0.378   2.021   4.276
 1460SOL     OW 4435   3.632   2.158   3.339
 1460SOL    HW1 4436   3.572   2.129   3.407
 1460SOL    HW2 4437   3.594   2.240   3.306
 1461SOL     OW 4438   0.399   4.100   4.805
 1461SOL    HW1 4439   0.411   4.088   4.710
 1461SOL    HW2 4440   0.334   4.169   4.812
 1462SOL     OW 4441   3.889   3.665   0.073
 1462SOL    HW1 4442   3.929   3.742   0.114
 1462SOL    HW2 4443   3.843   3.699   4.976
 1463SOL     OW 4444   1.966   1.917   2.648
 1463SOL    HW1 4445   2.050   1.911   2.693
 1463SOL    HW2 4446   1.928   2.000   2.678
 1464SOL     OW 4447   4.614   1.849   2.479
 1464SOL    HW1 4448   4.620   1.936   2.518
 1464SOL    HW2 4449   4.534   1.851   2.426
 1465SOL     OW 4450   3.092   0.072   1.358
 1465SOL    HW1 4451   3.057   4.969   1.328
 1465SOL    HW2 4452   3.171   0.048   1.408
 1466SOL     OW 4453   0.608   4.905   3.447
 1466SOL    HW1 4454   0.622   4.828   3.392
 1466SOL    HW2 4455   0.527   4.943   3.415
 1467SOL     OW 4456   1.741   2.830   0.190
 1467SOL    HW1 4457   1.756   2.761   0.125
 1467SOL    HW2 4458   1.658   2.870   0.163
 1468SOL     OW 4459   4.110   1.440   4.354
 1468SOL    HW1 4460   4.069   1.512   4.305
 1468SOL    HW2 4461   4.198   1.432   4.316
 1469SOL     OW 4462   1.645   4.338   3.080
 1469SOL    HW1 4463   1.723   4.331   3.025
 1469SOL    HW2 4464   1.573   4.309   3.024
 1470SOL     OW 4465   3.856   0.726   1.056
 1470SOL    HW1 4466   3.902   0.669   1.118
 1470SOL    HW2 4467   3.816   0.794   1.110
 1471SOL     OW 4468   4.307   3.059   3.568
 1471SOL    HW1 4469   4.381   3.106   3.608
 1471SOL    HW2 4470   4.345   3.014   3.492
 1472SOL     OW 4471   1.708   4.380   1.245
 1472SOL    HW1 4472   1.685   4.326   1.169
 1472SOL    HW2 4473   1.801   4.362   1.260
 1473SOL     OW 4474   0.378   0.406   4.252
 1473SOL    HW1 4475   0.289   0.415   4.220
 1473SOL    HW2 4476   0.399   0.491   4.290
 1474SOL     OW 4477   0.406   4.128   2.793
 1474SOL    HW1 4478   0.315   4.125   2.822
 1474SOL    HW2 4479   0.444   4.203   2.839
 1475SOL     OW 4480   2.455   1.007   1.351
 1475SOL    HW1 4481   2.523   0.995   1.417
 1475SOL    HW2 4482   2.376   1.028   1.402
 1476SOL     OW 4483   0.466   4.926   2.038
 1476SOL    HW1 4484   0.434   4.878   1.961
 1476SOL    HW2 4485   0.523   0.013   2.001
 1477SOL     OW 4486   2.509   0.534   3.242
 1477SOL    HW1 4487   2.575   0.555   3.176
 1477SOL    HW2 4488   2.441   0.487   3.194
 1478SOL     OW 4489   0.899   1.582   1.570
 1478SOL    HW1 4490   0.885   1.612   1.660
 1478SOL    HW2 4491   0.972   1.635   1.538
 1479SOL     OW 4492   3.456   1.123   2.110
 1479SOL    HW1 4493   3.421   1.054   2.166
 1479SOL    HW2 4494   3.511   1.078   2.047
 1480SOL     OW 4495   4.959   1.527   0.530
 1480SOL    HW1 4496   0.048   1.572   0.483
 1480SOL    HW2 4497   4.879   1.574   0.507
 1481SOL     OW 4498   1.099   2.424   3.253
 1481SOL    HW1 4499   1.142   2.341   3.275
 1481SOL    HW2 4500   1.006   2.408   3.269
 1482SOL     OW 4501   3.753   2.917   0.698
 1482SOL    HW1 4502   3.760   2.867   0.779
 1482SOL    HW2 4503   3.838   2.959   0.688
 1483SOL     OW 4504   3.302   1.051   1.202
 1483SOL    HW1 4505   3.247   1.023   1.129
 1483SOL    HW2 4506   3.374   0.987   1.203
 1484SOL     OW 4507   2.077   1.938   4.358
 1484SOL    HW1 4508   2.132   1.958   4.282
 1484SOL    HW2 4509   2.118   1.860   4.397
 1485SOL     OW 4510   2.153   1.446   4.159
 1485SOL    HW1 4511   2.216   1.465   4.089
 1485SOL    HW2 4512   2.094   1.521   4.159
 1486SOL     OW 4513   3.406   3.319   0.432
 1486SOL    HW1 4514   3.407   3.226   0.407
 1486SOL    HW2 4515   3.388   3.318   0.526
 1487SOL     OW 4516   1.644   0.143   1.923
 1487SOL    HW1 4517   1.598   0.101   1.851
 1487SOL    HW2 4518   1.733   0.107   1.920
 1488SOL     OW 4519   0.056   2.031   0.324
 1488SOL    HW1 4520   4.965   2.077   0.369
 1488SOL    HW2 4521   0.119   2.011   0.393
 1489SOL     OW 4522   2.782   3.401   1.807
 1489SOL    HW1 4523   2.739   3.339   1.865
 1489SOL    HW2 4524   2.746   3.486   1.830
 1490SOL     OW 4525   3.976   1.272   3.568
 1490SOL    HW1 4526   3.919   1.210   3.523
 1490SOL    HW2 4527   3.916   1.327   3.618
 1491SOL     OW 4528   0.309   0.073   3.079
 1491SOL    HW1 4529   0.223   0.044   3.047
 1491SOL    HW2 4530   0.352   0.110   3.002
 1492SOL     OW 4531   4.909   4.700   2.996
 1492SOL    HW1 4532   4.910   4.794   3.016
 1492SOL    HW2 4533   4.960   4.693   2.915
 1493SOL     OW 4534   2.901   3.787   0.756
 1493SOL    HW1 4535   2.819   3.753   0.793
 1493SOL    HW2 4536   2.937   3.712   0.707
 1494SOL     OW 4537   4.975   2.384   4.426
 1494SOL    HW1 4538   4.966   2.292   4.403
 1494SOL    HW2 4539   4.970   2.386   4.521
 1495SOL     OW 4540   2.697   2.350   3.709
 1495SOL    HW1 4541   2.640   2.295   3.763
 1495SOL    HW2 4542   2.654   2.436   3.711
 1496SOL     OW 4543   3.296   0.597   3.910
 1496SOL    HW1 4544   3.275   0.633   3.996
 1496SOL    HW2 4545   3.290   0.502   3.922
 1497SOL     OW 4546   0.095   4.082   1.031
 1497SOL    HW1 4547   0.150   4.116   1.102
 1497SOL    HW2 4548   0.048   4.008   1.071
 1498SOL     OW 4549   3.049   1.830   3.631
 1498SOL    HW1 4550   2.981   1.807   3.568
 1498SOL    HW2 4551   3.108   1.754   3.633
 1499SOL     OW 4552   1.074   4.617   4.284
 1499SOL    HW1 4553   1.114   4.541   4.242
 1499SOL    HW2 4554   1.141   4.650   4.344
 1500SOL     OW 4555   0.863   2.764   0.769
 1500SOL    HW1 4556   0.822   2.694   0.717
 1500SOL    HW2 4557   0.949   2.775   0.729
 1501SOL     OW 4558   3.784   2.005   0.656
 1501SOL    HW1 4559   3.804   2.095   0.630
 1501SOL    HW2 4560   3.828   1.951   0.589
 1502SOL     OW 4561   0.222   2.642   3.162
 1502SOL    HW1 4562   0.161   2.692   3.216
 1502SOL    HW2 4563   0.298   2.627   3.220
 1503SOL     OW 4564   0.869   0.601   0.236
 1503SOL    HW1 4565   0.940   0.643   0.285
 1503SOL    HW2 4566   0.887   0.507   0.244
 1504SOL     OW 4567   1.609   3.372   1.226
 1504SOL    HW1 4568   1.619   3.463   1.251
 1504SOL    HW2 4569   1.634   3.322   1.304
 1505SOL     OW 4570   2.645   0.718   2.839
 1505SOL    HW1 4571   2.654   0.627   2.813
 1505SOL    HW2 4572   2.720   0.762   2.800
 1506SOL     OW 4573   0.918   4.515   3.205
 1506SOL    HW1 4574   0.935   4.506   3.299
 1506SOL    HW2 4575   0.853   4.448   3.186
 1507SOL     OW 4576   4.013   1.213   1.163
 1507SOL    HW1 4577   4.104   1.194   1.187
 1507SOL    HW2 4578   3.985   1.281   1.224
 1508SOL     OW 4579   0.895   2.620   3.522
 1508SOL    HW1 4580   0.890   2.690   3.588
 1508SOL    HW2 4581   0.981   2.630   3.483
 1509SOL     OW 4582   3.554   2.696   0.816
 1509SOL    HW1 4583   3.497   2.722   0.744
 1509SOL    HW2 4584   3.494   2.675   0.887
 1510SOL     OW 4585   2.909   1.829   4.928
 1510SOL    HW1 4586   2.837   1.870   4.977
 1510SOL    HW2 4587   2.984   1.886   4.944
 1511SOL     OW 4588   2.915   3.730   4.932
 1511SOL    HW1 4589   2.941   3.643   4.960
 1511SOL    HW2 4590   2.931   3.786   0.028
 1512SOL     OW 4591   0.657   4.866   3.719
 1512SOL    HW1 4592   0.578   4.901   3.760
 1512SOL    HW2 4593   0.649   4.892   3.627
 1513SOL     OW 4594   1.090   2.740   2.209
 1513SOL    HW1 4595   1.085   2.730   2.114
 1513SOL    HW2 4596   1.044   2.663   2.244
 1514SOL     OW 4597   2.687   2.421   2.086
 1514SOL    HW1 4598   2.689   2.494   2.148
 1514SOL    HW2 4599   2.725   2.347   2.133
 1515SOL     OW 4600   2.739   0.793   3.673
 1515SOL    HW1 4601   2.673   0.749   3.619
 1515SOL    HW2 4602   2.689   0.847   3.733
 1516SOL     OW 4603   1.696   2.131   2.551
 1516SOL    HW1 4604   1.751   2.142   2.629
 1516SOL    HW2 4605   1.758   2.110   2.481
 1517SOL     OW 4606   3.124   1.251   4.195
 1517SOL    HW1 4607   3.193   1.256   4.129
 1517SOL    HW2 4608   3.061   1.319   4.169
 1518SOL     OW 4609   2.529   3.798   3.806
 1518SOL    HW1 4610   2.576   3.728   3.762
 1518SOL    HW2 4611   2.475   3.837   3.737
 1519SOL     OW 4612   1.095   4.083   2.391
 1519SOL    HW1 4613   1.001   4.086   2.409
 1519SOL    HW2 4614   1.135   4.056   2.474
 1520SOL     OW 4615   2.995   2.469   1.135
 1520SOL    HW1 4616   3.057   2.513   1.192
 1520SOL    HW2 4617   3.046   2.398   1.095
 1521SOL     OW 4618   2.804   4.401   3.418
 1521SOL    HW1 4619   2.810   4.307   3.435
 1521SOL    HW2 4620   2.829   4.441   3.501
 1522SOL     OW 4621   1.060   3.681   4.359
 1522SOL    HW1 4622   0.995   3.698   4.427
 1522SOL    HW2 4623   1.009   3.663   4.280
 1523SOL     OW 4624   1.862   3.993   0.511
 1523SOL    HW1 4625   1.802   3.965   0.442
 1523SOL    HW2 4626   1.939   4.024   0.463
 1524SOL     OW 4627   0.347   0.878   2.209
 1524SOL    HW1 4628   0.391   0.925   2.280
 1524SOL    HW2 4629   0.378   0.921   2.129
 1525SOL     OW 4630   0.946   2.416   2.598
 1525SOL    HW1 4631   0.915   2.390   2.511
 1525SOL    HW2 4632   1.001   2.344   2.627
 1526SOL     OW 4633   1.512   4.589   1.295
 1526SOL    HW1 4634   1.565   4.510   1.283
 1526SOL    HW2 4635   1.422   4.559   1.280
 1527SOL     OW 4636   4.047   4.050   1.051
 1527SOL    HW1 4637   4.058   3.957   1.030
 1527SOL    HW2 4638   4.040   4.093   0.965
 1528SOL     OW 4639   1.452   1.207   4.433
 1528SOL    HW1 4640   1.486   1.165   4.512
 1528SOL    HW2 4641   1.387   1.146   4.400
 1529SOL     OW 4642   2.134   0.269   3.872
 1529SOL    HW1 4643   2.150   0.203   3.805
 1529SOL    HW2 4644   2.103   0.218   3.948
 1530SOL     OW 4645   1.777   1.746   4.029
 1530SOL    HW1 4646   1.735   1.675   3.980
 1530SOL    HW2 4647   1.727   1.824   4.006
 1531SOL     OW 4648   4.879   1.568   4.949
 1531SOL    HW1 4649   4.808   1.614   0.013
 1531SOL    HW2 4650   4.923   1.519   0.037
 1532SOL     OW 4651   4.749   2.323   4.774
 1532SOL    HW1 4652   4.723   2.373   4.697
 1532SOL    HW2 4653   4.698   2.242   4.769
 1533SOL     OW 4654   1.649   2.906   1.339
 1533SOL    HW1 4655   1.558   2.912   1.367
 1533SOL    HW2 4656   1.691   2.852   1.406
 1534SOL     OW 4657   0.719   0.546   0.911
 1534SOL    HW1 4658   0.810   0.565   0.887
 1534SOL    HW2 4659   0.668   0.571   0.834
 1535SOL     OW 4660   1.700   1.330   2.842
 1535SOL    HW1 4661   1.737   1.271   2.777
 1535SOL    HW2 4662   1.625   1.370   2.798
 1536SOL     OW 4663   2.084   3.123   1.177
 1536SOL    HW1 4664   2.015   3.141   1.114
 1536SOL    HW2 4665   2.041   3.070   1.245
 1537SOL     OW 4666   3.536   4.844   1.615
 1537SOL    HW1 4667   3.541   4.808   1.703
 1537SOL    HW2 4668   3.498   4.773   1.563
 1538SOL     OW 4669   2.577   4.784   3.869
 1538SOL    HW1 4670   2.625   4.860   3.836
 1538SOL    HW2 4671   2.561   4.731   3.791
 1539SOL     OW 4672   0.353   4.723   4.660
 1539SOL    HW1 4673   0.395   4.784   4.720
 1539SOL    HW2 4674   0.333   4.646   4.715
 1540SOL     OW 4675   4.849   2.182   2.800
 1540SOL    HW1 4676   4.831   2.177   2.706
 1540SOL    HW2 4677   4.859   2.090   2.827
 1541SOL     OW 4678   3.263   0.035   1.040
 1541SOL    HW1 4679   3.277   0.007   1.130
 1541SOL    HW2 4680   3.235   4.936   0.994
 1542SOL     OW 4681   2.848   1.246   4.865
 1542SOL    HW1 4682   2.803   1.184   4.922
 1542SOL    HW2 4683   2.823   1.219   4.776
 1543SOL     OW 4684   2.437   1.070   1.964
 1543SOL    HW1 4685   2.439   1.079   2.059
 1543SOL    HW2 4686   2.346   1.048   1.944
 1544SOL     OW 4687   1.911   3.449   3.462
 1544SOL    HW1 4688   1.864   3.524   3.497
 1544SOL    HW2 4689   1.868   3.373   3.501
 1545SOL     OW 4690   0.166   1.877   3.082
 1545SOL    HW1 4691   0.171   1.783   3.102
 1545SOL    HW2 4692   0.165   1.880   2.986
 1546SOL     OW 4693   3.034   3.789   1.447
 1546SOL    HW1 4694   3.081   3.792   1.364
 1546SOL    HW2 4695   3.099   3.761   1.511
 1547SOL     OW 4696   0.231   1.416   1.272
 1547SOL    HW1 4697   0.143   1.397   1.240
 1547SOL    HW2 4698   0.226   1.505   1.306
 1548SOL     OW 4699   4.623   4.775   2.256
 1548SOL    HW1 4700   4.530   4.772   2.232
 1548SOL    HW2 4701   4.665   4.824   2.185
 1549SOL     OW 4702   1.752   1.760   2.768
 1549SOL    HW1 4703   1.711   1.813   2.837
 1549SOL    HW2 4704   1.822   1.815   2.734
 1550SOL     OW 4705   2.411   1.331   2.610
 1550SOL    HW1 4706   2.501   1.348   2.637
 1550SOL    HW2 4707   2.371   1.418   2.604
 1551SOL     OW 4708   2.241   0.380   2.001
 1551SOL    HW1 4709   2.177   0.367   1.931
 1551SOL    HW2 4710   2.267   0.291   2.025
 1552SOL     OW 4711   4.336   4.675   4.315
 1552SOL    HW1 4712   4.335   4.754   4.260
 1552SOL    HW2 4713   4.393   4.697   4.389
 1553SOL     OW 4714   4.462   0.718   2.865
 1553SOL    HW1 4715   4.422   0.734   2.951
 1553SOL    HW2 4716   4.393   0.677   2.813
 1554SOL     OW 4717   0.299   3.117   0.608
 1554SOL    HW1 4718   0.353   3.095   0.532
 1554SOL    HW2 4719   0.362   3.145   0.674
 1555SOL     OW 4720   2.990   3.428   3.906
 1555SOL    HW1 4721   2.982   3.372   3.983
 1555SOL    HW2 4722   3.002   3.366   3.833
 1556SOL     OW 4723   1.690   2.144   2.116
 1556SOL    HW1 4724   1.747   2.119   2.189
 1556SOL    HW2 4725   1.733   2.221   2.078
 1557SOL     OW 4726   3.948   1.826   0.509
 1557SOL    HW1 4727   3.936   1.749   0.565
 1557SOL    HW2 4728   4.000   1.793   0.436
 1558SOL     OW 4729   4.739   4.175   0.856
 1558SOL    HW1 4730   4.678   4.244   0.830
 1558SOL    HW2 4731   4.756   4.192   0.949
 1559SOL     OW 4732   2.310   0.256   4.965
 1559SOL    HW1 4733   2.371   0.225   0.053
 1559SOL    HW2 4734   2.344   0.342   4.941
 1560SOL     OW 4735   4.585   3.527   4.656
 1560SOL    HW1 4736   4.490   3.538   4.651
 1560SOL    HW2 4737   4.598   3.451   4.713
 1561SOL     OW 4738   1.046   1.057   1.774
 1561SOL    HW1 4739   1.022   1.145   1.744
 1561SOL    HW2 4740   1.037   1.002   1.696
 1562SOL     OW 4741   3.384   3.054   0.417
 1562SOL    HW1 4742   3.294   3.064   0.446
 1562SOL    HW2 4743   3.435   3.053   0.498
 1563SOL     OW 4744   1.620   3.777   4.872
 1563SOL    HW1 4745   1.613   3.696   4.821
 1563SOL    HW2 4746   1.535   3.784   4.916
 1564SOL     OW 4747   3.035   4.531   3.904
 1564SOL    HW1 4748   3.036   4.437   3.887
 1564SOL    HW2 4749   3.125   4.559   3.887
 1565SOL     OW 4750   3.331   2.523   2.041
 1565SOL    HW1 4751   3.236   2.531   2.034
 1565SOL    HW2 4752   3.344   2.443   2.092
 1566SOL     OW 4753   2.521   0.200   3.237
 1566SOL    HW1 4754   2.587   0.269   3.223
 1566SOL    HW2 4755   2.444   0.247   3.270
 1567SOL     OW 4756   2.222   1.961   2.761
 1567SOL    HW1 4757   2.194   1.976   2.851
 1567SOL    HW2 4758   2.269   1.878   2.763
 1568SOL     OW 4759   1.864   1.397   4.121
 1568SOL    HW1 4760   1.795   1.403   4.186
 1568SOL    HW2 4761   1.941   1.435   4.164
 1569SOL     OW 4762   1.195   0.062   3.190
 1569SOL    HW1 4763   1.217   0.043   3.281
 1569SOL    HW2 4764   1.104   0.035   3.181
 1570SOL     OW 4765   0.125   2.476   2.603
 1570SOL    HW1 4766   0.117   2.384   2.628
 1570SOL    HW2 4767   0.089   2.524   2.678
 1571SOL     OW 4768   2.889   4.704   3.143
 1571SOL    HW1 4769   2.934   4.716   3.059
 1571SOL    HW2 4770   2.796   4.694   3.119
 1572SOL     OW 4771   4.060   0.385   1.485
 1572SOL    HW1 4772   4.107   0.310   1.521
 1572SOL    HW2 4773   4.024   0.430   1.561
 1573SOL     OW 4774   2.507   0.557   4.517
 1573SOL    HW1 4775   2.524   0.604   4.598
 1573SOL    HW2 4776   2.429   0.598   4.480
 1574SOL     OW 4777   3.887   1.553   3.701
 1574SOL    HW1 4778   3.878   1.571   3.607
 1574SOL    HW2 4779   3.971   1.508   3.709
 1575SOL     OW 4780   2.273   0.365   3.191
 1575SOL    HW1 4781   2.256   0.412   3.272
 1575SOL    HW2 4782   2.219   0.286   3.198
 1576SOL     OW 4783   4.838   3.528   4.964
 1576SOL    HW1 4784   4.918   3.538   0.036
 1576SOL    HW2 4785   4.862   3.465   4.896
 1577SOL     OW 4786   3.573   3.046   1.852
 1577SOL    HW1 4787   3.479   3.048   1.834
 1577SOL    HW2 4788   3.595   2.953   1.856
 1578SOL     OW 4789   1.793   1.446   2.123
 1578SOL    HW1 4790   1.757   1.368   2.082
 1578SOL    HW2 4791   1.866   1.471   2.067
 1579SOL     OW 4792   2.642   3.229   0.049
 1579SOL    HW1 4793   2.653   3.135   0.033
 1579SOL    HW2 4794   2.629   3.267   4.943
 1580SOL     OW 4795   0.945   0.151   2.817
 1580SOL    HW1 4796   0.878   0.159   2.750
 1580SOL    HW2 4797   0.977   0.240   2.831
 1581SOL     OW 4798   0.673   4.699   1.575
 1581SOL    HW1 4799   0.638   4.767   1.518
 1581SOL    HW2 4800   0.676   4.621   1.519
 1582SOL     OW 4801   4.398   3.149   1.758
 1582SOL    HW1 4802   4.450   3.182   1.831
 1582SOL    HW2 4803   4.308   3.151   1.790
 1583SOL     OW 4804   3.996   4.161   0.054
 1583SOL    HW1 4805   3.948   4.102   0.111
 1583SOL    HW2 4806   4.052   4.212   0.113
 1584SOL     OW 4807   2.986   1.446   0.508
 1584SOL    HW1 4808   3.032   1.364   0.529
 1584SOL    HW2 4809   2.894   1.422   0.505
 1585SOL     OW 4810   0.056   3.226   1.877
 1585SOL    HW1 4811   0.015   3.153   1.923
 1585SOL    HW2 4812   0.109   3.269   1.944
 1586SOL     OW 4813   2.892   4.796   3.610
 1586SOL    HW1 4814   2.917   4.882   3.644
 1586SOL    HW2 4815   2.919   4.798   3.518
 1587SOL     OW 4816   1.056   0.802   1.981
 1587SOL    HW1 4817   1.017   0.782   1.896
 1587SOL    HW2 4818   1.149   0.812   1.963
 1588SOL     OW 4819   1.220   2.997   2.201
 1588SOL    HW1 4820   1.167   2.918   2.201
 1588SOL    HW2 4821   1.239   3.013   2.294
 1589SOL     OW 4822   0.934   2.189   2.930
 1589SOL    HW1 4823   1.029   2.201   2.933
 1589SOL    HW2 4824   0.901   2.236   3.006
 1590SOL     OW 4825   1.508   2.211   4.147
 1590SOL    HW1 4826   1.551   2.277   4.092
 1590SOL    HW2 4827   1.415   2.232   4.143
 1591SOL     OW 4828   1.398   1.020   0.965
 1591SOL    HW1 4829   1.311   0.982   0.976
 1591SOL    HW2 4830   1.381   1.112   0.946
 1592SOL     OW 4831   4.860   3.804   4.139
 1592SOL    HW1 4832   4.830   3.856   4.214
 1592SOL    HW2 4833   4.889   3.870   4.076
 1593SOL     OW 4834   4.235   4.275   1.245
 1593SOL    HW1 4835   4.227   4.340   1.314
 1593SOL    HW2 4836   4.153   4.280   1.197
 1594SOL     OW 4837   4.763   2.170   4.454
 1594SOL    HW1 4838   4.766   2.119   4.373
 1594SOL    HW2 4839   4.817   2.120   4.515
 1595SOL     OW 4840   2.562   2.234   4.312
 1595SOL    HW1 4841   2.589   2.298   4.378
 1595SOL    HW2 4842   2.468   2.250   4.300
 1596SOL     OW 4843   4.486   4.110   2.496
 1596SOL    HW1 4844   4.412   4.155   2.537
 1596SOL    HW2 4845   4.455   4.021   2.481
 1597SOL     OW 4846   1.685   3.961   1.717
 1597SOL    HW1 4847   1.760   3.978   1.774
 1597SOL    HW2 4848   1.686   4.034   1.655
 1598SOL     OW 4849   1.624   4.431   3.637
 1598SOL    HW1 4850   1.559   4.487   3.595
 1598SOL    HW2 4851   1.708   4.468   3.610
 1599SOL     OW 4852   0.150   3.094   4.475
 1599SOL    HW1 4853   0.210   3.099   4.549
 1599SOL    HW2 4854   0.206   3.080   4.399
 1600SOL     OW 4855   4.193   2.117   1.687
 1600SOL    HW1 4856   4.244   2.175   1.743
 1600SOL    HW2 4857   4.148   2.175   1.625
 1601SOL     OW 4858   2.625   4.192   0.872
 1601SOL    HW1 4859   2.643   4.274   0.826
 1601SOL    HW2 4860   2.529   4.185   0.873
 1602SOL     OW 4861   4.379   4.305   0.719
 1602SOL    HW1 4862   4.287   4.324   0.733
 1602SOL    HW2 4863   4.414   4.384   0.678
 1603SOL     OW 4864   4.629   3.048   3.933
 1603SOL    HW1 4865   4.576   3.118   3.972
 1603SOL    HW2 4866   4.682   3.092   3.867
 1604SOL     OW 4867   3.911   3.791   1.529
 1604SOL    HW1 4868   3.923   3.770   1.436
 1604SOL    HW2 4869   4.000   3.797   1.564
 1605SOL     OW 4870   4.034   3.925   3.173
 1605SOL    HW1 4871   4.118   3.929   3.217
 1605SOL    HW2 4872   4.030   3.837   3.136
 1606SOL     OW 4873   2.786   0.694   0.086
 1606SOL    HW1 4874   2.706   0.669   0.132
 1606SOL    HW2 4875   2.825   0.762   0.142
 1607SOL     OW 4876   0.572   0.680   3.474
 1607SOL    HW1 4877   0.502   0.629   3.434
 1607SOL    HW2 4878   0.643   0.679   3.409
 1608SOL     OW 4879   4.031   4.914   3.522
 1608SOL    HW1 4880   4.116   4.938   3.486
 1608SOL    HW2 4881   3.970   4.979   3.487
 1609SOL     OW 4882   0.576   2.123   2.447
 1609SOL    HW1 4883   0.663   2.088   2.465
 1609SOL    HW2 4884   0.581   2.154   2.356
 1610SOL     OW 4885   0.997   4.388   2.565
 1610SOL    HW1 4886   0.912   4.408   2.526
 1610SOL    HW2 4887   1.058   4.445   2.520
 1611SOL     OW 4888   4.776   1.790   3.327
 1611SOL    HW1 4889   4.817   1.725   3.385
 1611SOL    HW2 4890   4.703   1.825   3.379
 1612SOL     OW 4891   0.850   2.085   2.370
 1612SOL    HW1 4892   0.944   2.104   2.367
 1612SOL    HW2 4893   0.837   2.016   2.305
 1613SOL     OW 4894   3.054   0.275   4.359
 1613SOL    HW1 4895   3.007   0.228   4.289
 1613SOL    HW2 4896   3.102   0.344   4.314
 1614SOL     OW 4897   0.569   2.259   3.975
 1614SOL    HW1 4898   0.557   2.340   4.025
 1614SOL    HW2 4899   0.583   2.192   4.042
 1615SOL     OW 4900   0.785   2.352   3.840
 1615SOL    HW1 4901   0.731   2.315   3.909
 1615SOL    HW2 4902   0.723   2.379   3.773
 1616SOL     OW 4903   3.876   1.584   4.874
 1616SOL    HW1 4904   3.808   1.572   4.941
 1616SOL    HW2 4905   3.829   1.576   4.791
 1617SOL     OW 4906   0.980   1.888   4.926
 1617SOL    HW1 4907   1.018   1.820   0.000
 1617SOL    HW2 4908   1.010   1.868   4.837
 1618SOL     OW 4909   3.878   1.783   1.276
 1618SOL    HW1 4910   3.890   1.690   1.255
 1618SOL    HW2 4911   3.957   1.807   1.324
 1619SOL     OW 4912   1.170   4.377   4.851
 1619SOL    HW1 4913   1.157   4.458   4.902
 1619SOL    HW2 4914   1.158   4.307   4.916
 1620SOL     OW 4915   1.523   3.280   1.871
 1620SOL    HW1 4916   1.572   3.358   1.845
 1620SOL    HW2 4917   1.584   3.230   1.925
 1621SOL     OW 4918   1.448   0.159   2.814
 1621SOL    HW1 4919   1.397   0.235   2.841
 1621SOL    HW2 4920   1.447   0.101   2.891
 1622SOL     OW 4921   1.909   0.970   2.930
 1622SOL    HW1 4922   1.966   0.929   2.865
 1622SOL    HW2 4923   1.967   1.031   2.976
 1623SOL     OW 4924   3.308   2.851   3.696
 1623SOL    HW1 4925   3.392   2.868   3.739
 1623SOL    HW2 4926   3.261   2.933   3.703
 1624SOL     OW 4927   1.683   0.804   3.924
 1624SOL    HW1 4928   1.677   0.852   3.842
 1624SOL    HW2 4929   1.653   0.715   3.903
 1625SOL     OW 4930   3.391   3.569   4.495
 1625SOL    HW1 4931   3.453   3.562   4.422
 1625SOL    HW2 4932   3.349   3.483   4.499
 1626SOL     OW 4933   0.270   3.693   4.644
 1626SOL    HW1 4934   0.292   3.606   4.608
 1626SOL    HW2 4935   0.320   3.698   4.726
 1627SOL     OW 4936   1.924   1.041   0.782
 1627SOL    HW1 4937   1.843   1.030   0.832
 1627SOL    HW2 4938   1.912   1.122   0.734
 1628SOL     OW 4939   2.954   4.955   0.414
 1628SOL    HW1 4940   3.043   0.000   0.439
 1628SOL    HW2 4941   2.957   4.947   0.319
 1629SOL     OW 4942   2.462   2.865   3.348
 1629SOL    HW1 4943   2.431   2.854   3.438
 1629SOL    HW2 4944   2.392   2.829   3.293
 1630SOL     OW 4945   4.615   1.612   2.116
 1630SOL    HW1 4946   4.678   1.673   2.078
 1630SOL    HW2 4947   4.575   1.567   2.042
 1631SOL     OW 4948   0.878   2.183   4.295
 1631SOL    HW1 4949   0.948   2.132   4.336
 1631SOL    HW2 4950   0.916   2.270   4.283
 1632SOL     OW 4951   0.499   4.641   4.073
 1632SOL    HW1 4952   0.576   4.688   4.106
 1632SOL    HW2 4953   0.431   4.708   4.067
 1633SOL     OW 4954   0.810   1.918   4.482
 1633SOL    HW1 4955   0.827   2.012   4.480
 1633SOL    HW2 4956   0.897   1.878   4.491
 1634SOL     OW 4957   1.368   1.729   1.202
 1634SOL    HW1 4958   1.373   1.824   1.210
 1634SOL    HW2 4959   1.328   1.713   1.117
 1635SOL     OW 4960   2.766   1.980   1.514
 1635SOL    HW1 4961   2.719   2.060   1.489
 1635SOL    HW2 4962   2.712   1.909   1.482
 1636SOL     OW 4963   0.563   1.757   0.266
 1636SOL    HW1 4964   0.658   1.770   0.258
 1636SOL    HW2 4965   0.526   1.820   0.204
 1637SOL     OW 4966   4.680   1.646   3.978
 1637SOL    HW1 4967   4.650   1.661   4.068
 1637SOL    HW2 4968   4.747   1.579   3.987
 1638SOL     OW 4969   4.655   1.511   1.570
 1638SOL    HW1 4970   4.698   1.596   1.574
 1638SOL    HW2 4971   4.639   1.497   1.476
 1639SOL     OW 4972   1.444   3.287   0.389
 1639SOL    HW1 4973   1.445   3.302   0.294
 1639SOL    HW2 4974   1.419   3.195   0.398
 1640SOL     OW 4975   2.792   3.987   2.349
 1640SOL    HW1 4976   2.798   4.028   2.263
 1640SOL    HW2 4977   2.805   4.058   2.411
 1641SOL     OW 4978   2.529   1.920   4.270
 1641SOL    HW1 4979   2.504   1.856   4.336
 1641SOL    HW2 4980   2.591   1.978   4.314
 1642SOL     OW 4981   4.465   0.246   4.569
 1642SOL    HW1 4982   4.495   0.169   4.519
 1642SOL    HW2 4983   4.523   0.250   4.645
 1643SOL     OW 4984   3.103   4.192   0.954
 1643SOL    HW1 4985   3.082   4.165   1.043
 1643SOL    HW2 4986   3.051   4.135   0.898
 1644SOL     OW 4987   2.369   3.898   0.150
 1644SOL    HW1 4988   2.407   3.985   0.140
 1644SOL    HW2 4989   2.398   3.850   0.073
 1645SOL     OW 4990   1.827   4.111   2.596
 1645SOL    HW1 4991   1.755   4.064   2.637
 1645SOL    HW2 4992   1.892   4.043   2.577
 1646SOL     OW 4993   4.051   2.500   1.625
 1646SOL    HW1 4994   4.105   2.422   1.614
 1646SOL    HW2 4995   3.976   2.487   1.567
 1647SOL     OW 4996   2.270   4.178   2.482
 1647SOL    HW1 4997   2.274   4.269   2.512
 1647SOL    HW2 4998   2.253   4.185   2.388
 1648SOL     OW 4999   3.321   2.099   2.740
 1648SOL    HW1 5000   3.237   2.090   2.784
 1648SOL    HW2 5001   3.321   2.187   2.704
 1649SOL     OW 5002   2.755   4.591   0.270
 1649SOL    HW1 5003   2.736   4.561   0.181
 1649SOL    HW2 5004   2.811   4.522   0.307
 1650SOL     OW 5005   3.324   3.290   3.841
 1650SOL    HW1 5006   3.391   3.256   3.900
 1650SOL    HW2 5007   3.295   3.213   3.791
 1651SOL     OW 5008   3.478   1.122   0.351
 1651SOL    HW1 5009   3.485   1.205   0.304
 1651SOL    HW2 5010   3.558   1.117   0.404
 1652SOL     OW 5011   4.021   1.508   4.060
 1652SOL    HW1 5012   3.999   1.574   3.995
 1652SOL    HW2 5013   3.937   1.488   4.103
 1653SOL     OW 5014   4.011   4.691   1.975
 1653SOL    HW1 5015   4.069   4.634   2.026
 1653SOL    HW2 5016   3.987   4.639   1.899
 1654SOL     OW 5017   2.319   4.577   0.686
 1654SOL    HW1 5018   2.226   4.592   0.666
 1654SOL    HW2 5019   2.333   4.485   0.667
 1655SOL     OW 5020   2.586   4.231   0.462
 1655SOL    HW1 5021   2.558   4.198   0.377
 1655SOL    HW2 5022   2.506   4.261   0.504
 1656SOL     OW 5023   2.681   3.506   3.083
 1656SOL    HW1 5024   2.624   3.569   3.039
 1656SOL    HW2 5025   2.649   3.503   3.173
 1657SOL     OW 5026   4.233   2.571   0.917
 1657SOL    HW1 5027   4.245   2.479   0.940
 1657SOL    HW2 5028   4.197   2.568   0.828
 1658SOL     OW 5029   2.066   0.881   1.584
 1658SOL    HW1 5030   2.034   0.957   1.632
 1658SOL    HW2 5031   1.990   0.848   1.537
 1659SOL     OW 5032   3.059   2.233   1.983
 1659SOL    HW1 5033   3.118   2.188   1.923
 1659SOL    HW2 5034   2.980   2.179   1.984
 1660SOL     OW 5035   2.977   4.829   1.281
 1660SOL    HW1 5036   3.037   4.765   1.244
 1660SOL    HW2 5037   2.914   4.846   1.211
 1661SOL     OW 5038   4.381   3.839   1.761
 1661SOL    HW1 5039   4.370   3.875   1.849
 1661SOL    HW2 5040   4.470   3.805   1.760
 1662SOL     OW 5041   2.310   3.338   2.197
 1662SOL    HW1 5042   2.321   3.297   2.111
 1662SOL    HW2 5043   2.220   3.316   2.223
 1663SOL     OW 5044   4.332   3.049   4.078
 1663SOL    HW1 5045   4.303   2.965   4.112
 1663SOL    HW2 5046   4.380   3.027   3.998
 1664SOL     OW 5047   2.030   3.385   1.427
 1664SOL    HW1 5048   2.069   3.305   1.391
 1664SOL    HW2 5049   2.018   3.365   1.520
 1665SOL     OW 5050   3.543   0.504   1.332
 1665SOL    HW1 5051   3.547   0.442   1.404
 1665SOL    HW2 5052   3.609   0.474   1.270
 1666SOL     OW 5053   1.732   3.201   2.769
 1666SOL    HW1 5054   1.811   3.146   2.769
 1666SOL    HW2 5055   1.749   3.266   2.838
 1667SOL     OW 5056   3.474   3.173   4.553
 1667SOL    HW1 5057   3.484   3.078   4.555
 1667SOL    HW2 5058   3.562   3.208   4.564
 1668SOL     OW 5059   4.818   4.281   3.230
 1668SOL    HW1 5060   4.739   4.233   3.256
 1668SOL    HW2 5061   4.826   4.351   3.295
 1669SOL     OW 5062   0.055   2.063   1.570
 1669SOL    HW1 5063   0.048   2.065   1.475
 1669SOL    HW2 5064   0.147   2.046   1.588
 1670SOL     OW 5065   0.213   0.834   4.337
 1670SOL    HW1 5066   0.226   0.926   4.313
 1670SOL    HW2 5067   0.142   0.804   4.281
 1671SOL     OW 5068   4.792   0.880   3.738
 1671SOL    HW1 5069   4.885   0.894   3.719
 1671SOL    HW2 5070   4.748   0.956   3.700
 1672SOL     OW 5071   0.436   4.092   4.544
 1672SOL    HW1 5072   0.512   4.150   4.548
 1672SOL    HW2 5073   0.378   4.134   4.481
 1673SOL     OW 5074   2.475   4.161   1.516
 1673SOL    HW1 5075   2.506   4.173   1.606
 1673SOL    HW2 5076   2.431   4.244   1.495
 1674SOL     OW 5077   2.481   2.109   0.487
 1674SOL    HW1 5078   2.550   2.114   0.554
 1674SOL    HW2 5079   2.525   2.136   0.406
 1675SOL     OW 5080   1.568   3.619   0.163
 1675SOL    HW1 5081   1.569   3.550   0.097
 1675SOL    HW2 5082   1.515   3.689   0.123
 1676SOL     OW 5083   4.192   1.852   1.922
 1676SOL    HW1 5084   4.233   1.826   2.004
 1676SOL    HW2 5085   4.222   1.941   1.907
 1677SOL     OW 5086   0.072   1.686   4.750
 1677SOL    HW1 5087   0.006   1.632   4.793
 1677SOL    HW2 5088   0.119   1.626   4.693
 1678SOL     OW 5089   2.834   0.188   1.855
 1678SOL    HW1 5090   2.921   0.174   1.819
 1678SOL    HW2 5091   2.784   0.230   1.784
 1679SOL     OW 5092   3.494   2.711   2.445
 1679SOL    HW1 5093   3.428   2.665   2.498
 1679SOL    HW2 5094   3.508   2.794   2.491
 1680SOL     OW 5095   0.326   0.438   0.838
 1680SOL    HW1 5096   0.385   0.365   0.858
 1680SOL    HW2 5097   0.253   0.397   0.791
 1681SOL     OW 5098   3.669   4.634   1.320
 1681SOL    HW1 5099   3.749   4.678   1.349
 1681SOL    HW2 5100   3.616   4.704   1.281
 1682SOL     OW 5101   2.803   1.063   1.923
 1682SOL    HW1 5102   2.813   1.115   1.844
 1682SOL    HW2 5103   2.741   0.994   1.899
 1683SOL     OW 5104   4.648   1.042   2.167
 1683SOL    HW1 5105   4.635   1.085   2.083
 1683SOL    HW2 5106   4.700   0.965   2.146
 1684SOL     OW 5107   4.373   3.290   0.939
 1684SOL    HW1 5108   4.365   3.358   1.006
 1684SOL    HW2 5109   4.292   3.239   0.947
 1685SOL     OW 5110   2.464   2.561   3.380
 1685SOL    HW1 5111   2.449   2.655   3.373
 1685SOL    HW2 5112   2.554   2.554   3.412
 1686SOL     OW 5113   3.284   1.273   1.809
 1686SOL    HW1 5114   3.237   1.212   1.753
 1686SOL    HW2 5115   3.241   1.357   1.795
 1687SOL     OW 5116   3.568   2.379   2.396
 1687SOL    HW1 5117   3.598   2.470   2.394
 1687SOL    HW2 5118   3.582   2.351   2.486
 1688SOL     OW 5119   1.284   3.721   3.597
 1688SOL    HW1 5120   1.279   3.791   3.663
 1688SOL    HW2 5121   1.277   3.640   3.648
 1689SOL     OW 5122   1.193   0.586   1.649
 1689SOL    HW1 5123   1.222   0.553   1.734
 1689SOL    HW2 5124   1.112   0.633   1.668
 1690SOL     OW 5125   3.166   1.523   3.048
 1690SOL    HW1 5126   3.179   1.543   3.141
 1690SOL    HW2 5127   3.074   1.547   3.032
 1691SOL     OW 5128   1.546   0.385   4.922
 1691SOL    HW1 5129   1.531   0.426   0.027
 1691SOL    HW2 5130   1.616   0.437   4.882
 1692SOL     OW 5131   0.638   4.357   3.851
 1692SOL    HW1 5132   0.734   4.363   3.857
 1692SOL    HW2 5133   0.611   4.445   3.825
 1693SOL     OW 5134   3.565   4.801   3.264
 1693SOL    HW1 5135   3.538   4.719   3.222
 1693SOL    HW2 5136   3.605   4.774   3.346
 1694SOL     OW 5137   0.073   0.924   3.693
 1694SOL    HW1 5138   0.148   0.888   3.645
 1694SOL    HW2 5139   0.104   1.009   3.725
 1695SOL     OW 5140   2.533   0.470   2.491
 1695SOL    HW1 5141   2.555   0.560   2.466
 1695SOL    HW2 5142   2.446   0.456   2.454
 1696SOL     OW 5143   3.039   1.265   0.973
 1696SOL    HW1 5144   2.947   1.289   0.984
 1696SOL    HW2 5145   3.088   1.343   1.002
 1697SOL     OW 5146   3.806   0.296   3.898
 1697SOL    HW1 5147   3.770   0.233   3.836
 1697SOL    HW2 5148   3.731   0.351   3.922
 1698SOL     OW 5149   0.757   1.465   3.382
 1698SOL    HW1 5150   0.817   1.534   3.353
 1698SOL    HW2 5151   0.769   1.461   3.477
 1699SOL     OW 5152   1.706   1.604   1.411
 1699SOL    HW1 5153   1.786   1.644   1.446
 1699SOL    HW2 5154   1.637   1.634   1.470
 1700SOL     OW 5155   0.557   0.285   1.892
 1700SOL    HW1 5156   0.606   0.343   1.833
 1700SOL    HW2 5157   0.465   0.301   1.870
 1701SOL     OW 5158   2.500   3.203   4.010
 1701SOL    HW1 5159   2.514   3.297   4.000
 1701SOL    HW2 5160   2.576   3.162   3.967
 1702SOL     OW 5161   0.639   0.389   3.871
 1702SOL    HW1 5162   0.671   0.446   3.941
 1702SOL    HW2 5163   0.608   0.448   3.803
 1703SOL     OW 5164   4.942   3.011   2.028
 1703SOL    HW1 5165   4.976   2.923   2.043
 1703SOL    HW2 5166   4.861   3.014   2.080
 1704SOL     OW 5167   0.372   2.618   3.386
 1704SOL    HW1 5168   0.319   2.604   3.464
 1704SOL    HW2 5169   0.443   2.554   3.393
 1705SOL     OW 5170   1.757   0.900   3.678
 1705SOL    HW1 5171   1.811   0.968   3.636
 1705SOL    HW2 5172   1.781   0.819   3.633
 1706SOL     OW 5173   3.137   3.894   0.413
 1706SOL    HW1 5174   3.148   3.886   0.508
 1706SOL    HW2 5175   3.129   3.804   0.381
 1707SOL     OW 5176   1.367   0.644   2.686
 1707SOL    HW1 5177   1.281   0.686   2.692
 1707SOL    HW2 5178   1.424   0.712   2.651
 1708SOL     OW 5179   4.799   2.837   1.222
 1708SOL    HW1 5180   4.817   2.929   1.243
 1708SOL    HW2 5181   4.714   2.820   1.263
 1709SOL     OW 5182   1.413   3.864   0.055
 1709SOL    HW1 5183   1.376   3.926   4.973
 1709SOL    HW2 5184   1.354   3.868   0.131
 1710SOL     OW 5185   3.756   3.487   1.462
 1710SOL    HW1 5186   3.749   3.395   1.487
 1710SOL    HW2 5187   3.761   3.534   1.545
 1711SOL     OW 5188   0.680   2.672   0.575
 1711SOL    HW1 5189   0.625   2.751   0.575
 1711SOL    HW2 5190   0.626   2.606   0.618
 1712SOL     OW 5191   0.353   2.882   0.800
 1712SOL    HW1 5192   0.261   2.907   0.793
 1712SOL    HW2 5193   0.373   2.888   0.894
 1713SOL     OW 5194   1.370   4.793   2.701
 1713SOL    HW1 5195   1.343   4.815   2.790
 1713SOL    HW2 5196   1.465   4.810   2.700
 1714SOL     OW 5197   2.837   2.512   3.982
 1714SOL    HW1 5198   2.829   2.607   3.994
 1714SOL    HW2 5199   2.771   2.490   3.918
 1715SOL     OW 5200   4.313   0.201   0.990
 1715SOL    HW1 5201   4.251   0.254   1.040
 1715SOL    HW2 5202   4.262   0.127   0.959
 1716SOL     OW 5203   1.736   2.577   3.789
 1716SOL    HW1 5204   1.821   2.536   3.806
 1716SOL    HW2 5205   1.704   2.600   3.876
 1717SOL     OW 5206   1.071   4.104   0.929
 1717SOL    HW1 5207   1.127   4.155   0.870
 1717SOL    HW2 5208   1.126   4.031   0.956
 1718SOL     OW 5209   0.563   0.692   2.022
 1718SOL    HW1 5210   0.492   0.755   2.012
 1718SOL    HW2 5211   0.635   0.743   2.059
 1719SOL     OW 5212   2.487   1.753   3.047
 1719SOL    HW1 5213   2.439   1.671   3.043
 1719SOL    HW2 5214   2.482   1.789   2.958
 1720SOL     OW 5215   4.935   2.979   4.656
 1720SOL    HW1 5216   4.980   3.027   4.587
 1720SOL    HW2 5217   4.912   2.895   4.617
 1721SOL     OW 5218   3.668   0.683   3.284
 1721SOL    HW1 5219   3.692   0.594   3.309
 1721SOL    HW2 5220   3.695   0.737   3.358
 1722SOL     OW 5221   3.102   3.884   1.154
 1722SOL    HW1 5222   3.194   3.867   1.175
 1722SOL    HW2 5223   3.100   3.888   1.059
 1723SOL     OW 5224   4.024   3.439   4.446
 1723SOL    HW1 5225   4.091   3.371   4.456
 1723SOL    HW2 5226   4.069   3.520   4.471
 1724SOL     OW 5227   1.687   3.388   0.864
 1724SOL    HW1 5228   1.613   3.361   0.810
 1724SOL    HW2 5229   1.726   3.461   0.816
 1725SOL     OW 5230   3.697   1.208   4.870
 1725SOL    HW1 5231   3.787   1.232   4.847
 1725SOL    HW2 5232   3.650   1.292   4.872
 1726SOL     OW 5233   4.638   2.882   2.606
 1726SOL    HW1 5234   4.651   2.975   2.624
 1726SOL    HW2 5235   4.675   2.870   2.519
 1727SOL     OW 5236   2.930   1.458   3.425
 1727SOL    HW1 5237   2.912   1.368   3.451
 1727SOL    HW2 5238   2.875   1.512   3.482
 1728SOL     OW 5239   2.958   2.075   2.661
 1728SOL    HW1 5240   2.935   2.160   2.698
 1728SOL    HW2 5241   2.896   2.063   2.588
 1729SOL     OW 5242   1.984   0.636   3.016
 1729SOL    HW1 5243   1.962   0.602   2.929
 1729SOL    HW2 5244   2.074   0.669   3.007
 1730SOL     OW 5245   4.190   1.130   4.964
 1730SOL    HW1 5246   4.271   1.113   4.916
 1730SOL    HW2 5247   4.168   1.221   4.943
 1731SOL     OW 5248   2.221   1.033   4.028
 1731SOL    HW1 5249   2.200   1.053   4.120
 1731SOL    HW2 5250   2.158   0.965   4.004
 1732SOL     OW 5251   2.385   3.361   2.752
 1732SOL    HW1 5252   2.359   3.276   2.717
 1732SOL    HW2 5253   2.389   3.418   2.675
 1733SOL     OW 5254   3.793   3.681   0.338
 1733SOL    HW1 5255   3.810   3.657   0.247
 1733SOL    HW2 5256   3.873   3.655   0.385
 1734SOL     OW 5257   0.276   4.726   0.741
 1734SOL    HW1 5258   0.226   4.648   0.763
 1734SOL    HW2 5259   0.329   4.700   0.666
 1735SOL     OW 5260   2.730   4.126   1.113
 1735SOL    HW1 5261   2.719   4.142   1.019
 1735SOL    HW2 5262   2.664   4.181   1.155
 1736SOL     OW 5263   0.986   1.102   2.051
 1736SOL    HW1 5264   1.002   1.069   1.962
 1736SOL    HW2 5265   1.068   1.085   2.097
 1737SOL     OW 5266   3.458   0.340   3.269
 1737SOL    HW1 5267   3.365   0.330   3.291
 1737SOL    HW2 5268   3.469   0.289   3.188
 1738SOL     OW 5269   4.932   1.028   4.945
 1738SOL    HW1 5270   4.869   1.041   4.873
 1738SOL    HW2 5271   4.878   1.025   0.043
 1739SOL     OW 5272   1.192   3.772   0.476
 1739SOL    HW1 5273   1.106   3.761   0.517
 1739SOL    HW2 5274   1.238   3.690   0.494
 1740SOL     OW 5275   3.233   2.031   3.331
 1740SOL    HW1 5276   3.226   2.045   3.425
 1740SOL    HW2 5277   3.231   1.936   3.321
 1741SOL     OW 5278   0.292   4.741   2.570
 1741SOL    HW1 5279   0.376   4.785   2.563
 1741SOL    HW2 5280   0.307   4.653   2.536
 1742SOL     OW 5281   0.349   3.936   0.646
 1742SOL    HW1 5282   0.256   3.949   0.662
 1742SOL    HW2 5283   0.393   3.986   0.715
 1743SOL     OW 5284   0.684   1.055   3.825
 1743SOL    HW1 5285   0.697   1.116   3.897
 1743SOL    HW2 5286   0.768   1.053   3.780
 1744SOL     OW 5287   0.266   4.366   2.145
 1744SOL    HW1 5288   0.313   4.430   2.092
 1744SOL    HW2 5289   0.175   4.399   2.146
 1745SOL     OW 5290   3.411   3.940   2.287
 1745SOL    HW1 5291   3.379   3.924   2.198
 1745SOL    HW2 5292   3.454   4.025   2.282
 1746SOL     OW 5293   4.138   2.691   3.057
 1746SOL    HW1 5294   4.168   2.605   3.026
 1746SOL    HW2 5295   4.218   2.740   3.073
 1747SOL     OW 5296   1.009   0.354   0.287
 1747SOL    HW1 5297   0.943   0.287   0.268
 1747SOL    HW2 5298   1.081   0.333   0.227
 1748SOL     OW 5299   1.275   0.783   2.310
 1748SOL    HW1 5300   1.333   0.840   2.359
 1748SOL    HW2 5301   1.332   0.714   2.275
 1749SOL     OW 5302   4.234   3.194   2.225
 1749SOL    HW1 5303   4.151   3.175   2.182
 1749SOL    HW2 5304   4.238   3.132   2.299
 1750SOL     OW 5305   4.698   3.863   0.592
 1750SOL    HW1 5306   4.744   3.864   0.676
 1750SOL    HW2 5307   4.662   3.952   0.584
 1751SOL     OW 5308   2.987   1.480   4.119
 1751SOL    HW1 5309   2.908   1.531   4.137
 1751SOL    HW2 5310   3.014   1.509   4.032
 1752SOL     OW 5311   4.092   0.508   2.532
 1752SOL    HW1 5312   4.047   0.436   2.488
 1752SOL    HW2 5313   4.024   0.574   2.544
 1753SOL     OW 5314   2.100   1.834   1.239
 1753SOL    HW1 5315   2.039   1.796   1.175
 1753SOL    HW2 5316   2.147   1.901   1.189
 1754SOL     OW 5317   3.683   4.424   4.446
 1754SOL    HW1 5318   3.598   4.455   4.479
 1754SOL    HW2 5319   3.661   4.366   4.373
 1755SOL     OW 5320   4.387   3.104   4.712
 1755SOL    HW1 5321   4.458   3.044   4.688
 1755SOL    HW2 5322   4.308   3.049   4.711
 1756SOL     OW 5323   3.725   4.798   4.332
 1756SOL    HW1 5324   3.694   4.809   4.242
 1756SOL    HW2 5325   3.734   4.703   4.342
 1757SOL     OW 5326   0.675   2.983   0.847
 1757SOL    HW1 5327   0.691   2.907   0.903
 1757SOL    HW2 5328   0.693   2.952   0.759
 1758SOL     OW 5329   1.759   2.808   2.369
 1758SOL    HW1 5330   1.763   2.802   2.465
 1758SOL    HW2 5331   1.716   2.726   2.342
 1759SOL     OW 5332   2.473   2.462   4.562
 1759SOL    HW1 5333   2.534   2.530   4.535
 1759SOL    HW2 5334   2.413   2.453   4.489
 1760SOL     OW 5335   4.772   1.903   3.897
 1760SOL    HW1 5336   4.748   1.813   3.919
 1760SOL    HW2 5337   4.705   1.957   3.940
 1761SOL     OW 5338   4.384   1.483   4.595
 1761SOL    HW1 5339   4.293   1.498   4.620
 1761SOL    HW2 5340   4.433   1.552   4.641
 1762SOL     OW 5341   3.065   0.607   3.706
 1762SOL    HW1 5342   3.142   0.657   3.735
 1762SOL    HW2 5343   3.051   0.635   3.615
 1763SOL     OW 5344   2.533   2.987   4.188
 1763SOL    HW1 5345   2.522   3.058   4.125
 1763SOL    HW2 5346   2.614   3.009   4.235
 1764SOL     OW 5347   4.325   4.814   3.162
 1764SOL    HW1 5348   4.343   4.804   3.068
 1764SOL    HW2 5349   4.405   4.783   3.205
 1765SOL     OW 5350   3.336   3.963   4.099
 1765SOL    HW1 5351   3.284   4.041   4.118
 1765SOL    HW2 5352   3.328   3.908   4.176
 1766SOL     OW 5353   2.338   0.900   0.399
 1766SOL    HW1 5354   2.288   0.834   0.446
 1766SOL    HW2 5355   2.277   0.973   0.388
 1767SOL     OW 5356   0.006   4.415   2.232
 1767SOL    HW1 5357   4.980   4.358   2.308
 1767SOL    HW2 5358   4.943   4.496   2.259
 1768SOL     OW 5359   1.568   3.574   1.825
 1768SOL    HW1 5360   1.663   3.575   1.813
 1768SOL    HW2 5361   1.534   3.564   1.736
 1769SOL     OW 5362   3.629   1.501   0.908
 1769SOL    HW1 5363   3.580   1.582   0.891
 1769SOL    HW2 5364   3.561   1.434   0.920
 1770SOL     OW 5365   0.238   1.068   1.007
 1770SOL    HW1 5366   0.285   0.986   1.025
 1770SOL    HW2 5367   0.300   1.136   1.032
 1771SOL     OW 5368   3.083   3.711   2.772
 1771SOL    HW1 5369   3.136   3.647   2.725
 1771SOL    HW2 5370   2.992   3.687   2.750
 1772SOL     OW 5371   1.368   4.496   1.035
 1772SOL    HW1 5372   1.368   4.459   1.123
 1772SOL    HW2 5373   1.403   4.426   0.980
 1773SOL     OW 5374   3.059   1.854   1.178
 1773SOL    HW1 5375   3.135   1.809   1.141
 1773SOL    HW2 5376   3.050   1.816   1.266
 1774SOL     OW 5377   3.970   0.880   0.839
 1774SOL    HW1 5378   3.959   0.971   0.866
 1774SOL    HW2 5379   3.984   0.833   0.921
 1775SOL     OW 5380   2.111   0.043   2.474
 1775SOL    HW1 5381   2.103   4.930   2.491
 1775SOL    HW2 5382   2.061   0.085   2.544
 1776SOL     OW 5383   0.832   3.211   2.573
 1776SOL    HW1 5384   0.824   3.169   2.659
 1776SOL    HW2 5385   0.797   3.299   2.586
 1777SOL     OW 5386   0.425   1.162   0.125
 1777SOL    HW1 5387   0.387   1.164   0.213
 1777SOL    HW2 5388   0.352   1.180   0.066
 1778SOL     OW 5389   0.345   2.902   1.587
 1778SOL    HW1 5390   0.398   2.826   1.609
 1778SOL    HW2 5391   0.324   2.891   1.494
 1779SOL     OW 5392   3.725   3.443   4.353
 1779SOL    HW1 5393   3.812   3.442   4.313
 1779SOL    HW2 5394   3.667   3.477   4.285
 1780SOL     OW 5395   3.148   3.092   4.020
 1780SOL    HW1 5396   3.198   3.132   3.949
 1780SOL    HW2 5397   3.201   3.016   4.046
 1781SOL     OW 5398   2.051   0.749   0.218
 1781SOL    HW1 5399   2.020   0.827   0.265
 1781SOL    HW2 5400   2.124   0.782   0.165
 1782SOL     OW 5401   0.311   2.195   2.323
 1782SOL    HW1 5402   0.361   2.126   2.367
 1782SOL    HW2 5403   0.252   2.148   2.265
 1783SOL     OW 5404   2.905   3.503   3.263
 1783SOL    HW1 5405   2.858   3.496   3.180
 1783SOL    HW2 5406   2.937   3.415   3.280
 1784SOL     OW 5407   1.298   0.864   1.567
 1784SOL    HW1 5408   1.208   0.898   1.570
 1784SOL    HW2 5409   1.289   0.771   1.583
 1785SOL     OW 5410   2.539   3.160   1.038
 1785SOL    HW1 5411   2.595   3.237   1.024
 1785SOL    HW2 5412   2.491   3.150   0.956
 1786SOL     OW 5413   2.674   0.001   3.727
 1786SOL    HW1 5414   2.667   0.037   3.639
 1786SOL    HW2 5415   2.766   0.012   3.751
 1787SOL     OW 5416   3.427   2.218   0.032
 1787SOL    HW1 5417   3.356   2.216   0.096
 1787SOL    HW2 5418   3.447   2.127   0.015
 1788SOL     OW 5419   3.044   0.900   2.001
 1788SOL    HW1 5420   3.005   0.814   1.985
 1788SOL    HW2 5421   2.975   0.962   1.975
 1789SOL     OW 5422   2.522   1.034   4.857
 1789SOL    HW1 5423   2.593   1.068   4.911
 1789SOL    HW2 5424   2.451   1.017   4.919
 1790SOL     OW 5425   3.429   1.687   0.848
 1790SOL    HW1 5426   3.442   1.748   0.775
 1790SOL    HW2 5427   3.340   1.653   0.836
 1791SOL     OW 5428   1.424   0.321   2.501
 1791SOL    HW1 5429   1.407   0.244   2.556
 1791SOL    HW2 5430   1.337   0.358   2.484
 1792SOL     OW 5431   1.180   0.883   0.828
 1792SOL    HW1 5432   1.221   0.911   0.746
 1792SOL    HW2 5433   1.169   0.788   0.817
 1793SOL     OW 5434   4.596   1.670   4.254
 1793SOL    HW1 5435   4.580   1.695   4.345
 1793SOL    HW2 5436   4.550   1.587   4.244
 1794SOL     OW 5437   4.306   3.428   4.716
 1794SOL    HW1 5438   4.254   3.386   4.648
 1794SOL    HW2 5439   4.243   3.470   4.773
 1795SOL     OW 5440   0.980   0.629   2.182
 1795SOL    HW1 5441   0.894   0.668   2.191
 1795SOL    HW2 5442   1.041   0.702   2.187
 1796SOL     OW 5443   3.595   2.417   0.391
 1796SOL    HW1 5444   3.644   2.458   0.462
 1796SOL    HW2 5445   3.505   2.413   0.423
 1797SOL     OW 5446   0.567   1.991   1.129
 1797SOL    HW1 5447   0.573   2.063   1.066
 1797SOL    HW2 5448   0.583   1.912   1.078
 1798SOL     OW 5449   0.931   0.682   0.756
 1798SOL    HW1 5450   1.024   0.663   0.741
 1798SOL    HW2 5451   0.910   0.751   0.694
 1799SOL     OW 5452   2.513   0.988   0.593
 1799SOL    HW1 5453   2.446   1.036   0.642
 1799SOL    HW2 5454   2.464   0.943   0.524
 1800SOL     OW 5455   3.997   0.294   4.089
 1800SOL    HW1 5456   4.052   0.322   4.016
 1800SOL    HW2 5457   3.911   0.278   4.050
 1801SOL     OW 5458   3.729   2.895   1.532
 1801SOL    HW1 5459   3.634   2.909   1.538
 1801SOL    HW2 5460   3.737   2.805   1.501
 1802SOL     OW 5461   0.944   1.207   3.817
 1802SOL    HW1 5462   0.977   1.284   3.862
 1802SOL    HW2 5463   1.022   1.159   3.790
 1803SOL     OW 5464   0.947   2.339   4.833
 1803SOL    HW1 5465   1.029   2.324   4.881
 1803SOL    HW2 5466   0.884   2.279   4.872
 1804SOL     OW 5467   3.649   4.079   2.944
 1804SOL    HW1 5468   3.634   4.079   3.039
 1804SOL    HW2 5469   3.743   4.068   2.935
 1805SOL     OW 5470   2.313   4.914   4.979
 1805SOL    HW1 5471   2.300   4.947   4.890
 1805SOL    HW2 5472   2.373   4.977   0.039
 1806SOL     OW 5473   2.433   0.684   3.777
 1806SOL    HW1 5474   2.464   0.594   3.792
 1806SOL    HW2 5475   2.426   0.692   3.682
 1807SOL     OW 5476   3.216   3.289   4.615
 1807SOL    HW1 5477   3.295   3.246   4.582
 1807SOL    HW2 5478   3.145   3.228   4.595
 1808SOL     OW 5479   1.687   1.113   3.043
 1808SOL    HW1 5480   1.692   1.168   2.966
 1808SOL    HW2 5481   1.764   1.056   3.036
 1809SOL     OW 5482   2.052   2.728   2.639
 1809SOL    HW1 5483   2.059   2.728   2.735
 1809SOL    HW2 5484   2.067   2.637   2.614
 1810SOL     OW 5485   1.892   0.467   2.726
 1810SOL    HW1 5486   1.799   0.474   2.704
 1810SOL    HW2 5487   1.921   0.557   2.738
 1811SOL     OW 5488   1.207   0.592   0.781
 1811SOL    HW1 5489   1.296   0.598   0.747
 1811SOL    HW2 5490   1.194   0.498   0.797
 1812SOL     OW 5491   4.278   1.849   2.636
 1812SOL    HW1 5492   4.356   1.820   2.683
 1812SOL    HW2 5493   4.207   1.796   2.672
 1813SOL     OW 5494   3.385   0.024   0.370
 1813SOL    HW1 5495   3.408   4.912   0.363
 1813SOL    HW2 5496   3.330   0.041   0.294
 1814SOL     OW 5497   4.789   2.755   1.991
 1814SOL    HW1 5498   4.718   2.693   1.979
 1814SOL    HW2 5499   4.749   2.831   2.033
 1815SOL     OW 5500   1.325   1.318   1.218
 1815SOL    HW1 5501   1.419   1.320   1.240
 1815SOL    HW2 5502   1.292   1.241   1.263
 1816SOL     OW 5503   1.606   2.288   0.051
 1816SOL    HW1 5504   1.531   2.315   0.104
 1816SOL    HW2 5505   1.671   2.260   0.116
 1817SOL     OW 5506   2.171   1.759   3.688
 1817SOL    HW1 5507   2.243   1.696   3.691
 1817SOL    HW2 5508   2.099   1.715   3.732
 1818SOL     OW 5509   3.822   4.340   3.131
 1818SOL    HW1 5510   3.792   4.359   3.042
 1818SOL    HW2 5511   3.760   4.274   3.163
 1819SOL     OW 5512   1.444   4.887   4.597
 1819SOL    HW1 5513   1.430   4.959   4.659
 1819SOL    HW2 5514   1.529   4.851   4.623
 1820SOL     OW 5515   3.179   0.681   2.344
 1820SOL    HW1 5516   3.162   0.693   2.437
 1820SOL    HW2 5517   3.258   0.626   2.340
 1821SOL     OW 5518   0.129   2.738   4.375
 1821SOL    HW1 5519   0.172   2.769   4.454
 1821SOL    HW2 5520   0.174   2.657   4.352
 1822SOL     OW 5521   0.778   3.035   3.336
 1822SOL    HW1 5522   0.756   3.022   3.428
 1822SOL    HW2 5523   0.811   2.950   3.307
 1823SOL     OW 5524   1.075   0.120   3.550
 1823SOL    HW1 5525   1.150   0.063   3.567
 1823SOL    HW2 5526   1.015   0.067   3.498
 1824SOL     OW 5527   2.124   2.670   3.425
 1824SOL    HW1 5528   2.104   2.664   3.332
 1824SOL    HW2 5529   2.156   2.583   3.448
 1825SOL     OW 5530   1.766   4.037   1.294
 1825SOL    HW1 5531   1.730   4.023   1.207
 1825SOL    HW2 5532   1.839   3.976   1.301
 1826SOL     OW 5533   2.099   0.928   1.238
 1826SOL    HW1 5534   2.068   0.844   1.207
 1826SOL    HW2 5535   2.044   0.947   1.315
 1827SOL     OW 5536   2.595   1.896   2.453
 1827SOL    HW1 5537   2.613   1.983   2.488
 1827SOL    HW2 5538   2.655   1.886   2.380
 1828SOL     OW 5539   4.456   2.445   3.818
 1828SOL    HW1 5540   4.362   2.430   3.824
 1828SOL    HW2 5541   4.487   2.441   3.909
 1829SOL     OW 5542   4.701   0.851   2.459
 1829SOL    HW1 5543   4.768   0.885   2.400
 1829SOL    HW2 5544   4.747   0.831   2.540
 1830SOL     OW 5545   0.018   2.160   3.916
 1830SOL    HW1 5546   4.968   2.079   3.874
 1830SOL    HW2 5547   0.110   2.143   3.936
 1831SOL     OW 5548   2.234   4.903   2.249
 1831SOL    HW1 5549   2.208   4.939   2.334
 1831SOL    HW2 5550   2.155   4.911   2.195
 1832SOL     OW 5551   1.368   3.020   1.130
 1832SOL    HW1 5552   1.327   3.014   1.216
 1832SOL    HW2 5553   1.462   3.012   1.147
 1833SOL     OW 5554   2.864   2.049   3.650
 1833SOL    HW1 5555   2.950   2.012   3.674
 1833SOL    HW2 5556   2.851   2.120   3.712
 1834SOL     OW 5557   4.323   0.526   0.194
 1834SOL    HW1 5558   4.267   0.508   0.270
 1834SOL    HW2 5559   4.295   0.463   0.128
 1835SOL     OW 5560   2.796   2.954   3.704
 1835SOL    HW1 5561   2.742   2.875   3.699
 1835SOL    HW2 5562   2.884   2.923   3.725
 1836SOL     OW 5563   3.049   3.222   3.270
 1836SOL    HW1 5564   3.143   3.224   3.249
 1836SOL    HW2 5565   3.037   3.141   3.319
 1837SOL     OW 5566   4.554   1.272   2.977
 1837SOL    HW1 5567   4.521   1.361   2.968
 1837SOL    HW2 5568   4.576   1.264   3.070
 1838SOL     OW 5569   1.234   1.482   4.124
 1838SOL    HW1 5570   1.206   1.555   4.179
 1838SOL    HW2 5571   1.311   1.514   4.078
 1839SOL     OW 5572   3.181   1.285   0.223
 1839SOL    HW1 5573   3.091   1.253   0.234
 1839SOL    HW2 5574   3.197   1.281   0.129
 1840SOL     OW 5575   4.707   1.171   0.699
 1840SOL    HW1 5576   4.720   1.097   0.757
 1840SOL    HW2 5577   4.714   1.248   0.756
 1841SOL     OW 5578   2.253   0.904   2.964
 1841SOL    HW1 5579   2.212   0.958   3.032
 1841SOL    HW2 5580   2.318   0.852   3.012
 1842SOL     OW 5581   2.668   4.492   4.687
 1842SOL    HW1 5582   2.689   4.534   4.604
 1842SOL    HW2 5583   2.591   4.438   4.668
 1843SOL     OW 5584   3.805   1.213   3.865
 1843SOL    HW1 5585   3.790   1.125   3.832
 1843SOL    HW2 5586   3.898   1.215   3.889
 1844SOL     OW 5587   4.129   1.549   4.635
 1844SOL    HW1 5588   4.094   1.463   4.611
 1844SOL    HW2 5589   4.068   1.612   4.595
 1845SOL     OW 5590   0.211   2.520   1.682
 1845SOL    HW1 5591   0.201   2.593   1.743
 1845SOL    HW2 5592   0.121   2.494   1.661
 1846SOL     OW 5593   2.126   4.709   3.436
 1846SOL    HW1 5594   2.178   4.781   3.471
 1846SOL    HW2 5595   2.173   4.680   3.358
 1847SOL     OW 5596   4.914   3.855   1.918
 1847SOL    HW1 5597   0.029   3.853   1.914
 1847SOL    HW2 5598   4.895   3.907   1.996
 1848SOL     OW 5599   3.154   1.509   1.066
 1848SOL    HW1 5600   3.186   1.580   1.010
 1848SOL    HW2 5601   3.210   1.512   1.143
 1849SOL     OW 5602   3.992   4.095   0.763
 1849SOL    HW1 5603   3.980   4.005   0.732
 1849SOL    HW2 5604   3.904   4.131   0.769
 1850SOL     OW 5605   0.654   4.859   1.001
 1850SOL    HW1 5606   0.568   4.829   0.971
 1850SOL    HW2 5607   0.715   4.822   0.937
 1851SOL     OW 5608   2.693   0.290   3.593
 1851SOL    HW1 5609   2.745   0.329   3.523
 1851SOL    HW2 5610   2.643   0.221   3.550
 1852SOL     OW 5611   2.956   0.525   3.260
 1852SOL    HW1 5612   2.956   0.597   3.323
 1852SOL    HW2 5613   2.985   0.565   3.178
 1853SOL     OW 5614   3.313   2.646   2.609
 1853SOL    HW1 5615   3.280   2.641   2.699
 1853SOL    HW2 5616   3.248   2.698   2.562
 1854SOL     OW 5617   4.052   3.623   3.826
 1854SOL    HW1 5618   4.099   3.706   3.817
 1854SOL    HW2 5619   4.119   3.556   3.810
 1855SOL     OW 5620   1.686   3.591   4.217
 1855SOL    HW1 5621   1.779   3.570   4.208
 1855SOL    HW2 5622   1.668   3.650   4.145
 1856SOL     OW 5623   4.287   2.800   4.208
 1856SOL    HW1 5624   4.253   2.746   4.137
 1856SOL    HW2 5625   4.226   2.787   4.280
 1857SOL     OW 5626   1.403   3.715   4.469
 1857SOL    HW1 5627   1.368   3.770   4.539
 1857SOL    HW2 5628   1.454   3.648   4.514
 1858SOL     OW 5629   3.903   2.987   3.296
 1858SOL    HW1 5630   3.950   3.033   3.366
 1858SOL    HW2 5631   3.811   3.008   3.312
 1859SOL     OW 5632   3.278   2.377   2.623
 1859SOL    HW1 5633   3.301   2.468   2.604
 1859SOL    HW2 5634   3.251   2.341   2.539
 1860SOL     OW 5635   4.441   4.247   1.920
 1860SOL    HW1 5636   4.503   4.176   1.939
 1860SOL    HW2 5637   4.387   4.212   1.848
 1861SOL     OW 5638   0.455   1.290   3.992
 1861SOL    HW1 5639   0.550   1.289   3.982
 1861SOL    HW2 5640   0.422   1.300   3.903
 1862SOL     OW 5641   2.729   1.954   3.128
 1862SOL    HW1 5642   2.649   1.958   3.181
 1862SOL    HW2 5643   2.750   1.861   3.124
 1863SOL     OW 5644   2.068   2.719   3.698
 1863SOL    HW1 5645   2.057   2.627   3.724
 1863SOL    HW2 5646   2.089   2.714   3.605
 1864SOL     OW 5647   0.172   1.488   3.734
 1864SOL    HW1 5648   0.086   1.449   3.717
 1864SOL    HW2 5649   0.232   1.414   3.739
 1865SOL     OW 5650   2.420   2.010   4.745
 1865SOL    HW1 5651   2.373   1.948   4.691
 1865SOL    HW2 5652   2.380   2.002   4.832
 1866SOL     OW 5653   1.962   1.601   0.202
 1866SOL    HW1 5654   1.990   1.586   0.293
 1866SOL    HW2 5655   2.029   1.559   0.149
 1867SOL     OW 5656   1.483   0.341   2.007
 1867SOL    HW1 5657   1.549   0.280   1.974
 1867SOL    HW2 5658   1.410   0.286   2.034
 1868SOL     OW 5659   0.801   2.596   4.896
 1868SOL    HW1 5660   0.748   2.579   4.818
 1868SOL    HW2 5661   0.847   2.514   4.912
 1869SOL     OW 5662   1.612   0.620   2.112
 1869SOL    HW1 5663   1.538   0.560   2.106
 1869SOL    HW2 5664   1.681   0.578   2.060
 1870SOL     OW 5665   2.017   4.174   4.958
 1870SOL    HW1 5666   1.953   4.103   4.969
 1870SOL    HW2 5667   1.963   4.254   4.957
 1871SOL     OW 5668   0.824   4.277   2.001
 1871SOL    HW1 5669   0.870   4.308   2.079
 1871SOL    HW2 5670   0.820   4.182   2.011
 1872SOL     OW 5671   4.363   2.053   3.951
 1872SOL    HW1 5672   4.322   2.127   3.994
 1872SOL    HW2 5673   4.420   2.092   3.885
 1873SOL     OW 5674   4.884   4.345   1.774
 1873SOL    HW1 5675   4.923   4.309   1.854
 1873SOL    HW2 5676   4.804   4.388   1.805
 1874SOL     OW 5677   2.499   0.992   2.821
 1874SOL    HW1 5678   2.483   0.979   2.727
 1874SOL    HW2 5679   2.438   0.933   2.864
 1875SOL     OW 5680   1.391   3.797   2.960
 1875SOL    HW1 5681   1.375   3.875   2.908
 1875SOL    HW2 5682   1.487   3.792   2.966
 1876SOL     OW 5683   2.359   2.511   4.106
 1876SOL    HW1 5684   2.419   2.555   4.166
 1876SOL    HW2 5685   2.272   2.526   4.144
 1877SOL     OW 5686   1.744   1.699   3.623
 1877SOL    HW1 5687   1.650   1.714   3.613
 1877SOL    HW2 5688   1.780   1.786   3.645
 1878SOL     OW 5689   2.600   3.497   3.398
 1878SOL    HW1 5690   2.540   3.430   3.432
 1878SOL    HW2 5691   2.545   3.574   3.383
 1879SOL     OW 5692   2.154   0.503   3.688
 1879SOL    HW1 5693   2.145   0.428   3.746
 1879SOL    HW2 5694   2.140   0.467   3.600
 1880SOL     OW 5695   4.903   1.929   4.777
 1880SOL    HW1 5696   4.911   1.999   4.713
 1880SOL    HW2 5697   4.944   1.853   4.735
 1881SOL     OW 5698   3.169   2.251   3.186
 1881SOL    HW1 5699   3.088   2.281   3.227
 1881SOL    HW2 5700   3.191   2.170   3.230
 1882SOL     OW 5701   4.451   4.872   4.162
 1882SOL    HW1 5702   4.475   4.931   4.233
 1882SOL    HW2 5703   4.423   4.930   4.090
 1883SOL     OW 5704   1.968   4.713   0.091
 1883SOL    HW1 5705   1.944   4.748   0.005
 1883SOL    HW2 5706   1.884   4.688   0.131
 1884SOL     OW 5707   1.554   0.524   0.968
 1884SOL    HW1 5708   1.577   0.488   1.054
 1884SOL    HW2 5709   1.494   0.460   0.930
 1885SOL     OW 5710   0.381   3.484   0.074
 1885SOL    HW1 5711   0.403   3.576   0.089
 1885SOL    HW2 5712   0.285   3.481   0.078
 1886SOL     OW 5713   3.923   2.683   0.440
 1886SOL    HW1 5714   3.932   2.778   0.443
 1886SOL    HW2 5715   3.965   2.658   0.358
 1887SOL     OW 5716   3.474   0.967   1.694
 1887SOL    HW1 5717   3.379   0.974   1.688
 1887SOL    HW2 5718   3.497   1.009   1.777
 1888SOL     OW 5719   4.018   3.611   1.911
 1888SOL    HW1 5720   4.034   3.565   1.828
 1888SOL    HW2 5721   3.922   3.613   1.919
 1889SOL     OW 5722   3.498   3.690   1.999
 1889SOL    HW1 5723   3.467   3.635   1.927
 1889SOL    HW2 5724   3.429   3.755   2.012
 1890SOL     OW 5725   1.793   3.215   1.904
 1890SOL    HW1 5726   1.802   3.145   1.968
 1890SOL    HW2 5727   1.799   3.295   1.956
 1891SOL     OW 5728   0.308   3.072   4.723
 1891SOL    HW1 5729   0.391   3.115   4.703
 1891SOL    HW2 5730   0.260   3.136   4.776
 1892SOL     OW 5731   3.990   2.094   1.298
 1892SOL    HW1 5732   4.061   2.053   1.249
 1892SOL    HW2 5733   3.971   2.032   1.369
 1893SOL     OW 5734   1.906   2.233   4.698
 1893SOL    HW1 5735   1.840   2.164   4.710
 1893SOL    HW2 5736   1.940   2.217   4.610
 1894SOL     OW 5737   4.640   2.679   3.350
 1894SOL    HW1 5738   4.692   2.599   3.350
 1894SOL    HW2 5739   4.554   2.651   3.318
 1895SOL     OW 5740   1.919   0.838   2.188
 1895SOL    HW1 5741   2.014   0.825   2.191
 1895SOL    HW2 5742   1.882   0.751   2.206
 1896SOL     OW 5743   1.260   4.676   0.564
 1896SOL    HW1 5744   1.228   4.736   0.632
 1896SOL    HW2 5745   1.283   4.734   0.491
 1897SOL     OW 5746   1.054   1.474   0.775
 1897SOL    HW1 5747   1.072   1.386   0.743
 1897SOL    HW2 5748   0.990   1.462   0.845
 1898SOL     OW 5749   2.535   4.095   2.611
 1898SOL    HW1 5750   2.489   4.100   2.694
 1898SOL    HW2 5751   2.465   4.097   2.545
 1899SOL     OW 5752   4.559   2.957   1.578
 1899SOL    HW1 5753   4.565   3.017   1.653
 1899SOL    HW2 5754   4.562   3.014   1.502
 1900SOL     OW 5755   2.058   0.184   0.478
 1900SOL    HW1 5756   2.038   0.265   0.524
 1900SOL    HW2 5757   1.973   0.146   0.457
 1901SOL     OW 5758   2.767   0.368   3.347
 1901SOL    HW1 5759   2.694   0.401   3.295
 1901SOL    HW2 5760   2.842   0.421   3.319
 1902SOL     OW 5761   2.206   3.751   2.498
 1902SOL    HW1 5762   2.192   3.696   2.421
 1902SOL    HW2 5763   2.295   3.785   2.487
 1903SOL     OW 5764   0.888   2.918   2.282
 1903SOL    HW1 5765   0.928   2.990   2.330
 1903SOL    HW2 5766   0.962   2.861   2.259
 1904SOL     OW 5767   2.423   0.697   2.293
 1904SOL    HW1 5768   2.478   0.712   2.216
 1904SOL    HW2 5769   2.482   0.708   2.367
 1905SOL     OW 5770   3.664   3.132   3.288
 1905SOL    HW1 5771   3.634   3.054   3.242
 1905SOL    HW2 5772   3.679   3.196   3.219
 1906SOL     OW 5773   2.172   1.475   0.095
 1906SOL    HW1 5774   2.255   1.523   0.093
 1906SOL    HW2 5775   2.194   1.386   0.066
 1907SOL     OW 5776   3.499   1.886   0.639
 1907SOL    HW1 5777   3.422   1.941   0.649
 1907SOL    HW2 5778   3.573   1.944   0.656
 1908SOL     OW 5779   4.458   4.489   0.527
 1908SOL    HW1 5780   4.441   4.563   0.468
 1908SOL    HW2 5781   4.531   4.443   0.487
 1909SOL     OW 5782   4.314   3.197   0.695
 1909SOL    HW1 5783   4.335   3.255   0.622
 1909SOL    HW2 5784   4.345   3.244   0.772
 1910SOL     OW 5785   4.321   1.708   4.106
 1910SOL    HW1 5786   4.297   1.709   4.013
 1910SOL    HW2 5787   4.339   1.617   4.126
 1911SOL     OW 5788   4.041   1.252   3.975
 1911SOL    HW1 5789   4.129   1.215   3.964
 1911SOL    HW2 5790   4.056   1.344   3.996
 1912SOL     OW 5791   0.595   4.545   0.195
 1912SOL    HW1 5792   0.638   4.563   0.111
 1912SOL    HW2 5793   0.511   4.506   0.171
 1913SOL     OW 5794   2.499   4.219   3.728
 1913SOL    HW1 5795   2.532   4.303   3.760
 1913SOL    HW2 5796   2.568   4.157   3.750
 1914SOL     OW 5797   4.503   3.925   3.047
 1914SOL    HW1 5798   4.589   3.915   3.087
 1914SOL    HW2 5799   4.520   3.927   2.953
 1915SOL     OW 5800   2.239   3.472   1.889
 1915SOL    HW1 5801   2.172   3.415   1.926
 1915SOL    HW2 5802   2.232   3.460   1.795
 1916SOL     OW 5803   3.780   3.713   1.000
 1916SOL    HW1 5804   3.763   3.633   1.049
 1916SOL    HW2 5805   3.695   3.736   0.962
 1917SOL     OW 5806   2.228   4.490   2.145
 1917SOL    HW1 5807   2.210   4.502   2.238
 1917SOL    HW2 5808   2.221   4.396   2.131
 1918SOL     OW 5809   3.965   4.456   1.295
 1918SOL    HW1 5810   3.875   4.432   1.271
 1918SOL    HW2 5811   3.971   4.549   1.274
 1919SOL     OW 5812   2.619   2.245   3.465
 1919SOL    HW1 5813   2.658   2.258   3.551
 1919SOL    HW2 5814   2.583   2.156   3.467
 1920SOL     OW 5815   0.823   2.344   2.373
 1920SOL    HW1 5816   0.828   2.248   2.375
 1920SOL    HW2 5817   0.730   2.363   2.369
 1921SOL     OW 5818   1.939   1.640   4.250
 1921SOL    HW1 5819   1.921   1.692   4.328
 1921SOL    HW2 5820   1.892   1.684   4.179
 1922SOL     OW 5821   2.603   4.550   3.306
 1922SOL    HW1 5822   2.687   4.516   3.337
 1922SOL    HW2 5823   2.618   4.569   3.213
 1923SOL     OW 5824   0.667   3.352   2.969
 1923SOL    HW1 5825   0.628   3.425   2.922
 1923SOL    HW2 5826   0.761   3.361   2.955
 1924SOL     OW 5827   4.054   3.471   1.388
 1924SOL    HW1 5828   3.960   3.486   1.378
 1924SOL    HW2 5829   4.069   3.384   1.352
 1925SOL     OW 5830   1.044   3.180   3.506
 1925SOL    HW1 5831   0.954   3.204   3.486
 1925SOL    HW2 5832   1.081   3.152   3.423
 1926SOL     OW 5833   0.990   1.702   4.400
 1926SOL    HW1 5834   1.038   1.631   4.442
 1926SOL    HW2 5835   0.902   1.699   4.439
 1927SOL     OW 5836   3.292   2.308   4.579
 1927SOL    HW1 5837   3.327   2.240   4.522
 1927SOL    HW2 5838   3.366   2.366   4.596
 1928SOL     OW 5839   1.433   0.207   1.100
 1928SOL    HW1 5840   1.460   0.118   1.122
 1928SOL    HW2 5841   1.437   0.211   1.005
 1929SOL     OW 5842   3.439   2.455   3.564
 1929SOL    HW1 5843   3.435   2.402   3.484
 1929SOL    HW2 5844   3.380   2.411   3.625
 1930SOL     OW 5845   4.612   1.795   1.176
 1930SOL    HW1 5846   4.535   1.785   1.232
 1930SOL    HW2 5847   4.686   1.778   1.234
 1931SOL     OW 5848   2.820   4.079   2.101
 1931SOL    HW1 5849   2.768   4.154   2.074
 1931SOL    HW2 5850   2.903   4.117   2.131
 1932SOL     OW 5851   2.940   1.564   4.596
 1932SOL    HW1 5852   2.986   1.643   4.567
 1932SOL    HW2 5853   2.968   1.551   4.686
 1933SOL     OW 5854   1.856   3.449   3.884
 1933SOL    HW1 5855   1.877   3.432   3.976
 1933SOL    HW2 5856   1.798   3.377   3.860
 1934SOL     OW 5857   4.441   1.239   2.554
 1934SOL    HW1 5858   4.433   1.202   2.642
 1934SOL    HW2 5859   4.359   1.215   2.510
 1935SOL     OW 5860   0.909   3.923   1.411
 1935SOL    HW1 5861   0.860   3.926   1.329
 1935SOL    HW2 5862   0.984   3.867   1.392
 1936SOL     OW 5863   3.678   1.461   3.841
 1936SOL    HW1 5864   3.749   1.513   3.803
 1936SOL    HW2 5865   3.709   1.371   3.835
 1937SOL     OW 5866   3.205   4.121   1.436
 1937SOL    HW1 5867   3.117   4.105   1.402
 1937SOL    HW2 5868   3.257   4.143   1.358
 1938SOL     OW 5869   3.222   1.532   1.434
 1938SOL    HW1 5870   3.278   1.456   1.447
 1938SOL    HW2 5871   3.157   1.525   1.505
 1939SOL     OW 5872   4.505   0.387   1.052
 1939SOL    HW1 5873   4.586   0.369   1.004
 1939SOL    HW2 5874   4.447   0.315   1.029
 1940SOL     OW 5875   0.659   0.396   1.136
 1940SOL    HW1 5876   0.691   0.433   1.053
 1940SOL    HW2 5877   0.692   0.306   1.135
 1941SOL     OW 5878   4.428   0.649   3.177
 1941SOL    HW1 5879   4.478   0.580   3.133
 1941SOL    HW2 5880   4.345   0.653   3.129
 1942SOL     OW 5881   0.847   3.704   4.117
 1942SOL    HW1 5882   0.765   3.673   4.078
 1942SOL    HW2 5883   0.864   3.788   4.074
 1943SOL     OW 5884   1.881   0.619   2.436
 1943SOL    HW1 5885   1.848   0.528   2.433
 1943SOL    HW2 5886   1.976   0.610   2.428
 1944SOL     OW 5887   3.907   2.672   4.925
 1944SOL    HW1 5888   3.906   2.688   4.831
 1944SOL    HW2 5889   3.817   2.647   4.946
 1945SOL     OW 5890   1.500   0.236   4.514
 1945SOL    HW1 5891   1.460   0.237   4.428
 1945SOL    HW2 5892   1.429   0.259   4.574
 1946SOL     OW 5893   3.924   2.096   0.248
 1946SOL    HW1 5894   3.993   2.071   0.310
 1946SOL    HW2 5895   3.914   2.019   0.192
 1947SOL     OW 5896   4.853   1.892   0.178
 1947SOL    HW1 5897   4.893   1.875   0.093
 1947SOL    HW2 5898   4.912   1.955   0.220
 1948SOL     OW 5899   1.619   3.347   4.381
 1948SOL    HW1 5900   1.639   3.420   4.323
 1948SOL    HW2 5901   1.530   3.365   4.412
 1949SOL     OW 5902   2.196   0.813   2.167
 1949SOL    HW1 5903   2.190   0.762   2.087
 1949SOL    HW2 5904   2.274   0.778   2.211
 1950SOL     OW 5905   2.918   0.682   1.883
 1950SOL    HW1 5906   2.850   0.627   1.922
 1950SOL    HW2 5907   2.922   0.652   1.792
 1951SOL     OW 5908   0.002   0.137   4.528
 1951SOL    HW1 5909   0.098   0.135   4.531
 1951SOL    HW2 5910   4.959   0.066   4.468
 1952SOL     OW 5911   2.020   1.617   0.479
 1952SOL    HW1 5912   2.090   1.683   0.476
 1952SOL    HW2 5913   1.995   1.613   0.571
 1953SOL     OW 5914   0.311   0.849   0.511
 1953SOL    HW1 5915   0.334   0.897   0.591
 1953SOL    HW2 5916   0.219   0.826   0.523
 1954SOL     OW 5917   4.940   3.599   0.464
 1954SOL    HW1 5918   4.893   3.558   0.391
 1954SOL    HW2 5919   4.939   3.533   0.534
 1955SOL     OW 5920   2.755   1.182   1.184
 1955SOL    HW1 5921   2.731   1.100   1.228
 1955SOL    HW2 5922   2.816   1.225   1.244
 1956SOL     OW 5923   3.285   1.259   0.501
 1956SOL    HW1 5924   3.242   1.277   0.418
 1956SOL    HW2 5925   3.364   1.210   0.477
 1957SOL     OW 5926   4.180   2.523   1.262
 1957SOL    HW1 5927   4.245   2.454   1.246
 1957SOL    HW2 5928   4.096   2.478   1.254
 1958SOL     OW 5929   0.622   0.651   2.939
 1958SOL    HW1 5930   0.623   0.630   2.846
 1958SOL    HW2 5931   0.542   0.610   2.972
 1959SOL     OW 5932   3.713   1.481   0.271
 1959SOL    HW1 5933   3.718   1.543   0.344
 1959SOL    HW2 5934   3.802   1.481   0.234
 1960SOL     OW 5935   0.965   3.600   2.139
 1960SOL    HW1 5936   0.920   3.669   2.188
 1960SOL    HW2 5937   0.952   3.521   2.192
 1961SOL     OW 5938   3.765   3.282   1.841
 1961SOL    HW1 5939   3.712   3.208   1.872
 1961SOL    HW2 5940   3.708   3.358   1.852
 1962SOL     OW 5941   2.268   0.261   1.620
 1962SOL    HW1 5942   2.322   0.264   1.542
 1962SOL    HW2 5943   2.282   0.173   1.656
 1963SOL     OW 5944   1.596   0.022   3.684
 1963SOL    HW1 5945   1.531   0.066   3.739
 1963SOL    HW2 5946   1.636   4.936   3.740
 1964SOL     OW 5947   4.471   2.520   3.212
 1964SOL    HW1 5948   4.383   2.487   3.228
 1964SOL    HW2 5949   4.513   2.453   3.159
 1965SOL     OW 5950   2.613   0.469   0.800
 1965SOL    HW1 5951   2.700   0.491   0.767
 1965SOL    HW2 5952   2.626   0.449   0.893
 1966SOL     OW 5953   2.361   3.643   0.073
 1966SOL    HW1 5954   2.415   3.682   0.004
 1966SOL    HW2 5955   2.375   3.700   0.149
 1967SOL     OW 5956   1.573   2.298   3.752
 1967SOL    HW1 5957   1.558   2.379   3.703
 1967SOL    HW2 5958   1.493   2.246   3.737
 1968SOL     OW 5959   4.623   0.764   1.376
 1968SOL    HW1 5960   4.633   0.761   1.281
 1968SOL    HW2 5961   4.712   0.775   1.409
 1969SOL     OW 5962   2.300   4.243   3.107
 1969SOL    HW1 5963   2.389   4.252   3.073
 1969SOL    HW2 5964   2.252   4.198   3.037
 1970SOL     OW 5965   4.720   4.928   4.495
 1970SOL    HW1 5966   4.776   4.880   4.434
 1970SOL    HW2 5967   4.671   0.009   4.439
 1971SOL     OW 5968   0.476   1.663   1.106
 1971SOL    HW1 5969   0.402   1.696   1.055
 1971SOL    HW2 5970   0.456   1.685   1.196
 1972SOL     OW 5971   4.594   0.549   4.385
 1972SOL    HW1 5972   4.603   0.465   4.340
 1972SOL    HW2 5973   4.648   0.540   4.464
 1973SOL     OW 5974   1.896   4.092   3.023
 1973SOL    HW1 5975   1.838   4.100   3.100
 1973SOL    HW2 5976   1.979   4.061   3.059
 1974SOL     OW 5977   0.188   2.878   2.499
 1974SOL    HW1 5978   0.132   2.904   2.572
 1974SOL    HW2 5979   0.271   2.852   2.540
 1975SOL     OW 5980   2.981   0.577   2.770
 1975SOL    HW1 5981   2.929   0.502   2.740
 1975SOL    HW2 5982   2.930   0.653   2.743
 1976SOL     OW 5983   0.371   4.248   1.746
 1976SOL    HW1 5984   0.332   4.333   1.724
 1976SOL    HW2 5985   0.462   4.255   1.716
 1977SOL     OW 5986   4.331   2.908   2.136
 1977SOL    HW1 5987   4.382   2.989   2.129
 1977SOL    HW2 5988   4.315   2.881   2.046
 1978SOL     OW 5989   1.091   2.234   1.766
 1978SOL    HW1 5990   1.107   2.152   1.813
 1978SOL    HW2 5991   1.081   2.300   1.835
 1979SOL     OW 5992   1.353   4.342   3.064
 1979SOL    HW1 5993   1.339   4.318   2.972
 1979SOL    HW2 5994   1.332   4.263   3.113
 1980SOL     OW 5995   3.155   3.521   4.776
 1980SOL    HW1 5996   3.098   3.475   4.838
 1980SOL    HW2 5997   3.149   3.470   4.695
 1981SOL     OW 5998   1.341   3.388   2.057
 1981SOL    HW1 5999   1.396   3.354   1.986
 1981SOL    HW2 6000   1.402   3.401   2.130
 1982SOL     OW 6001   4.182   3.819   2.454
 1982SOL    HW1 6002   4.170   3.845   2.545
 1982SOL    HW2 6003   4.100   3.775   2.430
 1983SOL     OW 6004   0.170   4.454   0.778
 1983SOL    HW1 6005   0.091   4.470   0.828
 1983SOL    HW2 6006   0.162   4.364   0.747
 1984SOL     OW 6007   3.902   1.820   3.117
 1984SOL    HW1 6008   3.945   1.738   3.140
 1984SOL    HW2 6009   3.841   1.837   3.189
 1985SOL     OW 6010   2.529   4.275   3.432
 1985SOL    HW1 6011   2.523   4.304   3.523
 1985SOL    HW2 6012   2.545   4.355   3.382
 1986SOL     OW 6013   0.414   3.091   3.301
 1986SOL    HW1 6014   0.436   3.175   3.260
 1986SOL    HW2 6015   0.482   3.079   3.368
 1987SOL     OW 6016   0.229   0.248   3.442
 1987SOL    HW1 6017   0.151   0.194   3.456
 1987SOL    HW2 6018   0.254   0.278   3.529
 1988SOL     OW 6019   3.806   2.396   1.381
 1988SOL    HW1 6020   3.758   2.317   1.404
 1988SOL    HW2 6021   3.842   2.378   1.294
 1989SOL     OW 6022   2.731   4.015   1.458
 1989SOL    HW1 6023   2.721   3.973   1.373
 1989SOL    HW2 6024   2.642   4.040   1.483
 1990SOL     OW 6025   4.972   2.143   1.262
 1990SOL    HW1 6026   0.069   2.195   1.284
 1990SOL    HW2 6027   4.899   2.205   1.263
 1991SOL     OW 6028   4.678   0.622   3.691
 1991SOL    HW1 6029   4.628   0.645   3.612
 1991SOL    HW2 6030   4.726   0.701   3.714
 1992SOL     OW 6031   2.735   1.945   0.136
 1992SOL    HW1 6032   2.767   1.965   0.224
 1992SOL    HW2 6033   2.664   2.008   0.122
 1993SOL     OW 6034   4.465   2.260   3.387
 1993SOL    HW1 6035   4.465   2.335   3.447
 1993SOL    HW2 6036   4.518   2.289   3.313
 1994SOL     OW 6037   3.235   1.859   2.243
 1994SOL    HW1 6038   3.296   1.822   2.307
 1994SOL    HW2 6039   3.277   1.844   2.158
 1995SOL     OW 6040   1.083   2.178   2.626
 1995SOL    HW1 6041   1.093   2.105   2.565
 1995SOL    HW2 6042   1.086   2.138   2.713
 1996SOL     OW 6043   2.742   1.293   0.583
 1996SOL    HW1 6044   2.737   1.247   0.499
 1996SOL    HW2 6045   2.657   1.337   0.591
 1997SOL     OW 6046   4.719   2.793   2.359
 1997SOL    HW1 6047   4.794   2.750   2.317
 1997SOL    HW2 6048   4.645   2.737   2.339
 1998SOL     OW 6049   2.267   2.717   2.283
 1998SOL    HW1 6050   2.285   2.718   2.377
 1998SOL    HW2 6051   2.180   2.757   2.275
 1999SOL     OW 6052   1.269   0.477   1.898
 1999SOL    HW1 6053   1.344   0.435   1.940
 1999SOL    HW2 6054   1.260   0.560   1.944
 2000SOL     OW 6055   2.057   2.284   2.930
 2000SOL    HW1 6056   2.152   2.280   2.925
 2000SOL    HW2 6057   2.037   2.276   3.023
 2001SOL     OW 6058   2.718   3.570   4.375
 2001SOL    HW1 6059   2.763   3.557   4.459
 2001SOL    HW2 6060   2.686   3.660   4.379
 2002SOL     OW 6061   0.294   1.058   3.967
 2002SOL    HW1 6062   0.293   1.033   4.059
 2002SOL    HW2 6063   0.330   1.146   3.966
 2003SOL     OW 6064   1.654   2.731   1.980
 2003SOL    HW1 6065   1.694   2.733   2.067
 2003SOL    HW2 6066   1.567   2.770   1.993
 2004SOL     OW 6067   2.161   3.904   3.483
 2004SOL    HW1 6068   2.136   3.825   3.435
 2004SOL    HW2 6069   2.167   3.972   3.415
 2005SOL     OW 6070   1.896   2.540   0.638
 2005SOL    HW1 6071   1.923   2.565   0.726
 2005SOL    HW2 6072   1.833   2.607   0.612
 2006SOL     OW 6073   2.028   3.625   0.954
 2006SOL    HW1 6074   2.080   3.655   0.880
 2006SOL    HW2 6075   2.093   3.595   1.018
 2007SOL     OW 6076   2.155   3.282   0.787
 2007SOL    HW1 6077   2.135   3.292   0.880
 2007SOL    HW2 6078   2.071   3.294   0.743
 2008SOL     OW 6079   1.914   4.366   2.617
 2008SOL    HW1 6080   1.871   4.284   2.593
 2008SOL    HW2 6081   1.945   4.402   2.534
 2009SOL     OW 6082   1.952   2.587   2.888
 2009SOL    HW1 6083   1.883   2.569   2.825
 2009SOL    HW2 6084   1.965   2.505   2.935
 2010SOL     OW 6085   0.158   2.644   2.889
 2010SOL    HW1 6086   0.215   2.669   2.962
 2010SOL    HW2 6087   0.165   2.549   2.884
 2011SOL     OW 6088   4.454   4.092   0.400
 2011SOL    HW1 6089   4.413   4.033   0.464
 2011SOL    HW2 6090   4.509   4.150   0.452
 2012SOL     OW 6091   1.641   1.670   1.166
 2012SOL    HW1 6092   1.681   1.656   1.252
 2012SOL    HW2 6093   1.547   1.677   1.184
 2013SOL     OW 6094   4.519   0.152   2.307
 2013SOL    HW1 6095   4.476   0.151   2.222
 2013SOL    HW2 6096   4.612   0.163   2.286
 2014SOL     OW 6097   4.745   3.394   4.470
 2014SOL    HW1 6098   4.682   3.327   4.443
 2014SOL    HW2 6099   4.692   3.459   4.517
 2015SOL     OW 6100   2.010   2.599   3.181
 2015SOL    HW1 6101   2.016   2.644   3.097
 2015SOL    HW2 6102   1.935   2.540   3.171
 2016SOL     OW 6103   1.531   1.757   1.879
 2016SOL    HW1 6104   1.624   1.773   1.865
 2016SOL    HW2 6105   1.528   1.686   1.943
 2017SOL     OW 6106   3.497   3.669   3.922
 2017SOL    HW1 6107   3.517   3.675   3.829
 2017SOL    HW2 6108   3.402   3.679   3.927
 2018SOL     OW 6109   1.843   4.804   4.032
 2018SOL    HW1 6110   1.813   4.802   4.123
 2018SOL    HW2 6111   1.775   4.758   3.983
 2019SOL     OW 6112   3.587   4.103   4.897
 2019SOL    HW1 6113   3.632   4.114   0.000
 2019SOL    HW2 6114   3.516   4.042   4.915
 2020SOL     OW 6115   1.670   1.239   1.994
 2020SOL    HW1 6116   1.661   1.166   2.055
 2020SOL    HW2 6117   1.687   1.198   1.909
 2021SOL     OW 6118   0.756   4.739   1.817
 2021SOL    HW1 6119   0.722   4.829   1.815
 2021SOL    HW2 6120   0.727   4.701   1.735
 2022SOL     OW 6121   3.088   1.001   1.018
 2022SOL    HW1 6122   3.028   0.954   0.960
 2022SOL    HW2 6123   3.087   1.092   0.986
 2023SOL     OW 6124   0.584   4.304   2.640
 2023SOL    HW1 6125   0.589   4.214   2.605
 2023SOL    HW2 6126   0.640   4.355   2.581
 2024SOL     OW 6127   1.368   2.952   1.424
 2024SOL    HW1 6128   1.411   2.963   1.509
 2024SOL    HW2 6129   1.308   2.879   1.438
 2025SOL     OW 6130   0.375   2.846   3.529
 2025SOL    HW1 6131   0.446   2.909   3.525
 2025SOL    HW2 6132   0.387   2.791   3.452
 2026SOL     OW 6133   0.568   0.258   4.390
 2026SOL    HW1 6134   0.510   0.330   4.363
 2026SOL    HW2 6135   0.607   0.228   4.309
 2027SOL     OW 6136   2.116   0.392   4.234
 2027SOL    HW1 6137   2.029   0.354   4.221
 2027SOL    HW2 6138   2.148   0.352   4.315
 2028SOL     OW 6139   0.178   1.113   0.265
 2028SOL    HW1 6140   0.138   1.026   0.271
 2028SOL    HW2 6141   0.181   1.144   0.355
 2029SOL     OW 6142   3.598   4.261   0.994
 2029SOL    HW1 6143   3.513   4.267   0.950
 2029SOL    HW2 6144   3.582   4.297   1.081
 2030SOL     OW 6145   4.536   0.469   2.992
 2030SOL    HW1 6146   4.569   0.487   2.904
 2030SOL    HW2 6147   4.450   0.429   2.978
 2031SOL     OW 6148   3.812   1.037   0.265
 2031SOL    HW1 6149   3.815   1.132   0.271
 2031SOL    HW2 6150   3.904   1.009   0.265
 2032SOL     OW 6151   2.536   3.914   2.293
 2032SOL    HW1 6152   2.499   3.992   2.251
 2032SOL    HW2 6153   2.629   3.935   2.304
 2033SOL     OW 6154   1.490   1.249   2.442
 2033SOL    HW1 6155   1.452   1.231   2.528
 2033SOL    HW2 6156   1.576   1.288   2.461
 2034SOL     OW 6157   0.645   1.303   0.178
 2034SOL    HW1 6158   0.568   1.256   0.147
 2034SOL    HW2 6159   0.610   1.367   0.240
 2035SOL     OW 6160   2.836   4.145   3.530
 2035SOL    HW1 6161   2.913   4.103   3.568
 2035SOL    HW2 6162   2.764   4.118   3.587
 2036SOL     OW 6163   0.608   0.967   0.108
 2036SOL    HW1 6164   0.574   0.897   0.164
 2036SOL    HW2 6165   0.540   1.034   0.108
 2037SOL     OW 6166   4.904   0.883   2.708
 2037SOL    HW1 6167   4.827   0.920   2.751
 2037SOL    HW2 6168   4.933   0.813   2.767
 2038SOL     OW 6169   0.918   4.166   4.758
 2038SOL    HW1 6170   0.885   4.247   4.797
 2038SOL    HW2 6171   0.984   4.194   4.696
 2039SOL     OW 6172   3.609   0.709   4.317
 2039SOL    HW1 6173   3.609   0.655   4.238
 2039SOL    HW2 6174   3.655   0.789   4.292
 2040SOL     OW 6175   4.293   1.148   1.199
 2040SOL    HW1 6176   4.381   1.112   1.189
 2040SOL    HW2 6177   4.249   1.087   1.259
 2041SOL     OW 6178   2.072   2.993   0.503
 2041SOL    HW1 6179   1.995   3.037   0.539
 2041SOL    HW2 6180   2.038   2.914   0.461
 2042SOL     OW 6181   4.924   0.755   1.278
 2042SOL    HW1 6182   0.032   0.790   1.275
 2042SOL    HW2 6183   4.928   0.683   1.342
 2043SOL     OW 6184   1.975   4.494   3.847
 2043SOL    HW1 6185   2.041   4.561   3.865
 2043SOL    HW2 6186   1.975   4.487   3.751
 2044SOL     OW 6187   0.427   4.701   2.164
 2044SOL    HW1 6188   0.332   4.708   2.172
 2044SOL    HW2 6189   0.455   4.787   2.134
 2045SOL     OW 6190   3.326   3.843   3.439
 2045SOL    HW1 6191   3.256   3.837   3.373
 2045SOL    HW2 6192   3.280   3.861   3.521
 2046SOL     OW 6193   0.666   4.831   4.244
 2046SOL    HW1 6194   0.703   4.919   4.244
 2046SOL    HW2 6195   0.600   4.833   4.313
 2047SOL     OW 6196   3.993   1.328   3.197
 2047SOL    HW1 6197   3.972   1.335   3.103
 2047SOL    HW2 6198   3.985   1.235   3.216
 2048SOL     OW 6199   4.133   1.499   3.726
 2048SOL    HW1 6200   4.174   1.467   3.646
 2048SOL    HW2 6201   4.207   1.520   3.784
 2049SOL     OW 6202   0.265   3.139   0.027
 2049SOL    HW1 6203   0.203   3.212   0.019
 2049SOL    HW2 6204   0.350   3.177   0.004
 2050SOL     OW 6205   1.401   3.040   0.542
 2050SOL    HW1 6206   1.308   3.061   0.533
 2050SOL    HW2 6207   1.408   3.004   0.630
 2051SOL     OW 6208   3.636   4.184   1.388
 2051SOL    HW1 6209   3.726   4.159   1.368
 2051SOL    HW2 6210   3.601   4.111   1.440
 2052SOL     OW 6211   0.388   2.087   4.785
 2052SOL    HW1 6212   0.352   2.000   4.801
 2052SOL    HW2 6213   0.344   2.117   4.705
 2053SOL     OW 6214   4.474   1.150   4.354
 2053SOL    HW1 6215   4.437   1.078   4.303
 2053SOL    HW2 6216   4.567   1.151   4.332
 2054SOL     OW 6217   1.575   0.959   4.589
 2054SOL    HW1 6218   1.602   0.927   4.503
 2054SOL    HW2 6219   1.655   0.954   4.642
 2055SOL     OW 6220   4.674   4.365   0.404
 2055SOL    HW1 6221   4.712   4.322   0.327
 2055SOL    HW2 6222   4.705   4.455   0.399
 2056SOL     OW 6223   3.180   0.866   4.975
 2056SOL    HW1 6224   3.222   0.946   0.024
 2056SOL    HW2 6225   3.241   0.796   0.017
 2057SOL     OW 6226   4.801   1.549   3.134
 2057SOL    HW1 6227   4.865   1.569   3.066
 2057SOL    HW2 6228   4.815   1.617   3.200
 2058SOL     OW 6229   0.022   3.864   2.794
 2058SOL    HW1 6230   4.969   3.954   2.787
 2058SOL    HW2 6231   4.924   3.811   2.808
 2059SOL     OW 6232   1.772   4.500   1.498
 2059SOL    HW1 6233   1.698   4.459   1.454
 2059SOL    HW2 6234   1.841   4.504   1.431
 2060SOL     OW 6235   4.055   2.358   3.268
 2060SOL    HW1 6236   4.094   2.276   3.299
 2060SOL    HW2 6237   4.092   2.425   3.325
 2061SOL     OW 6238   3.719   2.115   2.089
 2061SOL    HW1 6239   3.749   2.174   2.158
 2061SOL    HW2 6240   3.744   2.159   2.007
 2062SOL     OW 6241   3.297   4.593   3.873
 2062SOL    HW1 6242   3.332   4.629   3.792
 2062SOL    HW2 6243   3.309   4.663   3.938
 2063SOL     OW 6244   3.298   1.325   4.009
 2063SOL    HW1 6245   3.302   1.419   3.991
 2063SOL    HW2 6246   3.376   1.289   3.968
 2064SOL     OW 6247   1.836   4.378   4.967
 2064SOL    HW1 6248   1.757   4.358   0.038
 2064SOL    HW2 6249   1.803   4.408   4.883
 2065SOL     OW 6250   0.781   3.931   1.172
 2065SOL    HW1 6251   0.777   3.835   1.172
 2065SOL    HW2 6252   0.742   3.957   1.089
 2066SOL     OW 6253   0.236   0.897   1.376
 2066SOL    HW1 6254   0.196   0.867   1.458
 2066SOL    HW2 6255   0.328   0.876   1.385
 2067SOL     OW 6256   3.466   3.428   3.112
 2067SOL    HW1 6257   3.417   3.473   3.181
 2067SOL    HW2 6258   3.401   3.412   3.044
 2068SOL     OW 6259   2.653   4.377   3.891
 2068SOL    HW1 6260   2.647   4.438   3.965
 2068SOL    HW2 6261   2.722   4.414   3.835
 2069SOL     OW 6262   4.250   2.909   0.256
 2069SOL    HW1 6263   4.318   2.866   0.307
 2069SOL    HW2 6264   4.262   3.002   0.272
 2070SOL     OW 6265   2.877   1.364   3.792
 2070SOL    HW1 6266   2.906   1.300   3.727
 2070SOL    HW2 6267   2.866   1.312   3.872
 2071SOL     OW 6268   2.281   0.584   4.315
 2071SOL    HW1 6269   2.344   0.610   4.248
 2071SOL    HW2 6270   2.216   0.531   4.268
 2072SOL     OW 6271   0.879   1.947   1.415
 2072SOL    HW1 6272   0.901   2.038   1.430
 2072SOL    HW2 6273   0.783   1.946   1.409
 2073SOL     OW 6274   1.428   2.600   0.719
 2073SOL    HW1 6275   1.511   2.643   0.740
 2073SOL    HW2 6276   1.362   2.667   0.734
 2074SOL     OW 6277   4.132   0.309   3.847
 2074SOL    HW1 6278   4.157   0.219   3.829
 2074SOL    HW2 6279   4.092   0.340   3.766
 2075SOL     OW 6280   2.025   2.208   4.460
 2075SOL    HW1 6281   2.029   2.270   4.388
 2075SOL    HW2 6282   2.047   2.124   4.422
 2076SOL     OW 6283   3.309   1.203   3.575
 2076SOL    HW1 6284   3.286   1.150   3.652
 2076SOL    HW2 6285   3.340   1.286   3.611
 2077SOL     OW 6286   2.359   3.909   3.637
 2077SOL    HW1 6287   2.410   3.987   3.614
 2077SOL    HW2 6288   2.278   3.919   3.586
 2078SOL     OW 6289   4.420   0.209   2.042
 2078SOL    HW1 6290   4.432   0.265   1.965
 2078SOL    HW2 6291   4.410   0.121   2.006
 2079SOL     OW 6292   1.031   4.453   4.504
 2079SOL    HW1 6293   0.939   4.436   4.484
 2079SOL    HW2 6294   1.060   4.513   4.436
 2080SOL     OW 6295   2.607   4.740   1.870
 2080SOL    HW1 6296   2.527   4.688   1.878
 2080SOL    HW2 6297   2.628   4.737   1.776
 2081SOL     OW 6298   3.039   0.453   0.448
 2081SOL    HW1 6299   3.079   0.512   0.384
 2081SOL    HW2 6300   3.112   0.402   0.484
 2082SOL     OW 6301   4.086   3.652   0.386
 2082SOL    HW1 6302   4.169   3.631   0.429
 2082SOL    HW2 6303   4.098   3.621   0.296
 2083SOL     OW 6304   4.323   0.939   3.827
 2083SOL    HW1 6305   4.394   0.894   3.873
 2083SOL    HW2 6306   4.304   1.017   3.879
 2084SOL     OW 6307   1.850   0.275   3.087
 2084SOL    HW1 6308   1.828   0.184   3.069
 2084SOL    HW2 6309   1.781   0.325   3.044
 2085SOL     OW 6310   3.694   1.926   2.481
 2085SOL    HW1 6311   3.658   1.852   2.432
 2085SOL    HW2 6312   3.620   1.986   2.492
 2086SOL     OW 6313   0.056   3.641   4.269
 2086SOL    HW1 6314   0.028   3.562   4.223
 2086SOL    HW2 6315   4.972   3.707   4.244
 2087SOL     OW 6316   3.600   1.466   2.611
 2087SOL    HW1 6317   3.530   1.437   2.553
 2087SOL    HW2 6318   3.674   1.409   2.590
 2088SOL     OW 6319   2.232   4.195   2.214
 2088SOL    HW1 6320   2.328   4.191   2.222
 2088SOL    HW2 6321   2.211   4.128   2.149
 2089SOL     OW 6322   3.453   1.380   2.409
 2089SOL    HW1 6323   3.465   1.288   2.433
 2089SOL    HW2 6324   3.421   1.378   2.319
 2090SOL     OW 6325   3.096   3.453   0.804
 2090SOL    HW1 6326   3.067   3.504   0.728
 2090SOL    HW2 6327   3.169   3.504   0.840
 2091SOL     OW 6328   4.917   2.772   2.856
 2091SOL    HW1 6329   4.903   2.787   2.762
 2091SOL    HW2 6330   0.024   2.733   2.861
 2092SOL     OW 6331   4.044   2.578   0.685
 2092SOL    HW1 6332   3.980   2.600   0.753
 2092SOL    HW2 6333   4.021   2.635   0.611
 2093SOL     OW 6334   0.066   4.066   0.340
 2093SOL    HW1 6335   0.052   3.996   0.404
 2093SOL    HW2 6336   0.071   4.021   0.256
 2094SOL     OW 6337   1.860   3.656   1.377
 2094SOL    HW1 6338   1.889   3.565   1.382
 2094SOL    HW2 6339   1.938   3.704   1.348
 2095SOL     OW 6340   2.548   1.085   4.120
 2095SOL    HW1 6341   2.457   1.080   4.091
 2095SOL    HW2 6342   2.556   1.015   4.185
 2096SOL     OW 6343   0.029   4.661   2.719
 2096SOL    HW1 6344   0.063   4.575   2.745
 2096SOL    HW2 6345   0.098   4.699   2.665
 2097SOL     OW 6346   1.930   1.352   3.866
 2097SOL    HW1 6347   1.884   1.375   3.946
 2097SOL    HW2 6348   1.926   1.256   3.863
 2098SOL     OW 6349   1.680   2.605   3.353
 2098SOL    HW1 6350   1.716   2.553   3.282
 2098SOL    HW2 6351   1.714   2.694   3.337
 2099SOL     OW 6352   0.834   3.197   1.202
 2099SOL    HW1 6353   0.862   3.169   1.115
 2099SOL    HW2 6354   0.909   3.177   1.259
 2100SOL     OW 6355   0.999   3.477   1.416
 2100SOL    HW1 6356   1.081   3.449   1.374
 2100SOL    HW2 6357   0.930   3.452   1.354
 2101SOL     OW 6358   3.858   3.134   2.364
 2101SOL    HW1 6359   3.903   3.125   2.448
 2101SOL    HW2 6360   3.859   3.228   2.347
 2102SOL     OW 6361   3.764   1.819   4.140
 2102SOL    HW1 6362   3.832   1.843   4.202
 2102SOL    HW2 6363   3.810   1.774   4.069
 2103SOL     OW 6364   2.709   4.094   0.005
 2103SOL    HW1 6365   2.669   4.169   0.048
 2103SOL    HW2 6366   2.671   4.095   4.897
 2104SOL     OW 6367   4.272   1.494   2.875
 2104SOL    HW1 6368   4.345   1.546   2.841
 2104SOL    HW2 6369   4.200   1.556   2.882
 2105SOL     OW 6370   2.449   1.404   0.913
 2105SOL    HW1 6371   2.456   1.411   1.008
 2105SOL    HW2 6372   2.489   1.320   0.892
 2106SOL     OW 6373   2.748   2.850   0.380
 2106SOL    HW1 6374   2.690   2.783   0.414
 2106SOL    HW2 6375   2.757   2.831   0.287
 2107SOL     OW 6376   2.592   4.616   2.358
 2107SOL    HW1 6377   2.519   4.642   2.302
 2107SOL    HW2 6378   2.611   4.694   2.410
 2108SOL     OW 6379   0.459   1.123   4.244
 2108SOL    HW1 6380   0.487   1.037   4.215
 2108SOL    HW2 6381   0.498   1.184   4.182
 2109SOL     OW 6382   0.608   1.730   4.715
 2109SOL    HW1 6383   0.642   1.696   4.798
 2109SOL    HW2 6384   0.671   1.701   4.650
 2110SOL     OW 6385   3.231   4.617   4.808
 2110SOL    HW1 6386   3.173   4.556   4.763
 2110SOL    HW2 6387   3.274   4.666   4.738
 2111SOL     OW 6388   0.241   0.656   3.782
 2111SOL    HW1 6389   0.179   0.717   3.821
 2111SOL    HW2 6390   0.186   0.591   3.739
 2112SOL     OW 6391   0.444   1.744   1.399
 2112SOL    HW1 6392   0.464   1.672   1.460
 2112SOL    HW2 6393   0.525   1.794   1.394
 2113SOL     OW 6394   0.287   4.360   4.721
 2113SOL    HW1 6395   0.204   4.371   4.767
 2113SOL    HW2 6396   0.263   4.346   4.630
 2114SOL     OW 6397   0.548   4.824   2.522
 2114SOL    HW1 6398   0.621   4.863   2.570
 2114SOL    HW2 6399   0.588   4.767   2.457
 2115SOL     OW 6400   2.579   3.206   3.627
 2115SOL    HW1 6401   2.575   3.111   3.632
 2115SOL    HW2 6402   2.493   3.233   3.595
 2116SOL     OW 6403   1.258   3.519   0.975
 2116SOL    HW1 6404   1.292   3.437   1.011
 2116SOL    HW2 6405   1.336   3.567   0.947
 2117SOL     OW 6406   4.943   3.128   1.034
 2117SOL    HW1 6407   4.962   3.037   1.014
 2117SOL    HW2 6408   4.899   3.125   1.119
 2118SOL     OW 6409   2.310   2.110   1.609
 2118SOL    HW1 6410   2.218   2.087   1.592
 2118SOL    HW2 6411   2.353   2.095   1.525
 2119SOL     OW 6412   1.385   0.300   0.311
 2119SOL    HW1 6413   1.376   0.277   0.218
 2119SOL    HW2 6414   1.399   0.395   0.310
 2120SOL     OW 6415   2.804   2.236   1.365
 2120SOL    HW1 6416   2.727   2.283   1.396
 2120SOL    HW2 6417   2.769   2.151   1.336
 2121SOL     OW 6418   4.427   1.065   1.497
 2121SOL    HW1 6419   4.341   1.034   1.468
 2121SOL    HW2 6420   4.419   1.072   1.592
 2122SOL     OW 6421   3.828   2.440   2.048
 2122SOL    HW1 6422   3.858   2.529   2.063
 2122SOL    HW2 6423   3.736   2.449   2.024
 2123SOL     OW 6424   4.633   0.224   4.783
 2123SOL    HW1 6425   4.661   0.152   4.840
 2123SOL    HW2 6426   4.715   0.266   4.757
 2124SOL     OW 6427   4.820   3.546   1.747
 2124SOL    HW1 6428   4.913   3.557   1.767
 2124SOL    HW2 6429   4.807   3.451   1.748
 2125SOL     OW 6430   0.446   2.706   1.401
 2125SOL    HW1 6431   0.525   2.675   1.444
 2125SOL    HW2 6432   0.460   2.688   1.308
 2126SOL     OW 6433   0.992   3.319   3.126
 2126SOL    HW1 6434   1.049   3.300   3.052
 2126SOL    HW2 6435   1.006   3.247   3.187
 2127SOL     OW 6436   3.917   2.374   4.702
 2127SOL    HW1 6437   3.958   2.310   4.643
 2127SOL    HW2 6438   3.917   2.331   4.787
 2128SOL     OW 6439   1.631   1.870   2.989
 2128SOL    HW1 6440   1.702   1.826   3.038
 2128SOL    HW2 6441   1.551   1.839   3.032
 2129SOL     OW 6442   0.677   2.033   4.776
 2129SOL    HW1 6443   0.585   2.018   4.796
 2129SOL    HW2 6444   0.709   1.947   4.747
 2130SOL     OW 6445   0.232   1.753   0.205
 2130SOL    HW1 6446   0.314   1.796   0.179
 2130SOL    HW2 6447   0.164   1.804   0.161
 2131SOL     OW 6448   2.166   4.484   0.429
 2131SOL    HW1 6449   2.091   4.456   0.378
 2131SOL    HW2 6450   2.129   4.536   0.501
 2132SOL     OW 6451   0.476   4.762   4.427
 2132SOL    HW1 6452   0.426   4.756   4.508
 2132SOL    HW2 6453   0.568   4.766   4.455
 2133SOL     OW 6454   0.259   0.276   1.371
 2133SOL    HW1 6455   0.204   0.338   1.419
 2133SOL    HW2 6456   0.305   0.329   1.306
 2134SOL     OW 6457   1.453   0.030   3.067
 2134SOL    HW1 6458   1.522   4.973   3.123
 2134SOL    HW2 6459   1.383   0.054   3.128
 2135SOL     OW 6460   3.435   3.307   4.974
 2135SOL    HW1 6461   3.485   3.374   0.041
 2135SOL    HW2 6462   3.502   3.253   4.932
 2136SOL     OW 6463   4.896   1.575   3.503
 2136SOL    HW1 6464   4.977   1.537   3.472
 2136SOL    HW2 6465   4.851   1.504   3.548
 2137SOL     OW 6466   0.228   3.652   1.122
 2137SOL    HW1 6467   0.200   3.572   1.167
 2137SOL    HW2 6468   0.175   3.721   1.161
 2138SOL     OW 6469   0.804   1.095   4.911
 2138SOL    HW1 6470   0.750   1.044   4.972
 2138SOL    HW2 6471   0.851   1.029   4.860
 2139SOL     OW 6472   4.606   4.683   4.076
 2139SOL    HW1 6473   4.678   4.742   4.051
 2139SOL    HW2 6474   4.535   4.742   4.102
 2140SOL     OW 6475   1.191   0.064   1.931
 2140SOL    HW1 6476   1.109   0.016   1.916
 2140SOL    HW2 6477   1.206   0.056   2.025
 2141SOL     OW 6478   3.647   3.557   3.367
 2141SOL    HW1 6479   3.724   3.534   3.419
 2141SOL    HW2 6480   3.573   3.538   3.424
 2142SOL     OW 6481   1.628   2.747   0.752
 2142SOL    HW1 6482   1.670   2.776   0.834
 2142SOL    HW2 6483   1.645   2.819   0.690
 2143SOL     OW 6484   0.443   1.063   2.036
 2143SOL    HW1 6485   0.416   1.153   2.055
 2143SOL    HW2 6486   0.538   1.069   2.025
 2144SOL     OW 6487   1.986   2.794   0.326
 2144SOL    HW1 6488   1.900   2.818   0.293
 2144SOL    HW2 6489   1.981   2.699   0.337
 2145SOL     OW 6490   4.690   0.862   3.311
 2145SOL    HW1 6491   4.640   0.881   3.391
 2145SOL    HW2 6492   4.729   0.776   3.327
 2146SOL     OW 6493   2.040   2.341   2.566
 2146SOL    HW1 6494   1.950   2.362   2.541
 2146SOL    HW2 6495   2.059   2.259   2.521
 2147SOL     OW 6496   0.653   4.555   2.106
 2147SOL    HW1 6497   0.568   4.599   2.110
 2147SOL    HW2 6498   0.631   4.462   2.107
 2148SOL     OW 6499   3.137   1.194   2.090
 2148SOL    HW1 6500   3.203   1.227   2.028
 2148SOL    HW2 6501   3.135   1.100   2.075
 2149SOL     OW 6502   3.049   3.471   2.493
 2149SOL    HW1 6503   3.106   3.483   2.569
 2149SOL    HW2 6504   2.992   3.548   2.493
 2150SOL     OW 6505   1.308   3.616   2.752
 2150SOL    HW1 6506   1.342   3.669   2.825
 2150SOL    HW2 6507   1.213   3.625   2.759
 2151SOL     OW 6508   0.962   2.048   0.969
 2151SOL    HW1 6509   0.911   1.994   0.909
 2151SOL    HW2 6510   0.987   1.990   1.040
 2152SOL     OW 6511   3.448   0.119   1.366
 2152SOL    HW1 6512   3.537   0.089   1.346
 2152SOL    HW2 6513   3.409   0.046   1.414
 2153SOL     OW 6514   2.396   3.703   3.351
 2153SOL    HW1 6515   2.389   3.792   3.385
 2153SOL    HW2 6516   2.341   3.651   3.409
 2154SOL     OW 6517   3.162   1.751   4.193
 2154SOL    HW1 6518   3.210   1.671   4.216
 2154SOL    HW2 6519   3.100   1.723   4.125
 2155SOL     OW 6520   3.343   2.950   4.262
 2155SOL    HW1 6521   3.269   2.947   4.323
 2155SOL    HW2 6522   3.349   2.861   4.227
 2156SOL     OW 6523   4.645   0.359   3.205
 2156SOL    HW1 6524   4.713   0.302   3.169
 2156SOL    HW2 6525   4.611   0.408   3.130
 2157SOL     OW 6526   1.943   0.064   2.186
 2157SOL    HW1 6527   1.939   0.068   2.090
 2157SOL    HW2 6528   1.989   0.145   2.211
 2158SOL     OW 6529   3.642   1.037   3.133
 2158SOL    HW1 6530   3.608   0.950   3.116
 2158SOL    HW2 6531   3.617   1.056   3.223
 2159SOL     OW 6532   4.873   0.943   0.875
 2159SOL    HW1 6533   4.869   0.883   0.799
 2159SOL    HW2 6534   4.881   0.884   0.950
 2160SOL     OW 6535   3.269   3.623   0.166
 2160SOL    HW1 6536   3.262   3.618   0.071
 2160SOL    HW2 6537   3.355   3.662   0.182
 2161SOL     OW 6538   3.145   3.035   0.520
 2161SOL    HW1 6539   3.094   2.955   0.506
 2161SOL    HW2 6540   3.080   3.104   0.529
 2162SOL     OW 6541   1.347   1.995   4.498
 2162SOL    HW1 6542   1.350   2.015   4.405
 2162SOL    HW2 6543   1.436   2.015   4.529
 2163SOL     OW 6544   3.775   4.291   3.918
 2163SOL    HW1 6545   3.742   4.217   3.867
 2163SOL    HW2 6546   3.705   4.356   3.913
 2164SOL     OW 6547   2.368   3.331   3.505
 2164SOL    HW1 6548   2.311   3.314   3.430
 2164SOL    HW2 6549   2.327   3.405   3.550
 2165SOL     OW 6550   3.623   4.819   4.085
 2165SOL    HW1 6551   3.580   4.767   4.016
 2165SOL    HW2 6552   3.584   4.906   4.076
 2166SOL     OW 6553   1.327   0.923   0.599
 2166SOL    HW1 6554   1.304   0.977   0.523
 2166SOL    HW2 6555   1.393   0.975   0.646
 2167SOL     OW 6556   2.069   0.176   3.232
 2167SOL    HW1 6557   2.034   0.157   3.319
 2167SOL    HW2 6558   1.995   0.216   3.185
 2168SOL     OW 6559   2.010   1.355   4.765
 2168SOL    HW1 6560   1.949   1.288   4.737
 2168SOL    HW2 6561   1.972   1.438   4.735
 2169SOL     OW 6562   2.978   0.046   3.711
 2169SOL    HW1 6563   2.937   0.131   3.700
 2169SOL    HW2 6564   3.063   0.065   3.752
 2170SOL     OW 6565   4.612   1.952   3.515
 2170SOL    HW1 6566   4.625   2.037   3.472
 2170SOL    HW2 6567   4.695   1.934   3.559
 2171SOL     OW 6568   1.185   1.804   1.576
 2171SOL    HW1 6569   1.173   1.776   1.667
 2171SOL    HW2 6570   1.109   1.859   1.557
 2172SOL     OW 6571   4.399   4.847   1.570
 2172SOL    HW1 6572   4.468   4.833   1.636
 2172SOL    HW2 6573   4.431   4.919   1.517
 2173SOL     OW 6574   1.284   4.924   0.707
 2173SOL    HW1 6575   1.230   4.928   0.786
 2173SOL    HW2 6576   1.257   0.019   0.655
 2174SOL     OW 6577   4.749   4.380   1.559
 2174SOL    HW1 6578   4.789   4.387   1.645
 2174SOL    HW2 6579   4.689   4.306   1.566
 2175SOL     OW 6580   1.470   3.837   4.222
 2175SOL    HW1 6581   1.442   3.806   4.309
 2175SOL    HW2 6582   1.390   3.837   4.170
 2176SOL     OW 6583   3.926   1.243   0.487
 2176SOL    HW1 6584   3.933   1.339   0.491
 2176SOL    HW2 6585   3.847   1.223   0.537
 2177SOL     OW 6586   1.706   0.729   3.432
 2177SOL    HW1 6587   1.713   0.824   3.429
 2177SOL    HW2 6588   1.785   0.698   3.388
 2178SOL     OW 6589   0.378   3.904   3.175
 2178SOL    HW1 6590   0.435   3.857   3.114
 2178SOL    HW2 6591   0.294   3.911   3.129
 2179SOL     OW 6592   0.210   1.071   4.242
 2179SOL    HW1 6593   0.292   1.120   4.246
 2179SOL    HW2 6594   0.155   1.112   4.309
 2180SOL     OW 6595   3.364   4.720   1.431
 2180SOL    HW1 6596   3.405   4.700   1.346
 2180SOL    HW2 6597   3.280   4.674   1.428
 2181SOL     OW 6598   1.254   3.356   3.624
 2181SOL    HW1 6599   1.224   3.428   3.680
 2181SOL    HW2 6600   1.201   3.364   3.545
 2182SOL     OW 6601   3.950   4.286   4.481
 2182SOL    HW1 6602   3.869   4.331   4.457
 2182SOL    HW2 6603   4.018   4.353   4.475
 2183SOL     OW 6604   1.037   2.441   3.676
 2183SOL    HW1 6605   0.981   2.397   3.739
 2183SOL    HW2 6606   0.978   2.474   3.609
 2184SOL     OW 6607   1.086   2.891   4.173
 2184SOL    HW1 6608   1.133   2.812   4.146
 2184SOL    HW2 6609   1.117   2.908   4.262
 2185SOL     OW 6610   3.468   4.023   2.758
 2185SOL    HW1 6611   3.511   4.049   2.840
 2185SOL    HW2 6612   3.379   4.001   2.785
 2186SOL     OW 6613   2.550   3.795   2.573
 2186SOL    HW1 6614   2.557   3.881   2.614
 2186SOL    HW2 6615   2.559   3.812   2.479
 2187SOL     OW 6616   3.699   0.412   3.364
 2187SOL    HW1 6617   3.625   0.359   3.333
 2187SOL    HW2 6618   3.776   0.365   3.333
 2188SOL     OW 6619   3.037   4.740   2.921
 2188SOL    HW1 6620   3.117   4.787   2.899
 2188SOL    HW2 6621   3.035   4.666   2.862
 2189SOL     OW 6622   4.510   0.053   2.759
 2189SOL    HW1 6623   4.476   0.143   2.767
 2189SOL    HW2 6624   4.605   0.064   2.765
 2190SOL     OW 6625   4.728   1.129   4.252
 2190SOL    HW1 6626   4.747   1.131   4.158
 2190SOL    HW2 6627   4.731   1.036   4.275
 2191SOL     OW 6628   2.883   2.194   3.416
 2191SOL    HW1 6629   2.788   2.206   3.423
 2191SOL    HW2 6630   2.909   2.159   3.501
 2192SOL     OW 6631   0.980   4.302   2.994
 2192SOL    HW1 6632   0.899   4.288   2.943
 2192SOL    HW2 6633   0.959   4.268   3.081
 2193SOL     OW 6634   4.443   4.799   2.914
 2193SOL    HW1 6635   4.456   4.880   2.866
 2193SOL    HW2 6636   4.517   4.744   2.888
 2194SOL     OW 6637   3.020   1.296   2.335
 2194SOL    HW1 6638   2.935   1.294   2.290
 2194SOL    HW2 6639   3.078   1.246   2.277
 2195SOL     OW 6640   2.039   4.628   0.648
 2195SOL    HW1 6641   1.991   4.667   0.575
 2195SOL    HW2 6642   1.982   4.642   0.724
 2196SOL     OW 6643   1.821   2.411   4.877
 2196SOL    HW1 6644   1.850   2.361   4.801
 2196SOL    HW2 6645   1.760   2.352   4.922
 2197SOL     OW 6646   3.649   4.042   1.128
 2197SOL    HW1 6647   3.660   3.973   1.062
 2197SOL    HW2 6648   3.649   4.123   1.079
 2198SOL     OW 6649   3.987   1.414   1.747
 2198SOL    HW1 6650   3.948   1.489   1.792
 2198SOL    HW2 6651   4.022   1.450   1.666
 2199SOL     OW 6652   0.251   1.204   4.908
 2199SOL    HW1 6653   0.156   1.215   4.920
 2199SOL    HW2 6654   0.260   1.176   4.817
 2200SOL     OW 6655   4.286   2.621   4.000
 2200SOL    HW1 6656   4.233   2.653   3.927
 2200SOL    HW2 6657   4.377   2.632   3.971
 2201SOL     OW 6658   4.168   2.513   2.128
 2201SOL    HW1 6659   4.147   2.542   2.039
 2201SOL    HW2 6660   4.102   2.555   2.183
 2202SOL     OW 6661   3.442   4.205   4.456
 2202SOL    HW1 6662   3.458   4.131   4.515
 2202SOL    HW2 6663   3.347   4.208   4.446
 2203SOL     OW 6664   3.556   4.412   1.256
 2203SOL    HW1 6665   3.620   4.474   1.289
 2203SOL    HW2 6666   3.571   4.333   1.308
 2204SOL     OW 6667   2.327   2.010   2.529
 2204SOL    HW1 6668   2.412   1.971   2.507
 2204SOL    HW2 6669   2.306   1.975   2.615
 2205SOL     OW 6670   4.836   1.847   3.606
 2205SOL    HW1 6671   4.880   1.891   3.679
 2205SOL    HW2 6672   4.891   1.772   3.586
 2206SOL     OW 6673   4.569   4.419   3.973
 2206SOL    HW1 6674   4.508   4.380   4.036
 2206SOL    HW2 6675   4.569   4.512   3.993
 2207SOL     OW 6676   4.351   3.633   1.477
 2207SOL    HW1 6677   4.359   3.727   1.489
 2207SOL    HW2 6678   4.438   3.598   1.498
 2208SOL     OW 6679   0.759   4.198   3.468
 2208SOL    HW1 6680   0.801   4.235   3.545
 2208SOL    HW2 6681   0.724   4.114   3.498
 2209SOL     OW 6682   3.543   3.964   3.618
 2209SOL    HW1 6683   3.617   4.005   3.664
 2209SOL    HW2 6684   3.543   3.874   3.649
 2210SOL     OW 6685   0.504   0.903   1.555
 2210SOL    HW1 6686   0.588   0.905   1.602
 2210SOL    HW2 6687   0.441   0.935   1.619
 2211SOL     OW 6688   1.837   3.945   4.935
 2211SOL    HW1 6689   1.775   3.883   4.899
 2211SOL    HW2 6690   1.782   4.014   4.973
 2212SOL     OW 6691   1.416   1.303   3.541
 2212SOL    HW1 6692   1.454   1.216   3.529
 2212SOL    HW2 6693   1.347   1.308   3.474
 2213SOL     OW 6694   0.206   3.410   3.021
 2213SOL    HW1 6695   0.199   3.474   3.091
 2213SOL    HW2 6696   0.149   3.444   2.952
 2214SOL     OW 6697   0.791   0.991   4.372
 2214SOL    HW1 6698   0.874   1.023   4.406
 2214SOL    HW2 6699   0.725   1.051   4.408
 2215SOL     OW 6700   0.298   4.848   4.076
 2215SOL    HW1 6701   0.320   4.888   4.160
 2215SOL    HW2 6702   0.242   4.912   4.033
 2216SOL     OW 6703   0.953   4.520   0.754
 2216SOL    HW1 6704   0.875   4.481   0.716
 2216SOL    HW2 6705   1.026   4.484   0.704
 2217SOL     OW 6706   1.083   2.723   3.804
 2217SOL    HW1 6707   1.099   2.817   3.806
 2217SOL    HW2 6708   1.100   2.697   3.713
 2218SOL     OW 6709   1.992   0.716   1.142
 2218SOL    HW1 6710   1.901   0.726   1.169
 2218SOL    HW2 6711   1.990   0.724   1.047
 2219SOL     OW 6712   3.861   3.394   2.285
 2219SOL    HW1 6713   3.894   3.396   2.195
 2219SOL    HW2 6714   3.782   3.448   2.283
 2220SOL     OW 6715   4.861   4.801   4.039
 2220SOL    HW1 6716   4.915   4.722   4.031
 2220SOL    HW2 6717   4.885   4.853   3.962
 2221SOL     OW 6718   4.626   2.013   1.772
 2221SOL    HW1 6719   4.553   1.951   1.774
 2221SOL    HW2 6720   4.608   2.073   1.845
 2222SOL     OW 6721   2.846   3.105   0.308
 2222SOL    HW1 6722   2.791   3.148   0.243
 2222SOL    HW2 6723   2.814   3.015   0.311
 2223SOL     OW 6724   0.089   1.548   2.945
 2223SOL    HW1 6725   0.025   1.519   2.880
 2223SOL    HW2 6726   0.153   1.599   2.894
 2224SOL     OW 6727   0.977   0.209   1.051
 2224SOL    HW1 6728   1.008   0.124   1.083
 2224SOL    HW2 6729   1.036   0.272   1.092
 2225SOL     OW 6730   3.741   1.964   0.930
 2225SOL    HW1 6731   3.835   1.976   0.918
 2225SOL    HW2 6732   3.707   1.947   0.843
 2226SOL     OW 6733   3.647   2.201   1.822
 2226SOL    HW1 6734   3.615   2.291   1.827
 2226SOL    HW2 6735   3.668   2.188   1.730
 2227SOL     OW 6736   4.615   3.085   1.089
 2227SOL    HW1 6737   4.581   3.098   1.177
 2227SOL    HW2 6738   4.549   3.031   1.045
 2228SOL     OW 6739   3.393   4.147   0.594
 2228SOL    HW1 6740   3.458   4.202   0.549
 2228SOL    HW2 6741   3.308   4.178   0.561
 2229SOL     OW 6742   3.965   3.677   2.393
 2229SOL    HW1 6743   3.980   3.583   2.404
 2229SOL    HW2 6744   3.928   3.686   2.305
 2230SOL     OW 6745   3.506   0.991   4.064
 2230SOL    HW1 6746   3.437   0.973   4.127
 2230SOL    HW2 6747   3.533   0.905   4.032
 2231SOL     OW 6748   1.727   3.649   2.654
 2231SOL    HW1 6749   1.699   3.566   2.616
 2231SOL    HW2 6750   1.821   3.639   2.668
 2232SOL     OW 6751   1.088   0.518   3.720
 2232SOL    HW1 6752   1.096   0.593   3.662
 2232SOL    HW2 6753   1.021   0.544   3.784
 2233SOL     OW 6754   2.393   0.952   3.789
 2233SOL    HW1 6755   2.361   0.961   3.879
 2233SOL    HW2 6756   2.390   0.858   3.772
 2234SOL     OW 6757   0.428   1.760   0.640
 2234SOL    HW1 6758   0.493   1.830   0.645
 2234SOL    HW2 6759   0.404   1.742   0.731
 2235SOL     OW 6760   3.453   0.159   2.450
 2235SOL    HW1 6761   3.500   0.076   2.456
 2235SOL    HW2 6762   3.409   0.167   2.535
 2236SOL     OW 6763   2.237   2.951   1.792
 2236SOL    HW1 6764   2.264   2.872   1.744
 2236SOL    HW2 6765   2.238   2.925   1.884
 2237SOL     OW 6766   1.329   4.364   1.291
 2237SOL    HW1 6767   1.376   4.281   1.280
 2237SOL    HW2 6768   1.239   4.344   1.263
 2238SOL     OW 6769   1.273   2.696   4.515
 2238SOL    HW1 6770   1.303   2.661   4.431
 2238SOL    HW2 6771   1.281   2.791   4.505
 2239SOL     OW 6772   2.054   4.756   2.519
 2239SOL    HW1 6773   2.050   4.685   2.456
 2239SOL    HW2 6774   1.996   4.729   2.590
 2240SOL     OW 6775   4.847   4.732   0.979
 2240SOL    HW1 6776   4.786   4.748   1.051
 2240SOL    HW2 6777   4.791   4.727   0.901
 2241SOL     OW 6778   1.096   2.185   2.178
 2241SOL    HW1 6779   1.130   2.149   2.260
 2241SOL    HW2 6780   1.115   2.118   2.113
 2242SOL     OW 6781   2.185   2.754   3.959
 2242SOL    HW1 6782   2.157   2.720   3.874
 2242SOL    HW2 6783   2.121   2.822   3.980
 2243SOL     OW 6784   2.269   1.725   1.823
 2243SOL    HW1 6785   2.283   1.649   1.880
 2243SOL    HW2 6786   2.357   1.753   1.799
 2244SOL     OW 6787   3.365   4.832   0.636
 2244SOL    HW1 6788   3.338   4.777   0.562
 2244SOL    HW2 6789   3.436   4.886   0.601
 2245SOL     OW 6790   1.316   1.269   3.814
 2245SOL    HW1 6791   1.250   1.336   3.834
 2245SOL    HW2 6792   1.335   1.281   3.721
 2246SOL     OW 6793   0.735   4.808   4.551
 2246SOL    HW1 6794   0.826   4.784   4.536
 2246SOL    HW2 6795   0.725   4.808   4.646
 2247SOL     OW 6796   0.005   4.900   1.409
 2247SOL    HW1 6797   0.068   4.949   1.462
 2247SOL    HW2 6798   0.053   4.876   1.330
 2248SOL     OW 6799   4.925   2.076   3.049
 2248SOL    HW1 6800   0.024   2.051   3.096
 2248SOL    HW2 6801   4.942   2.166   3.020
 2249SOL     OW 6802   2.005   0.897   3.205
 2249SOL    HW1 6803   1.991   0.824   3.145
 2249SOL    HW2 6804   1.916   0.926   3.228
 2250SOL     OW 6805   1.960   2.920   1.977
 2250SOL    HW1 6806   1.990   2.876   2.056
 2250SOL    HW2 6807   1.865   2.930   1.990
 2251SOL     OW 6808   1.678   2.015   3.997
 2251SOL    HW1 6809   1.721   2.076   4.057
 2251SOL    HW2 6810   1.585   2.021   4.019
 2252SOL     OW 6811   2.119   2.002   3.019
 2252SOL    HW1 6812   2.083   2.087   2.994
 2252SOL    HW2 6813   2.135   2.010   3.113
 2253SOL     OW 6814   4.837   0.098   3.774
 2253SOL    HW1 6815   4.867   0.122   3.687
 2253SOL    HW2 6816   4.815   0.006   3.767
 2254SOL     OW 6817   0.846   2.824   4.309
 2254SOL    HW1 6818   0.901   2.786   4.240
 2254SOL    HW2 6819   0.760   2.785   4.295
 2255SOL     OW 6820   4.282   3.906   3.279
 2255SOL    HW1 6821   4.367   3.937   3.247
 2255SOL    HW2 6822   4.296   3.814   3.301
 2256SOL     OW 6823   4.051   3.139   1.508
 2256SOL    HW1 6824   4.005   3.181   1.435
 2256SOL    HW2 6825   4.142   3.168   1.499
 2257SOL     OW 6826   3.146   2.281   1.014
 2257SOL    HW1 6827   3.122   2.196   0.977
 2257SOL    HW2 6828   3.194   2.260   1.095
 2258SOL     OW 6829   1.852   3.220   4.592
 2258SOL    HW1 6830   1.763   3.220   4.629
 2258SOL    HW2 6831   1.886   3.308   4.611
 2259SOL     OW 6832   4.196   4.861   2.704
 2259SOL    HW1 6833   4.259   4.900   2.644
 2259SOL    HW2 6834   4.197   4.768   2.683
 2260SOL     OW 6835   1.913   4.871   4.832
 2260SOL    HW1 6836   1.975   4.941   4.812
 2260SOL    HW2 6837   1.946   4.795   4.785
 2261SOL     OW 6838   3.921   3.365   1.064
 2261SOL    HW1 6839   3.965   3.301   1.120
 2261SOL    HW2 6840   3.848   3.397   1.116
 2262SOL     OW 6841   4.733   3.486   2.824
 2262SOL    HW1 6842   4.761   3.465   2.913
 2262SOL    HW2 6843   4.680   3.411   2.797
 2263SOL     OW 6844   4.182   4.032   1.382
 2263SOL    HW1 6845   4.094   4.023   1.346
 2263SOL    HW2 6846   4.220   4.107   1.336
 2264SOL     OW 6847   2.998   2.355   2.697
 2264SOL    HW1 6848   2.988   2.410   2.775
 2264SOL    HW2 6849   3.089   2.369   2.669
 2265SOL     OW 6850   0.598   3.947   1.870
 2265SOL    HW1 6851   0.551   4.028   1.889
 2265SOL    HW2 6852   0.653   3.968   1.794
 2266SOL     OW 6853   2.077   2.952   3.243
 2266SOL    HW1 6854   2.142   2.882   3.246
 2266SOL    HW2 6855   2.072   2.976   3.151
 2267SOL     OW 6856   3.873   2.636   4.175
 2267SOL    HW1 6857   3.817   2.701   4.218
 2267SOL    HW2 6858   3.842   2.552   4.209
 2268SOL     OW 6859   3.757   0.272   0.524
 2268SOL    HW1 6860   3.738   0.181   0.547
 2268SOL    HW2 6861   3.687   0.296   0.462
 2269SOL     OW 6862   2.000   4.487   3.569
 2269SOL    HW1 6863   2.061   4.553   3.535
 2269SOL    HW2 6864   1.914   4.519   3.544
 2270SOL     OW 6865   2.477   2.368   2.402
 2270SOL    HW1 6866   2.414   2.410   2.344
 2270SOL    HW2 6867   2.521   2.440   2.447
 2271SOL     OW 6868   4.607   4.766   1.771
 2271SOL    HW1 6869   4.680   4.761   1.709
 2271SOL    HW2 6870   4.580   4.676   1.785
 2272SOL     OW 6871   4.600   1.438   1.307
 2272SOL    HW1 6872   4.667   1.371   1.297
 2272SOL    HW2 6873   4.581   1.466   1.217
 2273SOL     OW 6874   0.287   2.902   0.385
 2273SOL    HW1 6875   0.199   2.936   0.368
 2273SOL    HW2 6876   0.337   2.925   0.306
 2274SOL     OW 6877   3.341   4.650   2.947
 2274SOL    HW1 6878   3.376   4.624   2.862
 2274SOL    HW2 6879   3.298   4.571   2.980
 2275SOL     OW 6880   1.521   4.542   2.895
 2275SOL    HW1 6881   1.596   4.594   2.924
 2275SOL    HW2 6882   1.445   4.590   2.929
 2276SOL     OW 6883   3.813   0.895   1.264
 2276SOL    HW1 6884   3.873   0.955   1.308
 2276SOL    HW2 6885   3.730   0.904   1.310
 2277SOL     OW 6886   1.308   1.110   0.379
 2277SOL    HW1 6887   1.313   1.206   0.376
 2277SOL    HW2 6888   1.290   1.084   0.288
 2278SOL     OW 6889   2.097   3.749   0.288
 2278SOL    HW1 6890   2.061   3.730   0.201
 2278SOL    HW2 6891   2.136   3.835   0.279
 2279SOL     OW 6892   3.965   2.829   1.111
 2279SOL    HW1 6893   3.910   2.903   1.134
 2279SOL    HW2 6894   3.988   2.789   1.195
 2280SOL     OW 6895   2.469   4.960   2.805
 2280SOL    HW1 6896   2.381   4.922   2.809
 2280SOL    HW2 6897   2.503   4.951   2.894
 2281SOL     OW 6898   4.223   4.392   3.857
 2281SOL    HW1 6899   4.169   4.384   3.779
 2281SOL    HW2 6900   4.162   4.380   3.930
 2282SOL     OW 6901   0.591   3.478   4.012
 2282SOL    HW1 6902   0.650   3.426   3.958
 2282SOL    HW2 6903   0.587   3.563   3.968
 2283SOL     OW 6904   2.506   4.188   2.213
 2283SOL    HW1 6905   2.562   4.219   2.142
 2283SOL    HW2 6906   2.534   4.239   2.289
 2284SOL     OW 6907   2.275   3.506   1.021
 2284SOL    HW1 6908   2.288   3.457   0.940
 2284SOL    HW2 6909   2.343   3.474   1.080
 2285SOL     OW 6910   1.779   3.089   2.479
 2285SOL    HW1 6911   1.759   3.118   2.568
 2285SOL    HW2 6912   1.709   3.028   2.458
 2286SOL     OW 6913   0.296   1.433   1.878
 2286SOL    HW1 6914   0.364   1.394   1.933
 2286SOL    HW2 6915   0.273   1.514   1.923
 2287SOL     OW 6916   1.670   2.165   0.402
 2287SOL    HW1 6917   1.687   2.256   0.378
 2287SOL    HW2 6918   1.577   2.162   0.423
 2288SOL     OW 6919   1.318   1.797   2.155
 2288SOL    HW1 6920   1.329   1.804   2.061
 2288SOL    HW2 6921   1.386   1.736   2.183
 2289SOL     OW 6922   0.118   0.735   4.581
 2289SOL    HW1 6923   0.140   0.795   4.509
 2289SOL    HW2 6924   0.156   0.776   4.658
 2290SOL     OW 6925   3.359   2.375   0.620
 2290SOL    HW1 6926   3.409   2.313   0.673
 2290SOL    HW2 6927   3.289   2.323   0.581
 2291SOL     OW 6928   4.198   0.975   1.385
 2291SOL    HW1 6929   4.191   0.880   1.391
 2291SOL    HW2 6930   4.115   1.008   1.421
 2292SOL     OW 6931   3.275   3.977   3.052
 2292SOL    HW1 6932   3.243   3.978   2.962
 2292SOL    HW2 6933   3.331   3.899   3.056
 2293SOL     OW 6934   3.875   1.103   4.606
 2293SOL    HW1 6935   3.895   1.009   4.604
 2293SOL    HW2 6936   3.894   1.133   4.517
 2294SOL     OW 6937   1.676   1.687   0.195
 2294SOL    HW1 6938   1.643   1.757   0.252
 2294SOL    HW2 6939   1.769   1.707   0.184
 2295SOL     OW 6940   0.086   1.904   0.024
 2295SOL    HW1 6941   0.122   1.990   0.001
 2295SOL    HW2 6942   0.054   1.868   4.922
 2296SOL     OW 6943   2.922   1.602   0.807
 2296SOL    HW1 6944   2.856   1.631   0.743
 2296SOL    HW2 6945   2.889   1.517   0.838
 2297SOL     OW 6946   3.615   0.303   1.093
 2297SOL    HW1 6947   3.577   0.216   1.083
 2297SOL    HW2 6948   3.697   0.299   1.044
 2298SOL     OW 6949   4.309   4.100   4.235
 2298SOL    HW1 6950   4.393   4.070   4.271
 2298SOL    HW2 6951   4.321   4.193   4.220
 2299SOL     OW 6952   2.115   3.240   4.760
 2299SOL    HW1 6953   2.186   3.218   4.820
 2299SOL    HW2 6954   2.137   3.327   4.727
 2300SOL     OW 6955   2.063   2.402   4.241
 2300SOL    HW1 6956   2.047   2.485   4.286
 2300SOL    HW2 6957   1.978   2.358   4.239
 2301SOL     OW 6958   1.996   2.610   4.402
 2301SOL    HW1 6959   1.980   2.641   4.491
 2301SOL    HW2 6960   1.929   2.654   4.349
 2302SOL     OW 6961   4.321   0.950   4.224
 2302SOL    HW1 6962   4.329   0.871   4.171
 2302SOL    HW2 6963   4.232   0.948   4.259
 2303SOL     OW 6964   3.733   0.573   2.282
 2303SOL    HW1 6965   3.681   0.625   2.342
 2303SOL    HW2 6966   3.747   0.490   2.327
 2304SOL     OW 6967   2.585   0.135   4.651
 2304SOL    HW1 6968   2.638   0.112   4.727
 2304SOL    HW2 6969   2.552   0.051   4.618
 2305SOL     OW 6970   1.914   0.657   4.529
 2305SOL    HW1 6971   2.010   0.654   4.531
 2305SOL    HW2 6972   1.888   0.568   4.505
 2306SOL     OW 6973   1.369   4.162   0.110
 2306SOL    HW1 6974   1.278   4.188   0.102
 2306SOL    HW2 6975   1.372   4.105   0.187
 2307SOL     OW 6976   0.331   1.471   0.216
 2307SOL    HW1 6977   0.315   1.565   0.218
 2307SOL    HW2 6978   0.323   1.443   0.307
 2308SOL     OW 6979   3.722   3.516   1.184
 2308SOL    HW1 6980   3.647   3.473   1.143
 2308SOL    HW2 6981   3.697   3.523   1.276
 2309SOL     OW 6982   4.976   4.221   1.341
 2309SOL    HW1 6983   4.943   4.194   1.427
 2309SOL    HW2 6984   0.070   4.163   1.325
 2310SOL     OW 6985   3.515   3.554   0.341
 2310SOL    HW1 6986   3.563   3.529   0.262
 2310SOL    HW2 6987   3.474   3.473   0.371
 2311SOL     OW 6988   2.739   2.373   0.035
 2311SOL    HW1 6989   2.780   2.287   0.024
 2311SOL    HW2 6990   2.649   2.361   0.006
 2312SOL     OW 6991   3.245   0.535   4.487
 2312SOL    HW1 6992   3.231   0.550   4.580
 2312SOL    HW2 6993   3.303   0.605   4.460
 2313SOL     OW 6994   3.870   1.397   2.929
 2313SOL    HW1 6995   3.950   1.347   2.913
 2313SOL    HW2 6996   3.800   1.333   2.916
 2314SOL     OW 6997   0.205   1.471   4.634
 2314SOL    HW1 6998   0.130   1.419   4.606
 2314SOL    HW2 6999   0.238   1.511   4.554
 2315SOL     OW 7000   3.610   3.585   0.614
 2315SOL    HW1 7001   3.574   3.597   0.527
 2315SOL    HW2 7002   3.700   3.555   0.599
 2316SOL     OW 7003   1.202   3.920   4.354
 2316SOL    HW1 7004   1.221   3.932   4.447
 2316SOL    HW2 7005   1.146   3.842   4.351
 2317SOL     OW 7006   1.741   4.407   1.761
 2317SOL    HW1 7007   1.651   4.389   1.789
 2317SOL    HW2 7008   1.742   4.380   1.669
 2318SOL     OW 7009   2.728   2.651   2.234
 2318SOL    HW1 7010   2.734   2.699   2.317
 2318SOL    HW2 7011   2.695   2.715   2.172
 2319SOL     OW 7012   0.088   1.931   1.122
 2319SOL    HW1 7013   0.168   1.938   1.173
 2319SOL    HW2 7014   0.023   1.979   1.174
 2320SOL     OW 7015   2.820   4.844   1.056
 2320SOL    HW1 7016   2.755   4.901   1.015
 2320SOL    HW2 7017   2.873   4.811   0.984
 2321SOL     OW 7018   0.135   1.400   4.045
 2321SOL    HW1 7019   0.064   1.361   3.992
 2321SOL    HW2 7020   0.206   1.337   4.040
 2322SOL     OW 7021   3.040   4.484   3.264
 2322SOL    HW1 7022   2.992   4.536   3.200
 2322SOL    HW2 7023   2.972   4.434   3.310
 2323SOL     OW 7024   1.097   2.074   4.388
 2323SOL    HW1 7025   1.157   2.000   4.397
 2323SOL    HW2 7026   1.115   2.128   4.465
 2324SOL     OW 7027   1.366   3.568   1.502
 2324SOL    HW1 7028   1.372   3.473   1.514
 2324SOL    HW2 7029   1.297   3.595   1.563
 2325SOL     OW 7030   1.666   4.375   3.921
 2325SOL    HW1 7031   1.658   4.398   3.828
 2325SOL    HW2 7032   1.741   4.427   3.951
 2326SOL     OW 7033   0.878   1.050   1.340
 2326SOL    HW1 7034   0.826   1.108   1.396
 2326SOL    HW2 7035   0.945   1.106   1.302
 2327SOL     OW 7036   1.696   0.801   4.397
 2327SOL    HW1 7037   1.727   0.822   4.309
 2327SOL    HW2 7038   1.763   0.743   4.433
 2328SOL     OW 7039   3.690   2.265   4.056
 2328SOL    HW1 7040   3.778   2.287   4.087
 2328SOL    HW2 7041   3.672   2.180   4.096
 2329SOL     OW 7042   3.238   2.832   3.979
 2329SOL    HW1 7043   3.333   2.837   3.966
 2329SOL    HW2 7044   3.220   2.739   3.990
 2330SOL     OW 7045   4.980   2.835   0.988
 2330SOL    HW1 7046   4.897   2.836   1.035
 2330SOL    HW2 7047   0.045   2.757   1.020
 2331SOL     OW 7048   3.986   1.930   4.365
 2331SOL    HW1 7049   4.080   1.947   4.364
 2331SOL    HW2 7050   3.977   1.853   4.422
 2332SOL     OW 7051   4.902   1.389   1.628
 2332SOL    HW1 7052   4.807   1.396   1.613
 2332SOL    HW2 7053   4.912   1.395   1.723
 2333SOL     OW 7054   2.489   1.947   1.742
 2333SOL    HW1 7055   2.431   2.007   1.693
 2333SOL    HW2 7056   2.471   1.965   1.834
 2334SOL     OW 7057   0.522   2.518   3.002
 2334SOL    HW1 7058   0.607   2.560   3.013
 2334SOL    HW2 7059   0.497   2.540   2.912
 2335SOL     OW 7060   3.176   2.590   3.694
 2335SOL    HW1 7061   3.230   2.571   3.771
 2335SOL    HW2 7062   3.199   2.680   3.670
 2336SOL     OW 7063   3.103   2.560   4.053
 2336SOL    HW1 7064   3.155   2.507   3.992
 2336SOL    HW2 7065   3.012   2.534   4.035
 2337SOL     OW 7066   1.582   2.646   4.835
 2337SOL    HW1 7067   1.590   2.563   4.881
 2337SOL    HW2 7068   1.655   2.699   4.867
 2338SOL     OW 7069   2.891   0.327   2.634
 2338SOL    HW1 7070   2.963   0.265   2.640
 2338SOL    HW2 7071   2.848   0.305   2.551
 2339SOL     OW 7072   1.574   4.046   4.764
 2339SOL    HW1 7073   1.621   3.975   4.807
 2339SOL    HW2 7074   1.561   4.016   4.674
 2340SOL     OW 7075   0.920   0.097   1.678
 2340SOL    HW1 7076   0.969   0.035   1.732
 2340SOL    HW2 7077   0.938   0.069   1.588
 2341SOL     OW 7078   1.151   1.058   3.760
 2341SOL    HW1 7079   1.169   0.976   3.806
 2341SOL    HW2 7080   1.218   1.118   3.792
 2342SOL     OW 7081   1.212   4.823   2.143
 2342SOL    HW1 7082   1.265   4.857   2.215
 2342SOL    HW2 7083   1.259   4.746   2.112
 2343SOL     OW 7084   4.687   1.466   4.768
 2343SOL    HW1 7085   4.635   1.400   4.813
 2343SOL    HW2 7086   4.745   1.501   4.835
 2344SOL     OW 7087   0.384   4.746   1.014
 2344SOL    HW1 7088   0.366   4.733   0.920
 2344SOL    HW2 7089   0.310   4.704   1.058
 2345SOL     OW 7090   1.645   2.402   4.009
 2345SOL    HW1 7091   1.621   2.494   3.999
 2345SOL    HW2 7092   1.611   2.360   3.930
 2346SOL     OW 7093   1.102   0.937   4.120
 2346SOL    HW1 7094   1.015   0.942   4.081
 2346SOL    HW2 7095   1.089   0.890   4.202
 2347SOL     OW 7096   0.334   0.173   1.688
 2347SOL    HW1 7097   0.389   0.101   1.657
 2347SOL    HW2 7098   0.345   0.241   1.622
 2348SOL     OW 7099   2.984   0.781   4.165
 2348SOL    HW1 7100   2.968   0.822   4.080
 2348SOL    HW2 7101   2.955   0.845   4.229
 2349SOL     OW 7102   1.111   1.956   2.459
 2349SOL    HW1 7103   1.101   1.879   2.404
 2349SOL    HW2 7104   1.190   1.999   2.426
 2350SOL     OW 7105   2.625   3.321   4.276
 2350SOL    HW1 7106   2.633   3.416   4.290
 2350SOL    HW2 7107   2.661   3.307   4.188
 2351SOL     OW 7108   4.832   4.485   3.414
 2351SOL    HW1 7109   4.915   4.526   3.439
 2351SOL    HW2 7110   4.787   4.552   3.363
 2352SOL     OW 7111   4.585   3.684   0.961
 2352SOL    HW1 7112   4.650   3.614   0.973
 2352SOL    HW2 7113   4.584   3.698   0.866
 2353SOL     OW 7114   4.792   0.980   0.253
 2353SOL    HW1 7115   4.821   0.998   0.342
 2353SOL    HW2 7116   4.753   0.892   0.258
 2354SOL     OW 7117   1.362   0.523   2.248
 2354SOL    HW1 7118   1.312   0.441   2.246
 2354SOL    HW2 7119   1.416   0.516   2.327
 2355SOL     OW 7120   1.705   4.646   0.208
 2355SOL    HW1 7121   1.650   4.666   0.284
 2355SOL    HW2 7122   1.644   4.610   0.143
 2356SOL     OW 7123   2.723   2.430   0.625
 2356SOL    HW1 7124   2.720   2.335   0.613
 2356SOL    HW2 7125   2.809   2.455   0.590
 2357SOL     OW 7126   1.430   0.112   3.477
 2357SOL    HW1 7127   1.380   0.036   3.445
 2357SOL    HW2 7128   1.502   0.073   3.526
 2358SOL     OW 7129   4.385   2.223   2.720
 2358SOL    HW1 7130   4.327   2.165   2.768
 2358SOL    HW2 7131   4.331   2.259   2.649
 2359SOL     OW 7132   3.186   3.180   4.863
 2359SOL    HW1 7133   3.235   3.232   4.927
 2359SOL    HW2 7134   3.203   3.223   4.779
 2360SOL     OW 7135   1.017   1.207   0.423
 2360SOL    HW1 7136   0.994   1.178   0.512
 2360SOL    HW2 7137   0.947   1.172   0.368
 2361SOL     OW 7138   1.802   2.736   1.472
 2361SOL    HW1 7139   1.782   2.745   1.566
 2361SOL    HW2 7140   1.754   2.657   1.445
 2362SOL     OW 7141   4.520   0.304   2.537
 2362SOL    HW1 7142   4.510   0.384   2.486
 2362SOL    HW2 7143   4.529   0.235   2.471
 2363SOL     OW 7144   3.666   0.238   1.958
 2363SOL    HW1 7145   3.759   0.248   1.979
 2363SOL    HW2 7146   3.666   0.210   1.866
 2364SOL     OW 7147   2.380   2.679   2.547
 2364SOL    HW1 7148   2.301   2.629   2.566
 2364SOL    HW2 7149   2.450   2.632   2.592
 2365SOL     OW 7150   2.038   1.874   0.260
 2365SOL    HW1 7151   2.088   1.887   0.179
 2365SOL    HW2 7152   2.006   1.784   0.254
 2366SOL     OW 7153   0.062   0.201   0.329
 2366SOL    HW1 7154   0.007   0.278   0.348
 2366SOL    HW2 7155   0.086   0.167   0.415
 2367SOL     OW 7156   4.008   2.478   2.394
 2367SOL    HW1 7157   3.971   2.397   2.358
 2367SOL    HW2 7158   3.931   2.532   2.414
 2368SOL     OW 7159   4.563   3.233   1.338
 2368SOL    HW1 7160   4.654   3.241   1.309
 2368SOL    HW2 7161   4.524   3.318   1.318
 2369SOL     OW 7162   1.134   4.962   0.946
 2369SOL    HW1 7163   1.158   0.008   1.035
 2369SOL    HW2 7164   1.114   4.869   0.953
 2370SOL     OW 7165   1.798   2.314   4.238
 2370SOL    HW1 7166   1.755   2.322   4.323
 2370SOL    HW2 7167   1.730   2.340   4.175
 2371SOL     OW 7168   2.636   2.798   1.997
 2371SOL    HW1 7169   2.667   2.743   1.925
 2371SOL    HW2 7170   2.645   2.887   1.964
 2372SOL     OW 7171   1.072   2.388   4.217
 2372SOL    HW1 7172   1.152   2.339   4.198
 2372SOL    HW2 7173   1.069   2.456   4.149
 2373SOL     OW 7174   2.083   4.739   1.454
 2373SOL    HW1 7175   2.171   4.714   1.480
 2373SOL    HW2 7176   2.091   4.762   1.361
 2374SOL     OW 7177   3.683   1.180   4.158
 2374SOL    HW1 7178   3.724   1.194   4.073
 2374SOL    HW2 7179   3.625   1.105   4.144
 2375SOL     OW 7180   4.179   1.426   1.932
 2375SOL    HW1 7181   4.122   1.493   1.970
 2375SOL    HW2 7182   4.131   1.395   1.856
 2376SOL     OW 7183   1.723   1.960   4.453
 2376SOL    HW1 7184   1.812   1.988   4.433
 2376SOL    HW2 7185   1.687   2.030   4.507
 2377SOL     OW 7186   0.636   1.889   1.960
 2377SOL    HW1 7187   0.564   1.951   1.962
 2377SOL    HW2 7188   0.629   1.847   1.875
 2378SOL     OW 7189   3.435   4.806   0.011
 2378SOL    HW1 7190   3.389   4.816   0.094
 2378SOL    HW2 7191   3.368   4.772   4.931
 2379SOL     OW 7192   4.220   3.376   3.827
 2379SOL    HW1 7193   4.175   3.323   3.893
 2379SOL    HW2 7194   4.313   3.352   3.836
 2380SOL     OW 7195   2.877   3.567   4.579
 2380SOL    HW1 7196   2.906   3.513   4.652
 2380SOL    HW2 7197   2.954   3.621   4.557
 2381SOL     OW 7198   0.145   2.921   1.767
 2381SOL    HW1 7199   0.098   2.983   1.712
 2381SOL    HW2 7200   0.217   2.890   1.712
 2382SOL     OW 7201   4.120   2.128   3.651
 2382SOL    HW1 7202   4.161   2.051   3.691
 2382SOL    HW2 7203   4.129   2.196   3.718
 2383SOL     OW 7204   2.323   0.144   2.081
 2383SOL    HW1 7205   2.274   0.089   2.142
 2383SOL    HW2 7206   2.399   0.091   2.058
 2384SOL     OW 7207   1.847   0.840   1.466
 2384SOL    HW1 7208   1.767   0.854   1.516
 2384SOL    HW2 7209   1.818   0.795   1.386
 2385SOL     OW 7210   3.113   3.890   0.883
 2385SOL    HW1 7211   3.172   3.908   0.810
 2385SOL    HW2 7212   3.026   3.882   0.843
 2386SOL     OW 7213   1.094   1.834   3.482
 2386SOL    HW1 7214   1.053   1.909   3.526
 2386SOL    HW2 7215   1.024   1.769   3.477
 2387SOL     OW 7216   0.350   0.116   4.546
 2387SOL    HW1 7217   0.337   0.203   4.582
 2387SOL    HW2 7218   0.407   0.071   4.609
 2388SOL     OW 7219   4.871   3.995   2.156
 2388SOL    HW1 7220   4.873   3.958   2.244
 2388SOL    HW2 7221   4.822   4.077   2.166
 2389SOL     OW 7222   4.278   2.532   1.865
 2389SOL    HW1 7223   4.195   2.527   1.817
 2389SOL    HW2 7224   4.339   2.479   1.814
 2390SOL     OW 7225   1.864   0.087   3.960
 2390SOL    HW1 7226   1.948   0.046   3.982
 2390SOL    HW2 7227   1.798   0.024   3.989
 2391SOL     OW 7228   1.859   2.134   2.791
 2391SOL    HW1 7229   1.790   2.185   2.833
 2391SOL    HW2 7230   1.938   2.188   2.802
 2392SOL     OW 7231   3.108   0.202   2.246
 2392SOL    HW1 7232   3.065   0.264   2.304
 2392SOL    HW2 7233   3.039   0.172   2.187
 2393SOL     OW 7234   2.756   1.558   1.529
 2393SOL    HW1 7235   2.724   1.469   1.542
 2393SOL    HW2 7236   2.686   1.602   1.482
 2394SOL     OW 7237   1.420   0.162   3.816
 2394SOL    HW1 7238   1.413   0.235   3.756
 2394SOL    HW2 7239   1.433   0.202   3.902
 2395SOL     OW 7240   2.545   0.691   3.484
 2395SOL    HW1 7241   2.515   0.768   3.436
 2395SOL    HW2 7242   2.514   0.617   3.431
 2396SOL     OW 7243   0.185   4.256   0.501
 2396SOL    HW1 7244   0.177   4.187   0.435
 2396SOL    HW2 7245   0.138   4.223   0.577
 2397SOL     OW 7246   1.933   2.375   2.067
 2397SOL    HW1 7247   1.999   2.306   2.069
 2397SOL    HW2 7248   1.981   2.454   2.043
 2398SOL     OW 7249   3.018   3.082   4.557
 2398SOL    HW1 7250   2.953   3.117   4.497
 2398SOL    HW2 7251   2.968   3.060   4.636
 2399SOL     OW 7252   1.938   3.984   1.835
 2399SOL    HW1 7253   1.950   4.063   1.783
 2399SOL    HW2 7254   1.998   3.920   1.796
 2400SOL     OW 7255   3.997   0.409   4.927
 2400SOL    HW1 7256   3.935   0.440   0.013
 2400SOL    HW2 7257   4.005   0.481   4.865
 2401SOL     OW 7258   0.638   1.121   1.477
 2401SOL    HW1 7259   0.571   1.181   1.510
 2401SOL    HW2 7260   0.590   1.042   1.452
 2402SOL     OW 7261   2.866   2.159   3.009
 2402SOL    HW1 7262   2.795   2.208   2.966
 2402SOL    HW2 7263   2.821   2.092   3.060
 2403SOL     OW 7264   4.564   2.134   2.528
 2403SOL    HW1 7265   4.484   2.144   2.580
 2403SOL    HW2 7266   4.594   2.224   2.514
 2404SOL     OW 7267   1.183   1.396   4.977
 2404SOL    HW1 7268   1.222   1.481   4.958
 2404SOL    HW2 7269   1.092   1.417   0.020
 2405SOL     OW 7270   2.923   3.701   3.792
 2405SOL    HW1 7271   2.980   3.625   3.803
 2405SOL    HW2 7272   2.949   3.761   3.862
 2406SOL     OW 7273   1.808   1.437   4.561
 2406SOL    HW1 7274   1.780   1.401   4.477
 2406SOL    HW2 7275   1.843   1.524   4.541
 2407SOL     OW 7276   4.271   0.266   4.328
 2407SOL    HW1 7277   4.240   0.198   4.388
 2407SOL    HW2 7278   4.270   0.346   4.380
 2408SOL     OW 7279   1.323   3.950   4.611
 2408SOL    HW1 7280   1.267   3.939   4.689
 2408SOL    HW2 7281   1.319   4.044   4.593
 2409SOL     OW 7282   4.707   2.933   4.250
 2409SOL    HW1 7283   4.640   2.901   4.190
 2409SOL    HW2 7284   4.790   2.911   4.207
 2410SOL     OW 7285   0.956   1.415   4.086
 2410SOL    HW1 7286   0.950   1.480   4.015
 2410SOL    HW2 7287   1.049   1.412   4.108
 2411SOL     OW 7288   4.038   4.955   2.029
 2411SOL    HW1 7289   4.014   4.864   2.010
 2411SOL    HW2 7290   4.084   0.004   1.951
 2412SOL     OW 7291   4.577   0.739   0.247
 2412SOL    HW1 7292   4.499   0.683   0.247
 2412SOL    HW2 7293   4.549   0.818   0.200
 2413SOL     OW 7294   2.730   0.671   1.411
 2413SOL    HW1 7295   2.724   0.683   1.506
 2413SOL    HW2 7296   2.663   0.606   1.390
 2414SOL     OW 7297   0.846   2.079   0.449
 2414SOL    HW1 7298   0.931   2.036   0.449
 2414SOL    HW2 7299   0.842   2.125   0.533
 2415SOL     OW 7300   4.186   2.746   1.628
 2415SOL    HW1 7301   4.142   2.660   1.627
 2415SOL    HW2 7302   4.118   2.806   1.658
 2416SOL     OW 7303   3.930   4.046   4.557
 2416SOL    HW1 7304   3.937   4.139   4.536
 2416SOL    HW2 7305   3.914   4.045   4.652
 2417SOL     OW 7306   1.203   4.573   3.166
 2417SOL    HW1 7307   1.115   4.538   3.155
 2417SOL    HW2 7308   1.259   4.515   3.114
 2418SOL     OW 7309   4.814   1.837   2.043
 2418SOL    HW1 7310   4.858   1.813   2.124
 2418SOL    HW2 7311   4.809   1.932   2.045
 2419SOL     OW 7312   0.410   0.185   4.023
 2419SOL    HW1 7313   0.456   0.240   3.960
 2419SOL    HW2 7314   0.415   0.233   4.106
 2420SOL     OW 7315   2.409   4.896   3.281
 2420SOL    HW1 7316   2.377   4.971   3.231
 2420SOL    HW2 7317   2.432   4.831   3.214
 2421SOL     OW 7318   1.117   2.461   4.474
 2421SOL    HW1 7319   1.162   2.545   4.463
 2421SOL    HW2 7320   1.098   2.433   4.385
 2422SOL     OW 7321   0.348   3.784   2.480
 2422SOL    HW1 7322   0.254   3.770   2.469
 2422SOL    HW2 7323   0.374   3.833   2.402
 2423SOL     OW 7324   4.792   3.226   3.760
 2423SOL    HW1 7325   4.840   3.305   3.784
 2423SOL    HW2 7326   4.858   3.170   3.719
 2424SOL     OW 7327   1.374   4.246   3.411
 2424SOL    HW1 7328   1.380   4.336   3.379
 2424SOL    HW2 7329   1.451   4.235   3.465
 2425SOL     OW 7330   2.463   3.839   4.899
 2425SOL    HW1 7331   2.547   3.851   4.854
 2425SOL    HW2 7332   2.397   3.853   4.831
 2426SOL     OW 7333   2.943   4.250   1.838
 2426SOL    HW1 7334   2.956   4.308   1.763
 2426SOL    HW2 7335   2.960   4.306   1.914
 2427SOL     OW 7336   3.018   1.849   1.917
 2427SOL    HW1 7337   3.070   1.915   1.872
 2427SOL    HW2 7338   2.944   1.832   1.859
 2428SOL     OW 7339   4.367   0.320   1.798
 2428SOL    HW1 7340   4.436   0.349   1.739
 2428SOL    HW2 7341   4.317   0.256   1.746
 2429SOL     OW 7342   4.390   3.623   2.877
 2429SOL    HW1 7343   4.439   3.632   2.795
 2429SOL    HW2 7344   4.343   3.540   2.868
 2430SOL     OW 7345   4.755   1.247   4.539
 2430SOL    HW1 7346   4.694   1.244   4.466
 2430SOL    HW2 7347   4.733   1.327   4.586
 2431SOL     OW 7348   0.298   0.827   0.086
 2431SOL    HW1 7349   0.276   0.734   0.077
 2431SOL    HW2 7350   0.257   0.869   0.010
 2432SOL     OW 7351   1.753   1.585   2.371
 2432SOL    HW1 7352   1.753   1.581   2.276
 2432SOL    HW2 7353   1.707   1.506   2.399
 2433SOL     OW 7354   2.529   4.954   2.033
 2433SOL    HW1 7355   2.614   4.964   2.077
 2433SOL    HW2 7356   2.548   4.895   1.959
 2434SOL     OW 7357   0.008   0.290   4.218
 2434SOL    HW1 7358   0.034   0.368   4.169
 2434SOL    HW2 7359   0.060   0.294   4.298
 2435SOL     OW 7360   3.991   3.082   0.686
 2435SOL    HW1 7361   4.000   3.069   0.592
 2435SOL    HW2 7362   4.075   3.120   0.713
 2436SOL     OW 7363   4.826   3.263   1.705
 2436SOL    HW1 7364   4.824   3.171   1.678
 2436SOL    HW2 7365   4.903   3.270   1.761
 2437SOL     OW 7366   4.679   4.047   1.877
 2437SOL    HW1 7367   4.739   3.977   1.850
 2437SOL    HW2 7368   4.594   4.004   1.884
 2438SOL     OW 7369   1.233   1.782   0.138
 2438SOL    HW1 7370   1.272   1.756   0.222
 2438SOL    HW2 7371   1.185   1.863   0.158
 2439SOL     OW 7372   3.774   4.236   0.784
 2439SOL    HW1 7373   3.699   4.244   0.844
 2439SOL    HW2 7374   3.807   4.325   0.776
 2440SOL     OW 7375   0.571   4.362   0.836
 2440SOL    HW1 7376   0.480   4.346   0.811
 2440SOL    HW2 7377   0.613   4.391   0.755
 2441SOL     OW 7378   1.057   3.090   2.889
 2441SOL    HW1 7379   1.069   2.999   2.915
 2441SOL    HW2 7380   1.143   3.130   2.900
 2442SOL     OW 7381   2.318   4.510   3.057
 2442SOL    HW1 7382   2.345   4.549   3.139
 2442SOL    HW2 7383   2.283   4.424   3.082
 2443SOL     OW 7384   4.715   0.019   3.357
 2443SOL    HW1 7385   4.650   0.076   3.399
 2443SOL    HW2 7386   4.736   4.934   3.423
 2444SOL     OW 7387   0.304   0.252   4.870
 2444SOL    HW1 7388   0.211   0.276   4.876
 2444SOL    HW2 7389   0.346   0.329   4.832
 2445SOL     OW 7390   0.055   3.306   0.075
 2445SOL    HW1 7391   4.959   3.249   0.072
 2445SOL    HW2 7392   0.078   3.311   0.167
 2446SOL     OW 7393   2.376   1.543   1.265
 2446SOL    HW1 7394   2.406   1.462   1.224
 2446SOL    HW2 7395   2.290   1.521   1.300
 2447SOL     OW 7396   4.153   2.022   0.423
 2447SOL    HW1 7397   4.221   2.027   0.490
 2447SOL    HW2 7398   4.081   1.975   0.465
 2448SOL     OW 7399   1.904   3.113   3.964
 2448SOL    HW1 7400   1.953   3.194   3.977
 2448SOL    HW2 7401   1.862   3.123   3.879
 2449SOL     OW 7402   0.044   0.698   0.989
 2449SOL    HW1 7403   0.121   0.732   1.034
 2449SOL    HW2 7404   0.016   0.624   1.042
 2450SOL     OW 7405   0.809   4.751   0.787
 2450SOL    HW1 7406   0.859   4.672   0.766
 2450SOL    HW2 7407   0.846   4.819   0.730
 2451SOL     OW 7408   3.636   0.012   0.543
 2451SOL    HW1 7409   3.691   4.933   0.491
 2451SOL    HW2 7410   3.548   0.000   0.508
 2452SOL     OW 7411   0.274   2.582   3.652
 2452SOL    HW1 7412   0.220   2.661   3.648
 2452SOL    HW2 7413   0.213   2.513   3.677
 2453SOL     OW 7414   4.574   3.655   0.470
 2453SOL    HW1 7415   4.610   3.740   0.495
 2453SOL    HW2 7416   4.622   3.591   0.523
 2454SOL     OW 7417   4.630   0.560   2.731
 2454SOL    HW1 7418   4.586   0.633   2.774
 2454SOL    HW2 7419   4.591   0.557   2.644
 2455SOL     OW 7420   3.691   3.945   2.375
 2455SOL    HW1 7421   3.673   4.003   2.300
 2455SOL    HW2 7422   3.617   3.960   2.434
 2456SOL     OW 7423   0.883   4.613   2.031
 2456SOL    HW1 7424   0.792   4.603   2.060
 2456SOL    HW2 7425   0.877   4.656   1.946
 2457SOL     OW 7426   1.483   3.348   3.755
 2457SOL    HW1 7427   1.483   3.441   3.779
 2457SOL    HW2 7428   1.399   3.335   3.711
 2458SOL     OW 7429   3.126   1.878   0.648
 2458SOL    HW1 7430   3.136   1.793   0.605
 2458SOL    HW2 7431   3.031   1.891   0.655
 2459SOL     OW 7432   0.227   3.809   4.387
 2459SOL    HW1 7433   0.240   3.772   4.474
 2459SOL    HW2 7434   0.171   3.746   4.342
 2460SOL     OW 7435   0.754   4.079   1.689
 2460SOL    HW1 7436   0.769   4.128   1.609
 2460SOL    HW2 7437   0.830   4.020   1.696
 2461SOL     OW 7438   0.046   4.964   3.012
 2461SOL    HW1 7439   4.973   0.046   3.061
 2461SOL    HW2 7440   0.047   0.017   2.922
 2462SOL     OW 7441   0.823   3.509   4.352
 2462SOL    HW1 7442   0.812   3.537   4.443
 2462SOL    HW2 7443   0.807   3.589   4.300
 2463SOL     OW 7444   0.470   3.531   1.087
 2463SOL    HW1 7445   0.378   3.551   1.104
 2463SOL    HW2 7446   0.496   3.595   1.020
 2464SOL     OW 7447   3.783   1.624   2.819
 2464SOL    HW1 7448   3.714   1.649   2.880
 2464SOL    HW2 7449   3.819   1.543   2.854
 2465SOL     OW 7450   2.845   4.876   1.528
 2465SOL    HW1 7451   2.803   4.961   1.515
 2465SOL    HW2 7452   2.899   4.865   1.450
 2466SOL     OW 7453   2.986   4.006   3.812
 2466SOL    HW1 7454   3.045   3.962   3.751
 2466SOL    HW2 7455   3.004   3.964   3.897
 2467SOL     OW 7456   1.327   0.997   4.300
 2467SOL    HW1 7457   1.393   0.943   4.256
 2467SOL    HW2 7458   1.247   0.984   4.248
 2468SOL     OW 7459   0.626   1.658   4.967
 2468SOL    HW1 7460   0.581   1.734   0.022
 2468SOL    HW2 7461   0.558   1.593   4.954
 2469SOL     OW 7462   0.062   0.494   4.026
 2469SOL    HW1 7463   0.050   0.443   3.946
 2469SOL    HW2 7464   0.157   0.502   4.035
 2470SOL     OW 7465   2.350   3.486   0.679
 2470SOL    HW1 7466   2.307   3.406   0.709
 2470SOL    HW2 7467   2.302   3.511   0.599
 2471SOL     OW 7468   1.565   4.067   2.484
 2471SOL    HW1 7469   1.522   4.132   2.540
 2471SOL    HW2 7470   1.505   4.056   2.410
 2472SOL     OW 7471   3.070   2.699   4.702
 2472SOL    HW1 7472   3.098   2.611   4.727
 2472SOL    HW2 7473   3.075   2.750   4.782
 2473SOL     OW 7474   4.120   1.462   1.510
 2473SOL    HW1 7475   4.152   1.537   1.561
 2473SOL    HW2 7476   4.199   1.421   1.475
 2474SOL     OW 7477   0.056   0.339   0.823
 2474SOL    HW1 7478   4.950   0.313   0.855
 2474SOL    HW2 7479   0.043   0.425   0.784
 2475SOL     OW 7480   2.494   0.510   1.809
 2475SOL    HW1 7481   2.478   0.416   1.804
 2475SOL    HW2 7482   2.409   0.550   1.790
 2476SOL     OW 7483   0.048   4.259   4.565
 2476SOL    HW1 7484   4.954   4.286   4.512
 2476SOL    HW2 7485   0.057   4.166   4.548
 2477SOL     OW 7486   1.099   1.437   3.832
 2477SOL    HW1 7487   1.089   1.479   3.746
 2477SOL    HW2 7488   1.096   1.510   3.894
 2478SOL     OW 7489   1.043   1.177   0.906
 2478SOL    HW1 7490   1.103   1.184   0.831
 2478SOL    HW2 7491   1.092   1.126   0.971
 2479SOL     OW 7492   0.854   2.754   3.283
 2479SOL    HW1 7493   0.776   2.750   3.227
 2479SOL    HW2 7494   0.831   2.701   3.359
 2480SOL     OW 7495   2.967   0.048   0.728
 2480SOL    HW1 7496   3.028   0.089   0.666
 2480SOL    HW2 7497   2.918   4.966   0.675
 2481SOL     OW 7498   3.436   1.274   0.930
 2481SOL    HW1 7499   3.371   1.289   0.861
 2481SOL    HW2 7500   3.384   1.266   1.010
 2482SOL     OW 7501   4.626   0.477   4.975
 2482SOL    HW1 7502   4.531   0.481   4.960
 2482SOL    HW2 7503   4.639   0.398   0.046
 2483SOL     OW 7504   2.408   4.773   1.021
 2483SOL    HW1 7505   2.462   4.852   1.014
 2483SOL    HW2 7506   2.458   4.707   0.973
 2484SOL     OW 7507   1.473   2.839   2.851
 2484SOL    HW1 7508   1.533   2.856   2.924
 2484SOL    HW2 7509   1.386   2.851   2.888
 2485SOL     OW 7510   2.318   0.442   2.255
 2485SOL    HW1 7511   2.298   0.431   2.162
 2485SOL    HW2 7512   2.359   0.528   2.261
 2486SOL     OW 7513   0.707   0.846   1.287
 2486SOL    HW1 7514   0.770   0.919   1.293
 2486SOL    HW2 7515   0.667   0.856   1.201
 2487SOL     OW 7516   2.743   1.654   3.257
 2487SOL    HW1 7517   2.676   1.586   3.266
 2487SOL    HW2 7518   2.767   1.675   3.347
 2488SOL     OW 7519   2.716   0.540   1.986
 2488SOL    HW1 7520   2.673   0.613   2.032
 2488SOL    HW2 7521   2.659   0.523   1.911
 2489SOL     OW 7522   1.036   4.655   4.705
 2489SOL    HW1 7523   1.114   4.657   4.761
 2489SOL    HW2 7524   1.045   4.573   4.655
 2490SOL     OW 7525   4.128   0.996   2.857
 2490SOL    HW1 7526   4.136   1.090   2.869
 2490SOL    HW2 7527   4.068   0.967   2.926
 2491SOL     OW 7528   1.402   3.539   2.467
 2491SOL    HW1 7529   1.489   3.529   2.507
 2491SOL    HW2 7530   1.347   3.570   2.538
 2492SOL     OW 7531   0.566   4.333   1.548
 2492SOL    HW1 7532   0.602   4.371   1.628
 2492SOL    HW2 7533   0.639   4.282   1.512
 2493SOL     OW 7534   4.705   0.680   4.174
 2493SOL    HW1 7535   4.667   0.639   4.252
 2493SOL    HW2 7536   4.652   0.645   4.101
 2494SOL     OW 7537   0.579   3.469   1.515
 2494SOL    HW1 7538   0.598   3.540   1.575
 2494SOL    HW2 7539   0.626   3.491   1.434
 2495SOL     OW 7540   3.808   0.114   4.406
 2495SOL    HW1 7541   3.747   0.040   4.415
 2495SOL    HW2 7542   3.890   0.074   4.378
 2496SOL     OW 7543   4.204   2.408   0.094
 2496SOL    HW1 7544   4.232   2.367   0.176
 2496SOL    HW2 7545   4.118   2.445   0.114
 2497SOL     OW 7546   1.635   4.243   0.456
 2497SOL    HW1 7547   1.701   4.222   0.390
 2497SOL    HW2 7548   1.639   4.170   0.518
 2498SOL     OW 7549   4.536   2.052   2.184
 2498SOL    HW1 7550   4.505   2.021   2.269
 2498SOL    HW2 7551   4.607   2.112   2.204
 2499SOL     OW 7552   2.143   1.078   2.283
 2499SOL    HW1 7553   2.138   1.009   2.217
 2499SOL    HW2 7554   2.236   1.082   2.307
 2500SOL     OW 7555   4.818   4.024   0.066
 2500SOL    HW1 7556   4.793   4.004   4.956
 2500SOL    HW2 7557   4.744   3.994   0.118
 2501SOL     OW 7558   0.587   3.576   4.584
 2501SOL    HW1 7559   0.582   3.662   4.541
 2501SOL    HW2 7560   0.565   3.595   4.676
 2502SOL     OW 7561   4.469   0.662   1.588
 2502SOL    HW1 7562   4.529   0.698   1.523
 2502SOL    HW2 7563   4.505   0.689   1.672
 2503SOL     OW 7564   2.326   2.991   4.366
 2503SOL    HW1 7565   2.341   2.970   4.458
 2503SOL    HW2 7566   2.414   3.003   4.329
 2504SOL     OW 7567   4.942   3.713   2.549
 2504SOL    HW1 7568   4.957   3.744   2.460
 2504SOL    HW2 7569   4.956   3.791   2.604
 2505SOL     OW 7570   0.967   0.654   4.922
 2505SOL    HW1 7571   0.887   0.700   4.895
 2505SOL    HW2 7572   0.944   0.616   0.026
 2506SOL     OW 7573   2.565   3.942   2.927
 2506SOL    HW1 7574   2.652   3.913   2.900
 2506SOL    HW2 7575   2.524   3.864   2.964
 2507SOL     OW 7576   2.816   0.968   1.650
 2507SOL    HW1 7577   2.829   1.028   1.577
 2507SOL    HW2 7578   2.887   0.905   1.643
 2508SOL     OW 7579   1.270   3.820   4.037
 2508SOL    HW1 7580   1.230   3.880   3.975
 2508SOL    HW2 7581   1.211   3.744   4.040
 2509SOL     OW 7582   2.888   0.187   4.544
 2509SOL    HW1 7583   2.806   0.195   4.495
 2509SOL    HW2 7584   2.953   0.231   4.489
 2510SOL     OW 7585   0.263   3.291   3.618
 2510SOL    HW1 7586   0.222   3.222   3.565
 2510SOL    HW2 7587   0.288   3.247   3.699
 2511SOL     OW 7588   3.691   2.556   0.594
 2511SOL    HW1 7589   3.647   2.590   0.672
 2511SOL    HW2 7590   3.757   2.622   0.573
 2512SOL     OW 7591   3.470   2.430   4.153
 2512SOL    HW1 7592   3.415   2.363   4.194
 2512SOL    HW2 7593   3.554   2.385   4.138
 2513SOL     OW 7594   1.481   4.704   1.532
 2513SOL    HW1 7595   1.509   4.658   1.611
 2513SOL    HW2 7596   1.511   4.649   1.460
 2514SOL     OW 7597   4.445   4.641   0.288
 2514SOL    HW1 7598   4.422   4.707   0.222
 2514SOL    HW2 7599   4.536   4.618   0.269
 2515SOL     OW 7600   0.256   2.233   1.308
 2515SOL    HW1 7601   0.291   2.145   1.289
 2515SOL    HW2 7602   0.281   2.248   1.399
 2516SOL     OW 7603   3.608   2.590   3.032
 2516SOL    HW1 7604   3.685   2.645   3.049
 2516SOL    HW2 7605   3.535   2.652   3.030
 2517SOL     OW 7606   2.228   3.564   1.421
 2517SOL    HW1 7607   2.149   3.510   1.417
 2517SOL    HW2 7608   2.288   3.524   1.358
 2518SOL     OW 7609   4.852   2.770   4.478
 2518SOL    HW1 7610   4.789   2.709   4.439
 2518SOL    HW2 7611   4.932   2.759   4.426
 2519SOL     OW 7612   1.731   4.394   4.301
 2519SOL    HW1 7613   1.771   4.369   4.218
 2519SOL    HW2 7614   1.701   4.312   4.339
 2520SOL     OW 7615   3.651   3.428   3.831
 2520SOL    HW1 7616   3.702   3.507   3.848
 2520SOL    HW2 7617   3.560   3.457   3.830
 2521SOL     OW 7618   2.872   4.467   1.239
 2521SOL    HW1 7619   2.890   4.395   1.300
 2521SOL    HW2 7620   2.804   4.432   1.181
 2522SOL     OW 7621   3.648   2.713   4.630
 2522SOL    HW1 7622   3.602   2.748   4.707
 2522SOL    HW2 7623   3.606   2.756   4.556
 2523SOL     OW 7624   0.538   3.094   3.938
 2523SOL    HW1 7625   0.572   3.050   3.860
 2523SOL    HW2 7626   0.444   3.098   3.924
 2524SOL     OW 7627   2.801   2.103   4.269
 2524SOL    HW1 7628   2.813   2.032   4.333
 2524SOL    HW2 7629   2.713   2.136   4.287
 2525SOL     OW 7630   1.023   4.370   1.827
 2525SOL    HW1 7631   0.999   4.405   1.913
 2525SOL    HW2 7632   1.014   4.275   1.836
 2526SOL     OW 7633   2.088   2.348   0.152
 2526SOL    HW1 7634   2.098   2.363   0.058
 2526SOL    HW2 7635   2.096   2.254   0.162
 2527SOL     OW 7636   3.885   2.679   3.762
 2527SOL    HW1 7637   3.867   2.768   3.791
 2527SOL    HW2 7638   3.808   2.655   3.709
 2528SOL     OW 7639   0.658   2.875   3.781
 2528SOL    HW1 7640   0.709   2.892   3.861
 2528SOL    HW2 7641   0.597   2.806   3.806
 2529SOL     OW 7642   2.650   4.604   4.053
 2529SOL    HW1 7643   2.741   4.629   4.068
 2529SOL    HW2 7644   2.615   4.674   3.998
 2530SOL     OW 7645   1.486   0.874   2.588
 2530SOL    HW1 7646   1.566   0.913   2.623
 2530SOL    HW2 7647   1.472   0.919   2.505
 2531SOL     OW 7648   4.798   2.327   4.165
 2531SOL    HW1 7649   4.825   2.245   4.208
 2531SOL    HW2 7650   4.832   2.319   4.076
 2532SOL     OW 7651   2.363   0.987   0.897
 2532SOL    HW1 7652   2.329   1.055   0.956
 2532SOL    HW2 7653   2.320   1.004   0.814
 2533SOL     OW 7654   2.218   4.222   4.754
 2533SOL    HW1 7655   2.142   4.228   4.812
 2533SOL    HW2 7656   2.268   4.302   4.771
 2534SOL     OW 7657   1.286   2.223   1.577
 2534SOL    HW1 7658   1.230   2.257   1.507
 2534SOL    HW2 7659   1.231   2.228   1.655
 2535SOL     OW 7660   4.642   2.056   0.164
 2535SOL    HW1 7661   4.587   2.002   0.107
 2535SOL    HW2 7662   4.714   1.998   0.190
 2536SOL     OW 7663   2.174   2.400   1.195
 2536SOL    HW1 7664   2.197   2.476   1.249
 2536SOL    HW2 7665   2.195   2.427   1.106
 2537SOL     OW 7666   1.881   2.072   1.856
 2537SOL    HW1 7667   1.819   2.117   1.799
 2537SOL    HW2 7668   1.967   2.104   1.827
 2538SOL     OW 7669   2.105   0.166   4.779
 2538SOL    HW1 7670   2.136   0.206   4.697
 2538SOL    HW2 7671   2.172   0.187   4.843
 2539SOL     OW 7672   4.234   1.537   0.720
 2539SOL    HW1 7673   4.206   1.492   0.800
 2539SOL    HW2 7674   4.220   1.473   0.650
 2540SOL     OW 7675   1.108   1.695   3.929
 2540SOL    HW1 7676   1.046   1.745   3.981
 2540SOL    HW2 7677   1.193   1.712   3.970
 2541SOL     OW 7678   0.136   3.442   1.278
 2541SOL    HW1 7679   0.055   3.442   1.330
 2541SOL    HW2 7680   0.110   3.411   1.192
 2542SOL     OW 7681   4.139   3.494   1.670
 2542SOL    HW1 7682   4.204   3.564   1.666
 2542SOL    HW2 7683   4.131   3.464   1.579
 2543SOL     OW 7684   1.548   4.288   2.798
 2543SOL    HW1 7685   1.565   4.377   2.826
 2543SOL    HW2 7686   1.634   4.247   2.794
 2544SOL     OW 7687   1.214   3.132   0.254
 2544SOL    HW1 7688   1.200   3.050   0.207
 2544SOL    HW2 7689   1.287   3.174   0.208
 2545SOL     OW 7690   1.330   4.287   2.527
 2545SOL    HW1 7691   1.299   4.204   2.564
 2545SOL    HW2 7692   1.295   4.354   2.585
 2546SOL     OW 7693   1.546   2.324   1.281
 2546SOL    HW1 7694   1.623   2.378   1.260
 2546SOL    HW2 7695   1.582   2.236   1.296
 2547SOL     OW 7696   0.829   2.408   4.498
 2547SOL    HW1 7697   0.798   2.457   4.422
 2547SOL    HW2 7698   0.925   2.412   4.492
 2548SOL     OW 7699   3.094   1.571   1.971
 2548SOL    HW1 7700   3.078   1.666   1.965
 2548SOL    HW2 7701   3.126   1.558   2.060
 2549SOL     OW 7702   1.234   3.988   2.599
 2549SOL    HW1 7703   1.253   3.981   2.692
 2549SOL    HW2 7704   1.284   3.917   2.558
 2550SOL     OW 7705   4.200   0.724   4.753
 2550SOL    HW1 7706   4.158   0.653   4.705
 2550SOL    HW2 7707   4.127   0.772   4.793
 2551SOL     OW 7708   1.128   3.106   3.231
 2551SOL    HW1 7709   1.174   3.103   3.147
 2551SOL    HW2 7710   1.120   3.015   3.258
 2552SOL     OW 7711   3.082   1.795   4.508
 2552SOL    HW1 7712   3.095   1.823   4.418
 2552SOL    HW2 7713   3.138   1.852   4.560
 2553SOL     OW 7714   3.538   4.327   2.849
 2553SOL    HW1 7715   3.582   4.242   2.847
 2553SOL    HW2 7716   3.483   4.323   2.927
 2554SOL     OW 7717   3.879   3.753   2.846
 2554SOL    HW1 7718   3.825   3.744   2.768
 2554SOL    HW2 7719   3.817   3.748   2.919
 2555SOL     OW 7720   4.148   2.711   3.798
 2555SOL    HW1 7721   4.150   2.805   3.782
 2555SOL    HW2 7722   4.060   2.684   3.770
 2556SOL     OW 7723   3.597   3.467   2.607
 2556SOL    HW1 7724   3.668   3.463   2.671
 2556SOL    HW2 7725   3.563   3.556   2.615
 2557SOL     OW 7726   0.106   0.226   3.860
 2557SOL    HW1 7727   0.021   0.199   3.825
 2557SOL    HW2 7728   0.122   0.167   3.933
 2558SOL     OW 7729   1.877   0.271   3.692
 2558SOL    HW1 7730   1.854   0.363   3.704
 2558SOL    HW2 7731   1.901   0.241   3.779
 2559SOL     OW 7732   1.266   4.435   4.216
 2559SOL    HW1 7733   1.309   4.396   4.292
 2559SOL    HW2 7734   1.292   4.381   4.142
 2560SOL     OW 7735   0.712   0.198   2.318
 2560SOL    HW1 7736   0.766   0.148   2.257
 2560SOL    HW2 7737   0.623   0.188   2.285
 2561SOL     OW 7738   3.068   2.208   1.466
 2561SOL    HW1 7739   2.979   2.216   1.434
 2561SOL    HW2 7740   3.067   2.130   1.522
 2562SOL     OW 7741   0.570   4.270   2.233
 2562SOL    HW1 7742   0.479   4.298   2.242
 2562SOL    HW2 7743   0.573   4.224   2.149
 2563SOL     OW 7744   1.507   0.455   3.992
 2563SOL    HW1 7745   1.596   0.437   3.962
 2563SOL    HW2 7746   1.514   0.457   4.088
 2564SOL     OW 7747   0.483   3.748   2.070
 2564SOL    HW1 7748   0.537   3.795   2.007
 2564SOL    HW2 7749   0.484   3.657   2.041
 2565SOL     OW 7750   4.330   2.755   1.220
 2565SOL    HW1 7751   4.263   2.688   1.203
 2565SOL    HW2 7752   4.283   2.825   1.266
 2566SOL     OW 7753   3.511   4.001   4.627
 2566SOL    HW1 7754   3.574   3.933   4.606
 2566SOL    HW2 7755   3.523   4.018   4.720
 2567SOL     OW 7756   0.183   2.528   4.704
 2567SOL    HW1 7757   0.266   2.543   4.659
 2567SOL    HW2 7758   0.179   2.599   4.769
 2568SOL     OW 7759   0.215   3.818   1.920
 2568SOL    HW1 7760   0.254   3.858   1.843
 2568SOL    HW2 7761   0.282   3.826   1.988
 2569SOL     OW 7762   1.376   2.489   1.407
 2569SOL    HW1 7763   1.451   2.441   1.373
 2569SOL    HW2 7764   1.404   2.519   1.494
 2570SOL     OW 7765   0.584   3.021   3.542
 2570SOL    HW1 7766   0.597   3.113   3.562
 2570SOL    HW2 7767   0.606   2.975   3.623
 2571SOL     OW 7768   1.146   2.036   3.990
 2571SOL    HW1 7769   1.153   1.963   4.051
 2571SOL    HW2 7770   1.052   2.058   3.990
 2572SOL     OW 7771   3.814   1.041   3.483
 2572SOL    HW1 7772   3.783   1.040   3.574
 2572SOL    HW2 7773   3.827   0.948   3.461
 2573SOL     OW 7774   2.493   1.615   4.768
 2573SOL    HW1 7775   2.566   1.559   4.796
 2573SOL    HW2 7776   2.535   1.697   4.740
 2574SOL     OW 7777   4.226   3.056   2.455
 2574SOL    HW1 7778   4.220   2.963   2.430
 2574SOL    HW2 7779   4.144   3.073   2.501
 2575SOL     OW 7780   0.056   1.576   1.486
 2575SOL    HW1 7781   0.143   1.579   1.526
 2575SOL    HW2 7782   0.012   1.503   1.529
 2576SOL     OW 7783   4.340   3.226   4.302
 2576SOL    HW1 7784   4.322   3.158   4.238
 2576SOL    HW2 7785   4.428   3.206   4.334
 2577SOL     OW 7786   1.011   0.619   4.613
 2577SOL    HW1 7787   0.999   0.676   4.689
 2577SOL    HW2 7788   1.106   0.623   4.595
 2578SOL     OW 7789   2.948   3.084   1.541
 2578SOL    HW1 7790   2.982   3.061   1.454
 2578SOL    HW2 7791   3.006   3.154   1.571
 2579SOL     OW 7792   2.216   1.805   2.326
 2579SOL    HW1 7793   2.242   1.896   2.339
 2579SOL    HW2 7794   2.120   1.806   2.329
 2580SOL     OW 7795   3.598   0.751   2.450
 2580SOL    HW1 7796   3.586   0.803   2.529
 2580SOL    HW2 7797   3.562   0.805   2.380
 2581SOL     OW 7798   4.060   0.534   4.225
 2581SOL    HW1 7799   4.041   0.521   4.318
 2581SOL    HW2 7800   4.057   0.447   4.187
 2582SOL     OW 7801   4.187   1.584   4.915
 2582SOL    HW1 7802   4.110   1.540   4.950
 2582SOL    HW2 7803   4.173   1.583   4.820
 2583SOL     OW 7804   0.886   4.653   2.353
 2583SOL    HW1 7805   0.908   4.746   2.344
 2583SOL    HW2 7806   0.913   4.614   2.270
 2584SOL     OW 7807   2.122   0.605   3.948
 2584SOL    HW1 7808   2.173   0.566   4.019
 2584SOL    HW2 7809   2.172   0.586   3.869
 2585SOL     OW 7810   1.735   1.510   0.963
 2585SOL    HW1 7811   1.798   1.445   0.993
 2585SOL    HW2 7812   1.703   1.552   1.043
 2586SOL     OW 7813   1.005   2.514   0.233
 2586SOL    HW1 7814   0.951   2.442   0.199
 2586SOL    HW2 7815   1.016   2.494   0.326
 2587SOL     OW 7816   3.296   1.610   4.705
 2587SOL    HW1 7817   3.238   1.626   4.780
 2587SOL    HW2 7818   3.309   1.515   4.705
 2588SOL     OW 7819   3.602   3.549   2.205
 2588SOL    HW1 7820   3.541   3.491   2.250
 2588SOL    HW2 7821   3.547   3.598   2.143
 2589SOL     OW 7822   1.208   0.746   1.264
 2589SOL    HW1 7823   1.137   0.719   1.206
 2589SOL    HW2 7824   1.222   0.670   1.322
 2590SOL     OW 7825   2.988   0.264   1.177
 2590SOL    HW1 7826   2.991   0.351   1.217
 2590SOL    HW2 7827   3.050   0.212   1.228
 2591SOL     OW 7828   0.785   0.661   3.275
 2591SOL    HW1 7829   0.870   0.656   3.321
 2591SOL    HW2 7830   0.786   0.585   3.217
 2592SOL     OW 7831   4.148   4.503   2.155
 2592SOL    HW1 7832   4.190   4.420   2.130
 2592SOL    HW2 7833   4.180   4.521   2.243
 2593SOL     OW 7834   1.800   1.636   1.848
 2593SOL    HW1 7835   1.878   1.635   1.904
 2593SOL    HW2 7836   1.824   1.691   1.774
 2594SOL     OW 7837   0.114   0.272   1.919
 2594SOL    HW1 7838   0.066   0.273   1.837
 2594SOL    HW2 7839   0.193   0.323   1.901
 2595SOL     OW 7840   1.854   3.499   4.676
 2595SOL    HW1 7841   1.927   3.561   4.681
 2595SOL    HW2 7842   1.844   3.467   4.766
 2596SOL     OW 7843   2.352   2.298   4.741
 2596SOL    HW1 7844   2.404   2.360   4.689
 2596SOL    HW2 7845   2.384   2.212   4.714
 2597SOL     OW 7846   4.776   3.504   0.957
 2597SOL    HW1 7847   4.732   3.420   0.943
 2597SOL    HW2 7848   4.860   3.480   0.995
 2598SOL     OW 7849   3.957   0.140   0.994
 2598SOL    HW1 7850   3.968   0.216   0.936
 2598SOL    HW2 7851   4.035   0.087   0.978
 2599SOL     OW 7852   4.368   2.849   3.001
 2599SOL    HW1 7853   4.458   2.817   2.994
 2599SOL    HW2 7854   4.334   2.846   2.912
 2600SOL     OW 7855   4.604   2.862   3.604
 2600SOL    HW1 7856   4.521   2.833   3.566
 2600SOL    HW2 7857   4.670   2.807   3.563
 2601SOL     OW 7858   1.580   0.846   1.547
 2601SOL    HW1 7859   1.494   0.888   1.550
 2601SOL    HW2 7860   1.563   0.761   1.505
 2602SOL     OW 7861   2.380   4.743   0.250
 2602SOL    HW1 7862   2.342   4.806   0.189
 2602SOL    HW2 7863   2.330   4.755   0.331
 2603SOL     OW 7864   3.755   4.054   3.781
 2603SOL    HW1 7865   3.846   4.056   3.750
 2603SOL    HW2 7866   3.750   3.975   3.835
 2604SOL     OW 7867   1.099   4.949   1.525
 2604SOL    HW1 7868   1.190   4.976   1.537
 2604SOL    HW2 7869   1.098   4.856   1.548
 2605SOL     OW 7870   1.056   0.551   3.337
 2605SOL    HW1 7871   1.032   0.459   3.347
 2605SOL    HW2 7872   1.063   0.585   3.426
 2606SOL     OW 7873   4.682   0.296   1.320
 2606SOL    HW1 7874   4.754   0.356   1.303
 2606SOL    HW2 7875   4.608   0.334   1.272
 2607SOL     OW 7876   1.522   2.995   1.667
 2607SOL    HW1 7877   1.474   3.055   1.723
 2607SOL    HW2 7878   1.605   3.039   1.649
 2608SOL     OW 7879   2.954   0.668   1.013
 2608SOL    HW1 7880   2.876   0.684   0.960
 2608SOL    HW2 7881   2.996   0.593   0.971
 2609SOL     OW 7882   2.930   2.154   4.939
 2609SOL    HW1 7883   2.999   2.121   0.017
 2609SOL    HW2 7884   2.961   2.133   4.851
 2610SOL     OW 7885   4.419   2.748   0.415
 2610SOL    HW1 7886   4.362   2.790   0.479
 2610SOL    HW2 7887   4.392   2.656   0.416
 2611SOL     OW 7888   2.980   2.504   4.483
 2611SOL    HW1 7889   3.075   2.496   4.494
 2611SOL    HW2 7890   2.964   2.478   4.392
 2612SOL     OW 7891   4.874   0.572   2.887
 2612SOL    HW1 7892   4.853   0.655   2.930
 2612SOL    HW2 7893   4.807   0.563   2.819
 2613SOL     OW 7894   4.226   4.168   4.571
 2613SOL    HW1 7895   4.172   4.090   4.560
 2613SOL    HW2 7896   4.164   4.239   4.586
 2614SOL     OW 7897   1.448   2.589   1.665
 2614SOL    HW1 7898   1.396   2.611   1.742
 2614SOL    HW2 7899   1.523   2.648   1.669
 2615SOL     OW 7900   4.149   2.822   2.329
 2615SOL    HW1 7901   4.178   2.734   2.354
 2615SOL    HW2 7902   4.199   2.842   2.250
 2616SOL     OW 7903   2.106   4.123   1.402
 2616SOL    HW1 7904   2.054   4.045   1.385
 2616SOL    HW2 7905   2.174   4.121   1.335
 2617SOL     OW 7906   0.314   3.454   4.276
 2617SOL    HW1 7907   0.242   3.497   4.231
 2617SOL    HW2 7908   0.299   3.473   4.369
 2618SOL     OW 7909   4.345   0.679   3.603
 2618SOL    HW1 7910   4.363   0.601   3.550
 2618SOL    HW2 7911   4.348   0.647   3.693
 2619SOL     OW 7912   2.846   0.714   2.294
 2619SOL    HW1 7913   2.894   0.634   2.272
 2619SOL    HW2 7914   2.914   0.779   2.314
 2620SOL     OW 7915   0.467   2.086   1.924
 2620SOL    HW1 7916   0.386   2.036   1.917
 2620SOL    HW2 7917   0.448   2.168   1.878
 2621SOL     OW 7918   3.649   0.843   0.077
 2621SOL    HW1 7919   3.695   0.902   0.137
 2621SOL    HW2 7920   3.612   0.901   0.011
 2622SOL     OW 7921   2.405   0.619   0.094
 2622SOL    HW1 7922   2.459   0.544   0.070
 2622SOL    HW2 7923   2.449   0.657   0.170
 2623SOL     OW 7924   4.126   4.689   1.610
 2623SOL    HW1 7925   4.140   4.606   1.565
 2623SOL    HW2 7926   4.191   4.748   1.572
 2624SOL     OW 7927   0.848   1.676   1.856
 2624SOL    HW1 7928   0.853   1.624   1.936
 2624SOL    HW2 7929   0.755   1.676   1.832
 2625SOL     OW 7930   3.986   4.406   0.294
 2625SOL    HW1 7931   4.022   4.467   0.230
 2625SOL    HW2 7932   4.053   4.399   0.362
 2626SOL     OW 7933   2.345   3.138   1.982
 2626SOL    HW1 7934   2.261   3.180   1.960
 2626SOL    HW2 7935   2.323   3.046   1.996
 2627SOL     OW 7936   4.690   3.284   2.400
 2627SOL    HW1 7937   4.712   3.359   2.455
 2627SOL    HW2 7938   4.753   3.216   2.426
 2628SOL     OW 7939   4.069   3.191   3.954
 2628SOL    HW1 7940   3.979   3.211   3.931
 2628SOL    HW2 7941   4.065   3.157   4.043
 2629SOL     OW 7942   0.006   1.176   0.970
 2629SOL    HW1 7943   4.942   1.102   0.929
 2629SOL    HW2 7944   0.093   1.143   0.992
 2630SOL     OW 7945   3.518   3.734   2.979
 2630SOL    HW1 7946   3.500   3.786   3.058
 2630SOL    HW2 7947   3.584   3.670   3.007
 2631SOL     OW 7948   3.101   2.429   4.799
 2631SOL    HW1 7949   3.093   2.352   4.742
 2631SOL    HW2 7950   3.027   2.423   4.859
 2632SOL     OW 7951   4.200   3.875   3.844
 2632SOL    HW1 7952   4.262   3.816   3.888
 2632SOL    HW2 7953   4.185   3.946   3.906
 2633SOL     OW 7954   3.747   3.303   3.102
 2633SOL    HW1 7955   3.837   3.319   3.075
 2633SOL    HW2 7956   3.705   3.389   3.101
 2634SOL     OW 7957   0.980   1.826   4.132
 2634SOL    HW1 7958   0.912   1.889   4.108
 2634SOL    HW2 7959   0.959   1.800   4.222
 2635SOL     OW 7960   3.272   3.294   0.689
 2635SOL    HW1 7961   3.212   3.346   0.743
 2635SOL    HW2 7962   3.215   3.233   0.642
 2636SOL     OW 7963   4.289   3.124   2.706
 2636SOL    HW1 7964   4.383   3.139   2.709
 2636SOL    HW2 7965   4.273   3.088   2.619
 2637SOL     OW 7966   3.792   0.593   0.452
 2637SOL    HW1 7967   3.764   0.502   0.449
 2637SOL    HW2 7968   3.859   0.600   0.384
 2638SOL     OW 7969   1.727   2.980   2.095
 2638SOL    HW1 7970   1.775   3.004   2.175
 2638SOL    HW2 7971   1.638   3.012   2.112
 2639SOL     OW 7972   0.691   4.444   3.073
 2639SOL    HW1 7973   0.641   4.413   3.149
 2639SOL    HW2 7974   0.688   4.371   3.011
 2640SOL     OW 7975   4.229   3.617   2.069
 2640SOL    HW1 7976   4.161   3.620   2.001
 2640SOL    HW2 7977   4.231   3.706   2.104
 2641SOL     OW 7978   1.648   3.045   4.335
 2641SOL    HW1 7979   1.649   3.138   4.357
 2641SOL    HW2 7980   1.736   3.014   4.358
 2642SOL     OW 7981   1.726   4.637   0.778
 2642SOL    HW1 7982   1.654   4.700   0.777
 2642SOL    HW2 7983   1.766   4.650   0.864
 2643SOL     OW 7984   3.055   4.239   2.150
 2643SOL    HW1 7985   3.150   4.235   2.148
 2643SOL    HW2 7986   3.034   4.331   2.130
 2644SOL     OW 7987   3.280   0.265   3.547
 2644SOL    HW1 7988   3.240   0.286   3.463
 2644SOL    HW2 7989   3.322   0.180   3.534
 2645SOL     OW 7990   4.902   0.027   0.918
 2645SOL    HW1 7991   4.969   0.025   0.987
 2645SOL    HW2 7992   4.837   4.943   0.946
 2646SOL     OW 7993   4.960   1.401   1.164
 2646SOL    HW1 7994   0.019   1.340   1.101
 2646SOL    HW2 7995   4.897   1.451   1.113
 2647SOL     OW 7996   2.401   0.690   2.685
 2647SOL    HW1 7997   2.431   0.604   2.657
 2647SOL    HW2 7998   2.453   0.708   2.764
 2648SOL     OW 7999   1.535   1.572   2.078
 2648SOL    HW1 8000   1.622   1.531   2.076
 2648SOL    HW2 8001   1.499   1.547   2.163
 2649SOL     OW 8002   2.743   0.117   0.125
 2649SOL    HW1 8003   2.737   0.026   0.155
 2649SOL    HW2 8004   2.783   0.164   0.198
 2650SOL     OW 8005   1.448   2.007   0.112
 2650SOL    HW1 8006   1.377   1.950   0.083
 2650SOL    HW2 8007   1.522   1.982   0.058
 2651SOL     OW 8008   1.972   2.241   3.210
 2651SOL    HW1 8009   1.895   2.186   3.216
 2651SOL    HW2 8010   1.983   2.277   3.298
 2652SOL     OW 8011   3.133   2.133   2.950
 2652SOL    HW1 8012   3.041   2.151   2.971
 2652SOL    HW2 8013   3.182   2.168   3.024
 2653SOL     OW 8014   3.029   3.338   2.237
 2653SOL    HW1 8015   3.055   3.419   2.194
 2653SOL    HW2 8016   3.015   3.362   2.328
 2654SOL     OW 8017   1.836   1.692   4.898
 2654SOL    HW1 8018   1.913   1.746   4.915
 2654SOL    HW2 8019   1.838   1.625   4.966
 2655SOL     OW 8020   1.472   0.673   4.815
 2655SOL    HW1 8021   1.491   0.764   4.835
 2655SOL    HW2 8022   1.389   0.655   4.858
 2656SOL     OW 8023   4.706   3.725   2.288
 2656SOL    HW1 8024   4.661   3.666   2.228
 2656SOL    HW2 8025   4.640   3.749   2.353
 2657SOL     OW 8026   2.818   2.395   2.513
 2657SOL    HW1 8027   2.854   2.440   2.437
 2657SOL    HW2 8028   2.887   2.400   2.579
 2658SOL     OW 8029   0.372   0.045   1.267
 2658SOL    HW1 8030   0.466   0.060   1.260
 2658SOL    HW2 8031   0.340   0.115   1.323
 2659SOL     OW 8032   3.835   4.519   0.775
 2659SOL    HW1 8033   3.887   4.577   0.719
 2659SOL    HW2 8034   3.747   4.558   0.774
 2660SOL     OW 8035   0.304   4.275   2.565
 2660SOL    HW1 8036   0.374   4.248   2.624
 2660SOL    HW2 8037   0.325   4.366   2.543
 2661SOL     OW 8038   3.131   1.670   0.489
 2661SOL    HW1 8039   3.075   1.594   0.505
 2661SOL    HW2 8040   3.083   1.723   0.426
 2662SOL     OW 8041   4.765   3.842   3.090
 2662SOL    HW1 8042   4.788   3.809   3.176
 2662SOL    HW2 8043   4.823   3.917   3.077
 2663SOL     OW 8044   2.243   3.769   1.202
 2663SOL    HW1 8045   2.323   3.757   1.254
 2663SOL    HW2 8046   2.258   3.717   1.123
 2664SOL     OW 8047   0.715   3.924   2.951
 2664SOL    HW1 8048   0.776   3.882   2.891
 2664SOL    HW2 8049   0.635   3.872   2.945
 2665SOL     OW 8050   3.297   1.903   1.581
 2665SOL    HW1 8051   3.332   1.817   1.557
 2665SOL    HW2 8052   3.203   1.896   1.564
 2666SOL     OW 8053   4.006   1.661   1.856
 2666SOL    HW1 8054   3.949   1.697   1.788
 2666SOL    HW2 8055   4.059   1.736   1.884
 2667SOL     OW 8056   4.254   0.113   4.056
 2667SOL    HW1 8057   4.207   0.090   3.975
 2667SOL    HW2 8058   4.196   0.176   4.099
 2668SOL     OW 8059   4.008   3.989   1.763
 2668SOL    HW1 8060   4.027   3.957   1.851
 2668SOL    HW2 8061   4.042   3.921   1.705
 2669SOL     OW 8062   3.369   3.934   4.892
 2669SOL    HW1 8063   3.337   3.879   4.819
 2669SOL    HW2 8064   3.301   4.001   4.902
 2670SOL     OW 8065   0.705   1.015   1.731
 2670SOL    HW1 8066   0.690   1.063   1.649
 2670SOL    HW2 8067   0.780   1.059   1.771
 2671SOL     OW 8068   1.594   3.611   3.240
 2671SOL    HW1 8069   1.582   3.645   3.152
 2671SOL    HW2 8070   1.526   3.652   3.292
 2672SOL     OW 8071   1.433   1.663   2.945
 2672SOL    HW1 8072   1.472   1.619   2.870
 2672SOL    HW2 8073   1.341   1.673   2.921
 2673SOL     OW 8074   2.999   2.833   4.965
 2673SOL    HW1 8075   3.048   2.891   0.042
 2673SOL    HW2 8076   2.951   2.775   0.044
 2674SOL     OW 8077   3.594   0.802   0.583
 2674SOL    HW1 8078   3.674   0.854   0.594
 2674SOL    HW2 8079   3.600   0.734   0.650
 2675SOL     OW 8080   1.307   3.936   0.997
 2675SOL    HW1 8081   1.382   3.947   0.938
 2675SOL    HW2 8082   1.300   3.842   1.009
 2676SOL     OW 8083   4.443   1.344   4.850
 2676SOL    HW1 8084   4.410   1.389   4.772
 2676SOL    HW2 8085   4.443   1.251   4.824
 2677SOL     OW 8086   1.899   4.494   4.672
 2677SOL    HW1 8087   1.820   4.442   4.691
 2677SOL    HW2 8088   1.950   4.439   4.613
 2678SOL     OW 8089   3.504   2.845   1.176
 2678SOL    HW1 8090   3.418   2.862   1.139
 2678SOL    HW2 8091   3.535   2.932   1.204
 2679SOL     OW 8092   3.344   2.811   0.618
 2679SOL    HW1 8093   3.406   2.883   0.607
 2679SOL    HW2 8094   3.300   2.803   0.533
 2680SOL     OW 8095   0.657   2.200   4.555
 2680SOL    HW1 8096   0.733   2.256   4.544
 2680SOL    HW2 8097   0.670   2.157   4.640
 2681SOL     OW 8098   3.534   0.497   0.063
 2681SOL    HW1 8099   3.475   0.432   0.026
 2681SOL    HW2 8100   3.607   0.502   0.001
 2682SOL     OW 8101   1.613   1.551   3.981
 2682SOL    HW1 8102   1.590   1.533   4.072
 2682SOL    HW2 8103   1.602   1.467   3.936
 2683SOL     OW 8104   2.496   1.405   0.589
 2683SOL    HW1 8105   2.508   1.483   0.644
 2683SOL    HW2 8106   2.403   1.385   0.595
 2684SOL     OW 8107   0.512   3.191   0.776
 2684SOL    HW1 8108   0.569   3.205   0.701
 2684SOL    HW2 8109   0.547   3.114   0.820
 2685SOL     OW 8110   2.677   4.311   2.029
 2685SOL    HW1 8111   2.694   4.398   2.066
 2685SOL    HW2 8112   2.642   4.328   1.942
 2686SOL     OW 8113   4.290   1.129   3.125
 2686SOL    HW1 8114   4.375   1.106   3.089
 2686SOL    HW2 8115   4.274   1.066   3.195
 2687SOL     OW 8116   0.845   2.448   3.084
 2687SOL    HW1 8117   0.819   2.458   2.992
 2687SOL    HW2 8118   0.905   2.522   3.099
 2688SOL     OW 8119   4.900   3.468   3.830
 2688SOL    HW1 8120   4.936   3.481   3.917
 2688SOL    HW2 8121   4.945   3.532   3.775
 2689SOL     OW 8122   4.342   3.557   1.035
 2689SOL    HW1 8123   4.254   3.555   0.997
 2689SOL    HW2 8124   4.392   3.614   0.976
 2690SOL     OW 8125   1.721   2.511   2.180
 2690SOL    HW1 8126   1.774   2.486   2.105
 2690SOL    HW2 8127   1.631   2.500   2.151
 2691SOL     OW 8128   2.997   4.120   1.240
 2691SOL    HW1 8129   2.903   4.128   1.222
 2691SOL    HW2 8130   3.018   4.029   1.220
 2692SOL     OW 8131   1.022   3.631   2.837
 2692SOL    HW1 8132   0.961   3.567   2.873
 2692SOL    HW2 8133   1.067   3.666   2.914
 2693SOL     OW 8134   2.563   1.736   4.468
 2693SOL    HW1 8135   2.621   1.699   4.535
 2693SOL    HW2 8136   2.534   1.660   4.417
 2694SOL     OW 8137   3.584   1.366   0.686
 2694SOL    HW1 8138   3.536   1.433   0.636
 2694SOL    HW2 8139   3.623   1.414   0.759
 2695SOL     OW 8140   0.081   2.379   0.668
 2695SOL    HW1 8141   4.972   2.396   0.698
 2695SOL    HW2 8142   0.136   2.435   0.723
 2696SOL     OW 8143   3.821   2.298   2.287
 2696SOL    HW1 8144   3.825   2.349   2.206
 2696SOL    HW2 8145   3.727   2.289   2.304
 2697SOL     OW 8146   4.708   4.884   2.024
 2697SOL    HW1 8147   4.730   4.824   1.952
 2697SOL    HW2 8148   4.675   4.963   1.980
 2698SOL     OW 8149   2.831   2.972   0.706
 2698SOL    HW1 8150   2.833   3.037   0.635
 2698SOL    HW2 8151   2.742   2.937   0.702
 2699SOL     OW 8152   4.885   4.473   0.592
 2699SOL    HW1 8153   4.972   4.512   0.601
 2699SOL    HW2 8154   4.835   4.537   0.542
 2700SOL     OW 8155   0.407   3.430   0.552
 2700SOL    HW1 8156   0.410   3.361   0.485
 2700SOL    HW2 8157   0.415   3.511   0.503
 2701SOL     OW 8158   0.906   3.830   2.299
 2701SOL    HW1 8159   0.993   3.849   2.334
 2701SOL    HW2 8160   0.845   3.863   2.366
 2702SOL     OW 8161   3.786   2.705   2.779
 2702SOL    HW1 8162   3.749   2.761   2.711
 2702SOL    HW2 8163   3.713   2.688   2.838
 2703SOL     OW 8164   0.809   3.595   3.398
 2703SOL    HW1 8165   0.816   3.502   3.418
 2703SOL    HW2 8166   0.796   3.598   3.303
 2704SOL     OW 8167   4.557   4.669   3.541
 2704SOL    HW1 8168   4.529   4.620   3.619
 2704SOL    HW2 8169   4.538   4.610   3.468
 2705SOL     OW 8170   3.342   4.273   1.625
 2705SOL    HW1 8171   3.294   4.352   1.649
 2705SOL    HW2 8172   3.284   4.228   1.563
 2706SOL     OW 8173   0.416   4.465   2.795
 2706SOL    HW1 8174   0.479   4.404   2.756
 2706SOL    HW2 8175   0.467   4.543   2.816
 2707SOL     OW 8176   2.102   0.012   0.148
 2707SOL    HW1 8177   2.154   0.090   0.127
 2707SOL    HW2 8178   2.146   4.921   0.101
 2708SOL     OW 8179   3.556   2.245   0.761
 2708SOL    HW1 8180   3.634   2.196   0.736
 2708SOL    HW2 8181   3.576   2.279   0.849
 2709SOL     OW 8182   1.588   2.908   3.291
 2709SOL    HW1 8183   1.665   2.911   3.347
 2709SOL    HW2 8184   1.516   2.884   3.349
 2710SOL     OW 8185   2.802   0.804   3.099
 2710SOL    HW1 8186   2.731   0.743   3.119
 2710SOL    HW2 8187   2.868   0.750   3.056
 2711SOL     OW 8188   1.373   4.030   2.315
 2711SOL    HW1 8189   1.364   4.061   2.225
 2711SOL    HW2 8190   1.285   4.034   2.351
 2712SOL     OW 8191   0.967   1.741   1.023
 2712SOL    HW1 8192   0.962   1.646   1.021
 2712SOL    HW2 8193   0.933   1.769   0.938
 2713SOL     OW 8194   4.292   0.534   4.455
 2713SOL    HW1 8195   4.233   0.609   4.455
 2713SOL    HW2 8196   4.378   0.571   4.475
 2714SOL     OW 8197   0.360   2.326   1.805
 2714SOL    HW1 8198   0.302   2.393   1.769
 2714SOL    HW2 8199   0.383   2.357   1.892
 2715SOL     OW 8200   2.698   4.625   4.450
 2715SOL    HW1 8201   2.762   4.684   4.489
 2715SOL    HW2 8202   2.654   4.678   4.383
 2716SOL     OW 8203   1.379   1.376   0.342
 2716SOL    HW1 8204   1.368   1.436   0.416
 2716SOL    HW2 8205   1.438   1.423   0.282
 2717SOL     OW 8206   1.817   3.425   4.941
 2717SOL    HW1 8207   1.728   3.400   4.964
 2717SOL    HW2 8208   1.872   3.376   0.022
 2718SOL     OW 8209   2.409   0.044   4.298
 2718SOL    HW1 8210   2.415   0.134   4.330
 2718SOL    HW2 8211   2.387   4.973   4.376
 2719SOL     OW 8212   4.645   3.635   0.113
 2719SOL    HW1 8213   4.681   3.637   0.202
 2719SOL    HW2 8214   4.715   3.597   0.060
 2720SOL     OW 8215   0.850   0.201   4.509
 2720SOL    HW1 8216   0.765   0.175   4.474
 2720SOL    HW2 8217   0.832   0.219   4.602
 2721SOL     OW 8218   0.060   2.360   2.876
 2721SOL    HW1 8219   4.963   2.305   2.866
 2721SOL    HW2 8220   0.133   2.305   2.848
 2722SOL     OW 8221   1.650   3.689   2.928
 2722SOL    HW1 8222   1.684   3.778   2.922
 2722SOL    HW2 8223   1.667   3.650   2.842
 2723SOL     OW 8224   4.206   0.701   2.997
 2723SOL    HW1 8225   4.158   0.721   3.077
 2723SOL    HW2 8226   4.170   0.762   2.932
 2724SOL     OW 8227   4.043   1.987   3.925
 2724SOL    HW1 8228   4.136   1.968   3.923
 2724SOL    HW2 8229   4.032   2.045   4.000
 2725SOL     OW 8230   0.575   0.825   3.154
 2725SOL    HW1 8231   0.613   0.743   3.185
 2725SOL    HW2 8232   0.583   0.821   3.059
 2726SOL     OW 8233   2.731   4.922   2.356
 2726SOL    HW1 8234   2.791   4.905   2.284
 2726SOL    HW2 8235   2.702   0.032   2.342
 2727SOL     OW 8236   1.869   0.623   0.035
 2727SOL    HW1 8237   1.888   0.531   0.018
 2727SOL    HW2 8238   1.925   0.647   0.108
 2728SOL     OW 8239   2.183   0.048   3.701
 2728SOL    HW1 8240   2.239   4.973   3.647
 2728SOL    HW2 8241   2.163   4.974   3.777
 2729SOL     OW 8242   2.753   3.332   1.530
 2729SOL    HW1 8243   2.778   3.354   1.619
 2729SOL    HW2 8244   2.768   3.237   1.524
 2730SOL     OW 8245   3.826   1.784   1.695
 2730SOL    HW1 8246   3.780   1.705   1.721
 2730SOL    HW2 8247   3.757   1.850   1.686
 2731SOL     OW 8248   1.269   1.130   0.103
 2731SOL    HW1 8249   1.249   1.212   0.058
 2731SOL    HW2 8250   1.359   1.110   0.078
 2732SOL     OW 8251   4.406   1.130   3.627
 2732SOL    HW1 8252   4.356   1.188   3.569
 2732SOL    HW2 8253   4.341   1.089   3.683
 2733SOL     OW 8254   2.625   1.088   3.739
 2733SOL    HW1 8255   2.615   1.112   3.647
 2733SOL    HW2 8256   2.540   1.049   3.763
 2734SOL     OW 8257   0.937   0.434   1.822
 2734SOL    HW1 8258   0.949   0.370   1.752
 2734SOL    HW2 8259   1.002   0.410   1.888
 2735SOL     OW 8260   3.468   2.008   2.955
 2735SOL    HW1 8261   3.432   2.023   2.868
 2735SOL    HW2 8262   3.393   2.016   3.014
 2736SOL     OW 8263   2.396   3.324   1.632
 2736SOL    HW1 8264   2.460   3.298   1.566
 2736SOL    HW2 8265   2.313   3.288   1.600
 2737SOL     OW 8266   0.026   4.170   3.506
 2737SOL    HW1 8267   0.071   4.085   3.502
 2737SOL    HW2 8268   0.077   4.227   3.448
 2738SOL     OW 8269   1.697   2.409   0.324
 2738SOL    HW1 8270   1.624   2.463   0.355
 2738SOL    HW2 8271   1.774   2.466   0.333
 2739SOL     OW 8272   4.543   3.911   1.450
 2739SOL    HW1 8273   4.530   3.996   1.493
 2739SOL    HW2 8274   4.518   3.927   1.359
 2740SOL     OW 8275   2.688   0.474   2.714
 2740SOL    HW1 8276   2.629   0.460   2.639
 2740SOL    HW2 8277   2.755   0.407   2.705
 2741SOL     OW 8278   1.283   2.909   3.705
 2741SOL    HW1 8279   1.220   2.980   3.692
 2741SOL    HW2 8280   1.334   2.935   3.782
 2742SOL     OW 8281   3.876   3.820   1.229
 2742SOL    HW1 8282   3.956   3.768   1.226
 2742SOL    HW2 8283   3.842   3.817   1.140
 2743SOL     OW 8284   4.319   0.431   3.472
 2743SOL    HW1 8285   4.386   0.399   3.532
 2743SOL    HW2 8286   4.335   0.385   3.390
 2744SOL     OW 8287   3.968   3.896   0.182
 2744SOL    HW1 8288   4.062   3.904   0.167
 2744SOL    HW2 8289   3.950   3.956   0.254
 2745SOL     OW 8290   3.524   0.306   0.382
 2745SOL    HW1 8291   3.471   0.366   0.329
 2745SOL    HW2 8292   3.496   0.219   0.354
 2746SOL     OW 8293   2.091   2.457   3.706
 2746SOL    HW1 8294   2.144   2.443   3.628
 2746SOL    HW2 8295   2.100   2.376   3.756
 2747SOL     OW 8296   1.175   4.433   0.597
 2747SOL    HW1 8297   1.212   4.521   0.601
 2747SOL    HW2 8298   1.221   4.391   0.525
 2748SOL     OW 8299   2.952   0.025   2.642
 2748SOL    HW1 8300   2.894   0.010   2.567
 2748SOL    HW2 8301   3.040   0.024   2.604
 2749SOL     OW 8302   0.915   4.714   3.010
 2749SOL    HW1 8303   0.937   4.660   3.086
 2749SOL    HW2 8304   0.936   4.659   2.934
 2750SOL     OW 8305   2.029   1.003   0.520
 2750SOL    HW1 8306   1.972   1.026   0.446
 2750SOL    HW2 8307   1.970   1.001   0.596
 2751SOL     OW 8308   4.325   1.771   2.161
 2751SOL    HW1 8309   4.409   1.745   2.122
 2751SOL    HW2 8310   4.349   1.816   2.242
 2752SOL     OW 8311   2.522   3.700   0.649
 2752SOL    HW1 8312   2.475   3.620   0.672
 2752SOL    HW2 8313   2.577   3.718   0.725
 2753SOL     OW 8314   1.461   1.012   2.882
 2753SOL    HW1 8315   1.396   0.943   2.890
 2753SOL    HW2 8316   1.540   0.968   2.851
 2754SOL     OW 8317   4.315   0.326   2.994
 2754SOL    HW1 8318   4.246   0.391   3.008
 2754SOL    HW2 8319   4.282   0.271   2.923
 2755SOL     OW 8320   3.672   4.810   0.295
 2755SOL    HW1 8321   3.697   4.722   0.264
 2755SOL    HW2 8322   3.678   4.865   0.217
 2756SOL     OW 8323   0.881   3.911   3.185
 2756SOL    HW1 8324   0.823   3.880   3.254
 2756SOL    HW2 8325   0.832   3.897   3.104
 2757SOL     OW 8326   1.699   2.846   3.710
 2757SOL    HW1 8327   1.785   2.884   3.692
 2757SOL    HW2 8328   1.716   2.753   3.720
 2758SOL     OW 8329   3.515   0.931   2.645
 2758SOL    HW1 8330   3.580   0.938   2.715
 2758SOL    HW2 8331   3.447   0.994   2.669
 2759SOL     OW 8332   1.660   0.823   2.901
 2759SOL    HW1 8333   1.632   0.756   2.964
 2759SOL    HW2 8334   1.743   0.856   2.937
 2760SOL     OW 8335   2.821   2.097   1.942
 2760SOL    HW1 8336   2.779   2.093   2.028
 2760SOL    HW2 8337   2.803   2.012   1.902
 2761SOL     OW 8338   3.117   3.981   4.321
 2761SOL    HW1 8339   3.164   3.930   4.386
 2761SOL    HW2 8340   3.025   3.959   4.334
 2762SOL     OW 8341   4.610   3.672   3.752
 2762SOL    HW1 8342   4.520   3.677   3.720
 2762SOL    HW2 8343   4.604   3.697   3.844
 2763SOL     OW 8344   3.149   0.107   0.524
 2763SOL    HW1 8345   3.186   0.186   0.562
 2763SOL    HW2 8346   3.221   0.069   0.472
 2764SOL     OW 8347   0.082   4.477   1.322
 2764SOL    HW1 8348   0.170   4.464   1.357
 2764SOL    HW2 8349   0.042   4.390   1.323
 2765SOL     OW 8350   2.636   0.742   2.459
 2765SOL    HW1 8351   2.720   0.727   2.415
 2765SOL    HW2 8352   2.652   0.818   2.516
 2766SOL     OW 8353   2.985   4.663   0.014
 2766SOL    HW1 8354   3.045   4.636   4.925
 2766SOL    HW2 8355   2.962   4.581   0.058
 2767SOL     OW 8356   4.644   1.868   4.883
 2767SOL    HW1 8357   4.725   1.914   4.858
 2767SOL    HW2 8358   4.672   1.802   4.945
 2768SOL     OW 8359   2.251   2.514   0.947
 2768SOL    HW1 8360   2.273   2.606   0.936
 2768SOL    HW2 8361   2.259   2.477   0.859
 2769SOL     OW 8362   4.392   2.874   3.348
 2769SOL    HW1 8363   4.395   2.940   3.279
 2769SOL    HW2 8364   4.360   2.795   3.306
 2770SOL     OW 8365   4.965   3.878   0.505
 2770SOL    HW1 8366   4.978   3.786   0.485
 2770SOL    HW2 8367   4.886   3.880   0.559
 2771SOL     OW 8368   3.432   0.522   1.045
 2771SOL    HW1 8369   3.380   0.494   1.121
 2771SOL    HW2 8370   3.503   0.458   1.040
 2772SOL     OW 8371   4.894   3.809   1.435
 2772SOL    HW1 8372   4.943   3.730   1.460
 2772SOL    HW2 8373   4.805   3.777   1.420
 2773SOL     OW 8374   4.349   4.731   2.216
 2773SOL    HW1 8375   4.285   4.753   2.148
 2773SOL    HW2 8376   4.302   4.673   2.276
 2774SOL     OW 8377   3.761   0.924   4.283
 2774SOL    HW1 8378   3.718   1.004   4.312
 2774SOL    HW2 8379   3.822   0.952   4.215
 2775SOL     OW 8380   0.664   4.648   3.326
 2775SOL    HW1 8381   0.645   4.555   3.337
 2775SOL    HW2 8382   0.745   4.650   3.276
 2776SOL     OW 8383   2.560   3.268   1.871
 2776SOL    HW1 8384   2.490   3.213   1.906
 2776SOL    HW2 8385   2.518   3.320   1.802
 2777SOL     OW 8386   0.627   3.542   0.742
 2777SOL    HW1 8387   0.542   3.504   0.719
 2777SOL    HW2 8388   0.605   3.616   0.800
 2778SOL     OW 8389   2.198   3.407   2.526
 2778SOL    HW1 8390   2.211   3.314   2.545
 2778SOL    HW2 8391   2.286   3.439   2.505
 2779SOL     OW 8392   0.213   4.112   2.217
 2779SOL    HW1 8393   0.229   4.194   2.170
 2779SOL    HW2 8394   0.127   4.084   2.188
 2780SOL     OW 8395   0.263   4.774   1.307
 2780SOL    HW1 8396   0.301   4.848   1.259
 2780SOL    HW2 8397   0.226   4.718   1.238
 2781SOL     OW 8398   0.439   3.500   2.871
 2781SOL    HW1 8399   0.378   3.437   2.910
 2781SOL    HW2 8400   0.406   3.513   2.782
 2782SOL     OW 8401   4.066   2.712   4.385
 2782SOL    HW1 8402   4.020   2.676   4.461
 2782SOL    HW2 8403   4.015   2.682   4.309
 2783SOL     OW 8404   1.035   3.537   0.596
 2783SOL    HW1 8405   0.957   3.572   0.552
 2783SOL    HW2 8406   1.010   3.531   0.688
 2784SOL     OW 8407   0.846   2.200   1.595
 2784SOL    HW1 8408   0.819   2.184   1.685
 2784SOL    HW2 8409   0.927   2.250   1.603
 2785SOL     OW 8410   2.805   0.383   4.717
 2785SOL    HW1 8411   2.816   0.295   4.680
 2785SOL    HW2 8412   2.836   0.442   4.648
 2786SOL     OW 8413   2.497   2.727   4.257
 2786SOL    HW1 8414   2.506   2.809   4.209
 2786SOL    HW2 8415   2.404   2.722   4.280
 2787SOL     OW 8416   4.285   2.324   0.346
 2787SOL    HW1 8417   4.290   2.398   0.406
 2787SOL    HW2 8418   4.375   2.311   0.315
 2788SOL     OW 8419   2.769   3.456   0.495
 2788SOL    HW1 8420   2.730   3.472   0.581
 2788SOL    HW2 8421   2.694   3.461   0.435
 2789SOL     OW 8422   3.836   2.285   0.640
 2789SOL    HW1 8423   3.782   2.364   0.639
 2789SOL    HW2 8424   3.913   2.308   0.589
 2790SOL     OW 8425   1.453   4.079   3.968
 2790SOL    HW1 8426   1.421   4.036   4.047
 2790SOL    HW2 8427   1.547   4.089   3.982
 2791SOL     OW 8428   2.412   3.517   3.009
 2791SOL    HW1 8429   2.350   3.501   2.938
 2791SOL    HW2 8430   2.412   3.436   3.060
 2792SOL     OW 8431   1.892   4.141   4.573
 2792SOL    HW1 8432   1.914   4.096   4.655
 2792SOL    HW2 8433   1.809   4.101   4.545
 2793SOL     OW 8434   1.035   3.107   1.375
 2793SOL    HW1 8435   1.026   3.118   1.470
 2793SOL    HW2 8436   1.096   3.175   1.349
 2794SOL     OW 8437   1.862   4.929   1.140
 2794SOL    HW1 8438   1.850   4.869   1.215
 2794SOL    HW2 8439   1.948   4.968   1.155
 2795SOL     OW 8440   3.203   0.329   3.812
 2795SOL    HW1 8441   3.226   0.286   3.730
 2795SOL    HW2 8442   3.154   0.407   3.785
 2796SOL     OW 8443   1.348   2.257   2.658
 2796SOL    HW1 8444   1.377   2.185   2.602
 2796SOL    HW2 8445   1.255   2.266   2.639
 2797SOL     OW 8446   2.125   2.600   4.866
 2797SOL    HW1 8447   2.108   2.631   4.777
 2797SOL    HW2 8448   2.111   2.506   4.862
 2798SOL     OW 8449   2.781   4.361   2.908
 2798SOL    HW1 8450   2.784   4.350   2.813
 2798SOL    HW2 8451   2.872   4.349   2.936
 2799SOL     OW 8452   3.124   2.728   0.949
 2799SOL    HW1 8453   3.169   2.669   0.889
 2799SOL    HW2 8454   3.161   2.814   0.929
 2800SOL     OW 8455   0.098   3.592   1.808
 2800SOL    HW1 8456   0.108   3.652   1.882
 2800SOL    HW2 8457   0.176   3.607   1.754
 2801SOL     OW 8458   1.036   0.924   1.534
 2801SOL    HW1 8459   0.995   0.838   1.525
 2801SOL    HW2 8460   0.979   0.982   1.483
 2802SOL     OW 8461   0.481   0.804   0.308
 2802SOL    HW1 8462   0.417   0.785   0.239
 2802SOL    HW2 8463   0.429   0.835   0.382
 2803SOL     OW 8464   4.688   4.132   0.577
 2803SOL    HW1 8465   4.696   4.140   0.672
 2803SOL    HW2 8466   4.723   4.214   0.542
 2804SOL     OW 8467   4.890   2.906   0.742
 2804SOL    HW1 8468   4.956   2.850   0.699
 2804SOL    HW2 8469   4.919   2.913   0.832
 2805SOL     OW 8470   3.809   0.928   0.518
 2805SOL    HW1 8471   3.782   0.980   0.442
 2805SOL    HW2 8472   3.905   0.922   0.510
 2806SOL     OW 8473   4.446   2.467   3.565
 2806SOL    HW1 8474   4.433   2.559   3.546
 2806SOL    HW2 8475   4.460   2.463   3.659
 2807SOL     OW 8476   2.391   1.948   0.033
 2807SOL    HW1 8477   2.402   1.859   0.066
 2807SOL    HW2 8478   2.450   2.001   0.087
 2808SOL     OW 8479   4.078   0.465   2.989
 2808SOL    HW1 8480   3.988   0.498   2.988
 2808SOL    HW2 8481   4.132   0.544   2.981
 2809SOL     OW 8482   0.627   1.196   3.240
 2809SOL    HW1 8483   0.605   1.217   3.331
 2809SOL    HW2 8484   0.629   1.281   3.196
 2810SOL     OW 8485   4.709   4.237   3.802
 2810SOL    HW1 8486   4.660   4.278   3.874
 2810SOL    HW2 8487   4.796   4.220   3.838
 2811SOL     OW 8488   1.696   0.230   0.851
 2811SOL    HW1 8489   1.777   0.270   0.883
 2811SOL    HW2 8490   1.626   0.283   0.888
 2812SOL     OW 8491   0.310   4.335   1.003
 2812SOL    HW1 8492   0.366   4.389   1.058
 2812SOL    HW2 8493   0.228   4.385   0.997
 2813SOL     OW 8494   2.024   3.915   1.225
 2813SOL    HW1 8495   2.100   3.862   1.202
 2813SOL    HW2 8496   1.976   3.926   1.143
 2814SOL     OW 8497   2.777   1.198   2.186
 2814SOL    HW1 8498   2.751   1.289   2.199
 2814SOL    HW2 8499   2.785   1.188   2.091
 2815SOL     OW 8500   3.509   1.688   4.862
 2815SOL    HW1 8501   3.438   1.671   4.800
 2815SOL    HW2 8502   3.576   1.734   4.811
 2816SOL     OW 8503   4.678   2.435   4.543
 2816SOL    HW1 8504   4.699   2.342   4.530
 2816SOL    HW2 8505   4.713   2.478   4.465
 2817SOL     OW 8506   4.008   4.897   4.396
 2817SOL    HW1 8507   3.936   4.840   4.422
 2817SOL    HW2 8508   4.032   4.866   4.309
 2818SOL     OW 8509   3.559   4.610   4.803
 2818SOL    HW1 8510   3.525   4.658   4.879
 2818SOL    HW2 8511   3.527   4.521   4.815
 2819SOL     OW 8512   1.784   4.955   0.883
 2819SOL    HW1 8513   1.806   4.947   0.975
 2819SOL    HW2 8514   1.733   0.056   0.877
 2820SOL     OW 8515   3.652   3.037   4.769
 2820SOL    HW1 8516   3.672   3.129   4.786
 2820SOL    HW2 8517   3.578   3.017   4.825
 2821SOL     OW 8518   4.024   2.909   1.960
 2821SOL    HW1 8519   3.987   2.932   1.875
 2821SOL    HW2 8520   4.019   2.991   2.011
 2822SOL     OW 8521   4.754   3.459   3.100
 2822SOL    HW1 8522   4.834   3.418   3.133
 2822SOL    HW2 8523   4.704   3.481   3.178
 2823SOL     OW 8524   3.720   3.819   4.517
 2823SOL    HW1 8525   3.796   3.874   4.496
 2823SOL    HW2 8526   3.694   3.783   4.433
 2824SOL     OW 8527   1.756   1.107   4.173
 2824SOL    HW1 8528   1.801   1.023   4.183
 2824SOL    HW2 8529   1.791   1.143   4.092
 2825SOL     OW 8530   2.468   1.544   4.288
 2825SOL    HW1 8531   2.417   1.523   4.210
 2825SOL    HW2 8532   2.506   1.460   4.314
 2826SOL     OW 8533   2.538   2.124   0.187
 2826SOL    HW1 8534   2.604   2.179   0.229
 2826SOL    HW2 8535   2.480   2.186   0.142
 2827SOL     OW 8536   2.952   1.085   3.164
 2827SOL    HW1 8537   2.924   1.023   3.232
 2827SOL    HW2 8538   3.027   1.130   3.202
 2828SOL     OW 8539   0.815   3.984   2.038
 2828SOL    HW1 8540   0.737   3.944   2.000
 2828SOL    HW2 8541   0.812   3.960   2.131
 2829SOL     OW 8542   4.077   3.409   2.628
 2829SOL    HW1 8543   4.096   3.483   2.686
 2829SOL    HW2 8544   4.159   3.395   2.579
 2830SOL     OW 8545   4.276   3.344   2.876
 2830SOL    HW1 8546   4.261   3.302   2.961
 2830SOL    HW2 8547   4.287   3.270   2.816
 2831SOL     OW 8548   0.565   1.806   3.879
 2831SOL    HW1 8549   0.501   1.812   3.808
 2831SOL    HW2 8550   0.640   1.855   3.846
 2832SOL     OW 8551   4.146   4.482   4.509
 2832SOL    HW1 8552   4.183   4.488   4.421
 2832SOL    HW2 8553   4.222   4.473   4.566
 2833SOL     OW 8554   3.517   4.493   0.574
 2833SOL    HW1 8555   3.567   4.429   0.526
 2833SOL    HW2 8556   3.549   4.487   0.664
 2834SOL     OW 8557   4.408   3.372   0.479
 2834SOL    HW1 8558   4.495   3.396   0.510
 2834SOL    HW2 8559   4.379   3.447   0.427
 2835SOL     OW 8560   0.053   1.705   0.805
 2835SOL    HW1 8561   0.080   1.736   0.719
 2835SOL    HW2 8562   4.942   1.679   0.794
 2836SOL     OW 8563   2.277   2.538   2.973
 2836SOL    HW1 8564   2.237   2.543   2.886
 2836SOL    HW2 8565   2.290   2.445   2.989
 2837SOL     OW 8566   2.995   0.785   4.692
 2837SOL    HW1 8567   3.033   0.724   4.755
 2837SOL    HW2 8568   3.043   0.867   4.705
 2838SOL     OW 8569   1.739   1.357   2.539
 2838SOL    HW1 8570   1.733   1.275   2.587
 2838SOL    HW2 8571   1.825   1.393   2.563
 2839SOL     OW 8572   4.052   2.057   3.128
 2839SOL    HW1 8573   4.021   1.969   3.149
 2839SOL    HW2 8574   4.057   2.101   3.213
 2840SOL     OW 8575   1.391   0.538   3.508
 2840SOL    HW1 8576   1.325   0.604   3.488
 2840SOL    HW2 8577   1.342   0.462   3.538
 2841SOL     OW 8578   1.475   1.945   2.541
 2841SOL    HW1 8579   1.451   1.959   2.632
 2841SOL    HW2 8580   1.560   1.986   2.531
 2842SOL     OW 8581   2.500   1.363   0.326
 2842SOL    HW1 8582   2.407   1.339   0.333
 2842SOL    HW2 8583   2.526   1.385   0.415
 2843SOL     OW 8584   1.426   1.901   0.735
 2843SOL    HW1 8585   1.371   1.829   0.764
 2843SOL    HW2 8586   1.367   1.957   0.684
 2844SOL     OW 8587   4.741   2.719   0.014
 2844SOL    HW1 8588   4.827   2.697   4.959
 2844SOL    HW2 8589   4.693   2.637   0.013
 2845SOL     OW 8590   3.100   0.646   1.530
 2845SOL    HW1 8591   3.037   0.576   1.549
 2845SOL    HW2 8592   3.185   0.604   1.534
 2846SOL     OW 8593   0.818   2.251   0.229
 2846SOL    HW1 8594   0.821   2.204   0.146
 2846SOL    HW2 8595   0.845   2.187   0.294
 2847SOL     OW 8596   2.563   3.933   1.984
 2847SOL    HW1 8597   2.652   3.962   2.004
 2847SOL    HW2 8598   2.550   3.856   2.040
 2848SOL     OW 8599   0.860   4.957   0.053
 2848SOL    HW1 8600   0.952   0.001   0.061
 2848SOL    HW2 8601   0.812   0.052   0.088
 2849SOL     OW 8602   2.111   2.297   4.862
 2849SOL    HW1 8603   2.033   2.272   4.812
 2849SOL    HW2 8604   2.185   2.277   4.804
 2850SOL     OW 8605   2.253   1.258   0.445
 2850SOL    HW1 8606   2.174   1.307   0.425
 2850SOL    HW2 8607   2.235   1.169   0.413
 2851SOL     OW 8608   2.766   0.876   1.217
 2851SOL    HW1 8609   2.747   0.854   1.126
 2851SOL    HW2 8610   2.732   0.802   1.268
 2852SOL     OW 8611   0.805   0.445   3.092
 2852SOL    HW1 8612   0.723   0.462   3.046
 2852SOL    HW2 8613   0.872   0.451   3.023
 2853SOL     OW 8614   0.767   2.341   2.059
 2853SOL    HW1 8615   0.716   2.392   1.996
 2853SOL    HW2 8616   0.701   2.304   2.118
 2854SOL     OW 8617   2.268   2.581   1.863
 2854SOL    HW1 8618   2.276   2.497   1.818
 2854SOL    HW2 8619   2.276   2.646   1.794
 2855SOL     OW 8620   1.965   2.542   0.916
 2855SOL    HW1 8621   2.017   2.553   0.996
 2855SOL    HW2 8622   1.935   2.631   0.895
 2856SOL     OW 8623   3.993   0.289   2.410
 2856SOL    HW1 8624   3.998   0.242   2.493
 2856SOL    HW2 8625   3.901   0.282   2.383
 2857SOL     OW 8626   1.070   3.161   4.003
 2857SOL    HW1 8627   1.110   3.116   4.078
 2857SOL    HW2 8628   1.107   3.249   4.005
 2858SOL     OW 8629   0.811   3.324   3.393
 2858SOL    HW1 8630   0.796   3.261   3.322
 2858SOL    HW2 8631   0.742   3.305   3.456
 2859SOL     OW 8632   1.852   4.339   2.895
 2859SOL    HW1 8633   1.870   4.336   2.801
 2859SOL    HW2 8634   1.886   4.256   2.928
 2860SOL     OW 8635   0.196   2.928   3.926
 2860SOL    HW1 8636   0.254   2.911   4.000
 2860SOL    HW2 8637   0.118   2.966   3.966
 2861SOL     OW 8638   2.831   3.341   4.740
 2861SOL    HW1 8639   2.738   3.320   4.744
 2861SOL    HW2 8640   2.876   3.257   4.752
 2862SOL     OW 8641   0.229   0.529   0.098
 2862SOL    HW1 8642   0.155   0.534   0.158
 2862SOL    HW2 8643   0.191   0.499   0.015
 2863SOL     OW 8644   3.775   1.603   3.446
 2863SOL    HW1 8645   3.861   1.591   3.406
 2863SOL    HW2 8646   3.716   1.619   3.373
 2864SOL     OW 8647   4.134   3.515   4.073
 2864SOL    HW1 8648   4.060   3.457   4.089
 2864SOL    HW2 8649   4.104   3.572   4.002
 2865SOL     OW 8650   2.968   1.109   2.547
 2865SOL    HW1 8651   2.951   1.136   2.637
 2865SOL    HW2 8652   3.022   1.178   2.510
 2866SOL     OW 8653   4.003   2.165   4.113
 2866SOL    HW1 8654   3.996   2.100   4.184
 2866SOL    HW2 8655   4.088   2.207   4.126
 2867SOL     OW 8656   4.166   4.799   1.343
 2867SOL    HW1 8657   4.230   4.729   1.332
 2867SOL    HW2 8658   4.211   4.866   1.395
 2868SOL     OW 8659   2.402   2.864   3.618
 2868SOL    HW1 8660   2.473   2.816   3.660
 2868SOL    HW2 8661   2.334   2.870   3.685
 2869SOL     OW 8662   0.891   0.986   2.907
 2869SOL    HW1 8663   0.867   0.993   2.999
 2869SOL    HW2 8664   0.963   1.048   2.896
 2870SOL     OW 8665   1.070   2.527   1.637
 2870SOL    HW1 8666   0.999   2.478   1.678
 2870SOL    HW2 8667   1.143   2.519   1.699
 2871SOL     OW 8668   4.719   1.050   1.557
 2871SOL    HW1 8669   4.785   1.075   1.493
 2871SOL    HW2 8670   4.640   1.098   1.530
 2872SOL     OW 8671   0.433   4.408   4.972
 2872SOL    HW1 8672   0.498   4.338   4.977
 2872SOL    HW2 8673   0.418   4.420   4.878
 2873SOL     OW 8674   4.318   1.158   4.011
 2873SOL    HW1 8675   4.375   1.232   4.029
 2873SOL    HW2 8676   4.313   1.111   4.095
 2874SOL     OW 8677   2.563   2.291   3.190
 2874SOL    HW1 8678   2.546   2.382   3.215
 2874SOL    HW2 8679   2.614   2.255   3.262
 2875SOL     OW 8680   2.702   1.038   2.555
 2875SOL    HW1 8681   2.691   1.090   2.635
 2875SOL    HW2 8682   2.794   1.048   2.533
 2876SOL     OW 8683   1.483   3.820   2.538
 2876SOL    HW1 8684   1.549   3.769   2.586
 2876SOL    HW2 8685   1.523   3.906   2.525
 2877SOL     OW 8686   3.688   4.929   3.640
 2877SOL    HW1 8687   3.745   4.912   3.715
 2877SOL    HW2 8688   3.649   4.844   3.620
 2878SOL     OW 8689   1.797   2.015   3.231
 2878SOL    HW1 8690   1.792   1.998   3.325
 2878SOL    HW2 8691   1.822   1.931   3.192
 2879SOL     OW 8692   3.788   4.587   3.325
 2879SOL    HW1 8693   3.881   4.580   3.301
 2879SOL    HW2 8694   3.748   4.509   3.286
 2880SOL     OW 8695   3.294   4.775   4.605
 2880SOL    HW1 8696   3.343   4.840   4.555
 2880SOL    HW2 8697   3.202   4.800   4.593
 2881SOL     OW 8698   4.611   0.012   0.226
 2881SOL    HW1 8699   4.580   0.097   0.194
 2881SOL    HW2 8700   4.693   4.977   0.179
 2882SOL     OW 8701   2.969   2.149   4.635
 2882SOL    HW1 8702   2.922   2.109   4.561
 2882SOL    HW2 8703   2.914   2.223   4.661
 2883SOL     OW 8704   3.653   4.246   0.509
 2883SOL    HW1 8705   3.691   4.250   0.597
 2883SOL    HW2 8706   3.677   4.158   0.478
 2884SOL     OW 8707   2.298   3.883   1.549
 2884SOL    HW1 8708   2.252   3.966   1.533
 2884SOL    HW2 8709   2.362   3.905   1.617
 2885SOL     OW 8710   1.147   0.305   2.394
 2885SOL    HW1 8711   1.138   0.246   2.468
 2885SOL    HW2 8712   1.068   0.291   2.342
 2886SOL     OW 8713   3.126   0.223   4.066
 2886SOL    HW1 8714   3.173   0.279   4.004
 2886SOL    HW2 8715   3.034   0.247   4.055
 2887SOL     OW 8716   0.893   4.916   3.887
 2887SOL    HW1 8717   0.831   0.008   3.893
 2887SOL    HW2 8718   0.840   4.840   3.864
 2888SOL     OW 8719   4.612   2.881   0.680
 2888SOL    HW1 8720   4.573   2.955   0.635
 2888SOL    HW2 8721   4.705   2.900   0.682
 2889SOL     OW 8722   3.269   4.888   1.839
 2889SOL    HW1 8723   3.352   4.905   1.883
 2889SOL    HW2 8724   3.228   4.974   1.832
 2890SOL     OW 8725   2.313   1.231   0.018
 2890SOL    HW1 8726   2.372   1.303   0.038
 2890SOL    HW2 8727   2.300   1.236   4.903
 2891SOL     OW 8728   4.470   4.222   3.631
 2891SOL    HW1 8729   4.444   4.313   3.616
 2891SOL    HW2 8730   4.544   4.228   3.693
 2892SOL     OW 8731   4.740   2.651   0.452
 2892SOL    HW1 8732   4.793   2.705   0.393
 2892SOL    HW2 8733   4.656   2.697   0.456
 2893SOL     OW 8734   1.749   2.474   3.123
 2893SOL    HW1 8735   1.734   2.379   3.124
 2893SOL    HW2 8736   1.666   2.511   3.094
 2894SOL     OW 8737   2.462   3.713   4.358
 2894SOL    HW1 8738   2.368   3.701   4.366
 2894SOL    HW2 8739   2.477   3.722   4.264
 2895SOL     OW 8740   4.407   2.505   2.666
 2895SOL    HW1 8741   4.408   2.464   2.753
 2895SOL    HW2 8742   4.499   2.522   2.646
 2896SOL     OW 8743   4.072   4.339   2.911
 2896SOL    HW1 8744   4.099   4.403   2.976
 2896SOL    HW2 8745   4.151   4.291   2.890
 2897SOL     OW 8746   0.937   3.041   1.622
 2897SOL    HW1 8747   0.860   3.022   1.569
 2897SOL    HW2 8748   0.903   3.077   1.704
 2898SOL     OW 8749   1.856   4.715   3.268
 2898SOL    HW1 8750   1.950   4.730   3.278
 2898SOL    HW2 8751   1.845   4.621   3.282
 2899SOL     OW 8752   4.341   4.581   1.240
 2899SOL    HW1 8753   4.379   4.560   1.155
 2899SOL    HW2 8754   4.416   4.590   1.298
 2900SOL     OW 8755   4.116   0.743   3.250
 2900SOL    HW1 8756   4.209   0.745   3.274
 2900SOL    HW2 8757   4.071   0.788   3.322
 2901SOL     OW 8758   4.760   4.877   0.711
 2901SOL    HW1 8759   4.825   4.925   0.763
 2901SOL    HW2 8760   4.811   4.840   0.638
 2902SOL     OW 8761   0.513   2.633   3.816
 2902SOL    HW1 8762   0.574   2.578   3.767
 2902SOL    HW2 8763   0.433   2.633   3.764
 2903SOL     OW 8764   4.979   4.935   2.267
 2903SOL    HW1 8765   4.885   4.953   2.278
 2903SOL    HW2 8766   0.037   0.040   2.246
 2904SOL     OW 8767   1.596   1.727   0.540
 2904SOL    HW1 8768   1.635   1.714   0.627
 2904SOL    HW2 8769   1.654   1.789   0.497
 2905SOL     OW 8770   1.530   4.610   0.463
 2905SOL    HW1 8771   1.468   4.554   0.509
 2905SOL    HW2 8772   1.524   4.694   0.508
 2906SOL     OW 8773   4.656   3.262   0.870
 2906SOL    HW1 8774   4.704   3.185   0.900
 2906SOL    HW2 8775   4.570   3.254   0.912
 2907SOL     OW 8776   0.585   2.901   1.945
 2907SOL    HW1 8777   0.598   2.873   1.855
 2907SOL    HW2 8778   0.492   2.922   1.951
 2908SOL     OW 8779   0.220   3.156   2.381
 2908SOL    HW1 8780   0.257   3.100   2.448
 2908SOL    HW2 8781   0.287   3.160   2.313
 2909SOL     OW 8782   1.889   3.498   2.928
 2909SOL    HW1 8783   1.865   3.462   3.014
 2909SOL    HW2 8784   1.909   3.590   2.945
 2910SOL     OW 8785   2.429   4.727   2.177
 2910SOL    HW1 8786   2.472   4.781   2.110
 2910SOL    HW2 8787   2.359   4.783   2.211
 2911SOL     OW 8788   0.377   4.374   1.348
 2911SOL    HW1 8789   0.440   4.352   1.417
 2911SOL    HW2 8790   0.375   4.297   1.292
 2912SOL     OW 8791   3.385   4.553   1.114
 2912SOL    HW1 8792   3.450   4.501   1.161
 2912SOL    HW2 8793   3.358   4.498   1.041
 2913SOL     OW 8794   4.958   4.661   4.915
 2913SOL    HW1 8795   0.070   4.684   4.909
 2913SOL    HW2 8796   4.956   4.576   4.958
 2914SOL     OW 8797   0.126   2.455   1.978
 2914SOL    HW1 8798   0.083   2.531   1.939
 2914SOL    HW2 8799   0.059   2.386   1.975
 2915SOL     OW 8800   3.281   3.326   2.919
 2915SOL    HW1 8801   3.283   3.353   2.828
 2915SOL    HW2 8802   3.190   3.297   2.933
 2916SOL     OW 8803   2.203   3.597   2.263
 2916SOL    HW1 8804   2.297   3.582   2.275
 2916SOL    HW2 8805   2.194   3.621   2.171
 2917SOL     OW 8806   3.358   0.634   4.204
 2917SOL    HW1 8807   3.332   0.702   4.266
 2917SOL    HW2 8808   3.380   0.559   4.259
 2918SOL     OW 8809   2.476   2.693   2.906
 2918SOL    HW1 8810   2.399   2.644   2.934
 2918SOL    HW2 8811   2.548   2.659   2.960
 2919SOL     OW 8812   2.499   0.124   1.254
 2919SOL    HW1 8813   2.416   0.141   1.209
 2919SOL    HW2 8814   2.560   0.099   1.185
 2920SOL     OW 8815   4.416   3.496   0.009
 2920SOL    HW1 8816   4.486   3.548   0.047
 2920SOL    HW2 8817   4.458   3.448   4.918
 2921SOL     OW 8818   1.127   2.761   0.346
 2921SOL    HW1 8819   1.134   2.673   0.309
 2921SOL    HW2 8820   1.033   2.779   0.348
 2922SOL     OW 8821   3.302   1.771   1.084
 2922SOL    HW1 8822   3.340   1.745   1.168
 2922SOL    HW2 8823   3.368   1.747   1.019
 2923SOL     OW 8824   0.389   1.611   4.159
 2923SOL    HW1 8825   0.392   1.546   4.089
 2923SOL    HW2 8826   0.479   1.615   4.192
 2924SOL     OW 8827   3.837   1.347   2.541
 2924SOL    HW1 8828   3.860   1.427   2.494
 2924SOL    HW2 8829   3.921   1.314   2.574
 2925SOL     OW 8830   4.193   4.574   4.933
 2925SOL    HW1 8831   4.195   4.518   0.031
 2925SOL    HW2 8832   4.101   4.598   4.923
 2926SOL     OW 8833   4.071   0.996   0.218
 2926SOL    HW1 8834   4.088   1.052   0.143
 2926SOL    HW2 8835   4.139   1.020   0.281
 2927SOL     OW 8836   2.608   2.629   0.466
 2927SOL    HW1 8837   2.545   2.589   0.406
 2927SOL    HW2 8838   2.658   2.555   0.502
 2928SOL     OW 8839   2.450   3.043   2.498
 2928SOL    HW1 8840   2.533   3.088   2.482
 2928SOL    HW2 8841   2.455   2.963   2.446
 2929SOL     OW 8842   3.258   4.785   0.222
 2929SOL    HW1 8843   3.167   4.768   0.200
 2929SOL    HW2 8844   3.276   4.729   0.298
 2930SOL     OW 8845   0.598   3.228   4.178
 2930SOL    HW1 8846   0.580   3.321   4.173
 2930SOL    HW2 8847   0.595   3.197   4.087
 2931SOL     OW 8848   3.426   4.512   4.501
 2931SOL    HW1 8849   3.435   4.421   4.530
 2931SOL    HW2 8850   3.442   4.564   4.580
 2932SOL     OW 8851   2.104   4.456   0.073
 2932SOL    HW1 8852   2.013   4.437   0.048
 2932SOL    HW2 8853   2.104   4.550   0.091
 2933SOL     OW 8854   3.512   1.407   3.382
 2933SOL    HW1 8855   3.604   1.408   3.357
 2933SOL    HW2 8856   3.479   1.494   3.357
 2934SOL     OW 8857   0.086   4.135   0.767
 2934SOL    HW1 8858   4.971   4.140   0.759
 2934SOL    HW2 8859   0.102   4.138   0.861
 2935SOL     OW 8860   2.951   3.209   0.553
 2935SOL    HW1 8861   2.927   3.302   0.558
 2935SOL    HW2 8862   2.924   3.182   0.465
 2936SOL     OW 8863   0.167   2.775   2.236
 2936SOL    HW1 8864   0.260   2.754   2.244
 2936SOL    HW2 8865   0.148   2.831   2.311
 2937SOL     OW 8866   2.590   0.415   3.827
 2937SOL    HW1 8867   2.673   0.379   3.861
 2937SOL    HW2 8868   2.592   0.396   3.734
 2938SOL     OW 8869   3.218   1.620   3.641
 2938SOL    HW1 8870   3.198   1.547   3.583
 2938SOL    HW2 8871   3.302   1.596   3.681
 2939SOL     OW 8872   3.877   4.882   1.445
 2939SOL    HW1 8873   3.952   4.824   1.431
 2939SOL    HW2 8874   3.875   4.895   1.540
 2940SOL     OW 8875   2.608   0.045   0.999
 2940SOL    HW1 8876   2.575   0.025   0.912
 2940SOL    HW2 8877   2.694   0.085   0.984
 2941SOL     OW 8878   2.903   2.382   4.232
 2941SOL    HW1 8879   2.897   2.288   4.250
 2941SOL    HW2 8880   2.875   2.392   4.141
 2942SOL     OW 8881   0.872   4.653   4.105
 2942SOL    HW1 8882   0.818   4.728   4.131
 2942SOL    HW2 8883   0.953   4.663   4.154
 2943SOL     OW 8884   0.897   1.829   0.778
 2943SOL    HW1 8885   0.983   1.852   0.743
 2943SOL    HW2 8886   0.868   1.756   0.724
 2944SOL     OW 8887   4.505   0.694   0.933
 2944SOL    HW1 8888   4.587   0.706   0.981
 2944SOL    HW2 8889   4.468   0.613   0.968
 2945SOL     OW 8890   2.123   2.234   0.913
 2945SOL    HW1 8891   2.102   2.327   0.915
 2945SOL    HW2 8892   2.094   2.204   0.827
 2946SOL     OW 8893   0.037   4.406   3.058
 2946SOL    HW1 8894   4.951   4.379   3.122
 2946SOL    HW2 8895   4.977   4.480   3.011
 2947SOL     OW 8896   2.167   2.794   0.941
 2947SOL    HW1 8897   2.105   2.864   0.962
 2947SOL    HW2 8898   2.217   2.828   0.867
 2948SOL     OW 8899   0.811   0.834   2.091
 2948SOL    HW1 8900   0.793   0.928   2.089
 2948SOL    HW2 8901   0.899   0.826   2.055
 2949SOL     OW 8902   1.549   4.563   3.201
 2949SOL    HW1 8903   1.470   4.602   3.164
 2949SOL    HW2 8904   1.561   4.482   3.150
 2950SOL     OW 8905   3.176   2.968   2.116
 2950SOL    HW1 8906   3.182   2.874   2.135
 2950SOL    HW2 8907   3.222   2.978   2.033
 2951SOL     OW 8908   2.976   0.134   3.335
 2951SOL    HW1 8909   2.882   0.146   3.352
 2951SOL    HW2 8910   2.998   0.052   3.380
 2952SOL     OW 8911   3.670   0.470   4.814
 2952SOL    HW1 8912   3.681   0.414   4.737
 2952SOL    HW2 8913   3.737   0.538   4.804
 2953SOL     OW 8914   0.074   1.334   2.107
 2953SOL    HW1 8915   0.157   1.373   2.079
 2953SOL    HW2 8916   0.067   1.255   2.054
 2954SOL     OW 8917   2.651   0.156   3.954
 2954SOL    HW1 8918   2.620   0.134   3.866
 2954SOL    HW2 8919   2.574   0.146   4.010
 2955SOL     OW 8920   2.390   4.402   2.589
 2955SOL    HW1 8921   2.485   4.399   2.605
 2955SOL    HW2 8922   2.371   4.496   2.581
 2956SOL     OW 8923   3.292   3.629   2.243
 2956SOL    HW1 8924   3.313   3.540   2.269
 2956SOL    HW2 8925   3.367   3.681   2.271
 2957SOL     OW 8926   4.072   4.259   1.954
 2957SOL    HW1 8927   4.085   4.186   1.893
 2957SOL    HW2 8928   4.049   4.217   2.037
 2958SOL     OW 8929   3.455   2.390   1.185
 2958SOL    HW1 8930   3.380   2.332   1.202
 2958SOL    HW2 8931   3.450   2.456   1.254
 2959SOL     OW 8932   2.456   0.838   1.120
 2959SOL    HW1 8933   2.420   0.892   1.050
 2959SOL    HW2 8934   2.481   0.900   1.188
 2960SOL     OW 8935   1.611   0.735   0.289
 2960SOL    HW1 8936   1.656   0.787   0.356
 2960SOL    HW2 8937   1.614   0.789   0.210
 2961SOL     OW 8938   0.651   2.836   1.702
 2961SOL    HW1 8939   0.643   2.905   1.636
 2961SOL    HW2 8940   0.681   2.759   1.653
 2962SOL     OW 8941   4.548   2.699   4.137
 2962SOL    HW1 8942   4.557   2.739   4.050
 2962SOL    HW2 8943   4.463   2.731   4.168
 2963SOL     OW 8944   2.701   4.101   4.346
 2963SOL    HW1 8945   2.661   4.104   4.259
 2963SOL    HW2 8946   2.715   4.192   4.369
 2964SOL     OW 8947   0.763   0.169   2.033
 2964SOL    HW1 8948   0.695   0.225   1.996
 2964SOL    HW2 8949   0.845   0.206   1.999
 2965SOL     OW 8950   0.041   4.573   1.675
 2965SOL    HW1 8951   0.121   4.589   1.625
 2965SOL    HW2 8952   0.013   4.485   1.648
 2966SOL     OW 8953   3.126   3.787   3.248
 2966SOL    HW1 8954   3.099   3.863   3.197
 2966SOL    HW2 8955   3.154   3.723   3.183
 2967SOL     OW 8956   1.431   3.881   1.642
 2967SOL    HW1 8957   1.402   3.849   1.728
 2967SOL    HW2 8958   1.525   3.899   1.655
 2968SOL     OW 8959   2.883   4.375   0.408
 2968SOL    HW1 8960   2.838   4.369   0.492
 2968SOL    HW2 8961   2.869   4.290   0.367
 2969SOL     OW 8962   3.058   2.845   1.337
 2969SOL    HW1 8963   3.132   2.906   1.333
 2969SOL    HW2 8964   3.017   2.852   1.251
 2970SOL     OW 8965   4.631   0.188   0.741
 2970SOL    HW1 8966   4.680   0.184   0.659
 2970SOL    HW2 8967   4.682   0.135   0.802
 2971SOL     OW 8968   0.905   4.828   1.110
 2971SOL    HW1 8969   0.962   4.793   1.042
 2971SOL    HW2 8970   0.819   4.835   1.069
 2972SOL     OW 8971   0.867   1.459   0.971
 2972SOL    HW1 8972   0.775   1.448   0.945
 2972SOL    HW2 8973   0.875   1.409   1.052
 2973SOL     OW 8974   2.455   4.311   4.583
 2973SOL    HW1 8975   2.415   4.384   4.631
 2973SOL    HW2 8976   2.384   4.248   4.571
 2974SOL     OW 8977   0.846   2.028   4.027
 2974SOL    HW1 8978   0.783   2.029   3.955
 2974SOL    HW2 8979   0.801   2.072   4.099
 2975SOL     OW 8980   3.109   1.567   0.211
 2975SOL    HW1 8981   3.197   1.603   0.226
 2975SOL    HW2 8982   3.119   1.473   0.225
 2976SOL     OW 8983   0.949   0.341   2.190
 2976SOL    HW1 8984   0.941   0.435   2.204
 2976SOL    HW2 8985   0.860   0.307   2.201
 2977SOL     OW 8986   4.638   4.617   2.811
 2977SOL    HW1 8987   4.677   4.665   2.738
 2977SOL    HW2 8988   4.710   4.602   2.872
 2978SOL     OW 8989   3.858   2.857   2.391
 2978SOL    HW1 8990   3.840   2.951   2.392
 2978SOL    HW2 8991   3.950   2.851   2.417
 2979SOL     OW 8992   2.283   1.081   1.552
 2979SOL    HW1 8993   2.205   1.027   1.564
 2979SOL    HW2 8994   2.260   1.166   1.589
 2980SOL     OW 8995   0.301   1.901   4.005
 2980SOL    HW1 8996   0.384   1.891   3.960
 2980SOL    HW2 8997   0.267   1.812   4.015
 2981SOL     OW 8998   2.916   4.362   0.076
 2981SOL    HW1 8999   2.832   4.333   0.041
 2981SOL    HW2 9000   2.981   4.305   0.034
 2982SOL     OW 9001   3.973   4.946   2.357
 2982SOL    HW1 9002   3.969   0.058   2.381
 2982SOL    HW2 9003   4.067   4.927   2.348
 2983SOL     OW 9004   0.950   4.634   0.398
 2983SOL    HW1 9005   0.998   4.716   0.407
 2983SOL    HW2 9006   1.013   4.572   0.362
 2984SOL     OW 9007   2.402   2.252   2.663
 2984SOL    HW1 9008   2.463   2.273   2.593
 2984SOL    HW2 9009   2.357   2.173   2.632
 2985SOL     OW 9010   3.702   1.628   4.663
 2985SOL    HW1 9011   3.622   1.645   4.612
 2985SOL    HW2 9012   3.726   1.539   4.640
 2986SOL     OW 9013   1.115   2.821   3.224
 2986SOL    HW1 9014   1.172   2.766   3.278
 2986SOL    HW2 9015   1.028   2.784   3.236
 2987SOL     OW 9016   4.502   0.262   0.133
 2987SOL    HW1 9017   4.526   0.271   0.225
 2987SOL    HW2 9018   4.406   0.268   0.132
 2988SOL     OW 9019   2.095   3.790   0.753
 2988SOL    HW1 9020   2.014   3.833   0.727
 2988SOL    HW2 9021   2.159   3.861   0.758
 2989SOL     OW 9022   4.744   2.593   4.314
 2989SOL    HW1 9023   4.711   2.641   4.238
 2989SOL    HW2 9024   4.788   2.517   4.276
 2990SOL     OW 9025   0.035   0.692   1.587
 2990SOL    HW1 9026   4.945   0.754   1.606
 2990SOL    HW2 9027   0.090   0.694   1.665
 2991SOL     OW 9028   3.942   1.078   1.472
 2991SOL    HW1 9029   3.918   1.067   1.564
 2991SOL    HW2 9030   3.875   1.136   1.436
 2992SOL     OW 9031   4.669   1.074   1.076
 2992SOL    HW1 9032   4.599   1.040   1.133
 2992SOL    HW2 9033   4.723   1.128   1.135
 2993SOL     OW 9034   1.370   2.770   4.113
 2993SOL    HW1 9035   1.345   2.820   4.036
 2993SOL    HW2 9036   1.381   2.837   4.182
 2994SOL     OW 9037   3.621   1.552   1.238
 2994SOL    HW1 9038   3.704   1.537   1.283
 2994SOL    HW2 9039   3.636   1.518   1.149
 2995SOL     OW 9040   3.628   1.126   1.071
 2995SOL    HW1 9041   3.568   1.183   1.022
 2995SOL    HW2 9042   3.602   1.037   1.046
 2996SOL     OW 9043   3.653   1.026   1.924
 2996SOL    HW1 9044   3.708   0.965   1.973
 2996SOL    HW2 9045   3.715   1.076   1.870
 2997SOL     OW 9046   1.853   1.250   0.634
 2997SOL    HW1 9047   1.779   1.296   0.594
 2997SOL    HW2 9048   1.929   1.284   0.588
 2998SOL     OW 9049   3.380   0.729   1.304
 2998SOL    HW1 9050   3.410   0.642   1.332
 2998SOL    HW2 9051   3.288   0.717   1.282
 2999SOL     OW 9052   4.083   4.454   3.588
 2999SOL    HW1 9053   4.075   4.369   3.544
 2999SOL    HW2 9054   4.152   4.499   3.539
 3000SOL     OW 9055   1.704   4.680   4.252
 3000SOL    HW1 9056   1.713   4.585   4.254
 3000SOL    HW2 9057   1.677   4.703   4.341
 3001SOL     OW 9058   4.166   3.560   4.935
 3001SOL    HW1 9059   4.135   3.633   0.008
 3001SOL    HW2 9060   4.254   3.542   4.968
 3002SOL     OW 9061   1.269   2.214   3.336
 3002SOL    HW1 9062   1.279   2.268   3.414
 3002SOL    HW2 9063   1.323   2.137   3.354
 3003SOL     OW 9064   4.359   2.159   4.930
 3003SOL    HW1 9065   4.337   2.106   0.026
 3003SOL    HW2 9066   4.312   2.242   4.944
 3004SOL     OW 9067   1.304   1.667   4.334
 3004SOL    HW1 9068   1.376   1.638   4.391
 3004SOL    HW2 9069   1.276   1.750   4.372
 3005SOL     OW 9070   1.412   0.320   3.295
 3005SOL    HW1 9071   1.449   0.376   3.364
 3005SOL    HW2 9072   1.390   0.238   3.339
 3006SOL     OW 9073   2.601   3.742   0.389
 3006SOL    HW1 9074   2.574   3.723   0.479
 3006SOL    HW2 9075   2.570   3.831   0.373
 3007SOL     OW 9076   3.627   0.157   1.681
 3007SOL    HW1 9077   3.596   0.085   1.627
 3007SOL    HW2 9078   3.594   0.236   1.639
 3008SOL     OW 9079   0.407   1.275   1.693
 3008SOL    HW1 9080   0.486   1.311   1.734
 3008SOL    HW2 9081   0.335   1.309   1.746
 3009SOL     OW 9082   4.080   2.284   4.381
 3009SOL    HW1 9083   4.103   2.359   4.325
 3009SOL    HW2 9084   3.984   2.284   4.382
 3010SOL     OW 9085   2.684   4.584   0.969
 3010SOL    HW1 9086   2.771   4.576   0.930
 3010SOL    HW2 9087   2.693   4.653   1.035
 3011SOL     OW 9088   1.809   3.654   0.745
 3011SOL    HW1 9089   1.857   3.617   0.670
 3011SOL    HW2 9090   1.873   3.656   0.816
 3012SOL     OW 9091   3.519   0.868   1.053
 3012SOL    HW1 9092   3.534   0.794   1.111
 3012SOL    HW2 9093   3.504   0.829   0.967
 3013SOL     OW 9094   2.908   2.606   0.126
 3013SOL    HW1 9095   2.993   2.568   0.145
 3013SOL    HW2 9096   2.854   2.531   0.099
 3014SOL     OW 9097   2.664   3.474   1.299
 3014SOL    HW1 9098   2.653   3.435   1.386
 3014SOL    HW2 9099   2.719   3.551   1.315
 3015SOL     OW 9100   4.270   4.090   2.935
 3015SOL    HW1 9101   4.333   4.157   2.959
 3015SOL    HW2 9102   4.306   4.009   2.969
 3016SOL     OW 9103   3.966   3.395   4.771
 3016SOL    HW1 9104   4.006   3.471   4.813
 3016SOL    HW2 9105   4.038   3.333   4.759
 3017SOL     OW 9106   1.121   0.903   0.139
 3017SOL    HW1 9107   1.040   0.937   0.177
 3017SOL    HW2 9108   1.171   0.981   0.115
 3018SOL     OW 9109   3.869   0.843   4.525
 3018SOL    HW1 9110   3.860   0.748   4.532
 3018SOL    HW2 9111   3.821   0.866   4.446
 3019SOL     OW 9112   1.941   4.843   4.404
 3019SOL    HW1 9113   1.884   4.824   4.329
 3019SOL    HW2 9114   1.958   4.937   4.397
 3020SOL     OW 9115   4.029   0.819   3.901
 3020SOL    HW1 9116   4.124   0.833   3.895
 3020SOL    HW2 9117   4.017   0.730   3.868
 3021SOL     OW 9118   2.489   1.088   0.191
 3021SOL    HW1 9119   2.421   1.145   0.154
 3021SOL    HW2 9120   2.449   1.001   0.194
 3022SOL     OW 9121   0.802   3.645   1.552
 3022SOL    HW1 9122   0.866   3.614   1.487
 3022SOL    HW2 9123   0.828   3.601   1.633
 3023SOL     OW 9124   0.485   0.205   0.909
 3023SOL    HW1 9125   0.418   0.149   0.869
 3023SOL    HW2 9126   0.487   0.178   1.001
 3024SOL     OW 9127   4.002   1.956   1.544
 3024SOL    HW1 9128   4.055   1.997   1.612
 3024SOL    HW2 9129   3.973   1.874   1.582
 3025SOL     OW 9130   4.757   1.810   1.545
 3025SOL    HW1 9131   4.670   1.849   1.549
 3025SOL    HW2 9132   4.798   1.849   1.468
 3026SOL     OW 9133   2.083   1.255   3.476
 3026SOL    HW1 9134   2.100   1.275   3.384
 3026SOL    HW2 9135   2.163   1.213   3.506
 3027SOL     OW 9136   1.337   2.211   4.727
 3027SOL    HW1 9137   1.354   2.305   4.732
 3027SOL    HW2 9138   1.269   2.202   4.661
 3028SOL     OW 9139   2.446   1.524   0.034
 3028SOL    HW1 9140   2.491   1.599   0.072
 3028SOL    HW2 9141   2.457   1.536   4.919
 3029SOL     OW 9142   0.622   1.596   1.520
 3029SOL    HW1 9143   0.714   1.601   1.495
 3029SOL    HW2 9144   0.593   1.511   1.488
 3030SOL     OW 9145   2.778   1.616   3.557
 3030SOL    HW1 9146   2.709   1.549   3.565
 3030SOL    HW2 9147   2.795   1.643   3.648
 3031SOL     OW 9148   4.533   3.897   1.147
 3031SOL    HW1 9149   4.491   3.973   1.108
 3031SOL    HW2 9150   4.529   3.829   1.080
 3032SOL     OW 9151   2.590   1.211   1.745
 3032SOL    HW1 9152   2.521   1.192   1.808
 3032SOL    HW2 9153   2.649   1.269   1.792
 3033SOL     OW 9154   0.056   2.400   3.706
 3033SOL    HW1 9155   0.075   2.333   3.772
 3033SOL    HW2 9156   4.955   2.441   3.735
 3034SOL     OW 9157   2.621   4.110   4.726
 3034SOL    HW1 9158   2.603   4.043   4.660
 3034SOL    HW2 9159   2.586   4.191   4.689
 3035SOL     OW 9160   2.385   3.918   0.718
 3035SOL    HW1 9161   2.401   3.849   0.653
 3035SOL    HW2 9162   2.341   3.987   0.668
 3036SOL     OW 9163   4.338   3.774   0.818
 3036SOL    HW1 9164   4.244   3.789   0.807
 3036SOL    HW2 9165   4.378   3.861   0.807
 3037SOL     OW 9166   4.352   0.641   1.968
 3037SOL    HW1 9167   4.375   0.589   2.044
 3037SOL    HW2 9168   4.279   0.594   1.927
 3038SOL     OW 9169   0.910   3.107   0.927
 3038SOL    HW1 9170   0.984   3.046   0.935
 3038SOL    HW2 9171   0.840   3.054   0.888
 3039SOL     OW 9172   0.939   3.901   1.729
 3039SOL    HW1 9173   0.931   3.870   1.639
 3039SOL    HW2 9174   0.933   3.821   1.782
 3040SOL     OW 9175   3.476   1.564   3.992
 3040SOL    HW1 9176   3.546   1.538   3.932
 3040SOL    HW2 9177   3.502   1.527   4.076
 3041SOL     OW 9178   1.294   3.184   1.711
 3041SOL    HW1 9179   1.226   3.251   1.700
 3041SOL    HW2 9180   1.356   3.223   1.773
 3042SOL     OW 9181   3.219   3.239   1.544
 3042SOL    HW1 9182   3.313   3.246   1.526
 3042SOL    HW2 9183   3.198   3.318   1.594
 3043SOL     OW 9184   1.434   4.426   4.658
 3043SOL    HW1 9185   1.415   4.469   4.741
 3043SOL    HW2 9186   1.358   4.444   4.603
 3044SOL     OW 9187   0.661   2.136   3.532
 3044SOL    HW1 9188   0.644   2.218   3.485
 3044SOL    HW2 9189   0.621   2.068   3.478
 3045SOL     OW 9190   0.336   1.273   3.744
 3045SOL    HW1 9191   0.296   1.198   3.700
 3045SOL    HW2 9192   0.370   1.327   3.672
 3046SOL     OW 9193   1.963   0.258   2.565
 3046SOL    HW1 9194   1.954   0.179   2.619
 3046SOL    HW2 9195   1.947   0.330   2.626
 3047SOL     OW 9196   3.790   1.890   3.356
 3047SOL    HW1 9197   3.785   1.856   3.445
 3047SOL    HW2 9198   3.756   1.980   3.362
 3048SOL     OW 9199   4.571   3.333   1.912
 3048SOL    HW1 9200   4.581   3.425   1.933
 3048SOL    HW2 9201   4.652   3.310   1.866
 3049SOL     OW 9202   3.239   1.353   0.760
 3049SOL    HW1 9203   3.157   1.307   0.775
 3049SOL    HW2 9204   3.249   1.354   0.665
 3050SOL     OW 9205   0.676   0.108   1.164
 3050SOL    HW1 9206   0.747   0.069   1.215
 3050SOL    HW2 9207   0.655   0.041   1.098
 3051SOL     OW 9208   3.980   2.942   0.416
 3051SOL    HW1 9209   4.058   2.918   0.366
 3051SOL    HW2 9210   3.935   3.007   0.363
 3052SOL     OW 9211   2.933   0.495   4.176
 3052SOL    HW1 9212   2.986   0.573   4.158
 3052SOL    HW2 9213   2.856   0.529   4.223
 3053SOL     OW 9214   1.167   2.580   4.058
 3053SOL    HW1 9215   1.241   2.633   4.087
 3053SOL    HW2 9216   1.158   2.601   3.965
 3054SOL     OW 9217   1.703   3.985   2.821
 3054SOL    HW1 9218   1.777   4.033   2.859
 3054SOL    HW2 9219   1.639   3.980   2.893
 3055SOL     OW 9220   1.200   1.567   3.488
 3055SOL    HW1 9221   1.207   1.630   3.416
 3055SOL    HW2 9222   1.111   1.577   3.521
 3056SOL     OW 9223   3.935   0.983   4.080
 3056SOL    HW1 9224   3.953   1.067   4.039
 3056SOL    HW2 9225   3.943   0.919   4.009
 3057SOL     OW 9226   4.796   2.542   0.686
 3057SOL    HW1 9227   4.742   2.604   0.735
 3057SOL    HW2 9228   4.790   2.571   0.595
 3058SOL     OW 9229   4.806   4.226   1.114
 3058SOL    HW1 9230   4.720   4.247   1.151
 3058SOL    HW2 9231   4.864   4.225   1.190
 3059SOL     OW 9232   0.739   3.989   0.704
 3059SOL    HW1 9233   0.832   3.998   0.686
 3059SOL    HW2 9234   0.732   3.999   0.799
 3060SOL     OW 9235   1.580   3.653   1.319
 3060SOL    HW1 9236   1.525   3.611   1.385
 3060SOL    HW2 9237   1.666   3.659   1.361
 3061SOL     OW 9238   2.475   1.784   3.318
 3061SOL    HW1 9239   2.477   1.690   3.332
 3061SOL    HW2 9240   2.504   1.796   3.228
 3062SOL     OW 9241   1.884   4.686   1.674
 3062SOL    HW1 9242   1.818   4.627   1.639
 3062SOL    HW2 9243   1.942   4.704   1.600
 3063SOL     OW 9244   2.177   0.531   4.897
 3063SOL    HW1 9245   2.251   0.564   4.948
 3063SOL    HW2 9246   2.186   0.576   4.813
 3064SOL     OW 9247   1.422   1.962   1.545
 3064SOL    HW1 9248   1.346   1.911   1.517
 3064SOL    HW2 9249   1.390   2.052   1.551
 3065SOL     OW 9250   3.241   0.304   2.995
 3065SOL    HW1 9251   3.149   0.293   3.018
 3065SOL    HW2 9252   3.288   0.254   3.062
 3066SOL     OW 9253   1.038   3.095   2.415
 3066SOL    HW1 9254   0.966   3.145   2.455
 3066SOL    HW2 9255   1.075   3.046   2.488
 3067SOL     OW 9256   1.219   0.933   3.422
 3067SOL    HW1 9257   1.285   0.946   3.490
 3067SOL    HW2 9258   1.269   0.917   3.343
 3068SOL     OW 9259   4.460   0.793   4.579
 3068SOL    HW1 9260   4.489   0.712   4.622
 3068SOL    HW2 9261   4.368   0.802   4.604
 3069SOL     OW 9262   0.734   0.832   0.357
 3069SOL    HW1 9263   0.781   0.753   0.332
 3069SOL    HW2 9264   0.642   0.810   0.347
 3070SOL     OW 9265   1.996   3.635   3.697
 3070SOL    HW1 9266   1.975   3.576   3.770
 3070SOL    HW2 9267   1.913   3.647   3.652
 3071SOL     OW 9268   4.210   1.290   2.212
 3071SOL    HW1 9269   4.294   1.251   2.235
 3071SOL    HW2 9270   4.227   1.337   2.130
 3072SOL     OW 9271   2.449   2.347   0.018
 3072SOL    HW1 9272   2.426   2.438   0.035
 3072SOL    HW2 9273   2.404   2.325   4.916
 3073SOL     OW 9274   0.429   2.581   4.583
 3073SOL    HW1 9275   0.504   2.552   4.635
 3073SOL    HW2 9276   0.446   2.674   4.565
 3074SOL     OW 9277   1.065   4.086   1.924
 3074SOL    HW1 9278   0.998   4.067   1.989
 3074SOL    HW2 9279   1.040   4.034   1.847
 3075SOL     OW 9280   0.155   3.075   3.408
 3075SOL    HW1 9281   0.112   3.000   3.367
 3075SOL    HW2 9282   0.242   3.078   3.368
 3076SOL     OW 9283   0.337   0.450   2.335
 3076SOL    HW1 9284   0.305   0.360   2.345
 3076SOL    HW2 9285   0.379   0.451   2.249
 3077SOL     OW 9286   1.956   4.218   2.345
 3077SOL    HW1 9287   1.990   4.162   2.415
 3077SOL    HW2 9288   2.025   4.218   2.279
 3078SOL     OW 9289   1.146   4.500   0.149
 3078SOL    HW1 9290   1.076   4.555   0.114
 3078SOL    HW2 9291   1.103   4.419   0.176
 3079SOL     OW 9292   4.252   4.941   2.411
 3079SOL    HW1 9293   4.314   0.023   2.374
 3079SOL    HW2 9294   4.295   4.856   2.401
 3080SOL     OW 9295   0.337   0.486   1.777
 3080SOL    HW1 9296   0.423   0.489   1.735
 3080SOL    HW2 9297   0.305   0.576   1.774
 3081SOL     OW 9298   1.375   3.937   3.745
 3081SOL    HW1 9299   1.467   3.937   3.722
 3081SOL    HW2 9300   1.371   3.981   3.830
 3082SOL     OW 9301   1.247   4.132   4.191
 3082SOL    HW1 9302   1.236   4.048   4.236
 3082SOL    HW2 9303   1.273   4.193   4.261
 3083SOL     OW 9304   0.662   0.210   4.882
 3083SOL    HW1 9305   0.601   0.248   4.818
 3083SOL    HW2 9306   0.745   0.253   4.865
 3084SOL     OW 9307   2.974   2.474   2.942
 3084SOL    HW1 9308   3.044   2.430   2.991
 3084SOL    HW2 9309   2.984   2.566   2.965
 3085SOL     OW 9310   4.520   1.864   0.607
 3085SOL    HW1 9311   4.576   1.920   0.554
 3085SOL    HW2 9312   4.580   1.820   0.667
 3086SOL     OW 9313   2.118   0.256   2.287
 3086SOL    HW1 9314   2.110   0.190   2.356
 3086SOL    HW2 9315   2.201   0.300   2.306
 3087SOL     OW 9316   0.648   0.007   1.806
 3087SOL    HW1 9317   0.679   0.031   1.718
 3087SOL    HW2 9318   0.645   0.090   1.853
 3088SOL     OW 9319   3.578   4.152   2.545
 3088SOL    HW1 9320   3.601   4.242   2.567
 3088SOL    HW2 9321   3.541   4.116   2.625
 3089SOL     OW 9322   3.008   1.507   2.638
 3089SOL    HW1 9323   3.079   1.460   2.593
 3089SOL    HW2 9324   3.010   1.595   2.599
 3090SOL     OW 9325   4.559   0.266   0.391
 3090SOL    HW1 9326   4.489   0.282   0.454
 3090SOL    HW2 9327   4.628   0.225   0.442
 3091SOL     OW 9328   1.360   4.306   0.426
 3091SOL    HW1 9329   1.371   4.383   0.370
 3091SOL    HW2 9330   1.447   4.266   0.430
 3092SOL     OW 9331   4.257   1.064   4.504
 3092SOL    HW1 9332   4.263   0.969   4.490
 3092SOL    HW2 9333   4.338   1.099   4.468
 3093SOL     OW 9334   4.749   2.395   0.381
 3093SOL    HW1 9335   4.744   2.489   0.395
 3093SOL    HW2 9336   4.698   2.379   0.302
 3094SOL     OW 9337   2.694   3.698   2.133
 3094SOL    HW1 9338   2.779   3.739   2.114
 3094SOL    HW2 9339   2.673   3.727   2.222
 3095SOL     OW 9340   1.353   4.260   4.409
 3095SOL    HW1 9341   1.338   4.267   4.503
 3095SOL    HW2 9342   1.447   4.245   4.401
 3096SOL     OW 9343   1.787   3.600   0.324
 3096SOL    HW1 9344   1.709   3.600   0.269
 3096SOL    HW2 9345   1.831   3.683   0.304
 3097SOL     OW 9346   4.476   4.309   2.968
 3097SOL    HW1 9347   4.514   4.306   2.880
 3097SOL    HW2 9348   4.430   4.393   2.972
 3098SOL     OW 9349   3.144   3.122   1.307
 3098SOL    HW1 9350   3.105   3.192   1.254
 3098SOL    HW2 9351   3.165   3.164   1.390
 3099SOL     OW 9352   3.380   1.522   0.479
 3099SOL    HW1 9353   3.364   1.437   0.439
 3099SOL    HW2 9354   3.296   1.567   0.474
 3100SOL     OW 9355   2.810   2.550   1.313
 3100SOL    HW1 9356   2.872   2.539   1.385
 3100SOL    HW2 9357   2.839   2.487   1.247
 3101SOL     OW 9358   0.236   1.972   1.953
 3101SOL    HW1 9359   0.170   1.959   1.885
 3101SOL    HW2 9360   0.199   2.040   2.009
 3102SOL     OW 9361   2.111   0.069   1.147
 3102SOL    HW1 9362   2.068   0.152   1.167
 3102SOL    HW2 9363   2.178   0.092   1.083
 3103SOL     OW 9364   0.142   4.157   2.898
 3103SOL    HW1 9365   0.086   4.189   2.969
 3103SOL    HW2 9366   0.081   4.121   2.834
 3104SOL     OW 9367   2.973   0.922   0.779
 3104SOL    HW1 9368   2.906   0.914   0.711
 3104SOL    HW2 9369   3.056   0.916   0.732
 3105SOL     OW 9370   3.001   0.128   4.786
 3105SOL    HW1 9371   2.925   0.103   4.839
 3105SOL    HW2 9372   2.963   0.170   4.708
 3106SOL     OW 9373   4.245   2.852   4.704
 3106SOL    HW1 9374   4.209   2.764   4.696
 3106SOL    HW2 9375   4.267   2.861   4.797
 3107SOL     OW 9376   3.842   4.966   1.726
 3107SOL    HW1 9377   3.813   4.928   1.809
 3107SOL    HW2 9378   3.770   0.044   1.700
 3108SOL     OW 9379   3.497   1.742   2.681
 3108SOL    HW1 9380   3.554   1.668   2.659
 3108SOL    HW2 9381   3.533   1.815   2.631
 3109SOL     OW 9382   1.531   1.070   3.622
 3109SOL    HW1 9383   1.622   1.041   3.613
 3109SOL    HW2 9384   1.489   1.001   3.673
 3110SOL     OW 9385   3.044   0.528   2.174
 3110SOL    HW1 9386   3.087   0.541   2.089
 3110SOL    HW2 9387   3.093   0.583   2.234
 3111SOL     OW 9388   4.196   0.189   1.612
 3111SOL    HW1 9389   4.211   0.137   1.534
 3111SOL    HW2 9390   4.179   0.124   1.681
 3112SOL     OW 9391   1.251   0.331   3.604
 3112SOL    HW1 9392   1.209   0.248   3.582
 3112SOL    HW2 9393   1.188   0.375   3.660
 3113SOL     OW 9394   4.043   1.737   3.592
 3113SOL    HW1 9395   4.093   1.661   3.623
 3113SOL    HW2 9396   4.093   1.769   3.516
 3114SOL     OW 9397   3.918   0.722   2.554
 3114SOL    HW1 9398   3.826   0.708   2.532
 3114SOL    HW2 9399   3.942   0.802   2.508
 3115SOL     OW 9400   4.383   3.711   4.335
 3115SOL    HW1 9401   4.382   3.629   4.285
 3115SOL    HW2 9402   4.324   3.696   4.408
 3116SOL     OW 9403   4.887   2.074   1.791
 3116SOL    HW1 9404   4.799   2.051   1.761
 3116SOL    HW2 9405   4.937   2.090   1.711
 3117SOL     OW 9406   4.404   1.561   1.911
 3117SOL    HW1 9407   4.327   1.520   1.950
 3117SOL    HW2 9408   4.371   1.606   1.833
 3118SOL     OW 9409   2.259   1.083   0.665
 3118SOL    HW1 9410   2.267   1.179   0.668
 3118SOL    HW2 9411   2.183   1.067   0.609
 3119SOL     OW 9412   1.972   1.422   3.189
 3119SOL    HW1 9413   1.915   1.451   3.260
 3119SOL    HW2 9414   1.929   1.452   3.109
 3120SOL     OW 9415   2.159   3.539   2.850
 3120SOL    HW1 9416   2.194   3.472   2.793
 3120SOL    HW2 9417   2.067   3.515   2.862
 3121SOL     OW 9418   2.649   2.687   4.490
 3121SOL    HW1 9419   2.742   2.706   4.481
 3121SOL    HW2 9420   2.612   2.710   4.404
 3122SOL     OW 9421   0.006   1.458   4.411
 3122SOL    HW1 9422   0.014   1.542   4.366
 3122SOL    HW2 9423   4.907   1.466   4.464
 3123SOL     OW 9424   4.077   0.352   3.585
 3123SOL    HW1 9425   4.159   0.384   3.547
 3123SOL    HW2 9426   4.029   0.315   3.511
 3124SOL     OW 9427   2.162   2.947   4.730
 3124SOL    HW1 9428   2.084   3.001   4.738
 3124SOL    HW2 9429   2.201   2.946   4.818
 3125SOL     OW 9430   3.218   2.292   4.233
 3125SOL    HW1 9431   3.231   2.254   4.319
 3125SOL    HW2 9432   3.193   2.383   4.250
 3126SOL     OW 9433   2.675   0.427   0.226
 3126SOL    HW1 9434   2.758   0.382   0.244
 3126SOL    HW2 9435   2.638   0.445   0.312
 3127SOL     OW 9436   1.283   2.341   3.585
 3127SOL    HW1 9437   1.340   2.417   3.574
 3127SOL    HW2 9438   1.202   2.378   3.621
 3128SOL     OW 9439   4.034   2.786   2.828
 3128SOL    HW1 9440   3.944   2.760   2.809
 3128SOL    HW2 9441   4.067   2.717   2.886
 3129SOL     OW 9442   2.028   2.931   1.372
 3129SOL    HW1 9443   2.115   2.901   1.397
 3129SOL    HW2 9444   1.971   2.899   1.441
 3130SOL     OW 9445   4.113   4.693   0.984
 3130SOL    HW1 9446   4.059   4.672   0.908
 3130SOL    HW2 9447   4.147   4.608   1.013
 3131SOL     OW 9448   2.194   2.055   1.098
 3131SOL    HW1 9449   2.184   2.132   1.043
 3131SOL    HW2 9450   2.273   2.012   1.065
 3132SOL     OW 9451   1.652   2.944   3.038
 3132SOL    HW1 9452   1.621   2.924   3.126
 3132SOL    HW2 9453   1.670   3.038   3.040
 3133SOL     OW 9454   4.286   3.462   2.283
 3133SOL    HW1 9455   4.246   3.537   2.239
 3133SOL    HW2 9456   4.232   3.387   2.257
 3134SOL     OW 9457   2.182   3.626   4.379
 3134SOL    HW1 9458   2.122   3.648   4.308
 3134SOL    HW2 9459   2.169   3.532   4.392
 3135SOL     OW 9460   3.253   3.769   0.641
 3135SOL    HW1 9461   3.234   3.703   0.575
 3135SOL    HW2 9462   3.283   3.719   0.717
 3136SOL     OW 9463   1.075   2.234   4.606
 3136SOL    HW1 9464   1.023   2.269   4.678
 3136SOL    HW2 9465   1.111   2.311   4.563
 3137SOL     OW 9466   2.107   2.143   2.406
 3137SOL    HW1 9467   2.138   2.217   2.354
 3137SOL    HW2 9468   2.186   2.111   2.451
 3138SOL     OW 9469   2.261   4.356   1.490
 3138SOL    HW1 9470   2.191   4.291   1.498
 3138SOL    HW2 9471   2.245   4.417   1.562
 3139SOL     OW 9472   2.724   3.075   3.958
 3139SOL    HW1 9473   2.741   3.058   3.865
 3139SOL    HW2 9474   2.806   3.111   3.992
 3140SOL     OW 9475   2.114   4.786   2.980
 3140SOL    HW1 9476   2.041   4.732   2.951
 3140SOL    HW2 9477   2.177   4.724   3.017
 3141SOL     OW 9478   4.618   3.457   0.647
 3141SOL    HW1 9479   4.676   3.387   0.677
 3141SOL    HW2 9480   4.546   3.457   0.710
 3142SOL     OW 9481   2.815   3.347   3.519
 3142SOL    HW1 9482   2.789   3.405   3.447
 3142SOL    HW2 9483   2.735   3.303   3.544
 3143SOL     OW 9484   2.989   4.469   2.035
 3143SOL    HW1 9485   3.023   4.552   2.000
 3143SOL    HW2 9486   2.895   4.486   2.048
 3144SOL     OW 9487   2.476   3.542   2.250
 3144SOL    HW1 9488   2.539   3.566   2.182
 3144SOL    HW2 9489   2.411   3.488   2.205
 3145SOL     OW 9490   3.369   0.582   0.400
 3145SOL    HW1 9491   3.413   0.656   0.359
 3145SOL    HW2 9492   3.386   0.593   0.494
 3146SOL     OW 9493   2.139   4.517   1.715
 3146SOL    HW1 9494   2.059   4.540   1.668
 3146SOL    HW2 9495   2.113   4.442   1.770
 3147SOL     OW 9496   4.485   1.745   2.784
 3147SOL    HW1 9497   4.573   1.733   2.749
 3147SOL    HW2 9498   4.498   1.756   2.878
 3148SOL     OW 9499   1.390   0.002   2.315
 3148SOL    HW1 9500   1.482   0.025   2.327
 3148SOL    HW2 9501   1.352   0.078   2.271
 3149SOL     OW 9502   3.364   0.175   2.723
 3149SOL    HW1 9503   3.315   0.115   2.779
 3149SOL    HW2 9504   3.335   0.262   2.750
 3150SOL     OW 9505   3.990   1.589   3.268
 3150SOL    HW1 9506   3.973   1.498   3.247
 3150SOL    HW2 9507   4.074   1.588   3.314
 3151SOL     OW 9508   0.972   1.915   2.791
 3151SOL    HW1 9509   1.042   1.858   2.821
 3151SOL    HW2 9510   0.965   1.983   2.859
 3152SOL     OW 9511   0.657   2.498   3.648
 3152SOL    HW1 9512   0.609   2.439   3.590
 3152SOL    HW2 9513   0.706   2.555   3.589
 3153SOL     OW 9514   0.936   1.661   0.582
 3153SOL    HW1 9515   0.922   1.573   0.617
 3153SOL    HW2 9516   1.015   1.653   0.529
 3154SOL     OW 9517   3.413   1.715   1.318
 3154SOL    HW1 9518   3.485   1.657   1.293
 3154SOL    HW2 9519   3.353   1.660   1.367
 3155SOL     OW 9520   3.238   3.268   0.177
 3155SOL    HW1 9521   3.194   3.347   0.209
 3155SOL    HW2 9522   3.308   3.302   0.120
 3156SOL     OW 9523   0.131   4.655   1.092
 3156SOL    HW1 9524   0.094   4.592   1.153
 3156SOL    HW2 9525   0.056   4.696   1.051
 3157SOL     OW 9526   2.077   3.768   1.681
 3157SOL    HW1 9527   2.006   3.734   1.626
 3157SOL    HW2 9528   2.150   3.781   1.621
 3158SOL     OW 9529   0.961   0.009   0.719
 3158SOL    HW1 9530   0.894   0.072   0.745
 3158SOL    HW2 9531   1.022   0.007   0.792
 3159SOL     OW 9532   3.228   0.169   4.607
 3159SOL    HW1 9533   3.170   0.214   4.545
 3159SOL    HW2 9534   3.170   0.114   4.659
 3160SOL     OW 9535   2.686   2.826   0.116
 3160SOL    HW1 9536   2.629   2.875   0.057
 3160SOL    HW2 9537   2.668   2.734   0.096
 3161SOL     OW 9538   3.766   2.403   4.294
 3161SOL    HW1 9539   3.731   2.459   4.363
 3161SOL    HW2 9540   3.774   2.317   4.335
 3162SOL     OW 9541   1.409   3.765   3.366
 3162SOL    HW1 9542   1.351   3.730   3.298
 3162SOL    HW2 9543   1.357   3.761   3.446
 3163SOL     OW 9544   1.457   1.973   1.151
 3163SOL    HW1 9545   1.542   1.983   1.193
 3163SOL    HW2 9546   1.450   2.047   1.091
 3164SOL     OW 9547   2.118   0.992   4.665
 3164SOL    HW1 9548   2.062   1.030   4.597
 3164SOL    HW2 9549   2.197   1.046   4.663
 3165SOL     OW 9550   0.906   4.328   3.655
 3165SOL    HW1 9551   0.982   4.269   3.653
 3165SOL    HW2 9552   0.904   4.362   3.744
 3166SOL     OW 9553   4.512   1.795   0.328
 3166SOL    HW1 9554   4.443   1.837   0.277
 3166SOL    HW2 9555   4.471   1.776   0.412
 3167SOL     OW 9556   3.639   3.775   1.353
 3167SOL    HW1 9557   3.663   3.841   1.418
 3167SOL    HW2 9558   3.692   3.797   1.276
 3168SOL     OW 9559   0.575   4.304   4.128
 3168SOL    HW1 9560   0.583   4.321   4.034
 3168SOL    HW2 9561   0.529   4.381   4.161
 3169SOL     OW 9562   4.367   0.739   0.023
 3169SOL    HW1 9563   4.336   0.671   0.083
 3169SOL    HW2 9564   4.317   0.724   4.923
 3170SOL     OW 9565   0.617   1.354   1.822
 3170SOL    HW1 9566   0.702   1.330   1.785
 3170SOL    HW2 9567   0.637   1.421   1.887
 3171SOL     OW 9568   0.718   4.379   0.596
 3171SOL    HW1 9569   0.698   4.309   0.534
 3171SOL    HW2 9570   0.711   4.460   0.545
 3172SOL     OW 9571   3.954   4.732   1.195
 3172SOL    HW1 9572   4.019   4.765   1.256
 3172SOL    HW2 9573   3.993   4.744   1.109
 3173SOL     OW 9574   0.441   3.870   1.192
 3173SOL    HW1 9575   0.417   3.780   1.211
 3173SOL    HW2 9576   0.533   3.876   1.218
 3174SOL     OW 9577   1.981   3.746   2.960
 3174SOL    HW1 9578   2.073   3.727   2.976
 3174SOL    HW2 9579   1.981   3.833   2.919
 3175SOL     OW 9580   2.455   4.017   3.347
 3175SOL    HW1 9581   2.471   4.109   3.367
 3175SOL    HW2 9582   2.541   3.981   3.325
 3176SOL     OW 9583   2.479   0.110   0.147
 3176SOL    HW1 9584   2.567   0.139   0.122
 3176SOL    HW2 9585   2.492   0.067   0.232
 3177SOL     OW 9586   4.354   2.705   3.576
 3177SOL    HW1 9587   4.324   2.769   3.512
 3177SOL    HW2 9588   4.291   2.709   3.647
 3178SOL     OW 9589   4.446   1.877   3.741
 3178SOL    HW1 9590   4.498   1.940   3.690
 3178SOL    HW2 9591   4.418   1.925   3.818
 3179SOL     OW 9592   2.999   4.774   4.475
 3179SOL    HW1 9593   2.966   4.795   4.563
 3179SOL    HW2 9594   2.999   4.858   4.429
 3180SOL     OW 9595   1.983   3.563   2.597
 3180SOL    HW1 9596   2.024   3.477   2.583
 3180SOL    HW2 9597   2.052   3.626   2.577
 3181SOL     OW 9598   4.848   4.379   4.086
 3181SOL    HW1 9599   4.885   4.467   4.093
 3181SOL    HW2 9600   4.762   4.392   4.048
 3182SOL     OW 9601   3.382   4.128   1.219
 3182SOL    HW1 9602   3.377   4.097   1.129
 3182SOL    HW2 9603   3.474   4.119   1.243
 3183SOL     OW 9604   3.195   0.178   1.839
 3183SOL    HW1 9605   3.164   0.191   1.749
 3183SOL    HW2 9606   3.262   0.245   1.851
 3184SOL     OW 9607   1.769   4.922   3.481
 3184SOL    HW1 9608   1.840   0.005   3.475
 3184SOL    HW2 9609   1.713   4.954   3.551
 3185SOL     OW 9610   4.390   2.058   1.957
 3185SOL    HW1 9611   4.413   2.037   2.048
 3185SOL    HW2 9612   4.325   2.128   1.965
 3186SOL     OW 9613   2.694   3.022   1.848
 3186SOL    HW1 9614   2.706   3.029   1.754
 3186SOL    HW2 9615   2.667   3.109   1.876
 3187SOL     OW 9616   0.342   1.836   1.708
 3187SOL    HW1 9617   0.342   1.932   1.714
 3187SOL    HW2 9618   0.250   1.812   1.716
 3188SOL     OW 9619   0.823   3.235   4.330
 3188SOL    HW1 9620   0.827   3.330   4.334
 3188SOL    HW2 9621   0.750   3.217   4.270
 3189SOL     OW 9622   1.497   3.379   0.664
 3189SOL    HW1 9623   1.488   3.327   0.585
 3189SOL    HW2 9624   1.409   3.384   0.700
 3190SOL     OW 9625   1.909   4.627   2.705
 3190SOL    HW1 9626   1.950   4.542   2.690
 3190SOL    HW2 9627   1.908   4.637   2.800
 3191SOL     OW 9628   1.073   1.753   4.705
 3191SOL    HW1 9629   1.068   1.696   4.629
 3191SOL    HW2 9630   1.167   1.771   4.716
 3192SOL     OW 9631   3.858   1.687   2.122
 3192SOL    HW1 9632   3.945   1.685   2.162
 3192SOL    HW2 9633   3.873   1.659   2.032
 3193SOL     OW 9634   3.956   4.964   0.428
 3193SOL    HW1 9635   3.904   4.931   0.355
 3193SOL    HW2 9636   3.967   0.077   0.410
 3194SOL     OW 9637   1.184   3.649   1.665
 3194SOL    HW1 9638   1.145   3.562   1.674
 3194SOL    HW2 9639   1.193   3.681   1.755
 3195SOL     OW 9640   1.991   1.348   0.395
 3195SOL    HW1 9641   1.910   1.372   0.349
 3195SOL    HW2 9642   2.015   1.426   0.444
 3196SOL     OW 9643   0.078   0.418   4.861
 3196SOL    HW1 9644   0.029   0.498   4.880
 3196SOL    HW2 9645   0.024   0.371   4.798
 3197SOL     OW 9646   0.541   1.505   0.635
 3197SOL    HW1 9647   0.598   1.501   0.559
 3197SOL    HW2 9648   0.496   1.589   0.627
 3198SOL     OW 9649   1.735   1.269   4.367
 3198SOL    HW1 9650   1.640   1.264   4.376
 3198SOL    HW2 9651   1.755   1.217   4.289
 3199SOL     OW 9652   0.564   3.799   4.443
 3199SOL    HW1 9653   0.489   3.857   4.433
 3199SOL    HW2 9654   0.561   3.742   4.366
 3200SOL     OW 9655   0.311   0.033   0.732
 3200SOL    HW1 9656   0.376   0.052   0.664
 3200SOL    HW2 9657   0.290   4.920   0.719
 3201SOL     OW 9658   2.428   2.168   2.170
 3201SOL    HW1 9659   2.486   2.222   2.115
 3201SOL    HW2 9660   2.436   2.206   2.257
 3202SOL     OW 9661   0.961   4.175   2.706
 3202SOL    HW1 9662   0.988   4.248   2.650
 3202SOL    HW2 9663   1.034   4.161   2.766
 3203SOL     OW 9664   0.888   0.248   4.060
 3203SOL    HW1 9665   0.916   0.338   4.078
 3203SOL    HW2 9666   0.926   0.228   3.974
 3204SOL     OW 9667   3.513   3.032   0.636
 3204SOL    HW1 9668   3.499   3.083   0.716
 3204SOL    HW2 9669   3.597   2.988   0.651
 3205SOL     OW 9670   4.922   0.678   4.902
 3205SOL    HW1 9671   4.832   0.710   4.890
 3205SOL    HW2 9672   4.975   0.734   4.844
 3206SOL     OW 9673   0.531   2.479   0.287
 3206SOL    HW1 9674   0.475   2.524   0.351
 3206SOL    HW2 9675   0.522   2.386   0.308
 3207SOL     OW 9676   4.473   4.744   4.543
 3207SOL    HW1 9677   4.552   4.798   4.548
 3207SOL    HW2 9678   4.454   4.722   4.635
 3208SOL     OW 9679   3.802   0.587   4.466
 3208SOL    HW1 9680   3.777   0.502   4.503
 3208SOL    HW2 9681   3.732   0.608   4.404
 3209SOL     OW 9682   1.714   2.511   1.210
 3209SOL    HW1 9683   1.809   2.516   1.202
 3209SOL    HW2 9684   1.681   2.592   1.172
 3210SOL     OW 9685   3.104   0.713   1.225
 3210SOL    HW1 9686   3.079   0.792   1.273
 3210SOL    HW2 9687   3.040   0.709   1.153
 3211SOL     OW 9688   4.221   0.896   1.815
 3211SOL    HW1 9689   4.288   0.964   1.819
 3211SOL    HW2 9690   4.205   0.872   1.906
 3212SOL     OW 9691   1.172   4.223   3.644
 3212SOL    HW1 9692   1.218   4.179   3.573
 3212SOL    HW2 9693   1.191   4.170   3.721
 3213SOL     OW 9694   1.080   1.909   1.215
 3213SOL    HW1 9695   1.068   1.825   1.171
 3213SOL    HW2 9696   1.003   1.918   1.271
 3214SOL     OW 9697   2.330   2.854   2.040
 3214SOL    HW1 9698   2.326   2.806   2.123
 3214SOL    HW2 9699   2.395   2.806   1.989
 3215SOL     OW 9700   4.395   3.132   0.005
 3215SOL    HW1 9701   4.469   3.188   0.030
 3215SOL    HW2 9702   4.378   3.155   4.893
 3216SOL     OW 9703   3.951   3.383   2.025
 3216SOL    HW1 9704   3.987   3.469   2.004
 3216SOL    HW2 9705   3.901   3.358   1.947
 3217SOL     OW 9706   1.173   2.583   2.653
 3217SOL    HW1 9707   1.174   2.669   2.612
 3217SOL    HW2 9708   1.102   2.536   2.609
 3218SOL     OW 9709   3.043   4.557   2.692
 3218SOL    HW1 9710   3.123   4.514   2.661
 3218SOL    HW2 9711   2.982   4.552   2.619
 3219SOL     OW 9712   0.344   4.513   2.396
 3219SOL    HW1 9713   0.424   4.519   2.344
 3219SOL    HW2 9714   0.276   4.488   2.334
 3220SOL     OW 9715   1.419   0.518   0.611
 3220SOL    HW1 9716   1.501   0.470   0.610
 3220SOL    HW2 9717   1.404   0.543   0.520
 3221SOL     OW 9718   3.866   0.644   0.092
 3221SOL    HW1 9719   3.935   0.676   0.149
 3221SOL    HW2 9720   3.809   0.719   0.078
 3222SOL     OW 9721   3.896   0.596   3.760
 3222SOL    HW1 9722   3.946   0.515   3.748
 3222SOL    HW2 9723   3.805   0.569   3.761
 3223SOL     OW 9724   1.472   1.587   3.555
 3223SOL    HW1 9725   1.379   1.587   3.529
 3223SOL    HW2 9726   1.496   1.494   3.557
 3224SOL     OW 9727   4.552   4.505   1.821
 3224SOL    HW1 9728   4.515   4.430   1.869
 3224SOL    HW2 9729   4.540   4.482   1.729
 3225SOL     OW 9730   1.751   0.382   4.526
 3225SOL    HW1 9731   1.710   0.467   4.540
 3225SOL    HW2 9732   1.681   0.319   4.538
 3226SOL     OW 9733   3.556   0.091   4.032
 3226SOL    HW1 9734   3.555   0.150   4.107
 3226SOL    HW2 9735   3.532   0.146   3.958
 3227SOL     OW 9736   4.571   0.947   0.832
 3227SOL    HW1 9737   4.508   0.884   0.867
 3227SOL    HW2 9738   4.611   0.988   0.908
 3228SOL     OW 9739   4.370   4.542   4.721
 3228SOL    HW1 9740   4.435   4.474   4.737
 3228SOL    HW2 9741   4.307   4.534   4.792
 3229SOL     OW 9742   0.807   2.440   0.464
 3229SOL    HW1 9743   0.765   2.526   0.455
 3229SOL    HW2 9744   0.785   2.394   0.384
 3230SOL     OW 9745   0.561   3.954   3.526
 3230SOL    HW1 9746   0.499   4.027   3.526
 3230SOL    HW2 9747   0.517   3.885   3.576
 3231SOL     OW 9748   0.004   0.842   2.408
 3231SOL    HW1 9749   4.967   0.809   2.497
 3231SOL    HW2 9750   0.063   0.777   2.370
 3232SOL     OW 9751   0.231   0.219   2.395
 3232SOL    HW1 9752   0.195   0.182   2.475
 3232SOL    HW2 9753   0.299   0.157   2.368
 3233SOL     OW 9754   2.377   4.045   1.807
 3233SOL    HW1 9755   2.296   4.044   1.857
 3233SOL    HW2 9756   2.441   4.001   1.865
 3234SOL     OW 9757   1.636   1.442   0.532
 3234SOL    HW1 9758   1.610   1.534   0.520
 3234SOL    HW2 9759   1.678   1.417   0.450
 3235SOL     OW 9760   2.861   3.991   2.868
 3235SOL    HW1 9761   2.946   3.964   2.833
 3235SOL    HW2 9762   2.822   4.045   2.799
 3236SOL     OW 9763   2.939   0.566   4.531
 3236SOL    HW1 9764   2.979   0.638   4.579
 3236SOL    HW2 9765   3.012   0.524   4.485
 3237SOL     OW 9766   2.497   2.009   3.498
 3237SOL    HW1 9767   2.499   1.946   3.427
 3237SOL    HW2 9768   2.412   2.053   3.489
 3238SOL     OW 9769   2.024   0.218   1.455
 3238SOL    HW1 9770   2.107   0.191   1.494
 3238SOL    HW2 9771   2.042   0.219   1.360
 3239SOL     OW 9772   1.076   4.088   0.448
 3239SOL    HW1 9773   1.048   4.061   0.536
 3239SOL    HW2 9774   1.031   4.028   0.389
 3240SOL     OW 9775   4.118   1.712   0.336
 3240SOL    HW1 9776   4.174   1.728   0.412
 3240SOL    HW2 9777   4.175   1.729   0.261
 3241SOL     OW 9778   2.106   0.758   1.891
 3241SOL    HW1 9779   2.022   0.712   1.887
 3241SOL    HW2 9780   2.153   0.727   1.813
 3242SOL     OW 9781   1.535   4.829   0.716
 3242SOL    HW1 9782   1.454   4.873   0.690
 3242SOL    HW2 9783   1.594   4.900   0.742
 3243SOL     OW 9784   0.261   3.718   0.499
 3243SOL    HW1 9785   0.302   3.787   0.551
 3243SOL    HW2 9786   0.186   3.690   0.552
 3244SOL     OW 9787   1.838   2.239   3.784
 3244SOL    HW1 9788   1.744   2.226   3.778
 3244SOL    HW2 9789   1.855   2.250   3.878
 3245SOL     OW 9790   0.569   4.619   1.337
 3245SOL    HW1 9791   0.483   4.581   1.324
 3245SOL    HW2 9792   0.628   4.566   1.284
 3246SOL     OW 9793   3.799   1.185   1.692
 3246SOL    HW1 9794   3.845   1.268   1.684
 3246SOL    HW2 9795   3.867   1.122   1.718
 3247SOL     OW 9796   2.203   1.599   4.786
 3247SOL    HW1 9797   2.173   1.508   4.788
 3247SOL    HW2 9798   2.284   1.597   4.736
 3248SOL     OW 9799   1.684   2.020   3.478
 3248SOL    HW1 9800   1.665   2.114   3.476
 3248SOL    HW2 9801   1.658   1.992   3.566
 3249SOL     OW 9802   3.788   3.024   2.887
 3249SOL    HW1 9803   3.773   3.102   2.942
 3249SOL    HW2 9804   3.883   3.013   2.888
 3250SOL     OW 9805   4.886   3.034   0.057
 3250SOL    HW1 9806   4.962   2.983   0.032
 3250SOL    HW2 9807   4.819   3.012   4.973
 3251SOL     OW 9808   3.380   0.232   2.183
 3251SOL    HW1 9809   3.415   0.201   2.267
 3251SOL    HW2 9810   3.285   0.231   2.195
 3252SOL     OW 9811   3.658   4.639   3.562
 3252SOL    HW1 9812   3.731   4.647   3.623
 3252SOL    HW2 9813   3.699   4.612   3.480
 3253SOL     OW 9814   3.332   4.760   4.065
 3253SOL    HW1 9815   3.312   4.852   4.081
 3253SOL    HW2 9816   3.363   4.727   4.149
 3254SOL     OW 9817   1.051   4.898   0.313
 3254SOL    HW1 9818   1.097   4.962   0.368
 3254SOL    HW2 9819   0.961   4.931   0.307
 3255SOL     OW 9820   1.309   0.849   3.165
 3255SOL    HW1 9821   1.389   0.806   3.135
 3255SOL    HW2 9822   1.239   0.789   3.143
 3256SOL     OW 9823   3.341   3.905   3.834
 3256SOL    HW1 9824   3.352   3.913   3.928
 3256SOL    HW2 9825   3.397   3.974   3.797
 3257SOL     OW 9826   2.212   3.128   2.608
 3257SOL    HW1 9827   2.298   3.101   2.577
 3257SOL    HW2 9828   2.150   3.076   2.556
 3258SOL     OW 9829   0.615   1.957   1.375
 3258SOL    HW1 9830   0.544   2.008   1.415
 3258SOL    HW2 9831   0.609   1.976   1.282
 3259SOL     OW 9832   3.433   0.275   4.927
 3259SOL    HW1 9833   3.341   0.274   4.902
 3259SOL    HW2 9834   3.480   0.254   4.846
 3260SOL     OW 9835   4.162   1.248   0.799
 3260SOL    HW1 9836   4.214   1.265   0.878
 3260SOL    HW2 9837   4.072   1.268   0.825
 3261SOL     OW 9838   3.291   4.322   0.350
 3261SOL    HW1 9839   3.377   4.316   0.307
 3261SOL    HW2 9840   3.231   4.348   0.279
 3262SOL     OW 9841   0.898   2.318   0.890
 3262SOL    HW1 9842   0.925   2.238   0.936
 3262SOL    HW2 9843   0.979   2.352   0.853
 3263SOL     OW 9844   0.960   1.923   3.091
 3263SOL    HW1 9845   1.051   1.912   3.118
 3263SOL    HW2 9846   0.931   2.003   3.136
 3264SOL     OW 9847   1.790   4.431   0.586
 3264SOL    HW1 9848   1.749   4.509   0.624
 3264SOL    HW2 9849   1.717   4.383   0.547
 3265SOL     OW 9850   0.187   0.937   0.733
 3265SOL    HW1 9851   0.205   0.986   0.814
 3265SOL    HW2 9852   0.127   0.867   0.760
 3266SOL     OW 9853   1.461   4.772   0.993
 3266SOL    HW1 9854   1.407   4.698   1.022
 3266SOL    HW2 9855   1.457   4.769   0.898
 3267SOL     OW 9856   4.647   4.052   4.069
 3267SOL    HW1 9857   4.572   4.073   4.014
 3267SOL    HW2 9858   4.611   3.997   4.139
 3268SOL     OW 9859   0.103   1.638   4.213
 3268SOL    HW1 9860   0.188   1.667   4.179
 3268SOL    HW2 9861   0.092   1.549   4.181
 3269SOL     OW 9862   0.786   1.344   4.311
 3269SOL    HW1 9863   0.765   1.303   4.226
 3269SOL    HW2 9864   0.881   1.353   4.310
 3270SOL     OW 9865   0.235   3.724   0.849
 3270SOL    HW1 9866   0.142   3.708   0.834
 3270SOL    HW2 9867   0.239   3.768   0.934
 3271SOL     OW 9868   1.956   3.039   2.793
 3271SOL    HW1 9869   2.042   3.080   2.783
 3271SOL    HW2 9870   1.972   2.962   2.848
 3272SOL     OW 9871   0.852   3.833   2.746
 3272SOL    HW1 9872   0.937   3.790   2.752
 3272SOL    HW2 9873   0.856   3.884   2.664
 3273SOL     OW 9874   3.273   4.950   1.541
 3273SOL    HW1 9875   3.304   4.934   1.630
 3273SOL    HW2 9876   3.260   4.863   1.504
 3274SOL     OW 9877   4.742   3.188   0.275
 3274SOL    HW1 9878   4.758   3.140   0.194
 3274SOL    HW2 9879   4.682   3.132   0.325
 3275SOL     OW 9880   1.208   2.206   4.968
 3275SOL    HW1 9881   1.160   2.123   4.968
 3275SOL    HW2 9882   1.247   2.212   4.881
 3276SOL     OW 9883   3.358   4.124   0.129
 3276SOL    HW1 9884   3.387   4.038   0.160
 3276SOL    HW2 9885   3.420   4.185   0.168
 3277SOL     OW 9886   3.039   3.511   3.552
 3277SOL    HW1 9887   2.968   3.447   3.545
 3277SOL    HW2 9888   3.000   3.593   3.520
 3278SOL     OW 9889   3.489   0.766   3.557
 3278SOL    HW1 9890   3.430   0.784   3.484
 3278SOL    HW2 9891   3.514   0.675   3.546
 3279SOL     OW 9892   2.688   1.981   0.907
 3279SOL    HW1 9893   2.693   2.001   1.000
 3279SOL    HW2 9894   2.777   1.958   0.882
 3280SOL     OW 9895   3.642   1.638   2.357
 3280SOL    HW1 9896   3.585   1.564   2.340
 3280SOL    HW2 9897   3.691   1.651   2.275
 3281SOL     OW 9898   3.167   0.315   4.888
 3281SOL    HW1 9899   3.092   0.372   4.903
 3281SOL    HW2 9900   3.130   0.235   4.852
 3282SOL     OW 9901   0.671   2.744   2.152
 3282SOL    HW1 9902   0.755   2.783   2.173
 3282SOL    HW2 9903   0.635   2.799   2.082
 3283SOL     OW 9904   4.040   3.123   3.108
 3283SOL    HW1 9905   4.013   3.066   3.181
 3283SOL    HW2 9906   3.997   3.085   3.031
 3284SOL     OW 9907   4.501   0.385   1.569
 3284SOL    HW1 9908   4.452   0.363   1.490
 3284SOL    HW2 9909   4.479   0.477   1.586
 3285SOL     OW 9910   3.915   4.063   1.337
 3285SOL    HW1 9911   3.863   3.983   1.326
 3285SOL    HW2 9912   3.929   4.094   1.247
 3286SOL     OW 9913   0.947   2.302   1.227
 3286SOL    HW1 9914   1.003   2.238   1.184
 3286SOL    HW2 9915   1.000   2.336   1.299
 3287SOL     OW 9916   4.444   4.496   0.984
 3287SOL    HW1 9917   4.454   4.554   0.908
 3287SOL    HW2 9918   4.461   4.408   0.949
 3288SOL     OW 9919   3.304   1.281   3.060
 3288SOL    HW1 9920   3.269   1.370   3.062
 3288SOL    HW2 9921   3.363   1.280   2.985
 3289SOL     OW 9922   2.027   4.675   2.043
 3289SOL    HW1 9923   2.088   4.606   2.069
 3289SOL    HW2 9924   1.946   4.629   2.023
 3290SOL     OW 9925   2.971   2.311   3.728
 3290SOL    HW1 9926   2.980   2.297   3.822
 3290SOL    HW2 9927   2.880   2.342   3.718
 3291SOL     OW 9928   3.151   2.010   0.023
 3291SOL    HW1 9929   3.226   1.982   4.951
 3291SOL    HW2 9930   3.180   2.002   0.113
 3292SOL     OW 9931   4.380   0.240   0.639
 3292SOL    HW1 9932   4.459   0.225   0.691
 3292SOL    HW2 9933   4.323   0.166   0.658
 3293SOL     OW 9934   4.783   2.443   3.406
 3293SOL    HW1 9935   4.876   2.421   3.414
 3293SOL    HW2 9936   4.762   2.428   3.314
 3294SOL     OW 9937   0.918   4.175   3.238
 3294SOL    HW1 9938   0.915   4.085   3.206
 3294SOL    HW2 9939   0.852   4.177   3.308
 3295SOL     OW 9940   2.987   1.879   3.039
 3295SOL    HW1 9941   3.024   1.944   2.979
 3295SOL    HW2 9942   2.910   1.921   3.076
 3296SOL     OW 9943   0.462   1.611   3.268
 3296SOL    HW1 9944   0.510   1.543   3.221
 3296SOL    HW2 9945   0.381   1.622   3.217
 3297SOL     OW 9946   1.636   4.066   0.102
 3297SOL    HW1 9947   1.626   4.003   0.174
 3297SOL    HW2 9948   1.549   4.070   0.062
 3298SOL     OW 9949   3.144   0.139   0.149
 3298SOL    HW1 9950   3.167   0.206   0.086
 3298SOL    HW2 9951   3.075   0.178   0.203
 3299SOL     OW 9952   2.261   4.697   4.299
 3299SOL    HW1 9953   2.220   4.614   4.272
 3299SOL    HW2 9954   2.200   4.764   4.268
 3300SOL     OW 9955   4.137   3.938   2.709
 3300SOL    HW1 9956   4.193   3.980   2.775
 3300SOL    HW2 9957   4.049   3.944   2.745
 3301SOL     OW 9958   0.550   3.604   4.238
 3301SOL    HW1 9959   0.567   3.559   4.155
 3301SOL    HW2 9960   0.474   3.559   4.274
 3302SOL     OW 9961   1.195   1.514   1.077
 3302SOL    HW1 9962   1.106   1.495   1.104
 3302SOL    HW2 9963   1.249   1.453   1.127
 3303SOL     OW 9964   0.204   2.596   0.787
 3303SOL    HW1 9965   0.140   2.625   0.721
 3303SOL    HW2 9966   0.166   2.623   0.870
 3304SOL     OW 9967   2.976   2.842   0.494
 3304SOL    HW1 9968   2.932   2.869   0.575
 3304SOL    HW2 9969   2.908   2.845   0.427
 3305SOL     OW 9970   1.306   0.922   4.561
 3305SOL    HW1 9971   1.302   0.952   4.470
 3305SOL    HW2 9972   1.392   0.951   4.591
 3306SOL     OW 9973   0.372   4.697   3.311
 3306SOL    HW1 9974   0.349   4.628   3.248
 3306SOL    HW2 9975   0.466   4.709   3.300
 3307SOL     OW 9976   3.109   0.834   0.417
 3307SOL    HW1 9977   3.156   0.877   0.488
 3307SOL    HW2 9978   3.175   0.778   0.375
 3308SOL     OW 9979   0.915   4.453   3.912
 3308SOL    HW1 9980   0.896   4.529   3.968
 3308SOL    HW2 9981   1.008   4.460   3.892
 3309SOL     OW 9982   3.418   4.898   4.409
 3309SOL    HW1 9983   3.349   4.896   4.343
 3309SOL    HW2 9984   3.499   4.893   4.358
 3310SOL     OW 9985   4.952   3.440   2.257
 3310SOL    HW1 9986   4.881   3.377   2.248
 3310SOL    HW2 9987   4.978   3.435   2.349
 3311SOL     OW 9988   3.791   2.516   3.484
 3311SOL    HW1 9989   3.751   2.464   3.553
 3311SOL    HW2 9990   3.756   2.478   3.403
 3312SOL     OW 9991   2.929   1.167   0.257
 3312SOL    HW1 9992   2.843   1.145   0.294
 3312SOL    HW2 9993   2.973   1.083   0.244
 3313SOL     OW 9994   0.889   1.678   3.255
 3313SOL    HW1 9995   0.875   1.633   3.171
 3313SOL    HW2 9996   0.926   1.763   3.230
 3314SOL     OW 9997   2.997   3.599   0.583
 3314SOL    HW1 9998   2.915   3.561   0.553
 3314SOL    HW2 9999   3.062   3.569   0.519
 3315SOL     OW10000   4.276   3.924   0.562
 3315SOL    HW110001   4.314   3.959   0.643
 3315SOL    HW210002   4.184   3.909   0.583
 3316SOL     OW10003   3.223   3.551   3.865
 3316SOL    HW110004   3.137   3.514   3.880
 3316SOL    HW210005   3.282   3.476   3.860
 3317SOL     OW10006   3.800   0.286   1.467
 3317SOL    HW110007   3.775   0.361   1.519
 3317SOL    HW210008   3.888   0.307   1.435
 3318SOL     OW10009   1.597   3.995   3.107
 3318SOL    HW110010   1.512   3.996   3.151
 3318SOL    HW210011   1.659   4.026   3.173
 3319SOL     OW10012   0.615   4.171   4.964
 3319SOL    HW110013   0.548   4.121   4.917
 3319SOL    HW210014   0.683   4.188   4.898
 3320SOL     OW10015   0.193   1.617   3.197
 3320SOL    HW110016   0.156   1.563   3.267
 3320SOL    HW210017   0.160   1.578   3.117
 3321SOL     OW10018   1.317   0.410   4.677
 3321SOL    HW110019   1.277   0.481   4.627
 3321SOL    HW210020   1.384   0.451   4.730
 3322SOL     OW10021   2.013   2.166   3.575
 3322SOL    HW110022   1.973   2.233   3.520
 3322SOL    HW210023   1.968   2.173   3.659
 3323SOL     OW10024   1.944   0.493   2.112
 3323SOL    HW110025   2.036   0.479   2.091
 3323SOL    HW210026   1.930   0.444   2.193
 3324SOL     OW10027   1.126   3.778   1.400
 3324SOL    HW110028   1.109   3.723   1.477
 3324SOL    HW210029   1.221   3.781   1.394
 3325SOL     OW10030   4.857   1.701   1.288
 3325SOL    HW110031   4.923   1.676   1.224
 3325SOL    HW210032   4.872   1.644   1.363
 3326SOL     OW10033   1.290   1.324   2.928
 3326SOL    HW110034   1.310   1.418   2.936
 3326SOL    HW210035   1.330   1.284   3.005
 3327SOL     OW10036   0.840   4.241   4.173
 3327SOL    HW110037   0.889   4.323   4.170
 3327SOL    HW210038   0.748   4.268   4.173
 3328SOL     OW10039   2.365   4.647   4.973
 3328SOL    HW110040   2.333   4.737   4.970
 3328SOL    HW210041   2.361   4.623   0.085
 3329SOL     OW10042   4.941   4.047   1.547
 3329SOL    HW110043   4.929   3.960   1.509
 3329SOL    HW210044   0.026   4.033   1.617
 3330SOL     OW10045   0.766   3.460   2.580
 3330SOL    HW110046   0.700   3.527   2.594
 3330SOL    HW210047   0.819   3.493   2.507
 3331SOL     OW10048   4.955   3.670   0.784
 3331SOL    HW110049   4.914   3.674   0.697
 3331SOL    HW210050   4.881   3.661   0.844
 3332SOL     OW10051   4.802   4.616   2.370
 3332SOL    HW110052   4.746   4.671   2.314
 3332SOL    HW210053   4.849   4.678   2.426
 3333SOL     OW10054   1.190   2.003   1.996
 3333SOL    HW110055   1.279   2.035   2.000
 3333SOL    HW210056   1.198   1.916   1.956
 3334SOL     OW10057   0.216   3.792   0.230
 3334SOL    HW110058   0.287   3.809   0.168
 3334SOL    HW210059   0.261   3.782   0.314
 3335SOL     OW10060   0.614   0.583   4.596
 3335SOL    HW110061   0.669   0.637   4.653
 3335SOL    HW210062   0.625   0.494   4.630
 3336SOL     OW10063   2.664   0.520   0.494
 3336SOL    HW110064   2.622   0.552   0.574
 3336SOL    HW210065   2.749   0.486   0.523
 3337SOL     OW10066   0.489   0.707   1.352
 3337SOL    HW110067   0.565   0.755   1.318
 3337SOL    HW210068   0.474   0.744   1.439
 3338SOL     OW10069   4.088   3.072   4.780
 3338SOL    HW110070   4.016   3.064   4.843
 3338SOL    HW210071   4.086   2.989   4.732
 3339SOL     OW10072   3.588   2.487   1.946
 3339SOL    HW110073   3.498   2.508   1.970
 3339SOL    HW210074   3.594   2.513   1.854
 3340SOL     OW10075   2.280   3.149   1.372
 3340SOL    HW110076   2.317   3.061   1.376
 3340SOL    HW210077   2.215   3.145   1.302
 3341SOL     OW10078   1.445   1.689   2.515
 3341SOL    HW110079   1.464   1.683   2.421
 3341SOL    HW210080   1.464   1.780   2.538
 3342SOL     OW10081   3.423   2.614   1.343
 3342SOL    HW110082   3.450   2.687   1.288
 3342SOL    HW210083   3.330   2.602   1.323
 3343SOL     OW10084   1.213   4.876   2.495
 3343SOL    HW110085   1.266   4.849   2.571
 3343SOL    HW210086   1.277   4.902   2.429
 3344SOL     OW10087   2.215   4.661   3.882
 3344SOL    HW110088   2.253   4.640   3.796
 3344SOL    HW210089   2.280   4.630   3.945
 3345SOL     OW10090   0.707   3.355   2.095
 3345SOL    HW110091   0.681   3.265   2.114
 3345SOL    HW210092   0.763   3.380   2.169
 3346SOL     OW10093   0.011   0.716   4.190
 3346SOL    HW110094   4.899   0.699   4.169
 3346SOL    HW210095   0.059   0.654   4.135
 3347SOL     OW10096   0.914   0.544   2.569
 3347SOL    HW110097   0.969   0.503   2.502
 3347SOL    HW210098   0.966   0.617   2.602
 3348SOL     OW10099   4.273   1.952   4.325
 3348SOL    HW110100   4.258   1.872   4.273
 3348SOL    HW210101   4.353   1.990   4.288
 3349SOL     OW10102   2.806   1.154   4.570
 3349SOL    HW110103   2.829   1.232   4.520
 3349SOL    HW210104   2.712   1.142   4.554
 3350SOL     OW10105   3.993   1.504   0.188
 3350SOL    HW110106   4.057   1.442   0.222
 3350SOL    HW210107   4.030   1.590   0.207
 3351SOL     OW10108   3.722   4.843   1.960
 3351SOL    HW110109   3.703   4.761   1.916
 3351SOL    HW210110   3.750   4.818   2.048
 3352SOL     OW10111   2.038   1.210   3.028
 3352SOL    HW110112   2.091   1.266   2.972
 3352SOL    HW210113   2.009   1.267   3.099
 3353SOL     OW10114   0.267   0.441   4.587
 3353SOL    HW110115   0.179   0.403   4.594
 3353SOL    HW210116   0.252   0.535   4.584
 3354SOL     OW10117   1.597   1.499   4.832
 3354SOL    HW110118   1.532   1.560   4.867
 3354SOL    HW210119   1.669   1.555   4.802
 3355SOL     OW10120   2.817   2.071   0.403
 3355SOL    HW110121   2.807   2.036   0.492
 3355SOL    HW210122   2.821   2.166   0.415
 3356SOL     OW10123   3.387   3.569   1.133
 3356SOL    HW110124   3.419   3.656   1.157
 3356SOL    HW210125   3.298   3.566   1.169
 3357SOL     OW10126   3.511   2.149   3.854
 3357SOL    HW110127   3.550   2.188   3.933
 3357SOL    HW210128   3.577   2.087   3.824
 3358SOL     OW10129   1.534   3.529   4.741
 3358SOL    HW110130   1.628   3.520   4.729
 3358SOL    HW210131   1.516   3.489   4.826
 3359SOL     OW10132   0.725   4.228   2.895
 3359SOL    HW110133   0.687   4.217   2.807
 3359SOL    HW210134   0.733   4.139   2.929
 3360SOL     OW10135   1.982   1.497   2.667
 3360SOL    HW110136   1.957   1.527   2.755
 3360SOL    HW210137   2.044   1.564   2.636
 3361SOL     OW10138   3.509   0.205   4.650
 3361SOL    HW110139   3.534   0.123   4.693
 3361SOL    HW210140   3.414   0.201   4.644
 3362SOL     OW10141   2.230   2.953   0.022
 3362SOL    HW110142   2.203   3.043   0.043
 3362SOL    HW210143   2.219   2.905   0.104
 3363SOL     OW10144   2.022   2.935   2.457
 3363SOL    HW110145   1.936   2.972   2.475
 3363SOL    HW210146   2.033   2.866   2.523
 3364SOL     OW10147   2.259   3.104   2.897
 3364SOL    HW110148   2.344   3.060   2.889
 3364SOL    HW210149   2.231   3.118   2.806
 3365SOL     OW10150   4.025   1.888   2.425
 3365SOL    HW110151   4.098   1.841   2.385
 3365SOL    HW210152   3.947   1.841   2.398
 3366SOL     OW10153   0.811   0.201   0.841
 3366SOL    HW110154   0.858   0.200   0.924
 3366SOL    HW210155   0.719   0.196   0.866
 3367SOL     OW10156   1.728   4.699   4.529
 3367SOL    HW110157   1.729   4.628   4.593
 3367SOL    HW210158   1.817   4.734   4.531
 3368SOL     OW10159   0.509   3.737   0.873
 3368SOL    HW110160   0.419   3.745   0.842
 3368SOL    HW210161   0.538   3.828   0.886
 3369SOL     OW10162   1.351   4.711   4.114
 3369SOL    HW110163   1.379   4.752   4.197
 3369SOL    HW210164   1.344   4.618   4.134
 3370SOL     OW10165   4.799   0.248   2.004
 3370SOL    HW110166   4.883   0.218   1.970
 3370SOL    HW210167   4.736   0.221   1.937
 3371SOL     OW10168   4.755   2.416   3.812
 3371SOL    HW110169   4.684   2.477   3.826
 3371SOL    HW210170   4.725   2.334   3.851
 3372SOL     OW10171   0.071   0.185   2.150
 3372SOL    HW110172   0.106   0.214   2.065
 3372SOL    HW210173   0.116   0.240   2.214
 3373SOL     OW10174   1.073   4.712   0.949
 3373SOL    HW110175   1.016   4.647   0.907
 3373SOL    HW210176   1.148   4.661   0.980
 3374SOL     OW10177   1.967   4.368   4.449
 3374SOL    HW110178   1.880   4.387   4.413
 3374SOL    HW210179   1.961   4.278   4.480
 3375SOL     OW10180   2.458   1.821   0.439
 3375SOL    HW110181   2.444   1.915   0.451
 3375SOL    HW210182   2.398   1.780   0.500
 3376SOL     OW10183   0.755   2.520   4.242
 3376SOL    HW110184   0.703   2.455   4.195
 3376SOL    HW210185   0.795   2.573   4.174
 3377SOL     OW10186   2.971   2.509   2.303
 3377SOL    HW110187   3.036   2.497   2.234
 3377SOL    HW210188   2.891   2.533   2.256
 3378SOL     OW10189   1.691   2.362   4.530
 3378SOL    HW110190   1.686   2.451   4.494
 3378SOL    HW210191   1.773   2.361   4.579
 3379SOL     OW10192   2.656   4.500   0.015
 3379SOL    HW110193   2.572   4.456   0.025
 3379SOL    HW210194   2.684   4.479   4.906
 3380SOL     OW10195   0.436   3.861   2.719
 3380SOL    HW110196   0.462   3.952   2.735
 3380SOL    HW210197   0.391   3.863   2.635
 3381SOL     OW10198   2.670   3.096   4.557
 3381SOL    HW110199   2.595   3.153   4.569
 3381SOL    HW210200   2.658   3.026   4.620
 3382SOL     OW10201   1.922   4.432   0.328
 3382SOL    HW110202   1.896   4.514   0.285
 3382SOL    HW210203   1.881   4.436   0.414
 3383SOL     OW10204   0.625   1.221   2.506
 3383SOL    HW110205   0.670   1.192   2.586
 3383SOL    HW210206   0.610   1.315   2.520
 3384SOL     OW10207   2.366   4.519   4.736
 3384SOL    HW110208   2.350   4.591   4.675
 3384SOL    HW210209   2.360   4.560   4.823
 3385SOL     OW10210   3.535   2.133   0.432
 3385SOL    HW110211   3.507   2.185   0.508
 3385SOL    HW210212   3.583   2.194   0.377
 3386SOL     OW10213   3.291   4.783   2.184
 3386SOL    HW110214   3.366   4.742   2.225
 3386SOL    HW210215   3.322   4.812   2.098
 3387SOL     OW10216   2.596   3.106   2.188
 3387SOL    HW110217   2.556   3.173   2.132
 3387SOL    HW210218   2.650   3.156   2.250
 3388SOL     OW10219   3.991   0.641   2.153
 3388SOL    HW110220   3.909   0.613   2.194
 3388SOL    HW210221   4.051   0.568   2.167
 3389SOL     OW10222   1.602   3.217   4.691
 3389SOL    HW110223   1.529   3.228   4.752
 3389SOL    HW210224   1.567   3.248   4.607
 3390SOL     OW10225   1.701   4.123   2.282
 3390SOL    HW110226   1.666   4.110   2.370
 3390SOL    HW210227   1.796   4.134   2.295
 3391SOL     OW10228   0.630   0.827   1.029
 3391SOL    HW110229   0.605   0.741   0.996
 3391SOL    HW210230   0.599   0.889   0.963
 3392SOL     OW10231   2.198   3.550   4.728
 3392SOL    HW110232   2.173   3.623   4.784
 3392SOL    HW210233   2.290   3.567   4.705
 3393SOL     OW10234   3.967   2.361   1.181
 3393SOL    HW110235   3.970   2.268   1.203
 3393SOL    HW210236   3.972   2.364   1.085
 3394SOL     OW10237   3.884   2.668   0.881
 3394SOL    HW110238   3.798   2.631   0.901
 3394SOL    HW210239   3.904   2.725   0.955
 3395SOL     OW10240   4.436   0.538   0.591
 3395SOL    HW110241   4.392   0.581   0.664
 3395SOL    HW210242   4.430   0.444   0.610
 3396SOL     OW10243   4.495   3.578   2.010
 3396SOL    HW110244   4.407   3.612   1.995
 3396SOL    HW210245   4.488   3.528   2.091
 3397SOL     OW10246   0.893   3.667   1.864
 3397SOL    HW110247   0.922   3.633   1.948
 3397SOL    HW210248   0.814   3.618   1.844
 3398SOL     OW10249   3.001   0.944   1.309
 3398SOL    HW110250   2.912   0.914   1.287
 3398SOL    HW210251   3.027   0.997   1.234
 3399SOL     OW10252   3.507   3.120   2.908
 3399SOL    HW110253   3.459   3.201   2.889
 3399SOL    HW210254   3.580   3.121   2.846
 3400SOL     OW10255   4.850   4.698   4.647
 3400SOL    HW110256   4.770   4.741   4.677
 3400SOL    HW210257   4.896   4.671   4.727
 3401SOL     OW10258   3.569   2.954   3.718
 3401SOL    HW110259   3.602   3.040   3.693
 3401SOL    HW210260   3.618   2.893   3.663
 3402SOL     OW10261   3.777   1.839   3.618
 3402SOL    HW110262   3.763   1.747   3.594
 3402SOL    HW210263   3.871   1.846   3.632
 3403SOL     OW10264   4.431   2.950   0.926
 3403SOL    HW110265   4.340   2.922   0.914
 3403SOL    HW210266   4.477   2.917   0.849
 3404SOL     OW10267   2.072   3.201   2.011
 3404SOL    HW110268   2.033   3.115   2.004
 3404SOL    HW210269   2.030   3.241   2.087
 3405SOL     OW10270   2.275   0.371   2.588
 3405SOL    HW110271   2.223   0.343   2.664
 3405SOL    HW210272   2.363   0.337   2.606
 3406SOL     OW10273   4.777   4.819   2.641
 3406SOL    HW110274   4.786   4.906   2.603
 3406SOL    HW210275   4.857   4.806   2.692
 3407SOL     OW10276   2.760   0.047   4.856
 3407SOL    HW110277   2.738   4.936   4.872
 3407SOL    HW210278   2.753   0.089   4.942
 3408SOL     OW10279   1.891   1.007   0.202
 3408SOL    HW110280   1.831   1.072   0.165
 3408SOL    HW210281   1.834   0.934   0.227
 3409SOL     OW10282   1.848   0.324   0.220
 3409SOL    HW110283   1.893   0.329   0.136
 3409SOL    HW210284   1.821   0.233   0.228
 3410SOL     OW10285   4.170   2.476   4.206
 3410SOL    HW110286   4.222   2.524   4.271
 3410SOL    HW210287   4.205   2.504   4.122
 3411SOL     OW10288   4.729   3.181   3.279
 3411SOL    HW110289   4.673   3.197   3.355
 3411SOL    HW210290   4.715   3.089   3.257
 3412SOL     OW10291   4.719   1.224   2.606
 3412SOL    HW110292   4.626   1.210   2.593
 3412SOL    HW210293   4.760   1.197   2.524
 3413SOL     OW10294   0.306   4.500   1.876
 3413SOL    HW110295   0.212   4.517   1.880
 3413SOL    HW210296   0.347   4.587   1.879
 3414SOL     OW10297   1.452   1.159   1.667
 3414SOL    HW110298   1.489   1.227   1.610
 3414SOL    HW210299   1.414   1.095   1.606
 3415SOL     OW10300   4.953   3.309   3.227
 3415SOL    HW110301   0.046   3.251   3.248
 3415SOL    HW210302   4.875   3.258   3.248
 3416SOL     OW10303   4.551   2.623   2.001
 3416SOL    HW110304   4.483   2.664   1.948
 3416SOL    HW210305   4.532   2.651   2.091
 3417SOL     OW10306   2.707   0.062   3.387
 3417SOL    HW110307   2.689   4.954   3.356
 3417SOL    HW210308   2.641   0.117   3.344
 3418SOL     OW10309   3.344   0.838   3.788
 3418SOL    HW110310   3.342   0.747   3.819
 3418SOL    HW210311   3.377   0.832   3.698
 3419SOL     OW10312   3.078   1.609   4.911
 3419SOL    HW110313   3.100   1.580   0.019
 3419SOL    HW210314   3.020   1.684   4.923
 3420SOL     OW10315   3.906   4.673   3.659
 3420SOL    HW110316   3.943   4.758   3.634
 3420SOL    HW210317   3.975   4.610   3.639
 3421SOL     OW10318   3.573   4.979   4.833
 3421SOL    HW110319   3.523   4.911   4.878
 3421SOL    HW210320   3.648   4.933   4.797
 3422SOL     OW10321   4.060   0.504   4.675
 3422SOL    HW110322   4.111   0.423   4.681
 3422SOL    HW210323   4.022   0.502   4.587
 3423SOL     OW10324   2.230   2.484   2.714
 3423SOL    HW110325   2.308   2.430   2.706
 3423SOL    HW210326   2.160   2.430   2.677
 3424SOL     OW10327   1.035   1.975   0.211
 3424SOL    HW110328   1.045   1.988   0.306
 3424SOL    HW210329   0.949   1.933   0.202
 3425SOL     OW10330   0.433   0.675   0.903
 3425SOL    HW110331   0.383   0.596   0.885
 3425SOL    HW210332   0.470   0.700   0.818
 3426SOL     OW10333   2.325   2.745   1.661
 3426SOL    HW110334   2.316   2.761   1.567
 3426SOL    HW210335   2.395   2.679   1.667
 3427SOL     OW10336   0.766   1.679   2.297
 3427SOL    HW110337   0.838   1.742   2.291
 3427SOL    HW210338   0.784   1.630   2.377
 3428SOL     OW10339   2.906   2.831   1.668
 3428SOL    HW110340   2.896   2.917   1.628
 3428SOL    HW210341   2.900   2.848   1.762
 3429SOL     OW10342   3.243   2.577   4.271
 3429SOL    HW110343   3.209   2.572   4.182
 3429SOL    HW210344   3.317   2.638   4.265
 3430SOL     OW10345   0.308   1.187   3.081
 3430SOL    HW110346   0.247   1.167   3.010
 3430SOL    HW210347   0.339   1.101   3.110
 3431SOL     OW10348   2.737   1.621   4.144
 3431SOL    HW110349   2.723   1.708   4.105
 3431SOL    HW210350   2.668   1.612   4.209
 3432SOL     OW10351   1.860   1.140   3.575
 3432SOL    HW110352   1.937   1.193   3.555
 3432SOL    HW210353   1.794   1.202   3.605
 3433SOL     OW10354   2.185   3.175   4.244
 3433SOL    HW110355   2.208   3.227   4.321
 3433SOL    HW210356   2.227   3.090   4.258
 3434SOL     OW10357   2.919   0.495   1.288
 3434SOL    HW110358   2.881   0.578   1.316
 3434SOL    HW210359   3.011   0.516   1.270
 3435SOL     OW10360   2.002   1.628   3.914
 3435SOL    HW110361   1.926   1.675   3.949
 3435SOL    HW210362   1.966   1.546   3.881
 3436SOL     OW10363   2.931   3.106   4.827
 3436SOL    HW110364   3.020   3.125   4.856
 3436SOL    HW210365   2.912   3.019   4.863
 3437SOL     OW10366   4.834   3.452   0.266
 3437SOL    HW110367   4.805   3.364   0.289
 3437SOL    HW210368   4.810   3.463   0.174
 3438SOL     OW10369   2.315   4.664   1.578
 3438SOL    HW110370   2.293   4.599   1.645
 3438SOL    HW210371   2.409   4.677   1.587
 3439SOL     OW10372   0.763   1.094   2.703
 3439SOL    HW110373   0.732   1.010   2.669
 3439SOL    HW210374   0.816   1.071   2.780
 3440SOL     OW10375   1.558   1.133   0.049
 3440SOL    HW110376   1.585   1.070   0.117
 3440SOL    HW210377   1.631   1.195   0.044
 3441SOL     OW10378   0.235   3.086   1.173
 3441SOL    HW110379   0.172   3.155   1.151
 3441SOL    HW210380   0.320   3.125   1.156
 3442SOL     OW10381   0.673   0.857   2.560
 3442SOL    HW110382   0.599   0.864   2.500
 3442SOL    HW210383   0.663   0.770   2.600
 3443SOL     OW10384   0.084   1.189   3.304
 3443SOL    HW110385   0.155   1.182   3.239
 3443SOL    HW210386   0.014   1.134   3.269
 3444SOL     OW10387   4.217   0.130   2.819
 3444SOL    HW110388   4.242   0.199   2.757
 3444SOL    HW210389   4.242   0.048   2.776
 3445SOL     OW10390   4.430   3.299   3.288
 3445SOL    HW110391   4.459   3.379   3.244
 3445SOL    HW210392   4.429   3.233   3.219
 3446SOL     OW10393   0.690   0.942   3.486
 3446SOL    HW110394   0.749   0.934   3.561
 3446SOL    HW210395   0.642   0.859   3.485
 3447SOL     OW10396   1.508   1.111   0.649
 3447SOL    HW110397   1.520   1.203   0.670
 3447SOL    HW210398   1.559   1.064   0.715
 3448SOL     OW10399   4.027   0.928   4.869
 3448SOL    HW110400   3.940   0.970   4.869
 3448SOL    HW210401   4.084   0.991   4.912
 3449SOL     OW10402   2.754   1.888   1.790
 3449SOL    HW110403   2.660   1.895   1.772
 3449SOL    HW210404   2.795   1.888   1.703
 3450SOL     OW10405   0.110   1.961   3.340
 3450SOL    HW110406   0.148   2.048   3.325
 3450SOL    HW210407   0.129   1.913   3.259
 3451SOL     OW10408   4.288   1.710   1.692
 3451SOL    HW110409   4.286   1.764   1.614
 3451SOL    HW210410   4.254   1.765   1.761
 3452SOL     OW10411   2.037   2.614   2.007
 3452SOL    HW110412   2.058   2.670   2.082
 3452SOL    HW210413   2.118   2.614   1.955
 3453SOL     OW10414   4.843   1.206   2.366
 3453SOL    HW110415   4.866   1.183   2.276
 3453SOL    HW210416   4.805   1.294   2.359
 3454SOL     OW10417   3.148   2.197   0.463
 3454SOL    HW110418   3.189   2.119   0.501
 3454SOL    HW210419   3.089   2.229   0.531
 3455SOL     OW10420   3.568   4.461   4.058
 3455SOL    HW110421   3.546   4.457   3.965
 3455SOL    HW210422   3.542   4.375   4.093
 3456SOL     OW10423   0.242   4.728   4.954
 3456SOL    HW110424   0.252   4.715   0.068
 3456SOL    HW210425   0.281   4.814   4.937
 3457SOL     OW10426   0.494   3.762   2.973
 3457SOL    HW110427   0.508   3.667   2.971
 3457SOL    HW210428   0.450   3.781   2.890
 3458SOL     OW10429   3.324   0.316   1.236
 3458SOL    HW110430   3.331   0.294   1.144
 3458SOL    HW210431   3.382   0.254   1.281
 3459SOL     OW10432   3.259   3.485   3.330
 3459SOL    HW110433   3.193   3.499   3.262
 3459SOL    HW210434   3.209   3.465   3.409
 3460SOL     OW10435   2.589   0.407   2.999
 3460SOL    HW110436   2.658   0.393   2.934
 3460SOL    HW210437   2.515   0.356   2.966
 3461SOL     OW10438   3.369   3.252   2.605
 3461SOL    HW110439   3.298   3.193   2.632
 3461SOL    HW210440   3.417   3.203   2.539
 3462SOL     OW10441   1.490   1.247   4.750
 3462SOL    HW110442   1.527   1.167   4.789
 3462SOL    HW210443   1.537   1.318   4.793
 3463SOL     OW10444   4.251   4.337   2.422
 3463SOL    HW110445   4.198   4.266   2.457
 3463SOL    HW210446   4.280   4.305   2.336
 3464SOL     OW10447   1.892   3.458   0.509
 3464SOL    HW110448   1.835   3.504   0.447
 3464SOL    HW210449   1.978   3.497   0.496
 3465SOL     OW10450   0.313   3.108   4.226
 3465SOL    HW110451   0.354   3.192   4.207
 3465SOL    HW210452   0.324   3.057   4.145
 3466SOL     OW10453   2.869   0.456   0.686
 3466SOL    HW110454   2.930   0.472   0.613
 3466SOL    HW210455   2.924   0.422   0.756
 3467SOL     OW10456   2.496   2.826   0.620
 3467SOL    HW110457   2.520   2.816   0.712
 3467SOL    HW210458   2.530   2.748   0.577
 3468SOL     OW10459   3.650   2.283   2.641
 3468SOL    HW110460   3.704   2.208   2.619
 3468SOL    HW210461   3.670   2.302   2.732
 3469SOL     OW10462   0.070   0.919   3.052
 3469SOL    HW110463   4.979   0.959   3.102
 3469SOL    HW210464   0.041   0.829   3.038
 3470SOL     OW10465   3.523   1.708   2.967
 3470SOL    HW110466   3.492   1.719   2.877
 3470SOL    HW210467   3.551   1.796   2.994
 3471SOL     OW10468   4.482   3.592   2.624
 3471SOL    HW110469   4.420   3.536   2.577
 3471SOL    HW210470   4.568   3.558   2.601
 3472SOL     OW10471   4.295   4.315   3.316
 3472SOL    HW110472   4.286   4.411   3.315
 3472SOL    HW210473   4.206   4.283   3.302
 3473SOL     OW10474   3.838   4.036   4.824
 3473SOL    HW110475   3.893   4.085   4.885
 3473SOL    HW210476   3.753   4.079   4.828
 3474SOL     OW10477   0.462   2.836   3.169
 3474SOL    HW110478   0.443   2.924   3.201
 3474SOL    HW210479   0.379   2.790   3.175
 3475SOL     OW10480   2.243   2.704   4.306
 3475SOL    HW110481   2.159   2.669   4.337
 3475SOL    HW210482   2.229   2.798   4.300
 3476SOL     OW10483   4.045   1.060   2.204
 3476SOL    HW110484   4.108   0.994   2.177
 3476SOL    HW210485   4.089   1.144   2.186
 3477SOL     OW10486   1.149   4.697   1.672
 3477SOL    HW110487   1.245   4.691   1.675
 3477SOL    HW210488   1.120   4.609   1.648
 3478SOL     OW10489   1.822   0.840   4.148
 3478SOL    HW110490   1.767   0.816   4.073
 3478SOL    HW210491   1.906   0.798   4.130
 3479SOL     OW10492   4.627   3.696   4.044
 3479SOL    HW110493   4.596   3.625   4.100
 3479SOL    HW210494   4.709   3.725   4.085
 3480SOL     OW10495   0.041   3.134   0.606
 3480SOL    HW110496   4.972   3.061   0.644
 3480SOL    HW210497   0.131   3.102   0.602
 3481SOL     OW10498   2.796   4.291   0.657
 3481SOL    HW110499   2.833   4.211   0.694
 3481SOL    HW210500   2.732   4.261   0.592
 3482SOL     OW10501   0.017   3.710   2.277
 3482SOL    HW110502   4.911   3.747   2.259
 3482SOL    HW210503   0.002   3.615   2.278
 3483SOL     OW10504   1.602   2.740   4.562
 3483SOL    HW110505   1.573   2.702   4.645
 3483SOL    HW210506   1.633   2.828   4.585
 3484SOL     OW10507   3.012   4.245   2.751
 3484SOL    HW110508   3.035   4.242   2.844
 3484SOL    HW210509   3.081   4.297   2.710
 3485SOL     OW10510   3.055   4.425   4.219
 3485SOL    HW110511   3.075   4.493   4.282
 3485SOL    HW210512   3.038   4.472   4.137
 3486SOL     OW10513   3.646   0.502   3.800
 3486SOL    HW110514   3.610   0.584   3.833
 3486SOL    HW210515   3.585   0.475   3.731
 3487SOL     OW10516   4.922   4.104   2.717
 3487SOL    HW110517   4.907   4.143   2.631
 3487SOL    HW210518   4.840   4.116   2.763
 3488SOL     OW10519   2.671   1.301   1.501
 3488SOL    HW110520   2.601   1.303   1.435
 3488SOL    HW210521   2.630   1.262   1.578
 3489SOL     OW10522   4.523   4.100   2.223
 3489SOL    HW110523   4.547   4.092   2.315
 3489SOL    HW210524   4.588   4.160   2.186
 3490SOL     OW10525   1.122   3.573   3.780
 3490SOL    HW110526   1.135   3.558   3.874
 3490SOL    HW210527   1.043   3.627   3.775
 3491SOL     OW10528   2.731   0.413   1.064
 3491SOL    HW110529   2.757   0.326   1.031
 3491SOL    HW210530   2.793   0.431   1.135
 3492SOL     OW10531   2.859   4.686   0.546
 3492SOL    HW110532   2.784   4.657   0.495
 3492SOL    HW210533   2.872   4.777   0.520
 3493SOL     OW10534   1.535   1.399   1.771
 3493SOL    HW110535   1.570   1.419   1.858
 3493SOL    HW210536   1.477   1.324   1.785
 3494SOL     OW10537   4.969   1.302   3.614
 3494SOL    HW110538   4.887   1.287   3.567
 3494SOL    HW210539   0.047   1.232   3.583
 3495SOL     OW10540   3.265   2.208   1.287
 3495SOL    HW110541   3.324   2.137   1.311
 3495SOL    HW210542   3.203   2.214   1.360
 3496SOL     OW10543   3.907   0.653   0.708
 3496SOL    HW110544   3.926   0.739   0.746
 3496SOL    HW210545   3.863   0.673   0.625
 3497SOL     OW10546   3.493   4.549   1.990
 3497SOL    HW110547   3.567   4.557   1.930
 3497SOL    HW210548   3.416   4.553   1.934
 3498SOL     OW10549   0.356   4.271   3.097
 3498SOL    HW110550   0.411   4.216   3.153
 3498SOL    HW210551   0.317   4.211   3.034
 3499SOL     OW10552   1.131   0.783   2.613
 3499SOL    HW110553   1.101   0.871   2.635
 3499SOL    HW210554   1.157   0.789   2.521
 3500SOL     OW10555   3.818   3.275   0.813
 3500SOL    HW110556   3.836   3.181   0.807
 3500SOL    HW210557   3.846   3.298   0.901
 3501SOL     OW10558   0.255   1.866   2.321
 3501SOL    HW110559   0.339   1.860   2.275
 3501SOL    HW210560   0.278   1.882   2.412
 3502SOL     OW10561   2.335   4.716   4.546
 3502SOL    HW110562   2.246   4.717   4.581
 3502SOL    HW210563   2.325   4.711   4.451
 3503SOL     OW10564   0.075   3.859   1.230
 3503SOL    HW110565   0.139   3.871   1.300
 3503SOL    HW210566   4.972   3.848   1.275
 3504SOL     OW10567   0.193   1.162   0.532
 3504SOL    HW110568   0.100   1.182   0.543
 3504SOL    HW210569   0.215   1.108   0.609
 3505SOL     OW10570   0.653   3.019   1.511
 3505SOL    HW110571   0.624   3.110   1.525
 3505SOL    HW210572   0.629   3.001   1.420
 3506SOL     OW10573   3.168   2.884   3.106
 3506SOL    HW110574   3.238   2.949   3.103
 3506SOL    HW210575   3.120   2.904   3.186
 3507SOL     OW10576   3.111   1.306   4.950
 3507SOL    HW110577   3.122   1.322   4.856
 3507SOL    HW210578   3.017   1.288   4.959
 3508SOL     OW10579   4.903   2.280   1.983
 3508SOL    HW110580   4.911   2.204   1.925
 3508SOL    HW210581   4.812   2.278   2.013
 3509SOL     OW10582   0.779   1.765   3.534
 3509SOL    HW110583   0.781   1.779   3.440
 3509SOL    HW210584   0.691   1.793   3.561
 3510SOL     OW10585   2.263   4.463   3.691
 3510SOL    HW110586   2.192   4.440   3.631
 3510SOL    HW210587   2.255   4.400   3.763
 3511SOL     OW10588   4.521   1.540   3.102
 3511SOL    HW110589   4.526   1.625   3.146
 3511SOL    HW210590   4.612   1.519   3.080
 3512SOL     OW10591   3.842   4.973   3.887
 3512SOL    HW110592   3.879   4.888   3.912
 3512SOL    HW210593   3.777   0.012   3.955
 3513SOL     OW10594   2.045   0.563   1.385
 3513SOL    HW110595   2.031   0.587   1.293
 3513SOL    HW210596   2.127   0.514   1.384
 3514SOL     OW10597   1.284   1.905   3.113
 3514SOL    HW110598   1.279   1.812   3.135
 3514SOL    HW210599   1.346   1.942   3.176
 3515SOL     OW10600   1.411   4.525   0.224
 3515SOL    HW110601   1.408   4.601   0.283
 3515SOL    HW210602   1.323   4.521   0.185
 3516SOL     OW10603   1.831   4.184   0.256
 3516SOL    HW110604   1.861   4.275   0.261
 3516SOL    HW210605   1.775   4.182   0.178
 3517SOL     OW10606   3.997   0.515   1.728
 3517SOL    HW110607   4.060   0.576   1.691
 3517SOL    HW210608   4.043   0.474   1.801
 3518SOL     OW10609   3.221   0.893   0.666
 3518SOL    HW110610   3.278   0.965   0.692
 3518SOL    HW210611   3.235   0.826   0.732
 3519SOL     OW10612   0.168   3.910   3.425
 3519SOL    HW110613   0.086   3.877   3.387
 3519SOL    HW210614   0.235   3.886   3.360
 3520SOL     OW10615   0.880   1.304   1.798
 3520SOL    HW110616   0.953   1.335   1.852
 3520SOL    HW210617   0.913   1.310   1.708
 3521SOL     OW10618   0.066   3.380   0.980
 3521SOL    HW110619   0.053   3.285   0.973
 3521SOL    HW210620   0.147   3.397   0.932
 3522SOL     OW10621   1.507   4.646   3.481
 3522SOL    HW110622   1.544   4.624   3.395
 3522SOL    HW210623   1.413   4.642   3.468
 3523SOL     OW10624   2.098   4.496   4.239
 3523SOL    HW110625   2.061   4.475   4.324
 3523SOL    HW210626   2.037   4.458   4.176
 3524SOL     OW10627   4.111   3.600   2.797
 3524SOL    HW110628   4.032   3.648   2.822
 3524SOL    HW210629   4.183   3.657   2.822
 3525SOL     OW10630   3.285   3.506   2.681
 3525SOL    HW110631   3.345   3.434   2.663
 3525SOL    HW210632   3.333   3.584   2.656
 3526SOL     OW10633   0.034   4.589   1.950
 3526SOL    HW110634   0.034   4.575   1.855
 3526SOL    HW210635   4.945   4.531   1.982
 3527SOL     OW10636   3.679   2.291   4.902
 3527SOL    HW110637   3.735   2.300   4.979
 3527SOL    HW210638   3.593   2.322   4.931
 3528SOL     OW10639   0.843   1.787   0.347
 3528SOL    HW110640   0.850   1.753   0.436
 3528SOL    HW210641   0.874   1.716   0.291
 3529SOL     OW10642   4.187   1.232   0.544
 3529SOL    HW110643   4.104   1.197   0.513
 3529SOL    HW210644   4.182   1.227   0.639
 3530SOL     OW10645   1.930   2.113   1.201
 3530SOL    HW110646   1.969   2.153   1.278
 3530SOL    HW210647   2.005   2.090   1.145
 3531SOL     OW10648   4.848   3.002   1.680
 3531SOL    HW110649   4.852   2.957   1.596
 3531SOL    HW210650   4.814   2.937   1.741
 3532SOL     OW10651   0.593   4.480   4.724
 3532SOL    HW110652   0.558   4.484   4.635
 3532SOL    HW210653   0.671   4.426   4.717
 3533SOL     OW10654   3.728   0.790   3.915
 3533SOL    HW110655   3.729   0.724   3.984
 3533SOL    HW210656   3.800   0.766   3.857
 3534SOL     OW10657   3.081   1.183   1.622
 3534SOL    HW110658   3.052   1.092   1.609
 3534SOL    HW210659   3.159   1.191   1.566
 3535SOL     OW10660   2.424   1.815   1.197
 3535SOL    HW110661   2.410   1.723   1.219
 3535SOL    HW210662   2.410   1.819   1.102
 3536SOL     OW10663   4.558   3.484   2.262
 3536SOL    HW110664   4.598   3.413   2.313
 3536SOL    HW210665   4.465   3.481   2.288
 3537SOL     OW10666   0.707   3.408   0.358
 3537SOL    HW110667   0.679   3.336   0.414
 3537SOL    HW210668   0.778   3.450   0.408
 3538SOL     OW10669   3.436   4.073   1.831
 3538SOL    HW110670   3.525   4.107   1.842
 3538SOL    HW210671   3.387   4.146   1.793
 3539SOL     OW10672   4.499   4.877   3.760
 3539SOL    HW110673   4.461   4.923   3.685
 3539SOL    HW210674   4.564   4.817   3.722
 3540SOL     OW10675   2.452   2.289   1.195
 3540SOL    HW110676   2.496   2.350   1.254
 3540SOL    HW210677   2.374   2.336   1.165
 3541SOL     OW10678   3.822   3.622   3.676
 3541SOL    HW110679   3.901   3.618   3.731
 3541SOL    HW210680   3.850   3.670   3.598
 3542SOL     OW10681   4.386   4.037   0.819
 3542SOL    HW110682   4.392   4.059   0.912
 3542SOL    HW210683   4.384   4.122   0.775
 3543SOL     OW10684   2.862   3.895   4.408
 3543SOL    HW110685   2.805   3.970   4.393
 3543SOL    HW210686   2.890   3.904   4.499
 3544SOL     OW10687   4.856   0.357   4.683
 3544SOL    HW110688   4.858   0.290   4.614
 3544SOL    HW210689   4.831   0.437   4.638
 3545SOL     OW10690   3.454   0.144   3.095
 3545SOL    HW110691   3.542   0.147   3.057
 3545SOL    HW210692   3.430   0.052   3.092
 3546SOL     OW10693   4.239   2.930   1.395
 3546SOL    HW110694   4.279   3.017   1.393
 3546SOL    HW210695   4.270   2.892   1.477
 3547SOL     OW10696   3.092   1.111   4.613
 3547SOL    HW110697   3.001   1.129   4.588
 3547SOL    HW210698   3.122   1.048   4.547
 3548SOL     OW10699   3.021   0.042   2.045
 3548SOL    HW110700   3.107   0.063   2.008
 3548SOL    HW210701   2.960   0.056   1.973
 3549SOL     OW10702   1.330   1.211   1.911
 3549SOL    HW110703   1.343   1.129   1.864
 3549SOL    HW210704   1.317   1.186   2.003
 3550SOL     OW10705   1.067   3.064   3.745
 3550SOL    HW110706   1.077   3.099   3.833
 3550SOL    HW210707   1.069   3.142   3.688
 3551SOL     OW10708   1.639   3.725   2.307
 3551SOL    HW110709   1.622   3.787   2.236
 3551SOL    HW210710   1.555   3.714   2.351
 3552SOL     OW10711   4.775   0.375   3.611
 3552SOL    HW110712   4.751   0.451   3.665
 3552SOL    HW210713   4.693   0.326   3.601
 3553SOL     OW10714   3.714   0.331   4.549
 3553SOL    HW110715   3.769   0.263   4.509
 3553SOL    HW210716   3.632   0.286   4.569
 3554SOL     OW10717   2.686   4.348   2.374
 3554SOL    HW110718   2.743   4.356   2.450
 3554SOL    HW210719   2.645   4.434   2.365
 3555SOL     OW10720   2.688   1.635   0.505
 3555SOL    HW110721   2.740   1.623   0.425
 3555SOL    HW210722   2.609   1.680   0.475
 3556SOL     OW10723   2.372   1.125   2.414
 3556SOL    HW110724   2.354   1.046   2.465
 3556SOL    HW210725   2.422   1.181   2.473
 3557SOL     OW10726   4.922   2.829   1.485
 3557SOL    HW110727   0.020   2.829   1.429
 3557SOL    HW210728   4.893   2.738   1.485
 3558SOL     OW10729   2.413   1.390   4.055
 3558SOL    HW110730   2.489   1.407   3.999
 3558SOL    HW210731   2.378   1.307   4.023
 3559SOL     OW10732   4.402   0.269   3.243
 3559SOL    HW110733   4.498   0.263   3.241
 3559SOL    HW210734   4.376   0.266   3.151
 3560SOL     OW10735   3.033   4.463   4.745
 3560SOL    HW110736   2.940   4.447   4.764
 3560SOL    HW210737   3.051   4.409   4.669
 3561SOL     OW10738   0.221   2.486   4.331
 3561SOL    HW110739   0.296   2.432   4.357
 3561SOL    HW210740   0.145   2.430   4.346
 3562SOL     OW10741   2.714   2.013   4.791
 3562SOL    HW110742   2.630   2.021   4.746
 3562SOL    HW210743   2.707   2.073   4.865
 3563SOL     OW10744   4.298   1.762   0.149
 3563SOL    HW110745   4.243   1.755   0.071
 3563SOL    HW210746   4.364   1.694   0.138
 3564SOL     OW10747   2.580   3.388   0.254
 3564SOL    HW110748   2.496   3.421   0.222
 3564SOL    HW210749   2.619   3.345   0.178
 3565SOL     OW10750   1.075   2.468   0.516
 3565SOL    HW110751   0.980   2.463   0.511
 3565SOL    HW210752   1.097   2.432   0.602
 3566SOL     OW10753   0.170   4.910   1.895
 3566SOL    HW110754   0.171   4.873   1.983
 3566SOL    HW210755   0.159   0.024   1.909
 3567SOL     OW10756   3.860   3.141   0.269
 3567SOL    HW110757   3.779   3.107   0.307
 3567SOL    HW210758   3.835   3.169   0.181
 3568SOL     OW10759   0.386   4.975   4.856
 3568SOL    HW110760   0.417   4.965   4.945
 3568SOL    HW210761   0.346   0.082   4.854
 3569SOL     OW10762   4.008   0.108   1.269
 3569SOL    HW110763   3.968   0.027   1.303
 3569SOL    HW210764   3.959   0.127   1.189
 3570SOL     OW10765   1.100   1.211   4.197
 3570SOL    HW110766   1.140   1.141   4.146
 3570SOL    HW210767   1.150   1.289   4.173
 3571SOL     OW10768   3.235   4.394   2.578
 3571SOL    HW110769   3.194   4.380   2.492
 3571SOL    HW210770   3.297   4.322   2.586
 3572SOL     OW10771   4.293   1.665   1.293
 3572SOL    HW110772   4.296   1.587   1.349
 3572SOL    HW210773   4.314   1.738   1.352
 3573SOL     OW10774   0.933   1.919   1.815
 3573SOL    HW110775   0.903   1.829   1.816
 3573SOL    HW210776   0.924   1.946   1.723
 3574SOL     OW10777   0.309   4.131   1.211
 3574SOL    HW110778   0.346   4.116   1.124
 3574SOL    HW210779   0.322   4.049   1.258
 3575SOL     OW10780   4.701   1.669   2.652
 3575SOL    HW110781   4.675   1.746   2.602
 3575SOL    HW210782   4.660   1.595   2.606
 3576SOL     OW10783   1.584   0.604   4.558
 3576SOL    HW110784   1.545   0.631   4.641
 3576SOL    HW210785   1.614   0.687   4.519
 3577SOL     OW10786   1.957   1.538   3.587
 3577SOL    HW110787   1.931   1.449   3.611
 3577SOL    HW210788   1.886   1.594   3.619
 3578SOL     OW10789   0.915   3.332   2.258
 3578SOL    HW110790   0.987   3.328   2.194
 3578SOL    HW210791   0.935   3.263   2.321
 3579SOL     OW10792   0.054   2.116   4.258
 3579SOL    HW110793   0.043   2.049   4.325
 3579SOL    HW210794   0.142   2.150   4.272
 3580SOL     OW10795   2.521   2.868   2.302
 3580SOL    HW110796   2.500   2.817   2.224
 3580SOL    HW210797   2.539   2.956   2.270
 3581SOL     OW10798   0.842   1.062   0.260
 3581SOL    HW110799   0.799   0.985   0.297
 3581SOL    HW210800   0.771   1.119   0.231
 3582SOL     OW10801   3.303   1.037   3.158
 3582SOL    HW110802   3.369   1.057   3.225
 3582SOL    HW210803   3.290   1.119   3.111
 3583SOL     OW10804   1.851   2.634   0.015
 3583SOL    HW110805   1.829   2.554   4.948
 3583SOL    HW210806   1.945   2.643   0.005
 3584SOL     OW10807   4.675   3.964   4.782
 3584SOL    HW110808   4.706   3.892   4.726
 3584SOL    HW210809   4.614   4.013   4.727
 3585SOL     OW10810   4.636   2.781   2.988
 3585SOL    HW110811   4.728   2.799   2.971
 3585SOL    HW210812   4.621   2.694   2.953
 3586SOL     OW10813   1.187   1.119   1.358
 3586SOL    HW110814   1.278   1.090   1.367
 3586SOL    HW210815   1.156   1.075   1.279
 3587SOL     OW10816   4.811   4.010   4.340
 3587SOL    HW110817   4.822   4.103   4.361
 3587SOL    HW210818   4.724   3.988   4.372
 3588SOL     OW10819   4.861   0.176   3.155
 3588SOL    HW110820   4.916   0.215   3.222
 3588SOL    HW210821   4.812   0.108   3.200
 3589SOL     OW10822   1.644   0.981   1.821
 3589SOL    HW110823   1.581   1.038   1.777
 3589SOL    HW210824   1.617   0.892   1.797
 3590SOL     OW10825   2.906   1.600   3.041
 3590SOL    HW110826   2.928   1.692   3.027
 3590SOL    HW210827   2.869   1.597   3.129
 3591SOL     OW10828   2.335   0.921   2.580
 3591SOL    HW110829   2.242   0.915   2.599
 3591SOL    HW210830   2.370   0.836   2.606
 3592SOL     OW10831   4.367   0.714   1.269
 3592SOL    HW110832   4.280   0.706   1.308
 3592SOL    HW210833   4.427   0.699   1.343
 3593SOL     OW10834   2.308   2.181   3.581
 3593SOL    HW110835   2.320   2.123   3.656
 3593SOL    HW210836   2.216   2.207   3.584
 3594SOL     OW10837   4.421   2.369   2.251
 3594SOL    HW110838   4.464   2.423   2.317
 3594SOL    HW210839   4.360   2.429   2.207
 3595SOL     OW10840   4.180   4.384   0.464
 3595SOL    HW110841   4.244   4.335   0.515
 3595SOL    HW210842   4.227   4.409   0.384
 3596SOL     OW10843   1.378   4.623   2.078
 3596SOL    HW110844   1.467   4.656   2.092
 3596SOL    HW210845   1.368   4.552   2.142
 3597SOL     OW10846   4.691   2.259   2.229
 3597SOL    HW110847   4.608   2.305   2.233
 3597SOL    HW210848   4.755   2.321   2.262
 3598SOL     OW10849   3.931   0.375   0.904
 3598SOL    HW110850   3.844   0.379   0.864
 3598SOL    HW210851   3.960   0.466   0.905
 3599SOL     OW10852   1.918   4.151   3.763
 3599SOL    HW110853   1.945   4.203   3.687
 3599SOL    HW210854   1.962   4.067   3.751
 3600SOL     OW10855   3.896   0.590   2.831
 3600SOL    HW110856   3.871   0.537   2.755
 3600SOL    HW210857   3.963   0.650   2.798
 3601SOL     OW10858   4.724   4.232   2.089
 3601SOL    HW110859   4.724   4.326   2.073
 3601SOL    HW210860   4.738   4.192   2.003
 3602SOL     OW10861   4.401   1.533   3.843
 3602SOL    HW110862   4.469   1.599   3.854
 3602SOL    HW210863   4.433   1.476   3.773
 3603SOL     OW10864   2.591   3.454   3.831
 3603SOL    HW110865   2.639   3.521   3.783
 3603SOL    HW210866   2.614   3.372   3.787
 3604SOL     OW10867   1.988   1.412   0.883
 3604SOL    HW110868   1.955   1.362   0.958
 3604SOL    HW210869   1.948   1.370   0.807
 3605SOL     OW10870   3.229   3.632   4.173
 3605SOL    HW110871   3.232   3.547   4.127
 3605SOL    HW210872   3.160   3.622   4.238
 3606SOL     OW10873   2.055   3.362   4.057
 3606SOL    HW110874   2.086   3.387   3.970
 3606SOL    HW210875   2.120   3.300   4.089
 3607SOL     OW10876   3.207   2.948   0.844
 3607SOL    HW110877   3.268   3.011   0.883
 3607SOL    HW210878   3.252   2.918   0.764
 3608SOL     OW10879   2.294   3.933   4.728
 3608SOL    HW110880   2.256   3.909   4.643
 3608SOL    HW210881   2.292   4.029   4.729
 3609SOL     OW10882   1.562   0.409   1.212
 3609SOL    HW110883   1.511   0.333   1.185
 3609SOL    HW210884   1.592   0.388   1.301
 3610SOL     OW10885   3.267   4.540   0.723
 3610SOL    HW110886   3.187   4.490   0.702
 3610SOL    HW210887   3.330   4.513   0.656
 3611SOL     OW10888   0.697   4.604   0.432
 3611SOL    HW110889   0.660   4.604   0.344
 3611SOL    HW210890   0.789   4.629   0.420
 3612SOL     OW10891   3.956   0.795   3.505
 3612SOL    HW110892   3.920   0.713   3.539
 3612SOL    HW210893   4.023   0.820   3.568
 3613SOL     OW10894   3.350   2.598   1.621
 3613SOL    HW110895   3.407   2.585   1.545
 3613SOL    HW210896   3.340   2.511   1.658
 3614SOL     OW10897   2.329   3.218   4.930
 3614SOL    HW110898   2.331   3.278   0.024
 3614SOL    HW210899   2.396   3.152   4.950
 3615SOL     OW10900   2.538   0.585   1.221
 3615SOL    HW110901   2.527   0.670   1.179
 3615SOL    HW210902   2.567   0.527   1.150
 3616SOL     OW10903   0.630   0.447   1.682
 3616SOL    HW110904   0.637   0.542   1.693
 3616SOL    HW210905   0.645   0.432   1.589
 3617SOL     OW10906   0.334   2.846   4.136
 3617SOL    HW110907   0.300   2.793   4.209
 3617SOL    HW210908   0.428   2.851   4.152
 3618SOL     OW10909   0.418   2.535   0.649
 3618SOL    HW110910   0.376   2.565   0.568
 3618SOL    HW210911   0.357   2.558   0.719
 3619SOL     OW10912   4.558   4.253   0.035
 3619SOL    HW110913   4.562   4.313   4.941
 3619SOL    HW210914   4.639   4.270   0.083
 3620SOL     OW10915   0.441   4.100   3.870
 3620SOL    HW110916   0.346   4.115   3.874
 3620SOL    HW210917   0.469   4.146   3.791
 3621SOL     OW10918   2.678   1.451   2.600
 3621SOL    HW110919   2.743   1.484   2.662
 3621SOL    HW210920   2.620   1.526   2.584
 3622SOL     OW10921   2.537   3.950   4.521
 3622SOL    HW110922   2.500   3.880   4.468
 3622SOL    HW210923   2.596   3.996   4.461
 3623SOL     OW10924   1.907   1.793   1.555
 3623SOL    HW110925   1.831   1.850   1.563
 3623SOL    HW210926   1.980   1.852   1.535
 3624SOL     OW10927   1.585   1.300   3.908
 3624SOL    HW110928   1.498   1.282   3.872
 3624SOL    HW210929   1.593   1.241   3.982
 3625SOL     OW10930   3.421   2.112   1.967
 3625SOL    HW110931   3.408   2.147   2.056
 3625SOL    HW210932   3.512   2.134   1.946
 3626SOL     OW10933   0.846   3.563   3.108
 3626SOL    HW110934   0.915   3.625   3.082
 3626SOL    HW210935   0.893   3.481   3.123
 3627SOL     OW10936   4.976   1.687   1.067
 3627SOL    HW110937   0.026   1.679   0.976
 3627SOL    HW210938   0.026   1.774   1.094
 3628SOL     OW10939   4.007   3.127   2.596
 3628SOL    HW110940   4.009   3.102   2.689
 3628SOL    HW210941   4.045   3.214   2.594
 3629SOL     OW10942   2.366   1.743   2.785
 3629SOL    HW110943   2.359   1.662   2.836
 3629SOL    HW210944   2.421   1.719   2.710
 3630SOL     OW10945   2.679   1.768   1.270
 3630SOL    HW110946   2.724   1.727   1.196
 3630SOL    HW210947   2.586   1.763   1.249
 3631SOL     OW10948   3.504   1.123   2.409
 3631SOL    HW110949   3.517   1.049   2.469
 3631SOL    HW210950   3.530   1.088   2.323
 3632SOL     OW10951   4.737   3.750   2.836
 3632SOL    HW110952   4.737   3.771   2.929
 3632SOL    HW210953   4.733   3.655   2.832
 3633SOL     OW10954   2.576   2.577   1.139
 3633SOL    HW110955   2.618   2.555   1.056
 3633SOL    HW210956   2.649   2.595   1.198
 3634SOL     OW10957   0.303   4.529   3.130
 3634SOL    HW110958   0.268   4.566   3.048
 3634SOL    HW210959   0.323   4.438   3.108
 3635SOL     OW10960   4.165   3.632   3.445
 3635SOL    HW110961   4.127   3.546   3.463
 3635SOL    HW210962   4.192   3.628   3.353
 3636SOL     OW10963   2.490   1.404   2.244
 3636SOL    HW110964   2.575   1.381   2.280
 3636SOL    HW210965   2.428   1.381   2.313
 3637SOL     OW10966   2.329   1.516   2.932
 3637SOL    HW110967   2.266   1.509   3.004
 3637SOL    HW210968   2.351   1.426   2.910
 3638SOL     OW10969   0.418   2.738   2.295
 3638SOL    HW110970   0.424   2.668   2.359
 3638SOL    HW210971   0.498   2.731   2.243
 3639SOL     OW10972   4.158   3.885   4.265
 3639SOL    HW110973   4.163   3.829   4.188
 3639SOL    HW210974   4.218   3.957   4.246
 3640SOL     OW10975   0.965   1.618   3.667
 3640SOL    HW110976   0.979   1.671   3.745
 3640SOL    HW210977   0.898   1.665   3.618
 3641SOL     OW10978   0.271   3.195   2.689
 3641SOL    HW110979   0.322   3.273   2.667
 3641SOL    HW210980   0.299   3.172   2.777
 3642SOL     OW10981   4.263   1.379   1.078
 3642SOL    HW110982   4.344   1.430   1.084
 3642SOL    HW210983   4.281   1.300   1.129
 3643SOL     OW10984   4.542   3.310   4.805
 3643SOL    HW110985   4.457   3.292   4.765
 3643SOL    HW210986   4.593   3.231   4.787
 3644SOL     OW10987   0.382   3.173   1.655
 3644SOL    HW110988   0.311   3.224   1.616
 3644SOL    HW210989   0.363   3.083   1.628
 3645SOL     OW10990   3.163   4.106   2.470
 3645SOL    HW110991   3.089   4.147   2.425
 3645SOL    HW210992   3.144   4.012   2.466
 3646SOL     OW10993   2.067   1.597   1.657
 3646SOL    HW110994   2.007   1.665   1.627
 3646SOL    HW210995   2.132   1.643   1.710
 3647SOL     OW10996   3.981   2.553   0.173
 3647SOL    HW110997   3.982   2.591   0.085
 3647SOL    HW210998   3.893   2.517   0.183
 3648SOL     OW10999   2.615   1.940   3.743
 3648SOL    HW111000   2.710   1.954   3.739
 3648SOL    HW211001   2.585   1.951   3.653
 3649SOL     OW11002   4.576   3.135   3.604
 3649SOL    HW111003   4.586   3.040   3.604
 3649SOL    HW211004   4.654   3.168   3.647
 3650SOL     OW11005   2.405   1.900   0.928
 3650SOL    HW111006   2.492   1.938   0.916
 3650SOL    HW211007   2.352   1.940   0.860
 3651SOL     OW11008   2.391   1.242   4.407
 3651SOL    HW111009   2.484   1.255   4.388
 3651SOL    HW211010   2.390   1.201   4.494
 3652SOL     OW11011   0.295   1.562   1.626
 3652SOL    HW111012   0.340   1.646   1.634
 3652SOL    HW211013   0.296   1.525   1.714
 3653SOL     OW11014   0.225   1.814   4.418
 3653SOL    HW111015   0.316   1.831   4.395
 3653SOL    HW211016   0.195   1.749   4.354
 3654SOL     OW11017   2.495   3.572   4.630
 3654SOL    HW111018   2.489   3.612   4.543
 3654SOL    HW211019   2.569   3.615   4.671
 3655SOL     OW11020   3.659   2.625   0.024
 3655SOL    HW111021   3.601   2.549   0.033
 3655SOL    HW211022   3.607   2.690   4.959
 3656SOL     OW11023   2.174   1.372   2.392
 3656SOL    HW111024   2.087   1.340   2.417
 3656SOL    HW211025   2.226   1.292   2.382
 3657SOL     OW11026   4.977   1.080   1.388
 3657SOL    HW111027   0.072   1.042   1.343
 3657SOL    HW211028   0.011   1.059   1.480
 3658SOL     OW11029   1.336   0.776   1.942
 3658SOL    HW111030   1.398   0.746   1.876
 3658SOL    HW211031   1.385   0.773   2.025
 3659SOL     OW11032   3.280   2.080   0.702
 3659SOL    HW111033   3.216   2.010   0.692
 3659SOL    HW211034   3.302   2.079   0.796
 3660SOL     OW11035   3.133   3.568   1.220
 3660SOL    HW111036   3.054   3.608   1.182
 3660SOL    HW211037   3.100   3.514   1.292
 3661SOL     OW11038   0.803   0.705   4.291
 3661SOL    HW111039   0.891   0.731   4.320
 3661SOL    HW211040   0.745   0.772   4.328
 3662SOL     OW11041   4.210   0.653   0.736
 3662SOL    HW111042   4.116   0.656   0.751
 3662SOL    HW211043   4.249   0.650   0.823
 3663SOL     OW11044   2.872   2.724   2.755
 3663SOL    HW111045   2.947   2.750   2.701
 3663SOL    HW211046   2.894   2.754   2.843
 3664SOL     OW11047   1.012   0.409   2.911
 3664SOL    HW111048   1.019   0.488   2.858
 3664SOL    HW211049   1.097   0.400   2.954
 3665SOL     OW11050   2.414   1.454   1.717
 3665SOL    HW111051   2.485   1.478   1.776
 3665SOL    HW211052   2.412   1.523   1.651
 3666SOL     OW11053   3.776   2.642   1.474
 3666SOL    HW111054   3.851   2.684   1.432
 3666SOL    HW211055   3.775   2.553   1.437
 3667SOL     OW11056   3.170   1.064   3.809
 3667SOL    HW111057   3.220   0.983   3.815
 3667SOL    HW211058   3.102   1.056   3.876
 3668SOL     OW11059   2.660   0.815   4.261
 3668SOL    HW111060   2.668   0.722   4.281
 3668SOL    HW211061   2.748   0.850   4.278
 3669SOL     OW11062   3.787   2.341   3.210
 3669SOL    HW111063   3.878   2.356   3.236
 3669SOL    HW211064   3.763   2.258   3.251
 3670SOL     OW11065   0.585   0.432   2.435
 3670SOL    HW111066   0.497   0.426   2.396
 3670SOL    HW211067   0.608   0.342   2.456
 3671SOL     OW11068   0.899   4.772   3.598
 3671SOL    HW111069   0.945   4.815   3.670
 3671SOL    HW211070   0.807   4.798   3.610
 3672SOL     OW11071   1.798   1.499   3.355
 3672SOL    HW111072   1.726   1.437   3.369
 3672SOL    HW211073   1.836   1.511   3.442
 3673SOL     OW11074   4.359   3.594   0.332
 3673SOL    HW111075   4.429   3.629   0.387
 3673SOL    HW211076   4.398   3.589   0.244
 3674SOL     OW11077   4.638   0.900   4.392
 3674SOL    HW111078   4.673   0.811   4.395
 3674SOL    HW211079   4.553   0.894   4.435
 3675SOL     OW11080   1.170   2.850   2.587
 3675SOL    HW111081   1.203   2.869   2.499
 3675SOL    HW211082   1.228   2.899   2.646
 3676SOL     OW11083   1.446   3.567   0.403
 3676SOL    HW111084   1.468   3.489   0.454
 3676SOL    HW211085   1.483   3.551   0.317
 3677SOL     OW11086   3.789   3.405   2.806
 3677SOL    HW111087   3.844   3.402   2.729
 3677SOL    HW211088   3.846   3.376   2.878
 3678SOL     OW11089   0.613   4.379   3.325
 3678SOL    HW111090   0.655   4.313   3.379
 3678SOL    HW211091   0.524   4.387   3.361
 3679SOL     OW11092   1.246   4.621   3.433
 3679SOL    HW111093   1.155   4.611   3.460
 3679SOL    HW211094   1.249   4.585   3.345
 3680SOL     OW11095   3.194   2.548   0.201
 3680SOL    HW111096   3.219   2.611   0.268
 3680SOL    HW211097   3.272   2.537   0.148
 3681SOL     OW11098   3.098   2.244   3.984
 3681SOL    HW111099   3.134   2.290   4.060
 3681SOL    HW211100   3.169   2.186   3.955
 3682SOL     OW11101   2.102   3.649   3.360
 3682SOL    HW111102   2.060   3.569   3.392
 3682SOL    HW211103   2.132   3.627   3.272
 3683SOL     OW11104   2.168   1.340   1.649
 3683SOL    HW111105   2.114   1.419   1.652
 3683SOL    HW211106   2.257   1.371   1.667
 3684SOL     OW11107   0.666   1.542   3.853
 3684SOL    HW111108   0.697   1.550   3.944
 3684SOL    HW211109   0.600   1.611   3.844
 3685SOL     OW11110   1.966   4.235   3.471
 3685SOL    HW111111   2.037   4.236   3.407
 3685SOL    HW211112   1.973   4.320   3.515
 3686SOL     OW11113   3.703   0.450   0.719
 3686SOL    HW111114   3.759   0.527   0.710
 3686SOL    HW211115   3.721   0.397   0.642
 3687SOL     OW11116   4.336   3.197   1.488
 3687SOL    HW111117   4.351   3.175   1.579
 3687SOL    HW211118   4.423   3.203   1.449
 3688SOL     OW11119   0.069   0.090   2.775
 3688SOL    HW111120   0.119   0.169   2.754
 3688SOL    HW211121   0.073   0.038   2.695
 3689SOL     OW11122   1.269   4.908   3.680
 3689SOL    HW111123   1.260   4.833   3.738
 3689SOL    HW211124   1.319   4.972   3.732
 3690SOL     OW11125   3.237   3.181   2.276
 3690SOL    HW111126   3.164   3.234   2.242
 3690SOL    HW211127   3.231   3.099   2.226
 3691SOL     OW11128   0.151   1.819   2.788
 3691SOL    HW111129   0.186   1.848   2.704
 3691SOL    HW211130   0.056   1.832   2.780
 3692SOL     OW11131   3.456   1.794   3.853
 3692SOL    HW111132   3.449   1.708   3.895
 3692SOL    HW211133   3.496   1.849   3.920
 3693SOL     OW11134   4.083   4.112   2.493
 3693SOL    HW111135   4.013   4.145   2.549
 3693SOL    HW211136   4.132   4.053   2.550
 3694SOL     OW11137   0.714   1.310   1.181
 3694SOL    HW111138   0.756   1.369   1.244
 3694SOL    HW211139   0.622   1.334   1.183
 3695SOL     OW11140   2.668   4.498   2.650
 3695SOL    HW111141   2.701   4.578   2.609
 3695SOL    HW211142   2.630   4.527   2.733
 3696SOL     OW11143   3.744   4.058   4.308
 3696SOL    HW111144   3.797   4.075   4.386
 3696SOL    HW211145   3.733   3.963   4.307
 3697SOL     OW11146   3.527   4.545   3.182
 3697SOL    HW111147   3.590   4.569   3.114
 3697SOL    HW211148   3.450   4.515   3.134
 3698SOL     OW11149   1.613   0.118   0.615
 3698SOL    HW111150   1.620   0.195   0.559
 3698SOL    HW211151   1.628   0.152   0.704
 3699SOL     OW11152   1.612   4.965   4.101
 3699SOL    HW111153   1.573   4.911   4.032
 3699SOL    HW211154   1.561   4.943   4.179
 3700SOL     OW11155   0.715   0.388   3.572
 3700SOL    HW111156   0.785   0.365   3.510
 3700SOL    HW211157   0.756   0.379   3.658
 3701SOL     OW11158   3.358   2.273   2.242
 3701SOL    HW111159   3.271   2.304   2.267
 3701SOL    HW211160   3.417   2.308   2.308
 3702SOL     OW11161   4.490   1.459   3.584
 3702SOL    HW111162   4.539   1.541   3.584
 3702SOL    HW211163   4.428   1.468   3.512
 3703SOL     OW11164   0.943   0.947   4.670
 3703SOL    HW111165   0.911   1.030   4.634
 3703SOL    HW211166   1.030   0.968   4.704
 3704SOL     OW11167   2.258   1.607   2.506
 3704SOL    HW111168   2.245   1.673   2.439
 3704SOL    HW211169   2.203   1.533   2.479
 3705SOL     OW11170   4.686   0.629   0.482
 3705SOL    HW111171   4.615   0.575   0.516
 3705SOL    HW211172   4.654   0.660   0.397
 3706SOL     OW11173   4.747   1.092   4.767
 3706SOL    HW111174   4.735   1.150   4.692
 3706SOL    HW211175   4.663   1.047   4.776
 3707SOL     OW11176   3.267   4.441   3.090
 3707SOL    HW111177   3.191   4.448   3.148
 3707SOL    HW211178   3.314   4.363   3.121
 3708SOL     OW11179   3.450   1.436   3.660
 3708SOL    HW111180   3.497   1.422   3.578
 3708SOL    HW211181   3.517   1.462   3.723
 3709SOL     OW11182   2.221   3.354   3.845
 3709SOL    HW111183   2.298   3.362   3.902
 3709SOL    HW211184   2.252   3.386   3.760
 3710SOL     OW11185   3.864   4.108   2.662
 3710SOL    HW111186   3.874   4.087   2.755
 3710SOL    HW211187   3.846   4.024   2.621
 3711SOL     OW11188   4.696   3.540   3.340
 3711SOL    HW111189   4.707   3.511   3.430
 3711SOL    HW211190   4.622   3.602   3.344
 3712SOL     OW11191   1.842   2.679   4.196
 3712SOL    HW111192   1.883   2.763   4.174
 3712SOL    HW211193   1.863   2.622   4.122
 3713SOL     OW11194   3.530   3.885   0.193
 3713SOL    HW111195   3.581   3.837   0.259
 3713SOL    HW211196   3.526   3.826   0.118
 3714SOL     OW11197   3.249   0.725   0.928
 3714SOL    HW111198   3.309   0.663   0.970
 3714SOL    HW211199   3.221   0.783   0.998
 3715SOL     OW11200   1.197   2.060   2.902
 3715SOL    HW111201   1.214   2.014   2.984
 3715SOL    HW211202   1.225   2.150   2.918
 3716SOL     OW11203   3.288   0.830   2.138
 3716SOL    HW111204   3.213   0.868   2.093
 3716SOL    HW211205   3.256   0.812   2.227
 3717SOL     OW11206   1.618   0.356   0.488
 3717SOL    HW111207   1.595   0.322   0.402
 3717SOL    HW211208   1.707   0.389   0.479
 3718SOL     OW11209   2.758   4.581   2.074
 3718SOL    HW111210   2.802   4.625   2.147
 3718SOL    HW211211   2.706   4.649   2.033
 3719SOL     OW11212   1.538   3.845   0.867
 3719SOL    HW111213   1.615   3.891   0.834
 3719SOL    HW211214   1.517   3.781   0.799
 3720SOL     OW11215   2.508   3.788   4.092
 3720SOL    HW111216   2.555   3.856   4.141
 3720SOL    HW211217   2.502   3.823   4.003
 3721SOL     OW11218   0.143   1.097   1.929
 3721SOL    HW111219   0.116   1.091   2.020
 3721SOL    HW211220   0.237   1.083   1.930
 3722SOL     OW11221   1.125   4.167   1.474
 3722SOL    HW111222   1.129   4.078   1.509
 3722SOL    HW211223   1.138   4.155   1.379
 3723SOL     OW11224   2.435   1.629   1.519
 3723SOL    HW111225   2.452   1.605   1.427
 3723SOL    HW211226   2.419   1.723   1.516
 3724SOL     OW11227   3.224   2.833   1.653
 3724SOL    HW111228   3.265   2.747   1.652
 3724SOL    HW211229   3.130   2.815   1.660
 3725SOL     OW11230   1.757   4.637   1.045
 3725SOL    HW111231   1.744   4.612   1.136
 3725SOL    HW211232   1.697   4.710   1.031
 3726SOL     OW11233   1.311   4.716   3.836
 3726SOL    HW111234   1.313   4.734   3.930
 3726SOL    HW211235   1.305   4.621   3.830
 3727SOL     OW11236   3.184   1.629   0.811
 3727SOL    HW111237   3.092   1.644   0.791
 3727SOL    HW211238   3.198   1.536   0.795
 3728SOL     OW11239   4.798   0.175   0.522
 3728SOL    HW111240   4.815   0.263   0.488
 3728SOL    HW211241   4.885   0.138   0.538
 3729SOL     OW11242   4.092   3.356   3.568
 3729SOL    HW111243   4.093   3.331   3.660
 3729SOL    HW211244   4.184   3.368   3.545
 3730SOL     OW11245   0.341   1.961   1.292
 3730SOL    HW111246   0.409   1.971   1.226
 3730SOL    HW211247   0.361   1.878   1.336
 3731SOL     OW11248   1.523   1.468   0.777
 3731SOL    HW111249   1.582   1.510   0.839
 3731SOL    HW211250   1.579   1.442   0.704
 3732SOL     OW11251   0.265   3.494   2.402
 3732SOL    HW111252   0.191   3.460   2.451
 3732SOL    HW211253   0.229   3.513   2.315
 3733SOL     OW11254   1.314   4.092   3.183
 3733SOL    HW111255   1.252   4.025   3.211
 3733SOL    HW211256   1.335   4.141   3.262
 3734SOL     OW11257   0.897   0.326   3.355
 3734SOL    HW111258   0.911   0.232   3.364
 3734SOL    HW211259   0.879   0.339   3.262
 3735SOL     OW11260   3.336   1.989   4.220
 3735SOL    HW111261   3.318   2.014   4.130
 3735SOL    HW211262   3.275   1.917   4.238
 3736SOL     OW11263   0.707   4.133   4.567
 3736SOL    HW111264   0.732   4.067   4.503
 3736SOL    HW211265   0.772   4.124   4.637
 3737SOL     OW11266   4.759   3.519   2.556
 3737SOL    HW111267   4.766   3.505   2.650
 3737SOL    HW211268   4.812   3.597   2.539
 3738SOL     OW11269   0.371   3.752   1.715
 3738SOL    HW111270   0.448   3.808   1.731
 3738SOL    HW211271   0.403   3.663   1.730
 3739SOL     OW11272   1.761   1.894   0.392
 3739SOL    HW111273   1.855   1.877   0.384
 3739SOL    HW211274   1.755   1.989   0.403
 3740SOL     OW11275   3.650   1.469   0.003
 3740SOL    HW111276   3.585   1.534   4.957
 3740SOL    HW211277   3.660   1.482   0.097
 3741SOL     OW11278   1.242   3.311   1.317
 3741SOL    HW111279   1.302   3.352   1.379
 3741SOL    HW211280   1.294   3.301   1.237
 3742SOL     OW11281   4.466   2.431   0.990
 3742SOL    HW111282   4.483   2.520   1.019
 3742SOL    HW211283   4.550   2.400   0.956
 3743SOL     OW11284   1.527   2.589   0.466
 3743SOL    HW111285   1.541   2.681   0.486
 3743SOL    HW211286   1.464   2.560   0.532
 3744SOL     OW11287   0.475   0.473   3.154
 3744SOL    HW111288   0.434   0.401   3.106
 3744SOL    HW211289   0.491   0.438   3.242
 3745SOL     OW11290   2.939   4.824   4.729
 3745SOL    HW111291   2.944   4.780   4.813
 3745SOL    HW211292   2.915   4.915   4.750
 3746SOL     OW11293   1.972   2.939   4.154
 3746SOL    HW111294   1.959   3.010   4.091
 3746SOL    HW211295   1.947   2.977   4.238
 3747SOL     OW11296   2.255   2.371   1.703
 3747SOL    HW111297   2.175   2.414   1.671
 3747SOL    HW211298   2.248   2.281   1.670
 3748SOL     OW11299   1.477   3.304   3.428
 3748SOL    HW111300   1.418   3.291   3.502
 3748SOL    HW211301   1.421   3.334   3.356
 3749SOL     OW11302   1.481   2.281   2.230
 3749SOL    HW111303   1.549   2.229   2.187
 3749SOL    HW211304   1.464   2.353   2.170
 3750SOL     OW11305   3.596   2.614   3.725
 3750SOL    HW111306   3.536   2.572   3.664
 3750SOL    HW211307   3.640   2.541   3.770
 3751SOL     OW11308   3.043   1.833   2.560
 3751SOL    HW111309   3.119   1.787   2.597
 3751SOL    HW211310   3.006   1.882   2.633
 3752SOL     OW11311   0.716   4.272   0.294
 3752SOL    HW111312   0.675   4.359   0.293
 3752SOL    HW211313   0.664   4.220   0.232
 3753SOL     OW11314   0.016   1.465   2.328
 3753SOL    HW111315   0.027   1.404   2.255
 3753SOL    HW211316   4.907   1.499   2.317
 3754SOL     OW11317   4.773   3.810   3.591
 3754SOL    HW111318   4.766   3.903   3.612
 3754SOL    HW211319   4.713   3.767   3.651
 3755SOL     OW11320   0.798   0.099   0.327
 3755SOL    HW111321   0.770   0.121   0.416
 3755SOL    HW211322   0.747   0.159   0.271
 3756SOL     OW11323   2.521   2.960   1.299
 3756SOL    HW111324   2.607   2.922   1.316
 3756SOL    HW211325   2.536   3.021   1.227
 3757SOL     OW11326   1.506   0.609   1.435
 3757SOL    HW111327   1.424   0.563   1.413
 3757SOL    HW211328   1.559   0.603   1.355
 3758SOL     OW11329   2.917   4.935   4.267
 3758SOL    HW111330   2.832   4.890   4.274
 3758SOL    HW211331   2.897   0.036   4.220
 3759SOL     OW11332   3.505   1.699   4.490
 3759SOL    HW111333   3.473   1.776   4.537
 3759SOL    HW211334   3.435   1.634   4.500
 3760SOL     OW11335   3.397   3.171   3.450
 3760SOL    HW111336   3.489   3.159   3.426
 3760SOL    HW211337   3.351   3.182   3.367
 3761SOL     OW11338   3.176   4.926   2.399
 3761SOL    HW111339   3.213   4.866   2.334
 3761SOL    HW211340   3.179   0.032   2.357
 3762SOL     OW11341   2.692   0.678   1.681
 3762SOL    HW111342   2.644   0.761   1.691
 3762SOL    HW211343   2.640   0.615   1.731
 3763SOL     OW11344   0.739   1.571   3.027
 3763SOL    HW111345   0.675   1.505   3.053
 3763SOL    HW211346   0.692   1.628   2.967
 3764SOL     OW11347   1.515   0.665   1.798
 3764SOL    HW111348   1.555   0.664   1.711
 3764SOL    HW211349   1.586   0.637   1.857
 3765SOL     OW11350   3.848   2.099   2.621
 3765SOL    HW111351   3.810   2.038   2.557
 3765SOL    HW211352   3.851   2.050   2.703
 3766SOL     OW11353   4.058   3.003   4.402
 3766SOL    HW111354   4.095   2.915   4.401
 3766SOL    HW211355   3.977   2.995   4.451
 3767SOL     OW11356   1.877   3.153   0.627
 3767SOL    HW111357   1.828   3.227   0.591
 3767SOL    HW211358   1.823   3.122   0.700
 3768SOL     OW11359   1.939   0.295   1.177
 3768SOL    HW111360   1.918   0.336   1.092
 3768SOL    HW211361   1.860   0.307   1.230
 3769SOL     OW11362   4.441   4.483   3.716
 3769SOL    HW111363   4.365   4.433   3.749
 3769SOL    HW211364   4.491   4.504   3.795
 3770SOL     OW11365   1.051   2.761   4.884
 3770SOL    HW111366   0.983   2.695   4.898
 3770SOL    HW211367   1.110   2.722   4.819
 3771SOL     OW11368   2.395   0.366   4.011
 3771SOL    HW111369   2.332   0.315   3.960
 3771SOL    HW211370   2.472   0.373   3.954
 3772SOL     OW11371   4.855   3.333   1.429
 3772SOL    HW111372   4.810   3.332   1.513
 3772SOL    HW211373   4.840   3.422   1.395
 3773SOL     OW11374   1.878   0.519   3.904
 3773SOL    HW111375   1.965   0.547   3.934
 3773SOL    HW211376   1.865   0.566   3.822
 3774SOL     OW11377   4.478   3.300   3.900
 3774SOL    HW111378   4.439   3.355   3.969
 3774SOL    HW211379   4.547   3.355   3.862
 3775SOL     OW11380   0.764   0.300   0.565
 3775SOL    HW111381   0.803   0.372   0.517
 3775SOL    HW211382   0.794   0.312   0.655
 3776SOL     OW11383   1.746   3.134   1.658
 3776SOL    HW111384   1.825   3.085   1.634
 3776SOL    HW211385   1.769   3.177   1.741
 3777SOL     OW11386   4.124   0.815   4.394
 3777SOL    HW111387   4.060   0.846   4.458
 3777SOL    HW211388   4.072   0.792   4.317
 3778SOL     OW11389   1.280   0.235   4.312
 3778SOL    HW111390   1.246   0.243   4.223
 3778SOL    HW211391   1.220   0.288   4.365
 3779SOL     OW11392   4.267   1.899   4.842
 3779SOL    HW111393   4.172   1.896   4.854
 3779SOL    HW211394   4.290   1.992   4.850
 3780SOL     OW11395   0.649   4.520   1.048
 3780SOL    HW111396   0.630   4.455   0.981
 3780SOL    HW211397   0.582   4.588   1.035
 3781SOL     OW11398   3.280   1.558   4.421
 3781SOL    HW111399   3.242   1.470   4.415
 3781SOL    HW211400   3.233   1.599   4.494
 3782SOL     OW11401   2.735   1.765   4.677
 3782SOL    HW111402   2.765   1.845   4.720
 3782SOL    HW211403   2.774   1.694   4.726
 3783SOL     OW11404   0.371   4.963   3.787
 3783SOL    HW111405   0.386   4.959   3.882
 3783SOL    HW211406   0.346   0.074   3.771
 3784SOL     OW11407   1.583   3.410   2.246
 3784SOL    HW111408   1.514   3.454   2.295
 3784SOL    HW211409   1.659   3.414   2.304
 3785SOL     OW11410   2.477   4.979   0.767
 3785SOL    HW111411   2.441   4.917   0.704
 3785SOL    HW211412   2.424   0.078   0.756
 3786SOL     OW11413   2.419   0.676   4.100
 3786SOL    HW111414   2.444   0.600   4.048
 3786SOL    HW211415   2.497   0.732   4.100
 3787SOL     OW11416   1.158   1.675   0.432
 3787SOL    HW111417   1.220   1.638   0.495
 3787SOL    HW211418   1.144   1.606   0.367
 3788SOL     OW11419   4.658   3.664   1.476
 3788SOL    HW111420   4.643   3.651   1.569
 3788SOL    HW211421   4.607   3.742   1.454
 3789SOL     OW11422   4.132   3.238   1.764
 3789SOL    HW111423   4.094   3.201   1.684
 3789SOL    HW211424   4.109   3.331   1.761
 3790SOL     OW11425   0.746   2.685   1.490
 3790SOL    HW111426   0.813   2.620   1.511
 3790SOL    HW211427   0.768   2.714   1.401
 3791SOL     OW11428   4.960   1.930   2.263
 3791SOL    HW111429   4.928   1.958   2.348
 3791SOL    HW211430   0.069   1.898   2.280
 3792SOL     OW11431   2.563   2.534   3.884
 3792SOL    HW111432   2.580   2.607   3.943
 3792SOL    HW211433   2.470   2.513   3.897
 3793SOL     OW11434   3.800   2.361   0.189
 3793SOL    HW111435   3.730   2.377   0.253
 3793SOL    HW211436   3.857   2.298   0.232
 3794SOL     OW11437   1.921   3.291   0.995
 3794SOL    HW111438   1.952   3.371   1.037
 3794SOL    HW211439   1.845   3.320   0.943
 3795SOL     OW11440   1.991   3.000   1.716
 3795SOL    HW111441   2.084   2.984   1.733
 3795SOL    HW211442   1.947   2.974   1.797
 3796SOL     OW11443   1.364   4.100   1.196
 3796SOL    HW111444   1.340   4.046   1.121
 3796SOL    HW211445   1.374   4.037   1.268
 3797SOL     OW11446   2.032   4.293   0.706
 3797SOL    HW111447   1.943   4.328   0.712
 3797SOL    HW211448   2.087   4.362   0.744
 3798SOL     OW11449   3.333   3.921   2.016
 3798SOL    HW111450   3.240   3.938   1.999
 3798SOL    HW211451   3.378   3.957   1.940
 3799SOL     OW11452   0.806   4.825   2.670
 3799SOL    HW111453   0.854   4.743   2.668
 3799SOL    HW211454   0.856   4.884   2.613
 3800SOL     OW11455   3.040   2.781   2.452
 3800SOL    HW111456   3.046   2.720   2.379
 3800SOL    HW211457   2.951   2.816   2.447
 3801SOL     OW11458   2.715   1.873   4.043
 3801SOL    HW111459   2.637   1.892   4.094
 3801SOL    HW211460   2.754   1.960   4.027
 3802SOL     OW11461   2.202   2.107   0.247
 3802SOL    HW111462   2.134   2.040   0.252
 3802SOL    HW211463   2.284   2.059   0.257
 3803SOL     OW11464   3.619   3.980   1.556
 3803SOL    HW111465   3.709   3.972   1.589
 3803SOL    HW211466   3.572   3.909   1.600
 3804SOL     OW11467   0.891   3.747   4.803
 3804SOL    HW111468   0.852   3.672   4.847
 3804SOL    HW211469   0.857   3.742   4.714
 3805SOL     OW11470   2.286   0.571   3.009
 3805SOL    HW111471   2.263   0.493   3.061
 3805SOL    HW211472   2.243   0.557   2.925
 3806SOL     OW11473   1.640   4.600   2.281
 3806SOL    HW111474   1.683   4.682   2.258
 3806SOL    HW211475   1.648   4.594   2.376
 3807SOL     OW11476   0.518   0.852   4.142
 3807SOL    HW111477   0.593   0.805   4.106
 3807SOL    HW211478   0.488   0.798   4.214
 3808SOL     OW11479   1.448   2.714   2.443
 3808SOL    HW111480   1.512   2.724   2.513
 3808SOL    HW211481   1.423   2.622   2.447
 3809SOL     OW11482   1.233   4.751   4.494
 3809SOL    HW111483   1.301   4.792   4.546
 3809SOL    HW211484   1.176   4.824   4.467
 3810SOL     OW11485   2.545   1.447   3.563
 3810SOL    HW111486   2.522   1.461   3.472
 3810SOL    HW211487   2.465   1.467   3.612
 3811SOL     OW11488   1.867   0.539   3.266
 3811SOL    HW111489   1.839   0.450   3.244
 3811SOL    HW211490   1.907   0.572   3.186
 3812SOL     OW11491   2.503   4.258   0.156
 3812SOL    HW111492   2.409   4.243   0.145
 3812SOL    HW211493   2.509   4.341   0.204
 3813SOL     OW11494   1.639   1.941   3.726
 3813SOL    HW111495   1.676   1.983   3.804
 3813SOL    HW211496   1.545   1.960   3.731
 3814SOL     OW11497   2.349   4.654   2.549
 3814SOL    HW111498   2.265   4.693   2.527
 3814SOL    HW211499   2.409   4.729   2.556
 3815SOL     OW11500   1.784   4.643   3.543
 3815SOL    HW111501   1.692   4.667   3.537
 3815SOL    HW211502   1.832   4.722   3.518
 3816SOL     OW11503   2.666   3.392   1.032
 3816SOL    HW111504   2.756   3.362   1.022
 3816SOL    HW211505   2.664   3.433   1.119
 3817SOL     OW11506   2.662   3.222   2.432
 3817SOL    HW111507   2.733   3.201   2.493
 3817SOL    HW211508   2.651   3.317   2.439
 3818SOL     OW11509   4.687   4.585   0.170
 3818SOL    HW111510   4.656   4.602   0.081
 3818SOL    HW211511   4.782   4.583   0.162
 3819SOL     OW11512   2.843   2.139   3.997
 3819SOL    HW111513   2.834   2.132   4.092
 3819SOL    HW211514   2.931   2.174   3.983
 3820SOL     OW11515   4.651   4.799   4.782
 3820SOL    HW111516   4.685   4.888   4.779
 3820SOL    HW211517   4.564   4.807   4.823
 3821SOL     OW11518   3.601   0.797   3.031
 3821SOL    HW111519   3.626   0.751   3.111
 3821SOL    HW211520   3.554   0.731   2.980
 3822SOL     OW11521   1.263   0.495   1.406
 3822SOL    HW111522   1.216   0.532   1.481
 3822SOL    HW211523   1.282   0.405   1.432
 3823SOL     OW11524   2.301   4.937   1.679
 3823SOL    HW111525   2.237   4.908   1.744
 3823SOL    HW211526   2.301   4.868   1.614
 3824SOL     OW11527   2.013   1.227   1.376
 3824SOL    HW111528   2.090   1.185   1.337
 3824SOL    HW211529   2.049   1.290   1.439
 3825SOL     OW11530   0.862   3.833   3.755
 3825SOL    HW111531   0.872   3.883   3.674
 3825SOL    HW211532   0.934   3.860   3.810
 3826SOL     OW11533   2.157   3.734   1.945
 3826SOL    HW111534   2.205   3.653   1.963
 3826SOL    HW211535   2.145   3.735   1.850
 3827SOL     OW11536   2.658   0.284   1.415
 3827SOL    HW111537   2.732   0.338   1.387
 3827SOL    HW211538   2.634   0.235   1.336
 3828SOL     OW11539   1.394   0.424   2.849
 3828SOL    HW111540   1.382   0.512   2.813
 3828SOL    HW211541   1.321   0.412   2.910
 3829SOL     OW11542   0.951   1.441   2.960
 3829SOL    HW111543   0.963   1.395   3.042
 3829SOL    HW211544   0.871   1.492   2.972
 3830SOL     OW11545   2.103   3.768   4.874
 3830SOL    HW111546   2.161   3.843   4.860
 3830SOL    HW211547   2.024   3.806   4.911
 3831SOL     OW11548   4.911   2.152   2.480
 3831SOL    HW111549   4.885   2.230   2.431
 3831SOL    HW211550   0.019   2.173   2.511
 3832SOL     OW11551   4.015   4.270   3.362
 3832SOL    HW111552   3.984   4.258   3.272
 3832SOL    HW211553   3.965   4.206   3.413
 3833SOL     OW11554   3.870   1.616   2.519
 3833SOL    HW111555   3.802   1.628   2.453
 3833SOL    HW211556   3.823   1.596   2.600
 3834SOL     OW11557   2.926   4.101   4.142
 3834SOL    HW111558   2.961   4.014   4.122
 3834SOL    HW211559   3.003   4.158   4.142
 3835SOL     OW11560   2.051   0.950   2.651
 3835SOL    HW111561   2.056   1.045   2.638
 3835SOL    HW211562   1.973   0.924   2.601
 3836SOL     OW11563   4.371   3.755   3.606
 3836SOL    HW111564   4.331   3.841   3.618
 3836SOL    HW211565   4.299   3.700   3.574
 3837SOL     OW11566   4.078   3.533   0.905
 3837SOL    HW111567   4.031   3.481   0.971
 3837SOL    HW211568   4.031   3.515   0.824
 3838SOL     OW11569   2.230   0.843   3.404
 3838SOL    HW111570   2.160   0.877   3.348
 3838SOL    HW211571   2.262   0.920   3.451
 3839SOL     OW11572   4.196   0.633   1.032
 3839SOL    HW111573   4.155   0.555   1.070
 3839SOL    HW211574   4.273   0.648   1.086
 3840SOL     OW11575   1.377   3.794   1.903
 3840SOL    HW111576   1.452   3.736   1.917
 3840SOL    HW211577   1.305   3.751   1.949
 3841SOL     OW11578   3.938   0.887   3.035
 3841SOL    HW111579   3.894   0.810   3.072
 3841SOL    HW211580   3.982   0.927   3.110
 3842SOL     OW11581   2.853   4.939   2.927
 3842SOL    HW111582   2.927   4.879   2.929
 3842SOL    HW211583   2.844   4.963   2.835
 3843SOL     OW11584   2.069   3.929   3.206
 3843SOL    HW111585   2.094   3.924   3.114
 3843SOL    HW211586   2.059   3.838   3.234
 3844SOL     OW11587   1.625   4.365   2.149
 3844SOL    HW111588   1.640   4.296   2.214
 3844SOL    HW211589   1.647   4.446   2.196
 3845SOL     OW11590   2.943   2.228   0.717
 3845SOL    HW111591   3.034   2.200   0.732
 3845SOL    HW211592   2.942   2.320   0.745
 3846SOL     OW11593   1.432   4.944   4.301
 3846SOL    HW111594   1.367   0.032   4.283
 3846SOL    HW211595   1.450   4.951   4.395
 3847SOL     OW11596   0.841   1.153   0.662
 3847SOL    HW111597   0.895   1.139   0.740
 3847SOL    HW211598   0.767   1.206   0.693
 3848SOL     OW11599   3.913   0.194   3.403
 3848SOL    HW111600   3.826   0.161   3.424
 3848SOL    HW211601   3.906   0.227   3.313
 3849SOL     OW11602   3.496   0.727   1.994
 3849SOL    HW111603   3.504   0.636   2.023
 3849SOL    HW211604   3.412   0.756   2.029
 3850SOL     OW11605   3.108   0.596   0.215
 3850SOL    HW111606   3.043   0.577   0.147
 3850SOL    HW211607   3.185   0.626   0.166
 3851SOL     OW11608   2.081   4.887   3.949
 3851SOL    HW111609   2.138   4.814   3.926
 3851SOL    HW211610   2.002   4.845   3.985
 3852SOL     OW11611   4.375   3.429   3.520
 3852SOL    HW111612   4.443   3.428   3.589
 3852SOL    HW211613   4.405   3.364   3.456
 3853SOL     OW11614   3.521   4.362   3.783
 3853SOL    HW111615   3.427   4.373   3.765
 3853SOL    HW211616   3.558   4.339   3.698
 3854SOL     OW11617   2.478   4.530   1.343
 3854SOL    HW111618   2.529   4.603   1.377
 3854SOL    HW211619   2.418   4.508   1.415
 3855SOL     OW11620   4.422   0.265   3.867
 3855SOL    HW111621   4.405   0.195   3.930
 3855SOL    HW211622   4.337   0.307   3.853
 3856SOL     OW11623   3.937   4.433   1.775
 3856SOL    HW111624   3.992   4.384   1.837
 3856SOL    HW211625   3.930   4.375   1.699
 3857SOL     OW11626   4.631   2.330   0.685
 3857SOL    HW111627   4.690   2.406   0.689
 3857SOL    HW211628   4.571   2.351   0.614
 3858SOL     OW11629   0.588   1.785   2.556
 3858SOL    HW111630   0.614   1.767   2.466
 3858SOL    HW211631   0.642   1.859   2.583
 3859SOL     OW11632   3.357   4.181   3.191
 3859SOL    HW111633   3.334   4.167   3.283
 3859SOL    HW211634   3.331   4.100   3.147
 3860SOL     OW11635   0.226   1.148   3.549
 3860SOL    HW111636   0.276   1.067   3.554
 3860SOL    HW211637   0.188   1.148   3.461
 3861SOL     OW11638   0.634   0.095   1.513
 3861SOL    HW111639   0.666   0.184   1.530
 3861SOL    HW211640   0.706   0.052   1.466
 3862SOL     OW11641   2.593   2.521   2.615
 3862SOL    HW111642   2.669   2.463   2.606
 3862SOL    HW211643   2.575   2.523   2.709
 3863SOL     OW11644   2.058   0.313   1.802
 3863SOL    HW111645   2.018   0.382   1.748
 3863SOL    HW211646   2.132   0.282   1.750
 3864SOL     OW11647   2.032   2.525   1.631
 3864SOL    HW111648   2.024   2.585   1.557
 3864SOL    HW211649   1.949   2.534   1.679
 3865SOL     OW11650   2.649   2.283   1.611
 3865SOL    HW111651   2.571   2.245   1.651
 3865SOL    HW211652   2.722   2.238   1.655
 3866SOL     OW11653   2.517   1.479   3.242
 3866SOL    HW111654   2.530   1.404   3.183
 3866SOL    HW211655   2.425   1.504   3.229
 3867SOL     OW11656   3.993   3.364   2.980
 3867SOL    HW111657   4.059   3.408   2.926
 3867SOL    HW211658   4.039   3.288   3.016
 3868SOL     OW11659   1.404   2.337   0.790
 3868SOL    HW111660   1.453   2.339   0.872
 3868SOL    HW211661   1.414   2.425   0.755
 3869SOL     OW11662   0.424   2.347   3.752
 3869SOL    HW111663   0.386   2.433   3.771
 3869SOL    HW211664   0.457   2.317   3.837
 3870SOL     OW11665   3.643   3.482   0.127
 3870SOL    HW111666   3.628   3.553   0.064
 3870SOL    HW211667   3.732   3.496   0.158
 3871SOL     OW11668   0.970   1.427   1.341
 3871SOL    HW111669   1.041   1.489   1.360
 3871SOL    HW211670   0.898   1.455   1.397
 3872SOL     OW11671   0.105   1.033   2.231
 3872SOL    HW111672   0.188   0.986   2.240
 3872SOL    HW211673   0.041   0.979   2.277
 3873SOL     OW11674   0.095   0.059   1.127
 3873SOL    HW111675   0.086   0.114   1.205
 3873SOL    HW211676   0.188   0.061   1.107
 3874SOL     OW11677   1.195   2.160   1.120
 3874SOL    HW111678   1.130   2.145   1.051
 3874SOL    HW211679   1.221   2.072   1.148
 3875SOL     OW11680   0.012   3.304   4.360
 3875SOL    HW111681   0.062   3.236   4.404
 3875SOL    HW211682   4.918   3.320   4.418
 3876SOL     OW11683   4.706   0.550   2.279
 3876SOL    HW111684   4.768   0.501   2.332
 3876SOL    HW211685   4.662   0.609   2.340
 3877SOL     OW11686   3.675   1.159   0.534
 3877SOL    HW111687   3.674   1.079   0.587
 3877SOL    HW211688   3.645   1.228   0.594
 3878SOL     OW11689   4.189   2.011   0.912
 3878SOL    HW111690   4.123   1.942   0.898
 3878SOL    HW211691   4.172   2.075   0.843
 3879SOL     OW11692   1.060   1.106   4.459
 3879SOL    HW111693   1.059   1.153   4.375
 3879SOL    HW211694   1.122   1.155   4.513
 3880SOL     OW11695   3.757   2.793   3.516
 3880SOL    HW111696   3.769   2.698   3.515
 3880SOL    HW211697   3.670   2.806   3.478
 3881SOL     OW11698   2.957   2.957   3.264
 3881SOL    HW111699   2.887   2.926   3.321
 3881SOL    HW211700   2.915   3.020   3.206
 3882SOL     OW11701   3.187   0.941   4.421
 3882SOL    HW111702   3.229   0.866   4.463
 3882SOL    HW211703   3.236   0.954   4.340
 3883SOL     OW11704   3.148   4.649   0.471
 3883SOL    HW111705   3.070   4.669   0.522
 3883SOL    HW211706   3.178   4.565   0.505
 3884SOL     OW11707   4.498   1.647   0.793
 3884SOL    HW111708   4.414   1.602   0.794
 3884SOL    HW211709   4.551   1.600   0.729
 3885SOL     OW11710   3.380   0.508   2.314
 3885SOL    HW111711   3.371   0.414   2.326
 3885SOL    HW211712   3.430   0.517   2.233
 3886SOL     OW11713   2.050   3.896   3.731
 3886SOL    HW111714   2.102   3.889   3.651
 3886SOL    HW211715   2.023   3.806   3.750
 3887SOL     OW11716   4.365   3.430   1.275
 3887SOL    HW111717   4.351   3.485   1.352
 3887SOL    HW211718   4.365   3.491   1.201
 3888SOL     OW11719   4.646   0.729   4.885
 3888SOL    HW111720   4.651   0.642   4.926
 3888SOL    HW211721   4.555   0.755   4.897
 3889SOL     OW11722   3.477   4.616   2.712
 3889SOL    HW111723   3.494   4.529   2.676
 3889SOL    HW211724   3.419   4.658   2.649
 3890SOL     OW11725   0.144   4.432   2.762
 3890SOL    HW111726   0.122   4.338   2.759
 3890SOL    HW211727   0.238   4.435   2.745
 3891SOL     OW11728   1.544   1.686   1.603
 3891SOL    HW111729   1.545   1.670   1.697
 3891SOL    HW211730   1.494   1.767   1.593
 3892SOL     OW11731   2.443   0.356   4.274
 3892SOL    HW111732   2.424   0.359   4.180
 3892SOL    HW211733   2.470   0.445   4.296
 3893SOL     OW11734   4.672   4.408   0.741
 3893SOL    HW111735   4.638   4.490   0.778
 3893SOL    HW211736   4.749   4.435   0.691
 3894SOL     OW11737   1.883   1.765   1.052
 3894SOL    HW111738   1.859   1.842   1.002
 3894SOL    HW211739   1.800   1.722   1.073
 3895SOL     OW11740   0.298   0.791   2.734
 3895SOL    HW111741   0.291   0.887   2.736
 3895SOL    HW211742   0.336   0.772   2.648
 3896SOL     OW11743   0.587   1.254   2.861
 3896SOL    HW111744   0.504   1.222   2.824
 3896SOL    HW211745   0.654   1.197   2.824
 3897SOL     OW11746   1.665   2.980   4.075
 3897SOL    HW111747   1.740   3.026   4.040
 3897SOL    HW211748   1.648   3.022   4.160
 3898SOL     OW11749   4.193   2.139   3.376
 3898SOL    HW111750   4.162   2.131   3.467
 3898SOL    HW211751   4.279   2.180   3.383
 3899SOL     OW11752   4.390   1.441   4.337
 3899SOL    HW111753   4.401   1.462   4.430
 3899SOL    HW211754   4.409   1.348   4.330
 3900SOL     OW11755   1.823   1.060   4.901
 3900SOL    HW111756   1.889   0.991   4.894
 3900SOL    HW211757   1.822   1.101   4.815
 3901SOL     OW11758   0.170   3.516   2.707
 3901SOL    HW111759   0.083   3.519   2.667
 3901SOL    HW211760   0.209   3.601   2.685
 3902SOL     OW11761   1.881   0.465   0.934
 3902SOL    HW111762   1.849   0.553   0.913
 3902SOL    HW211763   1.955   0.452   0.874
 3903SOL     OW11764   4.479   1.369   4.035
 3903SOL    HW111765   4.567   1.400   4.056
 3903SOL    HW211766   4.444   1.434   3.974
 3904SOL     OW11767   2.276   2.286   0.445
 3904SOL    HW111768   2.216   2.244   0.383
 3904SOL    HW211769   2.339   2.219   0.467
 3905SOL     OW11770   1.005   3.975   0.708
 3905SOL    HW111771   1.013   4.047   0.771
 3905SOL    HW211772   1.040   3.899   0.754
 3906SOL     OW11773   1.427   2.619   0.182
 3906SOL    HW111774   1.461   2.626   0.272
 3906SOL    HW211775   1.418   2.710   0.153
 3907SOL     OW11776   2.207   4.515   1.189
 3907SOL    HW111777   2.174   4.598   1.222
 3907SOL    HW211778   2.301   4.517   1.209
 3908SOL     OW11779   1.428   1.972   3.320
 3908SOL    HW111780   1.523   1.983   3.322
 3908SOL    HW211781   1.403   1.954   3.411
 3909SOL     OW11782   3.369   0.688   3.277
 3909SOL    HW111783   3.352   0.636   3.198
 3909SOL    HW211784   3.464   0.692   3.284
 3910SOL     OW11785   0.011   0.545   3.644
 3910SOL    HW111786   0.011   0.594   3.562
 3910SOL    HW211787   4.921   0.480   3.634
 3911SOL     OW11788   2.241   2.800   0.269
 3911SOL    HW111789   2.147   2.787   0.284
 3911SOL    HW211790   2.267   2.865   0.334
 3912SOL     OW11791   1.176   1.220   0.675
 3912SOL    HW111792   1.201   1.175   0.594
 3912SOL    HW211793   1.255   1.268   0.700
 3913SOL     OW11794   4.616   0.948   3.959
 3913SOL    HW111795   4.618   0.881   4.028
 3913SOL    HW211796   4.681   0.920   3.896
 3914SOL     OW11797   3.604   2.892   3.188
 3914SOL    HW111798   3.680   2.835   3.192
 3914SOL    HW211799   3.532   2.840   3.224
 3915SOL     OW11800   2.592   2.786   0.869
 3915SOL    HW111801   2.599   2.814   0.961
 3915SOL    HW211802   2.635   2.701   0.867
 3916SOL     OW11803   4.764   3.550   1.264
 3916SOL    HW111804   4.736   3.594   1.184
 3916SOL    HW211805   4.716   3.596   1.334
 3917SOL     OW11806   1.029   4.942   4.718
 3917SOL    HW111807   1.050   4.932   4.625
 3917SOL    HW211808   1.009   4.853   4.748
 3918SOL     OW11809   4.535   2.311   0.219
 3918SOL    HW111810   4.528   2.216   0.211
 3918SOL    HW211811   4.551   2.342   0.130
 3919SOL     OW11812   2.376   3.156   4.597
 3919SOL    HW111813   2.302   3.119   4.646
 3919SOL    HW211814   2.336   3.218   4.537
 3920SOL     OW11815   3.635   0.749   1.758
 3920SOL    HW111816   3.571   0.743   1.829
 3920SOL    HW211817   3.595   0.809   1.695
 3921SOL     OW11818   0.152   4.712   2.171
 3921SOL    HW111819   0.093   4.779   2.205
 3921SOL    HW211820   0.100   4.663   2.107
 3922SOL     OW11821   0.632   2.138   4.207
 3922SOL    HW111822   0.585   2.055   4.216
 3922SOL    HW211823   0.708   2.128   4.264
 3923SOL     OW11824   0.587   1.946   0.464
 3923SOL    HW111825   0.672   1.988   0.453
 3923SOL    HW211826   0.591   1.867   0.410
 3924SOL     OW11827   0.377   4.097   4.175
 3924SOL    HW111828   0.299   4.150   4.191
 3924SOL    HW211829   0.449   4.159   4.180
 3925SOL     OW11830   1.224   3.364   0.714
 3925SOL    HW111831   1.190   3.405   0.794
 3925SOL    HW211832   1.184   3.414   0.643
 3926SOL     OW11833   4.775   0.810   2.117
 3926SOL    HW111834   4.727   0.743   2.068
 3926SOL    HW211835   4.830   0.760   2.178
 3927SOL     OW11836   3.390   2.688   3.228
 3927SOL    HW111837   3.391   2.713   3.320
 3927SOL    HW211838   3.298   2.694   3.202
 3928SOL     OW11839   1.990   0.784   0.883
 3928SOL    HW111840   1.974   0.729   0.806
 3928SOL    HW211841   1.971   0.873   0.853
 3929SOL     OW11842   0.963   3.693   1.109
 3929SOL    HW111843   0.960   3.603   1.140
 3929SOL    HW211844   0.988   3.745   1.185
 3930SOL     OW11845   4.271   2.234   4.138
 3930SOL    HW111846   4.226   2.314   4.168
 3930SOL    HW211847   4.338   2.218   4.204
 3931SOL     OW11848   3.157   4.472   1.709
 3931SOL    HW111849   3.148   4.524   1.629
 3931SOL    HW211850   3.156   4.535   1.780
 3932SOL     OW11851   0.531   0.957   4.828
 3932SOL    HW111852   0.437   0.971   4.813
 3932SOL    HW211853   0.544   0.976   4.921
 3933SOL     OW11854   0.984   2.138   3.299
 3933SOL    HW111855   0.947   2.102   3.379
 3933SOL    HW211856   1.077   2.148   3.317
 3934SOL     OW11857   1.575   2.120   4.601
 3934SOL    HW111858   1.610   2.204   4.573
 3934SOL    HW211859   1.507   2.141   4.664
 3935SOL     OW11860   3.034   3.237   2.965
 3935SOL    HW111861   2.994   3.223   3.051
 3935SOL    HW211862   2.964   3.275   2.912
 3936SOL     OW11863   3.384   0.305   4.381
 3936SOL    HW111864   3.355   0.375   4.440
 3936SOL    HW211865   3.401   0.230   4.438
 3937SOL     OW11866   2.875   4.026   3.141
 3937SOL    HW111867   2.804   3.974   3.178
 3937SOL    HW211868   2.866   4.015   3.047
 3938SOL     OW11869   1.129   4.097   3.926
 3938SOL    HW111870   1.171   4.122   4.008
 3938SOL    HW211871   1.042   4.066   3.951
 3939SOL     OW11872   4.515   3.748   3.348
 3939SOL    HW111873   4.509   3.736   3.442
 3939SOL    HW211874   4.570   3.826   3.337
 3940SOL     OW11875   1.473   0.013   0.366
 3940SOL    HW111876   1.463   0.011   0.461
 3940SOL    HW211877   1.451   0.102   0.341
 3941SOL     OW11878   3.835   0.638   1.372
 3941SOL    HW111879   3.844   0.728   1.341
 3941SOL    HW211880   3.746   0.633   1.407
 3942SOL     OW11881   0.445   3.957   2.268
 3942SOL    HW111882   0.367   3.990   2.223
 3942SOL    HW211883   0.481   3.891   2.209
 3943SOL     OW11884   3.568   3.117   2.409
 3943SOL    HW111885   3.551   3.064   2.331
 3943SOL    HW211886   3.659   3.145   2.399
 3944SOL     OW11887   0.696   2.729   3.058
 3944SOL    HW111888   0.604   2.752   3.073
 3944SOL    HW211889   0.712   2.753   2.967
 3945SOL     OW11890   4.128   0.702   1.379
 3945SOL    HW111891   4.148   0.696   1.473
 3945SOL    HW211892   4.045   0.654   1.369
 3946SOL     OW11893   0.680   4.664   4.906
 3946SOL    HW111894   0.666   4.751   4.869
 3946SOL    HW211895   0.647   4.604   4.838
 3947SOL     OW11896   0.923   4.682   1.429
 3947SOL    HW111897   0.971   4.606   1.461
 3947SOL    HW211898   0.854   4.696   1.494
 3948SOL     OW11899   2.114   1.314   1.943
 3948SOL    HW111900   2.112   1.296   1.849
 3948SOL    HW211901   2.116   1.227   1.984
 3949SOL     OW11902   2.234   1.274   3.809
 3949SOL    HW111903   2.145   1.310   3.809
 3949SOL    HW211904   2.229   1.198   3.867
 3950SOL     OW11905   3.935   3.103   4.172
 3950SOL    HW111906   3.969   3.075   4.257
 3950SOL    HW211907   3.887   3.027   4.139
 3951SOL     OW11908   0.339   0.534   2.771
 3951SOL    HW111909   0.345   0.629   2.767
 3951SOL    HW211910   0.275   0.517   2.840
 3952SOL     OW11911   4.964   4.846   0.516
 3952SOL    HW111912   0.045   4.919   0.510
 3952SOL    HW211913   4.954   4.816   0.425
 3953SOL     OW11914   2.951   3.341   1.302
 3953SOL    HW111915   2.869   3.354   1.350
 3953SOL    HW211916   2.927   3.357   1.211
 3954SOL     OW11917   2.612   2.728   3.709
 3954SOL    HW111918   2.656   2.686   3.635
 3954SOL    HW211919   2.637   2.674   3.784
 3955SOL     OW11920   2.265   1.998   0.718
 3955SOL    HW111921   2.179   2.039   0.708
 3955SOL    HW211922   2.327   2.064   0.685
 3956SOL     OW11923   4.588   0.678   1.836
 3956SOL    HW111924   4.637   0.601   1.866
 3956SOL    HW211925   4.502   0.668   1.875
 3957SOL     OW11926   1.798   0.581   1.855
 3957SOL    HW111927   1.809   0.552   1.765
 3957SOL    HW211928   1.860   0.527   1.905
 3958SOL     OW11929   4.251   2.598   2.439
 3958SOL    HW111930   4.297   2.574   2.519
 3958SOL    HW211931   4.173   2.542   2.438
 3959SOL     OW11932   1.709   3.673   4.485
 3959SOL    HW111933   1.770   3.609   4.523
 3959SOL    HW211934   1.720   3.662   4.391
 3960SOL     OW11935   4.252   3.173   0.348
 3960SOL    HW111936   4.179   3.201   0.294
 3960SOL    HW211937   4.288   3.254   0.384
 3961SOL     OW11938   2.766   1.438   2.310
 3961SOL    HW111939   2.740   1.396   2.392
 3961SOL    HW211940   2.835   1.500   2.335
 3962SOL     OW11941   3.068   3.574   2.102
 3962SOL    HW111942   3.024   3.658   2.109
 3962SOL    HW211943   3.152   3.587   2.145
 3963SOL     OW11944   4.165   4.390   1.477
 3963SOL    HW111945   4.125   4.342   1.549
 3963SOL    HW211946   4.090   4.420   1.425
 3964SOL     OW11947   1.955   3.270   0.130
 3964SOL    HW111948   2.043   3.255   0.096
 3964SOL    HW211949   1.958   3.235   0.219
 3965SOL     OW11950   1.655   2.077   0.701
 3965SOL    HW111951   1.655   2.130   0.621
 3965SOL    HW211952   1.580   2.019   0.690
 3966SOL     OW11953   4.160   1.054   2.590
 3966SOL    HW111954   4.147   1.007   2.673
 3966SOL    HW211955   4.075   1.050   2.546
 3967SOL     OW11956   4.907   2.655   2.218
 3967SOL    HW111957   0.009   2.701   2.236
 3967SOL    HW211958   4.887   2.676   2.127
 3968SOL     OW11959   1.407   0.883   3.754
 3968SOL    HW111960   1.333   0.864   3.812
 3968SOL    HW211961   1.440   0.797   3.729
 3969SOL     OW11962   0.179   1.739   0.489
 3969SOL    HW111963   0.194   1.736   0.394
 3969SOL    HW211964   0.253   1.788   0.523
 3970SOL     OW11965   1.780   4.978   2.401
 3970SOL    HW111966   1.714   0.065   2.388
 3970SOL    HW211967   1.858   0.031   2.357
 3971SOL     OW11968   0.535   2.440   1.323
 3971SOL    HW111969   0.509   2.500   1.253
 3971SOL    HW211970   0.486   2.470   1.400
 3972SOL     OW11971   4.751   1.540   4.523
 3972SOL    HW111972   4.709   1.617   4.483
 3972SOL    HW211973   4.729   1.547   4.616
 3973SOL     OW11974   1.096   3.744   0.844
 3973SOL    HW111975   1.054   3.769   0.926
 3973SOL    HW211976   1.135   3.659   0.862
 3974SOL     OW11977   4.932   4.915   4.333
 3974SOL    HW111978   4.931   4.879   4.245
 3974SOL    HW211979   0.031   4.879   4.373
 3975SOL     OW11980   4.915   2.421   2.380
 3975SOL    HW111981   0.007   2.424   2.443
 3975SOL    HW211982   4.931   2.497   2.323
 3976SOL     OW11983   1.840   3.583   1.779
 3976SOL    HW111984   1.848   3.650   1.847
 3976SOL    HW211985   1.904   3.516   1.804
 3977SOL     OW11986   0.695   4.909   4.801
 3977SOL    HW111987   0.776   4.917   4.851
 3977SOL    HW211988   0.635   4.972   4.842
 3978SOL     OW11989   2.285   0.446   1.084
 3978SOL    HW111990   2.283   0.481   1.173
 3978SOL    HW211991   2.271   0.522   1.028
 3979SOL     OW11992   0.389   1.316   2.123
 3979SOL    HW111993   0.481   1.307   2.150
 3979SOL    HW211994   0.347   1.362   2.196
 3980SOL     OW11995   0.161   2.189   2.658
 3980SOL    HW111996   0.255   2.205   2.651
 3980SOL    HW211997   0.154   2.105   2.704
 3981SOL     OW11998   2.118   1.650   0.962
 3981SOL    HW111999   2.047   1.713   0.972
 3981SOL    HW212000   2.076   1.564   0.971
 3982SOL     OW12001   3.658   1.881   0.317
 3982SOL    HW112002   3.615   1.960   0.349
 3982SOL    HW212003   3.673   1.828   0.395
 3983SOL     OW12004   0.148   2.602   1.115
 3983SOL    HW112005   0.181   2.572   1.199
 3983SOL    HW212006   0.114   2.523   1.072
 3984SOL     OW12007   0.330   2.218   3.531
 3984SOL    HW112008   0.283   2.137   3.548
 3984SOL    HW212009   0.375   2.238   3.614
 3985SOL     OW12010   3.300   0.337   0.591
 3985SOL    HW112011   3.358   0.345   0.667
 3985SOL    HW212012   3.359   0.328   0.516
 3986SOL     OW12013   0.913   0.022   3.051
 3986SOL    HW112014   0.943   0.069   2.973
 3986SOL    HW212015   0.939   4.912   3.037
 3987SOL     OW12016   1.425   4.556   4.894
 3987SOL    HW112017   1.398   4.500   4.967
 3987SOL    HW212018   1.380   4.639   4.910
 3988SOL     OW12019   4.373   0.823   2.505
 3988SOL    HW112020   4.456   0.871   2.500
 3988SOL    HW212021   4.306   0.890   2.510
 3989SOL     OW12022   4.669   4.135   1.618
 3989SOL    HW112023   4.697   4.118   1.708
 3989SOL    HW212024   4.749   4.125   1.566
 3990SOL     OW12025   1.844   1.179   4.663
 3990SOL    HW112026   1.886   1.127   4.595
 3990SOL    HW212027   1.823   1.262   4.621
 3991SOL     OW12028   4.854   1.045   3.201
 3991SOL    HW112029   4.802   1.110   3.154
 3991SOL    HW212030   4.790   0.979   3.229
 3992SOL     OW12031   2.841   1.620   0.288
 3992SOL    HW112032   2.806   1.552   0.230
 3992SOL    HW212033   2.936   1.620   0.271
 3993SOL     OW12034   3.085   2.475   2.054
 3993SOL    HW112035   3.032   2.511   1.983
 3993SOL    HW212036   3.073   2.380   2.048
 3994SOL     OW12037   3.776   0.394   0.161
 3994SOL    HW112038   3.775   0.488   0.144
 3994SOL    HW212039   3.684   0.371   0.173
 3995SOL     OW12040   3.009   1.876   0.336
 3995SOL    HW112041   2.938   1.932   0.368
 3995SOL    HW212042   2.973   1.833   0.258
 3996SOL     OW12043   2.062   1.745   3.359
 3996SOL    HW112044   2.108   1.827   3.372
 3996SOL    HW212045   2.036   1.717   3.447
 3997SOL     OW12046   3.458   3.487   3.539
 3997SOL    HW112047   3.486   3.397   3.552
 3997SOL    HW212048   3.370   3.481   3.501
 3998SOL     OW12049   2.832   4.368   4.393
 3998SOL    HW112050   2.903   4.406   4.341
 3998SOL    HW212051   2.768   4.439   4.401
 3999SOL     OW12052   2.163   1.056   0.230
 3999SOL    HW112053   2.186   1.116   0.159
 3999SOL    HW212054   2.067   1.050   0.226
 4000SOL     OW12055   2.690   2.169   2.485
 4000SOL    HW112056   2.750   2.241   2.504
 4000SOL    HW212057   2.609   2.212   2.459
 4001SOL     OW12058   4.166   4.072   4.013
 4001SOL    HW112059   4.231   4.088   4.082
 4001SOL    HW212060   4.083   4.102   4.052
 4002SOL     OW12061   3.495   1.908   3.579
 4002SOL    HW112062   3.508   1.875   3.668
 4002SOL    HW212063   3.548   1.851   3.524
 4003SOL     OW12064   2.643   4.839   0.251
 4003SOL    HW112065   2.693   4.759   0.266
 4003SOL    HW212066   2.551   4.812   0.260
 4004SOL     OW12067   1.942   1.171   2.445
 4004SOL    HW112068   1.898   1.230   2.384
 4004SOL    HW212069   2.002   1.120   2.389
 4005SOL     OW12070   0.067   1.783   1.721
 4005SOL    HW112071   0.014   1.853   1.682
 4005SOL    HW212072   0.003   1.721   1.756
 4006SOL     OW12073   0.194   3.150   2.981
 4006SOL    HW112074   0.268   3.109   3.025
 4006SOL    HW212075   0.201   3.243   3.003
 4007SOL     OW12076   3.451   0.735   4.773
 4007SOL    HW112077   3.528   0.682   4.794
 4007SOL    HW212078   3.480   0.826   4.787
 4008SOL     OW12079   4.231   1.558   3.450
 4008SOL    HW112080   4.272   1.644   3.463
 4008SOL    HW212081   4.264   1.527   3.366
 4009SOL     OW12082   3.482   2.365   3.229
 4009SOL    HW112083   3.407   2.326   3.274
 4009SOL    HW212084   3.467   2.460   3.234
 4010SOL     OW12085   1.627   3.119   1.070
 4010SOL    HW112086   1.644   3.181   1.000
 4010SOL    HW212087   1.668   3.159   1.147
 4011SOL     OW12088   0.349   0.195   0.276
 4011SOL    HW112089   0.257   0.217   0.291
 4011SOL    HW212090   0.381   0.266   0.220
 4012SOL     OW12091   0.673   2.244   2.789
 4012SOL    HW112092   0.659   2.215   2.879
 4012SOL    HW212093   0.758   2.288   2.792
 4013SOL     OW12094   3.066   1.530   3.863
 4013SOL    HW112095   3.118   1.565   3.791
 4013SOL    HW212096   2.997   1.480   3.820
 4014SOL     OW12097   3.620   0.278   4.209
 4014SOL    HW112098   3.552   0.281   4.276
 4014SOL    HW212099   3.698   0.246   4.254
 4015SOL     OW12100   4.115   1.323   2.477
 4015SOL    HW112101   4.124   1.316   2.382
 4015SOL    HW212102   4.112   1.233   2.507
 4016SOL     OW12103   1.064   0.176   3.848
 4016SOL    HW112104   1.035   0.189   3.758
 4016SOL    HW212105   1.092   0.085   3.851
 4017SOL     OW12106   2.245   1.747   0.595
 4017SOL    HW112107   2.243   1.835   0.634
 4017SOL    HW212108   2.267   1.690   0.668
 4018SOL     OW12109   0.592   2.206   1.498
 4018SOL    HW112110   0.572   2.241   1.411
 4018SOL    HW212111   0.684   2.230   1.513
 4019SOL     OW12112   0.161   2.829   3.691
 4019SOL    HW112113   0.192   2.864   3.775
 4019SOL    HW212114   0.230   2.852   3.629
 4020SOL     OW12115   3.080   4.277   3.826
 4020SOL    HW112116   3.048   4.189   3.844
 4020SOL    HW212117   3.101   4.277   3.732
 4021SOL     OW12118   3.563   4.231   4.217
 4021SOL    HW112119   3.503   4.225   4.291
 4021SOL    HW212120   3.628   4.162   4.234
 4022SOL     OW12121   3.481   0.406   1.622
 4022SOL    HW112122   3.444   0.393   1.710
 4022SOL    HW212123   3.565   0.448   1.638
 4023SOL     OW12124   0.019   3.658   3.664
 4023SOL    HW112125   0.089   3.724   3.662
 4023SOL    HW212126   4.922   3.705   3.630
 4024SOL     OW12127   4.453   1.994   3.264
 4024SOL    HW112128   4.424   2.029   3.179
 4024SOL    HW212129   4.486   2.070   3.311
 4025SOL     OW12130   0.461   1.871   0.054
 4025SOL    HW112131   0.414   1.875   4.951
 4025SOL    HW212132   0.475   1.963   0.078
 4026SOL     OW12133   1.201   3.622   1.990
 4026SOL    HW112134   1.129   3.640   2.051
 4026SOL    HW212135   1.217   3.528   2.000
 4027SOL     OW12136   4.176   2.253   0.711
 4027SOL    HW112137   4.248   2.201   0.676
 4027SOL    HW212138   4.166   2.326   0.650
 4028SOL     OW12139   1.357   1.829   4.723
 4028SOL    HW112140   1.447   1.847   4.751
 4028SOL    HW212141   1.342   1.889   4.650
 4029SOL     OW12142   3.840   2.743   3.153
 4029SOL    HW112143   3.867   2.821   3.202
 4029SOL    HW212144   3.920   2.692   3.143
 4030SOL     OW12145   3.148   2.601   1.344
 4030SOL    HW112146   3.108   2.688   1.347
 4030SOL    HW212147   3.098   2.549   1.407
 4031SOL     OW12148   1.281   0.629   4.536
 4031SOL    HW112149   1.304   0.719   4.559
 4031SOL    HW212150   1.343   0.606   4.466
 4032SOL     OW12151   3.528   2.950   2.188
 4032SOL    HW112152   3.570   2.945   2.102
 4032SOL    HW212153   3.449   2.897   2.179
 4033NA      NA12154   3.621   2.363   3.031
   4.98027   4.98027   4.98027
