Protein in water
12154
    1DT5    H5T    1   0.724   3.822   4.751 -1.4561  0.7910  0.5402
    1DT5    O5'    2   0.666   3.780   4.687 -0.0633 -0.9036  0.2952
    1DT5    C5'    3   0.605   3.660   4.724  0.3382  0.5799 -0.3861
    1DT5   H5'1    4   0.677   3.578   4.724  0.6927  0.8710  0.6379
    1DT5   H5'2    5   0.523   3.640   4.655  1.2229  3.0312 -2.2702
    1DT5    C4'    6   0.551   3.652   4.865 -0.9373 -0.2233  0.3972
    1DT5    H4'    7   0.518   3.548   4.873 -0.2875 -0.8365 -3.1010
    1DT5    O4'    8   0.650   3.696   4.953 -0.5660  0.3425 -0.4521
    1DT5    C1'    9   0.602   3.808   5.025 -0.5741  0.8118 -0.2997
    1DT5    H1'   10   0.550   3.772   5.114 -0.3127 -0.0607 -0.4961
    1DT5     N1   11   0.719   3.892   5.084 -0.3170 -0.3724  1.1520
    1DT5     C6   12   0.731   3.891   5.221 -0.2105 -0.4225 -0.0073
    1DT5     H6   13   0.656   3.847   5.286 -1.0028 -1.0382 -1.3171
    1DT5     C5   14   0.834   3.954   5.284  0.1174  0.2188 -0.0274
    1DT5     C7   15   0.833   3.973   5.433 -0.9286  0.3482 -0.4374
    1DT5    H71   16   0.918   4.033   5.467 -0.4392 -0.1820 -0.7206
    1DT5    H72   17   0.749   4.031   5.473 -0.8952 -2.3665  4.2200
    1DT5    H73   18   0.838   3.871   5.471  1.9630 -0.4474 -2.6470
    1DT5     C4   19   0.936   4.022   5.202 -0.0714  0.1790 -0.7694
    1DT5     O4   20   1.024   4.097   5.243 -0.3208 -0.5067  0.3541
    1DT5     N3   21   0.925   3.998   5.065  0.1748 -0.0568 -0.7002
    1DT5     H3   22   1.003   4.035   5.011 -0.4997  1.6785 -0.5190
    1DT5     C2   23   0.818   3.936   4.997 -0.4643  0.4832 -0.0148
    1DT5     O2   24   0.830   3.921   4.877 -0.2380  0.1833  0.1708
    1DT5    C3'   25   0.437   3.754   4.882  0.2271  0.5163  0.2264
    1DT5    H3'   26   0.384   3.765   4.788  0.3059  0.9025  0.2269
    1DT5    C2'   27   0.502   3.878   4.930  0.1971 -0.4794 -0.3992
    1DT5   H2'1   28   0.554   3.931   4.850 -1.0997  1.0002 -0.3267
    1DT5   H2'2   29   0.444   3.949   4.989 -0.9480 -0.8590 -1.0330
    1DT5    O3'   30   0.341   3.724   4.976  0.1756 -0.1347  0.0526
    2DT3      P   31   0.198   3.798   4.989 -0.1516  0.4932 -0.4135
    2DT3    O1P   32   0.112   3.680   5.041 -0.7656 -0.3516  0.5583
    2DT3    O2P   33   0.170   3.868   4.861  0.1227  0.6444 -0.4347
    2DT3    O5'   34   0.230   3.913   5.092 -0.3288  0.2418  0.1300
    2DT3    C5'   35   0.266   3.874   5.228  0.5661  0.3273  0.1080
    2DT3   H5'1   36   0.344   3.798   5.214  0.9252  0.6097  0.5448
    2DT3   H5'2   37   0.179   3.825   5.271 -1.4466  3.8079  0.3494
    2DT3    C4'   38   0.328   3.986   5.318 -0.1501  0.6321  0.3159
    2DT3    H4'   39   0.325   3.944   5.419 -0.1219 -0.3594 -0.0936
    2DT3    O4'   40   0.457   4.024   5.279  0.6430  0.1682  0.5999
    2DT3    C1'   41   0.467   4.168   5.295  0.1021  0.2924  0.5235
    2DT3    H1'   42   0.482   4.205   5.397  0.6244 -0.0631  0.5816
    2DT3     N1   43   0.586   4.220   5.211 -0.0054  0.1155  0.7831
    2DT3     C6   44   0.592   4.223   5.072  0.6536  0.5382 -0.8203
    2DT3     H6   45   0.503   4.184   5.024 -0.2052 -0.7759  1.6414
    2DT3     C5   46   0.696   4.275   5.001 -0.2066 -0.1055  0.0230
    2DT3     C7   47   0.700   4.286   4.851  1.0398  0.3185 -0.7385
    2DT3    H71   48   0.761   4.210   4.802 -0.6687 -1.7354  0.1546
    2DT3    H72   49   0.594   4.270   4.828  0.1072 -0.7400  3.4613
    2DT3    H73   50   0.735   4.384   4.819  0.7586  0.4485 -0.6464
    2DT3     C4   51   0.803   4.338   5.077  0.2533 -0.5696 -0.1123
    2DT3     O4   52   0.904   4.395   5.037  0.0411 -0.2858  0.1085
    2DT3     N3   53   0.795   4.333   5.214  0.1636  0.1228 -0.1659
    2DT3     H3   54   0.869   4.382   5.261 -1.1088  2.1418 -0.1530
    2DT3     C2   55   0.692   4.273   5.286 -1.4529 -0.0015  0.3418
    2DT3     O2   56   0.704   4.271   5.404  0.3232 -0.0341  0.1172
    2DT3    C3'   57   0.238   4.112   5.321  0.3339  0.7909 -0.1654
    2DT3    H3'   58   0.139   4.106   5.275 -0.6855 -2.0326  2.1113
    2DT3    C2'   59   0.331   4.208   5.244  0.4682  0.3369 -0.9586
    2DT3   H2'1   60   0.329   4.218   5.135  0.3909  3.1636 -0.7858
    2DT3   H2'2   61   0.317   4.312   5.273  2.2633  0.3112  0.1103
    2DT3    O3'   62   0.219   4.157   5.460  0.2090  0.5823 -0.8491
    2DT3    H3T   63   0.183   4.083   5.510  0.6763  1.7499  1.3306
    3SOL     OW   64   2.520   0.039   2.266  0.4531  0.6662 -0.0418
    3SOL    HW1   65   2.532   0.133   2.280  0.3318  0.7905 -0.7583
    3SOL    HW2   66   2.607   0.002   2.277  0.5787  0.9174 -0.1746
    4SOL     OW   67   2.771   0.035   0.003 -0.7344 -0.4801  0.7392
    4SOL    HW1   68   2.837  -0.018  -0.041 -0.1513  1.1770 -0.5021
    4SOL    HW2   69   2.821   0.104   0.047 -1.6383  1.8551 -1.6810
    5SOL     OW   70   0.581   4.478   4.112 -0.4252  0.2111  0.2001
    5SOL    HW1   71   0.516   4.490   4.043 -1.5832  3.3659  1.6230
    5SOL    HW2   72   0.532   4.440   4.185 -0.6462  2.0524  1.0769
    6SOL     OW   73   4.275   2.353   4.965 -0.3568  0.1668 -0.4406
    6SOL    HW1   74   4.236   2.306   5.039 -2.4531 -0.7106 -2.0051
    6SOL    HW2   75   4.360   2.384   4.998 -1.3537  0.1356  2.4236
    7SOL     OW   76   4.298   1.380   4.256  0.4986 -0.1890  0.2472
    7SOL    HW1   77   4.368   1.324   4.289 -0.1893 -1.0677  0.2741
    7SOL    HW2   78   4.319   1.467   4.288  0.6778 -0.7415  1.7001
    8SOL     OW   79   2.823   4.498   0.035 -0.3892 -0.3556  0.5571
    8SOL    HW1   80   2.863   4.563  -0.022  0.5506 -0.8257  0.6699
    8SOL    HW2   81   2.851   4.414   0.000 -0.9588 -0.6888  0.8777
    9SOL     OW   82   2.540   1.853   4.317  0.1742  0.3140  0.5037
    9SOL    HW1   83   2.481   1.903   4.260  1.5715  0.1504 -1.1535
    9SOL    HW2   84   2.606   1.917   4.345  1.8905 -0.4621 -1.5135
   10SOL     OW   85   0.808   2.170   3.350  0.4164 -0.4446 -0.3034
   10SOL    HW1   86   0.814   2.154   3.255 -5.4467 -0.7258 -1.0260
   10SOL    HW2   87   0.835   2.087   3.389  1.6076 -0.8105 -1.7927
   11SOL     OW   88   2.292   4.229   1.674  0.4576 -0.0178  0.1789
   11SOL    HW1   89   2.360   4.188   1.727 -0.3974 -1.5012  0.1996
   11SOL    HW2   90   2.277   4.314   1.715  3.6047  1.2311 -0.9852
   12SOL     OW   91   4.768   3.420   1.075 -0.0314  0.1370  0.1380
   12SOL    HW1   92   4.703   3.468   1.024 -0.2225 -0.1304  0.1289
   12SOL    HW2   93   4.849   3.427   1.024  0.0595  0.8305  0.3564
   13SOL     OW   94   0.351   2.052   0.763 -0.4581 -0.2558 -0.3318
   13SOL    HW1   95   0.284   2.017   0.822  0.8717 -2.2260  0.0963
   13SOL    HW2   96   0.431   2.004   0.787  1.0490  1.7945 -1.0378
   14SOL     OW   97   2.003   2.966   1.992 -0.7303  0.7679  0.4721
   14SOL    HW1   98   2.046   2.965   2.078 -0.8741  0.5228  0.5436
   14SOL    HW2   99   1.984   2.873   1.974  0.4493  0.6737 -0.4023
   15SOL     OW  100   0.922   0.780   1.927  0.3064 -0.7973  0.7600
   15SOL    HW1  101   0.902   0.711   1.865 -2.3301  0.5554 -0.0275
   15SOL    HW2  102   0.926   0.737   2.012 -1.7188 -1.8835  0.3445
   16SOL     OW  103   1.700   0.240   4.584  0.6834 -0.0317 -0.3404
   16SOL    HW1  104   1.641   0.304   4.542  0.3907 -1.4005 -2.1342
   16SOL    HW2  105   1.787   0.278   4.575  1.0189 -1.3448 -4.7182
   17SOL     OW  106   2.358   4.383   3.513  0.1200  0.0805  0.2240
   17SOL    HW1  107   2.269   4.411   3.537 -0.4263 -0.9830 -0.4856
   17SOL    HW2  108   2.360   4.389   3.418  0.7198 -0.1460  0.2220
   18SOL     OW  109   1.716   2.061   1.986 -0.5439  0.0085  0.0909
   18SOL    HW1  110   1.676   2.127   1.930  1.3754  1.0941 -0.0681
   18SOL    HW2  111   1.713   2.100   2.074  0.5390  0.3153  0.0051
   19SOL     OW  112   4.409   0.049   1.679  1.0472  0.0117 -0.1919
   19SOL    HW1  113   4.342   0.079   1.618  1.2378  1.8641  0.4641
   19SOL    HW2  114   4.471   0.001   1.624 -0.9090 -2.0760 -0.7648
   20SOL     OW  115   4.080   4.011   2.051 -0.3012 -0.4198  0.3135
   20SOL    HW1  116   4.053   3.959   1.975 -0.8865  0.1701  0.1096
   20SOL    HW2  117   4.175   4.004   2.052 -0.4143 -2.5186  1.0247
   21SOL     OW  118   3.511   2.138   1.856  0.2930  0.0521 -1.0389
   21SOL    HW1  119   3.565   2.183   1.791  0.5437  1.3790  0.0200
   21SOL    HW2  120   3.506   2.200   1.929 -1.0189 -0.8684 -0.3072
   22SOL     OW  121   3.329   2.042   3.155 -0.2146  0.3882  0.4702
   22SOL    HW1  122   3.238   2.012   3.158  0.4460 -1.9321 -0.3021
   22SOL    HW2  123   3.374   1.987   3.219  0.9915  0.0544 -0.6116
   23SOL     OW  124   4.138   1.548   2.045  0.3569  0.1127 -0.5093
   23SOL    HW1  125   4.226   1.564   2.014  0.4618 -0.4103 -0.5037
   23SOL    HW2  126   4.141   1.571   2.138  0.2379  0.9729 -0.7129
   24SOL     OW  127   3.559   4.918   1.034 -0.9283  0.5662  0.0954
   24SOL    HW1  128   3.509   4.878   0.963 -1.1453  1.9336 -0.5592
   24SOL    HW2  129   3.605   4.845   1.075  0.6851 -0.0947 -2.6207
   25SOL     OW  130   0.347   3.283   3.665 -0.1290  0.2388  0.0121
   25SOL    HW1  131   0.308   3.230   3.735  1.3946  0.1272  0.8111
   25SOL    HW2  132   0.278   3.289   3.599 -1.1601 -0.7420  0.9523
   26SOL     OW  133   1.645   2.135   1.626  0.4992 -0.5913  0.5045
   26SOL    HW1  134   1.665   2.205   1.687  1.6140  0.5693 -1.1076
   26SOL    HW2  135   1.706   2.148   1.553 -1.5668 -1.1219 -1.4481
   27SOL     OW  136   0.032   1.436   0.692  0.0777 -0.7155 -0.5146
   27SOL    HW1  137  -0.028   1.502   0.727 -0.0241 -0.2262 -1.5466
   27SOL    HW2  138  -0.007   1.352   0.714  0.4219 -0.4580  1.1975
   28SOL     OW  139   2.466   0.817   3.996 -0.2893  0.7121 -0.0815
   28SOL    HW1  140   2.536   0.775   3.946 -0.8425  0.9650 -1.1089
   28SOL    HW2  141   2.459   0.766   4.076  2.4775  1.9245  1.0390
   29SOL     OW  142   0.538   0.557   4.257 -0.3353  0.1798 -0.1399
   29SOL    HW1  143   0.552   0.497   4.331  0.0612 -0.3637 -0.6415
   29SOL    HW2  144   0.589   0.635   4.280 -3.0518  1.5436  1.8336
   30SOL     OW  145   3.296   0.120   3.441  0.0370 -1.0503 -0.2748
   30SOL    HW1  146   3.244   0.143   3.518  0.0611  1.6099 -0.9776
   30SOL    HW2  147   3.387   0.130   3.469  0.1343 -2.3116 -0.0518
   31SOL     OW  148   3.507   1.468   2.560  0.1148 -0.0593 -0.4406
   31SOL    HW1  149   3.581   1.455   2.501 -1.5074 -1.4631 -2.3287
   31SOL    HW2  150   3.463   1.383   2.562 -1.5613  0.7818  0.4280
   32SOL     OW  151   0.010   4.966   2.486  0.0449 -0.4039  0.3462
   32SOL    HW1  152  -0.024   5.004   2.567 -2.3938 -2.3583  0.3762
   32SOL    HW2  153   0.067   4.895   2.514  0.5829  0.0198  0.3297
   33SOL     OW  154   0.566   0.477   2.446  0.5199 -0.0788 -0.6952
   33SOL    HW1  155   0.604   0.446   2.364 -2.3564 -0.7747 -1.9068
   33SOL    HW2  156   0.577   0.572   2.443 -1.0991  0.1380 -2.8793
   34SOL     OW  157   0.411   1.543   0.445  0.2179 -0.5029 -0.6385
   34SOL    HW1  158   0.444   1.632   0.428  0.9943  0.4309  4.3077
   34SOL    HW2  159   0.316   1.552   0.443  0.2894  0.5013  0.0405
   35SOL     OW  160   4.408   2.270   1.107  0.2286 -0.5533  0.9440
   35SOL    HW1  161   4.470   2.249   1.037 -1.2768  0.6060 -0.8481
   35SOL    HW2  162   4.455   2.331   1.164  1.3547 -1.1992  0.7236
   36SOL     OW  163   2.205   3.966   4.077  0.1435  1.1956  0.1909
   36SOL    HW1  164   2.274   3.970   4.010 -0.5449  0.0715 -0.6151
   36SOL    HW2  165   2.250   3.935   4.156  0.4658 -0.1847 -0.5076
   37SOL     OW  166   2.512   2.736   0.298  0.2098  0.1829  0.1485
   37SOL    HW1  167   2.463   2.815   0.277  0.3936  0.6694  1.4540
   37SOL    HW2  168   2.445   2.670   0.315  0.0476  0.2530 -0.2051
   38SOL     OW  169   4.868   1.003   1.269  0.0189  0.5005  0.3865
   38SOL    HW1  170   4.903   0.950   1.198  1.0789  0.3252  1.0164
   38SOL    HW2  171   4.939   1.009   1.332 -0.8151  0.8553  1.3284
   39SOL     OW  172   0.776   0.048   2.673 -0.7281  0.0661  0.1590
   39SOL    HW1  173   0.774   0.016   2.763  0.5168 -0.1429  0.1387
   39SOL    HW2  174   0.720   0.125   2.673  0.1289  0.7204  1.3831
   40SOL     OW  175   1.253   2.768   4.662  0.1033  0.1770 -0.3488
   40SOL    HW1  176   1.239   2.855   4.623  1.7842  0.2409 -0.8862
   40SOL    HW2  177   1.236   2.707   4.590 -2.1878 -0.0701  0.3108
   41SOL     OW  178   4.837   1.723   0.281 -0.0603 -0.0092 -0.3571
   41SOL    HW1  179   4.909   1.771   0.322 -0.3656 -1.7978  2.5164
   41SOL    HW2  180   4.879   1.650   0.235  0.0381 -0.4479  0.4232
   42SOL     OW  181   2.468   3.749   0.047 -0.2919  0.3043 -0.7619
   42SOL    HW1  182   2.518   3.795  -0.021 -2.0383  1.0423 -1.6160
   42SOL    HW2  183   2.424   3.678   0.000  1.6381 -1.7219  0.3826
   43SOL     OW  184   4.268   1.097   4.614 -0.2137  0.6403  0.3448
   43SOL    HW1  185   4.269   1.096   4.710 -0.2699 -5.2590  0.6486
   43SOL    HW2  186   4.191   1.149   4.591 -2.6566 -1.0629  3.8026
   44SOL     OW  187   3.169   3.256   3.333 -0.5841 -0.1424  0.1424
   44SOL    HW1  188   3.223   3.188   3.374  1.9663  2.1009  0.8472
   44SOL    HW2  189   3.144   3.314   3.405 -2.4327 -0.1302 -0.4715
   45SOL     OW  190   1.815   0.917   2.353  0.2965  0.5871  0.0426
   45SOL    HW1  191   1.822   0.922   2.257 -0.5270 -0.3788 -0.0913
   45SOL    HW2  192   1.817   1.008   2.382 -1.0132  0.9992 -1.0323
   46SOL     OW  193   3.051   3.798   0.874  0.1598 -0.0653 -0.6321
   46SOL    HW1  194   3.080   3.795   0.783 -0.0488 -0.8666 -0.6804
   46SOL    HW2  195   3.131   3.782   0.925  0.1800 -0.1724 -0.6956
   47SOL     OW  196   1.847   2.405   1.235  0.4589 -0.3483 -0.3000
   47SOL    HW1  197   1.787   2.480   1.234 -1.3825 -1.7257 -0.3381
   47SOL    HW2  198   1.913   2.426   1.169 -1.2438  0.3275 -1.8815
   48SOL     OW  199   0.376   1.591   3.794  0.0981 -0.5160  0.3336
   48SOL    HW1  200   0.344   1.681   3.783 -3.8896 -1.6704  0.7531
   48SOL    HW2  201   0.461   1.600   3.837  0.2855  3.0344 -0.4979
   49SOL     OW  202   2.940   4.428   1.262 -0.4629  0.1747  0.5207
   49SOL    HW1  203   2.871   4.448   1.324 -1.2733 -1.7217  0.3150
   49SOL    HW2  204   2.959   4.335   1.277 -1.4904 -0.7073 -2.7601
   50SOL     OW  205   2.708   0.761   4.582  0.0778  0.6338 -0.1454
   50SOL    HW1  206   2.781   0.795   4.531  0.4937  1.4444  0.9393
   50SOL    HW2  207   2.692   0.828   4.648 -0.9709 -0.0099  0.2788
   51SOL     OW  208   4.903   2.742   4.144  0.1246  0.3338  0.0570
   51SOL    HW1  209   4.845   2.670   4.167  0.8966 -0.6990 -1.1082
   51SOL    HW2  210   4.859   2.820   4.177 -1.2407 -0.5612  0.4109
   52SOL     OW  211   1.205   1.393   2.647 -0.3692 -0.4382  0.0413
   52SOL    HW1  212   1.146   1.457   2.609 -0.2258 -0.9457 -1.0676
   52SOL    HW2  213   1.188   1.312   2.599  0.7225 -0.7702  0.1773
   53SOL     OW  214   0.917   3.165   2.569 -0.2603  0.0136  0.5101
   53SOL    HW1  215   0.992   3.155   2.628 -0.5330 -1.7969  0.5994
   53SOL    HW2  216   0.938   3.106   2.495 -1.1128  0.2905  0.0431
   54SOL     OW  217   1.033   0.673   4.883  0.2831  0.3284  0.2953
   54SOL    HW1  218   1.064   0.633   4.802 -0.6390 -1.0957  0.6007
   54SOL    HW2  219   0.972   0.741   4.855  0.1732  0.0229 -0.2154
   55SOL     OW  220   0.592   0.747   0.873  0.3812  0.2245 -0.2329
   55SOL    HW1  221   0.555   0.833   0.850  1.6854  0.9031  0.1349
   55SOL    HW2  222   0.586   0.743   0.968 -0.6177 -0.5506 -0.3100
   56SOL     OW  223   0.706   2.990   4.768  0.3841  0.5232 -0.1156
   56SOL    HW1  224   0.754   2.947   4.696  0.5693  1.1012 -0.3467
   56SOL    HW2  225   0.769   2.992   4.840  0.6690  1.1494 -0.3720
   57SOL     OW  226   4.133   0.450   1.106  0.4582 -0.3905  0.2704
   57SOL    HW1  227   4.108   0.506   1.179 -2.5583 -1.6127  0.3055
   57SOL    HW2  228   4.103   0.496   1.028  3.0123  0.5608 -0.2632
   58SOL     OW  229   2.444   2.210   1.577 -0.0295  0.2470  0.0976
   58SOL    HW1  230   2.518   2.153   1.593  0.7741  1.3520  0.4433
   58SOL    HW2  231   2.370   2.151   1.565  1.1522 -0.9583 -1.7639
   59SOL     OW  232   1.018   2.253   4.315 -0.3689  0.4207  0.4177
   59SOL    HW1  233   0.954   2.228   4.249  1.0650 -1.8135 -0.2392
   59SOL    HW2  234   1.078   2.311   4.269 -0.2100  0.0613  0.1667
   60SOL     OW  235   1.385   0.855   3.972 -0.4465 -0.0212  0.1197
   60SOL    HW1  236   1.306   0.803   3.960 -0.2525 -0.7779  1.7585
   60SOL    HW2  237   1.457   0.794   3.955 -0.2124  0.3810 -0.3536
   61SOL     OW  238   1.724   4.832   3.032 -0.4950 -0.2318  0.1620
   61SOL    HW1  239   1.739   4.882   2.952 -2.2451 -0.8035 -0.5954
   61SOL    HW2  240   1.722   4.740   3.002  0.5786 -0.6002  1.1653
   62SOL     OW  241   3.226   1.814   2.660  0.1124  0.2519 -0.3935
   62SOL    HW1  242   3.300   1.820   2.599 -0.4400  2.2265 -0.9437
   62SOL    HW2  243   3.151   1.792   2.604 -0.1813  0.8954 -0.2630
   63SOL     OW  244   1.534   2.535   4.477  0.2441 -0.5374 -0.0528
   63SOL    HW1  245   1.523   2.498   4.564  1.4761 -0.7552  0.0212
   63SOL    HW2  246   1.546   2.628   4.492 -0.4138 -0.4457 -0.0629
   64SOL     OW  247   2.920   2.632   3.495  0.3225  0.3641 -0.5700
   64SOL    HW1  248   2.912   2.539   3.515  2.3348  0.1566 -0.4755
   64SOL    HW2  249   2.954   2.634   3.405 -3.0582  1.1483 -1.9708
   65SOL     OW  250   0.966   2.301   4.757  0.3967 -0.2832 -0.3470
   65SOL    HW1  251   1.042   2.304   4.815 -0.3240  1.3390  0.6011
   65SOL    HW2  252   0.898   2.259   4.810  0.4806 -1.2889 -1.0176
   66SOL     OW  253   1.013   0.158   4.855 -0.4105 -0.4295 -0.0426
   66SOL    HW1  254   1.088   0.218   4.855  0.3781 -1.3544 -1.4269
   66SOL    HW2  255   0.970   0.174   4.939  1.6913 -0.2957  1.0833
   67SOL     OW  256   1.368   4.698   0.239 -0.1159  0.1955  0.4593
   67SOL    HW1  257   1.280   4.680   0.205 -0.2991 -0.4148  1.2411
   67SOL    HW2  258   1.366   4.667   0.329  0.7048  0.7954  0.6925
   68SOL     OW  259   1.116   3.650   0.023 -0.7353  0.3321  0.2585
   68SOL    HW1  260   1.043   3.594   0.051 -1.7713  1.8998  0.8037
   68SOL    HW2  261   1.151   3.686   0.105  0.5387 -0.2232 -0.0159
   69SOL     OW  262   1.934   3.656   1.075 -0.2954 -0.0412  0.0995
   69SOL    HW1  263   1.927   3.594   1.147 -2.6936 -0.9167 -0.7967
   69SOL    HW2  264   2.026   3.650   1.047  0.8831  0.7600  3.3528
   70SOL     OW  265   2.968   0.376   2.217 -0.2356  0.5092 -0.1863
   70SOL    HW1  266   3.057   0.349   2.194  0.3270  3.2420 -1.6624
   70SOL    HW2  267   2.914   0.349   2.142 -0.3687  0.1374  0.0449
   71SOL     OW  268   4.299   2.654   0.477  0.2197  0.4266  0.1847
   71SOL    HW1  269   4.255   2.669   0.560 -1.0088  0.4978 -0.4654
   71SOL    HW2  270   4.232   2.615   0.421  1.3002 -0.5483 -0.4736
   72SOL     OW  271   4.518   0.814   3.724 -0.3628  0.1358 -0.2039
   72SOL    HW1  272   4.610   0.823   3.701 -0.3462 -1.3850 -0.8577
   72SOL    HW2  273   4.479   0.765   3.652 -2.1599  2.4213 -0.9120
   73SOL     OW  274   2.125   4.473   4.770  0.2038 -0.0705  0.1469
   73SOL    HW1  275   2.089   4.449   4.855 -1.4200 -2.6887 -1.1554
   73SOL    HW2  276   2.203   4.419   4.760 -1.1558 -1.9261 -1.0867
   74SOL     OW  277   1.838   4.887   2.630  0.0644 -0.1600  0.1893
   74SOL    HW1  278   1.884   4.849   2.555 -0.6349 -0.1975 -0.2332
   74SOL    HW2  279   1.889   4.964   2.653 -0.2123  0.3685 -0.9057
   75SOL     OW  280   2.932   2.434   0.067 -0.0011 -0.0314  0.3146
   75SOL    HW1  281   2.945   2.498  -0.004  1.1688 -0.7595 -0.1657
   75SOL    HW2  282   2.882   2.364   0.027 -0.6355  0.2289  0.6372
   76SOL     OW  283   4.773   4.866   2.875  0.1872 -0.3793  0.3938
   76SOL    HW1  284   4.740   4.812   2.804 -1.3702  0.0744  0.7379
   76SOL    HW2  285   4.837   4.924   2.834 -2.2699  1.4205 -1.1626
   77SOL     OW  286   0.808   3.031   4.078 -0.3985  0.9416 -0.0098
   77SOL    HW1  287   0.795   3.040   3.983 -0.2301  3.2316  0.1190
   77SOL    HW2  288   0.728   3.067   4.116 -0.6974 -0.4734  0.7454
   78SOL     OW  289   3.050   1.729   0.432 -0.0559 -0.5842  0.0140
   78SOL    HW1  290   3.013   1.811   0.463 -0.3726  0.1742 -2.1666
   78SOL    HW2  291   3.075   1.682   0.511 -0.3297  1.3873  1.3400
   79SOL     OW  292   2.875   1.041   0.189 -0.3821 -0.0879  0.1066
   79SOL    HW1  293   2.952   1.033   0.133 -0.0638  1.5541  0.2510
   79SOL    HW2  294   2.827   0.959   0.176  1.7181 -1.4621  0.5601
   80SOL     OW  295   0.842   1.972   1.336 -0.2211 -0.8098 -0.0044
   80SOL    HW1  296   0.820   1.906   1.270 -2.0976 -1.0523  0.7829
   80SOL    HW2  297   0.932   1.952   1.362  0.5573 -0.7487 -2.3845
   81SOL     OW  298   1.017   3.706   2.139  0.5031  0.0277 -0.3441
   81SOL    HW1  299   1.098   3.743   2.104  1.6045 -1.0189  0.9956
   81SOL    HW2  300   1.024   3.716   2.233 -1.6370  1.2565 -0.2586
   82SOL     OW  301   2.829   3.192   0.216 -0.1526 -0.1508  0.3315
   82SOL    HW1  302   2.821   3.242   0.135 -1.4978 -0.8780 -0.0098
   82SOL    HW2  303   2.911   3.222   0.255  0.3509  0.4436 -1.1320
   83SOL     OW  304   1.436   4.100   2.957 -0.6668 -0.1689 -0.0947
   83SOL    HW1  305   1.356   4.055   2.982 -0.5973 -0.9855 -1.2308
   83SOL    HW2  306   1.458   4.155   3.032 -2.2611  0.0452  0.2495
   84SOL     OW  307   2.581   2.265   4.658 -0.8052  0.6115 -0.3581
   84SOL    HW1  308   2.635   2.342   4.677  0.3157 -0.5784  1.5153
   84SOL    HW2  309   2.493   2.301   4.643  0.1119  2.4256 -1.8097
   85SOL     OW  310   4.032   0.585   1.587  0.0388 -0.1870  0.5524
   85SOL    HW1  311   3.942   0.555   1.602  0.3248 -1.9459 -0.8504
   85SOL    HW2  312   4.084   0.537   1.652  0.1458 -0.4734  0.2597
   86SOL     OW  313   4.491   0.474   1.122  0.6031  0.2991  0.4697
   86SOL    HW1  314   4.501   0.385   1.155  0.7709 -0.0326 -0.4385
   86SOL    HW2  315   4.581   0.508   1.118  0.5727  0.3808  0.4661
   87SOL     OW  316   0.083   3.771   1.976  0.1824  0.0739 -0.2217
   87SOL    HW1  317   0.031   3.744   2.052 -0.4622 -0.1228 -0.7257
   87SOL    HW2  318   0.025   3.830   1.927  0.6617  0.3510 -0.4637
   88SOL     OW  319   1.418   0.021   1.282  0.8820  0.0593 -0.3309
   88SOL    HW1  320   1.418   0.098   1.339  0.5055 -0.2914  0.1532
   88SOL    HW2  321   1.395   0.054   1.195  3.3135  0.9022 -0.7283
   89SOL     OW  322   4.134   0.535   2.810 -0.0474  0.7770  0.6169
   89SOL    HW1  323   4.082   0.563   2.735  1.8991  2.2430 -0.2659
   89SOL    HW2  324   4.156   0.444   2.792 -0.4637  0.8112 -0.0720
   90SOL     OW  325   3.924   1.855   0.882 -0.6050 -0.5073  0.3369
   90SOL    HW1  326   4.008   1.831   0.841 -0.8845 -1.2095  0.1625
   90SOL    HW2  327   3.940   1.845   0.976 -1.5750 -4.6177  0.2706
   91SOL     OW  328   3.898   0.109   2.990 -0.7466  0.4319 -0.4057
   91SOL    HW1  329   3.930   0.159   3.065 -2.6409 -0.7056  1.2531
   91SOL    HW2  330   3.945   0.146   2.915  2.8074  0.2543  1.5028
   92SOL     OW  331   1.127   1.755   4.858  0.4758 -0.4834 -0.2840
   92SOL    HW1  332   1.062   1.694   4.824 -0.8785  0.8588 -0.2256
   92SOL    HW2  333   1.169   1.791   4.781  0.8172 -1.0051 -0.3426
   93SOL     OW  334   1.677   0.341   1.282 -0.6283  0.3020 -0.0715
   93SOL    HW1  335   1.672   0.247   1.263 -2.1557  0.3516 -0.0822
   93SOL    HW2  336   1.598   0.377   1.241  0.1216  1.6544 -0.3736
   94SOL     OW  337   4.448   0.476   4.654  0.6097  0.3033 -0.3967
   94SOL    HW1  338   4.372   0.533   4.644  1.2353  1.1592 -0.3621
   94SOL    HW2  339   4.511   0.528   4.704  0.7919 -0.8062  0.5869
   95SOL     OW  340   3.204   1.269   4.913 -0.4229  0.4559  0.3589
   95SOL    HW1  341   3.218   1.262   5.007 -1.0328  0.4841  0.4526
   95SOL    HW2  342   3.194   1.363   4.897  1.3832  0.6319  0.0109
   96SOL     OW  343   2.907   2.562   3.172  0.8685  0.2720 -0.6318
   96SOL    HW1  344   2.915   2.615   3.093  2.3802 -0.4972 -1.0327
   96SOL    HW2  345   2.887   2.474   3.140 -2.6689  0.6821  0.0608
   97SOL     OW  346   2.125   0.005   4.303  0.2215 -0.3298  0.2510
   97SOL    HW1  347   2.172   0.085   4.282 -0.2758 -0.3679 -1.0782
   97SOL    HW2  348   2.191  -0.065   4.300  0.1237 -0.3926 -1.6401
   98SOL     OW  349   2.561   3.652   3.783  0.4349  0.1350  0.2104
   98SOL    HW1  350   2.492   3.640   3.848 -0.2420 -0.3075 -0.5682
   98SOL    HW2  351   2.616   3.722   3.818 -1.2633  1.5579  0.1480
   99SOL     OW  352   1.259   3.421   2.207  0.0928 -0.5229 -0.3047
   99SOL    HW1  353   1.318   3.349   2.186  1.0262  0.2451 -0.3817
   99SOL    HW2  354   1.179   3.403   2.157  0.3331 -1.4685 -0.3517
  100SOL     OW  355   2.161   4.307   1.209 -0.1415 -0.6369  0.1889
  100SOL    HW1  356   2.201   4.386   1.172  0.4367 -1.2750 -0.5951
  100SOL    HW2  357   2.069   4.312   1.182  0.1459 -0.8044 -0.8912
  101SOL     OW  358   0.187   4.755   2.483  0.0383 -0.3102 -0.2345
  101SOL    HW1  359   0.172   4.758   2.388 -1.0175  0.1529 -0.0698
  101SOL    HW2  360   0.280   4.732   2.492  0.8208  2.0333 -1.4160
  102SOL     OW  361   3.292   1.534   3.573 -0.2518  0.0390 -0.3819
  102SOL    HW1  362   3.208   1.522   3.528  0.3595 -3.6279 -0.8437
  102SOL    HW2  363   3.354   1.551   3.503 -0.3469  1.1642 -0.1996
  103SOL     OW  364   3.325   2.726   2.592  0.5334  0.3236  0.2277
  103SOL    HW1  365   3.398   2.782   2.566  0.8485  0.3733  1.1787
  103SOL    HW2  366   3.366   2.643   2.615 -0.0389 -0.7718 -2.3645
  104SOL     OW  367   3.368   0.034   4.174 -0.1123 -0.4011 -0.1807
  104SOL    HW1  368   3.303  -0.019   4.220 -1.9704  1.2686 -0.7511
  104SOL    HW2  369   3.364   0.120   4.217  2.0225 -0.3326  0.0114
  105SOL     OW  370   4.305   2.803   4.905  0.1425  0.0790  0.3173
  105SOL    HW1  371   4.354   2.885   4.902  1.7949 -0.7788  2.2928
  105SOL    HW2  372   4.345   2.748   4.837  0.6784  0.0496  0.6540
  106SOL     OW  373   1.421   1.101   0.572 -0.4950 -0.4640 -0.0461
  106SOL    HW1  374   1.445   1.144   0.490 -0.6591 -0.8938 -0.3209
  106SOL    HW2  375   1.326   1.114   0.579 -0.2124  1.2698  1.0593
  107SOL     OW  376   1.489   4.229   4.928 -0.3490  0.0535  0.2897
  107SOL    HW1  377   1.491   4.320   4.958  0.4028 -0.1806  0.9895
  107SOL    HW2  378   1.465   4.179   5.006  0.7869 -0.4851  0.3218
  108SOL     OW  379   1.108   3.772   0.763 -0.1364  0.0603  0.1018
  108SOL    HW1  380   1.079   3.863   0.752  1.1990  0.4214 -0.6719
  108SOL    HW2  381   1.052   3.722   0.703  1.1336  0.8162 -1.8042
  109SOL     OW  382   3.266   3.500   0.848 -0.2156 -0.0851  0.0609
  109SOL    HW1  383   3.276   3.406   0.864 -2.3082 -0.2288  0.7777
  109SOL    HW2  384   3.210   3.505   0.771 -0.5142  0.5673  0.3171
  110SOL     OW  385   0.954   0.949   4.285  0.2052  0.3484 -0.0303
  110SOL    HW1  386   0.866   0.969   4.253 -0.1409 -1.4958 -0.3769
  110SOL    HW2  387   0.985   1.030   4.324 -1.2462  1.3238 -0.8205
  111SOL     OW  388   0.635   1.118   4.588  0.6750 -0.8055  0.3503
  111SOL    HW1  389   0.726   1.093   4.608  1.2570 -0.2093 -1.3745
  111SOL    HW2  390   0.601   1.045   4.537  0.7655 -0.2916 -0.4654
  112SOL     OW  391   2.327   2.154   1.231  0.7186 -0.2539  0.0280
  112SOL    HW1  392   2.345   2.239   1.273  1.4993 -0.3318 -0.1321
  112SOL    HW2  393   2.323   2.174   1.138 -0.7406 -0.1300  0.0913
  113SOL     OW  394   1.049   3.603   4.744 -0.3571 -0.6254 -0.5016
  113SOL    HW1  395   1.067   3.616   4.837  1.8486 -0.1719 -0.9394
  113SOL    HW2  396   1.112   3.537   4.716 -0.9147 -0.6820 -1.6909
  114SOL     OW  397   0.820   1.747   0.830 -0.0118 -0.0932  0.0256
  114SOL    HW1  398   0.888   1.693   0.789  0.4232  0.3671  0.1342
  114SOL    HW2  399   0.801   1.703   0.913 -1.0648 -1.1597 -0.7583
  115SOL     OW  400   3.116   0.140   1.122 -0.4274 -0.4956  0.1879
  115SOL    HW1  401   3.061   0.099   1.055  3.2495 -0.8106 -3.0528
  115SOL    HW2  402   3.142   0.069   1.179 -1.3653 -0.8198  0.2179
  116SOL     OW  403   2.561   3.317   3.900  0.2568 -0.1689 -0.3484
  116SOL    HW1  404   2.488   3.341   3.844  1.1047  0.5573 -1.1716
  116SOL    HW2  405   2.586   3.229   3.870 -1.2985 -1.1512  1.0489
  117SOL     OW  406   2.218   2.347   2.221  0.1591  0.3187  0.2164
  117SOL    HW1  407   2.269   2.271   2.191  1.9041  1.3017  0.5435
  117SOL    HW2  408   2.179   2.318   2.304  1.9487  0.1948  1.0579
  118SOL     OW  409   3.181   1.271   3.190  0.3109  0.5491  0.0038
  118SOL    HW1  410   3.213   1.272   3.100  0.2862  1.1064 -0.0005
  118SOL    HW2  411   3.128   1.350   3.198  0.0203  0.3194  0.4035
  119SOL     OW  412   4.514   4.250   0.290 -0.3589 -0.3943 -0.8516
  119SOL    HW1  413   4.547   4.211   0.371 -0.8536  0.5894 -0.1646
  119SOL    HW2  414   4.426   4.213   0.280 -0.2207 -0.6731 -1.0570
  120SOL     OW  415   1.287   2.974   2.297 -0.2133  0.2321 -0.1207
  120SOL    HW1  416   1.264   3.007   2.384 -0.6640  1.0518 -0.5497
  120SOL    HW2  417   1.287   2.879   2.308 -2.4546  0.2238  0.2551
  121SOL     OW  418   3.197   3.328   3.068  0.4466 -0.1790  0.0849
  121SOL    HW1  419   3.157   3.415   3.058 -0.4090 -0.6819 -1.2606
  121SOL    HW2  420   3.172   3.300   3.155 -0.2767  0.4497  0.0933
  122SOL     OW  421   3.278   4.861   2.841 -0.0725 -0.5179 -0.0918
  122SOL    HW1  422   3.204   4.860   2.902  1.6532 -1.4491  2.1391
  122SOL    HW2  423   3.251   4.803   2.770 -1.1362 -1.5675  1.1212
  123SOL     OW  424   0.980   2.510   1.822  0.5168  0.1083 -0.0556
  123SOL    HW1  425   0.956   2.594   1.784  2.1327  0.3006 -0.7391
  123SOL    HW2  426   1.015   2.532   1.908 -1.0510 -0.1120  0.6788
  124SOL     OW  427   1.702   2.006   4.215 -0.2694 -0.7384 -0.4750
  124SOL    HW1  428   1.782   1.965   4.250  0.7403  0.2709 -1.5091
  124SOL    HW2  429   1.668   1.942   4.152 -0.0511 -1.0011 -0.3286
  125SOL     OW  430   3.530   2.551   2.164  0.1148 -0.4267  0.2380
  125SOL    HW1  431   3.555   2.643   2.173  0.2972 -0.5345  0.9623
  125SOL    HW2  432   3.593   2.515   2.102  0.1652 -0.1099  0.1022
  126SOL     OW  433   0.857   1.411   4.415 -0.1011 -0.0698  0.1169
  126SOL    HW1  434   0.846   1.480   4.480 -1.2109 -0.7370  0.6794
  126SOL    HW2  435   0.770   1.401   4.376  0.1425 -0.8523 -0.2543
  127SOL     OW  436   2.845   4.425   4.197 -0.6044  0.1267  0.8082
  127SOL    HW1  437   2.934   4.426   4.162 -0.1556  3.6092  1.7055
  127SOL    HW2  438   2.789   4.423   4.119  0.2691  0.3003  0.1575
  128SOL     OW  439   2.819   4.701   0.431  0.1488 -0.5075  0.7392
  128SOL    HW1  440   2.901   4.724   0.473  0.0696 -0.9675  1.1470
  128SOL    HW2  441   2.831   4.728   0.339  0.7505 -0.5773  0.7939
  129SOL     OW  442   2.821   3.310   3.232 -0.1269 -0.0634  0.2372
  129SOL    HW1  443   2.849   3.379   3.292  0.1452 -0.2049  0.2708
  129SOL    HW2  444   2.902   3.266   3.206  0.0722  1.5165 -2.1224
  130SOL     OW  445   1.362   0.353   3.198 -0.0866 -0.9998 -0.2571
  130SOL    HW1  446   1.455   0.338   3.214 -0.1379 -0.2524  0.8065
  130SOL    HW2  447   1.358   0.385   3.108  0.8608  0.3715  0.1586
  131SOL     OW  448   4.006   2.430   3.510  0.1228  0.0250  0.2899
  131SOL    HW1  449   4.012   2.352   3.566 -0.4658 -0.0794  0.2074
  131SOL    HW2  450   4.084   2.481   3.532  0.7257 -0.7834  0.0437
  132SOL     OW  451   4.933   0.074   3.220  0.9304 -0.3575  0.0982
  132SOL    HW1  452   4.839   0.057   3.214  0.4808  0.6671  2.5948
  132SOL    HW2  453   4.945   0.157   3.173  0.4401 -0.1253  0.3737
  133SOL     OW  454   3.055   2.672   2.631 -0.4237 -0.6924  0.0198
  133SOL    HW1  455   3.133   2.717   2.601 -0.5932 -1.2960 -1.4001
  133SOL    HW2  456   2.996   2.742   2.658 -0.8627  0.0527 -2.5624
  134SOL     OW  457   3.838   3.403   3.615  0.1764 -0.4223 -0.3318
  134SOL    HW1  458   3.892   3.343   3.563  0.9410  1.2149 -1.5240
  134SOL    HW2  459   3.751   3.398   3.576  0.4954  0.0115 -1.1148
  135SOL     OW  460   1.280   4.778   0.643 -0.3188  0.7476 -0.2587
  135SOL    HW1  461   1.337   4.706   0.616 -0.5660  1.8097 -4.1217
  135SOL    HW2  462   1.337   4.836   0.693  0.6772 -0.5611  0.1837
  136SOL     OW  463   1.028   0.750   2.873  0.0563 -0.4805  0.0449
  136SOL    HW1  464   0.936   0.736   2.849  0.2235 -0.2460 -0.7901
  136SOL    HW2  465   1.060   0.663   2.897 -0.3607 -0.5763  0.2706
  137SOL     OW  466   0.140   4.922   3.365 -0.5356 -0.4224 -0.0630
  137SOL    HW1  467   0.052   4.960   3.359  0.5301  2.2695  0.0241
  137SOL    HW2  468   0.158   4.920   3.459 -0.5512 -1.1246 -0.0719
  138SOL     OW  469   2.303   3.262   3.732  0.2215 -0.3903  0.0742
  138SOL    HW1  470   2.250   3.340   3.748 -0.3207 -0.0725 -2.8527
  138SOL    HW2  471   2.244   3.189   3.750 -0.5752 -0.0551 -1.0680
  139SOL     OW  472   2.214   0.336   3.346 -0.0582 -0.3326  0.3758
  139SOL    HW1  473   2.238   0.317   3.255 -1.0199  2.7091 -0.6473
  139SOL    HW2  474   2.298   0.341   3.392  0.7652  1.3796 -1.1506
  140SOL     OW  475   0.884   0.571   1.027 -0.0754 -0.1222  0.5995
  140SOL    HW1  476   0.924   0.620   0.956 -0.0439  0.3240  0.9178
  140SOL    HW2  477   0.798   0.611   1.038 -1.1543 -1.8737 -0.9101
  141SOL     OW  478   2.429   2.087   0.559  0.5471 -0.0855  0.1632
  141SOL    HW1  479   2.469   2.170   0.586  1.1490  0.2571 -1.6281
  141SOL    HW2  480   2.338   2.109   0.539  0.9474  0.3924 -1.2473
  142SOL     OW  481   1.325   2.038   2.852  0.0532 -0.7925 -1.0598
  142SOL    HW1  482   1.388   1.966   2.846  0.8032 -0.2508 -0.0313
  142SOL    HW2  483   1.249   2.007   2.803  0.2482 -2.4061 -0.4185
  143SOL     OW  484   0.446   3.640   2.640 -0.2956 -0.4771  0.0250
  143SOL    HW1  485   0.453   3.715   2.581  2.5905 -0.9779 -0.4206
  143SOL    HW2  486   0.357   3.606   2.626 -1.7076  2.7899  0.2481
  144SOL     OW  487   2.527   1.609   2.311 -0.2719  0.0901 -0.5339
  144SOL    HW1  488   2.463   1.666   2.268 -0.4365  0.8351  0.6685
  144SOL    HW2  489   2.478   1.531   2.334 -0.7113  0.5650  0.1813
  145SOL     OW  490   3.045   3.333   0.322 -0.0050  0.2506 -0.5246
  145SOL    HW1  491   3.135   3.348   0.350 -0.7777  2.3838  1.0835
  145SOL    HW2  492   3.007   3.420   0.315 -2.7544 -0.6128  1.7391
  146SOL     OW  493   0.384   2.999   4.596  0.3998  0.1067  0.0742
  146SOL    HW1  494   0.365   3.083   4.555 -0.6821 -1.0643 -1.9551
  146SOL    HW2  495   0.479   2.988   4.586  0.4384  0.7567 -0.2951
  147SOL     OW  496   4.968   1.586   3.601  0.2291  0.2769 -0.2664
  147SOL    HW1  497   4.927   1.618   3.521  0.2496  0.5398 -0.1739
  147SOL    HW2  498   4.936   1.645   3.669  0.2731  0.1023 -0.0946
  148SOL     OW  499   3.223   2.237   1.940 -0.2304 -0.4240 -0.0875
  148SOL    HW1  500   3.163   2.169   1.908 -0.9306  0.1393 -0.0030
  148SOL    HW2  501   3.187   2.262   2.025  0.8748 -0.9834  0.5675
  149SOL     OW  502   4.954   0.130   0.201 -0.7081  0.0071 -0.6290
  149SOL    HW1  503   4.942   0.090   0.287 -1.0907  1.1699 -0.1148
  149SOL    HW2  504   5.047   0.120   0.182 -0.8485 -1.4372 -0.7050
  150SOL     OW  505   2.998   1.678   2.555  0.2591  0.3296 -0.1146
  150SOL    HW1  506   2.910   1.655   2.527  0.4940 -2.7658  1.2524
  150SOL    HW2  507   2.987   1.712   2.644  0.5399 -2.7311  1.2057
  151SOL     OW  508   2.971   4.916   2.623 -0.3712 -0.2354  0.0159
  151SOL    HW1  509   2.940   4.917   2.714 -1.2528  1.1519 -0.2694
  151SOL    HW2  510   3.023   4.996   2.615 -0.7086 -0.0863 -0.8210
  152SOL     OW  511   4.894   3.983   0.116  0.9399 -0.5621  0.7312
  152SOL    HW1  512   4.868   3.891   0.116 -0.2919 -0.2527 -0.1574
  152SOL    HW2  513   4.879   4.012   0.206 -3.6944 -0.0150  0.0511
  153SOL     OW  514   0.443   2.938   3.997  0.2205  0.4685  0.0844
  153SOL    HW1  515   0.532   2.969   4.011 -0.2322  1.8365  0.0288
  153SOL    HW2  516   0.395   2.964   4.075 -0.5142  1.2499 -0.6079
  154SOL     OW  517   0.555   3.765   4.013  0.2545  0.5284 -0.0106
  154SOL    HW1  518   0.491   3.728   4.074  0.7112  2.6943  1.9129
  154SOL    HW2  519   0.531   3.857   4.006  3.0699  1.4294  0.7835
  155SOL     OW  520   3.135   1.261   3.568  0.4650  0.2623 -0.2061
  155SOL    HW1  521   3.115   1.351   3.543 -0.0442  0.2403  0.1111
  155SOL    HW2  522   3.096   1.251   3.655  1.4258  0.0556  0.2207
  156SOL     OW  523   2.296   0.632   3.599 -0.3460 -0.0704  0.0920
  156SOL    HW1  524   2.368   0.632   3.662 -1.1185  1.1658  1.0133
  156SOL    HW2  525   2.219   0.607   3.651 -0.9887  0.9136 -0.3528
  157SOL     OW  526   3.903   3.474   1.931  0.2394 -0.5476  0.0112
  157SOL    HW1  527   3.836   3.510   1.989  0.3442  0.2529 -0.3574
  157SOL    HW2  528   3.879   3.382   1.921 -1.0274 -0.1809 -0.4313
  158SOL     OW  529   4.981   2.473   1.714  0.2873  0.2497  0.8295
  158SOL    HW1  530   4.903   2.451   1.765  0.6364  1.0252  1.7442
  158SOL    HW2  531   4.949   2.529   1.644  0.2221  2.3385  2.4214
  159SOL     OW  532   3.889   0.846   1.760  0.3335  0.5402  0.1157
  159SOL    HW1  533   3.868   0.915   1.697  0.6462  1.7024  1.2531
  159SOL    HW2  534   3.951   0.886   1.820 -0.5346 -0.2863  1.6238
  160SOL     OW  535   2.687   3.493   1.604 -0.1542  0.1790 -0.5161
  160SOL    HW1  536   2.645   3.531   1.527 -0.1206 -0.9266 -1.1024
  160SOL    HW2  537   2.763   3.548   1.620 -1.6340  2.0606  0.4065
  161SOL     OW  538   4.119   4.882   1.572  0.2082  0.0215 -0.4757
  161SOL    HW1  539   4.143   4.957   1.628  1.3434 -0.2553 -0.5699
  161SOL    HW2  540   4.127   4.806   1.630  1.7360 -0.3039 -1.0916
  162SOL     OW  541   1.131   4.936   2.273 -0.0810  0.1154  0.2228
  162SOL    HW1  542   1.210   4.955   2.325 -0.2908  0.7154  0.3312
  162SOL    HW2  543   1.059   4.970   2.326 -0.3810 -0.1113 -0.0399
  163SOL     OW  544   4.517   0.181   2.079  0.1918 -0.5326 -0.1981
  163SOL    HW1  545   4.549   0.226   2.158 -4.6035 -3.1356  3.8689
  163SOL    HW2  546   4.549   0.091   2.088  0.8116 -0.5335 -2.1413
  164SOL     OW  547   3.150   1.307   1.647 -0.3535 -0.2645 -0.3734
  164SOL    HW1  548   3.098   1.229   1.627 -3.0098  0.7467  1.8364
  164SOL    HW2  549   3.130   1.367   1.575 -0.2385 -0.7667 -0.8311
  165SOL     OW  550   1.821   2.759   4.288  0.1601 -0.2997 -1.0301
  165SOL    HW1  551   1.782   2.751   4.375  0.0539  0.3619 -1.0116
  165SOL    HW2  552   1.901   2.707   4.293 -0.5216 -1.3721 -0.9592
  166SOL     OW  553   4.924   2.489   4.711  0.4459  0.1761  0.3643
  166SOL    HW1  554   4.963   2.564   4.667  0.2939 -1.1711 -2.2238
  166SOL    HW2  555   4.994   2.424   4.714 -0.9429 -1.6843 -2.8793
  167SOL     OW  556   0.312   0.147   3.299  0.0915 -0.1015 -0.1684
  167SOL    HW1  557   0.395   0.104   3.278  0.5035  0.4783  0.2341
  167SOL    HW2  558   0.254   0.075   3.325  0.2989 -0.5641 -0.9659
  168SOL     OW  559   0.119   3.934   3.884  0.5831  0.3565  0.2843
  168SOL    HW1  560   0.210   3.909   3.874 -0.0727 -3.1202  1.6382
  168SOL    HW2  561   0.085   3.937   3.794  1.4304 -0.9763 -0.0983
  169SOL     OW  562   4.177   3.585   1.598 -0.2446 -0.5305  0.8028
  169SOL    HW1  563   4.110   3.623   1.655  0.6144  2.0358  0.2278
  169SOL    HW2  564   4.241   3.547   1.659  1.2501  3.1459  1.8267
  170SOL     OW  565   4.719   0.509   2.835 -0.2953  0.4079 -0.5361
  170SOL    HW1  566   4.777   0.569   2.881 -1.9247  1.1692  0.6214
  170SOL    HW2  567   4.657   0.479   2.902 -1.0295 -0.6317 -1.6339
  171SOL     OW  568   4.132   1.108   0.766 -0.0755 -0.1135  0.0213
  171SOL    HW1  569   4.123   1.192   0.810  0.1566  0.0455 -0.2302
  171SOL    HW2  570   4.155   1.130   0.676 -0.4169 -0.4390 -0.1466
  172SOL     OW  571   0.734   4.779   4.814 -0.0481 -0.3000 -0.5942
  172SOL    HW1  572   0.697   4.766   4.901 -0.3858 -1.8670 -0.9324
  172SOL    HW2  573   0.821   4.816   4.830 -0.7835  1.1316  0.3021
  173SOL     OW  574   4.178   4.201   4.740  0.0543  0.0386 -0.0864
  173SOL    HW1  575   4.229   4.175   4.664  0.2277 -1.3429  0.4662
  173SOL    HW2  576   4.154   4.292   4.724 -0.9943 -0.5848 -2.3819
  174SOL     OW  577   3.758   2.193   2.442  0.7920 -0.2292  0.2411
  174SOL    HW1  578   3.817   2.263   2.414  0.7460 -0.2954 -0.0197
  174SOL    HW2  579   3.675   2.213   2.398  0.4855  0.1190  0.9576
  175SOL     OW  580   0.296   0.411   2.025  0.6966  0.2718  0.1103
  175SOL    HW1  581   0.240   0.410   2.103  0.3708 -1.1797 -0.1216
  175SOL    HW2  582   0.365   0.473   2.047 -1.0000  2.1801  0.3840
  176SOL     OW  583   3.757   4.358   4.128 -0.0727  0.0506  0.0585
  176SOL    HW1  584   3.804   4.351   4.046 -0.7216  0.6041 -0.3742
  176SOL    HW2  585   3.747   4.453   4.142 -1.5696 -0.0505 -0.1756
  177SOL     OW  586   2.024   0.336   3.010 -0.2112 -0.5719 -0.4010
  177SOL    HW1  587   1.983   0.298   2.932 -0.0358 -0.2563 -0.6507
  177SOL    HW2  588   2.113   0.302   3.009 -0.8195 -2.3090  0.8596
  178SOL     OW  589   4.640   1.503   3.155 -0.1449 -0.0748 -0.3740
  178SOL    HW1  590   4.568   1.454   3.114 -2.2248  2.5306 -0.0595
  178SOL    HW2  591   4.657   1.455   3.236 -0.4690 -1.5809 -1.1394
  179SOL     OW  592   2.643   2.544   2.992  0.0780 -0.5023 -0.1078
  179SOL    HW1  593   2.588   2.557   3.069  1.0885  0.6381  0.4568
  179SOL    HW2  594   2.657   2.632   2.957  2.5791 -0.5329  0.5645
  180SOL     OW  595   2.528   0.830   2.265 -0.1382  0.5034  0.0052
  180SOL    HW1  596   2.548   0.895   2.331 -1.6890  0.9373  0.0807
  180SOL    HW2  597   2.449   0.862   2.222  0.4259 -0.1153 -1.6034
  181SOL     OW  598   0.296   1.090   4.336 -0.1829 -0.0646  0.0374
  181SOL    HW1  599   0.220   1.133   4.376  0.0290  0.5313 -0.1801
  181SOL    HW2  600   0.274   1.085   4.243 -0.3035 -0.6478  0.0936
  182SOL     OW  601   0.609   2.264   2.638 -0.0668  0.7118 -0.3947
  182SOL    HW1  602   0.609   2.360   2.642  2.5659  0.8122 -0.7301
  182SOL    HW2  603   0.638   2.245   2.549  1.5583 -0.3031  0.2978
  183SOL     OW  604   4.947   3.092   3.088 -0.4962 -0.6554  0.3859
  183SOL    HW1  605   5.018   3.156   3.093 -1.4335  0.3052  2.3594
  183SOL    HW2  606   4.867   3.145   3.083 -1.3249 -1.5980  2.5389
  184SOL     OW  607   3.895   4.155   4.260  0.6440 -0.2254 -0.5649
  184SOL    HW1  608   3.953   4.133   4.187  0.5228  0.5074 -0.8938
  184SOL    HW2  609   3.834   4.219   4.223 -0.4220 -1.0268 -0.2427
  185SOL     OW  610   1.298   3.446   1.671 -0.2835  0.3178 -0.2970
  185SOL    HW1  611   1.294   3.516   1.606 -0.0621 -0.4268 -1.1300
  185SOL    HW2  612   1.353   3.379   1.631 -0.3740 -0.2753  0.5472
  186SOL     OW  613   0.359   0.822   2.543 -0.7428 -0.4122  0.5111
  186SOL    HW1  614   0.319   0.756   2.600  0.7035 -1.8022 -0.0142
  186SOL    HW2  615   0.300   0.827   2.468 -1.7699  0.2044  1.3166
  187SOL     OW  616   3.953   0.391   0.096  0.3438 -0.0748  0.0794
  187SOL    HW1  617   3.963   0.479   0.059 -1.6520 -0.7438 -2.3435
  187SOL    HW2  618   3.858   0.379   0.102  0.5524 -2.2109 -0.1152
  188SOL     OW  619   1.367   4.161   2.384  0.0444  0.3114  0.0063
  188SOL    HW1  620   1.312   4.204   2.449  1.9591  1.6150  0.8405
  188SOL    HW2  621   1.309   4.146   2.309 -1.7318  0.4512  1.3098
  189SOL     OW  622   0.813   4.569   3.647 -0.0187 -0.1774  0.3822
  189SOL    HW1  623   0.805   4.474   3.653  0.1949 -0.1896  0.5087
  189SOL    HW2  624   0.806   4.600   3.737 -1.0225  0.0102  0.2441
  190SOL     OW  625   3.426   2.169   2.343 -0.1802  0.6227  0.2565
  190SOL    HW1  626   3.413   2.109   2.415  0.2973 -0.4720 -0.5379
  190SOL    HW2  627   3.427   2.256   2.383  0.4571  0.0130  1.6091
  191SOL     OW  628   0.461   4.871   0.643 -0.3418 -0.0672  0.3463
  191SOL    HW1  629   0.519   4.815   0.591 -2.0210 -1.8935  0.3387
  191SOL    HW2  630   0.518   4.906   0.712  0.6658 -2.3441  0.7685
  192SOL     OW  631   3.899   1.859   1.428 -0.1321 -0.3569 -0.2532
  192SOL    HW1  632   3.951   1.779   1.422 -0.2240 -0.6515  1.9017
  192SOL    HW2  633   3.808   1.829   1.421 -0.1292 -0.2745 -0.6646
  193SOL     OW  634   0.326   3.994   1.242  0.1065  0.6816  0.2968
  193SOL    HW1  635   0.292   3.921   1.293  1.7368 -0.8347 -0.6869
  193SOL    HW2  636   0.247   4.037   1.208 -0.9012 -0.7791  0.6680
  194SOL     OW  637   0.937   0.778   1.593 -0.1888 -0.6228 -0.0755
  194SOL    HW1  638   1.005   0.829   1.637 -1.2540  0.7940  0.0123
  194SOL    HW2  639   0.982   0.738   1.518  0.8833 -0.2678  0.3521
  195SOL     OW  640   2.559   2.061   0.926 -0.4402 -0.1774  0.2745
  195SOL    HW1  641   2.482   2.112   0.902  0.8375  1.9806  0.5010
  195SOL    HW2  642   2.526   1.994   0.985 -2.3046 -0.1108 -0.6188
  196SOL     OW  643   2.145   2.767   3.701 -0.0245 -0.0374 -0.2242
  196SOL    HW1  644   2.200   2.748   3.778 -0.2430  1.6402  0.3698
  196SOL    HW2  645   2.109   2.681   3.677 -1.5191 -0.3825  2.7493
  197SOL     OW  646   3.159   4.098   0.739 -0.1083  0.2414  0.0141
  197SOL    HW1  647   3.130   4.135   0.822 -1.1350 -1.9337  0.6933
  197SOL    HW2  648   3.242   4.055   0.760  0.0340  0.3721 -0.2754
  198SOL     OW  649   1.119   4.578   3.238  0.3355  0.2749  0.8426
  198SOL    HW1  650   1.103   4.512   3.170  3.5682  0.3114 -0.1112
  198SOL    HW2  651   1.109   4.530   3.320  0.4470 -0.8465  0.2294
  199SOL     OW  652   4.756   2.632   1.574  0.4325  0.9015  0.1083
  199SOL    HW1  653   4.760   2.727   1.564  0.7487  0.8841  0.0597
  199SOL    HW2  654   4.668   2.615   1.609  0.0236  1.1335 -0.7603
  200SOL     OW  655   0.115   2.766   2.635  0.3591  0.2401  0.3350
  200SOL    HW1  656   0.102   2.690   2.578  0.9693  1.5301 -1.6554
  200SOL    HW2  657   0.180   2.737   2.699  0.3522 -1.0006 -0.1825
  201SOL     OW  658   1.406   1.357   3.225 -0.1476  0.2502 -0.4360
  201SOL    HW1  659   1.480   1.347   3.284 -0.5458  1.2668  0.2716
  201SOL    HW2  660   1.329   1.338   3.279 -0.5337  1.4186 -0.5384
  202SOL     OW  661   0.318   2.497   1.208 -0.1734 -0.2407  0.3414
  202SOL    HW1  662   0.271   2.414   1.197 -1.0190  0.4841 -1.9415
  202SOL    HW2  663   0.249   2.563   1.216  0.4761  0.4708  0.2222
  203SOL     OW  664   0.421   1.509   4.266 -0.8621  0.2839  0.2556
  203SOL    HW1  665   0.480   1.456   4.320 -0.0442 -0.7374 -1.5479
  203SOL    HW2  666   0.351   1.449   4.241 -1.4197  0.8409  0.4605
  204SOL     OW  667   1.089   2.805   4.889  0.3468 -0.1315  0.3179
  204SOL    HW1  668   1.041   2.723   4.901 -0.3077  0.4120  1.5339
  204SOL    HW2  669   1.152   2.786   4.819  0.7577 -1.9027  1.1189
  205SOL     OW  670   3.306   2.475   1.826 -0.5922 -0.2947 -0.1709
  205SOL    HW1  671   3.280   2.417   1.897  2.2294  1.0218  2.1980
  205SOL    HW2  672   3.366   2.423   1.772 -0.8138 -0.5925 -0.1276
  206SOL     OW  673   2.289   1.681   0.904  0.2963 -0.0368 -0.6042
  206SOL    HW1  674   2.319   1.772   0.913 -0.8700  0.2203  1.1293
  206SOL    HW2  675   2.320   1.637   0.982 -0.6658 -0.6776 -0.5632
  207SOL     OW  676   2.252   2.194   3.074  0.0003  0.2040 -0.2178
  207SOL    HW1  677   2.233   2.101   3.080  1.1786 -0.0067  0.7633
  207SOL    HW2  678   2.166   2.236   3.076 -0.5113 -0.8205  0.4944
  208SOL     OW  679   4.836   0.863   0.845 -0.3370 -0.3461 -0.5573
  208SOL    HW1  680   4.867   0.818   0.766 -2.8405 -1.0287 -1.2625
  208SOL    HW2  681   4.773   0.928   0.812 -0.6109  0.1118  0.8046
  209SOL     OW  682   2.918   4.530   2.865  0.3559 -0.8355  0.6789
  209SOL    HW1  683   2.936   4.579   2.946 -0.6950 -1.2567  1.1813
  209SOL    HW2  684   3.005   4.515   2.827  0.8864 -0.7994  1.8280
  210SOL     OW  685   2.269   0.930   2.240 -0.3797  0.1439  0.2437
  210SOL    HW1  686   2.256   0.994   2.310 -0.6046 -0.1006  0.4304
  210SOL    HW2  687   2.272   0.981   2.160 -0.8781  0.3598  0.3602
  211SOL     OW  688   3.736   0.868   3.145 -0.4290 -0.8919  0.3524
  211SOL    HW1  689   3.681   0.864   3.223 -1.5534  0.8335 -0.2782
  211SOL    HW2  690   3.801   0.935   3.165 -0.4510 -0.7587 -0.0140
  212SOL     OW  691   4.978   1.119   4.392 -0.4564 -0.1175  0.1827
  212SOL    HW1  692   4.979   1.105   4.297  1.2956 -0.5479  0.2335
  212SOL    HW2  693   4.966   1.214   4.401 -2.1744 -0.2454 -0.4019
  213SOL     OW  694   0.022   2.405   3.253  0.8429 -0.4948  0.0778
  213SOL    HW1  695  -0.031   2.428   3.328  0.7773  1.4255 -0.4984
  213SOL    HW2  696  -0.041   2.387   3.183  0.8431  2.3892 -0.7782
  214SOL     OW  697   1.766   3.012   1.635  0.3223  0.0256  0.2301
  214SOL    HW1  698   1.672   2.994   1.632  0.1735  0.7220  0.6095
  214SOL    HW2  699   1.806   2.926   1.652 -0.1966 -0.3705 -0.5345
  215SOL     OW  700   1.764   0.030   4.746  0.1920  0.5908 -0.5516
  215SOL    HW1  701   1.694   0.052   4.808  0.9856  3.1715 -0.4460
  215SOL    HW2  702   1.750   0.090   4.672 -0.4424 -2.0740 -2.7666
  216SOL     OW  703   0.161   0.972   2.923 -0.2888 -0.0652 -0.1756
  216SOL    HW1  704   0.244   1.010   2.951 -1.6341  1.2962  2.3283
  216SOL    HW2  705   0.171   0.878   2.939  0.8221  0.0479 -0.1256
  217SOL     OW  706   3.114   1.010   2.163 -0.1567  0.4234 -0.2377
  217SOL    HW1  707   3.059   0.985   2.089 -0.9002 -1.2517  0.8373
  217SOL    HW2  708   3.186   0.946   2.162 -0.0338  0.5530  0.3446
  218SOL     OW  709   4.283   3.339   2.487  0.0406  0.4699 -0.3311
  218SOL    HW1  710   4.340   3.264   2.502  2.1559  1.6653 -1.7972
  218SOL    HW2  711   4.248   3.325   2.398 -1.0227  0.3578  0.0889
  219SOL     OW  712   2.700   0.122   3.224  0.2449  0.4413 -0.1415
  219SOL    HW1  713   2.670   0.058   3.289  1.3689  0.2120  0.1896
  219SOL    HW2  714   2.735   0.069   3.153 -0.6050  0.6958 -0.7631
  220SOL     OW  715   2.957   4.470   0.578 -0.5182 -0.5364  0.1205
  220SOL    HW1  716   2.919   4.520   0.505 -1.1448 -1.5710 -0.2716
  220SOL    HW2  717   2.886   4.416   0.611  0.0111 -0.7745  0.8992
  221SOL     OW  718   2.402   1.928   4.109 -0.3122 -0.1356  0.4373
  221SOL    HW1  719   2.314   1.897   4.086  0.2412 -2.1468  0.7860
  221SOL    HW2  720   2.408   2.016   4.072 -1.9010 -0.5848 -0.9893
  222SOL     OW  721   1.922   1.740   1.506  0.6156 -0.1357 -0.2123
  222SOL    HW1  722   1.906   1.821   1.555  1.0195 -1.1019  1.6156
  222SOL    HW2  723   2.005   1.708   1.541  0.0947 -1.7159 -0.3750
  223SOL     OW  724   0.562   2.778   0.869  0.3980  0.2687 -0.2686
  223SOL    HW1  725   0.559   2.684   0.884  1.2313  0.2722 -0.0084
  223SOL    HW2  726   0.655   2.799   0.865  0.2217  1.0155 -0.7694
  224SOL     OW  727   4.656   2.175   4.109 -0.1178  0.3042  0.2815
  224SOL    HW1  728   4.591   2.216   4.166  0.3856  0.7386  0.5563
  224SOL    HW2  729   4.605   2.131   4.042 -0.7662 -1.2030  1.7126
  225SOL     OW  730   1.850   0.224   3.246  0.6451 -0.0152  0.4524
  225SOL    HW1  731   1.885   0.136   3.231  0.8239  0.0767  0.3215
  225SOL    HW2  732   1.885   0.276   3.173  1.6441  0.4749  1.2589
  226SOL     OW  733   0.730   3.426   1.390 -0.0566  0.1315  0.0786
  226SOL    HW1  734   0.820   3.439   1.422 -0.6778 -0.0452  1.9926
  226SOL    HW2  735   0.682   3.393   1.466 -1.6551 -0.2261 -1.0399
  227SOL     OW  736   2.281   3.990   4.958  0.1575  0.5145  0.3200
  227SOL    HW1  737   2.208   3.931   4.940  0.9770 -0.3522 -0.2486
  227SOL    HW2  738   2.350   3.933   4.992  0.4988  1.3555  1.0746
  228SOL     OW  739   4.087   4.312   1.577 -0.0727  0.3537 -0.2742
  228SOL    HW1  740   4.018   4.377   1.568 -1.0373 -0.7314 -0.9262
  228SOL    HW2  741   4.041   4.228   1.583  1.1567 -0.3242  0.1020
  229SOL     OW  742   3.035   4.369   4.867  1.0429  0.5536 -0.6120
  229SOL    HW1  743   3.066   4.324   4.788  1.0031 -0.0029 -0.3171
  229SOL    HW2  744   3.098   4.345   4.935  0.8963  0.7654 -0.3964
  230SOL     OW  745   3.084   2.306   0.788  0.4193 -0.2701 -0.3366
  230SOL    HW1  746   3.045   2.316   0.701  1.6461 -1.7443 -1.1105
  230SOL    HW2  747   3.144   2.232   0.779  2.2808  0.9494  1.1734
  231SOL     OW  748   4.812   3.516   4.247 -0.1697  0.3571 -0.4226
  231SOL    HW1  749   4.901   3.481   4.254 -0.3040  0.0314 -0.3241
  231SOL    HW2  750   4.803   3.573   4.323 -1.1868 -2.2025  1.5547
  232SOL     OW  751   0.778   0.709   2.792  0.0836 -0.0372 -0.1368
  232SOL    HW1  752   0.756   0.684   2.703  1.5072  0.0520 -0.5393
  232SOL    HW2  753   0.752   0.635   2.846 -1.5861  0.2529 -0.4880
  233SOL     OW  754   4.105   2.456   3.187 -0.1721 -0.1290 -0.1326
  233SOL    HW1  755   4.155   2.374   3.185  1.4301  0.7974 -0.1799
  233SOL    HW2  756   4.151   2.513   3.125  0.2922  1.6217  1.7234
  234SOL     OW  757   4.708   4.599   0.703 -0.5860 -0.1875  0.0960
  234SOL    HW1  758   4.777   4.664   0.719 -0.1192  0.5204 -3.7058
  234SOL    HW2  759   4.626   4.648   0.715 -0.2583  0.7954 -1.3940
  235SOL     OW  760   3.721   1.043   4.922  0.2561 -0.0381  0.5137
  235SOL    HW1  761   3.702   1.129   4.959 -2.9182 -0.3941 -0.0266
  235SOL    HW2  762   3.746   0.989   4.997  0.0135  0.8043  1.2049
  236SOL     OW  763   3.757   3.370   1.283  0.4981 -0.4629  0.3640
  236SOL    HW1  764   3.740   3.418   1.365  0.4777  1.4905 -0.7250
  236SOL    HW2  765   3.839   3.324   1.300  0.6808  0.1832  1.3953
  237SOL     OW  766   3.077   2.108   2.538  0.0941  0.1161  0.0195
  237SOL    HW1  767   3.065   2.151   2.623  0.1747 -1.7184  1.0089
  237SOL    HW2  768   3.167   2.076   2.540 -0.5829 -1.9433  0.2666
  238SOL     OW  769   0.342   1.350   1.950 -0.3780  0.2860  0.0729
  238SOL    HW1  770   0.341   1.276   1.889 -1.8289  0.5251 -0.2302
  238SOL    HW2  771   0.421   1.399   1.928  1.5941 -2.0748  1.4184
  239SOL     OW  772   2.301   1.187   3.103 -0.4531  0.3268 -0.1675
  239SOL    HW1  773   2.288   1.104   3.056 -1.6165 -1.5945  3.1852
  239SOL    HW2  774   2.396   1.195   3.110 -0.3171 -0.6646 -0.6797
  240SOL     OW  775   3.377   2.734   4.321  0.1221 -0.3482  0.4166
  240SOL    HW1  776   3.363   2.812   4.268  2.7192 -0.5799 -0.7729
  240SOL    HW2  777   3.291   2.693   4.328 -1.0062  1.7900 -0.2245
  241SOL     OW  778   2.123   3.186   0.932 -0.3065  0.3953 -0.7610
  241SOL    HW1  779   2.084   3.200   0.845 -0.8231  2.0134 -0.3153
  241SOL    HW2  780   2.052   3.207   0.993  0.3717  0.3636  0.0497
  242SOL     OW  781   1.448   1.473   4.638 -0.9171  0.1722  0.0061
  242SOL    HW1  782   1.391   1.541   4.603 -0.9113  0.5179  0.6482
  242SOL    HW2  783   1.536   1.508   4.628 -0.8879  0.0899 -0.0250
  243SOL     OW  784   2.090   0.206   1.371 -0.7515 -0.2612  0.0074
  243SOL    HW1  785   2.067   0.126   1.322 -1.4426 -1.0906  1.6257
  243SOL    HW2  786   2.007   0.242   1.398 -0.3630 -0.7556  1.9893
  244SOL     OW  787   1.395   4.624   4.375 -0.2388 -0.4586 -0.2014
  244SOL    HW1  788   1.386   4.618   4.470 -2.4938 -1.7606 -0.4213
  244SOL    HW2  789   1.466   4.686   4.362  1.3644 -1.5665  2.3329
  245SOL     OW  790   2.678   4.217   0.460  0.0282  0.3853 -0.1648
  245SOL    HW1  791   2.586   4.236   0.441  0.1124 -0.5429 -1.6570
  245SOL    HW2  792   2.726   4.281   0.406  0.2752  0.9055  0.6547
  246SOL     OW  793   0.732   0.967   1.794 -0.1456  0.3838 -0.1850
  246SOL    HW1  794   0.660   0.905   1.784  0.2438 -0.1898  0.5186
  246SOL    HW2  795   0.796   0.922   1.848  0.7617  0.8744 -0.8171
  247SOL     OW  796   0.399   2.651   3.064  0.0000 -0.0533  0.0376
  247SOL    HW1  797   0.448   2.579   3.025 -2.0800 -2.0033  0.8517
  247SOL    HW2  798   0.465   2.702   3.111  1.5768 -1.2093 -0.8236
  248SOL     OW  799   3.189   2.483   4.256 -0.6484  0.5829 -0.5921
  248SOL    HW1  800   3.106   2.478   4.208 -0.9264 -2.4180 -0.0337
  248SOL    HW2  801   3.249   2.427   4.206  0.4917  1.2284  0.0186
  249SOL     OW  802   2.035   1.968   3.717  0.4508  0.3836 -0.1731
  249SOL    HW1  803   2.130   1.972   3.703  0.3362  2.1192 -0.6718
  249SOL    HW2  804   2.021   2.013   3.801  0.2539 -2.0706  1.2260
  250SOL     OW  805   2.244   2.555   1.237 -0.1835  0.1300  0.4793
  250SOL    HW1  806   2.324   2.509   1.263 -0.1956 -0.9425 -1.2093
  250SOL    HW2  807   2.268   2.647   1.234  0.4946  0.0171  1.6391
  251SOL     OW  808   4.262   3.239   3.675 -0.0546  0.0445 -0.6169
  251SOL    HW1  809   4.297   3.241   3.764  0.6027 -0.2858 -0.8622
  251SOL    HW2  810   4.218   3.155   3.668  2.2738 -1.1855 -1.4700
  252SOL     OW  811   0.263   3.140   1.237 -0.2912 -0.1496  0.7928
  252SOL    HW1  812   0.274   3.171   1.147  1.6502  2.0113  1.6963
  252SOL    HW2  813   0.193   3.075   1.231 -0.9601  0.6972 -2.0908
  253SOL     OW  814   2.160   3.546   3.766 -0.2454 -0.5557 -0.1249
  253SOL    HW1  815   2.135   3.638   3.775  1.0411 -0.1842 -0.1083
  253SOL    HW2  816   2.105   3.513   3.695  0.6850  0.7973 -1.5445
  254SOL     OW  817   3.823   2.426   0.075 -0.2611 -0.2982 -0.3197
  254SOL    HW1  818   3.786   2.470   0.152  1.3900 -0.5931  0.6956
  254SOL    HW2  819   3.867   2.349   0.110  2.1452  0.5439 -1.2538
  255SOL     OW  820   4.141   1.631   2.298  0.0901  0.3636 -0.4107
  255SOL    HW1  821   4.149   1.604   2.390  0.2668  0.3690 -0.4242
  255SOL    HW2  822   4.205   1.702   2.289  0.0568  0.3775 -0.5315
  256SOL     OW  823   0.558   2.197   4.664 -0.9335 -0.5477 -0.0097
  256SOL    HW1  824   0.606   2.210   4.746 -1.6129 -2.7095  0.7968
  256SOL    HW2  825   0.546   2.286   4.629 -0.5178  0.4324  2.1543
  257SOL     OW  826   3.947   0.356   0.383 -0.0485  0.4728 -0.1274
  257SOL    HW1  827   3.892   0.355   0.305 -1.0328  0.3234  0.5448
  257SOL    HW2  828   3.885   0.352   0.456  0.8896 -2.2692  0.6416
  258SOL     OW  829   0.736   2.215   1.618 -0.0512 -0.1340  0.7996
  258SOL    HW1  830   0.821   2.202   1.659  0.0088 -1.9674  0.1811
  258SOL    HW2  831   0.690   2.132   1.632 -1.1132  0.2398 -0.3158
  259SOL     OW  832   4.089   0.032   0.086 -0.2595  0.1293 -0.2003
  259SOL    HW1  833   4.068  -0.056   0.118  0.4759  0.1319  0.3230
  259SOL    HW2  834   4.108   0.082   0.165 -0.9250  0.8375 -0.4757
  260SOL     OW  835   4.128   4.713   1.829 -0.2515 -0.1355  0.3576
  260SOL    HW1  836   4.062   4.778   1.852  1.3958  1.6476  0.2815
  260SOL    HW2  837   4.151   4.672   1.913  0.6754  1.3901  0.8985
  261SOL     OW  838   1.335   0.185   0.982  0.3798  0.0463  0.3945
  261SOL    HW1  839   1.258   0.214   1.030 -1.2526 -1.6083 -1.0461
  261SOL    HW2  840   1.329   0.089   0.984  1.1178 -0.0872 -1.7050
  262SOL     OW  841   1.638   1.611   1.814  0.3466 -0.4490  0.3191
  262SOL    HW1  842   1.599   1.536   1.860 -1.8791 -0.0777 -0.8328
  262SOL    HW2  843   1.631   1.588   1.721  3.0223 -0.3596  0.0168
  263SOL     OW  844   2.075   0.600   2.561  0.1459 -0.6295 -0.5546
  263SOL    HW1  845   2.005   0.639   2.614  0.3446 -0.4506 -0.4214
  263SOL    HW2  846   2.099   0.669   2.499  0.1392 -0.7245 -0.6624
  264SOL     OW  847   0.499   4.875   1.132  0.7315 -0.3038 -0.7119
  264SOL    HW1  848   0.593   4.892   1.128  1.0710 -1.3049  1.4039
  264SOL    HW2  849   0.492   4.780   1.130 -0.0258 -0.3432  1.2213
  265SOL     OW  850   2.777   4.108   4.850  0.3144 -0.1708 -0.7833
  265SOL    HW1  851   2.787   4.128   4.943 -1.1340 -0.8997 -0.4371
  265SOL    HW2  852   2.758   4.192   4.809  0.9577  0.1579 -0.4306
  266SOL     OW  853   1.616   4.032   0.438 -0.2438  0.2801  0.2311
  266SOL    HW1  854   1.560   4.083   0.495 -1.0228 -0.2533 -0.0361
  266SOL    HW2  855   1.644   3.957   0.492  0.9211  0.9769  0.6332
  267SOL     OW  856   2.962   3.634   0.344  0.2863 -0.1014 -0.1072
  267SOL    HW1  857   3.015   3.705   0.308 -1.5126  0.5433 -1.6456
  267SOL    HW2  858   2.896   3.617   0.277 -1.1082 -1.2404  1.4756
  268SOL     OW  859   4.075   2.528   1.128  0.7783 -0.0927 -0.0372
  268SOL    HW1  860   4.123   2.518   1.210  1.8052 -0.4180 -0.6647
  268SOL    HW2  861   3.983   2.538   1.155  1.0562 -0.5448  1.1241
  269SOL     OW  862   1.974   3.253   2.357  0.4280 -0.5334  0.1382
  269SOL    HW1  863   1.936   3.337   2.383 -3.3273 -0.9096 -3.1805
  269SOL    HW2  864   1.938   3.189   2.419  0.0725 -0.1906  0.2846
  270SOL     OW  865   1.824   4.307   1.898  0.1862 -0.9597  0.0441
  270SOL    HW1  866   1.826   4.212   1.900  2.6239 -0.9933 -0.8107
  270SOL    HW2  867   1.865   4.334   1.980 -1.6417 -0.5919  0.8694
  271SOL     OW  868   1.234   2.410   3.675 -0.2212 -0.7016 -0.3216
  271SOL    HW1  869   1.189   2.459   3.745  0.3836  0.1182 -0.4977
  271SOL    HW2  870   1.188   2.326   3.672 -0.6609 -0.5108  0.6402
  272SOL     OW  871   1.803   4.354   1.080 -0.0695  0.4480 -0.5606
  272SOL    HW1  872   1.829   4.442   1.107  1.7653  0.2099 -1.3904
  272SOL    HW2  873   1.739   4.327   1.145  1.6230  1.2055  1.5476
  273SOL     OW  874   0.427   2.541   4.965 -0.2635  0.3973  0.2135
  273SOL    HW1  875   0.468   2.627   4.970 -0.0340  0.2178  2.0931
  273SOL    HW2  876   0.349   2.548   5.019 -0.2350 -0.5827  0.4029
  274SOL     OW  877   2.188   3.653   4.654  0.3442 -0.9399 -0.6317
  274SOL    HW1  878   2.111   3.602   4.631 -0.3916 -0.3715  0.4320
  274SOL    HW2  879   2.181   3.732   4.600  0.3694 -1.0540 -0.8003
  275SOL     OW  880   1.633   0.402   3.091 -0.5392 -0.1760  0.0854
  275SOL    HW1  881   1.667   0.344   3.024 -1.3040 -0.0606 -0.4088
  275SOL    HW2  882   1.552   0.437   3.055 -0.5835  0.4623  0.7638
  276SOL     OW  883   4.722   0.315   3.106 -0.1822 -0.4970  0.6276
  276SOL    HW1  884   4.651   0.357   3.057 -0.3929 -1.6948 -0.1370
  276SOL    HW2  885   4.696   0.223   3.111  1.2563 -0.9278  0.4378
  277SOL     OW  886   4.564   4.250   1.378  0.3154  0.2497 -0.2286
  277SOL    HW1  887   4.470   4.245   1.390  0.4921 -0.9501  0.8738
  277SOL    HW2  888   4.578   4.331   1.329 -1.1953  1.0263  0.5626
  278SOL     OW  889   3.638   0.812   0.269  0.4860  0.0692  0.2590
  278SOL    HW1  890   3.554   0.843   0.303  0.5653 -0.5699  1.0785
  278SOL    HW2  891   3.685   0.780   0.347  1.1448 -0.3633 -0.3022
  279SOL     OW  892   1.922   4.563   0.230  0.1908  0.5989  0.3243
  279SOL    HW1  893   2.015   4.547   0.214  0.6505  3.1662 -0.1440
  279SOL    HW2  894   1.912   4.657   0.215 -3.2323 -0.0892 -3.4099
  280SOL     OW  895   2.990   3.008   3.113 -0.2822 -0.1967 -0.6158
  280SOL    HW1  896   2.928   2.939   3.137 -0.1671 -0.0554  0.1224
  280SOL    HW2  897   2.977   3.021   3.019  0.3760 -1.9070 -0.9850
  281SOL     OW  898   0.008   3.397   0.954 -0.5292 -0.2557  0.5049
  281SOL    HW1  899   0.087   3.415   1.005 -2.2527 -2.6824  4.5262
  281SOL    HW2  900   0.034   3.329   0.892  0.6038 -1.1577  1.9033
  282SOL     OW  901   2.157   1.570   0.425 -0.2334 -0.4160 -0.0706
  282SOL    HW1  902   2.207   1.601   0.501 -0.4728 -1.7370  0.6519
  282SOL    HW2  903   2.173   1.475   0.423 -5.8658 -1.8427  2.7868
  283SOL     OW  904   0.465   4.452   3.800  0.1060  0.0336  0.0691
  283SOL    HW1  905   0.483   4.414   3.714  1.9021  0.8991  0.0171
  283SOL    HW2  906   0.396   4.397   3.836  1.5031 -2.3182 -0.6348
  284SOL     OW  907   2.143   1.138   3.711 -0.0501  0.1467  0.1405
  284SOL    HW1  908   2.197   1.151   3.633  1.1923  1.1053  1.1166
  284SOL    HW2  909   2.204   1.107   3.778 -0.6362  1.4596  1.3325
  285SOL     OW  910   0.998   0.035   4.614 -0.2161  0.7584  0.1778
  285SOL    HW1  911   1.046   0.087   4.679  0.6503  2.3200 -1.6006
  285SOL    HW2  912   1.039  -0.051   4.617  0.0689  0.9180  1.4007
  286SOL     OW  913   1.931   0.104   0.419 -0.3242 -0.3622  0.1833
  286SOL    HW1  914   2.011   0.059   0.394 -0.9652 -1.4488  0.0345
  286SOL    HW2  915   1.887   0.122   0.336 -0.5929 -0.4541  0.3046
  287SOL     OW  916   0.563   3.352   1.582  0.2919 -0.4176  0.1279
  287SOL    HW1  917   0.518   3.406   1.646  0.1713  1.4149 -1.4239
  287SOL    HW2  918   0.495   3.325   1.521  0.4478 -1.9415  0.5898
  288SOL     OW  919   3.642   4.455   2.395  0.4379  0.0999 -0.7627
  288SOL    HW1  920   3.580   4.481   2.462  0.9470  0.4884 -0.4340
  288SOL    HW2  921   3.727   4.456   2.439  0.4821 -2.3277 -0.6571
  289SOL     OW  922   4.623   4.928   1.256 -0.3203  0.5082 -0.0619
  289SOL    HW1  923   4.679   4.979   1.315  1.1748  0.7054 -1.5575
  289SOL    HW2  924   4.593   4.854   1.308  2.9391 -0.6766  0.3666
  290SOL     OW  925   1.254   4.785   4.088  0.4348  0.0228  0.1221
  290SOL    HW1  926   1.276   4.872   4.056  0.5033  0.0848  0.3401
  290SOL    HW2  927   1.331   4.732   4.067 -0.1250 -0.3009 -1.2231
  291SOL     OW  928   0.646   3.561   4.344  0.0848 -0.5625  0.3043
  291SOL    HW1  929   0.645   3.650   4.311  1.2264 -0.3151  0.8855
  291SOL    HW2  930   0.567   3.554   4.398  0.3468  0.3215  0.8168
  292SOL     OW  931   3.238   2.052   2.834  0.0494  0.1638  0.0214
  292SOL    HW1  932   3.247   2.025   2.925 -0.8405 -0.1889  0.0144
  292SOL    HW2  933   3.256   1.972   2.784  1.8306  0.6401 -0.1921
  293SOL     OW  934   0.279   4.349   3.182 -0.3113  0.2610  0.0120
  293SOL    HW1  935   0.285   4.277   3.120 -1.6439  0.9093 -0.9185
  293SOL    HW2  936   0.319   4.423   3.135 -2.1726  0.9903 -0.4885
  294SOL     OW  937   0.990   3.690   2.746  0.2130  0.1877  0.0843
  294SOL    HW1  938   0.900   3.676   2.715 -0.3948  0.1549  1.7563
  294SOL    HW2  939   0.991   3.782   2.774  0.7403  0.2230 -0.0457
  295SOL     OW  940   0.736   2.767   3.854 -0.6360  0.3971  0.6508
  295SOL    HW1  941   0.688   2.789   3.934 -0.1116  1.7265  0.6306
  295SOL    HW2  942   0.667   2.740   3.792 -1.1399  0.2648  1.2581
  296SOL     OW  943   4.197   1.461   4.618  0.3223  0.2094 -0.1352
  296SOL    HW1  944   4.146   1.422   4.688  0.8154  0.7681  0.5518
  296SOL    HW2  945   4.153   1.435   4.537  1.1279 -2.5199  0.2093
  297SOL     OW  946   1.228   4.346   2.786 -0.3022 -0.2916 -0.5836
  297SOL    HW1  947   1.194   4.337   2.875 -1.0527 -0.4624 -0.8724
  297SOL    HW2  948   1.320   4.367   2.797 -0.1440 -1.3438  0.2216
  298SOL     OW  949   2.179   3.207   0.013  0.5497 -0.1241 -0.1202
  298SOL    HW1  950   2.231   3.207   0.093  0.2000 -0.2346  0.1127
  298SOL    HW2  951   2.225   3.147  -0.045  0.5736 -0.3794  0.1573
  299SOL     OW  952   4.451   0.423   1.594  0.6308  0.3511 -0.1198
  299SOL    HW1  953   4.439   0.345   1.647 -1.5046  0.9596  0.4008
  299SOL    HW2  954   4.546   0.432   1.584  0.9543 -1.5192  0.9470
  300SOL     OW  955   0.279   2.183   3.710  0.2091 -0.6466  0.1811
  300SOL    HW1  956   0.332   2.242   3.656  0.8298  0.5429  1.9846
  300SOL    HW2  957   0.306   2.203   3.800 -1.9498 -1.3669  1.0420
  301SOL     OW  958   1.422   1.988   3.321 -0.1416  0.1253  0.1405
  301SOL    HW1  959   1.461   2.040   3.392 -1.4490  0.3458  0.7323
  301SOL    HW2  960   1.438   1.897   3.346  2.2914  0.1927 -0.9726
  302SOL     OW  961   0.131   2.866   4.048 -0.1024  0.0112 -0.3533
  302SOL    HW1  962   0.160   2.823   3.968 -0.8544 -1.1828 -0.0111
  302SOL    HW2  963   0.043   2.830   4.064  0.0829  0.1328  1.0647
  303SOL     OW  964   1.300   2.605   3.465 -0.2576  0.4124 -0.2248
  303SOL    HW1  965   1.249   2.594   3.545 -1.9170  3.2574 -0.7402
  303SOL    HW2  966   1.289   2.522   3.418 -3.0190  0.2370  0.5161
  304SOL     OW  967   1.302   1.683   4.539 -0.0764  0.2874  0.0516
  304SOL    HW1  968   1.350   1.675   4.456 -0.5696 -1.3484 -0.1284
  304SOL    HW2  969   1.210   1.683   4.512 -0.2598  3.2383  0.3985
  305SOL     OW  970   4.169   1.732   1.015  0.8667 -0.4483 -0.5884
  305SOL    HW1  971   4.264   1.738   1.019  0.8382  2.0682 -1.7624
  305SOL    HW2  972   4.152   1.677   0.939  1.4185  0.0761 -1.1081
  306SOL     OW  973   2.344   3.273   4.126 -0.4965 -0.2446  1.0547
  306SOL    HW1  974   2.416   3.260   4.064 -2.4671  0.5563 -1.5988
  306SOL    HW2  975   2.360   3.360   4.164 -0.0710 -0.0607  0.4683
  307SOL     OW  976   4.732   0.750   3.548  0.1146  0.1241 -0.1528
  307SOL    HW1  977   4.805   0.797   3.587  1.0782 -1.5133  0.1045
  307SOL    HW2  978   4.709   0.800   3.470  0.5540  1.4330  0.5280
  308SOL     OW  979   4.163   1.822   0.735  0.1879  0.3642 -0.2362
  308SOL    HW1  980   4.187   1.825   0.643 -1.0963 -1.3857 -0.6843
  308SOL    HW2  981   4.246   1.818   0.782  1.1387  5.1765 -0.9391
  309SOL     OW  982   2.490   1.246   0.732  0.2060 -0.3629 -0.3297
  309SOL    HW1  983   2.528   1.160   0.749  1.6711  0.1532 -0.8835
  309SOL    HW2  984   2.514   1.299   0.808  0.1648 -0.1731 -0.4474
  310SOL     OW  985   2.257   1.323   0.924 -0.0430  0.0768  0.0391
  310SOL    HW1  986   2.218   1.392   0.870  0.4927 -0.4988 -1.1101
  310SOL    HW2  987   2.348   1.319   0.896  0.0285 -0.8204  0.3704
  311SOL     OW  988   4.425   3.550   3.045 -0.7070 -0.4642 -0.0299
  311SOL    HW1  989   4.460   3.478   3.097  1.5518 -0.2400 -1.1387
  311SOL    HW2  990   4.390   3.507   2.967 -1.7866 -0.5631  0.4882
  312SOL     OW  991   0.657   4.804   2.007 -0.0472  0.3343  0.2732
  312SOL    HW1  992   0.718   4.735   1.981  0.5060  0.2527  1.6810
  312SOL    HW2  993   0.668   4.810   2.102 -1.0848  1.4240  0.3394
  313SOL     OW  994   4.362   3.336   2.833  0.2047 -0.1405 -0.1659
  313SOL    HW1  995   4.343   3.378   2.749  0.3184  1.7683  0.7154
  313SOL    HW2  996   4.457   3.340   2.841  0.3255 -1.7103 -0.6148
  314SOL     OW  997   2.596   1.366   2.474  0.3516 -0.5120  0.0894
  314SOL    HW1  998   2.548   1.346   2.394 -1.7033  2.0958  0.4850
  314SOL    HW2  999   2.529   1.364   2.543  1.3111  0.7420  1.1176
  315SOL     OW 1000   2.287   3.196   2.109  0.9358 -0.9365 -0.0015
  315SOL    HW1 1001   2.241   3.135   2.166  1.5208 -1.4895 -0.1159
  315SOL    HW2 1002   2.247   3.183   2.023 -0.1773  0.1366  0.3342
  316SOL     OW 1003   4.142   3.778   4.838  0.0172 -0.3294 -0.3432
  316SOL    HW1 1004   4.230   3.803   4.866 -0.9684  1.2337  1.5564
  316SOL    HW2 1005   4.137   3.809   4.747  1.0932  0.4725 -0.1583
  317SOL     OW 1006   1.493   2.527   3.722  0.0613  0.0347 -0.4389
  317SOL    HW1 1007   1.570   2.495   3.675 -1.1006 -0.5850 -2.0025
  317SOL    HW2 1008   1.420   2.479   3.684 -1.1439  0.8138  0.8087
  318SOL     OW 1009   2.340   2.362   1.913 -0.2488 -0.8322 -0.6892
  318SOL    HW1 1010   2.434   2.345   1.921  0.1342 -1.0942 -4.1240
  318SOL    HW2 1011   2.303   2.279   1.884 -1.4406 -0.5276 -0.0967
  319SOL     OW 1012   2.992   4.665   4.528 -0.0470 -0.0641  0.3593
  319SOL    HW1 1013   2.897   4.667   4.512 -0.1074 -0.4624  0.6593
  319SOL    HW2 1014   3.027   4.609   4.459  0.1830  1.4309 -0.7750
  320SOL     OW 1015   2.468   3.127   1.786 -0.0814  0.0754  0.3514
  320SOL    HW1 1016   2.427   3.060   1.841 -0.2854 -1.0516 -1.1215
  320SOL    HW2 1017   2.395   3.169   1.741  0.1288  0.6069  0.4926
  321SOL     OW 1018   0.546   3.817   0.860 -0.5525  0.4809 -0.6067
  321SOL    HW1 1019   0.555   3.842   0.952 -2.2137  0.9037 -0.5361
  321SOL    HW2 1020   0.519   3.725   0.862  3.2289 -0.8124 -0.8219
  322SOL     OW 1021   4.579   2.792   0.237  0.7116  0.2558  0.1563
  322SOL    HW1 1022   4.629   2.727   0.288 -0.7527 -1.8805 -0.9578
  322SOL    HW2 1023   4.601   2.772   0.146 -0.4774  0.7162 -0.2517
  323SOL     OW 1024   3.707   1.085   0.823  0.2362  0.4794 -0.2216
  323SOL    HW1 1025   3.780   1.037   0.862  0.2455  1.6226  1.2443
  323SOL    HW2 1026   3.719   1.175   0.853 -0.3615  1.2094 -2.0492
  324SOL     OW 1027   1.182   1.869   1.218 -0.2650 -0.1950  0.0258
  324SOL    HW1 1028   1.222   1.926   1.282 -3.4074  1.6310  0.5973
  324SOL    HW2 1029   1.238   1.876   1.141  1.4159  0.7398  1.2663
  325SOL     OW 1030   1.249   3.904   1.207 -0.3685 -0.0698 -0.0809
  325SOL    HW1 1031   1.328   3.877   1.160  0.4537 -0.9905  1.7271
  325SOL    HW2 1032   1.211   3.822   1.239 -0.6781  0.5240  1.1402
  326SOL     OW 1033   4.021   4.304   0.209 -0.4868 -0.5313  0.0243
  326SOL    HW1 1034   4.054   4.387   0.175 -0.8028  0.3519  1.7546
  326SOL    HW2 1035   3.949   4.281   0.151 -1.1062  0.9958  0.1430
  327SOL     OW 1036   3.419   0.445   1.899 -0.2091  0.1755  0.0541
  327SOL    HW1 1037   3.357   0.373   1.914  0.2311 -0.4023 -0.7903
  327SOL    HW2 1038   3.469   0.451   1.980 -1.7328  1.0402  0.9725
  328SOL     OW 1039   3.332   1.940   1.871 -0.1717 -0.9363  0.2611
  328SOL    HW1 1040   3.360   2.032   1.879  3.4632 -1.8916  0.3973
  328SOL    HW2 1041   3.325   1.909   1.961 -0.1247 -1.0941  0.2110
  329SOL     OW 1042   3.816   0.370   2.001 -0.0613  0.4706 -0.1799
  329SOL    HW1 1043   3.871   0.294   2.018  0.6519  0.8977 -0.5191
  329SOL    HW2 1044   3.774   0.350   1.917 -1.8089 -0.6266  0.9118
  330SOL     OW 1045   2.383   1.450   2.939  1.0993  0.1897 -0.6093
  330SOL    HW1 1046   2.371   1.397   3.018 -0.5578  0.9817 -0.3071
  330SOL    HW2 1047   2.477   1.445   2.922  1.8127  1.3419  2.3721
  331SOL     OW 1048   1.820   3.428   1.709  0.1397 -0.2979  0.0385
  331SOL    HW1 1049   1.765   3.366   1.757 -0.7366 -0.8109 -1.5458
  331SOL    HW2 1050   1.758   3.492   1.672  0.8346  0.3889  0.0471
  332SOL     OW 1051   0.995   0.966   2.365 -0.0940 -0.2348 -0.4064
  332SOL    HW1 1052   1.067   0.920   2.322 -0.5125  2.0091 -3.9459
  332SOL    HW2 1053   0.917   0.942   2.314 -1.1395  0.6073  0.7187
  333SOL     OW 1054   0.765   4.983   1.765 -0.6194  0.2912 -0.4766
  333SOL    HW1 1055   0.842   5.004   1.818 -2.1703 -0.0591  2.0717
  333SOL    HW2 1056   0.777   4.890   1.742  0.2483  0.5498 -1.1541
  334SOL     OW 1057   4.642   3.354   0.152  0.4837  0.2434  1.0777
  334SOL    HW1 1058   4.602   3.290   0.094 -0.4231  2.5911 -1.0670
  334SOL    HW2 1059   4.736   3.337   0.147  0.5064  0.8030 -1.7503
  335SOL     OW 1060   3.594   2.395   2.912  0.3005  0.3236 -0.3580
  335SOL    HW1 1061   3.618   2.378   2.821 -2.1945 -0.6935 -0.9231
  335SOL    HW2 1062   3.552   2.313   2.941  0.7208  0.7478  1.6151
  336SOL     OW 1063   2.731   3.444   3.666  0.2540 -0.3243 -0.0818
  336SOL    HW1 1064   2.685   3.459   3.584 -0.2010 -1.5003 -0.0646
  336SOL    HW2 1065   2.668   3.469   3.734  0.0170 -0.9311 -0.0738
  337SOL     OW 1066   1.668   1.010   4.622  0.0427  0.3399  0.3416
  337SOL    HW1 1067   1.697   1.101   4.614 -1.3203  1.1309  3.1198
  337SOL    HW2 1068   1.701   0.982   4.708 -1.6794 -0.9225  0.6511
  338SOL     OW 1069   0.724   1.295   2.830 -0.7312 -0.0853 -0.2767
  338SOL    HW1 1070   0.780   1.252   2.766  0.2636 -0.6529  0.9244
  338SOL    HW2 1071   0.643   1.244   2.830 -0.4509 -0.5337 -0.5376
  339SOL     OW 1072   0.590   2.620   0.571  0.1414 -0.3222 -0.3043
  339SOL    HW1 1073   0.678   2.657   0.569 -0.1211  0.3814  0.7316
  339SOL    HW2 1074   0.571   2.606   0.664 -1.3369  0.7585 -0.4085
  340SOL     OW 1075   3.207   3.709   2.977 -0.4205  0.0642 -0.2099
  340SOL    HW1 1076   3.296   3.673   2.977 -0.0222  1.0095 -1.2654
  340SOL    HW2 1077   3.219   3.803   2.979 -1.3989  0.2048 -0.5739
  341SOL     OW 1078   3.502   4.261   2.257 -0.3645  0.2482  0.0403
  341SOL    HW1 1079   3.568   4.317   2.299  0.4382  0.1093 -0.9843
  341SOL    HW2 1080   3.546   4.176   2.247 -0.8722  0.0125 -0.2112
  342SOL     OW 1081   2.703   1.332   1.513  0.2503  0.2596  0.0960
  342SOL    HW1 1082   2.649   1.256   1.492  1.1502 -0.1299 -0.9428
  342SOL    HW2 1083   2.742   1.357   1.429 -0.7946  2.5134  0.2113
  343SOL     OW 1084   4.646   0.230   4.179  0.2737  0.2848  0.3268
  343SOL    HW1 1085   4.599   0.311   4.199 -0.7337  0.1418 -1.2837
  343SOL    HW2 1086   4.736   0.258   4.163  0.0617  1.0187  0.3664
  344SOL     OW 1087   1.452   1.270   0.781 -0.1393 -0.6230  0.1219
  344SOL    HW1 1088   1.396   1.206   0.737 -0.4717  0.5862 -1.2966
  344SOL    HW2 1089   1.518   1.292   0.716 -0.6328  1.2113  0.1970
  345SOL     OW 1090   4.220   2.449   1.580  0.2383 -0.3502  0.2688
  345SOL    HW1 1091   4.312   2.426   1.569  0.5172  0.8846 -0.1746
  345SOL    HW2 1092   4.177   2.367   1.605  1.1590 -1.3369 -1.2147
  346SOL     OW 1093   3.151   2.478   4.578 -0.5727  0.1888  0.6498
  346SOL    HW1 1094   3.176   2.471   4.486 -1.5706 -2.0939  0.4842
  346SOL    HW2 1095   3.221   2.529   4.618 -0.0655  1.1594 -1.3453
  347SOL     OW 1096   2.372   3.602   2.885 -0.5142 -0.1667 -0.2536
  347SOL    HW1 1097   2.359   3.652   2.805  0.3525  1.1950  0.4134
  347SOL    HW2 1098   2.354   3.664   2.955  0.7251 -0.7493  0.6144
  348SOL     OW 1099   0.290   3.947   4.299 -0.0746 -0.5577  0.4204
  348SOL    HW1 1100   0.332   3.995   4.228  0.1928 -1.1800  0.1542
  348SOL    HW2 1101   0.349   3.957   4.374  0.4058 -1.1858  0.1279
  349SOL     OW 1102   2.106   2.718   0.180  0.7837  0.1917 -0.0710
  349SOL    HW1 1103   2.049   2.707   0.257  0.0819 -0.9295 -0.7305
  349SOL    HW2 1104   2.187   2.673   0.204  0.9537  0.7198  0.3885
  350SOL     OW 1105   1.159   4.458   1.569 -0.2707 -0.3521 -0.5262
  350SOL    HW1 1106   1.212   4.537   1.578 -0.9979  0.2376 -1.2905
  350SOL    HW2 1107   1.184   4.422   1.483  0.9400 -1.6454  0.3138
  351SOL     OW 1108   3.994   3.999   0.838  0.3283 -0.5231  0.0270
  351SOL    HW1 1109   4.024   3.950   0.762  0.3574 -0.8734  0.2631
  351SOL    HW2 1110   4.001   3.937   0.911 -2.0462 -1.0097 -0.0852
  352SOL     OW 1111   1.207   3.727   0.260 -0.0723  0.0067 -0.1243
  352SOL    HW1 1112   1.193   3.722   0.354  1.5168 -0.7248  0.1040
  352SOL    HW2 1113   1.265   3.802   0.248 -0.5700  0.3298 -0.5693
  353SOL     OW 1114   1.307   0.123   0.117  0.2431 -0.7418  0.2573
  353SOL    HW1 1115   1.266   0.203   0.086 -0.3465 -0.8912  0.6432
  353SOL    HW2 1116   1.356   0.149   0.195 -0.7895 -0.9432  0.9850
  354SOL     OW 1117   2.709   1.399   4.135  0.1649 -0.3323 -0.4932
  354SOL    HW1 1118   2.700   1.410   4.041  2.0052 -0.6190 -0.7295
  354SOL    HW2 1119   2.654   1.469   4.172 -0.5662 -0.2118 -1.7581
  355SOL     OW 1120   2.897   0.761   2.351 -0.8001 -0.1891  0.4533
  355SOL    HW1 1121   2.981   0.780   2.310 -1.0463 -0.2218 -0.0696
  355SOL    HW2 1122   2.876   0.841   2.400 -2.0253  1.1342 -2.0576
  356SOL     OW 1123   2.046   2.615   1.569 -0.3261 -0.1557  0.2404
  356SOL    HW1 1124   2.103   2.554   1.614 -0.1692  0.7800  1.3471
  356SOL    HW2 1125   2.105   2.675   1.524 -0.4770 -0.5601 -0.5248
  357SOL     OW 1126   1.797   0.060   3.703 -0.2823  0.3063 -0.3264
  357SOL    HW1 1127   1.868  -0.002   3.685 -0.0146  0.8304 -1.1310
  357SOL    HW2 1128   1.809   0.130   3.639 -1.2126  0.6707 -0.1242
  358SOL     OW 1129   3.341   1.994   3.642 -0.1356  0.0444 -0.1636
  358SOL    HW1 1130   3.408   1.976   3.708 -1.0983 -1.9252  0.3402
  358SOL    HW2 1131   3.391   2.000   3.560  0.8011 -0.0806  0.3729
  359SOL     OW 1132   0.395   1.998   1.967  0.1968  0.3828 -0.5627
  359SOL    HW1 1133   0.368   2.065   1.904  3.3032 -0.0615 -2.6221
  359SOL    HW2 1134   0.456   2.042   2.025 -1.2457  0.3326  1.0798
  360SOL     OW 1135   1.577   2.880   1.141 -0.0846 -0.2610 -0.2942
  360SOL    HW1 1136   1.657   2.911   1.185  1.5707 -1.9980 -1.8759
  360SOL    HW2 1137   1.511   2.945   1.164  2.1389  2.1282 -0.1189
  361SOL     OW 1138   2.804   2.904   0.082  0.4410  0.4174  0.1167
  361SOL    HW1 1139   2.852   2.966   0.137  0.1020  1.3850 -0.6481
  361SOL    HW2 1140   2.846   2.820   0.098  0.4214  0.6867  1.7796
  362SOL     OW 1141   4.665   3.977   1.403  0.0515  0.1591 -0.1220
  362SOL    HW1 1142   4.586   3.941   1.443  0.8339 -0.2340  1.1282
  362SOL    HW2 1143   4.653   4.072   1.408 -0.7227  0.0997 -0.7516
  363SOL     OW 1144   3.526   3.397   0.166  0.3895 -0.6072  0.2156
  363SOL    HW1 1145   3.538   3.353   0.250 -1.5164 -0.6145  0.5273
  363SOL    HW2 1146   3.433   3.420   0.164  0.2860 -0.9978 -2.0782
  364SOL     OW 1147   4.239   4.837   0.817 -0.1678  0.3552  0.1882
  364SOL    HW1 1148   4.161   4.786   0.795 -0.8681  0.9383  1.2231
  364SOL    HW2 1149   4.236   4.845   0.913  0.1597  1.9289  0.0961
  365SOL     OW 1150   2.937   2.416   2.060 -0.8145 -0.5168 -0.5420
  365SOL    HW1 1151   2.978   2.349   2.115 -0.3488 -0.1355 -0.4154
  365SOL    HW2 1152   2.903   2.369   1.984  0.4771 -0.7429 -0.9906
  366SOL     OW 1153   2.615   1.299   3.513  0.2367 -0.1679 -0.2311
  366SOL    HW1 1154   2.701   1.262   3.535 -0.0156  0.0671  1.2311
  366SOL    HW2 1155   2.556   1.262   3.578 -0.7082  0.0134 -0.9669
  367SOL     OW 1156   4.771   4.736   3.348  0.0416 -0.0478 -0.2304
  367SOL    HW1 1157   4.678   4.743   3.325 -0.0378 -1.9338 -0.6196
  367SOL    HW2 1158   4.791   4.818   3.393 -1.4786  0.9397 -1.2763
  368SOL     OW 1159   1.246   1.447   2.303 -0.1425 -0.3350  0.8897
  368SOL    HW1 1160   1.293   1.529   2.315  2.2824 -1.6026  0.6913
  368SOL    HW2 1161   1.304   1.380   2.341 -0.9617 -2.2024 -0.9182
  369SOL     OW 1162   1.701   2.633   1.241 -0.4206 -0.5598  0.2881
  369SOL    HW1 1163   1.665   2.649   1.328  0.5484 -1.7642  0.9340
  369SOL    HW2 1164   1.645   2.685   1.183 -0.2623  1.3519  1.7272
  370SOL     OW 1165   4.168   1.226   0.515  0.0548  0.2812  0.4870
  370SOL    HW1 1166   4.111   1.273   0.453  1.7531  1.3598 -0.3305
  370SOL    HW2 1167   4.235   1.186   0.460  0.7217 -0.0361  1.5068
  371SOL     OW 1168   1.823   3.533   0.444  0.2538  0.4970 -0.3529
  371SOL    HW1 1169   1.820   3.611   0.388  0.4904  0.2719 -0.6841
  371SOL    HW2 1170   1.898   3.547   0.501  1.0722 -0.0640 -1.2743
  372SOL     OW 1171   2.943   2.146   3.393 -0.2085  0.0619 -0.0220
  372SOL    HW1 1172   3.011   2.087   3.426 -0.7441  0.0489  1.0805
  372SOL    HW2 1173   2.966   2.158   3.301  0.4145 -1.1767 -0.0609
  373SOL     OW 1174   4.279   3.157   4.133 -0.1481  0.2213 -0.3814
  373SOL    HW1 1175   4.348   3.211   4.171 -0.8046  2.3009 -1.9560
  373SOL    HW2 1176   4.200   3.180   4.183 -0.3296  0.3184 -0.7079
  374SOL     OW 1177   2.545   3.433   1.080 -0.7912 -0.1106 -0.0766
  374SOL    HW1 1178   2.476   3.489   1.116 -2.3829 -2.8235  1.4413
  374SOL    HW2 1179   2.497   3.360   1.040  1.1891 -0.5952 -1.7119
  375SOL     OW 1180   2.686   1.703   2.068 -0.0557 -0.2065 -0.0330
  375SOL    HW1 1181   2.649   1.668   2.149  0.2784  0.6876  0.5199
  375SOL    HW2 1182   2.636   1.660   1.998 -1.3339  0.0801  0.6673
  376SOL     OW 1183   0.267   1.647   4.949  0.3925 -0.3333  0.3482
  376SOL    HW1 1184   0.275   1.556   4.978  1.8276 -0.6175 -0.8573
  376SOL    HW2 1185   0.213   1.641   4.869  0.6113 -0.1504  0.1872
  377SOL     OW 1186   3.884   2.143   0.162  0.3748  0.3195 -0.3637
  377SOL    HW1 1187   3.791   2.121   0.168 -0.0940  2.4615  0.9934
  377SOL    HW2 1188   3.927   2.059   0.147 -1.8366 -0.6014 -2.0955
  378SOL     OW 1189   4.758   1.021   3.246  0.1093 -0.7282 -0.8772
  378SOL    HW1 1190   4.717   1.040   3.161 -0.7418 -0.6249 -0.4537
  378SOL    HW2 1191   4.691   0.974   3.295 -0.0947  0.8194  0.4070
  379SOL     OW 1192   3.269   1.968   2.154 -0.3628 -0.2240  0.2717
  379SOL    HW1 1193   3.230   1.929   2.232 -0.1397 -1.5096 -0.2367
  379SOL    HW2 1194   3.252   2.062   2.163  0.4258 -0.2272  2.2958
  380SOL     OW 1195   1.096   4.721   2.933 -0.1507  0.9127  0.0870
  380SOL    HW1 1196   1.176   4.731   2.984  1.9300 -0.4709 -2.6285
  380SOL    HW2 1197   1.030   4.694   2.997  2.5975 -2.2273  1.9631
  381SOL     OW 1198   0.829   2.669   4.868  0.0087 -0.2244  1.2071
  381SOL    HW1 1199   0.808   2.605   4.800  3.0548 -0.4024  0.2899
  381SOL    HW2 1200   0.748   2.718   4.881 -1.4038 -1.9093 -0.6316
  382SOL     OW 1201   4.807   2.954   4.952  0.1617  0.4834  0.4635
  382SOL    HW1 1202   4.743   2.884   4.944  0.0718  0.4480  1.4088
  382SOL    HW2 1203   4.853   2.954   4.868 -1.4079  0.8660 -0.4329
  383SOL     OW 1204   1.683   2.592   3.937  0.5879  0.3252 -0.4541
  383SOL    HW1 1205   1.624   2.576   3.863 -3.0902  3.4794  1.4339
  383SOL    HW2 1206   1.635   2.564   4.014  2.3146  1.3628  1.0985
  384SOL     OW 1207   3.728   3.388   0.800 -0.0705  0.2201 -0.3163
  384SOL    HW1 1208   3.750   3.469   0.754  0.5646 -0.2211 -0.8165
  384SOL    HW2 1209   3.699   3.416   0.887  0.9512  0.9450 -0.1899
  385SOL     OW 1210   0.653   0.099   1.997  0.1433  0.3667 -0.1483
  385SOL    HW1 1211   0.624   0.010   2.020  0.8345  0.4022  0.9133
  385SOL    HW2 1212   0.695   0.089   1.912  2.1498 -0.7636  0.8995
  386SOL     OW 1213   1.950   3.143   1.807  0.5000 -0.3853  0.2351
  386SOL    HW1 1214   1.890   3.088   1.756 -2.2197  1.1936  1.5022
  386SOL    HW2 1215   1.962   3.096   1.890  1.4792 -0.9307 -0.1970
  387SOL     OW 1216   2.951   0.848   4.460  0.6915 -0.2461 -0.0083
  387SOL    HW1 1217   3.035   0.857   4.414  0.3601  1.2614 -0.3767
  387SOL    HW2 1218   2.926   0.938   4.482  1.4042 -0.8829  4.3053
  388SOL     OW 1219   1.060   0.217   0.324 -0.2426  0.4169  0.7904
  388SOL    HW1 1220   1.086   0.135   0.366 -0.6994 -2.6153 -4.1137
  388SOL    HW2 1221   1.143   0.264   0.310  0.3609 -0.4712  1.2683
  389SOL     OW 1222   3.879   1.502   0.156 -0.7199 -0.2390  0.1429
  389SOL    HW1 1223   3.901   1.549   0.076  0.6398 -0.1847  0.5170
  389SOL    HW2 1224   3.894   1.566   0.226  0.0540 -0.8566  0.5676
  390SOL     OW 1225   3.141   2.301   1.554  0.1091  0.1284  0.4387
  390SOL    HW1 1226   3.080   2.241   1.512  2.3263 -1.6895 -0.4214
  390SOL    HW2 1227   3.127   2.288   1.648 -1.4890  0.5370  0.2786
  391SOL     OW 1228   3.079   1.685   1.281  0.3605  0.3944 -0.1390
  391SOL    HW1 1229   3.160   1.709   1.234 -0.6390  0.7542 -1.7714
  391SOL    HW2 1230   3.033   1.768   1.293 -1.3405 -0.1150 -2.3686
  392SOL     OW 1231   0.324   4.301   1.867 -0.7350  0.4276 -0.3691
  392SOL    HW1 1232   0.250   4.248   1.896 -0.8615  0.2559 -0.9851
  392SOL    HW2 1233   0.293   4.342   1.785  0.5848 -1.3578 -1.8266
  393SOL     OW 1234   1.970   2.520   4.069  0.0326  0.1950  0.2643
  393SOL    HW1 1235   1.923   2.441   4.041 -0.1792  0.3302  0.2316
  393SOL    HW2 1236   1.947   2.586   4.003  1.0148  0.0107 -0.2828
  394SOL     OW 1237   3.137   0.321   3.034 -0.2887  0.1045 -0.3636
  394SOL    HW1 1238   3.139   0.339   2.940 -1.0196  0.0140 -0.4033
  394SOL    HW2 1239   3.044   0.317   3.055 -0.1267 -0.3782  0.2714
  395SOL     OW 1240   0.789   0.875   2.218 -0.1322 -0.6476 -1.0457
  395SOL    HW1 1241   0.815   0.943   2.156 -0.5960 -0.0598 -0.6020
  395SOL    HW2 1242   0.700   0.850   2.190 -0.3886 -0.2982 -0.5554
  396SOL     OW 1243   1.287   1.579   2.850  0.4725  0.1541 -0.2818
  396SOL    HW1 1244   1.233   1.562   2.928 -0.0929  0.2227 -0.6502
  396SOL    HW2 1245   1.232   1.552   2.777  0.5066  1.2464 -0.7369
  397SOL     OW 1246   2.598   1.933   1.631 -0.6179  0.9925 -0.7989
  397SOL    HW1 1247   2.670   1.871   1.624 -1.1700  0.4362 -1.7134
  397SOL    HW2 1248   2.607   1.970   1.719 -2.0796 -2.6926  1.1397
  398SOL     OW 1249   1.435   0.036   3.926  0.1943 -0.6019 -0.5833
  398SOL    HW1 1250   1.480   0.119   3.945  1.7852 -1.4770 -0.3529
  398SOL    HW2 1251   1.355   0.062   3.880 -0.3277  1.1731  1.1885
  399SOL     OW 1252   1.992   1.462   1.483  0.3994 -0.0924 -0.2901
  399SOL    HW1 1253   2.070   1.515   1.498 -1.1201  2.2980 -0.3434
  399SOL    HW2 1254   1.938   1.515   1.425 -0.9143 -2.0674 -0.9476
  400SOL     OW 1255   2.353   2.605   2.586 -0.0111  0.6507 -0.1967
  400SOL    HW1 1256   2.381   2.540   2.651  2.7353  1.8100 -0.0786
  400SOL    HW2 1257   2.371   2.562   2.502 -0.7492  0.2759 -0.1722
  401SOL     OW 1258   0.453   0.412   4.538  0.1108  0.3967  0.1446
  401SOL    HW1 1259   0.526   0.376   4.488 -1.5186 -2.2598 -0.5204
  401SOL    HW2 1260   0.440   0.350   4.610 -1.6684  0.6157  0.0566
  402SOL     OW 1261   1.661   1.035   1.873 -0.9084 -0.6524  0.1771
  402SOL    HW1 1262   1.681   1.003   1.785 -0.3480  0.0081  0.0526
  402SOL    HW2 1263   1.582   0.988   1.899 -1.5584 -0.2375 -1.0161
  403SOL     OW 1264   0.808   2.760   0.662 -0.0787  0.3282  0.6633
  403SOL    HW1 1265   0.820   2.854   0.651 -0.9784  0.2929 -0.8512
  403SOL    HW2 1266   0.833   2.743   0.754  0.7078  1.9106  0.7741
  404SOL     OW 1267   2.122   1.774   0.714 -0.3855  0.4129  0.1862
  404SOL    HW1 1268   2.045   1.804   0.764  1.3827  2.4649  1.8587
  404SOL    HW2 1269   2.162   1.707   0.770 -0.5397 -0.1547 -0.3675
  405SOL     OW 1270   0.611   0.163   3.325 -0.2905  0.0452  0.4277
  405SOL    HW1 1271   0.641   0.078   3.294 -0.1464 -0.5185  2.0331
  405SOL    HW2 1272   0.647   0.171   3.413 -0.7664  1.5275  0.5153
  406SOL     OW 1273   3.328   3.954   2.932  0.3322 -0.1814 -0.8665
  406SOL    HW1 1274   3.342   3.961   2.838  2.0022 -1.1140 -0.7274
  406SOL    HW2 1275   3.360   4.038   2.967  0.3881 -0.1191 -1.0655
  407SOL     OW 1276   2.252   0.389   1.534 -0.1724 -0.0904 -0.3648
  407SOL    HW1 1277   2.194   0.363   1.462 -1.8190  0.7808  0.6009
  407SOL    HW2 1278   2.197   0.439   1.593  1.2413 -0.4217  1.3295
  408SOL     OW 1279   0.409   1.871   0.544  0.1107 -0.0424  0.2410
  408SOL    HW1 1280   0.369   1.940   0.598 -0.7368 -0.0398 -0.3774
  408SOL    HW2 1281   0.447   1.810   0.608 -0.0055  0.4688  0.8143
  409SOL     OW 1282   4.444   0.891   1.350  0.5591 -0.3507  0.1586
  409SOL    HW1 1283   4.471   0.957   1.414  0.6506  0.8574 -1.0777
  409SOL    HW2 1284   4.433   0.811   1.401 -1.4134  1.0203  2.0973
  410SOL     OW 1285   1.212   1.154   1.702 -0.1895 -0.4923 -0.4620
  410SOL    HW1 1286   1.305   1.139   1.686 -0.3032 -0.8944 -0.7307
  410SOL    HW2 1287   1.208   1.181   1.794  0.2191 -0.2182 -0.5212
  411SOL     OW 1288   0.745   0.488   2.983 -0.2265  0.0516  0.5186
  411SOL    HW1 1289   0.727   0.396   2.963  0.8030 -0.1177  0.2886
  411SOL    HW2 1290   0.764   0.489   3.077 -0.3835  0.0513  0.5499
  412SOL     OW 1291   3.790   0.766   2.024 -0.4034 -0.3645 -0.4862
  412SOL    HW1 1292   3.718   0.782   1.962 -0.1933  0.4567 -0.5366
  412SOL    HW2 1293   3.864   0.743   1.968 -0.2514  0.2368 -0.5472
  413SOL     OW 1294   2.108   4.356   2.783 -0.5848  0.6796  0.2810
  413SOL    HW1 1295   2.048   4.298   2.738 -0.8556  0.0525  1.4129
  413SOL    HW2 1296   2.142   4.304   2.856  1.0519  1.1324 -0.0996
  414SOL     OW 1297   1.297   2.358   3.338 -0.2935 -0.0909 -0.2296
  414SOL    HW1 1298   1.349   2.292   3.383  2.5338  0.9101 -1.7793
  414SOL    HW2 1299   1.234   2.308   3.286 -0.5688 -1.3753  1.2607
  415SOL     OW 1300   2.911   2.986   1.301 -0.2890 -0.0181 -0.3976
  415SOL    HW1 1301   2.969   3.061   1.313  0.1812 -0.3628 -0.4659
  415SOL    HW2 1302   2.937   2.949   1.217 -0.9726  0.1348 -0.6749
  416SOL     OW 1303   3.147   2.207   2.239 -0.3167  0.2230 -0.1873
  416SOL    HW1 1304   3.110   2.204   2.327  0.7994  0.4318  0.3127
  416SOL    HW2 1305   3.178   2.297   2.229 -0.4022  0.1907 -0.7806
  417SOL     OW 1306   1.851   2.630   4.592  0.0635 -0.1476  0.5056
  417SOL    HW1 1307   1.783   2.696   4.600 -0.0457 -0.0755 -0.7469
  417SOL    HW2 1308   1.813   2.562   4.536  1.1927  0.1875 -0.7464
  418SOL     OW 1309   2.769   2.443   1.401  0.2418  0.5840  0.8620
  418SOL    HW1 1310   2.767   2.376   1.469  3.1683 -1.3464 -0.7309
  418SOL    HW2 1311   2.818   2.515   1.440 -1.7613  1.3657  2.1203
  419SOL     OW 1312   4.397   0.688   2.268  0.1137 -0.1761  0.0973
  419SOL    HW1 1313   4.454   0.765   2.275  1.0703 -0.8571 -0.1085
  419SOL    HW2 1314   4.413   0.654   2.180 -1.6511  0.4016 -0.4874
  420SOL     OW 1315   0.391   2.721   0.420  0.4524 -0.0510  0.4259
  420SOL    HW1 1316   0.463   2.682   0.470  0.4816 -1.4183 -0.6244
  420SOL    HW2 1317   0.414   2.814   0.414  1.3610 -0.1947  1.3794
  421SOL     OW 1318   0.478   0.018   3.719 -0.9782  0.2872  0.1737
  421SOL    HW1 1319   0.394   0.019   3.765 -0.0802  1.0398  1.9292
  421SOL    HW2 1320   0.512  -0.070   3.734 -0.0516  0.9358  2.3306
  422SOL     OW 1321   3.867   4.486   1.603  0.0005  0.0793 -0.2753
  422SOL    HW1 1322   3.782   4.441   1.606  0.2222 -0.3359 -0.0587
  422SOL    HW2 1323   3.847   4.577   1.623 -0.8918  0.7722 -3.6545
  423SOL     OW 1324   2.132   1.521   2.871 -0.1775 -0.2763 -0.5382
  423SOL    HW1 1325   2.088   1.496   2.952 -0.9580  2.0236 -0.1738
  423SOL    HW2 1326   2.224   1.502   2.886 -0.3418 -0.0541  0.8456
  424SOL     OW 1327   0.228   1.351   0.123  0.0349  0.1182  0.1372
  424SOL    HW1 1328   0.225   1.292   0.048 -0.9421 -1.0189  1.0235
  424SOL    HW2 1329   0.146   1.401   0.118  0.3621  0.6502 -0.0129
  425SOL     OW 1330   3.981   4.316   2.438 -0.3509  0.4558 -0.5125
  425SOL    HW1 1331   4.010   4.301   2.348 -0.2259  0.1750 -0.4273
  425SOL    HW2 1332   3.935   4.399   2.435  0.8046  1.1145 -0.5796
  426SOL     OW 1333   1.594   4.709   0.716 -0.3855  0.6111 -0.0707
  426SOL    HW1 1334   1.669   4.728   0.660  0.0641  2.1094  1.0037
  426SOL    HW2 1335   1.599   4.773   0.786 -1.6837 -0.3942  0.9864
  427SOL     OW 1336   2.536   4.555   1.295  0.2998  0.0464  0.1782
  427SOL    HW1 1337   2.539   4.459   1.290 -0.8741  0.0425 -0.6335
  427SOL    HW2 1338   2.451   4.575   1.334  1.4881  0.7198  2.6411
  428SOL     OW 1339   1.591   3.703   4.481 -0.0592  0.0813 -0.3392
  428SOL    HW1 1340   1.655   3.660   4.424 -0.0768 -1.4419  0.7279
  428SOL    HW2 1341   1.644   3.742   4.550 -0.2317 -0.9271  0.3841
  429SOL     OW 1342   4.313   1.630   4.383 -0.4015  0.7585  0.2171
  429SOL    HW1 1343   4.281   1.629   4.473  0.3821  1.8012  0.5258
  429SOL    HW2 1344   4.285   1.715   4.349 -0.5478  0.4364 -0.4655
  430SOL     OW 1345   3.639   4.763   2.539 -0.3264  0.2675  0.2997
  430SOL    HW1 1346   3.586   4.833   2.578  0.2148  1.3839 -0.8826
  430SOL    HW2 1347   3.596   4.745   2.454 -0.9763 -1.4939  0.9449
  431SOL     OW 1348   1.213   0.619   0.791 -0.2552  0.4658  0.4836
  431SOL    HW1 1349   1.221   0.565   0.869  1.4813  0.3159  0.2358
  431SOL    HW2 1350   1.285   0.592   0.735  0.7466  3.0392  0.3742
  432SOL     OW 1351   3.115   0.722   0.092  0.1457 -0.2208 -0.1336
  432SOL    HW1 1352   3.040   0.713   0.033 -0.3826 -1.4997  0.6913
  432SOL    HW2 1353   3.095   0.799   0.145 -0.4648 -0.4054 -0.0934
  433SOL     OW 1354   4.150   4.522   0.102 -0.0723 -0.1072 -0.5929
  433SOL    HW1 1355   4.120   4.556   0.017 -0.1537  0.2138 -0.4361
  433SOL    HW2 1356   4.243   4.545   0.105 -0.3099  0.8499 -0.1290
  434SOL     OW 1357   0.939   4.808   3.356 -0.4470 -0.0687 -0.0382
  434SOL    HW1 1358   0.987   4.789   3.276 -0.6866 -3.3691  0.4540
  434SOL    HW2 1359   0.986   4.761   3.425  0.9241  4.2023  2.3345
  435SOL     OW 1360   1.686   2.835   0.349 -0.0521 -0.3623  0.6384
  435SOL    HW1 1361   1.768   2.855   0.394 -0.5080  0.4185  1.1606
  435SOL    HW2 1362   1.686   2.740   0.339  0.3915 -0.4897  1.6894
  436SOL     OW 1363   2.717   3.166   2.688 -0.7421 -0.6858  0.0068
  436SOL    HW1 1364   2.712   3.160   2.593 -1.4110 -0.7455  0.0400
  436SOL    HW2 1365   2.647   3.227   2.712 -0.3509 -0.4003  0.4307
  437SOL     OW 1366   2.933   0.490   1.608  0.1713  0.0413  0.0861
  437SOL    HW1 1367   2.916   0.397   1.593  0.1295 -0.0773  0.8058
  437SOL    HW2 1368   2.858   0.535   1.570 -0.6819 -0.3370  1.2701
  438SOL     OW 1369   3.290   1.571   2.788  0.6335  0.3528  0.2407
  438SOL    HW1 1370   3.257   1.533   2.707  2.3871  1.4290 -1.0526
  438SOL    HW2 1371   3.282   1.665   2.776 -1.3140  0.5582  2.3679
  439SOL     OW 1372   1.848   1.021   3.292 -0.2880  0.3123  0.4505
  439SOL    HW1 1373   1.846   1.017   3.196 -1.3687 -1.3853  0.5030
  439SOL    HW2 1374   1.902   0.946   3.317 -0.8518  0.1437  1.1781
  440SOL     OW 1375   1.136   2.015   0.336  0.1100 -0.4051  0.2815
  440SOL    HW1 1376   1.054   2.040   0.293  0.9025  0.5764 -0.7095
  440SOL    HW2 1377   1.186   1.970   0.269  0.4380 -0.9062  0.8503
  441SOL     OW 1378   4.421   1.045   3.502 -0.2914 -0.0108  0.0954
  441SOL    HW1 1379   4.425   0.952   3.479  0.8602 -0.2898  1.2980
  441SOL    HW2 1380   4.342   1.054   3.554 -0.0860 -0.4591  0.4947
  442SOL     OW 1381   4.358   3.724   0.997 -0.0941 -0.3161 -0.0474
  442SOL    HW1 1382   4.345   3.779   0.920  1.7193  1.3528  0.7553
  442SOL    HW2 1383   4.270   3.698   1.023 -1.1006  2.5495 -0.2673
  443SOL     OW 1384   4.972   3.860   2.714  0.6552  0.1454 -0.0407
  443SOL    HW1 1385   4.996   3.842   2.804  0.8873 -0.5339 -0.2346
  443SOL    HW2 1386   4.959   3.955   2.711 -1.3096 -0.0316  1.1798
  444SOL     OW 1387   0.578   2.073   3.055 -0.3626 -0.1651 -0.3826
  444SOL    HW1 1388   0.545   2.069   3.145  2.2704 -0.5507  0.6347
  444SOL    HW2 1389   0.574   1.983   3.023  1.8140 -0.6494  0.5931
  445SOL     OW 1390   0.401   3.703   4.443 -0.0959 -0.1025  0.2738
  445SOL    HW1 1391   0.453   3.771   4.487  0.3417  0.6719 -1.3645
  445SOL    HW2 1392   0.322   3.695   4.498  0.2443  1.0920  0.9975
  446SOL     OW 1393   3.832   1.809   4.107 -0.8542 -0.2612 -0.7163
  446SOL    HW1 1394   3.738   1.790   4.103 -0.4606 -2.2857 -1.4631
  446SOL    HW2 1395   3.867   1.777   4.024  0.4330  1.0645 -0.7399
  447SOL     OW 1396   1.575   0.596   2.279 -0.0520  0.2724 -0.5199
  447SOL    HW1 1397   1.630   0.641   2.214 -0.5216  1.6245 -0.0026
  447SOL    HW2 1398   1.486   0.604   2.245 -0.1146 -0.5820 -0.5853
  448SOL     OW 1399   4.532   4.240   1.026  0.1514 -0.2881 -0.0688
  448SOL    HW1 1400   4.457   4.238   0.966  0.7131  2.6709 -1.0611
  448SOL    HW2 1401   4.512   4.311   1.087  1.0861 -1.0817  1.2163
  449SOL     OW 1402   0.140   2.182   0.383 -0.3303  0.1936 -0.2183
  449SOL    HW1 1403   0.164   2.184   0.290  0.5782  0.2724  0.0042
  449SOL    HW2 1404   0.223   2.192   0.429 -0.6546 -0.7314  0.6130
  450SOL     OW 1405   1.916   2.725   3.891 -0.6057 -0.2996  0.7845
  450SOL    HW1 1406   1.831   2.683   3.890 -0.6117 -0.2816  0.2949
  450SOL    HW2 1407   1.903   2.809   3.846 -0.8713  0.7932  2.7907
  451SOL     OW 1408   2.056   1.035   2.831 -0.4281 -0.5662 -0.0450
  451SOL    HW1 1409   2.105   1.001   2.906  0.7998 -0.7906 -0.9136
  451SOL    HW2 1410   2.007   0.959   2.799 -3.1271  0.1203  2.0807
  452SOL     OW 1411   3.840   0.236   2.351  0.0271  0.5954 -0.1482
  452SOL    HW1 1412   3.872   0.260   2.438 -0.4192 -1.3831  0.6284
  452SOL    HW2 1413   3.746   0.255   2.355 -0.4647 -1.7017  0.7174
  453SOL     OW 1414   0.935   1.958   3.829  0.0134  0.0267 -0.3450
  453SOL    HW1 1415   0.841   1.957   3.848  0.4574  0.9546  2.2957
  453SOL    HW2 1416   0.965   1.870   3.851 -0.0777  0.0414 -0.1583
  454SOL     OW 1417   2.069   2.310   2.445 -0.4628 -0.5000 -0.1102
  454SOL    HW1 1418   2.113   2.321   2.529  0.1296 -1.1780 -0.3286
  454SOL    HW2 1419   1.976   2.320   2.465 -0.4026 -1.6707  0.8027
  455SOL     OW 1420   1.829   4.600   1.156 -0.5207  0.1345 -0.4752
  455SOL    HW1 1421   1.891   4.637   1.218  0.3298  0.0031 -1.2261
  455SOL    HW2 1422   1.848   4.644   1.073 -1.6819  0.3602 -0.6440
  456SOL     OW 1423   2.242   1.179   4.185 -0.4394 -0.7213  0.0418
  456SOL    HW1 1424   2.310   1.244   4.204  0.0828 -1.5064  0.9787
  456SOL    HW2 1425   2.200   1.210   4.105  0.1371  0.4904  0.1880
  457SOL     OW 1426   4.511   3.691   4.895 -0.0221  0.3383  0.5820
  457SOL    HW1 1427   4.603   3.695   4.921  0.2715  0.5547 -0.4415
  457SOL    HW2 1428   4.507   3.622   4.829 -0.1793  1.7047 -0.9002
  458SOL     OW 1429   1.560   2.319   2.613  0.4094 -0.7883  0.5929
  458SOL    HW1 1430   1.558   2.285   2.524 -1.4359  0.8421 -0.0774
  458SOL    HW2 1431   1.498   2.264   2.662  0.5372 -0.9559  0.5653
  459SOL     OW 1432   4.971   2.064   3.431 -0.2792 -0.4815 -0.4549
  459SOL    HW1 1433   4.995   1.971   3.427 -0.5099 -0.5080 -2.2779
  459SOL    HW2 1434   5.051   2.110   3.403 -0.2880 -0.1495  0.0575
  460SOL     OW 1435   2.336   2.357   0.062 -0.1094 -0.4493 -0.3541
  460SOL    HW1 1436   2.260   2.300   0.052  0.2653 -1.0103 -0.0423
  460SOL    HW2 1437   2.406   2.299   0.091  0.1510  0.2484  0.4670
  461SOL     OW 1438   4.880   1.219   4.646  0.4400 -0.6303  0.3369
  461SOL    HW1 1439   4.901   1.159   4.574 -0.1374 -1.3062  0.7169
  461SOL    HW2 1440   4.792   1.251   4.626  1.2063  1.0560 -0.4954
  462SOL     OW 1441   1.888   2.266   0.945  0.1901 -0.1630  0.2307
  462SOL    HW1 1442   1.848   2.330   0.888 -0.0241 -0.5162 -0.0180
  462SOL    HW2 1443   1.947   2.317   1.001 -0.3781  0.3163  0.4020
  463SOL     OW 1444   2.591   4.791   3.006 -0.0177 -0.0668  0.1422
  463SOL    HW1 1445   2.569   4.863   2.947 -0.5527  0.8514  1.4170
  463SOL    HW2 1446   2.512   4.736   3.005  1.0276 -1.7170 -2.2408
  464SOL     OW 1447   4.140   2.786   4.605  0.4240  0.2297 -0.7765
  464SOL    HW1 1448   4.060   2.790   4.553  0.6313  0.6452 -1.0701
  464SOL    HW2 1449   4.112   2.748   4.688 -0.3264  1.4472 -0.4384
  465SOL     OW 1450   4.462   2.353   4.154 -0.4987 -0.5514  0.1712
  465SOL    HW1 1451   4.389   2.299   4.126 -0.6309 -0.6186  0.6304
  465SOL    HW2 1452   4.422   2.426   4.201 -0.2448 -0.9889  1.0889
  466SOL     OW 1453   3.457   4.569   3.499 -0.4871 -0.1027  0.2184
  466SOL    HW1 1454   3.367   4.601   3.511 -1.0219 -2.3656  3.8037
  466SOL    HW2 1455   3.496   4.574   3.587  2.6020 -0.2023 -1.0276
  467SOL     OW 1456   2.884   2.692   2.017 -0.0548 -0.0721 -0.3610
  467SOL    HW1 1457   2.795   2.681   1.985 -0.2679  0.0298  0.1789
  467SOL    HW2 1458   2.913   2.603   2.039  0.2039 -0.1802 -1.1087
  468SOL     OW 1459   2.750   0.354   3.750 -0.0627 -0.0522 -0.0474
  468SOL    HW1 1460   2.832   0.305   3.754 -0.6027 -1.0357 -0.7632
  468SOL    HW2 1461   2.718   0.354   3.840 -0.0028 -0.9401 -0.0144
  469SOL     OW 1462   3.174   1.525   4.197  0.7369 -0.3904  0.6510
  469SOL    HW1 1463   3.268   1.525   4.217  1.0840  0.7297 -0.7742
  469SOL    HW2 1464   3.132   1.523   4.283  2.0538 -0.5832  1.3346
  470SOL     OW 1465   3.841   2.007   2.885  0.0981 -0.0543 -0.4023
  470SOL    HW1 1466   3.816   2.098   2.904  0.2723  0.6523 -3.0346
  470SOL    HW2 1467   3.923   1.994   2.932  0.5254  1.4830 -0.6504
  471SOL     OW 1468   4.628   4.066   4.982  0.3018  0.2335 -0.4497
  471SOL    HW1 1469   4.616   4.006   5.055  0.1786 -0.2778 -0.8768
  471SOL    HW2 1470   4.717   4.100   4.992  0.5135 -0.3253 -0.4152
  472SOL     OW 1471   1.032   1.838   3.288 -0.8414 -0.2669  0.0203
  472SOL    HW1 1472   1.021   1.853   3.194  1.2158 -0.1612 -0.2470
  472SOL    HW2 1473   1.102   1.773   3.294  0.9860  1.6825  1.4863
  473SOL     OW 1474   0.881   3.580   0.118 -0.1827 -0.0392 -0.9114
  473SOL    HW1 1475   0.858   3.578   0.210 -0.6892 -1.6660 -1.0409
  473SOL    HW2 1476   0.801   3.607   0.073  0.5687  2.6392 -0.7884
  474SOL     OW 1477   4.965   0.442   3.693  0.4829  0.0694  0.0339
  474SOL    HW1 1478   5.053   0.409   3.713  1.2041  0.3289 -2.4572
  474SOL    HW2 1479   4.925   0.374   3.638  0.5869  1.5865 -2.0197
  475SOL     OW 1480   4.680   4.458   0.479 -0.3419 -0.1427  0.0162
  475SOL    HW1 1481   4.698   4.511   0.556  0.7975  0.7720 -0.8521
  475SOL    HW2 1482   4.669   4.521   0.408 -3.3982 -0.8238 -0.2777
  476SOL     OW 1483   0.177   2.410   0.158 -0.0709 -0.5639  0.7937
  476SOL    HW1 1484   0.227   2.408   0.239  1.6504  0.4430 -0.1887
  476SOL    HW2 1485   0.150   2.319   0.144  2.1951 -1.3195  0.9681
  477SOL     OW 1486   1.149   4.091   4.890 -0.6446  0.2197 -0.0678
  477SOL    HW1 1487   1.183   4.009   4.853 -1.5528  0.0547 -0.5515
  477SOL    HW2 1488   1.176   4.158   4.827 -1.3039  0.0739 -0.5097
  478SOL     OW 1489   1.892   2.002   0.281  0.0816  0.2143  0.7140
  478SOL    HW1 1490   1.843   2.081   0.258 -1.0880 -0.0695  2.0639
  478SOL    HW2 1491   1.961   1.996   0.215 -1.2576  1.0400 -0.8296
  479SOL     OW 1492   1.386   2.989   0.829  0.4486  0.2492  0.4657
  479SOL    HW1 1493   1.341   2.924   0.776 -1.2862  1.3592  0.4827
  479SOL    HW2 1494   1.477   2.985   0.800 -0.0399 -0.6513 -1.0656
  480SOL     OW 1495   3.410   3.070   1.782  0.0707  0.2021 -0.1750
  480SOL    HW1 1496   3.493   3.088   1.827 -1.0825  2.4517  1.2309
  480SOL    HW2 1497   3.376   2.992   1.825  0.3674  0.6460  0.8884
  481SOL     OW 1498   2.261   0.747   1.354  0.7070 -0.3572  0.2125
  481SOL    HW1 1499   2.189   0.808   1.339  0.7000 -0.7347 -1.4877
  481SOL    HW2 1500   2.255   0.724   1.447 -2.2398 -1.4535 -0.1498
  482SOL     OW 1501   2.999   0.937   2.988  0.0536 -0.4837  0.5096
  482SOL    HW1 1502   2.986   0.843   2.976 -0.9093 -0.0777 -2.0871
  482SOL    HW2 1503   3.088   0.953   2.956  0.8588 -0.6797  2.4712
  483SOL     OW 1504   4.657   0.061   3.475 -0.3314  0.2918  0.1293
  483SOL    HW1 1505   4.610   0.125   3.421 -0.1456 -0.5931 -1.0944
  483SOL    HW2 1506   4.591   0.028   3.536 -1.5060 -1.3263 -1.9149
  484SOL     OW 1507   3.911   0.335   3.973 -0.6530  0.0526  0.3150
  484SOL    HW1 1508   3.972   0.396   4.013  0.0028 -0.0915 -0.4346
  484SOL    HW2 1509   3.889   0.273   4.044 -1.4505  1.2168  1.1197
  485SOL     OW 1510   4.864   1.524   4.593  0.1578 -0.0178  0.2197
  485SOL    HW1 1511   4.811   1.574   4.531 -0.4534 -1.2948 -0.3117
  485SOL    HW2 1512   4.844   1.432   4.574 -0.9632 -0.4693  3.0439
  486SOL     OW 1513   4.589   1.935   0.824 -0.1430  0.2272 -0.1127
  486SOL    HW1 1514   4.516   1.996   0.814 -0.0327  1.0859  3.3029
  486SOL    HW2 1515   4.664   1.980   0.784 -0.3411  1.8259  1.2338
  487SOL     OW 1516   0.211   3.001   0.591  0.3131 -0.1287 -0.5384
  487SOL    HW1 1517   0.136   2.984   0.535 -0.0945  1.3133 -0.4707
  487SOL    HW2 1518   0.189   2.958   0.674  0.2696 -1.0255 -1.0024
  488SOL     OW 1519   0.525   0.857   2.128 -0.2215  0.1934  0.1612
  488SOL    HW1 1520   0.541   0.869   2.034  0.0496  0.4700  0.2426
  488SOL    HW2 1521   0.447   0.910   2.146 -1.2615 -1.1580 -0.2364
  489SOL     OW 1522   2.048   2.468   1.054  0.1750 -0.2550 -0.1581
  489SOL    HW1 1523   2.103   2.484   1.131  0.5544  0.1426 -0.5087
  489SOL    HW2 1524   2.064   2.543   0.997 -2.2047  0.9027  0.5629
  490SOL     OW 1525   1.068   2.490   0.430  0.2345  0.3393 -0.2702
  490SOL    HW1 1526   1.004   2.526   0.368  0.9152  0.2314 -1.0518
  490SOL    HW2 1527   1.042   2.398   0.441 -0.8366  0.7551  0.8603
  491SOL     OW 1528   0.592   1.519   2.654  0.9246 -0.0558  0.0695
  491SOL    HW1 1529   0.678   1.492   2.685  1.7194  0.1321 -1.7911
  491SOL    HW2 1530   0.576   1.465   2.576  0.1034  1.0375 -0.5541
  492SOL     OW 1531   4.461   1.458   1.554  0.5798  0.1725 -0.2916
  492SOL    HW1 1532   4.553   1.439   1.571  0.1995 -3.0265 -0.9740
  492SOL    HW2 1533   4.427   1.494   1.635  2.3333  1.0821  0.0737
  493SOL     OW 1534   1.912   3.105   2.564 -0.5576  0.6679  0.3652
  493SOL    HW1 1535   1.863   3.137   2.640 -1.3204 -1.2660  0.7386
  493SOL    HW2 1536   1.997   3.078   2.601 -1.0681 -0.6316  0.6331
  494SOL     OW 1537   3.747   2.927   1.870  0.5339  0.8572  0.9046
  494SOL    HW1 1538   3.746   2.944   1.776  0.3685 -2.7147  0.1069
  494SOL    HW2 1539   3.665   2.963   1.902 -0.8410 -0.4240 -0.9677
  495SOL     OW 1540   3.216   2.189   4.506  0.0130  0.3471  0.0275
  495SOL    HW1 1541   3.146   2.249   4.480  0.2499  0.7413  0.2776
  495SOL    HW2 1542   3.291   2.246   4.522 -0.4487  0.3365  2.8486
  496SOL     OW 1543   0.431   3.978   2.749  0.4752 -0.4641  0.0910
  496SOL    HW1 1544   0.501   4.042   2.738 -0.1534  0.3452  0.6913
  496SOL    HW2 1545   0.367   3.999   2.682 -0.4328  0.5204  1.2155
  497SOL     OW 1546   2.160   1.826   4.016 -0.1164 -0.5481  0.2773
  497SOL    HW1 1547   2.173   1.781   3.933 -1.1648  0.7821 -0.6536
  497SOL    HW2 1548   2.070   1.806   4.040 -0.3636  0.4187  0.2137
  498SOL     OW 1549   2.149   4.159   2.329 -0.1901 -0.1238  0.0060
  498SOL    HW1 1550   2.138   4.223   2.399  0.7706 -2.1531  2.1897
  498SOL    HW2 1551   2.094   4.085   2.355 -0.0674 -0.8302 -1.5965
  499SOL     OW 1552   1.935   4.835   1.484 -0.2643 -0.9816 -0.1451
  499SOL    HW1 1553   1.908   4.771   1.550 -1.7838 -1.3766 -1.0949
  499SOL    HW2 1554   1.948   4.916   1.533 -1.3192 -1.2675  0.6622
  500SOL     OW 1555   4.839   2.759   3.042  0.2200  1.2097 -0.1644
  500SOL    HW1 1556   4.909   2.695   3.053 -0.1898  0.7033 -0.4759
  500SOL    HW2 1557   4.878   2.842   3.070  1.1032  1.0277 -0.8012
  501SOL     OW 1558   4.193   0.594   4.716 -0.9767  0.3166 -0.1330
  501SOL    HW1 1559   4.145   0.677   4.713 -1.1768  0.2078  0.0272
  501SOL    HW2 1560   4.126   0.527   4.700 -0.7114  0.2238 -0.9092
  502SOL     OW 1561   4.858   0.484   3.301 -0.2178 -0.0654 -0.5358
  502SOL    HW1 1562   4.804   0.444   3.232  1.4880  0.3268 -2.1773
  502SOL    HW2 1563   4.892   0.563   3.261  2.1943 -0.6904  0.1562
  503SOL     OW 1564   0.435   0.734   3.839 -0.1918 -0.5807  0.0006
  503SOL    HW1 1565   0.474   0.766   3.921 -3.2334 -0.2435  1.4557
  503SOL    HW2 1566   0.371   0.668   3.867 -3.4605  1.5942 -1.7062
  504SOL     OW 1567   0.294   0.141   2.363 -0.5968 -0.1894 -0.1591
  504SOL    HW1 1568   0.348   0.174   2.291 -0.7180 -0.5676 -0.4265
  504SOL    HW2 1569   0.265   0.054   2.334 -0.0360 -0.6736  0.6508
  505SOL     OW 1570   1.143   3.224   3.113  0.2143  0.3799 -0.4100
  505SOL    HW1 1571   1.101   3.292   3.164  0.0489  0.1071 -0.1811
  505SOL    HW2 1572   1.158   3.152   3.175 -1.2319 -0.5013 -1.0066
  506SOL     OW 1573   4.018   2.887   1.899  0.1278 -0.4311  0.2365
  506SOL    HW1 1574   3.923   2.896   1.906  0.2401  0.1951  0.9780
  506SOL    HW2 1575   4.034   2.795   1.920 -0.3385 -0.6233 -0.2160
  507SOL     OW 1576   2.499   1.191   2.659  0.3179  0.6873 -0.0583
  507SOL    HW1 1577   2.486   1.256   2.728 -2.2634  1.2087 -0.9203
  507SOL    HW2 1578   2.443   1.118   2.683 -0.1029  0.5926 -1.2512
  508SOL     OW 1579   0.349   4.553   0.577  0.1879 -0.2896 -0.0385
  508SOL    HW1 1580   0.299   4.623   0.619 -0.8710 -0.2165 -1.3493
  508SOL    HW2 1581   0.283   4.498   0.534  1.1190 -1.1677 -0.3872
  509SOL     OW 1582   3.135   1.877   1.673 -0.6400  0.0706 -0.0898
  509SOL    HW1 1583   3.206   1.890   1.735 -2.3325 -0.0243  1.9886
  509SOL    HW2 1584   3.153   1.791   1.634 -0.1678 -0.4392  1.1927
  510SOL     OW 1585   0.898   0.201   1.495  0.8366 -0.1316 -0.6302
  510SOL    HW1 1586   0.992   0.214   1.505  0.4072  1.9847  1.4943
  510SOL    HW2 1587   0.872   0.262   1.426  0.8112  0.4833 -0.0867
  511SOL     OW 1588   3.610   0.040   3.833 -0.2036 -0.0033 -0.3088
  511SOL    HW1 1589   3.701   0.048   3.805 -0.0431 -0.3676  0.1040
  511SOL    HW2 1590   3.566  -0.005   3.760  0.2730 -1.2092  0.1317
  512SOL     OW 1591   1.024   2.018   4.424 -0.1387  0.4633  0.2195
  512SOL    HW1 1592   1.014   1.946   4.361 -3.2075  0.3289  0.6771
  512SOL    HW2 1593   1.012   2.097   4.371 -1.5507  0.3923  0.3852
  513SOL     OW 1594   1.794   2.226   3.781 -0.0414  0.0946  0.1658
  513SOL    HW1 1595   1.868   2.186   3.827  1.0287 -0.4785 -1.9272
  513SOL    HW2 1596   1.717   2.195   3.828  0.8917 -2.2251  0.3098
  514SOL     OW 1597   0.539   4.324   1.236  0.3362  0.1624  0.4657
  514SOL    HW1 1598   0.444   4.337   1.240  0.5358  1.7426  0.7756
  514SOL    HW2 1599   0.557   4.260   1.305 -0.6585 -1.3929 -0.6493
  515SOL     OW 1600   1.852   0.742   1.633  0.0134 -0.3303 -0.5926
  515SOL    HW1 1601   1.820   0.832   1.631  1.5243  0.2336 -1.3118
  515SOL    HW2 1602   1.779   0.690   1.601 -0.4483  0.7908 -1.4507
  516SOL     OW 1603   4.258   0.345   0.628  0.5997 -0.0730 -0.0804
  516SOL    HW1 1604   4.234   0.353   0.535  1.8177 -0.7069 -0.4652
  516SOL    HW2 1605   4.181   0.377   0.675  0.2033  0.8721 -1.3128
  517SOL     OW 1606   3.707   1.113   4.270  0.9414 -0.9955  0.0035
  517SOL    HW1 1607   3.682   1.186   4.213  0.4976 -2.0859 -1.2782
  517SOL    HW2 1608   3.638   1.108   4.336 -0.0470 -1.3726 -1.0144
  518SOL     OW 1609   0.882   1.279   3.153  0.5241  0.0768  0.0906
  518SOL    HW1 1610   0.816   1.247   3.092 -1.1277  1.8443  0.8454
  518SOL    HW2 1611   0.876   1.221   3.228 -0.4971  0.4657  0.3202
  519SOL     OW 1612   4.212   2.415   4.562 -0.1998  0.2902 -0.3958
  519SOL    HW1 1613   4.223   2.441   4.653  1.8264  1.1255 -0.8012
  519SOL    HW2 1614   4.118   2.421   4.545 -1.0345 -2.5840  2.3538
  520SOL     OW 1615   2.327   0.045   0.964  0.0175 -0.2257 -0.4236
  520SOL    HW1 1616   2.363   0.131   0.946  2.7718 -1.2289 -0.1317
  520SOL    HW2 1617   2.352   0.026   1.054  1.2546 -2.0966 -1.0925
  521SOL     OW 1618   4.823   4.459   1.553 -0.0532 -0.0658 -0.3228
  521SOL    HW1 1619   4.767   4.397   1.507 -1.0289 -1.1012  2.0901
  521SOL    HW2 1620   4.912   4.436   1.527 -0.5840  0.7983 -3.2544
  522SOL     OW 1621   1.785   1.302   3.126  0.7368  0.1417 -0.0534
  522SOL    HW1 1622   1.721   1.328   3.059 -0.4056 -1.0872  0.5140
  522SOL    HW2 1623   1.865   1.350   3.102  0.0394  0.6084 -1.6274
  523SOL     OW 1624   0.350   3.437   3.052 -0.3059 -0.1239 -0.0666
  523SOL    HW1 1625   0.360   3.345   3.028  1.7843  0.4413 -1.5764
  523SOL    HW2 1626   0.429   3.479   3.019 -1.5434  2.3590 -0.0255
  524SOL     OW 1627   1.156   3.349   1.359 -0.1815 -0.1563 -0.2272
  524SOL    HW1 1628   1.213   3.315   1.428  0.0651  2.9266  1.2528
  524SOL    HW2 1629   1.103   3.273   1.333  2.4788 -2.4090  0.4067
  525SOL     OW 1630   3.915   2.944   3.546 -0.3329 -0.2152  0.6331
  525SOL    HW1 1631   3.852   2.887   3.589  1.2920 -1.9844  0.8292
  525SOL    HW2 1632   3.936   3.011   3.611 -1.0477 -0.3538  1.0131
  526SOL     OW 1633   4.345   2.096   4.864 -0.3197  0.5547  0.1839
  526SOL    HW1 1634   4.367   2.188   4.876 -0.1226  0.3323  1.6719
  526SOL    HW2 1635   4.428   2.049   4.877 -0.5754  0.1092  0.2339
  527SOL     OW 1636   0.170   1.882   0.902  0.7417  0.3754 -0.0875
  527SOL    HW1 1637   0.115   1.885   0.980  2.0140 -1.3218  0.9234
  527SOL    HW2 1638   0.216   1.798   0.907  1.8169  0.7820 -2.0048
  528SOL     OW 1639   3.380   2.499   1.053 -0.2510 -0.2547  0.4441
  528SOL    HW1 1640   3.309   2.505   0.989 -0.1861 -1.4362  0.2466
  528SOL    HW2 1641   3.335   2.493   1.138 -0.3561  0.2834  0.4298
  529SOL     OW 1642   3.097   3.322   1.121 -0.3210 -0.0268 -0.4195
  529SOL    HW1 1643   3.048   3.403   1.107  0.4404  0.4882 -0.1131
  529SOL    HW2 1644   3.159   3.318   1.049 -1.4001 -1.1520 -1.3387
  530SOL     OW 1645   1.842   3.755   3.095  0.5946 -0.1508 -0.7591
  530SOL    HW1 1646   1.761   3.796   3.065 -0.0212  0.5074  1.5897
  530SOL    HW2 1647   1.823   3.661   3.097  0.6440 -0.2135 -2.2569
  531SOL     OW 1648   4.894   1.352   4.974 -0.0972 -0.6103  0.5093
  531SOL    HW1 1649   4.909   1.407   4.897  0.5820 -0.5560  0.6746
  531SOL    HW2 1650   4.818   1.299   4.951  0.7455 -1.3711 -0.6355
  532SOL     OW 1651   2.781   1.204   3.736  0.1544  0.8459  0.4588
  532SOL    HW1 1652   2.783   1.135   3.669  1.4309  1.8290 -0.5813
  532SOL    HW2 1653   2.873   1.226   3.750 -0.1532  1.3521  1.8410
  533SOL     OW 1654   2.146   0.595   4.184 -0.0302  0.2977  0.1600
  533SOL    HW1 1655   2.239   0.586   4.207  0.6016 -0.7219 -2.3986
  533SOL    HW2 1656   2.143   0.673   4.128  0.1072 -1.7487 -2.9465
  534SOL     OW 1657   1.597   0.126   4.967  0.4233  0.4284  0.2160
  534SOL    HW1 1658   1.521   0.129   5.026  0.0843  0.9485 -0.2415
  534SOL    HW2 1659   1.588   0.204   4.912  0.1098 -0.6202 -1.2923
  535SOL     OW 1660   4.352   0.513   4.006 -0.3743 -0.3214  0.1284
  535SOL    HW1 1661   4.289   0.580   4.034 -1.5281 -1.5075  0.4490
  535SOL    HW2 1662   4.359   0.454   4.081  0.9392 -0.3624 -0.0030
  536SOL     OW 1663   2.082   3.637   0.495 -0.6826  0.0051  0.6366
  536SOL    HW1 1664   2.119   3.717   0.532  1.3985 -1.0319  0.9504
  536SOL    HW2 1665   2.117   3.633   0.406 -0.7895 -0.5271  0.6105
  537SOL     OW 1666   4.472   1.488   1.861  0.0847  0.5990  0.0003
  537SOL    HW1 1667   4.395   1.542   1.846 -1.5054 -2.1140 -2.7653
  537SOL    HW2 1668   4.445   1.424   1.926  0.4674  0.4371  0.0064
  538SOL     OW 1669   3.246   1.679   2.148  0.0138 -0.0968  0.2723
  538SOL    HW1 1670   3.319   1.662   2.207 -0.8331  0.6297  1.5821
  538SOL    HW2 1671   3.241   1.774   2.142  0.6123 -0.1552 -1.6906
  539SOL     OW 1672   2.170   0.087   3.840 -0.4335  0.6479 -0.0619
  539SOL    HW1 1673   2.152  -0.005   3.857 -0.6891  1.0300  1.9294
  539SOL    HW2 1674   2.155   0.131   3.923  0.0480  2.4532 -0.8683
  540SOL     OW 1675   0.196   0.987   3.785 -0.3969 -0.2209 -0.4069
  540SOL    HW1 1676   0.251   0.975   3.708 -0.7146 -1.5964 -0.4509
  540SOL    HW2 1677   0.142   1.063   3.765  1.1223  0.8501 -0.5572
  541SOL     OW 1678   2.700   0.681   0.809 -0.3670 -0.2779  0.1573
  541SOL    HW1 1679   2.759   0.720   0.874  0.4124 -0.5723 -0.3568
  541SOL    HW2 1680   2.631   0.746   0.798 -0.1783  0.0524  0.8155
  542SOL     OW 1681   3.191   3.262   4.227  0.5160  0.0700  0.2274
  542SOL    HW1 1682   3.100   3.244   4.204  0.0089  2.2564  0.2564
  542SOL    HW2 1683   3.239   3.253   4.145 -0.2302  1.6211 -0.4132
  543SOL     OW 1684   3.796   3.621   4.602 -0.0201  0.3021 -0.6316
  543SOL    HW1 1685   3.763   3.667   4.680 -0.9494  1.5930 -1.7317
  543SOL    HW2 1686   3.781   3.528   4.620  2.0422  0.3271  1.7353
  544SOL     OW 1687   3.701   2.794   0.986 -0.2296  0.2057  0.0352
  544SOL    HW1 1688   3.648   2.804   0.907  0.1808 -0.4220 -0.3265
  544SOL    HW2 1689   3.712   2.699   0.995  0.6520  0.3201  0.2228
  545SOL     OW 1690   4.920   3.009   1.439 -0.1755 -0.6030  0.2531
  545SOL    HW1 1691   4.918   3.103   1.454 -0.5932 -0.5324 -0.2075
  545SOL    HW2 1692   4.962   2.999   1.354 -0.5833 -0.7933  0.0686
  546SOL     OW 1693   2.080   2.785   2.929 -0.1079 -0.1185 -0.4945
  546SOL    HW1 1694   2.081   2.751   2.840 -1.7152 -1.4016 -0.0664
  546SOL    HW2 1695   1.989   2.779   2.957  0.1911  1.1559  0.9146
  547SOL     OW 1696   4.029   4.402   2.698  0.0578  0.2738 -0.1364
  547SOL    HW1 1697   3.959   4.361   2.647 -0.4507 -0.6078  1.2133
  547SOL    HW2 1698   4.107   4.392   2.643  0.2439 -3.6028  0.4925
  548SOL     OW 1699   1.354   4.209   1.886 -0.5126  0.3043 -0.1553
  548SOL    HW1 1700   1.429   4.201   1.946 -0.2088  1.0806 -0.4164
  548SOL    HW2 1701   1.364   4.296   1.847 -1.3809  0.2900 -0.4304
  549SOL     OW 1702   0.535   3.939   3.320 -0.5414 -0.8914 -0.5893
  549SOL    HW1 1703   0.457   3.938   3.376  0.2628 -0.4337  0.5828
  549SOL    HW2 1704   0.523   4.015   3.263  0.5870  1.3562  1.9472
  550SOL     OW 1705   4.675   4.358   2.246 -0.0554 -0.2696  0.2676
  550SOL    HW1 1706   4.751   4.335   2.300 -0.3016  0.2954  0.8670
  550SOL    HW2 1707   4.642   4.439   2.285 -0.1063  0.2776 -0.8682
  551SOL     OW 1708   0.693   4.437   2.162 -0.1610 -0.0971 -0.4004
  551SOL    HW1 1709   0.674   4.519   2.208 -3.9107 -1.6657  1.2940
  551SOL    HW2 1710   0.782   4.414   2.189 -0.0417  2.0229  1.2855
  552SOL     OW 1711   4.279   0.370   3.274  0.1043 -0.0540 -0.1303
  552SOL    HW1 1712   4.317   0.399   3.191  0.3877 -0.2973 -0.0862
  552SOL    HW2 1713   4.347   0.315   3.313  0.0882  0.2971  0.3990
  553SOL     OW 1714   4.204   1.121   4.154 -0.3756  0.5437 -0.0440
  553SOL    HW1 1715   4.217   1.214   4.175  0.2038  0.6057 -0.6320
  553SOL    HW2 1716   4.280   1.077   4.193 -0.5037  0.3535 -0.0073
  554SOL     OW 1717   2.236   0.709   1.638 -0.1315 -0.4337  0.1250
  554SOL    HW1 1718   2.200   0.630   1.679 -0.0213  0.6169  2.3997
  554SOL    HW2 1719   2.319   0.725   1.685 -0.1480  1.0049 -0.2838
  555SOL     OW 1720   2.695   1.646   2.512  0.1644  0.8944  0.2969
  555SOL    HW1 1721   2.650   1.603   2.440  1.6204 -0.0191 -0.1071
  555SOL    HW2 1722   2.649   1.615   2.591  0.3134 -0.3286 -0.0785
  556SOL     OW 1723   2.354   1.920   0.196 -0.5852 -0.2680 -0.3570
  556SOL    HW1 1724   2.340   1.844   0.252 -0.2668 -0.6663 -0.8092
  556SOL    HW2 1725   2.384   1.883   0.113  1.7831  0.4389  0.0990
  557SOL     OW 1726   1.784   0.461   1.741  0.4067  0.1444 -0.1515
  557SOL    HW1 1727   1.695   0.426   1.738  0.5712 -0.7651  2.6964
  557SOL    HW2 1728   1.829   0.419   1.667 -1.5611  0.9571 -1.9170
  558SOL     OW 1729   4.717   4.448   4.701  0.1616 -0.3660  0.0068
  558SOL    HW1 1730   4.777   4.417   4.634  0.0414  0.0255 -0.2860
  558SOL    HW2 1731   4.667   4.371   4.727 -0.2844 -0.3761 -0.8690
  559SOL     OW 1732   3.548   4.769   1.512  0.0926 -0.3060 -0.2935
  559SOL    HW1 1733   3.567   4.690   1.462 -0.4552 -1.4466  1.2283
  559SOL    HW2 1734   3.596   4.758   1.594 -1.4362  0.0710  0.6923
  560SOL     OW 1735   2.472   4.213   1.937  0.0214 -0.1570  0.0440
  560SOL    HW1 1736   2.554   4.198   1.983  0.4074  0.5242 -0.4059
  560SOL    HW2 1737   2.482   4.299   1.896 -0.2679 -0.7710 -1.3831
  561SOL     OW 1738   1.675   1.289   1.212  0.3444 -0.3700  0.2869
  561SOL    HW1 1739   1.606   1.257   1.154  0.1672 -0.0380  0.3129
  561SOL    HW2 1740   1.723   1.353   1.160 -0.2605  0.4584  0.7399
  562SOL     OW 1741   4.762   4.428   2.585  0.4345 -0.1530  0.2835
  562SOL    HW1 1742   4.782   4.521   2.581  1.9810 -0.5003 -2.0692
  562SOL    HW2 1743   4.784   4.402   2.675 -0.6404  1.8097  1.1762
  563SOL     OW 1744   1.924   3.010   3.348 -0.2600  0.1997  0.6139
  563SOL    HW1 1745   2.011   2.972   3.342 -1.2094 -1.8623 -1.3669
  563SOL    HW2 1746   1.882   2.962   3.420 -0.8721 -1.3804 -0.7394
  564SOL     OW 1747   2.458   2.576   4.350 -0.2505 -0.2906  0.3388
  564SOL    HW1 1748   2.385   2.620   4.394  0.2803 -0.0824  1.0226
  564SOL    HW2 1749   2.455   2.486   4.383 -0.9240 -0.6143 -0.5520
  565SOL     OW 1750   4.469   2.796   3.812  0.1602  0.3653 -0.4013
  565SOL    HW1 1751   4.472   2.739   3.736  1.2414  0.5799 -0.5411
  565SOL    HW2 1752   4.531   2.867   3.791  1.0977  0.0029  0.9903
  566SOL     OW 1753   0.438   1.280   0.486 -0.6609  0.0927  0.2433
  566SOL    HW1 1754   0.426   1.375   0.482  1.4349  0.3755 -0.8965
  566SOL    HW2 1755   0.349   1.245   0.495 -1.4501  2.1540  1.1693
  567SOL     OW 1756   3.776   4.585   4.298 -0.0098  0.4192  0.0075
  567SOL    HW1 1757   3.777   4.585   4.394  0.9353  1.5720  0.0203
  567SOL    HW2 1758   3.847   4.644   4.274 -0.5761  0.5499 -1.4050
  568SOL     OW 1759   0.134   3.448   2.350 -0.4630  0.2086  0.0225
  568SOL    HW1 1760   0.048   3.488   2.338 -0.2919 -0.0066 -2.6442
  568SOL    HW2 1761   0.160   3.472   2.439 -2.6696  1.4198  0.4162
  569SOL     OW 1762   0.185   1.558   4.392 -0.2490 -0.1014 -0.5100
  569SOL    HW1 1763   0.260   1.564   4.333  0.6598  2.1527  0.7218
  569SOL    HW2 1764   0.223   1.532   4.476 -1.0469 -0.1821 -0.1673
  570SOL     OW 1765   4.279   3.365   0.630  0.2674  0.3246  0.1968
  570SOL    HW1 1766   4.337   3.389   0.703  0.3285 -0.2448  0.3382
  570SOL    HW2 1767   4.253   3.275   0.648  2.2402 -0.7403 -1.7190
  571SOL     OW 1768   2.155   2.139   0.500 -0.2221  0.6167 -0.4585
  571SOL    HW1 1769   2.074   2.142   0.551 -0.6362 -0.2781 -1.0386
  571SOL    HW2 1770   2.145   2.062   0.443  0.5753  1.1138 -1.2974
  572SOL     OW 1771   0.972   2.983   0.965  0.3865  0.2053  0.5099
  572SOL    HW1 1772   0.973   3.076   0.987 -0.6503  0.9240 -2.0367
  572SOL    HW2 1773   1.064   2.962   0.949  0.4691  1.4457 -0.9925
  573SOL     OW 1774   2.366   2.927   2.793 -0.5065 -0.3584 -0.0175
  573SOL    HW1 1775   2.411   2.844   2.805 -0.8782 -0.4864  0.5442
  573SOL    HW2 1776   2.425   2.992   2.832 -0.5745 -0.4616  0.2598
  574SOL     OW 1777   3.812   3.357   0.369  0.4730 -0.1144  0.0536
  574SOL    HW1 1778   3.807   3.448   0.338 -0.8395 -0.0873  0.3301
  574SOL    HW2 1779   3.906   3.336   0.363  0.6020  0.7230 -1.5187
  575SOL     OW 1780   1.334   2.628   0.425 -0.1662  0.1615  0.6133
  575SOL    HW1 1781   1.247   2.596   0.402 -0.0111 -0.4813  0.8967
  575SOL    HW2 1782   1.380   2.551   0.457  0.3512  0.5946  0.9288
  576SOL     OW 1783   3.329   0.748   0.853 -0.0831 -0.6025 -0.5282
  576SOL    HW1 1784   3.286   0.664   0.838  1.9494 -1.9389  0.6078
  576SOL    HW2 1785   3.282   0.786   0.927  0.0378 -1.5607  0.0559
  577SOL     OW 1786   0.304   0.353   1.755 -0.4940 -0.3782  0.5320
  577SOL    HW1 1787   0.295   0.377   1.847 -2.6386  1.5522 -0.0853
  577SOL    HW2 1788   0.248   0.277   1.744 -0.4427 -0.4483  0.7519
  578SOL     OW 1789   3.378   4.696   2.358 -0.1493  0.5235 -0.2484
  578SOL    HW1 1790   3.359   4.780   2.315  0.1539  0.1211 -1.1710
  578SOL    HW2 1791   3.331   4.631   2.306  1.7584 -0.2040 -1.1578
  579SOL     OW 1792   3.388   1.099   1.433  0.0556 -0.4091 -0.3946
  579SOL    HW1 1793   3.431   1.120   1.516 -0.5450  1.1910 -0.4407
  579SOL    HW2 1794   3.343   1.016   1.450  0.4793 -0.4425  0.6761
  580SOL     OW 1795   0.996   2.582   0.089 -0.0585  0.0745  0.4151
  580SOL    HW1 1796   0.935   2.600   0.017 -1.9113 -1.6292  1.4490
  580SOL    HW2 1797   0.953   2.616   0.167  0.6054 -0.5668  1.0861
  581SOL     OW 1798   3.858   2.999   2.755 -0.2731 -0.9027  0.6894
  581SOL    HW1 1799   3.849   2.993   2.850  2.1794  1.8415  1.2282
  581SOL    HW2 1800   3.834   3.089   2.733  0.8415 -0.9588 -1.0177
  582SOL     OW 1801   3.875   4.696   2.181  0.2512 -1.0807  0.4221
  582SOL    HW1 1802   3.788   4.656   2.183  0.6693 -2.0278  0.6623
  582SOL    HW2 1803   3.863   4.785   2.213 -0.7272 -1.0001 -0.1460
  583SOL     OW 1804   3.172   4.776   3.827  0.2822 -0.0114  0.6535
  583SOL    HW1 1805   3.192   4.736   3.912 -1.8224  0.9169  1.6646
  583SOL    HW2 1806   3.206   4.865   3.834  0.3953 -0.0332  0.3896
  584SOL     OW 1807   4.353   3.836   0.325 -0.3202  0.1949 -0.1080
  584SOL    HW1 1808   4.302   3.917   0.322 -2.0358 -0.8599 -2.6135
  584SOL    HW2 1809   4.292   3.770   0.357  0.5835 -0.4310  0.3599
  585SOL     OW 1810   0.847   1.603   3.188  0.6180  0.0280 -0.1360
  585SOL    HW1 1811   0.856   1.689   3.230 -0.6773  0.6755 -1.1189
  585SOL    HW2 1812   0.759   1.574   3.211  1.0503 -1.0804  0.2103
  586SOL     OW 1813   3.832   4.956   3.650 -0.3872 -0.1490  0.0017
  586SOL    HW1 1814   3.850   4.965   3.557 -1.3745 -2.0726 -0.4152
  586SOL    HW2 1815   3.850   4.864   3.670  0.0256  0.2630  1.7791
  587SOL     OW 1816   3.145   4.500   0.802  0.2923  0.2314  0.0642
  587SOL    HW1 1817   3.083   4.505   0.729 -0.3752  0.0049  0.5965
  587SOL    HW2 1818   3.089   4.493   0.879  0.9552 -1.7804  0.4350
  588SOL     OW 1819   1.059   3.444   3.508  0.3082 -0.0179  0.4552
  588SOL    HW1 1820   1.047   3.451   3.603  2.0160  2.8794  0.5995
  588SOL    HW2 1821   1.154   3.448   3.495  0.1464 -1.0450 -1.3721
  589SOL     OW 1822   2.921   4.599   1.779  0.4067  0.0944  0.1447
  589SOL    HW1 1823   2.855   4.577   1.845  0.6405 -0.2680  0.2610
  589SOL    HW2 1824   3.002   4.562   1.813  0.0058 -2.9415 -1.7802
  590SOL     OW 1825   3.304   0.058   3.864 -0.0710 -0.3443  0.2546
  590SOL    HW1 1826   3.399   0.059   3.874  0.1635 -0.7120 -1.6258
  590SOL    HW2 1827   3.271   0.102   3.943  1.6697  0.2408  0.6948
  591SOL     OW 1828   0.290   4.176   2.984  1.3270 -0.7095  0.0872
  591SOL    HW1 1829   0.294   4.184   2.888 -1.3308 -1.7169 -0.2051
  591SOL    HW2 1830   0.258   4.087   2.998 -1.7676  0.5052  1.7088
  592SOL     OW 1831   3.612   2.227   3.276 -0.7097  0.2505 -0.0240
  592SOL    HW1 1832   3.597   2.214   3.182  0.6442 -1.0691 -0.1045
  592SOL    HW2 1833   3.697   2.270   3.281 -0.6902  0.1444  0.6009
  593SOL     OW 1834   4.100   2.237   2.897  0.0890 -0.0875 -0.0846
  593SOL    HW1 1835   4.025   2.272   2.944  0.2444 -0.4712  0.4637
  593SOL    HW2 1836   4.116   2.151   2.937 -1.0535 -1.3715 -2.2209
  594SOL     OW 1837   3.463   3.811   1.487 -0.1482 -0.2144  0.0136
  594SOL    HW1 1838   3.393   3.802   1.551 -0.4237 -0.0054 -0.2616
  594SOL    HW2 1839   3.431   3.874   1.423 -0.4837 -1.5076 -1.1465
  595SOL     OW 1840   2.284   4.958   3.328 -0.3362  0.1168 -0.1877
  595SOL    HW1 1841   2.362   4.934   3.279 -0.4711 -3.5020  1.0903
  595SOL    HW2 1842   2.316   4.993   3.410 -0.1101  1.4197 -0.8139
  596SOL     OW 1843   1.489   4.623   3.812  0.0603 -0.2388 -0.1656
  596SOL    HW1 1844   1.500   4.644   3.904 -3.1024 -0.0511  0.2752
  596SOL    HW2 1845   1.527   4.698   3.765  2.4042 -0.6950  0.8742
  597SOL     OW 1846   3.640   2.688   1.529 -0.1358  0.2461  0.2764
  597SOL    HW1 1847   3.621   2.670   1.621 -0.8103 -0.8356 -0.0558
  597SOL    HW2 1848   3.593   2.769   1.511 -0.3310  0.2497  0.7737
  598SOL     OW 1849   4.661   2.875   4.609 -0.6457 -0.1872 -0.7222
  598SOL    HW1 1850   4.748   2.914   4.621 -0.4354 -0.4805 -1.2177
  598SOL    HW2 1851   4.642   2.890   4.516 -1.5557  0.7268 -0.4014
  599SOL     OW 1852   1.838   1.430   0.886  0.1975  0.5458 -0.2975
  599SOL    HW1 1853   1.800   1.509   0.923 -1.3575 -0.6839  0.9274
  599SOL    HW2 1854   1.783   1.410   0.809 -1.5315 -0.9837  1.2134
  600SOL     OW 1855   1.462   0.630   1.827  0.0880 -0.1403 -0.1657
  600SOL    HW1 1856   1.482   0.670   1.912 -4.9638 -0.8710  1.7405
  600SOL    HW2 1857   1.508   0.546   1.828  0.4570  0.0417  1.6875
  601SOL     OW 1858   1.614   4.285   1.271 -0.3048 -0.6130 -0.3401
  601SOL    HW1 1859   1.530   4.306   1.230 -0.6025 -1.6331 -0.2889
  601SOL    HW2 1860   1.601   4.304   1.364  0.0555  0.7569 -0.5396
  602SOL     OW 1861   2.209   4.505   0.340 -0.3704 -0.3554  0.1457
  602SOL    HW1 1862   2.279   4.523   0.402  0.3934  0.6775 -0.9742
  602SOL    HW2 1863   2.195   4.588   0.294 -2.1017 -0.6319  0.1058
  603SOL     OW 1864   4.920   2.130   2.729  0.3342  0.6972 -0.7560
  603SOL    HW1 1865   4.923   2.201   2.665 -0.6869  1.8813  0.4603
  603SOL    HW2 1866   4.832   2.094   2.721  0.6341 -0.0356 -0.9137
  604SOL     OW 1867   2.150   1.342   2.435  0.2125  0.3526 -0.1267
  604SOL    HW1 1868   2.113   1.312   2.518  0.0704  0.4490 -0.1564
  604SOL    HW2 1869   2.096   1.416   2.410  0.3289  0.3965 -0.2476
  605SOL     OW 1870   4.499   3.291   0.820 -1.2681  0.1278 -0.0164
  605SOL    HW1 1871   4.499   3.204   0.860  1.2296 -0.8696 -1.9481
  605SOL    HW2 1872   4.553   3.344   0.879 -2.6993  0.4130  1.1006
  606SOL     OW 1873   0.801   1.200   4.132 -0.5214  0.4914  0.7096
  606SOL    HW1 1874   0.897   1.195   4.136 -0.5104  0.3996  0.3759
  606SOL    HW2 1875   0.783   1.255   4.056 -0.7646 -1.8828 -1.0652
  607SOL     OW 1876   1.325   0.764   3.052  0.3603  0.2672 -0.0533
  607SOL    HW1 1877   1.255   0.718   3.098 -0.4786  0.3967 -1.1449
  607SOL    HW2 1878   1.339   0.843   3.103 -0.7395  0.5379 -0.1359
  608SOL     OW 1879   3.083   3.554   0.632 -0.0271 -0.3838  0.0153
  608SOL    HW1 1880   3.077   3.566   0.537 -3.2703  1.9919  0.3384
  608SOL    HW2 1881   2.997   3.520   0.657  0.6893 -0.7821  2.1360
  609SOL     OW 1882   2.557   4.425   4.072  0.5703 -0.3611 -0.2020
  609SOL    HW1 1883   2.467   4.395   4.065  0.0495  1.1198 -0.0417
  609SOL    HW2 1884   2.581   4.449   3.982  0.1032  1.1641  0.0609
  610SOL     OW 1885   1.183   4.316   3.379  0.4851  0.1135  0.1887
  610SOL    HW1 1886   1.092   4.301   3.353 -0.5202  3.7927  0.9854
  610SOL    HW2 1887   1.187   4.290   3.471  0.4691 -0.7540 -0.0500
  611SOL     OW 1888   1.478   4.812   3.483 -0.0938 -0.9392  0.6530
  611SOL    HW1 1889   1.558   4.810   3.535  0.0509  0.9088  0.5434
  611SOL    HW2 1890   1.509   4.803   3.392  0.0954  0.6614  0.5398
  612SOL     OW 1891   4.950   1.272   3.248 -0.1492  0.1876 -0.1797
  612SOL    HW1 1892   5.014   1.342   3.231 -0.6563  0.8750  0.6949
  612SOL    HW2 1893   4.995   1.214   3.310 -0.1113  0.2933 -0.1070
  613SOL     OW 1894   3.426   0.408   4.921  0.6695 -0.3192  0.6015
  613SOL    HW1 1895   3.436   0.503   4.925  0.1490 -0.0510 -2.2199
  613SOL    HW2 1896   3.381   0.384   5.003  0.0924  1.9632  1.0073
  614SOL     OW 1897   3.063   4.503   1.976  0.8314  0.3271  0.7275
  614SOL    HW1 1898   3.100   4.430   2.025  1.3528  0.4065  0.4629
  614SOL    HW2 1899   3.037   4.566   2.043  0.1407 -0.2074  0.9699
  615SOL     OW 1900   0.673   4.659   2.726 -0.4332  0.4720  0.3438
  615SOL    HW1 1901   0.767   4.648   2.710 -0.2764  0.1965  1.3727
  615SOL    HW2 1902   0.668   4.722   2.798 -1.0098  0.1505  0.5952
  616SOL     OW 1903   0.821   0.248   4.590 -0.0793 -0.7797 -0.0937
  616SOL    HW1 1904   0.882   0.174   4.581 -2.8271 -3.1910 -0.4668
  616SOL    HW2 1905   0.832   0.276   4.681  2.0412 -0.6516 -0.3484
  617SOL     OW 1906   0.159   1.656   2.434  0.0124 -0.2275 -0.1746
  617SOL    HW1 1907   0.137   1.695   2.519  0.7907  0.2282 -0.1644
  617SOL    HW2 1908   0.161   1.562   2.451  0.7809 -0.1141  0.4903
  618SOL     OW 1909   2.013   0.006   1.192 -0.4556 -0.0069 -0.7466
  618SOL    HW1 1910   2.015   0.030   1.100 -0.8038 -0.9538 -1.0132
  618SOL    HW2 1911   2.047  -0.083   1.194  0.8857  0.4827  0.2184
  619SOL     OW 1912   3.741   1.173   3.678  0.4860 -0.0870 -0.0699
  619SOL    HW1 1913   3.654   1.134   3.669  0.4573  0.1016 -0.7086
  619SOL    HW2 1914   3.770   1.187   3.588  1.6775 -1.2148  0.1132
  620SOL     OW 1915   2.739   0.746   1.977  0.1994 -0.5365 -0.0577
  620SOL    HW1 1916   2.728   0.685   2.050  0.8559  0.7093  1.1062
  620SOL    HW2 1917   2.742   0.689   1.900 -1.8367 -1.7962  0.7066
  621SOL     OW 1918   0.959   4.465   2.818 -0.7021 -0.3736  0.2905
  621SOL    HW1 1919   1.040   4.512   2.839 -0.3531 -0.0709 -1.6104
  621SOL    HW2 1920   0.928   4.505   2.737 -1.4038 -2.1714 -0.3803
  622SOL     OW 1921   0.041   4.420   2.972  0.4931  0.1065  0.0141
  622SOL    HW1 1922   0.063   4.513   2.981  0.4934  0.1306 -0.2244
  622SOL    HW2 1923   0.053   4.384   3.060  1.2495  0.1713 -0.0526
  623SOL     OW 1924   4.134   3.716   2.697  0.1308 -0.7080 -0.2642
  623SOL    HW1 1925   4.215   3.678   2.732  0.2070  0.6511  1.1280
  623SOL    HW2 1926   4.162   3.761   2.617  0.4907 -1.3805 -0.5288
  624SOL     OW 1927   2.042   4.077   0.208 -0.3605  0.8563  0.0758
  624SOL    HW1 1928   1.965   4.097   0.261 -0.7508 -0.1956 -0.0682
  624SOL    HW2 1929   2.012   4.009   0.148  1.1847 -1.0587  1.3638
  625SOL     OW 1930   3.513   2.915   1.447  0.0510 -0.4132 -0.0520
  625SOL    HW1 1931   3.532   2.949   1.359 -2.1863 -2.2318 -1.3697
  625SOL    HW2 1932   3.418   2.899   1.446  0.3317 -2.6488  1.8651
  626SOL     OW 1933   1.942   1.943   4.971  0.9132 -0.0106  0.0494
  626SOL    HW1 1934   1.973   1.870   4.917  0.2329 -0.9711  0.9210
  626SOL    HW2 1935   1.854   1.917   4.997  0.7819  0.9930  0.6275
  627SOL     OW 1936   0.680   0.838   3.393 -0.0498  0.2901  0.3758
  627SOL    HW1 1937   0.667   0.902   3.463 -1.1955  0.0312  0.4054
  627SOL    HW2 1938   0.702   0.757   3.438  2.1282  0.7871  0.3182
  628SOL     OW 1939   2.633   1.826   0.402  0.3118 -0.1264  0.4610
  628SOL    HW1 1940   2.586   1.909   0.409  0.9763  0.1260  3.1226
  628SOL    HW2 1941   2.700   1.842   0.335 -1.5415  0.3782 -1.3850
  629SOL     OW 1942   2.082   0.750   3.142 -0.3904  0.2975 -0.0272
  629SOL    HW1 1943   1.998   0.705   3.151  0.1497 -0.4898  1.5844
  629SOL    HW2 1944   2.101   0.783   3.230  1.7443 -0.9934  0.0893
  630SOL     OW 1945   2.247   4.545   1.714 -0.5759  0.1823 -0.4739
  630SOL    HW1 1946   2.212   4.495   1.788 -0.9272 -2.0593 -2.0415
  630SOL    HW2 1947   2.184   4.531   1.643  2.2839 -2.3845 -2.8205
  631SOL     OW 1948   3.824   1.853   0.234  0.2329  0.1309 -0.1225
  631SOL    HW1 1949   3.791   1.792   0.168 -0.4396 -1.2908  1.4653
  631SOL    HW2 1950   3.750   1.909   0.254 -1.2157 -2.5215  2.8235
  632SOL     OW 1951   0.548   1.007   1.525  0.2836 -0.1204  0.2511
  632SOL    HW1 1952   0.603   0.936   1.558  1.2388  0.5108  0.0576
  632SOL    HW2 1953   0.459   0.973   1.531  0.6113 -0.8557  1.3701
  633SOL     OW 1954   1.515   3.699   2.485  0.5720 -0.0855  0.1273
  633SOL    HW1 1955   1.439   3.704   2.427 -0.3319 -0.1156  1.2832
  633SOL    HW2 1956   1.506   3.615   2.530  1.7727 -0.4903 -0.3448
  634SOL     OW 1957   2.905   0.850   4.857 -0.1018 -0.2213 -0.3062
  634SOL    HW1 1958   2.852   0.901   4.795  0.9398  0.6496 -0.5218
  634SOL    HW2 1959   2.992   0.892   4.854  0.1531 -0.5857  1.2444
  635SOL     OW 1960   2.582   4.127   3.873 -0.5445 -0.7474  0.5235
  635SOL    HW1 1961   2.623   4.148   3.789 -0.8977  0.8720  0.7094
  635SOL    HW2 1962   2.507   4.187   3.879 -0.4912 -0.7738  2.0219
  636SOL     OW 1963   0.610   1.515   3.284 -0.6293  0.5966 -0.0441
  636SOL    HW1 1964   0.561   1.434   3.297 -2.9305  1.4796 -2.1994
  636SOL    HW2 1965   0.611   1.557   3.370  0.7155 -1.6858  1.1396
  637SOL     OW 1966   1.654   2.126   0.526  0.3139 -0.6313  0.5419
  637SOL    HW1 1967   1.625   2.036   0.509  3.1975 -1.8773  1.5915
  637SOL    HW2 1968   1.603   2.154   0.602 -0.9753 -1.1528 -0.1000
  638SOL     OW 1969   0.008   0.557   1.583  0.2434  0.3884  0.5396
  638SOL    HW1 1970   0.086   0.584   1.632  0.2193  2.9039 -0.6625
  638SOL    HW2 1971   0.029   0.578   1.492 -1.5384  0.3187  0.0844
  639SOL     OW 1972   1.059   1.858   0.536 -0.0984 -0.6034  0.4264
  639SOL    HW1 1973   0.989   1.805   0.573  0.6630 -1.3163  0.8669
  639SOL    HW2 1974   1.033   1.871   0.445 -0.4279 -1.4832  0.3901
  640SOL     OW 1975   2.225   1.669   2.268 -0.3880  0.0812 -0.7517
  640SOL    HW1 1976   2.150   1.610   2.279  0.6660 -1.3909 -1.2361
  640SOL    HW2 1977   2.219   1.728   2.343 -2.5400  0.6026 -1.2535
  641SOL     OW 1978   3.678   0.274   1.744 -0.0387  0.1204 -0.6601
  641SOL    HW1 1979   3.589   0.307   1.756  0.5513  1.1540  1.3458
  641SOL    HW2 1980   3.701   0.296   1.654 -2.2165 -1.3049 -1.6454
  642SOL     OW 1981   2.122   4.614   2.597 -0.3252  0.2284 -0.0496
  642SOL    HW1 1982   2.166   4.598   2.681  0.7487 -1.6752 -0.9071
  642SOL    HW2 1983   2.153   4.701   2.570 -0.1091  0.5483  1.1628
  643SOL     OW 1984   4.532   3.028   2.274 -0.3862  0.4213 -0.3740
  643SOL    HW1 1985   4.528   3.043   2.180 -3.6329 -1.9777 -0.8116
  643SOL    HW2 1986   4.615   2.982   2.288 -0.6355 -0.7547 -2.4113
  644SOL     OW 1987   0.565   2.472   2.134 -0.4412  0.4580 -0.4356
  644SOL    HW1 1988   0.482   2.481   2.087 -0.6357 -0.2527 -0.2449
  644SOL    HW2 1989   0.623   2.537   2.094 -0.3157 -0.7448 -2.3113
  645SOL     OW 1990   0.862   0.257   0.559  0.6606 -0.0920 -0.6544
  645SOL    HW1 1991   0.930   0.240   0.625  0.6205 -0.7505 -0.7765
  645SOL    HW2 1992   0.905   0.239   0.476  0.7000  0.7086 -0.8067
  646SOL     OW 1993   4.086   2.217   2.624 -0.3844  0.3786 -0.2995
  646SOL    HW1 1994   4.096   2.232   2.718 -1.8319  1.9084 -0.3434
  646SOL    HW2 1995   4.058   2.301   2.589  1.3748  0.1858 -2.3319
  647SOL     OW 1996   0.948   0.805   1.238  0.5504  0.2205 -0.1130
  647SOL    HW1 1997   0.983   0.864   1.172  2.4020  0.5440  1.0870
  647SOL    HW2 1998   0.895   0.862   1.294  1.2881  0.5226  0.2953
  648SOL     OW 1999   2.371   1.171   0.518  0.0343 -0.5920 -0.1476
  648SOL    HW1 2000   2.422   1.091   0.514 -1.0903 -1.2965 -1.0510
  648SOL    HW2 2001   2.410   1.221   0.590  0.4540 -2.1390  0.7478
  649SOL     OW 2002   3.732   4.665   3.984  0.4989 -0.0055 -0.2014
  649SOL    HW1 2003   3.804   4.702   3.932  0.9889  0.2586  0.6487
  649SOL    HW2 2004   3.687   4.742   4.020 -0.2770 -0.1661 -0.7997
  650SOL     OW 2005   1.298   2.999   2.923 -0.2128  0.6370  0.2247
  650SOL    HW1 2006   1.317   2.940   2.996 -1.3753 -0.1103 -0.0532
  650SOL    HW2 2007   1.203   2.992   2.911 -0.1670  1.5003 -0.7316
  651SOL     OW 2008   1.791   3.605   4.338 -0.4440  0.4119  0.0257
  651SOL    HW1 2009   1.865   3.581   4.282  0.3996 -1.5042  1.8581
  651SOL    HW2 2010   1.796   3.701   4.342  0.8775  0.4469 -1.2833
  652SOL     OW 2011   2.202   4.768   0.528 -0.4268  0.5671 -0.1917
  652SOL    HW1 2012   2.187   4.754   0.435 -0.5274 -2.7401  0.2223
  652SOL    HW2 2013   2.297   4.773   0.537 -0.3491 -0.5524 -0.3290
  653SOL     OW 2014   4.045   3.496   4.090  0.3218 -0.5042  0.1498
  653SOL    HW1 2015   4.055   3.470   3.998 -0.2232  1.4486 -0.5135
  653SOL    HW2 2016   3.966   3.451   4.120 -0.4148  0.0885 -0.8488
  654SOL     OW 2017   4.830   4.773   0.335 -0.1655 -0.2041  0.4229
  654SOL    HW1 2018   4.850   4.684   0.305 -0.3103 -0.2847  0.5649
  654SOL    HW2 2019   4.735   4.773   0.347 -0.5389  0.6855 -1.9657
  655SOL     OW 2020   2.682   4.786   1.390 -0.2012  0.0664  1.0099
  655SOL    HW1 2021   2.626   4.715   1.361  1.1161 -0.4002 -0.5457
  655SOL    HW2 2022   2.757   4.743   1.432  0.6952  0.4709 -0.1008
  656SOL     OW 2023   1.565   4.427   1.860  0.0099 -0.4289 -0.3997
  656SOL    HW1 2024   1.555   4.411   1.953 -1.2193 -2.1396 -0.7822
  656SOL    HW2 2025   1.637   4.370   1.833 -0.0933 -0.4563 -0.6213
  657SOL     OW 2026   4.955   1.194   2.577 -0.0101  0.5624 -0.3456
  657SOL    HW1 2027   5.042   1.227   2.601  0.0049  0.2877 -0.0144
  657SOL    HW2 2028   4.898   1.220   2.650  0.1504 -0.7699  0.3025
  658SOL     OW 2029   1.331   1.923   0.971 -0.1514  0.2453 -0.1650
  658SOL    HW1 2030   1.367   1.842   0.935  0.2697 -1.0226  2.8138
  658SOL    HW2 2031   1.276   1.958   0.901 -0.1986 -2.5210 -1.6503
  659SOL     OW 2032   4.928   2.240   4.457  0.3396  0.1065  0.0834
  659SOL    HW1 2033   5.006   2.243   4.513 -0.2496 -0.7888  0.9774
  659SOL    HW2 2034   4.951   2.294   4.382  1.2474  1.1513  1.0679
  660SOL     OW 2035   3.572   4.871   4.054  0.7376 -0.0485  0.5964
  660SOL    HW1 2036   3.500   4.911   4.104 -0.7116 -0.0889 -1.3445
  660SOL    HW2 2037   3.571   4.916   3.970  3.1681  0.0751  0.5558
  661SOL     OW 2038   4.603   2.626   0.530 -0.3091 -0.3164  0.1820
  661SOL    HW1 2039   4.578   2.712   0.562 -0.7150 -1.1624  2.2790
  661SOL    HW2 2040   4.524   2.573   0.539  0.5684 -1.5184  1.2615
  662SOL     OW 2041   1.275   0.842   0.943 -0.3184 -0.2988  0.6905
  662SOL    HW1 2042   1.302   0.808   1.028  0.3859 -0.7211  0.3130
  662SOL    HW2 2043   1.231   0.769   0.900 -2.7728  0.5867  1.5683
  663SOL     OW 2044   2.751   1.627   3.893  0.2073 -0.5105 -0.4281
  663SOL    HW1 2045   2.681   1.679   3.933  0.3421 -0.1296 -0.6805
  663SOL    HW2 2046   2.706   1.554   3.851 -0.2988  0.9603 -2.6055
  664SOL     OW 2047   0.119   4.389   1.696  0.4311 -0.3481  0.3501
  664SOL    HW1 2048   0.095   4.482   1.705 -1.2688 -0.6206 -0.8457
  664SOL    HW2 2049   0.035   4.343   1.701  1.1487 -1.7458 -0.1335
  665SOL     OW 2050   0.276   4.309   1.324 -0.1271 -0.1976  0.1221
  665SOL    HW1 2051   0.240   4.235   1.276 -0.3478  0.0608 -0.1232
  665SOL    HW2 2052   0.258   4.290   1.416  1.6736 -1.4315  0.2457
  666SOL     OW 2053   0.234   1.755   1.969 -0.5370 -0.4072 -0.1576
  666SOL    HW1 2054   0.301   1.818   1.993 -0.9293 -0.4923  1.2934
  666SOL    HW2 2055   0.243   1.685   2.034 -0.4786 -1.5862 -1.3885
  667SOL     OW 2056   1.188   4.159   4.465 -0.3356  0.0349 -0.1570
  667SOL    HW1 2057   1.175   4.163   4.370  1.4685  0.8163 -0.4173
  667SOL    HW2 2058   1.243   4.082   4.478  0.1036  0.3914  0.1432
  668SOL     OW 2059   2.141   0.838   4.037  0.0336  0.5719  0.2491
  668SOL    HW1 2060   2.196   0.861   3.962 -1.1327 -0.3859 -0.9661
  668SOL    HW2 2061   2.061   0.889   4.024  0.6938  2.2746  2.2151
  669SOL     OW 2062   2.112   4.614   1.023  0.9119  0.2401  0.2291
  669SOL    HW1 2063   2.052   4.658   0.963  0.8296  0.0616  0.1785
  669SOL    HW2 2064   2.111   4.668   1.102  0.7011  0.2514  0.2201
  670SOL     OW 2065   2.648   1.491   0.821 -0.1182  0.1591  0.1642
  670SOL    HW1 2066   2.686   1.438   0.750 -0.6617  0.2172 -0.1800
  670SOL    HW2 2067   2.676   1.581   0.802 -1.5371  0.4298 -0.8983
  671SOL     OW 2068   3.081   3.757   4.244  0.0747 -0.1141 -0.4360
  671SOL    HW1 2069   3.031   3.748   4.163 -0.0898 -1.2824 -0.2267
  671SOL    HW2 2070   3.081   3.669   4.282  0.0699  0.4322  0.8813
  672SOL     OW 2071   0.097   0.990   0.310  0.2980 -0.4803 -0.3094
  672SOL    HW1 2072   0.057   1.007   0.225 -0.1017  1.1206  0.1610
  672SOL    HW2 2073   0.039   0.926   0.351  1.3636 -2.5261 -1.8173
  673SOL     OW 2074   1.449   2.583   2.116 -0.3654 -0.0768  0.3521
  673SOL    HW1 2075   1.515   2.564   2.183 -0.4096  0.3834  0.5351
  673SOL    HW2 2076   1.497   2.632   2.049 -0.8400  1.7066  1.2533
  674SOL     OW 2077   4.725   2.330   3.128 -0.1456  0.2398  0.8537
  674SOL    HW1 2078   4.718   2.266   3.198 -1.4127 -1.3523 -0.6193
  674SOL    HW2 2079   4.730   2.278   3.048 -2.2727  1.9167 -0.5225
  675SOL     OW 2080   1.580   0.698   0.592  0.4237  0.3258 -0.3565
  675SOL    HW1 2081   1.570   0.754   0.668  0.4423 -0.6992  0.4191
  675SOL    HW2 2082   1.655   0.642   0.613 -0.1563 -0.6066 -0.7196
  676SOL     OW 2083   1.419   3.544   0.474 -0.2670 -0.3628  0.2880
  676SOL    HW1 2084   1.377   3.615   0.521 -0.0540 -0.3366  0.4357
  676SOL    HW2 2085   1.348   3.505   0.422 -0.7461 -1.0585  1.4215
  677SOL     OW 2086   1.698   2.570   0.237 -0.3197 -0.3217 -0.3479
  677SOL    HW1 2087   1.781   2.556   0.192 -1.2867 -0.0984 -2.3245
  677SOL    HW2 2088   1.666   2.483   0.258 -0.2966 -0.4874 -0.9850
  678SOL     OW 2089   3.433   4.926   1.845 -0.6631 -0.2952 -0.2744
  678SOL    HW1 2090   3.360   4.911   1.784 -1.0816  0.1756  0.0992
  678SOL    HW2 2091   3.391   4.957   1.925 -0.3292 -2.8226  0.9942
  679SOL     OW 2092   4.117   2.787   3.087 -0.3507  0.7689 -0.1959
  679SOL    HW1 2093   4.073   2.779   3.171  0.0468 -1.0857 -0.1183
  679SOL    HW2 2094   4.204   2.748   3.101 -0.0591  0.9775 -1.2985
  680SOL     OW 2095   1.943   2.964   4.122 -0.5701 -0.0641 -0.4775
  680SOL    HW1 2096   1.872   2.992   4.064  0.1147 -1.3598 -1.9869
  680SOL    HW2 2097   1.909   2.887   4.166 -0.4440 -0.1143 -0.4684
  681SOL     OW 2098   2.479   0.304   3.434 -0.0580 -0.0980 -0.2243
  681SOL    HW1 2099   2.481   0.243   3.508  1.1863 -0.1064 -0.2425
  681SOL    HW2 2100   2.520   0.384   3.468 -0.5707  0.3199 -0.5644
  682SOL     OW 2101   2.093   0.608   3.832  0.6556 -0.0756  0.2956
  682SOL    HW1 2102   2.139   0.651   3.904 -0.1306  0.4990  0.4653
  682SOL    HW2 2103   2.134   0.522   3.825  2.4850  0.7816 -0.2636
  683SOL     OW 2104   4.870   2.036   1.008 -0.3077  0.2612  0.4999
  683SOL    HW1 2105   4.880   1.942   0.992 -0.3980  0.3842 -0.3571
  683SOL    HW2 2106   4.822   2.067   0.931 -2.3031  0.6204  1.8240
  684SOL     OW 2107   0.170   3.404   1.648 -0.1154 -0.1596 -0.2825
  684SOL    HW1 2108   0.094   3.394   1.704  0.5658 -0.3248  0.6407
  684SOL    HW2 2109   0.198   3.494   1.660  0.7566 -0.5305  0.6230
  685SOL     OW 2110   1.128   1.347   4.631  0.0090  0.0684 -0.2938
  685SOL    HW1 2111   1.089   1.423   4.675 -0.2934 -0.1568 -0.1663
  685SOL    HW2 2112   1.135   1.281   4.700  3.8295  1.1616  0.6403
  686SOL     OW 2113   1.196   0.063   3.809  0.2347 -0.4421  0.0255
  686SOL    HW1 2114   1.123   0.009   3.839  0.0343  0.6204  1.5896
  686SOL    HW2 2115   1.223   0.024   3.726 -4.1794  0.9113 -2.4015
  687SOL     OW 2116   3.215   1.263   1.300 -0.0210 -0.0925 -0.5644
  687SOL    HW1 2117   3.268   1.268   1.220  0.5317  0.0775 -0.1943
  687SOL    HW2 2118   3.264   1.203   1.357 -1.0770 -1.2555 -0.8451
  688SOL     OW 2119   2.528   4.160   4.563  0.0084 -0.0215  0.3865
  688SOL    HW1 2120   2.587   4.227   4.596  0.5429 -0.6045  0.6261
  688SOL    HW2 2121   2.524   4.177   4.468 -0.0494  0.4895  0.4759
  689SOL     OW 2122   1.822   4.625   1.618  0.8118 -0.1671  0.1836
  689SOL    HW1 2123   1.813   4.532   1.597  3.2653 -0.2441 -0.9346
  689SOL    HW2 2124   1.834   4.627   1.713 -0.5418 -0.8401  0.3853
  690SOL     OW 2125   4.477   0.375   2.931  0.0042 -0.8492 -0.1933
  690SOL    HW1 2126   4.463   0.401   2.839  2.2328  0.1864 -0.3061
  690SOL    HW2 2127   4.422   0.435   2.981 -1.2591 -1.4454 -0.8266
  691SOL     OW 2128   2.548   4.027   3.498 -0.0723 -0.8271  0.3744
  691SOL    HW1 2129   2.603   4.078   3.557  1.0623 -0.9239 -0.5766
  691SOL    HW2 2130   2.459   4.039   3.532  0.5996 -1.3749  2.4622
  692SOL     OW 2131   0.040   2.989   2.237  0.0976 -0.1147 -0.2048
  692SOL    HW1 2132   0.095   3.050   2.286 -1.7488  0.0815  1.7819
  692SOL    HW2 2133   0.068   2.903   2.266  1.2209 -0.1589 -1.3494
  693SOL     OW 2134   0.343   3.501   0.146  0.3412  0.2427  0.0722
  693SOL    HW1 2135   0.310   3.579   0.100 -0.4654  0.6484  1.2950
  693SOL    HW2 2136   0.372   3.443   0.076 -0.9754  0.7842 -0.9582
  694SOL     OW 2137   0.493   2.238   3.920  0.1469  0.1516  0.4469
  694SOL    HW1 2138   0.518   2.326   3.892  0.2635 -0.0585 -0.1114
  694SOL    HW2 2139   0.533   2.228   4.007  0.4146  0.5209  0.3644
  695SOL     OW 2140   0.608   0.491   0.765  0.0102 -0.6038  0.3685
  695SOL    HW1 2141   0.594   0.570   0.817 -1.0003 -0.3168 -0.3173
  695SOL    HW2 2142   0.581   0.419   0.822 -1.6140 -0.2549  0.0980
  696SOL     OW 2143   4.137   3.484   3.217  0.0239  0.2644 -0.3489
  696SOL    HW1 2144   4.187   3.564   3.200 -0.0642  0.1128 -1.4284
  696SOL    HW2 2145   4.060   3.514   3.266  0.4773  0.6919  0.1162
  697SOL     OW 2146   0.970   0.331   2.769 -0.1946  0.5803  0.3234
  697SOL    HW1 2147   0.888   0.363   2.733 -0.9277 -2.6981 -1.2577
  697SOL    HW2 2148   0.944   0.274   2.841  0.5646 -1.2890 -0.8303
  698SOL     OW 2149   2.336   0.065   0.654  0.2128  0.3152  0.2311
  698SOL    HW1 2150   2.282   0.017   0.590  1.4545 -0.8629  0.0186
  698SOL    HW2 2151   2.291   0.149   0.665 -0.2764  0.3866 -1.8823
  699SOL     OW 2152   3.250   4.079   2.684 -0.0982 -0.3470 -0.3090
  699SOL    HW1 2153   3.334   4.120   2.666 -1.2073  1.4247 -1.8620
  699SOL    HW2 2154   3.230   4.028   2.605 -1.0246  0.2855 -0.5052
  700SOL     OW 2155   1.973   4.390   0.735  0.3216 -0.7120 -0.0114
  700SOL    HW1 2156   2.003   4.354   0.651  0.3009 -2.6965  0.8049
  700SOL    HW2 2157   2.023   4.472   0.744 -1.9442  1.3250 -3.4253
  701SOL     OW 2158   1.964   3.237   3.018 -0.2518 -0.1738 -0.2876
  701SOL    HW1 2159   2.058   3.226   3.032 -0.1874 -0.4866 -0.9345
  701SOL    HW2 2160   1.949   3.205   2.930 -1.1364 -1.0841  0.1715
  702SOL     OW 2161   3.765   4.029   0.582  0.4443 -0.3410  0.1778
  702SOL    HW1 2162   3.749   4.023   0.676 -0.0199  1.3572  0.2359
  702SOL    HW2 2163   3.683   4.003   0.542 -0.1984  1.3303  0.3270
  703SOL     OW 2164   4.028   1.673   3.883  0.0583 -0.1212 -0.1683
  703SOL    HW1 2165   4.092   1.740   3.861 -0.5282  0.4176 -0.2543
  703SOL    HW2 2166   3.988   1.651   3.799  1.5057 -1.9253 -0.4607
  704SOL     OW 2167   2.408   3.477   1.613 -0.5862  0.3860 -0.4047
  704SOL    HW1 2168   2.502   3.463   1.618 -0.7283 -1.7458 -2.0807
  704SOL    HW2 2169   2.381   3.489   1.704  1.2406  0.6821  0.1381
  705SOL     OW 2170   1.535   4.498   2.443  0.3223 -0.5406 -0.2086
  705SOL    HW1 2171   1.589   4.502   2.522  0.3070  0.4428 -0.2333
  705SOL    HW2 2172   1.566   4.421   2.396  2.3252  0.4805 -0.6719
  706SOL     OW 2173   4.616   4.459   0.122 -0.2802  0.3423  0.0189
  706SOL    HW1 2174   4.536   4.512   0.116 -0.2509  0.6966  1.9972
  706SOL    HW2 2175   4.587   4.377   0.163  0.1525 -0.0659 -0.4848
  707SOL     OW 2176   4.798   3.484   2.721 -0.1454  0.4891  0.4810
  707SOL    HW1 2177   4.753   3.415   2.770 -0.2053  1.0870  1.2866
  707SOL    HW2 2178   4.728   3.535   2.681 -0.1586  0.8273  0.9233
  708SOL     OW 2179   3.802   1.083   0.522  0.0456  0.5969 -0.2778
  708SOL    HW1 2180   3.736   1.080   0.453 -0.1094  0.9154 -0.1472
  708SOL    HW2 2181   3.777   1.158   0.576 -0.8255 -0.6281  1.1084
  709SOL     OW 2182   0.548   3.605   0.314  0.4645 -0.3967  0.1361
  709SOL    HW1 2183   0.518   3.555   0.238  2.0801 -0.0839 -0.7439
  709SOL    HW2 2184   0.472   3.606   0.373 -1.2399  0.3566 -1.9496
  710SOL     OW 2185   4.401   0.702   1.001  0.1327 -0.1035  0.0135
  710SOL    HW1 2186   4.423   0.617   1.039 -1.8706 -0.1839  1.1341
  710SOL    HW2 2187   4.306   0.707   1.008  0.2635  2.6078  0.7355
  711SOL     OW 2188   2.841   0.459   4.750  1.0126  0.5917 -0.3063
  711SOL    HW1 2189   2.822   0.442   4.843  2.1404  1.2207  0.0575
  711SOL    HW2 2190   2.770   0.516   4.721  0.8123  0.6400  0.2564
  712SOL     OW 2191   2.803   3.895   0.813  0.6801  0.1139  0.4095
  712SOL    HW1 2192   2.853   3.823   0.851 -0.4804  0.2858  2.4160
  712SOL    HW2 2193   2.714   3.861   0.803 -0.2888  1.6025  2.8535
  713SOL     OW 2194   1.225   2.295   2.384 -0.0105  0.4193 -0.0648
  713SOL    HW1 2195   1.153   2.320   2.326 -2.1487 -0.1702  2.1474
  713SOL    HW2 2196   1.252   2.377   2.426  0.2491  0.5677 -0.5229
  714SOL     OW 2197   4.876   4.983   4.065  0.0855  0.0096 -0.6129
  714SOL    HW1 2198   4.878   5.039   4.142  1.6323  0.3374 -0.8741
  714SOL    HW2 2199   4.911   4.899   4.095 -0.8876 -0.4005 -0.5740
  715SOL     OW 2200   1.922   1.773   1.056  0.0916  0.4070  0.2918
  715SOL    HW1 2201   1.918   1.805   0.966  0.4002  0.4570  0.2922
  715SOL    HW2 2202   1.836   1.736   1.073  0.2219 -0.1457 -0.2230
  716SOL     OW 2203   2.388   1.441   4.058  0.0011 -0.3932  0.1750
  716SOL    HW1 2204   2.294   1.455   4.061  0.0722  0.3087  3.3159
  716SOL    HW2 2205   2.419   1.498   3.988 -1.7181  0.9922  0.4615
  717SOL     OW 2206   2.609   0.995   0.805  0.6682 -0.5532  0.1522
  717SOL    HW1 2207   2.522   1.004   0.844 -0.5110  0.0255 -2.3717
  717SOL    HW2 2208   2.596   0.938   0.730  1.9967  1.1491 -1.4885
  718SOL     OW 2209   0.208   2.263   3.382 -0.1936 -0.5483 -0.0412
  718SOL    HW1 2210   0.143   2.316   3.335  2.0341  1.0409 -1.5177
  718SOL    HW2 2211   0.246   2.323   3.447  0.6903 -1.0450 -0.0864
  719SOL     OW 2212   0.881   2.342   3.988 -0.3265 -0.0741 -0.3592
  719SOL    HW1 2213   0.811   2.379   3.935 -1.3091 -1.8125 -0.3534
  719SOL    HW2 2214   0.847   2.257   4.015  1.2718 -0.3875  0.7623
  720SOL     OW 2215   3.468   1.046   2.757  0.4620 -0.1614  0.0636
  720SOL    HW1 2216   3.485   0.984   2.827  2.0351  0.0406 -0.0953
  720SOL    HW2 2217   3.553   1.086   2.739  0.0470  0.0253 -1.7422
  721SOL     OW 2218   0.666   0.437   3.306 -0.0946 -0.5585 -0.0008
  721SOL    HW1 2219   0.665   0.343   3.289  1.1796 -0.5691 -0.1021
  721SOL    HW2 2220   0.739   0.450   3.367 -0.8773  0.2430  0.8151
  722SOL     OW 2221   2.894   1.139   1.858 -0.2284 -0.0243  0.5633
  722SOL    HW1 2222   2.864   1.218   1.813 -0.5708 -0.7307 -0.4769
  722SOL    HW2 2223   2.945   1.092   1.792  0.2116 -0.5413  1.2575
  723SOL     OW 2224   2.704   3.385   2.981 -0.1100  0.2263 -0.1302
  723SOL    HW1 2225   2.757   3.407   2.904  0.1299 -2.6912 -0.9202
  723SOL    HW2 2226   2.769   3.367   3.050 -0.3212  3.7973  1.2374
  724SOL     OW 2227   4.476   1.395   4.586 -0.2675  0.3764 -0.1059
  724SOL    HW1 2228   4.387   1.419   4.560 -0.8303  1.9991  2.8890
  724SOL    HW2 2229   4.476   1.404   4.681  3.3920  1.4196 -0.0796
  725SOL     OW 2230   2.374   3.456   1.891  0.3134 -0.6395  0.2842
  725SOL    HW1 2231   2.296   3.413   1.927 -0.5857  1.3556  0.8511
  725SOL    HW2 2232   2.444   3.435   1.953 -0.4015 -0.2357  1.2533
  726SOL     OW 2233   0.686   2.448   3.844  0.0060  0.4609  0.3687
  726SOL    HW1 2234   0.619   2.512   3.821  0.9158  0.8783 -1.2123
  726SOL    HW2 2235   0.765   2.479   3.801  0.6563 -1.3017  0.2235
  727SOL     OW 2236   0.206   2.276   1.034 -0.3144 -0.3901 -0.5697
  727SOL    HW1 2237   0.138   2.310   0.976 -0.0632  0.1183 -0.5712
  727SOL    HW2 2238   0.278   2.253   0.976 -0.9982 -2.2941 -0.7339
  728SOL     OW 2239   3.768   0.457   2.686  0.4297 -0.3528  0.3113
  728SOL    HW1 2240   3.796   0.436   2.775  0.8148  0.6699  0.4407
  728SOL    HW2 2241   3.843   0.501   2.647  0.5385 -1.4610 -0.7833
  729SOL     OW 2242   1.339   2.914   1.400 -0.2793  0.4492  0.0838
  729SOL    HW1 2243   1.390   2.967   1.339  2.1305 -1.5177  0.2066
  729SOL    HW2 2244   1.255   2.901   1.357 -0.1536  2.5159 -0.8874
  730SOL     OW 2245   2.037   2.418   4.703 -0.3840 -0.0953  0.5362
  730SOL    HW1 2246   1.959   2.448   4.657  0.2768  0.1068 -0.5118
  730SOL    HW2 2247   2.019   2.433   4.796 -2.2855 -1.7338  0.4830
  731SOL     OW 2248   3.634   0.093   4.328  0.0376 -0.5328 -0.1958
  731SOL    HW1 2249   3.584   0.011   4.319  0.7588 -0.9883 -0.1266
  731SOL    HW2 2250   3.627   0.115   4.421  0.2678 -0.7878 -0.1185
  732SOL     OW 2251   1.205   0.848   4.384 -0.4141  0.2580  0.0899
  732SOL    HW1 2252   1.120   0.858   4.341 -1.5621 -2.1534  1.5238
  732SOL    HW2 2253   1.261   0.914   4.344 -2.9301  1.8881 -0.9785
  733SOL     OW 2254   3.257   4.803   1.500  0.8420  0.5065  0.0216
  733SOL    HW1 2255   3.230   4.711   1.503  2.6024 -0.1356 -1.5588
  733SOL    HW2 2256   3.351   4.801   1.517  0.8860  2.0345  0.1062
  734SOL     OW 2257   2.669   1.862   3.359  0.8718  0.2125 -0.8382
  734SOL    HW1 2258   2.608   1.803   3.403  1.3585 -0.7186 -1.3824
  734SOL    HW2 2259   2.655   1.946   3.402 -0.5692 -0.0406 -0.7353
  735SOL     OW 2260   1.862   4.946   4.267 -0.0777 -0.6304  0.1337
  735SOL    HW1 2261   1.950   4.964   4.301  0.0467 -0.2168 -0.4068
  735SOL    HW2 2262   1.869   4.859   4.227  0.2578 -0.3158 -0.4977
  736SOL     OW 2263   4.470   2.717   4.082  0.0437  0.0031 -0.1921
  736SOL    HW1 2264   4.475   2.741   3.990 -2.0300 -2.2718 -1.0025
  736SOL    HW2 2265   4.381   2.739   4.108  0.0288 -1.0382  0.7201
  737SOL     OW 2266   3.204   2.988   3.471 -0.3394  0.1138  0.6593
  737SOL    HW1 2267   3.211   2.923   3.401 -3.1133  0.6199 -0.2165
  737SOL    HW2 2268   3.284   2.976   3.523  0.6546 -1.9280 -1.1786
  738SOL     OW 2269   2.581   1.508   4.539 -0.7762  0.3379  0.4948
  738SOL    HW1 2270   2.676   1.519   4.543 -0.5903 -1.1132  0.5160
  738SOL    HW2 2271   2.548   1.565   4.609 -0.0271  1.7174 -0.2387
  739SOL     OW 2272   3.129   4.648   3.350 -0.0404 -0.4695 -0.4437
  739SOL    HW1 2273   3.196   4.681   3.290  0.7316 -2.2137 -0.6071
  739SOL    HW2 2274   3.070   4.722   3.363 -0.3575 -0.0320 -3.4962
  740SOL     OW 2275   3.146   1.749   3.964  0.6648 -0.2500 -0.3932
  740SOL    HW1 2276   3.103   1.758   3.878 -2.3455 -0.4729  0.9692
  740SOL    HW2 2277   3.096   1.807   4.021  2.9159  0.2539  1.1665
  741SOL     OW 2278   0.281   0.883   1.552 -0.4597  0.5424 -0.2838
  741SOL    HW1 2279   0.302   0.795   1.521 -1.4008  0.1359  0.1858
  741SOL    HW2 2280   0.229   0.921   1.481 -0.1269  0.6939 -0.4491
  742SOL     OW 2281   4.236   1.713   3.693  0.0546 -0.6526  0.5442
  742SOL    HW1 2282   4.212   1.624   3.667 -0.7033 -0.9317  2.0600
  742SOL    HW2 2283   4.323   1.704   3.732  0.8488 -0.3637 -1.0762
  743SOL     OW 2284   2.838   2.829   1.736 -0.0477  0.0504  0.2387
  743SOL    HW1 2285   2.863   2.911   1.694 -1.3360  0.7964  0.8668
  743SOL    HW2 2286   2.850   2.845   1.829  1.5789 -1.1672  0.2726
  744SOL     OW 2287   4.279   0.937   3.889  0.3484 -0.4397 -0.1645
  744SOL    HW1 2288   4.302   1.015   3.939 -0.3509 -0.2442 -0.1412
  744SOL    HW2 2289   4.345   0.932   3.819  1.3099 -0.6891  0.7329
  745SOL     OW 2290   3.622   2.070   1.349  0.5654 -0.0219  0.4526
  745SOL    HW1 2291   3.552   2.096   1.409  0.3082  0.4139 -0.0278
  745SOL    HW2 2292   3.702   2.078   1.400  0.4463  1.2223  0.4853
  746SOL     OW 2293   1.356   3.624   4.606  0.4423 -0.4464  0.7876
  746SOL    HW1 2294   1.431   3.677   4.578  1.7937 -2.0455  1.2441
  746SOL    HW2 2295   1.340   3.650   4.697 -0.0914  0.4426  0.4583
  747SOL     OW 2296   4.352   1.501   2.666 -0.4166  0.4969 -0.4487
  747SOL    HW1 2297   4.277   1.441   2.666  0.1670 -0.4428  3.1148
  747SOL    HW2 2298   4.313   1.587   2.650 -2.0654 -0.1439 -0.1291
  748SOL     OW 2299   4.697   0.443   0.868 -0.3771  0.8723  0.0181
  748SOL    HW1 2300   4.722   0.365   0.917  0.6555  0.3513 -1.2735
  748SOL    HW2 2301   4.608   0.461   0.896 -0.1711  0.0122  1.3190
  749SOL     OW 2302   4.614   1.142   1.417  0.4382  0.1480  0.5293
  749SOL    HW1 2303   4.626   1.208   1.485  1.8909 -2.4996  3.0264
  749SOL    HW2 2304   4.702   1.109   1.400  0.2613  1.0900 -3.2503
  750SOL     OW 2305   2.977   4.446   3.679 -0.4101  0.2625 -0.3568
  750SOL    HW1 2306   3.072   4.458   3.683 -0.3784  0.1259 -0.7317
  750SOL    HW2 2307   2.960   4.416   3.590 -0.4374 -2.9480  0.5913
  751SOL     OW 2308   2.726   4.207   2.453 -0.1357  0.1453  0.4353
  751SOL    HW1 2309   2.791   4.234   2.519  0.3778 -1.4114  0.6118
  751SOL    HW2 2310   2.766   4.131   2.411 -1.8627 -0.8543  0.5437
  752SOL     OW 2311   1.083   2.882   1.230 -0.1204  0.2522 -0.2825
  752SOL    HW1 2312   1.101   2.861   1.138 -2.0519  0.0418 -0.6617
  752SOL    HW2 2313   0.988   2.892   1.234 -0.0265  0.7988  1.6000
  753SOL     OW 2314   1.384   3.062   1.194  1.0028 -0.2359 -0.5141
  753SOL    HW1 2315   1.339   3.052   1.110 -1.8095 -2.2269  1.0536
  753SOL    HW2 2316   1.411   3.154   1.196 -1.3928  0.6284 -2.4378
  754SOL     OW 2317   0.088   2.906   0.805 -0.1839  0.1763 -0.2237
  754SOL    HW1 2318   0.097   2.817   0.839  0.6027  0.6520  0.8497
  754SOL    HW2 2319  -0.007   2.919   0.799 -0.4243  0.4089  2.7833
  755SOL     OW 2320   0.140   1.163   1.647 -0.2922  0.1887 -0.4187
  755SOL    HW1 2321   0.047   1.143   1.648 -0.4039  0.6638 -0.9422
  755SOL    HW2 2322   0.183   1.078   1.639 -0.6522 -0.0797  0.3310
  756SOL     OW 2323   0.814   3.859   0.772 -0.2255 -0.1591 -0.0095
  756SOL    HW1 2324   0.721   3.851   0.790 -0.0118  0.8640  1.8495
  756SOL    HW2 2325   0.857   3.822   0.850  0.9127 -0.1788 -0.6155
  757SOL     OW 2326   1.004   2.642   2.549  0.1461 -0.0128  0.0428
  757SOL    HW1 2327   1.002   2.703   2.623 -1.5065 -0.7519  0.6356
  757SOL    HW2 2328   1.097   2.636   2.526  0.3229  3.7500 -0.9250
  758SOL     OW 2329   2.476   3.683   2.154 -0.3814 -0.5672 -0.3157
  758SOL    HW1 2330   2.493   3.592   2.180 -2.2129 -0.5761  1.0253
  758SOL    HW2 2331   2.381   3.693   2.160 -0.4474  0.8543 -2.5776
  759SOL     OW 2332   1.706   3.937   4.272  0.9574  0.1532 -0.3608
  759SOL    HW1 2333   1.745   3.981   4.347  0.6081 -0.7757  0.3873
  759SOL    HW2 2334   1.623   3.982   4.257 -0.0296 -1.0172  1.2286
  760SOL     OW 2335   2.409   1.862   0.705  0.0994 -0.4882 -0.3254
  760SOL    HW1 2336   2.318   1.842   0.684  0.1256 -0.5216 -0.4062
  760SOL    HW2 2337   2.435   1.928   0.641  0.1674 -0.5618 -0.3740
  761SOL     OW 2338   4.241   0.311   1.937  0.3549  0.1730  0.3777
  761SOL    HW1 2339   4.288   0.384   1.897 -1.6811  1.4801  0.2411
  761SOL    HW2 2340   4.242   0.242   1.871 -1.5508  1.7137 -1.3877
  762SOL     OW 2341   3.410   4.540   0.729  0.2473 -0.2853  0.4465
  762SOL    HW1 2342   3.336   4.526   0.790  0.7191 -0.0415  1.0877
  762SOL    HW2 2343   3.446   4.453   0.715 -0.1732 -0.4095  0.1128
  763SOL     OW 2344   0.671   2.391   0.427  0.0274 -0.7419 -0.1326
  763SOL    HW1 2345   0.700   2.327   0.492 -0.1531 -0.3824  0.3035
  763SOL    HW2 2346   0.616   2.452   0.476  1.1176  0.4105 -0.2941
  764SOL     OW 2347   2.921   3.067   1.661 -0.2786 -0.9392 -0.7858
  764SOL    HW1 2348   2.871   3.135   1.616 -0.1050  0.7910  1.4458
  764SOL    HW2 2349   3.012   3.083   1.635 -0.1501  0.1940  0.2810
  765SOL     OW 2350   3.643   4.152   4.425 -0.2277  0.0898  0.5267
  765SOL    HW1 2351   3.721   4.114   4.385  0.3839  1.4212  0.4172
  765SOL    HW2 2352   3.571   4.096   4.395  0.3657  0.2808 -1.3532
  766SOL     OW 2353   0.160   1.423   3.476 -0.5346  0.6431  0.1031
  766SOL    HW1 2354   0.104   1.489   3.517 -1.5467  0.7666 -1.3653
  766SOL    HW2 2355   0.154   1.443   3.382 -1.4013 -1.8945 -0.4706
  767SOL     OW 2356   1.553   2.666   2.476 -0.6151  0.0801 -0.2560
  767SOL    HW1 2357   1.578   2.584   2.434 -0.7238 -0.7308  1.1900
  767SOL    HW2 2358   1.555   2.731   2.406  3.7847 -0.2173 -0.6622
  768SOL     OW 2359   3.713   2.278   1.718  0.7102  0.4096  0.0502
  768SOL    HW1 2360   3.747   2.243   1.635  0.3613 -0.0652  0.1077
  768SOL    HW2 2361   3.770   2.241   1.785 -0.1808 -0.7523  0.1874
  769SOL     OW 2362   1.800   3.026   3.102  1.1431 -0.1721 -0.2954
  769SOL    HW1 2363   1.876   3.077   3.073  0.9593  0.8271  0.8868
  769SOL    HW2 2364   1.817   3.008   3.194  0.5573 -1.1130 -0.3574
  770SOL     OW 2365   1.343   3.464   4.369 -0.4021  0.2510  0.4394
  770SOL    HW1 2366   1.329   3.512   4.451  2.8724  1.6896  0.3206
  770SOL    HW2 2367   1.370   3.531   4.306  0.6145 -1.2591 -0.8141
  771SOL     OW 2368   1.113   4.362   0.969  0.0699  0.4808 -0.6737
  771SOL    HW1 2369   1.152   4.281   1.004 -0.1065  0.2591 -0.9897
  771SOL    HW2 2370   1.033   4.373   1.019 -1.1451 -0.8369 -2.2236
  772SOL     OW 2371   3.001   3.231   4.787  0.0342 -0.0084  0.3135
  772SOL    HW1 2372   2.972   3.143   4.765  0.5077 -0.0312 -0.2389
  772SOL    HW2 2373   3.064   3.254   4.718  1.6101 -0.1075  1.6724
  773SOL     OW 2374   0.453   4.194   2.185  0.6164 -0.1659  0.6203
  773SOL    HW1 2375   0.536   4.233   2.159 -0.0732  1.2605  0.4545
  773SOL    HW2 2376   0.435   4.128   2.118 -0.1799  2.0940 -1.5618
  774SOL     OW 2377   1.157   4.216   3.949 -0.3167 -0.0132  0.3694
  774SOL    HW1 2378   1.073   4.239   3.910 -0.4248 -0.3370  0.4028
  774SOL    HW2 2379   1.189   4.297   3.988 -1.0114 -0.0704  1.0779
  775SOL     OW 2380   4.656   1.467   1.257  0.9105 -0.0762  0.0817
  775SOL    HW1 2381   4.604   1.390   1.238 -0.1926  0.5701  0.4224
  775SOL    HW2 2382   4.691   1.451   1.345 -0.5420  0.4400  0.7876
  776SOL     OW 2383   4.149   0.226   2.754 -0.0104 -0.2447  0.1965
  776SOL    HW1 2384   4.196   0.152   2.714  0.1388  0.6040 -1.2777
  776SOL    HW2 2385   4.057   0.211   2.731  0.1317  0.4962 -0.9534
  777SOL     OW 2386   0.060   2.030   2.165 -0.0410 -0.8937 -0.2385
  777SOL    HW1 2387   0.004   2.098   2.127 -0.7454 -1.6737 -0.6392
  777SOL    HW2 2388   0.145   2.042   2.121  0.7533  1.5068  1.7467
  778SOL     OW 2389   4.137   4.733   3.375 -0.1232  0.1601  0.7084
  778SOL    HW1 2390   4.140   4.683   3.293 -0.3454  0.9192  0.2305
  778SOL    HW2 2391   4.163   4.822   3.350 -2.9732  1.1251  0.9048
  779SOL     OW 2392   2.036   3.395   1.928 -0.5362  0.9178 -0.0270
  779SOL    HW1 2393   2.003   3.438   1.849  0.8783 -1.0540 -1.8179
  779SOL    HW2 2394   1.995   3.308   1.927  1.0682  0.1191  0.2265
  780SOL     OW 2395   4.961   1.029   4.894 -0.3471  0.5318  0.1197
  780SOL    HW1 2396   4.895   1.087   4.857 -0.7138  0.2632  0.3496
  780SOL    HW2 2397   4.964   0.954   4.834  1.3989  1.5646 -1.1840
  781SOL     OW 2398   1.617   2.327   0.328  0.0503  0.2702 -0.1259
  781SOL    HW1 2399   1.526   2.337   0.356  0.2728  2.6091 -0.0601
  781SOL    HW2 2400   1.660   2.285   0.403 -0.8002 -0.1465  0.1441
  782SOL     OW 2401   1.349   3.733   4.888 -0.1852 -0.0218  0.0495
  782SOL    HW1 2402   1.404   3.748   4.965 -0.0825  1.2112 -0.2452
  782SOL    HW2 2403   1.263   3.711   4.923  0.0745 -0.3116  0.5112
  783SOL     OW 2404   4.223   0.397   0.107 -0.8517 -0.1426  0.3841
  783SOL    HW1 2405   4.234   0.451   0.029  1.2438  0.5424  1.0757
  783SOL    HW2 2406   4.130   0.374   0.108 -0.8464 -0.5829 -2.5386
  784SOL     OW 2407   3.055   1.530   3.199 -0.1668  0.3729 -0.6477
  784SOL    HW1 2408   3.135   1.561   3.158 -0.2057 -1.1343 -1.9432
  784SOL    HW2 2409   2.991   1.600   3.184  0.2027  0.4543 -1.9814
  785SOL     OW 2410   1.726   3.332   4.247 -0.1781 -0.0817 -0.4104
  785SOL    HW1 2411   1.746   3.424   4.263 -1.3974  0.7941 -3.2952
  785SOL    HW2 2412   1.812   3.288   4.247  0.4131  1.0152  0.9740
  786SOL     OW 2413   4.371   1.331   2.096 -0.3495 -0.1571  0.2429
  786SOL    HW1 2414   4.389   1.316   2.188  0.2912  0.0439  0.1553
  786SOL    HW2 2415   4.276   1.326   2.089 -0.5169  1.3851  1.1838
  787SOL     OW 2416   3.411   4.495   4.430 -0.3760  0.3304  0.1944
  787SOL    HW1 2417   3.470   4.524   4.500  0.5719  1.2908 -0.9703
  787SOL    HW2 2418   3.401   4.401   4.445 -0.2136  0.5064  1.6146
  788SOL     OW 2419   3.225   1.627   1.613 -0.1143  0.1538  0.3094
  788SOL    HW1 2420   3.246   1.593   1.700 -1.3188 -1.0406  0.1649
  788SOL    HW2 2421   3.195   1.550   1.564 -1.6326  1.1956 -0.4677
  789SOL     OW 2422   4.189   3.853   4.052 -0.3531 -0.1769  0.1661
  789SOL    HW1 2423   4.123   3.922   4.041 -0.1775 -0.2461 -1.5178
  789SOL    HW2 2424   4.264   3.883   4.001  1.3218  0.3140  2.7132
  790SOL     OW 2425   1.280   3.075   3.861  0.2776 -0.7970 -0.4400
  790SOL    HW1 2426   1.337   3.006   3.827  1.9545  0.7293 -0.8564
  790SOL    HW2 2427   1.201   3.068   3.808  1.6956 -0.3543 -2.7757
  791SOL     OW 2428   2.671   0.585   2.219 -0.1928  0.1412  0.2077
  791SOL    HW1 2429   2.740   0.585   2.286  0.3966 -0.5186 -0.3857
  791SOL    HW2 2430   2.613   0.657   2.244  0.1354  0.0389  1.3090
  792SOL     OW 2431   0.470   3.122   2.246 -0.8997  0.4289  0.1093
  792SOL    HW1 2432   0.515   3.191   2.295 -1.6516 -0.3903  2.0877
  792SOL    HW2 2433   0.509   3.041   2.277 -0.5170 -0.1056 -1.6641
  793SOL     OW 2434   4.253   3.880   4.311  0.1548  0.0429 -0.3529
  793SOL    HW1 2435   4.296   3.965   4.323  0.0396  0.4881 -2.6895
  793SOL    HW2 2436   4.245   3.870   4.216 -0.3494 -2.3417 -0.1237
  794SOL     OW 2437   0.461   2.974   0.444 -0.5345 -0.0909 -0.1107
  794SOL    HW1 2438   0.416   3.043   0.395 -1.5841  0.4151  1.4884
  794SOL    HW2 2439   0.476   3.013   0.530 -2.9829 -2.5048  1.5463
  795SOL     OW 2440   3.278   1.090   4.282  0.4816 -0.2506 -0.8636
  795SOL    HW1 2441   3.320   1.116   4.200  0.1820  2.3958 -0.2859
  795SOL    HW2 2442   3.349   1.086   4.346  0.5329 -0.9456 -0.9614
  796SOL     OW 2443   0.325   0.911   4.925 -0.2978  0.4321 -0.6927
  796SOL    HW1 2444   0.285   0.914   4.838 -0.2680  0.7404 -0.6959
  796SOL    HW2 2445   0.283   0.981   4.974 -1.2799 -0.5901 -0.0329
  797SOL     OW 2446   2.318   2.539   0.289 -0.4479  0.2483  0.4850
  797SOL    HW1 2447   2.288   2.469   0.348 -0.9575  0.6225  0.6783
  797SOL    HW2 2448   2.334   2.495   0.206 -3.1949  0.2640 -0.1408
  798SOL     OW 2449   3.320   0.515   1.223 -0.0666 -0.3815 -0.5046
  798SOL    HW1 2450   3.315   0.610   1.214  0.4974 -0.2010  0.8926
  798SOL    HW2 2451   3.249   0.483   1.168  0.6082  0.7627 -2.1213
  799SOL     OW 2452   1.942   4.697   0.659 -0.4530 -0.1091 -0.0770
  799SOL    HW1 2453   1.913   4.752   0.586  2.0310  3.3393  1.2639
  799SOL    HW2 2454   2.037   4.706   0.659 -0.2024 -1.9877  2.1343
  800SOL     OW 2455   3.973   0.255   1.477 -0.0308 -0.2331 -0.2612
  800SOL    HW1 2456   3.890   0.293   1.508  0.0309  1.2600 -1.7820
  800SOL    HW2 2457   3.955   0.232   1.386  0.7045 -1.6410 -0.0717
  801SOL     OW 2458   1.088   4.667   3.622  0.4699 -0.1347  0.5247
  801SOL    HW1 2459   0.997   4.669   3.652  0.4435 -0.8152  0.4906
  801SOL    HW2 2460   1.131   4.603   3.678  0.8003 -0.2260  0.1701
  802SOL     OW 2461   4.203   1.952   3.959  0.1549 -0.2927  0.1134
  802SOL    HW1 2462   4.140   1.981   4.024  0.0158  0.4279 -0.3365
  802SOL    HW2 2463   4.216   2.028   3.902 -0.6896 -1.2488 -1.4481
  803SOL     OW 2464   2.186   2.736   0.964 -0.0510  0.2193 -0.0321
  803SOL    HW1 2465   2.154   2.810   0.913  0.3874 -0.2943 -1.0730
  803SOL    HW2 2466   2.158   2.755   1.053  0.9775  2.1620 -0.0765
  804SOL     OW 2467   0.979   3.543   0.614  0.3242 -0.3245 -0.5323
  804SOL    HW1 2468   0.893   3.571   0.644  0.6994 -0.9778  1.2726
  804SOL    HW2 2469   0.965   3.516   0.523 -1.3369 -0.2876 -0.3189
  805SOL     OW 2470   3.247   4.669   4.069  0.3881 -0.2788  0.1253
  805SOL    HW1 2471   3.295   4.732   4.122  2.8170  0.4704 -2.7201
  805SOL    HW2 2472   3.309   4.597   4.054 -1.1765 -1.7728  0.5308
  806SOL     OW 2473   4.146   1.998   2.484  0.5011 -0.1240  0.7641
  806SOL    HW1 2474   4.073   1.980   2.425  0.8314  0.9508  0.0020
  806SOL    HW2 2475   4.122   2.078   2.529  2.0170  1.4066 -0.9553
  807SOL     OW 2476   4.316   2.518   4.301  1.2262 -0.1653  0.0356
  807SOL    HW1 2477   4.326   2.511   4.396  1.0743  0.4738  0.1046
  807SOL    HW2 2478   4.310   2.612   4.285  2.4575 -0.1914 -0.7350
  808SOL     OW 2479   3.370   2.987   2.999 -0.0399 -0.3414 -0.3197
  808SOL    HW1 2480   3.365   2.891   2.997 -1.5290 -0.2905 -1.6197
  808SOL    HW2 2481   3.413   3.008   3.082  0.7590 -2.1440 -0.2460
  809SOL     OW 2482   3.812   2.390   3.266  0.3353  0.3574  0.1963
  809SOL    HW1 2483   3.858   2.373   3.183  0.6264  0.9491  0.2310
  809SOL    HW2 2484   3.878   2.434   3.320  1.3633 -3.1352  2.0753
  810SOL     OW 2485   1.234   3.052   0.211  0.2035 -0.4372 -0.3280
  810SOL    HW1 2486   1.321   3.041   0.250 -0.1835 -1.5567  0.2712
  810SOL    HW2 2487   1.197   2.964   0.211 -0.7105 -0.0700 -1.1263
  811SOL     OW 2488   2.902   3.664   3.673  0.7380  0.7126 -0.1474
  811SOL    HW1 2489   2.822   3.698   3.635  1.0386  1.4876 -0.1081
  811SOL    HW2 2490   2.878   3.577   3.706  0.2497  0.3937 -1.2838
  812SOL     OW 2491   3.514   1.349   3.901 -0.7660  0.4058  0.1837
  812SOL    HW1 2492   3.533   1.329   3.810  1.5358 -2.3377  1.1264
  812SOL    HW2 2493   3.480   1.438   3.900  0.8578  1.1204 -3.1436
  813SOL     OW 2494   3.626   2.056   0.254  0.1582 -0.5099  0.5136
  813SOL    HW1 2495   3.540   2.083   0.223  0.9839  2.4184  0.4678
  813SOL    HW2 2496   3.635   2.099   0.339  1.1684 -1.6912  1.0391
  814SOL     OW 2497   1.872   0.611   1.947 -0.0346  0.4160  0.6421
  814SOL    HW1 2498   1.787   0.656   1.941 -0.2549  0.0338  0.8561
  814SOL    HW2 2499   1.863   0.536   1.887 -0.0644  0.0388  1.1121
  815SOL     OW 2500   2.011   0.135   2.595  0.3268 -0.5044  0.0933
  815SOL    HW1 2501   2.089   0.191   2.594 -1.0552  1.4969  0.1199
  815SOL    HW2 2502   1.947   0.183   2.646 -0.9436 -2.1343  0.1133
  816SOL     OW 2503   4.221   4.431   2.096  0.6054  0.4536  0.5330
  816SOL    HW1 2504   4.220   4.526   2.091  0.3914  0.4261  0.0424
  816SOL    HW2 2505   4.186   4.401   2.012  3.2642 -0.0994 -0.4540
  817SOL     OW 2506   2.796   2.517   0.999 -0.6650 -0.7411 -0.1299
  817SOL    HW1 2507   2.781   2.512   0.905 -0.0336 -1.0287 -0.2163
  817SOL    HW2 2508   2.780   2.428   1.031  1.2084 -1.1540 -0.2817
  818SOL     OW 2509   1.883   2.786   1.704 -0.1093  0.2373 -0.5795
  818SOL    HW1 2510   1.907   2.717   1.642 -0.3522 -0.8772  0.5084
  818SOL    HW2 2511   1.910   2.751   1.789 -1.9087  0.6886  0.2165
  819SOL     OW 2512   3.652   2.337   2.652 -0.0434 -0.1770  0.6896
  819SOL    HW1 2513   3.566   2.295   2.649  0.1063 -0.5712  1.5841
  819SOL    HW2 2514   3.710   2.277   2.604 -0.4865  0.7115 -1.0607
  820SOL     OW 2515   2.444   4.689   4.857  0.7437  0.3375  0.2039
  820SOL    HW1 2516   2.460   4.760   4.920 -0.2231  0.7114  0.0373
  820SOL    HW2 2517   2.451   4.609   4.908  0.6286  0.6105  0.6485
  821SOL     OW 2518   1.562   0.715   4.641  0.4280  0.0209  0.1430
  821SOL    HW1 2519   1.576   0.743   4.551  3.3133  2.2617  1.1044
  821SOL    HW2 2520   1.517   0.788   4.683 -1.1025 -1.0950  0.5458
  822SOL     OW 2521   2.471   4.203   4.302  0.2604 -0.1150  0.2068
  822SOL    HW1 2522   2.505   4.292   4.311  2.9430 -1.0893  0.7266
  822SOL    HW2 2523   2.519   4.166   4.227 -0.2783 -1.3467  0.4348
  823SOL     OW 2524   4.434   4.289   4.554 -0.0500 -0.1237  0.0874
  823SOL    HW1 2525   4.393   4.373   4.575 -1.8140 -0.8244 -0.3669
  823SOL    HW2 2526   4.470   4.259   4.638  2.2631  1.8647 -0.0798
  824SOL     OW 2527   2.632   1.386   3.867  0.2378 -0.0551 -0.1937
  824SOL    HW1 2528   2.659   1.316   3.808 -1.0721 -0.0994 -0.7636
  824SOL    HW2 2529   2.537   1.386   3.863  0.1316  0.3826  1.4103
  825SOL     OW 2530   0.469   3.015   4.944 -1.0371 -0.3972  0.6315
  825SOL    HW1 2531   0.526   3.005   4.867  0.2978 -1.3944  1.6908
  825SOL    HW2 2532   0.432   3.102   4.935 -1.1586 -0.6127 -1.2961
  826SOL     OW 2533   2.073   0.921   1.730 -0.0974 -0.0491 -0.1766
  826SOL    HW1 2534   1.996   0.867   1.743 -1.3253  1.9468  1.4645
  826SOL    HW2 2535   2.144   0.874   1.773 -1.5272  0.4274  2.9694
  827SOL     OW 2536   4.374   1.734   3.329 -0.2659 -0.2188  0.1127
  827SOL    HW1 2537   4.386   1.811   3.273 -1.1919 -0.3701 -0.3130
  827SOL    HW2 2538   4.439   1.744   3.398 -1.7214  2.0015  1.2436
  828SOL     OW 2539   1.284   4.907   1.018 -0.2338  0.1715  0.6580
  828SOL    HW1 2540   1.353   4.849   1.050  0.3392  0.7509  0.4852
  828SOL    HW2 2541   1.208   4.886   1.073  0.1214 -0.3552  0.9553
  829SOL     OW 2542   0.053   2.976   1.173 -0.2824 -0.0840 -0.0547
  829SOL    HW1 2543  -0.027   2.989   1.122  0.7134  0.8868 -1.4463
  829SOL    HW2 2544   0.118   2.949   1.108  0.2826 -1.9636  1.2081
  830SOL     OW 2545   1.492   2.778   4.812 -0.3788 -0.0991  0.1223
  830SOL    HW1 2546   1.420   2.769   4.750 -1.0589  2.3993  0.4300
  830SOL    HW2 2547   1.453   2.757   4.897 -0.5713  0.5095  0.1915
  831SOL     OW 2548   0.752   3.600   3.946  0.2001  0.0147 -0.2548
  831SOL    HW1 2549   0.679   3.649   3.983 -0.5941 -0.3345 -1.3148
  831SOL    HW2 2550   0.823   3.663   3.940 -0.2151  0.5326  0.1644
  832SOL     OW 2551   1.556   0.682   3.871  0.4680 -0.0151 -0.1061
  832SOL    HW1 2552   1.638   0.634   3.873  1.3080  1.2900 -1.6679
  832SOL    HW2 2553   1.543   0.706   3.780 -0.7972  1.2347  0.3553
  833SOL     OW 2554   3.229   1.325   2.930 -0.4564 -0.1058  0.1294
  833SOL    HW1 2555   3.141   1.344   2.896 -0.1126 -0.2991 -0.9042
  833SOL    HW2 2556   3.284   1.393   2.891 -0.0990 -0.1388  0.5745
  834SOL     OW 2557   1.224   1.099   3.842 -0.1389 -0.2943 -0.5715
  834SOL    HW1 2558   1.175   1.032   3.795  0.4530 -1.9394  1.0482
  834SOL    HW2 2559   1.305   1.109   3.792 -0.3973 -0.5036 -1.0369
  835SOL     OW 2560   2.482   3.909   1.820 -0.0587 -0.0560 -0.0785
  835SOL    HW1 2561   2.485   3.923   1.726  2.4996  0.4892  0.0096
  835SOL    HW2 2562   2.552   3.963   1.855 -2.1996  1.3500  2.4231
  836SOL     OW 2563   3.486   1.479   4.670 -0.0050 -0.3362 -0.0685
  836SOL    HW1 2564   3.450   1.553   4.622  0.4558  0.6626  1.0593
  836SOL    HW2 2565   3.562   1.451   4.620  0.1503  0.3301 -0.2001
  837SOL     OW 2566   4.680   0.247   3.708 -0.0712 -0.0814 -0.4217
  837SOL    HW1 2567   4.713   0.301   3.636  0.6857 -0.0690 -0.0753
  837SOL    HW2 2568   4.646   0.310   3.771  0.0625 -0.0462 -0.3837
  838SOL     OW 2569   4.286   3.574   3.922  0.1237  0.3276  0.0730
  838SOL    HW1 2570   4.302   3.668   3.925  0.5140  0.2470  2.6799
  838SOL    HW2 2571   4.225   3.558   3.994  0.6369 -1.5282  0.1396
  839SOL     OW 2572   2.313   2.744   0.559  0.5711 -0.1892  0.5187
  839SOL    HW1 2573   2.395   2.706   0.589  1.7066  0.7653 -1.1733
  839SOL    HW2 2574   2.278   2.790   0.635  2.3074  0.4992  0.9520
  840SOL     OW 2575   3.789   2.665   0.336  0.1664  0.0178  0.5422
  840SOL    HW1 2576   3.783   2.630   0.425  0.4841 -0.1415  0.5020
  840SOL    HW2 2577   3.755   2.754   0.343 -0.0811 -0.0921  0.7657
  841SOL     OW 2578   1.923   0.193   3.498 -0.5380 -0.1321  0.0031
  841SOL    HW1 2579   1.890   0.193   3.408 -0.0944  2.2719 -0.2490
  841SOL    HW2 2580   1.966   0.279   3.507  0.1679 -0.6574  2.2455
  842SOL     OW 2581   1.608   4.861   4.260  0.0053 -0.8626 -0.1511
  842SOL    HW1 2582   1.698   4.890   4.276  0.1912 -1.8095  0.5979
  842SOL    HW2 2583   1.555   4.907   4.325 -0.1147 -0.0199 -0.8331
  843SOL     OW 2584   0.869   2.065   0.224  0.3614 -0.6070  0.7662
  843SOL    HW1 2585   0.801   2.063   0.157  0.1670  1.8529  0.7869
  843SOL    HW2 2586   0.833   2.012   0.296 -0.9684 -0.4463  0.2561
  844SOL     OW 2587   4.358   4.965   0.468  0.5999 -0.8110  0.0700
  844SOL    HW1 2588   4.311   4.996   0.546  0.8877 -0.0903 -0.0409
  844SOL    HW2 2589   4.442   5.011   0.471  0.6942 -0.9413 -0.5590
  845SOL     OW 2590   1.370   0.011   2.397 -0.0316 -0.1017  0.6376
  845SOL    HW1 2591   1.368   0.078   2.465 -2.7036  0.8618 -0.2424
  845SOL    HW2 2592   1.452  -0.035   2.410  0.1520  0.8991  3.6580
  846SOL     OW 2593   3.878   1.224   1.993  0.1245 -0.0876 -0.0821
  846SOL    HW1 2594   3.891   1.273   1.912 -0.4215  0.5838  0.2213
  846SOL    HW2 2595   3.785   1.234   2.012 -0.0859 -1.5890 -0.2144
  847SOL     OW 2596   2.508   4.458   1.830 -0.0548  0.0617 -0.1299
  847SOL    HW1 2597   2.428   4.507   1.816  0.9619  1.6007 -0.8342
  847SOL    HW2 2598   2.539   4.436   1.742  0.7757  0.3274  0.0810
  848SOL     OW 2599   1.659   3.886   4.964  0.0807  0.4237  0.5809
  848SOL    HW1 2600   1.680   3.805   5.012 -1.4881 -0.8298 -0.7132
  848SOL    HW2 2601   1.744   3.928   4.950  1.2741 -2.0762 -0.5059
  849SOL     OW 2602   0.695   1.915   0.396  0.0342 -0.2210 -0.2938
  849SOL    HW1 2603   0.732   1.854   0.459 -1.0562 -1.6350 -0.9705
  849SOL    HW2 2604   0.619   1.869   0.359  0.1400  0.8776 -2.0132
  850SOL     OW 2605   2.381   0.942   1.863 -0.5816 -0.6592  0.1007
  850SOL    HW1 2606   2.401   0.850   1.848 -0.0302 -0.2173 -2.2471
  850SOL    HW2 2607   2.465   0.983   1.881 -0.3805 -0.1585 -1.7932
  851SOL     OW 2608   3.397   4.064   4.562  0.1391 -0.2876  0.2917
  851SOL    HW1 2609   3.384   3.973   4.589 -2.1670  0.5864  2.5473
  851SOL    HW2 2610   3.445   4.104   4.635  3.3737 -0.0937 -1.7179
  852SOL     OW 2611   3.467   3.034   2.487 -0.0124  0.5127  0.3224
  852SOL    HW1 2612   3.465   3.003   2.578 -0.7531 -0.3296  0.0391
  852SOL    HW2 2613   3.544   2.991   2.450 -0.7306 -0.6176  0.0793
  853SOL     OW 2614   3.495   4.570   4.162 -0.0620  0.0614  0.3769
  853SOL    HW1 2615   3.589   4.590   4.160  0.1416 -0.3123  3.2036
  853SOL    HW2 2616   3.476   4.551   4.253 -2.6830 -1.0544 -0.3165
  854SOL     OW 2617   0.045   2.510   1.143  0.1266  0.4499 -0.6322
  854SOL    HW1 2618  -0.014   2.551   1.206  0.5358  0.2311 -0.1050
  854SOL    HW2 2619   0.002   2.428   1.119  1.0073 -0.5364  1.0440
  855SOL     OW 2620   2.177   1.878   0.428 -0.2058 -0.7383 -0.0846
  855SOL    HW1 2621   2.148   1.893   0.518 -1.4500  1.8552 -0.8142
  855SOL    HW2 2622   2.109   1.824   0.389 -0.0753 -1.1865  0.3020
  856SOL     OW 2623   4.306   4.255   1.423  0.4902  0.1070  0.0905
  856SOL    HW1 2624   4.279   4.173   1.381  0.9241  0.3515 -0.6907
  856SOL    HW2 2625   4.226   4.290   1.461  0.4041 -0.9632  0.9516
  857SOL     OW 2626   1.077   0.127   2.595 -0.1185 -0.5189 -0.0127
  857SOL    HW1 2627   1.145   0.068   2.627  0.0627  0.0530  0.6866
  857SOL    HW2 2628   1.053   0.179   2.671 -1.5417 -0.8944 -0.1789
  858SOL     OW 2629   2.867   4.117   3.203 -0.3054 -0.7023 -0.1506
  858SOL    HW1 2630   2.825   4.178   3.143 -0.1964 -1.0824 -0.6193
  858SOL    HW2 2631   2.923   4.063   3.147 -0.8663 -1.6391  0.1635
  859SOL     OW 2632   2.657   2.743   4.435 -0.0253  0.3270 -0.5892
  859SOL    HW1 2633   2.594   2.678   4.403  2.5083 -3.7403  1.7721
  859SOL    HW2 2634   2.649   2.738   4.531  3.7661 -0.5225 -0.1580
  860SOL     OW 2635   2.423   4.459   2.766  0.4380  0.3351 -0.6574
  860SOL    HW1 2636   2.377   4.404   2.828 -0.0281 -1.8852 -2.8096
  860SOL    HW2 2637   2.515   4.437   2.777  0.2519 -1.0279 -1.5329
  861SOL     OW 2638   2.423   4.273   0.652  0.0380 -0.4776 -0.2301
  861SOL    HW1 2639   2.417   4.241   0.562  1.4913  0.3746 -0.6653
  861SOL    HW2 2640   2.471   4.356   0.645  1.8567 -1.2874  1.4982
  862SOL     OW 2641   3.002   2.959   1.035  0.4057 -0.0979  0.4668
  862SOL    HW1 2642   3.058   2.895   1.080 -1.1995 -2.7901 -1.0658
  862SOL    HW2 2643   3.063   3.008   0.980  1.5626 -1.2878  0.6140
  863SOL     OW 2644   2.497   3.409   2.124 -0.2260 -0.5672 -0.5304
  863SOL    HW1 2645   2.427   3.354   2.159 -0.3377  0.4534  0.9667
  863SOL    HW2 2646   2.576   3.378   2.168 -0.7338  2.4887  3.0987
  864SOL     OW 2647   2.606   2.638   1.919 -0.1799  0.3881  0.3812
  864SOL    HW1 2648   2.625   2.544   1.917 -1.3582  0.1407 -0.4113
  864SOL    HW2 2649   2.581   2.659   1.829  0.1380  1.4850  0.5342
  865SOL     OW 2650   2.934   2.573   0.329  0.4740  0.0751  0.5613
  865SOL    HW1 2651   2.883   2.650   0.354  0.6198 -0.3786  2.4042
  865SOL    HW2 2652   2.903   2.551   0.241  0.5511  2.3143 -0.0825
  866SOL     OW 2653   1.593   3.253   3.290 -0.1227  0.2114  0.0700
  866SOL    HW1 2654   1.521   3.291   3.341  1.1098  0.8837  1.3845
  866SOL    HW2 2655   1.550   3.215   3.213 -1.6885  2.1724 -0.1133
  867SOL     OW 2656   1.811   1.116   1.362 -0.0848  0.1620 -0.4383
  867SOL    HW1 2657   1.821   1.065   1.281 -0.5153  1.3983 -1.3096
  867SOL    HW2 2658   1.761   1.194   1.335 -3.5186 -1.0696  1.7012
  868SOL     OW 2659   4.092   0.111   3.446  0.0773  0.6278  0.0356
  868SOL    HW1 2660   4.074   0.197   3.408  0.8761  0.1553 -1.5227
  868SOL    HW2 2661   4.039   0.050   3.394  1.0377 -0.0205 -0.2261
  869SOL     OW 2662   3.921   2.131   3.768 -0.4136 -0.0627  0.2842
  869SOL    HW1 2663   3.901   2.118   3.861  0.2269  0.0871  0.4507
  869SOL    HW2 2664   3.973   2.212   3.766  0.8420 -0.8445 -0.0257
  870SOL     OW 2665   2.217   0.691   4.492  0.1077 -0.1791 -0.7321
  870SOL    HW1 2666   2.239   0.762   4.431  1.5689  0.3023  0.2927
  870SOL    HW2 2667   2.302   0.658   4.522 -0.3325  1.8052  3.4982
  871SOL     OW 2668   4.556   3.084   4.031 -0.5489 -0.2692  0.3425
  871SOL    HW1 2669   4.477   3.103   3.980 -1.0501  0.5907  1.4115
  871SOL    HW2 2670   4.612   3.037   3.970 -0.4764  2.0734 -1.5532
  872SOL     OW 2671   2.340   3.982   4.653  0.1590 -0.0734  0.1347
  872SOL    HW1 2672   2.369   3.947   4.738  0.7367  0.0148 -0.0223
  872SOL    HW2 2673   2.413   4.036   4.624 -0.0298 -0.1257 -0.4340
  873SOL     OW 2674   1.143   0.568   3.184  0.2599 -0.3947 -0.1751
  873SOL    HW1 2675   1.071   0.625   3.212  0.9064  0.7700 -0.7947
  873SOL    HW2 2676   1.189   0.546   3.265  0.2978  0.3941  0.0252
  874SOL     OW 2677   2.983   1.363   2.827  0.2431 -0.3404  0.2188
  874SOL    HW1 2678   3.016   1.355   2.737  0.1272 -1.6091  0.2660
  874SOL    HW2 2679   2.925   1.287   2.837  0.4773 -0.3654  1.4673
  875SOL     OW 2680   1.088   1.420   3.941 -0.3655 -0.3163 -0.0845
  875SOL    HW1 2681   1.056   1.346   3.993 -2.6325  1.8847  1.9085
  875SOL    HW2 2682   1.073   1.393   3.850  0.4785 -2.9193  0.4684
  876SOL     OW 2683   3.395   4.464   3.934 -0.4302  0.6095  0.0254
  876SOL    HW1 2684   3.430   4.503   4.014 -0.7181  1.1714 -0.1134
  876SOL    HW2 2685   3.444   4.507   3.864  2.5767 -2.5329 -0.0892
  877SOL     OW 2686   3.250   4.523   3.731  0.6090 -0.1857  0.6181
  877SOL    HW1 2687   3.274   4.487   3.816  1.2567  0.0860  0.5614
  877SOL    HW2 2688   3.206   4.606   3.751  1.4565  0.2640  0.6789
  878SOL     OW 2689   4.172   4.780   1.333 -0.0365  0.1309 -0.2908
  878SOL    HW1 2690   4.137   4.834   1.404 -0.2840  1.4293 -1.3521
  878SOL    HW2 2691   4.249   4.737   1.371  0.5043  1.6827  0.4494
  879SOL     OW 2692   2.094   3.787   3.215  0.1378  0.4825  0.6154
  879SOL    HW1 2693   2.102   3.694   3.196  0.9551  0.5647  0.4847
  879SOL    HW2 2694   2.003   3.808   3.198 -0.3498 -0.5396  1.8166
  880SOL     OW 2695   3.942   0.865   2.386 -0.0641  0.6256 -0.1646
  880SOL    HW1 2696   3.915   0.926   2.316 -0.5015 -0.6401 -1.1403
  880SOL    HW2 2697   3.883   0.886   2.459 -2.6122 -0.8589 -1.6444
  881SOL     OW 2698   4.938   1.549   1.911 -0.5157 -0.2425  0.4134
  881SOL    HW1 2699   4.869   1.498   1.869 -0.2586  0.4295 -0.8867
  881SOL    HW2 2700   5.010   1.549   1.848  0.9863 -1.5123  2.0076
  882SOL     OW 2701   3.984   1.713   4.909 -0.0734 -0.0320  0.3170
  882SOL    HW1 2702   3.939   1.679   4.832  2.3330 -0.5588 -0.9839
  882SOL    HW2 2703   4.000   1.805   4.889 -1.4335  0.4385  1.2483
  883SOL     OW 2704   3.741   2.800   3.319  0.3127  0.2101 -0.3720
  883SOL    HW1 2705   3.825   2.754   3.329 -0.1665 -0.2389  2.5942
  883SOL    HW2 2706   3.703   2.798   3.407 -1.5523  2.8830 -1.0096
  884SOL     OW 2707   2.276   0.630   2.242 -0.5708  0.6479  0.4092
  884SOL    HW1 2708   2.301   0.589   2.325 -2.5830  0.8705  1.1897
  884SOL    HW2 2709   2.287   0.724   2.258 -1.3819  0.7194  0.6077
  885SOL     OW 2710   4.062   2.910   4.322  0.1406  0.7932 -0.5501
  885SOL    HW1 2711   4.065   3.005   4.310 -0.1313  0.7923 -0.6285
  885SOL    HW2 2712   3.982   2.895   4.373  1.9745  0.9528  2.6475
  886SOL     OW 2713   1.894   1.147   2.503 -0.1660  0.0497  0.4301
  886SOL    HW1 2714   1.971   1.175   2.552  0.6602 -0.2024 -0.6949
  886SOL    HW2 2715   1.820   1.166   2.561  0.8111 -0.6877  1.9796
  887SOL     OW 2716   0.249   2.369   1.625  0.1141  0.2266 -1.2073
  887SOL    HW1 2717   0.289   2.433   1.566  0.1896  1.3792  0.0496
  887SOL    HW2 2718   0.174   2.414   1.662  1.3496  0.3849  1.2865
  888SOL     OW 2719   1.660   1.135   3.499 -0.2941  0.4507 -0.0110
  888SOL    HW1 2720   1.678   1.085   3.419  0.1428  1.5136 -0.6095
  888SOL    HW2 2721   1.746   1.145   3.541 -0.6238 -0.7130  0.9891
  889SOL     OW 2722   2.433   3.886   2.380 -0.3782 -0.0198  0.2086
  889SOL    HW1 2723   2.371   3.917   2.446 -0.9084  0.1397 -0.3521
  889SOL    HW2 2724   2.436   3.956   2.315  0.2598 -0.1029  0.1386
  890SOL     OW 2725   0.161   1.857   2.878  0.1952 -0.1369  0.0056
  890SOL    HW1 2726   0.177   1.951   2.866  1.1215 -0.4625 -1.4720
  890SOL    HW2 2727   0.190   1.817   2.796 -1.1018 -1.6204  0.2337
  891SOL     OW 2728   0.634   3.172   4.517  1.1407 -0.9153  0.3235
  891SOL    HW1 2729   0.687   3.129   4.584  1.5688  0.1057  0.6620
  891SOL    HW2 2730   0.698   3.214   4.459  0.7364 -0.6679  0.0470
  892SOL     OW 2731   3.042   1.889   2.335  0.0902 -0.0314  0.3919
  892SOL    HW1 2732   2.991   1.953   2.385  0.7732  0.6767  0.2084
  892SOL    HW2 2733   3.050   1.814   2.393  1.3704  0.9936  1.5971
  893SOL     OW 2734   4.888   3.992   1.941 -0.3132  0.3376 -0.0240
  893SOL    HW1 2735   4.851   4.014   2.026  0.8560 -0.1969  0.6481
  893SOL    HW2 2736   4.820   3.939   1.898  0.0029 -1.4586  1.5733
  894SOL     OW 2737   0.729   1.260   3.518 -0.0320  0.2707  0.0936
  894SOL    HW1 2738   0.653   1.256   3.460 -1.4578 -0.6661  1.9378
  894SOL    HW2 2739   0.700   1.217   3.599  3.2007 -2.3927  0.0688
  895SOL     OW 2740   1.181   2.799   0.995  0.4083  0.0635  0.3661
  895SOL    HW1 2741   1.251   2.741   1.025 -0.3539 -0.2462  1.6034
  895SOL    HW2 2742   1.173   2.780   0.901  0.1887 -1.8623  0.7239
  896SOL     OW 2743   1.040   2.745   2.133  0.0198  0.4303  0.9759
  896SOL    HW1 2744   1.076   2.789   2.057  0.2338  1.6769  1.7599
  896SOL    HW2 2745   1.116   2.714   2.182 -0.0610  0.5921  1.2110
  897SOL     OW 2746   4.065   4.101   4.038 -0.7684  0.1942 -0.3075
  897SOL    HW1 2747   4.037   4.150   3.960  2.2367 -0.2271 -1.8074
  897SOL    HW2 2748   4.130   4.158   4.080 -0.9930 -0.3816  0.8601
  898SOL     OW 2749   0.921   1.560   1.158  0.3943  0.4278  0.6083
  898SOL    HW1 2750   0.959   1.590   1.240  1.6360 -0.8991  0.5462
  898SOL    HW2 2751   0.944   1.468   1.153  0.3748  0.4871 -1.2549
  899SOL     OW 2752   0.739   3.029   2.759  0.1884  0.1832  0.0555
  899SOL    HW1 2753   0.813   3.042   2.700  0.9017 -0.1990  0.8241
  899SOL    HW2 2754   0.683   3.105   2.746  0.4979  0.2679 -0.8520
  900SOL     OW 2755   3.782   3.818   3.303  0.1194 -0.0830 -0.6143
  900SOL    HW1 2756   3.792   3.910   3.328  0.9771 -0.6070  1.1070
  900SOL    HW2 2757   3.693   3.813   3.268 -0.7875  0.9870  1.3483
  901SOL     OW 2758   0.147   0.001   3.630 -0.6301 -0.1197 -0.1898
  901SOL    HW1 2759   0.160   0.001   3.725  1.4029  2.6786 -0.3410
  901SOL    HW2 2760   0.073   0.060   3.616 -0.2543  0.3060 -0.3889
  902SOL     OW 2761   0.153   1.398   1.751 -0.0245  0.0742  0.5510
  902SOL    HW1 2762   0.140   1.311   1.713 -1.7122  0.7324 -0.4499
  902SOL    HW2 2763   0.202   1.381   1.832 -0.1775 -1.7784  0.2992
  903SOL     OW 2764   1.706   0.935   0.428 -0.0383  0.2224  0.1722
  903SOL    HW1 2765   1.786   0.968   0.467 -0.8178 -0.0242  2.0633
  903SOL    HW2 2766   1.675   0.867   0.487 -1.3153 -0.1416 -0.8385
  904SOL     OW 2767   4.330   1.122   4.879 -0.2642 -0.5124  0.3397
  904SOL    HW1 2768   4.404   1.065   4.897  0.2174  0.7024  2.5531
  904SOL    HW2 2769   4.307   1.160   4.964 -3.1682 -0.5055 -0.3420
  905SOL     OW 2770   2.139   1.955   3.156 -0.1395 -0.7323  0.4712
  905SOL    HW1 2771   2.159   1.917   3.241  0.5998 -0.2875  0.5020
  905SOL    HW2 2772   2.046   1.978   3.161  0.1656  0.3301  1.5690
  906SOL     OW 2773   1.443   3.882   0.124  0.1937 -0.2395  0.3630
  906SOL    HW1 2774   1.512   3.926   0.074  0.7332 -0.4792  0.8861
  906SOL    HW2 2775   1.490   3.829   0.188 -0.4642 -1.0584  0.1762
  907SOL     OW 2776   3.130   4.120   1.784  0.0936  0.2014 -0.1297
  907SOL    HW1 2777   3.120   4.028   1.808 -1.6085  0.2323 -0.5907
  907SOL    HW2 2778   3.157   4.163   1.866  2.6022 -0.9041 -0.2922
  908SOL     OW 2779   1.281   1.997   4.162  0.3845 -0.3796  0.2092
  908SOL    HW1 2780   1.231   2.068   4.122  2.4237  0.5115 -0.9013
  908SOL    HW2 2781   1.226   1.920   4.151 -0.8517  0.5885 -0.7122
  909SOL     OW 2782   2.329   2.739   1.691 -0.1968 -0.1324  0.2298
  909SOL    HW1 2783   2.285   2.746   1.606  0.1980  2.6996  0.1521
  909SOL    HW2 2784   2.422   2.743   1.670 -0.1113  1.7925  0.7875
  910SOL     OW 2785   4.939   0.882   4.511 -0.0550  0.1367 -0.1128
  910SOL    HW1 2786   4.943   0.823   4.436  0.6150 -0.3225  0.2707
  910SOL    HW2 2787   4.967   0.967   4.476  1.6300 -0.3749 -0.1189
  911SOL     OW 2788   0.609   4.620   0.950 -0.5192  0.3256  0.7951
  911SOL    HW1 2789   0.665   4.547   0.926 -0.3456 -0.2971  2.8740
  911SOL    HW2 2790   0.520   4.590   0.929 -0.3849 -0.2035  0.9726
  912SOL     OW 2791   2.752   0.050   3.911 -0.1696  0.7961  0.6003
  912SOL    HW1 2792   2.756  -0.044   3.929  1.0498  1.0303  1.6902
  912SOL    HW2 2793   2.687   0.084   3.973 -1.1027  0.5993 -0.2426
  913SOL     OW 2794   3.590   2.536   3.177 -0.1221  0.1281 -0.0082
  913SOL    HW1 2795   3.668   2.507   3.225 -0.0468  0.3223 -0.0104
  913SOL    HW2 2796   3.590   2.484   3.097 -0.9996 -1.1778  0.8071
  914SOL     OW 2797   4.633   4.322   4.073 -0.4074  0.4621 -0.6192
  914SOL    HW1 2798   4.589   4.357   3.995  1.1640  2.3625 -0.7470
  914SOL    HW2 2799   4.689   4.252   4.039 -2.1843 -1.0088 -0.6515
  915SOL     OW 2800   0.517   3.527   0.848  0.5971  0.1401  0.1918
  915SOL    HW1 2801   0.593   3.498   0.898  1.1116  1.2095  0.0663
  915SOL    HW2 2802   0.495   3.452   0.793  1.9069 -0.0158 -0.1592
  916SOL     OW 2803   3.046   3.460   3.927  0.1196  0.4806  0.1572
  916SOL    HW1 2804   3.010   3.546   3.949  1.2673  1.5792 -1.9025
  916SOL    HW2 2805   2.977   3.399   3.951 -0.3861  1.8592  2.5217
  917SOL     OW 2806   4.829   3.629   0.077  0.6355 -0.4999  0.6417
  917SOL    HW1 2807   4.918   3.661   0.069  0.8432 -0.2824  3.0370
  917SOL    HW2 2808   4.813   3.625   0.172 -1.9444 -0.3831  0.2961
  918SOL     OW 2809   3.804   4.953   0.898 -0.1944 -0.7748  0.2082
  918SOL    HW1 2810   3.736   4.962   0.965  0.1014  2.6624  0.2370
  918SOL    HW2 2811   3.764   4.986   0.818  1.0688  0.2502 -0.0333
  919SOL     OW 2812   0.706   0.801   4.017 -0.1753  0.1278 -0.4326
  919SOL    HW1 2813   0.784   0.818   3.965  0.4066 -0.0175  0.3702
  919SOL    HW2 2814   0.698   0.706   4.018 -0.4074  0.1439 -0.5650
  920SOL     OW 2815   0.821   0.201   2.212  0.0935  0.4330 -0.4490
  920SOL    HW1 2816   0.740   0.179   2.166 -0.9929  1.4218  0.9324
  920SOL    HW2 2817   0.846   0.120   2.256 -1.8774  0.8669  1.6339
  921SOL     OW 2818   4.546   1.245   4.181  0.1799 -0.1158  0.1560
  921SOL    HW1 2819   4.555   1.150   4.185 -0.7625 -0.2551 -0.6478
  921SOL    HW2 2820   4.533   1.264   4.088 -0.3626  0.7160  0.3913
  922SOL     OW 2821   2.445   4.836   0.102  0.5775  0.0056  0.3671
  922SOL    HW1 2822   2.456   4.824   0.197 -0.8932 -0.2816  0.5359
  922SOL    HW2 2823   2.425   4.929   0.092  1.1591  0.1241  0.2840
  923SOL     OW 2824   0.031   1.804   0.481 -0.0553  0.2120 -0.0404
  923SOL    HW1 2825   0.061   1.757   0.559 -1.8856 -0.0587  0.5350
  923SOL    HW2 2826   0.110   1.814   0.428  1.2505  0.3786  1.8126
  924SOL     OW 2827   3.712   3.896   2.806  0.2317 -0.6616 -0.1355
  924SOL    HW1 2828   3.661   3.936   2.876  0.6409 -0.7994  0.2479
  924SOL    HW2 2829   3.655   3.829   2.769  0.1396 -0.8263  0.3003
  925SOL     OW 2830   1.004   2.579   3.247  0.7276 -0.1115  0.2171
  925SOL    HW1 2831   1.039   2.534   3.324 -0.9991  1.6512  2.1623
  925SOL    HW2 2832   0.933   2.523   3.216  0.0978  0.1536  1.1779
  926SOL     OW 2833   4.675   4.389   3.571  0.2413  0.5630 -0.6901
  926SOL    HW1 2834   4.649   4.470   3.615 -0.8851 -0.4344  0.5678
  926SOL    HW2 2835   4.749   4.415   3.516 -0.5071  2.5640 -0.8380
  927SOL     OW 2836   3.582   0.768   3.346  0.1508  0.2464 -0.3107
  927SOL    HW1 2837   3.566   0.673   3.346  1.8124 -0.0856  0.9399
  927SOL    HW2 2838   3.504   0.806   3.386 -0.2886 -0.6712 -0.2846
  928SOL     OW 2839   4.540   2.887   1.338  0.1213  0.3262 -0.0850
  928SOL    HW1 2840   4.575   2.898   1.249  0.7125 -2.6478 -0.3290
  928SOL    HW2 2841   4.445   2.883   1.326  0.2079 -0.2220 -0.6176
  929SOL     OW 2842   0.757   3.306   4.287 -0.2271  0.4386 -0.4018
  929SOL    HW1 2843   0.847   3.340   4.291 -0.6734  1.9177 -1.5751
  929SOL    HW2 2844   0.702   3.385   4.291 -1.4861 -0.4338  0.2219
  930SOL     OW 2845   2.199   2.351   3.599  0.2050  0.4029  0.1827
  930SOL    HW1 2846   2.276   2.295   3.589 -0.3918 -0.6745  1.3352
  930SOL    HW2 2847   2.220   2.408   3.673  0.1479  0.5606  0.0791
  931SOL     OW 2848   2.167   1.087   0.788 -0.4643  0.2064  0.2101
  931SOL    HW1 2849   2.211   1.132   0.716 -0.6561  1.2005  0.6920
  931SOL    HW2 2850   2.181   1.144   0.863 -1.8902  0.1391  0.5423
  932SOL     OW 2851   0.247   1.854   0.306  0.3550 -0.5971 -0.4941
  932SOL    HW1 2852   0.265   1.858   0.212 -2.3170  3.2882 -1.0950
  932SOL    HW2 2853   0.326   1.891   0.347  0.5522  0.1325 -1.4820
  933SOL     OW 2854   4.053   3.084   3.731  0.6517  0.2257 -0.1277
  933SOL    HW1 2855   4.030   3.174   3.756 -1.4535  0.0467 -1.2537
  933SOL    HW2 2856   4.093   3.047   3.810  1.8297  2.2124  0.2710
  934SOL     OW 2857   2.086   3.077   3.763 -0.0027 -0.2492  0.0650
  934SOL    HW1 2858   2.144   3.025   3.818  1.0572 -0.2187 -0.9945
  934SOL    HW2 2859   2.019   3.015   3.733  1.0083 -0.9491 -0.8486
  935SOL     OW 2860   0.168   1.148   0.547  0.1017  0.1772 -0.5068
  935SOL    HW1 2861   0.202   1.070   0.503 -1.3650 -0.8929  0.1553
  935SOL    HW2 2862   0.094   1.176   0.492  0.9936  1.5165 -1.0805
  936SOL     OW 2863   3.432   3.615   4.129 -0.0791  0.5383 -0.4113
  936SOL    HW1 2864   3.477   3.637   4.048  1.1670  2.4369  0.7268
  936SOL    HW2 2865   3.401   3.699   4.164  1.2287  0.1094  2.0717
  937SOL     OW 2866   3.519   3.003   0.612 -0.5120 -0.4655  0.0260
  937SOL    HW1 2867   3.525   3.098   0.620  0.3098 -0.6285  1.5607
  937SOL    HW2 2868   3.470   2.990   0.530 -0.3053  1.2519 -0.4199
  938SOL     OW 2869   4.274   1.227   2.849 -0.2478  0.3299 -0.4159
  938SOL    HW1 2870   4.314   1.188   2.771  2.3001  1.4077  0.2472
  938SOL    HW2 2871   4.219   1.297   2.814 -2.8219 -2.0056 -1.4408
  939SOL     OW 2872   1.071   1.965   2.739  0.3917  0.2629 -0.2271
  939SOL    HW1 2873   1.130   1.891   2.753  0.7490  0.7593  1.0973
  939SOL    HW2 2874   1.002   1.953   2.804 -0.5370  0.1331 -1.2143
  940SOL     OW 2875   0.558   0.357   3.768  0.1811 -0.3915 -0.1591
  940SOL    HW1 2876   0.585   0.281   3.717  0.8208 -1.1593  1.2693
  940SOL    HW2 2877   0.462   0.352   3.770  0.1518 -0.3461 -1.2652
  941SOL     OW 2878   4.350   2.079   0.419  0.2288 -0.1556 -0.2070
  941SOL    HW1 2879   4.410   2.151   0.398  1.6799 -1.2490 -0.0026
  941SOL    HW2 2880   4.352   2.072   0.514 -0.6296  0.1082 -0.1603
  942SOL     OW 2881   4.371   0.959   4.370  0.1580 -0.2622 -0.4262
  942SOL    HW1 2882   4.451   1.009   4.389 -0.1091 -0.0729  0.2478
  942SOL    HW2 2883   4.319   0.966   4.451 -0.3165 -0.8057 -0.6792
  943SOL     OW 2884   4.856   2.275   1.116 -0.0330  0.3700 -0.0717
  943SOL    HW1 2885   4.868   2.191   1.071 -0.3901  0.2172  0.1124
  943SOL    HW2 2886   4.824   2.251   1.202 -0.7932  0.7225 -0.2509
  944SOL     OW 2887   2.233   1.515   4.918  0.0988  0.4218  0.4139
  944SOL    HW1 2888   2.309   1.458   4.903 -0.7313 -1.5416  3.0825
  944SOL    HW2 2889   2.204   1.539   4.830  2.9592  0.1386 -0.7127
  945SOL     OW 2890   1.115   3.443   0.824 -0.0083 -0.5039 -0.3268
  945SOL    HW1 2891   1.072   3.487   0.750  1.9144  1.8258 -0.1856
  945SOL    HW2 2892   1.174   3.509   0.860  0.2920 -2.0855  2.3412
  946SOL     OW 2893   0.057   3.377   3.055  0.3400  0.3318 -0.0688
  946SOL    HW1 2894   0.020   3.407   3.138  0.7658  0.2878  0.1385
  946SOL    HW2 2895   0.150   3.399   3.061  0.5964 -0.7395 -0.0536
  947SOL     OW 2896   2.179   4.626   2.275  0.1121  0.0206  0.0884
  947SOL    HW1 2897   2.131   4.560   2.325 -0.0673  0.5381  0.6063
  947SOL    HW2 2898   2.116   4.658   2.210  0.4209 -0.8344 -0.6693
  948SOL     OW 2899   3.125   4.537   4.340 -0.0759 -0.8331  0.1310
  948SOL    HW1 2900   3.212   4.506   4.363  0.9491  2.1893  0.7310
  948SOL    HW2 2901   3.120   4.529   4.245  2.7990  3.1094 -0.6008
  949SOL     OW 2902   0.638   2.880   2.372  0.3774 -0.3490 -0.3544
  949SOL    HW1 2903   0.673   2.791   2.365 -1.9218 -1.4327  0.8266
  949SOL    HW2 2904   0.703   2.927   2.424  0.5619 -2.0061  1.0100
  950SOL     OW 2905   1.466   4.688   0.995 -0.5334 -0.0445 -0.3251
  950SOL    HW1 2906   1.453   4.734   0.912  1.4546  0.6910 -0.2848
  950SOL    HW2 2907   1.528   4.619   0.974 -1.0620 -0.7225  0.2951
  951SOL     OW 2908   0.593   4.225   2.711 -0.5837  0.2608  0.0902
  951SOL    HW1 2909   0.590   4.229   2.616 -0.3906  0.1083  0.0784
  951SOL    HW2 2910   0.620   4.313   2.738 -1.3112  0.5074  0.0336
  952SOL     OW 2911   1.694   4.394   0.658 -0.2106 -0.3578  0.9113
  952SOL    HW1 2912   1.711   4.418   0.567  0.0250 -1.7803  0.5550
  952SOL    HW2 2913   1.781   4.374   0.694 -0.5788 -4.2034  0.0994
  953SOL     OW 2914   1.526   0.164   0.574  0.2459 -0.2315 -0.3214
  953SOL    HW1 2915   1.553   0.220   0.646  1.4007  1.2399 -1.8252
  953SOL    HW2 2916   1.583   0.190   0.501 -0.5582 -1.9810 -1.6373
  954SOL     OW 2917   3.849   2.346   2.961 -1.1326  0.4085  1.0598
  954SOL    HW1 2918   3.758   2.360   2.935 -1.2520  1.0511  1.7709
  954SOL    HW2 2919   3.895   2.424   2.930 -0.4969 -0.6028 -0.6655
  955SOL     OW 2920   3.274   1.256   2.210 -0.1700 -0.2544 -0.3274
  955SOL    HW1 2921   3.348   1.201   2.236  0.1760  0.4640  0.2143
  955SOL    HW2 2922   3.207   1.193   2.181  0.0784 -0.9810  0.6304
  956SOL     OW 2923   1.115   0.519   3.762  0.0512  0.3707 -0.1264
  956SOL    HW1 2924   1.206   0.488   3.761 -0.4456 -1.3651  1.5315
  956SOL    HW2 2925   1.081   0.496   3.676  0.7556 -0.4076 -0.2109
  957SOL     OW 2926   3.143   4.551   0.171 -0.7475  0.1284  0.3686
  957SOL    HW1 2927   3.232   4.562   0.207  0.3702 -3.2211 -0.9163
  957SOL    HW2 2928   3.106   4.639   0.171  2.0933  1.4955  2.1307
  958SOL     OW 2929   2.923   1.847   0.930  0.3026  0.1032  0.1229
  958SOL    HW1 2930   2.918   1.753   0.946  1.4266 -0.4454 -2.2574
  958SOL    HW2 2931   2.839   1.881   0.958 -1.4129 -2.1560 -1.8286
  959SOL     OW 2932   2.844   0.425   3.083  0.1461  0.9401  0.3076
  959SOL    HW1 2933   2.754   0.439   3.113 -0.8001 -0.5295 -1.6282
  959SOL    HW2 2934   2.898   0.467   3.149 -1.9946  2.9699  0.8838
  960SOL     OW 2935   1.787   3.420   4.907  0.0863  0.2634 -0.2873
  960SOL    HW1 2936   1.858   3.482   4.926 -0.1006  0.2214  0.5977
  960SOL    HW2 2937   1.747   3.453   4.826  2.3218 -0.8106 -1.9291
  961SOL     OW 2938   3.560   2.783   0.778  0.0967  0.3286  0.6376
  961SOL    HW1 2939   3.547   2.873   0.749 -0.0885  0.1562  0.1799
  961SOL    HW2 2940   3.498   2.732   0.726 -0.3750  0.0329  1.4599
  962SOL     OW 2941   2.597   2.645   4.134  0.4738 -0.0375 -0.2395
  962SOL    HW1 2942   2.598   2.741   4.133  0.4387 -0.0388 -0.7796
  962SOL    HW2 2943   2.542   2.622   4.209  0.5805  0.3612 -0.0347
  963SOL     OW 2944   0.716   4.784   4.070 -0.0004  0.1461 -0.0739
  963SOL    HW1 2945   0.662   4.755   4.144 -1.0605  1.6193 -0.2340
  963SOL    HW2 2946   0.730   4.878   4.086  1.0366  0.1673 -0.9759
  964SOL     OW 2947   1.967   0.774   4.386  1.1935 -0.3820 -0.4902
  964SOL    HW1 2948   2.054   0.752   4.353  2.3531 -0.0602  2.1301
  964SOL    HW2 2949   1.971   0.754   4.480 -1.2134  0.7004 -0.0793
  965SOL     OW 2950   3.044   0.630   3.659 -0.6666 -0.2171 -0.2170
  965SOL    HW1 2951   3.101   0.559   3.689  0.0353  0.5645  0.3497
  965SOL    HW2 2952   2.995   0.656   3.737 -0.8791 -0.0408 -0.4083
  966SOL     OW 2953   3.678   0.467   0.619 -0.0882  0.0279 -0.0304
  966SOL    HW1 2954   3.657   0.482   0.712 -0.9866  1.3681 -0.4137
  966SOL    HW2 2955   3.749   0.404   0.621 -0.2213 -0.1297  1.5741
  967SOL     OW 2956   4.801   1.632   3.355 -0.1406 -0.4806 -0.9605
  967SOL    HW1 2957   4.754   1.676   3.426 -0.1707 -3.8586  1.3524
  967SOL    HW2 2958   4.737   1.625   3.284 -0.4285  2.0676 -1.0467
  968SOL     OW 2959   4.091   2.172   1.708 -0.5544 -0.1616  0.0734
  968SOL    HW1 2960   4.032   2.178   1.784  0.6318 -1.1225  1.1058
  968SOL    HW2 2961   4.154   2.105   1.732  0.0794 -0.2150 -1.6378
  969SOL     OW 2962   2.053   4.326   0.496 -0.4886  0.0625  0.2733
  969SOL    HW1 2963   2.110   4.380   0.441  0.4859 -0.9065  0.2915
  969SOL    HW2 2964   1.981   4.301   0.439  0.6109 -1.0979 -0.6694
  970SOL     OW 2965   3.137   0.172   3.645  0.0445 -0.1527 -0.3264
  970SOL    HW1 2966   3.216   0.187   3.697 -0.5413 -1.1586  0.9115
  970SOL    HW2 2967   3.066   0.175   3.709 -0.8266 -0.2175 -1.2702
  971SOL     OW 2968   1.020   1.687   1.363  0.1674  0.5402  0.1444
  971SOL    HW1 2969   1.070   1.758   1.323 -0.5749  1.5295  0.9350
  971SOL    HW2 2970   1.076   1.656   1.435  0.0384  1.0601  0.4765
  972SOL     OW 2971   2.901   0.042   3.030  0.2156 -0.9393  0.0563
  972SOL    HW1 2972   2.992   0.065   3.048 -0.2552  1.4549 -0.2229
  972SOL    HW2 2973   2.904  -0.048   2.999  2.4492 -0.9952  0.3069
  973SOL     OW 2974   1.397   3.967   3.425  0.1224  0.1898 -0.4085
  973SOL    HW1 2975   1.451   3.997   3.499 -0.0261 -0.8071  0.1129
  973SOL    HW2 2976   1.459   3.921   3.368 -0.2249 -1.4472  0.4630
  974SOL     OW 2977   2.102   0.878   1.116 -0.4353  0.0157 -0.3484
  974SOL    HW1 2978   2.026   0.936   1.108 -0.3791  0.2960  0.9213
  974SOL    HW2 2979   2.158   0.922   1.180 -0.9697 -2.0363  1.6476
  975SOL     OW 2980   2.656   0.612   4.010  0.1312 -0.0503  0.3558
  975SOL    HW1 2981   2.720   0.659   4.063 -1.1511 -0.7238  2.6171
  975SOL    HW2 2982   2.681   0.520   4.017 -0.3947 -0.2028  0.3163
  976SOL     OW 2983   3.645   1.400   0.881 -0.5433 -0.7393 -1.0125
  976SOL    HW1 2984   3.574   1.374   0.822 -2.3292 -1.7297  1.3856
  976SOL    HW2 2985   3.604   1.463   0.941 -0.3438 -3.3324  2.1367
  977SOL     OW 2986   1.223   3.859   2.033 -0.0727 -0.2647 -0.2044
  977SOL    HW1 2987   1.297   3.826   2.083  0.0489 -0.7868 -0.7213
  977SOL    HW2 2988   1.255   3.862   1.942 -0.9809 -1.3993 -0.5806
  978SOL     OW 2989   4.293   0.011   2.657 -0.7921  0.1066  0.6477
  978SOL    HW1 2990   4.323  -0.036   2.580  0.0063 -0.7358  1.4480
  978SOL    HW2 2991   4.269  -0.058   2.720  0.1361  0.7469  1.7462
  979SOL     OW 2992   1.142   2.580   3.893  0.5412  0.8056  0.0548
  979SOL    HW1 2993   1.074   2.629   3.848 -0.7631 -0.6033  0.4216
  979SOL    HW2 2994   1.177   2.641   3.958 -1.1368  1.2242  0.6003
  980SOL     OW 2995   2.549   0.137   3.718  0.5672 -0.6239 -0.3660
  980SOL    HW1 2996   2.593   0.071   3.772 -1.9523 -0.0963  2.5584
  980SOL    HW2 2997   2.609   0.212   3.719 -0.1827  0.1388  3.6406
  981SOL     OW 2998   1.103   1.600   3.566 -0.1165  0.9832  0.0050
  981SOL    HW1 2999   1.146   1.635   3.488 -1.0726 -0.7607 -1.3626
  981SOL    HW2 3000   1.027   1.553   3.533 -0.5836  0.2209  2.0087
  982SOL     OW 3001   4.341   4.045   2.034 -0.1424 -0.4319 -0.0670
  982SOL    HW1 3002   4.362   4.130   2.072 -0.7913 -0.5812  0.6393
  982SOL    HW2 3003   4.397   3.983   2.081  1.5756 -0.2386 -1.7150
  983SOL     OW 3004   3.558   4.208   4.843  0.0420  0.2907 -0.7505
  983SOL    HW1 3005   3.469   4.200   4.877  0.6413  0.5868  0.9751
  983SOL    HW2 3006   3.614   4.195   4.920  1.5698 -1.9865 -2.1302
  984SOL     OW 3007   3.873   1.659   1.143  0.0569 -0.4310  0.0496
  984SOL    HW1 3008   3.867   1.600   1.218  0.6592 -1.6998 -0.8715
  984SOL    HW2 3009   3.966   1.671   1.129 -0.0450 -0.5054 -0.7191
  985SOL     OW 3010   2.825   2.314   4.825 -0.0461  0.3462 -0.1562
  985SOL    HW1 3011   2.846   2.394   4.776 -0.5260  0.5526 -0.0272
  985SOL    HW2 3012   2.850   2.243   4.766 -1.1145  0.5930 -0.9283
  986SOL     OW 3013   2.518   0.935   3.575  0.4768  0.2370 -0.8683
  986SOL    HW1 3014   2.587   0.875   3.548 -0.4767 -0.1729 -2.5305
  986SOL    HW2 3015   2.509   0.995   3.501 -0.8559  0.3608 -0.6304
  987SOL     OW 3016   0.469   3.305   4.976 -0.3545  0.6499 -0.4525
  987SOL    HW1 3017   0.499   3.310   4.885  1.6216 -0.7557  0.0698
  987SOL    HW2 3018   0.545   3.277   5.026 -1.2693  1.8398  1.7542
  988SOL     OW 3019   2.422   1.085   3.922  0.8222  0.2160  0.0215
  988SOL    HW1 3020   2.463   1.101   4.007 -1.4489  0.6144  1.1146
  988SOL    HW2 3021   2.411   0.990   3.919 -1.6607  0.3680  1.5490
  989SOL     OW 3022   4.213   2.985   2.294  0.1620  0.3345  0.0356
  989SOL    HW1 3023   4.247   2.906   2.336 -0.9065 -0.7455 -1.0473
  989SOL    HW2 3024   4.290   3.026   2.254  0.5910 -0.6377 -0.1509
  990SOL     OW 3025   1.072   1.579   0.808 -0.4135  0.1481  0.5927
  990SOL    HW1 3026   1.102   1.572   0.899 -0.8343 -1.4072  0.6345
  990SOL    HW2 3027   1.150   1.601   0.758 -0.1557  0.9053  1.3129
  991SOL     OW 3028   3.901   4.851   1.852 -0.4172 -0.0385 -0.4320
  991SOL    HW1 3029   3.874   4.763   1.876 -1.0699  0.5734  1.1828
  991SOL    HW2 3030   3.825   4.906   1.870  0.9551  1.3147  1.6050
  992SOL     OW 3031   4.201   0.872   0.153 -0.2410 -0.2554  0.2529
  992SOL    HW1 3032   4.295   0.874   0.170 -0.3287  2.9288  0.8884
  992SOL    HW2 3033   4.167   0.948   0.199 -2.6342  0.6070 -2.6672
  993SOL     OW 3034   4.687   2.890   1.553  0.0607 -0.5634  0.1557
  993SOL    HW1 3035   4.763   2.929   1.511  0.4884 -1.3487  0.1750
  993SOL    HW2 3036   4.620   2.888   1.485  0.0886  0.0285  0.1058
  994SOL     OW 3037   4.278   4.242   4.132  0.2071 -0.4621 -0.3295
  994SOL    HW1 3038   4.301   4.334   4.122 -2.0621  0.1477 -0.3697
  994SOL    HW2 3039   4.286   4.225   4.225 -0.3632  0.0628 -0.1842
  995SOL     OW 3040   4.439   4.605   3.227 -0.4181  0.6493  0.2215
  995SOL    HW1 3041   4.410   4.531   3.280 -0.3805  0.1844 -0.3975
  995SOL    HW2 3042   4.417   4.581   3.137  1.8496  0.2853 -0.2932
  996SOL     OW 3043   4.140   3.251   2.208 -0.2064  0.1182  0.5723
  996SOL    HW1 3044   4.120   3.170   2.254  0.8008 -0.2684  0.3789
  996SOL    HW2 3045   4.194   3.223   2.134  0.4693  0.9998  0.7110
  997SOL     OW 3046   1.372   3.377   2.926  0.1863 -0.3860  0.4939
  997SOL    HW1 3047   1.422   3.299   2.948  0.6915 -0.7263 -1.6177
  997SOL    HW2 3048   1.281   3.353   2.942  0.2864 -1.6349 -0.6861
  998SOL     OW 3049   3.476   2.919   2.739  0.1330  0.1982  0.1734
  998SOL    HW1 3050   3.445   2.958   2.821 -0.6107 -1.2668  0.6373
  998SOL    HW2 3051   3.527   2.842   2.767 -1.1713 -1.0467 -0.7108
  999SOL     OW 3052   4.580   3.134   0.008 -0.3875 -0.2415 -0.9004
  999SOL    HW1 3053   4.531   3.091  -0.062 -0.4981 -1.1058 -0.3178
  999SOL    HW2 3054   4.630   3.063   0.049 -1.2033  0.0044  0.6253
 1000SOL     OW 3055   4.707   2.013   4.426  0.1336 -0.0063  0.0605
 1000SOL    HW1 3056   4.767   2.072   4.379 -0.1214  0.4671  0.3228
 1000SOL    HW2 3057   4.621   2.033   4.389 -0.0557  0.3017  0.6610
 1001SOL     OW 3058   1.924   1.448   4.437  0.2704  0.1672  0.0724
 1001SOL    HW1 3059   1.912   1.399   4.519  0.0539 -3.0871 -1.7136
 1001SOL    HW2 3060   2.012   1.484   4.443  0.0036  0.6091  1.9880
 1002SOL     OW 3061   0.153   1.575   0.960  0.4938  0.2809 -0.4182
 1002SOL    HW1 3062   0.164   1.567   1.055 -1.5874  3.7642  0.2972
 1002SOL    HW2 3063   0.064   1.544   0.944  0.6089  0.3029 -1.1271
 1003SOL     OW 3064   0.179   4.973   4.898  0.1741  0.0726 -0.3007
 1003SOL    HW1 3065   0.181   4.963   4.994 -0.9464  0.3717 -0.2316
 1003SOL    HW2 3066   0.102   4.925   4.871 -0.2661  1.0877 -0.9099
 1004SOL     OW 3067   2.594   2.956   2.435 -0.0404  0.4769  0.1952
 1004SOL    HW1 3068   2.502   2.979   2.446 -0.3213 -0.3710 -0.2301
 1004SOL    HW2 3069   2.593   2.860   2.426  0.8199  0.5071 -0.3405
 1005SOL     OW 3070   2.656   0.673   2.888  0.4148  0.3541  0.3074
 1005SOL    HW1 3071   2.739   0.632   2.864 -0.0715  0.3534 -1.6041
 1005SOL    HW2 3072   2.591   0.604   2.878 -0.4480  1.4308 -3.1733
 1006SOL     OW 3073   2.218   2.799   1.456 -0.0225 -0.4401 -0.2381
 1006SOL    HW1 3074   2.215   2.891   1.428  1.9367 -1.0169 -2.7056
 1006SOL    HW2 3075   2.308   2.771   1.437 -0.6308 -2.9465  0.2470
 1007SOL     OW 3076   4.670   2.595   3.191  0.1705 -0.1514  0.4614
 1007SOL    HW1 3077   4.717   2.662   3.142 -0.7829  1.0667  1.1595
 1007SOL    HW2 3078   4.692   2.513   3.148 -1.0225  0.8838 -2.3094
 1008SOL     OW 3079   0.234   1.173   4.894  0.0501  0.0364  0.0027
 1008SOL    HW1 3080   0.146   1.137   4.886  0.3082 -0.6965  0.3613
 1008SOL    HW2 3081   0.272   1.161   4.807 -0.2398  0.4498 -0.1814
 1009SOL     OW 3082   1.652   0.759   2.045 -0.2615  0.2921  0.1333
 1009SOL    HW1 3083   1.725   0.822   2.043 -2.3285  2.8881 -0.3556
 1009SOL    HW2 3084   1.581   0.807   2.088 -2.9039 -0.5448 -2.8989
 1010SOL     OW 3085   3.759   3.739   2.449  0.6711 -0.1682 -0.1747
 1010SOL    HW1 3086   3.845   3.716   2.414  1.0205  0.5636  0.1600
 1010SOL    HW2 3087   3.770   3.830   2.480  0.2679 -0.6227  1.4122
 1011SOL     OW 3088   4.539   1.774   4.805 -0.0509  0.0072 -0.1000
 1011SOL    HW1 3089   4.604   1.829   4.762  1.6326 -1.2815  0.6856
 1011SOL    HW2 3090   4.522   1.817   4.889  1.6127 -0.8521  0.7154
 1012SOL     OW 3091   3.531   2.677   2.910 -0.4198  0.2500  0.2693
 1012SOL    HW1 3092   3.569   2.589   2.909 -0.2333  0.3233  0.5033
 1012SOL    HW2 3093   3.590   2.727   2.967 -0.4307  0.5679  0.0059
 1013SOL     OW 3094   4.566   0.401   3.882  0.1911 -0.1095 -0.1490
 1013SOL    HW1 3095   4.655   0.413   3.914  0.6240 -0.3247 -1.2306
 1013SOL    HW2 3096   4.513   0.460   3.937  1.1874  1.0154 -0.3460
 1014SOL     OW 3097   1.267   4.033   0.348  0.4236 -0.5272 -0.0309
 1014SOL    HW1 3098   1.172   4.026   0.348  0.3343  0.5668 -0.0337
 1014SOL    HW2 3099   1.290   4.043   0.255  0.5282 -0.5940 -0.0127
 1015SOL     OW 3100   1.098   0.526   2.597  0.0015 -0.1097  0.5632
 1015SOL    HW1 3101   1.039   0.451   2.599  1.6743 -1.5948 -1.2310
 1015SOL    HW2 3102   1.136   0.530   2.685 -0.9515 -0.6537  1.0073
 1016SOL     OW 3103   2.786   4.237   2.064 -0.6039  0.3711  0.5232
 1016SOL    HW1 3104   2.747   4.254   2.150  0.7636  2.6471  0.7759
 1016SOL    HW2 3105   2.775   4.319   2.016  0.6182 -0.1433 -0.6969
 1017SOL     OW 3106   1.450   1.795   2.904  0.3199  0.0479 -0.5462
 1017SOL    HW1 3107   1.521   1.737   2.932  0.5945  0.2475 -0.8209
 1017SOL    HW2 3108   1.397   1.742   2.844 -0.0342 -0.2498  0.0262
 1018SOL     OW 3109   4.479   2.966   3.115  0.0791 -0.5113  0.2057
 1018SOL    HW1 3110   4.517   2.934   3.033  0.2537 -1.3389  0.6025
 1018SOL    HW2 3111   4.394   3.002   3.089  1.4901  2.3212 -0.8526
 1019SOL     OW 3112   3.765   1.920   4.734  0.5033 -0.1448 -0.4219
 1019SOL    HW1 3113   3.847   1.968   4.721 -0.3418  2.1810  1.9975
 1019SOL    HW2 3114   3.792   1.829   4.746  2.6372  0.4250 -0.5261
 1020SOL     OW 3115   3.991   4.965   4.145 -0.9604  0.5100 -0.1119
 1020SOL    HW1 3116   3.988   4.978   4.051  1.5866 -0.2641 -0.3784
 1020SOL    HW2 3117   3.969   4.872   4.158  0.4513  0.1391 -0.1702
 1021SOL     OW 3118   4.449   4.822   2.900 -0.0142  0.3937 -0.0020
 1021SOL    HW1 3119   4.489   4.821   2.813  0.5671  0.2341  0.2586
 1021SOL    HW2 3120   4.513   4.866   2.955  0.8286 -1.7660  0.8731
 1022SOL     OW 3121   4.509   0.253   1.823 -0.0069 -0.9379  0.0657
 1022SOL    HW1 3122   4.535   0.171   1.782  0.3655 -0.6541 -0.2774
 1022SOL    HW2 3123   4.491   0.230   1.914 -0.3093 -1.4709 -0.1274
 1023SOL     OW 3124   4.654   1.770   4.233  0.4093 -0.0913  0.4646
 1023SOL    HW1 3125   4.634   1.734   4.320  0.2931 -0.4541  0.2913
 1023SOL    HW2 3126   4.703   1.850   4.251 -1.1289  0.7992  0.9083
 1024SOL     OW 3127   4.941   0.227   4.244 -0.2778  0.3578 -0.1433
 1024SOL    HW1 3128   4.964   0.254   4.333 -1.1707  0.0189  0.1976
 1024SOL    HW2 3129   5.018   0.250   4.191  0.3728  0.2978  0.7620
 1025SOL     OW 3130   4.686   1.309   3.330  0.0545 -0.2592 -0.3477
 1025SOL    HW1 3131   4.629   1.236   3.304 -0.5734  0.8763 -2.3707
 1025SOL    HW2 3132   4.774   1.281   3.303 -0.2383 -0.1250 -1.4754
 1026SOL     OW 3133   1.440   1.601   1.182 -0.1829 -0.0358 -0.6110
 1026SOL    HW1 3134   1.466   1.566   1.268  0.6608 -0.5711 -1.0691
 1026SOL    HW2 3135   1.375   1.539   1.150  0.5470 -0.6453 -0.9640
 1027SOL     OW 3136   0.430   0.444   2.883 -0.0499 -0.1976  0.6553
 1027SOL    HW1 3137   0.419   0.514   2.948 -0.1085 -0.7712  1.2668
 1027SOL    HW2 3138   0.392   0.366   2.924 -0.1305 -0.5561 -0.0886
 1028SOL     OW 3139   3.541   3.429   1.776 -0.2972  0.3716 -0.1987
 1028SOL    HW1 3140   3.629   3.395   1.787 -0.1026  0.2150 -1.9972
 1028SOL    HW2 3141   3.540   3.510   1.827  1.0359  0.6185 -0.5399
 1029SOL     OW 3142   0.639   0.672   0.373  0.0705  0.2173 -0.0192
 1029SOL    HW1 3143   0.559   0.621   0.391  1.0153 -1.0854  0.6819
 1029SOL    HW2 3144   0.676   0.688   0.459  1.3562 -0.5515 -0.3998
 1030SOL     OW 3145   0.481   1.219   0.194 -0.1193 -0.3697 -0.1666
 1030SOL    HW1 3146   0.482   1.251   0.285  1.2269  1.9388 -0.8949
 1030SOL    HW2 3147   0.401   1.257   0.157  0.8610  1.3023 -0.6982
 1031SOL     OW 3148   2.209   4.798   0.809 -0.2110  0.3537  0.0258
 1031SOL    HW1 3149   2.294   4.821   0.847 -0.0661 -0.8301  0.4601
 1031SOL    HW2 3150   2.224   4.801   0.715  0.2290  0.4861  0.0966
 1032SOL     OW 3151   1.535   3.441   4.079  0.5606 -0.1647  0.1918
 1032SOL    HW1 3152   1.518   3.518   4.134  3.0443  1.4883 -1.1615
 1032SOL    HW2 3153   1.609   3.398   4.122  1.2360  0.0318 -0.7460
 1033SOL     OW 3154   3.576   1.273   2.021 -0.2095 -0.2155 -0.2874
 1033SOL    HW1 3155   3.511   1.216   1.981 -1.4186  0.9641 -0.0622
 1033SOL    HW2 3156   3.581   1.349   1.963 -1.3111  1.0988  1.2382
 1034SOL     OW 3157   4.016   1.003   0.347  0.0328  0.2853  0.0113
 1034SOL    HW1 3158   3.955   1.072   0.370 -1.0172 -1.0120  1.2806
 1034SOL    HW2 3159   4.071   0.992   0.424  1.1107  0.5940 -0.6769
 1035SOL     OW 3160   1.125   0.905   0.016  0.5195  0.8289  0.2632
 1035SOL    HW1 3161   1.031   0.899   0.033  0.3290  1.6713 -0.4145
 1035SOL    HW2 3162   1.151   0.815  -0.006 -0.1411  0.6070  0.3665
 1036SOL     OW 3163   2.248   2.043   1.504 -0.0862  0.0217 -0.3712
 1036SOL    HW1 3164   2.159   2.014   1.523  0.6566 -1.2568  1.4744
 1036SOL    HW2 3165   2.249   2.056   1.409 -1.8770 -1.2064 -0.6181
 1037SOL     OW 3166   2.924   0.751   3.457 -0.0460 -0.3949  0.0854
 1037SOL    HW1 3167   2.860   0.790   3.516  1.5459  1.8665  0.4376
 1037SOL    HW2 3168   2.980   0.698   3.514 -0.7910 -1.3333 -0.0301
 1038SOL     OW 3169   4.900   1.516   4.218  0.1060 -0.3754 -0.0624
 1038SOL    HW1 3170   4.944   1.601   4.211 -0.1592 -0.1366  0.9791
 1038SOL    HW2 3171   4.894   1.500   4.313 -0.3486 -1.2966 -0.2353
 1039SOL     OW 3172   0.985   3.900   4.651 -0.0040 -0.0945  0.0225
 1039SOL    HW1 3173   1.039   3.822   4.646 -1.0281 -0.7751 -0.6770
 1039SOL    HW2 3174   0.946   3.897   4.738 -2.2295 -1.8871 -0.9556
 1040SOL     OW 3175   4.822   2.958   4.307  0.2347 -0.1349 -0.1323
 1040SOL    HW1 3176   4.882   2.965   4.381 -0.6397 -0.6603  0.6522
 1040SOL    HW2 3177   4.838   3.037   4.256  2.4603 -0.8531 -0.6340
 1041SOL     OW 3178   0.748   3.122   1.907 -0.3618 -0.8432  0.2778
 1041SOL    HW1 3179   0.755   3.212   1.875 -2.0060 -0.2355  1.5224
 1041SOL    HW2 3180   0.689   3.079   1.846 -2.4954 -0.0242  1.6434
 1042SOL     OW 3181   0.898   2.876   4.552 -0.4778  0.2459  0.1917
 1042SOL    HW1 3182   0.925   2.786   4.530  0.9646  0.0549  2.3811
 1042SOL    HW2 3183   0.980   2.924   4.560 -1.2445  1.7939 -0.9469
 1043SOL     OW 3184   2.374   0.337   3.960  0.0207  0.0921 -0.1789
 1043SOL    HW1 3185   2.393   0.248   3.929  0.9988  0.4688 -0.7155
 1043SOL    HW2 3186   2.281   0.335   3.982 -0.0579 -0.9674 -0.5270
 1044SOL     OW 3187   1.169   1.160   2.525  0.2669  0.9787 -0.5777
 1044SOL    HW1 3188   1.109   1.092   2.555  0.5696  1.0117  0.1381
 1044SOL    HW2 3189   1.256   1.120   2.531  0.4655  1.4857  0.0395
 1045SOL     OW 3190   1.723   1.697   1.329 -0.1912  0.2642 -0.3654
 1045SOL    HW1 3191   1.663   1.772   1.325 -0.6264 -0.0433  0.3948
 1045SOL    HW2 3192   1.797   1.729   1.382  1.3813  1.3616 -3.0060
 1046SOL     OW 3193   2.483   3.920   4.269  0.0818  0.4095  0.8547
 1046SOL    HW1 3194   2.521   4.006   4.252 -0.2678  1.1043  3.2600
 1046SOL    HW2 3195   2.540   3.882   4.336 -0.2476 -0.9131  0.4181
 1047SOL     OW 3196   2.973   4.911   4.854 -0.1213  0.6702 -0.0957
 1047SOL    HW1 3197   3.064   4.936   4.872  0.3049 -0.0347 -1.2027
 1047SOL    HW2 3198   2.978   4.818   4.830 -0.9917  0.9021 -1.2188
 1048SOL     OW 3199   4.934   2.918   3.728  0.3962 -0.3626  0.1435
 1048SOL    HW1 3200   5.008   2.927   3.789 -0.6568 -0.0881  1.4179
 1048SOL    HW2 3201   4.886   2.842   3.759 -0.1045 -0.2718 -0.4020
 1049SOL     OW 3202   0.240   2.895   3.198 -0.9095 -0.2358 -0.5202
 1049SOL    HW1 3203   0.318   2.840   3.197 -0.2216  0.6396  1.3339
 1049SOL    HW2 3204   0.170   2.836   3.228 -0.5002 -0.4802 -0.0406
 1050SOL     OW 3205   4.156   0.167   0.329  0.4246 -0.5354 -0.1837
 1050SOL    HW1 3206   4.077   0.220   0.343  0.8701 -0.1099  0.9087
 1050SOL    HW2 3207   4.169   0.123   0.413  0.4958 -1.8179 -0.8433
 1051SOL     OW 3208   1.430   3.209   2.096  0.3616 -0.1223 -0.1766
 1051SOL    HW1 3209   1.440   3.255   2.012 -0.3094 -0.6857 -0.5767
 1051SOL    HW2 3210   1.405   3.120   2.071 -1.1675  0.0461  0.6389
 1052SOL     OW 3211   2.281   2.909   0.349 -0.0625 -0.6699 -0.1371
 1052SOL    HW1 3212   2.210   2.962   0.385  1.5128  0.7428  1.0775
 1052SOL    HW2 3213   2.307   2.851   0.421  2.7017  1.7420  1.0091
 1053SOL     OW 3214   1.869   0.249   2.783 -0.0479 -0.0331 -0.3004
 1053SOL    HW1 3215   1.776   0.225   2.788 -0.1212  0.2394 -0.3532
 1053SOL    HW2 3216   1.869   0.343   2.769  0.2541  0.2471  1.3135
 1054SOL     OW 3217   2.855   4.708   3.767 -0.2192  0.0049 -0.3600
 1054SOL    HW1 3218   2.865   4.615   3.744  0.4162 -0.7136  2.4111
 1054SOL    HW2 3219   2.941   4.746   3.748  0.0614 -0.3936  0.0840
 1055SOL     OW 3220   4.587   4.220   4.767  0.9586 -0.3621 -0.0208
 1055SOL    HW1 3221   4.565   4.170   4.846  0.2709 -0.8152 -0.4857
 1055SOL    HW2 3222   4.655   4.168   4.724  3.2988  1.1803  1.5626
 1056SOL     OW 3223   2.178   4.419   1.941  0.3046 -0.1234  0.2951
 1056SOL    HW1 3224   2.132   4.347   1.984  0.9005 -0.3312  0.6045
 1056SOL    HW2 3225   2.236   4.454   2.009 -0.9157  1.5210  0.5719
 1057SOL     OW 3226   2.383   1.784   1.530 -0.7430  0.4782 -0.5305
 1057SOL    HW1 3227   2.329   1.863   1.539  0.6266  1.5062 -1.0956
 1057SOL    HW2 3228   2.471   1.812   1.554 -0.4423 -1.2087  0.4952
 1058SOL     OW 3229   2.107   2.757   2.489 -0.2238  0.3719  0.8842
 1058SOL    HW1 3230   2.168   2.687   2.513 -0.8587 -0.1275  1.0544
 1058SOL    HW2 3231   2.028   2.738   2.539 -1.1944 -0.0465 -0.7548
 1059SOL     OW 3232   4.478   0.574   0.599  0.3129  0.5522 -0.4148
 1059SOL    HW1 3233   4.432   0.635   0.657 -0.6764 -0.5920  0.0593
 1059SOL    HW2 3234   4.410   0.511   0.572  1.0303  0.3329 -1.8331
 1060SOL     OW 3235   1.052   3.146   1.799 -0.1331 -0.3368 -0.5227
 1060SOL    HW1 3236   1.054   3.066   1.851  0.0811 -1.6518 -2.4682
 1060SOL    HW2 3237   1.054   3.116   1.708 -0.1059  1.8805 -1.3103
 1061SOL     OW 3238   4.931   0.812   1.107 -0.0893  0.0716  0.0730
 1061SOL    HW1 3239   4.985   0.734   1.097 -1.2987 -0.8527  0.6109
 1061SOL    HW2 3240   4.905   0.834   1.017 -0.1498 -0.4187 -0.0303
 1062SOL     OW 3241   3.051   0.048   0.394  0.0408  0.2326 -0.2758
 1062SOL    HW1 3242   3.111   0.096   0.451 -2.5984  1.3812  1.7676
 1062SOL    HW2 3243   3.042  -0.038   0.436 -0.8031  0.5722  0.2601
 1063SOL     OW 3244   2.677   4.362   4.399 -0.3163 -0.1920 -0.4383
 1063SOL    HW1 3245   2.737   4.385   4.328 -0.0252 -1.5822 -0.6895
 1063SOL    HW2 3246   2.713   4.406   4.476  1.6724 -1.7564 -0.3778
 1064SOL     OW 3247   3.989   1.749   4.397 -0.1157  0.0854 -0.1799
 1064SOL    HW1 3248   4.011   1.723   4.307  0.2936  1.5214 -0.5116
 1064SOL    HW2 3249   3.897   1.723   4.408  0.6920 -3.0356  0.1213
 1065SOL     OW 3250   4.013   4.259   4.509  0.0825 -0.1561 -0.4160
 1065SOL    HW1 3251   3.961   4.213   4.443 -1.7009 -0.1400  0.9060
 1065SOL    HW2 3252   3.950   4.313   4.556  1.1932 -0.4737  1.5689
 1066SOL     OW 3253   4.432   0.551   2.705 -0.0578  0.5635  0.4378
 1066SOL    HW1 3254   4.378   0.629   2.714 -1.4793 -0.2619 -0.5913
 1066SOL    HW2 3255   4.392   0.502   2.633  1.4625 -0.5828  0.3234
 1067SOL     OW 3256   1.218   4.455   2.277 -0.0275  0.4452  0.6461
 1067SOL    HW1 3257   1.215   4.371   2.323  4.4347  0.0753  0.6888
 1067SOL    HW2 3258   1.212   4.521   2.346 -1.7904  0.2226  0.7707
 1068SOL     OW 3259   3.134   4.309   4.157 -0.0831 -0.5369  0.0489
 1068SOL    HW1 3260   3.184   4.277   4.082  0.4004  1.4086 -0.5410
 1068SOL    HW2 3261   3.195   4.301   4.231  1.3240  1.9552 -0.6893
 1069SOL     OW 3262   0.242   2.176   4.456 -0.2921  0.5750 -0.4797
 1069SOL    HW1 3263   0.256   2.081   4.455 -2.0420  0.2766 -0.1488
 1069SOL    HW2 3264   0.255   2.201   4.548  1.7777  0.9617 -0.8389
 1070SOL     OW 3265   2.752   0.436   0.042  0.2505  0.1961  0.3243
 1070SOL    HW1 3266   2.735   0.465   0.132  1.6927 -2.7970  1.7132
 1070SOL    HW2 3267   2.694   0.360   0.030  0.4632  0.2322 -1.1144
 1071SOL     OW 3268   0.533   1.543   2.264 -0.1810  0.2754  0.0857
 1071SOL    HW1 3269   0.601   1.573   2.204 -1.6277  2.5415 -0.5669
 1071SOL    HW2 3270   0.577   1.480   2.320  2.9196  2.7122  0.7065
 1072SOL     OW 3271   0.271   2.415   2.130 -0.5498  0.1493 -0.7330
 1072SOL    HW1 3272   0.274   2.331   2.176 -0.8087  1.6208  2.2195
 1072SOL    HW2 3273   0.193   2.459   2.166  0.4620  2.2694 -0.9619
 1073SOL     OW 3274   4.655   2.415   3.619  0.1033  0.1981 -0.1773
 1073SOL    HW1 3275   4.748   2.396   3.604  0.9231  2.5222  1.3613
 1073SOL    HW2 3276   4.638   2.381   3.707 -0.3997  0.1308 -0.2983
 1074SOL     OW 3277   3.446   0.943   4.906 -0.6971 -0.1595 -0.3197
 1074SOL    HW1 3278   3.462   0.915   4.816 -0.8346  0.0234 -0.4026
 1074SOL    HW2 3279   3.533   0.963   4.941 -0.5336 -1.1987 -0.0837
 1075SOL     OW 3280   2.704   1.872   0.073 -0.1463 -0.2822  0.2437
 1075SOL    HW1 3281   2.736   1.962   0.079 -1.8934  0.3497  0.8927
 1075SOL    HW2 3282   2.771   1.826   0.023 -0.2800  1.9219 -2.1788
 1076SOL     OW 3283   0.281   0.616   0.774  0.3811  0.7152 -0.4204
 1076SOL    HW1 3284   0.339   0.569   0.832  1.2897  1.7600 -0.4524
 1076SOL    HW2 3285   0.203   0.561   0.768  0.9190 -0.1730  0.4925
 1077SOL     OW 3286   0.982   2.354   3.449  0.1225  0.8460 -0.2566
 1077SOL    HW1 3287   1.060   2.301   3.466 -1.1295 -0.7775  0.6281
 1077SOL    HW2 3288   0.923   2.296   3.401 -1.0560  1.5889  0.2433
 1078SOL     OW 3289   0.565   3.152   4.174 -0.1458 -0.0344  0.7451
 1078SOL    HW1 3290   0.639   3.189   4.222 -0.0134  0.4385  0.1924
 1078SOL    HW2 3291   0.519   3.099   4.238  0.2885  0.2149  1.2732
 1079SOL     OW 3292   2.568   3.036   1.432 -0.5036 -1.0916  0.1517
 1079SOL    HW1 3293   2.649   3.065   1.389 -1.9386  2.4653 -0.5017
 1079SOL    HW2 3294   2.575   3.071   1.521 -2.0430  1.1300 -0.4917
 1080SOL     OW 3295   4.880   2.084   2.996  0.9548  0.1666  0.0174
 1080SOL    HW1 3296   4.959   2.034   3.017  0.7331 -0.8293 -1.3463
 1080SOL    HW2 3297   4.882   2.093   2.901 -0.6990 -0.1186 -0.0727
 1081SOL     OW 3298   3.089   0.435   1.104 -0.3371 -0.0087  0.0072
 1081SOL    HW1 3299   2.999   0.449   1.076 -0.5868  1.2900  1.3204
 1081SOL    HW2 3300   3.089   0.347   1.141 -2.1063  1.2915  3.5221
 1082SOL     OW 3301   3.487   1.466   4.955  0.0570  0.4299 -0.3085
 1082SOL    HW1 3302   3.564   1.408   4.957  0.5084  1.0133  1.3157
 1082SOL    HW2 3303   3.459   1.466   4.864  2.3598  0.6801 -1.0776
 1083SOL     OW 3304   2.767   1.353   1.755  0.6058 -0.5396 -0.0844
 1083SOL    HW1 3305   2.761   1.357   1.659  1.4036 -0.0950 -0.1289
 1083SOL    HW2 3306   2.677   1.366   1.785  0.6120  1.4140 -0.7379
 1084SOL     OW 3307   2.277   1.064   1.234 -0.1305  0.3246 -0.0530
 1084SOL    HW1 3308   2.255   1.068   1.327  0.3619  1.9809  0.0205
 1084SOL    HW2 3309   2.302   1.154   1.211  1.8622 -0.4700 -1.2637
 1085SOL     OW 3310   3.220   0.045   4.878 -0.1086 -0.4175  0.3217
 1085SOL    HW1 3311   3.270   0.084   4.806 -0.5958 -1.5431 -0.6668
 1085SOL    HW2 3312   3.237   0.102   4.953  0.9797  0.3928 -0.5069
 1086SOL     OW 3313   2.398   4.745   2.348  0.6556  0.1697  0.3768
 1086SOL    HW1 3314   2.318   4.703   2.316  1.2289 -0.4785 -0.2278
 1086SOL    HW2 3315   2.376   4.838   2.351 -0.4233 -0.0901  1.1225
 1087SOL     OW 3316   4.565   4.975   0.860  0.7353 -0.0719 -0.0812
 1087SOL    HW1 3317   4.499   4.962   0.929  1.9910 -1.9475  0.8375
 1087SOL    HW2 3318   4.540   5.058   0.819 -1.0074  0.2912  1.5622
 1088SOL     OW 3319   3.223   3.769   3.441 -0.2902  0.3753  0.0903
 1088SOL    HW1 3320   3.197   3.849   3.395 -3.3067  1.0469  2.6423
 1088SOL    HW2 3321   3.307   3.790   3.481 -0.9170  2.2613  0.5131
 1089SOL     OW 3322   1.785   3.260   2.182  0.5032 -0.2753 -0.3844
 1089SOL    HW1 3323   1.722   3.307   2.237 -1.1560 -1.7096 -0.9661
 1089SOL    HW2 3324   1.859   3.242   2.241 -1.3682 -2.1148  1.5896
 1090SOL     OW 3325   3.514   4.456   1.921  0.1091  0.2262 -0.0828
 1090SOL    HW1 3326   3.506   4.361   1.927 -1.0306  0.2641 -0.7663
 1090SOL    HW2 3327   3.425   4.487   1.901  0.2056  1.5476  1.3942
 1091SOL     OW 3328   2.462   1.901   2.285  0.3739  0.0727  0.1100
 1091SOL    HW1 3329   2.488   1.947   2.364 -1.8450  1.1906  0.2652
 1091SOL    HW2 3330   2.371   1.874   2.301  0.2640 -0.7414 -1.5899
 1092SOL     OW 3331   4.856   0.350   4.744 -0.3286  0.0433 -0.0758
 1092SOL    HW1 3332   4.891   0.422   4.797 -0.5372 -0.0102  0.1381
 1092SOL    HW2 3333   4.789   0.310   4.799  0.4966 -0.9753  0.2274
 1093SOL     OW 3334   0.987   0.402   2.282 -0.0820 -0.1255  0.3277
 1093SOL    HW1 3335   0.950   0.327   2.237  2.4095 -1.7894  0.8748
 1093SOL    HW2 3336   1.069   0.370   2.321  0.3466  2.4792  1.8627
 1094SOL     OW 3337   3.665   2.113   3.667  0.2661  0.7350  0.2749
 1094SOL    HW1 3338   3.755   2.136   3.688  0.5064  0.8828 -0.8227
 1094SOL    HW2 3339   3.612   2.184   3.704  0.4412 -0.0744  2.1794
 1095SOL     OW 3340   0.271   0.684   1.141 -0.4753 -0.0157 -0.3932
 1095SOL    HW1 3341   0.281   0.779   1.131  0.1029 -0.1971 -1.9106
 1095SOL    HW2 3342   0.328   0.647   1.073 -0.8883 -1.4481  0.0060
 1096SOL     OW 3343   1.530   1.738   3.316 -0.1023 -0.1607  0.0766
 1096SOL    HW1 3344   1.540   1.672   3.385 -0.7673  0.1223  0.4435
 1096SOL    HW2 3345   1.558   1.693   3.236  0.2202 -0.6356  0.4502
 1097SOL     OW 3346   4.570   1.069   0.762 -0.7733  0.2038 -0.0888
 1097SOL    HW1 3347   4.527   0.984   0.767 -0.5486  0.1787  1.8410
 1097SOL    HW2 3348   4.531   1.122   0.831  0.0871  1.2102 -0.3296
 1098SOL     OW 3349   2.349   2.868   4.329  0.5092 -0.0979 -0.1813
 1098SOL    HW1 3350   2.280   2.802   4.337  1.1170 -0.8602 -1.0004
 1098SOL    HW2 3351   2.318   2.925   4.259 -0.2537  0.8165  0.8649
 1099SOL     OW 3352   0.883   4.340   1.138  0.2252  0.0826  0.0949
 1099SOL    HW1 3353   0.807   4.330   1.195  0.7525  2.8961  1.4729
 1099SOL    HW2 3354   0.955   4.303   1.189 -0.0274 -1.9253 -0.9125
 1100SOL     OW 3355   2.308   1.007   2.727 -0.5226 -0.0508 -0.9950
 1100SOL    HW1 3356   2.315   0.912   2.721 -1.6836 -0.1731 -0.7895
 1100SOL    HW2 3357   2.222   1.022   2.767  0.4392  1.0434  0.7941
 1101SOL     OW 3358   0.520   2.325   0.202  0.3249 -0.3446  0.1506
 1101SOL    HW1 3359   0.449   2.375   0.242  0.7102 -0.5007  1.0582
 1101SOL    HW2 3360   0.597   2.347   0.254  1.6745  2.2100 -2.6424
 1102SOL     OW 3361   2.341   4.837   4.287 -0.2085 -0.0693 -1.0353
 1102SOL    HW1 3362   2.418   4.786   4.314  0.1508  0.8290 -0.2911
 1102SOL    HW2 3363   2.319   4.804   4.200 -0.0646 -1.5631 -0.5279
 1103SOL     OW 3364   0.298   2.732   2.805 -0.4077 -0.0155  0.4364
 1103SOL    HW1 3365   0.356   2.656   2.815 -2.1158 -1.3587  0.7038
 1103SOL    HW2 3366   0.311   2.783   2.885  0.3189 -0.3286  0.5292
 1104SOL     OW 3367   3.039   1.197   4.461 -0.1778  0.5045 -0.3808
 1104SOL    HW1 3368   3.095   1.120   4.445 -0.7825 -0.0537  0.1171
 1104SOL    HW2 3369   3.020   1.231   4.373 -0.8284 -0.6120 -0.7082
 1105SOL     OW 3370   3.185   2.787   3.714 -0.7468  0.0472 -0.0660
 1105SOL    HW1 3371   3.209   2.702   3.677  1.8615  1.6073 -2.3460
 1105SOL    HW2 3372   3.147   2.836   3.641 -0.7134  1.3905  0.7760
 1106SOL     OW 3373   2.806   2.457   4.374 -0.0625 -0.6022  0.3662
 1106SOL    HW1 3374   2.841   2.543   4.347 -0.7069 -0.5307 -0.2635
 1106SOL    HW2 3375   2.807   2.405   4.294 -1.0900 -0.7006  0.4094
 1107SOL     OW 3376   1.819   0.173   2.398 -0.7935 -0.2155  0.2323
 1107SOL    HW1 3377   1.858   0.259   2.385 -0.8532 -0.3983 -1.5108
 1107SOL    HW2 3378   1.892   0.116   2.421 -0.2692 -0.1962 -1.2466
 1108SOL     OW 3379   0.625   4.544   4.487 -0.5659  0.3511 -0.5407
 1108SOL    HW1 3380   0.699   4.540   4.547  0.3080  0.4821 -1.5995
 1108SOL    HW2 3381   0.579   4.625   4.511 -1.6089 -0.7612  1.5116
 1109SOL     OW 3382   4.830   0.629   2.062  0.4762 -0.4612  0.2640
 1109SOL    HW1 3383   4.845   0.686   1.987 -0.5793  1.2058  1.2566
 1109SOL    HW2 3384   4.760   0.570   2.033  1.1550 -0.8658 -0.5723
 1110SOL     OW 3385   1.951   2.468   3.298  0.1167 -0.1432  0.2510
 1110SOL    HW1 3386   1.966   2.476   3.392 -0.6324  0.1308  0.3562
 1110SOL    HW2 3387   1.999   2.541   3.259  1.4967 -0.9980  0.2888
 1111SOL     OW 3388   4.254   4.135   2.383  0.3202 -0.0533 -0.0459
 1111SOL    HW1 3389   4.280   4.048   2.353  0.5461  0.1359 -0.4071
 1111SOL    HW2 3390   4.163   4.144   2.354 -0.0951 -0.6326  1.0331
 1112SOL     OW 3391   2.536   3.951   1.570  0.0610  0.3145  0.1094
 1112SOL    HW1 3392   2.589   3.876   1.544  0.6523  0.1306  1.6962
 1112SOL    HW2 3393   2.480   3.969   1.495  0.8287 -0.8866 -0.7835
 1113SOL     OW 3394   1.794   0.512   3.833  0.2425  0.0280  0.3102
 1113SOL    HW1 3395   1.878   0.537   3.795  0.0033 -0.4243 -0.5422
 1113SOL    HW2 3396   1.813   0.432   3.882 -0.0378 -1.2213 -1.5199
 1114SOL     OW 3397   0.186   0.990   1.338 -0.7806 -0.3494 -0.0960
 1114SOL    HW1 3398   0.255   1.056   1.352 -2.1571  1.0544  0.3344
 1114SOL    HW2 3399   0.198   0.961   1.248  2.7554 -3.0451  0.9607
 1115SOL     OW 3400   4.655   0.368   0.562 -0.3411  0.3284  0.0604
 1115SOL    HW1 3401   4.747   0.372   0.585 -0.4650 -0.2058  0.6678
 1115SOL    HW2 3402   4.623   0.458   0.572  0.4965  0.8897 -1.8565
 1116SOL     OW 3403   1.768   2.505   1.534  0.3295  0.2677 -0.4397
 1116SOL    HW1 3404   1.859   2.481   1.554  0.9122  1.4496 -1.5558
 1116SOL    HW2 3405   1.738   2.438   1.473 -0.8878 -2.3546  2.7027
 1117SOL     OW 3406   0.711   2.940   1.664  0.6789  0.1165 -0.0943
 1117SOL    HW1 3407   0.750   3.025   1.643 -0.9284  0.6855 -0.8814
 1117SOL    HW2 3408   0.744   2.881   1.596  1.2113  0.2711  0.0251
 1118SOL     OW 3409   2.976   0.227   3.326  0.1786 -0.4971  0.1294
 1118SOL    HW1 3410   2.895   0.201   3.281 -0.0514  0.4530 -0.0241
 1118SOL    HW2 3411   2.978   0.323   3.318  1.6316 -0.5536 -0.4054
 1119SOL     OW 3412   1.590   0.361   4.845 -0.1102  0.4313 -0.3517
 1119SOL    HW1 3413   1.549   0.437   4.887 -0.7416 -0.0504 -0.0760
 1119SOL    HW2 3414   1.571   0.372   4.752  1.3256  1.5232 -0.5487
 1120SOL     OW 3415   2.586   1.156   4.181 -0.4840 -0.2645 -0.2874
 1120SOL    HW1 3416   2.620   1.245   4.179  0.2993 -0.5722 -1.4454
 1120SOL    HW2 3417   2.553   1.145   4.270 -0.0582  0.9823  0.0395
 1121SOL     OW 3418   0.056   3.535   3.550  0.5033  0.2967 -0.0298
 1121SOL    HW1 3419  -0.007   3.607   3.556 -0.6168 -0.5048 -1.5842
 1121SOL    HW2 3420   0.043   3.486   3.632 -3.1485 -1.5592 -1.4800
 1122SOL     OW 3421   3.918   4.146   2.947  0.4951  0.0409  0.2486
 1122SOL    HW1 3422   3.939   4.071   2.890  0.5524  0.1726  0.0946
 1122SOL    HW2 3423   3.938   4.115   3.035  0.1966 -0.2405  0.2211
 1123SOL     OW 3424   4.558   3.679   0.270 -0.1019 -0.2635  0.3146
 1123SOL    HW1 3425   4.518   3.624   0.203 -0.6873  1.4565 -0.8098
 1123SOL    HW2 3426   4.495   3.750   0.283  2.3450  2.3777 -1.2676
 1124SOL     OW 3427   1.794   1.306   1.617  0.2715 -0.2257 -0.1429
 1124SOL    HW1 3428   1.878   1.333   1.580  0.5380 -2.9195 -1.8053
 1124SOL    HW2 3429   1.733   1.375   1.593  1.7763  1.2692  0.1711
 1125SOL     OW 3430   0.100   3.419   4.959  0.4331  0.0743 -0.3617
 1125SOL    HW1 3431   0.097   3.513   4.977 -0.0733  0.0636 -0.3803
 1125SOL    HW2 3432   0.027   3.383   5.009 -0.0667 -0.1570 -1.2373
 1126SOL     OW 3433   3.973   2.651   0.753 -0.1138 -0.4262 -0.6244
 1126SOL    HW1 3434   4.004   2.667   0.842 -0.1597 -0.7343 -0.5523
 1126SOL    HW2 3435   3.998   2.730   0.704 -1.0053  0.2016 -0.0955
 1127SOL     OW 3436   2.716   4.032   1.906  0.1812 -0.1282  0.5711
 1127SOL    HW1 3437   2.754   4.101   1.960 -0.7602  0.5008  0.4549
 1127SOL    HW2 3438   2.780   4.020   1.835  0.2420  0.8028  0.4531
 1128SOL     OW 3439   4.497   3.875   2.206  0.1575 -0.2899  0.0778
 1128SOL    HW1 3440   4.446   3.809   2.159  1.3054 -1.7909  0.8650
 1128SOL    HW2 3441   4.516   3.835   2.291 -0.8752  1.8955  1.4412
 1129SOL     OW 3442   2.711   3.628   4.808 -0.3356 -0.3598 -1.0570
 1129SOL    HW1 3443   2.723   3.586   4.894 -1.0676  0.5614 -0.4875
 1129SOL    HW2 3444   2.716   3.556   4.746 -0.4483 -1.1417 -0.1930
 1130SOL     OW 3445   3.870   0.984   3.343 -0.0572 -0.4289 -0.1199
 1130SOL    HW1 3446   3.961   0.995   3.316  0.1434 -1.5482  0.0436
 1130SOL    HW2 3447   3.849   1.064   3.392  0.3491  0.5154 -1.4236
 1131SOL     OW 3448   0.172   4.301   3.732  0.6498 -0.2701  0.1836
 1131SOL    HW1 3449   0.194   4.317   3.640  1.5351 -2.2411  0.0077
 1131SOL    HW2 3450   0.087   4.258   3.729  0.6781 -0.3333  0.2986
 1132SOL     OW 3451   4.830   3.959   4.138  0.2374  0.2400 -0.0771
 1132SOL    HW1 3452   4.906   3.931   4.188  0.2311 -0.1195 -0.2692
 1132SOL    HW2 3453   4.794   3.879   4.101 -0.3358  0.3834  0.1523
 1133SOL     OW 3454   4.023   1.293   0.994 -0.2914  0.2597  0.3754
 1133SOL    HW1 3455   3.953   1.268   1.055  0.7189 -1.7754  0.7906
 1133SOL    HW2 3456   4.100   1.304   1.050  0.5276 -1.0969 -0.4228
 1134SOL     OW 3457   1.313   3.542   3.951 -0.0746  0.5811  0.2256
 1134SOL    HW1 3458   1.230   3.515   3.990  0.5066 -0.9107  0.5019
 1134SOL    HW2 3459   1.378   3.483   3.989  0.6420 -0.4669 -2.4036
 1135SOL     OW 3460   1.384   3.632   2.990  0.1866  0.3099  0.1620
 1135SOL    HW1 3461   1.341   3.684   2.922  4.3238 -0.1815 -3.2770
 1135SOL    HW2 3462   1.385   3.543   2.954  1.6344 -0.1904  1.3601
 1136SOL     OW 3463   0.906   2.329   2.872  0.2614  0.1599  0.4543
 1136SOL    HW1 3464   0.876   2.345   2.783 -0.1566  3.4564  1.0787
 1136SOL    HW2 3465   0.976   2.264   2.862 -1.1678 -1.1490 -1.9647
 1137SOL     OW 3466   4.094   0.169   4.569 -0.7086  0.2343 -0.0803
 1137SOL    HW1 3467   4.041   0.121   4.506 -0.7627  1.1318 -0.7392
 1137SOL    HW2 3468   4.092   0.116   4.648 -1.2792 -0.5257 -0.5960
 1138SOL     OW 3469   0.315   3.155   0.285 -0.6318 -0.6740 -0.4604
 1138SOL    HW1 3470   0.399   3.189   0.254  0.4072 -2.1007  0.6406
 1138SOL    HW2 3471   0.250   3.209   0.240  0.8534  0.5789 -1.2393
 1139SOL     OW 3472   4.260   1.244   2.573 -0.2418 -0.6162 -0.7411
 1139SOL    HW1 3473   4.180   1.295   2.565  0.0335 -0.0853 -0.1927
 1139SOL    HW2 3474   4.239   1.159   2.532 -0.7245 -0.1022 -1.5903
 1140SOL     OW 3475   1.977   4.060   1.605  0.0234  0.1301 -0.3167
 1140SOL    HW1 3476   2.044   4.094   1.546  1.4294 -0.0311  1.1132
 1140SOL    HW2 3477   1.896   4.100   1.574  0.7445  0.2422 -2.1729
 1141SOL     OW 3478   1.625   3.895   2.954  0.2316 -0.2608 -0.3329
 1141SOL    HW1 3479   1.637   3.919   2.862 -0.3513 -2.7388 -1.1393
 1141SOL    HW2 3480   1.556   3.953   2.985  1.3369  1.5026 -1.0446
 1142SOL     OW 3481   3.216   0.381   4.741  0.5146 -0.2292  0.0007
 1142SOL    HW1 3482   3.273   0.416   4.810 -0.2100 -1.8001  1.4613
 1142SOL    HW2 3483   3.134   0.430   4.750  0.6706  0.0788 -0.2419
 1143SOL     OW 3484   4.854   1.307   0.400 -0.2856 -0.2256 -0.1980
 1143SOL    HW1 3485   4.820   1.220   0.379 -0.6620 -0.0562 -0.2908
 1143SOL    HW2 3486   4.853   1.310   0.496  1.8194 -1.1518 -0.1065
 1144SOL     OW 3487   4.633   3.684   2.650 -0.5690  0.7364 -0.0526
 1144SOL    HW1 3488   4.599   3.701   2.738  0.4656  0.7212  0.3624
 1144SOL    HW2 3489   4.656   3.771   2.616  0.0910  0.6438  0.1423
 1145SOL     OW 3490   3.978   1.805   2.164 -0.2054  0.1117 -0.0220
 1145SOL    HW1 3491   3.900   1.751   2.167 -0.4992  0.4798 -0.6759
 1145SOL    HW2 3492   4.039   1.763   2.225 -0.1393 -1.4078 -1.0706
 1146SOL     OW 3493   2.511   2.906   3.492  0.0638 -0.2031 -0.2145
 1146SOL    HW1 3494   2.418   2.885   3.485 -0.0727 -0.3088  1.4036
 1146SOL    HW2 3495   2.520   2.992   3.451 -0.6023 -0.5416 -1.0773
 1147SOL     OW 3496   2.101   2.498   2.872 -0.3823  0.4414 -0.3524
 1147SOL    HW1 3497   2.089   2.562   2.942  0.9520  1.8448 -1.3400
 1147SOL    HW2 3498   2.016   2.454   2.865 -1.5051  2.3976  0.1143
 1148SOL     OW 3499   2.074   4.976   2.953 -0.2221 -0.3271  0.4851
 1148SOL    HW1 3500   2.040   5.060   2.923 -1.1838 -0.7738  0.2883
 1148SOL    HW2 3501   2.147   4.957   2.893 -2.0944 -1.2020 -1.6903
 1149SOL     OW 3502   0.284   0.606   2.703 -0.1633  0.7568  0.0076
 1149SOL    HW1 3503   0.227   0.565   2.638 -1.5577  4.2307 -1.1879
 1149SOL    HW2 3504   0.343   0.536   2.730 -1.9779 -1.8338 -2.1602
 1150SOL     OW 3505   3.842   4.832   3.058  0.2134 -0.5666  0.3777
 1150SOL    HW1 3506   3.861   4.918   3.020  0.6537 -0.6183  0.4776
 1150SOL    HW2 3507   3.881   4.770   2.997  1.4629 -0.6318  1.1972
 1151SOL     OW 3508   1.295   3.249   0.983 -0.2219 -0.2662  0.4857
 1151SOL    HW1 3509   1.200   3.241   0.976 -0.2332  0.0994  0.2435
 1151SOL    HW2 3510   1.329   3.202   0.906 -0.1877 -0.7658  0.7958
 1152SOL     OW 3511   3.588   3.183   0.350 -0.0847  0.3937 -0.6930
 1152SOL    HW1 3512   3.602   3.156   0.259  1.8220 -1.4214  0.0536
 1152SOL    HW2 3513   3.671   3.224   0.376  1.0133 -2.6689  1.2897
 1153SOL     OW 3514   4.446   0.224   2.543 -0.6031 -0.0690 -0.4305
 1153SOL    HW1 3515   4.394   0.164   2.596 -0.1644 -1.6604 -1.7197
 1153SOL    HW2 3516   4.384   0.290   2.512 -1.6409 -1.2622 -0.9732
 1154SOL     OW 3517   1.431   4.955   0.747  0.1810  1.2149 -0.3469
 1154SOL    HW1 3518   1.455   5.019   0.679 -0.1394  1.0243 -0.6447
 1154SOL    HW2 3519   1.397   5.008   0.819  1.8310  1.5219  0.2477
 1155SOL     OW 3520   4.566   3.622   4.514  0.5317  0.0993 -0.2780
 1155SOL    HW1 3521   4.547   3.714   4.531  0.6949  0.1252 -0.2268
 1155SOL    HW2 3522   4.502   3.573   4.565  0.0720  0.1900 -0.7632
 1156SOL     OW 3523   1.387   1.321   4.219  0.5022  0.4000  0.2811
 1156SOL    HW1 3524   1.349   1.286   4.300  0.0998 -0.8130 -0.4139
 1156SOL    HW2 3525   1.377   1.250   4.155  0.4599  1.4778 -0.9428
 1157SOL     OW 3526   0.636   0.199   4.877 -0.0052  0.2613 -0.1558
 1157SOL    HW1 3527   0.617   0.177   4.786 -0.5926 -0.1994  0.0725
 1157SOL    HW2 3528   0.695   0.274   4.872  0.5716 -0.2306 -0.9260
 1158SOL     OW 3529   3.358   4.032   3.301  0.3060  0.3748 -0.1983
 1158SOL    HW1 3530   3.403   4.086   3.366  2.1417  0.7946 -1.7405
 1158SOL    HW2 3531   3.267   4.029   3.332  0.6773  2.2533  1.2734
 1159SOL     OW 3532   0.245   1.843   1.237  0.0985  0.4164  0.0809
 1159SOL    HW1 3533   0.173   1.799   1.284  0.4225 -0.6882 -0.4283
 1159SOL    HW2 3534   0.207   1.927   1.210 -1.3110 -0.4752 -0.9033
 1160SOL     OW 3535   1.729   3.644   0.103 -0.1004 -0.0802  0.0538
 1160SOL    HW1 3536   1.709   3.550   0.109 -0.0207 -0.2597 -1.9259
 1160SOL    HW2 3537   1.702   3.679   0.188 -0.0453 -1.8992  0.8875
 1161SOL     OW 3538   1.243   0.119   4.439  0.2193  0.8648 -0.0226
 1161SOL    HW1 3539   1.171   0.057   4.449  2.1471 -1.5313  0.0617
 1161SOL    HW2 3540   1.252   0.130   4.344 -0.6702  1.7037 -0.0120
 1162SOL     OW 3541   3.285   3.354   4.731  0.3817  0.7684  0.1265
 1162SOL    HW1 3542   3.380   3.366   4.741  1.1749 -4.2172  0.9621
 1162SOL    HW2 3543   3.275   3.321   4.641 -0.6750  1.4958 -0.0457
 1163SOL     OW 3544   0.377   0.699   4.478 -0.0070  0.6722  0.0768
 1163SOL    HW1 3545   0.421   0.616   4.457  1.6171  1.5258 -0.0313
 1163SOL    HW2 3546   0.313   0.675   4.545 -0.9295 -1.0047 -1.3184
 1164SOL     OW 3547   1.685   0.758   4.402 -0.5781 -0.3187  0.0391
 1164SOL    HW1 3548   1.765   0.768   4.453 -0.7571  1.9945 -0.0655
 1164SOL    HW2 3549   1.713   0.768   4.311 -1.1558  2.3187  0.0793
 1165SOL     OW 3550   2.194   3.616   0.969 -0.0340 -0.4950 -0.0425
 1165SOL    HW1 3551   2.242   3.682   0.919 -0.9147  0.3637  0.2118
 1165SOL    HW2 3552   2.161   3.555   0.903 -1.4987  0.8292 -0.5728
 1166SOL     OW 3553   2.521   1.700   3.516  0.0562  0.1011  0.6488
 1166SOL    HW1 3554   2.513   1.696   3.611 -0.9245  1.1233  0.6287
 1166SOL    HW2 3555   2.473   1.624   3.484 -1.9117  1.1790  0.8973
 1167SOL     OW 3556   1.481   1.757   0.789  0.5563 -0.3147 -0.6198
 1167SOL    HW1 3557   1.465   1.771   0.695  1.3533 -0.0193 -0.7149
 1167SOL    HW2 3558   1.528   1.835   0.817  0.6636 -0.5804 -0.0527
 1168SOL     OW 3559   1.693   4.513   2.647 -0.1154 -0.9066 -0.0010
 1168SOL    HW1 3560   1.774   4.559   2.670  2.4263 -3.5188 -2.7903
 1168SOL    HW2 3561   1.667   4.468   2.727  0.7261  0.5927  1.1709
 1169SOL     OW 3562   2.771   3.846   0.115 -0.0976  0.8297  0.2763
 1169SOL    HW1 3563   2.797   3.899   0.190 -2.1162  2.1348  0.1483
 1169SOL    HW2 3564   2.799   3.897   0.039 -0.9365  1.1506  0.1632
 1170SOL     OW 3565   3.850   3.919   4.559 -0.0442 -0.1960 -0.1101
 1170SOL    HW1 3566   3.867   3.858   4.487  2.2715 -3.5802  2.9340
 1170SOL    HW2 3567   3.904   3.996   4.538  1.5065 -1.5637 -1.4401
 1171SOL     OW 3568   0.451   0.164   2.135  0.0972 -0.3895  0.5193
 1171SOL    HW1 3569   0.399   0.244   2.134 -1.9559 -1.6192 -1.5648
 1171SOL    HW2 3570   0.525   0.183   2.078 -0.2813  0.1000  0.1798
 1172SOL     OW 3571   0.289   2.878   1.031  0.4403  0.5123 -0.8405
 1172SOL    HW1 3572   0.302   2.970   1.009  1.7042  0.2428 -1.3117
 1172SOL    HW2 3573   0.361   2.832   0.987  1.1300 -0.4452  1.1473
 1173SOL     OW 3574   1.742   1.267   1.878  0.1201  0.0177  0.7642
 1173SOL    HW1 3575   1.702   1.180   1.880  0.5102 -0.1905  0.0080
 1173SOL    HW2 3576   1.745   1.290   1.784 -1.1765  1.4079  1.0132
 1174SOL     OW 3577   0.417   1.252   3.990  0.0387 -0.0774 -0.0751
 1174SOL    HW1 3578   0.433   1.166   4.029 -1.9816 -1.0173 -1.1603
 1174SOL    HW2 3579   0.339   1.285   4.035  1.0100  1.4142  0.6058
 1175SOL     OW 3580   1.970   3.496   4.579  0.1062 -0.1506 -0.3525
 1175SOL    HW1 3581   1.995   3.463   4.493  1.6185 -1.6320  0.5978
 1175SOL    HW2 3582   1.921   3.424   4.619 -0.6602  0.5579  0.0284
 1176SOL     OW 3583   2.983   2.035   3.869  0.3820 -0.2247  0.5583
 1176SOL    HW1 3584   3.031   2.105   3.825  0.7903 -0.9210 -0.1178
 1176SOL    HW2 3585   2.963   1.971   3.800 -2.4208  0.4789  0.5681
 1177SOL     OW 3586   0.368   4.705   3.521 -0.6732  0.7753  0.1192
 1177SOL    HW1 3587   0.388   4.768   3.591 -0.6091  0.2853  0.5530
 1177SOL    HW2 3588   0.311   4.640   3.563  1.0913 -0.7239  0.3431
 1178SOL     OW 3589   4.453   0.931   1.669 -0.2552  0.3196 -0.0010
 1178SOL    HW1 3590   4.389   0.878   1.717 -0.1988  0.3559  0.1140
 1178SOL    HW2 3591   4.453   1.015   1.714 -0.4558  0.4673 -0.2788
 1179SOL     OW 3592   1.177   2.592   4.459 -0.6549  0.6125  0.1872
 1179SOL    HW1 3593   1.179   2.513   4.514 -0.5219  1.1916  1.0233
 1179SOL    HW2 3594   1.226   2.567   4.380  0.9605  0.4022  1.2040
 1180SOL     OW 3595   4.950   2.059   0.549  0.0839  0.2955  0.3275
 1180SOL    HW1 3596   5.004   2.098   0.480  0.0985  1.5388  1.0116
 1180SOL    HW2 3597   4.975   1.966   0.549  0.4537  0.3684 -0.9808
 1181SOL     OW 3598   0.516   0.575   2.082 -0.1972 -0.4540 -0.5025
 1181SOL    HW1 3599   0.584   0.537   2.138 -0.0550 -0.7830 -0.8959
 1181SOL    HW2 3600   0.512   0.667   2.109  0.3052 -0.4658 -0.3785
 1182SOL     OW 3601   1.940   1.056   4.534 -0.3059  0.4621  0.1926
 1182SOL    HW1 3602   1.886   0.998   4.479 -1.3530  0.3628  1.2695
 1182SOL    HW2 3603   1.995   1.104   4.472 -2.0221  0.9592 -1.0283
 1183SOL     OW 3604   4.707   3.360   3.650  0.3969  0.5531 -0.4197
 1183SOL    HW1 3605   4.691   3.361   3.745 -0.4270 -0.0461 -0.5352
 1183SOL    HW2 3606   4.629   3.316   3.614  0.1810  1.7701 -1.4737
 1184SOL     OW 3607   0.354   3.630   4.168 -0.2068 -0.0414 -0.3699
 1184SOL    HW1 3608   0.362   3.667   4.255  1.3487 -0.1199 -0.4513
 1184SOL    HW2 3609   0.326   3.540   4.182  0.0125 -0.0439  0.0407
 1185SOL     OW 3610   2.565   3.087   2.925 -0.1659 -0.2786 -0.1823
 1185SOL    HW1 3611   2.628   3.076   2.854 -0.2239 -1.2746 -0.1009
 1185SOL    HW2 3612   2.552   3.182   2.932  2.3913  0.0875  0.7427
 1186SOL     OW 3613   1.326   4.719   3.112  0.1287  0.3576  0.0792
 1186SOL    HW1 3614   1.272   4.659   3.163  0.4503 -0.1653 -0.1834
 1186SOL    HW2 3615   1.412   4.714   3.152  0.1040  0.8373  0.2050
 1187SOL     OW 3616   0.698   0.761   4.372  0.0349 -0.5452  0.7480
 1187SOL    HW1 3617   0.782   0.795   4.401 -0.0233  0.7459 -0.5027
 1187SOL    HW2 3618   0.633   0.814   4.419 -0.1369 -1.9223  2.1613
 1188SOL     OW 3619   4.779   2.756   2.142  0.5696 -0.2878 -0.9569
 1188SOL    HW1 3620   4.865   2.768   2.181  0.0517 -0.1122  0.2032
 1188SOL    HW2 3621   4.796   2.726   2.053  1.8230  0.5709 -1.0280
 1189SOL     OW 3622   3.772   3.522   2.940  0.3293 -0.4677  0.1242
 1189SOL    HW1 3623   3.867   3.514   2.947  0.4054 -0.5521 -0.9366
 1189SOL    HW2 3624   3.740   3.501   3.028  1.4425  2.0970  1.2512
 1190SOL     OW 3625   2.865   3.345   0.765  0.1680  0.2684 -0.0190
 1190SOL    HW1 3626   2.847   3.274   0.826 -1.7403  0.1114 -0.7148
 1190SOL    HW2 3627   2.827   3.423   0.807 -0.2851  0.3403 -0.5568
 1191SOL     OW 3628   0.859   4.093   4.255  0.2866  0.3120 -0.1443
 1191SOL    HW1 3629   0.896   4.053   4.333  3.3849  0.2334 -1.5009
 1191SOL    HW2 3630   0.822   4.176   4.286 -1.6835 -1.1754  1.8482
 1192SOL     OW 3631   1.770   0.705   2.493  0.0261  0.4608  0.2729
 1192SOL    HW1 3632   1.709   0.655   2.439  1.2083  1.3887 -2.0643
 1192SOL    HW2 3633   1.790   0.783   2.441 -1.8652  3.5885  3.8242
 1193SOL     OW 3634   0.243   2.713   0.191  0.0526  0.7628  0.6585
 1193SOL    HW1 3635   0.189   2.634   0.188  0.5829  0.4372 -1.0646
 1193SOL    HW2 3636   0.293   2.705   0.272  0.7419 -1.1072  0.0854
 1194SOL     OW 3637   2.460   0.028   2.557  0.4729 -0.4338  0.3097
 1194SOL    HW1 3638   2.525   0.033   2.627  1.0503  0.4126 -0.2707
 1194SOL    HW2 3639   2.512   0.035   2.476 -0.1439 -1.7587 -0.2191
 1195SOL     OW 3640   4.616   0.097   0.452 -0.1088 -0.4153 -0.2205
 1195SOL    HW1 3641   4.619   0.181   0.499 -0.9141 -0.1888 -0.5629
 1195SOL    HW2 3642   4.629   0.121   0.360  1.5540 -0.8673 -0.1324
 1196SOL     OW 3643   2.851   4.939   0.654 -0.2689 -0.0686  0.0305
 1196SOL    HW1 3644   2.930   4.973   0.613 -0.9605 -0.9497 -2.2092
 1196SOL    HW2 3645   2.780   4.994   0.620 -1.2333 -2.6257 -2.6030
 1197SOL     OW 3646   0.765   4.545   3.361  0.2405 -0.2836 -0.0940
 1197SOL    HW1 3647   0.682   4.566   3.317  1.3600  3.3803 -0.7799
 1197SOL    HW2 3648   0.748   4.559   3.454 -0.0388 -0.0243 -0.1838
 1198SOL     OW 3649   2.787   3.404   0.502  0.4174  0.0693  0.3475
 1198SOL    HW1 3650   2.819   3.364   0.583  2.1798 -0.6709 -0.6729
 1198SOL    HW2 3651   2.846   3.372   0.434 -0.9298  0.7894 -1.2322
 1199SOL     OW 3652   2.449   3.363   2.964 -0.6361  0.0581  0.0624
 1199SOL    HW1 3653   2.542   3.382   2.972 -0.5564 -0.0166 -0.5843
 1199SOL    HW2 3654   2.409   3.446   2.938 -0.7978  0.1677  0.6629
 1200SOL     OW 3655   0.912   2.081   2.241  0.3217  0.0741  0.3941
 1200SOL    HW1 3656   0.950   2.058   2.326  1.2898  1.7627  0.4583
 1200SOL    HW2 3657   0.969   2.149   2.207 -2.5580  2.7177  0.4435
 1201SOL     OW 3658   0.926   4.203   2.628 -0.7145 -0.3876  0.1311
 1201SOL    HW1 3659   0.903   4.254   2.705  2.2498  1.4971 -0.0615
 1201SOL    HW2 3660   0.985   4.135   2.660  1.4719  1.1132 -0.4862
 1202SOL     OW 3661   4.465   1.800   1.051 -0.6269  0.3968 -0.0480
 1202SOL    HW1 3662   4.440   1.873   1.108  2.7915  0.2031  1.9331
 1202SOL    HW2 3663   4.509   1.842   0.977  1.8491  0.4794  1.3653
 1203SOL     OW 3664   3.219   3.142   2.603  0.0581 -0.2835  0.2389
 1203SOL    HW1 3665   3.230   3.156   2.697  1.0383  1.4908 -0.1021
 1203SOL    HW2 3666   3.295   3.090   2.577 -0.3767 -1.0427  0.4701
 1204SOL     OW 3667   2.662   3.304   1.843  0.0912  0.3486  0.8709
 1204SOL    HW1 3668   2.579   3.259   1.833  0.4768 -0.3842  0.9144
 1204SOL    HW2 3669   2.674   3.311   1.938  0.1500  0.3211  0.8655
 1205SOL     OW 3670   3.762   0.147   4.657 -0.1702 -0.0712  0.2305
 1205SOL    HW1 3671   3.710   0.226   4.672  0.2745  0.1819  0.4436
 1205SOL    HW2 3672   3.820   0.141   4.733  0.0975 -0.3692  0.0067
 1206SOL     OW 3673   0.448   4.030   1.670  0.0238 -0.1440 -0.0307
 1206SOL    HW1 3674   0.532   4.015   1.713 -0.6438 -3.2007  0.3920
 1206SOL    HW2 3675   0.383   4.027   1.740 -0.5917  0.9495 -0.5204
 1207SOL     OW 3676   4.430   0.680   4.426 -0.3681 -0.0987  0.5724
 1207SOL    HW1 3677   4.498   0.707   4.488  1.3489 -0.2785 -1.1266
 1207SOL    HW2 3678   4.419   0.757   4.369  0.5906 -1.0428 -0.9558
 1208SOL     OW 3679   1.636   2.713   0.589 -0.2967  0.2940  0.1005
 1208SOL    HW1 3680   1.580   2.746   0.520 -1.0116 -1.0002  0.0407
 1208SOL    HW2 3681   1.723   2.749   0.569 -0.3445 -0.5572 -1.8233
 1209SOL     OW 3682   2.503   0.442   2.901  0.1331 -0.3768 -0.0596
 1209SOL    HW1 3683   2.527   0.380   2.969 -2.4532  1.3539  2.6852
 1209SOL    HW2 3684   2.408   0.448   2.907 -0.0148  1.3100 -2.5744
 1210SOL     OW 3685   2.639   4.275   1.285  0.1954  0.7647 -0.6153
 1210SOL    HW1 3686   2.711   4.217   1.310  0.0832  1.2354  0.8953
 1210SOL    HW2 3687   2.645   4.281   1.190  1.0424 -0.6308 -0.6786
 1211SOL     OW 3688   4.472   0.856   0.186 -0.0335 -0.5028  0.0803
 1211SOL    HW1 3689   4.526   0.806   0.125 -2.1070 -0.8513 -1.6029
 1211SOL    HW2 3690   4.492   0.819   0.272  1.2990 -1.6029 -0.6704
 1212SOL     OW 3691   3.408   2.258   0.187  0.1296 -0.2196  0.0875
 1212SOL    HW1 3692   3.470   2.273   0.259  1.3972  1.1235 -1.1957
 1212SOL    HW2 3693   3.458   2.282   0.108 -1.9422  0.5905 -1.0368
 1213SOL     OW 3694   3.709   0.525   3.823  0.1994 -0.2296  0.0188
 1213SOL    HW1 3695   3.645   0.503   3.891  2.7812 -1.3594  2.3174
 1213SOL    HW2 3696   3.725   0.443   3.778 -0.6482  0.2715 -1.2448
 1214SOL     OW 3697   0.964   4.905   3.918 -0.0258  0.1438  0.0055
 1214SOL    HW1 3698   0.946   4.899   4.012 -1.2378  1.3148 -0.1163
 1214SOL    HW2 3699   0.979   4.815   3.891 -0.1916 -0.2715  1.2337
 1215SOL     OW 3700   3.775   1.643   2.184  0.1790 -0.1790  0.0126
 1215SOL    HW1 3701   3.682   1.651   2.163  0.0683 -0.1737  0.5034
 1215SOL    HW2 3702   3.784   1.557   2.224 -0.0477  0.7323  2.1593
 1216SOL     OW 3703   3.820   4.512   0.664 -0.0212  0.4275 -0.1674
 1216SOL    HW1 3704   3.858   4.425   0.668  0.0829  0.3790 -1.8375
 1216SOL    HW2 3705   3.866   4.561   0.732  0.9862 -0.4038 -0.2300
 1217SOL     OW 3706   1.749   4.563   2.967  0.5727  0.0453  0.3793
 1217SOL    HW1 3707   1.817   4.545   2.902  0.7636 -0.7672  0.7863
 1217SOL    HW2 3708   1.735   4.479   3.010 -1.4949 -0.0983 -0.4636
 1218SOL     OW 3709   0.919   1.108   3.789 -0.0260 -0.6514  0.0972
 1218SOL    HW1 3710   0.870   1.046   3.735 -0.3533  0.8724 -1.4345
 1218SOL    HW2 3711   0.957   1.054   3.858 -1.6148 -2.3078 -0.2244
 1219SOL     OW 3712   0.108   3.270   0.733  0.1161 -0.0359 -0.0649
 1219SOL    HW1 3713   0.191   3.304   0.698 -0.6144  2.5402  0.5025
 1219SOL    HW2 3714   0.063   3.235   0.656  1.3605 -0.7601 -0.5066
 1220SOL     OW 3715   0.597   1.321   4.361 -0.2813 -0.3060 -0.4925
 1220SOL    HW1 3716   0.595   1.248   4.299 -0.0749 -0.6405 -0.1115
 1220SOL    HW2 3717   0.618   1.280   4.445  0.1879  0.2357 -0.3377
 1221SOL     OW 3718   4.052   2.372   0.889  0.3209 -0.0376  0.4690
 1221SOL    HW1 3719   4.062   2.430   0.964  0.5777  0.2407  0.2254
 1221SOL    HW2 3720   4.138   2.374   0.846 -1.0644  3.8497 -2.7387
 1222SOL     OW 3721   0.359   1.227   1.323 -0.1785 -0.3374  0.3176
 1222SOL    HW1 3722   0.409   1.295   1.368 -1.3014  0.6474  0.1145
 1222SOL    HW2 3723   0.387   1.233   1.232  0.7273 -1.0899  0.5283
 1223SOL     OW 3724   1.201   4.345   0.240 -0.5135 -0.1092 -0.2471
 1223SOL    HW1 3725   1.197   4.382   0.152 -0.0150  1.1334  0.2363
 1223SOL    HW2 3726   1.157   4.260   0.232  0.2453 -0.3881 -1.8722
 1224SOL     OW 3727   1.342   4.688   1.624  0.1133  0.0373  0.2429
 1224SOL    HW1 3728   1.432   4.698   1.592 -0.0881  1.9129  0.1663
 1224SOL    HW2 3729   1.288   4.725   1.554 -0.7881 -1.4064  0.1235
 1225SOL     OW 3730   0.648   2.645   4.169  0.1471  0.8530 -0.1127
 1225SOL    HW1 3731   0.646   2.709   4.239  0.9146  3.4615 -2.3149
 1225SOL    HW2 3732   0.740   2.641   4.142 -0.1221 -0.1076 -0.9803
 1226SOL     OW 3733   3.563   3.124   4.821  0.3376  0.3243  0.0862
 1226SOL    HW1 3734   3.592   3.197   4.875 -1.3606 -0.8165  2.7673
 1226SOL    HW2 3735   3.642   3.073   4.803  1.0923  1.2832  0.6565
 1227SOL     OW 3736   3.418   2.998   4.176 -0.4370 -0.1168  0.0088
 1227SOL    HW1 3737   3.340   3.016   4.122 -1.4997 -1.6994  0.9150
 1227SOL    HW2 3738   3.386   3.005   4.266  0.7354  0.2089  0.4057
 1228SOL     OW 3739   4.161   1.092   3.628 -0.6058  0.6184 -0.2158
 1228SOL    HW1 3740   4.089   1.054   3.678  0.2802  0.0778  0.6840
 1228SOL    HW2 3741   4.153   1.186   3.641 -2.0582  0.6912 -1.4086
 1229SOL     OW 3742   2.364   4.633   3.018 -0.2636 -0.2822  0.1944
 1229SOL    HW1 3743   2.271   4.641   2.998 -0.3235  0.5066  0.7740
 1229SOL    HW2 3744   2.380   4.539   3.020 -1.4241 -0.4830  1.7720
 1230SOL     OW 3745   4.161   0.079   0.659 -0.0772 -0.3045 -0.1227
 1230SOL    HW1 3746   4.183   0.167   0.689 -1.5456 -0.1410  0.5809
 1230SOL    HW2 3747   4.187   0.022   0.731  3.5425 -0.8811 -1.6671
 1231SOL     OW 3748   4.242   2.396   2.031  0.5997  0.1059  0.0251
 1231SOL    HW1 3749   4.235   2.310   1.991 -2.2053  1.0416 -1.7677
 1231SOL    HW2 3750   4.195   2.388   2.114  1.1646 -0.3010  0.3127
 1232SOL     OW 3751   4.902   3.735   2.231 -0.2991  0.0573 -0.1238
 1232SOL    HW1 3752   4.937   3.787   2.303  2.2740  0.3968 -1.5219
 1232SOL    HW2 3753   4.895   3.647   2.267  0.4970  0.3084  0.6982
 1233SOL     OW 3754   3.528   4.117   2.583  0.5531  0.1155  0.2136
 1233SOL    HW1 3755   3.608   4.117   2.530 -0.6825 -0.2431 -1.7416
 1233SOL    HW2 3756   3.502   4.025   2.587 -0.8817  0.4430 -0.9802
 1234SOL     OW 3757   3.948   3.930   1.774 -0.1066  0.0549 -0.0770
 1234SOL    HW1 3758   3.896   4.007   1.753 -0.6855 -0.7436 -1.7546
 1234SOL    HW2 3759   4.039   3.960   1.765 -0.3213  0.2565 -2.0510
 1235SOL     OW 3760   2.093   0.494   1.740  0.1609  0.2804  0.0564
 1235SOL    HW1 3761   2.103   0.405   1.772  0.4565  0.3975  0.2957
 1235SOL    HW2 3762   2.028   0.533   1.799  1.7018  0.9190  1.4341
 1236SOL     OW 3763   0.824   3.283   3.565  0.3860  0.0853 -0.4097
 1236SOL    HW1 3764   0.794   3.199   3.530  1.2933 -0.2659 -0.3569
 1236SOL    HW2 3765   0.846   3.335   3.488  1.0523 -0.1882 -0.4058
 1237SOL     OW 3766   1.948   1.954   4.604 -0.2341 -0.5928  0.0171
 1237SOL    HW1 3767   1.898   2.030   4.635  0.1716  0.1237 -1.0288
 1237SOL    HW2 3768   1.950   1.964   4.509 -0.4190 -2.0870 -0.1731
 1238SOL     OW 3769   4.702   0.442   1.896  0.2912 -0.3380  0.4592
 1238SOL    HW1 3770   4.642   0.370   1.878 -0.1017 -0.1100  0.8326
 1238SOL    HW2 3771   4.743   0.461   1.811  0.3925 -0.9872  0.3577
 1239SOL     OW 3772   4.867   4.519   3.993 -0.0762 -0.1203 -0.0408
 1239SOL    HW1 3773   4.781   4.491   4.025 -1.0489  1.1546 -1.3878
 1239SOL    HW2 3774   4.876   4.475   3.909  1.0057 -0.9071  0.4623
 1240SOL     OW 3775   2.022   3.567   3.489  0.0043 -0.1973 -0.6617
 1240SOL    HW1 3776   2.092   3.539   3.431 -0.2195 -1.9894 -0.1384
 1240SOL    HW2 3777   2.045   3.657   3.513  1.6291 -0.4284 -1.2189
 1241SOL     OW 3778   0.198   3.675   1.743 -0.5265 -0.3792  0.3514
 1241SOL    HW1 3779   0.153   3.743   1.693 -1.0433 -1.3337 -0.5549
 1241SOL    HW2 3780   0.165   3.685   1.833  0.6314  1.5466  0.6103
 1242SOL     OW 3781   3.094   2.249   0.206  0.4686 -0.1121 -0.0217
 1242SOL    HW1 3782   3.050   2.324   0.166 -0.4703 -0.4339  0.3722
 1242SOL    HW2 3783   3.039   2.174   0.182 -0.1094 -0.3230  1.7974
 1243SOL     OW 3784   1.601   1.495   4.244 -0.0503 -0.6009  0.7556
 1243SOL    HW1 3785   1.549   1.572   4.264 -0.1214 -0.6866  0.9014
 1243SOL    HW2 3786   1.538   1.422   4.247 -0.0199 -0.6414  0.4405
 1244SOL     OW 3787   2.319   3.032   4.861 -0.5080 -0.2923  0.2054
 1244SOL    HW1 3788   2.412   3.017   4.843 -0.4079 -0.2320  0.6573
 1244SOL    HW2 3789   2.287   2.947   4.892 -0.3199 -0.0093  1.2049
 1245SOL     OW 3790   2.729   3.540   0.904  0.0263  0.0926 -0.5301
 1245SOL    HW1 3791   2.662   3.490   0.951  0.4255  0.5636  0.5621
 1245SOL    HW2 3792   2.680   3.610   0.860 -0.3829 -0.5160 -1.0537
 1246SOL     OW 3793   2.544   2.318   2.140  0.4737 -0.1997 -0.5506
 1246SOL    HW1 3794   2.561   2.405   2.177 -1.1352 -0.3875  0.7196
 1246SOL    HW2 3795   2.623   2.268   2.160  0.5714  0.3734  0.5678
 1247SOL     OW 3796   1.634   1.254   2.117  0.0985 -0.1756 -0.2973
 1247SOL    HW1 3797   1.705   1.222   2.172  1.0880  2.5121  0.1006
 1247SOL    HW2 3798   1.672   1.259   2.029  1.1112  2.9903  0.2170
 1248SOL     OW 3799   0.789   3.344   3.841 -0.5310  0.1381  0.3354
 1248SOL    HW1 3800   0.793   3.370   3.749 -0.7323 -0.5316  0.1339
 1248SOL    HW2 3801   0.805   3.425   3.889  0.0772  0.4036 -0.2936
 1249SOL     OW 3802   1.862   0.264   3.914  0.0482  0.6447 -0.0073
 1249SOL    HW1 3803   1.822   0.189   3.869 -0.2328 -0.3691  1.8321
 1249SOL    HW2 3804   1.844   0.248   4.007  3.1460  1.0787  0.7724
 1250SOL     OW 3805   2.456   1.821   4.973 -0.2466  0.2348  0.5091
 1250SOL    HW1 3806   2.457   1.740   4.923 -2.0796 -1.8103  3.4707
 1250SOL    HW2 3807   2.541   1.823   5.018 -0.4506 -0.4392  0.9355
 1251SOL     OW 3808   0.188   4.716   1.280 -0.1622  0.2292  0.1981
 1251SOL    HW1 3809   0.259   4.661   1.248 -2.7153 -3.0283 -0.2940
 1251SOL    HW2 3810   0.144   4.747   1.202 -0.4490  0.6688  0.5263
 1252SOL     OW 3811   4.004   0.185   2.003 -0.6776 -0.0424  0.3482
 1252SOL    HW1 3812   4.044   0.269   1.980  2.1199 -0.9438  1.5348
 1252SOL    HW2 3813   3.995   0.140   1.919  0.3799  0.3855 -0.0113
 1253SOL     OW 3814   1.845   4.548   2.279 -0.5656 -0.4014 -0.0693
 1253SOL    HW1 3815   1.809   4.604   2.211 -2.4206  0.0948  1.2514
 1253SOL    HW2 3816   1.779   4.480   2.292 -0.0938 -0.6824  0.9864
 1254SOL     OW 3817   1.219   3.062   4.281 -0.5690 -0.0292 -0.0924
 1254SOL    HW1 3818   1.192   3.130   4.219  2.1659  0.9760 -0.3172
 1254SOL    HW2 3819   1.290   3.102   4.331  0.2445 -2.3025  0.6957
 1255SOL     OW 3820   4.520   0.793   0.446 -0.6808 -0.2985  0.1154
 1255SOL    HW1 3821   4.500   0.727   0.512 -0.6572  0.5121  0.9558
 1255SOL    HW2 3822   4.603   0.830   0.473 -0.2313 -0.5487 -0.8665
 1256SOL     OW 3823   4.568   0.650   0.025 -0.7378 -0.8720  0.2877
 1256SOL    HW1 3824   4.617   0.637  -0.055  0.4691 -0.3761  0.9267
 1256SOL    HW2 3825   4.476   0.641  -0.001 -0.3381 -1.2848 -1.0214
 1257SOL     OW 3826   4.503   4.628   4.496 -0.0161  0.2759 -0.7349
 1257SOL    HW1 3827   4.516   4.625   4.401 -0.7781  1.0067 -0.8761
 1257SOL    HW2 3828   4.592   4.627   4.532  0.2877  0.1659 -1.4608
 1258SOL     OW 3829   3.199   4.930   2.268 -0.3841 -0.1902  0.2440
 1258SOL    HW1 3830   3.155   4.870   2.328 -1.8149  2.0532  1.5804
 1258SOL    HW2 3831   3.150   4.924   2.187 -0.1781 -1.1833  0.1827
 1259SOL     OW 3832   1.277   2.507   2.540 -0.0708 -0.5676  0.5785
 1259SOL    HW1 3833   1.275   2.429   2.595 -0.9466  0.3278  1.8960
 1259SOL    HW2 3834   1.359   2.551   2.563 -0.9328  0.3594  2.0552
 1260SOL     OW 3835   4.410   0.040   1.092  0.0247 -0.5927 -0.3802
 1260SOL    HW1 3836   4.363  -0.042   1.081 -0.5848 -0.1710 -0.9170
 1260SOL    HW2 3837   4.477   0.019   1.158 -0.0968 -1.5238 -0.5327
 1261SOL     OW 3838   3.904   3.374   2.249 -0.6801 -0.0315  0.5751
 1261SOL    HW1 3839   3.905   3.345   2.340  1.2776  0.0733  0.6224
 1261SOL    HW2 3840   3.982   3.334   2.210 -2.1959 -1.2094 -1.4517
 1262SOL     OW 3841   0.854   0.218   0.872 -0.4817  0.1747 -0.3263
 1262SOL    HW1 3842   0.929   0.275   0.854  0.1225 -0.6824 -0.6114
 1262SOL    HW2 3843   0.820   0.249   0.956  0.4287  0.3495 -0.0065
 1263SOL     OW 3844   3.223   2.192   4.956  0.3419  0.1244  0.0260
 1263SOL    HW1 3845   3.317   2.196   4.969  0.5027 -0.5061 -0.8549
 1263SOL    HW2 3846   3.186   2.234   5.034  1.3318  0.1086  0.5188
 1264SOL     OW 3847   3.535   1.025   3.612  0.0311  0.3426  0.1908
 1264SOL    HW1 3848   3.558   0.932   3.617  0.1498  0.3001 -0.9395
 1264SOL    HW2 3849   3.516   1.041   3.520 -1.8038  1.0343  0.6448
 1265SOL     OW 3850   2.957   3.009   0.644 -0.2021  0.3219 -0.3698
 1265SOL    HW1 3851   2.965   2.976   0.555 -0.0380  2.5940 -1.2621
 1265SOL    HW2 3852   2.878   2.966   0.678 -0.3801 -0.4383 -1.6698
 1266SOL     OW 3853   4.310   4.958   4.794  0.3119  0.2004  0.3878
 1266SOL    HW1 3854   4.299   4.963   4.889  0.4831  0.5166  0.3913
 1266SOL    HW2 3855   4.337   5.046   4.768  1.0004 -0.0778  0.1431
 1267SOL     OW 3856   1.436   3.352   1.185  1.3393 -0.4617 -0.2642
 1267SOL    HW1 3857   1.376   3.335   1.113  2.3337 -0.5041 -1.1143
 1267SOL    HW2 3858   1.500   3.414   1.149  1.7644 -0.3517  0.6328
 1268SOL     OW 3859   4.716   1.938   4.682 -0.5801 -0.1077  0.5483
 1268SOL    HW1 3860   4.754   2.021   4.712  2.4819 -0.6623 -1.3754
 1268SOL    HW2 3861   4.703   1.951   4.588 -0.9927 -1.5014  0.4008
 1269SOL     OW 3862   0.991   4.081   0.785 -0.3088  0.9800 -0.3097
 1269SOL    HW1 3863   0.902   4.068   0.816 -0.5955  2.0938 -0.6314
 1269SOL    HW2 3864   0.988   4.164   0.738  0.5823  0.3352 -1.5352
 1270SOL     OW 3865   1.250   0.528   1.049  0.0561  0.4099  0.4682
 1270SOL    HW1 3866   1.306   0.588   1.098 -0.0933 -0.5062  1.8242
 1270SOL    HW2 3867   1.170   0.522   1.101 -0.2818 -0.2722 -0.1085
 1271SOL     OW 3868   2.595   4.484   3.785 -0.3411 -0.0994 -0.0225
 1271SOL    HW1 3869   2.534   4.436   3.728  1.9664 -3.6550  0.2610
 1271SOL    HW2 3870   2.621   4.560   3.732 -2.5006 -0.1842 -1.3683
 1272SOL     OW 3871   3.340   1.220   1.827 -0.1895  0.0233  0.1623
 1272SOL    HW1 3872   3.283   1.236   1.902 -0.2312  0.4914  0.0341
 1272SOL    HW2 3873   3.281   1.223   1.751 -0.1265 -0.3142  0.0993
 1273SOL     OW 3874   2.001   2.529   3.564  0.1739 -0.4145  0.0981
 1273SOL    HW1 3875   1.922   2.498   3.608  0.2348 -3.1860 -1.5144
 1273SOL    HW2 3876   2.063   2.457   3.572  1.0772  0.0143 -2.1605
 1274SOL     OW 3877   3.509   4.162   4.154  0.7474  0.3533  0.1779
 1274SOL    HW1 3878   3.591   4.195   4.118  0.3280 -1.3442 -2.6903
 1274SOL    HW2 3879   3.530   4.074   4.185  0.5515  0.9253  2.0572
 1275SOL     OW 3880   0.830   2.194   3.088 -0.0037 -0.5245  0.0877
 1275SOL    HW1 3881   0.740   2.170   3.069  0.2367 -2.3694  1.0065
 1275SOL    HW2 3882   0.858   2.248   3.014 -1.4039 -1.1120 -0.8929
 1276SOL     OW 3883   1.086   4.565   0.552  0.3247  0.4194 -0.1523
 1276SOL    HW1 3884   1.136   4.643   0.576  1.0295  0.0603 -0.4232
 1276SOL    HW2 3885   1.140   4.492   0.584  0.5873 -0.0230 -1.5359
 1277SOL     OW 3886   2.868   1.156   0.862  0.4068  0.5097 -0.1794
 1277SOL    HW1 3887   2.784   1.132   0.903  1.2705 -0.2776  1.2043
 1277SOL    HW2 3888   2.934   1.117   0.919  1.7402  1.6052 -0.9274
 1278SOL     OW 3889   4.848   1.484   3.967 -0.4162  0.6449 -0.4171
 1278SOL    HW1 3890   4.926   1.496   3.912 -0.2512  1.9582  0.0757
 1278SOL    HW2 3891   4.882   1.481   4.057 -0.9769  1.7713 -0.1608
 1279SOL     OW 3892   1.915   2.113   2.735 -0.6718 -0.0367 -0.1815
 1279SOL    HW1 3893   2.011   2.109   2.740 -0.7843 -0.9879  2.9496
 1279SOL    HW2 3894   1.898   2.158   2.652  2.4764  1.0162 -0.4011
 1280SOL     OW 3895   2.312   3.743   2.647 -0.0370  0.2806 -0.8149
 1280SOL    HW1 3896   2.268   3.828   2.647 -1.4789 -0.4022  0.9988
 1280SOL    HW2 3897   2.268   3.693   2.579 -1.4204 -0.0422  0.2794
 1281SOL     OW 3898   0.196   2.238   4.710 -0.1127 -0.2021  0.2427
 1281SOL    HW1 3899   0.269   2.270   4.764  0.4255  0.1639 -0.6856
 1281SOL    HW2 3900   0.156   2.169   4.763  2.0316 -1.7129  0.0280
 1282SOL     OW 3901   1.878   1.503   4.178  0.0687  0.4600  0.3932
 1282SOL    HW1 3902   1.898   1.440   4.247  0.0545  0.0733  0.0535
 1282SOL    HW2 3903   1.783   1.513   4.181  0.2063  1.6946  1.4899
 1283SOL     OW 3904   2.710   0.727   0.004  0.3773  0.6887 -0.0330
 1283SOL    HW1 3905   2.788   0.772  -0.031  0.5065  0.8077  0.3998
 1283SOL    HW2 3906   2.739   0.637   0.019 -0.1313  0.1931 -1.7566
 1284SOL     OW 3907   2.145   2.114   0.171 -0.4415 -0.3585  0.1084
 1284SOL    HW1 3908   2.198   2.035   0.186 -0.7009 -0.2313  1.9789
 1284SOL    HW2 3909   2.104   2.100   0.086  2.2968 -0.6108 -1.2788
 1285SOL     OW 3910   2.745   0.915   2.743  0.7809 -0.1936  0.2063
 1285SOL    HW1 3911   2.683   0.933   2.672  0.9023  0.2529  0.2129
 1285SOL    HW2 3912   2.716   0.831   2.779  2.3672 -1.9065 -2.1659
 1286SOL     OW 3913   2.976   2.916   2.154  0.0469  0.3543  0.2487
 1286SOL    HW1 3914   2.894   2.871   2.137  1.4127 -2.0668 -0.3083
 1286SOL    HW2 3915   2.978   2.987   2.090 -1.6669  0.5959  0.4085
 1287SOL     OW 3916   0.504   2.299   4.272 -0.7078  0.6852 -0.6853
 1287SOL    HW1 3917   0.585   2.310   4.322  0.0580 -1.8344 -1.2388
 1287SOL    HW2 3918   0.434   2.320   4.334  0.2468 -1.2303  1.1352
 1288SOL     OW 3919   3.612   2.242   1.129 -0.3614 -0.1120 -0.4061
 1288SOL    HW1 3920   3.587   2.177   1.195  2.5401 -2.1712 -1.1514
 1288SOL    HW2 3921   3.705   2.225   1.112  0.3437  3.7743 -1.2741
 1289SOL     OW 3922   0.452   2.475   4.071  0.2662  0.1882 -0.2746
 1289SOL    HW1 3923   0.518   2.545   4.073  1.8335 -1.1454 -2.0880
 1289SOL    HW2 3924   0.474   2.421   4.147  0.3434  0.5104 -0.0605
 1290SOL     OW 3925   1.572   4.289   2.790 -0.6146  0.5515 -0.4078
 1290SOL    HW1 3926   1.524   4.223   2.839 -1.0346 -0.0964 -1.6367
 1290SOL    HW2 3927   1.574   4.255   2.700  2.2719  0.4610 -0.4280
 1291SOL     OW 3928   2.799   2.831   3.176  0.1352 -0.0319  0.6604
 1291SOL    HW1 3929   2.708   2.856   3.168  0.5474  1.0659 -0.9482
 1291SOL    HW2 3930   2.797   2.745   3.218 -1.6474 -0.2811  0.1124
 1292SOL     OW 3931   4.424   1.309   1.307  0.2644  0.6133 -0.2895
 1292SOL    HW1 3932   4.402   1.356   1.387  0.5678  2.7417 -1.3920
 1292SOL    HW2 3933   4.474   1.233   1.337  0.9581  1.7145  1.5079
 1293SOL     OW 3934   3.751   2.257   0.608  0.1019  0.0805 -0.3473
 1293SOL    HW1 3935   3.667   2.276   0.564 -0.1524 -1.7632 -0.7159
 1293SOL    HW2 3936   3.729   2.192   0.674  0.8799  1.2686  1.1428
 1294SOL     OW 3937   3.114   3.218   0.687 -0.5787  0.4337 -0.0343
 1294SOL    HW1 3938   3.047   3.285   0.698 -0.2495  0.6275  0.8531
 1294SOL    HW2 3939   3.065   3.137   0.674 -0.9907  0.9108 -1.7873
 1295SOL     OW 3940   1.908   0.111   1.942 -0.6968 -0.1682 -0.4724
 1295SOL    HW1 3941   1.813   0.096   1.951 -0.9003  0.6926 -1.0579
 1295SOL    HW2 3942   1.946   0.023   1.944 -1.6961 -0.6973 -2.0540
 1296SOL     OW 3943   4.008   4.048   3.167 -0.2816  0.4112 -0.3751
 1296SOL    HW1 3944   3.989   3.965   3.212 -1.0680 -0.9440 -2.9530
 1296SOL    HW2 3945   4.102   4.060   3.177  0.0396 -1.4141 -0.8546
 1297SOL     OW 3946   4.276   4.154   4.391 -0.1855  0.1601  0.1277
 1297SOL    HW1 3947   4.341   4.194   4.448  0.8276 -1.7225  0.3730
 1297SOL    HW2 3948   4.192   4.171   4.434  0.5564 -1.4049  2.3895
 1298SOL     OW 3949   0.980   2.712   3.696 -0.2518 -0.1568  0.0917
 1298SOL    HW1 3950   0.909   2.758   3.742 -0.1342 -1.0136  1.1567
 1298SOL    HW2 3951   0.936   2.639   3.652 -0.1424 -0.2689  0.1658
 1299SOL     OW 3952   4.244   2.971   0.672 -0.6070  0.4573 -0.1559
 1299SOL    HW1 3953   4.234   2.967   0.767 -1.3411 -0.7223 -0.2612
 1299SOL    HW2 3954   4.161   2.937   0.638  0.2870 -0.7750 -1.1945
 1300SOL     OW 3955   0.569   2.444   1.154 -0.1087  0.0167 -0.3804
 1300SOL    HW1 3956   0.478   2.473   1.163  0.4269  2.0607 -0.8430
 1300SOL    HW2 3957   0.589   2.402   1.237 -1.4598 -0.4212 -0.2488
 1301SOL     OW 3958   0.366   3.792   1.477  0.0313 -0.0975  0.4255
 1301SOL    HW1 3959   0.411   3.829   1.553 -0.3315  0.3237  0.4425
 1301SOL    HW2 3960   0.273   3.799   1.499 -0.0473 -1.3033  0.5586
 1302SOL     OW 3961   1.670   4.950   1.944 -0.3909 -0.3184 -0.0054
 1302SOL    HW1 3962   1.626   4.885   1.890  1.7639 -1.9487  0.0630
 1302SOL    HW2 3963   1.600   4.992   1.993 -2.0047 -1.5702 -1.1421
 1303SOL     OW 3964   0.292   2.144   1.770  0.3103  0.2684  1.0345
 1303SOL    HW1 3965   0.319   2.102   1.688 -1.3319  1.7325 -0.3310
 1303SOL    HW2 3966   0.277   2.235   1.746 -1.0574  0.5304  2.7738
 1304SOL     OW 3967   4.916   0.175   3.507 -0.2645 -0.1962  0.2647
 1304SOL    HW1 3968   4.924   0.186   3.413  1.2648 -2.4745  0.0474
 1304SOL    HW2 3969   4.831   0.132   3.519 -0.7997  0.7775  0.0175
 1305SOL     OW 3970   4.836   3.508   1.948  0.1212 -0.3847 -0.4430
 1305SOL    HW1 3971   4.885   3.463   2.017 -0.4174 -1.5708 -0.8120
 1305SOL    HW2 3972   4.853   3.456   1.869  0.5128  0.7940 -1.1672
 1306SOL     OW 3973   3.243   1.989   0.513  0.5748  0.0826  0.2909
 1306SOL    HW1 3974   3.152   1.966   0.530  0.3129  0.5218 -0.4421
 1306SOL    HW2 3975   3.272   2.034   0.592 -0.1383  0.7736  0.1674
 1307SOL     OW 3976   1.255   4.087   0.884 -0.2836  0.1330  0.2710
 1307SOL    HW1 3977   1.159   4.080   0.883 -0.4075  1.1385 -2.1910
 1307SOL    HW2 3978   1.279   4.093   0.792  2.3230 -1.5699  0.7598
 1308SOL     OW 3979   0.612   0.743   2.469 -0.2969 -0.0318  0.1335
 1308SOL    HW1 3980   0.550   0.791   2.524 -0.0327  0.8725 -0.3459
 1308SOL    HW2 3981   0.668   0.811   2.432  2.4364 -0.9174  2.2847
 1309SOL     OW 3982   1.848   2.427   2.037 -0.0927  0.5632 -0.4563
 1309SOL    HW1 3983   1.868   2.451   2.127 -0.1671 -2.0037  0.3143
 1309SOL    HW2 3984   1.918   2.366   2.012 -0.1478  1.1181 -2.1103
 1310SOL     OW 3985   3.720   3.031   1.629  0.1755  0.1974  0.0536
 1310SOL    HW1 3986   3.638   3.015   1.582 -1.0199  0.1406  2.0111
 1310SOL    HW2 3987   3.788   3.002   1.569 -1.2914 -0.7407 -1.2585
 1311SOL     OW 3988   4.254   2.437   0.712  0.1797 -0.0710 -0.1941
 1311SOL    HW1 3989   4.207   2.411   0.633 -0.3866  1.0235 -0.2304
 1311SOL    HW2 3990   4.279   2.528   0.697  1.8230 -0.4387  0.0657
 1312SOL     OW 3991   3.318   3.991   1.065 -0.0474  0.5253 -0.2656
 1312SOL    HW1 3992   3.257   4.062   1.045  0.1448  1.0870  1.0332
 1312SOL    HW2 3993   3.270   3.911   1.042 -1.7292  0.8848  1.7115
 1313SOL     OW 3994   0.937   3.375   3.250  0.9083  0.0567  0.0931
 1313SOL    HW1 3995   0.984   3.403   3.329 -0.2125 -1.8898  1.5341
 1313SOL    HW2 3996   0.875   3.446   3.232  0.6700  0.2092  1.4147
 1314SOL     OW 3997   3.070   4.765   0.534  0.6486 -0.0916 -0.6099
 1314SOL    HW1 3998   3.072   4.773   0.629  0.7075 -1.6852 -0.4505
 1314SOL    HW2 3999   3.150   4.717   0.512  0.0046 -0.8855 -1.3241
 1315SOL     OW 4000   2.196   2.956   2.238  0.5424 -0.3130  0.6776
 1315SOL    HW1 4001   2.165   2.866   2.251  0.7833 -0.3421  1.0593
 1315SOL    HW2 4002   2.247   2.976   2.316  0.2855  0.2477  0.7083
 1316SOL     OW 4003   0.802   2.504   4.664  0.1101 -0.0886 -0.0277
 1316SOL    HW1 4004   0.756   2.471   4.587 -1.8590 -1.1952  1.5304
 1316SOL    HW2 4005   0.855   2.431   4.693 -1.9253 -1.0093  1.6620
 1317SOL     OW 4006   4.860   3.472   0.537  0.0235  0.3904 -0.7064
 1317SOL    HW1 4007   4.855   3.552   0.589  0.7261  0.5980 -0.9458
 1317SOL    HW2 4008   4.945   3.477   0.494  0.2640 -0.7038 -0.3709
 1318SOL     OW 4009   4.682   3.202   3.133 -0.2451  0.1424 -0.4523
 1318SOL    HW1 4010   4.604   3.151   3.155  0.2390 -0.8577 -0.9713
 1318SOL    HW2 4011   4.711   3.239   3.216  0.8670 -2.5636  0.5012
 1319SOL     OW 4012   3.596   0.860   4.680  0.0842 -0.0930  0.0069
 1319SOL    HW1 4013   3.571   0.776   4.641 -1.4636  0.1575  0.3708
 1319SOL    HW2 4014   3.631   0.911   4.606  0.9446 -1.0090 -0.2315
 1320SOL     OW 4015   1.592   3.536   1.055 -0.0980 -0.2726 -0.0254
 1320SOL    HW1 4016   1.670   3.502   1.012  0.9770  0.7394  1.0533
 1320SOL    HW2 4017   1.610   3.630   1.067 -1.8455  0.1743 -0.5365
 1321SOL     OW 4018   1.903   1.755   4.075  0.3578  0.0353  0.1793
 1321SOL    HW1 4019   1.908   1.677   4.131  0.3032 -0.0844  0.0171
 1321SOL    HW2 4020   1.841   1.731   4.006 -0.4108  0.5622  0.6760
 1322SOL     OW 4021   2.051   3.411   1.295  0.1136 -0.0978  0.1046
 1322SOL    HW1 4022   2.044   3.498   1.335 -0.4457 -0.0441 -0.1010
 1322SOL    HW2 4023   1.998   3.355   1.351  2.2048 -0.7895  1.5188
 1323SOL     OW 4024   2.743   2.157   0.733 -0.3708  0.4684 -0.5264
 1323SOL    HW1 4025   2.681   2.116   0.795  0.2664  0.7013  0.2839
 1323SOL    HW2 4026   2.751   2.247   0.764 -0.1930  0.6448 -1.0780
 1324SOL     OW 4027   1.272   4.397   0.761  0.1119 -0.0009 -0.3372
 1324SOL    HW1 4028   1.261   4.307   0.732 -2.3331  0.0505  0.1688
 1324SOL    HW2 4029   1.216   4.404   0.838 -0.9660  2.3076 -1.2350
 1325SOL     OW 4030   3.722   2.392   0.873 -1.2889  0.1810  0.0404
 1325SOL    HW1 4031   3.636   2.351   0.864 -2.0108  1.4437  0.7453
 1325SOL    HW2 4032   3.715   2.443   0.954  0.0518  0.4920 -0.0243
 1326SOL     OW 4033   4.240   1.387   1.148  0.1159 -0.4340  0.1447
 1326SOL    HW1 4034   4.287   1.367   1.229 -0.1383  0.3574  0.4940
 1326SOL    HW2 4035   4.275   1.471   1.119  0.2069 -0.7067 -0.5827
 1327SOL     OW 4036   1.526   1.959   3.611 -0.5423 -0.0952 -0.1239
 1327SOL    HW1 4037   1.481   1.880   3.583 -0.5109 -0.2255  0.1922
 1327SOL    HW2 4038   1.617   1.932   3.624 -0.8993 -0.5042  1.9352
 1328SOL     OW 4039   1.781   2.949   1.300  0.2783  0.5735 -0.2525
 1328SOL    HW1 4040   1.872   2.970   1.282  0.1341  0.7158 -0.8209
 1328SOL    HW2 4041   1.752   3.017   1.361  1.4941 -1.3129  2.6863
 1329SOL     OW 4042   2.855   2.853   2.609  0.4573 -0.5340  0.7890
 1329SOL    HW1 4043   2.853   2.947   2.588 -2.2348  0.4988  4.6085
 1329SOL    HW2 4044   2.783   2.816   2.559  0.9896 -0.4525 -0.0691
 1330SOL     OW 4045   3.377   3.824   4.680  0.1409 -0.2326  0.0190
 1330SOL    HW1 4046   3.291   3.794   4.710  1.1108 -1.4745  1.7166
 1330SOL    HW2 4047   3.409   3.754   4.623  0.6645 -0.5144  0.6463
 1331SOL     OW 4048   2.870   0.185   4.660  0.5692  0.1693  0.4057
 1331SOL    HW1 4049   2.867   0.281   4.666 -0.3807  0.2413 -0.9198
 1331SOL    HW2 4050   2.915   0.158   4.740  1.0498  1.7311  0.7058
 1332SOL     OW 4051   0.029   4.637   1.865  0.1323  0.1819  0.1492
 1332SOL    HW1 4052  -0.000   4.682   1.786 -0.8276 -1.0986 -0.2640
 1332SOL    HW2 4053   0.118   4.669   1.880 -0.2025  1.5427 -0.5958
 1333SOL     OW 4054   1.851   1.880   0.826  0.2276  0.2162  0.2626
 1333SOL    HW1 4055   1.812   1.844   0.747  0.0105  0.3926  0.2877
 1333SOL    HW2 4056   1.786   1.943   0.858 -0.0914 -0.4997  1.0669
 1334SOL     OW 4057   3.277   0.713   4.863 -0.0530  0.1683 -0.6463
 1334SOL    HW1 4058   3.227   0.722   4.944 -0.4578  0.9859 -0.9764
 1334SOL    HW2 4059   3.359   0.760   4.881 -0.3905  0.8710 -0.9051
 1335SOL     OW 4060   2.032   4.737   4.465  0.5032  0.4037 -0.6375
 1335SOL    HW1 4061   2.049   4.765   4.375  0.0060  0.3695 -0.7472
 1335SOL    HW2 4062   1.955   4.680   4.458  1.1660 -0.5493 -0.3427
 1336SOL     OW 4063   2.844   0.247   2.012 -0.0026 -0.0297  0.5050
 1336SOL    HW1 4064   2.754   0.271   2.035 -0.1834 -0.3399  0.1491
 1336SOL    HW2 4065   2.845   0.249   1.916  0.2797 -0.3378  0.5004
 1337SOL     OW 4066   4.042   2.462   2.557 -0.1794 -0.4408  0.0472
 1337SOL    HW1 4067   4.085   2.479   2.473  3.6986 -0.0352  1.8877
 1337SOL    HW2 4068   4.043   2.546   2.602  1.3486 -1.3334  1.8537
 1338SOL     OW 4069   2.294   4.028   2.604  0.3832  0.3059  0.1990
 1338SOL    HW1 4070   2.372   4.083   2.596 -0.8529  1.9265 -1.1710
 1338SOL    HW2 4071   2.272   4.031   2.698  1.3802  0.6162  0.4385
 1339SOL     OW 4072   1.518   2.556   1.616 -0.3273  0.6410  0.7177
 1339SOL    HW1 4073   1.612   2.539   1.609  0.2649  2.7177  2.2880
 1339SOL    HW2 4074   1.489   2.570   1.526  1.2924  1.8366  0.3368
 1340SOL     OW 4075   4.122   3.059   4.686  0.5136  0.1146  0.3374
 1340SOL    HW1 4076   4.176   3.126   4.644  1.4104 -0.6299  0.2842
 1340SOL    HW2 4077   4.131   2.982   4.629  0.9031 -0.5903  1.3321
 1341SOL     OW 4078   4.253   4.454   0.672  0.0331 -0.0815 -0.0326
 1341SOL    HW1 4079   4.333   4.403   0.661  0.9931  1.3584 -0.0784
 1341SOL    HW2 4080   4.213   4.455   0.585 -0.6585 -1.7192  0.2252
 1342SOL     OW 4081   0.654   2.835   4.385 -0.3271 -0.5173  0.1387
 1342SOL    HW1 4082   0.713   2.901   4.350  0.3895 -1.7769 -1.1377
 1342SOL    HW2 4083   0.701   2.799   4.460 -0.4598 -0.0001  0.4737
 1343SOL     OW 4084   3.259   0.646   0.446  0.3108 -0.7533 -0.4534
 1343SOL    HW1 4085   3.321   0.576   0.468 -0.7816 -1.4836  0.3698
 1343SOL    HW2 4086   3.220   0.671   0.529  0.5771  0.7651 -0.7560
 1344SOL     OW 4087   0.833   3.389   1.838  0.1605 -0.4277  0.2570
 1344SOL    HW1 4088   0.890   3.451   1.792 -0.5768  0.4638  0.5209
 1344SOL    HW2 4089   0.844   3.411   1.930 -0.3778 -0.4571  0.3268
 1345SOL     OW 4090   3.664   3.503   2.372  0.0889 -0.4267 -0.1124
 1345SOL    HW1 4091   3.743   3.453   2.352 -0.4642 -0.3776 -2.7318
 1345SOL    HW2 4092   3.694   3.593   2.380  0.5207 -0.6311  0.7140
 1346SOL     OW 4093   1.974   4.082   4.357 -0.3532  0.2133 -0.0234
 1346SOL    HW1 4094   2.053   4.126   4.387 -0.5595  0.0337  0.8108
 1346SOL    HW2 4095   1.963   4.112   4.267  0.6440  0.2617 -0.1414
 1347SOL     OW 4096   1.882   1.092   3.665  0.1213  0.2348  0.1331
 1347SOL    HW1 4097   1.959   1.149   3.668 -0.2431  0.7049  0.6165
 1347SOL    HW2 4098   1.913   1.008   3.701  0.2134  0.6602  1.0772
 1348SOL     OW 4099   2.996   4.971   2.053 -0.4009  0.2805 -0.0775
 1348SOL    HW1 4100   2.993   5.067   2.051  0.6204  0.3076 -0.7033
 1348SOL    HW2 4101   2.935   4.944   1.984  1.3464  0.5513 -1.8090
 1349SOL     OW 4102   2.319   4.482   4.405  0.7772  0.0422  0.0735
 1349SOL    HW1 4103   2.318   4.525   4.490  0.9238  1.8953 -0.8196
 1349SOL    HW2 4104   2.410   4.484   4.377  0.4070  1.7333 -1.1836
 1350SOL     OW 4105   4.050   2.404   0.538  0.1981 -1.1634 -0.0408
 1350SOL    HW1 4106   4.030   2.458   0.461 -3.4845 -2.3774 -0.1069
 1350SOL    HW2 4107   4.058   2.316   0.503  0.6019 -1.4325  0.7306
 1351SOL     OW 4108   0.985   1.702   1.747 -0.0764  0.0736 -0.8394
 1351SOL    HW1 4109   0.948   1.637   1.805 -0.3942  0.7069 -0.3220
 1351SOL    HW2 4110   1.047   1.653   1.692  0.1233 -0.5512 -0.0693
 1352SOL     OW 4111   2.813   1.852   1.263 -0.5906 -0.2613 -0.6704
 1352SOL    HW1 4112   2.745   1.799   1.221 -1.2009 -1.5226  1.7429
 1352SOL    HW2 4113   2.805   1.831   1.356  1.1279  1.8853  0.0200
 1353SOL     OW 4114   4.029   1.079   4.827  0.3920  0.2097  0.1887
 1353SOL    HW1 4115   4.103   1.084   4.887 -0.2892  2.1060  0.9782
 1353SOL    HW2 4116   3.956   1.050   4.883 -0.1297  1.4810  0.2128
 1354SOL     OW 4117   1.583   4.021   1.727 -0.0707  0.4205 -0.4720
 1354SOL    HW1 4118   1.661   3.978   1.762  1.2203  1.1712 -2.2534
 1354SOL    HW2 4119   1.510   3.987   1.780  1.2807 -1.3835  0.3142
 1355SOL     OW 4120   2.450   3.280   4.713 -0.1716 -0.2141  0.1160
 1355SOL    HW1 4121   2.498   3.253   4.635  0.5440  0.7978  0.1855
 1355SOL    HW2 4122   2.358   3.267   4.691 -0.2254  2.7247 -2.0231
 1356SOL     OW 4123   3.326   4.146   0.016 -0.5199  0.1953  0.0008
 1356SOL    HW1 4124   3.306   4.201   0.092 -0.5927  2.2266 -1.4254
 1356SOL    HW2 4125   3.246   4.095   0.002 -1.2275  1.2361  0.1312
 1357SOL     OW 4126   1.584   1.448   3.776  0.1058 -0.2981  0.2116
 1357SOL    HW1 4127   1.490   1.469   3.778 -0.0954 -1.2027  1.3976
 1357SOL    HW2 4128   1.589   1.359   3.812  1.5230  0.1688  1.2427
 1358SOL     OW 4129   4.220   3.808   2.398 -0.3663  0.2354  0.0402
 1358SOL    HW1 4130   4.262   3.863   2.465 -0.3352  0.8147 -0.4482
 1358SOL    HW2 4131   4.279   3.733   2.388  0.7382  1.1717 -0.8444
 1359SOL     OW 4132   3.522   0.632   0.066 -0.4328  0.1413  0.2570
 1359SOL    HW1 4133   3.572   0.704   0.105  2.5669 -1.6612  0.0529
 1359SOL    HW2 4134   3.512   0.568   0.136 -2.3920  0.3794  0.2321
 1360SOL     OW 4135   0.391   2.808   2.323  0.1501  0.1001 -0.2615
 1360SOL    HW1 4136   0.402   2.786   2.230  2.3012 -0.2442  0.0265
 1360SOL    HW2 4137   0.477   2.838   2.351 -1.4473  4.7838  0.5301
 1361SOL     OW 4138   4.588   3.826   0.505  0.0571 -0.2822  0.0186
 1361SOL    HW1 4139   4.493   3.838   0.501  0.2312  1.3563  0.0454
 1361SOL    HW2 4140   4.608   3.765   0.434 -0.8160  0.9069 -1.2986
 1362SOL     OW 4141   3.350   3.303   4.441  0.3599 -0.3867 -0.8425
 1362SOL    HW1 4142   3.302   3.269   4.365  0.8805  0.9328 -1.8158
 1362SOL    HW2 4143   3.423   3.351   4.402  0.4656  0.5738  0.4837
 1363SOL     OW 4144   4.686   0.103   0.179 -0.0339  0.2591  0.6212
 1363SOL    HW1 4145   4.781   0.106   0.191  0.0120  1.4283  0.0894
 1363SOL    HW2 4146   4.672   0.032   0.117  0.6197  0.8577 -0.2436
 1364SOL     OW 4147   3.881   1.380   0.769  0.4967  0.6424  0.1352
 1364SOL    HW1 4148   3.928   1.333   0.838  0.6314 -0.8568 -0.9247
 1364SOL    HW2 4149   3.802   1.413   0.812  1.1931  0.8411  1.2995
 1365SOL     OW 4150   3.099   2.306   3.857 -0.3481  0.2305 -0.5493
 1365SOL    HW1 4151   3.185   2.325   3.820 -0.1268 -2.9275 -1.9437
 1365SOL    HW2 4152   3.038   2.356   3.803  0.3252 -0.9633 -2.5282
 1366SOL     OW 4153   1.245   2.247   2.664  0.5179  0.3546  0.0813
 1366SOL    HW1 4154   1.235   2.176   2.600 -0.5390 -0.9012  1.5589
 1366SOL    HW2 4155   1.246   2.203   2.748  0.3290  2.0816  1.0293
 1367SOL     OW 4156   1.824   4.178   0.333  0.6088 -0.0980  0.0047
 1367SOL    HW1 4157   1.775   4.224   0.266  0.1958 -0.4346  0.0742
 1367SOL    HW2 4158   1.758   4.133   0.386  0.8342  0.9966  1.2754
 1368SOL     OW 4159   1.972   3.969   2.417  0.0707  0.3917 -0.6489
 1368SOL    HW1 4160   1.954   3.908   2.489  1.6339  0.0792 -0.4777
 1368SOL    HW2 4161   1.924   3.933   2.342 -1.0577  0.3671  0.0700
 1369SOL     OW 4162   3.814   4.045   0.254  0.7130 -0.1753 -0.2963
 1369SOL    HW1 4163   3.844   3.955   0.269  0.5419 -0.5860 -2.1755
 1369SOL    HW2 4164   3.721   4.043   0.275 -0.2559 -1.5292 -3.9315
 1370SOL     OW 4165   4.310   3.878   3.423 -0.3766  0.4935 -0.3079
 1370SOL    HW1 4166   4.330   3.916   3.508 -2.1406 -0.1545  0.4614
 1370SOL    HW2 4167   4.372   3.806   3.413 -0.9537 -0.2486  1.0688
 1371SOL     OW 4168   3.189   2.715   2.284 -0.3383 -0.0068  0.4772
 1371SOL    HW1 4169   3.185   2.771   2.361 -2.4194  0.9025 -0.2242
 1371SOL    HW2 4170   3.145   2.765   2.215  0.5432 -1.2244 -1.0433
 1372SOL     OW 4171   1.888   0.341   1.466 -0.1227 -0.2897  0.2925
 1372SOL    HW1 4172   1.811   0.340   1.408  1.0217  0.3835 -1.3035
 1372SOL    HW2 4173   1.924   0.429   1.456  1.3516 -0.8658  0.3599
 1373SOL     OW 4174   3.156   4.255   0.499  0.1372  0.6244 -0.0772
 1373SOL    HW1 4175   3.104   4.335   0.506  1.7447  1.7152 -0.0497
 1373SOL    HW2 4176   3.159   4.220   0.587 -1.1086  0.1443 -0.2001
 1374SOL     OW 4177   3.956   1.760   2.746  0.0857 -0.4255 -0.4097
 1374SOL    HW1 4178   4.034   1.723   2.786 -0.3737 -1.5912 -0.5557
 1374SOL    HW2 4179   3.938   1.839   2.797 -0.0437 -1.4580  1.1824
 1375SOL     OW 4180   4.189   0.810   1.743  0.7002 -0.6800  0.9189
 1375SOL    HW1 4181   4.155   0.881   1.797  1.1958 -0.6125  1.1495
 1375SOL    HW2 4182   4.114   0.780   1.692  0.8075  1.0554 -0.3714
 1376SOL     OW 4183   3.872   2.170   1.079  0.2577 -0.0901  0.6806
 1376SOL    HW1 4184   3.854   2.199   0.990 -0.6270  1.1917  1.2460
 1376SOL    HW2 4185   3.936   2.099   1.069  1.2809  0.9849 -0.8799
 1377SOL     OW 4186   1.251   4.089   3.188  0.3171  0.5573  0.5905
 1377SOL    HW1 4187   1.296   4.066   3.269  0.2746  0.8333  0.6926
 1377SOL    HW2 4188   1.189   4.017   3.173 -0.4381  1.0193  1.3774
 1378SOL     OW 4189   4.445   0.925   2.471 -0.0674 -0.1819  0.2059
 1378SOL    HW1 4190   4.471   0.997   2.529 -1.8395 -0.5842  1.5786
 1378SOL    HW2 4191   4.528   0.882   2.448  0.9932  1.9651 -0.2880
 1379SOL     OW 4192   1.116   3.851   3.072  0.9642  0.0245  0.2925
 1379SOL    HW1 4193   1.187   3.788   3.059  0.0350 -1.0780  0.3658
 1379SOL    HW2 4194   1.093   3.841   3.165  0.7314  0.4018  0.2756
 1380SOL     OW 4195   3.398   3.469   2.333  0.3256  0.1749  0.0140
 1380SOL    HW1 4196   3.491   3.450   2.344  0.1363 -1.7014 -1.2432
 1380SOL    HW2 4197   3.360   3.389   2.297 -1.3614  1.6432 -1.7376
 1381SOL     OW 4198   0.125   1.400   2.410 -0.1818  0.1451 -0.3189
 1381SOL    HW1 4199   0.164   1.357   2.333 -0.9688  1.5927 -1.6031
 1381SOL    HW2 4200   0.031   1.402   2.391 -0.3698  0.6635  0.6257
 1382SOL     OW 4201   1.970   1.687   2.694  0.6625  0.4943  0.4270
 1382SOL    HW1 4202   2.032   1.629   2.738 -0.5913 -0.8075  0.5383
 1382SOL    HW2 4203   1.884   1.660   2.726 -0.2280  0.1403 -1.9983
 1383SOL     OW 4204   2.886   1.238   3.247  0.4822  0.5433 -0.0469
 1383SOL    HW1 4205   2.918   1.205   3.163 -1.6715 -1.8503 -0.0405
 1383SOL    HW2 4206   2.941   1.195   3.313  0.1870 -0.0017 -0.1550
 1384SOL     OW 4207   4.792   0.739   4.032 -0.2631 -0.1099 -0.0742
 1384SOL    HW1 4208   4.823   0.655   3.999 -0.3221  0.1605 -0.8372
 1384SOL    HW2 4209   4.700   0.742   4.005 -0.3124  0.1178  0.1195
 1385SOL     OW 4210   4.194   0.733   3.178 -0.4409  0.1187 -0.4747
 1385SOL    HW1 4211   4.122   0.674   3.200  0.5817 -1.3117 -0.8336
 1385SOL    HW2 4212   4.193   0.738   3.083  0.0450 -0.0841 -0.4960
 1386SOL     OW 4213   4.944   0.848   2.742  0.5612 -0.1405 -0.0334
 1386SOL    HW1 4214   4.951   0.821   2.650  0.4753 -0.7218  0.1247
 1386SOL    HW2 4215   5.027   0.890   2.761  1.1474 -1.2689  0.0079
 1387SOL     OW 4216   4.941   4.313   3.241 -0.7090  0.0708  0.6257
 1387SOL    HW1 4217   4.992   4.253   3.295  1.7950 -0.5191 -2.1232
 1387SOL    HW2 4218   4.886   4.257   3.186 -0.0827  0.3734 -0.3359
 1388SOL     OW 4219   4.877   0.835   1.880 -0.1172  0.2124 -0.3059
 1388SOL    HW1 4220   4.970   0.846   1.859 -0.1946  0.2839 -0.6079
 1388SOL    HW2 4221   4.833   0.838   1.795 -0.3642 -0.1336 -0.1918
 1389SOL     OW 4222   2.931   3.615   1.574 -0.0530  0.4106  0.2585
 1389SOL    HW1 4223   3.000   3.633   1.638  0.2074 -1.0253  0.4023
 1389SOL    HW2 4224   2.973   3.561   1.507 -0.9897 -0.3680  0.2824
 1390SOL     OW 4225   4.315   4.896   4.282  0.5423 -0.0123 -0.1079
 1390SOL    HW1 4226   4.399   4.920   4.321 -0.0198  1.4416  0.2792
 1390SOL    HW2 4227   4.317   4.935   4.194  0.4258 -0.3165 -0.2474
 1391SOL     OW 4228   2.587   4.462   3.163  0.4463  0.4770  0.2500
 1391SOL    HW1 4229   2.611   4.546   3.203 -0.7626  0.9722 -0.0094
 1391SOL    HW2 4230   2.498   4.445   3.196 -0.0705  0.2504 -1.1876
 1392SOL     OW 4231   1.799   3.952   1.877  0.6717  0.1900 -0.3676
 1392SOL    HW1 4232   1.738   3.926   1.946  0.4824 -0.6282 -0.8149
 1392SOL    HW2 4233   1.879   3.903   1.896  0.6023 -0.0797 -0.7357
 1393SOL     OW 4234   1.255   2.692   2.290  0.0274 -0.0735 -0.3326
 1393SOL    HW1 4235   1.290   2.655   2.372 -0.1187  1.1406  0.3052
 1393SOL    HW2 4236   1.306   2.649   2.221  1.7956  0.5850  0.5029
 1394SOL     OW 4237   3.341   2.199   2.628  0.3691  0.1272  0.1555
 1394SOL    HW1 4238   3.295   2.156   2.699 -0.2522 -1.2313 -1.0184
 1394SOL    HW2 4239   3.281   2.267   2.598  0.6450  0.7214  0.9298
 1395SOL     OW 4240   4.193   1.971   2.133  0.1998  0.4703  0.2273
 1395SOL    HW1 4241   4.107   1.930   2.137 -0.1930  1.3931  1.6754
 1395SOL    HW2 4242   4.242   1.933   2.206  0.5588  0.9785  0.2575
 1396SOL     OW 4243   3.784   2.862   1.236 -0.3104  0.2539 -0.4327
 1396SOL    HW1 4244   3.752   2.837   1.149  1.0000 -0.5165 -0.7174
 1396SOL    HW2 4245   3.751   2.794   1.294 -2.6949  1.6914  0.0445
 1397SOL     OW 4246   1.783   2.058   1.070 -0.3163 -0.3862 -0.0635
 1397SOL    HW1 4247   1.828   2.123   1.015  0.0952 -0.6596 -0.0540
 1397SOL    HW2 4248   1.849   2.032   1.135 -0.9507  0.3293  0.9127
 1398SOL     OW 4249   3.444   2.434   2.392 -0.2327  0.3158  0.4310
 1398SOL    HW1 4250   3.499   2.471   2.461  1.9032 -0.3991 -0.7932
 1398SOL    HW2 4251   3.464   2.488   2.315 -0.8906 -0.2511 -0.1476
 1399SOL     OW 4252   3.251   2.853   1.509  0.1106  0.1037  0.0726
 1399SOL    HW1 4253   3.231   2.940   1.542 -0.1288  0.1641 -0.2334
 1399SOL    HW2 4254   3.234   2.795   1.583  0.7371  0.3631  0.4310
 1400SOL     OW 4255   3.922   1.453   3.071  1.1498 -0.0956 -0.9295
 1400SOL    HW1 4256   3.869   1.533   3.071  1.4249  0.1493  0.9968
 1400SOL    HW2 4257   3.887   1.402   3.145  1.5548 -1.3564 -1.5794
 1401SOL     OW 4258   3.634   2.711   3.538 -0.2009 -0.0822  0.6211
 1401SOL    HW1 4259   3.668   2.622   3.547  0.6057  0.1164 -0.3177
 1401SOL    HW2 4260   3.552   2.701   3.490 -0.1604 -0.3297  0.6007
 1402SOL     OW 4261   3.698   1.435   4.520  0.5838  0.4201 -0.4100
 1402SOL    HW1 4262   3.751   1.457   4.443  2.3468 -1.1791  0.2684
 1402SOL    HW2 4263   3.725   1.346   4.543 -0.0677  0.7564  1.9084
 1403SOL     OW 4264   1.864   0.099   1.604 -0.4194  0.4610 -0.1516
 1403SOL    HW1 4265   1.773   0.090   1.632 -0.5482 -1.0553 -0.9413
 1403SOL    HW2 4266   1.864   0.171   1.541 -0.8245  1.3021  0.7939
 1404SOL     OW 4267   1.004   2.230   0.547 -0.4187  0.3702  0.2245
 1404SOL    HW1 4268   0.919   2.219   0.589 -0.7833  0.6810 -0.4102
 1404SOL    HW2 4269   1.001   2.173   0.470 -0.1808  0.6330  0.0172
 1405SOL     OW 4270   4.276   1.472   3.457 -0.2264  0.0551 -1.1463
 1405SOL    HW1 4271   4.245   1.433   3.539 -0.8911 -1.1284 -1.9375
 1405SOL    HW2 4272   4.372   1.472   3.466 -0.1653 -2.1901 -1.2623
 1406SOL     OW 4273   2.632   1.930   4.762 -0.2078  0.1832  0.3102
 1406SOL    HW1 4274   2.568   1.951   4.830 -0.0064 -0.5527  0.7402
 1406SOL    HW2 4275   2.697   1.876   4.807 -0.8111 -1.5149 -0.7667
 1407SOL     OW 4276   3.687   2.876   3.755 -0.1411 -0.3264 -0.4294
 1407SOL    HW1 4277   3.622   2.859   3.823 -0.9243  1.6604 -0.5947
 1407SOL    HW2 4278   3.677   2.804   3.692 -1.1145 -0.8629  0.3217
 1408SOL     OW 4279   2.113   1.461   4.045  0.2766  0.3052  0.0533
 1408SOL    HW1 4280   2.034   1.466   4.098  0.3479  1.4835  0.0788
 1408SOL    HW2 4281   2.092   1.400   3.974 -0.6670  0.6370  0.0413
 1409SOL     OW 4282   3.711   3.089   0.119  0.3086  0.2988  0.4279
 1409SOL    HW1 4283   3.727   3.151   0.048  3.1958 -1.5515 -0.7002
 1409SOL    HW2 4284   3.795   3.085   0.166 -1.0117  0.1624  2.9166
 1410SOL     OW 4285   1.007   4.923   1.975  0.4920  0.2107 -0.0108
 1410SOL    HW1 4286   1.100   4.928   1.995  0.1502  0.2421  1.6710
 1410SOL    HW2 4287   0.985   4.830   1.986 -0.0195  0.4730  1.3421
 1411SOL     OW 4288   2.189   4.883   2.563 -0.3040 -0.2509 -0.1743
 1411SOL    HW1 4289   2.130   4.946   2.520 -0.6539  0.5949  1.4509
 1411SOL    HW2 4290   2.271   4.931   2.573  0.4518 -1.1457 -1.6761
 1412SOL     OW 4291   4.375   2.902   0.371  0.2894  0.0983  0.0482
 1412SOL    HW1 4292   4.369   2.822   0.423  1.3538  0.6792  1.1222
 1412SOL    HW2 4293   4.448   2.885   0.311  0.0589  0.0084 -0.2094
 1413SOL     OW 4294   2.079   3.447   2.186  0.4650 -0.3721 -0.5361
 1413SOL    HW1 4295   2.069   3.419   2.096  1.4249 -0.9882 -0.4630
 1413SOL    HW2 4296   2.077   3.366   2.237  0.0402 -0.0397 -0.0165
 1414SOL     OW 4297   0.783   1.724   0.556 -0.0891  0.0023 -0.3747
 1414SOL    HW1 4298   0.817   1.647   0.510 -0.2801 -0.3997  0.1494
 1414SOL    HW2 4299   0.716   1.690   0.615 -1.0770  0.7341 -1.0389
 1415SOL     OW 4300   0.929   2.625   4.359  0.0036  0.0042 -0.0951
 1415SOL    HW1 4301   0.955   2.627   4.267 -1.3233 -0.5612 -0.5038
 1415SOL    HW2 4302   1.010   2.603   4.406  0.3404 -1.4381 -1.2740
 1416SOL     OW 4303   0.292   0.981   2.192  0.4161 -0.2694  0.0435
 1416SOL    HW1 4304   0.325   1.067   2.219  1.9502 -0.9055  0.2562
 1416SOL    HW2 4305   0.232   0.956   2.262  1.1544 -0.0417  0.7790
 1417SOL     OW 4306   3.923   1.794   3.175  0.4189  0.7379  0.0179
 1417SOL    HW1 4307   3.842   1.751   3.204  0.6604  1.3211  1.6260
 1417SOL    HW2 4308   3.989   1.767   3.239  0.4278  4.0457  1.6144
 1418SOL     OW 4309   2.021   3.155   0.358 -0.0056  0.2973 -0.2336
 1418SOL    HW1 4310   1.941   3.165   0.408  0.0701  1.1503 -0.2622
 1418SOL    HW2 4311   2.001   3.088   0.292 -0.2413 -0.5033  0.6404
 1419SOL     OW 4312   2.330   2.761   4.844 -0.4985  0.4215  0.0626
 1419SOL    HW1 4313   2.375   2.792   4.765 -1.2244  1.6939  0.1103
 1419SOL    HW2 4314   2.376   2.681   4.868 -0.7870 -0.4585 -2.1195
 1420SOL     OW 4315   2.273   3.248   0.494  0.2371  0.3607 -0.0041
 1420SOL    HW1 4316   2.334   3.311   0.455  0.7067 -0.2993 -0.3576
 1420SOL    HW2 4317   2.233   3.204   0.419 -0.5712  0.6799  0.2281
 1421SOL     OW 4318   3.305   3.213   0.906 -0.1305  0.3719  0.4662
 1421SOL    HW1 4319   3.254   3.204   0.825 -2.0595  0.9483  1.5486
 1421SOL    HW2 4320   3.312   3.124   0.941  0.7023  0.1224 -0.3017
 1422SOL     OW 4321   1.544   4.170   2.079  0.3706 -0.2172 -0.1550
 1422SOL    HW1 4322   1.624   4.126   2.109 -0.1120 -0.2298  1.1607
 1422SOL    HW2 4323   1.550   4.258   2.115 -0.2831 -0.2681  0.0877
 1423SOL     OW 4324   4.752   2.484   2.209  0.3913 -0.0361 -0.2339
 1423SOL    HW1 4325   4.759   2.568   2.254  0.9360 -0.5274  0.6417
 1423SOL    HW2 4326   4.661   2.457   2.220  0.0972  0.6513 -0.9292
 1424SOL     OW 4327   2.526   1.479   0.518 -0.2645  0.4165  0.3158
 1424SOL    HW1 4328   2.441   1.499   0.557  0.1766  2.6814  0.2640
 1424SOL    HW2 4329   2.520   1.513   0.429  0.6666  0.4901  0.2748
 1425SOL     OW 4330   1.518   1.795   4.077  0.0671  0.0922  0.1023
 1425SOL    HW1 4331   1.492   1.705   4.059  1.9690 -0.3751 -0.5658
 1425SOL    HW2 4332   1.436   1.841   4.091 -0.9926 -1.5977 -0.1908
 1426SOL     OW 4333   0.782   4.264   1.919  0.3783  0.1148 -0.0815
 1426SOL    HW1 4334   0.864   4.270   1.968  1.0840 -1.5649 -0.9572
 1426SOL    HW2 4335   0.728   4.334   1.953  2.4499  1.7649  0.0139
 1427SOL     OW 4336   2.739   2.470   2.326 -0.4223 -0.0350 -0.1775
 1427SOL    HW1 4337   2.812   2.445   2.269  0.6033  1.3185  0.4757
 1427SOL    HW2 4338   2.714   2.558   2.296 -1.4116 -0.2395 -0.0021
 1428SOL     OW 4339   4.052   1.451   2.575 -0.1905  0.0196  0.0057
 1428SOL    HW1 4340   4.006   1.529   2.542 -0.5358 -0.3154 -0.3202
 1428SOL    HW2 4341   4.023   1.443   2.666  0.0631  0.4313  0.1256
 1429SOL     OW 4342   1.985   1.994   1.598 -0.5049  0.1206 -0.1022
 1429SOL    HW1 4343   1.964   1.976   1.689 -1.2388 -0.8299 -0.4396
 1429SOL    HW2 4344   1.958   2.085   1.584  1.5609  0.9861  1.1576
 1430SOL     OW 4345   2.723   4.661   4.455  0.1037  0.3741  0.1417
 1430SOL    HW1 4346   2.681   4.643   4.371  2.0863 -1.1721 -0.6129
 1430SOL    HW2 4347   2.657   4.639   4.521 -0.6597 -0.8373 -0.9874
 1431SOL     OW 4348   0.865   1.938   3.498 -0.2320  0.1194  0.4912
 1431SOL    HW1 4349   0.923   1.891   3.438 -0.9274 -0.0796 -0.0508
 1431SOL    HW2 4350   0.917   1.951   3.577  1.4985  2.3891 -0.9099
 1432SOL     OW 4351   3.049   3.084   1.948  0.3559 -0.0011 -0.3807
 1432SOL    HW1 4352   2.955   3.072   1.933  0.2732  0.1652 -0.0124
 1432SOL    HW2 4353   3.083   3.116   1.864  0.3059 -1.2370 -0.8904
 1433SOL     OW 4354   4.478   3.685   4.243 -0.2918 -0.4976 -0.1855
 1433SOL    HW1 4355   4.530   3.658   4.319  0.6918 -1.3265 -1.1220
 1433SOL    HW2 4356   4.389   3.695   4.278  0.0894 -1.0792  1.0326
 1434SOL     OW 4357   3.122   3.397   3.544 -0.4645  0.3080 -0.3140
 1434SOL    HW1 4358   3.136   3.454   3.619  0.6254  0.7640 -0.8406
 1434SOL    HW2 4359   3.079   3.320   3.580 -1.0394  1.0202  0.5775
 1435SOL     OW 4360   4.291   2.767   1.035  0.3683 -0.0286  0.4437
 1435SOL    HW1 4361   4.267   2.778   1.127 -0.1719 -0.4731  0.3605
 1435SOL    HW2 4362   4.262   2.848   0.992  2.5053  1.1188  1.0124
 1436SOL     OW 4363   4.359   2.772   4.440 -0.2823  0.5341 -1.0325
 1436SOL    HW1 4364   4.412   2.850   4.456 -0.6261  0.2884  1.7198
 1436SOL    HW2 4365   4.274   2.793   4.479 -0.5792 -0.9544 -0.8358
 1437SOL     OW 4366   0.899   4.069   3.936  0.2421 -0.1941 -0.2348
 1437SOL    HW1 4367   0.886   3.982   3.898 -1.0552  0.4827 -1.4463
 1437SOL    HW2 4368   0.892   4.056   4.030  0.3626 -1.4417 -0.3793
 1438SOL     OW 4369   4.132   3.621   1.105 -0.1887 -0.7049  0.0788
 1438SOL    HW1 4370   4.164   3.578   1.185 -1.4647 -1.4906  0.1823
 1438SOL    HW2 4371   4.082   3.554   1.060 -0.4058  0.0633 -0.8496
 1439SOL     OW 4372   4.355   2.663   3.207 -0.4517 -0.6963  0.2930
 1439SOL    HW1 4373   4.436   2.618   3.180 -0.1324 -1.4324  2.2926
 1439SOL    HW2 4374   4.379   2.755   3.210  0.3798 -0.9176  0.9545
 1440SOL     OW 4375   3.051   4.790   1.095  0.1234  0.6288 -0.5367
 1440SOL    HW1 4376   3.033   4.696   1.101 -0.6333  0.8082  0.1213
 1440SOL    HW2 4377   3.008   4.818   1.014 -0.8842  0.6736  0.0028
 1441SOL     OW 4378   0.062   3.802   4.325  0.3690  0.4363  0.4331
 1441SOL    HW1 4379   0.085   3.740   4.394 -0.4913  1.9723  2.1938
 1441SOL    HW2 4380   0.140   3.857   4.315 -0.1150  1.3778  1.5660
 1442SOL     OW 4381   1.023   1.752   0.242  0.6663  0.5949 -0.0824
 1442SOL    HW1 4382   1.108   1.769   0.202  0.8727  0.2529  0.2044
 1442SOL    HW2 4383   0.962   1.749   0.168  1.1813 -0.8973 -0.4773
 1443SOL     OW 4384   1.218   2.451   2.008  0.0553 -0.0786  0.2837
 1443SOL    HW1 4385   1.293   2.483   2.057 -0.1302  1.4346 -0.3686
 1443SOL    HW2 4386   1.253   2.424   1.924  0.2105 -1.7046  0.8230
 1444SOL     OW 4387   2.026   0.785   4.653  0.3323  0.3326 -0.4256
 1444SOL    HW1 4388   2.107   0.744   4.624 -0.2381 -0.8498 -0.4090
 1444SOL    HW2 4389   2.052   0.874   4.678  1.3667  0.4056 -1.6740
 1445SOL     OW 4390   2.803   2.746   0.657  0.2688  0.1361 -0.6671
 1445SOL    HW1 4391   2.752   2.814   0.701 -1.0635 -0.6800 -0.8905
 1445SOL    HW2 4392   2.783   2.757   0.564  0.6806 -0.0445 -0.7786
 1446SOL     OW 4393   4.782   1.886   1.790 -0.2663 -0.2885 -0.2068
 1446SOL    HW1 4394   4.877   1.877   1.791 -0.3640 -1.4681 -0.3835
 1446SOL    HW2 4395   4.767   1.980   1.801  0.9156 -0.0714 -0.3106
 1447SOL     OW 4396   2.872   1.756   1.519  1.0123  0.8568  0.2528
 1447SOL    HW1 4397   2.883   1.681   1.460 -0.0018  0.8773  0.0246
 1447SOL    HW2 4398   2.890   1.720   1.606  2.5154  0.8232 -0.0344
 1448SOL     OW 4399   1.097   2.958   3.594  0.0986  1.1125 -0.3559
 1448SOL    HW1 4400   1.033   2.942   3.524 -0.4307 -0.5235  0.4342
 1448SOL    HW2 4401   1.085   2.884   3.654  3.0417  0.4760 -0.3884
 1449SOL     OW 4402   4.263   0.125   3.770  0.0357  0.1420 -0.0430
 1449SOL    HW1 4403   4.225   0.103   3.685  1.1416 -1.1803 -0.2391
 1449SOL    HW2 4404   4.292   0.216   3.761 -2.6392  1.0666  0.0007
 1450SOL     OW 4405   4.382   3.323   3.909  0.0160  0.3841  0.0879
 1450SOL    HW1 4406   4.372   3.285   3.996 -0.0357 -0.5272 -0.3126
 1450SOL    HW2 4407   4.358   3.415   3.921 -1.5298 -0.0761  0.7040
 1451SOL     OW 4408   2.710   0.282   2.360  0.3329 -0.2440  0.2556
 1451SOL    HW1 4409   2.799   0.316   2.358  0.0979  0.4116  0.4582
 1451SOL    HW2 4410   2.690   0.273   2.454 -0.0074  0.1635  0.2291
 1452SOL     OW 4411   2.083   0.316   1.968 -0.0354 -0.0609  0.1165
 1452SOL    HW1 4412   2.110   0.334   2.058  0.6735  1.8634 -0.4417
 1452SOL    HW2 4413   2.022   0.242   1.976 -0.4642  0.4434  2.2382
 1453SOL     OW 4414   1.974   1.042   0.257  0.2264 -0.0926  0.1763
 1453SOL    HW1 4415   1.890   1.004   0.231  0.2059  1.0494 -1.5638
 1453SOL    HW2 4416   2.031   0.966   0.272 -0.9041 -0.8605  0.7210
 1454SOL     OW 4417   4.287   2.503   3.434 -0.0932 -0.1397  0.0821
 1454SOL    HW1 4418   4.306   2.585   3.387  1.4577 -0.9261 -0.7515
 1454SOL    HW2 4419   4.254   2.444   3.366 -2.8557  0.2661  0.9844
 1455SOL     OW 4420   0.587   3.030   3.583 -0.1492  0.7170 -0.0929
 1455SOL    HW1 4421   0.507   3.017   3.633 -0.2620 -0.6218 -0.5805
 1455SOL    HW2 4422   0.565   3.098   3.520 -0.6323  0.9591  0.3302
 1456SOL     OW 4423   2.106   2.198   3.896 -0.5787  0.2321 -0.1320
 1456SOL    HW1 4424   2.201   2.193   3.887 -0.3712  1.9008  0.6690
 1456SOL    HW2 4425   2.092   2.211   3.990 -1.6398 -0.4129 -0.1823
 1457SOL     OW 4426   2.877   4.668   1.528  0.1163  0.2521 -0.4042
 1457SOL    HW1 4427   2.859   4.619   1.608 -0.0953 -0.1062 -0.6697
 1457SOL    HW2 4428   2.973   4.666   1.520  0.0916 -0.4104 -0.5899
 1458SOL     OW 4429   3.005   1.390   0.845  0.1980  0.4131  0.5384
 1458SOL    HW1 4430   2.931   1.329   0.838 -0.7787  1.6099  0.0403
 1458SOL    HW2 4431   3.079   1.335   0.870 -0.0971 -1.3828 -2.1389
 1459SOL     OW 4432   3.129   2.725   0.153  0.5808 -0.1115  0.4903
 1459SOL    HW1 4433   3.216   2.727   0.194  1.6518 -1.8188 -1.4959
 1459SOL    HW2 4434   3.080   2.660   0.203  0.4866  0.7325  1.5125
 1460SOL     OW 4435   3.520   3.460   4.702 -0.1235 -0.5011 -0.3883
 1460SOL    HW1 4436   3.531   3.540   4.754 -1.8722 -0.3879 -0.1515
 1460SOL    HW2 4437   3.610   3.428   4.690  0.6154  1.3947 -0.3541
 1461SOL     OW 4438   1.736   0.999   1.616 -0.1285  0.4156  0.2656
 1461SOL    HW1 4439   1.772   1.084   1.590 -0.2271  0.4953  0.3893
 1461SOL    HW2 4440   1.671   0.979   1.549  0.8569 -0.2029 -0.5238
 1462SOL     OW 4441   1.092   4.209   1.742  0.4960  0.1525  0.1000
 1462SOL    HW1 4442   1.143   4.197   1.822  0.1853  2.1404  0.6722
 1462SOL    HW2 4443   1.109   4.300   1.717  0.5594 -0.4084 -2.1014
 1463SOL     OW 4444   1.863   1.204   2.218 -0.5009 -0.1864 -0.3626
 1463SOL    HW1 4445   1.904   1.176   2.300 -0.1166  1.1921 -0.0541
 1463SOL    HW2 4446   1.887   1.296   2.210 -1.1033 -0.1248 -1.6910
 1464SOL     OW 4447   1.382   3.363   3.446  0.1207 -0.1561  0.4534
 1464SOL    HW1 4448   1.422   3.337   3.530  0.4662 -0.7252  0.1239
 1464SOL    HW2 4449   1.307   3.304   3.437  1.6101 -1.9569 -0.8797
 1465SOL     OW 4450   3.451   4.181   0.749 -0.4338 -0.2170  0.1859
 1465SOL    HW1 4451   3.453   4.087   0.764 -0.9528  0.0237  1.9838
 1465SOL    HW2 4452   3.504   4.218   0.820 -0.2248  0.8643 -0.4980
 1466SOL     OW 4453   3.958   3.811   1.037 -0.3111 -0.2413 -0.1162
 1466SOL    HW1 4454   4.028   3.756   1.072  0.7157  1.9261  1.5066
 1466SOL    HW2 4455   3.881   3.789   1.090  0.1085 -0.0703  0.5739
 1467SOL     OW 4456   1.128   4.304   3.027  0.5081 -0.1079  0.1722
 1467SOL    HW1 4457   1.176   4.249   3.089 -1.5572 -2.7304 -0.3412
 1467SOL    HW2 4458   1.046   4.257   3.013 -0.8177  2.4562 -1.4868
 1468SOL     OW 4459   2.868   0.439   0.781 -0.0613 -0.9206  0.4181
 1468SOL    HW1 4460   2.844   0.456   0.872 -0.2758 -0.5055  0.2890
 1468SOL    HW2 4461   2.797   0.478   0.730  0.1704 -0.9497  0.0690
 1469SOL     OW 4462   0.311   3.914   2.092 -0.3776 -0.5213  0.1549
 1469SOL    HW1 4463   0.350   3.861   2.162  0.2653 -1.6060 -0.9805
 1469SOL    HW2 4464   0.250   3.854   2.048  0.7702 -0.5357 -1.5092
 1470SOL     OW 4465   0.183   3.712   4.623 -0.0917 -0.1649 -0.3449
 1470SOL    HW1 4466   0.194   3.618   4.640 -0.5262 -0.3628 -1.1166
 1470SOL    HW2 4467   0.163   3.749   4.709  0.4032 -0.7261  0.0228
 1471SOL     OW 4468   3.093   3.440   1.395  0.1788  0.0199  0.1539
 1471SOL    HW1 4469   3.163   3.429   1.460  1.5971 -1.4835 -1.5123
 1471SOL    HW2 4470   3.077   3.351   1.362 -0.7670  0.6878 -1.2729
 1472SOL     OW 4471   4.520   0.955   4.104 -0.3650  0.1090  0.4795
 1472SOL    HW1 4472   4.539   0.893   4.033 -0.9129  0.5493 -0.0558
 1472SOL    HW2 4473   4.447   0.916   4.152 -2.1027  1.2724 -1.0846
 1473SOL     OW 4474   1.492   2.239   0.713  0.7820 -0.5531 -0.4832
 1473SOL    HW1 4475   1.410   2.210   0.673  0.3791  0.7638 -0.6649
 1473SOL    HW2 4476   1.491   2.334   0.702  1.5845 -0.3543  0.9343
 1474SOL     OW 4477   1.630   2.236   4.553  0.1432 -0.0445  0.1715
 1474SOL    HW1 4478   1.622   2.240   4.458  2.2912 -0.3268 -0.0691
 1474SOL    HW2 4479   1.570   2.303   4.586  1.5327  2.1514 -1.5300
 1475SOL     OW 4480   1.738   2.696   4.927  0.0131  0.1352  0.3236
 1475SOL    HW1 4481   1.769   2.780   4.961 -0.3082 -0.6167  2.6079
 1475SOL    HW2 4482   1.656   2.718   4.883  0.2482  1.0980  0.3295
 1476SOL     OW 4483   2.645   4.602   3.393  0.5460  0.2528  0.5803
 1476SOL    HW1 4484   2.645   4.507   3.406 -0.7407  0.1337 -0.1294
 1476SOL    HW2 4485   2.604   4.637   3.472 -0.4021  0.0764  0.1908
 1477SOL     OW 4486   1.642   1.017   4.128  0.3837  0.3916 -0.2886
 1477SOL    HW1 4487   1.584   0.993   4.200  1.7231 -1.2357  0.3362
 1477SOL    HW2 4488   1.694   1.089   4.162 -0.5106  1.1258 -0.4595
 1478SOL     OW 4489   2.410   2.054   2.536 -0.4275 -0.1155  0.3934
 1478SOL    HW1 4490   2.375   2.018   2.618  0.6911 -1.9330  0.1240
 1478SOL    HW2 4491   2.475   2.118   2.565 -0.3301 -0.4450  0.9288
 1479SOL     OW 4492   3.941   0.178   4.883  0.7842 -0.9442 -0.2772
 1479SOL    HW1 4493   3.977   0.131   4.958 -0.7305 -1.1568  0.3523
 1479SOL    HW2 4494   3.941   0.270   4.911  1.5359 -0.8510 -0.5770
 1480SOL     OW 4495   0.037   2.092   4.922  0.4060  0.1814  0.2984
 1480SOL    HW1 4496  -0.030   2.115   4.985  1.2539 -2.4594  2.3406
 1480SOL    HW2 4497   0.004   2.013   4.879  2.1059 -1.1686  1.3489
 1481SOL     OW 4498   0.528   3.954   4.507 -0.2840  0.5560  0.5195
 1481SOL    HW1 4499   0.574   3.886   4.556  2.4330  0.9456 -1.2623
 1481SOL    HW2 4500   0.592   4.024   4.498 -1.1856  1.1463 -2.1288
 1482SOL     OW 4501   1.828   2.778   3.003  0.1139  0.2849 -1.1731
 1482SOL    HW1 4502   1.823   2.866   3.039 -1.2902  0.2073 -1.1293
 1482SOL    HW2 4503   1.760   2.729   3.049  1.6316 -1.1496 -0.3535
 1483SOL     OW 4504   0.851   4.005   2.300 -0.6100 -0.1587  0.4399
 1483SOL    HW1 4505   0.824   3.965   2.218  2.1936 -1.4964  0.0582
 1483SOL    HW2 4506   0.915   4.071   2.275 -0.2093 -0.1260  1.4842
 1484SOL     OW 4507   0.682   1.208   0.995  0.4521  0.0113 -0.0911
 1484SOL    HW1 4508   0.672   1.232   1.087 -0.4136  0.0420 -0.1879
 1484SOL    HW2 4509   0.694   1.113   0.997 -0.0148 -0.0461  0.0219
 1485SOL     OW 4510   3.127   1.396   3.979 -0.3366  0.0569  0.5841
 1485SOL    HW1 4511   3.210   1.368   3.940  0.1923 -0.4839  2.0328
 1485SOL    HW2 4512   3.151   1.438   4.061 -1.4243  1.1297  0.3854
 1486SOL     OW 4513   2.760   3.030   3.961 -0.1893 -0.3197  0.6898
 1486SOL    HW1 4514   2.704   2.979   3.902 -2.3957  0.7373  1.7711
 1486SOL    HW2 4515   2.723   3.014   4.048  0.8044  0.9398  1.3632
 1487SOL     OW 4516   4.641   3.313   2.379  0.5647  0.1223 -0.3595
 1487SOL    HW1 4517   4.591   3.255   2.321 -0.5967 -1.1301  1.7946
 1487SOL    HW2 4518   4.684   3.253   2.441  0.9093  1.4605  0.7333
 1488SOL     OW 4519   3.753   3.893   4.811 -0.2297 -0.0384 -0.1284
 1488SOL    HW1 4520   3.831   3.936   4.844 -0.3583  0.3391 -0.3031
 1488SOL    HW2 4521   3.757   3.905   4.716 -0.8270  0.5604 -0.0897
 1489SOL     OW 4522   1.946   4.781   2.415 -0.2522  0.4042 -0.1722
 1489SOL    HW1 4523   1.927   4.689   2.397 -0.6565  0.7711 -1.7192
 1489SOL    HW2 4524   1.989   4.813   2.336  0.0589  1.5022  0.4279
 1490SOL     OW 4525   4.583   1.787   3.018  0.1051 -0.0402 -0.3024
 1490SOL    HW1 4526   4.621   1.740   2.944  2.3234 -1.1060  1.3709
 1490SOL    HW2 4527   4.588   1.724   3.091  0.7260  1.8654  1.4017
 1491SOL     OW 4528   0.028   3.354   2.103 -0.0291  0.1239  0.4693
 1491SOL    HW1 4529   0.105   3.404   2.075 -1.1184  1.4095 -0.3294
 1491SOL    HW2 4530   0.051   3.262   2.085  1.3748  0.4602  0.4343
 1492SOL     OW 4531   1.163   2.189   4.003 -0.5077 -0.1553  0.1973
 1492SOL    HW1 4532   1.098   2.252   4.034  0.1448 -0.0110  1.3704
 1492SOL    HW2 4533   1.136   2.167   3.914 -1.2864  1.0592  0.1109
 1493SOL     OW 4534   0.493   1.733   1.211 -0.3116  0.1780  0.8662
 1493SOL    HW1 4535   0.499   1.638   1.210 -0.5583  0.1198 -1.5676
 1493SOL    HW2 4536   0.399   1.751   1.223 -0.3427  0.1002  0.7357
 1494SOL     OW 4537   1.207   0.355   4.921 -0.0563  0.2616 -0.4441
 1494SOL    HW1 4538   1.273   0.417   4.889 -0.5818  0.7570 -0.5829
 1494SOL    HW2 4539   1.137   0.410   4.956 -0.4888 -0.2548 -0.4824
 1495SOL     OW 4540   3.139   0.861   4.259 -0.2847 -0.0077  0.5686
 1495SOL    HW1 4541   3.198   0.936   4.269  0.5294 -0.3220 -1.3741
 1495SOL    HW2 4542   3.096   0.875   4.174 -0.5193 -1.4500  0.4139
 1496SOL     OW 4543   4.598   2.189   2.174 -0.2271  0.2349 -0.4751
 1496SOL    HW1 4544   4.660   2.188   2.102  0.2011  0.2281 -0.1064
 1496SOL    HW2 4545   4.569   2.099   2.183  0.4958  0.0446  0.0266
 1497SOL     OW 4546   2.773   1.405   0.571 -0.0228  0.3491 -0.0598
 1497SOL    HW1 4547   2.679   1.398   0.552 -0.5692  0.3979  2.2216
 1497SOL    HW2 4548   2.789   1.499   0.580 -0.7471  0.2904  3.3303
 1498SOL     OW 4549   1.422   4.301   0.415 -0.1989  0.2431  0.1201
 1498SOL    HW1 4550   1.439   4.387   0.453  0.4078 -0.3375  1.1894
 1498SOL    HW2 4551   1.347   4.315   0.357  0.2495  1.6091 -0.1754
 1499SOL     OW 4552   0.053   4.193   4.003  0.3728  0.7985  0.3518
 1499SOL    HW1 4553   0.062   4.111   3.954 -3.3231  1.4888 -1.8864
 1499SOL    HW2 4554   0.015   4.167   4.087 -1.0443  0.1804 -0.4519
 1500SOL     OW 4555   4.031   2.431   4.847 -0.3570  0.0885  0.0978
 1500SOL    HW1 4556   3.965   2.395   4.906 -0.9170 -0.4590 -0.8428
 1500SOL    HW2 4557   4.113   2.388   4.874 -0.3137  0.9132  1.3919
 1501SOL     OW 4558   4.724   3.061   2.784  0.3220  0.5800 -0.4265
 1501SOL    HW1 4559   4.683   2.993   2.838 -0.0764  0.7591 -0.5009
 1501SOL    HW2 4560   4.815   3.032   2.774  0.1709  0.0904 -0.4074
 1502SOL     OW 4561   4.305   0.312   4.474 -0.8732 -1.0019 -0.4166
 1502SOL    HW1 4562   4.364   0.347   4.540  1.1590 -2.3788 -1.4038
 1502SOL    HW2 4563   4.246   0.254   4.522 -0.3172 -0.9377  0.3592
 1503SOL     OW 4564   3.114   3.505   4.358 -0.2303 -0.5663 -0.0776
 1503SOL    HW1 4565   3.141   3.417   4.334  2.4256  0.5537 -1.6357
 1503SOL    HW2 4566   3.181   3.536   4.419 -0.9187  0.5284  0.1733
 1504SOL     OW 4567   1.230   3.683   2.381  0.1938 -0.2933  0.2274
 1504SOL    HW1 4568   1.141   3.660   2.409  0.1754  0.0167  0.4204
 1504SOL    HW2 4569   1.248   3.622   2.309 -0.7579  0.6314 -0.8334
 1505SOL     OW 4570   3.146   4.542   1.482 -0.4552 -0.3556 -0.1342
 1505SOL    HW1 4571   3.165   4.499   1.399 -0.7407 -0.4255 -0.1634
 1505SOL    HW2 4572   3.145   4.471   1.547  0.8414 -0.1749  0.1151
 1506SOL     OW 4573   3.021   0.229   1.414 -0.5854  0.0102  0.0234
 1506SOL    HW1 4574   2.930   0.219   1.442 -0.2708 -0.6701  0.8470
 1506SOL    HW2 4575   3.024   0.189   1.327 -0.9448 -0.5356  0.2550
 1507SOL     OW 4576   4.579   2.268   0.372 -0.0436  0.1640  0.5726
 1507SOL    HW1 4577   4.623   2.184   0.375 -1.2811 -0.5539 -0.4153
 1507SOL    HW2 4578   4.575   2.296   0.463  0.3556 -0.8527  0.9179
 1508SOL     OW 4579   1.978   0.640   0.033  0.0978 -0.4772  0.0737
 1508SOL    HW1 4580   2.022   0.719   0.065  0.4349 -1.3191  1.7943
 1508SOL    HW2 4581   1.920   0.672  -0.035  2.1603  0.9024 -1.1762
 1509SOL     OW 4582   4.637   3.368   0.417  0.2951 -0.6915  0.3300
 1509SOL    HW1 4583   4.637   3.397   0.326 -1.6478  0.1867  0.5669
 1509SOL    HW2 4584   4.720   3.400   0.453  0.8698 -0.6450 -0.9963
 1510SOL     OW 4585   2.710   0.097   1.288  0.1350  0.3166  0.3185
 1510SOL    HW1 4586   2.720   0.003   1.269 -2.0165  0.3276 -1.1975
 1510SOL    HW2 4587   2.688   0.099   1.381  1.2021 -0.5819  0.6186
 1511SOL     OW 4588   1.386   2.797   3.854 -0.0810 -0.1611 -1.1630
 1511SOL    HW1 4589   1.446   2.819   3.783 -0.0268 -1.6534 -1.6128
 1511SOL    HW2 4590   1.360   2.706   3.837  1.4652 -1.3008  1.7672
 1512SOL     OW 4591   2.743   3.200   0.996  0.1935  0.4262  0.6847
 1512SOL    HW1 4592   2.680   3.251   1.045 -1.0140 -0.4684  0.1177
 1512SOL    HW2 4593   2.801   3.162   1.062 -1.6114 -1.0473  1.5034
 1513SOL     OW 4594   2.354   2.423   4.066  0.1048 -0.3041  0.0091
 1513SOL    HW1 4595   2.353   2.392   4.157 -0.1857  1.2951  0.5935
 1513SOL    HW2 4596   2.427   2.485   4.063 -0.8583  0.8378 -0.4128
 1514SOL     OW 4597   2.761   0.005   3.581  0.2211 -0.2955  0.9680
 1514SOL    HW1 4598   2.790   0.013   3.672  0.9946  2.4694  0.5874
 1514SOL    HW2 4599   2.837  -0.030   3.534  0.6898  0.6074  1.0311
 1515SOL     OW 4600   4.877   2.030   4.173 -0.2986 -0.1436  0.1558
 1515SOL    HW1 4601   4.962   2.064   4.145 -0.5179 -1.2154 -2.0098
 1515SOL    HW2 4602   4.814   2.089   4.133 -0.6048 -0.7323 -0.2325
 1516SOL     OW 4603   4.475   2.647   3.572  0.0906 -0.9706  0.1783
 1516SOL    HW1 4604   4.551   2.589   3.583 -0.5743 -1.8804  0.0264
 1516SOL    HW2 4605   4.420   2.603   3.508 -0.6642 -0.4108  0.4295
 1517SOL     OW 4606   0.601   1.610   3.530  0.1449  0.1172  0.3947
 1517SOL    HW1 4607   0.666   1.599   3.599  0.0969 -0.5698  0.3339
 1517SOL    HW2 4608   0.533   1.547   3.551 -0.0926  0.2352 -0.0195
 1518SOL     OW 4609   0.459   4.607   1.264  0.1755  0.5192 -0.0639
 1518SOL    HW1 4610   0.511   4.642   1.337  0.6858 -1.1215  0.4208
 1518SOL    HW2 4611   0.514   4.539   1.226 -1.8235 -1.8283  0.9351
 1519SOL     OW 4612   0.595   1.738   3.894  0.2032 -0.0264 -0.2431
 1519SOL    HW1 4613   0.667   1.688   3.855  0.4779  1.2779 -1.5097
 1519SOL    HW2 4614   0.607   1.827   3.859 -1.7667  0.3194 -0.1210
 1520SOL     OW 4615   2.917   0.950   3.247  0.0899  0.0587 -0.4035
 1520SOL    HW1 4616   2.946   0.919   3.162  0.6078 -0.0583 -0.1864
 1520SOL    HW2 4617   2.903   0.871   3.299 -1.7583  0.0406 -0.8481
 1521SOL     OW 4618   2.761   3.804   2.805 -0.4867 -0.1086  0.4001
 1521SOL    HW1 4619   2.708   3.870   2.761 -0.5336 -0.5302 -0.1855
 1521SOL    HW2 4620   2.744   3.723   2.756 -0.3642 -0.5391  1.0521
 1522SOL     OW 4621   2.533   4.859   3.284 -0.1930  0.0420  0.4040
 1522SOL    HW1 4622   2.580   4.864   3.201 -0.8382  0.9647  0.0802
 1522SOL    HW2 4623   2.557   4.773   3.320  0.6371 -0.0784 -0.3969
 1523SOL     OW 4624   4.235   2.663   0.134 -0.2138  0.1741 -0.6646
 1523SOL    HW1 4625   4.317   2.616   0.148 -0.3670 -0.2226 -1.0880
 1523SOL    HW2 4626   4.253   2.722   0.061  0.3125  1.5921  0.5534
 1524SOL     OW 4627   3.417   2.394   4.068 -0.3061 -0.0897  0.1958
 1524SOL    HW1 4628   3.384   2.482   4.052  1.1661  0.4288 -0.1666
 1524SOL    HW2 4629   3.470   2.402   4.147  1.8843 -0.0376 -1.1908
 1525SOL     OW 4630   0.234   0.075   0.225  0.4677  0.1876 -0.7626
 1525SOL    HW1 4631   0.235  -0.020   0.238 -0.2661  0.3835  1.1387
 1525SOL    HW2 4632   0.282   0.110   0.300 -0.4600  1.3660 -0.6855
 1526SOL     OW 4633   4.044   1.866   4.646 -0.6503  0.1115 -0.1614
 1526SOL    HW1 4634   4.025   1.826   4.561 -1.4896 -2.2888  1.0630
 1526SOL    HW2 4635   4.129   1.829   4.672 -0.4254  0.7871  0.1029
 1527SOL     OW 4636   0.434   0.541   3.183 -0.7099  0.1474 -0.4464
 1527SOL    HW1 4637   0.378   0.555   3.260  0.1278 -1.2657  0.4621
 1527SOL    HW2 4638   0.514   0.504   3.218 -0.1529 -0.1720 -1.9862
 1528SOL     OW 4639   0.583   3.631   2.158 -0.0369 -0.3671 -0.4298
 1528SOL    HW1 4640   0.501   3.594   2.190  0.6388  0.1980  2.1860
 1528SOL    HW2 4641   0.588   3.718   2.199  1.2227  0.1764 -1.6604
 1529SOL     OW 4642   2.273   0.342   0.755 -0.3026 -0.1316 -0.3108
 1529SOL    HW1 4643   2.181   0.365   0.742 -0.4037 -1.1363 -1.5237
 1529SOL    HW2 4644   2.291   0.367   0.846 -1.6150  0.5743 -0.2243
 1530SOL     OW 4645   4.532   4.842   1.511  0.1181 -0.2029  0.8801
 1530SOL    HW1 4646   4.579   4.787   1.574  0.8473 -2.0429 -1.1531
 1530SOL    HW2 4647   4.463   4.785   1.477 -0.9729  1.1220  0.7942
 1531SOL     OW 4648   1.289   4.392   1.314  0.3229 -0.0784  0.6191
 1531SOL    HW1 4649   1.231   4.322   1.284 -0.0901  0.2273  0.7019
 1531SOL    HW2 4650   1.307   4.444   1.235  1.8909 -1.1563  0.2119
 1532SOL     OW 4651   1.309   4.020   3.809 -0.4136  0.0873  0.1986
 1532SOL    HW1 4652   1.283   4.096   3.861 -0.5350 -0.5344  1.0808
 1532SOL    HW2 4653   1.322   3.950   3.874 -3.6892 -1.6474 -0.7882
 1533SOL     OW 4654   2.004   1.327   4.924 -0.4267 -0.0644  0.1010
 1533SOL    HW1 4655   2.085   1.376   4.934 -0.1911 -0.3855 -0.2170
 1533SOL    HW2 4656   1.959   1.338   5.008  0.0574 -0.0815  0.3677
 1534SOL     OW 4657   1.247   3.325   1.907  0.2564 -0.1363 -0.0578
 1534SOL    HW1 4658   1.278   3.367   1.827  0.4219 -0.2855 -0.0750
 1534SOL    HW2 4659   1.182   3.261   1.877  2.0089 -1.8882 -0.3463
 1535SOL     OW 4660   1.778   3.149   2.818  0.1627  0.7033 -0.0044
 1535SOL    HW1 4661   1.726   3.177   2.893  1.1268 -0.2422  1.0554
 1535SOL    HW2 4662   1.714   3.127   2.750 -0.6845  3.3527 -0.1634
 1536SOL     OW 4663   3.044   0.513   2.485 -0.4603 -0.6068 -0.5888
 1536SOL    HW1 4664   3.065   0.438   2.430 -1.7158 -1.2150 -0.2715
 1536SOL    HW2 4665   3.013   0.580   2.424 -0.7749 -0.8796 -0.7275
 1537SOL     OW 4666   0.518   4.674   3.272 -0.5195  0.4156 -0.0847
 1537SOL    HW1 4667   0.475   4.614   3.211 -1.2369  0.4184  0.4120
 1537SOL    HW2 4668   0.454   4.688   3.342 -0.1808  1.3879  0.0493
 1538SOL     OW 4669   4.000   1.137   3.965 -0.0948 -0.4418 -0.5547
 1538SOL    HW1 4670   3.959   1.055   3.993  0.9005 -1.2604 -1.3848
 1538SOL    HW2 4671   4.075   1.147   4.023  0.8762 -1.1454 -1.6377
 1539SOL     OW 4672   3.336   3.892   1.959  0.2259  0.1643  0.1268
 1539SOL    HW1 4673   3.431   3.883   1.950  0.2287  0.5151 -0.2234
 1539SOL    HW2 4674   3.303   3.803   1.967  0.6008  0.0496  0.4018
 1540SOL     OW 4675   2.326   0.303   4.268  0.3116 -0.3061  0.2224
 1540SOL    HW1 4676   2.378   0.383   4.256  2.3274 -1.7191 -1.2579
 1540SOL    HW2 4677   2.360   0.265   4.349  0.2683 -0.2997  0.2432
 1541SOL     OW 4678   4.031   3.922   3.446  0.1355 -0.1258  0.0489
 1541SOL    HW1 4679   4.067   3.833   3.446  2.2852  0.6414  2.7027
 1541SOL    HW2 4680   4.107   3.979   3.443 -1.0008  1.6046  1.8732
 1542SOL     OW 4681   0.388   4.807   1.576 -0.4968 -0.0402  0.3353
 1542SOL    HW1 4682   0.385   4.842   1.487  1.7595 -0.3259  0.0860
 1542SOL    HW2 4683   0.475   4.766   1.582 -0.6828 -0.2006  2.6056
 1543SOL     OW 4684   2.976   1.671   2.865 -0.1497 -0.0656 -0.7370
 1543SOL    HW1 4685   3.013   1.583   2.855  0.7018  0.3483 -1.4893
 1543SOL    HW2 4686   3.047   1.723   2.903 -1.0123  0.0665  0.7852
 1544SOL     OW 4687   1.893   2.324   4.398  0.6659 -0.2812  0.5036
 1544SOL    HW1 4688   1.817   2.305   4.453  0.4812  0.2900  0.4553
 1544SOL    HW2 4689   1.874   2.280   4.315  0.5004 -0.3443  0.5737
 1545SOL     OW 4690   1.589   2.007   0.818 -0.3116 -0.3609  0.3962
 1545SOL    HW1 4691   1.628   2.040   0.899 -0.5584  1.8503 -0.3384
 1545SOL    HW2 4692   1.540   2.081   0.783 -2.2877 -2.0141 -0.5184
 1546SOL     OW 4693   2.541   2.503   3.268 -0.1174  0.1676  0.0892
 1546SOL    HW1 4694   2.515   2.415   3.241  0.7060 -0.7883  2.1877
 1546SOL    HW2 4695   2.552   2.497   3.363  1.9468  1.9932  0.0534
 1547SOL     OW 4696   3.740   1.681   0.752  0.6659 -0.1351  0.6885
 1547SOL    HW1 4697   3.700   1.678   0.839 -0.4158  0.4567  0.2226
 1547SOL    HW2 4698   3.827   1.719   0.768  1.3181 -1.9656  1.7839
 1548SOL     OW 4699   4.219   3.566   4.306  0.6104 -0.0145 -0.4897
 1548SOL    HW1 4700   4.167   3.548   4.385  0.6359  1.0883 -0.2059
 1548SOL    HW2 4701   4.157   3.561   4.234  0.4270 -0.2492 -0.3146
 1549SOL     OW 4702   1.547   3.244   3.920  0.1928  0.4216  0.1516
 1549SOL    HW1 4703   1.478   3.184   3.950  1.8859 -1.3706  0.6852
 1549SOL    HW2 4704   1.554   3.309   3.990  2.5492 -2.4173  2.8595
 1550SOL     OW 4705   4.178   4.705   2.103  0.5919 -0.2312  0.1458
 1550SOL    HW1 4706   4.097   4.730   2.148  0.5624 -0.3908  0.1801
 1550SOL    HW2 4707   4.247   4.714   2.169  0.8174  1.2584 -0.2467
 1551SOL     OW 4708   0.740   3.071   0.851 -0.2935  0.0420 -0.1418
 1551SOL    HW1 4709   0.812   3.034   0.903  0.2694  1.7927  0.3924
 1551SOL    HW2 4710   0.671   3.088   0.915 -0.6606 -0.3555 -0.4300
 1552SOL     OW 4711   1.317   1.226   4.471 -0.2715  0.2131 -0.1986
 1552SOL    HW1 4712   1.289   1.285   4.541 -0.3841 -0.4980  0.3611
 1552SOL    HW2 4713   1.236   1.183   4.442  0.0511 -0.9928  0.6357
 1553SOL     OW 4714   3.618   0.235   4.103  0.2070  0.2939 -0.0614
 1553SOL    HW1 4715   3.635   0.187   4.184 -1.4439  0.8509  0.6533
 1553SOL    HW2 4716   3.606   0.167   4.037 -0.8063 -0.2525  0.6673
 1554SOL     OW 4717   0.708   0.453   2.226  0.0049  0.4150  0.7621
 1554SOL    HW1 4718   0.740   0.377   2.176  0.6127  1.0768  0.1147
 1554SOL    HW2 4719   0.788   0.492   2.262 -0.3264  0.6362  1.2559
 1555SOL     OW 4720   3.502   0.248   3.641  0.5070  0.1798 -0.4750
 1555SOL    HW1 4721   3.558   0.225   3.715 -0.4890 -0.5285  0.0810
 1555SOL    HW2 4722   3.558   0.302   3.585  1.7658 -0.5699  0.0084
 1556SOL     OW 4723   3.429   0.791   4.208  0.3702 -0.1078 -0.0248
 1556SOL    HW1 4724   3.488   0.716   4.210 -0.8354 -1.1114 -0.5693
 1556SOL    HW2 4725   3.466   0.849   4.142  1.1466 -0.3559  0.1762
 1557SOL     OW 4726   2.282   4.212   0.118 -0.6173  0.0420  0.4166
 1557SOL    HW1 4727   2.307   4.145   0.054  1.1979  1.3672 -0.3218
 1557SOL    HW2 4728   2.196   4.184   0.149 -0.6512 -1.7163 -1.1051
 1558SOL     OW 4729   2.238   3.183   3.366  0.0492 -0.3511 -0.9811
 1558SOL    HW1 4730   2.239   3.089   3.383  0.0002 -0.1890 -0.0617
 1558SOL    HW2 4731   2.309   3.196   3.303  0.5109 -0.9142 -0.5916
 1559SOL     OW 4732   1.571   3.080   2.326 -0.0972  0.5417  0.4247
 1559SOL    HW1 4733   1.563   3.151   2.262 -1.0904  1.5518  1.6210
 1559SOL    HW2 4734   1.490   3.031   2.318 -0.4902  1.0259  1.2890
 1560SOL     OW 4735   4.870   4.035   2.387  0.2580  0.2786  0.3317
 1560SOL    HW1 4736   4.859   4.130   2.392  2.0977  0.5194  0.7567
 1560SOL    HW2 4737   4.921   4.020   2.307  1.6092 -0.1232  1.2194
 1561SOL     OW 4738   3.021   4.144   2.840  0.2331  0.4287 -0.0934
 1561SOL    HW1 4739   3.001   4.063   2.887 -2.1366 -0.1633 -1.9095
 1561SOL    HW2 4740   3.102   4.125   2.793 -0.7764 -1.2708 -1.2234
 1562SOL     OW 4741   4.118   4.480   4.383 -0.1002 -0.4730  0.4561
 1562SOL    HW1 4742   4.173   4.477   4.461  1.2107 -2.8143 -0.4436
 1562SOL    HW2 4743   4.075   4.394   4.380 -0.6362 -0.1984 -1.0217
 1563SOL     OW 4744   3.566   3.055   2.007 -0.1846 -0.3698 -0.4662
 1563SOL    HW1 4745   3.478   3.050   2.042 -0.0480 -1.9656 -0.2703
 1563SOL    HW2 4746   3.603   3.135   2.046 -0.6383 -1.1163  1.6178
 1564SOL     OW 4747   2.970   1.758   3.767  0.4838 -0.3635  0.3825
 1564SOL    HW1 4748   2.932   1.766   3.680  0.6491  0.5145  0.3774
 1564SOL    HW2 4749   2.911   1.699   3.814 -0.1497 -0.0694 -0.0284
 1565SOL     OW 4750   0.928   1.424   3.436 -0.0346  0.3536  0.4560
 1565SOL    HW1 4751   0.898   1.441   3.347  0.2270  1.6767  0.6074
 1565SOL    HW2 4752   0.860   1.370   3.475 -0.5323  0.4298 -0.2962
 1566SOL     OW 4753   0.191   0.148   1.415 -0.1565  0.2137  0.5678
 1566SOL    HW1 4754   0.128   0.189   1.357 -0.2433 -0.0572  0.4707
 1566SOL    HW2 4755   0.233   0.080   1.362 -0.2599 -0.0561  0.8276
 1567SOL     OW 4756   1.696   1.573   4.532 -0.2720  0.5194 -0.2712
 1567SOL    HW1 4757   1.652   1.624   4.464 -0.2151  1.2923  0.2611
 1567SOL    HW2 4758   1.773   1.537   4.489 -0.2304  1.0160 -0.6153
 1568SOL     OW 4759   3.183   2.442   3.237 -0.1176  0.5556 -0.2240
 1568SOL    HW1 4760   3.110   2.492   3.200  0.0677  1.0680  0.0888
 1568SOL    HW2 4761   3.170   2.353   3.205 -0.7664  0.6850 -0.3303
 1569SOL     OW 4762   1.287   4.838   4.941  0.0044  0.0107 -0.2389
 1569SOL    HW1 4763   1.238   4.849   5.022 -1.9881 -0.1077 -1.3671
 1569SOL    HW2 4764   1.336   4.920   4.931 -0.0196  0.1717  0.8544
 1570SOL     OW 4765   1.907   2.190   0.618  0.1048 -0.2366 -0.0455
 1570SOL    HW1 4766   1.879   2.265   0.671 -0.7385 -0.5824  0.0182
 1570SOL    HW2 4767   1.826   2.153   0.584  0.6393  0.1425 -1.8476
 1571SOL     OW 4768   4.058   0.455   4.158 -0.0480 -0.0116 -0.3535
 1571SOL    HW1 4769   4.029   0.510   4.231  1.4993  1.0943 -0.5194
 1571SOL    HW2 4770   4.069   0.368   4.196  0.1650  0.4216  0.6039
 1572SOL     OW 4771   2.722   0.461   1.394 -0.1234 -0.5818 -0.5502
 1572SOL    HW1 4772   2.749   0.458   1.302 -0.0555 -0.1591 -0.5445
 1572SOL    HW2 4773   2.631   0.489   1.392 -1.0591 -3.2801 -0.6529
 1573SOL     OW 4774   4.779   1.167   1.940  0.4362  0.2762 -0.1200
 1573SOL    HW1 4775   4.710   1.117   1.983  0.4229  0.0952 -0.3565
 1573SOL    HW2 4776   4.813   1.225   2.009  0.5170 -0.1248  0.1774
 1574SOL     OW 4777   3.414   1.821   0.030 -0.1322 -0.6798  0.3958
 1574SOL    HW1 4778   3.386   1.843   0.119  1.6184  1.0981  0.5663
 1574SOL    HW2 4779   3.367   1.882  -0.026 -0.1230 -0.8228  0.2296
 1575SOL     OW 4780   0.101   0.244   0.486  0.1684 -0.0857  0.3655
 1575SOL    HW1 4781   0.192   0.215   0.490 -0.2698 -1.3788  2.7345
 1575SOL    HW2 4782   0.053   0.168   0.453  0.2067  1.6593 -4.4152
 1576SOL     OW 4783   2.463   4.036   3.243  0.1313 -0.3035 -0.0749
 1576SOL    HW1 4784   2.537   4.073   3.195  0.7446 -0.3122  0.8185
 1576SOL    HW2 4785   2.492   4.037   3.335 -0.7756 -0.7924  0.2301
 1577SOL     OW 4786   1.057   0.384   0.770  0.6481  0.3043 -0.1842
 1577SOL    HW1 4787   1.094   0.466   0.737  0.1765  0.6862  0.2169
 1577SOL    HW2 4788   1.126   0.319   0.756  0.8156  0.6521 -1.0314
 1578SOL     OW 4789   1.622   1.298   4.806 -0.2358  0.3481 -0.1612
 1578SOL    HW1 4790   1.529   1.306   4.783  0.1021  0.4579 -1.5819
 1578SOL    HW2 4791   1.635   1.205   4.824 -0.6961  0.3917  0.4150
 1579SOL     OW 4792   1.676   4.232   4.041 -0.6127  0.5759  0.3266
 1579SOL    HW1 4793   1.735   4.160   4.017 -0.2933  0.5915  1.0237
 1579SOL    HW2 4794   1.646   4.209   4.129  0.0038  1.6196  0.8192
 1580SOL     OW 4795   4.329   4.068   2.796  0.1107  0.4604  0.4255
 1580SOL    HW1 4796   4.374   4.062   2.881  0.4306 -1.2430  0.1851
 1580SOL    HW2 4797   4.236   4.071   2.818  0.2228  0.9974  0.8535
 1581SOL     OW 4798   3.604   1.691   2.691  0.4294  1.1508  0.3227
 1581SOL    HW1 4799   3.530   1.647   2.651 -0.0682  2.3805 -0.1390
 1581SOL    HW2 4800   3.675   1.683   2.627  0.8424 -0.3130  0.9013
 1582SOL     OW 4801   0.138   0.300   4.060  0.0296  0.1654 -0.0826
 1582SOL    HW1 4802   0.214   0.335   4.107  0.1377  0.4631 -0.4707
 1582SOL    HW2 4803   0.175   0.251   3.987 -0.1441 -0.0186 -0.0496
 1583SOL     OW 4804   4.267   4.801   1.083  0.2526  0.2562  0.2608
 1583SOL    HW1 4805   4.274   4.707   1.069 -1.9665  0.2251 -1.0150
 1583SOL    HW2 4806   4.211   4.810   1.159  0.7042  0.5549  0.5618
 1584SOL     OW 4807   1.276   0.815   4.647  0.4934 -0.5065 -0.0369
 1584SOL    HW1 4808   1.265   0.814   4.552  1.3088 -0.1620 -0.1486
 1584SOL    HW2 4809   1.272   0.723   4.673 -0.3862 -0.5522 -0.3194
 1585SOL     OW 4810   0.381   1.264   1.057 -0.0139  0.4414  0.5940
 1585SOL    HW1 4811   0.443   1.248   0.985  0.3044 -0.7482  1.1051
 1585SOL    HW2 4812   0.295   1.248   1.018  0.1547 -0.1798  0.4545
 1586SOL     OW 4813   4.460   1.580   0.124 -0.8782 -0.2479 -0.1519
 1586SOL    HW1 4814   4.468   1.673   0.144  0.7513 -0.3358 -0.2569
 1586SOL    HW2 4815   4.367   1.567   0.107 -1.3709  1.0696  1.2793
 1587SOL     OW 4816   0.587   3.210   1.112  0.2397 -0.1507 -0.0147
 1587SOL    HW1 4817   0.600   3.172   1.199 -1.4831 -0.1029  0.2851
 1587SOL    HW2 4818   0.635   3.292   1.114  1.3095 -0.7629  0.4268
 1588SOL     OW 4819   3.552   1.183   0.301  0.5206  0.1335 -0.3484
 1588SOL    HW1 4820   3.527   1.266   0.341 -0.2848  0.3147 -1.1921
 1588SOL    HW2 4821   3.477   1.159   0.247  1.9466  0.4141 -2.5432
 1589SOL     OW 4822   4.969   2.386   2.614  0.5519 -0.4642  0.4126
 1589SOL    HW1 4823   4.951   2.462   2.669  0.9303  0.9436 -1.3006
 1589SOL    HW2 4824   5.064   2.378   2.615  0.5430 -0.6000  0.1760
 1590SOL     OW 4825   1.362   2.168   1.571  0.0934  0.6030  0.1436
 1590SOL    HW1 4826   1.454   2.162   1.596 -0.3493 -0.9535  1.5892
 1590SOL    HW2 4827   1.332   2.077   1.567 -1.3366  1.0641 -0.5659
 1591SOL     OW 4828   4.221   2.163   4.187  0.5842  0.0588 -0.0889
 1591SOL    HW1 4829   4.132   2.129   4.177 -0.1782  2.2906 -1.7450
 1591SOL    HW2 4830   4.231   2.176   4.281 -1.7973  1.9571 -0.0010
 1592SOL     OW 4831   2.953   3.059   3.388 -0.0580  0.0636  0.3518
 1592SOL    HW1 4832   3.046   3.054   3.409 -0.2190 -0.2317  1.0486
 1592SOL    HW2 4833   2.949   3.052   3.293  0.4591 -3.4226  0.4307
 1593SOL     OW 4834   1.977   4.144   0.903  0.0879 -0.0208  0.5037
 1593SOL    HW1 4835   1.985   4.213   0.837 -1.4302  0.1454  0.4640
 1593SOL    HW2 4836   1.955   4.189   0.984 -1.1353 -0.4527  0.4290
 1594SOL     OW 4837   4.860   4.677   2.495 -0.1234  0.1487 -0.6013
 1594SOL    HW1 4838   4.906   4.638   2.421  1.0231 -0.0791  0.1955
 1594SOL    HW2 4839   4.909   4.757   2.515  0.6010 -0.6119  0.8928
 1595SOL     OW 4840   3.843   0.043   2.168 -0.4308 -0.1942 -0.0517
 1595SOL    HW1 4841   3.844   0.119   2.227 -2.3460  1.3065 -1.8264
 1595SOL    HW2 4842   3.892   0.071   2.091 -1.4228 -0.6369 -0.8628
 1596SOL     OW 4843   0.945   1.722   2.820 -0.8738 -0.3430  0.5167
 1596SOL    HW1 4844   0.918   1.788   2.885 -2.4372 -1.2838  0.8746
 1596SOL    HW2 4845   0.898   1.643   2.846  0.8182 -1.5710 -0.0225
 1597SOL     OW 4846   2.260   0.211   2.908 -0.3527  0.3069  0.2741
 1597SOL    HW1 4847   2.303   0.224   2.824  0.6293  0.1971  0.7418
 1597SOL    HW2 4848   2.297   0.129   2.941  1.1539  1.5370  1.8927
 1598SOL     OW 4849   1.103   2.144   3.741  0.1777 -0.1747 -0.1972
 1598SOL    HW1 4850   1.042   2.076   3.770  0.3014  0.1292  0.7984
 1598SOL    HW2 4851   1.120   2.123   3.649 -1.3487 -0.3243 -0.4756
 1599SOL     OW 4852   2.259   0.232   2.598 -0.0563 -0.1044 -0.2766
 1599SOL    HW1 4853   2.327   0.167   2.581  0.8562  0.3218  1.5405
 1599SOL    HW2 4854   2.279   0.303   2.537 -0.0732 -0.8133 -1.1243
 1600SOL     OW 4855   3.576   3.458   4.292  0.1373  0.4343 -0.2490
 1600SOL    HW1 4856   3.611   3.524   4.351  0.2727  0.0079  0.1526
 1600SOL    HW2 4857   3.527   3.508   4.227 -0.1755  0.8965  0.3318
 1601SOL     OW 4858   0.054   0.264   1.216  0.1502  0.4157  0.0775
 1601SOL    HW1 4859   0.099   0.258   1.131 -1.4582  0.7002 -0.8417
 1601SOL    HW2 4860  -0.011   0.194   1.213 -1.3042  1.7187  0.1935
 1602SOL     OW 4861   1.220   3.290   4.014 -0.6919  0.6621  0.1922
 1602SOL    HW1 4862   1.153   3.242   4.063  0.9736 -0.6937  1.2668
 1602SOL    HW2 4863   1.261   3.223   3.959  1.2240  0.9485  1.1868
 1603SOL     OW 4864   3.342   1.802   4.154 -0.2457  0.3527 -0.3276
 1603SOL    HW1 4865   3.281   1.753   4.099 -0.1716  0.1919 -0.2683
 1603SOL    HW2 4866   3.332   1.893   4.127 -2.6620  0.7724  1.6629
 1604SOL     OW 4867   1.997   0.593   2.186 -0.3709  0.0127  0.6614
 1604SOL    HW1 4868   1.937   0.608   2.113 -1.4884  0.9810  1.7484
 1604SOL    HW2 4869   2.069   0.655   2.171  0.5944 -1.3874 -0.8276
 1605SOL     OW 4870   1.138   3.818   3.331 -0.1888  0.1397 -0.0723
 1605SOL    HW1 4871   1.198   3.744   3.327  3.1053  2.6399 -2.2724
 1605SOL    HW2 4872   1.146   3.849   3.422  0.6240 -0.5462  0.1103
 1606SOL     OW 4873   3.487   1.578   3.400  0.6154 -0.3467  0.4401
 1606SOL    HW1 4874   3.502   1.523   3.323  1.8896  0.5268  0.0251
 1606SOL    HW2 4875   3.545   1.653   3.387 -0.5032  0.7111  1.3725
 1607SOL     OW 4876   2.173   3.863   4.473 -0.4752  0.3879  0.3856
 1607SOL    HW1 4877   2.257   3.854   4.428 -0.8375 -0.4763 -0.1284
 1607SOL    HW2 4878   2.167   3.957   4.494  0.5468  0.4804  0.3052
 1608SOL     OW 4879   0.642   1.869   1.942 -0.4008 -0.0321 -0.3222
 1608SOL    HW1 4880   0.560   1.917   1.935 -0.5524 -0.0457  1.0951
 1608SOL    HW2 4881   0.685   1.882   1.858 -1.7555  0.1514 -1.0078
 1609SOL     OW 4882   4.147   0.199   4.201 -0.1180  0.3593  0.0632
 1609SOL    HW1 4883   4.162   0.200   4.295 -0.0005 -0.4110  0.0573
 1609SOL    HW2 4884   4.100   0.117   4.185 -2.0879  1.4832 -0.2641
 1610SOL     OW 4885   2.028   4.860   2.174  0.5331 -0.0284  0.2768
 1610SOL    HW1 4886   1.996   4.846   2.084  2.1607 -1.2373 -0.1661
 1610SOL    HW2 4887   2.094   4.928   2.165 -0.3634  0.9298  0.8262
 1611SOL     OW 4888   4.837   3.471   2.310 -0.0701 -0.6839  0.3069
 1611SOL    HW1 4889   4.868   3.415   2.238  2.8500 -0.2518  1.0943
 1611SOL    HW2 4890   4.750   3.437   2.331 -1.5864 -0.1788 -4.0496
 1612SOL     OW 4891   0.089   1.625   4.768  0.0923  0.0144  0.4495
 1612SOL    HW1 4892   0.024   1.692   4.790 -0.3741 -0.6513  1.1084
 1612SOL    HW2 4893   0.051   1.577   4.694  1.5224  2.0489 -1.7744
 1613SOL     OW 4894   1.091   4.711   0.162 -0.5500 -0.0539  0.0402
 1613SOL    HW1 4895   1.017   4.702   0.222 -0.5134 -0.4604  0.0275
 1613SOL    HW2 4896   1.054   4.753   0.084 -1.4913 -2.9208 -1.2144
 1614SOL     OW 4897   4.618   4.604   2.343 -0.1329 -0.6049  0.1225
 1614SOL    HW1 4898   4.544   4.662   2.326 -1.2138 -1.7887  0.5851
 1614SOL    HW2 4899   4.674   4.653   2.403 -1.9842 -0.7444  2.0428
 1615SOL     OW 4900   2.083   4.110   4.771  0.3661  0.0340 -0.4488
 1615SOL    HW1 4901   2.165   4.096   4.724  1.0008 -0.3221  0.7355
 1615SOL    HW2 4902   2.077   4.205   4.781  2.0163 -0.0458  1.7947
 1616SOL     OW 4903   0.230   1.266   2.177 -0.6313  0.0943  0.2796
 1616SOL    HW1 4904   0.178   1.224   2.108 -1.6988  1.5096  0.1747
 1616SOL    HW2 4905   0.270   1.342   2.133  2.2458 -1.3579  0.1416
 1617SOL     OW 4906   0.934   1.413   0.632  0.1286  0.3971 -0.3435
 1617SOL    HW1 4907   0.940   1.475   0.559  2.6629 -0.1400 -0.6765
 1617SOL    HW2 4908   0.983   1.454   0.703  0.0437 -0.2944  0.1283
 1618SOL     OW 4909   2.343   2.254   0.960  0.0752 -0.2316  0.3859
 1618SOL    HW1 4910   2.343   2.347   0.981 -0.4657 -0.4251  1.3266
 1618SOL    HW2 4911   2.282   2.245   0.887 -0.5469  0.0477  0.8615
 1619SOL     OW 4912   1.496   0.060   2.151  1.1388  0.5830 -0.8094
 1619SOL    HW1 4913   1.414   0.065   2.199 -0.2683 -1.9980 -2.7079
 1619SOL    HW2 4914   1.558   0.021   2.212  0.5382  1.0734  0.1316
 1620SOL     OW 4915   4.732   3.127   0.746 -0.1394 -0.9864  0.7477
 1620SOL    HW1 4916   4.725   3.129   0.651  1.5873 -1.3858  0.5763
 1620SOL    HW2 4917   4.740   3.219   0.772  4.7140 -0.8863 -0.0852
 1621SOL     OW 4918   0.911   3.654   2.412 -0.4830  0.0086 -0.8915
 1621SOL    HW1 4919   0.860   3.576   2.390  1.2156 -1.1960 -0.7186
 1621SOL    HW2 4920   0.854   3.703   2.471 -1.9256 -0.6489 -1.6816
 1622SOL     OW 4921   3.834   1.647   2.528 -0.4981  0.0853 -0.1345
 1622SOL    HW1 4922   3.882   1.684   2.602 -0.3869 -0.3173 -0.0010
 1622SOL    HW2 4923   3.799   1.723   2.481  1.6495  0.5114 -1.1941
 1623SOL     OW 4924   0.701   2.237   4.908 -0.8433 -0.5235 -0.5578
 1623SOL    HW1 4925   0.708   2.149   4.946 -2.4752 -1.4970 -2.3619
 1623SOL    HW2 4926   0.637   2.282   4.963  0.4758 -0.1830  0.7667
 1624SOL     OW 4927   2.698   3.618   1.901 -0.5278  0.7061  0.3089
 1624SOL    HW1 4928   2.712   3.528   1.871  0.3585  1.1469 -0.6758
 1624SOL    HW2 4929   2.603   3.631   1.896 -0.5483  0.2394 -0.8254
 1625SOL     OW 4930   3.933   3.795   0.369  0.2572  0.1807 -0.1521
 1625SOL    HW1 4931   3.871   3.727   0.342  1.7261 -1.7870  1.1298
 1625SOL    HW2 4932   4.013   3.775   0.323  0.2059  2.3322 -1.3166
 1626SOL     OW 4933   0.591   2.490   2.929 -0.3579  0.0600  0.1577
 1626SOL    HW1 4934   0.608   2.539   2.848 -0.7821 -1.4171 -0.8542
 1626SOL    HW2 4935   0.536   2.417   2.902 -0.4928 -0.4768  1.7897
 1627SOL     OW 4936   2.892   4.957   0.943 -0.4054  0.2440 -0.7661
 1627SOL    HW1 4937   2.816   4.963   1.001  1.1748 -0.1144  1.4717
 1627SOL    HW2 4938   2.855   4.959   0.854 -3.1572 -1.7484  0.2110
 1628SOL     OW 4939   1.857   3.455   2.496  0.7786 -0.0938  0.2676
 1628SOL    HW1 4940   1.770   3.440   2.459  1.2832 -0.1635 -0.9286
 1628SOL    HW2 4941   1.843   3.523   2.562  0.1832  1.8394 -1.7008
 1629SOL     OW 4942   1.024   0.476   4.402 -0.0953 -0.3236  0.6471
 1629SOL    HW1 4943   0.965   0.503   4.472  0.3819 -0.7296  1.2190
 1629SOL    HW2 4944   0.981   0.399   4.363 -1.2928  0.9857 -0.7701
 1630SOL     OW 4945   1.927   4.121   1.253  0.1361  0.0269  1.1115
 1630SOL    HW1 4946   1.966   4.169   1.326  0.0995  2.0132 -0.1121
 1630SOL    HW2 4947   1.836   4.151   1.250  0.6627  1.6572 -0.9984
 1631SOL     OW 4948   3.933   4.246   0.701  0.0581  0.3777  0.0165
 1631SOL    HW1 4949   3.935   4.165   0.752  1.0176  1.4285  1.7287
 1631SOL    HW2 4950   3.927   4.217   0.610 -0.9696 -1.5786  0.6558
 1632SOL     OW 4951   0.535   1.624   0.682 -0.0530  0.1064  0.2643
 1632SOL    HW1 4952   0.558   1.570   0.607  1.7353 -1.6300  1.9566
 1632SOL    HW2 4953   0.452   1.587   0.713  0.5583 -0.9618  0.6960
 1633SOL     OW 4954   3.406   1.381   0.414 -0.2242  0.0675 -0.1130
 1633SOL    HW1 4955   3.431   1.472   0.428 -0.5847  0.1495  0.0058
 1633SOL    HW2 4956   3.376   1.350   0.499 -0.9432  0.1032 -0.3405
 1634SOL     OW 4957   1.175   0.622   4.012 -0.4835  0.4499 -0.7238
 1634SOL    HW1 4958   1.099   0.631   4.070  0.6780  0.3378  0.8641
 1634SOL    HW2 4959   1.138   0.593   3.929 -2.1052 -0.4430  0.2607
 1635SOL     OW 4960   0.369   3.015   1.986  0.1804  0.2616 -0.2446
 1635SOL    HW1 4961   0.346   3.081   1.921 -1.7445 -0.9980 -0.9636
 1635SOL    HW2 4962   0.363   3.060   2.070 -1.7619  0.9046 -0.6662
 1636SOL     OW 4963   4.123   2.253   2.226 -0.4368  0.4658  0.1746
 1636SOL    HW1 4964   4.175   2.174   2.213 -0.0865  0.7715 -0.3122
 1636SOL    HW2 4965   4.033   2.225   2.210 -0.2128  0.3994 -1.0875
 1637SOL     OW 4966   1.201   0.616   1.935  0.1176  0.8646 -0.3941
 1637SOL    HW1 4967   1.146   0.665   1.873 -2.1859  0.4487  1.1725
 1637SOL    HW2 4968   1.219   0.534   1.891 -2.2909  0.1817 -0.2782
 1638SOL     OW 4969   2.594   2.792   1.657  0.4794  0.0606  0.5721
 1638SOL    HW1 4970   2.687   2.789   1.677  0.8770 -0.1693 -1.1346
 1638SOL    HW2 4971   2.583   2.872   1.606 -0.8098  1.5908  3.0751
 1639SOL     OW 4972   0.655   0.654   3.697  0.4195 -0.2146  0.3196
 1639SOL    HW1 4973   0.570   0.687   3.726  0.0236 -2.3974  1.9299
 1639SOL    HW2 4974   0.693   0.615   3.775  0.8914 -3.3008 -1.2979
 1640SOL     OW 4975   0.600   4.304   2.419 -0.2110 -0.8960  0.4680
 1640SOL    HW1 4976   0.574   4.239   2.353 -0.3006 -0.9161  0.5229
 1640SOL    HW2 4977   0.569   4.387   2.384 -0.0636 -0.8783  0.3797
 1641SOL     OW 4978   3.881   3.192   1.808  0.1407 -0.3032 -0.4325
 1641SOL    HW1 4979   3.857   3.139   1.884 -1.4313  0.3108 -0.4729
 1641SOL    HW2 4980   3.848   3.143   1.733  0.7876 -0.4089 -0.6519
 1642SOL     OW 4981   1.342   2.160   1.918 -0.1051 -0.1120  0.5781
 1642SOL    HW1 4982   1.315   2.106   1.844  2.0472 -0.1161 -0.2825
 1642SOL    HW2 4983   1.358   2.246   1.879  2.8646 -0.5683  0.5733
 1643SOL     OW 4984   4.467   3.009   4.772 -0.0386 -0.8238  0.0019
 1643SOL    HW1 4985   4.536   2.973   4.716  1.0664  1.4903 -0.2714
 1643SOL    HW2 4986   4.401   3.042   4.710 -0.8732 -2.0085  0.2321
 1644SOL     OW 4987   2.227   1.100   2.018 -0.0527  0.4320  0.1029
 1644SOL    HW1 4988   2.261   1.051   1.944 -1.6665 -0.4540 -0.1100
 1644SOL    HW2 4989   2.156   1.153   1.980 -0.1872  0.7774  0.8269
 1645SOL     OW 4990   1.066   1.297   3.677 -0.5284 -0.0919  0.1418
 1645SOL    HW1 4991   1.014   1.313   3.598 -0.2737 -0.6029 -0.1323
 1645SOL    HW2 4992   1.023   1.222   3.719 -0.3405 -0.1619  0.2080
 1646SOL     OW 4993   4.535   3.745   2.891  0.0633 -0.2209 -0.3269
 1646SOL    HW1 4994   4.531   3.818   2.952  0.8120  0.3566 -0.9394
 1646SOL    HW2 4995   4.512   3.668   2.943  4.2279 -0.3573  1.6602
 1647SOL     OW 4996   4.614   4.889   2.393 -0.0818  0.0005 -0.1179
 1647SOL    HW1 4997   4.578   4.977   2.383  0.5087  0.2155 -0.3749
 1647SOL    HW2 4998   4.685   4.884   2.329  1.0286 -0.0639  1.0644
 1648SOL     OW 4999   3.661   4.226   2.849  0.2235 -0.2027  0.3143
 1648SOL    HW1 5000   3.643   4.190   2.762 -0.3578  0.5850  0.1007
 1648SOL    HW2 5001   3.750   4.197   2.868  0.9360  0.8717 -1.2019
 1649SOL     OW 5002   2.331   4.235   3.902  0.1681 -0.0255 -0.3514
 1649SOL    HW1 5003   2.276   4.203   3.973  0.6531  0.1692  0.1286
 1649SOL    HW2 5004   2.303   4.326   3.889  1.2551  0.5187  0.8275
 1650SOL     OW 5005   1.263   1.663   3.325  0.0734 -0.0287  0.1453
 1650SOL    HW1 5006   1.296   1.573   3.327 -0.7045 -0.3260  0.0250
 1650SOL    HW2 5007   1.339   1.716   3.304  0.2235 -0.8291 -1.4523
 1651SOL     OW 5008   2.398   2.605   0.838  0.3675  0.4939 -0.6222
 1651SOL    HW1 5009   2.316   2.653   0.855  0.0935  0.6672 -2.2594
 1651SOL    HW2 5010   2.461   2.643   0.900 -0.9599 -0.2047  1.2394
 1652SOL     OW 5011   0.720   3.719   2.640  0.3041 -0.5190  0.8771
 1652SOL    HW1 5012   0.645   3.669   2.607  0.5584 -0.8171  0.7436
 1652SOL    HW2 5013   0.695   3.810   2.630  0.5090 -0.5927 -0.4672
 1653SOL     OW 5014   3.148   2.809   1.207  0.3112  0.5037  0.0871
 1653SOL    HW1 5015   3.159   2.799   1.302 -0.5576  2.0837  0.3924
 1653SOL    HW2 5016   3.092   2.735   1.182  0.5696  0.0531  0.7938
 1654SOL     OW 5017   2.749   3.294   2.106 -0.3021 -0.1747  0.3038
 1654SOL    HW1 5018   2.788   3.324   2.189 -0.6989  1.4517 -0.0660
 1654SOL    HW2 5019   2.717   3.206   2.125 -0.4009  0.1766  1.8898
 1655SOL     OW 5020   3.227   1.011   3.812  0.9650  0.4345  0.1485
 1655SOL    HW1 5021   3.257   1.013   3.903  0.7578  0.6608  0.2129
 1655SOL    HW2 5022   3.256   0.926   3.780  1.0446  0.3541  0.4242
 1656SOL     OW 5023   1.440   0.569   1.568 -0.2539 -0.4652  0.2685
 1656SOL    HW1 5024   1.448   0.596   1.659 -1.2299 -0.8869  0.4932
 1656SOL    HW2 5025   1.516   0.608   1.525  0.0045  0.0731  1.1767
 1657SOL     OW 5026   0.640   2.473   3.380 -0.3424 -0.4515 -0.2450
 1657SOL    HW1 5027   0.680   2.513   3.303  0.1049  1.6226  0.9834
 1657SOL    HW2 5028   0.589   2.399   3.346  0.8144 -0.3332 -2.3571
 1658SOL     OW 5029   1.045   3.413   3.761 -0.2175 -0.3427  0.3657
 1658SOL    HW1 5030   0.975   3.357   3.796 -0.5286  1.1538  2.3276
 1658SOL    HW2 5031   1.089   3.448   3.839 -0.2437  2.3381 -0.7141
 1659SOL     OW 5032   0.343   0.116   0.508 -0.3779 -0.3538  0.3800
 1659SOL    HW1 5033   0.363   0.065   0.587  0.5484  1.5928  1.4648
 1659SOL    HW2 5034   0.409   0.185   0.506 -2.0662  1.3387 -0.5290
 1660SOL     OW 5035   4.737   0.429   1.607 -0.6598  0.2255  0.0120
 1660SOL    HW1 5036   4.819   0.476   1.592 -0.6669  0.7645  1.4829
 1660SOL    HW2 5037   4.764   0.344   1.642 -0.6596  1.2749  2.9044
 1661SOL     OW 5038   0.656   2.079   4.429  0.6217  0.5622  0.1765
 1661SOL    HW1 5039   0.718   2.052   4.498  1.3011  0.2867 -0.5305
 1661SOL    HW2 5040   0.585   2.121   4.477 -0.3194 -2.1297  1.3113
 1662SOL     OW 5041   1.134   1.176   2.871 -0.2160 -0.2050  0.0892
 1662SOL    HW1 5042   1.121   1.113   2.800  2.4086 -0.3837 -0.3184
 1662SOL    HW2 5043   1.137   1.261   2.827 -0.9221 -0.0693  0.2933
 1663SOL     OW 5044   1.802   0.705   4.784  0.1205  0.1584  0.5066
 1663SOL    HW1 5045   1.734   0.656   4.739 -0.2697  2.3627 -1.5079
 1663SOL    HW2 5046   1.875   0.708   4.722  0.8867  0.4192  1.3908
 1664SOL     OW 5047   0.921   4.721   2.711  0.1081 -0.3251  0.3522
 1664SOL    HW1 5048   0.982   4.749   2.643 -0.9033  1.2119  0.0440
 1664SOL    HW2 5049   0.965   4.741   2.793  0.6787 -0.7420  0.1560
 1665SOL     OW 5050   4.480   1.828   2.528  0.3920 -0.5027  0.8104
 1665SOL    HW1 5051   4.550   1.891   2.507  1.0658 -1.3054  0.5850
 1665SOL    HW2 5052   4.515   1.778   2.602  0.0487 -0.9014  0.7060
 1666SOL     OW 5053   4.877   3.375   1.721  0.4866 -0.0513 -0.1061
 1666SOL    HW1 5054   4.806   3.429   1.686 -0.8730 -0.9423  1.1277
 1666SOL    HW2 5055   4.890   3.306   1.656 -1.4047 -1.1933  0.6564
 1667SOL     OW 5056   4.530   1.475   4.844 -0.6169  0.5452  0.4083
 1667SOL    HW1 5057   4.500   1.499   4.932 -2.4085  0.8533 -0.2314
 1667SOL    HW2 5058   4.574   1.553   4.811  0.0386  0.4367  1.0103
 1668SOL     OW 5059   4.914   2.706   1.308  0.1826 -0.2097  0.2577
 1668SOL    HW1 5060   5.006   2.730   1.306 -0.3413  2.2209  1.1919
 1668SOL    HW2 5061   4.893   2.699   1.401 -0.3560 -1.8108  0.0414
 1669SOL     OW 5062   4.207   4.681   2.918 -0.0230  0.1184  0.3195
 1669SOL    HW1 5063   4.178   4.663   2.829 -1.4717 -0.4027  0.8682
 1669SOL    HW2 5064   4.293   4.721   2.907 -0.1292 -0.0152 -1.3019
 1670SOL     OW 5065   0.137   3.289   3.486  0.4591 -0.4114  0.1118
 1670SOL    HW1 5066   0.166   3.279   3.395  1.7856  1.7351  0.2199
 1670SOL    HW2 5067   0.086   3.370   3.486  1.1979  0.0821  1.4094
 1671SOL     OW 5068   4.396   3.123   2.065 -0.4431  0.4252 -0.3640
 1671SOL    HW1 5069   4.435   3.199   2.022 -0.6130  0.1902 -0.9438
 1671SOL    HW2 5070   4.346   3.080   1.996  0.7335 -0.9669 -0.4096
 1672SOL     OW 5071   0.448   0.302   1.410 -0.0331  0.4129 -0.1872
 1672SOL    HW1 5072   0.354   0.291   1.422 -0.1194  0.9044 -0.4088
 1672SOL    HW2 5073   0.487   0.255   1.484 -0.5090  1.8510  1.0284
 1673SOL     OW 5074   3.926   4.333   3.889 -0.3758 -0.4301 -0.6668
 1673SOL    HW1 5075   4.014   4.362   3.864 -0.5468  1.7302  0.9259
 1673SOL    HW2 5076   3.876   4.332   3.807  0.6758  0.0678 -1.3292
 1674SOL     OW 5077   1.681   4.075   0.952 -0.0541 -0.2152 -0.2899
 1674SOL    HW1 5078   1.610   4.120   0.997 -0.7176  0.2957 -1.7947
 1674SOL    HW2 5079   1.759   4.128   0.971  0.0802 -1.0705  1.8041
 1675SOL     OW 5080   3.465   3.745   2.216 -0.3607  0.0156 -0.1699
 1675SOL    HW1 5081   3.378   3.765   2.180  0.3606  1.4105 -1.2724
 1675SOL    HW2 5082   3.450   3.673   2.277 -2.5175  1.1954  0.7921
 1676SOL     OW 5083   2.298   2.921   3.905  0.3499  0.4241 -0.0632
 1676SOL    HW1 5084   2.271   2.848   3.960 -0.1256  0.6427 -0.0045
 1676SOL    HW2 5085   2.301   2.996   3.964 -0.3294  0.6951 -0.3613
 1677SOL     OW 5086   2.372   3.638   1.163  0.1559 -0.6991  0.3199
 1677SOL    HW1 5087   2.301   3.651   1.101  0.4265 -4.1921 -0.9328
 1677SOL    HW2 5088   2.337   3.669   1.246 -1.0943  1.8772 -1.0376
 1678SOL     OW 5089   0.464   2.069   0.302 -0.8847  0.0182  0.3131
 1678SOL    HW1 5090   0.482   2.162   0.292 -0.6805  0.0404  0.8517
 1678SOL    HW2 5091   0.534   2.036   0.358 -1.1312 -0.3955  0.3866
 1679SOL     OW 5092   4.743   3.652   3.615 -0.1944  0.4734  0.2368
 1679SOL    HW1 5093   4.700   3.687   3.537  0.7051  1.0599 -0.0141
 1679SOL    HW2 5094   4.719   3.560   3.617 -3.1645  1.1677  1.2561
 1680SOL     OW 5095   3.880   4.577   2.502 -0.3063 -0.2680 -0.2155
 1680SOL    HW1 5096   3.833   4.659   2.514  1.5636  0.7288  0.6575
 1680SOL    HW2 5097   3.959   4.586   2.556  0.6858 -2.0269 -1.2823
 1681SOL     OW 5098   2.503   2.476   0.615 -0.2214 -0.7486 -0.0448
 1681SOL    HW1 5099   2.468   2.512   0.697  0.1209 -0.4567 -0.0299
 1681SOL    HW2 5100   2.595   2.460   0.633 -0.0787 -0.4104 -0.4684
 1682SOL     OW 5101   3.948   3.087   0.261 -0.1912  0.1267  0.1639
 1682SOL    HW1 5102   4.012   3.158   0.258 -0.0304 -0.0300 -0.1009
 1682SOL    HW2 5103   3.983   3.021   0.202 -0.3610 -0.1574  0.3839
 1683SOL     OW 5104   0.447   1.760   2.454  0.2034  0.7266  0.0931
 1683SOL    HW1 5105   0.466   1.681   2.403  0.3016  1.4650 -1.0434
 1683SOL    HW2 5106   0.519   1.820   2.432 -0.8474  1.8011 -0.5056
 1684SOL     OW 5107   3.898   3.577   3.322 -0.4031 -0.2799 -0.0872
 1684SOL    HW1 5108   3.920   3.589   3.414  1.9252  0.6167 -0.6913
 1684SOL    HW2 5109   3.866   3.663   3.294 -0.7926 -0.4605 -0.2056
 1685SOL     OW 5110   0.882   1.839   2.115 -0.2006  0.0559  0.2610
 1685SOL    HW1 5111   0.814   1.863   2.052  0.4609 -0.2602 -0.5983
 1685SOL    HW2 5112   0.891   1.916   2.171 -0.9131  0.2809  0.0830
 1686SOL     OW 5113   0.283   3.630   2.170  0.5056  0.1843 -0.3382
 1686SOL    HW1 5114   0.248   3.586   2.092  0.6504 -0.1522 -0.2138
 1686SOL    HW2 5115   0.265   3.569   2.242  1.3757 -0.0119 -0.2806
 1687SOL     OW 5116   3.266   3.949   0.363 -0.0524  0.0681 -0.0453
 1687SOL    HW1 5117   3.278   3.885   0.434 -1.6582  0.7524  0.8941
 1687SOL    HW2 5118   3.223   4.023   0.405 -0.3524  0.8121 -1.6052
 1688SOL     OW 5119   2.484   2.852   2.035 -0.3610 -0.3348  0.3389
 1688SOL    HW1 5120   2.534   2.781   1.995  0.7956  1.5085 -1.6792
 1688SOL    HW2 5121   2.410   2.866   1.976 -0.7231 -0.0320  0.8571
 1689SOL     OW 5122   2.719   4.347   3.416 -0.4045  0.1304 -0.1588
 1689SOL    HW1 5123   2.691   4.297   3.340 -0.9378 -0.1040  0.1853
 1689SOL    HW2 5124   2.809   4.373   3.396 -0.5030 -0.0188 -0.8171
 1690SOL     OW 5125   4.805   2.395   0.097 -0.2361 -0.0796 -0.0098
 1690SOL    HW1 5126   4.755   2.443   0.164 -0.1450 -0.4800  0.3500
 1690SOL    HW2 5127   4.894   2.429   0.104 -0.2491 -0.0473 -0.0005
 1691SOL     OW 5128   4.750   1.422   1.501  0.1392  0.3561  0.1753
 1691SOL    HW1 5129   4.747   1.392   1.592 -0.3873 -0.7422 -0.1875
 1691SOL    HW2 5130   4.826   1.480   1.498 -0.8227  1.8026  1.7180
 1692SOL     OW 5131   4.664   3.347   3.915 -0.2833  0.6184 -0.2992
 1692SOL    HW1 5132   4.723   3.307   3.979 -0.5190 -1.6514 -1.4008
 1692SOL    HW2 5133   4.576   3.334   3.950 -0.3641  0.0878 -0.6823
 1693SOL     OW 5134   0.325   4.583   4.260  0.3823 -0.2254 -0.4660
 1693SOL    HW1 5135   0.374   4.519   4.311  0.5058  1.3998  1.5764
 1693SOL    HW2 5136   0.235   4.550   4.259  0.4993 -0.5846  0.3098
 1694SOL     OW 5137   3.332   0.105   4.627  0.5353 -0.3058  0.3035
 1694SOL    HW1 5138   3.293   0.092   4.541  0.6079  0.6890  0.1081
 1694SOL    HW2 5139   3.331   0.200   4.640  2.8144 -0.2337  0.3098
 1695SOL     OW 5140   3.939   1.337   4.725  0.1306 -0.2201 -0.5773
 1695SOL    HW1 5141   3.910   1.274   4.659  1.6794 -0.1433 -1.3824
 1695SOL    HW2 5142   3.951   1.286   4.805 -3.4966 -0.0194  0.2492
 1696SOL     OW 5143   2.315   4.425   3.261  0.0656  0.2253 -0.5031
 1696SOL    HW1 5144   2.254   4.353   3.242  0.4289 -0.8253  2.0360
 1696SOL    HW2 5145   2.258   4.501   3.274 -0.5273 -0.1931 -0.5777
 1697SOL     OW 5146   3.244   4.667   2.626 -0.2797 -0.0132  0.2354
 1697SOL    HW1 5147   3.206   4.700   2.544  0.3310  1.5536  0.5618
 1697SOL    HW2 5148   3.333   4.642   2.602 -0.1585  0.2755  0.3917
 1698SOL     OW 5149   2.678   0.340   4.038  0.4559  0.0956 -0.4529
 1698SOL    HW1 5150   2.615   0.271   4.061  0.7607  0.3581  1.2630
 1698SOL    HW2 5151   2.742   0.338   4.109  1.2617  1.2016 -1.1303
 1699SOL     OW 5152   0.800   2.140   4.192 -0.2390 -0.4017  0.4049
 1699SOL    HW1 5153   0.818   2.049   4.168 -0.7321 -0.8617  1.6482
 1699SOL    HW2 5154   0.739   2.133   4.266  0.2164  0.9226  0.9401
 1700SOL     OW 5155   3.404   2.993   3.674 -0.0486 -0.3164 -0.2352
 1700SOL    HW1 5156   3.358   2.978   3.756  0.7215 -1.5493 -0.0115
 1700SOL    HW2 5157   3.496   2.997   3.698  0.0925  0.6962 -0.8676
 1701SOL     OW 5158   3.722   4.833   0.154  0.0368 -0.0829 -0.5246
 1701SOL    HW1 5159   3.704   4.804   0.243 -1.7942 -0.6029 -1.0113
 1701SOL    HW2 5160   3.812   4.806   0.137 -0.0308 -1.1470  0.7092
 1702SOL     OW 5161   4.562   1.459   0.557 -0.4344 -0.0644  0.5776
 1702SOL    HW1 5162   4.646   1.424   0.587  0.3070  1.0834 -0.1087
 1702SOL    HW2 5163   4.499   1.427   0.622  0.4495 -1.2781  0.8835
 1703SOL     OW 5164   1.500   4.938   0.330  0.1521 -0.2147  0.4036
 1703SOL    HW1 5165   1.437   4.963   0.398 -0.2711 -0.0533 -0.0369
 1703SOL    HW2 5166   1.451   4.878   0.274 -0.7364  2.3572 -1.7948
 1704SOL     OW 5167   0.901   2.697   4.082 -0.1259 -0.1875  0.2022
 1704SOL    HW1 5168   0.883   2.744   4.001 -0.1869  2.4880  1.6613
 1704SOL    HW2 5169   0.996   2.707   4.095 -0.1785 -0.2389  0.6542
 1705SOL     OW 5170   1.515   4.455   2.134  0.6876  0.5958  0.1466
 1705SOL    HW1 5171   1.478   4.447   2.222  0.4349 -0.5745 -0.0443
 1705SOL    HW2 5172   1.479   4.537   2.100  0.4285  0.8278  0.9656
 1706SOL     OW 5173   2.911   4.132   4.101 -0.6262 -0.5711 -0.6691
 1706SOL    HW1 5174   2.960   4.192   4.158 -3.0546  0.5555  0.4120
 1706SOL    HW2 5175   2.881   4.186   4.028 -1.2160 -0.9113 -0.6942
 1707SOL     OW 5176   4.713   4.467   3.254  0.2088  0.0056  0.4209
 1707SOL    HW1 5177   4.722   4.558   3.283 -1.2860  0.1741  0.4072
 1707SOL    HW2 5178   4.802   4.432   3.261  1.1168  1.8421 -0.8968
 1708SOL     OW 5179   1.659   3.247   1.840 -0.2067 -0.5075 -0.0199
 1708SOL    HW1 5180   1.606   3.216   1.766  2.2896 -3.3643 -0.8153
 1708SOL    HW2 5181   1.675   3.169   1.892  0.3222  0.9639  2.1364
 1709SOL     OW 5182   1.146   0.214   1.454  0.6103  0.3212  0.2804
 1709SOL    HW1 5183   1.127   0.213   1.361 -1.2811  0.5401  0.6363
 1709SOL    HW2 5184   1.240   0.231   1.459  0.9804 -0.8404 -1.5959
 1710SOL     OW 5185   1.611   2.174   2.346 -0.2572  0.0051 -0.0711
 1710SOL    HW1 5186   1.526   2.141   2.374  0.2325 -1.2233  0.0527
 1710SOL    HW2 5187   1.667   2.096   2.344  1.1288  0.9291  0.8536
 1711SOL     OW 5188   4.099   4.472   0.434  0.3395  0.8631 -0.2663
 1711SOL    HW1 5189   4.188   4.494   0.404  0.9495  0.4635  1.1908
 1711SOL    HW2 5190   4.066   4.413   0.367  1.8819 -0.4588  0.0665
 1712SOL     OW 5191   1.416   0.190   2.595 -0.8722  0.2327  0.4438
 1712SOL    HW1 5192   1.472   0.117   2.620 -2.2804 -1.3078 -0.6454
 1712SOL    HW2 5193   1.474   0.266   2.595  0.7357 -0.9246  1.2640
 1713SOL     OW 5194   0.258   3.232   4.485  0.4229 -0.5346 -0.1171
 1713SOL    HW1 5195   0.248   3.312   4.537  0.1775  0.0282 -1.0135
 1713SOL    HW2 5196   0.275   3.263   4.396 -0.7119 -1.4768 -0.6795
 1714SOL     OW 5197   0.553   3.484   2.843  0.4225  0.7556  0.0509
 1714SOL    HW1 5198   0.509   3.523   2.768  1.9457  0.1181 -1.2367
 1714SOL    HW2 5199   0.603   3.556   2.881 -1.1491  1.3227  1.1175
 1715SOL     OW 5200   1.405   0.451   2.943 -0.2181  0.1200 -0.4877
 1715SOL    HW1 5201   1.464   0.504   2.890  1.3700 -0.3441  0.7035
 1715SOL    HW2 5202   1.318   0.486   2.926  0.7907  3.6515  0.8320
 1716SOL     OW 5203   4.979   1.116   4.102 -1.2092 -0.4072  0.4115
 1716SOL    HW1 5204   4.920   1.126   4.027  1.0814  1.3167 -1.3222
 1716SOL    HW2 5205   5.057   1.074   4.066  0.4198  1.4918  1.4976
 1717SOL     OW 5206   1.254   4.932   2.753 -0.6452 -0.7702  0.0322
 1717SOL    HW1 5207   1.279   4.988   2.825  1.1530  0.2220 -1.2881
 1717SOL    HW2 5208   1.217   4.854   2.794 -3.4348  1.3536  1.9346
 1718SOL     OW 5209   4.149   0.705   0.621  0.4199  0.2177  0.0058
 1718SOL    HW1 5210   4.078   0.768   0.631 -1.0128 -1.4181  0.4523
 1718SOL    HW2 5211   4.138   0.670   0.532  0.6139 -0.0962  0.1031
 1719SOL     OW 5212   1.762   0.083   1.244 -0.2277  1.2632  0.0970
 1719SOL    HW1 5213   1.719   0.002   1.272 -0.1201  1.0703 -0.2953
 1719SOL    HW2 5214   1.854   0.058   1.231  0.4048  2.0293  2.5569
 1720SOL     OW 5215   3.722   0.639   1.490  0.1624 -0.2805  0.5658
 1720SOL    HW1 5216   3.728   0.722   1.442 -0.0011 -0.0925  0.8679
 1720SOL    HW2 5217   3.658   0.655   1.558 -0.3035 -0.8430  0.2666
 1721SOL     OW 5218   0.126   4.134   1.153  0.0181  0.1612  0.1528
 1721SOL    HW1 5219   0.081   4.215   1.128 -0.4488 -0.0036  0.4426
 1721SOL    HW2 5220   0.056   4.077   1.184  0.5520  0.3585  1.8129
 1722SOL     OW 5221   2.516   1.158   0.198 -0.2656  0.8842 -0.3034
 1722SOL    HW1 5222   2.436   1.106   0.195  1.3192 -1.6862 -2.2129
 1722SOL    HW2 5223   2.567   1.121   0.270  0.8933 -0.4133 -1.7054
 1723SOL     OW 5224   3.208   1.045   2.841  0.2075  0.2316 -0.1055
 1723SOL    HW1 5225   3.211   1.141   2.849 -1.0666  0.5650 -2.4930
 1723SOL    HW2 5226   3.289   1.023   2.794  1.3264 -0.1143  1.9062
 1724SOL     OW 5227   4.719   4.661   1.711 -0.2070  0.0404  0.4412
 1724SOL    HW1 5228   4.676   4.608   1.778  0.9042  1.3533  2.3110
 1724SOL    HW2 5229   4.762   4.598   1.653 -2.1903 -1.1795  0.2083
 1725SOL     OW 5230   1.302   0.380   0.233  0.2698  0.1328  0.1809
 1725SOL    HW1 5231   1.352   0.445   0.281  0.2831 -0.5489  1.1335
 1725SOL    HW2 5232   1.249   0.430   0.171  0.7299  0.9919  0.4753
 1726SOL     OW 5233   0.170   1.468   3.210  0.6687  0.1766  0.1575
 1726SOL    HW1 5234   0.238   1.418   3.165  0.6136  0.9337 -0.8015
 1726SOL    HW2 5235   0.137   1.529   3.144 -1.2698 -0.4666  0.4710
 1727SOL     OW 5236   4.066   1.381   4.396 -0.3075 -0.0049  0.1620
 1727SOL    HW1 5237   4.016   1.452   4.357 -0.8825  0.7438  2.1784
 1727SOL    HW2 5238   4.146   1.377   4.343 -0.6565  1.5275 -0.5410
 1728SOL     OW 5239   2.226   3.460   3.334  0.0219  0.2100 -0.1945
 1728SOL    HW1 5240   2.229   3.365   3.340  0.6036  0.3044  1.8664
 1728SOL    HW2 5241   2.311   3.485   3.298 -0.4107 -0.0571 -1.4459
 1729SOL     OW 5242   2.480   4.762   2.065 -0.6276 -0.8199 -0.0670
 1729SOL    HW1 5243   2.478   4.670   2.090  0.8691 -0.5470  1.2073
 1729SOL    HW2 5244   2.461   4.809   2.146 -0.0400  0.0133 -0.4044
 1730SOL     OW 5245   0.492   0.927   4.473  0.0002 -0.0712  0.1232
 1730SOL    HW1 5246   0.448   0.843   4.487 -2.4861  1.2477  0.8220
 1730SOL    HW2 5247   0.429   0.979   4.424  1.5407  1.3712 -0.4026
 1731SOL     OW 5248   1.230   1.070   4.769 -0.4531 -0.3395 -0.2293
 1731SOL    HW1 5249   1.263   1.004   4.708  0.5148  1.2134 -1.4619
 1731SOL    HW2 5250   1.305   1.092   4.824 -0.2848  0.9037 -0.9255
 1732SOL     OW 5251   2.555   4.643   4.241  0.1487  0.2863  0.2539
 1732SOL    HW1 5252   2.554   4.556   4.202  0.9924  0.3867 -0.0183
 1732SOL    HW2 5253   2.602   4.697   4.177 -1.9831  1.3884 -0.4629
 1733SOL     OW 5254   0.976   0.099   3.471 -0.4824 -0.1452 -0.4144
 1733SOL    HW1 5255   0.990   0.110   3.565  1.4415 -0.9699 -0.5550
 1733SOL    HW2 5256   0.997   0.007   3.454 -0.7419  0.0040 -1.6618
 1734SOL     OW 5257   4.004   3.772   1.345  0.0701  0.1352  0.1261
 1734SOL    HW1 5258   3.923   3.722   1.335 -0.2775  0.8232 -0.5091
 1734SOL    HW2 5259   4.073   3.711   1.319 -0.2968 -0.2173 -0.0297
 1735SOL     OW 5260   1.040   2.358   0.949 -0.2619 -0.3822 -0.0102
 1735SOL    HW1 5261   1.001   2.421   1.010 -0.1751  1.7747 -2.0661
 1735SOL    HW2 5262   1.018   2.273   0.987 -0.7917  0.8079  2.6516
 1736SOL     OW 5263   0.141   1.354   2.851 -0.3200 -0.2972 -0.0899
 1736SOL    HW1 5264   0.192   1.294   2.906 -0.6941 -0.6861 -0.1660
 1736SOL    HW2 5265   0.050   1.339   2.875 -0.5321 -0.8308 -1.1539
 1737SOL     OW 5266   1.790   1.200   4.249  0.0636 -0.2623 -0.8953
 1737SOL    HW1 5267   1.728   1.216   4.320 -2.5511  1.0819 -3.2679
 1737SOL    HW2 5268   1.872   1.239   4.280 -0.3957 -1.3875  2.0595
 1738SOL     OW 5269   0.902   2.961   3.373  0.1424 -0.4762  0.0357
 1738SOL    HW1 5270   0.980   2.951   3.319  0.7748 -1.1130  1.0320
 1738SOL    HW2 5271   0.847   3.024   3.325  0.1330 -1.8691 -1.9141
 1739SOL     OW 5272   2.306   1.556   0.654  0.2396  0.0071  0.5067
 1739SOL    HW1 5273   2.218   1.529   0.679 -1.0977  1.5770 -2.1037
 1739SOL    HW2 5274   2.334   1.614   0.726 -1.6907  1.0278  0.5055
 1740SOL     OW 5275   2.917   3.216   3.624 -0.4783 -0.0918  1.0465
 1740SOL    HW1 5276   2.909   3.173   3.539 -0.6602  1.4383  0.2664
 1740SOL    HW2 5277   2.841   3.274   3.629 -1.1334 -0.9902  2.7834
 1741SOL     OW 5278   1.544   1.892   4.772  0.3898  0.1816 -0.2083
 1741SOL    HW1 5279   1.515   1.932   4.690 -1.8607 -0.6896  0.1171
 1741SOL    HW2 5280   1.576   1.806   4.747  0.7120  0.3241 -0.2936
 1742SOL     OW 5281   0.132   2.112   4.081  0.2752 -0.1989 -0.3892
 1742SOL    HW1 5282   0.133   2.181   4.147 -2.7360  0.2545 -0.6623
 1742SOL    HW2 5283   0.211   2.061   4.098  0.2517  0.5975  2.7925
 1743SOL     OW 5284   1.405   4.550   0.572  0.6622  0.2847  0.3359
 1743SOL    HW1 5285   1.479   4.587   0.619  0.0755 -0.6834  2.0776
 1743SOL    HW2 5286   1.364   4.491   0.634 -1.6641  0.8914 -0.5253
 1744SOL     OW 5287   0.852   4.296   3.790  0.1419  0.4709 -0.0022
 1744SOL    HW1 5288   0.835   4.349   3.868  2.3358  1.6390 -0.2353
 1744SOL    HW2 5289   0.872   4.209   3.824 -1.0046  0.4036  0.5590
 1745SOL     OW 5290   2.345   3.141   4.433 -0.1938  0.0776 -0.3824
 1745SOL    HW1 5291   2.332   3.052   4.400  0.0663  0.6932 -2.2434
 1745SOL    HW2 5292   2.272   3.154   4.494  0.2025 -1.6567  0.5375
 1746SOL     OW 5293   3.732   1.374   0.547  0.2292 -0.0359 -0.1472
 1746SOL    HW1 5294   3.669   1.446   0.551  0.3910  0.1027 -0.0755
 1746SOL    HW2 5295   3.807   1.405   0.596  0.2630 -0.2937 -0.0342
 1747SOL     OW 5296   3.104   1.588   0.672 -0.1027  0.9185  0.0098
 1747SOL    HW1 5297   3.197   1.597   0.693  0.6436 -1.0179 -2.1131
 1747SOL    HW2 5298   3.068   1.539   0.746  0.8419  0.5583  0.2430
 1748SOL     OW 5299   1.297   2.164   4.420  0.6339 -0.4365 -0.1031
 1748SOL    HW1 5300   1.260   2.091   4.370 -0.3200 -0.9187  1.2509
 1748SOL    HW2 5301   1.362   2.203   4.361  0.3803 -1.6916 -1.2627
 1749SOL     OW 5302   0.217   2.923   0.018  0.6815 -0.3077 -0.6572
 1749SOL    HW1 5303   0.308   2.911  -0.008  0.7933  0.4092 -0.6115
 1749SOL    HW2 5304   0.206   2.866   0.094  1.8082  1.4134  0.8795
 1750SOL     OW 5305   4.320   1.928   1.792 -0.3536  0.5043  0.5347
 1750SOL    HW1 5306   4.245   1.875   1.820 -0.9847  2.3883  2.7057
 1750SOL    HW2 5307   4.388   1.863   1.772 -2.0101 -1.1960  0.0850
 1751SOL     OW 5308   0.329   4.891   4.660  0.4528  0.1970  0.2240
 1751SOL    HW1 5309   0.258   4.917   4.601  0.4328 -2.2497 -0.9886
 1751SOL    HW2 5310   0.301   4.920   4.746 -0.1136  2.8019 -0.7477
 1752SOL     OW 5311   2.741   2.934   0.848 -0.0051  0.5203  0.3489
 1752SOL    HW1 5312   2.797   3.003   0.882 -0.5517  0.7881  0.7155
 1752SOL    HW2 5313   2.654   2.975   0.839 -0.1269  0.1481 -0.3110
 1753SOL     OW 5314   2.103   1.221   4.405 -0.0900 -0.5055 -0.3783
 1753SOL    HW1 5315   2.158   1.205   4.328  0.3151 -1.4618  0.0925
 1753SOL    HW2 5316   2.156   1.279   4.460  0.0761 -0.7091 -0.3239
 1754SOL     OW 5317   2.930   3.323   4.451 -0.0217 -0.1298 -0.1481
 1754SOL    HW1 5318   2.968   3.400   4.410  0.1728 -0.5001 -0.6816
 1754SOL    HW2 5319   2.853   3.303   4.398 -1.6764  1.3015  1.6090
 1755SOL     OW 5320   1.017   2.207   0.028 -0.4718  0.0614  0.3838
 1755SOL    HW1 5321   0.965   2.182   0.104  0.6590 -2.2178  0.4936
 1755SOL    HW2 5322   0.998   2.140  -0.038  0.7079  0.3678 -0.3118
 1756SOL     OW 5323   0.158   1.133   0.942  0.0235 -0.1184 -0.2583
 1756SOL    HW1 5324   0.200   1.169   0.864  0.7129  1.4864  0.8083
 1756SOL    HW2 5325   0.065   1.136   0.922  0.1969  0.0345 -1.1058
 1757SOL     OW 5326   2.592   4.547   2.428  0.0638  0.0076  0.1386
 1757SOL    HW1 5327   2.527   4.613   2.407 -0.6576 -0.5371  0.5952
 1757SOL    HW2 5328   2.548   4.463   2.412  0.3712 -0.3804  1.2297
 1758SOL     OW 5329   0.048   2.530   3.736  0.2766 -0.4573  0.6724
 1758SOL    HW1 5330   0.100   2.608   3.756 -0.7169 -0.0415  1.8110
 1758SOL    HW2 5331   0.071   2.468   3.805  0.6679 -0.9830  0.0778
 1759SOL     OW 5332   3.582   3.692   4.422  0.0760 -0.0981  0.0374
 1759SOL    HW1 5333   3.629   3.746   4.486 -0.1199  0.1643 -0.0356
 1759SOL    HW2 5334   3.593   3.739   4.339 -1.7924  0.9451  0.3133
 1760SOL     OW 5335   1.438   4.417   3.334  0.1592 -0.1826 -0.4160
 1760SOL    HW1 5336   1.474   4.380   3.415 -0.3960 -0.9466 -0.5149
 1760SOL    HW2 5337   1.343   4.417   3.347  0.1151  0.7941 -0.6065
 1761SOL     OW 5338   1.716   0.949   4.881 -0.3764 -0.2435  0.3652
 1761SOL    HW1 5339   1.718   0.952   4.977  1.0985 -0.1035  0.3583
 1761SOL    HW2 5340   1.739   0.858   4.859  1.3280  0.1968  0.1581
 1762SOL     OW 5341   2.706   4.938   4.361  0.1641  0.4241  0.6860
 1762SOL    HW1 5342   2.723   4.845   4.378  1.0085  0.1756 -1.2232
 1762SOL    HW2 5343   2.686   4.975   4.447 -2.8899 -2.0147  1.2143
 1763SOL     OW 5344   0.751   1.635   4.553 -0.0740  0.1721 -0.6586
 1763SOL    HW1 5345   0.785   1.724   4.547 -1.2714  0.8142  1.4329
 1763SOL    HW2 5346   0.672   1.636   4.499 -0.3276  0.5025 -0.2828
 1764SOL     OW 5347   3.615   4.619   2.143 -0.0272  0.0137  0.2376
 1764SOL    HW1 5348   3.591   4.577   2.226 -2.5389  1.3365  0.2631
 1764SOL    HW2 5349   3.581   4.561   2.075  0.3059 -0.1104  0.1761
 1765SOL     OW 5350   0.655   1.999   3.820 -0.5150 -0.2984  0.4245
 1765SOL    HW1 5351   0.651   2.031   3.729  1.2193  1.5113  0.9152
 1765SOL    HW2 5352   0.608   2.065   3.870  2.2490  1.1022  1.3394
 1766SOL     OW 5353   1.873   2.040   3.182  0.5189 -0.2244  0.3656
 1766SOL    HW1 5354   1.900   2.130   3.167 -0.0255  0.1758  1.6333
 1766SOL    HW2 5355   1.791   2.031   3.133  0.4537  0.0380  0.4261
 1767SOL     OW 5356   3.272   3.629   1.262  0.4216 -0.0657 -0.0618
 1767SOL    HW1 5357   3.352   3.620   1.313  0.2815 -0.2145  0.1339
 1767SOL    HW2 5358   3.213   3.562   1.298  0.4593 -0.4430 -0.6879
 1768SOL     OW 5359   1.173   1.952   4.653  0.0862  0.3544  0.0267
 1768SOL    HW1 5360   1.211   2.026   4.701 -0.5394  0.6818  0.0175
 1768SOL    HW2 5361   1.136   1.992   4.574 -1.1042  0.1670  0.4846
 1769SOL     OW 5362   1.668   1.636   1.001  0.0005 -0.5434 -0.6126
 1769SOL    HW1 5363   1.610   1.618   1.075  0.2003  0.4462 -0.2018
 1769SOL    HW2 5364   1.610   1.642   0.925 -0.5939  1.4435 -0.0538
 1770SOL     OW 5365   3.512   2.155   2.997 -0.3885 -0.3584  0.3962
 1770SOL    HW1 5366   3.532   2.088   2.931  0.1455 -0.8401  1.0329
 1770SOL    HW2 5367   3.437   2.120   3.045 -0.6025 -0.1356  0.2251
 1771SOL     OW 5368   1.530   3.293   3.662  0.2234 -0.1334  0.3562
 1771SOL    HW1 5369   1.527   3.262   3.752 -1.4859 -0.2716  0.2923
 1771SOL    HW2 5370   1.568   3.381   3.667  0.6910 -0.3778  1.1281
 1772SOL     OW 5371   1.647   0.933   2.678  0.1809  0.0074 -0.2615
 1772SOL    HW1 5372   1.601   0.911   2.759 -0.3928  0.7523 -0.3680
 1772SOL    HW2 5373   1.657   0.850   2.632  0.0553 -0.3468  0.3456
 1773SOL     OW 5374   4.358   1.926   3.041 -0.3709 -0.0824 -0.5025
 1773SOL    HW1 5375   4.364   2.010   3.088 -1.2861 -0.8867  1.1719
 1773SOL    HW2 5376   4.448   1.895   3.037 -0.2994 -0.2151  1.2525
 1774SOL     OW 5377   1.171   0.534   4.667 -0.3196 -0.0276 -0.1249
 1774SOL    HW1 5378   1.127   0.552   4.583 -1.1639 -1.8804 -0.1324
 1774SOL    HW2 5379   1.179   0.439   4.669  1.1617  0.0925  1.1969
 1775SOL     OW 5380   0.672   2.819   0.302  0.4614 -0.4781 -0.7635
 1775SOL    HW1 5381   0.751   2.873   0.294  0.2213 -0.0356 -0.2227
 1775SOL    HW2 5382   0.610   2.875   0.350  1.1157 -2.1477  2.2748
 1776SOL     OW 5383   1.074   1.292   0.356 -0.1436  0.4649  0.2215
 1776SOL    HW1 5384   1.022   1.227   0.404 -0.2901 -0.0657 -0.6383
 1776SOL    HW2 5385   1.116   1.242   0.286  0.3176  1.1688 -0.0122
 1777SOL     OW 5386   3.995   2.880   0.580 -1.0408  0.2228 -0.3312
 1777SOL    HW1 5387   3.966   2.966   0.610 -0.3964  0.4540 -0.3547
 1777SOL    HW2 5388   3.937   2.860   0.506 -1.1169  0.6840 -0.3994
 1778SOL     OW 5389   1.758   3.511   3.410 -0.5733 -0.4187 -0.8677
 1778SOL    HW1 5390   1.843   3.515   3.455  0.4275 -1.8049 -2.4964
 1778SOL    HW2 5391   1.759   3.426   3.366 -2.4871 -0.1109 -1.5765
 1779SOL     OW 5392   1.137   4.795   4.696  0.2144  0.4722 -0.2969
 1779SOL    HW1 5393   1.181   4.714   4.671 -0.0126  0.4751 -0.7125
 1779SOL    HW2 5394   1.125   4.787   4.791 -1.4245 -0.7954 -0.5635
 1780SOL     OW 5395   0.500   0.829   3.184  0.1596 -0.0266 -0.0287
 1780SOL    HW1 5396   0.558   0.815   3.259  0.0882  0.9420  0.2284
 1780SOL    HW2 5397   0.496   0.744   3.141 -1.0287 -1.0467  1.9371
 1781SOL     OW 5398   0.973   3.262   4.782  0.5962 -0.6288 -0.3214
 1781SOL    HW1 5399   1.029   3.199   4.828  1.1717  1.6949  2.5338
 1781SOL    HW2 5400   1.033   3.308   4.723  1.2937  0.3542  1.0922
 1782SOL     OW 5401   2.298   4.503   3.834  0.2607 -0.3656 -0.2294
 1782SOL    HW1 5402   2.214   4.518   3.790 -0.8304  0.1815  1.8618
 1782SOL    HW2 5403   2.332   4.591   3.851  1.2778 -0.5869 -1.0563
 1783SOL     OW 5404   0.992   3.917   1.728 -0.4619  0.1352 -0.4226
 1783SOL    HW1 5405   1.075   3.870   1.725 -0.7224 -0.4258  0.7044
 1783SOL    HW2 5406   1.016   4.009   1.737  0.0595 -0.1361  1.2914
 1784SOL     OW 5407   1.313   1.559   4.888  0.6565 -0.9386  0.4475
 1784SOL    HW1 5408   1.288   1.652   4.890  1.3864 -0.7252  3.1393
 1784SOL    HW2 5409   1.351   1.547   4.801 -2.7666  0.2999 -1.3891
 1785SOL     OW 5410   4.159   4.693   2.585 -0.4920 -0.7667  0.0208
 1785SOL    HW1 5411   4.154   4.764   2.522 -0.4571 -1.6937 -1.0678
 1785SOL    HW2 5412   4.243   4.650   2.566 -0.9433 -1.6612  0.0220
 1786SOL     OW 5413   3.527   3.800   3.203  0.2241  0.2658 -0.1632
 1786SOL    HW1 5414   3.462   3.869   3.221  0.6683  0.9983 -1.2576
 1786SOL    HW2 5415   3.477   3.731   3.158 -0.0356  0.2940  0.0831
 1787SOL     OW 5416   2.836   1.125   0.592 -0.0016  0.1577 -0.1183
 1787SOL    HW1 5417   2.828   1.111   0.686 -0.9239  0.6920 -0.1060
 1787SOL    HW2 5418   2.825   1.219   0.580  1.1186  0.2421 -0.6744
 1788SOL     OW 5419   2.557   2.947   3.149  0.0649  0.2302  0.5595
 1788SOL    HW1 5420   2.589   3.018   3.205  3.4606 -0.3641 -0.4057
 1788SOL    HW2 5421   2.539   2.990   3.065 -0.3324  0.3425  0.7004
 1789SOL     OW 5422   0.563   4.716   0.098 -0.3631  0.3432 -0.6763
 1789SOL    HW1 5423   0.634   4.670   0.144  0.5320 -0.6354 -2.8669
 1789SOL    HW2 5424   0.487   4.659   0.107  0.6497 -1.5446 -3.0635
 1790SOL     OW 5425   4.283   2.247   1.353  0.3628  0.3584 -0.4862
 1790SOL    HW1 5426   4.312   2.268   1.265  1.3610  0.1174 -0.2241
 1790SOL    HW2 5427   4.190   2.224   1.343  0.5903 -0.1447 -1.5343
 1791SOL     OW 5428   0.761   2.632   2.371 -0.0254  0.1216  0.5902
 1791SOL    HW1 5429   0.760   2.604   2.279  1.1671  0.6434  0.3975
 1791SOL    HW2 5430   0.847   2.606   2.403 -0.9569 -1.3732  2.0159
 1792SOL     OW 5431   1.595   0.567   0.238 -0.3853  0.0553 -0.2564
 1792SOL    HW1 5432   1.603   0.497   0.302 -2.3362 -0.4062 -0.4618
 1792SOL    HW2 5433   1.660   0.547   0.171 -0.7995 -1.4712 -0.2239
 1793SOL     OW 5434   1.954   0.426   4.232  0.5175 -0.0200 -0.1361
 1793SOL    HW1 5435   1.884   0.455   4.291  0.6918 -1.9728  1.0986
 1793SOL    HW2 5436   2.025   0.489   4.246  0.1762  0.1449  0.9667
 1794SOL     OW 5437   0.422   1.704   3.201 -0.2452 -0.0068  0.1643
 1794SOL    HW1 5438   0.493   1.765   3.178 -1.3819  1.8206  1.3325
 1794SOL    HW2 5439   0.467   1.631   3.243  0.9529  1.3320  1.3270
 1795SOL     OW 5440   2.681   0.532   0.557  0.0543  0.4261 -0.1605
 1795SOL    HW1 5441   2.609   0.470   0.562  1.3337 -1.0892  0.4851
 1795SOL    HW2 5442   2.658   0.602   0.618 -0.7671 -0.1261  0.1741
 1796SOL     OW 5443   2.048   2.989   0.149  0.7192 -0.2436 -0.4253
 1796SOL    HW1 5444   2.114   3.032   0.095  0.2036  0.1420 -0.7537
 1796SOL    HW2 5445   2.070   2.896   0.145  1.1896 -0.1249 -0.5999
 1797SOL     OW 5446   4.713   3.216   1.250  0.1501 -0.0886  0.1475
 1797SOL    HW1 5447   4.691   3.301   1.211 -1.1873 -0.5950 -0.2387
 1797SOL    HW2 5448   4.765   3.171   1.184  1.3751  0.6436  0.5848
 1798SOL     OW 5449   4.875   2.238   2.062 -0.3458  0.4538 -0.0343
 1798SOL    HW1 5450   4.811   2.253   1.993 -2.2116 -1.4096  1.1674
 1798SOL    HW2 5451   4.881   2.322   2.108 -1.0230  0.9844 -0.8889
 1799SOL     OW 5452   1.830   2.372   2.530 -0.2771 -0.5315  0.2022
 1799SOL    HW1 5453   1.736   2.387   2.515  0.2380  1.8742 -0.9871
 1799SOL    HW2 5454   1.856   2.441   2.591  0.9686 -0.4295 -0.4179
 1800SOL     OW 5455   3.196   4.334   3.037 -0.0676  0.1817 -0.4418
 1800SOL    HW1 5456   3.129   4.271   3.011  0.6573  0.0338 -2.0929
 1800SOL    HW2 5457   3.215   4.383   2.957  1.2677  0.6962  0.1602
 1801SOL     OW 5458   0.077   4.270   4.674 -0.0650 -0.3661  0.1548
 1801SOL    HW1 5459   0.133   4.199   4.642 -0.1808 -0.4133  0.0588
 1801SOL    HW2 5460   0.055   4.245   4.764  0.0736 -0.3446  0.1950
 1802SOL     OW 5461   0.757   2.378   4.435 -0.3476 -0.3157 -0.0709
 1802SOL    HW1 5462   0.791   2.458   4.395 -0.3170 -1.0122 -1.4738
 1802SOL    HW2 5463   0.822   2.311   4.414 -0.8073 -0.9055  0.3492
 1803SOL     OW 5464   3.784   1.023   1.572  0.3385  0.2735  0.4052
 1803SOL    HW1 5465   3.757   0.982   1.490  1.9943 -0.1447  0.0149
 1803SOL    HW2 5466   3.703   1.054   1.612 -0.8410 -2.1251  0.0343
 1804SOL     OW 5467   4.396   4.646   0.073 -0.1751 -0.8131  0.1332
 1804SOL    HW1 5468   4.382   4.737   0.100 -2.4690 -0.0463 -3.0402
 1804SOL    HW2 5469   4.382   4.647  -0.021  0.8707 -4.3200 -0.1862
 1805SOL     OW 5470   1.075   2.018   1.481 -0.0988 -0.3913 -0.5074
 1805SOL    HW1 5471   1.155   1.966   1.492 -0.2976 -1.0612 -1.9438
 1805SOL    HW2 5472   1.104   2.109   1.483  0.6916 -0.6302 -0.8910
 1806SOL     OW 5473   3.372   0.219   0.691 -0.2612  0.6890 -0.2483
 1806SOL    HW1 5474   3.318   0.144   0.666  0.3757  0.2166 -0.2365
 1806SOL    HW2 5475   3.344   0.242   0.780  0.2977 -0.2466  0.1821
 1807SOL     OW 5476   0.246   3.618   1.226  0.1910 -0.3934 -0.1096
 1807SOL    HW1 5477   0.176   3.677   1.252  1.7502  2.3244 -1.6151
 1807SOL    HW2 5478   0.259   3.561   1.302 -1.0625  1.5621  1.6881
 1808SOL     OW 5479   3.180   3.991   3.788 -0.2797 -0.5168  0.0448
 1808SOL    HW1 5480   3.257   3.950   3.748 -0.5127 -0.2127 -0.7289
 1808SOL    HW2 5481   3.217   4.052   3.852  0.0950 -1.1324  0.4178
 1809SOL     OW 5482   4.945   2.969   0.463 -0.3630  0.1166  0.4518
 1809SOL    HW1 5483   4.863   3.008   0.490 -1.4254 -1.3856 -0.4431
 1809SOL    HW2 5484   4.954   2.993   0.370 -0.6338 -1.0570  0.1090
 1810SOL     OW 5485   2.369   1.399   4.323 -0.1329 -0.0370  0.0665
 1810SOL    HW1 5486   2.435   1.352   4.374 -1.6174 -1.1603  1.0667
 1810SOL    HW2 5487   2.416   1.433   4.248  2.0665  1.2764  1.9161
 1811SOL     OW 5488   3.295   1.091   0.627  0.0756 -0.1002 -0.0601
 1811SOL    HW1 5489   3.363   1.024   0.619  0.1569 -0.3640  2.2808
 1811SOL    HW2 5490   3.222   1.057   0.575  1.2473 -0.3788 -1.6188
 1812SOL     OW 5491   1.210   4.440   4.101 -0.2707  0.1781  0.4261
 1812SOL    HW1 5492   1.263   4.395   4.166  1.3240  1.7337  0.3006
 1812SOL    HW2 5493   1.220   4.533   4.123 -0.2023  0.7001 -1.6043
 1813SOL     OW 5494   2.520   1.438   1.072  0.0122  0.1098 -0.0699
 1813SOL    HW1 5495   2.555   1.410   0.987  1.0329 -1.2059  0.7476
 1813SOL    HW2 5496   2.538   1.532   1.075  1.3182 -0.0901 -0.7078
 1814SOL     OW 5497   1.989   0.622   1.091 -0.2426 -0.2974 -0.5661
 1814SOL    HW1 5498   2.034   0.696   1.132  1.2079 -1.5880  0.2779
 1814SOL    HW2 5499   2.012   0.629   0.998  0.0147  0.2178 -0.4684
 1815SOL     OW 5500   4.959   1.599   1.547 -0.2717 -0.5339 -0.3065
 1815SOL    HW1 5501   5.012   1.645   1.613  0.8135 -1.8245 -0.2189
 1815SOL    HW2 5502   4.963   1.655   1.470 -1.4683  0.9508  0.6511
 1816SOL     OW 5503   2.175   3.575   2.472  0.2958 -0.3774  0.1495
 1816SOL    HW1 5504   2.115   3.510   2.507  1.3312 -2.6249 -1.9645
 1816SOL    HW2 5505   2.145   3.590   2.382 -0.0657  2.3757  0.6198
 1817SOL     OW 5506   0.533   4.769   4.286  0.5290  0.2080  0.5547
 1817SOL    HW1 5507   0.583   4.761   4.367 -1.2177  0.1956  1.6803
 1817SOL    HW2 5508   0.454   4.718   4.301  0.4071 -0.2549 -1.3819
 1818SOL     OW 5509   3.804   2.750   2.663 -0.5393  0.3520 -0.5670
 1818SOL    HW1 5510   3.847   2.695   2.727 -0.1345  1.0988 -0.1813
 1818SOL    HW2 5511   3.821   2.840   2.693  1.1197  0.8032 -2.6085
 1819SOL     OW 5512   0.541   0.722   1.840 -0.4997 -0.2411 -0.6273
 1819SOL    HW1 5513   0.559   0.677   1.923 -0.0939  1.4789  0.2681
 1819SOL    HW2 5514   0.515   0.653   1.780 -1.6627 -1.4444  1.1746
 1820SOL     OW 5515   0.781   4.035   1.522 -0.0518 -0.5457 -0.4531
 1820SOL    HW1 5516   0.773   4.026   1.617 -0.0242  3.0655  0.0240
 1820SOL    HW2 5517   0.690   4.041   1.491 -0.0420 -1.0048 -0.5786
 1821SOL     OW 5518   3.504   0.946   1.197  0.3537 -0.1747 -0.9266
 1821SOL    HW1 5519   3.436   0.885   1.170  0.1878  0.4130 -1.8662
 1821SOL    HW2 5520   3.464   0.995   1.270 -0.9243  1.3466 -2.5485
 1822SOL     OW 5521   3.626   1.333   4.127 -0.0742  0.4611  0.1052
 1822SOL    HW1 5522   3.704   1.387   4.117 -0.3662  0.8889  0.1305
 1822SOL    HW2 5523   3.584   1.336   4.041  1.0393 -1.5075 -0.5724
 1823SOL     OW 5524   4.647   4.650   3.667 -0.2840 -0.2916 -0.3228
 1823SOL    HW1 5525   4.739   4.675   3.666 -0.5785  0.9293  0.7981
 1823SOL    HW2 5526   4.600   4.730   3.693 -1.4483 -1.5087  1.5571
 1824SOL     OW 5527   3.614   0.457   3.517  0.0512 -0.3474  0.7267
 1824SOL    HW1 5528   3.708   0.461   3.534 -0.1252  2.1498  1.5697
 1824SOL    HW2 5529   3.607   0.447   3.422  1.0750 -4.4779  0.8958
 1825SOL     OW 5530   3.675   1.684   0.064 -0.1041 -0.4582  0.1189
 1825SOL    HW1 5531   3.594   1.735   0.056 -0.1194 -0.3593  0.8629
 1825SOL    HW2 5532   3.652   1.597   0.034 -0.1561 -0.1163 -0.8840
 1826SOL     OW 5533   4.695   1.317   4.444 -0.3153  0.0763 -0.0247
 1826SOL    HW1 5534   4.622   1.364   4.485  0.5682  0.2897  1.3443
 1826SOL    HW2 5535   4.672   1.314   4.351 -1.3655  1.4214  0.1646
 1827SOL     OW 5536   2.281   2.927   1.880 -0.0609  0.7238  0.4619
 1827SOL    HW1 5537   2.189   2.953   1.889 -0.0966  0.2469  1.6511
 1827SOL    HW2 5538   2.278   2.846   1.830 -0.0338  2.2400 -2.2154
 1828SOL     OW 5539   1.576   4.964   2.707  0.4646 -0.3519  0.3589
 1828SOL    HW1 5540   1.651   4.934   2.656  1.2564 -2.7606  2.7067
 1828SOL    HW2 5541   1.517   4.888   2.710 -1.4849  1.0447 -0.2813
 1829SOL     OW 5542   4.478   0.558   2.024 -0.2956 -0.3465  0.5058
 1829SOL    HW1 5543   4.428   0.572   1.944 -0.7551 -0.8153  0.7080
 1829SOL    HW2 5544   4.559   0.517   1.994  0.8343  2.0859 -0.0402
 1830SOL     OW 5545   4.585   2.302   3.854  0.1643 -0.3624 -0.1445
 1830SOL    HW1 5546   4.607   2.211   3.833  0.3375 -0.2296 -0.5696
 1830SOL    HW2 5547   4.617   2.314   3.943  1.2846 -0.3619 -0.5275
 1831SOL     OW 5548   1.206   2.780   0.724 -0.4001  0.1127 -0.2758
 1831SOL    HW1 5549   1.198   2.685   0.740 -0.8895  0.0389 -0.9345
 1831SOL    HW2 5550   1.197   2.789   0.629  0.8416  0.7093 -0.3561
 1832SOL     OW 5551   3.359   2.323   3.392  0.3541 -0.6917 -0.3093
 1832SOL    HW1 5552   3.441   2.297   3.349 -0.6615 -0.6790 -2.3356
 1832SOL    HW2 5553   3.313   2.375   3.327 -1.8772 -1.8139  0.2780
 1833SOL     OW 5554   2.702   0.992   4.750 -0.1613  0.8799 -0.1193
 1833SOL    HW1 5555   2.642   1.029   4.814  1.2412  2.8644  0.1367
 1833SOL    HW2 5556   2.747   1.068   4.712  3.0561 -0.4869  0.5821
 1834SOL     OW 5557   1.936   1.314   0.199  0.6345 -0.0599 -0.9662
 1834SOL    HW1 5558   1.995   1.343   0.269  0.1315 -3.0463  0.8651
 1834SOL    HW2 5559   1.944   1.219   0.199 -2.2067 -0.3877 -2.4573
 1835SOL     OW 5560   1.474   1.231   1.049 -0.7325  0.4716 -0.5011
 1835SOL    HW1 5561   1.486   1.220   0.955  0.2675 -0.0185 -0.3303
 1835SOL    HW2 5562   1.386   1.269   1.058 -0.5454  1.2415 -1.6679
 1836SOL     OW 5563   3.825   3.061   4.343  0.4414 -0.1160  0.2251
 1836SOL    HW1 5564   3.761   3.107   4.397  0.0571  1.0370 -1.1496
 1836SOL    HW2 5565   3.776   2.987   4.307 -0.2738  0.9501 -1.0891
 1837SOL     OW 5566   4.308   4.145   0.861  0.0321  0.6848  0.5305
 1837SOL    HW1 5567   4.230   4.166   0.912  0.3373  1.6093  0.6342
 1837SOL    HW2 5568   4.305   4.207   0.787 -0.1103 -0.2600 -0.2813
 1838SOL     OW 5569   0.756   3.157   3.272 -0.2466 -0.4296  0.4760
 1838SOL    HW1 5570   0.811   3.235   3.273 -0.0748 -0.5077 -1.1812
 1838SOL    HW2 5571   0.668   3.191   3.289  0.0223 -0.0831  1.2663
 1839SOL     OW 5572   2.241   2.118   1.810 -0.1871 -0.0996 -0.2123
 1839SOL    HW1 5573   2.185   2.060   1.759 -0.1958 -1.6697  1.4628
 1839SOL    HW2 5574   2.292   2.059   1.866  1.0608  1.4369  0.3386
 1840SOL     OW 5575   3.776   3.648   0.676  0.2185 -0.2249 -0.1249
 1840SOL    HW1 5576   3.761   3.626   0.584  0.5468 -0.5050 -0.1121
 1840SOL    HW2 5577   3.846   3.713   0.674  1.4666 -1.5217  0.0227
 1841SOL     OW 5578   3.013   1.941   3.047 -0.7698  0.3532 -0.3007
 1841SOL    HW1 5579   2.980   1.861   3.089  0.4905 -0.9265 -1.6398
 1841SOL    HW2 5580   2.965   1.947   2.965 -2.2785  2.1227  0.6341
 1842SOL     OW 5581   1.736   4.677   2.066 -0.1590  0.1273  0.0756
 1842SOL    HW1 5582   1.684   4.746   2.026  0.0542  1.0677  1.3846
 1842SOL    HW2 5583   1.811   4.667   2.007 -0.9704 -0.1127 -0.9551
 1843SOL     OW 5584   0.937   1.130   0.124 -0.4651  0.0856  0.1774
 1843SOL    HW1 5585   0.938   1.037   0.099 -2.4135 -0.0873  0.6178
 1843SOL    HW2 5586   0.896   1.131   0.210  0.2422  1.2987  0.5162
 1844SOL     OW 5587   3.298   2.662   3.053  0.7382  0.3418 -0.2687
 1844SOL    HW1 5588   3.293   2.574   3.090  1.0432  0.1754 -0.6132
 1844SOL    HW2 5589   3.384   2.666   3.011  2.4549  2.1192  3.0190
 1845SOL     OW 5590   4.061   2.117   4.486  0.1823 -0.0478 -0.0441
 1845SOL    HW1 5591   4.135   2.168   4.521 -0.0625  0.5259 -0.3338
 1845SOL    HW2 5592   4.053   2.042   4.544  0.5709  0.2377  0.3841
 1846SOL     OW 5593   3.369   4.322   2.529  0.2665 -0.2780 -0.0410
 1846SOL    HW1 5594   3.422   4.242   2.530  1.2456  0.3436 -0.7628
 1846SOL    HW2 5595   3.419   4.385   2.582  0.7227  0.5888 -1.4577
 1847SOL     OW 5596   3.239   0.840   3.500 -0.0264 -0.7132  0.4401
 1847SOL    HW1 5597   3.222   0.924   3.457 -0.4254 -2.2298 -2.6567
 1847SOL    HW2 5598   3.164   0.826   3.557 -0.7296  0.3485 -0.2053
 1848SOL     OW 5599   1.489   1.257   0.351  0.4117  0.6894  0.0731
 1848SOL    HW1 5600   1.557   1.310   0.311  2.3106 -1.0754  0.7672
 1848SOL    HW2 5601   1.447   1.212   0.277  1.9059 -0.2938 -0.2291
 1849SOL     OW 5602   0.112   3.205   2.605 -0.2252  0.1918 -0.2391
 1849SOL    HW1 5603   0.148   3.198   2.516  1.2611 -1.1317  0.4231
 1849SOL    HW2 5604   0.186   3.233   2.659 -1.2048  1.3480  0.5663
 1850SOL     OW 5605   3.137   0.501   0.814  0.1052  0.2103  0.0505
 1850SOL    HW1 5606   3.176   0.433   0.868  1.0717 -0.0651 -0.9334
 1850SOL    HW2 5607   3.044   0.480   0.809  0.1319 -0.1467  1.0108
 1851SOL     OW 5608   4.702   0.889   4.640  0.0088  0.7083 -0.2709
 1851SOL    HW1 5609   4.778   0.894   4.582 -0.6428  1.8808 -1.0893
 1851SOL    HW2 5610   4.649   0.965   4.615 -1.4326 -0.0878  0.2596
 1852SOL     OW 5611   4.556   4.195   3.395 -0.1643  0.4112  0.6816
 1852SOL    HW1 5612   4.601   4.229   3.472  1.6043 -2.0410  0.8302
 1852SOL    HW2 5613   4.609   4.224   3.321 -0.9781  1.4056  0.4572
 1853SOL     OW 5614   3.421   1.858   0.861 -0.1087  0.2894 -0.3932
 1853SOL    HW1 5615   3.331   1.859   0.895 -0.0360  0.6686 -0.1988
 1853SOL    HW2 5616   3.473   1.896   0.932  0.0390  1.1423 -0.9392
 1854SOL     OW 5617   4.703   4.358   1.962  0.3939 -0.4945  0.4438
 1854SOL    HW1 5618   4.681   4.294   2.029 -1.2402 -0.3608  0.0875
 1854SOL    HW2 5619   4.630   4.353   1.899  0.6757  1.0607 -0.0600
 1855SOL     OW 5620   1.001   3.186   4.135 -0.7180  0.7340 -0.3947
 1855SOL    HW1 5621   0.990   3.270   4.179 -0.3602 -0.2592  1.7486
 1855SOL    HW2 5622   0.912   3.157   4.116 -0.8895  1.1540 -0.2287
 1856SOL     OW 5623   4.100   3.358   0.312  0.6889  0.3887  0.7491
 1856SOL    HW1 5624   4.124   3.294   0.379  1.5442 -0.2328 -0.1183
 1856SOL    HW2 5625   4.179   3.411   0.301  0.5342  0.5223  0.2771
 1857SOL     OW 5626   2.605   2.684   2.500  0.1543  0.7252  0.1697
 1857SOL    HW1 5627   2.586   2.614   2.437 -1.2403  2.0883 -0.9870
 1857SOL    HW2 5628   2.536   2.676   2.566  1.2528 -0.3026  1.2636
 1858SOL     OW 5629   0.921   0.287   4.205 -0.2490  0.1332 -0.6987
 1858SOL    HW1 5630   0.944   0.215   4.263 -0.7391  1.5513  1.3785
 1858SOL    HW2 5631   0.989   0.287   4.138  1.4542 -0.4222  0.9492
 1859SOL     OW 5632   3.557   4.068   0.366 -0.4461 -0.1625 -0.1634
 1859SOL    HW1 5633   3.556   4.153   0.411  1.1931  1.4060 -2.8502
 1859SOL    HW2 5634   3.474   4.067   0.317 -0.7866 -0.4698  0.4026
 1860SOL     OW 5635   1.431   3.816   3.955 -0.0452  0.1716  0.3827
 1860SOL    HW1 5636   1.393   3.728   3.952  0.1844  0.0740  0.2202
 1860SOL    HW2 5637   1.521   3.803   3.925  0.4648  0.2174  1.8328
 1861SOL     OW 5638   1.310   4.834   2.096  0.4493  0.4237 -0.5530
 1861SOL    HW1 5639   1.259   4.906   2.133 -0.9128 -0.0662 -1.3916
 1861SOL    HW2 5640   1.360   4.799   2.169  0.2446  1.4719  0.1091
 1862SOL     OW 5641   4.166   2.592   3.712  0.5245  0.3220  0.0283
 1862SOL    HW1 5642   4.241   2.553   3.758  1.1311  0.5903 -0.7131
 1862SOL    HW2 5643   4.202   2.622   3.629 -0.7143 -0.8417 -0.9634
 1863SOL     OW 5644   4.778   1.253   2.203 -0.4229  0.3217 -0.4748
 1863SOL    HW1 5645   4.838   1.326   2.193  0.4193  0.1287  2.4655
 1863SOL    HW2 5646   4.711   1.284   2.264  0.5437 -1.5680  1.7123
 1864SOL     OW 5647   1.505   0.929   0.768 -0.3715 -0.5029  0.1176
 1864SOL    HW1 5648   1.428   0.901   0.816 -0.7220  1.0554  0.4878
 1864SOL    HW2 5649   1.475   1.000   0.711  0.6731 -0.2309 -0.1274
 1865SOL     OW 5650   2.988   0.430   0.392  0.1342  0.1299 -0.6937
 1865SOL    HW1 5651   2.982   0.371   0.467  0.2604 -0.2882 -1.0141
 1865SOL    HW2 5652   3.015   0.514   0.431 -1.6648  0.4496 -0.0165
 1866SOL     OW 5653   3.750   4.424   3.346  0.6963  0.5584  0.0947
 1866SOL    HW1 5654   3.716   4.428   3.257 -0.0749 -2.2450  0.1829
 1866SOL    HW2 5655   3.706   4.495   3.392 -1.7552 -0.2513 -0.8731
 1867SOL     OW 5656   4.717   2.047   0.372  0.0221 -0.6066  0.3491
 1867SOL    HW1 5657   4.803   2.027   0.412  0.3566 -2.7392 -1.2513
 1867SOL    HW2 5658   4.664   1.970   0.393 -2.5313  1.7658  3.6325
 1868SOL     OW 5659   1.959   1.621   1.818  0.7871  0.6584  0.8197
 1868SOL    HW1 5660   2.005   1.663   1.745  0.0184 -0.7643 -0.5465
 1868SOL    HW2 5661   1.873   1.664   1.819  0.4164 -0.0382  0.1678
 1869SOL     OW 5662   3.860   0.245   0.659 -0.6760 -0.0782 -0.2760
 1869SOL    HW1 5663   3.932   0.184   0.638  0.3185  0.7581  0.5898
 1869SOL    HW2 5664   3.782   0.189   0.662 -0.2376 -0.8820 -2.0869
 1870SOL     OW 5665   0.177   3.438   4.273 -0.0935 -0.4333  0.3323
 1870SOL    HW1 5666   0.102   3.434   4.332 -1.0119 -0.3608 -0.7720
 1870SOL    HW2 5667   0.147   3.391   4.194  0.0349  1.7974 -1.1434
 1871SOL     OW 5668   2.646   2.274   2.501  0.3111  0.2520  0.2508
 1871SOL    HW1 5669   2.663   2.355   2.453  1.5857 -0.7423 -1.0904
 1871SOL    HW2 5670   2.673   2.293   2.591  2.7022  0.7367 -0.4891
 1872SOL     OW 5671   1.637   3.168   0.750 -0.4102  0.0168 -0.3158
 1872SOL    HW1 5672   1.657   3.195   0.840 -1.5824 -1.2760  0.3559
 1872SOL    HW2 5673   1.626   3.251   0.703  1.4234  0.7341  0.4176
 1873SOL     OW 5674   1.420   0.729   1.201 -0.1156  0.5109  0.9957
 1873SOL    HW1 5675   1.454   0.815   1.176  0.6800  0.1587  0.8234
 1873SOL    HW2 5676   1.498   0.675   1.211 -0.6029 -0.1599  1.2310
 1874SOL     OW 5677   0.702   3.832   4.279  0.3260 -0.0853 -0.4264
 1874SOL    HW1 5678   0.675   3.919   4.308 -3.6239 -0.4500 -2.4068
 1874SOL    HW2 5679   0.714   3.840   4.184  1.4068 -1.4426 -0.4480
 1875SOL     OW 5680   3.415   3.914   0.768  0.4167 -0.2309  0.0889
 1875SOL    HW1 5681   3.433   3.879   0.681  0.7289 -1.3987  0.6012
 1875SOL    HW2 5682   3.460   3.854   0.828  0.4226  0.6990  1.0465
 1876SOL     OW 5683   1.920   2.912   2.361  0.2238  0.3647 -0.0727
 1876SOL    HW1 5684   1.895   2.978   2.425 -0.0139  0.5969 -0.4072
 1876SOL    HW2 5685   1.993   2.866   2.403 -0.6885 -0.2678  0.8712
 1877SOL     OW 5686   0.129   0.151   1.701 -0.4717 -0.0891 -0.2912
 1877SOL    HW1 5687   0.111   0.166   1.608 -0.0307 -1.8289 -0.6884
 1877SOL    HW2 5688   0.167   0.063   1.704  2.6269  1.1595  1.1362
 1878SOL     OW 5689   3.683   2.074   0.800  0.3333  0.1345 -0.2621
 1878SOL    HW1 5690   3.661   2.019   0.724 -1.0394  0.6085 -0.2225
 1878SOL    HW2 5691   3.768   2.040   0.829  1.5165  0.6860 -2.7157
 1879SOL     OW 5692   2.023   1.446   2.009  0.2051 -0.2979 -0.2198
 1879SOL    HW1 5693   1.996   1.364   1.969 -0.8015  0.7527 -1.8264
 1879SOL    HW2 5694   2.046   1.502   1.935  2.3642  0.4127  0.8912
 1880SOL     OW 5695   3.219   0.215   1.600 -0.0587 -0.4255 -0.4369
 1880SOL    HW1 5696   3.275   0.140   1.583 -0.4466 -0.5556 -1.1756
 1880SOL    HW2 5697   3.139   0.198   1.551 -0.0873  0.5450 -0.7545
 1881SOL     OW 5698   0.722   0.952   3.652  0.2185 -0.2122  0.0165
 1881SOL    HW1 5699   0.747   0.861   3.670  0.8803 -0.0524 -0.0485
 1881SOL    HW2 5700   0.627   0.953   3.658  0.2383 -0.8037  0.5133
 1882SOL     OW 5701   0.290   0.647   3.508 -0.2428  0.2465 -0.3361
 1882SOL    HW1 5702   0.318   0.556   3.495 -0.2042 -0.0024  1.2787
 1882SOL    HW2 5703   0.215   0.640   3.567 -0.6229  1.2369 -0.6889
 1883SOL     OW 5704   3.145   2.892   0.433  0.1036 -0.2472 -0.1902
 1883SOL    HW1 5705   3.231   2.933   0.421 -0.0700  0.0287 -0.5443
 1883SOL    HW2 5706   3.125   2.855   0.347  0.2950 -1.1607  0.1533
 1884SOL     OW 5707   0.212   0.855   0.671 -0.3677  0.3496  1.0500
 1884SOL    HW1 5708   0.237   0.767   0.700  0.6495 -0.4897 -1.9296
 1884SOL    HW2 5709   0.120   0.848   0.649 -0.1845 -0.1210  0.4074
 1885SOL     OW 5710   1.086   3.845   4.341 -0.3552  0.6679 -0.7031
 1885SOL    HW1 5711   1.166   3.858   4.393 -0.9908  2.3474 -0.0978
 1885SOL    HW2 5712   1.036   3.780   4.391  1.2926 -1.7009 -1.9355
 1886SOL     OW 5713   2.641   1.363   2.861 -0.4544  0.5310 -0.1475
 1886SOL    HW1 5714   2.707   1.295   2.849 -1.9871 -0.8884 -1.0684
 1886SOL    HW2 5715   2.680   1.441   2.823  0.4842 -0.4159 -1.2175
 1887SOL     OW 5716   3.601   0.210   2.726 -0.0153  0.1685  0.5228
 1887SOL    HW1 5717   3.623   0.303   2.725 -0.2224  0.2154  0.4641
 1887SOL    HW2 5718   3.570   0.194   2.815 -0.3777  0.2457  0.4108
 1888SOL     OW 5719   1.969   4.692   4.724 -0.6680  0.2122  0.0384
 1888SOL    HW1 5720   1.999   4.735   4.644 -0.0739 -0.7867 -0.2937
 1888SOL    HW2 5721   2.020   4.611   4.728 -1.5566 -0.3292  0.7856
 1889SOL     OW 5722   0.682   3.081   3.829 -0.5096 -0.1480  0.0641
 1889SOL    HW1 5723   0.670   3.063   3.736  0.9805  0.0446 -0.1926
 1889SOL    HW2 5724   0.716   3.171   3.832 -0.3717 -0.2155  0.7804
 1890SOL     OW 5725   2.336   2.503   3.769  0.2291  0.1163  0.1133
 1890SOL    HW1 5726   2.319   2.480   3.860  2.8008 -0.6421  0.4621
 1890SOL    HW2 5727   2.423   2.544   3.770  1.5492 -2.3135 -2.2967
 1891SOL     OW 5728   4.744   1.246   2.794  0.2486 -0.5430  0.1968
 1891SOL    HW1 5729   4.780   1.187   2.860  0.8174 -1.0427 -0.5471
 1891SOL    HW2 5730   4.767   1.333   2.825  0.1370 -0.7436  0.8705
 1892SOL     OW 5731   0.528   4.085   1.417  0.0155 -0.7782  0.0404
 1892SOL    HW1 5732   0.456   4.060   1.358 -3.1554  3.6834  1.5159
 1892SOL    HW2 5733   0.488   4.090   1.503  2.3741  0.8929  1.1369
 1893SOL     OW 5734   0.811   1.694   0.072  0.1476 -0.4449  0.0358
 1893SOL    HW1 5735   0.743   1.690   0.140 -0.4264  1.9506 -0.3157
 1893SOL    HW2 5736   0.763   1.688  -0.011  0.5791 -0.8080 -0.1912
 1894SOL     OW 5737   1.271   3.007   2.598 -0.0069  0.0787  0.6490
 1894SOL    HW1 5738   1.278   2.973   2.687 -0.5388  1.2510  1.1526
 1894SOL    HW2 5739   1.309   3.095   2.602  1.2887 -0.3733 -0.6228
 1895SOL     OW 5740   3.199   2.869   3.222  0.1704 -0.3189  0.4029
 1895SOL    HW1 5741   3.206   2.787   3.173 -0.1730  0.2886 -0.7075
 1895SOL    HW2 5742   3.116   2.907   3.192  1.3397  1.4437 -0.7234
 1896SOL     OW 5743   4.498   1.785   3.844 -0.4577  0.5782 -0.4680
 1896SOL    HW1 5744   4.469   1.705   3.887 -0.8523 -1.3725 -3.9697
 1896SOL    HW2 5745   4.592   1.788   3.860 -0.4741 -0.4696 -0.0834
 1897SOL     OW 5746   3.420   1.898   2.452 -0.0292  0.0112 -0.1253
 1897SOL    HW1 5747   3.432   1.848   2.372  0.8644  2.2085 -1.4533
 1897SOL    HW2 5748   3.508   1.908   2.487 -0.2471  0.2695  0.3595
 1898SOL     OW 5749   4.382   4.641   1.459  0.1150  0.1512  0.5491
 1898SOL    HW1 5750   4.341   4.593   1.532  1.6780 -1.7422  0.2719
 1898SOL    HW2 5751   4.435   4.575   1.414  2.6645  2.1908  0.3133
 1899SOL     OW 5752   1.337   4.913   1.837 -0.4486  0.6155 -0.1860
 1899SOL    HW1 5753   1.335   4.889   1.930  0.2515  0.3637 -0.2340
 1899SOL    HW2 5754   1.346   4.830   1.791 -3.5782  0.4137 -0.6578
 1900SOL     OW 5755   3.802   4.166   1.754 -0.2303  0.3847 -0.2499
 1900SOL    HW1 5756   3.768   4.233   1.695  0.6666  2.1519  1.1713
 1900SOL    HW2 5757   3.727   4.142   1.809  0.1457  2.6952  1.4263
 1901SOL     OW 5758   3.444   4.595   2.922  0.4858  0.5861  0.1933
 1901SOL    HW1 5759   3.506   4.544   2.973 -0.1298  0.2630  0.6408
 1901SOL    HW2 5760   3.430   4.675   2.974 -2.4167 -1.0159  2.1692
 1902SOL     OW 5761   1.171   4.116   2.065  0.0655 -0.3002 -0.0360
 1902SOL    HW1 5762   1.183   4.021   2.069  0.4902 -0.2744 -0.5698
 1902SOL    HW2 5763   1.247   4.148   2.016 -0.4095  0.2456 -0.4382
 1903SOL     OW 5764   2.585   2.744   1.033 -0.4204 -0.1365  0.8022
 1903SOL    HW1 5765   2.643   2.709   1.100  2.6703  0.1625 -1.5259
 1903SOL    HW2 5766   2.638   2.748   0.954 -2.7645  2.9381 -0.8431
 1904SOL     OW 5767   1.863   4.022   4.038 -0.0769 -0.5482  0.2393
 1904SOL    HW1 5768   1.943   4.035   3.987 -1.3161 -1.1495 -2.0215
 1904SOL    HW2 5769   1.879   3.944   4.090  0.3336 -1.5638 -1.3295
 1905SOL     OW 5770   3.668   3.562   2.056  0.1096 -0.5325 -0.4283
 1905SOL    HW1 5771   3.635   3.631   1.999  0.3035 -1.1019 -1.2384
 1905SOL    HW2 5772   3.656   3.597   2.145  4.0563  2.4010 -0.7926
 1906SOL     OW 5773   2.007   1.171   1.879 -0.4463  0.2238 -0.4107
 1906SOL    HW1 5774   1.989   1.080   1.857 -0.1333  0.4455 -1.7084
 1906SOL    HW2 5775   1.920   1.213   1.880 -0.6378 -0.1823  0.7121
 1907SOL     OW 5776   2.318   2.066   4.831 -0.3661 -0.2178  0.0815
 1907SOL    HW1 5777   2.233   2.109   4.825  0.2058  1.0964  0.8643
 1907SOL    HW2 5778   2.301   1.988   4.884 -1.3426 -0.7624 -0.9892
 1908SOL     OW 5779   2.413   3.676   3.532 -0.9010  0.2501  0.2461
 1908SOL    HW1 5780   2.347   3.743   3.549  0.2270  1.7988 -1.0949
 1908SOL    HW2 5781   2.467   3.673   3.610 -0.7256  1.2143  0.1633
 1909SOL     OW 5782   3.554   2.552   4.845  0.0240 -0.3944 -0.2879
 1909SOL    HW1 5783   3.628   2.612   4.841 -1.1767  1.1820  0.1792
 1909SOL    HW2 5784   3.498   2.577   4.771  1.1176 -3.2679 -2.2350
 1910SOL     OW 5785   3.602   4.901   2.196 -0.3879  0.4850  0.0856
 1910SOL    HW1 5786   3.683   4.932   2.158 -0.3260  0.2776  0.0441
 1910SOL    HW2 5787   3.592   4.812   2.162 -1.1268  0.8480 -0.6775
 1911SOL     OW 5788   4.910   4.303   2.371 -0.4696 -0.3396  0.7221
 1911SOL    HW1 5789   4.875   4.375   2.423 -0.2504  0.0453  0.3577
 1911SOL    HW2 5790   4.996   4.336   2.341 -0.4322 -0.6926  0.4332
 1912SOL     OW 5791   3.841   0.928   3.713 -1.3005  0.8211 -0.5320
 1912SOL    HW1 5792   3.818   1.020   3.699 -1.2593  1.3567  2.3397
 1912SOL    HW2 5793   3.861   0.922   3.806  2.5683 -1.2765 -1.2636
 1913SOL     OW 5794   0.452   3.035   1.626  0.4360 -0.0995 -0.0815
 1913SOL    HW1 5795   0.384   2.972   1.652  0.2679 -0.3561 -1.0975
 1913SOL    HW2 5796   0.534   2.994   1.652  0.2618 -0.2576  0.2219
 1914SOL     OW 5797   0.523   3.184   2.614 -0.0821 -0.1371 -0.0107
 1914SOL    HW1 5798   0.489   3.095   2.623  1.5488 -0.7502  0.4562
 1914SOL    HW2 5799   0.581   3.180   2.538  1.1193  0.1413  0.8651
 1915SOL     OW 5800   3.374   0.057   2.076  0.0017  0.0417  0.2234
 1915SOL    HW1 5801   3.448   0.013   2.118  1.5232 -0.4382 -2.6431
 1915SOL    HW2 5802   3.300  -0.001   2.091  0.7726 -0.7602  1.0545
 1916SOL     OW 5803   3.822   2.470   2.353 -0.2989 -0.0968  0.2419
 1916SOL    HW1 5804   3.861   2.546   2.309 -0.9196 -0.6181 -1.2903
 1916SOL    HW2 5805   3.838   2.485   2.446  0.1648  1.5810 -0.0726
 1917SOL     OW 5806   0.982   1.270   1.248 -0.1612  0.6783 -0.4807
 1917SOL    HW1 5807   0.990   1.208   1.176 -0.9476  0.7520 -0.6358
 1917SOL    HW2 5808   1.011   1.221   1.325  0.5237  0.5481 -0.8041
 1918SOL     OW 5809   4.960   0.687   0.655  0.1536 -0.2710 -0.1066
 1918SOL    HW1 5810   4.968   0.638   0.573 -1.3787 -0.7556  0.0006
 1918SOL    HW2 5811   4.967   0.621   0.724 -2.0105 -0.4442  0.0349
 1919SOL     OW 5812   1.963   2.053   4.327  0.6232 -0.3710 -0.2989
 1919SOL    HW1 5813   2.042   2.001   4.311 -0.1509 -1.2993 -1.2292
 1919SOL    HW2 5814   1.988   2.142   4.302  0.9821 -0.9065 -2.0140
 1920SOL     OW 5815   1.752   4.446   3.337  0.5460 -0.6500 -0.0234
 1920SOL    HW1 5816   1.674   4.419   3.384 -2.0314  2.2350 -2.2435
 1920SOL    HW2 5817   1.743   4.408   3.250  0.5424  1.2260 -0.9043
 1921SOL     OW 5818   0.894   0.581   4.617  0.1923  0.0730 -0.3088
 1921SOL    HW1 5819   0.874   0.519   4.687 -1.3456 -1.0583 -1.6800
 1921SOL    HW2 5820   0.851   0.662   4.644  2.2191  0.6466  1.4964
 1922SOL     OW 5821   1.500   2.005   1.169  0.3432 -0.0892 -0.4145
 1922SOL    HW1 5822   1.588   2.033   1.145  0.3965 -1.1373 -1.5203
 1922SOL    HW2 5823   1.459   1.979   1.086 -0.2901 -1.5687  0.3196
 1923SOL     OW 5824   0.551   1.721   0.230  0.0073 -0.8263  0.1346
 1923SOL    HW1 5825   0.487   1.764   0.173  1.5375  0.8052 -0.4778
 1923SOL    HW2 5826   0.531   1.628   0.224 -1.8169 -0.4242 -0.5958
 1924SOL     OW 5827   0.344   1.938   4.461  0.3902  0.3216 -0.3108
 1924SOL    HW1 5828   0.426   1.890   4.448  0.7353  0.9850 -0.6614
 1924SOL    HW2 5829   0.275   1.875   4.440  0.8055 -0.2932  0.1403
 1925SOL     OW 5830   1.178   0.790   3.445  0.2045  1.0512  0.1461
 1925SOL    HW1 5831   1.210   0.700   3.444 -0.9280  0.6040  1.4101
 1925SOL    HW2 5832   1.103   0.790   3.387  0.2549  1.1988  0.0807
 1926SOL     OW 5833   1.184   2.364   4.598  0.6491 -0.0736 -0.4007
 1926SOL    HW1 5834   1.098   2.343   4.633  1.1581 -0.7664  0.4831
 1926SOL    HW2 5835   1.207   2.289   4.544 -0.0116  0.8659 -2.0565
 1927SOL     OW 5836   2.617   3.213   4.481 -0.0846  0.5914 -0.0996
 1927SOL    HW1 5837   2.677   3.257   4.422  1.3708 -2.3397 -0.9806
 1927SOL    HW2 5838   2.533   3.215   4.436  0.5612  0.1421 -1.3554
 1928SOL     OW 5839   3.547   0.374   1.207  0.0266  0.1084  0.2075
 1928SOL    HW1 5840   3.506   0.289   1.192  0.7493  0.1080 -2.2124
 1928SOL    HW2 5841   3.475   0.436   1.210 -0.3848 -0.3659  0.2046
 1929SOL     OW 5842   4.500   4.893   2.100  0.4001 -0.1006  0.2707
 1929SOL    HW1 5843   4.526   4.817   2.048 -1.0581 -0.6657  0.3089
 1929SOL    HW2 5844   4.428   4.932   2.050  1.7001  1.8266 -0.2189
 1930SOL     OW 5845   0.741   3.385   2.618 -0.1877 -0.0830  0.0630
 1930SOL    HW1 5846   0.792   3.306   2.636 -2.0509 -1.3880 -0.0388
 1930SOL    HW2 5847   0.718   3.420   2.704  2.4638  1.7093  0.1631
 1931SOL     OW 5848   0.084   1.321   1.393 -0.1257  0.0982  0.2410
 1931SOL    HW1 5849   0.164   1.271   1.377 -0.4461 -0.6612  0.9118
 1931SOL    HW2 5850   0.077   1.326   1.488 -1.5024 -0.9408  0.2404
 1932SOL     OW 5851   0.020   4.537   4.883  0.7641  0.1385  0.0754
 1932SOL    HW1 5852  -0.007   4.486   4.807 -1.0737 -1.8534  1.9144
 1932SOL    HW2 5853   0.002   4.628   4.859  0.7924 -0.3573 -2.0371
 1933SOL     OW 5854   2.369   0.639   0.894  0.6697  0.2341  0.1244
 1933SOL    HW1 5855   2.386   0.602   0.980 -0.2485  1.2141  0.7508
 1933SOL    HW2 5856   2.274   0.649   0.890  0.4416 -1.8450 -1.9004
 1934SOL     OW 5857   3.257   1.243   0.209  0.0886  0.3237 -0.5095
 1934SOL    HW1 5858   3.172   1.279   0.236  0.8717  1.8195  0.0386
 1934SOL    HW2 5859   3.321   1.308   0.238  1.5050 -1.1449 -0.2168
 1935SOL     OW 5860   4.004   3.631   3.572 -0.3973 -0.0381 -0.5642
 1935SOL    HW1 5861   4.094   3.663   3.579 -0.2304  0.2824 -3.1116
 1935SOL    HW2 5862   3.996   3.567   3.642  0.7949  2.0646  1.6747
 1936SOL     OW 5863   4.506   0.224   0.708  0.1856  0.8595  0.0511
 1936SOL    HW1 5864   4.568   0.294   0.684 -0.6010  1.5573 -0.0049
 1936SOL    HW2 5865   4.420   0.261   0.688 -0.2938  0.1603  0.7784
 1937SOL     OW 5866   4.009   4.738   4.344  0.6395  0.1376 -0.7039
 1937SOL    HW1 5867   4.051   4.653   4.357  1.8362  0.5642 -1.5186
 1937SOL    HW2 5868   4.072   4.801   4.378 -0.1578  0.7170 -0.2739
 1938SOL     OW 5869   2.967   0.546   4.463 -0.8340 -0.4115 -0.2143
 1938SOL    HW1 5870   2.976   0.639   4.484 -0.7726 -0.3807 -0.3711
 1938SOL    HW2 5871   2.947   0.504   4.546 -0.5365 -0.3020 -0.0883
 1939SOL     OW 5872   0.374   1.885   0.047  0.4173  0.6678  0.2302
 1939SOL    HW1 5873   0.393   1.918  -0.041 -0.4457 -1.2854 -0.7452
 1939SOL    HW2 5874   0.329   1.802   0.032  0.9754 -0.1101  2.5308
 1940SOL     OW 5875   3.272   0.595   3.399 -0.3792  0.3375  0.1785
 1940SOL    HW1 5876   3.282   0.550   3.483  0.4908 -0.0049 -0.0928
 1940SOL    HW2 5877   3.245   0.684   3.422  0.4561  0.4251  0.8584
 1941SOL     OW 5878   1.027   0.320   3.950 -0.0277 -0.2939  0.1386
 1941SOL    HW1 5879   1.082   0.268   3.892  0.6628 -0.3133  0.7843
 1941SOL    HW2 5880   1.011   0.401   3.902  2.1450  0.5083  0.6315
 1942SOL     OW 5881   3.093   1.304   1.949  0.1167 -0.0341  0.3458
 1942SOL    HW1 5882   3.076   1.341   1.863 -2.1822  0.4398  0.9322
 1942SOL    HW2 5883   3.046   1.220   1.950  0.8729 -0.4736  0.8452
 1943SOL     OW 5884   4.006   3.072   1.077 -0.1568 -0.2396 -0.1896
 1943SOL    HW1 5885   3.994   3.131   1.151  0.8175 -1.6307  1.1306
 1943SOL    HW2 5886   3.936   3.008   1.085  0.4590 -0.8980  0.0568
 1944SOL     OW 5887   2.581   3.636   2.639 -0.0816 -0.1157  0.1485
 1944SOL    HW1 5888   2.505   3.695   2.640  0.3878  0.5489 -1.1585
 1944SOL    HW2 5889   2.638   3.671   2.571  1.0447 -1.0720  0.5612
 1945SOL     OW 5890   0.790   2.711   1.447  0.5603 -0.4182 -0.7302
 1945SOL    HW1 5891   0.829   2.645   1.389  0.2262 -0.7621 -0.5674
 1945SOL    HW2 5892   0.753   2.661   1.519  0.2110 -0.0573 -0.6551
 1946SOL     OW 5893   3.946   2.474   4.523 -0.2312 -0.2721  0.4615
 1946SOL    HW1 5894   3.924   2.442   4.610 -0.6094 -0.0153  0.4635
 1946SOL    HW2 5895   3.895   2.554   4.513  1.2106  0.7166  0.7072
 1947SOL     OW 5896   2.181   2.598   2.189  0.7184  0.0980  0.2930
 1947SOL    HW1 5897   2.198   2.508   2.216  1.2210  0.5118  1.4396
 1947SOL    HW2 5898   2.210   2.602   2.098  0.3722 -0.9706  0.1180
 1948SOL     OW 5899   1.998   2.565   4.322  0.1162  0.1249  0.0459
 1948SOL    HW1 5900   1.947   2.487   4.345  0.9555 -0.3313  0.4081
 1948SOL    HW2 5901   2.015   2.556   4.229  1.4090 -0.8801  0.3451
 1949SOL     OW 5902   1.472   0.712   2.578 -0.0475 -0.5038 -0.3229
 1949SOL    HW1 5903   1.454   0.673   2.492 -0.5735  0.9625 -0.9120
 1949SOL    HW2 5904   1.387   0.744   2.608  0.3165 -0.0570  0.2625
 1950SOL     OW 5905   2.238   0.067   2.180  0.1571 -0.1004  0.5835
 1950SOL    HW1 5906   2.226   0.159   2.203  0.5458  0.2725 -0.6481
 1950SOL    HW2 5907   2.332   0.051   2.194  0.6573  0.4583 -1.7258
 1951SOL     OW 5908   4.281   2.704   0.756 -0.2459  0.0133  0.2828
 1951SOL    HW1 5909   4.322   2.681   0.839 -1.7359 -1.0162  0.7749
 1951SOL    HW2 5910   4.308   2.794   0.740  1.2207 -0.2316  1.1477
 1952SOL     OW 5911   0.613   2.235   3.577 -0.0075 -0.2200  0.8665
 1952SOL    HW1 5912   0.667   2.270   3.648 -0.4433  1.1160  0.5720
 1952SOL    HW2 5913   0.669   2.243   3.499  0.5080 -1.7755  1.0358
 1953SOL     OW 5914   3.405   3.343   2.738 -0.4306 -0.1774 -0.8731
 1953SOL    HW1 5915   3.387   3.429   2.701 -1.4439  0.1815  0.3580
 1953SOL    HW2 5916   3.343   3.335   2.811  2.2918 -0.2454  1.6346
 1954SOL     OW 5917   2.005   4.336   4.979  0.0794 -0.1015  0.5365
 1954SOL    HW1 5918   1.912   4.354   4.990 -0.5806 -1.5180 -2.0232
 1954SOL    HW2 5919   2.019   4.253   5.026  0.1180  0.2057  1.0779
 1955SOL     OW 5920   3.940   3.792   4.284  0.1944  0.2217  0.4440
 1955SOL    HW1 5921   3.910   3.707   4.250 -1.7481  1.0209  0.0031
 1955SOL    HW2 5922   4.023   3.808   4.239  0.8772 -1.6524  0.9259
 1956SOL     OW 5923   0.175   4.093   1.938 -0.1996  0.5924 -0.1363
 1956SOL    HW1 5924   0.089   4.052   1.946 -0.5836  1.3173 -0.4253
 1956SOL    HW2 5925   0.229   4.050   2.003 -1.1342  1.0219  0.9534
 1957SOL     OW 5926   4.248   3.030   0.926 -0.2315  0.0704  0.2946
 1957SOL    HW1 5927   4.163   3.058   0.961 -0.4482  0.9970 -0.8794
 1957SOL    HW2 5928   4.310   3.096   0.957  0.1118 -0.7248  1.3291
 1958SOL     OW 5929   1.839   4.054   3.069 -0.2570 -0.1411 -0.4137
 1958SOL    HW1 5930   1.779   3.982   3.046  0.6191 -1.4761  1.2655
 1958SOL    HW2 5931   1.879   4.079   2.985 -1.1749 -1.0502 -1.1573
 1959SOL     OW 5932   0.847   2.719   0.913  0.1573 -0.3442 -0.7010
 1959SOL    HW1 5933   0.875   2.642   0.962  1.0293  0.0260 -0.6016
 1959SOL    HW2 5934   0.899   2.791   0.948  1.3735 -0.1947 -2.6332
 1960SOL     OW 5935   1.063   1.626   2.569 -0.0274 -0.5144 -0.0809
 1960SOL    HW1 5936   1.132   1.691   2.561  0.2366 -1.0113 -2.3889
 1960SOL    HW2 5937   1.001   1.665   2.631  0.2136  1.8654 -1.2372
 1961SOL     OW 5938   3.907   0.677   0.808 -0.5090  0.3230 -0.1918
 1961SOL    HW1 5939   3.839   0.725   0.856 -1.1895  0.8955 -1.6810
 1961SOL    HW2 5940   3.907   0.716   0.721  0.1872 -1.1884 -0.8961
 1962SOL     OW 5941   3.424   1.476   2.256  0.7163 -0.6577  0.6396
 1962SOL    HW1 5942   3.356   1.409   2.245  0.9875 -0.6565 -1.1827
 1962SOL    HW2 5943   3.501   1.427   2.285  0.6600 -1.0130  0.1966
 1963SOL     OW 5944   4.138   1.602   1.503  0.2694  0.4012  0.0071
 1963SOL    HW1 5945   4.101   1.547   1.434 -1.2154  1.0592  0.2158
 1963SOL    HW2 5946   4.226   1.623   1.473  1.3650 -2.9924  0.4651
 1964SOL     OW 5947   0.690   0.794   0.633  0.4476  0.5183 -0.0713
 1964SOL    HW1 5948   0.652   0.876   0.601  1.5484  1.0191 -0.1526
 1964SOL    HW2 5949   0.652   0.782   0.720  0.3306  1.1642 -0.0271
 1965SOL     OW 5950   0.389   2.718   2.074 -0.5307  0.1937 -0.1068
 1965SOL    HW1 5951   0.337   2.691   1.998 -2.5660  0.2552  1.1848
 1965SOL    HW2 5952   0.447   2.787   2.041 -2.0477  0.9076 -1.4069
 1966SOL     OW 5953   1.681   3.887   2.586  0.4141 -0.1496  0.2623
 1966SOL    HW1 5954   1.740   3.815   2.607 -0.2280 -0.9642 -0.6692
 1966SOL    HW2 5955   1.601   3.845   2.554 -0.2449  0.9609  0.4024
 1967SOL     OW 5956   2.836   3.850   1.726  0.4548  0.2916  0.0492
 1967SOL    HW1 5957   2.782   3.830   1.650 -1.0874  3.9208 -0.0045
 1967SOL    HW2 5958   2.811   3.784   1.791 -1.9609  0.1430 -0.9334
 1968SOL     OW 5959   1.778   4.810   3.989 -0.3167  1.0378 -0.1222
 1968SOL    HW1 5960   1.743   4.892   3.956 -1.1073  0.5651 -0.4936
 1968SOL    HW2 5961   1.701   4.754   4.002  0.1276  0.6663  0.9965
 1969SOL     OW 5962   4.035   3.012   4.973  0.1405  0.4467  0.1230
 1969SOL    HW1 5963   4.103   3.017   5.040  0.5108  0.2264 -0.2317
 1969SOL    HW2 5964   4.083   3.022   4.890 -0.1512 -0.5383 -0.1719
 1970SOL     OW 5965   2.469   0.425   4.752 -0.3149  0.0403  0.5431
 1970SOL    HW1 5966   2.391   0.390   4.708  0.3991  0.1772 -0.9061
 1970SOL    HW2 5967   2.510   0.348   4.793 -1.5937  0.0934  1.9943
 1971SOL     OW 5968   0.047   3.891   1.621 -0.2602 -0.1526 -0.1268
 1971SOL    HW1 5969  -0.021   3.838   1.664  0.6692 -1.7786 -0.5630
 1971SOL    HW2 5970  -0.001   3.962   1.579 -1.6195 -0.8862  0.1100
 1972SOL     OW 5971   2.289   0.097   1.534 -0.4350 -0.4889  0.6580
 1972SOL    HW1 5972   2.258   0.161   1.471 -0.0198  0.1769  1.1202
 1972SOL    HW2 5973   2.228   0.104   1.608 -0.8331 -1.1629  0.4073
 1973SOL     OW 5974   2.413   2.861   4.590 -0.3199 -0.0624 -0.9072
 1973SOL    HW1 5975   2.431   2.862   4.496 -0.8804  1.7544 -1.0307
 1973SOL    HW2 5976   2.326   2.899   4.599 -0.8998 -1.5446  0.2657
 1974SOL     OW 5977   2.380   0.997   0.947  0.1392 -0.4013 -0.5652
 1974SOL    HW1 5978   2.391   1.000   1.042 -0.0760  1.1948 -0.5682
 1974SOL    HW2 5979   2.292   0.960   0.934 -0.1655  0.1520 -0.1042
 1975SOL     OW 5980   1.587   2.687   3.467 -0.3704  0.4332 -0.3031
 1975SOL    HW1 5981   1.616   2.619   3.407  0.2770 -0.5307  1.0523
 1975SOL    HW2 5982   1.494   2.670   3.481 -0.9745  1.6963 -2.2883
 1976SOL     OW 5983   3.488   4.736   0.030 -0.2951 -0.1763  0.7128
 1976SOL    HW1 5984   3.516   4.673  -0.036  0.6342  1.4196 -0.4841
 1976SOL    HW2 5985   3.570   4.764   0.072 -0.6183  0.7193  0.7629
 1977SOL     OW 5986   3.882   3.293   2.496 -0.7471 -0.3615  0.0360
 1977SOL    HW1 5987   3.814   3.246   2.543 -2.3534  1.2367 -0.5550
 1977SOL    HW2 5988   3.923   3.348   2.563 -0.2098 -1.1077  0.3345
 1978SOL     OW 5989   2.856   1.606   4.558  0.0070  0.4150  0.0067
 1978SOL    HW1 5990   2.857   1.694   4.520  0.2614 -0.7298 -2.9033
 1978SOL    HW2 5991   2.933   1.563   4.520  1.0019 -0.5787  2.8326
 1979SOL     OW 5992   4.206   4.857   4.530  0.3554 -0.2916  0.1224
 1979SOL    HW1 5993   4.261   4.898   4.597 -0.6596  1.0194  0.1929
 1979SOL    HW2 5994   4.250   4.876   4.448 -0.1922  1.1372  0.1396
 1980SOL     OW 5995   2.224   1.615   4.349  0.8248  0.6121 -0.0263
 1980SOL    HW1 5996   2.190   1.621   4.260  1.0518  0.3862 -0.1306
 1980SOL    HW2 5997   2.285   1.541   4.346 -0.7681 -0.7921  0.8284
 1981SOL     OW 5998   1.883   3.206   4.600 -0.4110 -0.3594  0.3730
 1981SOL    HW1 5999   1.889   3.176   4.691 -1.4701 -1.4742  0.1090
 1981SOL    HW2 6000   1.794   3.183   4.573  0.2234 -1.0381 -1.2808
 1982SOL     OW 6001   3.031   0.603   1.337  0.3860  0.0116 -0.1747
 1982SOL    HW1 6002   3.044   0.548   1.260  1.1549 -1.5268  0.9855
 1982SOL    HW2 6003   3.016   0.541   1.408  0.6132  1.3332  1.0734
 1983SOL     OW 6004   2.597   2.303   3.776  0.3120 -0.1772 -0.7753
 1983SOL    HW1 6005   2.638   2.276   3.858  2.5967  1.3009 -1.3163
 1983SOL    HW2 6006   2.592   2.399   3.783  0.1453 -0.0681 -2.1595
 1984SOL     OW 6007   0.255   2.373   2.553 -0.1603  0.0228  0.1939
 1984SOL    HW1 6008   0.297   2.445   2.507  1.3169 -0.7369  0.3060
 1984SOL    HW2 6009   0.316   2.351   2.623  0.7602 -3.0513 -1.4129
 1985SOL     OW 6010   2.255   2.438   1.624 -0.1801 -0.4819  0.6621
 1985SOL    HW1 6011   2.274   2.435   1.718  0.4103  2.7513  0.7640
 1985SOL    HW2 6012   2.317   2.376   1.586 -0.1100 -1.5230  2.3677
 1986SOL     OW 6013   3.064   1.046   0.499  0.5350  0.1887  0.0391
 1986SOL    HW1 6014   2.973   1.065   0.524  0.6953 -1.7258  2.3602
 1986SOL    HW2 6015   3.056   0.987   0.424 -0.0782  1.3172 -0.8120
 1987SOL     OW 6016   3.650   3.239   2.620  0.0728  0.1545 -0.4128
 1987SOL    HW1 6017   3.609   3.286   2.692 -0.4027 -1.6251  0.5377
 1987SOL    HW2 6018   3.581   3.183   2.585  0.8018 -0.4319 -0.9595
 1988SOL     OW 6019   4.586   0.397   0.169 -0.1600  0.5942 -0.6700
 1988SOL    HW1 6020   4.549   0.406   0.256 -1.1448  0.0330 -1.0110
 1988SOL    HW2 6021   4.551   0.471   0.120 -1.0039 -0.0278 -1.0376
 1989SOL     OW 6022   3.447   1.080   2.338  0.0816  0.2922  0.1567
 1989SOL    HW1 6023   3.370   1.051   2.387 -0.3212  0.2230 -0.5013
 1989SOL    HW2 6024   3.455   1.017   2.266  0.3890  0.6530 -0.1327
 1990SOL     OW 6025   2.881   1.771   3.510  0.2411 -0.1188 -0.1596
 1990SOL    HW1 6026   2.925   1.853   3.488  0.3676 -0.7004 -2.3486
 1990SOL    HW2 6027   2.800   1.773   3.458  1.3160 -2.3048 -2.1198
 1991SOL     OW 6028   3.615   1.631   1.033  0.4668 -0.1375  0.1437
 1991SOL    HW1 6029   3.703   1.648   1.066 -0.1970  1.6071  1.1926
 1991SOL    HW2 6030   3.564   1.707   1.063 -1.7368 -1.8109  0.9106
 1992SOL     OW 6031   3.300   4.194   3.955 -0.3297  0.3657  0.0228
 1992SOL    HW1 6032   3.359   4.161   4.023 -0.2282 -1.4992 -0.8863
 1992SOL    HW2 6033   3.349   4.264   3.913  0.5246  0.0213  0.4160
 1993SOL     OW 6034   4.712   1.740   2.054 -0.0051 -0.5918  0.1167
 1993SOL    HW1 6035   4.793   1.739   2.106 -0.6709  0.9593  1.2645
 1993SOL    HW2 6036   4.739   1.775   1.969  0.5260 -0.0431  0.5001
 1994SOL     OW 6037   2.900   4.267   2.640 -0.0745  0.4035  0.0494
 1994SOL    HW1 6038   2.987   4.301   2.618  0.0037  0.2498  0.1215
 1994SOL    HW2 6039   2.915   4.209   2.715 -0.2383  0.3688  0.0562
 1995SOL     OW 6040   0.071   2.705   4.351  0.2446 -0.3542 -0.0552
 1995SOL    HW1 6041   0.013   2.700   4.275 -0.3911  0.3404  0.3536
 1995SOL    HW2 6042   0.159   2.690   4.317 -0.2893 -2.8338 -0.4870
 1996SOL     OW 6043   0.244   1.015   4.064 -0.5749  0.2130  0.2611
 1996SOL    HW1 6044   0.240   0.997   3.970 -1.0533  0.5090  0.2240
 1996SOL    HW2 6045   0.284   0.936   4.101 -1.6019 -0.4703 -0.0386
 1997SOL     OW 6046   1.183   1.964   1.802 -0.4715  0.6158 -0.4292
 1997SOL    HW1 6047   1.144   1.878   1.816 -0.6165  0.8812  0.9463
 1997SOL    HW2 6048   1.110   2.025   1.806 -0.0499  1.0710  1.7397
 1998SOL     OW 6049   1.575   3.834   1.359  0.1724 -0.1678  0.3399
 1998SOL    HW1 6050   1.601   3.828   1.267 -1.5706 -1.0092 -0.1425
 1998SOL    HW2 6051   1.553   3.926   1.372  2.3455  0.3780  0.5156
 1999SOL     OW 6052   0.031   4.662   0.823 -0.2477  0.6692 -0.4533
 1999SOL    HW1 6053   0.034   4.566   0.825 -0.5604  0.6266 -1.5174
 1999SOL    HW2 6054   0.104   4.687   0.765 -0.4627  1.0506 -0.5623
 2000SOL     OW 6055   2.552   3.441   4.248  0.4565  0.1801  0.7173
 2000SOL    HW1 6056   2.588   3.523   4.213 -0.0083  0.4982  0.9683
 2000SOL    HW2 6057   2.511   3.467   4.330  0.6640 -0.3837  0.9993
 2001SOL     OW 6058   3.944   0.271   1.182 -0.1418 -0.3098  0.1970
 2001SOL    HW1 6059   4.010   0.316   1.129  0.8227 -0.2323  1.4159
 2001SOL    HW2 6060   3.881   0.339   1.205 -0.6999 -0.3930 -1.0074
 2002SOL     OW 6061   2.264   1.079   3.454  0.5611 -0.0518  0.1198
 2002SOL    HW1 6062   2.346   1.068   3.406  0.3832 -0.5691 -0.0727
 2002SOL    HW2 6063   2.219   0.995   3.444 -0.1384  0.3403 -0.0562
 2003SOL     OW 6064   4.125   3.149   0.472  0.4020 -0.5761 -0.4121
 2003SOL    HW1 6065   4.062   3.080   0.449  1.4586 -0.7804 -3.0121
 2003SOL    HW2 6066   4.198   3.103   0.513 -1.1459 -0.2947  3.0378
 2004SOL     OW 6067   4.403   3.907   3.766  0.4520  0.5200  0.6566
 2004SOL    HW1 6068   4.495   3.893   3.745  0.3577 -0.8199  1.0540
 2004SOL    HW2 6069   4.404   3.959   3.846  0.8920 -0.3790  1.2504
 2005SOL     OW 6070   4.977   3.064   0.172 -0.0191 -0.3343  0.0312
 2005SOL    HW1 6071   4.915   3.035   0.105  0.2260  2.0734 -1.3415
 2005SOL    HW2 6072   5.063   3.037   0.139  0.2105  1.7775 -1.2535
 2006SOL     OW 6073   1.538   2.214   2.980  0.2505 -0.3783  0.1276
 2006SOL    HW1 6074   1.465   2.155   2.962  1.7048 -1.4963 -2.5940
 2006SOL    HW2 6075   1.616   2.159   2.975  1.4545  1.1908  0.7255
 2007SOL     OW 6076   4.953   0.108   2.747  0.3088  0.0711  0.0764
 2007SOL    HW1 6077   5.012   0.183   2.747  0.7345 -0.2557 -0.3584
 2007SOL    HW2 6078   4.868   0.144   2.722  0.6701  0.2964 -0.8642
 2008SOL     OW 6079   0.811   0.403   4.864 -0.3503  0.1702 -0.0045
 2008SOL    HW1 6080   0.888   0.381   4.917 -0.6350  1.2951  0.9279
 2008SOL    HW2 6081   0.782   0.488   4.898 -1.6482  0.0524 -0.7397
 2009SOL     OW 6082   2.176   4.661   3.285 -0.1063  0.1629  0.1577
 2009SOL    HW1 6083   2.190   4.721   3.358  1.1003 -1.1968  1.1022
 2009SOL    HW2 6084   2.216   4.705   3.210  1.7116  0.1630  1.0481
 2010SOL     OW 6085   0.946   1.314   0.975  0.2050 -0.2618  0.3204
 2010SOL    HW1 6086   0.851   1.307   0.972  0.3389 -2.3463 -1.7468
 2010SOL    HW2 6087   0.974   1.300   0.885  2.4823  0.6698  0.8164
 2011SOL     OW 6088   3.344   1.627   0.244 -0.2643  0.4445  0.4975
 2011SOL    HW1 6089   3.392   1.596   0.167  1.9472 -0.8779  2.3131
 2011SOL    HW2 6090   3.252   1.628   0.215  0.5562  0.9911 -2.4366
 2012SOL     OW 6091   1.423   1.020   2.545 -0.1117  0.4372 -0.2847
 2012SOL    HW1 6092   1.516   1.029   2.565 -0.1739  0.8294 -0.1610
 2012SOL    HW2 6093   1.396   0.941   2.593  0.3639 -0.2200 -1.0781
 2013SOL     OW 6094   3.532   3.867   3.977 -0.1269 -0.0871 -0.3224
 2013SOL    HW1 6095   3.493   3.805   3.915  0.1906 -0.5187 -0.0962
 2013SOL    HW2 6096   3.571   3.935   3.921 -0.6707  0.0270 -0.5656
 2014SOL     OW 6097   1.431   0.937   3.366 -0.0993  0.2352 -0.3931
 2014SOL    HW1 6098   1.379   0.862   3.396  1.7751 -1.7286 -1.7156
 2014SOL    HW2 6099   1.366   0.998   3.331 -1.6206 -1.7335 -1.2382
 2015SOL     OW 6100   3.857   0.700   3.403  0.1953  0.5198  0.2099
 2015SOL    HW1 6101   3.764   0.723   3.405  0.0138 -0.2225  0.3913
 2015SOL    HW2 6102   3.902   0.778   3.437 -0.3221  1.0480 -0.2940
 2016SOL     OW 6103   0.833   2.601   0.361 -0.3307 -0.0085  0.3281
 2016SOL    HW1 6104   0.765   2.667   0.344  0.0316  0.9611  2.4006
 2016SOL    HW2 6105   0.785   2.528   0.400 -0.3145  0.2564  0.8407
 2017SOL     OW 6106   4.016   4.531   4.802  0.6145 -0.8193 -0.7598
 2017SOL    HW1 6107   3.969   4.498   4.725  0.4466 -2.3520 -0.0229
 2017SOL    HW2 6108   3.964   4.501   4.876 -0.6965  2.7916  0.0034
 2018SOL     OW 6109   3.947   0.673   3.881  0.2534 -0.1004  0.0865
 2018SOL    HW1 6110   4.005   0.643   3.812  1.4111 -0.5819  1.2329
 2018SOL    HW2 6111   3.859   0.649   3.851  0.3749  2.1555 -2.4758
 2019SOL     OW 6112   1.640   0.761   3.357  0.5224 -0.0504 -0.0563
 2019SOL    HW1 6113   1.579   0.834   3.359  1.5443  0.8311  1.8577
 2019SOL    HW2 6114   1.664   0.752   3.264  0.5406  2.2160 -0.3277
 2020SOL     OW 6115   1.597   3.705   0.337  0.0426 -0.5124  0.4276
 2020SOL    HW1 6116   1.539   3.646   0.386 -0.0946 -0.3125  0.5056
 2020SOL    HW2 6117   1.635   3.762   0.403 -0.6510  0.1940  0.2280
 2021SOL     OW 6118   0.700   0.002   0.073 -0.0411 -0.1011 -0.7950
 2021SOL    HW1 6119   0.631  -0.037   0.125  0.7292  2.1254  2.1582
 2021SOL    HW2 6120   0.654   0.060   0.012 -0.8853 -1.6486 -1.7022
 2022SOL     OW 6121   2.352   4.262   2.967 -0.8992  1.0146  0.4838
 2022SOL    HW1 6122   2.357   4.189   2.904  0.4264 -0.0666  1.7564
 2022SOL    HW2 6123   2.277   4.241   3.023  0.2437 -0.1257  1.6599
 2023SOL     OW 6124   4.782   0.004   4.519  0.0172  0.1066  0.6047
 2023SOL    HW1 6125   4.816   0.091   4.538  0.0731 -0.0670  1.3561
 2023SOL    HW2 6126   4.860  -0.051   4.514 -0.0974 -0.4497  3.1497
 2024SOL     OW 6127   1.541   0.259   4.021 -0.0118 -0.8117 -0.3701
 2024SOL    HW1 6128   1.493   0.339   4.045 -0.5634 -1.0539 -0.6505
 2024SOL    HW2 6129   1.604   0.248   4.092 -1.3528 -1.2895  0.8015
 2025SOL     OW 6130   3.608   3.733   1.855  0.6232 -0.3499 -0.2401
 2025SOL    HW1 6131   3.632   3.826   1.855 -1.3393  0.2282  0.8382
 2025SOL    HW2 6132   3.593   3.711   1.763  0.2469  0.6633 -0.4307
 2026SOL     OW 6133   2.508   4.195   2.616 -0.4185 -0.2770  0.4794
 2026SOL    HW1 6134   2.469   4.283   2.617 -1.9209 -0.8751 -0.8860
 2026SOL    HW2 6135   2.596   4.209   2.582 -1.0316  0.6064 -0.8579
 2027SOL     OW 6136   3.390   0.261   3.184  0.0957  0.1614 -0.2913
 2027SOL    HW1 6137   3.310   0.298   3.144  0.3505  0.2953 -0.6813
 2027SOL    HW2 6138   3.362   0.234   3.272 -0.0070  1.7094  0.1895
 2028SOL     OW 6139   1.008   3.554   1.710  0.1013  0.4597  0.2687
 2028SOL    HW1 6140   1.081   3.493   1.720 -1.1336 -1.4254 -1.3460
 2028SOL    HW2 6141   1.036   3.611   1.638  0.0174 -0.2454 -0.3377
 2029SOL     OW 6142   3.379   0.774   2.649  0.2679 -0.2130 -0.2456
 2029SOL    HW1 6143   3.413   0.846   2.701 -0.0029 -0.0464 -0.2993
 2029SOL    HW2 6144   3.456   0.737   2.605  0.3814  0.1332 -0.3351
 2030SOL     OW 6145   1.713   4.027   3.332  0.7427 -0.4379  0.5615
 2030SOL    HW1 6146   1.752   3.999   3.249  1.4183 -1.3354  1.1658
 2030SOL    HW2 6147   1.701   3.947   3.382  0.5742  0.1168  1.4344
 2031SOL     OW 6148   3.051   2.789   4.577 -0.1175  0.1102  0.1462
 2031SOL    HW1 6149   3.139   2.778   4.612 -0.0944  0.7439  0.3053
 2031SOL    HW2 6150   3.007   2.846   4.641 -0.5396  0.0511 -0.0904
 2032SOL     OW 6151   4.351   1.020   3.008  0.2808 -0.7386 -0.5440
 2032SOL    HW1 6152   4.307   0.938   2.988 -1.2620 -0.0004 -0.3355
 2032SOL    HW2 6153   4.327   1.078   2.934 -0.1996  0.0644  0.2169
 2033SOL     OW 6154   2.166   3.813   3.559 -0.6614  0.7571 -0.4296
 2033SOL    HW1 6155   2.123   3.890   3.522 -1.8028  0.2629 -0.1837
 2033SOL    HW2 6156   2.145   3.816   3.652  1.3965  1.4802  0.0555
 2034SOL     OW 6157   0.206   2.640   1.898 -0.1265  0.8032  0.5883
 2034SOL    HW1 6158   0.126   2.621   1.849 -0.0655  2.7333 -0.3805
 2034SOL    HW2 6159   0.232   2.556   1.935 -2.1288 -0.0430  0.2370
 2035SOL     OW 6160   1.730   4.299   2.376  0.0731  0.0639  0.0215
 2035SOL    HW1 6161   1.717   4.260   2.463  2.4716 -1.5509 -0.2492
 2035SOL    HW2 6162   1.732   4.225   2.316  5.2280  0.2083 -0.4681
 2036SOL     OW 6163   0.853   4.396   2.421 -0.2333 -0.1131  0.1099
 2036SOL    HW1 6164   0.758   4.379   2.418  0.0591 -1.8578 -0.2264
 2036SOL    HW2 6165   0.887   4.330   2.481  0.7083  0.9156  0.7355
 2037SOL     OW 6166   3.037   4.758   2.439  0.8208 -0.4223  0.1889
 2037SOL    HW1 6167   3.014   4.834   2.492  1.9704  0.6279 -0.7573
 2037SOL    HW2 6168   2.974   4.691   2.465  0.3939  0.5241  1.7684
 2038SOL     OW 6169   1.750   2.379   4.890 -0.5942 -0.0991 -0.2168
 2038SOL    HW1 6170   1.786   2.454   4.937 -1.1083  0.5475 -0.8333
 2038SOL    HW2 6171   1.674   2.414   4.844  0.1900 -0.5872 -1.9622
 2039SOL     OW 6172   0.056   1.147   1.992 -0.2151 -0.5659  0.2066
 2039SOL    HW1 6173  -0.037   1.155   1.972 -0.7296 -0.0666  2.4459
 2039SOL    HW2 6174   0.076   1.055   1.978 -0.4386 -0.2759 -2.4400
 2040SOL     OW 6175   2.216   2.888   3.439  0.2432  0.2831 -0.2221
 2040SOL    HW1 6176   2.191   2.852   3.524 -0.9133  0.2114 -0.5676
 2040SOL    HW2 6177   2.166   2.836   3.376  0.8138  0.5698 -0.9207
 2041SOL     OW 6178   2.943   1.712   4.160 -0.1063  0.6418  0.0477
 2041SOL    HW1 6179   2.878   1.677   4.099  1.5375 -0.3607 -1.2053
 2041SOL    HW2 6180   3.007   1.642   4.171 -0.1919  0.8681  2.7943
 2042SOL     OW 6181   1.321   3.637   3.696 -0.2792  0.3506  0.1647
 2042SOL    HW1 6182   1.278   3.609   3.776 -0.3939 -1.1679 -0.3968
 2042SOL    HW2 6183   1.411   3.655   3.722 -0.3906  0.1568  0.6905
 2043SOL     OW 6184   2.794   3.033   1.929 -0.2967 -0.2809  0.0377
 2043SOL    HW1 6185   2.770   3.100   1.865  0.6171 -1.0577 -1.1590
 2043SOL    HW2 6186   2.716   3.022   1.984 -0.8484  0.9088 -0.4798
 2044SOL     OW 6187   3.113   4.397   2.517 -0.0862  0.1918  0.1641
 2044SOL    HW1 6188   3.186   4.338   2.497  0.6396  1.1256 -0.0153
 2044SOL    HW2 6189   3.151   4.485   2.515 -1.3752  0.7706 -0.7102
 2045SOL     OW 6190   1.271   2.153   0.599  0.0517 -0.3015 -0.0816
 2045SOL    HW1 6191   1.252   2.084   0.535  1.0959 -0.1801 -0.5440
 2045SOL    HW2 6192   1.188   2.199   0.609 -0.6902 -1.6705  0.3079
 2046SOL     OW 6193   3.327   3.143   0.086  0.3910  0.1954  0.6000
 2046SOL    HW1 6194   3.345   3.101   0.002 -1.5557 -1.7004  1.0312
 2046SOL    HW2 6195   3.302   3.233   0.064  0.1838 -0.1877 -0.8180
 2047SOL     OW 6196   1.025   4.610   4.414  0.5732  0.5132  0.2211
 2047SOL    HW1 6197   0.966   4.641   4.483 -0.7297  1.6416 -1.3245
 2047SOL    HW2 6198   1.006   4.517   4.405 -1.0726  0.8694 -0.2878
 2048SOL     OW 6199   2.437   0.767   4.932  0.8140  0.2278 -0.2813
 2048SOL    HW1 6200   2.524   0.775   4.972  0.8852 -0.9308 -0.1717
 2048SOL    HW2 6201   2.413   0.857   4.908 -0.5864  1.6610  5.1507
 2049SOL     OW 6202   2.182   2.275   0.753 -0.0089  0.3500  0.3352
 2049SOL    HW1 6203   2.197   2.231   0.669  1.9602  2.9685 -0.8480
 2049SOL    HW2 6204   2.089   2.264   0.769 -0.2830 -0.9958 -1.7623
 2050SOL     OW 6205   4.946   3.300   4.746 -0.7276  0.3723 -0.1259
 2050SOL    HW1 6206   4.872   3.341   4.791  1.0110  3.5903  0.1364
 2050SOL    HW2 6207   5.023   3.329   4.796  0.8014 -2.3447 -0.7192
 2051SOL     OW 6208   2.158   1.280   0.394 -0.0538 -0.3049 -0.0063
 2051SOL    HW1 6209   2.245   1.255   0.428 -0.3496 -0.1775  0.8658
 2051SOL    HW2 6210   2.107   1.200   0.399  0.3481 -0.7145 -1.7120
 2052SOL     OW 6211   3.941   4.339   3.537  0.3691  0.0920 -0.0468
 2052SOL    HW1 6212   3.904   4.348   3.450 -1.4078  1.7251  0.8015
 2052SOL    HW2 6213   3.995   4.418   3.548 -2.1788  1.7683  1.4965
 2053SOL     OW 6214   4.221   2.789   4.167  0.2243  0.1847  0.2714
 2053SOL    HW1 6215   4.185   2.813   4.252  2.3846  1.0478  0.9992
 2053SOL    HW2 6216   4.149   2.804   4.105 -0.5883  2.1002  1.5923
 2054SOL     OW 6217   3.559   2.313   4.978  0.9551  0.0599 -0.1174
 2054SOL    HW1 6218   3.594   2.245   4.919 -0.6374  0.4184 -1.5570
 2054SOL    HW2 6219   3.576   2.395   4.931  0.7023  0.4588  0.4862
 2055SOL     OW 6220   1.235   4.052   1.573  0.1749 -0.0708 -0.3111
 2055SOL    HW1 6221   1.179   4.108   1.626  2.2009  0.5743  1.2799
 2055SOL    HW2 6222   1.196   4.055   1.486 -1.7772  0.9626  0.5307
 2056SOL     OW 6223   4.341   3.301   3.202 -0.7566 -0.1791 -0.0582
 2056SOL    HW1 6224   4.263   3.354   3.188 -1.0559 -0.4996  0.3926
 2056SOL    HW2 6225   4.327   3.222   3.148 -1.1273 -0.6189  0.6688
 2057SOL     OW 6226   0.557   2.677   3.675  0.6068 -0.2350 -0.4234
 2057SOL    HW1 6227   0.507   2.756   3.691  2.3993  0.4885  2.4488
 2057SOL    HW2 6228   0.611   2.697   3.599 -1.0453  0.1574 -1.5338
 2058SOL     OW 6229   4.448   3.946   1.551 -0.8612 -0.2349 -0.7971
 2058SOL    HW1 6230   4.453   3.880   1.621 -3.4597  0.7315  0.4527
 2058SOL    HW2 6231   4.377   3.915   1.495 -1.1733  0.7767 -0.9785
 2059SOL     OW 6232   1.372   1.669   1.744 -0.2389  0.2694  0.4579
 2059SOL    HW1 6233   1.464   1.673   1.770  0.0635  0.3518 -0.5739
 2059SOL    HW2 6234   1.323   1.678   1.826  0.6660 -1.0560  1.1725
 2060SOL     OW 6235   1.162   0.312   3.496 -1.1155 -0.0181 -0.1568
 2060SOL    HW1 6236   1.229   0.280   3.556 -1.1576  1.0173  0.4641
 2060SOL    HW2 6237   1.141   0.237   3.441  1.5863  0.0186 -1.3595
 2061SOL     OW 6238   3.103   1.928   3.467 -0.1664 -0.0235 -0.3538
 2061SOL    HW1 6239   3.158   1.879   3.406  0.3120 -1.0182  0.8337
 2061SOL    HW2 6240   3.145   1.915   3.553 -0.9390  1.1525  0.2239
 2062SOL     OW 6241   0.536   1.445   1.432 -0.2312 -0.3412  0.2407
 2062SOL    HW1 6242   0.459   1.460   1.486 -0.2258  0.5605  0.0208
 2062SOL    HW2 6243   0.589   1.525   1.442 -0.0408 -0.3196 -0.7566
 2063SOL     OW 6244   3.231   4.786   0.797  0.8741  0.1831  0.0057
 2063SOL    HW1 6245   3.326   4.790   0.806  1.1819 -1.0244 -2.0176
 2063SOL    HW2 6246   3.209   4.696   0.821  0.6514 -0.4145 -2.2892
 2064SOL     OW 6247   2.982   2.041   1.531 -0.2111 -0.4505  0.5656
 2064SOL    HW1 6248   2.975   2.002   1.444  0.7749 -0.1626  0.3479
 2064SOL    HW2 6249   3.036   1.979   1.580  2.4634  1.1335 -0.1413
 2065SOL     OW 6250   2.733   0.779   3.666 -0.1474 -0.5142  0.2283
 2065SOL    HW1 6251   2.804   0.726   3.702  0.4872 -0.0969 -0.3821
 2065SOL    HW2 6252   2.713   0.844   3.734  0.3759 -0.3397  0.2139
 2066SOL     OW 6253   3.139   2.426   1.210  0.5555 -0.1257 -0.6209
 2066SOL    HW1 6254   3.064   2.484   1.196  0.9897  0.1368 -2.0682
 2066SOL    HW2 6255   3.195   2.474   1.271  1.1706  1.3166 -2.1947
 2067SOL     OW 6256   0.584   1.353   2.437  0.2181 -0.0082  0.2821
 2067SOL    HW1 6257   0.672   1.319   2.420  0.6533  0.7366  0.9842
 2067SOL    HW2 6258   0.527   1.277   2.423  0.8499 -0.2710 -1.1556
 2068SOL     OW 6259   3.984   3.577   4.904 -0.0107 -0.0248  0.6410
 2068SOL    HW1 6260   4.043   3.646   4.873 -1.4333  0.2525 -1.6853
 2068SOL    HW2 6261   4.015   3.498   4.861  0.9912 -0.6700  2.4963
 2069SOL     OW 6262   3.733   2.914   0.441  0.1175  0.2778 -0.2332
 2069SOL    HW1 6263   3.677   2.937   0.515 -0.9961  0.1208 -0.9987
 2069SOL    HW2 6264   3.791   2.990   0.430  0.8772 -0.0517  1.3083
 2070SOL     OW 6265   3.644   1.418   2.806  0.0723 -0.0450  0.3048
 2070SOL    HW1 6266   3.669   1.509   2.790  1.1176 -0.5224 -0.9814
 2070SOL    HW2 6267   3.553   1.412   2.777 -0.1632  0.6990  0.8783
 2071SOL     OW 6268   0.931   0.806   0.487 -0.0368 -0.0591 -1.2566
 2071SOL    HW1 6269   0.887   0.721   0.484  1.8036 -1.2242  0.9709
 2071SOL    HW2 6270   0.910   0.841   0.574 -0.5728  1.6796 -2.0537
 2072SOL     OW 6271   1.265   0.232   0.690  0.1545 -0.0880  0.3762
 2072SOL    HW1 6272   1.310   0.294   0.746  1.9365 -2.0756  1.2864
 2072SOL    HW2 6273   1.324   0.222   0.614 -0.8924  0.4945 -0.5406
 2073SOL     OW 6274   2.723   3.746   1.495 -0.1152 -0.1286  0.0166
 2073SOL    HW1 6275   2.813   3.715   1.481 -0.2322 -0.1114 -0.8221
 2073SOL    HW2 6276   2.677   3.721   1.415 -0.7536  0.2530  0.2612
 2074SOL     OW 6277   3.612   0.366   4.724 -0.3747 -0.5493 -0.0574
 2074SOL    HW1 6278   3.544   0.360   4.791  0.2537 -0.9012  0.5629
 2074SOL    HW2 6279   3.568   0.404   4.648 -0.7452  1.3078  1.0308
 2075SOL     OW 6280   0.150   1.740   3.118 -0.4339  0.7546 -0.3030
 2075SOL    HW1 6281   0.243   1.731   3.138  0.1164 -0.8573 -3.0544
 2075SOL    HW2 6282   0.148   1.794   3.039 -1.9141  1.3958  0.1384
 2076SOL     OW 6283   4.874   1.828   4.899  0.3009  0.4643 -0.1598
 2076SOL    HW1 6284   4.801   1.842   4.840 -1.3311 -1.0670  1.3646
 2076SOL    HW2 6285   4.856   1.884   4.974 -0.0209 -0.7994  0.7563
 2077SOL     OW 6286   0.404   2.063   4.179 -0.3230  0.3180 -0.2735
 2077SOL    HW1 6287   0.365   2.033   4.262  2.7252 -1.0923  0.7872
 2077SOL    HW2 6288   0.458   2.138   4.205  0.1952  0.2311 -1.0912
 2078SOL     OW 6289   1.783   1.858   3.598  0.4375  0.9430 -0.3314
 2078SOL    HW1 6290   1.801   1.846   3.505 -0.9230  1.8668 -0.7430
 2078SOL    HW2 6291   1.868   1.881   3.636  1.9343 -3.3170 -0.5524
 2079SOL     OW 6292   3.305   3.389   1.580  0.2589  0.5666 -0.1656
 2079SOL    HW1 6293   3.400   3.383   1.592  0.6432  1.1810 -2.4031
 2079SOL    HW2 6294   3.279   3.465   1.633  1.1212  0.7973 -0.0578
 2080SOL     OW 6295   3.818   4.696   4.563  0.0129  0.0523  0.4620
 2080SOL    HW1 6296   3.893   4.711   4.506 -0.4483 -0.0830 -0.2061
 2080SOL    HW2 6297   3.842   4.736   4.646  0.3005  1.1790 -0.1439
 2081SOL     OW 6298   3.906   0.973   1.000 -0.0465 -0.3285 -0.6686
 2081SOL    HW1 6299   3.982   1.028   0.982  1.0663 -1.7939 -0.6713
 2081SOL    HW2 6300   3.934   0.917   1.072 -1.3237 -0.5365 -0.3162
 2082SOL     OW 6301   2.748   2.243   1.569  0.1846  0.4013 -0.2128
 2082SOL    HW1 6302   2.754   2.224   1.662 -0.3937 -0.6079 -0.3713
 2082SOL    HW2 6303   2.781   2.164   1.526  1.0208  1.0754 -0.8733
 2083SOL     OW 6304   4.190   0.434   3.532  0.2942 -0.0878  0.6754
 2083SOL    HW1 6305   4.230   0.411   3.448 -1.6147 -1.2895  0.0378
 2083SOL    HW2 6306   4.253   0.404   3.598  1.5590  0.3566 -0.2894
 2084SOL     OW 6307   4.199   3.488   1.342 -0.2983  0.2741 -0.2142
 2084SOL    HW1 6308   4.287   3.450   1.333 -0.1921  0.3437  0.4711
 2084SOL    HW2 6309   4.199   3.526   1.429 -0.7568  0.9497 -0.5036
 2085SOL     OW 6310   3.917   2.292   1.337 -0.5896 -0.0975  0.7804
 2085SOL    HW1 6311   3.904   2.248   1.253  1.4265 -0.9324  0.8384
 2085SOL    HW2 6312   3.894   2.383   1.321  1.4390  0.1564 -1.2349
 2086SOL     OW 6313   0.051   2.538   0.687 -0.1269  0.1171 -0.0675
 2086SOL    HW1 6314   0.115   2.569   0.752 -1.4724 -1.9715  2.4679
 2086SOL    HW2 6315   0.077   2.581   0.606  2.1135  2.3832  1.6643
 2087SOL     OW 6316   1.689   4.894   3.285  0.4154  0.4835 -0.0946
 2087SOL    HW1 6317   1.750   4.832   3.324  0.1157 -0.4953 -1.1605
 2087SOL    HW2 6318   1.694   4.878   3.191 -1.1430  0.7070 -0.2366
 2088SOL     OW 6319   2.631   1.787   0.854 -0.8412  0.1259 -0.5252
 2088SOL    HW1 6320   2.659   1.759   0.767  1.1643  1.8013 -0.4795
 2088SOL    HW2 6321   2.565   1.854   0.838  1.5338  2.5177 -0.9321
 2089SOL     OW 6322   1.576   1.562   3.518  0.1253 -0.0993  0.2426
 2089SOL    HW1 6323   1.615   1.486   3.476 -0.3354  0.4046 -1.1515
 2089SOL    HW2 6324   1.571   1.538   3.611  0.7429 -1.4241 -0.0402
 2090SOL     OW 6325   4.745   2.176   1.817 -0.1791  0.4542  0.6212
 2090SOL    HW1 6326   4.663   2.224   1.804  0.2955  1.1368  0.0238
 2090SOL    HW2 6327   4.789   2.183   1.732  0.6906  0.4740  1.0722
 2091SOL     OW 6328   1.425   0.818   0.347 -0.2092 -0.4180 -0.0949
 2091SOL    HW1 6329   1.478   0.739   0.332 -1.4405 -1.6690  1.7331
 2091SOL    HW2 6330   1.487   0.880   0.386  0.7240 -0.5161 -1.3413
 2092SOL     OW 6331   2.318   0.235   1.238  0.1192 -0.1898 -0.2987
 2092SOL    HW1 6332   2.330   0.140   1.238 -0.5826 -0.2844 -0.3232
 2092SOL    HW2 6333   2.240   0.249   1.292  0.2013  0.3689 -0.3233
 2093SOL     OW 6334   3.089   3.941   4.926  0.1426 -0.5473 -0.2684
 2093SOL    HW1 6335   3.028   3.964   4.856  1.7559  1.1903 -1.1980
 2093SOL    HW2 6336   3.134   3.863   4.894 -0.1633 -0.6163 -0.5303
 2094SOL     OW 6337   1.460   1.977   4.541  0.2081 -0.7958  0.2377
 2094SOL    HW1 6338   1.378   2.024   4.523  0.6690 -0.2640 -0.5647
 2094SOL    HW2 6339   1.526   2.026   4.492  0.9174 -1.5356  0.4381
 2095SOL     OW 6340   4.295   3.077   2.948 -0.9399 -0.1963 -0.1620
 2095SOL    HW1 6341   4.320   3.155   2.899 -1.0437  0.5257  0.8929
 2095SOL    HW2 6342   4.232   3.032   2.892  1.5557 -1.3276 -2.2741
 2096SOL     OW 6343   1.709   3.035   2.015  0.2612 -1.1711  0.1000
 2096SOL    HW1 6344   1.751   2.953   2.040  0.5501 -0.9132  0.4660
 2096SOL    HW2 6345   1.753   3.102   2.068 -0.2790 -0.8388  0.1327
 2097SOL     OW 6346   4.559   0.004   4.356 -0.1682 -0.6626  0.2251
 2097SOL    HW1 6347   4.587   0.087   4.317 -2.5296  0.2021  0.2012
 2097SOL    HW2 6348   4.615  -0.007   4.432  1.0987  0.2437 -0.5349
 2098SOL     OW 6349   4.826   3.576   4.603 -0.0157 -0.2571  0.2088
 2098SOL    HW1 6350   4.740   3.579   4.562  1.3954  0.5252 -3.0378
 2098SOL    HW2 6351   4.835   3.660   4.648 -0.1441  0.6808 -1.4326
 2099SOL     OW 6352   4.550   1.809   0.271  0.1658  0.0548  0.4048
 2099SOL    HW1 6353   4.539   1.767   0.357  1.3172  0.3812  0.7298
 2099SOL    HW2 6354   4.639   1.785   0.245  0.8222  2.1779  0.5428
 2100SOL     OW 6355   3.310   2.690   4.697  0.3305 -0.2650  0.5967
 2100SOL    HW1 6356   3.383   2.703   4.637  0.3564 -0.8119  0.5026
 2100SOL    HW2 6357   3.324   2.755   4.766  0.6126 -0.0135  0.3065
 2101SOL     OW 6358   0.041   0.508   0.423 -0.2704  0.4457 -0.2330
 2101SOL    HW1 6359  -0.024   0.500   0.354  0.7592  1.7686 -1.4096
 2101SOL    HW2 6360   0.068   0.417   0.441 -1.7438 -0.0387 -0.3613
 2102SOL     OW 6361   0.815   2.008   0.874  0.0097  0.5265 -0.0518
 2102SOL    HW1 6362   0.868   2.029   0.951  0.1939  0.2692 -0.1066
 2102SOL    HW2 6363   0.839   1.918   0.853 -0.8315  0.2248  0.2319
 2103SOL     OW 6364   2.953   4.039   4.648  0.0726 -0.5566  0.1533
 2103SOL    HW1 6365   2.878   4.079   4.692  0.4542 -0.1048  0.3988
 2103SOL    HW2 6366   2.915   3.970   4.594 -0.4015 -1.2475  1.3140
 2104SOL     OW 6367   4.314   0.654   4.949 -0.2669 -0.2846 -0.1937
 2104SOL    HW1 6368   4.276   0.630   4.864 -0.7728 -0.8235  0.1816
 2104SOL    HW2 6369   4.245   0.703   4.994 -0.6334 -1.4906  0.5933
 2105SOL     OW 6370   0.363   4.508   0.919 -0.2384 -0.4414  0.2450
 2105SOL    HW1 6371   0.385   4.421   0.952 -1.6643 -0.6067  0.8339
 2105SOL    HW2 6372   0.307   4.491   0.843  0.8386 -0.0336 -0.6646
 2106SOL     OW 6373   4.362   4.677   4.792 -0.1294  0.3520 -0.0309
 2106SOL    HW1 6374   4.323   4.763   4.779  0.5843  0.9583  1.6459
 2106SOL    HW2 6375   4.439   4.676   4.735  0.0653  0.9727  0.2198
 2107SOL     OW 6376   3.663   4.799   0.527  0.7408 -0.5764 -0.0839
 2107SOL    HW1 6377   3.619   4.720   0.498 -0.2085 -0.1715  0.2181
 2107SOL    HW2 6378   3.756   4.784   0.507  0.8590 -2.5233  1.6202
 2108SOL     OW 6379   3.829   2.134   1.529 -0.2628 -0.5437  0.0191
 2108SOL    HW1 6380   3.876   2.192   1.468 -0.2607 -0.5101  0.0522
 2108SOL    HW2 6381   3.891   2.064   1.547 -0.7861 -1.3241 -1.1383
 2109SOL     OW 6382   1.241   4.561   1.117  0.3508  0.0041  0.1595
 2109SOL    HW1 6383   1.198   4.519   1.043  1.3741 -0.7531 -0.0198
 2109SOL    HW2 6384   1.315   4.608   1.079  0.1482  0.6637  0.5588
 2110SOL     OW 6385   2.340   3.855   0.712 -0.1940 -0.3221  0.3324
 2110SOL    HW1 6386   2.290   3.884   0.636 -0.0272 -0.1891  0.2711
 2110SOL    HW2 6387   2.302   3.903   0.786 -1.4313 -1.6654  0.5961
 2111SOL     OW 6388   1.601   2.189   0.086  0.3499  0.2023  0.2731
 2111SOL    HW1 6389   1.662   2.240   0.034  2.1215 -1.4435  0.6279
 2111SOL    HW2 6390   1.585   2.242   0.164  0.6962  1.0108 -0.2037
 2112SOL     OW 6391   4.217   1.735   2.581  0.0320 -0.5225  0.9193
 2112SOL    HW1 6392   4.305   1.765   2.559 -0.4509  1.3497  1.3658
 2112SOL    HW2 6393   4.162   1.813   2.572 -1.4307 -1.4267  1.5916
 2113SOL     OW 6394   3.697   1.762   4.430 -0.3200 -0.8630 -0.4893
 2113SOL    HW1 6395   3.611   1.720   4.421 -0.3157 -0.7027 -1.3825
 2113SOL    HW2 6396   3.688   1.845   4.383  0.1349 -0.5635 -0.0485
 2114SOL     OW 6397   1.782   1.193   0.560 -0.3491 -0.6503 -0.0746
 2114SOL    HW1 6398   1.738   1.211   0.477 -0.2618  0.2388  0.0670
 2114SOL    HW2 6399   1.745   1.257   0.621  0.7713 -0.2203  0.1710
 2115SOL     OW 6400   3.566   4.368   4.630 -0.7584 -0.2305 -0.1643
 2115SOL    HW1 6401   3.577   4.305   4.559 -0.4219 -0.1108 -0.2200
 2115SOL    HW2 6402   3.567   4.315   4.710 -0.6420 -0.3138 -0.2209
 2116SOL     OW 6403   0.856   1.621   4.102 -0.0006 -0.2584  0.4556
 2116SOL    HW1 6404   0.923   1.568   4.145 -0.3458 -2.0721 -1.1370
 2116SOL    HW2 6405   0.774   1.575   4.118 -0.3686 -0.0098 -0.6356
 2117SOL     OW 6406   4.921   0.151   2.280  0.0593  0.0805  0.2606
 2117SOL    HW1 6407   4.826   0.157   2.276  0.0463 -0.5354 -1.0747
 2117SOL    HW2 6408   4.938   0.075   2.336 -0.2522 -0.1431  0.0512
 2118SOL     OW 6409   3.840   3.361   4.204 -0.0638  0.4415  0.8253
 2118SOL    HW1 6410   3.832   3.287   4.144  0.0043  0.4916  0.7548
 2118SOL    HW2 6411   3.751   3.379   4.233 -0.3971  1.7863 -0.8915
 2119SOL     OW 6412   1.486   4.535   0.066  0.1067  0.0679 -0.2857
 2119SOL    HW1 6413   1.469   4.597   0.138  0.0757  0.1837 -0.3922
 2119SOL    HW2 6414   1.433   4.568  -0.007 -1.6975 -1.3253  0.3028
 2120SOL     OW 6415   2.028   4.405   2.439  0.3227  0.2855 -0.0423
 2120SOL    HW1 6416   1.970   4.429   2.367  0.7392  0.6868 -0.2481
 2120SOL    HW2 6417   2.009   4.469   2.508  0.6665  0.5490 -0.1887
 2121SOL     OW 6418   1.556   4.059   3.630  0.1101 -0.2115 -0.8594
 2121SOL    HW1 6419   1.509   4.045   3.713 -2.3633 -3.6672 -2.6052
 2121SOL    HW2 6420   1.641   4.017   3.644  1.1121  2.1363  0.8596
 2122SOL     OW 6421   0.426   2.356   3.221 -0.1236  0.2925  0.0334
 2122SOL    HW1 6422   0.349   2.322   3.266 -0.1881  1.2369  0.6559
 2122SOL    HW2 6423   0.425   2.313   3.136 -0.1134 -1.3781  0.8340
 2123SOL     OW 6424   2.605   0.353   2.101  0.1182  0.0526  0.7010
 2123SOL    HW1 6425   2.650   0.334   2.183 -1.1101  1.9013  1.8818
 2123SOL    HW2 6426   2.599   0.449   2.099  0.6033  0.0921 -1.8323
 2124SOL     OW 6427   1.223   2.713   4.140 -0.5649 -0.0412 -0.1825
 2124SOL    HW1 6428   1.299   2.753   4.182 -1.1840 -0.9977  2.0668
 2124SOL    HW2 6429   1.168   2.786   4.113  0.7717  0.6458 -1.1075
 2125SOL     OW 6430   2.830   0.243   2.839 -0.3318  0.0395  0.1172
 2125SOL    HW1 6431   2.912   0.291   2.832 -0.4578  0.4528  1.2133
 2125SOL    HW2 6432   2.839   0.191   2.919 -0.4208 -1.3504 -0.7435
 2126SOL     OW 6433   2.201   3.229   1.685 -0.4604  0.0234  0.0984
 2126SOL    HW1 6434   2.120   3.179   1.696  0.1454 -0.6550  1.6589
 2126SOL    HW2 6435   2.173   3.320   1.680 -1.2696 -0.1213  1.5798
 2127SOL     OW 6436   0.935   1.381   2.039  0.3315 -0.2425  0.1915
 2127SOL    HW1 6437   0.872   1.442   2.001  0.5669 -0.4196 -0.5031
 2127SOL    HW2 6438   0.939   1.405   2.132  1.5305  1.8067 -0.3173
 2128SOL     OW 6439   2.608   2.916   4.200  0.6647  0.9026 -0.3807
 2128SOL    HW1 6440   2.525   2.913   4.248  1.1195  1.7964  0.5077
 2128SOL    HW2 6441   2.675   2.900   4.267  1.3877  3.2638 -0.4440
 2129SOL     OW 6442   2.232   0.933   3.000 -0.4164 -0.3385 -0.2637
 2129SOL    HW1 6443   2.175   0.875   3.049 -1.4324 -0.0705 -1.0956
 2129SOL    HW2 6444   2.318   0.891   3.004 -0.5797 -0.6002  1.2511
 2130SOL     OW 6445   2.344   0.390   1.018 -0.2609 -0.1538 -0.2015
 2130SOL    HW1 6446   2.439   0.395   1.012 -0.0884 -0.9409  1.4862
 2130SOL    HW2 6447   2.327   0.339   1.097 -2.0926  0.5434 -0.0977
 2131SOL     OW 6448   0.254   2.143   0.138  0.5635 -0.2225  0.1291
 2131SOL    HW1 6449   0.317   2.081   0.173  1.5610 -0.6756 -2.2836
 2131SOL    HW2 6450   0.207   2.095   0.070 -1.6534  0.4526  1.0778
 2132SOL     OW 6451   0.982   0.197   1.803  0.2869  0.8413  0.0424
 2132SOL    HW1 6452   1.003   0.155   1.720 -0.1601 -0.2723  0.4823
 2132SOL    HW2 6453   1.018   0.139   1.870  1.7614  2.3523  0.6241
 2133SOL     OW 6454   3.782   3.613   0.201 -0.3027  0.3772 -0.3472
 2133SOL    HW1 6455   3.817   3.589   0.116  1.8550  0.5821  0.4166
 2133SOL    HW2 6456   3.689   3.629   0.185 -0.7467 -2.9299 -1.9727
 2134SOL     OW 6457   0.399   2.486   4.453  0.6209 -0.5426 -0.5163
 2134SOL    HW1 6458   0.394   2.568   4.404 -0.1589  0.2364  0.7730
 2134SOL    HW2 6459   0.442   2.510   4.535  0.5092 -1.4656 -0.1744
 2135SOL     OW 6460   1.276   2.761   1.662  0.1233 -0.2078 -0.2991
 2135SOL    HW1 6461   1.267   2.667   1.652  1.8271 -0.4807  0.4173
 2135SOL    HW2 6462   1.299   2.793   1.574 -1.2172 -0.3294 -0.7120
 2136SOL     OW 6463   4.273   2.872   1.316  0.6394  0.2562  0.8744
 2136SOL    HW1 6464   4.236   2.923   1.388  0.1185 -0.4987  1.1653
 2136SOL    HW2 6465   4.237   2.784   1.328  0.2246  0.2028 -0.5475
 2137SOL     OW 6466   4.700   0.172   2.668  0.2119 -0.5015  0.5210
 2137SOL    HW1 6467   4.633   0.184   2.601  0.2844  0.5575  0.6345
 2137SOL    HW2 6468   4.654   0.188   2.750  0.6029  0.2150  0.5993
 2138SOL     OW 6469   3.876   1.264   2.440  0.2197 -0.3475  0.3531
 2138SOL    HW1 6470   3.952   1.245   2.386  0.0135  1.3893 -0.6338
 2138SOL    HW2 6471   3.913   1.290   2.525  0.6463 -0.7847  0.3067
 2139SOL     OW 6472   4.875   4.561   0.160 -0.1150 -0.1534 -0.1103
 2139SOL    HW1 6473   4.898   4.568   0.067 -2.1455  1.0220 -0.5673
 2139SOL    HW2 6474   4.812   4.490   0.164 -0.3793  0.1007  0.2921
 2140SOL     OW 6475   3.520   1.454   3.154  0.2489 -0.1676 -0.7691
 2140SOL    HW1 6476   3.576   1.525   3.125  0.4082  0.2939  0.5680
 2140SOL    HW2 6477   3.579   1.380   3.167  0.2837 -0.1750 -0.9752
 2141SOL     OW 6478   0.375   0.046   0.941  0.1512  0.3317  0.0532
 2141SOL    HW1 6479   0.439   0.073   0.875  1.4147 -4.1300 -0.8795
 2141SOL    HW2 6480   0.427   0.002   1.009 -1.6649 -2.8685 -0.4146
 2142SOL     OW 6481   0.262   4.173   0.805  0.2675 -0.3902  0.2648
 2142SOL    HW1 6482   0.335   4.152   0.747  1.2205  1.4689  0.7076
 2142SOL    HW2 6483   0.303   4.184   0.891 -0.2276  2.1546  0.2580
 2143SOL     OW 6484   4.858   0.463   4.008  0.0006 -0.4648 -1.0213
 2143SOL    HW1 6485   4.908   0.472   3.927  1.8419  1.1049  0.2074
 2143SOL    HW2 6486   4.909   0.401   4.061  0.8522  1.2858  0.3187
 2144SOL     OW 6487   3.483   0.830   1.858 -0.4311  0.3177 -0.6832
 2144SOL    HW1 6488   3.502   0.746   1.818 -0.3758  0.3964 -0.8228
 2144SOL    HW2 6489   3.396   0.853   1.825 -0.6249  0.1188 -0.3147
 2145SOL     OW 6490   3.989   0.682   0.091  0.6425 -0.2165 -0.7841
 2145SOL    HW1 6491   4.041   0.757   0.120  0.1828 -0.5880  1.1567
 2145SOL    HW2 6492   3.940   0.715   0.016 -0.7874  2.0251  0.9674
 2146SOL     OW 6493   0.742   1.698   1.452  0.2219  0.6617 -0.2435
 2146SOL    HW1 6494   0.811   1.722   1.390  1.1154  1.5282  1.0301
 2146SOL    HW2 6495   0.783   1.632   1.508 -0.2112  0.6964  0.1165
 2147SOL     OW 6496   0.227   3.842   0.944  0.2733 -0.2473  0.9277
 2147SOL    HW1 6497   0.254   3.874   1.030  1.0989 -0.8669  0.9211
 2147SOL    HW2 6498   0.274   3.759   0.934  0.9688  0.2820 -0.5279
 2148SOL     OW 6499   0.279   3.138   3.285 -0.2256 -0.0537  0.1135
 2148SOL    HW1 6500   0.342   3.168   3.220 -0.2981 -0.7404 -0.2903
 2148SOL    HW2 6501   0.260   3.048   3.259 -1.7034  0.2815 -0.0248
 2149SOL     OW 6502   1.722   3.047   3.984 -0.4049 -0.4368 -0.1241
 2149SOL    HW1 6503   1.661   3.117   3.959  0.7268  0.0711 -1.6461
 2149SOL    HW2 6504   1.748   3.007   3.901  3.5061  1.2348  0.0813
 2150SOL     OW 6505   3.548   4.898   3.128  0.2029 -0.2791 -0.0784
 2150SOL    HW1 6506   3.625   4.848   3.103 -0.2106 -0.2558 -1.5288
 2150SOL    HW2 6507   3.543   4.968   3.062 -1.6857 -0.9661 -0.7222
 2151SOL     OW 6508   0.211   4.362   3.467  0.5438 -0.3500  0.3640
 2151SOL    HW1 6509   0.151   4.436   3.474 -0.4124 -1.1962  1.6572
 2151SOL    HW2 6510   0.223   4.350   3.372 -1.3502 -0.1433  0.0572
 2152SOL     OW 6511   3.511   3.220   3.917  0.0447  0.0418  0.3603
 2152SOL    HW1 6512   3.498   3.175   4.000 -0.5627 -0.1414  0.1702
 2152SOL    HW2 6513   3.423   3.231   3.881  0.1805  1.2868  0.3491
 2153SOL     OW 6514   4.085   2.479   4.099 -0.0712  0.3395 -0.0246
 2153SOL    HW1 6515   4.147   2.475   4.172 -1.2752  1.7089  1.1537
 2153SOL    HW2 6516   4.034   2.398   4.108  1.2476 -0.6200 -0.7866
 2154SOL     OW 6517   4.812   0.698   0.217  0.6943  0.6413 -0.1027
 2154SOL    HW1 6518   4.726   0.696   0.174  0.8728  0.8376 -0.4741
 2154SOL    HW2 6519   4.847   0.610   0.205  0.4141  0.4670  0.3243
 2155SOL     OW 6520   1.271   4.458   3.814  0.2853  0.0766  0.3711
 2155SOL    HW1 6521   1.251   4.479   3.905 -1.0610 -0.2381  0.1674
 2155SOL    HW2 6522   1.350   4.508   3.795  1.0619 -0.4808  1.9433
 2156SOL     OW 6523   1.598   0.890   2.950  0.1997  0.3298 -0.0484
 2156SOL    HW1 6524   1.686   0.913   2.982 -0.0189  0.5552  0.3902
 2156SOL    HW2 6525   1.543   0.964   2.974 -0.2602 -0.1181  0.3016
 2157SOL     OW 6526   3.332   3.367   1.998 -0.9716  0.1566  0.1489
 2157SOL    HW1 6527   3.364   3.360   1.909 -2.1740  0.4552 -0.3308
 2157SOL    HW2 6528   3.289   3.283   2.015  0.3526 -0.3974  0.9265
 2158SOL     OW 6529   4.789   2.112   0.754  0.7218  0.0012 -0.2899
 2158SOL    HW1 6530   4.755   2.200   0.737  1.5616  0.2886 -0.5249
 2158SOL    HW2 6531   4.832   2.086   0.672 -0.1763 -0.9511 -0.4853
 2159SOL     OW 6532   1.208   0.688   1.468 -0.1615 -0.0492  0.0957
 2159SOL    HW1 6533   1.159   0.634   1.406 -0.6113  0.6485 -0.1613
 2159SOL    HW2 6534   1.280   0.631   1.496 -0.5375 -0.7329 -0.2809
 2160SOL     OW 6535   4.170   3.230   1.732  0.2694  0.3685  0.0965
 2160SOL    HW1 6536   4.084   3.240   1.772  0.9131  2.1307  1.1469
 2160SOL    HW2 6537   4.216   3.169   1.789 -0.1426 -0.2617 -0.2400
 2161SOL     OW 6538   2.263   3.624   4.247  0.2784  0.2257  0.1567
 2161SOL    HW1 6539   2.196   3.556   4.252  0.1808  0.1515 -1.6522
 2161SOL    HW2 6540   2.319   3.608   4.323 -1.6981  0.2723  1.7068
 2162SOL     OW 6541   2.394   4.264   0.377  0.0847  0.3341  0.1905
 2162SOL    HW1 6542   2.402   4.360   0.384 -1.0576  0.3826  1.3394
 2162SOL    HW2 6543   2.342   4.251   0.298  0.0012  0.6927  0.1807
 2163SOL     OW 6544   1.710   3.762   3.853  0.2875 -0.4431 -0.7495
 2163SOL    HW1 6545   1.788   3.747   3.906 -0.2549  0.0595  0.2264
 2163SOL    HW2 6546   1.735   3.830   3.791  0.0433  1.2669  0.9510
 2164SOL     OW 6547   4.089   2.086   0.669 -0.4460 -0.5164  0.9102
 2164SOL    HW1 6548   4.075   1.997   0.703 -0.2570 -1.1080 -0.4857
 2164SOL    HW2 6549   4.037   2.089   0.589  0.8150  0.0690  0.0744
 2165SOL     OW 6550   4.805   0.925   0.402  0.6704  0.7706 -0.2093
 2165SOL    HW1 6551   4.749   0.984   0.351  1.7735  0.3437 -2.0183
 2165SOL    HW2 6552   4.801   0.842   0.355  1.8885  0.4021  0.3147
 2166SOL     OW 6553   3.952   1.325   1.718  0.1631 -0.2810  0.4804
 2166SOL    HW1 6554   3.865   1.322   1.678  0.3604 -2.6054  0.0583
 2166SOL    HW2 6555   4.004   1.264   1.666  1.9091  0.6515  1.0715
 2167SOL     OW 6556   4.069   4.255   1.216 -0.2468  0.1383 -0.4652
 2167SOL    HW1 6557   4.108   4.168   1.217  0.5712  0.4960 -0.3714
 2167SOL    HW2 6558   4.021   4.259   1.134  0.7996  0.0638 -1.1015
 2168SOL     OW 6559   3.331   0.449   0.238  0.0239 -0.1741  0.3359
 2168SOL    HW1 6560   3.357   0.440   0.330 -1.5767  0.5991  0.9114
 2168SOL    HW2 6561   3.289   0.535   0.234  0.4430 -0.0242 -1.2309
 2169SOL     OW 6562   3.793   0.943   2.608 -0.0051 -0.1165 -0.2300
 2169SOL    HW1 6563   3.798   1.026   2.655  2.6024 -0.6705  0.6759
 2169SOL    HW2 6564   3.719   0.952   2.549 -0.7063  2.2664  0.9204
 2170SOL     OW 6565   3.630   0.093   0.666 -0.3629 -0.0673 -0.1665
 2170SOL    HW1 6566   3.615   0.023   0.603  0.5615 -0.2446 -0.1959
 2170SOL    HW2 6567   3.544   0.134   0.677 -0.8361 -0.9788 -0.4052
 2171SOL     OW 6568   1.538   4.673   4.063  0.2712 -0.3985 -0.0338
 2171SOL    HW1 6569   1.531   4.741   4.131 -1.1181 -0.7910  0.2611
 2171SOL    HW2 6570   1.576   4.598   4.108  0.7702 -0.1753 -0.0790
 2172SOL     OW 6571   0.409   1.318   2.734  0.0665 -0.4070 -0.0832
 2172SOL    HW1 6572   0.469   1.392   2.730  1.7003 -1.7059 -0.6440
 2172SOL    HW2 6573   0.323   1.358   2.752  1.3193  1.3821  2.4959
 2173SOL     OW 6574   4.038   2.708   3.960  0.2969  0.1181 -0.0313
 2173SOL    HW1 6575   4.098   2.712   3.886  0.0131  0.8541 -0.2299
 2173SOL    HW2 6576   4.064   2.629   4.008  0.6299 -0.2335 -0.7841
 2174SOL     OW 6577   2.424   1.916   1.128  0.2486 -0.2870  0.1046
 2174SOL    HW1 6578   2.348   1.882   1.174 -0.4511 -0.5696 -1.2112
 2174SOL    HW2 6579   2.443   2.000   1.172 -0.0038 -0.8185  1.2732
 2175SOL     OW 6580   2.049   1.215   3.964  0.0759  0.1852  0.2405
 2175SOL    HW1 6581   1.996   1.140   3.990 -1.3609  0.9118 -0.4770
 2175SOL    HW2 6582   2.035   1.223   3.870  3.0697 -0.7877 -0.3981
 2176SOL     OW 6583   0.822   2.965   1.335 -0.1916  0.2528  0.0322
 2176SOL    HW1 6584   0.817   2.872   1.353  0.5290  0.2604  0.3173
 2176SOL    HW2 6585   0.735   2.999   1.357 -1.4880 -0.8137 -2.9727
 2177SOL     OW 6586   0.882   1.935   1.672  0.7194 -0.1686 -0.3863
 2177SOL    HW1 6587   0.914   1.857   1.717 -1.2295 -1.0556 -0.4249
 2177SOL    HW2 6588   0.938   1.944   1.595  0.8601 -1.6516 -0.4750
 2178SOL     OW 6589   4.512   2.956   3.402 -0.4210  0.1806 -0.4565
 2178SOL    HW1 6590   4.491   2.936   3.311 -0.4510  1.5341 -0.7574
 2178SOL    HW2 6591   4.590   2.904   3.421 -0.2111  0.1587 -1.3631
 2179SOL     OW 6592   3.615   3.738   0.902 -0.6310  0.4654  0.5496
 2179SOL    HW1 6593   3.675   3.692   0.844 -1.4792  1.3122 -1.0539
 2179SOL    HW2 6594   3.636   3.705   0.989 -0.0109 -1.5965 -0.3350
 2180SOL     OW 6595   3.995   2.968   2.483  0.6823 -0.3490  0.1258
 2180SOL    HW1 6596   4.073   2.987   2.430  1.1244  0.1602  0.9350
 2180SOL    HW2 6597   4.003   3.027   2.557  1.5774 -2.9631  2.2704
 2181SOL     OW 6598   1.757   2.441   3.630 -0.2728 -0.3902  0.6588
 2181SOL    HW1 6599   1.730   2.383   3.558  2.3529 -1.4910  0.4183
 2181SOL    HW2 6600   1.775   2.382   3.703  0.1580  0.3779  1.1880
 2182SOL     OW 6601   2.223   1.637   4.632  0.1379  0.5253 -0.2344
 2182SOL    HW1 6602   2.199   1.612   4.543 -0.0085 -0.2544  0.0143
 2182SOL    HW2 6603   2.301   1.692   4.622  2.8708 -3.1028 -0.6290
 2183SOL     OW 6604   2.759   4.431   0.296  0.0094 -0.4546  0.1958
 2183SOL    HW1 6605   2.771   4.441   0.201 -0.3737  1.0202  0.2726
 2183SOL    HW2 6606   2.792   4.513   0.332 -0.6487 -0.6495  1.2689
 2184SOL     OW 6607   3.636   4.010   1.923  0.2753 -0.8623 -0.9224
 2184SOL    HW1 6608   3.672   4.000   2.011 -0.7877  0.8753 -0.2469
 2184SOL    HW2 6609   3.557   4.062   1.935 -0.3177 -1.2402 -2.8316
 2185SOL     OW 6610   0.423   1.214   1.694 -0.3509 -0.0263 -0.0812
 2185SOL    HW1 6611   0.475   1.157   1.637  0.9918  0.9025  0.1733
 2185SOL    HW2 6612   0.374   1.270   1.634  1.2735  1.1429 -0.3867
 2186SOL     OW 6613   2.586   0.214   4.913  0.4914  0.3799 -0.0601
 2186SOL    HW1 6614   2.652   0.151   4.944  0.5915  0.2595 -0.5024
 2186SOL    HW2 6615   2.502   0.171   4.928  0.6066 -0.6410 -1.9609
 2187SOL     OW 6616   4.297   3.540   0.079  0.6399  0.3914  0.2771
 2187SOL    HW1 6617   4.310   3.449   0.052  0.8097  0.6916 -0.6929
 2187SOL    HW2 6618   4.344   3.591   0.014  2.9188  1.0952  2.3199
 2188SOL     OW 6619   1.900   2.850   0.520 -0.0774  0.1323 -0.1261
 2188SOL    HW1 6620   1.905   2.813   0.609 -0.4303  1.8839  0.6676
 2188SOL    HW2 6621   1.948   2.787   0.466  1.7652 -0.0948  1.6182
 2189SOL     OW 6622   1.467   4.936   4.526 -0.2485  0.5619  0.5111
 2189SOL    HW1 6623   1.525   5.011   4.539 -1.2995  1.2883  1.1366
 2189SOL    HW2 6624   1.385   4.974   4.494 -0.0546 -0.5424 -1.4592
 2190SOL     OW 6625   1.949   0.841   2.674  0.3965 -0.1362  0.1469
 2190SOL    HW1 6626   1.874   0.795   2.637 -0.4306  1.6241 -0.4374
 2190SOL    HW2 6627   1.992   0.882   2.599  0.7864  0.5125  0.7168
 2191SOL     OW 6628   0.771   3.253   2.991  0.1753 -0.2293  0.0311
 2191SOL    HW1 6629   0.728   3.265   3.075  1.8652 -2.2598  1.2775
 2191SOL    HW2 6630   0.800   3.341   2.966 -2.5044  0.8053  0.2601
 2192SOL     OW 6631   0.838   4.375   4.055 -0.4232 -0.3850 -0.1445
 2192SOL    HW1 6632   0.748   4.390   4.083 -0.8471 -2.0288 -0.5626
 2192SOL    HW2 6633   0.881   4.337   4.132  0.0430  0.7070  0.1676
 2193SOL     OW 6634   3.120   4.231   2.053 -0.2868 -0.0705  0.4106
 2193SOL    HW1 6635   3.121   4.212   2.147 -0.4500  0.7061  0.5843
 2193SOL    HW2 6636   3.029   4.216   2.027 -0.2979 -0.0515  0.4374
 2194SOL     OW 6637   4.584   0.034   3.996  0.1775  0.0605 -0.4896
 2194SOL    HW1 6638   4.621   0.111   4.041 -0.5720  0.8188 -1.1393
 2194SOL    HW2 6639   4.490   0.043   4.008  0.0506 -0.4381 -1.1010
 2195SOL     OW 6640   4.656   0.319   2.296  0.1566  0.1546  0.1231
 2195SOL    HW1 6641   4.718   0.392   2.290  0.7737 -0.3528  0.2821
 2195SOL    HW2 6642   4.602   0.339   2.372  0.1502  0.5708  0.0132
 2196SOL     OW 6643   4.552   0.959   4.866  0.5891 -0.3590  0.0178
 2196SOL    HW1 6644   4.520   0.904   4.937  0.0151  0.1426  0.1566
 2196SOL    HW2 6645   4.604   0.899   4.811 -0.0946 -1.0638  0.1118
 2197SOL     OW 6646   4.757   4.077   3.911  0.2938  0.3238  0.7230
 2197SOL    HW1 6647   4.795   4.043   3.992 -0.5715 -2.9169 -0.0929
 2197SOL    HW2 6648   4.715   4.001   3.870 -0.9379  2.2391 -1.8593
 2198SOL     OW 6649   4.797   1.167   3.909  0.2727  0.0010  0.4129
 2198SOL    HW1 6650   4.771   1.249   3.951  1.1148  0.9087 -0.7768
 2198SOL    HW2 6651   4.749   1.167   3.826  1.3252 -0.0282 -0.2110
 2199SOL     OW 6652   1.712   0.437   4.377  0.0438 -0.5616 -0.2664
 2199SOL    HW1 6653   1.670   0.475   4.454  1.1757  0.6457 -0.1903
 2199SOL    HW2 6654   1.683   0.491   4.304  0.3498 -0.5951 -0.4171
 2200SOL     OW 6655   2.801   0.496   1.049 -0.0513 -0.3809  0.5007
 2200SOL    HW1 6656   2.727   0.448   1.086  0.0886 -2.2835 -1.4669
 2200SOL    HW2 6657   2.766   0.583   1.029 -1.1536 -0.5715  1.5060
 2201SOL     OW 6658   0.708   1.290   1.270 -0.1047  0.5978  0.1760
 2201SOL    HW1 6659   0.677   1.344   1.344  0.4817  1.4753 -0.2040
 2201SOL    HW2 6660   0.803   1.299   1.272  0.1381 -1.6410  0.9944
 2202SOL     OW 6661   0.599   3.707   1.895 -0.3314  0.3562 -0.1208
 2202SOL    HW1 6662   0.688   3.743   1.892 -0.3629  0.3549 -1.5814
 2202SOL    HW2 6663   0.584   3.689   1.988  1.3083  0.0751  0.1252
 2203SOL     OW 6664   3.560   1.573   0.569 -0.2583  0.2900  0.0442
 2203SOL    HW1 6665   3.526   1.643   0.514  1.4330  0.9223 -0.2311
 2203SOL    HW2 6666   3.624   1.616   0.626  0.6942 -1.0008 -0.0239
 2204SOL     OW 6667   2.305   2.365   4.643  0.4147  0.0488  0.3621
 2204SOL    HW1 6668   2.310   2.354   4.548  0.8866 -1.3005  0.5283
 2204SOL    HW2 6669   2.212   2.375   4.661  0.3970  1.4117 -0.3354
 2205SOL     OW 6670   3.269   3.728   1.007  0.0379  0.2938  0.3364
 2205SOL    HW1 6671   3.303   3.654   0.956 -0.9833 -0.0489  0.1201
 2205SOL    HW2 6672   3.270   3.698   1.097  0.1151  0.2099  0.3078
 2206SOL     OW 6673   3.048   3.077   4.480 -0.1328  0.3149  0.4115
 2206SOL    HW1 6674   2.984   3.012   4.507 -3.2379  2.7896 -0.4059
 2206SOL    HW2 6675   3.002   3.161   4.485  2.2405  2.0452 -2.5998
 2207SOL     OW 6676   3.564   1.473   1.707 -0.1586  0.0887  0.3068
 2207SOL    HW1 6677   3.474   1.505   1.711 -0.7543 -1.3412 -0.6445
 2207SOL    HW2 6678   3.618   1.551   1.713 -1.4737  1.0325  0.3267
 2208SOL     OW 6679   1.782   2.234   4.122  0.1129  0.1522 -0.5165
 2208SOL    HW1 6680   1.736   2.240   4.038 -0.8400  1.7717  0.0729
 2208SOL    HW2 6681   1.756   2.149   4.157 -1.4579  0.4732 -0.7954
 2209SOL     OW 6682   0.076   4.726   1.530 -0.1265 -0.1228 -0.6355
 2209SOL    HW1 6683   0.120   4.777   1.598  0.4133 -2.5990  1.0000
 2209SOL    HW2 6684   0.139   4.722   1.459  0.0039  1.0637 -0.6025
 2210SOL     OW 6685   1.906   1.500   1.212  0.1245 -0.6326 -0.4726
 2210SOL    HW1 6686   1.988   1.544   1.190  1.3792 -1.9724  1.2530
 2210SOL    HW2 6687   1.846   1.571   1.234  0.6383  0.3994 -2.2018
 2211SOL     OW 6688   3.315   2.648   3.979  0.4655 -0.2694 -0.2676
 2211SOL    HW1 6689   3.259   2.666   4.055 -0.0970 -0.7181 -0.5708
 2211SOL    HW2 6690   3.260   2.664   3.903  0.8659 -0.3444 -0.5795
 2212SOL     OW 6691   3.236   0.857   4.650  0.1082  0.3060 -0.6083
 2212SOL    HW1 6692   3.206   0.928   4.707 -1.9919  0.4924 -1.8542
 2212SOL    HW2 6693   3.237   0.780   4.707  0.7741  0.9923  0.3411
 2213SOL     OW 6694   2.090   4.454   1.525  0.4908 -0.2528  0.5906
 2213SOL    HW1 6695   1.996   4.445   1.540 -0.2869 -0.6498 -3.3561
 2213SOL    HW2 6696   2.121   4.364   1.512  1.3651 -0.0986  1.5294
 2214SOL     OW 6697   2.390   1.640   2.051  0.5642 -0.1141  1.2481
 2214SOL    HW1 6698   2.364   1.548   2.057 -0.2241 -0.0924 -0.9210
 2214SOL    HW2 6699   2.335   1.685   2.115  2.3024 -1.3114  3.7799
 2215SOL     OW 6700   1.538   3.140   2.995  0.8468 -0.0540 -0.0605
 2215SOL    HW1 6701   1.463   3.094   2.956 -0.1410  0.6166  0.9777
 2215SOL    HW2 6702   1.589   3.071   3.038 -0.0386 -0.3473  0.5534
 2216SOL     OW 6703   0.946   0.508   1.787  1.0680  0.2981 -0.4451
 2216SOL    HW1 6704   0.950   0.415   1.810  1.5736  0.4688  0.1836
 2216SOL    HW2 6705   0.873   0.515   1.725  0.4166 -0.3613  0.2347
 2217SOL     OW 6706   3.274   3.315   0.495 -0.0426  0.0236 -0.2183
 2217SOL    HW1 6707   3.354   3.265   0.513 -1.3833 -2.4571 -0.7570
 2217SOL    HW2 6708   3.207   3.274   0.549 -1.5258  0.2417 -1.7958
 2218SOL     OW 6709   1.861   1.002   1.096  0.2003  0.4914 -0.4767
 2218SOL    HW1 6710   1.890   1.092   1.082 -1.1981  1.0820  0.1608
 2218SOL    HW2 6711   1.842   0.969   1.008  1.5056  0.5246 -0.7822
 2219SOL     OW 6712   2.399   0.916   0.569 -0.2843 -0.2986 -0.5644
 2219SOL    HW1 6713   2.304   0.911   0.558 -0.1547  0.3050 -2.2584
 2219SOL    HW2 6714   2.425   0.828   0.596 -1.4125 -0.2088  0.9687
 2220SOL     OW 6715   4.352   2.078   0.835 -0.0873  0.3893 -0.0721
 2220SOL    HW1 6716   4.311   2.134   0.901 -0.0123  0.7011 -0.2858
 2220SOL    HW2 6717   4.291   2.079   0.761 -0.6572 -0.7681  0.3604
 2221SOL     OW 6718   4.897   1.839   1.377 -0.4206 -0.7114  0.4468
 2221SOL    HW1 6719   4.944   1.919   1.400  0.8014 -0.5632 -2.1707
 2221SOL    HW2 6720   4.819   1.868   1.330  1.2273 -0.9114 -2.6830
 2222SOL     OW 6721   1.774   4.433   4.586 -0.0373 -0.7272 -0.3874
 2222SOL    HW1 6722   1.702   4.480   4.629  0.2813 -0.0199 -0.6087
 2222SOL    HW2 6723   1.851   4.453   4.640 -0.1501 -2.1950  0.3559
 2223SOL     OW 6724   3.862   1.636   4.666 -0.0612 -0.0039  0.2034
 2223SOL    HW1 6725   3.797   1.661   4.601 -0.4183  0.7962  0.8519
 2223SOL    HW2 6726   3.902   1.556   4.631 -0.2263  0.4298 -1.0004
 2224SOL     OW 6727   2.167   4.021   3.311  0.0734 -0.0141 -0.2420
 2224SOL    HW1 6728   2.169   3.936   3.268 -1.1278 -0.7524  1.0785
 2224SOL    HW2 6729   2.257   4.037   3.338 -0.2289 -2.8539  3.0874
 2225SOL     OW 6730   0.638   2.782   3.180 -0.1786  0.1640 -0.7688
 2225SOL    HW1 6731   0.634   2.872   3.147 -0.1161  0.1530 -0.8070
 2225SOL    HW2 6732   0.658   2.792   3.273 -1.1987  0.2213 -0.5465
 2226SOL     OW 6733   3.286   2.265   3.648 -0.4171  0.2736 -0.4002
 2226SOL    HW1 6734   3.273   2.285   3.556  0.2073  1.5415 -0.2467
 2226SOL    HW2 6735   3.288   2.170   3.653  1.7913  0.1669 -2.0437
 2227SOL     OW 6736   2.543   3.370   2.690  0.7723  0.0001 -0.1034
 2227SOL    HW1 6737   2.505   3.390   2.776 -0.2745 -0.3561 -0.4644
 2227SOL    HW2 6738   2.570   3.455   2.656  1.5282  0.1002  0.7292
 2228SOL     OW 6739   4.876   0.690   2.955 -0.0437 -0.7151  0.0275
 2228SOL    HW1 6740   4.914   0.752   2.892 -0.8601 -0.9250 -0.6984
 2228SOL    HW2 6741   4.926   0.704   3.035  2.0319 -1.4708 -1.0570
 2229SOL     OW 6742   1.490   2.202   3.469  0.2301 -0.4380  0.2537
 2229SOL    HW1 6743   1.577   2.213   3.430 -0.0568 -2.9932 -1.3616
 2229SOL    HW2 6744   1.507   2.154   3.550  0.2947 -2.1813 -0.7444
 2230SOL     OW 6745   1.718   3.128   3.531 -0.2358  0.5459 -0.1555
 2230SOL    HW1 6746   1.661   3.200   3.557  1.3589  1.3913  1.2062
 2230SOL    HW2 6747   1.735   3.143   3.438 -2.1342  0.2970 -0.5724
 2231SOL     OW 6748   3.147   4.192   1.001  0.1289 -0.2301  0.1521
 2231SOL    HW1 6749   3.167   4.282   1.026 -0.8354  0.2201 -0.6339
 2231SOL    HW2 6750   3.054   4.195   0.975  0.2255 -1.3442 -0.3548
 2232SOL     OW 6751   0.578   3.917   1.144  0.0158  1.0774  0.5992
 2232SOL    HW1 6752   0.490   3.949   1.161 -1.5380 -1.1271 -2.3467
 2232SOL    HW2 6753   0.579   3.828   1.181 -0.4642 -0.3757 -2.5102
 2233SOL     OW 6754   0.844   0.195   2.979 -0.1307  0.4721  0.4945
 2233SOL    HW1 6755   0.776   0.132   2.958 -0.0733  1.1964 -2.1550
 2233SOL    HW2 6756   0.916   0.142   3.013 -0.7026 -0.6927 -0.0675
 2234SOL     OW 6757   4.617   2.810   2.899 -0.6392 -0.2332 -0.2620
 2234SOL    HW1 6758   4.615   2.721   2.863  0.3358 -0.3540 -0.0552
 2234SOL    HW2 6759   4.687   2.807   2.964 -1.3493  0.3874  0.5649
 2235SOL     OW 6760   2.543   1.954   2.802 -0.0413 -0.1165 -0.5152
 2235SOL    HW1 6761   2.576   1.914   2.722 -1.6318 -1.2531 -0.6583
 2235SOL    HW2 6762   2.508   1.880   2.852  2.4471  0.2736  2.0782
 2236SOL     OW 6763   1.609   0.602   4.163 -0.1118  0.2885  0.9331
 2236SOL    HW1 6764   1.674   0.633   4.100  0.1346  0.4632  1.2710
 2236SOL    HW2 6765   1.540   0.562   4.109  1.1382 -1.5893  0.6290
 2237SOL     OW 6766   0.219   0.248   0.992  0.5014  0.2410 -0.2982
 2237SOL    HW1 6767   0.142   0.222   0.942  0.8243 -0.1443 -0.5988
 2237SOL    HW2 6768   0.269   0.167   1.004  1.1247  0.5783 -0.5701
 2238SOL     OW 6769   2.526   2.231   3.169 -0.5180 -0.1613  0.2600
 2238SOL    HW1 6770   2.568   2.158   3.123 -1.7012 -1.1009  0.6122
 2238SOL    HW2 6771   2.432   2.217   3.156 -0.7687  1.8197 -0.4172
 2239SOL     OW 6772   2.751   4.281   3.040  0.1618  0.4738 -0.0622
 2239SOL    HW1 6773   2.699   4.358   3.062 -1.4311  0.2633 -2.6298
 2239SOL    HW2 6774   2.746   4.276   2.944  1.4270 -2.0172 -0.0771
 2240SOL     OW 6775   2.690   3.676   0.457  0.2980 -0.2286 -0.2397
 2240SOL    HW1 6776   2.657   3.610   0.396  0.8034 -1.0797  0.3876
 2240SOL    HW2 6777   2.771   3.638   0.491 -0.2450 -0.0077  1.3542
 2241SOL     OW 6778   0.256   1.884   3.757 -0.5360  0.0799  0.3409
 2241SOL    HW1 6779   0.261   1.851   3.667 -0.3634  0.0648  0.3554
 2241SOL    HW2 6780   0.237   1.978   3.747  3.3389  1.0002  0.1421
 2242SOL     OW 6781   4.966   1.778   4.203 -0.2220 -0.0831  0.0527
 2242SOL    HW1 6782   4.995   1.774   4.112 -1.7189 -0.4639 -0.4389
 2242SOL    HW2 6783   4.930   1.866   4.214  0.6491  0.2309  0.5245
 2243SOL     OW 6784   3.606   4.719   1.777 -0.5790 -0.4814 -0.7425
 2243SOL    HW1 6785   3.535   4.775   1.810 -0.2876 -0.5493  0.0151
 2243SOL    HW2 6786   3.600   4.639   1.829  0.0858 -0.4677 -0.6378
 2244SOL     OW 6787   4.212   2.190   0.192 -0.3183 -0.0159 -0.0159
 2244SOL    HW1 6788   4.253   2.134   0.258  1.5000  1.8219  0.5011
 2244SOL    HW2 6789   4.118   2.182   0.209 -0.1288 -2.6933  0.1532
 2245SOL     OW 6790   4.388   3.411   1.718  0.4713  0.1329  0.4544
 2245SOL    HW1 6791   4.439   3.367   1.787  0.2802 -1.8432 -0.5949
 2245SOL    HW2 6792   4.312   3.354   1.705 -0.4315  1.4386 -0.1436
 2246SOL     OW 6793   2.628   1.004   2.462 -0.0848  0.0206 -0.4989
 2246SOL    HW1 6794   2.717   1.015   2.428  0.9324 -1.6929  1.3649
 2246SOL    HW2 6795   2.611   1.083   2.513  1.6386 -0.8585  1.5913
 2247SOL     OW 6796   2.858   4.687   2.185 -1.1048  0.0310 -0.2053
 2247SOL    HW1 6797   2.789   4.749   2.210 -1.6271 -0.9502  0.8517
 2247SOL    HW2 6798   2.924   4.696   2.255 -2.0731 -1.9474  1.0532
 2248SOL     OW 6799   0.078   0.696   3.699  0.1596  1.0430 -0.0965
 2248SOL    HW1 6800   0.088   0.701   3.794  0.8345  2.1327 -0.2195
 2248SOL    HW2 6801   0.023   0.619   3.685 -2.3313  2.4434  1.3473
 2249SOL     OW 6802   0.017   3.502   3.852 -0.2433  0.0322  0.4685
 2249SOL    HW1 6803  -0.049   3.455   3.903 -2.2862  0.7747 -1.3413
 2249SOL    HW2 6804   0.013   3.591   3.885  1.6422 -0.3642  1.9713
 2250SOL     OW 6805   0.400   2.251   2.972  0.2375 -0.0411  0.1197
 2250SOL    HW1 6806   0.484   2.207   2.986 -0.2735 -0.5215  1.8934
 2250SOL    HW2 6807   0.342   2.181   2.940  0.4558  0.2642 -0.9849
 2251SOL     OW 6808   2.758   1.684   0.627  0.1572 -0.2755  0.4858
 2251SOL    HW1 6809   2.846   1.681   0.588 -0.6436 -1.1236 -1.3739
 2251SOL    HW2 6810   2.701   1.715   0.557 -0.9667  0.8765  1.8482
 2252SOL     OW 6811   3.792   0.266   3.748  0.2710 -0.0679 -0.1332
 2252SOL    HW1 6812   3.855   0.227   3.687  0.9465  2.8304 -1.4539
 2252SOL    HW2 6813   3.842   0.279   3.828  0.1140 -1.5034  0.2353
 2253SOL     OW 6814   0.082   0.074   2.010  0.4869  0.7420  0.1747
 2253SOL    HW1 6815   0.057   0.071   1.918  2.1555  0.7914 -0.3041
 2253SOL    HW2 6816   0.009   0.118   2.053  0.3998  2.2164 -1.3806
 2254SOL     OW 6817   4.238   2.802   3.518 -0.1973 -0.0393 -0.3307
 2254SOL    HW1 6818   4.251   2.877   3.460  0.1614 -0.5605 -0.9383
 2254SOL    HW2 6819   4.318   2.799   3.571 -0.8358  0.8826  0.7337
 2255SOL     OW 6820   0.307   0.938   1.062 -0.1215 -0.6292  0.1661
 2255SOL    HW1 6821   0.242   1.006   1.043  0.4817  0.0177  0.3655
 2255SOL    HW2 6822   0.363   0.935   0.985 -1.0916 -2.0445 -0.5211
 2256SOL     OW 6823   3.553   3.925   1.173 -0.1353 -0.2200  0.1000
 2256SOL    HW1 6824   3.483   3.898   1.114  0.1080 -1.2185  0.2446
 2256SOL    HW2 6825   3.518   4.001   1.219 -1.2426 -0.8814  0.3861
 2257SOL     OW 6826   1.952   4.894   4.893 -0.2517 -0.1361  0.2132
 2257SOL    HW1 6827   1.881   4.934   4.842 -0.5286 -1.0136 -0.1107
 2257SOL    HW2 6828   1.990   4.829   4.834  2.2132  1.6918 -0.3837
 2258SOL     OW 6829   3.542   2.266   2.103  0.2541 -0.0121  0.0297
 2258SOL    HW1 6830   3.517   2.201   2.168  3.0282  1.4211  2.7712
 2258SOL    HW2 6831   3.506   2.348   2.136  0.6573  0.5797 -0.9559
 2259SOL     OW 6832   0.223   0.278   3.610 -0.3963 -0.3402 -0.1498
 2259SOL    HW1 6833   0.211   0.183   3.603 -1.0741 -0.2387 -0.4265
 2259SOL    HW2 6834   0.280   0.300   3.536 -0.8618 -0.4316 -0.5435
 2260SOL     OW 6835   3.318   3.987   1.341 -0.8033  0.2184  0.2037
 2260SOL    HW1 6836   3.301   3.975   1.248 -0.2790  1.2350 -0.0302
 2260SOL    HW2 6837   3.233   3.971   1.383 -1.5284  1.7211 -0.6258
 2261SOL     OW 6838   2.868   2.371   3.559  0.1159 -0.5818 -0.0247
 2261SOL    HW1 6839   2.815   2.325   3.624  1.0594  0.6708  1.7070
 2261SOL    HW2 6840   2.873   2.310   3.485 -3.7268 -0.7633 -0.3340
 2262SOL     OW 6841   0.584   0.224   1.165  0.2171 -0.4507 -0.2954
 2262SOL    HW1 6842   0.548   0.136   1.151  0.2087 -0.4101 -0.5337
 2262SOL    HW2 6843   0.538   0.257   1.243 -0.7358 -0.1405 -0.9730
 2263SOL     OW 6844   1.813   0.344   0.139 -0.1776 -0.0089  0.3910
 2263SOL    HW1 6845   1.895   0.379   0.104 -0.1983  1.1576  1.4247
 2263SOL    HW2 6846   1.771   0.303   0.064  0.0477  1.8745 -0.8446
 2264SOL     OW 6847   2.631   3.014   4.690 -0.0200  0.0916  0.1709
 2264SOL    HW1 6848   2.551   2.967   4.668 -0.1800  0.7292 -0.6351
 2264SOL    HW2 6849   2.639   3.081   4.623  1.2819 -0.0622  0.1479
 2265SOL     OW 6850   1.273   2.173   1.196 -0.1552  0.0813 -0.3582
 2265SOL    HW1 6851   1.358   2.129   1.196  1.9027  3.6925  1.1709
 2265SOL    HW2 6852   1.266   2.211   1.109 -0.3727 -0.4244 -0.5686
 2266SOL     OW 6853   3.853   3.040   3.032 -0.4573  0.2843 -0.5666
 2266SOL    HW1 6854   3.913   3.025   3.105 -0.8748  0.4702 -0.1806
 2266SOL    HW2 6855   3.796   3.111   3.062  0.1018  1.1704 -1.5240
 2267SOL     OW 6856   2.982   1.957   0.591  0.2325  0.4158 -0.2375
 2267SOL    HW1 6857   2.931   2.023   0.545 -0.3251 -0.5350 -1.0237
 2267SOL    HW2 6858   2.950   1.961   0.682 -1.3463 -0.2255 -0.7308
 2268SOL     OW 6859   1.379   1.066   3.004 -0.3290 -0.0432 -0.2670
 2268SOL    HW1 6860   1.381   1.122   3.082  0.5911 -1.3964  0.7176
 2268SOL    HW2 6861   1.290   1.078   2.969 -0.6789  0.7781  0.8414
 2269SOL     OW 6862   4.592   4.220   2.575 -0.2277  0.2723  0.4033
 2269SOL    HW1 6863   4.523   4.259   2.630 -0.3271 -0.9400  1.1727
 2269SOL    HW2 6864   4.653   4.292   2.558 -1.2291  1.1550  0.4274
 2270SOL     OW 6865   4.672   0.036   3.158 -0.0589  0.4101  0.9009
 2270SOL    HW1 6866   4.694  -0.048   3.118 -0.3382  0.3070  0.9588
 2270SOL    HW2 6867   4.596   0.017   3.214 -0.3842  0.7816  0.5904
 2271SOL     OW 6868   2.854   2.512   4.652 -0.0211  0.1428 -0.0104
 2271SOL    HW1 6869   2.845   2.484   4.561  1.6562 -3.3351  0.7154
 2271SOL    HW2 6870   2.947   2.534   4.661 -0.3106  1.1586  0.7378
 2272SOL     OW 6871   3.980   0.110   1.704 -0.6173 -0.1653  0.0136
 2272SOL    HW1 6872   3.957   0.124   1.612 -0.9499  1.5608  0.3270
 2272SOL    HW2 6873   3.930   0.032   1.730 -2.1423  0.5313 -0.7197
 2273SOL     OW 6874   4.939   1.491   0.234 -0.3212  0.6595  0.2846
 2273SOL    HW1 6875   4.907   1.428   0.299  2.2548 -0.7450  0.3532
 2273SOL    HW2 6876   4.930   1.446   0.150 -1.3270  1.4815 -0.0696
 2274SOL     OW 6877   1.652   3.834   2.266  0.5261  0.0000  0.8098
 2274SOL    HW1 6878   1.723   3.771   2.281 -1.9510 -3.3290 -0.3141
 2274SOL    HW2 6879   1.588   3.815   2.334 -0.0518  1.8349  0.8284
 2275SOL     OW 6880   1.745   1.167   2.734  0.1645  0.4168 -0.3726
 2275SOL    HW1 6881   1.707   1.084   2.706  0.8147  0.8826 -2.8986
 2275SOL    HW2 6882   1.810   1.144   2.800  0.3905 -1.0976 -1.0986
 2276SOL     OW 6883   3.654   2.503   1.133 -1.1880  0.5836  0.3214
 2276SOL    HW1 6884   3.568   2.544   1.137 -0.8617  1.3561 -0.2692
 2276SOL    HW2 6885   3.636   2.409   1.126 -2.0049  0.7900 -0.5915
 2277SOL     OW 6886   3.468   4.965   2.676  0.1149  0.1670  0.1581
 2277SOL    HW1 6887   3.413   4.929   2.745 -0.7525  1.2509  0.0576
 2277SOL    HW2 6888   3.492   5.052   2.707 -1.9488  1.5202 -1.7194
 2278SOL     OW 6889   4.896   1.472   1.144 -0.3008 -0.1886 -0.3779
 2278SOL    HW1 6890   4.942   1.413   1.203 -0.8782  0.1757  0.4595
 2278SOL    HW2 6891   4.803   1.452   1.158 -0.4898  0.7381 -0.2740
 2279SOL     OW 6892   3.525   0.838   2.969 -0.0310  0.1360  0.1892
 2279SOL    HW1 6893   3.566   0.778   2.906  0.9586  2.2931 -1.3230
 2279SOL    HW2 6894   3.591   0.849   3.037 -1.0254 -2.0430  1.6009
 2280SOL     OW 6895   0.380   1.785   3.511 -0.0198 -0.4476 -0.1051
 2280SOL    HW1 6896   0.468   1.749   3.524  2.7101  4.3462 -2.5627
 2280SOL    HW2 6897   0.360   1.765   3.419  0.4616  1.7883 -0.7620
 2281SOL     OW 6898   2.490   3.069   0.826 -0.0767  0.1555  0.3647
 2281SOL    HW1 6899   2.478   3.131   0.898  0.0889  0.1060  0.4347
 2281SOL    HW2 6900   2.526   3.121   0.754 -2.5222  0.7407 -0.5245
 2282SOL     OW 6901   0.830   4.364   4.355 -0.3274 -0.2536  0.2306
 2282SOL    HW1 6902   0.764   4.432   4.363 -0.4033 -0.1630 -1.0248
 2282SOL    HW2 6903   0.877   4.366   4.438  1.2502  2.9456 -0.6063
 2283SOL     OW 6904   2.092   3.481   0.763  0.4050 -0.6805 -0.1650
 2283SOL    HW1 6905   2.104   3.387   0.748 -2.7407 -0.9268 -2.1152
 2283SOL    HW2 6906   2.089   3.519   0.676  0.6209  1.1073  0.5671
 2284SOL     OW 6907   3.139   0.045   0.703  0.1696  0.0473  0.3976
 2284SOL    HW1 6908   3.147  -0.021   0.772 -1.0185  0.1408  0.6476
 2284SOL    HW2 6909   3.190   0.009   0.630 -0.3104 -1.0695  0.5835
 2285SOL     OW 6910   1.944   3.406   0.234  0.5556 -0.3694  0.1336
 2285SOL    HW1 6911   1.917   3.437   0.321  0.2086 -1.1057  0.2996
 2285SOL    HW2 6912   1.967   3.314   0.248 -1.4909 -1.1008 -0.9346
 2286SOL     OW 6913   2.837   3.079   2.432  0.0168  0.5339  0.1376
 2286SOL    HW1 6914   2.756   3.030   2.417  1.1298 -2.1456  2.0909
 2286SOL    HW2 6915   2.902   3.038   2.375  0.6175  0.8494  0.5771
 2287SOL     OW 6916   2.625   2.640   4.709  0.3057  0.2215 -0.0833
 2287SOL    HW1 6917   2.712   2.600   4.709  0.1561 -0.3054 -2.9577
 2287SOL    HW2 6918   2.573   2.584   4.766  1.6698  0.1671  1.1569
 2288SOL     OW 6919   0.076   2.246   0.785  0.9627 -0.5070  0.7025
 2288SOL    HW1 6920  -0.016   2.223   0.794  0.8512 -0.2745  0.1696
 2288SOL    HW2 6921   0.103   2.208   0.702  0.5644  1.8898 -0.5916
 2289SOL     OW 6922   2.620   2.015   1.898 -0.0091  0.5177  0.2676
 2289SOL    HW1 6923   2.672   1.946   1.939  0.5030  0.8840  0.2376
 2289SOL    HW2 6924   2.545   2.026   1.956  0.7240  1.0633  1.1437
 2290SOL     OW 6925   4.242   3.060   3.352  0.3456 -0.4692 -0.2562
 2290SOL    HW1 6926   4.237   3.147   3.313  1.9117 -1.5556 -3.1638
 2290SOL    HW2 6927   4.335   3.039   3.353 -0.0670 -2.6316 -0.9800
 2291SOL     OW 6928   4.594   4.800   4.155  0.0590 -0.0003 -0.3569
 2291SOL    HW1 6929   4.654   4.846   4.097  1.8373 -0.5422  0.9648
 2291SOL    HW2 6930   4.580   4.860   4.228 -0.7544 -0.0166 -0.4906
 2292SOL     OW 6931   3.866   0.778   4.855  0.0016 -0.0257  0.3153
 2292SOL    HW1 6932   3.841   0.686   4.843  0.3290  0.0427 -1.0555
 2292SOL    HW2 6933   3.782   0.825   4.862 -0.1920 -0.2611 -0.3855
 2293SOL     OW 6934   4.594   3.830   0.793  0.3276  0.2119 -0.2477
 2293SOL    HW1 6935   4.499   3.835   0.799  0.3843  0.0763  1.1946
 2293SOL    HW2 6936   4.615   3.859   0.704 -0.9544  1.6214 -0.1155
 2294SOL     OW 6937   3.198   2.528   1.448 -0.4871  0.5813  0.2133
 2294SOL    HW1 6938   3.170   2.443   1.481  1.4285  0.0020  0.4528
 2294SOL    HW2 6939   3.203   2.584   1.525  0.4541  0.2521  0.4025
 2295SOL     OW 6940   0.115   4.008   0.673 -0.1296 -0.1947 -0.5971
 2295SOL    HW1 6941   0.093   3.947   0.744 -0.8095  1.2283  0.4616
 2295SOL    HW2 6942   0.144   4.087   0.718 -0.9933  0.9011 -1.9000
 2296SOL     OW 6943   3.893   1.427   1.287 -0.5156 -0.2322  0.0613
 2296SOL    HW1 6944   3.832   1.387   1.225  0.5754 -0.3963 -0.9315
 2296SOL    HW2 6945   3.895   1.366   1.361 -1.5881 -0.1894  0.1426
 2297SOL     OW 6946   3.780   2.669   4.904 -0.0118 -0.4292 -0.2777
 2297SOL    HW1 6947   3.804   2.584   4.941 -0.6976 -0.2841  0.5238
 2297SOL    HW2 6948   3.860   2.699   4.861  0.5941 -0.9562  0.4354
 2298SOL     OW 6949   2.203   4.759   0.251 -0.1533  0.3535  0.1885
 2298SOL    HW1 6950   2.116   4.794   0.228 -0.1287  0.0828 -0.3098
 2298SOL    HW2 6951   2.258   4.781   0.177  0.0824  0.0583  0.2761
 2299SOL     OW 6952   3.824   3.108   0.640  0.2196  0.2864 -0.2800
 2299SOL    HW1 6953   3.802   3.198   0.615 -1.2155 -0.7849 -3.3164
 2299SOL    HW2 6954   3.774   3.093   0.720 -2.5353  1.0809 -1.7281
 2300SOL     OW 6955   1.040   1.172   4.412 -0.0878  0.7379  0.1085
 2300SOL    HW1 6956   1.049   1.202   4.502 -2.7612 -1.0232  1.0718
 2300SOL    HW2 6957   0.996   1.244   4.367  0.0305  1.0854  0.5417
 2301SOL     OW 6958   4.960   3.936   3.649  0.2010 -0.0908  0.7472
 2301SOL    HW1 6959   4.944   4.028   3.626  1.2743 -0.2534 -0.7726
 2301SOL    HW2 6960   4.878   3.907   3.690 -0.2302  1.4679  1.0535
 2302SOL     OW 6961   3.615   2.587   2.542 -0.3553 -0.2880 -0.0118
 2302SOL    HW1 6962   3.668   2.658   2.579 -2.4320  1.2044  0.2815
 2302SOL    HW2 6963   3.639   2.510   2.593  1.4470  0.3102  0.1398
 2303SOL     OW 6964   0.270   1.589   2.184 -0.2272  0.6664 -0.4398
 2303SOL    HW1 6965   0.358   1.565   2.210 -1.6826 -2.7859  2.0416
 2303SOL    HW2 6966   0.224   1.607   2.266 -2.4116 -0.1702 -1.3934
 2304SOL     OW 6967   3.995   3.934   2.821 -0.1206 -0.3974  0.0618
 2304SOL    HW1 6968   3.906   3.905   2.801  0.4142 -0.4984 -2.5063
 2304SOL    HW2 6969   4.048   3.855   2.813  0.3463 -0.1406  0.5813
 2305SOL     OW 6970   2.073   2.334   1.387 -0.3052  0.0553  0.3004
 2305SOL    HW1 6971   1.995   2.347   1.333 -0.0108  0.5855 -0.0048
 2305SOL    HW2 6972   2.098   2.422   1.415 -0.6315 -0.2295  1.5758
 2306SOL     OW 6973   2.871   3.660   4.046 -0.6001 -0.1157 -0.3444
 2306SOL    HW1 6974   2.874   3.747   4.007 -1.3649 -0.8940 -2.2524
 2306SOL    HW2 6975   2.778   3.647   4.069 -0.7215 -0.8886 -1.2255
 2307SOL     OW 6976   3.900   4.037   1.406 -0.3145  0.5804 -0.1873
 2307SOL    HW1 6977   3.968   4.104   1.413  0.3952 -0.2301  1.0662
 2307SOL    HW2 6978   3.944   3.961   1.369 -0.4363 -0.0584  0.9385
 2308SOL     OW 6979   2.669   0.294   2.628  0.5066 -0.0806  0.6165
 2308SOL    HW1 6980   2.727   0.249   2.689  0.8467  0.7331  0.9010
 2308SOL    HW2 6981   2.599   0.330   2.683 -0.4380 -1.2661  0.2521
 2309SOL     OW 6982   3.627   2.057   4.532 -0.2910  0.5746  0.1237
 2309SOL    HW1 6983   3.646   2.012   4.614 -0.2388  1.3508  0.5511
 2309SOL    HW2 6984   3.540   2.027   4.507  0.4183 -1.0424 -0.4890
 2310SOL     OW 6985   1.569   1.499   2.485  0.2811  0.2226  0.1498
 2310SOL    HW1 6986   1.546   1.440   2.557  1.1802  1.5485  1.6024
 2310SOL    HW2 6987   1.571   1.444   2.408 -1.8396 -1.0581  0.9299
 2311SOL     OW 6988   2.862   4.865   1.803 -0.5249  0.6114 -0.2708
 2311SOL    HW1 6989   2.767   4.860   1.817 -0.1479 -1.8596  2.2430
 2311SOL    HW2 6990   2.884   4.783   1.759  0.6893  0.0366  1.3249
 2312SOL     OW 6991   1.228   1.358   1.082  0.2095  0.5229 -0.0847
 2312SOL    HW1 6992   1.144   1.328   1.048 -0.7957  1.7801  1.1512
 2312SOL    HW2 6993   1.263   1.413   1.013 -0.0054  0.0306 -0.5938
 2313SOL     OW 6994   0.489   4.536   2.374  0.5286  0.3379  0.0792
 2313SOL    HW1 6995   0.489   4.565   2.466 -1.6871 -0.6653  0.4591
 2313SOL    HW2 6996   0.433   4.600   2.329 -0.1151 -0.3493 -0.1203
 2314SOL     OW 6997   1.641   4.792   1.236 -0.1717 -0.5213 -0.4877
 2314SOL    HW1 6998   1.587   4.794   1.157  0.1979 -0.9204 -0.7536
 2314SOL    HW2 6999   1.705   4.724   1.220 -0.5378 -1.1103  0.4668
 2315SOL     OW 7000   2.247   1.798   2.912  0.1311  0.1663 -0.1436
 2315SOL    HW1 7001   2.243   1.831   3.002  1.2602  0.9734 -0.3630
 2315SOL    HW2 7002   2.191   1.721   2.912 -0.2547  0.4235  1.1391
 2316SOL     OW 7003   2.640   4.271   1.024 -0.1222  0.6699  0.2849
 2316SOL    HW1 7004   2.636   4.365   1.007 -0.6961  0.3286 -1.6655
 2316SOL    HW2 7005   2.560   4.236   0.986  1.2502 -0.9200 -1.3139
 2317SOL     OW 7006   0.818   2.499   3.591 -0.3396  0.1561  0.0974
 2317SOL    HW1 7007   0.885   2.453   3.541 -0.1658  0.4676  0.0416
 2317SOL    HW2 7008   0.755   2.528   3.525  1.8992  4.1159 -0.5638
 2318SOL     OW 7009   2.607   1.529   4.853 -0.7861 -0.0749 -0.2726
 2318SOL    HW1 7010   2.695   1.527   4.815 -0.4997  3.1013 -0.0808
 2318SOL    HW2 7011   2.619   1.498   4.943 -0.5612 -2.8804 -1.1984
 2319SOL     OW 7012   0.556   2.524   2.645 -0.1535  0.0367  0.2448
 2319SOL    HW1 7013   0.492   2.536   2.574 -0.3980  1.0025  0.6183
 2319SOL    HW2 7014   0.598   2.609   2.655 -0.1835 -0.0630  1.3164
 2320SOL     OW 7015   2.622   1.714   1.119  0.6500  0.9765 -0.1230
 2320SOL    HW1 7016   2.546   1.759   1.157  0.3251  0.9525 -0.7253
 2320SOL    HW2 7017   2.626   1.746   1.029  0.8360  0.3241 -0.3516
 2321SOL     OW 7018   4.217   4.162   3.656 -0.5076 -0.0968 -0.1036
 2321SOL    HW1 7019   4.126   4.140   3.636 -0.4610 -0.1202 -0.2949
 2321SOL    HW2 7020   4.242   4.100   3.724  0.0165 -1.5510 -1.5280
 2322SOL     OW 7021   2.154   3.001   4.594  0.6481  0.4897  0.3732
 2322SOL    HW1 7022   2.129   3.011   4.686 -0.4343  0.7593  0.0572
 2322SOL    HW2 7023   2.096   2.933   4.561  1.2815  0.1357 -0.0246
 2323SOL     OW 7024   0.228   3.115   3.883  0.0479  0.5433  0.6047
 2323SOL    HW1 7025   0.302   3.174   3.900  0.7993 -0.1049 -0.3241
 2323SOL    HW2 7026   0.238   3.045   3.948  1.5877 -0.7163 -0.8675
 2324SOL     OW 7027   4.401   1.662   1.302 -0.1386 -0.3860  0.2149
 2324SOL    HW1 7028   4.454   1.583   1.307  2.3705  1.2275  1.6654
 2324SOL    HW2 7029   4.421   1.700   1.217  2.4681  0.9895  1.3186
 2325SOL     OW 7030   4.771   3.265   3.379 -0.1615 -0.2076 -0.3961
 2325SOL    HW1 7031   4.807   3.177   3.395 -0.6490 -0.6517 -1.6133
 2325SOL    HW2 7032   4.738   3.293   3.464  1.2245 -0.6221  0.3088
 2326SOL     OW 7033   4.705   1.969   2.439  0.2733 -0.3090 -0.1771
 2326SOL    HW1 7034   4.734   2.057   2.462  0.0430 -0.1360 -0.5481
 2326SOL    HW2 7035   4.668   1.977   2.352 -0.8846 -0.5293  0.2808
 2327SOL     OW 7036   1.135   3.213   0.521 -0.0199 -0.3891 -0.2396
 2327SOL    HW1 7037   1.134   3.218   0.426 -2.1160 -0.2480 -0.2590
 2327SOL    HW2 7038   1.174   3.296   0.549 -1.3289  0.5218 -0.9920
 2328SOL     OW 7039   2.485   1.035   3.311 -0.5156  0.2183 -0.4283
 2328SOL    HW1 7040   2.542   1.100   3.270  1.7600 -0.2114  1.8246
 2328SOL    HW2 7041   2.488   0.960   3.252 -1.5577  1.3670 -2.0334
 2329SOL     OW 7042   3.729   1.156   4.662  0.3681 -0.3941 -0.0960
 2329SOL    HW1 7043   3.688   1.161   4.748 -1.6470 -0.8554 -0.9828
 2329SOL    HW2 7044   3.796   1.088   4.671  0.0970 -0.5229  1.0678
 2330SOL     OW 7045   1.117   0.501   2.929  0.5705  0.1710  0.4066
 2330SOL    HW1 7046   1.127   0.477   3.021  0.5124  1.1048  0.6688
 2330SOL    HW2 7047   1.060   0.434   2.893 -0.3975  0.4653  1.3508
 2331SOL     OW 7048   0.738   4.720   2.258 -0.3046  0.6564  0.0732
 2331SOL    HW1 7049   0.722   4.746   2.348  0.0831  0.3699  0.2294
 2331SOL    HW2 7050   0.830   4.695   2.256 -1.3128 -4.2230  0.8945
 2332SOL     OW 7051   0.545   4.256   3.265 -0.6852 -0.1206 -0.2026
 2332SOL    HW1 7052   0.595   4.236   3.186 -0.3172 -0.4117  0.1004
 2332SOL    HW2 7053   0.493   4.333   3.242 -1.6267 -1.0202 -1.1816
 2333SOL     OW 7054   1.680   0.977   0.158  0.0162 -0.5150 -0.3589
 2333SOL    HW1 7055   1.638   0.891   0.158  0.8904 -1.0045  1.4592
 2333SOL    HW2 7056   1.678   1.005   0.250  2.5050 -0.0230 -0.3763
 2334SOL     OW 7057   3.866   2.142   4.018 -0.5884  0.6129 -0.5039
 2334SOL    HW1 7058   3.874   2.080   4.091  2.2871  0.5922 -0.7132
 2334SOL    HW2 7059   3.807   2.210   4.050 -1.8268 -0.9402  0.6625
 2335SOL     OW 7060   2.402   0.508   0.051  0.7427  0.5929  0.1662
 2335SOL    HW1 7061   2.411   0.603   0.051 -0.1500  0.6867  0.3602
 2335SOL    HW2 7062   2.471   0.477  -0.007  2.0660  1.2576  1.3173
 2336SOL     OW 7063   2.358   3.351   1.374  0.5164 -0.2850  0.4927
 2336SOL    HW1 7064   2.277   3.391   1.342 -1.2172 -2.0980  2.3466
 2336SOL    HW2 7065   2.371   3.389   1.461  0.1239 -1.9468  1.3130
 2337SOL     OW 7066   2.337   0.051   3.582  0.3340  0.2131 -0.3884
 2337SOL    HW1 7067   2.282   0.088   3.652 -0.4828  1.1625 -1.4977
 2337SOL    HW2 7068   2.426   0.060   3.615 -0.0981 -0.7852  1.1884
 2338SOL     OW 7069   3.612   0.674   2.582 -0.4793 -0.2303 -0.1806
 2338SOL    HW1 7070   3.668   0.621   2.639  0.8817 -0.0666 -1.3232
 2338SOL    HW2 7071   3.637   0.649   2.493 -3.4461 -1.4436 -0.8190
 2339SOL     OW 7072   1.543   4.634   3.228  0.5284 -0.3428  0.1020
 2339SOL    HW1 7073   1.631   4.597   3.220  0.9504 -0.2249  3.1612
 2339SOL    HW2 7074   1.495   4.572   3.283 -0.5551  0.7684  0.4652
 2340SOL     OW 7075   3.621   3.454   3.858  0.5311  0.0291  0.0648
 2340SOL    HW1 7076   3.589   3.371   3.893  1.1974 -0.6106 -0.7828
 2340SOL    HW2 7077   3.543   3.500   3.828  0.1499 -0.2446  0.6180
 2341SOL     OW 7078   4.905   4.167   1.703  0.0052  0.3518 -0.5011
 2341SOL    HW1 7079   4.822   4.128   1.676  0.8306 -1.3036 -0.7811
 2341SOL    HW2 7080   4.914   4.144   1.796  0.0301  0.7629 -0.3986
 2342SOL     OW 7081   4.548   2.843   1.058 -0.0967 -0.0509 -0.3567
 2342SOL    HW1 7082   4.612   2.772   1.068  1.0775  0.8266 -1.3439
 2342SOL    HW2 7083   4.467   2.798   1.034  0.3040 -1.1411  0.2745
 2343SOL     OW 7084   4.747   2.565   0.322 -0.6231  0.1142  0.0376
 2343SOL    HW1 7085   4.817   2.503   0.343 -0.9358 -0.2630 -0.0125
 2343SOL    HW2 7086   4.700   2.577   0.405  0.1197  1.1784  0.3267
 2344SOL     OW 7087   4.209   1.019   1.353  0.1178 -0.0626 -0.7815
 2344SOL    HW1 7088   4.260   1.093   1.319 -0.9598  1.0142 -0.1080
 2344SOL    HW2 7089   4.275   0.961   1.392  0.8218  1.6311  0.7129
 2345SOL     OW 7090   0.810   3.311   0.698  0.5371 -0.5681 -0.3180
 2345SOL    HW1 7091   0.788   3.233   0.749  1.0350 -0.6570 -0.2310
 2345SOL    HW2 7092   0.871   3.360   0.754 -1.0908  0.7697  0.3817
 2346SOL     OW 7093   4.941   4.258   4.326 -0.0292 -0.4595 -0.5529
 2346SOL    HW1 7094   4.847   4.251   4.309 -0.5838  0.6718  1.6118
 2346SOL    HW2 7095   4.966   4.172   4.360 -0.6723 -0.3258  0.3139
 2347SOL     OW 7096   4.264   4.525   4.120 -0.3108  0.6983 -0.0715
 2347SOL    HW1 7097   4.335   4.547   4.180 -1.2256  0.5096  1.1119
 2347SOL    HW2 7098   4.192   4.497   4.177  0.1981 -3.8906 -1.3371
 2348SOL     OW 7099   2.194   1.827   2.498  0.1935  0.7908 -0.1226
 2348SOL    HW1 7100   2.224   1.895   2.558  1.7442  0.7186 -0.7554
 2348SOL    HW2 7101   2.122   1.783   2.544  1.4413  0.6083  1.7484
 2349SOL     OW 7102   1.427   3.866   0.852  0.1756 -0.0665  0.0227
 2349SOL    HW1 7103   1.369   3.923   0.903 -0.2702 -0.3408 -0.1698
 2349SOL    HW2 7104   1.504   3.920   0.833  0.0640  0.2401  0.4435
 2350SOL     OW 7105   1.456   3.671   4.217 -0.6030 -0.1933  0.1831
 2350SOL    HW1 7106   1.433   3.754   4.176 -0.9109 -0.6811 -0.6541
 2350SOL    HW2 7107   1.484   3.695   4.306 -0.5930  0.8049 -0.0777
 2351SOL     OW 7108   1.548   1.538   3.066  0.2659 -0.6307 -0.0505
 2351SOL    HW1 7109   1.483   1.484   3.112 -0.2285 -0.2436 -0.2872
 2351SOL    HW2 7110   1.568   1.489   2.987 -0.6222 -0.2064 -0.5552
 2352SOL     OW 7111   0.828   2.506   1.104 -0.4912 -0.2725  0.0842
 2352SOL    HW1 7112   0.734   2.491   1.098 -0.3356 -1.6449  0.5276
 2352SOL    HW2 7113   0.848   2.493   1.197 -0.1853  2.3792  0.4723
 2353SOL     OW 7114   1.040   0.995   2.691  0.3496  0.3642  0.2431
 2353SOL    HW1 7115   1.025   0.917   2.744  1.5898 -0.7757 -0.9869
 2353SOL    HW2 7116   0.955   1.037   2.685  0.1117  0.3759  2.8329
 2354SOL     OW 7117   3.326   2.086   0.761 -0.1956  0.0243 -0.0354
 2354SOL    HW1 7118   3.356   2.002   0.794  1.8289 -0.0491 -1.8575
 2354SOL    HW2 7119   3.366   2.151   0.819 -0.3805 -0.2097  0.3547
 2355SOL     OW 7120   4.255   2.199   3.868  0.1178  0.4469 -0.1783
 2355SOL    HW1 7121   4.162   2.222   3.867  0.0809  0.4129  0.9212
 2355SOL    HW2 7122   4.300   2.281   3.849 -0.1144  0.7141  0.3834
 2356SOL     OW 7123   1.047   4.677   2.149 -0.2119  0.0926  0.6409
 2356SOL    HW1 7124   1.129   4.631   2.130 -0.7094 -1.9030  2.8408
 2356SOL    HW2 7125   1.073   4.769   2.161  1.3615 -0.1462 -0.5711
 2357SOL     OW 7126   1.412   0.553   4.906 -0.1219 -0.3511  0.0365
 2357SOL    HW1 7127   1.393   0.560   5.000  0.0375  0.6380  0.0058
 2357SOL    HW2 7128   1.426   0.644   4.878 -0.5422 -0.6024 -1.0218
 2358SOL     OW 7129   3.733   2.395   3.973  0.1003  0.2404 -0.4515
 2358SOL    HW1 7130   3.718   2.473   4.027 -1.7263 -1.0145  0.9455
 2358SOL    HW2 7131   3.701   2.420   3.886 -1.3321  0.7616  0.1983
 2359SOL     OW 7132   1.222   1.857   0.114 -0.4709 -0.1144  0.0721
 2359SOL    HW1 7133   1.179   1.843   0.030  1.3252  3.2300 -1.6194
 2359SOL    HW2 7134   1.315   1.849   0.094  0.0248  1.5167  1.5172
 2360SOL     OW 7135   3.669   0.629   2.308  0.6003 -0.0127  0.3271
 2360SOL    HW1 7136   3.747   0.578   2.329  1.4809  1.3418  0.5116
 2360SOL    HW2 7137   3.700   0.695   2.246 -0.2733  0.8801  0.8143
 2361SOL     OW 7138   0.052   0.861   3.481 -0.2633 -0.5879 -0.8368
 2361SOL    HW1 7139   0.048   0.817   3.565 -0.8097  0.4996 -0.2686
 2361SOL    HW2 7140   0.140   0.842   3.448  0.9012  0.9263  1.1162
 2362SOL     OW 7141   0.970   3.003   0.612  0.4141  0.6277  0.2900
 2362SOL    HW1 7142   1.019   3.068   0.561 -0.3555 -1.1022 -2.9173
 2362SOL    HW2 7143   1.030   2.977   0.682  2.3630  1.6829 -0.8955
 2363SOL     OW 7144   0.678   1.833   4.814  0.1833  0.4618 -0.1064
 2363SOL    HW1 7145   0.737   1.861   4.744  0.5009 -3.0829 -1.4356
 2363SOL    HW2 7146   0.593   1.827   4.772  0.4080 -1.8591 -0.3102
 2364SOL     OW 7147   4.489   4.148   1.759  0.5343  0.2704 -0.6326
 2364SOL    HW1 7148   4.503   4.078   1.822 -2.2867  1.2371  1.2654
 2364SOL    HW2 7149   4.486   4.104   1.674  0.4261 -1.6746  0.3283
 2365SOL     OW 7150   0.983   2.831   2.746 -0.0456 -0.5302 -0.1648
 2365SOL    HW1 7151   0.953   2.772   2.814 -0.4965 -0.0189  0.0845
 2365SOL    HW2 7152   0.974   2.919   2.784 -2.2403 -0.0807 -1.5831
 2366SOL     OW 7153   4.571   1.372   0.305  0.5413  0.2439  0.4046
 2366SOL    HW1 7154   4.564   1.397   0.397 -1.3024 -0.8438  0.6132
 2366SOL    HW2 7155   4.565   1.455   0.257 -2.0252  0.6092  1.1891
 2367SOL     OW 7156   0.359   1.104   3.537 -0.1702 -0.3907  0.2389
 2367SOL    HW1 7157   0.392   1.146   3.617  0.2086 -1.9084  0.9272
 2367SOL    HW2 7158   0.399   1.017   3.538 -1.5716 -1.0862 -0.6694
 2368SOL     OW 7159   0.747   3.855   3.154  0.0607 -0.4122 -0.2711
 2368SOL    HW1 7160   0.833   3.891   3.177  0.4204 -1.0121 -0.6244
 2368SOL    HW2 7161   0.687   3.891   3.220  1.1034 -2.3341  1.8938
 2369SOL     OW 7162   2.819   0.423   4.254  0.7029  0.4098  0.0642
 2369SOL    HW1 7163   2.801   0.459   4.341  1.0879 -1.8416  1.1366
 2369SOL    HW2 7164   2.906   0.457   4.233  0.2997  1.5735  0.1980
 2370SOL     OW 7165   3.376   3.025   0.319 -0.0730  0.1094  0.4658
 2370SOL    HW1 7166   3.333   3.067   0.244  0.2765  0.5740  0.5202
 2370SOL    HW2 7167   3.461   3.068   0.325 -0.0270 -0.0502  1.0230
 2371SOL     OW 7168   1.425   2.506   4.228 -0.1339  0.0726 -0.3477
 2371SOL    HW1 7169   1.435   2.595   4.195  2.1465 -0.4236 -1.1993
 2371SOL    HW2 7170   1.477   2.505   4.309 -0.9903 -0.2245  0.2063
 2372SOL     OW 7171   1.572   3.569   4.790 -0.1921  0.4169 -0.0214
 2372SOL    HW1 7172   1.625   3.641   4.754  0.1377  1.3356  2.1243
 2372SOL    HW2 7173   1.520   3.611   4.858 -0.6821 -1.2361  0.6514
 2373SOL     OW 7174   3.679   3.321   4.961 -0.0904 -0.1916  0.4355
 2373SOL    HW1 7175   3.632   3.355   5.037  1.2020 -0.3709  1.3516
 2373SOL    HW2 7176   3.731   3.395   4.931  0.7824 -0.6195  0.8602
 2374SOL     OW 7177   2.384   1.426   1.719  0.0570 -0.4289 -0.4603
 2374SOL    HW1 7178   2.335   1.382   1.650 -0.1762 -0.6941 -0.1243
 2374SOL    HW2 7179   2.364   1.377   1.798  1.2707 -0.8785 -0.4007
 2375SOL     OW 7180   3.003   3.547   3.100 -0.8968  0.7677 -0.8069
 2375SOL    HW1 7181   2.986   3.565   3.192 -0.9217 -0.9531 -0.4446
 2375SOL    HW2 7182   3.068   3.613   3.074  0.0587  0.4909  0.7779
 2376SOL     OW 7183   3.579   3.573   1.438 -0.6142 -0.6744  0.7643
 2376SOL    HW1 7184   3.542   3.657   1.466 -1.4206 -1.3983  1.9045
 2376SOL    HW2 7185   3.650   3.555   1.500 -1.1453 -1.3417  1.1961
 2377SOL     OW 7186   3.093   2.761   4.141  0.4245 -0.1807  0.3679
 2377SOL    HW1 7187   3.036   2.766   4.218  1.7340  0.3410  1.3431
 2377SOL    HW2 7188   3.038   2.789   4.068 -0.1396  1.8368  1.5020
 2378SOL     OW 7189   3.113   0.655   2.134  0.0915  0.1139  0.1646
 2378SOL    HW1 7190   3.092   0.565   2.160  1.2680 -0.3764 -0.5173
 2378SOL    HW2 7191   3.207   0.662   2.146  0.3766  0.5038 -1.9883
 2379SOL     OW 7192   0.070   4.124   4.935  0.3310  0.1760 -0.1840
 2379SOL    HW1 7193   0.112   4.044   4.902 -0.1672 -0.0774 -0.2249
 2379SOL    HW2 7194   0.020   4.094   5.011  0.3665  0.5034 -0.0339
 2380SOL     OW 7195   0.069   3.251   4.078 -0.5202 -0.0020  0.6507
 2380SOL    HW1 7196   0.085   3.215   3.991  0.1261  0.9134  0.3691
 2380SOL    HW2 7197  -0.025   3.240   4.093 -0.2777 -2.3893  0.8782
 2381SOL     OW 7198   4.779   2.368   1.417 -0.3591  0.2761  0.6965
 2381SOL    HW1 7199   4.800   2.288   1.466  1.2181  1.0480  1.3667
 2381SOL    HW2 7200   4.785   2.438   1.483  1.4698  1.3114 -0.4879
 2382SOL     OW 7201   2.844   1.367   2.400 -0.0339 -0.5791 -0.3147
 2382SOL    HW1 7202   2.761   1.366   2.448  0.7715 -0.0723  1.1324
 2382SOL    HW2 7203   2.819   1.396   2.312 -1.3550 -0.1377  0.1688
 2383SOL     OW 7204   2.678   1.017   0.359  0.0184  0.1877 -0.7359
 2383SOL    HW1 7205   2.701   1.066   0.438 -2.0393  2.5677 -1.4839
 2383SOL    HW2 7206   2.748   1.038   0.296  0.2161  0.4932 -0.4147
 2384SOL     OW 7207   0.118   1.811   4.433  0.0981 -0.2552  0.0459
 2384SOL    HW1 7208   0.059   1.815   4.357  1.2579  0.3619 -0.8521
 2384SOL    HW2 7209   0.132   1.718   4.448 -2.5118 -0.5117  1.4305
 2385SOL     OW 7210   4.427   4.885   0.195  0.1671 -0.0239  0.6787
 2385SOL    HW1 7211   4.422   4.976   0.167 -1.7714 -0.3729 -0.2836
 2385SOL    HW2 7212   4.360   4.877   0.263 -1.0421 -1.1155 -0.5659
 2386SOL     OW 7213   0.666   1.989   0.041 -0.1231 -0.4933  0.4251
 2386SOL    HW1 7214   0.638   1.928  -0.027 -2.4982  1.4543 -0.4969
 2386SOL    HW2 7215   0.593   1.991   0.103 -0.8047  2.3379 -0.3108
 2387SOL     OW 7216   0.332   3.169   0.987  0.5257  0.4281  0.1109
 2387SOL    HW1 7217   0.420   3.182   1.024  1.6301 -3.0672 -0.9036
 2387SOL    HW2 7218   0.338   3.204   0.898  0.1197  2.2170  0.7450
 2388SOL     OW 7219   3.713   4.334   3.691 -0.3661 -0.0713 -0.0392
 2388SOL    HW1 7220   3.672   4.257   3.652  0.7297  0.8942 -3.4644
 2388SOL    HW2 7221   3.798   4.341   3.647  1.5882  0.6009  3.4428
 2389SOL     OW 7222   1.498   2.723   0.125  0.0840 -0.1698 -0.2654
 2389SOL    HW1 7223   1.461   2.795   0.176  0.9295  1.4054 -1.7522
 2389SOL    HW2 7224   1.589   2.717   0.156 -0.6981 -2.5498  1.8315
 2390SOL     OW 7225   3.138   1.481   4.467 -0.2530 -0.3772 -0.6575
 2390SOL    HW1 7226   3.202   1.517   4.528 -0.4935  1.8109 -1.5783
 2390SOL    HW2 7227   3.125   1.391   4.495  1.4704 -0.1721  0.9739
 2391SOL     OW 7228   3.867   3.503   1.520  0.5406 -0.3727  0.1286
 2391SOL    HW1 7229   3.915   3.422   1.534  2.2780  0.6768  0.5284
 2391SOL    HW2 7230   3.910   3.566   1.578  0.5008  1.3097 -1.6118
 2392SOL     OW 7231   3.682   3.297   2.099 -0.6945  0.1889 -0.0640
 2392SOL    HW1 7232   3.673   3.387   2.068 -0.5138 -0.1552 -1.1574
 2392SOL    HW2 7233   3.749   3.302   2.167  0.9712  0.5573 -1.6534
 2393SOL     OW 7234   2.596   0.385   3.176 -0.3199  0.1691 -0.3305
 2393SOL    HW1 7235   2.638   0.304   3.203  1.5589  1.7997  2.0856
 2393SOL    HW2 7236   2.520   0.394   3.234 -0.8414 -0.0670 -0.9554
 2394SOL     OW 7237   3.170   0.985   0.230  0.8645 -0.3751 -0.2126
 2394SOL    HW1 7238   3.180   1.079   0.213  2.0744 -0.7492 -1.8007
 2394SOL    HW2 7239   3.236   0.966   0.296 -0.9745  0.2844  1.9265
 2395SOL     OW 7240   3.732   3.740   1.164  0.2491  0.2334 -0.3229
 2395SOL    HW1 7241   3.686   3.824   1.168  2.5424  1.5646 -0.1220
 2395SOL    HW2 7242   3.696   3.690   1.238 -1.1289  1.0134 -0.4251
 2396SOL     OW 7243   3.431   4.306   0.501  0.1719  0.5037 -0.2596
 2396SOL    HW1 7244   3.446   4.259   0.582 -0.1074  1.1637  0.1818
 2396SOL    HW2 7245   3.336   4.302   0.488  0.1365  0.9736 -0.1891
 2397SOL     OW 7246   1.465   4.253   1.031  0.0050  0.3497 -0.0395
 2397SOL    HW1 7247   1.405   4.207   0.971 -1.0594  0.7784  0.6594
 2397SOL    HW2 7248   1.498   4.327   0.979 -0.4652  0.3915 -0.2899
 2398SOL     OW 7249   3.319   3.508   3.398 -0.4320  0.2973 -0.0474
 2398SOL    HW1 7250   3.256   3.446   3.435 -0.3536  1.7232  2.7048
 2398SOL    HW2 7251   3.266   3.575   3.356 -0.9963  1.9391  2.9711
 2399SOL     OW 7252   2.402   2.098   4.543  0.0397 -0.3854 -0.2893
 2399SOL    HW1 7253   2.354   2.097   4.626  0.0427  2.5650 -0.1467
 2399SOL    HW2 7254   2.488   2.134   4.565  0.4640 -0.6763 -1.4047
 2400SOL     OW 7255   2.310   1.466   3.744  0.4079 -0.7170 -0.1358
 2400SOL    HW1 7256   2.257   1.409   3.798  0.5353 -2.0764 -1.3856
 2400SOL    HW2 7257   2.305   1.428   3.656 -0.6095  1.9473 -1.3491
 2401SOL     OW 7258   4.238   1.619   1.769 -0.6396  0.5917 -0.3331
 2401SOL    HW1 7259   4.188   1.612   1.688 -0.0393 -0.0499 -0.6633
 2401SOL    HW2 7260   4.209   1.701   1.809 -0.5256  1.2141 -1.4905
 2402SOL     OW 7261   1.686   2.318   1.829  0.1964  0.3091  0.5267
 2402SOL    HW1 7262   1.760   2.354   1.879 -0.5506  0.3289  1.6492
 2402SOL    HW2 7263   1.609   2.358   1.868 -0.5771 -1.5041  0.9470
 2403SOL     OW 7264   0.536   3.217   3.425 -0.1149  0.0816 -0.0252
 2403SOL    HW1 7265   0.443   3.235   3.410 -0.6866 -0.3647  2.5180
 2403SOL    HW2 7266   0.562   3.279   3.493  0.6656 -1.6090  1.2890
 2404SOL     OW 7267   2.515   0.171   1.909 -0.2382 -0.4176  0.3884
 2404SOL    HW1 7268   2.539   0.233   1.978  0.4491  0.9513 -0.9961
 2404SOL    HW2 7269   2.476   0.226   1.841  2.8703 -0.9588 -2.0941
 2405SOL     OW 7270   0.853   1.924   4.618  0.5215 -0.6315 -0.1809
 2405SOL    HW1 7271   0.908   1.949   4.692  1.5336 -0.7320 -0.8763
 2405SOL    HW2 7272   0.913   1.922   4.544 -0.5902  0.1095 -1.1418
 2406SOL     OW 7273   4.853   1.613   0.805  0.3312  0.3703  0.2628
 2406SOL    HW1 7274   4.859   1.666   0.884 -3.1221 -0.5776  1.3141
 2406SOL    HW2 7275   4.767   1.632   0.769  1.4807  0.1739 -2.9181
 2407SOL     OW 7276   0.842   3.200   2.175 -0.3135 -0.4962  0.8440
 2407SOL    HW1 7277   0.820   3.289   2.147  2.0206  0.4259  1.6978
 2407SOL    HW2 7278   0.844   3.150   2.094 -0.8615  0.3927  0.2571
 2408SOL     OW 7279   4.245   3.070   0.200 -0.0163  0.1548 -0.0955
 2408SOL    HW1 7280   4.282   3.007   0.261 -0.0231 -0.2556 -0.5063
 2408SOL    HW2 7281   4.270   3.155   0.235  0.9728 -0.1056 -0.1464
 2409SOL     OW 7282   3.540   2.658   4.526 -0.1224  0.7477 -0.1281
 2409SOL    HW1 7283   3.469   2.673   4.463 -0.4508 -0.3525 -0.0480
 2409SOL    HW2 7284   3.575   2.572   4.502  1.0218  1.1631  0.0012
 2410SOL     OW 7285   1.510   1.012   4.372 -0.1548 -0.3267 -0.5542
 2410SOL    HW1 7286   1.467   1.071   4.435  0.7069 -0.3359  0.0562
 2410SOL    HW2 7287   1.583   0.974   4.421 -0.5538 -1.7365 -1.0110
 2411SOL     OW 7288   4.491   2.833   2.556 -0.0152 -0.4203  0.4510
 2411SOL    HW1 7289   4.509   2.774   2.629 -0.9419 -0.5595  0.5823
 2411SOL    HW2 7290   4.577   2.857   2.522  0.4091 -0.7039  1.3068
 2412SOL     OW 7291   1.594   0.643   2.823  0.0842  0.0894  0.2973
 2412SOL    HW1 7292   1.551   0.676   2.744 -0.1794  1.2205  0.8877
 2412SOL    HW2 7293   1.583   0.713   2.887 -1.1127 -1.4313  1.8543
 2413SOL     OW 7294   4.706   1.791   0.502 -0.5977 -0.1594 -0.2043
 2413SOL    HW1 7295   4.691   1.728   0.573  2.2963  1.0741  1.6578
 2413SOL    HW2 7296   4.778   1.753   0.452  0.5276  1.1167  0.3701
 2414SOL     OW 7297   1.451   3.219   4.344 -0.0415  0.2708 -0.3498
 2414SOL    HW1 7298   1.434   3.312   4.336 -0.1182  0.2666 -0.2492
 2414SOL    HW2 7299   1.540   3.207   4.309 -0.4557  0.2066 -1.4089
 2415SOL     OW 7300   3.851   0.494   4.821  0.4697 -0.1820 -0.0476
 2415SOL    HW1 7301   3.773   0.439   4.819  0.5764 -0.3757  0.7601
 2415SOL    HW2 7302   3.912   0.451   4.761 -0.2315  0.2774 -1.1166
 2416SOL     OW 7303   0.173   4.963   3.886 -0.5318  0.0492  0.0809
 2416SOL    HW1 7304   0.187   4.906   3.962  0.3148  0.1236 -0.0076
 2416SOL    HW2 7305   0.080   4.981   3.886 -0.4838  0.3726  1.3355
 2417SOL     OW 7306   3.300   4.483   2.216  0.4171  0.1136  0.1612
 2417SOL    HW1 7307   3.207   4.461   2.218  0.2070  0.9654  0.2508
 2417SOL    HW2 7308   3.344   4.404   2.248 -0.1885 -0.6745 -0.8964
 2418SOL     OW 7309   0.495   4.020   0.670 -0.0478  0.3227 -0.0275
 2418SOL    HW1 7310   0.580   4.041   0.632  0.2409  2.3093  1.5344
 2418SOL    HW2 7311   0.513   3.949   0.732  0.4171  0.5263  0.0698
 2419SOL     OW 7312   3.980   4.789   0.230 -0.4395 -0.9221 -0.0241
 2419SOL    HW1 7313   4.017   4.701   0.223 -2.1199 -1.8194  1.3531
 2419SOL    HW2 7314   3.965   4.801   0.324 -0.2836  0.8338 -0.1931
 2420SOL     OW 7315   3.915   4.716   0.484 -0.0733  0.0450 -0.2952
 2420SOL    HW1 7316   3.900   4.691   0.575  0.1892  0.4326 -0.1449
 2420SOL    HW2 7317   3.972   4.648   0.449 -1.5512 -1.0673 -0.6704
 2421SOL     OW 7318   2.969   1.204   1.203  0.2956  0.5795  0.5636
 2421SOL    HW1 7319   2.909   1.276   1.223  0.2489  0.7549 -0.2030
 2421SOL    HW2 7320   3.045   1.219   1.259  0.1651  1.0692  0.6075
 2422SOL     OW 7321   4.468   2.489   0.233  0.1658 -0.3027 -0.0690
 2422SOL    HW1 7322   4.505   2.415   0.281  0.9183 -0.0577 -0.2563
 2422SOL    HW2 7323   4.489   2.565   0.287 -0.1318 -0.1653 -0.1438
 2423SOL     OW 7324   4.584   4.777   2.682 -0.6106 -0.0438 -0.8113
 2423SOL    HW1 7325   4.611   4.815   2.598  2.5033 -0.1364  0.0115
 2423SOL    HW2 7326   4.554   4.689   2.659  0.6325 -0.2429 -1.8430
 2424SOL     OW 7327   1.607   4.449   0.907  0.7157  0.3921  0.0861
 2424SOL    HW1 7328   1.675   4.403   0.955  0.9147 -0.7318 -1.2185
 2424SOL    HW2 7329   1.631   4.439   0.815  0.3116  2.4155 -0.2995
 2425SOL     OW 7330   4.673   1.390   2.477  0.2827 -0.2936 -0.8654
 2425SOL    HW1 7331   4.703   1.478   2.500  1.4419 -0.1513 -2.6646
 2425SOL    HW2 7332   4.689   1.338   2.555  1.0322  0.7830 -0.2725
 2426SOL     OW 7333   4.294   1.769   4.679 -0.3063  0.3936 -0.1378
 2426SOL    HW1 7334   4.292   1.856   4.641  0.2527  0.3258 -0.3312
 2426SOL    HW2 7335   4.382   1.760   4.714 -0.4158 -0.0263  0.0390
 2427SOL     OW 7336   1.761   2.215   3.406 -0.2147  0.3236 -0.4343
 2427SOL    HW1 7337   1.848   2.192   3.440 -0.4980 -0.7048 -0.3837
 2427SOL    HW2 7338   1.779   2.250   3.318  0.5315  3.1295  0.7425
 2428SOL     OW 7339   2.971   4.003   3.626  0.2662 -0.3005  0.1997
 2428SOL    HW1 7340   2.940   3.913   3.636 -0.3039 -0.2660 -1.0335
 2428SOL    HW2 7341   3.046   4.009   3.684 -0.5301 -1.1516  1.3754
 2429SOL     OW 7342   1.455   2.660   1.357  0.7014  0.0789 -0.1475
 2429SOL    HW1 7343   1.426   2.751   1.360  0.0314 -0.1287 -0.2279
 2429SOL    HW2 7344   1.436   2.631   1.268  1.4242  0.0201 -0.2911
 2430SOL     OW 7345   0.066   0.697   2.193  0.3378 -0.0987 -0.2280
 2430SOL    HW1 7346  -0.009   0.663   2.144  0.2164 -0.3170  0.1087
 2430SOL    HW2 7347   0.140   0.643   2.164  0.4472  0.3898 -0.8704
 2431SOL     OW 7348   1.695   4.484   4.126 -0.6577 -0.0885 -0.0811
 2431SOL    HW1 7349   1.706   4.393   4.096 -1.0022 -0.3388  0.5355
 2431SOL    HW2 7350   1.774   4.501   4.178 -0.6579 -0.0839 -0.0825
 2432SOL     OW 7351   4.178   4.523   1.150  0.2989  0.2367 -0.0282
 2432SOL    HW1 7352   4.165   4.482   1.235 -1.0929  1.0347  0.1822
 2432SOL    HW2 7353   4.151   4.456   1.087  3.2108 -1.0945 -0.0195
 2433SOL     OW 7354   4.350   3.103   4.510  0.0416 -0.3363 -0.2102
 2433SOL    HW1 7355   4.332   3.188   4.469 -1.9524 -0.8298 -0.4528
 2433SOL    HW2 7356   4.419   3.064   4.456  1.3954  1.3083  0.2324
 2434SOL     OW 7357   1.704   3.488   2.044 -0.7190 -0.3247  0.2478
 2434SOL    HW1 7358   1.697   3.393   2.034 -2.6630 -0.4061  1.6897
 2434SOL    HW2 7359   1.723   3.520   1.956 -4.7854 -1.7695 -1.4304
 2435SOL     OW 7360   3.992   4.045   4.888  0.2508  0.2325  0.4801
 2435SOL    HW1 7361   4.045   4.111   4.842 -1.1127  0.5406 -0.6878
 2435SOL    HW2 7362   4.038   3.963   4.872 -0.1563  0.3303 -1.4435
 2436SOL     OW 7363   1.456   3.260   0.325 -0.2513  0.0157  0.1397
 2436SOL    HW1 7364   1.391   3.329   0.310 -1.7872 -1.5904 -1.0012
 2436SOL    HW2 7365   1.498   3.284   0.407 -3.0308  0.6197  1.4879
 2437SOL     OW 7366   4.399   1.206   0.944 -0.7289  0.1702 -0.3862
 2437SOL    HW1 7367   4.377   1.116   0.969  0.6228 -0.3129 -0.8600
 2437SOL    HW2 7368   4.376   1.258   1.021  0.2240 -0.8470  0.6321
 2438SOL     OW 7369   2.624   1.603   3.067 -0.3249 -0.8757 -0.1961
 2438SOL    HW1 7370   2.646   1.534   3.130  0.2293 -0.2062  0.3629
 2438SOL    HW2 7371   2.558   1.655   3.111  0.9135  0.2972  0.3565
 2439SOL     OW 7372   3.154   0.632   1.629  0.5602 -0.2116  0.4873
 2439SOL    HW1 7373   3.086   0.566   1.635  0.0087  0.0602 -1.8157
 2439SOL    HW2 7374   3.228   0.587   1.587  1.2910 -0.1016  1.5906
 2440SOL     OW 7375   2.124   1.249   1.591  0.2723  0.0523  0.7614
 2440SOL    HW1 7376   2.076   1.311   1.537  1.5181  2.2543  2.0033
 2440SOL    HW2 7377   2.063   1.225   1.661 -0.6556 -1.2330 -0.4277
 2441SOL     OW 7378   4.228   1.625   4.940  0.4432  0.7642 -0.6428
 2441SOL    HW1 7379   4.254   1.627   4.848 -0.3799  0.9499 -0.8794
 2441SOL    HW2 7380   4.136   1.652   4.940  0.5129  1.0409  0.2634
 2442SOL     OW 7381   3.262   0.859   1.513  0.2163  0.0460  0.0338
 2442SOL    HW1 7382   3.179   0.821   1.486  0.6853 -1.8472  1.0226
 2442SOL    HW2 7383   3.283   0.814   1.595  0.8911  2.4513  1.2766
 2443SOL     OW 7384   1.639   1.274   4.474 -0.1644  0.2166 -0.3043
 2443SOL    HW1 7385   1.547   1.295   4.492  0.2372  4.6912 -2.2526
 2443SOL    HW2 7386   1.687   1.352   4.499  2.2798  0.5411 -5.0056
 2444SOL     OW 7387   4.432   1.305   2.349 -0.0013 -0.3386  0.1696
 2444SOL    HW1 7388   4.514   1.316   2.397  0.0100 -1.2055  0.3804
 2444SOL    HW2 7389   4.370   1.271   2.415 -0.2792 -0.5318 -0.1858
 2445SOL     OW 7390   4.257   2.476   2.944  0.5125  0.0982  0.2974
 2445SOL    HW1 7391   4.284   2.506   2.858 -0.6912 -0.0761 -0.1542
 2445SOL    HW2 7392   4.227   2.386   2.930  0.2144  0.1039  0.8828
 2446SOL     OW 7393   0.897   3.806   3.780  0.1126 -0.6826 -0.1192
 2446SOL    HW1 7394   0.990   3.824   3.762 -0.3324  1.8361 -0.2415
 2446SOL    HW2 7395   0.853   3.823   3.697 -0.5194 -1.6140  0.0120
 2447SOL     OW 7396   3.291   0.267   4.365 -0.4076  0.1664  0.4356
 2447SOL    HW1 7397   3.248   0.309   4.290  0.5746  0.2690 -0.0901
 2447SOL    HW2 7398   3.325   0.340   4.416 -1.3413  0.1082  1.1622
 2448SOL     OW 7399   2.227   2.667   4.447 -0.0636  0.1913  0.1732
 2448SOL    HW1 7400   2.149   2.635   4.401 -0.2150  0.5315  0.1892
 2448SOL    HW2 7401   2.194   2.691   4.534 -0.0699  0.9422 -0.0319
 2449SOL     OW 7402   1.610   4.364   3.812  0.6198 -0.3056  0.2111
 2449SOL    HW1 7403   1.616   4.331   3.902  2.4263  0.1364  0.3020
 2449SOL    HW2 7404   1.564   4.447   3.820  3.3350  1.2459  1.2590
 2450SOL     OW 7405   2.442   0.420   0.563 -0.1058 -0.3030  0.3767
 2450SOL    HW1 7406   2.390   0.417   0.483  1.9543  0.2400 -1.0449
 2450SOL    HW2 7407   2.390   0.372   0.627 -1.9815 -0.4432 -1.1656
 2451SOL     OW 7408   4.624   3.667   2.373  0.4217 -0.0356 -0.2571
 2451SOL    HW1 7409   4.699   3.624   2.330 -0.4018 -1.5024 -0.2944
 2451SOL    HW2 7410   4.639   3.652   2.466  0.2652 -0.1913 -0.2567
 2452SOL     OW 7411   0.569   4.740   3.783 -0.6409 -0.5645  0.2185
 2452SOL    HW1 7412   0.523   4.655   3.787 -1.1652 -0.2367  1.6035
 2452SOL    HW2 7413   0.605   4.752   3.870 -0.8744  0.8009  0.1486
 2453SOL     OW 7414   1.363   2.624   1.076  0.4210 -0.1223 -0.2288
 2453SOL    HW1 7415   1.358   2.530   1.058  1.2070 -0.6042  1.7617
 2453SOL    HW2 7416   1.453   2.648   1.056  0.6266 -0.1470  0.5987
 2454SOL     OW 7417   3.246   2.324   0.442  0.4013 -0.0650 -0.9268
 2454SOL    HW1 7418   3.205   2.303   0.358 -1.1933 -3.4600  0.5189
 2454SOL    HW2 7419   3.172   2.338   0.501  1.4912  1.5102  0.1577
 2455SOL     OW 7420   2.886   1.737   3.170  0.2167  0.0804 -0.2573
 2455SOL    HW1 7421   2.817   1.702   3.113 -0.7774  0.6094  0.5928
 2455SOL    HW2 7422   2.852   1.725   3.259  0.5186  1.7750  0.1258
 2456SOL     OW 7423   4.726   2.659   1.117  0.1037  0.1272  0.2950
 2456SOL    HW1 7424   4.744   2.644   1.209  3.0712 -0.8300 -0.3435
 2456SOL    HW2 7425   4.803   2.707   1.085 -0.2206 -0.7350 -1.9426
 2457SOL     OW 7426   4.545   2.240   4.633  0.3701 -0.7263  0.3913
 2457SOL    HW1 7427   4.639   2.224   4.643  0.3393 -0.1475  1.8476
 2457SOL    HW2 7428   4.529   2.322   4.680 -0.8467 -0.7573  0.0692
 2458SOL     OW 7429   1.880   0.450   2.383  0.2079  0.4571 -0.1848
 2458SOL    HW1 7430   1.896   0.504   2.306  0.9132  1.0509  0.3562
 2458SOL    HW2 7431   1.914   0.502   2.456  3.7858 -1.9462  0.0831
 2459SOL     OW 7432   2.017   0.738   0.542 -0.0670 -0.8197  0.1061
 2459SOL    HW1 7433   2.015   0.826   0.579 -1.3700 -1.4112  1.5803
 2459SOL    HW2 7434   2.100   0.733   0.496  0.1547  1.0777  0.2218
 2460SOL     OW 7435   1.467   2.470   0.022 -0.1767  0.4404  0.3355
 2460SOL    HW1 7436   1.381   2.458   0.063 -1.0822  3.1408 -0.5643
 2460SOL    HW2 7437   1.492   2.560   0.044  2.4281 -0.2508  0.5093
 2461SOL     OW 7438   3.863   0.886   4.023  0.9179  0.6393 -0.5998
 2461SOL    HW1 7439   3.910   0.815   3.980  3.3646  2.2872 -0.9069
 2461SOL    HW2 7440   3.869   0.866   4.116 -0.4821 -0.6897 -0.7678
 2462SOL     OW 7441   4.816   4.920   1.803  0.3614 -0.2216 -0.2882
 2462SOL    HW1 7442   4.814   4.883   1.892 -0.0634 -0.9273 -0.5839
 2462SOL    HW2 7443   4.778   4.852   1.748  2.9514 -0.8619 -1.4154
 2463SOL     OW 7444   2.407   0.364   1.759  0.3144 -0.0233  0.3639
 2463SOL    HW1 7445   2.373   0.411   1.835  0.9375 -0.0433  0.6626
 2463SOL    HW2 7446   2.334   0.363   1.697 -0.0457  0.4100  0.7697
 2464SOL     OW 7447   1.000   3.055   2.936  0.1037  0.6740 -0.0277
 2464SOL    HW1 7448   0.930   3.118   2.954 -1.1161 -0.5303 -0.3670
 2464SOL    HW2 7449   1.062   3.068   3.008 -2.3671 -0.8326  2.5777
 2465SOL     OW 7450   0.659   0.541   1.322  0.4185 -0.7184  0.1352
 2465SOL    HW1 7451   0.704   0.488   1.388  0.5194  0.3620  0.9560
 2465SOL    HW2 7452   0.574   0.499   1.312  0.1722 -0.5608  1.4076
 2466SOL     OW 7453   4.146   1.364   3.686  0.2026  0.1121 -0.4199
 2466SOL    HW1 7454   4.075   1.377   3.749 -0.1095 -1.2728 -0.4497
 2466SOL    HW2 7455   4.226   1.378   3.736 -0.0715  1.6358 -0.3731
 2467SOL     OW 7456   0.183   4.129   1.522  0.2272  0.1429 -0.4920
 2467SOL    HW1 7457   0.099   4.154   1.561 -0.4289  3.1250 -3.3340
 2467SOL    HW2 7458   0.241   4.114   1.597 -2.1857  0.3117  1.5575
 2468SOL     OW 7459   4.672   3.301   4.415 -0.2562 -0.1896  0.2369
 2468SOL    HW1 7460   4.652   3.260   4.499  1.3423 -0.5873  0.4602
 2468SOL    HW2 7461   4.701   3.389   4.437 -2.1369  0.5683 -0.1223
 2469SOL     OW 7462   0.464   0.865   3.606  0.0688 -0.0732 -0.2342
 2469SOL    HW1 7463   0.445   0.812   3.529  0.0144 -0.2498 -0.1024
 2469SOL    HW2 7464   0.447   0.806   3.680  0.4284 -0.0043 -0.0959
 2470SOL     OW 7465   0.552   3.695   3.723 -0.0374 -0.0026 -0.2549
 2470SOL    HW1 7466   0.597   3.706   3.807  0.6463  0.4983 -0.6771
 2470SOL    HW2 7467   0.482   3.633   3.742 -1.1035  1.5096  1.1371
 2471SOL     OW 7468   3.211   0.290   2.139  0.4518 -0.5377 -0.4682
 2471SOL    HW1 7469   3.276   0.227   2.171  0.5776 -0.3459 -0.3400
 2471SOL    HW2 7470   3.216   0.284   2.044 -0.9400 -2.1602 -0.4822
 2472SOL     OW 7471   3.708   1.691   1.781  0.2488  0.2236  0.1902
 2472SOL    HW1 7472   3.795   1.655   1.799  0.5830  0.0764 -1.5297
 2472SOL    HW2 7473   3.724   1.785   1.771  0.1098  0.2728  0.4332
 2473SOL     OW 7474   4.020   0.989   1.935 -0.2558 -0.1397  0.3867
 2473SOL    HW1 7475   3.981   1.061   1.984  0.4216 -0.3768  1.3084
 2473SOL    HW2 7476   4.032   0.919   2.000 -0.4045 -0.8926 -0.3717
 2474SOL     OW 7477   2.750   0.243   1.560  0.1522 -0.7557 -0.3091
 2474SOL    HW1 7478   2.705   0.325   1.541  0.2207 -0.8013 -0.6649
 2474SOL    HW2 7479   2.684   0.175   1.547  1.3687 -1.3356 -5.5777
 2475SOL     OW 7480   4.540   1.486   3.570 -0.3414 -0.3054 -0.3686
 2475SOL    HW1 7481   4.580   1.572   3.557  0.4615 -0.4882  0.8016
 2475SOL    HW2 7482   4.600   1.424   3.529  1.4716 -0.7359  2.6220
 2476SOL     OW 7483   1.595   2.139   3.931 -0.2997  0.2042  0.0060
 2476SOL    HW1 7484   1.540   2.076   3.884  0.5917  0.0503 -0.8583
 2476SOL    HW2 7485   1.533   2.204   3.964 -0.9716  0.3652 -1.4594
 2477SOL     OW 7486   3.224   2.447   2.184  0.4195  0.1966  0.0133
 2477SOL    HW1 7487   3.307   2.488   2.157  0.7212  0.7022  1.5979
 2477SOL    HW2 7488   3.178   2.517   2.231  0.0731 -0.7280  1.0687
 2478SOL     OW 7489   0.271   0.648   0.377 -0.0387 -0.7251  0.7644
 2478SOL    HW1 7490   0.179   0.626   0.361  0.1156 -0.6900 -0.2699
 2478SOL    HW2 7491   0.302   0.681   0.293  0.9280 -0.7517  1.1006
 2479SOL     OW 7492   4.086   1.729   0.285  0.3100 -0.9793  0.4324
 2479SOL    HW1 7493   4.017   1.792   0.303  0.5077 -1.0004  1.3202
 2479SOL    HW2 7494   4.086   1.719   0.190 -1.4618 -1.6123  0.4571
 2480SOL     OW 7495   3.815   3.020   4.781 -1.0381 -0.3015 -0.3900
 2480SOL    HW1 7496   3.879   3.079   4.740 -1.2969 -0.2000 -0.6452
 2480SOL    HW2 7497   3.864   2.978   4.852 -0.8318  0.1698 -0.2468
 2481SOL     OW 7498   1.531   2.891   3.667 -0.9542 -0.4211  0.1474
 2481SOL    HW1 7499   1.525   2.824   3.599  0.0542 -0.8101  0.4321
 2481SOL    HW2 7500   1.580   2.962   3.627  0.3450 -0.9779  0.6969
 2482SOL     OW 7501   1.474   3.955   4.752  0.4366  0.4696  0.3452
 2482SOL    HW1 7502   1.441   3.881   4.802 -0.0792  0.4748  0.0168
 2482SOL    HW2 7503   1.559   3.975   4.792 -0.0049  0.5256  1.2698
 2483SOL     OW 7504   0.121   4.831   1.033  0.2116  0.1944 -0.1780
 2483SOL    HW1 7505   0.095   4.766   0.968  0.4611  0.4263 -0.5056
 2483SOL    HW2 7506   0.209   4.858   1.008  0.7563 -0.5102  0.8735
 2484SOL     OW 7507   3.522   2.013   3.454 -0.4002  0.4194  0.4407
 2484SOL    HW1 7508   3.563   2.043   3.534  0.0849 -0.0339  0.3689
 2484SOL    HW2 7509   3.540   2.081   3.390  1.0541 -0.1875  0.1683
 2485SOL     OW 7510   4.822   3.141   2.534 -0.3984  0.2511 -0.0129
 2485SOL    HW1 7511   4.896   3.202   2.542 -1.6645  2.1992 -1.8534
 2485SOL    HW2 7512   4.792   3.127   2.624 -0.1107  2.5012  0.4957
 2486SOL     OW 7513   4.914   4.120   2.643 -0.0072 -0.2434 -0.3013
 2486SOL    HW1 7514   4.849   4.183   2.674 -0.3942 -0.1885 -1.1884
 2486SOL    HW2 7515   4.878   4.087   2.561  0.5314 -1.0933 -0.2141
 2487SOL     OW 7516   4.033   0.613   4.413 -0.9460 -0.2723 -0.3777
 2487SOL    HW1 7517   4.039   0.685   4.352  1.8158 -1.5741 -1.8109
 2487SOL    HW2 7518   4.102   0.629   4.477 -2.1860 -0.2090  0.9999
 2488SOL     OW 7519   0.331   1.235   0.762  0.6004 -0.3090 -0.2245
 2488SOL    HW1 7520   0.269   1.220   0.690 -0.0658 -0.7383  0.4179
 2488SOL    HW2 7521   0.366   1.322   0.746 -1.2785  0.5818  0.1825
 2489SOL     OW 7522   3.597   0.748   3.725  0.3139 -0.6303  0.3853
 2489SOL    HW1 7523   3.668   0.775   3.667  0.6353 -0.4387  0.8624
 2489SOL    HW2 7524   3.622   0.661   3.755  0.6076 -0.3465  0.9665
 2490SOL     OW 7525   3.347   1.694   1.277 -0.0708  0.0459 -0.1252
 2490SOL    HW1 7526   3.373   1.602   1.269  0.3822  0.2647 -1.2612
 2490SOL    HW2 7527   3.311   1.700   1.366 -0.9282 -1.4335 -0.3314
 2491SOL     OW 7528   4.020   0.425   0.782 -0.0764  0.5493  0.1212
 2491SOL    HW1 7529   3.954   0.372   0.736  0.2449  1.0655 -0.9683
 2491SOL    HW2 7530   3.981   0.512   0.788  0.3987  0.7972 -0.3102
 2492SOL     OW 7531   2.118   4.567   3.590  0.2284  0.5561  0.3281
 2492SOL    HW1 7532   2.046   4.622   3.559  0.2519 -0.2091 -1.1627
 2492SOL    HW2 7533   2.197   4.615   3.566  0.2421  0.1272 -0.4984
 2493SOL     OW 7534   4.263   2.976   3.905  0.1897 -0.7423 -0.1433
 2493SOL    HW1 7535   4.268   3.014   3.993  3.1081 -0.1031 -0.4716
 2493SOL    HW2 7536   4.325   2.903   3.907 -0.7270 -1.5862 -1.3032
 2494SOL     OW 7537   1.415   4.323   4.368  0.2415 -0.3452  0.2724
 2494SOL    HW1 7538   1.384   4.414   4.370 -0.3092 -0.5476  2.4419
 2494SOL    HW2 7539   1.386   4.285   4.451  3.3898 -1.5187  0.9830
 2495SOL     OW 7540   2.422   0.152   4.464 -0.3412 -0.4130 -0.5673
 2495SOL    HW1 7541   2.428   0.065   4.504  1.3326 -0.0335  0.1114
 2495SOL    HW2 7542   2.382   0.207   4.531 -0.2333 -0.3958 -0.5166
 2496SOL     OW 7543   2.854   4.350   3.908 -0.1885 -0.0468 -0.4301
 2496SOL    HW1 7544   2.791   4.307   3.850 -1.0430 -0.0804  0.4906
 2496SOL    HW2 7545   2.895   4.417   3.853 -0.2340 -0.7362 -1.3411
 2497SOL     OW 7546   1.937   3.692   4.003 -0.3066 -0.1408 -0.4915
 2497SOL    HW1 7547   1.954   3.598   3.996  2.2416  0.0437  1.6334
 2497SOL    HW2 7548   1.968   3.715   4.090  1.8631  3.1459 -1.9357
 2498SOL     OW 7549   3.845   2.907   4.011 -0.3402  0.1816  0.6909
 2498SOL    HW1 7550   3.934   2.873   4.019  0.0286  1.1789  0.8997
 2498SOL    HW2 7551   3.822   2.895   3.919 -0.3017 -0.8069  0.7950
 2499SOL     OW 7552   4.220   3.461   1.964  0.1936 -0.2934 -0.2486
 2499SOL    HW1 7553   4.161   3.468   1.889 -1.3482  1.4029  1.0472
 2499SOL    HW2 7554   4.167   3.420   2.033  1.7512 -2.3557 -0.1654
 2500SOL     OW 7555   1.195   1.200   0.665  0.2594 -0.7372  0.1905
 2500SOL    HW1 7556   1.146   1.118   0.663  0.2632 -0.7322 -0.4566
 2500SOL    HW2 7557   1.130   1.267   0.645  0.3752 -0.6525  0.0940
 2501SOL     OW 7558   4.443   1.143   3.240 -0.6853  0.0936  0.2411
 2501SOL    HW1 7559   4.403   1.101   3.164 -2.0619  1.5197  0.1283
 2501SOL    HW2 7560   4.402   1.101   3.315 -0.5019 -0.1970  0.1831
 2502SOL     OW 7561   4.349   2.472   3.870 -0.0612 -0.3343 -0.2343
 2502SOL    HW1 7562   4.438   2.438   3.862  0.0933 -0.2261  0.8779
 2502SOL    HW2 7563   4.351   2.527   3.948 -1.0983 -0.2825 -0.2269
 2503SOL     OW 7564   2.590   3.373   4.950  0.4560 -0.6085 -0.1888
 2503SOL    HW1 7565   2.573   3.313   4.876 -0.2487 -0.8493  0.1597
 2503SOL    HW2 7566   2.526   3.443   4.938 -0.3559 -1.1674  0.7528
 2504SOL     OW 7567   2.347   4.805   1.507  0.0325  0.1382 -0.2733
 2504SOL    HW1 7568   2.412   4.791   1.577  0.8316  1.3370 -0.7523
 2504SOL    HW2 7569   2.321   4.897   1.516 -1.7866 -0.3678  0.0364
 2505SOL     OW 7570   2.713   4.949   4.647  0.4718 -0.2383 -0.7159
 2505SOL    HW1 7571   2.763   5.028   4.630  0.4353 -0.4024 -1.5970
 2505SOL    HW2 7572   2.735   4.927   4.738 -0.8089  1.6995  0.1239
 2506SOL     OW 7573   2.917   0.166   1.770  0.3895 -0.3225 -0.1880
 2506SOL    HW1 7574   2.871   0.189   1.689 -0.2623 -1.1038 -0.0507
 2506SOL    HW2 7575   2.899   0.073   1.782  0.1180 -0.1155  1.0930
 2507SOL     OW 7576   4.872   1.031   2.383  0.0905 -0.7738 -0.3345
 2507SOL    HW1 7577   4.912   1.077   2.457 -0.1972 -1.8284  0.5104
 2507SOL    HW2 7578   4.834   1.100   2.329 -1.6679 -0.0344  1.6873
 2508SOL     OW 7579   3.722   2.901   2.403  0.3077 -0.1396  0.0986
 2508SOL    HW1 7580   3.767   2.986   2.403 -0.0010  0.0248 -0.5395
 2508SOL    HW2 7581   3.784   2.842   2.446 -0.3093  0.8239  2.4903
 2509SOL     OW 7582   0.209   2.512   3.984  0.5303  0.5217  0.1820
 2509SOL    HW1 7583   0.294   2.475   4.010 -0.4185 -1.5053  0.6222
 2509SOL    HW2 7584   0.147   2.479   4.049 -1.4767 -2.5300 -2.8456
 2510SOL     OW 7585   3.641   2.795   2.143  0.0952 -0.3033  1.0966
 2510SOL    HW1 7586   3.612   2.869   2.089 -1.6294 -0.8703  1.1970
 2510SOL    HW2 7587   3.660   2.834   2.228  0.5439  0.2269  0.7638
 2511SOL     OW 7588   4.260   4.489   4.622 -0.6681  0.2154 -0.4089
 2511SOL    HW1 7589   4.328   4.557   4.616 -0.3582 -0.1983 -2.3037
 2511SOL    HW2 7590   4.224   4.499   4.710  1.6088  0.6659  0.5350
 2512SOL     OW 7591   2.174   1.625   1.621 -0.0812  0.2468  0.6531
 2512SOL    HW1 7592   2.218   1.579   1.693 -0.2700  1.1563  1.3778
 2512SOL    HW2 7593   2.241   1.684   1.587  0.2420 -0.7170 -0.4462
 2513SOL     OW 7594   3.608   2.414   4.283 -0.0952 -0.4950  0.5147
 2513SOL    HW1 7595   3.655   2.496   4.265 -1.8788  0.2835 -0.9024
 2513SOL    HW2 7596   3.677   2.347   4.283  1.0489  0.5922 -1.4113
 2514SOL     OW 7597   4.602   0.723   3.086 -0.4924 -0.4127  0.1657
 2514SOL    HW1 7598   4.576   0.812   3.066 -1.3773  0.4020  4.0086
 2514SOL    HW2 7599   4.685   0.710   3.041 -0.2725  2.4107 -0.3703
 2515SOL     OW 7600   3.210   4.813   4.323  0.5313 -0.1475 -0.2264
 2515SOL    HW1 7601   3.161   4.864   4.388  2.8885  0.5118  1.1230
 2515SOL    HW2 7602   3.190   4.722   4.344 -1.6635  0.0859 -1.0188
 2516SOL     OW 7603   4.321   0.234   1.245 -0.1246 -0.2720  0.4218
 2516SOL    HW1 7604   4.330   0.174   1.172 -0.5034  1.0294 -0.7505
 2516SOL    HW2 7605   4.262   0.303   1.212  0.9582  1.1821  1.3907
 2517SOL     OW 7606   0.424   0.131   2.614  0.3597 -0.1805  0.1537
 2517SOL    HW1 7607   0.354   0.176   2.568  0.9260  2.0668  1.3561
 2517SOL    HW2 7608   0.473   0.085   2.546 -1.3819 -0.5804 -0.8785
 2518SOL     OW 7609   2.859   4.796   0.185  0.0128 -0.3143  1.2099
 2518SOL    HW1 7610   2.826   4.881   0.156 -0.5852 -0.0884  2.4633
 2518SOL    HW2 7611   2.947   4.791   0.149 -0.3593  0.3207  0.1472
 2519SOL     OW 7612   3.695   0.048   1.914  0.1760  0.3918  0.2862
 2519SOL    HW1 7613   3.698   0.129   1.862 -2.0566  0.6892  0.5402
 2519SOL    HW2 7614   3.618   0.002   1.882  0.9414 -1.2650  0.7441
 2520SOL     OW 7615   2.886   2.679   1.498  0.0684  0.7791 -0.0427
 2520SOL    HW1 7616   2.847   2.720   1.575 -0.5182 -0.8408  0.5680
 2520SOL    HW2 7617   2.978   2.668   1.522 -0.3599 -0.9273  1.0348
 2521SOL     OW 7618   4.893   3.308   1.449 -0.7804 -0.4415 -0.4692
 2521SOL    HW1 7619   4.933   3.387   1.413 -0.4781 -0.6731 -0.6516
 2521SOL    HW2 7620   4.832   3.279   1.380  0.0911 -1.1085 -0.9928
 2522SOL     OW 7621   0.707   0.535   3.946  0.3365  0.0795 -0.3995
 2522SOL    HW1 7622   0.775   0.477   3.979  1.1439  0.1862 -1.7879
 2522SOL    HW2 7623   0.646   0.477   3.900  0.2216  0.1304 -0.3105
 2523SOL     OW 7624   2.530   2.940   0.046 -0.0325 -0.1384  0.2634
 2523SOL    HW1 7625   2.624   2.927   0.061 -0.2993 -0.0703  2.2550
 2523SOL    HW2 7626   2.501   2.857   0.008  0.6153 -0.6234  0.7999
 2524SOL     OW 7627   2.815   3.989   0.357  0.0530  0.4883 -0.0354
 2524SOL    HW1 7628   2.753   4.046   0.403  0.2494 -0.2818  1.2235
 2524SOL    HW2 7629   2.845   3.927   0.424 -1.2793 -2.0790 -1.6573
 2525SOL     OW 7630   2.964   0.256   0.612 -0.4638  0.2285 -0.1768
 2525SOL    HW1 7631   3.037   0.201   0.639 -0.9087 -0.5595 -0.5252
 2525SOL    HW2 7632   2.942   0.308   0.689  1.2570  1.3933 -0.4282
 2526SOL     OW 7633   3.421   2.743   0.239  0.4162  0.4839 -0.0366
 2526SOL    HW1 7634   3.432   2.838   0.245 -1.6006  0.8386 -1.1318
 2526SOL    HW2 7635   3.483   2.716   0.171  1.2409  0.9257  0.5129
 2527SOL     OW 7636   2.576   1.208   3.113  0.4007  0.5135  0.3435
 2527SOL    HW1 7637   2.625   1.279   3.156  0.5143  0.1753  0.7790
 2527SOL    HW2 7638   2.609   1.208   3.023  0.9688  0.5057  0.5467
 2528SOL     OW 7639   2.936   1.964   2.093  0.4347  0.1775 -0.1627
 2528SOL    HW1 7640   2.915   1.871   2.095 -0.8157  0.3840 -1.5315
 2528SOL    HW2 7641   2.974   1.983   2.179 -0.2039 -1.3754  0.4924
 2529SOL     OW 7642   3.293   1.929   4.695  0.0596  0.4118 -0.0004
 2529SOL    HW1 7643   3.259   1.990   4.629  0.1807 -0.4059 -0.8530
 2529SOL    HW2 7644   3.243   1.948   4.774 -0.5121  1.0278 -0.4961
 2530SOL     OW 7645   3.163   2.412   2.529 -0.1364  0.6314 -0.6617
 2530SOL    HW1 7646   3.206   2.449   2.452  0.6491  2.2259  0.4659
 2530SOL    HW2 7647   3.102   2.481   2.557  0.3395  0.5288  0.7056
 2531SOL     OW 7648   4.369   3.886   2.614  0.4016  0.8588  0.4068
 2531SOL    HW1 7649   4.462   3.885   2.591  0.2237  2.0925 -0.4550
 2531SOL    HW2 7650   4.358   3.966   2.666 -0.8332  2.9586 -2.7399
 2532SOL     OW 7651   2.761   2.478   0.721 -0.0137 -0.2559 -0.2906
 2532SOL    HW1 7652   2.772   2.570   0.699 -1.2265  0.0359  0.2294
 2532SOL    HW2 7653   2.814   2.431   0.656  0.0463  0.7710 -1.0005
 2533SOL     OW 7654   3.950   3.654   1.721 -0.2416 -0.2723  0.1049
 2533SOL    HW1 7655   3.930   3.613   1.805 -1.0787  1.0141  0.5552
 2533SOL    HW2 7656   3.948   3.748   1.738 -1.7838  0.0606 -1.6300
 2534SOL     OW 7657   3.831   0.939   0.149  0.0189  0.0093  0.3121
 2534SOL    HW1 7658   3.770   0.894   0.207 -1.1580 -2.5222 -2.6254
 2534SOL    HW2 7659   3.895   0.980   0.208 -2.6231  0.0539  3.3985
 2535SOL     OW 7660   1.696   4.920   0.961  0.1740  0.5762 -0.1527
 2535SOL    HW1 7661   1.726   4.957   1.044 -1.0553  0.6694  0.2829
 2535SOL    HW2 7662   1.658   4.994   0.915  0.1892  0.3821 -0.4766
 2536SOL     OW 7663   2.886   3.881   4.409  0.1532  0.7033  0.1225
 2536SOL    HW1 7664   2.977   3.864   4.384  0.7801  2.4542  1.0474
 2536SOL    HW2 7665   2.856   3.947   4.346  0.1828  1.5803  1.0092
 2537SOL     OW 7666   0.214   4.326   2.260  0.1338  0.3931  0.0779
 2537SOL    HW1 7667   0.283   4.261   2.248 -0.0768  0.0371  0.7271
 2537SOL    HW2 7668   0.169   4.330   2.175 -0.6688 -1.2766  0.3779
 2538SOL     OW 7669   4.406   0.166   0.150 -0.6341  0.4337  0.1522
 2538SOL    HW1 7670   4.325   0.217   0.151 -0.3883  0.8343 -0.2481
 2538SOL    HW2 7671   4.475   0.230   0.166 -0.3103  0.2502 -0.4955
 2539SOL     OW 7672   0.130   2.930   4.738 -0.5633 -0.3647 -0.7260
 2539SOL    HW1 7673   0.146   2.927   4.832 -1.3025  2.4304 -0.4234
 2539SOL    HW2 7674   0.207   2.974   4.702 -1.2692  0.6041 -1.0923
 2540SOL     OW 7675   3.482   1.958   1.625 -0.1964 -0.1283  0.6028
 2540SOL    HW1 7676   3.476   1.963   1.720  0.9993  1.3407  0.6371
 2540SOL    HW2 7677   3.432   2.032   1.593  0.1751 -0.0763  0.1242
 2541SOL     OW 7678   4.034   1.289   3.376 -0.7391 -0.8027 -0.6462
 2541SOL    HW1 7679   4.076   1.345   3.311 -0.6483 -1.1678 -0.9051
 2541SOL    HW2 7680   4.093   1.214   3.384 -0.4083 -0.4500  0.3505
 2542SOL     OW 7681   2.763   3.396   4.672  0.4139 -0.1395 -0.4456
 2542SOL    HW1 7682   2.692   3.356   4.621 -0.7999 -0.5834  1.4919
 2542SOL    HW2 7683   2.843   3.357   4.637 -0.2495  0.3503 -2.6743
 2543SOL     OW 7684   0.802   1.088   2.632 -0.0946  0.2901 -0.6398
 2543SOL    HW1 7685   0.708   1.070   2.631 -0.0313 -0.4988  1.5740
 2543SOL    HW2 7686   0.827   1.087   2.540 -2.2757  0.7512 -1.3057
 2544SOL     OW 7687   3.751   0.375   3.021 -0.1555  0.4621  0.0011
 2544SOL    HW1 7688   3.726   0.285   3.001 -0.9082  0.9050 -1.1605
 2544SOL    HW2 7689   3.833   0.367   3.069 -0.1433 -0.8339 -0.1972
 2545SOL     OW 7690   3.405   3.579   2.624  0.2135 -0.3548 -0.4112
 2545SOL    HW1 7691   3.398   3.560   2.531  1.0274  0.3407 -0.6176
 2545SOL    HW2 7692   3.499   3.582   2.642  0.0791  0.4899  0.2203
 2546SOL     OW 7693   1.246   3.763   0.526  0.1053 -0.1383  0.4211
 2546SOL    HW1 7694   1.244   3.856   0.501 -0.7636 -0.4904 -0.9055
 2546SOL    HW2 7695   1.249   3.764   0.622 -0.3020  1.2498  0.4385
 2547SOL     OW 7696   2.659   4.102   4.137 -0.0319  0.4137 -0.2899
 2547SOL    HW1 7697   2.649   4.136   4.048  0.9574 -1.6898 -1.2507
 2547SOL    HW2 7698   2.753   4.098   4.150 -0.1669  1.1104  1.0565
 2548SOL     OW 7699   3.583   2.828   0.035  0.0294  0.0030 -0.2967
 2548SOL    HW1 7700   3.650   2.777  -0.011  1.3909  1.6073 -0.1914
 2548SOL    HW2 7701   3.625   2.912   0.054 -1.1879  0.1710  2.0078
 2549SOL     OW 7702   3.918   3.909   2.268  0.3213  0.2884  0.6689
 2549SOL    HW1 7703   3.945   3.947   2.184 -1.0528 -1.1326 -0.4929
 2549SOL    HW2 7704   3.979   3.837   2.282 -1.0769 -1.2233 -0.5868
 2550SOL     OW 7705   3.508   4.278   3.486 -0.5557  0.2744  0.2928
 2550SOL    HW1 7706   3.554   4.356   3.515 -0.9768  0.3738  0.7187
 2550SOL    HW2 7707   3.445   4.310   3.421 -1.2244  0.4128  0.9852
 2551SOL     OW 7708   3.149   1.953   4.374  0.5475 -0.0392  0.4240
 2551SOL    HW1 7709   3.133   1.954   4.280  0.6147 -1.7965  0.3744
 2551SOL    HW2 7710   3.191   2.037   4.392 -2.3566  1.7854 -0.5564
 2552SOL     OW 7711   1.574   4.329   3.546  0.3336  0.1895 -0.6925
 2552SOL    HW1 7712   1.580   4.358   3.637  1.4003  1.8433 -1.2389
 2552SOL    HW2 7713   1.597   4.236   3.549  0.1548  0.1652  0.7371
 2553SOL     OW 7714   0.640   0.893   4.891  0.1477 -0.1037  0.1354
 2553SOL    HW1 7715   0.552   0.882   4.855  0.1837  2.2637 -0.8488
 2553SOL    HW2 7716   0.627   0.935   4.976  0.3002  4.1948 -1.7366
 2554SOL     OW 7717   2.978   0.855   1.451  0.9568  0.1067 -0.0911
 2554SOL    HW1 7718   2.993   0.768   1.414 -0.2519 -1.0241  1.9342
 2554SOL    HW2 7719   2.885   0.871   1.439  1.0698  0.9135  0.0398
 2555SOL     OW 7720   0.715   0.626   4.976  0.4388 -0.3370 -0.2868
 2555SOL    HW1 7721   0.693   0.717   4.954 -1.7134 -1.1644 -1.8776
 2555SOL    HW2 7722   0.742   0.630   5.068  0.1272  1.8518 -0.2266
 2556SOL     OW 7723   3.496   3.830   0.526  0.6901  0.1154 -0.7113
 2556SOL    HW1 7724   3.496   3.734   0.524 -0.3570  0.0695  0.0599
 2556SOL    HW2 7725   3.539   3.856   0.445  1.3063 -1.0047 -0.7715
 2557SOL     OW 7726   2.887   2.520   3.922  0.4457  0.3352 -0.3642
 2557SOL    HW1 7727   2.890   2.615   3.933 -3.1342  0.6727 -0.9540
 2557SOL    HW2 7728   2.819   2.507   3.855 -0.3254 -2.6804  0.8749
 2558SOL     OW 7729   0.728   2.044   2.715 -0.1121  0.4261 -0.3827
 2558SOL    HW1 7730   0.665   1.992   2.764  0.1794 -0.0117 -0.4687
 2558SOL    HW2 7731   0.680   2.123   2.691 -1.5064 -1.0269 -2.7557
 2559SOL     OW 7732   2.379   3.511   4.861  0.5246 -0.0241 -0.0079
 2559SOL    HW1 7733   2.287   3.522   4.834  0.1651 -0.3379  1.0497
 2559SOL    HW2 7734   2.422   3.477   4.783  0.1423  1.8183 -1.0959
 2560SOL     OW 7735   2.782   4.300   0.755 -0.6916  0.0894  0.3061
 2560SOL    HW1 7736   2.809   4.265   0.839 -0.4771 -1.5003 -0.3894
 2560SOL    HW2 7737   2.740   4.227   0.711 -2.5421  1.4059 -0.2381
 2561SOL     OW 7738   1.685   0.365   0.407 -0.9235  0.0946  0.0508
 2561SOL    HW1 7739   1.743   0.369   0.330 -0.4363  0.1678  0.4135
 2561SOL    HW2 7740   1.727   0.423   0.471  0.1678 -2.0383  1.3607
 2562SOL     OW 7741   1.124   3.442   2.617  0.2292  0.2377 -0.2008
 2562SOL    HW1 7742   1.074   3.523   2.616  0.2311  0.2313 -0.7249
 2562SOL    HW2 7743   1.093   3.396   2.695  1.9324  1.8044  1.4967
 2563SOL     OW 7744   0.272   4.385   2.535  0.5288  0.2541  0.2406
 2563SOL    HW1 7745   0.310   4.473   2.534 -0.8333  0.8794 -0.2401
 2563SOL    HW2 7746   0.261   4.363   2.442 -1.3177  0.6184  0.3227
 2564SOL     OW 7747   2.590   2.553   3.877 -0.6988  0.1234 -0.0966
 2564SOL    HW1 7748   2.594   2.628   3.817 -1.0199 -0.5264 -0.9449
 2564SOL    HW2 7749   2.613   2.590   3.963 -1.9393  1.4186 -0.2841
 2565SOL     OW 7750   1.830   3.713   0.766  0.1346  0.0009  0.2559
 2565SOL    HW1 7751   1.922   3.688   0.766 -0.8339 -4.3124  0.2632
 2565SOL    HW2 7752   1.812   3.738   0.857  0.7534 -1.8098  0.9186
 2566SOL     OW 7753   2.702   2.044   3.041 -0.1327  0.1547  0.0114
 2566SOL    HW1 7754   2.710   1.965   3.094 -1.2298  0.4556  0.6650
 2566SOL    HW2 7755   2.721   2.016   2.952  1.4808 -0.4206  0.5092
 2567SOL     OW 7756   0.115   2.704   0.488  0.4033 -0.1461  0.1778
 2567SOL    HW1 7757   0.192   2.747   0.449 -0.0017  0.7494  0.3380
 2567SOL    HW2 7758   0.050   2.773   0.494 -0.3192 -0.8301  0.3328
 2568SOL     OW 7759   0.258   0.700   2.989 -0.0844 -0.4128  0.6897
 2568SOL    HW1 7760   0.281   0.643   2.916  1.3316 -0.0361  0.8194
 2568SOL    HW2 7761   0.231   0.641   3.059 -0.2878 -0.8318  0.2572
 2569SOL     OW 7762   1.906   3.964   4.603 -0.1143 -0.1914  0.1962
 2569SOL    HW1 7763   1.990   3.990   4.642 -1.7049  2.8202  1.8919
 2569SOL    HW2 7764   1.911   3.996   4.513 -0.2250  2.0462  0.9271
 2570SOL     OW 7765   0.379   0.696   0.107 -0.2161 -0.2201  0.0443
 2570SOL    HW1 7766   0.346   0.764   0.049 -1.0295 -0.4887  0.1820
 2570SOL    HW2 7767   0.452   0.737   0.153 -0.8529  0.6514  0.3130
 2571SOL     OW 7768   3.627   4.046   1.420 -0.4331  0.1644  0.7426
 2571SOL    HW1 7769   3.623   3.952   1.435  0.9203  0.2390  1.7350
 2571SOL    HW2 7770   3.720   4.065   1.406 -0.7376  1.2960  0.1125
 2572SOL     OW 7771   2.390   1.366   2.292 -0.3756  0.2668 -0.4385
 2572SOL    HW1 7772   2.388   1.332   2.203  1.7471  0.0454 -0.4555
 2572SOL    HW2 7773   2.299   1.359   2.322 -0.9074 -0.8481 -2.1196
 2573SOL     OW 7774   2.057   3.487   4.978  0.4897 -0.5446 -0.2839
 2573SOL    HW1 7775   2.119   3.415   4.966 -0.6287 -1.2825 -2.1389
 2573SOL    HW2 7776   2.015   3.468   5.061  1.1084 -1.3340 -0.1292
 2574SOL     OW 7777   0.757   2.674   2.091 -0.3118 -0.9753 -0.2228
 2574SOL    HW1 7778   0.706   2.747   2.057 -0.3444  0.1167  2.0302
 2574SOL    HW2 7779   0.845   2.710   2.103  0.0806 -1.7835 -0.5863
 2575SOL     OW 7780   1.239   1.344   1.362  0.0357  0.0637 -0.1132
 2575SOL    HW1 7781   1.189   1.268   1.393 -0.3607 -0.2984 -1.5459
 2575SOL    HW2 7782   1.211   1.355   1.271  2.1123  0.2265 -0.7837
 2576SOL     OW 7783   3.988   0.312   3.179 -0.1054 -0.2336  0.0199
 2576SOL    HW1 7784   4.081   0.299   3.193 -0.2738 -1.6220  0.0518
 2576SOL    HW2 7785   3.972   0.404   3.199  1.1063 -0.1799  0.8080
 2577SOL     OW 7786   1.989   0.348   4.888 -0.3324  0.1987 -0.1780
 2577SOL    HW1 7787   1.985   0.434   4.847 -1.1945  0.9153  1.2952
 2577SOL    HW2 7788   1.898   0.319   4.892 -0.0454 -0.8131 -0.7111
 2578SOL     OW 7789   2.106   3.766   4.899 -0.2280  0.0839 -0.1286
 2578SOL    HW1 7790   2.069   3.689   4.943  0.7534 -0.5726 -0.4328
 2578SOL    HW2 7791   2.139   3.732   4.816 -0.3772  0.9687 -0.5538
 2579SOL     OW 7792   0.338   3.354   2.712 -1.0299 -0.0963 -0.1256
 2579SOL    HW1 7793   0.418   3.309   2.685 -1.4654 -0.8290 -0.2210
 2579SOL    HW2 7794   0.348   3.366   2.806 -0.4589  0.5414 -0.2560
 2580SOL     OW 7795   2.285   0.465   2.463  0.0825  0.6261 -0.4322
 2580SOL    HW1 7796   2.356   0.507   2.512  0.7019  0.1168 -0.8677
 2580SOL    HW2 7797   2.206   0.488   2.511  0.6188  0.5628  0.5104
 2581SOL     OW 7798   1.913   0.957   3.947 -0.1789 -0.4877  0.9725
 2581SOL    HW1 7799   1.828   0.983   3.982 -0.6620  1.3806 -1.3667
 2581SOL    HW2 7800   1.892   0.901   3.873  0.5696  0.4661  0.0095
 2582SOL     OW 7801   1.148   4.299   2.486 -0.1948 -0.1956 -0.2596
 2582SOL    HW1 7802   1.170   4.389   2.512  2.5466 -0.7744 -0.2647
 2582SOL    HW2 7803   1.077   4.273   2.544  2.3597  0.2652  3.3812
 2583SOL     OW 7804   0.909   4.973   2.431  0.2857  0.2469 -0.6972
 2583SOL    HW1 7805   0.844   4.980   2.501 -0.6575 -2.8564 -1.1403
 2583SOL    HW2 7806   0.982   5.028   2.461 -1.1638  1.1825  1.3773
 2584SOL     OW 7807   4.141   0.956   3.336  0.1118  0.2601  0.2896
 2584SOL    HW1 7808   4.202   0.972   3.408 -0.4874 -0.1572  0.9008
 2584SOL    HW2 7809   4.167   0.871   3.300 -1.5771 -1.1342  2.1308
 2585SOL     OW 7810   3.673   3.593   2.676  0.0402  0.0022 -0.1061
 2585SOL    HW1 7811   3.742   3.574   2.740  0.0576  0.5934  0.0518
 2585SOL    HW2 7812   3.720   3.614   2.595  0.0294 -0.2278 -0.1729
 2586SOL     OW 7813   3.008   4.429   2.268  0.3081  0.0674  0.0818
 2586SOL    HW1 7814   2.917   4.459   2.268  0.4898  0.6390 -0.0688
 2586SOL    HW2 7815   3.023   4.396   2.357  0.3411  1.1891  0.5061
 2587SOL     OW 7816   2.812   1.134   2.887  0.1673 -0.3480  0.3931
 2587SOL    HW1 7817   2.868   1.082   2.944 -0.1973 -1.3107 -0.1145
 2587SOL    HW2 7818   2.781   1.073   2.820 -0.1904  0.5382 -0.2755
 2588SOL     OW 7819   4.620   4.120   0.497 -0.5161  0.4394 -0.2726
 2588SOL    HW1 7820   4.695   4.171   0.527 -0.4011 -0.5424  1.2237
 2588SOL    HW2 7821   4.650   4.029   0.498 -1.0258  0.2159 -1.9092
 2589SOL     OW 7822   4.359   2.685   2.357  0.1769 -0.1644 -0.3010
 2589SOL    HW1 7823   4.442   2.697   2.312 -0.4260  0.4920 -1.2704
 2589SOL    HW2 7824   4.362   2.747   2.430  0.7160 -0.4781 -0.0483
 2590SOL     OW 7825   3.377   0.718   4.472  0.4621  0.2654 -0.4551
 2590SOL    HW1 7826   3.338   0.788   4.525  1.3059 -0.0806  0.6483
 2590SOL    HW2 7827   3.361   0.746   4.381 -1.3190  0.6958 -0.0510
 2591SOL     OW 7828   3.094   4.011   3.382 -0.2605 -0.1160 -0.0361
 2591SOL    HW1 7829   3.046   4.013   3.464  0.5921  0.0886  0.4697
 2591SOL    HW2 7830   3.029   4.035   3.316 -1.4836 -2.2694  0.2727
 2592SOL     OW 7831   0.192   4.974   4.359 -0.4544 -0.2515 -0.8237
 2592SOL    HW1 7832   0.217   5.065   4.344 -1.4525  0.1822  0.0369
 2592SOL    HW2 7833   0.125   4.956   4.293 -0.6930 -0.1593 -0.6106
 2593SOL     OW 7834   3.348   3.858   4.238 -0.1302 -0.6654 -0.1451
 2593SOL    HW1 7835   3.254   3.859   4.217  0.0749 -2.2844 -1.3135
 2593SOL    HW2 7836   3.351   3.861   4.334 -1.3256  0.6018 -0.1225
 2594SOL     OW 7837   4.300   3.289   4.951 -0.2577  0.1593  0.0891
 2594SOL    HW1 7838   4.381   3.251   4.915  0.6708  0.3367  1.8779
 2594SOL    HW2 7839   4.274   3.228   5.020 -1.2238  0.5503  0.0843
 2595SOL     OW 7840   2.006   2.088   1.260  0.5477  0.7735  0.0333
 2595SOL    HW1 7841   2.047   2.160   1.307  0.2319  0.3792  0.9281
 2595SOL    HW2 7842   2.077   2.024   1.248  0.8525  1.2558 -0.8481
 2596SOL     OW 7843   2.462   0.545   3.800  0.0291  0.0626  0.2599
 2596SOL    HW1 7844   2.536   0.579   3.852  0.7226 -1.0918  0.0656
 2596SOL    HW2 7845   2.431   0.470   3.850  0.8491 -1.2113 -1.0653
 2597SOL     OW 7846   4.150   0.688   0.909  0.1024 -0.8111 -0.1897
 2597SOL    HW1 7847   4.167   0.632   0.833 -1.0830 -0.9892 -0.3555
 2597SOL    HW2 7848   4.060   0.718   0.896  0.7296  1.2333 -0.1520
 2598SOL     OW 7849   2.843   2.233   2.766 -0.6812  0.5604 -0.1544
 2598SOL    HW1 7850   2.858   2.265   2.855  2.1243 -0.5887 -0.0960
 2598SOL    HW2 7851   2.866   2.308   2.710  2.8756 -0.1825  0.0632
 2599SOL     OW 7852   4.304   0.329   2.236  0.1774  0.5736  0.0144
 2599SOL    HW1 7853   4.259   0.365   2.160  0.6357  0.1795 -0.4425
 2599SOL    HW2 7854   4.350   0.252   2.204  0.3029  0.3463  0.7070
 2600SOL     OW 7855   2.589   4.297   2.244  0.3934 -0.0744 -0.1980
 2600SOL    HW1 7856   2.643   4.286   2.322  1.0526 -0.9901 -0.7537
 2600SOL    HW2 7857   2.534   4.218   2.242 -0.5999  0.5978  0.0737
 2601SOL     OW 7858   2.549   3.216   0.583 -0.1670  0.2829 -0.0430
 2601SOL    HW1 7859   2.455   3.222   0.569 -0.0691 -0.4270 -1.1766
 2601SOL    HW2 7860   2.582   3.305   0.567 -0.4520  0.1628 -1.4666
 2602SOL     OW 7861   3.394   4.156   1.983  0.1377 -0.3318  0.2138
 2602SOL    HW1 7862   3.329   4.204   2.035 -0.0907  0.6106 -0.9081
 2602SOL    HW2 7863   3.371   4.064   1.994 -0.5231 -0.0870  0.9554
 2603SOL     OW 7864   2.855   4.568   2.525 -0.2397  0.3990  0.2883
 2603SOL    HW1 7865   2.898   4.487   2.554 -0.1510 -0.1528 -1.2753
 2603SOL    HW2 7866   2.763   4.544   2.516 -0.4515  0.8621  1.1065
 2604SOL     OW 7867   1.620   0.659   3.601 -0.1545  0.1146 -0.0610
 2604SOL    HW1 7868   1.624   0.691   3.511  0.1038 -1.3548 -0.6162
 2604SOL    HW2 7869   1.695   0.600   3.608 -1.1141 -1.0761  0.5787
 2605SOL     OW 7870   3.243   0.212   0.104  0.3118 -0.4416 -0.2217
 2605SOL    HW1 7871   3.271   0.291   0.150  1.0723  0.7420 -2.5289
 2605SOL    HW2 7872   3.148   0.213   0.110  0.0201  2.4085 -2.6434
 2606SOL     OW 7873   1.731   2.052   2.918 -0.1847  0.3320 -0.7236
 2606SOL    HW1 7874   1.804   2.054   2.856  0.5377 -2.5839 -0.1100
 2606SOL    HW2 7875   1.685   1.971   2.899 -0.2223 -0.4409  2.1902
 2607SOL     OW 7876   3.422   1.434   4.284 -0.1605 -0.2069 -0.0211
 2607SOL    HW1 7877   3.387   1.398   4.365  0.1162 -1.3917 -0.3985
 2607SOL    HW2 7878   3.467   1.360   4.243 -0.1391  0.4119 -1.1610
 2608SOL     OW 7879   3.682   0.464   0.915  0.3278 -0.3991  0.3741
 2608SOL    HW1 7880   3.746   0.531   0.939  0.3080 -0.3814  0.3780
 2608SOL    HW2 7881   3.673   0.410   0.994 -0.0411 -0.0962  0.5457
 2609SOL     OW 7882   3.486   4.902   3.631  0.6590  0.2112 -0.1188
 2609SOL    HW1 7883   3.395   4.887   3.652  0.6739  2.9455  2.5463
 2609SOL    HW2 7884   3.485   4.933   3.540 -1.4178  2.2746  0.5154
 2610SOL     OW 7885   0.085   4.477   4.207  0.5335  0.0030 -0.4383
 2610SOL    HW1 7886   0.023   4.481   4.134  1.3144  1.0446 -1.0816
 2610SOL    HW2 7887   0.050   4.410   4.265 -2.1337  1.6683  0.0655
 2611SOL     OW 7888   0.339   2.660   4.231 -0.5488  0.2913  0.0537
 2611SOL    HW1 7889   0.348   2.675   4.136 -0.6491  1.6957  0.2407
 2611SOL    HW2 7890   0.368   2.742   4.270 -0.3513 -0.3385  1.2628
 2612SOL     OW 7891   0.407   1.424   3.606  0.2459  0.4623  0.3151
 2612SOL    HW1 7892   0.324   1.427   3.559  0.0690  0.1218  0.6031
 2612SOL    HW2 7893   0.394   1.481   3.682  0.4898  0.9130  0.0225
 2613SOL     OW 7894   4.540   4.663   1.988  0.2829  0.2517  0.0176
 2613SOL    HW1 7895   4.619   4.627   2.028  0.1131 -0.7405 -0.4945
 2613SOL    HW2 7896   4.513   4.596   1.924  0.0963  1.4170 -1.1682
 2614SOL     OW 7897   0.588   4.155   3.003  0.0348 -0.0623  0.6594
 2614SOL    HW1 7898   0.599   4.242   2.964  1.4039 -0.1804  0.7674
 2614SOL    HW2 7899   0.502   4.126   2.971 -0.2646  1.1545  0.3013
 2615SOL     OW 7900   3.852   2.792   4.515 -0.4466  0.3127  0.2193
 2615SOL    HW1 7901   3.820   2.862   4.571 -1.9545  0.8290 -1.2017
 2615SOL    HW2 7902   3.782   2.778   4.451 -0.1594 -2.4378  0.3805
 2616SOL     OW 7903   3.695   4.090   3.905  0.3361  0.2914  0.0808
 2616SOL    HW1 7904   3.658   4.096   3.817 -1.2913  0.6436  0.7565
 2616SOL    HW2 7905   3.728   4.178   3.923  0.0007  0.4150  0.0986
 2617SOL     OW 7906   3.241   3.641   2.032 -0.3850 -0.0021  0.3921
 2617SOL    HW1 7907   3.189   3.661   2.110  0.5105  0.9928  0.7542
 2617SOL    HW2 7908   3.269   3.550   2.045 -0.5261  0.0476  1.0661
 2618SOL     OW 7909   3.074   1.637   0.175  0.2866 -0.4571  0.2408
 2618SOL    HW1 7910   3.068   1.668   0.266  1.2675 -0.6339  0.3810
 2618SOL    HW2 7911   2.997   1.582   0.163 -0.4050  0.3936  0.6364
 2619SOL     OW 7912   1.790   1.873   0.527 -0.7625  0.7818  0.3979
 2619SOL    HW1 7913   1.824   1.943   0.471  1.1621 -0.5101 -0.1601
 2619SOL    HW2 7914   1.700   1.861   0.498  0.5909 -1.0059 -3.8311
 2620SOL     OW 7915   0.935   1.111   4.724  0.0610  0.3357 -0.2347
 2620SOL    HW1 7916   1.028   1.088   4.735  0.3719  1.3997 -0.5092
 2620SOL    HW2 7917   0.914   1.162   4.802 -0.7941 -1.3114  0.6777
 2621SOL     OW 7918   2.814   4.699   3.107  0.2868  0.9382 -0.1485
 2621SOL    HW1 7919   2.728   4.719   3.069 -0.4292 -0.8973  0.3525
 2621SOL    HW2 7920   2.794   4.677   3.198  1.4343  1.3617  0.2145
 2622SOL     OW 7921   3.962   1.148   2.960  0.4970  0.5413  0.6100
 2622SOL    HW1 7922   4.005   1.069   2.927 -0.9357 -0.1949  0.4069
 2622SOL    HW2 7923   4.034   1.209   2.979  1.5940 -0.5768  0.1800
 2623SOL     OW 7924   3.280   2.570   3.604 -0.1152  0.3095  0.2750
 2623SOL    HW1 7925   3.266   2.476   3.589  2.6064 -0.4691  1.9962
 2623SOL    HW2 7926   3.336   2.597   3.531 -1.3166  0.7810 -0.5080
 2624SOL     OW 7927   2.598   0.339   1.160  0.2881 -0.2656  0.2942
 2624SOL    HW1 7928   2.632   0.256   1.196  0.3845 -0.1622  0.4453
 2624SOL    HW2 7929   2.516   0.354   1.208  0.8741  0.3401  1.1438
 2625SOL     OW 7930   4.382   2.002   1.209  0.0362  0.3238  0.5164
 2625SOL    HW1 7931   4.376   2.090   1.171 -0.7513 -0.5617 -1.5929
 2625SOL    HW2 7932   4.307   1.996   1.268 -1.2664  0.3511 -1.0552
 2626SOL     OW 7933   3.651   2.828   4.326  0.2524 -0.4444 -0.1947
 2626SOL    HW1 7934   3.608   2.754   4.285  0.1304  0.2265 -1.3352
 2626SOL    HW2 7935   3.580   2.878   4.366  0.2635 -0.6326  0.0592
 2627SOL     OW 7936   4.094   1.742   3.374 -0.0727  0.4939  0.6242
 2627SOL    HW1 7937   4.102   1.796   3.452  0.3905  2.2175 -0.5730
 2627SOL    HW2 7938   4.185   1.725   3.347 -0.1629  2.7830 -1.4042
 2628SOL     OW 7939   3.753   2.622   1.948 -0.3914 -0.5283  0.4437
 2628SOL    HW1 7940   3.742   2.697   2.006 -0.3816 -0.0234 -0.1915
 2628SOL    HW2 7941   3.684   2.632   1.882  0.5764 -0.1865 -0.5623
 2629SOL     OW 7942   1.616   3.414   2.384  0.3631 -0.1291  0.0851
 2629SOL    HW1 7943   1.562   3.397   2.460 -0.8618 -2.4462 -1.1973
 2629SOL    HW2 7944   1.560   3.465   2.325 -0.5948 -2.5310 -1.2433
 2630SOL     OW 7945   4.200   4.097   1.784 -0.0391  0.1597 -0.6400
 2630SOL    HW1 7946   4.231   4.163   1.721 -0.5398  1.7897  0.7366
 2630SOL    HW2 7947   4.279   4.070   1.831  0.5534 -2.0095 -2.7171
 2631SOL     OW 7948   2.016   1.760   4.758 -0.2048 -0.2684 -0.5156
 2631SOL    HW1 7949   2.002   1.829   4.694  2.7169  2.4656  1.4730
 2631SOL    HW2 7950   2.084   1.705   4.720  0.6315  0.6272 -0.3759
 2632SOL     OW 7951   1.519   3.356   1.436 -0.0211  0.1878 -0.4473
 2632SOL    HW1 7952   1.495   3.373   1.345  0.6604 -2.3540 -1.1803
 2632SOL    HW2 7953   1.445   3.306   1.471  1.3659 -2.3253 -0.8855
 2633SOL     OW 7954   0.858   1.298   4.904 -0.2418  0.3328  0.4155
 2633SOL    HW1 7955   0.775   1.331   4.940  0.0436  0.8494  0.6092
 2633SOL    HW2 7956   0.899   1.254   4.978 -0.2496  0.2551  0.3733
 2634SOL     OW 7957   3.890   2.187   1.896  0.3884  0.6615  0.2985
 2634SOL    HW1 7958   3.862   2.264   1.945  0.5229  0.0432  1.3706
 2634SOL    HW2 7959   3.882   2.115   1.958 -1.1644 -0.4590 -1.0938
 2635SOL     OW 7960   0.843   3.802   1.077 -0.3992 -0.0037 -0.2007
 2635SOL    HW1 7961   0.867   3.801   1.170 -2.6707 -1.5367  0.4485
 2635SOL    HW2 7962   0.770   3.864   1.072 -0.5459 -0.2294 -0.8884
 2636SOL     OW 7963   2.927   0.067   4.263  0.3324 -0.1883 -0.5877
 2636SOL    HW1 7964   2.989   0.066   4.336  1.2167 -3.1088 -1.2331
 2636SOL    HW2 7965   2.842   0.052   4.304  0.7602 -1.2810 -0.0479
 2637SOL     OW 7966   0.209   2.735   3.836 -0.0636  0.0398 -0.4079
 2637SOL    HW1 7967   0.296   2.763   3.810  0.3602 -0.3564  0.5358
 2637SOL    HW2 7968   0.224   2.658   3.891 -1.0740 -0.6784 -1.1083
 2638SOL     OW 7969   0.831   3.484   2.106  0.5876 -0.0459  0.2743
 2638SOL    HW1 7970   0.891   3.558   2.111 -0.8168  1.0740  1.6810
 2638SOL    HW2 7971   0.747   3.519   2.137 -0.7848 -1.5599 -1.4682
 2639SOL     OW 7972   4.218   3.846   4.577 -0.0414 -0.3169  0.3917
 2639SOL    HW1 7973   4.312   3.847   4.595 -0.0293  2.9959  0.5854
 2639SOL    HW2 7974   4.211   3.860   4.482 -0.3411  0.7790  0.5676
 2640SOL     OW 7975   0.781   4.069   4.517  0.0241 -0.8541 -0.3855
 2640SOL    HW1 7976   0.837   4.145   4.535 -0.7402  0.0045 -1.4846
 2640SOL    HW2 7977   0.819   3.998   4.570 -0.8137  0.8954  2.8658
 2641SOL     OW 7978   4.016   0.406   4.619 -0.1528 -0.3288 -0.3526
 2641SOL    HW1 7979   4.041   0.315   4.606  2.7263  0.1052  1.3343
 2641SOL    HW2 7980   4.026   0.447   4.533  2.0145 -0.9103 -0.4124
 2642SOL     OW 7981   3.546   0.542   4.286 -0.4611 -0.1160 -0.4595
 2642SOL    HW1 7982   3.596   0.595   4.348  0.2059 -1.1246 -0.1039
 2642SOL    HW2 7983   3.495   0.483   4.341 -0.2160 -0.7095 -0.8632
 2643SOL     OW 7984   4.665   0.934   2.074  0.0197 -0.9408  0.2490
 2643SOL    HW1 7985   4.736   0.900   2.018 -0.4388 -0.1200 -0.8759
 2643SOL    HW2 7986   4.700   0.927   2.163  1.0109 -1.7362 -0.1705
 2644SOL     OW 7987   4.487   2.090   3.238  0.3540 -0.0701  0.1865
 2644SOL    HW1 7988   4.574   2.056   3.215  0.2512  0.2632 -0.7594
 2644SOL    HW2 7989   4.497   2.123   3.327  1.1161 -0.3144  0.2033
 2645SOL     OW 7990   0.228   4.004   4.623 -0.6467 -0.5024 -0.3699
 2645SOL    HW1 7991   0.303   3.954   4.590  0.7494  1.1822  0.0423
 2645SOL    HW2 7992   0.206   3.964   4.707 -0.0259 -0.8606 -0.3738
 2646SOL     OW 7993   1.643   1.559   1.559 -0.3482 -0.8668 -0.2985
 2646SOL    HW1 7994   1.676   1.611   1.486 -0.4582 -0.5242 -0.1055
 2646SOL    HW2 7995   1.568   1.511   1.522 -1.8101  0.9748  0.1187
 2647SOL     OW 7996   4.402   4.552   2.582  0.3793  0.3015  0.0805
 2647SOL    HW1 7997   4.437   4.540   2.494  0.6953  0.9335  0.1109
 2647SOL    HW2 7998   4.372   4.465   2.609  0.9100 -0.0310 -0.3806
 2648SOL     OW 7999   3.527   3.943   0.078 -0.4201  0.6155  0.5229
 2648SOL    HW1 8000   3.479   4.019   0.043 -1.0755  0.1791  0.4607
 2648SOL    HW2 8001   3.593   3.925   0.011 -1.1270  0.3082 -0.1093
 2649SOL     OW 8002   1.831   0.170   0.882  0.6170 -0.1660 -0.0165
 2649SOL    HW1 8003   1.891   0.096   0.884  0.4016 -0.4410 -1.9958
 2649SOL    HW2 8004   1.841   0.212   0.968 -0.3249 -3.3025  1.7832
 2650SOL     OW 8005   2.143   3.351   2.696  0.2686  0.4589  0.3417
 2650SOL    HW1 8006   2.052   3.351   2.667  0.7741  2.9313 -1.5838
 2650SOL    HW2 8007   2.148   3.425   2.757  0.9066  0.0558  0.7854
 2651SOL     OW 8008   1.837   3.104   0.550  0.2753  0.4103 -0.5144
 2651SOL    HW1 8009   1.771   3.087   0.617  0.0210  0.7950 -0.6631
 2651SOL    HW2 8010   1.861   3.017   0.519 -1.7937  0.2857 -2.0128
 2652SOL     OW 8011   1.893   4.685   3.369  0.3248  0.3725 -0.0870
 2652SOL    HW1 8012   1.980   4.675   3.328  0.3065 -0.2948  0.0287
 2652SOL    HW2 8013   1.859   4.596   3.373 -0.4553  0.6576 -0.3160
 2653SOL     OW 8014   0.524   2.535   4.674  0.0607  0.6914  0.2881
 2653SOL    HW1 8015   0.619   2.545   4.666  0.4290 -2.4401 -0.4432
 2653SOL    HW2 8016   0.510   2.501   4.762 -0.4922  1.7609  0.6348
 2654SOL     OW 8017   4.800   2.143   3.643  0.4383  0.2639 -0.0564
 2654SOL    HW1 8018   4.851   2.113   3.718  0.8417 -0.9375 -0.7802
 2654SOL    HW2 8019   4.859   2.133   3.568 -0.2879  0.4991 -0.6755
 2655SOL     OW 8020   0.447   3.445   2.408  0.1170  0.0286  0.8680
 2655SOL    HW1 8021   0.430   3.397   2.489 -0.3880  0.7872  1.2266
 2655SOL    HW2 8022   0.542   3.453   2.404  0.4780 -3.1687 -0.5050
 2656SOL     OW 8023   3.334   2.857   4.892  0.3357 -0.3347 -0.0315
 2656SOL    HW1 8024   3.272   2.852   4.965  1.0165 -0.0116  0.5797
 2656SOL    HW2 8025   3.418   2.831   4.930  0.4238 -1.6194 -1.0598
 2657SOL     OW 8026   0.125   2.079   1.186 -0.6439 -0.1844 -0.8076
 2657SOL    HW1 8027   0.163   2.166   1.173 -2.4424  0.7169 -0.2966
 2657SOL    HW2 8028   0.055   2.073   1.120  1.6777 -2.7202 -3.3390
 2658SOL     OW 8029   1.957   4.187   2.594 -0.1189  0.2971  0.4378
 2658SOL    HW1 8030   1.987   4.256   2.536 -3.6127  0.5025 -1.3655
 2658SOL    HW2 8031   1.946   4.111   2.537  1.4015 -1.1469  1.9412
 2659SOL     OW 8032   0.767   1.501   1.855 -0.3291  0.2023 -0.1929
 2659SOL    HW1 8033   0.750   1.408   1.839  1.0408 -0.2618  0.8897
 2659SOL    HW2 8034   0.689   1.531   1.902 -0.4378 -0.5971  0.1665
 2660SOL     OW 8035   4.906   3.602   2.939  0.4918  0.4785  0.3159
 2660SOL    HW1 8036   4.866   3.576   2.856 -1.7550 -0.8352  1.7228
 2660SOL    HW2 8037   4.916   3.520   2.988  1.5306  1.2568  1.4863
 2661SOL     OW 8038   2.823   2.082   2.429  0.1992 -0.8208 -0.2683
 2661SOL    HW1 8039   2.755   2.140   2.464 -0.6496 -2.7149  1.3769
 2661SOL    HW2 8040   2.903   2.112   2.473 -0.1719 -0.6932  0.3391
 2662SOL     OW 8041   3.231   3.848   1.689 -0.0937 -0.4464 -0.4322
 2662SOL    HW1 8042   3.152   3.801   1.715 -0.3233 -0.5422 -1.2706
 2662SOL    HW2 8043   3.264   3.887   1.770 -0.4418 -1.2308  0.0956
 2663SOL     OW 8044   3.275   1.532   1.875  0.1814  0.1204 -0.3160
 2663SOL    HW1 8045   3.248   1.445   1.905 -1.2394  0.0832 -1.5480
 2663SOL    HW2 8046   3.236   1.593   1.937 -0.4484 -0.0504 -0.5434
 2664SOL     OW 8047   4.785   0.059   1.453  0.1884  0.6687  0.2760
 2664SOL    HW1 8048   4.841   0.102   1.388  0.8089  0.4057  0.6200
 2664SOL    HW2 8049   4.829   0.077   1.536 -0.6807  1.1377  0.6434
 2665SOL     OW 8050   1.440   2.952   0.335 -0.3839 -0.2458 -0.1604
 2665SOL    HW1 8051   1.437   3.041   0.371  1.0732  0.5031 -1.7840
 2665SOL    HW2 8052   1.533   2.930   0.332 -0.7540 -2.4727  1.5960
 2666SOL     OW 8053   4.094   1.811   1.891  0.6688 -0.5900 -0.3745
 2666SOL    HW1 8054   4.081   1.832   1.983  1.4684 -0.5919 -0.2524
 2666SOL    HW2 8055   4.020   1.755   1.868 -0.3150  0.5687 -0.1209
 2667SOL     OW 8056   2.271   4.600   1.359  0.1233  0.1196  0.4754
 2667SOL    HW1 8057   2.304   4.677   1.406 -2.3048  0.8559  1.1108
 2667SOL    HW2 8058   2.251   4.537   1.429  0.3321 -0.3754  0.0935
 2668SOL     OW 8059   0.399   0.394   3.443 -0.4750 -0.4972 -0.1922
 2668SOL    HW1 8060   0.401   0.321   3.381  0.1211 -1.0796  0.4933
 2668SOL    HW2 8061   0.491   0.412   3.462 -0.6448 -0.2923  0.4717
 2669SOL     OW 8062   0.940   0.741   3.264  0.0585  0.2791  0.1505
 2669SOL    HW1 8063   0.981   0.810   3.212  0.1492 -0.1942 -0.4033
 2669SOL    HW2 8064   0.846   0.762   3.261 -0.0966 -0.5700 -1.4277
 2670SOL     OW 8065   0.428   0.963   0.805  0.3757 -0.2286 -0.2463
 2670SOL    HW1 8066   0.448   1.054   0.785 -0.0049 -0.3075 -1.0445
 2670SOL    HW2 8067   0.344   0.947   0.761 -0.5857 -0.3880  1.5551
 2671SOL     OW 8068   2.640   1.014   1.924 -0.5040  0.5523 -0.2777
 2671SOL    HW1 8069   2.665   0.923   1.938 -1.0612  0.7312  2.4770
 2671SOL    HW2 8070   2.719   1.056   1.891 -0.0786 -0.7935 -1.0544
 2672SOL     OW 8071   1.811   2.147   4.741 -0.5271  0.8458  0.0753
 2672SOL    HW1 8072   1.790   2.225   4.793  0.7069  1.3774 -0.1976
 2672SOL    HW2 8073   1.747   2.148   4.670 -0.8817  1.2970  0.3946
 2673SOL     OW 8074   4.315   0.556   1.797 -0.9784 -0.8491  0.2502
 2673SOL    HW1 8075   4.359   0.533   1.715  0.2455 -0.5118  0.7867
 2673SOL    HW2 8076   4.282   0.645   1.783 -1.7403 -1.2009 -0.2458
 2674SOL     OW 8077   0.937   3.533   1.043  0.4373  0.2632 -0.7418
 2674SOL    HW1 8078   0.906   3.618   1.075 -1.0828 -0.6554  0.3942
 2674SOL    HW2 8079   1.032   3.542   1.037  0.5741  1.3047  1.7870
 2675SOL     OW 8080   1.599   0.368   2.449 -0.2095 -0.1876 -0.4778
 2675SOL    HW1 8081   1.660   0.295   2.461  0.5751  0.8148  2.5261
 2675SOL    HW2 8082   1.644   0.427   2.389  0.6134 -0.6753 -0.3635
 2676SOL     OW 8083   2.212   0.167   0.411  0.0315 -0.7822  0.1039
 2676SOL    HW1 8084   2.201   0.262   0.416  1.4041 -0.6676  1.4902
 2676SOL    HW2 8085   2.277   0.154   0.342  0.0012 -0.7075  0.0604
 2677SOL     OW 8086   2.005   2.751   1.195 -0.3077 -0.0442  0.8614
 2677SOL    HW1 8087   2.035   2.837   1.224 -1.3105  0.0087  1.8359
 2677SOL    HW2 8088   1.923   2.738   1.242 -1.2091 -0.6761 -0.7890
 2678SOL     OW 8089   3.699   4.001   0.904  0.0137  0.3855  0.1539
 2678SOL    HW1 8090   3.656   3.918   0.922  0.1853 -0.0060 -1.1679
 2678SOL    HW2 8091   3.792   3.984   0.917 -0.0635  0.8202  1.4638
 2679SOL     OW 8092   1.436   2.019   2.137 -0.0557 -0.3056 -0.1369
 2679SOL    HW1 8093   1.529   1.999   2.127 -0.1993 -0.4164 -1.4526
 2679SOL    HW2 8094   1.414   2.072   2.061 -0.7969  0.7980  0.8198
 2680SOL     OW 8095   0.676   3.471   1.046  0.0456 -0.5469  0.1633
 2680SOL    HW1 8096   0.770   3.487   1.051 -0.1270  0.3964  0.5049
 2680SOL    HW2 8097   0.637   3.530   1.111 -1.0339  1.4469 -2.1412
 2681SOL     OW 8098   0.370   4.808   2.902 -0.0597  0.3036  0.6311
 2681SOL    HW1 8099   0.311   4.851   2.964 -1.7411  0.4898 -1.0285
 2681SOL    HW2 8100   0.376   4.869   2.828  1.0219 -0.3931  0.1137
 2682SOL     OW 8101   4.105   1.445   2.869 -0.6682 -0.0832 -0.5045
 2682SOL    HW1 8102   4.147   1.529   2.885 -1.1749 -0.0491  0.7618
 2682SOL    HW2 8103   4.044   1.433   2.943 -0.8736 -1.3859 -0.8447
 2683SOL     OW 8104   0.017   2.995   2.740  0.2292  0.1477  0.0930
 2683SOL    HW1 8105   0.053   2.925   2.685 -1.6587  0.3635 -1.5520
 2683SOL    HW2 8106   0.037   3.076   2.692 -0.7336  0.4123  0.1157
 2684SOL     OW 8107   3.879   2.082   2.187 -0.0620 -0.1545 -0.1038
 2684SOL    HW1 8108   3.808   2.100   2.249 -0.8251 -0.2611 -0.9207
 2684SOL    HW2 8109   3.885   1.986   2.184  0.7718 -0.1370  0.6740
 2685SOL     OW 8110   4.539   1.059   2.694  0.5395  0.4386 -0.1355
 2685SOL    HW1 8111   4.577   0.974   2.717  0.3060  0.0109 -1.2350
 2685SOL    HW2 8112   4.596   1.124   2.735  0.9744 -0.2434  0.3492
 2686SOL     OW 8113   0.112   3.497   0.283 -0.3324  0.2052  0.0008
 2686SOL    HW1 8114   0.188   3.492   0.225 -0.5555  0.4986 -0.3198
 2686SOL    HW2 8115   0.073   3.582   0.264 -0.7704  0.0349  0.1243
 2687SOL     OW 8116   3.605   1.933   2.172  0.1092  0.5558  0.3545
 2687SOL    HW1 8117   3.599   1.884   2.090  1.1328 -1.3121  1.3239
 2687SOL    HW2 8118   3.543   2.005   2.161 -0.6596 -0.3178 -1.5942
 2688SOL     OW 8119   4.929   4.726   3.704 -0.1508 -0.2170 -0.6317
 2688SOL    HW1 8120   5.021   4.715   3.725  0.0026 -0.1078 -1.2394
 2688SOL    HW2 8121   4.908   4.814   3.734 -0.2762 -0.5305  0.2563
 2689SOL     OW 8122   0.013   2.850   1.671  0.1471  0.1128 -0.7215
 2689SOL    HW1 8123   0.014   2.908   1.595  1.1219  0.9108 -0.1227
 2689SOL    HW2 8124   0.101   2.858   1.709  0.2762 -1.6761 -0.5485
 2690SOL     OW 8125   1.811   0.575   0.576 -0.2358  0.1165 -0.3436
 2690SOL    HW1 8126   1.862   0.513   0.629  0.2848 -0.0985 -1.0883
 2690SOL    HW2 8127   1.871   0.648   0.560 -0.2014 -0.0738 -1.1046
 2691SOL     OW 8128   0.726   3.671   3.508 -0.2470 -0.0705 -0.0162
 2691SOL    HW1 8129   0.771   3.755   3.499 -2.5937  1.2380 -0.2805
 2691SOL    HW2 8130   0.676   3.679   3.589  1.5816 -2.3387  1.4744
 2692SOL     OW 8131   0.952   2.892   0.324  0.3649  0.5350 -0.2943
 2692SOL    HW1 8132   1.022   2.830   0.303  0.5157  1.2238 -1.9557
 2692SOL    HW2 8133   0.954   2.899   0.419  1.9017 -0.2251 -0.2445
 2693SOL     OW 8134   1.203   2.389   0.159  0.2012 -0.6688 -0.0523
 2693SOL    HW1 8135   1.151   2.312   0.137  0.6495 -1.1283  0.4672
 2693SOL    HW2 8136   1.144   2.463   0.142 -0.8668 -1.2097  1.1453
 2694SOL     OW 8137   1.368   2.335   0.406  0.3161 -0.0316  0.3633
 2694SOL    HW1 8138   1.316   2.265   0.445  0.3450  0.0050  0.4670
 2694SOL    HW2 8139   1.323   2.355   0.324  1.2989 -1.4050 -0.5748
 2695SOL     OW 8140   0.578   4.867   2.529 -0.1302  0.4133 -0.6010
 2695SOL    HW1 8141   0.667   4.881   2.562  0.8514 -2.5424 -1.7274
 2695SOL    HW2 8142   0.528   4.843   2.607 -0.1594  2.6237  0.1332
 2696SOL     OW 8143   3.987   4.146   0.449 -0.1497  0.3164  0.5487
 2696SOL    HW1 8144   3.988   4.190   0.364 -0.2005  1.4548  1.1094
 2696SOL    HW2 8145   3.910   4.091   0.448 -0.2722  0.4977 -0.0642
 2697SOL     OW 8146   2.389   0.137   0.159  0.2158  1.1416 -0.7199
 2697SOL    HW1 8147   2.319   0.170   0.103 -0.3695  0.8571 -0.1755
 2697SOL    HW2 8148   2.414   0.212   0.212  1.6099  1.7448 -2.1575
 2698SOL     OW 8149   3.578   3.986   2.236 -0.4752 -0.5961  0.4573
 2698SOL    HW1 8150   3.547   3.902   2.201 -1.3080 -1.1670  2.4197
 2698SOL    HW2 8151   3.620   3.963   2.319 -2.8696  1.1059  2.2790
 2699SOL     OW 8152   0.271   2.206   2.293 -0.1269  0.3488 -0.5201
 2699SOL    HW1 8153   0.203   2.139   2.305  0.9073 -0.7290 -0.5812
 2699SOL    HW2 8154   0.284   2.242   2.381 -0.6471  0.4392 -0.4755
 2700SOL     OW 8155   1.410   2.128   4.847 -0.3278 -0.1445 -0.3997
 2700SOL    HW1 8156   1.457   2.145   4.928 -0.4990  0.7143 -0.4674
 2700SOL    HW2 8157   1.438   2.040   4.820  1.2899  0.3677 -0.4920
 2701SOL     OW 8158   2.422   1.717   3.758 -0.1450 -0.5185  0.1085
 2701SOL    HW1 8159   2.372   1.636   3.754  1.9768 -1.9588  1.0632
 2701SOL    HW2 8160   2.432   1.735   3.852  0.9266 -0.1608 -0.0605
 2702SOL     OW 8161   3.392   3.015   4.657  0.0531 -0.6658 -0.0702
 2702SOL    HW1 8162   3.340   2.958   4.714 -0.3110 -2.4767 -2.0979
 2702SOL    HW2 8163   3.444   3.069   4.717 -0.7773 -2.0297  1.9507
 2703SOL     OW 8164   1.980   2.264   3.096 -0.9637  0.1847 -0.2437
 2703SOL    HW1 8165   1.948   2.301   3.014 -1.9184  0.1189  0.0770
 2703SOL    HW2 8166   1.953   2.327   3.163 -2.1854 -0.8099  0.2512
 2704SOL     OW 8167   1.190   1.493   4.194 -0.4549 -0.0025 -0.5794
 2704SOL    HW1 8168   1.146   1.462   4.115 -1.6974 -0.5938  0.3102
 2704SOL    HW2 8169   1.268   1.437   4.201 -0.3101  0.0800 -1.3873
 2705SOL     OW 8170   2.103   1.326   3.357 -0.3012  0.7434  0.4227
 2705SOL    HW1 8171   2.057   1.335   3.441 -0.0768  0.4896  0.5746
 2705SOL    HW2 8172   2.141   1.238   3.360 -0.6164  0.5816 -0.1070
 2706SOL     OW 8173   3.335   1.248   2.616  0.0792  0.1509  1.3086
 2706SOL    HW1 8174   3.252   1.260   2.569  2.0823 -0.6303 -2.9799
 2706SOL    HW2 8175   3.344   1.153   2.625  0.1879  0.2608  2.5351
 2707SOL     OW 8176   1.263   3.801   2.792  1.0209 -0.3199  0.4516
 2707SOL    HW1 8177   1.236   3.717   2.755  1.6626 -1.1493  1.7914
 2707SOL    HW2 8178   1.194   3.862   2.765 -0.2703 -1.6015  0.7409
 2708SOL     OW 8179   1.182   4.259   3.654 -0.0776 -0.6357  0.3532
 2708SOL    HW1 8180   1.191   4.333   3.715 -1.0749 -0.7375  0.6453
 2708SOL    HW2 8181   1.244   4.194   3.686 -0.7768 -0.7966  1.4485
 2709SOL     OW 8182   3.333   0.507   1.488  0.4821 -0.0738  0.7981
 2709SOL    HW1 8183   3.305   0.416   1.490  1.0919 -0.3967 -1.7500
 2709SOL    HW2 8184   3.296   0.542   1.407  2.9706  0.9530  0.0005
 2710SOL     OW 8185   3.310   3.006   4.416  0.1466  0.1575  0.3152
 2710SOL    HW1 8186   3.223   3.046   4.429  0.3479  0.6407  0.2147
 2710SOL    HW2 8187   3.351   3.010   4.502  0.7641  1.6328 -0.0092
 2711SOL     OW 8188   3.695   4.710   3.469 -0.5525  0.0809  0.4797
 2711SOL    HW1 8189   3.614   4.662   3.454  0.2466 -1.5841  1.2283
 2711SOL    HW2 8190   3.668   4.793   3.508 -1.8305 -1.0748  2.1648
 2712SOL     OW 8191   4.443   4.672   0.748 -0.1769 -0.1014  0.4551
 2712SOL    HW1 8192   4.370   4.622   0.712  1.4418 -1.3118 -1.3397
 2712SOL    HW2 8193   4.406   4.759   0.766 -1.0548  1.0034 -5.0304
 2713SOL     OW 8194   3.434   3.848   2.555 -0.2833  0.6150 -0.1801
 2713SOL    HW1 8195   3.360   3.801   2.592  0.6306 -1.2300 -0.5768
 2713SOL    HW2 8196   3.419   3.847   2.460  0.6042 -0.4596 -0.3259
 2714SOL     OW 8197   1.528   3.287   4.763 -0.1175  0.6464  0.1754
 2714SOL    HW1 8198   1.522   3.380   4.743 -2.4792  0.1709 -1.8852
 2714SOL    HW2 8199   1.508   3.280   4.856 -0.0063  2.1750  0.3232
 2715SOL     OW 8200   3.157   3.804   0.172  0.0736  0.2282  0.0000
 2715SOL    HW1 8201   3.129   3.874   0.114  1.1309 -0.1346 -0.9864
 2715SOL    HW2 8202   3.203   3.848   0.244  2.0628  0.5244 -1.3681
 2716SOL     OW 8203   3.276   3.559   0.187  0.4131 -0.2155  0.4219
 2716SOL    HW1 8204   3.240   3.496   0.124  0.4575  0.2418 -0.0716
 2716SOL    HW2 8205   3.211   3.628   0.192  0.4545 -0.2019  0.8159
 2717SOL     OW 8206   0.866   3.041   0.102 -0.0736 -0.1622 -0.0951
 2717SOL    HW1 8207   0.885   2.989   0.180 -0.5625  2.0207  1.5940
 2717SOL    HW2 8208   0.944   3.032   0.047  0.7924 -0.7952  1.1894
 2718SOL     OW 8209   3.522   4.192   1.018  0.1589  0.2431 -0.3795
 2718SOL    HW1 8210   3.583   4.130   0.979 -0.8326  0.0485 -1.7162
 2718SOL    HW2 8211   3.442   4.141   1.031  0.2505  0.5005  1.2957
 2719SOL     OW 8212   4.661   0.848   2.791  0.1949 -0.1701  0.0593
 2719SOL    HW1 8213   4.751   0.874   2.768 -0.9982  2.5456 -2.1216
 2719SOL    HW2 8214   4.654   0.758   2.760  2.1000 -0.4267  0.2085
 2720SOL     OW 8215   2.357   4.424   2.148 -0.4960  0.2449  0.1878
 2720SOL    HW1 8216   2.321   4.469   2.224  2.4119 -0.0799  1.9079
 2720SOL    HW2 8217   2.432   4.375   2.182 -0.3014 -1.5959 -2.5550
 2721SOL     OW 8218   0.675   1.230   1.850  0.0507  0.0297  0.0543
 2721SOL    HW1 8219   0.586   1.231   1.815  0.0391  0.6632  0.1069
 2721SOL    HW2 8220   0.709   1.144   1.824 -0.1960  0.2178 -0.9070
 2722SOL     OW 8221   2.128   3.931   1.183  0.1971 -0.1844 -0.4415
 2722SOL    HW1 8222   2.062   3.996   1.160  1.0139  0.4014 -1.2001
 2722SOL    HW2 8223   2.083   3.870   1.242 -1.1016  0.0204 -1.1900
 2723SOL     OW 8224   0.340   0.783   4.180 -0.1911 -0.3611 -0.3250
 2723SOL    HW1 8225   0.371   0.701   4.218 -0.2368 -0.4128 -0.3984
 2723SOL    HW2 8226   0.396   0.851   4.219 -0.3513 -0.3956 -0.0414
 2724SOL     OW 8227   0.845   0.293   1.185 -0.0282 -0.3411 -0.0721
 2724SOL    HW1 8228   0.758   0.255   1.196 -0.1327 -0.5160 -1.3638
 2724SOL    HW2 8229   0.828   0.385   1.164  0.1647  0.0048  1.2059
 2725SOL     OW 8230   4.714   3.445   4.887  0.1149 -0.3561 -0.5813
 2725SOL    HW1 8231   4.776   3.518   4.885  1.6369 -1.6201 -1.1501
 2725SOL    HW2 8232   4.672   3.453   4.973  0.6192  0.8906 -0.4233
 2726SOL     OW 8233   2.634   3.899   2.146 -0.0075 -1.0706  0.2427
 2726SOL    HW1 8234   2.651   3.912   2.052  1.5143 -1.3158  0.4672
 2726SOL    HW2 8235   2.571   3.827   2.148 -1.9872  0.5250 -0.6591
 2727SOL     OW 8236   3.504   4.779   0.789  0.0613 -0.1315  0.2805
 2727SOL    HW1 8237   3.470   4.693   0.767 -3.2846  1.3858 -1.3715
 2727SOL    HW2 8238   3.551   4.807   0.711  1.1946 -0.4357  0.8358
 2728SOL     OW 8239   0.931   4.482   1.726  0.0335 -0.0871  0.2381
 2728SOL    HW1 8240   1.012   4.473   1.675 -1.7390 -2.4949 -2.4647
 2728SOL    HW2 8241   0.864   4.440   1.672 -2.8972  1.0015  2.7464
 2729SOL     OW 8242   2.565   1.571   1.863  0.2768  0.0004  0.0030
 2729SOL    HW1 8243   2.514   1.504   1.818  0.8085 -2.3588  2.6303
 2729SOL    HW2 8244   2.506   1.606   1.929  0.7652  0.4050  0.2297
 2730SOL     OW 8245   4.657   4.666   4.868  0.2080 -0.0165  0.4710
 2730SOL    HW1 8246   4.646   4.616   4.949  0.1852 -0.7568  0.0192
 2730SOL    HW2 8247   4.650   4.601   4.798 -1.5816  0.8696 -0.2202
 2731SOL     OW 8248   2.233   0.709   0.357 -0.1287 -0.8151  0.1595
 2731SOL    HW1 8249   2.208   0.632   0.305  0.4599 -2.4740  2.1950
 2731SOL    HW2 8250   2.327   0.718   0.343 -0.3777  0.2424 -0.9293
 2732SOL     OW 8251   3.146   4.829   0.170  0.1679 -0.1188 -0.0785
 2732SOL    HW1 8252   3.169   4.889   0.240 -1.1885 -1.6392  1.7774
 2732SOL    HW2 8253   3.177   4.872   0.090 -0.7625  3.0071  1.1199
 2733SOL     OW 8254   2.464   3.399   0.351  0.5734 -0.8304 -0.3950
 2733SOL    HW1 8255   2.461   3.349   0.269  1.2839 -2.5136  0.5724
 2733SOL    HW2 8256   2.538   3.458   0.339  0.8259 -1.2317 -0.8782
 2734SOL     OW 8257   2.913   1.091   3.494  0.2804 -0.2309  0.0095
 2734SOL    HW1 8258   2.935   1.052   3.409  1.5645 -0.5646  0.4719
 2734SOL    HW2 8259   2.991   1.140   3.519 -1.1541  2.4357 -0.3966
 2735SOL     OW 8260   0.263   3.463   4.714  0.2206  0.0836 -0.6452
 2735SOL    HW1 8261   0.351   3.425   4.718  0.1984  0.0105 -0.8187
 2735SOL    HW2 8262   0.223   3.437   4.796  0.2381 -0.1970 -0.7216
 2736SOL     OW 8263   2.553   4.791   0.407 -0.8214  0.4394  0.1378
 2736SOL    HW1 8264   2.647   4.782   0.422 -0.9349  1.0029  1.3232
 2736SOL    HW2 8265   2.533   4.882   0.430 -1.5168  0.5784 -0.9444
 2737SOL     OW 8266   1.690   3.221   1.256 -0.1381 -0.1443  0.2664
 2737SOL    HW1 8267   1.611   3.255   1.215 -0.0446  0.6817  0.7550
 2737SOL    HW2 8268   1.702   3.275   1.334  1.5463  0.5176 -0.4083
 2738SOL     OW 8269   0.465   4.251   0.965 -0.1540  0.3658 -0.0883
 2738SOL    HW1 8270   0.487   4.245   1.058  0.4081  0.2541 -0.2224
 2738SOL    HW2 8271   0.541   4.212   0.921 -0.8523 -0.4966 -0.5471
 2739SOL     OW 8272   4.823   3.038   3.500 -0.0261  0.4827  0.7577
 2739SOL    HW1 8273   4.888   3.029   3.570  0.7299  1.6604  0.2334
 2739SOL    HW2 8274   4.818   2.950   3.462  1.5043  0.4167  0.6173
 2740SOL     OW 8275   2.703   0.177   0.513 -0.0990 -0.5131  0.0834
 2740SOL    HW1 8276   2.667   0.229   0.442 -1.0297 -1.2108  0.0146
 2740SOL    HW2 8277   2.793   0.209   0.525 -0.0478 -0.1604 -1.1686
 2741SOL     OW 8278   3.389   1.355   1.086 -0.8654 -0.2391  0.7626
 2741SOL    HW1 8279   3.329   1.428   1.072  0.2920  0.4161 -1.1830
 2741SOL    HW2 8280   3.461   1.393   1.136 -0.7146 -0.2834  0.5794
 2742SOL     OW 8281   2.868   2.092   0.028 -0.5070  0.4605 -0.1145
 2742SOL    HW1 8282   2.897   2.044  -0.050 -0.6878  0.4859 -0.1974
 2742SOL    HW2 8283   2.828   2.172  -0.007  0.0719  0.8205  0.0326
 2743SOL     OW 8284   0.870   4.301   3.318  0.1124  0.0930 -0.4406
 2743SOL    HW1 8285   0.847   4.394   3.316  2.8937  0.9048  0.5334
 2743SOL    HW2 8286   0.845   4.273   3.406  2.5231  0.9801  0.6272
 2744SOL     OW 8287   1.247   4.916   3.578 -0.4130 -0.3222 -0.0672
 2744SOL    HW1 8288   1.212   4.833   3.610  0.0840 -0.0342  1.3322
 2744SOL    HW2 8289   1.330   4.893   3.537  0.7051 -0.3654  2.0507
 2745SOL     OW 8290   4.514   4.446   1.761 -0.0226  0.6274 -0.3514
 2745SOL    HW1 8291   4.526   4.352   1.747  0.1371  0.2897  1.7665
 2745SOL    HW2 8292   4.431   4.466   1.717 -0.5093 -0.7066 -0.1075
 2746SOL     OW 8293   1.431   3.306   0.046 -0.2365 -0.1572 -0.0934
 2746SOL    HW1 8294   1.505   3.259   0.085  0.5069  0.0192 -1.2491
 2746SOL    HW2 8295   1.368   3.314   0.118  0.7541 -0.5184  0.8554
 2747SOL     OW 8296   0.538   1.244   4.807  0.0377 -0.7061  0.0622
 2747SOL    HW1 8297   0.589   1.204   4.736  2.3925 -0.4264  1.4759
 2747SOL    HW2 8298   0.469   1.181   4.827  0.9778 -2.0130 -0.6991
 2748SOL     OW 8299   1.100   1.161   4.079  0.1623 -0.0777 -0.2303
 2748SOL    HW1 8300   1.154   1.136   4.154  0.8644 -0.2911 -0.7997
 2748SOL    HW2 8301   1.145   1.124   4.003 -0.3333  0.4568 -0.7968
 2749SOL     OW 8302   2.912   1.086   2.352  0.0418 -0.4674  0.0854
 2749SOL    HW1 8303   2.985   1.061   2.296 -0.0143  0.6282 -0.5065
 2749SOL    HW2 8304   2.929   1.177   2.376 -0.2240 -0.7422  1.4172
 2750SOL     OW 8305   1.583   1.902   1.440 -0.4659  0.1560  0.5912
 2750SOL    HW1 8306   1.553   1.955   1.366  1.4123  0.1042 -0.2796
 2750SOL    HW2 8307   1.618   1.966   1.502  0.7020  0.0614  0.0679
 2751SOL     OW 8308   3.901   4.918   3.373  0.4461 -0.5421  0.2221
 2751SOL    HW1 8309   3.943   4.838   3.403  1.5170 -1.1101 -2.4706
 2751SOL    HW2 8310   3.843   4.890   3.303  0.0876  0.9200 -0.1023
 2752SOL     OW 8311   4.899   3.826   4.715  0.3125  0.1869  0.1811
 2752SOL    HW1 8312   4.917   3.801   4.806 -0.0868  1.4723  0.6343
 2752SOL    HW2 8313   4.956   3.901   4.699  0.8534 -0.4099 -0.8634
 2753SOL     OW 8314   0.500   1.082   3.124  0.0531  0.2406  0.3381
 2753SOL    HW1 8315   0.504   0.992   3.156  1.4638  0.0827 -0.2000
 2753SOL    HW2 8316   0.469   1.074   3.034 -2.6482  0.5807  1.1349
 2754SOL     OW 8317   4.885   3.726   0.316 -0.9737 -0.0977 -0.2585
 2754SOL    HW1 8318   4.922   3.806   0.351 -1.2814 -0.3698  0.7279
 2754SOL    HW2 8319   4.792   3.730   0.339 -0.6797 -1.5404  1.4159
 2755SOL     OW 8320   1.710   1.672   2.791 -0.0539 -0.0715  1.0510
 2755SOL    HW1 8321   1.768   1.696   2.863 -0.8127 -0.2007  1.7233
 2755SOL    HW2 8322   1.681   1.583   2.813 -0.1816 -0.1639  0.5133
 2756SOL     OW 8323   3.278   1.987   0.225  0.0601 -0.1232  0.0160
 2756SOL    HW1 8324   3.293   2.074   0.188  0.8583 -0.6395 -0.9235
 2756SOL    HW2 8325   3.252   2.003   0.316 -0.1968  1.1040 -0.2615
 2757SOL     OW 8326   1.353   1.366   0.076  0.5333 -0.3365  0.1270
 2757SOL    HW1 8327   1.353   1.438   0.013  0.4267 -0.4211  0.0288
 2757SOL    HW2 8328   1.283   1.308   0.045  2.2279 -1.7694 -1.2885
 2758SOL     OW 8329   2.884   3.327   2.341  0.4164  0.2636 -0.1755
 2758SOL    HW1 8330   2.946   3.381   2.390 -0.8692  1.0344  0.6936
 2758SOL    HW2 8331   2.857   3.259   2.403  0.8512 -0.4495 -0.7554
 2759SOL     OW 8332   0.669   2.990   3.039 -0.1869 -0.2765 -0.4091
 2759SOL    HW1 8333   0.708   3.004   2.953 -0.1435 -0.3869 -0.4071
 2759SOL    HW2 8334   0.708   3.058   3.094  0.7694 -0.9936 -0.1606
 2760SOL     OW 8335   0.365   4.713   4.032 -0.8274 -0.8260  0.5562
 2760SOL    HW1 8336   0.364   4.645   4.099 -0.7936  0.0139  1.4323
 2760SOL    HW2 8337   0.447   4.761   4.047 -1.2771 -0.0327  0.5350
 2761SOL     OW 8338   0.787   4.642   1.215  0.1571 -0.0659  0.1783
 2761SOL    HW1 8339   0.811   4.549   1.220  0.4979  0.0486  0.6987
 2761SOL    HW2 8340   0.730   4.647   1.138  0.5009 -0.6256 -0.1257
 2762SOL     OW 8341   3.417   4.598   0.260 -0.2626 -0.9309 -0.2834
 2762SOL    HW1 8342   3.495   4.545   0.244 -0.0684 -0.5981 -0.4386
 2762SOL    HW2 8343   3.407   4.652   0.182  0.7199  0.7313  0.6861
 2763SOL     OW 8344   2.243   4.570   4.162  0.1670 -0.0869  0.1199
 2763SOL    HW1 8345   2.215   4.481   4.141 -1.5708 -0.2150  2.5461
 2763SOL    HW2 8346   2.256   4.569   4.257  1.6050  1.8897 -0.0040
 2764SOL     OW 8347   2.453   0.682   1.805  0.4559  0.2627  0.1407
 2764SOL    HW1 8348   2.421   0.630   1.879  0.4264  0.8752  0.5637
 2764SOL    HW2 8349   2.537   0.643   1.783 -0.0219 -0.6139 -0.2176
 2765SOL     OW 8350   2.235   0.557   2.981 -0.4338  0.3106 -0.2484
 2765SOL    HW1 8351   2.169   0.488   2.982 -0.6809  0.5364  1.0290
 2765SOL    HW2 8352   2.208   0.617   3.051  0.1844  1.3093 -0.8415
 2766SOL     OW 8353   1.043   0.921   3.088 -0.3675 -0.1175 -0.3412
 2766SOL    HW1 8354   1.047   0.865   3.010  1.8609 -1.2907  0.5072
 2766SOL    HW2 8355   1.053   1.010   3.054  3.0743 -0.7308 -1.3642
 2767SOL     OW 8356   1.424   4.689   4.638 -0.4641  0.1557  0.0400
 2767SOL    HW1 8357   1.512   4.686   4.674 -0.9476 -0.2914  1.2405
 2767SOL    HW2 8358   1.412   4.780   4.610  0.0219  0.4733  0.8253
 2768SOL     OW 8359   4.572   4.588   0.999  0.3534  0.4311  0.2144
 2768SOL    HW1 8360   4.656   4.634   1.000 -0.4979  2.0908  1.2862
 2768SOL    HW2 8361   4.531   4.615   0.917 -0.6114  2.6247  1.3314
 2769SOL     OW 8362   3.953   4.041   3.696 -0.2562 -0.0816 -0.1356
 2769SOL    HW1 8363   3.976   3.993   3.616  1.2732 -2.1123  1.4158
 2769SOL    HW2 8364   3.869   4.002   3.723  0.9047 -1.9515  1.0352
 2770SOL     OW 8365   1.059   4.749   1.210  1.1406  0.4856 -0.6553
 2770SOL    HW1 8366   1.101   4.664   1.224  0.4867  0.2526 -0.0282
 2770SOL    HW2 8367   0.976   4.728   1.167  0.1346  0.6128  1.1301
 2771SOL     OW 8368   2.406   4.109   2.234 -0.0383 -0.1826 -0.5297
 2771SOL    HW1 8369   2.397   4.106   2.139 -0.9883  0.7265 -0.4844
 2771SOL    HW2 8370   2.319   4.131   2.266  0.4413  0.2907  0.4996
 2772SOL     OW 8371   1.689   4.745   4.677 -0.3918 -0.0374 -0.3090
 2772SOL    HW1 8372   1.672   4.829   4.635 -0.2895  0.6406  0.9543
 2772SOL    HW2 8373   1.785   4.738   4.678 -0.3833  0.1075  0.0954
 2773SOL     OW 8374   2.565   3.838   1.294  0.0038  0.6055  0.0676
 2773SOL    HW1 8375   2.540   3.788   1.217 -0.2072 -1.4770  1.3873
 2773SOL    HW2 8376   2.488   3.890   1.316 -0.9263 -0.8405  0.3754
 2774SOL     OW 8377   0.593   3.657   1.232 -0.0355 -0.3671  0.0375
 2774SOL    HW1 8378   0.667   3.682   1.288 -0.6250 -1.0982  1.1828
 2774SOL    HW2 8379   0.532   3.613   1.291 -0.8813 -0.7903 -1.1125
 2775SOL     OW 8380   3.355   0.088   2.423  0.0556 -0.0267  0.0466
 2775SOL    HW1 8381   3.381   0.029   2.494  1.3552  1.0012  0.4663
 2775SOL    HW2 8382   3.294   0.036   2.370  0.9703 -1.6604  0.5231
 2776SOL     OW 8383   2.995   1.649   2.097 -0.0572 -0.0001 -0.0256
 2776SOL    HW1 8384   2.962   1.630   2.185 -0.3514 -2.0349 -0.5366
 2776SOL    HW2 8385   3.090   1.646   2.106 -0.0504 -3.0329 -0.2660
 2777SOL     OW 8386   1.762   0.904   0.872 -0.0292 -1.0435 -0.7302
 2777SOL    HW1 8387   1.819   0.945   0.806  1.0489 -2.6237 -0.8638
 2777SOL    HW2 8388   1.674   0.928   0.846  0.4835  0.0783 -1.5344
 2778SOL     OW 8389   0.429   3.269   3.971  0.1257 -0.1348 -0.1251
 2778SOL    HW1 8390   0.517   3.263   3.932  0.1224  2.4342 -0.7198
 2778SOL    HW2 8391   0.445   3.273   4.065  0.4161 -2.3478 -0.0344
 2779SOL     OW 8392   3.739   3.659   3.684 -0.1252 -0.2524 -0.7780
 2779SOL    HW1 8393   3.735   3.566   3.708 -1.4877  0.0824  0.4720
 2779SOL    HW2 8394   3.821   3.668   3.637  1.0636 -1.6750  0.8875
 2780SOL     OW 8395   1.748   0.030   0.202 -0.2311 -0.3365  0.0269
 2780SOL    HW1 8396   1.714   0.042   0.113 -0.2814  0.8468  0.1926
 2780SOL    HW2 8397   1.672   0.002   0.253 -0.2856 -0.6353 -0.2095
 2781SOL     OW 8398   1.960   0.318   0.660 -0.6286  0.4094 -0.3781
 2781SOL    HW1 8399   1.931   0.278   0.742  1.0798  0.0002  0.0691
 2781SOL    HW2 8400   1.949   0.249   0.594 -0.4127  0.1506 -0.1501
 2782SOL     OW 8401   3.566   1.912   2.876 -0.0135 -0.9320  0.1344
 2782SOL    HW1 8402   3.653   1.936   2.907  0.0871  2.6071 -2.2739
 2782SOL    HW2 8403   3.582   1.859   2.798  0.0624  0.0626 -0.5471
 2783SOL     OW 8404   0.730   2.491   1.668 -0.2658  0.1408  0.7166
 2783SOL    HW1 8405   0.813   2.500   1.713  0.9356  0.4013 -1.4003
 2783SOL    HW2 8406   0.713   2.397   1.665 -0.7231  0.1544  2.2441
 2784SOL     OW 8407   4.496   3.127   1.061 -0.4839  0.0690 -0.6365
 2784SOL    HW1 8408   4.503   3.032   1.066 -2.9564 -0.1833 -0.3244
 2784SOL    HW2 8409   4.548   3.159   1.135  0.2368 -1.0415 -0.6375
 2785SOL     OW 8410   4.979   4.559   3.510 -0.1730  0.2959  0.1919
 2785SOL    HW1 8411   4.941   4.590   3.592  0.7468  0.7698  0.4539
 2785SOL    HW2 8412   4.962   4.630   3.448 -0.2906  0.2218  0.1389
 2786SOL     OW 8413   1.107   0.176   1.170  0.1848  0.0697  0.2617
 2786SOL    HW1 8414   1.028   0.230   1.179  0.6526  0.6530  0.9018
 2786SOL    HW2 8415   1.074   0.092   1.137 -0.5509  0.7183 -0.7003
 2787SOL     OW 8416   2.028   2.254   1.925 -0.5054 -0.4415  0.7083
 2787SOL    HW1 8417   2.014   2.186   1.992  1.0291 -0.3808  1.1325
 2787SOL    HW2 8418   2.109   2.229   1.882 -0.9679  0.0622 -0.5054
 2788SOL     OW 8419   1.993   4.866   3.563  0.0602  0.1379  0.2477
 2788SOL    HW1 8420   2.057   4.928   3.530 -0.8343  0.0186 -1.8513
 2788SOL    HW2 8421   1.949   4.832   3.485 -2.5833  0.2608  1.5472
 2789SOL     OW 8422   3.154   4.229   4.669 -0.5483 -0.4777  0.5801
 2789SOL    HW1 8423   3.089   4.160   4.679 -2.2193  0.8169 -0.9160
 2789SOL    HW2 8424   3.225   4.188   4.620 -0.6083 -1.6340  1.4035
 2790SOL     OW 8425   3.156   0.288   1.863  0.0617 -0.5961  0.2698
 2790SOL    HW1 8426   3.064   0.268   1.842 -0.6101 -0.2834  2.6337
 2790SOL    HW2 8427   3.202   0.278   1.780 -2.1324 -0.6251 -1.0245
 2791SOL     OW 8428   2.120   3.810   3.826  0.3833  0.4715 -0.5270
 2791SOL    HW1 8429   2.072   3.775   3.901 -1.4761  2.4891 -0.6526
 2791SOL    HW2 8430   2.113   3.905   3.836 -0.6866  0.8360 -3.6686
 2792SOL     OW 8431   4.444   4.045   3.999  0.5793  0.3875 -0.4114
 2792SOL    HW1 8432   4.403   4.124   4.036 -1.0544 -0.7300  0.3190
 2792SOL    HW2 8433   4.529   4.039   4.043  0.3718  1.2864  0.1422
 2793SOL     OW 8434   4.954   0.001   1.200  0.5010  0.0983 -0.2434
 2793SOL    HW1 8435   4.885  -0.064   1.212 -0.5203  1.3077  0.7196
 2793SOL    HW2 8436   5.008  -0.034   1.129 -0.7534 -1.1662 -0.6214
 2794SOL     OW 8437   1.971   4.699   4.165 -0.1192 -0.3907 -0.2613
 2794SOL    HW1 8438   1.920   4.726   4.088 -3.2390 -0.9561  1.4512
 2794SOL    HW2 8439   2.021   4.623   4.135 -0.1935  0.2275 -2.0617
 2795SOL     OW 8440   2.916   3.751   1.271 -0.2086  0.3136 -0.0692
 2795SOL    HW1 8441   2.960   3.696   1.206  0.3310  0.8517 -0.1688
 2795SOL    HW2 8442   2.828   3.763   1.236 -0.7769 -1.5446  0.5888
 2796SOL     OW 8443   1.785   2.649   2.642 -0.4519  0.0220 -0.1919
 2796SOL    HW1 8444   1.776   2.652   2.737  1.3208 -0.0229  0.0228
 2796SOL    HW2 8445   1.697   2.662   2.608 -0.8865  1.6186  1.4309
 2797SOL     OW 8446   4.020   3.446   2.925  0.1179 -0.4034  0.1199
 2797SOL    HW1 8447   4.111   3.458   2.899  0.1061 -1.1762 -0.2999
 2797SOL    HW2 8448   4.021   3.458   3.020  0.4442  0.7671 -0.0114
 2798SOL     OW 8449   2.620   0.021   1.557 -0.0141 -0.1861 -0.2037
 2798SOL    HW1 8450   2.571  -0.003   1.636 -0.8434  0.8443 -0.3800
 2798SOL    HW2 8451   2.636  -0.062   1.512  0.1207 -0.7439  0.8368
 2799SOL     OW 8452   0.284   4.374   4.020 -0.0094 -0.3872  0.2812
 2799SOL    HW1 8453   0.216   4.403   4.081 -0.1063 -1.1533  0.5538
 2799SOL    HW2 8454   0.235   4.338   3.946  0.0856  2.0198 -1.0373
 2800SOL     OW 8455   0.807   1.136   2.076 -0.0582  0.0083  0.2869
 2800SOL    HW1 8456   0.730   1.138   2.020 -0.5063 -1.6440  0.7923
 2800SOL    HW2 8457   0.851   1.220   2.060 -1.4885  0.6109 -0.6472
 2801SOL     OW 8458   4.438   0.576   3.522  0.7863  0.6109 -0.1030
 2801SOL    HW1 8459   4.523   0.538   3.502  1.1226  1.6935 -0.8034
 2801SOL    HW2 8460   4.386   0.502   3.555  1.5866 -0.3311 -0.8932
 2802SOL     OW 8461   1.216   1.148   2.257 -0.1271  0.1228  0.2789
 2802SOL    HW1 8462   1.168   1.154   2.339 -1.2326  0.8954 -0.3913
 2802SOL    HW2 8463   1.222   1.054   2.239 -0.9738 -0.0036  0.6244
 2803SOL     OW 8464   2.297   3.051   1.407  0.1806  0.2069  0.3042
 2803SOL    HW1 8465   2.283   3.119   1.473 -0.9752  1.6180 -1.2916
 2803SOL    HW2 8466   2.392   3.050   1.392  0.4421 -0.0630  1.8683
 2804SOL     OW 8467   2.388   1.430   3.449  0.8679 -0.0500 -0.0511
 2804SOL    HW1 8468   2.459   1.374   3.481 -0.4634 -0.7406  1.8385
 2804SOL    HW2 8469   2.312   1.372   3.445  0.4438  0.5750 -2.4503
 2805SOL     OW 8470   4.817   4.831   2.120  0.0712  0.0028  0.0478
 2805SOL    HW1 8471   4.838   4.752   2.169 -1.7024 -1.1448 -0.9192
 2805SOL    HW2 8472   4.882   4.896   2.149 -0.1072 -0.9593  2.8988
 2806SOL     OW 8473   3.166   3.649   3.704 -0.2309 -0.3783  0.3553
 2806SOL    HW1 8474   3.148   3.595   3.781  1.9787 -1.8237 -0.0608
 2806SOL    HW2 8475   3.081   3.689   3.683 -1.2669 -1.2821  2.4901
 2807SOL     OW 8476   4.620   2.301   0.916 -0.1130  0.1547  0.6027
 2807SOL    HW1 8477   4.704   2.288   0.960  1.6199  0.0056 -2.4486
 2807SOL    HW2 8478   4.617   2.395   0.897 -0.2491  0.0266 -0.0259
 2808SOL     OW 8479   4.250   2.232   3.215  0.2267 -0.3847 -0.3145
 2808SOL    HW1 8480   4.207   2.204   3.296 -0.1665 -0.7710 -0.6469
 2808SOL    HW2 8481   4.338   2.196   3.222 -0.3230 -1.9383 -0.8118
 2809SOL     OW 8482   0.634   3.398   3.175  0.0814  0.2511  0.8295
 2809SOL    HW1 8483   0.623   3.460   3.103  2.0126  0.6193  0.7997
 2809SOL    HW2 8484   0.592   3.440   3.250 -0.7990  0.4441  0.2470
 2810SOL     OW 8485   0.613   1.375   0.030  0.2437  0.3601  0.4887
 2810SOL    HW1 8486   0.582   1.325   0.106  0.8303  0.6657  0.9389
 2810SOL    HW2 8487   0.562   1.340  -0.043 -0.7038  0.4148  1.0976
 2811SOL     OW 8488   2.070   1.441   0.729  0.0565  0.5069  0.9079
 2811SOL    HW1 8489   2.023   1.467   0.650  1.2447 -0.8256 -0.2981
 2811SOL    HW2 8490   2.003   1.439   0.798 -1.2129  0.6960 -0.2886
 2812SOL     OW 8491   2.652   2.694   3.646 -0.6670 -0.5283 -0.0136
 2812SOL    HW1 8492   2.734   2.655   3.616 -0.1248  0.9852 -0.6118
 2812SOL    HW2 8493   2.628   2.756   3.576 -0.1628  2.0071  1.9245
 2813SOL     OW 8494   0.737   2.531   3.145  0.0069 -0.1789 -0.5523
 2813SOL    HW1 8495   0.716   2.480   3.066 -0.3588  0.8948 -1.1675
 2813SOL    HW2 8496   0.700   2.617   3.128  0.8281  0.3697  0.3680
 2814SOL     OW 8497   0.651   0.167   3.581 -0.0222 -0.0781  0.1530
 2814SOL    HW1 8498   0.586   0.111   3.623 -0.0090 -0.3941 -0.2376
 2814SOL    HW2 8499   0.734   0.142   3.622 -0.3854  1.8669  2.2619
 2815SOL     OW 8500   3.164   4.266   0.209  0.2774 -0.1722  0.1303
 2815SOL    HW1 8501   3.161   4.252   0.304  1.7619 -1.4757  0.0423
 2815SOL    HW2 8502   3.130   4.354   0.196  1.3702  0.5893  2.0254
 2816SOL     OW 8503   3.919   4.979   1.161  0.1984 -0.3196  0.2500
 2816SOL    HW1 8504   3.921   4.978   1.065 -1.5873 -0.2629  0.1797
 2816SOL    HW2 8505   3.916   5.072   1.184 -0.5335 -0.3452  0.2948
 2817SOL     OW 8506   2.439   0.368   0.272  0.2288 -0.2615 -0.0982
 2817SOL    HW1 8507   2.516   0.424   0.278 -2.0602  3.0623  1.8154
 2817SOL    HW2 8508   2.390   0.401   0.197 -0.1632 -1.2569 -0.3057
 2818SOL     OW 8509   4.612   0.984   3.018 -0.4463  0.3165 -0.4395
 2818SOL    HW1 8510   4.529   1.014   2.981  0.6764  1.5958 -2.0672
 2818SOL    HW2 8511   4.650   0.928   2.951 -0.3318 -0.9580  0.6364
 2819SOL     OW 8512   3.068   2.700   0.673 -0.2758  0.2107 -0.3343
 2819SOL    HW1 8513   2.973   2.711   0.684 -0.4170  0.4355 -1.6168
 2819SOL    HW2 8514   3.090   2.755   0.598  0.6953 -0.6529 -0.7030
 2820SOL     OW 8515   0.316   3.600   0.458 -0.2917 -0.1446  0.1716
 2820SOL    HW1 8516   0.268   3.630   0.535 -0.7357 -0.4935  0.0384
 2820SOL    HW2 8517   0.256   3.538   0.416 -0.3630  0.5970 -0.8539
 2821SOL     OW 8518   3.248   1.580   2.444  0.4223  0.2812 -0.3508
 2821SOL    HW1 8519   3.321   1.532   2.404 -0.0149  1.5004 -2.8143
 2821SOL    HW2 8520   3.171   1.526   2.427  0.4931 -0.1951  0.7615
 2822SOL     OW 8521   3.185   0.848   1.801 -0.0722 -0.1777  0.1453
 2822SOL    HW1 8522   3.180   0.765   1.754 -1.1474 -0.0320 -0.0358
 2822SOL    HW2 8523   3.107   0.849   1.856  0.0860  0.5754  0.3767
 2823SOL     OW 8524   1.958   3.639   1.422  0.1022  0.0717  0.3135
 2823SOL    HW1 8525   1.988   3.676   1.504  0.3361  1.1808 -0.2551
 2823SOL    HW2 8526   1.873   3.599   1.443  1.3447 -2.0115  1.6590
 2824SOL     OW 8527   1.007   3.239   0.987 -0.0102  0.3837  0.1025
 2824SOL    HW1 8528   0.960   3.286   1.057  0.1773  1.1504 -0.2705
 2824SOL    HW2 8529   1.024   3.307   0.921 -0.9371 -0.5021 -1.0815
 2825SOL     OW 8530   3.932   4.571   1.963 -0.0548  0.2077  0.3619
 2825SOL    HW1 8531   3.925   4.598   2.055 -1.4537  0.8507  0.0898
 2825SOL    HW2 8532   3.972   4.484   1.967 -2.7604 -1.0825  1.8299
 2826SOL     OW 8533   1.152   0.018   0.514 -0.6043 -0.0776 -0.1724
 2826SOL    HW1 8534   1.210  -0.058   0.515  0.4749  0.7195 -0.4497
 2826SOL    HW2 8535   1.170   0.062   0.597  0.6251  1.2123 -1.0935
 2827SOL     OW 8536   1.352   2.388   1.751 -0.4296  0.3130 -0.0174
 2827SOL    HW1 8537   1.406   2.455   1.709  0.1711  1.0906  1.8949
 2827SOL    HW2 8538   1.331   2.327   1.680  1.7328  0.7664 -1.1323
 2828SOL     OW 8539   2.121   0.244   4.075  0.2870  0.9256  0.3374
 2828SOL    HW1 8540   2.187   0.279   4.135  0.4731  1.4066 -0.1421
 2828SOL    HW2 8541   2.045   0.301   4.087 -0.6360 -0.5647  2.0497
 2829SOL     OW 8542   4.930   4.835   4.805  0.3780 -0.1945  0.0126
 2829SOL    HW1 8543   4.839   4.808   4.819  0.8836 -2.2524 -0.2898
 2829SOL    HW2 8544   4.937   4.847   4.710  0.7577 -1.5168 -0.1465
 2830SOL     OW 8545   2.577   3.857   4.803 -0.0645  0.1654  0.6056
 2830SOL    HW1 8546   2.635   3.932   4.810  1.2945 -0.9661  2.0944
 2830SOL    HW2 8547   2.633   3.781   4.818 -1.2437 -1.2571 -1.5712
 2831SOL     OW 8548   2.195   2.311   2.687  0.4944 -0.0016 -0.1322
 2831SOL    HW1 8549   2.260   2.268   2.742 -1.9122 -1.5963  1.6357
 2831SOL    HW2 8550   2.184   2.398   2.727  0.1970 -0.4165  0.6959
 2832SOL     OW 8551   3.203   3.026   4.047 -0.0109 -0.1326 -0.2382
 2832SOL    HW1 8552   3.165   2.943   4.075 -0.1440 -0.2279 -0.6920
 2832SOL    HW2 8553   3.160   3.045   3.963  1.0195 -0.2890 -0.8130
 2833SOL     OW 8554   1.562   0.084   1.647 -0.2213  0.8374  0.2012
 2833SOL    HW1 8555   1.508   0.035   1.710 -1.5743  3.5070  1.2572
 2833SOL    HW2 8556   1.535   0.050   1.562  0.1710 -1.4185  0.8953
 2834SOL     OW 8557   3.690   1.297   0.082 -0.1390  0.4952 -0.4206
 2834SOL    HW1 8558   3.686   1.247   0.163 -0.7087  0.1835 -0.6433
 2834SOL    HW2 8559   3.739   1.376   0.106 -1.8749  1.2808  0.6939
 2835SOL     OW 8560   0.922   1.545   0.393 -0.7290 -0.4020 -0.8688
 2835SOL    HW1 8561   0.932   1.626   0.342 -1.7580 -0.3120 -0.9359
 2835SOL    HW2 8562   0.971   1.479   0.343  2.1212  0.6120  0.3315
 2836SOL     OW 8563   3.185   1.866   0.977 -0.5117  0.0716 -0.2538
 2836SOL    HW1 8564   3.100   1.846   0.938 -0.7212  0.3340  0.0657
 2836SOL    HW2 8565   3.171   1.947   1.026 -0.6945 -1.0717  1.7031
 2837SOL     OW 8566   1.715   3.829   1.117  0.7800 -0.2541 -0.3369
 2837SOL    HW1 8567   1.725   3.906   1.062 -2.6426  0.2364 -0.4784
 2837SOL    HW2 8568   1.802   3.790   1.120  1.6642  0.9764 -4.1769
 2838SOL     OW 8569   1.874   3.178   1.073  0.1151  0.3068 -0.6448
 2838SOL    HW1 8570   1.858   3.255   1.019 -0.2736  0.4460 -0.3364
 2838SOL    HW2 8571   1.813   3.186   1.146  0.2439 -0.1658 -0.4762
 2839SOL     OW 8572   2.960   3.616   3.361 -0.3729 -0.1250 -0.0690
 2839SOL    HW1 8573   2.878   3.658   3.385 -1.2212 -1.8480  0.2178
 2839SOL    HW2 8574   3.025   3.657   3.417 -1.2248  0.5173  0.4750
 2840SOL     OW 8575   4.502   4.065   3.029 -0.2479  0.3699  0.6827
 2840SOL    HW1 8576   4.525   4.152   2.998 -0.5132  0.1365 -0.2141
 2840SOL    HW2 8577   4.581   4.032   3.071  0.6918  0.0693 -1.2032
 2841SOL     OW 8578   0.529   1.866   0.827 -1.2177  0.0026  0.0289
 2841SOL    HW1 8579   0.541   1.774   0.802 -1.3124  0.6452 -2.7705
 2841SOL    HW2 8580   0.601   1.883   0.888  0.2240 -1.3491 -1.1870
 2842SOL     OW 8581   1.996   1.418   3.606 -0.9167 -0.4657 -0.2259
 2842SOL    HW1 8582   1.914   1.434   3.654 -0.0139 -1.0570  1.6165
 2842SOL    HW2 8583   2.057   1.483   3.642 -0.3013 -0.6984 -0.8321
 2843SOL     OW 8584   2.088   0.817   2.060 -0.1990 -0.0859  0.0349
 2843SOL    HW1 8585   2.015   0.877   2.071  0.0569  0.3181 -0.4874
 2843SOL    HW2 8586   2.158   0.854   2.114  0.8116  1.4960 -2.2238
 2844SOL     OW 8587   3.251   1.768   3.275  0.6184 -0.3617 -0.7504
 2844SOL    HW1 8588   3.261   1.755   3.181  1.8583 -1.4528 -0.4922
 2844SOL    HW2 8589   3.292   1.691   3.315  0.0506  0.0437  0.6849
 2845SOL     OW 8590   0.351   4.932   1.331  0.1032 -0.0570 -0.1730
 2845SOL    HW1 8591   0.413   4.918   1.259 -0.8947 -0.5107 -0.9637
 2845SOL    HW2 8592   0.286   4.863   1.320 -0.0005 -0.2076  1.2558
 2846SOL     OW 8593   3.916   1.360   3.835  0.1098 -0.2996  0.3624
 2846SOL    HW1 8594   3.849   1.316   3.783  0.6235 -0.2388 -0.3688
 2846SOL    HW2 8595   3.961   1.289   3.882 -1.4499 -0.2279  2.1084
 2847SOL     OW 8596   1.271   3.643   0.947 -0.3083 -0.1628  0.0564
 2847SOL    HW1 8597   1.362   3.667   0.926  0.4886 -2.9732 -0.1323
 2847SOL    HW2 8598   1.219   3.715   0.912  1.8759  2.3608  1.6063
 2848SOL     OW 8599   2.893   4.318   1.620  0.3851  0.5676 -0.7029
 2848SOL    HW1 8600   2.972   4.268   1.640 -0.1023  0.5722  1.5222
 2848SOL    HW2 8601   2.887   4.382   1.691 -0.2835  2.2558 -2.2046
 2849SOL     OW 8602   0.959   4.270   2.173 -0.2883 -0.2031  0.4599
 2849SOL    HW1 8603   1.041   4.228   2.148 -0.4961 -1.0210  1.1165
 2849SOL    HW2 8604   0.984   4.328   2.246 -0.3642 -0.8033  0.9718
 2850SOL     OW 8605   2.260   1.597   1.175  0.7683 -0.4699 -0.0833
 2850SOL    HW1 8606   2.199   1.542   1.125 -2.3541  1.8271  0.8391
 2850SOL    HW2 8607   2.301   1.536   1.237  0.3406 -2.3513 -1.5305
 2851SOL     OW 8608   3.627   4.362   1.643 -0.7071  0.4090  0.1623
 2851SOL    HW1 8609   3.547   4.383   1.594 -2.1973 -1.0556  1.8127
 2851SOL    HW2 8610   3.613   4.401   1.729 -0.0338 -0.6203  0.7505
 2852SOL     OW 8611   4.030   0.833   4.648  0.0903  0.7267 -0.2401
 2852SOL    HW1 8612   4.040   0.919   4.689  0.2330  0.3467  0.5434
 2852SOL    HW2 8613   3.976   0.784   4.710  1.3686 -0.2641  0.1165
 2853SOL     OW 8614   3.480   1.168   4.467  0.2071 -0.2560  0.4006
 2853SOL    HW1 8615   3.563   1.154   4.513  0.4294  1.9812  0.8363
 2853SOL    HW2 8616   3.418   1.190   4.537  0.4795  2.9302 -0.2158
 2854SOL     OW 8617   3.145   0.166   2.581 -0.0674  0.0194 -0.0115
 2854SOL    HW1 8618   3.230   0.161   2.539  1.4125 -0.5950  2.8297
 2854SOL    HW2 8619   3.134   0.259   2.603 -0.6354  0.2627 -1.2172
 2855SOL     OW 8620   4.928   4.472   2.072 -0.2868 -0.8772  0.6180
 2855SOL    HW1 8621   4.950   4.527   1.997  1.1202 -0.6342  1.1639
 2855SOL    HW2 8622   4.856   4.417   2.042  0.6110 -1.1804 -1.1184
 2856SOL     OW 8623   1.872   0.566   3.117 -0.2850 -0.3928 -0.0923
 2856SOL    HW1 8624   1.929   0.506   3.069  0.1128  0.2346 -0.4256
 2856SOL    HW2 8625   1.785   0.525   3.113 -0.0884 -0.7717 -0.6111
 2857SOL     OW 8626   4.663   2.575   0.873  0.1427  0.0705  0.1119
 2857SOL    HW1 8627   4.681   2.658   0.828  0.1020  0.2214  0.3645
 2857SOL    HW2 8628   4.682   2.595   0.965  0.8015 -0.3978  0.0853
 2858SOL     OW 8629   2.624   2.314   0.409 -0.5123 -0.4676 -0.6845
 2858SOL    HW1 8630   2.556   2.377   0.431 -0.8676 -1.5157  1.4753
 2858SOL    HW2 8631   2.583   2.256   0.344 -1.1745 -0.2211 -0.4901
 2859SOL     OW 8632   3.725   0.813   4.399  0.3218 -0.4026 -0.2872
 2859SOL    HW1 8633   3.818   0.832   4.395 -0.1218  2.0339 -0.2092
 2859SOL    HW2 8634   3.687   0.861   4.326 -0.7958 -2.1092 -0.8885
 2860SOL     OW 8635   0.403   3.171   3.019  0.0757  0.6082  0.3468
 2860SOL    HW1 8636   0.490   3.130   3.018 -0.4926 -0.6166  0.2403
 2860SOL    HW2 8637   0.352   3.122   2.955 -0.3286  2.1888 -0.6020
 2861SOL     OW 8638   4.755   1.268   0.663  0.5975 -0.0289  0.3900
 2861SOL    HW1 8639   4.681   1.208   0.672 -0.3463  1.0747  0.0772
 2861SOL    HW2 8640   4.804   1.258   0.745  0.7880 -1.6288  0.1274
 2862SOL     OW 8641   0.813   0.534   0.585  0.3683 -0.4291 -0.0513
 2862SOL    HW1 8642   0.737   0.527   0.643  1.7594  0.5328  2.0285
 2862SOL    HW2 8643   0.850   0.446   0.584  0.7184 -0.3203  1.1675
 2863SOL     OW 8644   4.527   3.441   3.349 -0.0270 -0.4860  0.5958
 2863SOL    HW1 8645   4.557   3.374   3.409  0.5702  0.1644  1.0459
 2863SOL    HW2 8646   4.454   3.401   3.302  0.3097 -1.4331  0.8595
 2864SOL     OW 8647   0.972   1.974   4.879  0.5192  0.7300 -0.2931
 2864SOL    HW1 8648   1.041   1.908   4.873  0.5915  0.8359 -0.6085
 2864SOL    HW2 8649   0.916   1.943   4.951  0.6272  0.3975 -0.3511
 2865SOL     OW 8650   1.221   2.984   4.526  0.0656 -0.0295 -0.2916
 2865SOL    HW1 8651   1.279   3.059   4.535 -0.4428  0.5828 -1.7253
 2865SOL    HW2 8652   1.195   2.986   4.434 -4.0720  1.1189  0.7254
 2866SOL     OW 8653   1.905   0.652   3.447  0.3051  0.1537 -0.6777
 2866SOL    HW1 8654   1.848   0.624   3.376 -0.6072  0.4372 -0.0730
 2866SOL    HW2 8655   1.944   0.572   3.480 -1.7238 -0.4041  0.5680
 2867SOL     OW 8656   0.203   3.199   2.349 -0.5657  0.2559  0.2475
 2867SOL    HW1 8657   0.202   3.294   2.353  1.5002  0.3395  0.0408
 2867SOL    HW2 8658   0.287   3.178   2.308 -0.1411 -1.7053  1.9748
 2868SOL     OW 8659   4.093   1.610   4.171  0.1985 -0.1707 -0.1606
 2868SOL    HW1 8660   4.077   1.602   4.077 -1.0676 -0.7333  0.0789
 2868SOL    HW2 8661   4.151   1.686   4.179 -1.0972  0.9977 -1.2824
 2869SOL     OW 8662   0.733   1.551   2.948  0.1769  0.0189  0.2907
 2869SOL    HW1 8663   0.730   1.460   2.920 -1.6541 -0.0535  0.6421
 2869SOL    HW2 8664   0.767   1.548   3.037 -0.2816 -0.3699  0.4555
 2870SOL     OW 8665   1.272   1.808   2.085  0.9382  0.8116  0.2741
 2870SOL    HW1 8666   1.187   1.849   2.102  0.5981 -0.3743  1.6758
 2870SOL    HW2 8667   1.336   1.875   2.109  0.4074  1.3424  0.2445
 2871SOL     OW 8668   0.210   0.806   3.247  0.1530  0.8246  0.0496
 2871SOL    HW1 8669   0.304   0.800   3.228  0.0741  2.0089 -0.8503
 2871SOL    HW2 8670   0.175   0.721   3.224  0.7683  0.8727 -1.1434
 2872SOL     OW 8671   4.869   1.409   3.013 -0.4295 -0.5837  0.8064
 2872SOL    HW1 8672   4.792   1.462   3.034  0.0632  0.0196  1.1462
 2872SOL    HW2 8673   4.899   1.376   3.098  0.1770 -0.1015  0.7941
 2873SOL     OW 8674   0.025   4.593   2.290 -0.2117  0.0418  0.4445
 2873SOL    HW1 8675   0.116   4.588   2.262 -0.2069 -2.2402  0.6843
 2873SOL    HW2 8676  -0.026   4.580   2.210 -0.2656 -0.9081  0.6161
 2874SOL     OW 8677   2.351   3.108   0.187  0.4355 -0.2444  0.2460
 2874SOL    HW1 8678   2.339   3.036   0.248 -3.5118 -0.4717 -0.5823
 2874SOL    HW2 8679   2.433   3.088   0.141  1.5256 -2.0036  2.7745
 2875SOL     OW 8680   3.929   0.513   2.299 -0.2547 -0.1208  0.5827
 2875SOL    HW1 8681   3.995   0.576   2.269  1.1896 -0.4465  2.8488
 2875SOL    HW2 8682   3.912   0.459   2.222 -0.0541  1.7567 -0.8605
 2876SOL     OW 8683   4.861   1.087   3.498  0.3295  0.2907 -0.4980
 2876SOL    HW1 8684   4.932   1.031   3.529  0.7125  0.8187 -0.4120
 2876SOL    HW2 8685   4.834   1.047   3.415  1.2305  0.5130 -0.9087
 2877SOL     OW 8686   3.285   0.567   2.807 -0.4135 -0.2124  0.4440
 2877SOL    HW1 8687   3.312   0.609   2.725 -0.4268 -2.3068 -0.7069
 2877SOL    HW2 8688   3.364   0.526   2.841 -0.8596 -1.3071  0.2180
 2878SOL     OW 8689   4.372   3.588   2.361 -0.1058  0.0419  0.1531
 2878SOL    HW1 8690   4.463   3.618   2.368 -0.2555  0.7035 -0.6050
 2878SOL    HW2 8691   4.375   3.497   2.392  0.9720 -0.2064 -0.6030
 2879SOL     OW 8692   4.927   0.805   4.252 -0.2140 -0.4271 -0.1215
 2879SOL    HW1 8693   4.874   0.765   4.183  1.3338 -0.8541 -1.1192
 2879SOL    HW2 8694   4.985   0.865   4.206  0.5110 -0.3460  0.8615
 2880SOL     OW 8695   0.210   3.019   3.526 -0.6304  0.0635 -0.2391
 2880SOL    HW1 8696   0.247   3.060   3.448 -1.2571  0.6594 -0.2350
 2880SOL    HW2 8697   0.138   3.077   3.551 -1.3886 -0.9176 -0.0911
 2881SOL     OW 8698   4.122   4.367   0.924  0.2266  0.0085 -0.0049
 2881SOL    HW1 8699   4.184   4.389   0.854 -0.5882  0.1982 -0.6780
 2881SOL    HW2 8700   4.036   4.369   0.882 -0.2540 -0.1420  0.9435
 2882SOL     OW 8701   2.387   3.845   3.055  0.5012  0.3212 -0.5556
 2882SOL    HW1 8702   2.417   3.873   3.141  1.3018  1.2018 -1.1018
 2882SOL    HW2 8703   2.456   3.787   3.023  0.1654 -0.0737 -0.5737
 2883SOL     OW 8704   4.619   3.268   4.713 -0.1613 -0.1452 -0.0494
 2883SOL    HW1 8705   4.665   3.191   4.747  2.9222  0.7767 -1.7374
 2883SOL    HW2 8706   4.640   3.338   4.775 -0.8886 -0.0743  0.1339
 2884SOL     OW 8707   0.463   1.761   2.725  0.3383 -0.1357 -0.4458
 2884SOL    HW1 8708   0.511   1.687   2.687  1.2562 -0.6964  1.6854
 2884SOL    HW2 8709   0.413   1.797   2.651  0.5960 -2.2765 -1.7574
 2885SOL     OW 8710   4.317   0.067   4.037  0.1299 -0.3497 -0.6360
 2885SOL    HW1 8711   4.254   0.126   4.080  1.2097  1.6794 -1.7309
 2885SOL    HW2 8712   4.297   0.074   3.944  2.7757  1.4256 -1.1620
 2886SOL     OW 8713   1.244   0.128   3.296 -0.3659  0.4627 -0.4525
 2886SOL    HW1 8714   1.274   0.093   3.380  0.6477 -0.0621 -1.0120
 2886SOL    HW2 8715   1.276   0.218   3.295 -1.4901  0.8889  0.2562
 2887SOL     OW 8716   0.368   4.538   0.124  0.2261  0.4420  0.1096
 2887SOL    HW1 8717   0.353   4.480   0.049  0.8191  1.0538 -0.4957
 2887SOL    HW2 8718   0.297   4.518   0.185  0.2560 -0.7078 -0.2161
 2888SOL     OW 8719   0.031   3.128   4.323 -0.3740 -0.2365  0.1431
 2888SOL    HW1 8720   0.096   3.155   4.388 -1.0860  1.7123  0.1109
 2888SOL    HW2 8721   0.052   3.179   4.245 -2.0560  0.6528  0.2162
 2889SOL     OW 8722   2.775   0.812   1.044 -0.0143 -0.1780 -0.4472
 2889SOL    HW1 8723   2.844   0.877   1.055  1.8443 -2.2197  0.8865
 2889SOL    HW2 8724   2.698   0.852   1.084  1.0158  1.2764  0.1857
 2890SOL     OW 8725   1.827   4.196   2.842 -0.2418 -0.1509  0.2058
 2890SOL    HW1 8726   1.738   4.232   2.849  0.2447  0.7965  2.4880
 2890SOL    HW2 8727   1.842   4.188   2.748 -1.8691  1.9387 -0.3212
 2891SOL     OW 8728   0.993   2.349   2.190  0.0145  0.1639  0.6189
 2891SOL    HW1 8729   0.921   2.406   2.165 -0.8031 -1.4642 -0.9492
 2891SOL    HW2 8730   1.057   2.358   2.120  0.3961  0.0346  0.9441
 2892SOL     OW 8731   2.782   3.232   1.516 -0.3607 -0.3633 -0.0274
 2892SOL    HW1 8732   2.760   3.253   1.425 -1.8655  1.7865  0.7634
 2892SOL    HW2 8733   2.763   3.312   1.565  2.0118 -0.9208  1.9740
 2893SOL     OW 8734   0.198   1.909   2.587  0.0511 -0.4007 -0.4224
 2893SOL    HW1 8735   0.246   1.867   2.516  1.5608 -1.6441  1.2304
 2893SOL    HW2 8736   0.130   1.960   2.543 -0.3718 -2.6724 -2.6844
 2894SOL     OW 8737   0.663   0.736   1.138  0.2361 -0.9635 -0.0192
 2894SOL    HW1 8738   0.660   0.822   1.179 -3.2705 -0.5618 -0.8125
 2894SOL    HW2 8739   0.673   0.675   1.211 -1.1330 -0.0163  1.0090
 2895SOL     OW 8740   1.907   4.655   2.771  0.5356  0.3063  0.5106
 2895SOL    HW1 8741   1.955   4.611   2.701 -1.4788  0.7932 -1.2840
 2895SOL    HW2 8742   1.862   4.728   2.728 -0.1381  1.1274  2.4728
 2896SOL     OW 8743   2.479   4.716   2.709 -0.4097 -0.5478  0.4281
 2896SOL    HW1 8744   2.470   4.623   2.728  1.0996 -0.4164  2.1427
 2896SOL    HW2 8745   2.477   4.722   2.614  0.1508 -2.4159  0.2632
 2897SOL     OW 8746   0.583   4.338   1.742  0.2294  0.2741  0.2087
 2897SOL    HW1 8747   0.492   4.311   1.749  0.2456 -0.0347 -0.6351
 2897SOL    HW2 8748   0.628   4.290   1.811 -0.4295  1.3806  1.4780
 2898SOL     OW 8749   3.651   1.902   0.556  0.0183 -0.4448 -0.2913
 2898SOL    HW1 8750   3.563   1.878   0.525 -0.3890  0.3188  0.2455
 2898SOL    HW2 8751   3.709   1.837   0.516 -0.6674 -0.3772 -1.4379
 2899SOL     OW 8752   4.666   1.213   4.897 -0.4166  0.0968  0.0929
 2899SOL    HW1 8753   4.597   1.279   4.887  0.1253  0.5775 -0.6156
 2899SOL    HW2 8754   4.623   1.130   4.880 -1.9217 -0.1790  4.2117
 2900SOL     OW 8755   3.118   3.567   1.785 -0.9062 -0.1941  0.7768
 2900SOL    HW1 8756   3.152   3.574   1.874  0.6233 -1.8515  0.3621
 2900SOL    HW2 8757   3.052   3.498   1.790 -0.1731 -0.9361  0.4768
 2901SOL     OW 8758   1.172   3.844   3.629 -0.0586 -0.1813  0.3124
 2901SOL    HW1 8759   1.235   3.892   3.684 -0.7861  1.4462 -0.1988
 2901SOL    HW2 8760   1.217   3.763   3.606  1.7857  0.8426  0.1218
 2902SOL     OW 8761   1.279   1.869   2.568 -0.7021  0.1747 -0.2216
 2902SOL    HW1 8762   1.285   1.929   2.494 -0.8238 -0.6259 -0.8923
 2902SOL    HW2 8763   1.367   1.831   2.574 -0.6323  0.3906  0.1896
 2903SOL     OW 8764   0.756   1.771   1.186 -0.2027 -0.0887 -0.0484
 2903SOL    HW1 8765   0.807   1.692   1.167 -0.8952 -0.9933  1.6923
 2903SOL    HW2 8766   0.674   1.738   1.223  0.2027  1.4361  2.3985
 2904SOL     OW 8767   0.129   1.486   3.872 -0.2254 -0.2840 -0.4642
 2904SOL    HW1 8768   0.202   1.532   3.829  0.6668 -0.8393  0.4010
 2904SOL    HW2 8769   0.113   1.409   3.817  0.6312 -0.7703 -0.0642
 2905SOL     OW 8770   0.706   3.193   2.397  0.4274 -0.5463  0.3123
 2905SOL    HW1 8771   0.757   3.230   2.469  0.7299 -1.4193  0.5507
 2905SOL    HW2 8772   0.767   3.190   2.323  0.3620 -0.4447  0.2535
 2906SOL     OW 8773   1.630   3.574   3.675 -0.3145  0.6122 -0.2285
 2906SOL    HW1 8774   1.668   3.567   3.588 -2.3316 -0.0699 -1.1243
 2906SOL    HW2 8775   1.687   3.635   3.722  0.1124  1.9775 -2.4100
 2907SOL     OW 8776   0.384   0.690   1.401  0.7543 -0.2485 -0.4342
 2907SOL    HW1 8777   0.469   0.734   1.397  0.0535  1.0825 -1.6819
 2907SOL    HW2 8778   0.369   0.659   1.312 -0.4582  0.3581 -0.4688
 2908SOL     OW 8779   1.055   4.776   0.828 -0.3958  0.7183  0.1337
 2908SOL    HW1 8780   1.116   4.779   0.754 -1.3862 -1.5516 -0.8811
 2908SOL    HW2 8781   0.980   4.727   0.795 -0.0105 -2.3305  3.2556
 2909SOL     OW 8782   2.750   4.496   1.970 -0.4912  0.0003 -0.4171
 2909SOL    HW1 8783   2.663   4.526   1.943  0.2827  1.5645 -1.3028
 2909SOL    HW2 8784   2.758   4.525   2.061 -1.7060 -2.1206  0.4503
 2910SOL     OW 8785   2.753   1.896   2.607  0.7344  0.6230  0.9250
 2910SOL    HW1 8786   2.750   1.948   2.527  1.7177  1.6560  1.5309
 2910SOL    HW2 8787   2.724   1.809   2.580  1.7153  0.7569 -0.7236
 2911SOL     OW 8788   1.336   3.938   4.490  0.5639  0.1340 -0.0801
 2911SOL    HW1 8789   1.393   3.940   4.414 -0.6881 -0.1272 -1.0523
 2911SOL    HW2 8790   1.393   3.908   4.562  2.7567  3.9991  0.0513
 2912SOL     OW 8791   2.700   4.425   2.765 -0.1876 -0.1081 -0.2985
 2912SOL    HW1 8792   2.761   4.466   2.827  1.3464 -0.1335 -1.7236
 2912SOL    HW2 8793   2.750   4.355   2.724 -1.2706 -0.3361 -1.2992
 2913SOL     OW 8794   3.009   0.996   1.037  0.1665  0.0732 -0.6070
 2913SOL    HW1 8795   2.987   1.056   1.108 -1.8944  2.8324 -3.3382
 2913SOL    HW2 8796   3.094   1.026   1.005 -0.0811  0.4634 -0.9027
 2914SOL     OW 8797   4.015   0.847   1.232  0.8569 -0.0949  0.0958
 2914SOL    HW1 8798   4.044   0.759   1.255 -0.8735 -0.3339  1.5567
 2914SOL    HW2 8799   4.079   0.905   1.273  1.3634 -0.6560  0.1081
 2915SOL     OW 8800   1.017   4.797   4.223  0.0232  0.3848 -0.1056
 2915SOL    HW1 8801   1.096   4.800   4.169  1.1346 -0.9614  1.3345
 2915SOL    HW2 8802   1.033   4.725   4.284 -1.4368  1.4093  1.5747
 2916SOL     OW 8803   0.840   3.627   3.251  0.0646  0.3199 -0.2927
 2916SOL    HW1 8804   0.848   3.714   3.212 -0.4579  0.2128 -0.6428
 2916SOL    HW2 8805   0.800   3.642   3.337  2.0836  0.6600  0.6522
 2917SOL     OW 8806   3.035   0.511   3.266  0.4285  0.0320 -0.3677
 2917SOL    HW1 8807   3.130   0.523   3.272  0.3668  0.5143 -0.3534
 2917SOL    HW2 8808   2.998   0.579   3.322  0.0152  1.3718 -2.1687
 2918SOL     OW 8809   0.145   0.843   4.708 -0.4860 -0.3422  0.3374
 2918SOL    HW1 8810   0.154   0.749   4.718 -2.5760 -0.4557  1.7037
 2918SOL    HW2 8811   0.081   0.854   4.638  0.8668  0.1480 -0.8835
 2919SOL     OW 8812   0.378   2.269   4.905 -0.2636 -0.4330  0.1007
 2919SOL    HW1 8813   0.392   2.357   4.941 -1.3994 -0.5948  1.0030
 2919SOL    HW2 8814   0.348   2.217   4.980 -0.0367 -1.4823 -0.5203
 2920SOL     OW 8815   3.438   1.087   3.082  0.3217  0.6537  0.3930
 2920SOL    HW1 8816   3.472   1.007   3.043  1.1113  0.8842  0.5877
 2920SOL    HW2 8817   3.347   1.090   3.055  0.0429 -0.7620  1.0912
 2921SOL     OW 8818   4.061   2.575   0.324 -0.0227 -0.4691 -0.7410
 2921SOL    HW1 8819   3.979   2.624   0.315 -0.7549 -1.2767  1.0726
 2921SOL    HW2 8820   4.114   2.603   0.249 -1.0689  1.7590 -0.7299
 2922SOL     OW 8821   2.806   2.137   0.472  0.0492 -0.4165  0.3740
 2922SOL    HW1 8822   2.765   2.130   0.558 -1.1887  1.5666  0.0087
 2922SOL    HW2 8823   2.754   2.203   0.426  0.6782 -1.4099 -1.9051
 2923SOL     OW 8824   1.125   4.151   1.170  0.0450 -0.1941 -0.2472
 2923SOL    HW1 8825   1.055   4.122   1.228  0.4760  2.0523  1.5553
 2923SOL    HW2 8826   1.179   4.073   1.157 -1.7116 -1.4905 -0.1224
 2924SOL     OW 8827   3.618   3.418   1.033  0.1203 -0.1223  0.5322
 2924SOL    HW1 8828   3.654   3.394   1.118 -1.5017 -0.6927  1.1075
 2924SOL    HW2 8829   3.523   3.422   1.048 -0.1803 -0.0236 -1.2020
 2925SOL     OW 8830   3.006   4.391   3.371  0.0692  0.2020 -0.5986
 2925SOL    HW1 8831   3.070   4.337   3.324  0.6831  0.7178 -0.3762
 2925SOL    HW2 8832   3.024   4.480   3.342 -1.4505  0.2265 -1.5466
 2926SOL     OW 8833   1.211   1.338   3.400 -0.0924 -0.1943  0.4885
 2926SOL    HW1 8834   1.229   1.270   3.464 -2.2343 -0.7369  0.6099
 2926SOL    HW2 8835   1.120   1.363   3.418 -0.1585  0.9064 -1.1902
 2927SOL     OW 8836   1.494   1.408   1.376  0.1648 -0.0771  0.1506
 2927SOL    HW1 8837   1.411   1.368   1.351  0.9708 -1.0417 -1.1250
 2927SOL    HW2 8838   1.560   1.354   1.333  1.4276  1.0472  0.6128
 2928SOL     OW 8839   2.712   3.581   0.190 -0.4038  0.0018 -0.0476
 2928SOL    HW1 8840   2.724   3.535   0.107 -2.8696 -0.9698  0.0487
 2928SOL    HW2 8841   2.724   3.674   0.168  3.3608 -0.4164 -0.4970
 2929SOL     OW 8842   1.970   2.695   1.958 -0.0922 -0.1045  0.0635
 2929SOL    HW1 8843   1.914   2.643   2.015  1.7675  0.3629  2.4590
 2929SOL    HW2 8844   2.045   2.638   1.938 -0.7461 -0.3135 -2.1299
 2930SOL     OW 8845   1.822   1.045   3.015  0.2800  0.2399  0.5219
 2930SOL    HW1 8846   1.828   1.134   3.050 -2.5288  1.2003 -1.1050
 2930SOL    HW2 8847   1.900   1.036   2.960  1.1451  1.2670  1.5159
 2931SOL     OW 8848   2.526   0.106   4.094  0.5299 -0.4349  0.0174
 2931SOL    HW1 8849   2.520   0.021   4.137  0.2889 -0.7981 -0.7157
 2931SOL    HW2 8850   2.487   0.167   4.156  0.6603 -0.8689  0.5287
 2932SOL     OW 8851   2.874   2.459   2.625  0.1911  0.4221  0.3604
 2932SOL    HW1 8852   2.860   2.470   2.530 -1.4355  0.5025  0.5854
 2932SOL    HW2 8853   2.927   2.535   2.650  1.1462  0.0912 -0.5678
 2933SOL     OW 8854   0.590   2.305   1.404  0.0869 -0.0663 -0.0662
 2933SOL    HW1 8855   0.644   2.281   1.479 -0.7216 -1.5213  0.0901
 2933SOL    HW2 8856   0.580   2.223   1.355 -1.2575  0.3632 -0.5404
 2934SOL     OW 8857   4.019   0.870   4.280  0.2302  0.5020 -0.1770
 2934SOL    HW1 8858   4.032   0.940   4.344  1.3893  0.7448 -0.6713
 2934SOL    HW2 8859   4.086   0.884   4.214 -1.6622  0.9449 -2.1010
 2935SOL     OW 8860   0.862   0.838   4.737  0.2104 -0.1663 -0.2676
 2935SOL    HW1 8861   0.780   0.856   4.783  0.0752 -1.1494 -0.1054
 2935SOL    HW2 8862   0.899   0.925   4.720 -0.6638  0.2772  0.0081
 2936SOL     OW 8863   1.143   0.932   0.353 -0.2016 -0.7381 -0.7568
 2936SOL    HW1 8864   1.216   0.878   0.323 -0.4433 -0.6438 -1.5338
 2936SOL    HW2 8865   1.084   0.871   0.397  0.3920 -0.7965 -0.0430
 2937SOL     OW 8866   4.570   3.696   3.400 -0.6429 -0.2246  0.0458
 2937SOL    HW1 8867   4.622   3.685   3.321 -1.2051  1.4094 -0.5992
 2937SOL    HW2 8868   4.516   3.617   3.404 -0.1026 -0.6537 -0.8003
 2938SOL     OW 8869   4.801   1.627   2.559 -0.6038  0.2419  0.0107
 2938SOL    HW1 8870   4.891   1.597   2.575  0.4226  1.8843 -2.1975
 2938SOL    HW2 8871   4.810   1.720   2.538 -2.9690  0.6743  0.5856
 2939SOL     OW 8872   0.200   4.788   0.641 -0.3155  0.0624  0.4268
 2939SOL    HW1 8873   0.180   4.838   0.562 -0.9996  0.2386  0.7123
 2939SOL    HW2 8874   0.289   4.814   0.664  0.0114 -0.2177 -0.4567
 2940SOL     OW 8875   2.440   2.519   4.849  0.1084  1.0283  0.3402
 2940SOL    HW1 8876   2.396   2.474   4.777  1.7882 -0.1960  0.0035
 2940SOL    HW2 8877   2.406   2.476   4.928  0.0262  0.7351  0.1460
 2941SOL     OW 8878   4.121   2.604   1.377 -0.4778  0.1534  0.6641
 2941SOL    HW1 8879   4.034   2.635   1.402 -1.4775 -2.6117  0.9503
 2941SOL    HW2 8880   4.157   2.564   1.456  0.4685  0.0127  0.1829
 2942SOL     OW 8881   2.964   1.281   4.185 -0.0517  0.4597  0.0575
 2942SOL    HW1 8882   3.029   1.315   4.125 -0.3176 -1.0628 -1.1586
 2942SOL    HW2 8883   2.883   1.326   4.161 -0.4890 -1.1838 -1.8009
 2943SOL     OW 8884   2.493   0.710   3.315  0.0043  0.1936 -0.3160
 2943SOL    HW1 8885   2.564   0.657   3.351  0.7030  1.0533 -0.4139
 2943SOL    HW2 8886   2.415   0.681   3.363 -0.2346 -2.9819 -2.3320
 2944SOL     OW 8887   4.810   4.285   2.828  0.2287  0.4431  0.2236
 2944SOL    HW1 8888   4.749   4.326   2.890  0.5858  0.2190  0.7305
 2944SOL    HW2 8889   4.896   4.299   2.866  0.6044  1.6142 -0.9789
 2945SOL     OW 8890   1.319   3.312   2.484  0.3238  0.6914 -0.3818
 2945SOL    HW1 8891   1.242   3.341   2.532  0.8522  1.8487 -0.2000
 2945SOL    HW2 8892   1.303   3.337   2.393  0.4891  0.9509 -0.3405
 2946SOL     OW 8893   4.381   0.150   3.427 -0.2219  0.3188  0.5006
 2946SOL    HW1 8894   4.400   0.073   3.375  1.2063  1.2493 -0.4160
 2946SOL    HW2 8895   4.286   0.153   3.431 -0.3827  0.1355 -1.9497
 2947SOL     OW 8896   1.987   4.352   3.471 -0.3509  0.6151  0.8860
 2947SOL    HW1 8897   1.914   4.396   3.427  0.4384  0.7320 -0.3570
 2947SOL    HW2 8898   2.040   4.423   3.505 -0.9417  0.5242  2.0300
 2948SOL     OW 8899   1.654   2.828   2.282 -0.3980  0.4324 -0.1765
 2948SOL    HW1 8900   1.653   2.924   2.282  0.9968  0.4863 -1.3319
 2948SOL    HW2 8901   1.743   2.805   2.311 -1.0236 -0.5553  1.0684
 2949SOL     OW 8902   2.138   4.200   1.446 -0.1943 -0.2150  0.1192
 2949SOL    HW1 8903   2.212   4.191   1.506 -1.0204  1.2267  1.4236
 2949SOL    HW2 8904   2.178   4.230   1.364  0.9449 -2.1749 -0.1059
 2950SOL     OW 8905   2.727   2.769   2.864  0.3575  0.0889  0.2850
 2950SOL    HW1 8906   2.782   2.799   2.936 -0.4856  1.2728  0.4629
 2950SOL    HW2 8907   2.784   2.769   2.788  1.0650 -0.4709  0.7998
 2951SOL     OW 8908   1.439   3.991   4.208  0.6690  0.2508 -0.3515
 2951SOL    HW1 8909   1.451   3.944   4.125 -0.3022 -1.7830  0.5927
 2951SOL    HW2 8910   1.373   4.058   4.188  0.1417 -0.4769 -1.1368
 2952SOL     OW 8911   0.024   3.737   1.344 -0.1506 -1.4139 -0.2222
 2952SOL    HW1 8912   0.036   3.773   1.432  2.3198 -0.6790 -0.8033
 2952SOL    HW2 8913  -0.041   3.795   1.303  0.2972 -0.4534  0.3966
 2953SOL     OW 8914   3.556   2.059   4.842 -0.0003  0.5771 -0.0146
 2953SOL    HW1 8915   3.502   1.982   4.824 -1.5712  1.4847  0.6196
 2953SOL    HW2 8916   3.646   2.026   4.838 -0.4590 -0.6549 -2.7011
 2954SOL     OW 8917   1.477   2.408   4.708  0.5329  0.5029  0.3603
 2954SOL    HW1 8918   1.490   2.363   4.792  1.7734 -0.3641 -0.2597
 2954SOL    HW2 8919   1.392   2.377   4.678  0.3883  0.2790  0.9788
 2955SOL     OW 8920   1.980   1.908   3.393 -0.0835 -0.2253 -0.1848
 2955SOL    HW1 8921   1.984   1.996   3.431  0.0398 -0.3540  0.1099
 2955SOL    HW2 8922   1.933   1.919   3.310  1.6556  0.4640 -1.1283
 2956SOL     OW 8923   3.961   0.910   0.649 -0.0643  0.0432 -0.5872
 2956SOL    HW1 8924   4.024   0.971   0.687  1.8717 -0.4787 -2.6659
 2956SOL    HW2 8925   3.897   0.966   0.605 -0.1065  0.5927  0.1606
 2957SOL     OW 8926   4.071   1.985   3.014 -0.6351 -0.1642  0.5327
 2957SOL    HW1 8927   4.165   1.969   2.999 -0.8943 -0.3312 -1.0872
 2957SOL    HW2 8928   4.044   1.913   3.072 -0.0655 -1.0145 -0.2204
 2958SOL     OW 8929   1.534   2.221   4.281 -0.1279  0.2014  0.4503
 2958SOL    HW1 8930   1.522   2.275   4.203  0.7955  1.7071  1.2899
 2958SOL    HW2 8931   1.592   2.150   4.252 -0.5430  0.2050 -0.4362
 2959SOL     OW 8932   0.561   4.797   4.575 -0.2266 -0.0566 -0.2382
 2959SOL    HW1 8933   0.605   4.830   4.654 -0.3285 -1.2586  0.3524
 2959SOL    HW2 8934   0.468   4.816   4.590 -0.5349 -2.0906  0.9520
 2960SOL     OW 8935   3.324   4.678   0.508 -0.2098 -0.0842 -0.0270
 2960SOL    HW1 8936   3.366   4.633   0.435  2.0131  1.2994  0.3195
 2960SOL    HW2 8937   3.348   4.626   0.585 -0.6495 -0.2619 -0.0021
 2961SOL     OW 8938   1.421   0.188   3.535  0.4905 -0.0149 -0.4022
 2961SOL    HW1 8939   1.491   0.194   3.470  0.4203 -0.2011 -0.4968
 2961SOL    HW2 8940   1.425   0.098   3.567  1.3221  0.4066  0.7486
 2962SOL     OW 8941   4.544   2.433   1.256 -0.4209  0.6321  0.1180
 2962SOL    HW1 8942   4.634   2.435   1.287  0.0401  2.4002 -1.1230
 2962SOL    HW2 8943   4.493   2.470   1.328 -0.0856  0.1344  0.6200
 2963SOL     OW 8944   4.176   0.033   2.165  0.1680  0.2492  0.4815
 2963SOL    HW1 8945   4.228   0.026   2.085  0.6505  1.1262  0.7134
 2963SOL    HW2 8946   4.109   0.098   2.144  0.1309  0.2843  0.7080
 2964SOL     OW 8947   4.632   1.673   4.505  0.5359 -0.1759 -0.0442
 2964SOL    HW1 8948   4.563   1.606   4.508  0.8509 -0.5384 -0.7299
 2964SOL    HW2 8949   4.619   1.724   4.585 -0.8925  0.1262 -0.4498
 2965SOL     OW 8950   2.118   0.881   0.065 -0.1149 -0.7013 -0.0327
 2965SOL    HW1 8951   2.080   0.947   0.007  0.2155  0.8110  1.3764
 2965SOL    HW2 8952   2.207   0.869   0.032  0.7236  1.5632  1.1555
 2966SOL     OW 8953   1.205   3.600   1.233  0.1211  0.7366  0.1161
 2966SOL    HW1 8954   1.239   3.584   1.145  1.0118  1.6411  0.2835
 2966SOL    HW2 8955   1.179   3.513   1.264  0.3126  0.3237 -0.8227
 2967SOL     OW 8956   0.703   0.246   4.064 -0.4122 -0.1900  0.3580
 2967SOL    HW1 8957   0.782   0.285   4.103  0.3042 -1.0757 -0.1670
 2967SOL    HW2 8958   0.673   0.182   4.128 -1.0575  0.5590  0.8169
 2968SOL     OW 8959   2.463   3.537   3.235  0.3872  0.1389  0.7802
 2968SOL    HW1 8960   2.499   3.561   3.150 -1.3157 -2.0673 -0.6533
 2968SOL    HW2 8961   2.503   3.600   3.296  2.9635  0.7302 -1.3305
 2969SOL     OW 8962   2.956   3.587   1.020  0.1622 -0.0859  0.3008
 2969SOL    HW1 8963   2.873   3.567   0.977 -0.1006  1.3023  0.1186
 2969SOL    HW2 8964   2.996   3.654   0.964  1.5595 -0.9541  0.2158
 2970SOL     OW 8965   4.019   3.395   3.823 -0.4951  0.4299  0.4454
 2970SOL    HW1 8966   3.927   3.379   3.801 -0.5300  1.2944 -0.0666
 2970SOL    HW2 8967   4.063   3.402   3.738 -0.2911  1.8868  0.6600
 2971SOL     OW 8968   2.894   4.111   0.939  0.3775  0.0985  0.5462
 2971SOL    HW1 8969   2.843   4.106   1.020 -0.1932  2.3367  0.3759
 2971SOL    HW2 8970   2.867   4.033   0.890 -1.2666  0.0838  1.3835
 2972SOL     OW 8971   0.868   4.631   1.954 -0.1597  0.1192  0.0661
 2972SOL    HW1 8972   0.938   4.614   2.017  0.7570 -0.5968 -1.0986
 2972SOL    HW2 8973   0.887   4.572   1.881 -1.3510  0.7238 -0.7621
 2973SOL     OW 8974   0.747   3.256   0.448 -0.1250 -0.7066 -0.2265
 2973SOL    HW1 8975   0.768   3.302   0.529  1.4723 -1.2029 -0.3252
 2973SOL    HW2 8976   0.762   3.164   0.468  0.6631 -0.8052 -1.1680
 2974SOL     OW 8977   2.998   1.010   4.089  0.1754 -0.8108  0.6335
 2974SOL    HW1 8978   3.013   1.101   4.114 -0.0074 -0.3489 -0.8156
 2974SOL    HW2 8979   2.912   1.011   4.046  0.7624 -1.3768 -0.6225
 2975SOL     OW 8980   3.930   3.441   1.039  0.0317  0.2245  0.3018
 2975SOL    HW1 8981   3.866   3.462   1.107  0.7454  0.9059  0.7812
 2975SOL    HW2 8982   3.891   3.369   0.990 -0.4361 -0.3768  1.5233
 2976SOL     OW 8983   4.241   0.751   2.554 -0.2095  0.3990  0.0674
 2976SOL    HW1 8984   4.271   0.665   2.525  0.1021 -0.1101  1.7650
 2976SOL    HW2 8985   4.313   0.810   2.532 -1.0443  0.5502 -2.4905
 2977SOL     OW 8986   1.236   1.507   0.346 -0.2606  0.3743  0.0305
 2977SOL    HW1 8987   1.283   1.469   0.271  1.4732  0.9147  0.7904
 2977SOL    HW2 8988   1.174   1.439   0.372 -0.4579 -0.0704 -1.4803
 2978SOL     OW 8989   2.453   2.951   1.158 -0.1420 -0.6881 -0.1115
 2978SOL    HW1 8990   2.468   2.867   1.114 -1.8978 -1.4007  0.5405
 2978SOL    HW2 8991   2.487   2.938   1.246  2.3819  0.3704 -0.8648
 2979SOL     OW 8992   3.067   4.963   4.497 -0.3438 -0.0578 -0.0114
 2979SOL    HW1 8993   3.043   4.881   4.540  0.4974 -1.1480 -1.5475
 2979SOL    HW2 8994   3.064   5.028   4.568  1.0695 -1.7804  1.7510
 2980SOL     OW 8995   0.006   3.407   4.475  0.2420 -0.0070  0.0070
 2980SOL    HW1 8996  -0.032   3.479   4.525  0.0709 -0.7596  0.9989
 2980SOL    HW2 8997  -0.007   3.330   4.531  1.8585 -0.5399 -0.3070
 2981SOL     OW 8998   4.538   2.979   4.340  0.3139  0.1684  0.0599
 2981SOL    HW1 8999   4.496   2.954   4.258  0.3792 -1.6808  0.5523
 2981SOL    HW2 9000   4.632   2.976   4.321  0.3265 -0.1674  0.1702
 2982SOL     OW 9001   2.429   1.194   3.683 -0.2326 -0.3838  0.5201
 2982SOL    HW1 9002   2.400   1.116   3.636 -2.8149 -0.0664  1.4050
 2982SOL    HW2 9003   2.419   1.171   3.776 -2.0067  1.2327  0.8006
 2983SOL     OW 9004   4.716   1.156   1.087 -0.3235  0.1739 -0.1449
 2983SOL    HW1 9005   4.631   1.111   1.081  0.2783 -0.9042 -0.7729
 2983SOL    HW2 9006   4.743   1.143   1.178  0.3880 -1.8155 -0.5891
 2984SOL     OW 9007   0.121   0.393   2.243 -0.5863  0.1066  0.0215
 2984SOL    HW1 9008   0.067   0.314   2.237 -1.2037  0.5036  0.3126
 2984SOL    HW2 9009   0.138   0.403   2.336 -0.4148  0.2587 -0.0274
 2985SOL     OW 9010   4.419   1.408   0.756  0.0561 -0.0918 -0.0514
 2985SOL    HW1 9011   4.329   1.440   0.753  0.1106  0.4376  2.1711
 2985SOL    HW2 9012   4.421   1.348   0.830  1.7768  0.8665  0.7536
 2986SOL     OW 9013   3.097   2.804   1.902 -0.1177 -0.0778 -0.0961
 2986SOL    HW1 9014   3.092   2.895   1.934 -0.0432 -0.0466 -0.1709
 2986SOL    HW2 9015   3.020   2.761   1.938 -1.8571  0.7885 -2.5410
 2987SOL     OW 9016   1.207   3.381   4.705  0.3002  0.0980  0.1554
 2987SOL    HW1 9017   1.279   3.428   4.665  1.1789 -1.7822 -0.5869
 2987SOL    HW2 9018   1.249   3.313   4.758 -0.8867 -1.6498 -1.0449
 2988SOL     OW 9019   4.385   1.052   0.402 -0.4132 -0.4560  0.8530
 2988SOL    HW1 9020   4.471   1.091   0.416 -1.3913  1.1994  2.8317
 2988SOL    HW2 9021   4.393   0.963   0.435  0.6632 -0.5028  0.4938
 2989SOL     OW 9022   4.524   0.806   3.347  0.2769 -0.3442  0.3344
 2989SOL    HW1 9023   4.549   0.776   3.260  1.7790 -1.5161  1.1225
 2989SOL    HW2 9024   4.489   0.729   3.390 -0.4804  0.2341  0.7767
 2990SOL     OW 9025   0.155   3.519   2.620  0.7461 -0.6035 -0.2019
 2990SOL    HW1 9026   0.067   3.487   2.641  1.0750  0.2056  2.8110
 2990SOL    HW2 9027   0.214   3.458   2.664  1.4937  1.3825  1.7529
 2991SOL     OW 9028   3.421   0.024   0.261  0.0541  0.4684  0.9614
 2991SOL    HW1 9029   3.423   0.090   0.193  1.0042  0.8066  1.3081
 2991SOL    HW2 9030   3.495  -0.033   0.242  0.7635  0.9754  2.0877
 2992SOL     OW 9031   4.931   3.976   0.449  0.2073  0.0720 -0.0126
 2992SOL    HW1 9032   4.968   3.955   0.534  3.5951  0.8268 -1.1313
 2992SOL    HW2 9033   4.895   4.064   0.460  1.3589  0.5042  0.4988
 2993SOL     OW 9034   2.663   3.062   2.177  0.0675 -0.8284 -0.1815
 2993SOL    HW1 9035   2.601   2.994   2.149  0.0523 -1.2646  0.8654
 2993SOL    HW2 9036   2.647   3.071   2.271 -1.6929  2.3742 -0.6145
 2994SOL     OW 9037   3.629   3.924   4.233 -0.4986  0.8429  0.1320
 2994SOL    HW1 9038   3.719   3.938   4.204 -0.1854 -0.3419  0.4426
 2994SOL    HW2 9039   3.584   3.887   4.157 -0.1607 -0.5176  0.5650
 2995SOL     OW 9040   3.927   0.086   4.384  0.7952 -0.0636 -0.2044
 2995SOL    HW1 9041   3.938   0.038   4.302  0.8685  2.1095 -1.5552
 2995SOL    HW2 9042   3.832   0.098   4.392  0.8016 -0.0924 -0.0901
 2996SOL     OW 9043   4.443   2.228   2.414 -0.0378 -0.1845 -0.1698
 2996SOL    HW1 9044   4.350   2.237   2.394 -0.6060 -2.6529  1.0896
 2996SOL    HW2 9045   4.484   2.211   2.329 -0.6993  0.8538 -0.7230
 2997SOL     OW 9046   0.657   2.750   2.736  0.3789 -0.3557 -0.1175
 2997SOL    HW1 9047   0.744   2.711   2.748  1.1200  1.3207  0.2629
 2997SOL    HW2 9048   0.673   2.845   2.734 -1.4748  0.0067  0.1921
 2998SOL     OW 9049   0.989   3.995   2.869  0.0699  0.5978  0.4879
 2998SOL    HW1 9050   1.063   3.972   2.924 -0.8473 -1.3901  0.9649
 2998SOL    HW2 9051   0.934   4.050   2.925 -0.2785 -0.4222  1.1593
 2999SOL     OW 9052   4.947   4.979   0.443 -0.9755 -0.2081 -0.1823
 2999SOL    HW1 9053   4.947   4.895   0.396 -1.6513  0.1072 -0.7567
 2999SOL    HW2 9054   4.930   4.955   0.534  0.1100 -0.8056 -0.1223
 3000SOL     OW 9055   4.657   2.589   4.629  0.4404  0.3930 -0.0782
 3000SOL    HW1 9056   4.747   2.557   4.639 -0.4412 -1.9202  1.2743
 3000SOL    HW2 9057   4.666   2.683   4.617  2.9083  0.6635  2.8078
 3001SOL     OW 9058   1.898   2.719   0.751  0.5268 -0.0631 -0.1129
 3001SOL    HW1 9059   1.979   2.668   0.748  1.2333  1.0159  0.3439
 3001SOL    HW2 9060   1.911   2.782   0.821 -0.7313  0.1153 -0.0108
 3002SOL     OW 9061   4.244   3.725   3.150 -0.2558 -0.4208 -0.3135
 3002SOL    HW1 9062   4.250   3.820   3.158  0.6050 -0.3234 -1.6806
 3002SOL    HW2 9063   4.329   3.699   3.114  0.1049 -1.9091  1.4524
 3003SOL     OW 9064   4.107   2.904   2.840 -0.1502  0.3252 -0.0663
 3003SOL    HW1 9065   4.019   2.936   2.820 -0.4976  0.2810  1.2997
 3003SOL    HW2 9066   4.104   2.881   2.933  1.0728 -0.4511 -0.1925
 3004SOL     OW 9067   0.280   4.658   2.202  0.0312 -0.0367 -0.0691
 3004SOL    HW1 9068   0.337   4.609   2.143 -0.6931  0.3096 -1.0777
 3004SOL    HW2 9069   0.296   4.750   2.179  0.4804  0.1649  0.9715
 3005SOL     OW 9070   3.626   4.504   0.489 -0.1384  0.1269 -0.2667
 3005SOL    HW1 9071   3.563   4.435   0.507 -2.4260  2.1454 -0.0511
 3005SOL    HW2 9072   3.683   4.505   0.566 -1.2070 -0.3462  0.5549
 3006SOL     OW 9073   0.088   4.369   0.772 -0.0355 -0.1217  0.8060
 3006SOL    HW1 9074   0.021   4.359   0.839 -1.4812 -1.6479 -0.7677
 3006SOL    HW2 9075   0.144   4.292   0.781  0.7174  0.4713  1.2589
 3007SOL     OW 9076   0.914   1.991   2.533 -0.6230 -0.0067  0.2444
 3007SOL    HW1 9077   0.838   2.013   2.586  0.0488  1.9521  0.4681
 3007SOL    HW2 9078   0.985   1.979   2.596 -0.1962  0.6630 -0.0982
 3008SOL     OW 9079   0.771   2.190   2.025  0.2642 -0.3077 -0.2632
 3008SOL    HW1 9080   0.830   2.177   2.100  1.7321  3.2538 -0.6256
 3008SOL    HW2 9081   0.684   2.188   2.063  0.8503 -0.8617  1.1331
 3009SOL     OW 9082   0.109   0.320   2.733 -0.1445 -0.0144 -0.0817
 3009SOL    HW1 9083   0.181   0.308   2.671  1.0071  1.0894  1.0129
 3009SOL    HW2 9084   0.045   0.374   2.686  1.5077  2.3461  0.2218
 3010SOL     OW 9085   4.759   3.060   1.761  0.4915 -0.3708  0.5438
 3010SOL    HW1 9086   4.739   2.986   1.703  1.8638 -0.5839  0.3022
 3010SOL    HW2 9087   4.801   3.019   1.837 -1.0500 -0.0703  1.6117
 3011SOL     OW 9088   2.457   2.438   2.779  0.3927  0.6194  0.3416
 3011SOL    HW1 9089   2.461   2.343   2.789  0.3510  0.7000  1.2343
 3011SOL    HW2 9090   2.532   2.470   2.828 -0.8638  1.1537  1.9985
 3012SOL     OW 9091   4.594   2.088   2.807 -0.0000  0.1763  0.4367
 3012SOL    HW1 9092   4.617   2.085   2.900 -0.1584 -0.8585  0.4577
 3012SOL    HW2 9093   4.534   2.015   2.795  0.1253  0.2139 -0.5132
 3013SOL     OW 9094   2.972   3.917   0.608 -0.2231 -0.0205 -0.2189
 3013SOL    HW1 9095   3.036   3.987   0.618 -1.1699  0.9412 -0.6770
 3013SOL    HW2 9096   2.917   3.923   0.686  2.0686 -2.9147  1.8709
 3014SOL     OW 9097   0.590   1.018   0.513  0.0202  0.3885  0.0989
 3014SOL    HW1 9098   0.563   1.109   0.503  0.8134  0.5255 -1.0534
 3014SOL    HW2 9099   0.512   0.966   0.490 -0.5281  0.7550  1.0731
 3015SOL     OW 9100   3.564   0.225   2.303 -0.3261 -0.2940  0.2829
 3015SOL    HW1 9101   3.562   0.178   2.220 -0.9927 -0.4960  0.4023
 3015SOL    HW2 9102   3.489   0.190   2.352 -0.5035  0.4934  0.5924
 3016SOL     OW 9103   0.796   3.217   1.615 -0.1471  0.6488 -0.0832
 3016SOL    HW1 9104   0.705   3.246   1.610 -0.2780  0.2097 -0.3552
 3016SOL    HW2 9105   0.830   3.257   1.695 -0.9540 -0.2122  0.7156
 3017SOL     OW 9106   4.084   0.597   1.314  0.2861 -0.4504  0.2322
 3017SOL    HW1 9107   4.179   0.598   1.322  0.6151 -4.8777 -0.4683
 3017SOL    HW2 9108   4.053   0.581   1.403  0.1521  0.7150  0.4133
 3018SOL     OW 9109   2.552   1.603   0.271 -0.4862  0.3025  0.0363
 3018SOL    HW1 9110   2.586   1.680   0.316 -0.6247 -0.1820  0.9962
 3018SOL    HW2 9111   2.459   1.620   0.260 -0.8417 -0.4009  1.7192
 3019SOL     OW 9112   4.545   2.537   1.716  0.2099  0.5173 -0.0088
 3019SOL    HW1 9113   4.520   2.532   1.808 -1.4321  1.5845 -0.3715
 3019SOL    HW2 9114   4.505   2.460   1.676  2.1897 -0.8112  0.3804
 3020SOL     OW 9115   3.002   0.971   2.666  0.3827  0.9804  0.5514
 3020SOL    HW1 9116   2.915   0.949   2.701  0.2862  1.3435  0.5443
 3020SOL    HW2 9117   3.059   0.973   2.743  0.6891 -0.6754  0.3927
 3021SOL     OW 9118   2.046   1.075   4.772  0.2169  0.2313  0.0842
 3021SOL    HW1 9119   2.016   1.154   4.816  1.2675  1.7616 -1.7614
 3021SOL    HW2 9120   1.992   1.069   4.693  1.2272  0.0682 -0.6193
 3022SOL     OW 9121   1.158   2.038   3.475  0.7743  0.2395 -0.0291
 3022SOL    HW1 9122   1.120   1.985   3.405  0.7264  0.2088  0.0204
 3022SOL    HW2 9123   1.252   2.029   3.463  0.7908  1.3191 -0.9291
 3023SOL     OW 9124   4.204   3.982   1.293 -0.0445  0.1280  0.1492
 3023SOL    HW1 9125   4.135   3.916   1.298 -0.2560  0.0641 -2.2482
 3023SOL    HW2 9126   4.277   3.936   1.250  0.3410  1.0487 -0.2013
 3024SOL     OW 9127   4.565   1.668   2.726  0.3391 -0.3463  0.0302
 3024SOL    HW1 9128   4.653   1.639   2.705  0.2368 -0.9406  0.3927
 3024SOL    HW2 9129   4.512   1.588   2.725 -0.1327 -0.0442  0.1239
 3025SOL     OW 9130   1.640   4.905   2.382 -0.5217  0.1431  0.2957
 3025SOL    HW1 9131   1.691   4.856   2.447 -1.1434  0.8199  1.3087
 3025SOL    HW2 9132   1.700   4.974   2.352  0.0695 -0.7040 -0.5236
 3026SOL     OW 9133   1.518   4.157   0.209 -0.2979 -0.4614 -0.1879
 3026SOL    HW1 9134   1.543   4.078   0.257  0.2540 -0.3502 -0.2824
 3026SOL    HW2 9135   1.495   4.220   0.278  0.2080 -0.3958 -0.0739
 3027SOL     OW 9136   1.143   1.214   1.988  0.3401  0.1194  0.1989
 3027SOL    HW1 9137   1.057   1.254   1.998 -0.5697 -1.4392 -1.0028
 3027SOL    HW2 9138   1.172   1.198   2.078  0.7838  3.3505  0.7629
 3028SOL     OW 9139   4.350   0.369   3.746 -0.2920  0.4833  0.3884
 3028SOL    HW1 9140   4.438   0.352   3.779 -0.8441  2.0571  3.0174
 3028SOL    HW2 9141   4.312   0.429   3.811 -2.1749  2.5059 -2.3815
 3029SOL     OW 9142   3.173   3.123   1.649  0.0355  0.6783 -0.0275
 3029SOL    HW1 9143   3.252   3.112   1.703  0.3131  0.3440 -0.4902
 3029SOL    HW2 9144   3.202   3.179   1.577  0.2037 -0.4941 -0.9003
 3030SOL     OW 9145   4.665   0.310   1.326 -0.0788 -0.2876  0.8498
 3030SOL    HW1 9146   4.701   0.338   1.410  0.1123 -2.0789  1.4000
 3030SOL    HW2 9147   4.590   0.255   1.348  0.5360 -1.5669 -0.0765
 3031SOL     OW 9148   1.500   1.456   2.009 -0.0376  0.7196 -0.4725
 3031SOL    HW1 9149   1.527   1.369   2.037  1.1823  1.7381  1.7731
 3031SOL    HW2 9150   1.406   1.448   1.993 -0.1210 -0.7972  0.5758
 3032SOL     OW 9151   1.577   3.143   2.613 -0.5076  0.1075 -0.4607
 3032SOL    HW1 9152   1.574   3.130   2.518 -1.1216  2.2926 -0.7979
 3032SOL    HW2 9153   1.548   3.234   2.626  1.3906  0.5003  1.6875
 3033SOL     OW 9154   4.679   1.736   3.593  0.0580  0.2857 -0.1993
 3033SOL    HW1 9155   4.742   1.788   3.642  0.5218 -0.9222  0.5450
 3033SOL    HW2 9156   4.602   1.792   3.585  0.6109  1.1516  0.3790
 3034SOL     OW 9157   1.592   4.726   1.506  0.5529  0.0542 -0.2929
 3034SOL    HW1 9158   1.682   4.694   1.516  1.1285  1.9674  1.4051
 3034SOL    HW2 9159   1.595   4.780   1.428  0.8279 -0.0603 -0.3638
 3035SOL     OW 9160   2.112   4.266   3.164 -0.0683  0.1187 -0.5367
 3035SOL    HW1 9161   2.118   4.189   3.221  0.0428  1.3243  1.1604
 3035SOL    HW2 9162   2.019   4.275   3.143 -0.1681 -0.0733 -0.1694
 3036SOL     OW 9163   1.093   2.902   4.000  0.1027 -0.0072 -0.4491
 3036SOL    HW1 9164   1.016   2.934   4.047  1.8627  0.4098  2.3860
 3036SOL    HW2 9165   1.140   2.981   3.974  1.4975 -0.1625  1.3744
 3037SOL     OW 9166   3.594   0.919   3.997 -0.3082  0.1173 -0.2570
 3037SOL    HW1 9167   3.688   0.937   3.994 -0.3318  0.1810 -0.7764
 3037SOL    HW2 9168   3.577   0.868   3.917 -0.4220 -1.3274  0.6550
 3038SOL     OW 9169   4.177   1.014   2.456 -0.0336  0.6224  0.6251
 3038SOL    HW1 9170   4.099   0.980   2.412  0.2953  2.2308 -1.3175
 3038SOL    HW2 9171   4.249   0.962   2.421  0.3623  2.5785 -1.7005
 3039SOL     OW 9172   4.470   1.894   3.546  0.2452  0.0504  0.9870
 3039SOL    HW1 9173   4.426   1.852   3.620 -0.0436 -1.3176  0.0872
 3039SOL    HW2 9174   4.455   1.987   3.558  0.5076 -0.1076  2.8366
 3040SOL     OW 9175   2.325   1.839   1.837  0.0941  0.1529  0.5458
 3040SOL    HW1 9176   2.268   1.767   1.864 -2.5311  1.4617 -1.0730
 3040SOL    HW2 9177   2.405   1.796   1.808 -0.1543 -1.8288  2.5253
 3041SOL     OW 9178   1.752   4.339   3.084 -0.4449  0.0275  0.6012
 3041SOL    HW1 9179   1.672   4.286   3.088  0.1225 -0.8594  0.5103
 3041SOL    HW2 9180   1.819   4.279   3.051 -0.0750  1.1676 -0.8282
 3042SOL     OW 9181   3.243   1.558   0.972 -0.4455 -0.0582 -0.0572
 3042SOL    HW1 9182   3.309   1.552   0.903 -0.2258 -0.1231  0.1572
 3042SOL    HW2 9183   3.231   1.651   0.987  0.5077 -0.0482  0.7639
 3043SOL     OW 9184   2.575   4.758   3.608  0.4278  0.1107 -0.3140
 3043SOL    HW1 9185   2.614   4.840   3.575 -2.1226  1.3430 -0.4679
 3043SOL    HW2 9186   2.566   4.772   3.702  0.4480 -0.2209 -0.2610
 3044SOL     OW 9187   0.517   1.255   3.339 -0.6720 -0.2069  0.1434
 3044SOL    HW1 9188   0.518   1.209   3.255  0.2905  0.2125 -0.0874
 3044SOL    HW2 9189   0.436   1.225   3.381  0.0515 -2.3828  0.1450
 3045SOL     OW 9190   2.807   2.327   3.035 -0.0482 -0.4303 -0.7295
 3045SOL    HW1 9191   2.739   2.262   3.055  1.2608 -1.9916 -1.1275
 3045SOL    HW2 9192   2.758   2.406   3.012 -1.6971 -1.1124  0.2264
 3046SOL     OW 9193   3.480   1.033   3.343  0.3279  0.7967  0.1780
 3046SOL    HW1 9194   3.468   1.038   3.248 -0.6954 -3.8563 -0.2072
 3046SOL    HW2 9195   3.391   1.042   3.378  0.5952  1.6459  0.6661
 3047SOL     OW 9196   0.587   3.816   2.367 -0.1882 -0.3576  0.1158
 3047SOL    HW1 9197   0.493   3.835   2.370 -0.0946  0.0199  0.9441
 3047SOL    HW2 9198   0.629   3.895   2.402  0.4804 -0.2763 -0.8169
 3048SOL     OW 9199   1.240   0.700   2.408  0.5047  0.9685 -0.5396
 3048SOL    HW1 9200   1.201   0.648   2.478  0.9969 -0.5693 -1.3632
 3048SOL    HW2 9201   1.263   0.637   2.341  0.2014  2.3856 -2.0423
 3049SOL     OW 9202   4.242   4.096   0.290 -0.7044 -0.4902  0.4861
 3049SOL    HW1 9203   4.199   4.122   0.372 -1.8837 -0.0845 -0.2347
 3049SOL    HW2 9204   4.194   4.144   0.222  0.3882 -0.6591 -0.4296
 3050SOL     OW 9205   0.711   4.430   2.950 -0.7758  0.1626 -0.1745
 3050SOL    HW1 9206   0.767   4.401   3.022 -1.8413  1.0098  1.0477
 3050SOL    HW2 9207   0.771   4.446   2.878  0.5674  0.9440  1.0585
 3051SOL     OW 9208   2.507   4.831   3.874 -0.1319  0.6532 -0.1253
 3051SOL    HW1 9209   2.429   4.847   3.927 -1.1233 -1.6822 -0.7478
 3051SOL    HW2 9210   2.572   4.800   3.938 -1.0363 -1.2629 -0.0388
 3052SOL     OW 9211   1.634   2.480   2.315 -0.1358 -0.1264 -0.3963
 3052SOL    HW1 9212   1.724   2.509   2.301  0.4986 -0.9648  1.5983
 3052SOL    HW2 9213   1.632   2.391   2.281  0.0554 -0.4283  0.3670
 3053SOL     OW 9214   3.108   1.010   4.915  0.2553 -0.3542 -0.2203
 3053SOL    HW1 9215   3.138   1.098   4.892 -0.8540  0.1215  0.1035
 3053SOL    HW2 9216   3.175   0.977   4.975  0.5611  0.3484 -0.1637
 3054SOL     OW 9217   0.207   2.743   1.310  0.1766  0.0460 -0.3395
 3054SOL    HW1 9218   0.285   2.711   1.357  0.3204  1.1119  0.1756
 3054SOL    HW2 9219   0.240   2.772   1.225  0.1456 -0.5645 -0.5665
 3055SOL     OW 9220   3.367   2.845   1.920 -0.2795  0.2704 -0.0233
 3055SOL    HW1 9221   3.281   2.806   1.907  0.8057 -2.4649  0.3293
 3055SOL    HW2 9222   3.358   2.899   1.999 -1.5423 -0.3093  0.2456
 3056SOL     OW 9223   4.390   2.634   4.708  0.3632  0.5694  0.9961
 3056SOL    HW1 9224   4.336   2.649   4.631  1.0982  1.4661  0.6315
 3056SOL    HW2 9225   4.468   2.590   4.674 -0.0829 -0.6762  1.5100
 3057SOL     OW 9226   4.901   0.767   3.227 -0.1022 -0.2060 -0.7745
 3057SOL    HW1 9227   4.829   0.830   3.230 -1.2924 -1.5539 -0.0752
 3057SOL    HW2 9228   4.976   0.816   3.260  0.2343  2.2938 -4.5971
 3058SOL     OW 9229   3.175   3.405   4.971  0.0980 -0.2957 -0.0399
 3058SOL    HW1 9230   3.085   3.372   4.975  0.3849 -1.7517 -2.9261
 3058SOL    HW2 9231   3.202   3.390   4.880  3.5976 -0.7992  0.9404
 3059SOL     OW 9232   0.507   1.620   1.901 -0.2178 -0.1201 -0.1402
 3059SOL    HW1 9233   0.413   1.634   1.914 -0.1674  0.5371 -0.4545
 3059SOL    HW2 9234   0.546   1.705   1.919  0.6216 -0.9671  2.6535
 3060SOL     OW 9235   4.049   4.247   2.198 -0.7418  0.3277 -0.3863
 3060SOL    HW1 9236   4.045   4.165   2.149 -2.8410  0.5592 -0.7025
 3060SOL    HW2 9237   4.112   4.301   2.150 -1.2330 -0.1857 -1.6486
 3061SOL     OW 9238   2.593   0.088   0.771 -0.0154  0.2126 -0.2466
 3061SOL    HW1 9239   2.626   0.158   0.715  1.8108  0.7823  1.4402
 3061SOL    HW2 9240   2.500   0.083   0.751  0.2195  1.6739 -1.9304
 3062SOL     OW 9241   4.244   0.427   2.490  0.3857  0.3348  0.4869
 3062SOL    HW1 9242   4.257   0.406   2.397  0.5181 -4.1151  1.2799
 3062SOL    HW2 9243   4.155   0.463   2.494  0.0152 -0.2531 -1.2718
 3063SOL     OW 9244   3.933   2.944   1.491 -0.1854  0.2683 -1.0544
 3063SOL    HW1 9245   3.997   3.007   1.459  0.0013 -0.4284 -2.0957
 3063SOL    HW2 9246   3.890   2.911   1.413  0.0203 -1.2073 -0.5881
 3064SOL     OW 9247   3.329   0.769   3.756 -0.4964  0.4850 -0.1970
 3064SOL    HW1 9248   3.299   0.741   3.669  0.1691  0.5382 -0.4467
 3064SOL    HW2 9249   3.424   0.757   3.754 -0.4754  0.4836  0.5284
 3065SOL     OW 9250   1.051   1.681   3.851  0.9004 -0.3028  0.2690
 3065SOL    HW1 9251   1.036   1.594   3.888  2.4363 -0.6316  0.1809
 3065SOL    HW2 9252   1.113   1.666   3.779 -0.0511  0.6596 -0.7817
 3066SOL     OW 9253   4.792   3.780   1.753 -0.0189  0.0972  0.6839
 3066SOL    HW1 9254   4.775   3.747   1.841 -0.9730  0.3383  0.6040
 3066SOL    HW2 9255   4.755   3.714   1.695  0.7874 -0.1585  0.4591
 3067SOL     OW 9256   0.941   4.888   4.965  0.1174  0.2242 -0.2230
 3067SOL    HW1 9257   0.970   4.977   4.943  0.6311 -0.2896 -1.8139
 3067SOL    HW2 9258   0.857   4.900   5.008  0.1204  1.4858 -0.5328
 3068SOL     OW 9259   0.751   2.227   0.665 -0.0309  0.3454 -0.1093
 3068SOL    HW1 9260   0.719   2.291   0.728  1.0995  1.4469 -0.6177
 3068SOL    HW2 9261   0.762   2.146   0.716  1.6291  1.4146  1.3429
 3069SOL     OW 9262   3.931   2.158   0.446 -0.0038 -0.4470  0.3475
 3069SOL    HW1 9263   3.927   2.159   0.350  0.0190 -1.7080  0.3186
 3069SOL    HW2 9264   3.850   2.201   0.473 -0.7484 -1.4007 -0.2583
 3070SOL     OW 9265   1.484   3.589   2.157 -0.1146 -0.2695 -0.0225
 3070SOL    HW1 9266   1.403   3.539   2.146  0.7201 -1.4121 -1.2879
 3070SOL    HW2 9267   1.552   3.534   2.118  1.3035  0.6121  1.1114
 3071SOL     OW 9268   1.070   4.866   1.686  0.4509 -0.2176  0.1753
 3071SOL    HW1 9269   1.156   4.859   1.729  0.9642 -2.4628 -1.0419
 3071SOL    HW2 9270   1.090   4.862   1.592 -0.7731  2.8205 -0.3442
 3072SOL     OW 9271   2.579   1.595   4.266  0.3031 -0.5767 -0.9965
 3072SOL    HW1 9272   2.587   1.690   4.281 -0.4074 -0.6386 -0.1525
 3072SOL    HW2 9273   2.580   1.557   4.354 -1.6489 -1.1687 -1.1930
 3073SOL     OW 9274   1.984   3.201   4.287 -0.2394 -0.4250  0.2821
 3073SOL    HW1 9275   1.970   3.120   4.237  3.4708 -0.5451 -0.9138
 3073SOL    HW2 9276   2.011   3.171   4.374  2.3942 -0.6612 -0.5329
 3074SOL     OW 9277   2.621   3.327   1.313 -0.2686  0.1069 -0.5969
 3074SOL    HW1 9278   2.532   3.313   1.346  0.0766  0.4714  0.5432
 3074SOL    HW2 9279   2.610   3.383   1.236 -0.9185  1.7546  0.6239
 3075SOL     OW 9280   3.620   3.628   4.886 -1.2091 -0.5182  0.3090
 3075SOL    HW1 9281   3.586   3.639   4.975 -0.0957  1.7886  0.5269
 3075SOL    HW2 9282   3.654   3.715   4.862  1.4486 -1.8049 -1.1046
 3076SOL     OW 9283   0.419   1.055   2.836  0.0303 -0.2066 -0.2515
 3076SOL    HW1 9284   0.402   1.132   2.781 -1.2598 -1.0712 -1.1284
 3076SOL    HW2 9285   0.467   0.995   2.779  0.6994 -0.2106  0.3097
 3077SOL     OW 9286   3.496   0.145   2.974  0.3852 -0.0912 -0.0252
 3077SOL    HW1 9287   3.484   0.224   3.027  0.4030  0.0103 -0.1745
 3077SOL    HW2 9288   3.407   0.115   2.956  0.3812 -0.5297  0.6691
 3078SOL     OW 9289   1.444   1.507   0.563  0.3578 -0.5261  1.0125
 3078SOL    HW1 9290   1.426   1.472   0.476  0.7553 -0.8045  1.0374
 3078SOL    HW2 9291   1.384   1.580   0.573  0.4416 -0.3769  0.4276
 3079SOL     OW 9292   4.047   4.319   1.904 -0.8625 -0.7848 -0.8621
 3079SOL    HW1 9293   3.954   4.299   1.896 -1.0686  0.4794 -1.8838
 3079SOL    HW2 9294   4.091   4.255   1.847 -1.0670 -1.5238 -0.2090
 3080SOL     OW 9295   4.936   3.810   0.831  0.0964 -0.5342  0.4535
 3080SOL    HW1 9296   4.878   3.773   0.898 -0.4113  0.0801  0.3620
 3080SOL    HW2 9297   5.008   3.849   0.880 -0.4525  0.2194  0.6630
 3081SOL     OW 9298   1.751   4.821   0.475 -0.0151 -0.1287 -0.2709
 3081SOL    HW1 9299   1.784   4.910   0.486 -0.2080 -0.1129  0.2227
 3081SOL    HW2 9300   1.730   4.815   0.382  1.0641 -0.0408 -0.5306
 3082SOL     OW 9301   3.210   4.510   2.834  0.2840  0.5175 -0.5275
 3082SOL    HW1 9302   3.210   4.568   2.758  1.2791  2.1488  0.6639
 3082SOL    HW2 9303   3.302   4.500   2.858  0.0219 -0.3484  0.2006
 3083SOL     OW 9304   1.405   0.263   1.484 -0.1804 -0.5049 -0.2341
 3083SOL    HW1 9305   1.423   0.357   1.480 -1.0600 -0.2860  0.5955
 3083SOL    HW2 9306   1.418   0.239   1.575 -0.4473 -1.0878 -0.3413
 3084SOL     OW 9307   4.140   1.951   4.982 -0.0254  0.4529  0.4048
 3084SOL    HW1 9308   4.201   1.879   4.965 -0.2750  0.4126 -0.3703
 3084SOL    HW2 9309   4.193   2.030   4.973 -0.5840  0.5631 -2.9498
 3085SOL     OW 9310   2.477   3.370   3.490 -0.5922 -0.1117  0.3963
 3085SOL    HW1 9311   2.404   3.415   3.449  0.3440  0.5834 -0.5700
 3085SOL    HW2 9312   2.442   3.338   3.574 -2.1207 -0.2358 -0.2542
 3086SOL     OW 9313   4.878   1.277   0.906  0.2856 -0.2410 -0.1137
 3086SOL    HW1 9314   4.886   1.350   0.968  1.2582 -0.5441  0.1404
 3086SOL    HW2 9315   4.824   1.212   0.952  0.6588 -0.2924  0.2543
 3087SOL     OW 9316   0.093   1.769   1.715 -0.3100 -0.1447 -0.0762
 3087SOL    HW1 9317   0.156   1.767   1.787 -0.5468 -0.6124  0.1234
 3087SOL    HW2 9318   0.111   1.851   1.669 -0.3055  0.2622  0.6477
 3088SOL     OW 9319   2.661   0.509   0.280 -0.0631 -0.2722 -0.7091
 3088SOL    HW1 9320   2.615   0.585   0.315 -0.3262 -0.7433 -0.0227
 3088SOL    HW2 9321   2.724   0.486   0.348  0.8570  0.0603 -1.4226
 3089SOL     OW 9322   3.738   3.361   3.226  0.0762  0.5845 -0.0579
 3089SOL    HW1 9323   3.677   3.387   3.294  1.3067  0.5029  1.1243
 3089SOL    HW2 9324   3.818   3.409   3.246  0.5575  0.3285 -1.2776
 3090SOL     OW 9325   1.523   2.753   4.173  0.5372  0.1837 -0.0667
 3090SOL    HW1 9326   1.615   2.773   4.190  0.5097 -0.1934  0.5429
 3090SOL    HW2 9327   1.509   2.782   4.083  1.4109 -0.2990 -0.3686
 3091SOL     OW 9328   1.569   4.717   1.793 -0.0146 -0.1193  0.6930
 3091SOL    HW1 9329   1.594   4.697   1.703 -0.4587 -0.8290  0.7133
 3091SOL    HW2 9330   1.552   4.631   1.832 -0.5301  0.2219  1.2352
 3092SOL     OW 9331   4.695   2.571   4.134 -0.2727 -0.0651 -0.7112
 3092SOL    HW1 9332   4.615   2.622   4.123 -0.9259 -0.5933  1.2433
 3092SOL    HW2 9333   4.671   2.500   4.193  1.5456 -0.4637 -0.3764
 3093SOL     OW 9334   1.139   0.911   1.828  0.1627 -0.1384  0.5365
 3093SOL    HW1 9335   1.135   1.006   1.840 -1.6223  0.3908 -2.9935
 3093SOL    HW2 9336   1.060   0.878   1.871 -0.0776  0.1798  0.3430
 3094SOL     OW 9337   2.184   2.707   4.005  0.4773 -0.3834  0.8420
 3094SOL    HW1 9338   2.186   2.619   4.044  1.6276 -0.0549  1.5823
 3094SOL    HW2 9339   2.105   2.708   3.952  2.0250 -3.0640 -1.8994
 3095SOL     OW 9340   1.917   2.539   2.268 -0.5553 -0.0448  0.2571
 3095SOL    HW1 9341   1.985   2.575   2.211 -0.0021 -0.3729  0.7056
 3095SOL    HW2 9342   1.957   2.536   2.355 -1.5329  0.8732  0.7716
 3096SOL     OW 9343   3.110   0.734   0.665 -0.0356  0.0565  0.0328
 3096SOL    HW1 9344   3.117   0.650   0.710  2.1273 -0.5586 -1.2409
 3096SOL    HW2 9345   3.062   0.790   0.725 -1.4862 -2.0469  0.9634
 3097SOL     OW 9346   3.769   3.363   4.666 -0.5830  0.3468 -0.3037
 3097SOL    HW1 9347   3.844   3.347   4.723 -1.4692  0.2493  0.8683
 3097SOL    HW2 9348   3.759   3.282   4.617  0.3989  0.5538 -0.8737
 3098SOL     OW 9349   3.940   1.312   0.351  0.4345  0.1975 -0.2556
 3098SOL    HW1 9350   3.934   1.380   0.283  0.0409  0.2633 -0.1615
 3098SOL    HW2 9351   3.876   1.339   0.417 -0.2291 -0.6190 -0.5436
 3099SOL     OW 9352   1.850   1.349   4.697 -0.6547 -0.3676 -0.0645
 3099SOL    HW1 9353   1.910   1.339   4.770 -1.2098  0.0539  0.4584
 3099SOL    HW2 9354   1.763   1.332   4.735 -0.8779 -0.9412 -0.7956
 3100SOL     OW 9355   2.969   2.377   0.496  0.5432  0.0200  0.4891
 3100SOL    HW1 9356   2.948   2.456   0.446 -2.7890 -0.1181  1.4356
 3100SOL    HW2 9357   2.955   2.305   0.434  0.8881  0.0452  0.3808
 3101SOL     OW 9358   2.521   1.161   1.428 -0.3553  0.0106 -0.0560
 3101SOL    HW1 9359   2.464   1.133   1.499 -1.1273 -1.2555 -1.1251
 3101SOL    HW2 9360   2.465   1.213   1.371  0.7059  2.6272  1.1405
 3102SOL     OW 9361   0.522   3.533   3.378 -0.1930  0.4266  0.4376
 3102SOL    HW1 9362   0.442   3.568   3.418 -0.0416  1.4849 -0.1561
 3102SOL    HW2 9363   0.593   3.573   3.429  0.0050  1.8847 -0.9290
 3103SOL     OW 9364   1.837   2.954   4.965  0.5633  0.4729 -0.0254
 3103SOL    HW1 9365   1.829   3.040   4.922  0.3409  1.5327  2.0259
 3103SOL    HW2 9366   1.911   2.964   5.024  0.8568 -0.9394 -0.1313
 3104SOL     OW 9367   4.173   0.723   4.064  0.4240  0.2284  0.3972
 3104SOL    HW1 9368   4.188   0.780   3.989 -1.0992 -1.4815 -1.3349
 3104SOL    HW2 9369   4.099   0.667   4.037  1.3324 -2.0422  2.2481
 3105SOL     OW 9370   3.156   4.972   3.200 -0.6000  0.3375 -0.0272
 3105SOL    HW1 9371   3.168   5.060   3.236 -1.1435  0.6628 -0.6184
 3105SOL    HW2 9372   3.234   4.924   3.228 -0.3316  0.9814  0.3630
 3106SOL     OW 9373   1.097   2.427   4.129  0.1472  0.0905 -0.3033
 3106SOL    HW1 9374   1.008   2.427   4.094 -0.0363  2.1148  0.0236
 3106SOL    HW2 9375   1.150   2.462   4.058  0.1818  1.6745  0.4448
 3107SOL     OW 9376   0.752   1.300   3.880  0.8550 -0.2472 -0.0464
 3107SOL    HW1 9377   0.664   1.266   3.866  0.0800  1.8324 -0.4904
 3107SOL    HW2 9378   0.808   1.245   3.825 -0.0663 -1.8845  0.5792
 3108SOL     OW 9379   0.968   0.646   2.172 -0.3322  0.0028 -0.5680
 3108SOL    HW1 9380   0.961   0.716   2.236  1.3857  0.3404 -0.7060
 3108SOL    HW2 9381   0.976   0.566   2.224 -1.8584 -0.0846 -0.4118
 3109SOL     OW 9382   1.828   1.644   3.040  0.3725 -0.1805 -0.3896
 3109SOL    HW1 9383   1.736   1.645   3.064 -0.0694  0.9853 -1.9716
 3109SOL    HW2 9384   1.874   1.662   3.122 -0.8246 -0.1907  0.3079
 3110SOL     OW 9385   4.435   3.340   4.220 -0.1898 -0.0686 -0.6644
 3110SOL    HW1 9386   4.394   3.422   4.248 -2.9158 -1.9991  1.6543
 3110SOL    HW2 9387   4.528   3.353   4.239 -0.5247  2.4437 -0.3055
 3111SOL     OW 9388   0.181   1.082   3.315  0.1098  0.7815  0.5468
 3111SOL    HW1 9389   0.230   1.116   3.390 -1.5532  1.5344  1.3623
 3111SOL    HW2 9390   0.205   0.990   3.309  2.2163  1.2971  0.3756
 3112SOL     OW 9391   0.421   0.255   3.984 -0.1040  0.6196  0.0135
 3112SOL    HW1 9392   0.396   0.163   3.975 -1.1274  0.8180  0.5932
 3112SOL    HW2 9393   0.515   0.254   3.998 -0.0998 -0.3372 -0.0590
 3113SOL     OW 9394   4.229   1.488   3.172 -0.3782  0.2068  0.3205
 3113SOL    HW1 9395   4.244   1.483   3.266 -0.0999  1.2406  0.3395
 3113SOL    HW2 9396   4.306   1.446   3.133 -1.3813 -2.0065  0.5534
 3114SOL     OW 9397   1.936   1.928   1.842  0.1852 -0.3032  0.3546
 3114SOL    HW1 9398   1.991   1.938   1.919 -0.8999  0.8123  1.0286
 3114SOL    HW2 9399   1.863   1.989   1.856 -0.4829 -0.6913 -1.1555
 3115SOL     OW 9400   2.073   0.814   2.411  0.0164  0.3145 -0.0900
 3115SOL    HW1 9401   2.149   0.850   2.365 -0.7702  0.8865 -0.9971
 3115SOL    HW2 9402   1.999   0.867   2.380 -0.7497 -0.2141  0.7796
 3116SOL     OW 9403   4.887   0.465   2.612 -0.2887  0.1754 -0.1202
 3116SOL    HW1 9404   4.815   0.471   2.673  0.3349 -2.0300  0.9219
 3116SOL    HW2 9405   4.846   0.464   2.525 -1.7843 -2.9676  0.4776
 3117SOL     OW 9406   3.303   4.197   4.340 -0.4158 -0.3178 -0.9191
 3117SOL    HW1 9407   3.366   4.188   4.269  1.5924  1.2272  0.5483
 3117SOL    HW2 9408   3.338   4.141   4.410 -0.1419  1.2047  0.2136
 3118SOL     OW 9409   3.805   4.582   1.031  0.4939 -0.1701  0.1013
 3118SOL    HW1 9410   3.855   4.634   1.094  1.3117 -1.2227  0.3454
 3118SOL    HW2 9411   3.780   4.504   1.080  0.4852 -0.6502 -0.6611
 3119SOL     OW 9412   1.960   0.985   0.675  0.8895 -0.3372  0.1237
 3119SOL    HW1 9413   2.034   1.038   0.705  1.2621  1.2150 -3.1054
 3119SOL    HW2 9414   1.891   1.048   0.655 -0.4741 -1.5531  0.7910
 3120SOL     OW 9415   3.769   1.227   1.108  0.2200 -0.0829  0.0856
 3120SOL    HW1 9416   3.750   1.133   1.100 -1.0106  0.1955 -0.4533
 3120SOL    HW2 9417   3.699   1.270   1.060  1.3926  1.0917 -0.6542
 3121SOL     OW 9418   3.063   0.510   4.164  1.0013 -0.1192 -0.3538
 3121SOL    HW1 9419   3.078   0.583   4.104 -0.3638 -0.1678 -0.7966
 3121SOL    HW2 9420   3.091   0.542   4.249  1.0572  0.6874 -0.6729
 3122SOL     OW 9421   1.489   1.268   2.355  0.1451 -0.6951 -0.0531
 3122SOL    HW1 9422   1.493   1.248   2.262  0.7116 -1.4621  0.1169
 3122SOL    HW2 9423   1.463   1.185   2.396 -2.2946  0.1779  0.3059
 3123SOL     OW 9424   2.157   0.353   2.235  0.0221  0.1337 -0.0020
 3123SOL    HW1 9425   2.081   0.410   2.223 -0.1478 -0.4670 -2.3267
 3123SOL    HW2 9426   2.211   0.398   2.299 -1.8171  1.0606  0.9890
 3124SOL     OW 9427   0.164   4.656   3.021  0.5474 -0.0566 -0.5123
 3124SOL    HW1 9428   0.229   4.659   2.951  0.2874  1.7496 -0.7040
 3124SOL    HW2 9429   0.196   4.719   3.086 -0.8375  0.6128 -0.4638
 3125SOL     OW 9430   2.790   4.952   2.293 -0.4732 -0.1784 -0.3752
 3125SOL    HW1 9431   2.826   4.985   2.375  0.0378 -1.4649 -0.0512
 3125SOL    HW2 9432   2.845   4.991   2.225  0.7454 -1.0952  0.0480
 3126SOL     OW 9433   0.370   2.450   0.393 -0.0357  0.2324  0.3709
 3126SOL    HW1 9434   0.362   2.420   0.484  0.7103 -0.7108  0.1433
 3126SOL    HW2 9435   0.382   2.544   0.400 -0.0359  0.1777  1.2564
 3127SOL     OW 9436   3.149   2.546   0.889 -0.4310  0.0833 -0.1566
 3127SOL    HW1 9437   3.110   2.463   0.860 -1.5976 -0.0570  1.6794
 3127SOL    HW2 9438   3.136   2.606   0.816 -0.4217 -1.0914 -1.1476
 3128SOL     OW 9439   1.574   2.436   2.857 -0.1851 -0.3908  0.3709
 3128SOL    HW1 9440   1.572   2.420   2.763  0.8183  0.2257  0.2266
 3128SOL    HW2 9441   1.555   2.352   2.897 -1.1605 -0.5460 -0.3806
 3129SOL     OW 9442   1.265   3.844   1.742  0.1468  0.4734 -0.1616
 3129SOL    HW1 9443   1.295   3.772   1.686  1.0020  0.6845 -0.0030
 3129SOL    HW2 9444   1.281   3.923   1.690  1.1422  0.6894  0.4235
 3130SOL     OW 9445   4.629   3.558   1.618 -0.1691  0.0733 -0.6088
 3130SOL    HW1 9446   4.620   3.591   1.528 -1.4047 -2.7963 -1.6552
 3130SOL    HW2 9447   4.551   3.505   1.632  1.3972 -1.9651  1.0651
 3131SOL     OW 9448   0.895   2.616   2.895 -0.2504  0.3098 -0.3025
 3131SOL    HW1 9449   0.810   2.627   2.938 -0.4145 -1.8970  0.0964
 3131SOL    HW2 9450   0.910   2.521   2.897  1.9551  0.5894 -0.9038
 3132SOL     OW 9451   2.289   1.641   0.185  0.3239  0.2499  0.6753
 3132SOL    HW1 9452   2.214   1.608   0.235  0.3338  0.8599  1.0968
 3132SOL    HW2 9453   2.271   1.613   0.095 -0.8115  1.0624  0.6287
 3133SOL     OW 9454   1.692   4.249   4.396  0.3229 -0.2407  0.3365
 3133SOL    HW1 9455   1.699   4.308   4.471  0.5213  0.1192  0.0389
 3133SOL    HW2 9456   1.604   4.266   4.361 -0.2156 -1.2361  1.1629
 3134SOL     OW 9457   1.209   1.051   3.264  0.1291  0.1779  0.1619
 3134SOL    HW1 9458   1.168   0.983   3.212  1.3673 -0.8559  0.4680
 3134SOL    HW2 9459   1.152   1.127   3.255  0.6547  0.3300 -3.3264
 3135SOL     OW 9460   1.592   0.155   3.325  0.3944  0.1527  0.4364
 3135SOL    HW1 9461   1.677   0.198   3.312  0.2669  0.1762 -0.3522
 3135SOL    HW2 9462   1.613   0.061   3.323  0.3681  0.1517 -0.0792
 3136SOL     OW 9463   4.051   0.949   2.722 -0.0732 -0.2160  0.3008
 3136SOL    HW1 9464   3.976   0.935   2.664  0.5351  0.8437 -0.7815
 3136SOL    HW2 9465   4.123   0.972   2.663  1.0222 -0.8783  1.3492
 3137SOL     OW 9466   4.010   3.311   4.792 -0.4688 -0.0262  0.0510
 3137SOL    HW1 9467   4.079   3.300   4.727 -0.7379  1.5309 -0.5435
 3137SOL    HW2 9468   4.025   3.241   4.855  1.4656  0.0904 -0.2174
 3138SOL     OW 9469   3.409   4.216   1.492  0.3451  0.0025  0.3503
 3138SOL    HW1 9470   3.369   4.151   1.434  2.7134 -2.0934  0.8587
 3138SOL    HW2 9471   3.503   4.204   1.479  0.9936 -0.2084  4.1466
 3139SOL     OW 9472   0.278   3.439   1.986 -0.1966  0.0050  0.1386
 3139SOL    HW1 9473   0.293   3.348   1.962 -0.0420 -0.5751  2.2795
 3139SOL    HW2 9474   0.347   3.487   1.939  2.2627 -1.4702  1.9701
 3140SOL     OW 9475   3.442   2.262   0.926  0.6083 -0.6785 -0.1117
 3140SOL    HW1 9476   3.521   2.222   0.963  0.6498  0.2209  0.8530
 3140SOL    HW2 9477   3.431   2.342   0.977 -0.6344 -0.5258 -0.5923
 3141SOL     OW 9478   0.668   1.896   2.369 -0.2335 -0.1957 -0.5077
 3141SOL    HW1 9479   0.753   1.865   2.400 -0.4979 -0.1160  0.3229
 3141SOL    HW2 9480   0.689   1.953   2.295  0.3523 -1.1597 -1.1149
 3142SOL     OW 9481   1.053   0.552   1.279 -0.2525 -0.0480 -0.2853
 3142SOL    HW1 9482   0.985   0.485   1.285 -0.7468  0.5015  0.3760
 3142SOL    HW2 9483   1.010   0.626   1.234  0.0254  0.1514 -0.2243
 3143SOL     OW 9484   4.590   2.895   0.617 -0.3467 -0.5432 -0.1698
 3143SOL    HW1 9485   4.640   2.958   0.565 -1.9326 -1.6685 -3.2968
 3143SOL    HW2 9486   4.512   2.944   0.645 -0.6681 -0.5875 -0.9745
 3144SOL     OW 9487   3.959   3.505   2.653  0.3507 -0.0027 -0.2588
 3144SOL    HW1 9488   4.005   3.585   2.679 -0.4050  0.7214 -1.1107
 3144SOL    HW2 9489   3.962   3.449   2.731 -1.6272  1.9910  1.3643
 3145SOL     OW 9490   2.245   1.084   2.442 -0.3204  0.0339  0.0152
 3145SOL    HW1 9491   2.239   1.180   2.438 -0.5159  0.1958  2.7304
 3145SOL    HW2 9492   2.315   1.067   2.505  0.7858 -1.6686 -1.5792
 3146SOL     OW 9493   4.617   4.314   3.037 -0.1016  0.1018  0.8416
 3146SOL    HW1 9494   4.666   4.373   3.095  1.8637  0.4342 -1.0434
 3146SOL    HW2 9495   4.530   4.353   3.032 -0.4492 -0.0776  3.7024
 3147SOL     OW 9496   2.361   4.514   0.900 -0.4542  0.4745 -0.2095
 3147SOL    HW1 9497   2.349   4.434   0.951 -0.1640  0.3234 -0.3841
 3147SOL    HW2 9498   2.285   4.568   0.924  0.1585  0.7936  1.1174
 3148SOL     OW 9499   3.830   1.706   3.668 -0.7818  0.0909 -0.8472
 3148SOL    HW1 9500   3.741   1.715   3.701 -0.7098  0.7967 -0.8301
 3148SOL    HW2 9501   3.832   1.619   3.629 -0.6084 -1.2119  1.8104
 3149SOL     OW 9502   4.915   3.323   0.182 -0.2301  0.0379 -0.0028
 3149SOL    HW1 9503   4.939   3.231   0.189  1.5698  0.1396 -2.9190
 3149SOL    HW2 9504   4.982   3.370   0.231  1.3576 -0.0933 -1.9001
 3150SOL     OW 9505   0.883   1.098   3.371 -0.7726  0.4762 -0.1665
 3150SOL    HW1 9506   0.828   1.164   3.413 -3.1792  0.1600 -2.5842
 3150SOL    HW2 9507   0.854   1.015   3.407  0.7533  0.5242  1.2661
 3151SOL     OW 9508   0.372   2.391   3.560  0.6646 -0.3169  0.7778
 3151SOL    HW1 9509   0.460   2.356   3.550  0.7672  0.4058 -1.1220
 3151SOL    HW2 9510   0.385   2.481   3.589  0.5201 -0.4127  1.1515
 3152SOL     OW 9511   3.936   1.568   1.842  0.1626  0.1533 -0.3474
 3152SOL    HW1 9512   3.989   1.558   1.921 -1.6417 -2.2238  0.6670
 3152SOL    HW2 9513   3.957   1.491   1.789 -2.1862 -0.8734  0.0986
 3153SOL     OW 9514   2.973   0.846   2.005 -0.2413 -0.4082  0.1066
 3153SOL    HW1 9515   3.014   0.774   2.054 -1.4888 -1.0023  0.3061
 3153SOL    HW2 9516   2.883   0.817   1.991 -0.9903  1.4473  0.8364
 3154SOL     OW 9517   4.675   4.075   2.146  0.5846  0.5961  0.7195
 3154SOL    HW1 9518   4.665   4.147   2.209  0.1572  0.0414  1.2950
 3154SOL    HW2 9519   4.599   4.019   2.161  0.7057  0.2207  0.0021
 3155SOL     OW 9520   1.979   4.062   3.496 -0.5264  0.3615  0.2195
 3155SOL    HW1 9521   2.037   4.039   3.424 -1.1069 -1.2112  0.2255
 3155SOL    HW2 9522   1.983   4.158   3.500 -0.5105  0.4929 -1.9088
 3156SOL     OW 9523   3.683   1.323   1.505 -0.6275 -0.1296  0.3603
 3156SOL    HW1 9524   3.658   1.384   1.574 -2.9036 -1.4851  0.8441
 3156SOL    HW2 9525   3.672   1.236   1.543  0.7414 -0.9080 -0.8793
 3157SOL     OW 9526   0.588   1.810   4.396 -0.2895  0.4481  0.0694
 3157SOL    HW1 9527   0.580   1.791   4.302  0.2743 -1.3538  0.3471
 3157SOL    HW2 9528   0.616   1.901   4.400 -0.9767  0.7680 -1.4808
 3158SOL     OW 9529   4.390   0.572   3.099  0.1383  0.0596 -0.3735
 3158SOL    HW1 9530   4.461   0.632   3.075  0.1272 -0.4496 -1.7422
 3158SOL    HW2 9531   4.327   0.627   3.146  0.4698  0.9611 -0.9506
 3159SOL     OW 9532   4.573   1.742   1.753 -0.0846 -0.5507 -0.3517
 3159SOL    HW1 9533   4.634   1.803   1.795 -0.4349  0.6653 -1.5846
 3159SOL    HW2 9534   4.600   1.656   1.786 -0.4502  0.3267  2.5045
 3160SOL     OW 9535   2.074   1.279   2.702 -0.5268 -0.1145  0.4416
 3160SOL    HW1 9536   2.102   1.207   2.759 -0.8459  0.3438  1.1932
 3160SOL    HW2 9537   2.105   1.358   2.746 -1.9624  0.3298  0.7005
 3161SOL     OW 9538   2.712   3.735   3.458  0.3292 -0.2961  0.0743
 3161SOL    HW1 9539   2.697   3.816   3.410  2.2610  1.6891  2.4808
 3161SOL    HW2 9540   2.625   3.700   3.475 -0.4680  0.0944 -2.7651
 3162SOL     OW 9541   0.619   0.039   4.233  0.0103 -0.2554 -0.3660
 3162SOL    HW1 9542   0.557  -0.011   4.285  0.7596 -1.0681 -0.2311
 3162SOL    HW2 9543   0.704   0.018   4.271  0.3652  0.9176 -0.4858
 3163SOL     OW 9544   1.765   2.409   0.738 -0.1329 -0.2108  0.2239
 3163SOL    HW1 9545   1.782   2.503   0.744  0.2100 -0.2010 -0.7006
 3163SOL    HW2 9546   1.673   2.400   0.763  0.4233  0.0696  2.6299
 3164SOL     OW 9547   3.324   1.682   4.538 -0.0825 -0.0619 -0.4717
 3164SOL    HW1 9548   3.292   1.738   4.468  0.2988  0.6567 -0.0854
 3164SOL    HW2 9549   3.328   1.740   4.615  0.4664 -0.5786 -0.1007
 3165SOL     OW 9550   2.568   3.171   3.305  0.0195 -0.0022 -0.2070
 3165SOL    HW1 9551   2.529   3.240   3.358  1.6797 -0.6026  1.9482
 3165SOL    HW2 9552   2.638   3.214   3.257 -0.1606  0.1490 -0.3384
 3166SOL     OW 9553   0.820   1.223   2.362  0.4455 -0.4761  0.0031
 3166SOL    HW1 9554   0.900   1.276   2.364 -0.7681  1.5854 -1.5191
 3166SOL    HW2 9555   0.828   1.170   2.282  0.2135 -0.1127 -0.2637
 3167SOL     OW 9556   4.004   1.207   1.482  0.1576 -0.0267  0.1046
 3167SOL    HW1 9557   4.068   1.139   1.505 -0.6738 -0.5558  0.9026
 3167SOL    HW2 9558   3.936   1.160   1.433 -0.2266  0.3076  0.3164
 3168SOL     OW 9559   1.302   4.469   4.761 -0.2720  0.1356 -0.5658
 3168SOL    HW1 9560   1.346   4.545   4.723 -0.0974 -0.2408 -1.1120
 3168SOL    HW2 9561   1.355   4.394   4.735 -1.0525 -0.2910 -0.9644
 3169SOL     OW 9562   1.404   0.478   0.612 -1.3898 -0.0980 -0.4231
 3169SOL    HW1 9563   1.482   0.533   0.605 -0.1216 -1.8197 -0.5380
 3169SOL    HW2 9564   1.341   0.518   0.552 -0.9179  1.7924  0.2601
 3170SOL     OW 9565   2.722   2.019   4.492 -0.0128  0.0834  0.2001
 3170SOL    HW1 9566   2.780   1.946   4.470  0.0212 -0.3804  1.7168
 3170SOL    HW2 9567   2.692   2.000   4.581 -0.3102  1.7294  0.4816
 3171SOL     OW 9568   2.408   2.086   2.071 -0.1067  0.4896 -0.3816
 3171SOL    HW1 9569   2.397   2.021   2.141  0.1816  1.4710  0.6158
 3171SOL    HW2 9570   2.445   2.162   2.116 -1.2918  1.6740 -1.3360
 3172SOL     OW 9571   1.011   3.325   0.209  0.0184 -0.5610 -0.6270
 3172SOL    HW1 9572   1.026   3.251   0.149 -1.4204 -1.0781 -0.3959
 3172SOL    HW2 9573   0.943   3.376   0.166 -1.2991 -1.1340  0.7064
 3173SOL     OW 9574   4.975   4.019   4.468 -0.0670  0.4393  0.2510
 3173SOL    HW1 9575   4.974   3.926   4.446 -1.4346  0.3267  0.6639
 3173SOL    HW2 9576   5.058   4.032   4.514 -1.2331 -1.3194  3.0929
 3174SOL     OW 9577   2.227   2.078   2.323  0.1016 -0.3112 -0.0141
 3174SOL    HW1 9578   2.138   2.095   2.354  0.5942  1.3492  0.6016
 3174SOL    HW2 9579   2.277   2.060   2.403  0.3327 -1.2236 -0.3558
 3175SOL     OW 9580   1.258   0.948   1.453 -0.7908  0.2867 -0.5807
 3175SOL    HW1 9581   1.174   0.975   1.416 -0.4484 -0.0966 -1.6628
 3175SOL    HW2 9582   1.250   0.853   1.463 -0.2777  0.1594 -1.2779
 3176SOL     OW 9583   2.962   4.784   4.148 -0.1463  0.4128  0.5739
 3176SOL    HW1 9584   3.057   4.773   4.154 -0.2860 -0.0577  3.5501
 3176SOL    HW2 9585   2.945   4.869   4.189 -1.0328  0.5230  0.0173
 3177SOL     OW 9586   0.286   3.851   2.989  0.2373 -0.0562  0.4323
 3177SOL    HW1 9587   0.319   3.780   3.043 -2.1857 -1.3378  0.3116
 3177SOL    HW2 9588   0.328   3.837   2.903  0.5164 -0.7510  0.6770
 3178SOL     OW 9589   1.547   0.950   1.440  0.6406  0.2930  0.1107
 3178SOL    HW1 9590   1.455   0.949   1.466  1.4202 -1.3099  3.2833
 3178SOL    HW2 9591   1.545   0.959   1.344 -2.7431  0.6512  0.0982
 3179SOL     OW 9592   0.126   0.621   3.976 -0.1657  0.1579 -0.3647
 3179SOL    HW1 9593   0.152   0.669   4.054  2.0463  0.3312 -1.1458
 3179SOL    HW2 9594   0.167   0.535   3.986 -2.1848 -0.8367 -0.0735
 3180SOL     OW 9595   4.474   4.297   0.631  0.0968 -0.5441 -0.3405
 3180SOL    HW1 9596   4.510   4.208   0.629  0.3716 -0.4757  0.9513
 3180SOL    HW2 9597   4.533   4.348   0.576 -0.2780 -1.2216 -1.4063
 3181SOL     OW 9598   2.518   4.814   1.024  0.3433  0.1807  0.1770
 3181SOL    HW1 9599   2.535   4.820   0.930  0.0929  0.4103  0.1458
 3181SOL    HW2 9600   2.439   4.760   1.031 -0.3093  1.1143  0.1887
 3182SOL     OW 9601   1.509   0.469   4.549  0.2504 -0.0822 -0.0217
 3182SOL    HW1 9602   1.524   0.553   4.592 -1.3562 -0.3777  1.2147
 3182SOL    HW2 9603   1.452   0.488   4.476 -1.6456 -0.2726  1.3334
 3183SOL     OW 9604   4.572   3.374   1.917 -0.6595 -0.5896  0.4448
 3183SOL    HW1 9605   4.621   3.452   1.890 -0.2763 -0.5914  1.1011
 3183SOL    HW2 9606   4.637   3.318   1.959 -1.3677 -0.1938  2.1607
 3184SOL     OW 9607   0.883   0.851   0.089  0.4046 -0.6069 -0.1401
 3184SOL    HW1 9608   0.891   0.758   0.108 -1.2871 -0.7109  0.2510
 3184SOL    HW2 9609   0.793   0.874   0.116 -0.0232  0.6149 -2.3176
 3185SOL     OW 9610   4.090   4.360   2.962 -0.1431 -0.1748  0.2178
 3185SOL    HW1 9611   4.076   4.373   2.868  0.2498 -0.2519  0.1464
 3185SOL    HW2 9612   4.022   4.297   2.988  0.7679 -1.4282 -0.3520
 3186SOL     OW 9613   3.540   4.123   3.097 -0.1882  0.3657 -0.3158
 3186SOL    HW1 9614   3.630   4.123   3.129  0.3641 -2.7743 -1.5101
 3186SOL    HW2 9615   3.489   4.085   3.168 -0.6107  1.9430  0.2739
 3187SOL     OW 9616   2.256   0.718   2.762  0.2120  0.4249  0.0444
 3187SOL    HW1 9617   2.273   0.685   2.851 -2.8976  1.7224  1.2674
 3187SOL    HW2 9618   2.172   0.679   2.738  0.3742  1.1260 -1.8127
 3188SOL     OW 9619   4.329   2.737   1.768 -0.2466  0.0980  0.0085
 3188SOL    HW1 9620   4.296   2.661   1.817 -0.2010 -0.9769 -1.5421
 3188SOL    HW2 9621   4.403   2.702   1.718  0.3019  1.3806 -0.1031
 3189SOL     OW 9622   0.615   2.880   1.985  0.0331 -0.0323 -1.3979
 3189SOL    HW1 9623   0.684   2.945   1.998 -0.2348  0.0541 -0.2246
 3189SOL    HW2 9624   0.541   2.930   1.950  0.0786  0.1528 -1.2289
 3190SOL     OW 9625   4.510   2.757   2.114 -0.1705 -0.3590  0.0284
 3190SOL    HW1 9626   4.605   2.757   2.124  0.0389 -0.7940 -1.5976
 3190SOL    HW2 9627   4.493   2.824   2.048 -0.7380 -1.8281 -1.3854
 3191SOL     OW 9628   3.917   0.390   3.469  0.2012  0.3016  0.1279
 3191SOL    HW1 9629   4.004   0.393   3.509 -0.9960  1.2919  2.8879
 3191SOL    HW2 9630   3.902   0.479   3.438 -0.2332  0.4105  0.6409
 3192SOL     OW 9631   3.758   0.170   3.370  0.5310 -0.3326 -0.6313
 3192SOL    HW1 9632   3.825   0.233   3.398  1.7884 -1.0117 -2.0036
 3192SOL    HW2 9633   3.804   0.086   3.369 -0.8738 -1.1400  0.2355
 3193SOL     OW 9634   0.357   1.196   2.413  0.6592 -0.4088 -0.2169
 3193SOL    HW1 9635   0.320   1.252   2.482 -0.7345 -3.9540  2.2206
 3193SOL    HW2 9636   0.319   1.230   2.332 -0.4644  1.8139  1.1269
 3194SOL     OW 9637   3.727   1.896   2.425 -0.5237  0.1102  0.1108
 3194SOL    HW1 9638   3.683   1.912   2.342  0.8049 -1.4667 -0.9491
 3194SOL    HW2 9639   3.760   1.982   2.451 -2.1986  0.8937 -0.2184
 3195SOL     OW 9640   0.929   3.655   4.462  0.5744  0.4625 -0.2115
 3195SOL    HW1 9641   0.924   3.672   4.556  2.3323 -0.7794  0.1411
 3195SOL    HW2 9642   0.842   3.622   4.440  1.0698 -2.6099  1.7534
 3196SOL     OW 9643   2.256   0.880   3.781 -0.0324  0.0188 -0.2640
 3196SOL    HW1 9644   2.203   0.846   3.709 -0.1920 -0.9623  0.3006
 3196SOL    HW2 9645   2.346   0.874   3.749 -0.2476  2.5123 -1.5715
 3197SOL     OW 9646   2.912   1.418   0.151 -0.1419 -0.2332  0.7631
 3197SOL    HW1 9647   2.817   1.412   0.139 -0.3242  1.3091  1.2288
 3197SOL    HW2 9648   2.927   1.379   0.237 -0.3735 -0.2666  0.7903
 3198SOL     OW 9649   4.132   4.536   3.559 -0.2093  0.9549  0.7977
 3198SOL    HW1 9650   4.221   4.500   3.568  0.7280  2.9825  0.2760
 3198SOL    HW2 9651   4.144   4.617   3.510 -2.5993  0.4653 -0.7738
 3199SOL     OW 9652   1.654   2.656   3.165  0.4485  0.2077  0.1141
 3199SOL    HW1 9653   1.568   2.697   3.162  0.3889  0.0835  0.1028
 3199SOL    HW2 9654   1.638   2.566   3.137  1.1503  1.0801 -3.5322
 3200SOL     OW 9655   0.906   0.250   0.097 -0.5107  0.2424  0.5834
 3200SOL    HW1 9656   0.973   0.238   0.164  0.7793 -0.1961 -0.7380
 3200SOL    HW2 9657   0.823   0.245   0.145  0.3743  0.2377  2.1748
 3201SOL     OW 9658   4.397   0.833   0.759  0.2804  0.3442 -0.3733
 3201SOL    HW1 9659   4.401   0.790   0.844  0.9438  0.9427 -0.0919
 3201SOL    HW2 9660   4.306   0.822   0.730  0.2252 -0.4546  0.0967
 3202SOL     OW 9661   2.432   2.548   2.341 -0.1145 -0.0903  0.4625
 3202SOL    HW1 9662   2.358   2.588   2.296  0.4497  1.2669  0.6883
 3202SOL    HW2 9663   2.409   2.456   2.348 -0.8223 -0.1094 -1.4035
 3203SOL     OW 9664   0.193   1.374   4.144 -0.1173  0.4299  0.2355
 3203SOL    HW1 9665   0.174   1.407   4.056  2.9714  0.4978 -0.5541
 3203SOL    HW2 9666   0.126   1.413   4.199 -0.5211  2.6958 -1.6781
 3204SOL     OW 9667   4.332   1.813   2.295  0.2389  0.4554  0.3504
 3204SOL    HW1 9668   4.371   1.742   2.245 -0.0581  0.2929  0.3469
 3204SOL    HW2 9669   4.388   1.822   2.372  0.3263  0.2750  0.3065
 3205SOL     OW 9670   2.088   4.077   3.805 -0.0006  0.4521 -0.1015
 3205SOL    HW1 9671   2.160   4.085   3.742 -0.7747  2.2916 -0.7867
 3205SOL    HW2 9672   2.032   4.152   3.789 -2.0511 -0.8459  0.5187
 3206SOL     OW 9673   4.035   2.621   1.941  0.8203  0.2889 -0.3473
 3206SOL    HW1 9674   4.096   2.556   1.976  1.1305  1.3754  1.2723
 3206SOL    HW2 9675   3.979   2.573   1.880  2.8299 -0.8848 -1.3439
 3207SOL     OW 9676   0.308   1.517   0.747  0.5255  0.1009  0.5793
 3207SOL    HW1 9677   0.269   1.559   0.824 -0.2089  0.3593  0.0845
 3207SOL    HW2 9678   0.233   1.478   0.701  0.9207  0.1588 -0.1231
 3208SOL     OW 9679   2.235   3.042   4.174  0.0899 -0.6039  0.5555
 3208SOL    HW1 9680   2.258   3.134   4.164  1.6230 -1.1649 -2.0361
 3208SOL    HW2 9681   2.144   3.036   4.145  0.0265  0.0611  0.6112
 3209SOL     OW 9682   2.227   1.999   2.742 -0.7369  0.8351 -0.5602
 3209SOL    HW1 9683   2.253   2.072   2.797  0.9275  0.9540 -1.4271
 3209SOL    HW2 9684   2.209   1.927   2.802 -0.1598  1.3132  0.1903
 3210SOL     OW 9685   2.420   4.938   4.664 -0.0647  0.1038 -0.1520
 3210SOL    HW1 9686   2.417   4.876   4.736 -0.3478 -0.1559 -0.3818
 3210SOL    HW2 9687   2.512   4.943   4.639 -0.0739 -0.4050 -0.2847
 3211SOL     OW 9688   1.019   3.415   4.300  0.8519  0.1402 -0.0975
 3211SOL    HW1 9689   1.003   3.501   4.260  2.3051  1.1886  1.4281
 3211SOL    HW2 9690   1.093   3.430   4.359  0.9638 -2.1211  0.4180
 3212SOL     OW 9691   4.680   1.203   3.640 -0.1494  0.3597  0.1765
 3212SOL    HW1 9692   4.604   1.191   3.583 -0.2570 -0.0563  0.4007
 3212SOL    HW2 9693   4.750   1.152   3.599  0.5608  2.1973 -1.0239
 3213SOL     OW 9694   0.462   0.437   0.181 -0.4210 -0.1987 -0.2498
 3213SOL    HW1 9695   0.409   0.516   0.191 -0.3628 -0.0583 -0.9898
 3213SOL    HW2 9696   0.445   0.408   0.092  0.4617 -0.3658 -0.3742
 3214SOL     OW 9697   2.355   4.027   1.302  0.5541  0.6690 -0.1566
 3214SOL    HW1 9698   2.356   4.120   1.280 -0.2684  0.5123 -0.9133
 3214SOL    HW2 9699   2.272   3.995   1.267 -0.1875  0.0860  2.0009
 3215SOL     OW 9700   3.924   2.725   2.199 -0.1619 -0.1861 -0.3828
 3215SOL    HW1 9701   3.910   2.820   2.205  1.3139  0.0497 -0.3073
 3215SOL    HW2 9702   3.942   2.710   2.106 -0.5282 -0.4149 -0.4165
 3216SOL     OW 9703   2.385   3.216   1.037 -0.0222 -0.3079  0.2517
 3216SOL    HW1 9704   2.309   3.220   0.978 -1.1509  2.3139  1.7089
 3216SOL    HW2 9705   2.379   3.129   1.077 -0.1965 -1.4913 -2.1505
 3217SOL     OW 9706   0.023   0.334   3.035 -0.4435 -0.2370 -0.3930
 3217SOL    HW1 9707   0.034   0.337   2.940  0.0799 -2.1403 -0.4221
 3217SOL    HW2 9708  -0.066   0.303   3.048 -0.3709 -0.3950 -0.2704
 3218SOL     OW 9709   0.002   3.839   3.018  0.1768 -0.5539  0.3032
 3218SOL    HW1 9710   0.093   3.857   2.994 -0.5193  1.1697 -1.2976
 3218SOL    HW2 9711  -0.007   3.744   3.010  2.1530 -0.9663  1.8949
 3219SOL     OW 9712   3.508   2.212   0.462 -0.1582 -0.5210  0.0307
 3219SOL    HW1 9713   3.483   2.129   0.502 -0.7144  0.3075  1.4550
 3219SOL    HW2 9714   3.428   2.263   0.458  0.5949  0.8818  1.5157
 3220SOL     OW 9715   3.509   2.856   3.951  0.8049  0.0384  0.1066
 3220SOL    HW1 9716   3.505   2.913   4.028  1.1223  0.9174 -0.5092
 3220SOL    HW2 9717   3.436   2.795   3.963 -0.1379  1.1620  0.3435
 3221SOL     OW 9718   0.775   1.425   1.566  0.0463 -0.4126  0.5678
 3221SOL    HW1 9719   0.685   1.413   1.597 -0.1176  1.1336  0.8131
 3221SOL    HW2 9720   0.822   1.461   1.641  0.5418  0.0150  0.0647
 3222SOL     OW 9721   3.812   1.009   2.180  0.1781  0.3659  0.2946
 3222SOL    HW1 9722   3.808   0.937   2.118  3.1115  0.8938 -0.6909
 3222SOL    HW2 9723   3.731   1.058   2.168 -1.5134 -2.2469  0.4291
 3223SOL     OW 9724   4.273   4.288   2.605 -0.1133 -0.9693 -0.0730
 3223SOL    HW1 9725   4.265   4.206   2.654 -0.8121 -1.3973 -0.8774
 3223SOL    HW2 9726   4.300   4.262   2.517  2.1997 -0.1249  0.3100
 3224SOL     OW 9727   4.775   3.217   4.138 -0.4898 -0.4261  0.0626
 3224SOL    HW1 9728   4.695   3.168   4.118 -0.9617 -0.5032  1.9254
 3224SOL    HW2 9729   4.755   3.263   4.219  0.9337  0.5983 -0.1327
 3225SOL     OW 9730   2.854   3.358   4.975 -0.1237  0.7990 -0.6934
 3225SOL    HW1 9731   2.764   3.362   4.943 -0.1675  0.8542 -0.5642
 3225SOL    HW2 9732   2.904   3.320   4.903 -0.3803  0.0736 -0.5013
 3226SOL     OW 9733   4.677   1.898   1.240 -0.0557 -0.3688 -0.2135
 3226SOL    HW1 9734   4.664   1.856   1.155  0.8857  1.1523 -1.1627
 3226SOL    HW2 9735   4.591   1.932   1.264 -0.1926 -0.2214 -0.8975
 3227SOL     OW 9736   0.399   2.065   1.539  0.0147  0.1057 -0.1176
 3227SOL    HW1 9737   0.436   2.096   1.457 -1.2495  1.0443 -0.3545
 3227SOL    HW2 9738   0.468   2.010   1.577  1.5470  1.5975 -0.6360
 3228SOL     OW 9739   3.249   3.273   3.889  0.3432  0.0429  0.1360
 3228SOL    HW1 9740   3.193   3.350   3.899  0.3856  0.2820 -1.1863
 3228SOL    HW2 9741   3.191   3.206   3.853  0.8897  0.3573 -1.4524
 3229SOL     OW 9742   2.937   3.013   2.858 -0.4908 -0.5065  0.2784
 3229SOL    HW1 9743   2.885   3.055   2.790  0.9974 -2.2805 -2.0725
 3229SOL    HW2 9744   3.027   3.040   2.839  0.0599 -1.8169  0.9445
 3230SOL     OW 9745   1.913   4.046   0.607  0.6043  0.4429  0.0065
 3230SOL    HW1 9746   1.907   4.036   0.702  0.1138 -0.6532 -0.1207
 3230SOL    HW2 9747   1.924   4.140   0.593  0.2206  0.6690  1.1292
 3231SOL     OW 9748   2.178   0.174   4.961  0.2690 -0.0461 -0.5491
 3231SOL    HW1 9749   2.130   0.091   4.952  0.9114 -0.3322 -1.4002
 3231SOL    HW2 9750   2.114   0.241   4.939 -0.4541 -0.2478  0.7885
 3232SOL     OW 9751   2.667   4.586   1.064 -0.3298 -0.3095  0.8145
 3232SOL    HW1 9752   2.646   4.679   1.059 -1.4047 -0.4658  1.8692
 3232SOL    HW2 9753   2.636   4.560   1.151 -2.3781 -2.1897 -0.3888
 3233SOL     OW 9754   0.389   2.244   0.572 -0.5387  0.4723  0.1525
 3233SOL    HW1 9755   0.359   2.199   0.651 -0.0237  0.4209  0.3216
 3233SOL    HW2 9756   0.472   2.202   0.551 -1.8164 -1.2323 -1.8493
 3234SOL     OW 9757   2.324   4.141   3.643 -0.2728  1.4817  0.3096
 3234SOL    HW1 9758   2.350   4.216   3.590  2.5431 -0.0479 -0.6272
 3234SOL    HW2 9759   2.342   4.169   3.733  1.7189  1.6401 -0.0943
 3235SOL     OW 9760   2.878   1.819   4.834 -0.0802  0.2336 -0.3302
 3235SOL    HW1 9761   2.886   1.835   4.740 -0.1134  1.2558 -0.1715
 3235SOL    HW2 9762   2.962   1.846   4.871 -0.5869  1.3139  0.1013
 3236SOL     OW 9763   2.140   0.808   3.394 -0.2934 -0.2793 -0.4836
 3236SOL    HW1 9764   2.213   0.764   3.437  0.7044  1.4968 -0.2943
 3236SOL    HW2 9765   2.066   0.748   3.406  1.2483 -2.4970 -1.3443
 3237SOL     OW 9766   0.120   4.780   4.114 -0.0141 -0.0335 -0.0970
 3237SOL    HW1 9767   0.082   4.694   4.128  0.4796 -0.8732 -3.3371
 3237SOL    HW2 9768   0.207   4.763   4.079  1.2608  1.8535  1.8470
 3238SOL     OW 9769   4.373   3.273   0.371 -0.3712  0.0021  0.6731
 3238SOL    HW1 9770   4.454   3.324   0.362 -0.2289 -0.4292 -0.6870
 3238SOL    HW2 9771   4.348   3.285   0.463  1.1489  0.2716  1.0853
 3239SOL     OW 9772   4.844   2.153   1.583  0.3195  0.0914 -0.1917
 3239SOL    HW1 9773   4.780   2.088   1.554 -1.6537  1.0397  1.8099
 3239SOL    HW2 9774   4.928   2.108   1.576 -0.5247 -1.3336 -2.5349
 3240SOL     OW 9775   4.260   0.184   3.005 -0.1368  0.0882 -0.6385
 3240SOL    HW1 9776   4.203   0.213   2.935 -0.8318 -0.7817 -0.4585
 3240SOL    HW2 9777   4.349   0.189   2.969 -0.5159 -0.7728 -1.7471
 3241SOL     OW 9778   1.633   1.908   0.024 -0.5462 -0.6779 -0.2772
 3241SOL    HW1 9779   1.620   1.919  -0.070  0.9816 -0.9133 -0.5514
 3241SOL    HW2 9780   1.627   1.997   0.059 -0.0519 -0.4443 -0.7673
 3242SOL     OW 9781   2.518   4.560   4.629 -0.5067  0.8469  0.4549
 3242SOL    HW1 9782   2.463   4.484   4.648 -0.4879  0.7013 -0.0724
 3242SOL    HW2 9783   2.503   4.619   4.703 -1.3715  0.8139  0.3117
 3243SOL     OW 9784   2.054   0.990   1.453 -0.3789  0.6019  0.3226
 3243SOL    HW1 9785   2.059   0.984   1.548 -1.2292  1.0508  0.4108
 3243SOL    HW2 9786   1.987   1.057   1.437  0.5572  1.3514 -0.5830
 3244SOL     OW 9787   4.017   0.042   3.867  0.1799  0.0254 -0.6322
 3244SOL    HW1 9788   3.986   0.009   3.783  1.5355  1.5013 -1.7812
 3244SOL    HW2 9789   4.104   0.078   3.848  0.6253  0.1957  1.4583
 3245SOL     OW 9790   2.763   2.783   0.402 -0.2168  0.0152 -0.1658
 3245SOL    HW1 9791   2.760   2.879   0.402  0.7551  0.1028  2.1887
 3245SOL    HW2 9792   2.672   2.756   0.387 -0.6324  1.3015 -0.0702
 3246SOL     OW 9793   4.924   0.522   4.943  0.0684 -0.4638 -0.2084
 3246SOL    HW1 9794   4.901   0.456   5.009  0.7093 -0.4418  0.0470
 3246SOL    HW2 9795   4.993   0.573   4.985 -0.3943  0.3457 -0.4243
 3247SOL     OW 9796   3.061   2.613   4.875 -0.1519  0.5260  0.5190
 3247SOL    HW1 9797   3.108   2.634   4.956  0.4383 -0.7433  0.5292
 3247SOL    HW2 9798   3.123   2.634   4.805  0.1684 -0.4254  0.5016
 3248SOL     OW 9799   1.306   1.879   1.532 -0.4165 -0.0290  0.0178
 3248SOL    HW1 9800   1.303   1.845   1.621  0.7653  0.3681  0.2285
 3248SOL    HW2 9801   1.394   1.856   1.501 -0.2670  1.1609 -0.5014
 3249SOL     OW 9802   3.436   0.109   1.179  0.2152 -0.9188 -0.1011
 3249SOL    HW1 9803   3.356   0.058   1.188  0.7441 -1.6824  0.4105
 3249SOL    HW2 9804   3.493   0.056   1.123 -0.1483  0.2709 -1.6611
 3250SOL     OW 9805   0.448   3.547   1.749  0.1883  0.6503  0.6949
 3250SOL    HW1 9806   0.502   3.595   1.812 -0.4531  1.5628  0.5654
 3250SOL    HW2 9807   0.385   3.611   1.718 -0.1475 -0.0650 -0.1280
 3251SOL     OW 9808   3.781   4.181   0.024 -0.0447  0.0082 -0.6271
 3251SOL    HW1 9809   3.847   4.149  -0.038  0.2990  0.6290 -0.5950
 3251SOL    HW2 9810   3.779   4.115   0.093  1.8308  0.8042  0.2679
 3252SOL     OW 9811   4.603   2.318   2.635 -0.3631  0.4511  0.0112
 3252SOL    HW1 9812   4.556   2.288   2.558 -2.1917 -0.4708  1.4127
 3252SOL    HW2 9813   4.613   2.240   2.690  1.7172  0.8841  0.3461
 3253SOL     OW 9814   0.297   2.820   1.697 -0.1909 -0.0688  0.3746
 3253SOL    HW1 9815   0.267   2.764   1.769 -0.9403  0.0012  0.1235
 3253SOL    HW2 9816   0.308   2.760   1.623  2.7895 -0.5679  1.0768
 3254SOL     OW 9817   1.308   0.575   4.365 -0.2794 -0.0289  0.6195
 3254SOL    HW1 9818   1.217   0.557   4.338  0.9370 -1.0773 -3.5724
 3254SOL    HW2 9819   1.314   0.670   4.365 -1.2383  0.0497  0.4272
 3255SOL     OW 9820   0.987   1.447   2.371 -0.0148  0.2751  0.8276
 3255SOL    HW1 9821   1.072   1.460   2.328 -0.1129  0.4323  0.6781
 3255SOL    HW2 9822   0.998   1.486   2.458 -0.0883  0.7441  0.6314
 3256SOL     OW 9823   0.720   4.239   3.548 -0.5784  0.0950  0.9333
 3256SOL    HW1 9824   0.630   4.260   3.573 -0.3710  2.8559 -0.2986
 3256SOL    HW2 9825   0.768   4.236   3.630 -1.4886  0.3066  1.4821
 3257SOL     OW 9826   3.130   2.022   4.093 -0.1939 -0.0830 -0.1791
 3257SOL    HW1 9827   3.078   2.039   4.014  0.9057  0.1647 -0.8755
 3257SOL    HW2 9828   3.209   2.075   4.081 -0.4811  0.8282  1.6196
 3258SOL     OW 9829   4.111   1.997   1.100 -0.2989 -0.7058 -0.4908
 3258SOL    HW1 9830   4.100   1.912   1.056 -1.2356 -1.6611  1.4652
 3258SOL    HW2 9831   4.124   1.975   1.192  2.2497  1.1889 -0.2680
 3259SOL     OW 9832   1.787   1.673   3.819 -0.3815 -0.2263  0.2445
 3259SOL    HW1 9833   1.747   1.724   3.748 -1.1044 -0.8094  0.2078
 3259SOL    HW2 9834   1.723   1.604   3.837 -0.9328  0.7775  2.5169
 3260SOL     OW 9835   1.734   3.365   3.084 -0.1252 -0.2921 -0.0248
 3260SOL    HW1 9836   1.815   3.315   3.082 -0.3488 -0.7367  1.1923
 3260SOL    HW2 9837   1.689   3.336   3.164 -1.5069 -0.1026 -0.6985
 3261SOL     OW 9838   4.281   4.007   3.165  0.2754  0.4791  0.5185
 3261SOL    HW1 9839   4.364   4.012   3.117  0.5307  1.4563  1.0431
 3261SOL    HW2 9840   4.306   4.001   3.257 -0.2230  1.3514  0.7258
 3262SOL     OW 9841   2.990   0.672   2.926  0.4658 -0.1108  0.2742
 3262SOL    HW1 9842   3.082   0.652   2.910  0.4869 -0.9784  1.4309
 3262SOL    HW2 9843   2.945   0.587   2.923 -0.4968  0.3919 -1.3278
 3263SOL     OW 9844   0.120   4.551   0.268  0.6740 -0.3414 -0.1872
 3263SOL    HW1 9845   0.039   4.545   0.218  0.5945 -1.8919  0.0995
 3263SOL    HW2 9846   0.102   4.506   0.350  2.0536 -1.4303 -0.4369
 3264SOL     OW 9847   3.795   0.494   1.216 -0.1072  0.1113 -0.4257
 3264SOL    HW1 9848   3.706   0.459   1.212 -0.5657  0.9846  1.4275
 3264SOL    HW2 9849   3.796   0.552   1.292  1.3659  2.0754 -1.8059
 3265SOL     OW 9850   1.867   4.706   0.910 -0.7135  0.1191  0.2293
 3265SOL    HW1 9851   1.806   4.779   0.912 -1.2271 -0.1479 -2.0205
 3265SOL    HW2 9852   1.906   4.710   0.822 -0.0157 -1.6994  0.4063
 3266SOL     OW 9853   1.642   1.548   4.978  0.2500 -0.6204  0.4605
 3266SOL    HW1 9854   1.683   1.620   4.930  0.0072 -0.9834 -0.3082
 3266SOL    HW2 9855   1.642   1.475   4.916  1.6665 -1.6826  1.6411
 3267SOL     OW 9856   2.722   0.918   1.413  0.0176 -0.2694 -0.4834
 3267SOL    HW1 9857   2.673   0.904   1.333 -1.8203  1.4217  0.2456
 3267SOL    HW2 9858   2.696   1.006   1.441  2.1973  0.0054  0.8766
 3268SOL     OW 9859   4.170   3.606   0.503 -0.5290  0.2555 -0.6319
 3268SOL    HW1 9860   4.133   3.573   0.421 -1.7150 -0.4324  0.1596
 3268SOL    HW2 9861   4.185   3.528   0.556 -0.8983  0.7746  0.2567
 3269SOL     OW 9862   4.819   2.728   1.865  1.0114  0.2200  0.2710
 3269SOL    HW1 9863   4.890   2.764   1.812  0.2883 -0.1325 -0.9780
 3269SOL    HW2 9864   4.757   2.694   1.801  0.1404 -0.2861  1.3637
 3270SOL     OW 9865   0.984   4.333   4.574  0.1484 -0.2004 -0.1505
 3270SOL    HW1 9866   1.056   4.272   4.555 -0.9910 -0.9603 -2.3096
 3270SOL    HW2 9867   1.015   4.383   4.650  2.7343 -0.8432 -0.6785
 3271SOL     OW 9868   4.897   1.753   1.074  0.1068 -0.2387  0.0907
 3271SOL    HW1 9869   4.904   1.659   1.091  0.7100 -0.1158  0.5166
 3271SOL    HW2 9870   4.865   1.790   1.156 -0.8684 -0.1616 -0.3131
 3272SOL     OW 9871   1.366   1.124   3.598 -0.2163 -0.9378 -0.2641
 3272SOL    HW1 9872   1.457   1.151   3.606 -0.5007 -0.1958  0.7404
 3272SOL    HW2 9873   1.365   1.062   3.525  1.1795 -1.4047  0.0873
 3273SOL     OW 9874   1.167   1.548   1.573 -0.2874  0.0164 -0.0449
 3273SOL    HW1 9875   1.189   1.483   1.507  1.3340 -1.6478  1.9831
 3273SOL    HW2 9876   1.240   1.545   1.636 -1.2317  2.2269  1.3155
 3274SOL     OW 9877   2.815   1.437   2.130 -0.6681 -0.2103 -0.1052
 3274SOL    HW1 9878   2.889   1.405   2.079 -0.5587 -0.9103  0.4719
 3274SOL    HW2 9879   2.810   1.530   2.110  2.0340  0.4683  1.8032
 3275SOL     OW 9880   3.491   0.615   1.701 -0.1327 -0.1811  0.1566
 3275SOL    HW1 9881   3.458   0.555   1.768 -2.7441  1.1801  0.2380
 3275SOL    HW2 9882   3.456   0.579   1.619 -1.7923  1.1770  0.2175
 3276SOL     OW 9883   4.916   1.123   2.976 -0.4165  0.1378  0.0321
 3276SOL    HW1 9884   4.975   1.048   2.965 -0.2242  0.5027 -1.6532
 3276SOL    HW2 9885   4.919   1.141   3.070  0.4579 -1.2144  0.3044
 3277SOL     OW 9886   2.715   0.825   4.184  0.3577  0.2256 -0.1759
 3277SOL    HW1 9887   2.673   0.910   4.175  0.2563  0.1868 -0.0709
 3277SOL    HW2 9888   2.782   0.839   4.251 -0.0193  0.0877  0.2336
 3278SOL     OW 9889   4.495   3.835   1.207  0.6303 -0.8916 -0.4225
 3278SOL    HW1 9890   4.554   3.908   1.189 -0.9104  0.2790 -0.8926
 3278SOL    HW2 9891   4.445   3.824   1.127 -2.4892  0.7469  1.1085
 3279SOL     OW 9892   0.020   3.703   4.054 -0.3531 -0.2786  0.2924
 3279SOL    HW1 9893   0.027   3.774   3.990  0.7902 -0.7393 -0.1172
 3279SOL    HW2 9894   0.082   3.725   4.123  1.2484 -1.6656 -0.6434
 3280SOL     OW 9895   1.234   0.159   4.159  0.3504 -0.4579  0.1265
 3280SOL    HW1 9896   1.254   0.252   4.150  2.5426 -0.5044  3.1232
 3280SOL    HW2 9897   1.287   0.117   4.091  0.7199  0.3501 -0.1058
 3281SOL     OW 9898   0.443   0.494   0.532  0.2665  0.2270  0.2321
 3281SOL    HW1 9899   0.356   0.518   0.500  0.0714  0.2936  0.8023
 3281SOL    HW2 9900   0.457   0.551   0.607  1.6877  1.7312 -1.0981
 3282SOL     OW 9901   0.086   0.546   1.301  0.2647  0.8110 -1.2298
 3282SOL    HW1 9902   0.056   0.467   1.257 -0.9650  1.1600 -1.0569
 3282SOL    HW2 9903   0.167   0.569   1.257  1.1458 -1.0552 -0.6731
 3283SOL     OW 9904   4.927   0.501   4.364 -0.3082  0.2151  0.0441
 3283SOL    HW1 9905   4.960   0.587   4.388  0.1285  0.5132 -1.5332
 3283SOL    HW2 9906   4.907   0.507   4.271 -0.6892 -1.2684 -0.0108
 3284SOL     OW 9907   0.268   3.575   0.955 -0.2977 -0.4631 -0.4856
 3284SOL    HW1 9908   0.273   3.554   1.048  0.9942 -0.8436 -0.6231
 3284SOL    HW2 9909   0.357   3.564   0.923 -0.5032  0.6966 -1.5537
 3285SOL     OW 9910   4.079   3.589   4.533  0.3440 -0.3216 -0.0335
 3285SOL    HW1 9911   3.987   3.615   4.535 -0.2570 -2.3118  0.9968
 3285SOL    HW2 9912   4.128   3.671   4.540 -1.3324  0.7727 -0.6438
 3286SOL     OW 9913   3.100   3.377   2.528 -0.6058 -0.3670 -0.1449
 3286SOL    HW1 9914   3.113   3.287   2.559 -0.6026 -0.3244 -0.0197
 3286SOL    HW2 9915   3.133   3.431   2.600 -1.6321 -0.2541  0.2545
 3287SOL     OW 9916   4.499   1.608   4.100  0.0269  0.1848  0.3437
 3287SOL    HW1 9917   4.517   1.688   4.150  0.0970 -0.3313  1.1673
 3287SOL    HW2 9918   4.574   1.552   4.117 -0.5443 -0.4942  0.7011
 3288SOL     OW 9919   3.397   1.120   4.045 -0.2489  0.1125  0.1317
 3288SOL    HW1 9920   3.468   1.056   4.037 -0.5940 -0.1124 -1.3745
 3288SOL    HW2 9921   3.424   1.194   3.991 -0.0904  1.0532  1.4510
 3289SOL     OW 9922   0.556   0.142   4.624 -0.3150 -0.5944 -0.4250
 3289SOL    HW1 9923   0.519   0.092   4.551  0.6189 -0.3461 -1.0870
 3289SOL    HW2 9924   0.627   0.193   4.585 -0.3791  0.2338  0.4922
 3290SOL     OW 9925   0.977   4.029   3.262 -0.6578  0.2318 -0.3055
 3290SOL    HW1 9926   0.962   4.113   3.305  1.0314  1.4217 -1.8824
 3290SOL    HW2 9927   0.995   3.968   3.333 -0.4742  1.5359  0.8061
 3291SOL     OW 9928   1.240   4.584   2.544 -0.0286  0.3385  0.2390
 3291SOL    HW1 9929   1.313   4.553   2.598  0.0554  0.7256  0.3536
 3291SOL    HW2 9930   1.258   4.678   2.532  0.4876  0.0738 -1.2965
 3292SOL     OW 9931   0.361   3.346   0.613 -0.3030 -0.6299 -0.3644
 3292SOL    HW1 9932   0.400   3.426   0.577  1.1443 -0.6422  1.0691
 3292SOL    HW2 9933   0.392   3.276   0.556 -0.6444 -0.3032 -0.9571
 3293SOL     OW 9934   2.066   0.028   0.919  0.5341  0.1494 -0.6617
 3293SOL    HW1 9935   2.062  -0.064   0.890  0.4489  0.4434 -1.6302
 3293SOL    HW2 9936   2.158   0.052   0.908  1.1990 -0.6289  2.3085
 3294SOL     OW 9937   4.967   0.481   0.820 -0.0033 -0.1638  0.7515
 3294SOL    HW1 9938   4.977   0.389   0.842  0.8464 -0.1075  0.6139
 3294SOL    HW2 9939   4.876   0.502   0.843  0.1465 -0.7264  1.8777
 3295SOL     OW 9940   2.911   1.553   1.059 -0.3618  0.6066  0.1055
 3295SOL    HW1 9941   2.957   1.514   0.984  1.2295  0.3164  1.1925
 3295SOL    HW2 9942   2.980   1.596   1.109 -1.5505  1.6111  0.9230
 3296SOL     OW 9943   1.920   0.787   3.708  0.5363 -0.8455 -0.3236
 3296SOL    HW1 9944   1.969   0.714   3.746  0.1218 -0.5630  0.8106
 3296SOL    HW2 9945   1.908   0.763   3.616  2.1871 -1.2267 -0.4634
 3297SOL     OW 9946   1.554   2.666   1.881  0.0874 -0.3529  0.3675
 3297SOL    HW1 9947   1.528   2.638   1.794  0.0624  0.9628 -0.0649
 3297SOL    HW2 9948   1.650   2.665   1.879  0.0865 -0.4540  0.3713
 3298SOL     OW 9949   4.497   3.764   1.727  0.0400  0.3378 -0.0182
 3298SOL    HW1 9950   4.546   3.690   1.692  0.8446  0.3673  1.0002
 3298SOL    HW2 9951   4.515   3.762   1.821 -1.0527  0.9963  0.2217
 3299SOL     OW 9952   4.926   2.574   2.777  0.0437 -0.1838 -0.2268
 3299SOL    HW1 9953   4.839   2.548   2.807  0.9861 -1.9657  1.1318
 3299SOL    HW2 9954   4.944   2.656   2.823 -0.9163  0.2170 -0.5496
 3300SOL     OW 9955   4.799   2.223   4.685 -0.0516 -0.0798  0.0385
 3300SOL    HW1 9956   4.835   2.229   4.597 -1.9144  1.5777 -0.6600
 3300SOL    HW2 9957   4.858   2.276   4.739 -0.3244  0.9960 -0.7075
 3301SOL     OW 9958   0.281   0.385   2.493 -0.3895 -0.2695 -0.1592
 3301SOL    HW1 9959   0.288   0.308   2.435 -1.2581  1.0773 -2.1666
 3301SOL    HW2 9960   0.368   0.425   2.489 -1.0984  1.2533 -2.7815
 3302SOL     OW 9961   0.028   2.080   2.425 -0.3110 -0.0942  0.1658
 3302SOL    HW1 9962  -0.001   2.017   2.358 -1.4123 -1.2139  1.6352
 3302SOL    HW2 9963  -0.042   2.146   2.427 -0.9343 -0.7712  1.1065
 3303SOL     OW 9964   4.549   4.707   0.361  0.2043 -0.2267  0.0600
 3303SOL    HW1 9965   4.539   4.773   0.292  0.2022 -0.5504 -0.2571
 3303SOL    HW2 9966   4.496   4.740   0.434  0.1187  0.0684 -0.1329
 3304SOL     OW 9967   0.214   3.033   2.921 -0.0149 -0.1739 -0.0522
 3304SOL    HW1 9968   0.127   3.024   2.882 -0.2172 -0.7382  0.5056
 3304SOL    HW2 9969   0.197   3.036   3.016  0.4365  1.4715  0.0096
 3305SOL     OW 9970   4.846   0.198   1.699 -0.6017  0.5907 -0.7432
 3305SOL    HW1 9971   4.822   0.114   1.738  1.1532  0.2362 -0.3243
 3305SOL    HW2 9972   4.942   0.202   1.708 -0.5338  2.1417 -1.7533
 3306SOL     OW 9973   3.914   2.635   2.927 -0.2615  0.1647 -0.2418
 3306SOL    HW1 9974   3.980   2.661   2.990 -0.2885 -0.6804  0.1477
 3306SOL    HW2 9975   3.831   2.667   2.963 -0.0896  1.2040 -0.7193
 3307SOL     OW 9976   2.220   3.178   3.034 -0.3140 -0.1858 -0.1549
 3307SOL    HW1 9977   2.227   3.090   2.997  1.2459  0.6667 -2.1029
 3307SOL    HW2 9978   2.303   3.220   3.011  0.0463  1.0244  2.9245
 3308SOL     OW 9979   4.486   4.451   1.223  0.1780  0.6388 -0.2161
 3308SOL    HW1 9980   4.528   4.508   1.159 -0.1482  0.6788 -0.3945
 3308SOL    HW2 9981   4.395   4.480   1.224  0.1473  0.5331  0.1495
 3309SOL     OW 9982   3.537   4.948   4.794 -0.2760  0.0677 -0.3668
 3309SOL    HW1 9983   3.496   4.896   4.863  0.7891  3.0998  2.9025
 3309SOL    HW2 9984   3.464   4.978   4.739 -1.2353 -2.0108 -0.3121
 3310SOL     OW 9985   4.868   0.393   0.224  0.3775 -0.3709 -0.4580
 3310SOL    HW1 9986   4.920   0.313   0.235  0.5188 -0.5155 -2.0301
 3310SOL    HW2 9987   4.790   0.364   0.177 -0.7101  0.0214  1.0162
 3311SOL     OW 9988   2.486   0.820   3.048  0.2064  0.2195  0.2353
 3311SOL    HW1 9989   2.565   0.793   3.001 -0.7582 -1.2409 -0.6301
 3311SOL    HW2 9990   2.493   0.776   3.133  0.1755 -0.1610  0.0420
 3312SOL     OW 9991   4.660   0.259   4.902 -0.2262  0.4061  0.2852
 3312SOL    HW1 9992   4.638   0.170   4.930 -2.5371  1.0560  0.6828
 3312SOL    HW2 9993   4.635   0.315   4.975 -0.5567  1.5583 -0.6673
 3313SOL     OW 9994   0.151   2.664   0.928 -0.5277  0.7020  0.1169
 3313SOL    HW1 9995   0.207   2.729   0.972  0.2090 -0.6956  1.3467
 3313SOL    HW2 9996   0.118   2.609   1.000 -1.6490  0.1077 -0.8278
 3314SOL     OW 9997   2.747   1.048   3.957  0.4279 -0.0872 -0.9154
 3314SOL    HW1 9998   2.701   1.098   4.024  3.3643  0.1224  1.1582
 3314SOL    HW2 9999   2.756   1.108   3.883 -2.2800 -0.0771 -1.3060
 3315SOL     OW10000   4.664   4.265   4.339  0.4320 -0.4091 -0.0548
 3315SOL    HW110001   4.662   4.297   4.249 -0.0426 -1.0486 -0.2758
 3315SOL    HW210002   4.576   4.282   4.373  0.4792 -0.5682  0.1505
 3316SOL     OW10003   0.282   4.468   2.799  0.2454 -0.1820  0.4244
 3316SOL    HW110004   0.271   4.416   2.720  1.3157 -1.6416  1.1887
 3316SOL    HW210005   0.216   4.433   2.859  1.1268 -0.8544  1.0233
 3317SOL     OW10006   1.725   4.335   0.053 -0.8265 -0.6848  1.0364
 3317SOL    HW110007   1.670   4.395   0.104 -1.0797  1.1559 -1.2008
 3317SOL    HW210008   1.675   4.253   0.050 -1.3628 -0.4500  2.6539
 3318SOL     OW10009   1.844   4.361   1.608  0.1884 -0.3051 -0.0274
 3318SOL    HW110010   1.785   4.293   1.575 -0.7484  0.3674  0.1994
 3318SOL    HW210011   1.858   4.338   1.700 -3.3563  1.8447  1.2633
 3319SOL     OW10012   0.087   2.722   2.269  0.1665  0.3170  0.0173
 3319SOL    HW110013   0.078   2.630   2.294 -1.6136 -0.3194 -2.5704
 3319SOL    HW210014   0.178   2.731   2.242  0.4818 -0.5421  0.7602
 3320SOL     OW10015   2.714   2.260   4.002  0.1710  0.3865  0.0783
 3320SOL    HW110016   2.716   2.204   4.080  1.1460 -2.6971 -1.9950
 3320SOL    HW210017   2.805   2.290   3.992  0.2772 -0.0917 -0.4256
 3321SOL     OW10018   0.721   3.348   4.866 -0.0200 -0.5012  0.0941
 3321SOL    HW110019   0.730   3.325   4.958  0.0651 -1.1592 -0.0725
 3321SOL    HW210020   0.810   3.339   4.831  0.4345  2.0035  0.4356
 3322SOL     OW10021   3.160   2.647   1.678  0.3451 -0.7267 -0.4526
 3322SOL    HW110022   3.092   2.673   1.740  0.4452 -1.4272 -0.0301
 3322SOL    HW210023   3.210   2.580   1.725  1.1755 -0.3959 -0.8515
 3323SOL     OW10024   0.141   3.862   3.276  0.2209 -1.0866  0.5382
 3323SOL    HW110025   0.149   3.768   3.257 -0.1786 -1.3035  1.4097
 3323SOL    HW210026   0.074   3.893   3.215  0.1554 -1.4225  0.4333
 3324SOL     OW10027   4.254   1.819   0.477  0.0855  0.1734 -0.0723
 3324SOL    HW110028   4.297   1.891   0.431  2.0164  0.4418  1.9539
 3324SOL    HW210029   4.225   1.760   0.408 -0.3047  2.1889 -1.7303
 3325SOL     OW10030   2.731   4.334   4.701 -0.3241 -0.0648  0.2384
 3325SOL    HW110031   2.812   4.333   4.649  0.0759  0.8609  0.8186
 3325SOL    HW210032   2.721   4.425   4.728 -2.0893  0.0327 -0.6120
 3326SOL     OW10033   2.121   3.760   1.628  0.1800 -0.4875  0.6755
 3326SOL    HW110034   2.067   3.838   1.635 -0.1328 -0.4893 -1.1937
 3326SOL    HW210035   2.171   3.757   1.710 -1.0841  0.6779  1.5222
 3327SOL     OW10036   4.523   4.562   4.216  0.4718  0.0712  0.0216
 3327SOL    HW110037   4.544   4.654   4.199 -1.8196  0.4667 -1.1292
 3327SOL    HW210038   4.563   4.515   4.143  1.7587  0.0949  0.6801
 3328SOL     OW10039   1.585   4.861   3.748  0.0028  0.0013 -0.1577
 3328SOL    HW110040   1.547   4.896   3.828 -2.5306  1.0998 -1.7052
 3328SOL    HW210041   1.642   4.931   3.716 -0.3040  0.2561 -0.1550
 3329SOL     OW10042   1.692   3.590   1.479  0.1602  0.9034 -0.5859
 3329SOL    HW110043   1.640   3.671   1.477 -0.9642  0.1868 -1.2125
 3329SOL    HW210044   1.633   3.523   1.445  1.0564 -0.2074  0.0012
 3330SOL     OW10045   0.928   2.924   2.434 -0.1015 -0.2848 -0.7502
 3330SOL    HW110046   0.914   2.851   2.494 -1.1447 -0.2439 -0.9072
 3330SOL    HW210047   0.968   2.885   2.357  1.7816 -0.2427  0.1653
 3331SOL     OW10048   1.813   3.663   2.710 -0.1588 -0.2104 -0.4318
 3331SOL    HW110049   1.900   3.664   2.749  0.2234  2.9155 -1.1472
 3331SOL    HW210050   1.758   3.618   2.774  1.7200 -1.3133  0.4956
 3332SOL     OW10051   2.627   3.701   3.035 -0.5225  0.2874 -0.3632
 3332SOL    HW110052   2.689   3.628   3.039 -1.6757 -0.7023  0.0582
 3332SOL    HW210053   2.664   3.761   2.970  0.8822 -0.2522 -0.0951
 3333SOL     OW10054   1.422   0.907   1.805 -0.3560  0.1355 -0.2952
 3333SOL    HW110055   1.327   0.900   1.795 -0.7075  2.0761  1.0559
 3333SOL    HW210056   1.454   0.817   1.797 -2.4699 -0.7785  0.6762
 3334SOL     OW10057   4.641   3.000   3.740  0.1797  0.0395 -0.3444
 3334SOL    HW110058   4.725   2.964   3.710 -0.3327 -2.3746  0.8670
 3334SOL    HW210059   4.632   3.082   3.692  2.7795 -0.0816 -1.2175
 3335SOL     OW10060   1.522   0.350   1.745 -0.2599  0.1924 -0.2765
 3335SOL    HW110061   1.430   0.340   1.768 -1.0515 -0.0892 -3.1236
 3335SOL    HW210062   1.552   0.260   1.729 -0.5149  0.4559 -2.5945
 3336SOL     OW10063   3.314   4.951   0.500  0.1015 -0.0337  0.2684
 3336SOL    HW110064   3.357   4.975   0.418  0.3311 -1.8989 -0.2004
 3336SOL    HW210065   3.322   4.856   0.505  0.1147  0.0291  2.4808
 3337SOL     OW10066   4.604   3.903   3.223  0.0525  0.0067 -0.8934
 3337SOL    HW110067   4.659   3.828   3.202  0.1472  0.0266 -0.7145
 3337SOL    HW210068   4.579   3.890   3.314 -2.4755 -1.4315 -1.6813
 3338SOL     OW10069   4.537   4.885   3.747 -0.4724  0.3815 -0.3630
 3338SOL    HW110070   4.558   4.913   3.836 -2.1743 -0.7656  0.4428
 3338SOL    HW210071   4.456   4.931   3.726 -0.4442  0.1195 -1.0560
 3339SOL     OW10072   4.837   4.201   0.607  0.2338 -0.6086 -0.3600
 3339SOL    HW110073   4.813   4.274   0.550 -2.5183 -1.1981 -0.1129
 3339SOL    HW210074   4.846   4.241   0.694 -0.4051 -0.3951 -0.3802
 3340SOL     OW10075   1.164   1.834   3.011 -0.4474  0.3121 -0.1870
 3340SOL    HW110076   1.259   1.824   3.004 -0.5102  0.5278 -1.8898
 3340SOL    HW210077   1.130   1.745   3.011 -0.2673  0.2434  0.0041
 3341SOL     OW10078   3.145   3.651   2.378  0.0047 -0.5539 -0.1832
 3341SOL    HW110079   3.064   3.624   2.335 -0.8427  0.0133  1.0202
 3341SOL    HW210080   3.183   3.570   2.410 -0.7029 -0.7076  0.2847
 3342SOL     OW10081   3.223   1.172   0.930 -0.1303 -0.2109  0.3992
 3342SOL    HW110082   3.260   1.143   0.847 -1.3004  0.2359 -0.3078
 3342SOL    HW210083   3.296   1.213   0.976  0.4515 -0.1533 -0.5531
 3343SOL     OW10084   0.404   0.462   0.972 -0.3174 -0.0209  0.1361
 3343SOL    HW110085   0.331   0.401   0.986  1.2631 -1.5495  2.3761
 3343SOL    HW210086   0.477   0.422   1.018  0.9678  3.3871  1.3250
 3344SOL     OW10087   2.891   3.592   2.326  0.0858  0.2367 -0.0593
 3344SOL    HW110088   2.805   3.634   2.324  1.0529  2.4315  0.8085
 3344SOL    HW210089   2.875   3.501   2.299 -2.4204  0.6737 -0.2323
 3345SOL     OW10090   1.455   4.073   1.424  0.1992  0.2086 -0.1173
 3345SOL    HW110091   1.383   4.068   1.488  0.8927  1.3624  0.7969
 3345SOL    HW210092   1.463   4.166   1.404 -0.0179 -0.1343 -1.9585
 3346SOL     OW10093   0.949   3.720   4.158  0.2130 -0.2962 -0.3846
 3346SOL    HW110094   1.010   3.767   4.215  0.5375 -1.8627  0.6234
 3346SOL    HW210095   0.862   3.751   4.185  0.4523  0.1967 -0.1790
 3347SOL     OW10096   4.145   3.315   4.567 -0.4827 -0.7206 -0.3896
 3347SOL    HW110097   4.125   3.277   4.481  0.2939 -1.0360 -0.4443
 3347SOL    HW210098   4.123   3.408   4.557 -1.3820 -0.9448 -0.5930
 3348SOL     OW10099   4.517   3.149   1.618  0.0550 -0.3443  0.1831
 3348SOL    HW110100   4.597   3.157   1.670  1.0953 -1.2255 -1.2214
 3348SOL    HW210101   4.508   3.055   1.603 -0.7424 -0.1708 -0.4509
 3349SOL     OW10102   4.903   2.360   0.405 -0.1420  0.3339  0.0335
 3349SOL    HW110103   4.882   2.328   0.492 -0.8665  1.5815  0.3444
 3349SOL    HW210104   4.979   2.309   0.378 -1.5026 -1.9544  0.2817
 3350SOL     OW10105   2.042   2.340   0.255  0.0926 -0.3638 -0.2904
 3350SOL    HW110106   2.071   2.258   0.215  1.0329 -0.4111  0.4631
 3350SOL    HW210107   2.082   2.340   0.341  0.3180  1.0191 -0.3775
 3351SOL     OW10108   1.429   2.310   4.028 -0.5314 -0.3748 -0.4692
 3351SOL    HW110109   1.412   2.392   4.075 -1.5268 -1.3994  1.0812
 3351SOL    HW210110   1.342   2.270   4.019  0.0612 -1.8063 -0.0807
 3352SOL     OW10111   2.937   0.195   0.173  0.1939  0.0389  0.4291
 3352SOL    HW110112   2.959   0.135   0.244 -2.1247 -1.0775  0.2965
 3352SOL    HW210113   2.950   0.282   0.211  0.2796 -0.5344  1.7882
 3353SOL     OW10114   3.821   1.542   4.269 -0.0138  0.3115 -0.2230
 3353SOL    HW110115   3.861   1.571   4.187 -1.6349 -0.4319 -1.3129
 3353SOL    HW210116   3.727   1.546   4.253 -0.3679 -0.2008  1.4961
 3354SOL     OW10117   3.419   1.795   0.448  0.1675 -0.1034  1.4407
 3354SOL    HW110118   3.385   1.739   0.378  0.6441 -0.2306  1.3119
 3354SOL    HW210119   3.348   1.857   0.465  0.7474  1.1532 -0.4512
 3355SOL     OW10120   2.034   4.973   3.224  0.6332 -0.2356  0.5030
 3355SOL    HW110121   2.121   4.988   3.261  1.0373  1.6420 -1.0639
 3355SOL    HW210122   2.047   4.978   3.129 -1.1423 -0.0551  0.2398
 3356SOL     OW10123   4.224   2.170   3.482  0.1764 -0.0056  0.7478
 3356SOL    HW110124   4.312   2.189   3.515  0.1668  0.9467  0.2844
 3356SOL    HW210125   4.192   2.100   3.538  0.3905  1.1322  2.3853
 3357SOL     OW10126   0.301   3.995   3.463  0.0619 -0.0718  0.2957
 3357SOL    HW110127   0.256   3.959   3.386  0.5065  2.5831 -1.3243
 3357SOL    HW210128   0.230   4.028   3.518 -0.1707  0.2581 -0.1885
 3358SOL     OW10129   3.833   4.419   4.638  0.4601  0.0004 -0.2215
 3358SOL    HW110130   3.743   4.393   4.619  0.3735 -0.0472  0.2530
 3358SOL    HW210131   3.833   4.515   4.629  1.0105 -0.1523 -2.9806
 3359SOL     OW10132   3.565   3.789   3.526  0.0278 -0.4068 -0.2317
 3359SOL    HW110133   3.622   3.757   3.597  0.0997  0.9573  0.3549
 3359SOL    HW210134   3.605   3.755   3.446  0.5789 -1.0539  0.3066
 3360SOL     OW10135   3.036   3.898   1.898  0.2029 -0.0636 -0.5072
 3360SOL    HW110136   2.964   3.909   1.835 -0.5777  0.6440  0.4758
 3360SOL    HW210137   3.003   3.833   1.960  0.3719  0.3326  0.0047
 3361SOL     OW10138   0.430   1.971   4.775  0.2023  0.5122  0.2554
 3361SOL    HW110139   0.376   1.956   4.698  0.5567 -0.7742  0.2294
 3361SOL    HW210140   0.480   2.050   4.755  0.2809  0.1959 -0.8375
 3362SOL     OW10141   4.365   3.544   2.679  0.0180 -0.0594 -0.4426
 3362SOL    HW110142   4.400   3.492   2.607  1.2739  1.6955 -1.1743
 3362SOL    HW210143   4.422   3.622   2.683 -1.9061  1.3916  0.4119
 3363SOL     OW10144   4.870   3.065   4.627 -0.4502  0.0359 -0.0459
 3363SOL    HW110145   4.876   3.155   4.661 -2.6554  0.4935 -0.6533
 3363SOL    HW210146   4.954   3.025   4.648  0.4459  2.1208  0.6079
 3364SOL     OW10147   2.957   4.637   4.794 -0.4134  0.0785 -0.0013
 3364SOL    HW110148   3.007   4.559   4.816 -0.2231 -0.0160 -0.7546
 3364SOL    HW210149   2.976   4.653   4.702  0.2234  1.5099  0.3518
 3365SOL     OW10150   1.968   0.309   4.581  0.5516 -0.1883  0.7980
 3365SOL    HW110151   2.038   0.299   4.646  1.6573  0.7761 -0.1798
 3365SOL    HW210152   2.013   0.297   4.497 -0.5488  0.0450  0.1579
 3366SOL     OW10153   0.120   3.604   0.652 -0.4309 -0.4105 -0.4543
 3366SOL    HW110154   0.137   3.528   0.708 -1.7730  0.1451  0.7642
 3366SOL    HW210155   0.079   3.668   0.710  1.4633  1.6201 -1.2189
 3367SOL     OW10156   2.872   1.703   1.811 -0.3364  0.3758 -0.0793
 3367SOL    HW110157   2.786   1.663   1.802 -0.8351  1.4092  0.0234
 3367SOL    HW210158   2.891   1.701   1.904  0.4818 -1.3007 -0.2323
 3368SOL     OW10159   2.257   4.787   4.005 -0.4590 -0.3837 -0.0842
 3368SOL    HW110160   2.168   4.801   3.972 -0.5992 -0.7384  0.1359
 3368SOL    HW210161   2.252   4.704   4.052 -0.7370  0.9002  2.3510
 3369SOL     OW10162   3.005   4.949   3.470  0.1957  0.0856 -0.5394
 3369SOL    HW110163   3.070   4.989   3.528  0.4657  0.7914 -1.3123
 3369SOL    HW210164   3.026   4.983   3.383 -0.1055 -1.0769 -1.0939
 3370SOL     OW10165   0.328   0.338   4.788 -0.7243  0.0619  0.2891
 3370SOL    HW110166   0.257   0.302   4.841 -0.6368 -0.0884  0.3079
 3370SOL    HW210167   0.383   0.262   4.767 -1.7626 -0.2070 -1.6151
 3371SOL     OW10168   3.669   0.359   0.103  0.3236 -0.2464 -0.3367
 3371SOL    HW110169   3.606   0.394   0.040  1.3282 -0.2514 -1.3710
 3371SOL    HW210170   3.642   0.268   0.116 -1.0333  0.2672  0.7513
 3372SOL     OW10171   4.513   2.184   3.548  0.1192  0.4440 -0.1316
 3372SOL    HW110172   4.597   2.140   3.537 -0.4523 -0.0299 -3.7881
 3372SOL    HW210173   4.536   2.277   3.552  0.8629  0.3056 -0.7887
 3373SOL     OW10174   1.174   2.893   1.910 -0.3226  0.3551  0.5183
 3373SOL    HW110175   1.224   2.849   1.841  0.5121  3.1431 -0.8376
 3373SOL    HW210176   1.241   2.931   1.967 -0.8194  2.6247 -0.2935
 3374SOL     OW10177   1.308   0.295   2.182  0.3394 -0.3935  0.2227
 3374SOL    HW110178   1.382   0.235   2.174  1.5073  0.9826  0.4249
 3374SOL    HW210179   1.286   0.293   2.275  1.5545  0.8052  0.5720
 3375SOL     OW10180   1.586   4.148   2.562  0.3509  0.0394  0.1030
 3375SOL    HW110181   1.617   4.066   2.599  0.7271  0.6223  1.1302
 3375SOL    HW210182   1.520   4.122   2.498  1.0095 -1.0914 -0.1454
 3376SOL     OW10183   3.709   0.349   1.492 -0.2126 -0.1815  0.0774
 3376SOL    HW110184   3.699   0.443   1.477 -1.1420 -0.1594  0.7899
 3376SOL    HW210185   3.635   0.310   1.447 -0.0742 -0.5420  0.1603
 3377SOL     OW10186   2.900   2.795   3.921  0.4058  0.2748  0.3173
 3377SOL    HW110187   2.855   2.877   3.904 -0.5107 -0.2385  0.1908
 3377SOL    HW210188   2.962   2.786   3.848  1.1920  1.3070  0.8453
 3378SOL     OW10189   2.949   4.369   4.507  0.6268 -0.0262  0.3708
 3378SOL    HW110190   2.991   4.409   4.430  0.3978  0.0937  0.3075
 3378SOL    HW210191   3.018   4.314   4.545  0.8220  0.1138  0.2275
 3379SOL     OW10192   4.039   2.733   4.856  0.0859  0.1417 -0.1781
 3379SOL    HW110193   4.071   2.653   4.898  1.2575  0.2763 -0.8027
 3379SOL    HW210194   4.090   2.803   4.896  0.7989  0.3287 -1.3831
 3380SOL     OW10195   0.421   2.531   2.404 -0.3212 -0.7307 -0.1370
 3380SOL    HW110196   0.414   2.619   2.368 -1.9019 -0.7802 -0.0301
 3380SOL    HW210197   0.480   2.485   2.345 -0.9910 -0.1346 -1.2901
 3381SOL     OW10198   3.374   0.890   0.360  0.4677  0.0052 -0.2978
 3381SOL    HW110199   3.390   0.891   0.454 -1.2043  0.2935  0.0086
 3381SOL    HW210200   3.322   0.812   0.345 -0.7940  0.8919 -0.6904
 3382SOL     OW10201   0.327   2.945   4.276  0.6217 -0.0777 -0.2243
 3382SOL    HW110202   0.236   2.960   4.252  1.0317  0.4051 -1.5727
 3382SOL    HW210203   0.330   2.962   4.370 -0.2609  2.1332 -0.5285
 3383SOL     OW10204   0.314   3.595   3.516  0.2442  0.4222  0.4313
 3383SOL    HW110205   0.345   3.569   3.602  0.9164  1.9200  0.6722
 3383SOL    HW210206   0.223   3.623   3.530  0.1266 -0.0036  0.5159
 3384SOL     OW10207   0.621   4.732   1.455 -0.2595 -0.2265 -0.4388
 3384SOL    HW110208   0.661   4.806   1.411 -1.0099  1.3076  1.3013
 3384SOL    HW210209   0.687   4.703   1.519 -0.2927 -0.4831 -0.5211
 3385SOL     OW10210   1.427   4.714   2.301  0.6717 -0.4013  0.7579
 3385SOL    HW110211   1.429   4.629   2.346 -1.8833  0.2346  2.3238
 3385SOL    HW210212   1.514   4.752   2.315  1.5096 -2.2868  0.9242
 3386SOL     OW10213   4.812   2.406   0.674  1.0465  0.0793 -0.4288
 3386SOL    HW110214   4.897   2.449   0.672  0.9730  0.2943 -3.5636
 3386SOL    HW210215   4.758   2.461   0.731  2.2833  1.4064 -0.4875
 3387SOL     OW10216   4.550   4.513   3.897 -0.0121  0.4884  0.3173
 3387SOL    HW110217   4.479   4.562   3.938 -0.6166 -0.5601  0.5716
 3387SOL    HW210218   4.578   4.568   3.824 -0.8042  1.1211  0.4696
 3388SOL     OW10219   3.561   1.119   1.689  0.2975 -0.1569  0.4114
 3388SOL    HW110220   3.504   1.179   1.738 -0.0403 -0.0647 -0.0807
 3388SOL    HW210221   3.546   1.034   1.729  0.5653  0.0360  0.9322
 3389SOL     OW10222   0.409   4.763   1.925 -0.1590  0.0700  0.0655
 3389SOL    HW110223   0.422   4.670   1.942  0.3212  0.1007 -0.1260
 3389SOL    HW210224   0.494   4.803   1.941 -0.3807  0.4890  0.2147
 3390SOL     OW10225   4.710   3.745   2.005 -0.5943 -0.0227  0.2910
 3390SOL    HW110226   4.698   3.777   2.094  1.1015 -1.3712  1.0556
 3390SOL    HW210227   4.746   3.658   2.015 -0.7127 -0.3658 -1.7422
 3391SOL     OW10228   1.346   2.070   2.395  0.1132  0.3246 -0.3222
 3391SOL    HW110229   1.286   2.142   2.377 -0.8819 -0.6009 -0.8179
 3391SOL    HW210230   1.380   2.045   2.309  1.9017  1.3681  0.0116
 3392SOL     OW10231   2.913   1.814   4.419  0.6093  0.1094 -0.4751
 3392SOL    HW110232   2.904   1.796   4.326  1.9779 -1.3810 -0.3602
 3392SOL    HW210233   2.997   1.859   4.427 -0.2653  1.7226 -0.1216
 3393SOL     OW10234   3.479   3.175   3.438 -0.0271 -0.2877 -0.3078
 3393SOL    HW110235   3.496   3.266   3.462 -1.7916  0.4318 -1.5757
 3393SOL    HW210236   3.459   3.132   3.521  0.9601  0.4101  0.3266
 3394SOL     OW10237   3.054   4.799   3.019  0.1844 -0.1344 -0.2380
 3394SOL    HW110238   2.979   4.766   3.069  0.3489 -1.2105 -0.6589
 3394SOL    HW210239   3.099   4.859   3.079 -0.9269  0.4178  0.0630
 3395SOL     OW10240   1.615   0.198   2.884 -0.8267  0.4456  0.3777
 3395SOL    HW110241   1.528   0.199   2.923 -0.8618  1.8262  0.3176
 3395SOL    HW210242   1.613   0.124   2.823 -0.5423 -2.2277  3.3596
 3396SOL     OW10243   1.989   2.174   3.524 -0.3543  0.0106  0.3652
 3396SOL    HW110244   1.978   2.139   3.613 -0.4369 -0.0485  0.3316
 3396SOL    HW210245   2.074   2.218   3.526 -1.1296  1.5843  1.0054
 3397SOL     OW10246   1.713   1.934   2.341  0.0517  0.0629 -0.7219
 3397SOL    HW110247   1.805   1.925   2.314  0.2579  0.5613 -0.2100
 3397SOL    HW210248   1.682   1.844   2.351  0.7764 -0.1172  0.0350
 3398SOL     OW10249   2.445   3.825   0.310  0.9311 -0.1922  0.6451
 3398SOL    HW110250   2.539   3.808   0.307  1.1573  1.0376 -0.5459
 3398SOL    HW210251   2.411   3.786   0.230  0.2752 -1.3006  1.4415
 3399SOL     OW10252   4.711   0.879   1.648 -0.2904 -0.4012  0.2465
 3399SOL    HW110253   4.729   0.848   1.559 -0.1536 -0.3462  0.2545
 3399SOL    HW210254   4.616   0.895   1.649 -0.0188  1.5511 -0.5220
 3400SOL     OW10255   4.662   2.693   4.965  0.0702  0.5667 -0.3205
 3400SOL    HW110256   4.619   2.686   4.880 -1.0913 -1.6577  0.3822
 3400SOL    HW210257   4.695   2.605   4.983  0.2650  0.9751  1.5520
 3401SOL     OW10258   0.657   0.310   4.374 -0.1909  0.2584  0.0459
 3401SOL    HW110259   0.729   0.302   4.437 -0.7378  0.0889  0.6598
 3401SOL    HW210260   0.682   0.252   4.302 -0.4998 -1.1300  1.0228
 3402SOL     OW10261   3.228   4.929   1.268  0.4555  0.0515  0.5837
 3402SOL    HW110262   3.180   4.866   1.214  0.7659  0.3838 -0.0870
 3402SOL    HW210263   3.257   4.878   1.344 -0.8624 -0.1761  0.9526
 3403SOL     OW10264   2.225   1.992   4.370 -0.1619  0.3144  0.0445
 3403SOL    HW110265   2.233   1.897   4.382 -0.2037  0.0146 -1.8396
 3403SOL    HW210266   2.295   2.029   4.422 -1.3884 -0.5781  2.4752
 3404SOL     OW10267   0.018   0.270   4.524 -0.3903  0.2903 -0.1205
 3404SOL    HW110268  -0.012   0.272   4.615  1.4669  2.7199  0.5380
 3404SOL    HW210269  -0.014   0.351   4.486 -0.9494 -0.5931 -1.6333
 3405SOL     OW10270   4.335   1.507   3.896 -0.2126 -0.1430 -0.0538
 3405SOL    HW110271   4.252   1.519   3.943  0.2469 -1.4995  1.1792
 3405SOL    HW210272   4.402   1.525   3.961  0.4762  0.3692 -0.8876
 3406SOL     OW10273   1.494   1.101   4.963  0.4089 -0.3122 -0.2940
 3406SOL    HW110274   1.447   1.156   5.025 -0.4170 -2.2708  0.9334
 3406SOL    HW210275   1.575   1.078   5.007  0.5602 -0.4180 -0.6207
 3407SOL     OW10276   0.935   4.259   1.398  0.4816  0.0098  0.1371
 3407SOL    HW110277   0.891   4.185   1.440  1.5793 -0.6311  0.1888
 3407SOL    HW210278   0.896   4.336   1.440 -1.0462 -0.4885 -0.2776
 3408SOL     OW10279   3.930   0.583   3.166 -0.1905 -0.0220  0.0145
 3408SOL    HW110280   3.908   0.633   3.245  0.8445  0.9574 -0.2835
 3408SOL    HW210281   3.871   0.617   3.099  0.0377  0.3066 -0.0202
 3409SOL     OW10282   0.876   0.102   3.722  0.3695 -0.6692 -0.0075
 3409SOL    HW110283   0.848   0.011   3.737 -0.8774 -0.0643  1.6124
 3409SOL    HW210284   0.888   0.137   3.810  1.2721  0.6315 -0.6281
 3410SOL     OW10285   1.593   0.280   0.802 -0.4446  0.1124 -0.2948
 3410SOL    HW110286   1.577   0.335   0.878 -0.3549  0.6281 -0.6453
 3410SOL    HW210287   1.671   0.230   0.825 -0.0098  0.7719 -0.3249
 3411SOL     OW10288   4.263   4.517   1.658  0.4269 -0.0620  0.0387
 3411SOL    HW110289   4.194   4.452   1.644  0.4475  0.1092 -0.9937
 3411SOL    HW210290   4.223   4.582   1.716  0.5707 -1.2101  1.4844
 3412SOL     OW10291   0.947   2.228   1.823  0.2238 -0.3201  0.7783
 3412SOL    HW110292   0.962   2.322   1.824  0.1859 -0.3110  1.4900
 3412SOL    HW210293   0.868   2.216   1.877  0.4338 -0.7858  0.9930
 3413SOL     OW10294   1.286   0.228   1.802  0.0876 -0.6664  0.3849
 3413SOL    HW110295   1.314   0.153   1.855 -0.1404 -0.8489  0.2500
 3413SOL    HW210296   1.190   0.228   1.810 -0.0362 -1.2870 -0.8166
 3414SOL     OW10297   3.578   3.026   3.227 -0.0676 -0.1347  0.5794
 3414SOL    HW110298   3.662   3.000   3.265  0.4623  1.4189  0.5493
 3414SOL    HW210299   3.532   3.071   3.299 -1.9054 -2.9503  1.3153
 3415SOL     OW10300   3.983   2.994   3.286 -0.3787 -0.1147 -0.1327
 3415SOL    HW110301   4.078   3.002   3.281 -0.5191  2.0572 -0.3790
 3415SOL    HW210302   3.967   2.956   3.372  0.6609  2.2166  1.1786
 3416SOL     OW10303   1.416   4.229   4.671  0.3361  0.0996 -0.0895
 3416SOL    HW110304   1.454   4.226   4.759  4.8063 -0.0465 -1.7859
 3416SOL    HW210305   1.417   4.139   4.641  0.1222  0.3151 -0.7565
 3417SOL     OW10306   1.990   3.790   4.260 -0.1113 -0.1338 -0.2011
 3417SOL    HW110307   2.082   3.783   4.287 -0.5025 -2.0893  0.8927
 3417SOL    HW210308   1.957   3.866   4.307  0.4927 -0.5464  0.9405
 3418SOL     OW10309   0.830   1.022   0.359  0.6462  0.2001  0.3322
 3418SOL    HW110310   0.863   0.940   0.395  2.0512  1.2374  1.5404
 3418SOL    HW210311   0.761   1.049   0.420  1.5331  0.8586  1.0872
 3419SOL     OW10312   1.543   4.201   3.193 -0.4735  0.2998 -0.1690
 3419SOL    HW110313   1.484   4.249   3.252 -0.7882  0.9997 -1.0406
 3419SOL    HW210314   1.595   4.146   3.252  0.2459  2.0615  0.9267
 3420SOL     OW10315   3.370   4.724   3.224  0.0817  0.2994  0.0516
 3420SOL    HW110316   3.423   4.671   3.284 -0.6997  1.5350  1.9268
 3420SOL    HW210317   3.425   4.800   3.204 -0.8810  1.6016  2.0293
 3421SOL     OW10318   4.509   2.285   0.646 -0.1637  0.0934  0.3015
 3421SOL    HW110319   4.429   2.281   0.699 -0.7668  4.5166  0.0520
 3421SOL    HW210320   4.576   2.316   0.706  1.4995 -3.2045  0.4080
 3422SOL     OW10321   4.854   0.771   1.414 -0.3908  0.2425  0.1205
 3422SOL    HW110322   4.844   0.824   1.335 -0.2209 -0.2165 -0.2117
 3422SOL    HW210323   4.915   0.702   1.389  0.4104  0.6427  0.9277
 3423SOL     OW10324   2.078   3.730   2.893  0.1373 -0.1426  0.1414
 3423SOL    HW110325   2.028   3.776   2.961  2.5573  0.2594  1.7638
 3423SOL    HW210326   2.096   3.644   2.932  1.1720 -0.0732 -0.1743
 3424SOL     OW10327   4.517   3.219   3.531 -0.2387  0.3302  0.1066
 3424SOL    HW110328   4.434   3.231   3.577  0.4602 -2.3200  2.3071
 3424SOL    HW210329   4.509   3.134   3.488  0.9942  0.4901 -0.4884
 3425SOL     OW10330   0.824   1.887   4.158 -0.2595  0.3418 -0.4441
 3425SOL    HW110331   0.731   1.872   4.141 -0.3712 -0.9444  1.1251
 3425SOL    HW210332   0.864   1.801   4.149  0.2408  0.2695  1.9678
 3426SOL     OW10333   3.610   0.105   0.065  0.0274 -0.2065  0.9194
 3426SOL    HW110334   3.579   0.079  -0.022 -0.2217  0.5949  0.7631
 3426SOL    HW210335   3.676   0.039   0.087  0.7420  0.0641 -0.2722
 3427SOL     OW10336   0.955   1.006   0.801  0.2444 -0.0950 -0.5268
 3427SOL    HW110337   0.944   0.914   0.777 -1.5798 -0.7184  2.2462
 3427SOL    HW210338   0.878   1.049   0.767  1.4430  0.6582 -2.4644
 3428SOL     OW10339   0.404   4.123   4.059  0.1280  0.0028  0.5214
 3428SOL    HW110340   0.369   4.212   4.066 -0.0691 -0.0336  0.0065
 3428SOL    HW210341   0.391   4.099   3.967  1.0165 -0.2077  0.4417
 3429SOL     OW10342   1.969   3.882   2.143 -0.1652 -0.9276 -0.1328
 3429SOL    HW110343   1.953   3.790   2.160 -1.9899 -0.7522 -0.5789
 3429SOL    HW210344   2.060   3.887   2.117 -0.0326 -2.5972 -0.0884
 3430SOL     OW10345   1.301   0.542   3.406 -0.0266 -0.2256 -0.7170
 3430SOL    HW110346   1.361   0.489   3.353  1.6935  0.2958  0.6179
 3430SOL    HW210347   1.279   0.486   3.480  2.0464  0.9016  0.8638
 3431SOL     OW10348   0.122   2.041   1.497 -0.0408  0.0033  0.5170
 3431SOL    HW110349   0.208   2.000   1.511 -0.5887 -1.0128  0.9863
 3431SOL    HW210350   0.142   2.133   1.478  1.1221 -0.1208  1.0787
 3432SOL     OW10351   2.507   4.807   0.737  0.0686 -0.5336  0.4682
 3432SOL    HW110352   2.575   4.785   0.673  1.0500 -0.4671  1.4532
 3432SOL    HW210353   2.518   4.901   0.752 -0.3199 -0.5002  0.5407
 3433SOL     OW10354   4.781   3.022   1.020 -0.3104 -0.2640 -0.5299
 3433SOL    HW110355   4.700   2.972   1.030 -0.2493 -0.2305  0.1587
 3433SOL    HW210356   4.776   3.058   0.932 -1.9309  1.2835  0.1402
 3434SOL     OW10357   3.522   3.695   0.190 -0.5042  0.3115  0.9401
 3434SOL    HW110358   3.436   3.652   0.195 -0.8879  1.0644  0.9487
 3434SOL    HW210359   3.504   3.780   0.149  0.3991  0.0438 -0.0615
 3435SOL     OW10360   2.977   2.246   1.061 -0.6030 -0.4543 -0.0579
 3435SOL    HW110361   3.014   2.280   0.979 -2.0619  0.0459 -0.5532
 3435SOL    HW210362   3.018   2.298   1.130 -1.5482  1.2488 -0.6974
 3436SOL     OW10363   1.066   3.352   2.863  0.4898  0.0330 -0.0576
 3436SOL    HW110364   1.080   3.282   2.927  2.7928  0.6192  0.1752
 3436SOL    HW210365   1.019   3.420   2.911 -2.6206 -1.6087 -0.5335
 3437SOL     OW10366   0.422   2.638   1.474  0.2913  0.0554 -0.4955
 3437SOL    HW110367   0.455   2.591   1.551 -2.8106 -2.4124 -0.4614
 3437SOL    HW210368   0.453   2.587   1.400  1.1729  0.9949 -0.7992
 3438SOL     OW10369   3.039   1.499   3.472  0.1620  0.1165 -0.2619
 3438SOL    HW110370   3.030   1.471   3.381  1.1294 -1.8494  0.1790
 3438SOL    HW210371   2.963   1.554   3.488 -1.3374 -1.4411 -1.6045
 3439SOL     OW10372   2.508   1.698   4.034  0.0518 -0.4180  0.2401
 3439SOL    HW110373   2.510   1.649   4.116 -0.2637  0.5125  0.8252
 3439SOL    HW210374   2.475   1.785   4.059 -0.3322 -0.2138 -0.9221
 3440SOL     OW10375   4.508   3.861   4.626  0.0218  0.0679 -0.1068
 3440SOL    HW110376   4.489   3.823   4.712 -2.0354 -1.6270 -1.2151
 3440SOL    HW210377   4.580   3.922   4.643  2.4382 -2.9921  2.1847
 3441SOL     OW10378   0.092   1.580   2.706 -0.0688  1.3039 -0.1035
 3441SOL    HW110379   0.104   1.496   2.751 -1.0001  0.6975 -0.9473
 3441SOL    HW210380   0.118   1.646   2.771  0.9749  0.3597  0.4660
 3442SOL     OW10381   3.169   3.140   1.301 -0.3781  0.0863  0.1990
 3442SOL    HW110382   3.194   3.059   1.256  1.8443  0.8872 -0.1019
 3442SOL    HW210383   3.178   3.208   1.234  0.2894  0.9224  1.1177
 3443SOL     OW10384   2.387   1.342   1.996  0.5610  0.0716  0.1677
 3443SOL    HW110385   2.328   1.268   2.009  0.3288  0.5383  1.8954
 3443SOL    HW210386   2.470   1.313   2.034  0.9863  0.0677 -0.7246
 3444SOL     OW10387   0.171   0.829   1.812  0.0891 -0.0372 -0.5873
 3444SOL    HW110388   0.218   0.848   1.730 -0.6404  0.3352 -0.9326
 3444SOL    HW210389   0.237   0.789   1.869  0.7079  0.0625 -1.2168
 3445SOL     OW10390   1.307   3.680   1.467 -0.1916  0.6932  0.1709
 3445SOL    HW110391   1.264   3.631   1.396  1.7676  0.2917 -0.8192
 3445SOL    HW210392   1.368   3.738   1.421  2.2214 -0.6205  1.4945
 3446SOL     OW10393   4.932   4.327   1.034 -1.0085 -0.0861  0.4050
 3446SOL    HW110394   4.922   4.410   1.079 -0.2488  0.1309  0.1876
 3446SOL    HW210395   4.855   4.321   0.977  0.2293  1.7522 -1.5837
 3447SOL     OW10396   4.756   4.356   0.846  0.4321  0.6643 -0.1964
 3447SOL    HW110397   4.673   4.318   0.873 -0.0412  0.9560 -1.1684
 3447SOL    HW210398   4.731   4.439   0.805  1.3837  1.7615  1.3567
 3448SOL     OW10399   0.573   3.661   3.063 -0.2632 -0.0346  0.0390
 3448SOL    HW110400   0.637   3.728   3.040 -1.0321  0.2776 -1.3117
 3448SOL    HW210401   0.529   3.696   3.141  1.0467 -0.1750  0.8769
 3449SOL     OW10402   0.457   2.080   3.300  0.1471  0.5334  0.1159
 3449SOL    HW110403   0.532   2.121   3.344  0.0008  0.1230  0.7795
 3449SOL    HW210404   0.381   2.105   3.353 -0.0316 -0.0057  0.1255
 3450SOL     OW10405   0.467   3.065   0.692 -0.4644  0.0042  0.4674
 3450SOL    HW110406   0.377   3.037   0.672 -0.2376 -0.4289  0.0251
 3450SOL    HW210407   0.506   2.990   0.737 -0.5431  0.4630  1.3074
 3451SOL     OW10408   3.301   0.457   3.629 -0.0254 -0.4015  0.3530
 3451SOL    HW110409   3.280   0.434   3.720 -0.2655 -0.5427  0.2622
 3451SOL    HW210410   3.373   0.398   3.605  1.1831  0.7460  0.9877
 3452SOL     OW10411   2.533   0.559   4.522 -0.1583 -0.0558 -0.2166
 3452SOL    HW110412   2.502   0.518   4.602  0.0382  0.4475  0.1240
 3452SOL    HW210413   2.590   0.630   4.552  0.4228 -0.2685 -0.8135
 3453SOL     OW10414   3.920   4.701   0.830 -0.1444  0.1213  0.4143
 3453SOL    HW110415   3.883   4.661   0.908  0.3485  0.6305  0.9173
 3453SOL    HW210416   3.901   4.795   0.840  1.2512  0.3917  0.6799
 3454SOL     OW10417   1.799   3.720   4.670 -0.1988 -0.0653 -0.1926
 3454SOL    HW110418   1.841   3.651   4.619  0.1141  0.1745 -0.2684
 3454SOL    HW210419   1.862   3.792   4.668  0.4037 -0.5034  1.6239
 3455SOL     OW10420   4.221   0.779   2.903  0.1760  0.1308  0.0129
 3455SOL    HW110421   4.169   0.830   2.841 -0.3344  1.1363  1.2185
 3455SOL    HW210422   4.203   0.688   2.881 -1.1110  0.4684 -0.4090
 3456SOL     OW10423   2.473   2.412   1.349 -0.9091 -0.2653 -0.0093
 3456SOL    HW110424   2.486   2.333   1.401 -1.0602 -0.0373  0.3826
 3456SOL    HW210425   2.560   2.453   1.345 -0.8337 -0.4451 -0.2028
 3457SOL     OW10426   1.261   1.098   0.153 -0.2997  0.1226 -0.3277
 3457SOL    HW110427   1.214   1.055   0.081  1.2539  0.2633 -1.4687
 3457SOL    HW210428   1.221   1.062   0.232 -0.7668 -1.4826 -1.2517
 3458SOL     OW10429   1.494   3.430   2.655  0.4170 -0.4063  0.1620
 3458SOL    HW110430   1.541   3.471   2.728  0.2973  0.4115 -0.2032
 3458SOL    HW210431   1.402   3.445   2.675  0.3647 -0.6651  0.1156
 3459SOL     OW10432   4.959   1.771   2.152 -0.1082  0.1001  0.1095
 3459SOL    HW110433   4.996   1.859   2.163  0.0950  0.1559 -0.8498
 3459SOL    HW210434   5.018   1.730   2.088 -1.2220 -0.1079 -0.8088
 3460SOL     OW10435   2.500   1.220   4.833  0.7786 -0.7340  0.4467
 3460SOL    HW110436   2.535   1.235   4.921  1.1021  0.5041  0.1176
 3460SOL    HW210437   2.510   1.303   4.788  0.6955 -1.3724 -0.8005
 3461SOL     OW10438   0.598   1.822   2.960  0.2999  0.8733  0.3333
 3461SOL    HW110439   0.543   1.812   2.882  0.1792  0.6513  0.4454
 3461SOL    HW210440   0.639   1.736   2.971  0.5336  0.9859  0.3532
 3462SOL     OW10441   1.619   3.389   0.600  0.3589 -0.2175  0.2989
 3462SOL    HW110442   1.691   3.428   0.550 -0.5129  0.6581 -0.3167
 3462SOL    HW210443   1.546   3.449   0.587 -0.3397 -0.8066  1.3555
 3463SOL     OW10444   2.596   4.491   0.696  0.2029  0.2605  0.1510
 3463SOL    HW110445   2.685   4.459   0.711 -0.0193 -1.0233 -1.0906
 3463SOL    HW210446   2.573   4.536   0.777  2.0241  0.7331  0.4492
 3464SOL     OW10447   0.230   4.149   2.640  0.1349 -0.5486 -0.1838
 3464SOL    HW110448   0.270   4.225   2.598 -0.7500  0.0714  0.0649
 3464SOL    HW210449   0.136   4.161   2.628 -0.1347 -0.5239  1.6566
 3465SOL     OW10450   3.232   4.328   1.650  0.3247 -0.3837 -0.4547
 3465SOL    HW110451   3.214   4.247   1.698 -1.7229  0.4340  0.2749
 3465SOL    HW210452   3.292   4.301   1.581  2.7817 -1.7651  2.0294
 3466SOL     OW10453   4.726   3.674   3.172 -0.7269  0.4521  0.2218
 3466SOL    HW110454   4.753   3.673   3.080 -0.6643  1.8368  0.2089
 3466SOL    HW210455   4.783   3.609   3.214 -0.6309 -0.0566 -0.6795
 3467SOL     OW10456   0.985   4.977   1.006 -0.1123  0.6176  0.4407
 3467SOL    HW110457   1.008   4.901   0.953 -0.0386  0.7319  0.3092
 3467SOL    HW210458   0.966   5.046   0.943 -0.2139  0.6995  0.5597
 3468SOL     OW10459   0.016   4.802   4.540  0.2177 -0.1485  0.3961
 3468SOL    HW110460   0.024   4.710   4.562  0.7553  0.1933  1.6968
 3468SOL    HW210461   0.086   4.818   4.476 -0.2565 -0.7546 -0.2944
 3469SOL     OW10462   2.468   2.689   1.357  0.1509  0.2882 -0.2252
 3469SOL    HW110463   2.468   2.593   1.354 -0.4935  0.2848 -2.7163
 3469SOL    HW210464   2.560   2.713   1.350  0.2957 -0.1331  0.1695
 3470SOL     OW10465   3.762   0.871   1.340  0.5561 -0.2375 -0.0354
 3470SOL    HW110466   3.844   0.871   1.291  0.6485  0.6723  0.1014
 3470SOL    HW210467   3.694   0.881   1.273  0.5160 -1.4016 -0.1875
 3471SOL     OW10468   2.026   1.995   2.098 -1.2238 -0.6718  0.0630
 3471SOL    HW110469   2.107   2.023   2.140 -1.0277 -0.0995 -0.6736
 3471SOL    HW210470   1.997   1.919   2.148 -0.4907 -0.5795  0.6281
 3472SOL     OW10471   3.308   3.212   2.312  0.2170  0.2404  0.0503
 3472SOL    HW110472   3.243   3.218   2.382  0.3898 -0.1852  0.2512
 3472SOL    HW210473   3.385   3.176   2.354  1.0557  2.0079  0.1230
 3473SOL     OW10474   4.653   3.955   2.533  0.4552 -0.2558 -0.0116
 3473SOL    HW110475   4.743   3.968   2.505  1.0811  1.9280  2.6329
 3473SOL    HW210476   4.614   4.042   2.531 -1.1897 -0.9389  0.2953
 3474SOL     OW10477   3.011   2.090   1.867 -0.2097  0.6090 -0.5024
 3474SOL    HW110478   3.032   2.016   1.810  2.7174  0.6135  0.4339
 3474SOL    HW210479   2.977   2.050   1.947  1.0775  0.2440 -0.1150
 3475SOL     OW10480   1.533   0.940   2.240 -0.5285 -0.1562 -0.1085
 3475SOL    HW110481   1.439   0.956   2.232 -0.8909 -1.7118  0.6435
 3475SOL    HW210482   1.548   0.932   2.334  0.4097  0.3339 -0.2114
 3476SOL     OW10483   4.195   3.110   1.496 -0.0491 -0.1072 -0.2526
 3476SOL    HW110484   4.268   3.159   1.458 -0.5697  0.3852 -0.6363
 3476SOL    HW210485   4.178   3.152   1.580  1.6584 -1.7277  0.9818
 3477SOL     OW10486   0.284   4.932   2.126  0.1304  0.3226  0.4189
 3477SOL    HW110487   0.213   4.978   2.082  0.2079  0.0015 -0.0485
 3477SOL    HW210488   0.363   4.980   2.100  0.0113  1.2640  1.6982
 3478SOL     OW10489   2.378   2.175   3.948 -0.0945  0.0507  0.2788
 3478SOL    HW110490   2.465   2.182   3.910 -0.8278 -2.5605 -2.2517
 3478SOL    HW210491   2.362   2.260   3.989  1.4806  2.6210 -3.8985
 3479SOL     OW10492   3.131   3.923   2.432 -0.0655 -0.6540  0.3000
 3479SOL    HW110493   3.150   3.832   2.410 -2.1299 -1.3409  1.2245
 3479SOL    HW210494   3.050   3.920   2.483 -0.0086  1.6742  0.6291
 3480SOL     OW10495   2.558   2.949   3.805  0.4221  0.5129  0.4657
 3480SOL    HW110496   2.539   2.913   3.718 -2.0505  1.2604  0.6060
 3480SOL    HW210497   2.476   2.936   3.854  1.0353  2.0480  1.9965
 3481SOL     OW10498   4.722   4.847   1.023  0.1056  0.0171 -0.3146
 3481SOL    HW110499   4.706   4.911   0.954  0.6408 -0.5105 -0.9257
 3481SOL    HW210500   4.689   4.890   1.102 -1.2665  0.3002 -1.0062
 3482SOL     OW10501   1.745   0.214   4.217 -0.4801 -0.1667  0.0081
 3482SOL    HW110502   1.794   0.134   4.233  0.4899  0.6018  0.9980
 3482SOL    HW210503   1.777   0.276   4.282 -1.2235  1.0280 -0.7169
 3483SOL     OW10504   2.677   2.152   3.413 -0.4086  0.2540 -0.6262
 3483SOL    HW110505   2.648   2.177   3.325  0.1017 -1.5813 -1.3669
 3483SOL    HW210506   2.769   2.128   3.402  0.1399  1.5595  0.7611
 3484SOL     OW10507   2.881   2.952   4.780 -0.4712  0.4455 -0.1769
 3484SOL    HW110508   2.854   2.921   4.866  0.8234  1.3198  0.5734
 3484SOL    HW210509   2.799   2.955   4.729 -0.7099 -4.4325 -0.5089
 3485SOL     OW10510   1.097   2.764   3.059  0.2444 -1.1013  0.6285
 3485SOL    HW110511   1.048   2.699   3.109 -1.6080 -0.7874 -0.6740
 3485SOL    HW210512   1.092   2.734   2.968 -1.7886  1.3992 -0.2226
 3486SOL     OW10513   0.098   1.769   3.965  0.3052 -0.3126 -0.0950
 3486SOL    HW110514   0.107   1.678   3.935  2.4977 -1.0105  2.3209
 3486SOL    HW210515   0.179   1.811   3.939  0.5071  0.1536  1.2360
 3487SOL     OW10516   2.341   3.210   2.591 -0.2872 -0.4127  0.5246
 3487SOL    HW110517   2.275   3.269   2.627  0.9056  0.4536  1.3916
 3487SOL    HW210518   2.422   3.232   2.639  0.3613 -2.2784  0.3958
 3488SOL     OW10519   1.690   1.454   0.667  0.1218  0.3682 -0.0560
 3488SOL    HW110520   1.766   1.487   0.620 -0.2940  0.5160 -0.6407
 3488SOL    HW210521   1.615   1.493   0.621 -0.3141 -0.0336  0.3073
 3489SOL     OW10522   2.112   0.334   3.764 -0.3446 -0.3818 -0.5153
 3489SOL    HW110523   2.040   0.324   3.827  0.8851 -1.0873  0.8186
 3489SOL    HW210524   2.151   0.247   3.759  1.8690  0.4671  0.5970
 3490SOL     OW10525   3.083   0.232   4.088  0.0416 -0.5125 -0.1905
 3490SOL    HW110526   3.072   0.317   4.131  0.6976 -0.8896  0.7428
 3490SOL    HW210527   3.024   0.173   4.136 -2.5742 -0.0736 -2.5521
 3491SOL     OW10528   4.086   1.204   0.129 -0.0087  0.4575  0.0298
 3491SOL    HW110529   4.162   1.261   0.116  0.3365  0.3179  1.2811
 3491SOL    HW210530   4.044   1.237   0.208  0.2340 -1.0295  0.8260
 3492SOL     OW10531   3.175   3.683   4.820 -0.3362  0.2986  0.1071
 3492SOL    HW110532   3.188   3.637   4.903 -1.5374 -0.9780 -0.3699
 3492SOL    HW210533   3.149   3.615   4.759 -3.2907  1.6738 -0.3690
 3493SOL     OW10534   0.472   0.560   1.654  0.5969 -0.2750 -0.0298
 3493SOL    HW110535   0.405   0.496   1.676 -0.8398  1.1159 -0.2367
 3493SOL    HW210536   0.454   0.583   1.563  0.5470  1.0494  0.3006
 3494SOL     OW10537   4.751   3.217   2.108 -0.1191  0.1782  0.5342
 3494SOL    HW110538   4.833   3.226   2.060 -0.8974  3.5105 -0.4334
 3494SOL    HW210539   4.762   3.137   2.160  2.3454 -1.3717 -2.1030
 3495SOL     OW10540   3.713   2.580   0.591 -0.6694  0.3423 -0.1792
 3495SOL    HW110541   3.715   2.651   0.655  0.0999  0.3770 -0.2362
 3495SOL    HW210542   3.620   2.569   0.572 -0.7782  1.6050 -0.4804
 3496SOL     OW10543   4.617   4.969   4.928  0.3096 -0.1950  0.5528
 3496SOL    HW110544   4.523   4.978   4.943  0.5472 -1.3395  3.4663
 3496SOL    HW210545   4.626   4.884   4.886  0.0900 -0.4139  0.9451
 3497SOL     OW10546   2.298   1.973   3.655  0.0224 -0.4823 -0.1535
 3497SOL    HW110547   2.335   2.059   3.632 -1.3243  0.0498 -0.4198
 3497SOL    HW210548   2.374   1.920   3.678  0.8906  0.7801  0.0162
 3498SOL     OW10549   4.293   2.140   1.949  0.0326  0.1270  0.6050
 3498SOL    HW110550   4.281   2.090   2.030 -1.2040  0.2582  0.5189
 3498SOL    HW210551   4.317   2.074   1.884 -1.0891 -0.2978  0.6045
 3499SOL     OW10552   0.645   4.493   0.559 -0.6461 -0.4925  0.3280
 3499SOL    HW110553   0.647   4.407   0.518 -0.9587 -0.2657 -0.1624
 3499SOL    HW210554   0.555   4.523   0.550  0.0591  1.1651 -2.2080
 3500SOL     OW10555   3.295   4.752   2.055  0.6924 -0.6033 -0.1257
 3500SOL    HW110556   3.310   4.736   1.962  3.1486 -0.7794  0.2388
 3500SOL    HW210557   3.305   4.666   2.096  1.6450 -0.2103  0.5005
 3501SOL     OW10558   0.573   0.259   0.568  0.0003 -0.2821 -0.0071
 3501SOL    HW110559   0.666   0.280   0.560  0.1869 -0.7111  0.8973
 3501SOL    HW210560   0.532   0.343   0.592  0.3121 -0.2992  0.6136
 3502SOL     OW10561   2.656   1.673   2.807  0.3278 -0.1540 -0.2170
 3502SOL    HW110562   2.749   1.689   2.826  0.6557 -1.5381 -0.5264
 3502SOL    HW210563   2.619   1.646   2.891 -0.2922  2.2896  0.3734
 3503SOL     OW10564   1.718   4.511   0.405  0.2693  0.4628  0.0857
 3503SOL    HW110565   1.744   4.586   0.459 -0.9791  0.9508  0.0482
 3503SOL    HW210566   1.766   4.524   0.322  0.2255  1.1052  0.1571
 3504SOL     OW10567   3.341   3.586   4.511  0.0439 -0.1937  0.5721
 3504SOL    HW110568   3.368   3.508   4.560 -0.0958 -2.0668 -2.0970
 3504SOL    HW210569   3.419   3.610   4.460 -0.7698 -0.5018 -0.8902
 3505SOL     OW10570   0.354   3.236   1.808  0.1523  0.0433 -0.5812
 3505SOL    HW110571   0.301   3.297   1.757  0.3099  1.5062  0.9167
 3505SOL    HW210572   0.398   3.182   1.743  0.0181  1.5388 -1.9750
 3506SOL     OW10573   1.311   0.560   2.189  0.1679 -0.2564 -0.2740
 3506SOL    HW110574   1.269   0.568   2.103  1.0371  0.4078 -0.6549
 3506SOL    HW210575   1.319   0.465   2.202  1.1282 -0.3776 -1.5028
 3507SOL     OW10576   0.726   3.979   2.533  0.4638  0.5784  0.2443
 3507SOL    HW110577   0.781   3.989   2.455  1.7900 -1.5398  0.8223
 3507SOL    HW210578   0.760   4.044   2.595  2.0919 -0.4042  0.4361
 3508SOL     OW10579   0.884   4.345   0.658  0.3120  0.1424  0.2641
 3508SOL    HW110580   0.933   4.417   0.617  1.1305 -0.9804 -0.7945
 3508SOL    HW210581   0.825   4.315   0.590 -0.6352  0.3409  0.9789
 3509SOL     OW10582   4.659   3.114   0.481 -0.3436  0.1591 -0.4527
 3509SOL    HW110583   4.589   3.075   0.428 -0.1142 -0.4671 -0.3084
 3509SOL    HW210584   4.659   3.207   0.457 -1.6148  0.2904 -0.0180
 3510SOL     OW10585   3.071   0.411   2.766 -0.2930 -0.6228  0.1322
 3510SOL    HW110586   3.147   0.468   2.773  0.5556 -1.6939 -0.1292
 3510SOL    HW210587   3.032   0.433   2.682  0.8143 -1.3406 -0.5987
 3511SOL     OW10588   0.277   1.225   3.067 -0.0087  0.1041 -0.2118
 3511SOL    HW110589   0.219   1.163   3.113 -0.0283 -1.1904 -1.8996
 3511SOL    HW210590   0.365   1.204   3.099 -0.3574  2.0326  2.3138
 3512SOL     OW10591   4.166   1.933   1.354  0.1254 -0.0407 -0.2917
 3512SOL    HW110592   4.227   1.878   1.402  1.0617 -1.5509 -2.9633
 3512SOL    HW210593   4.098   1.956   1.417  2.6224  0.4595  2.3964
 3513SOL     OW10594   1.194   2.780   0.254 -0.0701 -0.3775 -0.2329
 3513SOL    HW110595   1.220   2.733   0.174  0.2163 -2.1614  0.8568
 3513SOL    HW210596   1.271   2.775   0.311 -0.2885  0.8396  0.2076
 3514SOL     OW10597   4.586   3.557   0.931  0.2084 -0.6461  0.1065
 3514SOL    HW110598   4.618   3.647   0.935  0.7462 -0.8357  0.2108
 3514SOL    HW210599   4.492   3.564   0.943  0.4839 -0.2983  2.6991
 3515SOL     OW10600   0.604   0.115   0.789  0.2513  0.0801 -0.4385
 3515SOL    HW110601   0.699   0.107   0.803  0.4073 -0.9513 -1.7637
 3515SOL    HW210602   0.596   0.175   0.715 -0.2516  1.5027  0.7231
 3516SOL     OW10603   2.130   2.560   0.679  0.3908  0.6545 -0.6392
 3516SOL    HW110604   2.152   2.488   0.737 -1.8922 -1.0999 -1.7919
 3516SOL    HW210605   2.208   2.571   0.624  2.2153  1.7253  1.9857
 3517SOL     OW10606   0.852   3.520   2.974 -0.1853  0.4324 -0.1824
 3517SOL    HW110607   0.858   3.572   3.055 -0.1270  3.2799 -1.8637
 3517SOL    HW210608   0.876   3.582   2.905  0.8166 -2.1764 -2.3305
 3518SOL     OW10609   2.912   0.774   3.911 -0.3941  0.2389  0.0140
 3518SOL    HW110610   2.988   0.824   3.940  0.2847  0.3699 -1.8348
 3518SOL    HW210611   2.842   0.799   3.972  0.3668  2.1468  0.1836
 3519SOL     OW10612   2.639   0.543   3.494  0.5923 -0.5029 -1.2133
 3519SOL    HW110613   2.672   0.596   3.567 -0.0218 -1.0379 -0.5282
 3519SOL    HW210614   2.685   0.459   3.503 -0.8287 -1.2173 -0.3150
 3520SOL     OW10615   4.966   2.553   3.458 -0.0143  0.5072  0.1544
 3520SOL    HW110616   4.987   2.644   3.436 -0.7346  0.9449  1.1935
 3520SOL    HW210617   5.009   2.538   3.542  2.4302 -1.0352 -1.2314
 3521SOL     OW10618   1.342   3.626   3.408 -0.7535 -0.8298 -0.0342
 3521SOL    HW110619   1.347   3.635   3.503 -0.7675  0.6581 -0.1540
 3521SOL    HW210620   1.358   3.533   3.392 -1.5592 -1.2566  1.4649
 3522SOL     OW10621   0.850   0.560   0.227  0.0181  0.0316  0.1414
 3522SOL    HW110622   0.836   0.467   0.243 -0.4677  0.0236 -0.2877
 3522SOL    HW210623   0.784   0.603   0.281  0.2003  0.1279  0.2895
 3523SOL     OW10624   3.431   0.445   0.507  0.1265  0.1781 -0.2210
 3523SOL    HW110625   3.417   0.359   0.546  0.8541 -0.2073 -0.7698
 3523SOL    HW210626   3.516   0.473   0.541  1.6994 -0.9928 -2.8501
 3524SOL     OW10627   1.492   2.983   1.695  0.4773  0.1219  0.0896
 3524SOL    HW110628   1.469   2.915   1.758 -2.7389  1.1866  0.2607
 3524SOL    HW210629   1.473   2.944   1.610 -1.7617  0.8235  0.2062
 3525SOL     OW10630   3.666   1.239   3.414  0.3017 -0.2928 -0.1256
 3525SOL    HW110631   3.710   1.292   3.346 -1.6395 -0.2073 -1.3830
 3525SOL    HW210632   3.615   1.175   3.365 -0.9018 -0.4457  1.2835
 3526SOL     OW10633   3.113   1.476   1.430 -0.1808  0.1906  0.3658
 3526SOL    HW110634   3.093   1.549   1.372  0.5851  0.1549  0.0553
 3526SOL    HW210635   3.143   1.407   1.372 -0.9027 -0.3831  0.6592
 3527SOL     OW10636   1.461   1.336   2.724  0.1921  0.8242  0.2583
 3527SOL    HW110637   1.441   1.242   2.722 -0.5485  0.9476  1.0921
 3527SOL    HW210638   1.376   1.379   2.714  0.4505  1.4068  0.4953
 3528SOL     OW10639   4.736   2.925   2.390 -0.5005  0.6853  0.3461
 3528SOL    HW110640   4.765   3.007   2.430  0.2299  1.1014 -0.9630
 3528SOL    HW210641   4.816   2.887   2.355 -1.1711  0.6347 -1.1930
 3529SOL     OW10642   1.995   2.625   0.430  0.0289  0.7684  0.0616
 3529SOL    HW110643   1.948   2.543   0.415 -0.0072  0.7894  0.0609
 3529SOL    HW210644   2.037   2.613   0.515  1.5617  0.0145 -0.7565
 3530SOL     OW10645   4.515   3.579   1.336 -0.0364 -0.4181  0.5332
 3530SOL    HW110646   4.494   3.670   1.318 -1.0840 -0.6604  0.4561
 3530SOL    HW210647   4.579   3.555   1.268 -0.9834 -0.1921 -0.4719
 3531SOL     OW10648   3.714   0.710   0.519 -1.0518  0.2098 -0.6381
 3531SOL    HW110649   3.805   0.691   0.497 -0.9881 -0.4042  0.0814
 3531SOL    HW210650   3.678   0.624   0.544 -0.6072  0.9823  3.3584
 3532SOL     OW10651   3.557   0.008   3.389 -0.2909 -0.1785 -0.4429
 3532SOL    HW110652   3.545  -0.003   3.295 -0.1483  0.7399 -0.5781
 3532SOL    HW210653   3.622   0.079   3.397 -1.6226  1.0006  0.3511
 3533SOL     OW10654   0.788   3.533   0.395  0.7410 -0.2138 -0.0052
 3533SOL    HW110655   0.702   3.566   0.367  1.0945 -0.9932 -2.2040
 3533SOL    HW210656   0.775   3.439   0.406  1.0564 -0.1712  0.7665
 3534SOL     OW10657   2.923   3.707   2.049 -0.6347  0.1475  0.3962
 3534SOL    HW110658   2.867   3.659   1.989  0.0665  0.5755 -0.6361
 3534SOL    HW210659   2.884   3.694   2.135 -1.8128 -0.2638 -0.1869
 3535SOL     OW10660   2.837   3.295   3.995  0.6319  0.1515 -0.6620
 3535SOL    HW110661   2.811   3.205   3.976 -0.8793  0.4859 -0.3274
 3535SOL    HW210662   2.774   3.349   3.949  1.1682  1.0459 -0.3798
 3536SOL     OW10663   2.431   0.704   2.565 -0.1497  0.3338 -0.0261
 3536SOL    HW110664   2.473   0.790   2.566 -1.8939  1.2710 -1.0842
 3536SOL    HW210665   2.367   0.707   2.637  1.1306 -0.8643  1.2217
 3537SOL     OW10666   0.691   4.899   3.211  0.0184  0.1744 -0.7392
 3537SOL    HW110667   0.771   4.861   3.247  0.4658 -0.2093 -2.0905
 3537SOL    HW210668   0.623   4.834   3.229  0.0674  0.3354  0.0748
 3538SOL     OW10669   1.002   0.068   3.176 -0.2575  0.1791  0.4134
 3538SOL    HW110670   0.972   0.073   3.267  3.0706  0.7014  1.6395
 3538SOL    HW210671   1.097   0.081   3.182  0.5916 -3.0075 -2.8165
 3539SOL     OW10672   3.643   0.613   4.557 -0.3649  0.4823  0.0395
 3539SOL    HW110673   3.704   0.590   4.627 -1.6899 -1.7879  0.5415
 3539SOL    HW210674   3.682   0.690   4.517  2.0558  0.0285  1.2800
 3540SOL     OW10675   3.513   3.264   0.705 -0.3093 -0.1699  0.4819
 3540SOL    HW110676   3.593   3.313   0.726  0.1677 -1.1680  1.0737
 3540SOL    HW210677   3.465   3.260   0.788 -0.6401 -0.1863  0.2933
 3541SOL     OW10678   0.898   2.430   1.344 -0.9975  0.0021  0.9515
 3541SOL    HW110679   0.990   2.408   1.353 -0.5497  0.3518 -1.8878
 3541SOL    HW210680   0.852   2.353   1.378  0.4525 -2.0154 -1.3033
 3542SOL     OW10681   4.538   0.704   3.961  0.2670  0.6991 -0.4320
 3542SOL    HW110682   4.545   0.727   3.868  1.4096  0.0349 -0.5454
 3542SOL    HW210683   4.472   0.634   3.963 -0.2890  1.2126 -0.6399
 3543SOL     OW10684   2.952   4.540   1.003 -0.8787 -0.2832  0.5158
 3543SOL    HW110685   2.941   4.516   1.095 -0.4643  2.8734  1.5053
 3543SOL    HW210686   2.863   4.556   0.971 -0.9815 -0.8950  0.4730
 3544SOL     OW10687   3.311   0.226   0.945  1.0839 -0.3694 -0.3463
 3544SOL    HW110688   3.392   0.220   0.995  0.9832 -1.5163 -0.2842
 3544SOL    HW210689   3.243   0.200   1.007  0.8572 -0.9550 -0.8264
 3545SOL     OW10690   4.415   1.801   1.525 -0.0733  0.2019 -0.0276
 3545SOL    HW110691   4.452   1.738   1.587  1.6211  0.5615 -0.5927
 3545SOL    HW210692   4.405   1.751   1.444 -0.3004  0.2444 -0.0251
 3546SOL     OW10693   4.362   2.577   2.662  0.0969  0.7486  0.2419
 3546SOL    HW110694   4.376   2.522   2.585 -0.4223  2.2359 -0.9507
 3546SOL    HW210695   4.272   2.610   2.652 -0.7603 -0.6141  2.5484
 3547SOL     OW10696   2.879   2.913   3.623 -0.4963 -0.6898 -0.3492
 3547SOL    HW110697   2.883   2.970   3.547 -0.8375 -0.4026 -0.1561
 3547SOL    HW210698   2.876   2.824   3.587  1.4396 -0.6778 -0.6260
 3548SOL     OW10699   2.465   3.192   2.343 -0.4360 -0.1838  0.6775
 3548SOL    HW110700   2.394   3.161   2.288 -1.1143  0.5413  1.1194
 3548SOL    HW210701   2.421   3.234   2.418  0.4513 -0.0722  1.1534
 3549SOL     OW10702   4.620   1.991   1.546 -0.2293  0.3887 -0.2295
 3549SOL    HW110703   4.525   1.983   1.532 -0.0154 -1.8771 -0.8271
 3549SOL    HW210704   4.647   1.904   1.576  1.7540  0.8347 -0.5939
 3550SOL     OW10705   0.554   1.836   4.133 -0.3393 -0.6129  0.4316
 3550SOL    HW110706   0.480   1.897   4.128 -0.2344 -0.4738  0.5758
 3550SOL    HW210707   0.556   1.794   4.047 -0.0458  0.0203  0.1179
 3551SOL     OW10708   0.287   3.868   2.476 -0.2120 -0.2527  0.0338
 3551SOL    HW110709   0.263   3.960   2.479 -0.3903 -0.0713 -3.1773
 3551SOL    HW210710   0.204   3.821   2.475 -0.1769 -0.3154 -0.0675
 3552SOL     OW10711   3.172   3.573   2.751 -0.5748 -0.0193 -0.1157
 3552SOL    HW110712   3.257   3.588   2.710 -1.3711  3.3927 -0.8236
 3552SOL    HW210713   3.179   3.613   2.837 -1.1677 -0.6518  0.2352
 3553SOL     OW10714   1.596   2.731   0.929  0.2629  0.8934  0.6707
 3553SOL    HW110715   1.600   2.796   0.999 -0.1333  2.0948 -0.3846
 3553SOL    HW210716   1.680   2.739   0.884 -0.1890  1.4078 -0.0916
 3554SOL     OW10717   2.765   2.265   1.870  0.2146  0.0829 -0.1677
 3554SOL    HW110718   2.841   2.209   1.860  0.9060  0.5739  1.9030
 3554SOL    HW210719   2.696   2.208   1.905  0.9702  0.4660  2.1110
 3555SOL     OW10720   0.756   4.940   1.142  0.7757 -0.3093  0.5225
 3555SOL    HW110721   0.840   4.963   1.104  0.5733  0.5147  0.5576
 3555SOL    HW210722   0.770   4.943   1.237  0.0487  2.5946  0.6289
 3556SOL     OW10723   1.092   0.559   0.142 -0.2251  0.4753 -0.2501
 3556SOL    HW110724   1.008   0.548   0.186  0.5260  1.9189  1.7069
 3556SOL    HW210725   1.079   0.632   0.082 -0.2941  0.9454  0.3256
 3557SOL     OW10726   0.892   4.610   0.362  0.3387  0.0507  0.1672
 3557SOL    HW110727   0.969   4.606   0.419  0.5458  0.5681 -0.0692
 3557SOL    HW210728   0.823   4.647   0.417  0.1134 -0.8668  0.5255
 3558SOL     OW10729   1.108   1.978   0.795 -0.1770  0.0701  0.1189
 3558SOL    HW110730   1.101   1.958   0.701  1.1608  3.0767 -0.7332
 3558SOL    HW210731   1.018   1.995   0.822 -0.4932 -0.0590 -0.8116
 3559SOL     OW10732   0.281   0.251   3.039 -0.4125 -0.3304 -0.1787
 3559SOL    HW110733   0.292   0.239   3.133 -1.4051 -0.9723 -0.1348
 3559SOL    HW210734   0.189   0.276   3.028 -1.3875 -3.8865 -1.2650
 3560SOL     OW10735   1.046   1.102   1.472  0.0382 -0.2926 -0.5941
 3560SOL    HW110736   0.975   1.067   1.526  0.2913  1.3874  0.9114
 3560SOL    HW210737   1.112   1.130   1.535  1.1857 -0.0073 -1.8852
 3561SOL     OW10738   1.498   2.514   0.726 -0.4146 -0.0272  0.1004
 3561SOL    HW110739   1.492   2.568   0.805 -0.0190  0.2614 -0.0642
 3561SOL    HW210740   1.523   2.576   0.657 -0.1332 -0.3858 -0.1220
 3562SOL     OW10741   2.543   0.835   1.203  0.1611 -0.2588  0.4171
 3562SOL    HW110742   2.452   0.854   1.223  0.3318  1.9873 -0.6582
 3562SOL    HW210743   2.558   0.747   1.239 -2.6546 -1.0799 -0.1937
 3563SOL     OW10744   4.052   3.846   0.613  0.3430 -0.2964 -1.0552
 3563SOL    HW110745   4.078   3.760   0.581  0.3200 -0.9417  0.5555
 3563SOL    HW210746   3.996   3.882   0.544 -0.5898 -2.0629 -1.2580
 3564SOL     OW10747   2.962   3.909   3.971 -0.0316  0.3521  0.0097
 3564SOL    HW110748   2.965   3.994   4.014  0.1259 -0.2865  1.3241
 3564SOL    HW210749   3.051   3.893   3.941 -0.4836  1.5460 -2.1389
 3565SOL     OW10750   4.003   0.609   2.593 -0.6700  0.0028 -0.3917
 3565SOL    HW110751   4.004   0.702   2.617  0.3456  0.2110 -1.1599
 3565SOL    HW210752   3.992   0.610   2.498 -0.0893 -0.6413 -0.4685
 3566SOL     OW10753   4.020   2.379   3.775 -0.3476 -0.4983  0.1375
 3566SOL    HW110754   4.006   2.392   3.869 -4.2905  0.7014 -0.4257
 3566SOL    HW210755   4.064   2.459   3.746  0.3559 -0.6120  0.8483
 3567SOL     OW10756   0.018   1.819   3.324 -0.0012  0.1381 -0.0775
 3567SOL    HW110757  -0.050   1.752   3.325  1.0715 -0.9912  0.1244
 3567SOL    HW210758   0.069   1.800   3.245  0.3137  0.7145 -0.0205
 3568SOL     OW10759   0.665   0.761   1.524  0.3168 -0.3940 -0.3611
 3568SOL    HW110760   0.755   0.776   1.552  0.7993 -1.4527 -1.2954
 3568SOL    HW210761   0.667   0.676   1.481 -1.0643 -0.2703 -0.7065
 3569SOL     OW10762   1.577   3.818   1.994 -0.1729 -0.0655  0.1828
 3569SOL    HW110763   1.506   3.765   1.959  0.3983 -1.0128  0.4490
 3569SOL    HW210764   1.592   3.785   2.083 -0.9065  1.6228  0.9935
 3570SOL     OW10765   0.335   0.939   0.441  0.2632  0.1456 -0.6427
 3570SOL    HW110766   0.291   0.939   0.356  0.3059 -1.1264 -0.6865
 3570SOL    HW210767   0.290   0.871   0.491  0.5011  0.6056  0.2156
 3571SOL     OW10768   2.469   2.166   3.597 -0.5661  0.3744 -0.3164
 3571SOL    HW110769   2.543   2.166   3.537 -1.4939  2.9948 -1.6184
 3571SOL    HW210770   2.496   2.223   3.669 -1.0014  0.7006 -0.4027
 3572SOL     OW10771   4.563   1.103   4.543  0.1797 -0.1012 -0.6553
 3572SOL    HW110772   4.489   1.136   4.593  1.3578  0.5763  0.7381
 3572SOL    HW210773   4.613   1.181   4.520  0.8301 -0.5949 -0.9618
 3573SOL     OW10774   0.700   0.395   2.699  0.4171 -0.0804 -0.5859
 3573SOL    HW110775   0.615   0.410   2.742  1.1745 -1.8208  1.7238
 3573SOL    HW210776   0.686   0.422   2.608 -2.6517 -0.4246 -0.3172
 3574SOL     OW10777   2.414   2.175   2.835 -0.0124 -0.1746 -0.1421
 3574SOL    HW110778   2.373   2.188   2.921  0.8112 -0.1170  0.2624
 3574SOL    HW210779   2.467   2.096   2.847  1.6944  0.9437  0.0456
 3575SOL     OW10780   1.572   4.164   0.716  0.3102 -0.2605  0.2372
 3575SOL    HW110781   1.610   4.250   0.697 -2.3195  0.9121 -0.1080
 3575SOL    HW210782   1.628   4.128   0.785  2.5609  0.8828 -0.8700
 3576SOL     OW10783   1.696   0.630   1.074 -0.0266 -0.4270  0.3903
 3576SOL    HW110784   1.723   0.715   1.040 -0.6417 -0.5273 -0.3649
 3576SOL    HW210785   1.768   0.571   1.052 -0.4667 -0.5199 -0.8874
 3577SOL     OW10786   0.536   1.007   2.567  0.2277 -0.4772  0.1588
 3577SOL    HW110787   0.478   0.931   2.577  0.3721 -0.3324  2.9626
 3577SOL    HW210788   0.480   1.076   2.533 -1.1494 -0.5585  2.0633
 3578SOL     OW10789   0.064   3.101   1.979 -0.5433 -0.1680 -0.0871
 3578SOL    HW110790   0.053   3.068   2.068 -0.9504 -0.3980 -0.2221
 3578SOL    HW210791   0.122   3.038   1.937  3.2477  2.0861  1.2245
 3579SOL     OW10792   3.396   2.209   1.476 -0.0345  0.1093 -0.2862
 3579SOL    HW110793   3.381   2.212   1.382  0.7056  1.1713 -0.3857
 3579SOL    HW210794   3.318   2.248   1.515 -0.6135 -0.8921 -0.4141
 3580SOL     OW10795   1.500   0.372   1.035 -0.4145  0.6001  0.2434
 3580SOL    HW110796   1.438   0.303   1.009  0.1145  0.4802 -0.7457
 3580SOL    HW210797   1.446   0.451   1.040 -1.1148  0.0692  1.8145
 3581SOL     OW10798   3.677   4.567   1.359 -0.0971 -0.2760 -0.5436
 3581SOL    HW110799   3.747   4.631   1.346 -0.6200  0.2396 -0.8148
 3581SOL    HW210800   3.712   4.486   1.321  0.6821 -0.2421  0.0615
 3582SOL     OW10801   2.876   1.406   4.784  0.2930  0.0836 -0.2760
 3582SOL    HW110802   2.911   1.390   4.872  0.4859 -0.2660 -0.4143
 3582SOL    HW210803   2.937   1.470   4.746 -0.4049  1.0730  0.2301
 3583SOL     OW10804   1.125   0.881   3.701 -0.3182 -0.0419  0.3534
 3583SOL    HW110805   1.097   0.824   3.629  0.1046  1.1253 -0.7567
 3583SOL    HW210806   1.214   0.851   3.722 -0.0553  0.2759 -0.2990
 3584SOL     OW10807   0.861   0.418   3.490 -0.1063 -0.1571 -0.1982
 3584SOL    HW110808   0.952   0.405   3.461  0.1064 -0.8127  0.7183
 3584SOL    HW210809   0.845   0.346   3.551 -1.1482  0.1326 -0.1117
 3585SOL     OW10810   0.513   2.207   2.124  0.3474  0.4797  0.3250
 3585SOL    HW110811   0.542   2.299   2.130  0.8861  0.2683  1.1300
 3585SOL    HW210812   0.438   2.202   2.183 -0.4617  0.6910 -0.6761
 3586SOL     OW10813   2.108   0.167   1.746  0.1164 -0.1894  0.0368
 3586SOL    HW110814   2.080   0.207   1.828  0.1455 -1.0661  0.4786
 3586SOL    HW210815   2.027   0.144   1.701  0.0948 -1.2096  0.5697
 3587SOL     OW10816   3.962   0.702   0.382 -0.0647 -0.3197  0.1687
 3587SOL    HW110817   3.973   0.795   0.363  0.5995 -0.4888 -0.3018
 3587SOL    HW210818   3.948   0.662   0.296  0.2039 -0.7232  0.3145
 3588SOL     OW10819   0.134   2.377   4.272 -0.0940 -0.4365  0.5357
 3588SOL    HW110820   0.170   2.456   4.314 -0.5830 -0.6444  1.3807
 3588SOL    HW210821   0.188   2.306   4.306  1.0873 -0.3716 -1.1175
 3589SOL     OW10822   3.583   1.422   3.631  0.1891  0.3255  0.4062
 3589SOL    HW110823   3.540   1.464   3.556 -0.6996 -0.4888  0.4278
 3589SOL    HW210824   3.627   1.346   3.592  0.7683  0.6013  0.5315
 3590SOL     OW10825   1.759   1.693   4.765 -0.0287  0.0508  0.0758
 3590SOL    HW110826   1.750   1.648   4.682 -1.3220 -1.0348  0.7535
 3590SOL    HW210827   1.852   1.715   4.772  0.6308 -2.3099 -0.4134
 3591SOL     OW10828   2.744   4.182   3.639 -0.0982  0.0280 -0.3727
 3591SOL    HW110829   2.814   4.118   3.622 -1.2796 -1.5861  0.4831
 3591SOL    HW210830   2.768   4.258   3.587  4.1675  1.0060  2.5234
 3592SOL     OW10831   3.019   1.038   1.651  0.0717 -0.7910  0.3820
 3592SOL    HW110832   3.062   0.958   1.681 -1.9293 -1.6235  1.1947
 3592SOL    HW210833   2.983   1.015   1.565  0.8063 -0.2642 -0.0707
 3593SOL     OW10834   2.591   4.896   1.845  0.2680  0.4377 -0.6851
 3593SOL    HW110835   2.584   4.841   1.923  0.0569 -0.3639 -1.2605
 3593SOL    HW210836   2.545   4.976   1.869 -0.5713 -0.1433 -0.2890
 3594SOL     OW10837   2.107   2.990   2.736  0.0803 -0.1631  0.0467
 3594SOL    HW110838   2.078   2.934   2.809 -1.0948 -0.9018 -0.9447
 3594SOL    HW210839   2.202   2.986   2.739  0.0721  0.2128  1.8289
 3595SOL     OW10840   3.539   2.638   1.782  0.2078 -0.2425 -0.0812
 3595SOL    HW110841   3.503   2.577   1.718  1.2588 -1.9725  0.9030
 3595SOL    HW210842   3.465   2.659   1.840 -0.5077  0.5917 -1.2444
 3596SOL     OW10843   1.666   1.406   2.839 -0.9253  0.0405  0.3545
 3596SOL    HW110844   1.579   1.388   2.802 -1.3509 -1.1958  1.8557
 3596SOL    HW210845   1.715   1.325   2.825  0.5314  1.1735 -1.7539
 3597SOL     OW10846   0.436   4.523   2.015 -0.4525  0.0973  0.4209
 3597SOL    HW110847   0.405   4.448   1.964  0.3112  0.2005 -0.2221
 3597SOL    HW210848   0.528   4.502   2.032  0.3823  1.7860 -1.5316
 3598SOL     OW10849   0.623   1.479   4.103  0.2121  0.4025  0.6059
 3598SOL    HW110850   0.556   1.503   4.168  1.6357  0.1905  2.2319
 3598SOL    HW210851   0.581   1.412   4.049 -1.0262  0.5762  1.3130
 3599SOL     OW10852   1.082   3.055   1.516  0.0568  0.1354 -0.0509
 3599SOL    HW110853   1.007   3.099   1.476  0.5893 -0.4109 -1.7356
 3599SOL    HW210854   1.073   2.963   1.490  0.1472 -0.3676  1.5713
 3600SOL     OW10855   1.236   1.543   1.974 -0.2202  0.2321  0.3688
 3600SOL    HW110856   1.150   1.521   2.011 -0.9492  1.0681 -0.7690
 3600SOL    HW210857   1.263   1.621   2.023 -0.1288  0.0035  0.6869
 3601SOL     OW10858   4.322   2.054   4.595 -0.4800  0.2531 -0.0156
 3601SOL    HW110859   4.391   2.089   4.539  0.3854 -2.0812 -0.5152
 3601SOL    HW210860   4.353   2.068   4.685  0.9488 -1.2483 -0.2431
 3602SOL     OW10861   0.939   2.776   1.771 -0.1063  0.2100  0.0874
 3602SOL    HW110862   1.019   2.828   1.778 -0.1684  0.6759 -2.0103
 3602SOL    HW210863   0.870   2.833   1.806  0.3028  0.2362  0.8675
 3603SOL     OW10864   3.540   1.482   1.336 -0.9249 -0.0620  0.3688
 3603SOL    HW110865   3.532   1.554   1.398  0.3630 -0.6137  1.2183
 3603SOL    HW210866   3.596   1.418   1.380  0.1796 -0.4064 -1.4292
 3604SOL     OW10867   0.054   3.742   2.491  0.2864 -0.0863  0.0149
 3604SOL    HW110868   0.018   3.789   2.566  2.6016 -0.7523  1.6400
 3604SOL    HW210869   0.079   3.657   2.526  0.1830 -0.9450 -1.8714
 3605SOL     OW10870   4.454   3.127   2.524  0.0765 -1.0387 -0.3683
 3605SOL    HW110871   4.439   3.054   2.584 -0.8905 -0.2435  0.3946
 3605SOL    HW210872   4.472   3.086   2.439  1.6068 -2.1909  0.4646
 3606SOL     OW10873   1.239   2.114   3.187 -0.3753 -0.1331  0.9083
 3606SOL    HW110874   1.250   2.086   3.096 -2.4503  0.2149  0.4943
 3606SOL    HW210875   1.308   2.067   3.235  0.7304 -0.3615 -0.8156
 3607SOL     OW10876   0.074   4.400   0.493 -0.1000  0.4876 -0.0799
 3607SOL    HW110877   0.059   4.410   0.586 -1.4513 -0.4514 -0.1649
 3607SOL    HW210878   0.115   4.314   0.484  1.8783  1.3904 -0.2122
 3608SOL     OW10879   0.240   4.804   0.204  0.2158  0.3956 -0.5535
 3608SOL    HW110880   0.188   4.725   0.219  0.5304 -0.2080 -2.4419
 3608SOL    HW210881   0.303   4.779   0.136  1.4095  1.8043 -0.0200
 3609SOL     OW10882   1.533   1.735   4.355 -0.3277  0.3590 -0.1623
 3609SOL    HW110883   1.573   1.767   4.275 -0.0199  0.5300  0.0562
 3609SOL    HW210884   1.506   1.814   4.402 -0.9142  0.2460 -0.3020
 3610SOL     OW10885   4.095   2.709   2.636 -0.1172  0.5284  0.1476
 3610SOL    HW110886   4.124   2.769   2.704 -0.6895  2.1877 -0.9952
 3610SOL    HW210887   4.082   2.764   2.559 -0.0024 -1.1832 -1.1766
 3611SOL     OW10888   1.916   1.784   2.198  0.5710  0.3561 -0.3382
 3611SOL    HW110889   1.916   1.722   2.271 -1.8270  1.6731  0.9345
 3611SOL    HW210890   1.852   1.749   2.136  1.3742  0.0883 -1.0275
 3612SOL     OW10891   3.071   3.929   1.427  0.5547 -0.0893 -0.3860
 3612SOL    HW110892   3.016   3.876   1.370  1.5947 -0.4309 -1.1021
 3612SOL    HW210893   3.036   3.914   1.515 -1.0755  0.4535 -0.9127
 3613SOL     OW10894   4.012   1.982   4.209 -0.1873  0.0744 -0.1745
 3613SOL    HW110895   3.975   1.996   4.296 -1.0671  0.0929 -0.5384
 3613SOL    HW210896   3.946   1.931   4.163 -0.4388  1.3603 -1.3167
 3614SOL     OW10897   1.125   4.116   4.201 -0.0894 -0.8435  0.8414
 3614SOL    HW110898   1.126   4.153   4.113 -1.1474  3.3435  2.3467
 3614SOL    HW210899   1.033   4.095   4.217  0.2475 -2.6222  0.6597
 3615SOL     OW10900   1.294   0.827   2.770  0.3193  0.6459  0.2488
 3615SOL    HW110901   1.330   0.811   2.857 -1.6319  4.4026  2.0195
 3615SOL    HW210902   1.200   0.811   2.780  0.0533  1.2378 -1.1255
 3616SOL     OW10903   0.118   2.653   3.116  0.5573 -0.0651  0.2114
 3616SOL    HW110904   0.107   2.589   3.186 -1.4744 -0.3965 -0.3405
 3616SOL    HW210905   0.208   2.641   3.086  1.2247 -0.4504  2.2028
 3617SOL     OW10906   4.738   1.738   3.975 -0.3881 -0.2444 -0.2920
 3617SOL    HW110907   4.713   1.766   4.063 -0.5315  0.2875 -0.4972
 3617SOL    HW210908   4.781   1.653   3.988  0.6526  0.3633  0.4156
 3618SOL     OW10909   1.941   1.247   1.085  0.1418  0.1314 -0.1766
 3618SOL    HW110910   1.949   1.299   1.165 -2.9266 -1.1412  1.1043
 3618SOL    HW210911   1.959   1.309   1.015  1.8513  1.5644  1.4077
 3619SOL     OW10912   4.641   4.003   1.052 -0.0487  0.2950 -0.4338
 3619SOL    HW110913   4.585   3.955   0.991  0.7566  0.4920 -1.3495
 3619SOL    HW210914   4.615   4.095   1.040 -2.2969  0.1172  2.0321
 3620SOL     OW10915   4.441   0.212   4.735  0.5977  0.0199 -0.6457
 3620SOL    HW110916   4.443   0.304   4.709  1.9172 -0.1347 -1.1546
 3620SOL    HW210917   4.529   0.194   4.769  0.3439 -1.0444 -0.5139
 3621SOL     OW10918   3.479   3.349   3.083 -0.4147  0.3643 -0.7520
 3621SOL    HW110919   3.543   3.298   3.132 -0.0110  1.0778 -0.5412
 3621SOL    HW210920   3.401   3.293   3.081 -0.0682 -0.1434 -0.2822
 3622SOL     OW10921   4.873   1.121   1.694 -0.1700  0.6042  0.0827
 3622SOL    HW110922   4.841   1.167   1.772 -1.1172  1.0925 -0.5640
 3622SOL    HW210923   4.820   1.041   1.690 -0.3443  0.7281 -0.2090
 3623SOL     OW10924   2.274   0.216   4.705 -0.6319 -0.3921  0.1899
 3623SOL    HW110925   2.252   0.207   4.798  0.4625 -0.4681  0.4511
 3623SOL    HW210926   2.221   0.149   4.661  1.0320 -2.4190  1.1102
 3624SOL     OW10927   3.339   1.256   4.688 -0.1828  0.3892  0.2520
 3624SOL    HW110928   3.292   1.243   4.770  1.4793  1.5633  1.4590
 3624SOL    HW210929   3.383   1.340   4.698  0.7609  0.1636 -1.5142
 3625SOL     OW10930   2.904   2.744   4.351  0.0855  0.8888 -1.1669
 3625SOL    HW110931   2.957   2.755   4.430  0.4318  0.4273 -1.3333
 3625SOL    HW210932   2.815   2.730   4.384  0.5278 -1.3996 -0.7587
 3626SOL     OW10933   2.247   3.994   2.867 -0.3330 -0.4774 -0.3141
 3626SOL    HW110934   2.279   3.946   2.944 -1.9035 -0.1260  0.5980
 3626SOL    HW210935   2.167   3.948   2.841 -0.3332 -0.0226 -1.1554
 3627SOL     OW10936   4.674   0.219   1.052  0.6489  0.3623  0.1313
 3627SOL    HW110937   4.585   0.200   1.020  0.1363  2.5383  0.0520
 3627SOL    HW210938   4.664   0.226   1.147  0.2809  2.4156 -0.0119
 3628SOL     OW10939   2.192   3.957   0.915 -0.1923  0.1342 -0.4445
 3628SOL    HW110940   2.176   3.931   1.006  1.3968 -0.2525 -0.2555
 3628SOL    HW210941   2.114   4.008   0.891 -0.0223  1.4509  1.5842
 3629SOL     OW10942   3.887   0.148   2.696  0.2483 -0.4493  0.3526
 3629SOL    HW110943   3.895   0.066   2.648  1.4036  0.7127 -1.5634
 3629SOL    HW210944   3.793   0.164   2.701  0.0284 -1.6252  0.3388
 3630SOL     OW10945   2.692   3.755   2.417 -0.3502  0.2906  0.4345
 3630SOL    HW110946   2.603   3.772   2.387 -0.4402  0.0022  0.5369
 3630SOL    HW210947   2.739   3.837   2.400 -0.7889  0.6698  0.9682
 3631SOL     OW10948   3.997   3.248   1.307 -0.5030 -0.1166 -0.0178
 3631SOL    HW110949   4.065   3.315   1.296  0.4297 -1.0340  0.0619
 3631SOL    HW210950   4.018   3.205   1.390 -1.6776  0.1307  0.4245
 3632SOL     OW10951   4.443   0.953   1.085  0.7976 -0.5744 -0.1478
 3632SOL    HW110952   4.466   0.926   1.174 -1.9113 -2.5854  0.0587
 3632SOL    HW210953   4.446   0.872   1.034 -2.2617 -0.4228 -0.7544
 3633SOL     OW10954   0.228   4.896   1.779 -0.4349 -0.3391  0.3547
 3633SOL    HW110955   0.265   4.873   1.864 -0.8117 -0.2418  0.5452
 3633SOL    HW210956   0.295   4.870   1.716 -0.5129 -1.2339  0.6183
 3634SOL     OW10957   4.371   4.395   3.008  0.3725  0.1444 -0.1330
 3634SOL    HW110958   4.294   4.390   2.952 -0.2367 -0.6827  0.7344
 3634SOL    HW210959   4.343   4.352   3.090  1.4007  0.8165  0.5900
 3635SOL     OW10960   2.396   2.713   3.200  0.1866 -0.7890  0.3445
 3635SOL    HW110961   2.462   2.779   3.183 -0.0526 -0.8731 -1.0606
 3635SOL    HW210962   2.445   2.635   3.225  0.6439 -0.9026 -0.8674
 3636SOL     OW10963   2.195   3.684   2.114 -0.2380  0.1534 -0.3968
 3636SOL    HW110964   2.207   3.676   2.019  0.5399  1.0082 -0.3852
 3636SOL    HW210965   2.155   3.601   2.140  0.2796 -0.4172 -1.3506
 3637SOL     OW10966   3.279   2.171   1.234  0.7637 -0.3136 -0.4998
 3637SOL    HW110967   3.230   2.090   1.221  1.4509 -0.6846 -0.8685
 3637SOL    HW210968   3.226   2.239   1.191  0.4189 -0.6460 -0.6024
 3638SOL     OW10969   3.039   1.197   3.827  0.0539 -0.0277 -0.1157
 3638SOL    HW110970   3.110   1.138   3.853 -1.4718 -1.2626  1.4589
 3638SOL    HW210971   3.063   1.281   3.866  0.7701 -0.3747  0.2225
 3639SOL     OW10972   4.176   4.388   3.845  0.1327 -0.4710 -0.5446
 3639SOL    HW110973   4.263   4.367   3.811  0.9736  0.2162  1.0783
 3639SOL    HW210974   4.189   4.467   3.898 -1.8585  0.8308 -1.8541
 3640SOL     OW10975   0.453   4.516   3.053  0.1692 -0.0709 -0.0561
 3640SOL    HW110976   0.415   4.568   2.982  1.3560  1.5457  0.4427
 3640SOL    HW210977   0.540   4.492   3.022 -0.0253 -1.0337  0.0931
 3641SOL     OW10978   1.917   2.893   0.964  0.1059 -0.0960 -1.1612
 3641SOL    HW110979   1.927   2.980   1.004  1.1707 -0.7382  0.0390
 3641SOL    HW210980   1.953   2.833   1.029  0.1003 -1.3757 -2.3059
 3642SOL     OW10981   0.859   4.617   3.911 -0.2545 -0.2296  0.2370
 3642SOL    HW110982   0.870   4.539   3.966 -2.8345 -2.0441 -1.5667
 3642SOL    HW210983   0.822   4.683   3.969  1.0737 -0.5940  1.5763
 3643SOL     OW10984   4.135   1.966   3.655 -0.3046 -0.1018  0.3992
 3643SOL    HW110985   4.063   2.003   3.706  0.0824 -0.6251  1.3334
 3643SOL    HW210986   4.149   1.879   3.691  1.5607  0.4054  1.0329
 3644SOL     OW10987   2.811   4.184   0.137  0.3866  0.4384  0.3432
 3644SOL    HW110988   2.824   4.112   0.198  0.7811  0.9836  0.9288
 3644SOL    HW210989   2.780   4.256   0.192  2.4465  1.4868  0.2311
 3645SOL     OW10990   1.089   1.579   4.425  0.0702  0.0903 -0.7534
 3645SOL    HW110991   1.130   1.528   4.356 -1.5297  0.5176 -2.0734
 3645SOL    HW210992   1.008   1.533   4.445 -0.8915  1.5002 -1.2335
 3646SOL     OW10993   1.969   3.281   3.379 -0.4616 -0.2331  0.1684
 3646SOL    HW110994   2.061   3.296   3.400 -0.4626  0.0827 -0.0597
 3646SOL    HW210995   1.965   3.188   3.357  0.1987  0.1769 -1.8583
 3647SOL     OW10996   0.320   1.107   4.655  0.1972  0.4013 -0.6049
 3647SOL    HW110997   0.322   1.019   4.616 -0.4321  0.2259 -0.2555
 3647SOL    HW210998   0.387   1.156   4.607  0.5204 -0.2557 -0.8355
 3648SOL     OW10999   4.893   3.486   3.286  1.1319 -0.2986 -0.0135
 3648SOL    HW111000   4.854   3.414   3.334  0.0708  0.0943 -0.2569
 3648SOL    HW211001   4.966   3.515   3.341  1.2760 -1.2355  0.3058
 3649SOL     OW11002   2.044   0.451   3.524  0.3758 -0.1504 -0.4498
 3649SOL    HW111003   2.070   0.405   3.603  2.0984  0.0227 -0.8769
 3649SOL    HW211004   2.100   0.414   3.455  0.8945  1.6278 -1.0368
 3650SOL     OW11005   3.456   1.274   0.734 -0.0153  0.0639  0.2685
 3650SOL    HW111006   3.531   1.215   0.737  0.7900  0.8541 -1.7822
 3650SOL    HW211007   3.388   1.224   0.688  0.0861  0.1284  0.0429
 3651SOL     OW11008   1.714   1.542   2.183 -0.5782  0.0402  0.1464
 3651SOL    HW111009   1.653   1.472   2.161 -1.2636  0.4184  0.8091
 3651SOL    HW211010   1.684   1.617   2.131  0.3451 -0.2295 -0.8044
 3652SOL     OW11011   0.533   2.645   1.800  0.6642 -0.4711  0.1173
 3652SOL    HW111012   0.594   2.586   1.757  1.2015  1.1673 -1.4738
 3652SOL    HW211013   0.587   2.697   1.859  0.4979 -0.3334  0.1508
 3653SOL     OW11014   3.582   1.663   3.783  0.1562 -0.3674 -0.0690
 3653SOL    HW111015   3.580   1.594   3.717  2.2172 -2.7399  2.1239
 3653SOL    HW211016   3.499   1.655   3.829 -0.7897  0.5304 -1.5385
 3654SOL     OW11017   3.744   2.637   4.109  0.0501  0.2349 -0.0547
 3654SOL    HW111018   3.776   2.701   4.173  0.7333  1.3238 -1.4439
 3654SOL    HW211019   3.710   2.690   4.037 -2.1707 -0.9265  0.0356
 3655SOL     OW11020   4.057   3.203   4.316  0.2020  0.4316 -0.1772
 3655SOL    HW111021   3.974   3.157   4.322  0.0024  0.9030  1.0462
 3655SOL    HW211022   4.036   3.286   4.273  0.1417  0.3227 -0.3572
 3656SOL     OW11023   0.593   2.785   0.035  0.3721 -0.4783  0.2129
 3656SOL    HW111024   0.573   2.876   0.014 -1.5055 -0.9996 -0.4142
 3656SOL    HW211025   0.608   2.784   0.129  1.7067  0.6722  0.0447
 3657SOL     OW11026   3.368   1.619   0.742 -0.1198  0.0413 -0.5445
 3657SOL    HW111027   3.410   1.703   0.758 -1.6985  1.2944 -2.4102
 3657SOL    HW211028   3.437   1.564   0.705  0.5038  1.1879 -1.1560
 3658SOL     OW11029   1.985   4.626   1.911  0.1850  0.0753 -0.2642
 3658SOL    HW111030   2.062   4.681   1.896  1.8651 -2.1571 -0.3067
 3658SOL    HW211031   2.012   4.538   1.885 -3.2478 -0.4568 -2.9219
 3659SOL     OW11032   2.020   0.578   1.456  0.3962  0.2748  0.0954
 3659SOL    HW111033   1.981   0.650   1.505 -0.0109  1.6128 -2.0306
 3659SOL    HW211034   2.104   0.612   1.426 -0.4461  0.5316 -2.2097
 3660SOL     OW11035   3.862   4.902   2.440 -0.4541 -0.4587  0.2702
 3660SOL    HW111036   3.842   4.990   2.409 -0.0599 -0.7693 -0.9110
 3660SOL    HW211037   3.777   4.866   2.468 -1.2689 -0.9492 -2.5434
 3661SOL     OW11038   4.343   4.773   2.305  0.1805 -0.2916  0.0787
 3661SOL    HW111039   4.254   4.799   2.330  0.3353  0.4699 -0.1396
 3661SOL    HW211040   4.379   4.850   2.262  1.5806  0.0563  1.7507
 3662SOL     OW11041   3.402   0.453   4.528 -0.3164  0.0837 -0.5489
 3662SOL    HW111042   3.410   0.547   4.507  0.3864  0.2050  0.2053
 3662SOL    HW211043   3.338   0.449   4.598 -0.8007 -0.0677 -0.9960
 3663SOL     OW11044   1.163   2.295   1.426 -0.3341  0.4745  0.1270
 3663SOL    HW111045   1.187   2.242   1.351 -1.1741  0.0739  0.1297
 3663SOL    HW211046   1.230   2.277   1.492  0.2431  0.6123 -0.4206
 3664SOL     OW11047   3.048   1.269   2.580  0.1397  0.6978  0.2422
 3664SOL    HW111048   2.989   1.315   2.520  0.2965  1.4432  0.6486
 3664SOL    HW211049   3.025   1.177   2.570 -0.0335  0.8314 -0.7521
 3665SOL     OW11050   2.364   4.188   0.903  0.0483  0.3913  0.2875
 3665SOL    HW111051   2.376   4.228   0.817  0.5101  0.8815  0.5739
 3665SOL    HW211052   2.306   4.114   0.887  2.5937 -1.5042 -1.0325
 3666SOL     OW11053   4.181   4.942   3.152 -0.5694  0.2505  0.0034
 3666SOL    HW111054   4.217   5.021   3.112  0.1318  0.0274  0.1845
 3666SOL    HW211055   4.150   4.890   3.078 -1.8511  1.0701 -0.0713
 3667SOL     OW11056   2.220   3.986   2.021 -0.0822 -1.0107 -0.7225
 3667SOL    HW111057   2.223   3.890   2.025  1.0653 -0.9335  0.7708
 3667SOL    HW211058   2.279   4.009   1.949  0.2058 -1.3907 -0.6097
 3668SOL     OW11059   2.241   0.866   4.307  0.1325 -0.5068  0.0228
 3668SOL    HW111060   2.233   0.957   4.278  0.7148 -0.2197  0.7215
 3668SOL    HW211061   2.198   0.815   4.238 -0.4945  0.3168 -0.2149
 3669SOL     OW11062   3.189   0.721   4.024  0.6907 -0.5485  0.1658
 3669SOL    HW111063   3.241   0.765   4.091  2.7847  1.2718 -2.4226
 3669SOL    HW211064   3.233   0.742   3.942 -1.9302 -2.3021 -1.8751
 3670SOL     OW11065   1.372   0.436   3.716  0.4084 -0.1265 -0.2014
 3670SOL    HW111066   1.417   0.425   3.632  0.6576 -0.4845 -0.0225
 3670SOL    HW211067   1.437   0.477   3.773  0.5972 -0.8623  0.1279
 3671SOL     OW11068   1.813   3.423   0.892 -0.2029  0.1067 -0.4089
 3671SOL    HW111069   1.885   3.470   0.934 -0.3991 -1.1503  1.4626
 3671SOL    HW211070   1.821   3.445   0.799  1.9069  0.8701 -0.0999
 3672SOL     OW11071   2.022   4.780   3.838 -0.2886  0.5701  0.1879
 3672SOL    HW111072   2.035   4.788   3.744 -1.3470 -0.0414 -0.0262
 3672SOL    HW211073   1.927   4.775   3.849 -0.1727  0.4553  1.2762
 3673SOL     OW11074   4.896   4.603   1.075  0.8922 -0.8114  0.8088
 3673SOL    HW111075   4.924   4.670   1.012 -1.2231 -0.5198  0.1098
 3673SOL    HW211076   4.875   4.652   1.155 -1.3801 -0.4667  0.0630
 3674SOL     OW11077   0.408   0.522   3.997  0.5410  0.0371 -0.2607
 3674SOL    HW111078   0.449   0.530   4.083 -0.0216 -1.1046  0.1231
 3674SOL    HW211079   0.432   0.435   3.967  1.2544  0.6517 -1.5578
 3675SOL     OW11080   0.383   2.626   3.351 -0.2784  0.3160  0.1621
 3675SOL    HW111081   0.467   2.661   3.384 -0.4978  1.0597 -0.0440
 3675SOL    HW211082   0.406   2.542   3.312  0.5811  0.9711 -0.8352
 3676SOL     OW11083   2.121   2.756   3.199  0.4304  0.5207 -0.2042
 3676SOL    HW111084   2.216   2.742   3.201  0.3693  0.0381 -0.4794
 3676SOL    HW211085   2.102   2.778   3.108  0.5666  2.8242  0.2634
 3677SOL     OW11086   3.491   0.497   3.264 -0.0681 -0.2986 -0.4715
 3677SOL    HW111087   3.413   0.523   3.312 -0.2435 -0.4474 -0.6732
 3677SOL    HW211088   3.464   0.418   3.216  0.0124  0.0356 -1.0691
 3678SOL     OW11089   1.934   3.429   3.962 -0.6254  0.0038 -0.4455
 3678SOL    HW111090   1.857   3.373   3.951 -0.0113 -0.8052 -0.6715
 3678SOL    HW211091   1.978   3.427   3.877  0.9419 -1.5119  0.3435
 3679SOL     OW11092   3.186   3.158   2.870 -0.1821  0.0970  0.2703
 3679SOL    HW111093   3.182   3.219   2.944  0.4315 -0.8311  1.1002
 3679SOL    HW211094   3.261   3.101   2.889 -0.3414 -0.5109 -0.7987
 3680SOL     OW11095   4.274   3.504   3.623 -0.0255 -0.0575 -0.9788
 3680SOL    HW111096   4.279   3.409   3.635 -1.0662 -0.2047 -1.5574
 3680SOL    HW211097   4.277   3.539   3.711 -0.2104 -0.6725 -0.7196
 3681SOL     OW11098   3.248   0.432   3.893 -0.3130 -0.1898 -0.2831
 3681SOL    HW111099   3.333   0.455   3.931 -0.8513  2.7847 -0.6432
 3681SOL    HW211100   3.194   0.409   3.969  0.3716 -0.5423  0.1052
 3682SOL     OW11101   2.162   0.498   0.166  0.2653  0.1303  0.5077
 3682SOL    HW111102   2.240   0.496   0.109  0.5629  0.5932  0.8928
 3682SOL    HW211103   2.094   0.536   0.111 -0.3503 -2.4278 -0.6191
 3683SOL     OW11104   2.281   0.547   1.992  0.1233  0.1674 -0.7512
 3683SOL    HW111105   2.200   0.497   1.981  1.3976 -1.7876 -1.8711
 3683SOL    HW211106   2.277   0.579   2.082 -1.8126  0.0039 -0.7295
 3684SOL     OW11107   1.141   2.513   0.730  0.3135  0.0298 -0.5926
 3684SOL    HW111108   1.121   2.486   0.641  0.7210 -2.4591 -0.0065
 3684SOL    HW211109   1.079   2.465   0.785  1.3810 -0.0755  0.5705
 3685SOL     OW11110   4.301   4.948   1.902 -0.5537  0.1555  0.1143
 3685SOL    HW111111   4.342   4.979   1.821  1.0878 -1.8655  0.0957
 3685SOL    HW211112   4.259   4.866   1.878 -1.2705  0.2388  1.0253
 3686SOL     OW11113   0.351   3.297   1.435 -0.0395  0.6027  0.0129
 3686SOL    HW111114   0.269   3.302   1.484 -0.2467 -2.4583  0.1488
 3686SOL    HW211115   0.330   3.246   1.357  1.5146  0.6592 -0.4922
 3687SOL     OW11116   3.125   1.560   4.879 -0.1020 -0.3618  0.1986
 3687SOL    HW111117   3.137   1.555   4.974  3.0368 -1.9686 -0.1781
 3687SOL    HW211118   3.135   1.653   4.858  3.3115 -0.4166  1.0902
 3688SOL     OW11119   0.667   1.012   1.280  0.0781 -0.1926 -0.5465
 3688SOL    HW111120   0.618   1.005   1.363  1.1636 -1.4161  0.0253
 3688SOL    HW211121   0.702   1.101   1.281  0.8652 -0.4800  0.7941
 3689SOL     OW11122   2.646   0.028   2.801  0.1191  0.2794 -0.2084
 3689SOL    HW111123   2.704  -0.049   2.803  0.1141  0.2967  0.8035
 3689SOL    HW211124   2.703   0.101   2.824  0.2309  0.6780 -1.6266
 3690SOL     OW11125   2.649   2.138   4.267 -0.3204 -0.1815  0.2953
 3690SOL    HW111126   2.716   2.089   4.221 -0.2550  1.1861 -1.1605
 3690SOL    HW211127   2.669   2.126   4.360 -0.5301 -3.1309  0.0463
 3691SOL     OW11128   1.959   1.473   2.265 -0.0547 -0.1465  0.2894
 3691SOL    HW111129   1.876   1.517   2.285 -0.2732 -0.2931 -0.2716
 3691SOL    HW211130   1.974   1.494   2.173  1.1100  0.8309  0.6748
 3692SOL     OW11131   2.410   1.488   1.426 -0.0733 -0.2027 -0.4323
 3692SOL    HW111132   2.457   1.459   1.504  0.3128 -0.1009 -0.6222
 3692SOL    HW211133   2.391   1.580   1.442 -1.0057 -0.4623  0.0277
 3693SOL     OW11134   3.735   2.792   3.049 -0.2178 -1.4836  0.3175
 3693SOL    HW111135   3.763   2.884   3.046 -0.0695 -1.5370  0.0117
 3693SOL    HW211136   3.710   2.778   3.140  1.3051 -1.5980  0.7413
 3694SOL     OW11137   2.282   3.678   1.419 -0.0076  0.3659 -0.0585
 3694SOL    HW111138   2.345   3.634   1.476  0.5674  1.0124 -0.1774
 3694SOL    HW211139   2.219   3.717   1.479 -0.9037 -1.1508  0.0271
 3695SOL     OW11140   2.066   1.311   3.063 -0.2013 -0.2349  0.1402
 3695SOL    HW111141   2.154   1.273   3.059 -1.2482 -2.7674 -0.3436
 3695SOL    HW211142   2.040   1.303   3.154 -0.0376  0.3522  0.2473
 3696SOL     OW11143   4.439   4.910   3.261  0.0916 -0.1183  0.2596
 3696SOL    HW111144   4.428   4.816   3.274  1.3548 -0.4670 -0.8512
 3696SOL    HW211145   4.360   4.937   3.214 -0.6521 -0.4422  1.2889
 3697SOL     OW11146   4.355   3.665   2.083  0.4300  0.1100 -0.0284
 3697SOL    HW111147   4.350   3.626   2.170 -0.2409  0.1015 -0.0683
 3697SOL    HW211148   4.324   3.597   2.023  1.7359 -0.2016 -0.3803
 3698SOL     OW11149   3.155   4.844   1.773 -0.2977 -0.1548 -0.2006
 3698SOL    HW111150   3.069   4.858   1.811 -0.7373 -0.8473 -0.9003
 3698SOL    HW211151   3.147   4.874   1.682  1.0128  2.4140  0.4323
 3699SOL     OW11152   1.652   1.346   3.365 -0.5684  0.2144 -0.2603
 3699SOL    HW111153   1.652   1.260   3.406  0.3713 -0.4847 -1.6319
 3699SOL    HW211154   1.711   1.337   3.290 -0.2593  2.1224 -0.3083
 3700SOL     OW11155   2.306   2.955   2.481 -0.3281 -0.0492 -0.0820
 3700SOL    HW111156   2.241   2.894   2.516 -1.7318  0.9230 -0.8802
 3700SOL    HW211157   2.324   3.015   2.553  1.0729 -1.3703  0.7129
 3701SOL     OW11158   2.206   2.192   4.177 -0.3581 -0.9023  0.3822
 3701SOL    HW111159   2.195   2.110   4.226  1.6235 -1.2301  0.3378
 3701SOL    HW211160   2.249   2.251   4.238 -0.2758 -0.4336 -0.1227
 3702SOL     OW11161   4.095   1.271   2.175  0.0234  0.2196  0.3717
 3702SOL    HW111162   4.090   1.366   2.169  0.2814  0.1617 -3.5813
 3702SOL    HW211163   4.018   1.240   2.127 -0.7250 -1.6936  2.5818
 3703SOL     OW11164   0.955   0.730   0.793 -0.0658 -0.2067  0.3177
 3703SOL    HW111165   0.900   0.659   0.760  0.3447  0.0281 -0.9608
 3703SOL    HW211166   1.044   0.705   0.768 -0.1172  1.8072 -2.3739
 3704SOL     OW11167   1.793   3.910   3.643 -0.1365 -0.3334 -0.3225
 3704SOL    HW111168   1.852   3.978   3.610  0.1700 -0.3227  0.2331
 3704SOL    HW211169   1.777   3.854   3.567 -0.8373  0.6604 -0.9469
 3705SOL     OW11170   0.755   3.929   3.543  0.4871  0.0352  0.2432
 3705SOL    HW111171   0.800   4.012   3.559  1.5154 -0.7935  2.0440
 3705SOL    HW211172   0.689   3.949   3.477  1.0949  2.1411  0.2123
 3706SOL     OW11173   0.298   1.482   1.542  0.4607  0.1104 -0.5074
 3706SOL    HW111174   0.273   1.564   1.500  0.8877 -0.1097 -1.1997
 3706SOL    HW211175   0.231   1.469   1.609 -0.9987 -0.1709 -1.9452
 3707SOL     OW11176   2.111   4.377   4.043 -0.2607 -0.1295  0.3956
 3707SOL    HW111177   2.031   4.367   4.094 -0.6896  1.4121  0.0671
 3707SOL    HW211178   2.081   4.391   3.953  0.3716  0.4516  0.2690
 3708SOL     OW11179   1.502   4.374   1.527 -0.1166  0.1986 -0.1520
 3708SOL    HW111180   1.422   4.424   1.514 -1.4674 -1.5891  1.0099
 3708SOL    HW211181   1.538   4.407   1.609 -0.6799 -0.3230  0.3037
 3709SOL     OW11182   2.530   2.127   0.230  0.8257 -0.6343 -0.5932
 3709SOL    HW111183   2.557   2.143   0.140  0.6479  2.6540 -0.1961
 3709SOL    HW211184   2.450   2.074   0.223  0.0184  0.7304 -2.4807
 3710SOL     OW11185   4.350   0.559   1.361  0.1092 -0.1529 -0.8563
 3710SOL    HW111186   4.392   0.509   1.431 -0.5836 -0.9273 -0.9820
 3710SOL    HW211187   4.415   0.561   1.291  0.3498 -0.4062 -0.6446
 3711SOL     OW11188   4.795   2.135   0.106  0.3193 -0.8227 -0.0868
 3711SOL    HW111189   4.781   2.106   0.196  0.5500  0.0274  0.2322
 3711SOL    HW211190   4.792   2.230   0.110  0.9488 -0.7549 -0.8797
 3712SOL     OW11191   3.619   0.799   0.868 -0.4330  0.5361 -0.5191
 3712SOL    HW111192   3.532   0.786   0.830  0.0878  0.9230 -1.9027
 3712SOL    HW211193   3.611   0.878   0.921 -0.7831  0.9027 -1.1095
 3713SOL     OW11194   3.704   1.666   2.999 -0.1004  0.6077  0.0127
 3713SOL    HW111195   3.658   1.680   2.917 -1.1123  1.3615  0.6937
 3713SOL    HW211196   3.769   1.736   3.003 -0.1655  0.6724 -0.0639
 3714SOL     OW11197   2.913   0.511   1.901  0.4076 -0.3777  0.3236
 3714SOL    HW111198   2.989   0.539   1.953  1.1170 -3.0235  0.8228
 3714SOL    HW211199   2.937   0.532   1.811  2.0151 -1.6818  0.4136
 3715SOL     OW11200   2.703   3.063   0.410 -0.1156  0.5883 -0.0280
 3715SOL    HW111201   2.763   3.118   0.359  0.2070  0.6942  0.4509
 3715SOL    HW211202   2.635   3.123   0.440 -0.5081  0.4520 -0.6401
 3716SOL     OW11203   4.543   1.940   0.033  0.9159  0.1231  0.1631
 3716SOL    HW111204   4.566   2.031   0.052  1.8111 -0.0138 -0.1812
 3716SOL    HW211205   4.541   1.898   0.119 -1.0010  0.7670  0.4781
 3717SOL     OW11206   2.434   0.602   4.232 -0.3360 -0.5550  0.9462
 3717SOL    HW111207   2.472   0.612   4.319 -0.2441  0.2018  0.8284
 3717SOL    HW211208   2.505   0.566   4.178 -0.2316 -0.5129  1.0574
 3718SOL     OW11209   3.678   4.497   0.224  0.5701 -0.2977  0.5770
 3718SOL    HW111210   3.748   4.436   0.202 -0.8926 -2.2161  0.9620
 3718SOL    HW211211   3.670   4.492   0.319  0.4991  0.6030  0.6289
 3719SOL     OW11212   2.228   2.604   1.907  0.2749  0.5680  0.5517
 3719SOL    HW111213   2.275   2.520   1.901  2.1499  1.5412  0.7404
 3719SOL    HW211214   2.245   2.646   1.823 -1.9006  0.1886 -0.1225
 3720SOL     OW11215   3.527   0.466   4.035  0.5513 -0.0884  0.6158
 3720SOL    HW111216   3.562   0.377   4.029  1.4028  0.2528  0.3029
 3720SOL    HW211217   3.546   0.493   4.125  1.3587  0.1873  0.3746
 3721SOL     OW11218   4.891   4.213   3.698  0.2907 -0.5575 -0.3301
 3721SOL    HW111219   4.846   4.184   3.778 -0.5561 -2.8981 -1.5359
 3721SOL    HW211220   4.821   4.249   3.643  0.4730 -1.0065 -0.8633
 3722SOL     OW11221   4.626   3.292   2.873 -0.3964 -0.0836 -0.6229
 3722SOL    HW111222   4.644   3.293   2.967  0.3455  0.3270 -0.7638
 3722SOL    HW211223   4.659   3.208   2.844 -1.2887 -0.5226 -0.3984
 3723SOL     OW11224   3.450   2.299   4.496  0.3370  0.0878 -0.4004
 3723SOL    HW111225   3.499   2.344   4.427  1.1109  0.0933  0.1342
 3723SOL    HW211226   3.514   2.239   4.534 -0.2584 -0.3519 -0.0941
 3724SOL     OW11227   1.930   3.963   4.959  0.7413 -0.1513 -0.7800
 3724SOL    HW111228   1.964   4.001   4.878 -0.4870 -0.6685 -1.5605
 3724SOL    HW211229   1.954   3.870   4.953  2.0151  0.0880  0.2031
 3725SOL     OW11230   3.304   3.037   2.098 -0.0033 -0.5877  0.4931
 3725SOL    HW111231   3.211   3.046   2.078 -0.3477 -0.3977  2.0653
 3725SOL    HW211232   3.316   3.085   2.180  1.4955 -0.5516  0.2751
 3726SOL     OW11233   0.201   4.607   3.762  0.2748  0.5351  0.1987
 3726SOL    HW111234   0.205   4.513   3.783 -1.2815  0.3690 -0.0941
 3726SOL    HW211235   0.278   4.644   3.804  1.2969 -0.9788 -0.2511
 3727SOL     OW11236   0.526   1.243   3.750  0.4100  0.8347 -0.4607
 3727SOL    HW111237   0.476   1.309   3.702 -1.8529 -0.6632 -0.3506
 3727SOL    HW211238   0.499   1.253   3.841  0.7773  0.3800 -0.2966
 3728SOL     OW11239   2.137   4.926   1.911  0.2243 -0.0107  0.3017
 3728SOL    HW111240   2.158   4.988   1.842  0.3230 -0.5702 -0.1746
 3728SOL    HW211241   2.204   4.940   1.978  1.2186 -0.7119 -0.5180
 3729SOL     OW11242   3.888   1.517   3.487  0.5148 -0.4937 -0.3853
 3729SOL    HW111243   3.916   1.433   3.452  1.0415 -1.1149  1.3867
 3729SOL    HW211244   3.942   1.582   3.443  0.8034 -1.1723 -1.0461
 3730SOL     OW11245   3.005   2.764   2.937  0.0546  0.0641 -0.5161
 3730SOL    HW111246   2.997   2.858   2.920 -0.7529 -0.2209 -1.8650
 3730SOL    HW211247   3.099   2.747   2.936  0.1542  0.6030 -1.9174
 3731SOL     OW11248   1.862   2.386   2.879  0.0244  0.5685  0.3067
 3731SOL    HW111249   1.831   2.310   2.830  1.2368  0.3430 -0.1525
 3731SOL    HW211250   1.783   2.436   2.899 -0.6168  0.0491 -0.8433
 3732SOL     OW11251   2.111   4.704   2.999  0.0569 -0.3555  0.1214
 3732SOL    HW111252   2.059   4.693   2.920  1.5155  0.2041 -0.9646
 3732SOL    HW211253   2.089   4.791   3.031 -1.4902 -1.0683  1.1015
 3733SOL     OW11254   3.223   0.942   2.496  0.3677 -0.0088  1.1038
 3733SOL    HW111255   3.278   0.871   2.529  0.4473 -0.5412 -0.1233
 3733SOL    HW211256   3.136   0.924   2.531  0.1250 -1.3944 -0.1327
 3734SOL     OW11257   4.307   3.885   0.780 -0.1219  0.1409  0.5036
 3734SOL    HW111258   4.296   3.972   0.819 -0.5376  0.5171 -0.4213
 3734SOL    HW211259   4.279   3.896   0.689 -1.5886 -1.3053  0.7398
 3735SOL     OW11260   4.273   2.999   1.866  0.3730  1.1084  0.3643
 3735SOL    HW111261   4.179   2.984   1.862  0.5549  0.1814 -1.9529
 3735SOL    HW211262   4.312   2.917   1.833  1.9679  1.5900  0.9653
 3736SOL     OW11263   4.769   4.927   0.662  0.0521 -0.1831  0.0121
 3736SOL    HW111264   4.734   4.953   0.577  0.3458 -0.9309 -0.3457
 3736SOL    HW211265   4.696   4.938   0.723 -0.0353  0.7616 -0.2524
 3737SOL     OW11266   2.414   1.631   3.245 -0.1273 -0.1551  0.3835
 3737SOL    HW111267   2.368   1.701   3.290 -0.7791  0.4553 -1.1486
 3737SOL    HW211268   2.390   1.551   3.292 -1.1443  0.3891  0.8119
 3738SOL     OW11269   3.396   2.057   4.026  0.3304  0.2671  0.6962
 3738SOL    HW111270   3.415   2.149   4.010 -0.1379  0.4510  1.1869
 3738SOL    HW211271   3.452   2.010   3.964 -0.0027  0.9044 -0.1125
 3739SOL     OW11272   0.480   0.108   2.886 -0.3824 -0.0910 -0.0172
 3739SOL    HW111273   0.416   0.155   2.939  2.0770  1.0668  2.1122
 3739SOL    HW211274   0.475   0.150   2.800 -0.4770  1.9778  0.9373
 3740SOL     OW11275   4.954   2.769   4.612  0.1332  0.1229  0.0250
 3740SOL    HW111276   4.952   2.780   4.517  0.6124  2.7517  0.2501
 3740SOL    HW211277   5.030   2.820   4.641  0.0424 -0.6730  1.8279
 3741SOL     OW11278   0.568   3.070   1.364  0.9260 -0.1256  0.1039
 3741SOL    HW111279   0.485   3.055   1.318  1.0719 -2.0383  0.3903
 3741SOL    HW211280   0.542   3.101   1.451  0.5969  1.4855 -0.5403
 3742SOL     OW11281   1.642   2.822   4.575  0.1443  0.5330  0.0905
 3742SOL    HW111282   1.659   2.915   4.568  1.1648  0.3770  0.3414
 3742SOL    HW211283   1.582   2.814   4.650  0.7778  0.9125  0.6442
 3743SOL     OW11284   0.775   4.421   0.892 -0.1747  0.3098  0.1478
 3743SOL    HW111285   0.816   4.370   0.962 -2.5626 -2.6304 -0.3792
 3743SOL    HW211286   0.829   4.403   0.814  1.5515  2.3093  0.7818
 3744SOL     OW11287   2.049   3.026   1.273 -0.1117 -0.4950 -0.1243
 3744SOL    HW111288   2.033   3.118   1.252 -2.2989 -0.9241 -0.6043
 3744SOL    HW211289   2.132   3.026   1.320 -0.4617  1.8279  0.6176
 3745SOL     OW11290   4.627   2.556   2.812 -0.0900  0.0522  0.0501
 3745SOL    HW111291   4.543   2.558   2.858 -1.0927  3.1351 -1.6092
 3745SOL    HW211292   4.609   2.510   2.731 -0.4286  1.3656 -0.6418
 3746SOL     OW11293   2.176   0.434   0.423 -0.4397 -0.7117 -0.2162
 3746SOL    HW111294   2.086   0.467   0.434 -0.1140  0.0995  0.1024
 3746SOL    HW211295   2.196   0.449   0.331 -0.8800 -1.5585 -0.4583
 3747SOL     OW11296   3.407   0.659   2.196  0.0373  0.2490  0.0810
 3747SOL    HW111297   3.457   0.605   2.135 -0.0684  0.4014 -0.1385
 3747SOL    HW211298   3.459   0.658   2.277 -1.3351 -2.5798  1.0713
 3748SOL     OW11299   1.692   1.764   2.031 -0.5363  0.5366  0.2168
 3748SOL    HW111300   1.690   1.854   1.998 -0.9630  0.3052 -0.3964
 3748SOL    HW211301   1.669   1.710   1.955  1.2763 -0.2124  0.1598
 3749SOL     OW11302   2.036   3.452   4.202  0.0156 -0.5056 -0.2209
 3749SOL    HW111303   1.995   3.450   4.116  0.4686 -0.7258 -0.4328
 3749SOL    HW211304   2.023   3.364   4.237 -0.0803 -0.4454 -0.1042
 3750SOL     OW11305   4.929   0.202   0.886  0.6284 -0.1036 -0.0888
 3750SOL    HW111306   4.921   0.158   0.802  1.9422 -1.0328  0.2519
 3750SOL    HW211307   4.868   0.155   0.943 -0.8670  1.0354 -0.6796
 3751SOL     OW11308   2.424   3.596   4.469  0.2943 -0.5356 -0.4834
 3751SOL    HW111309   2.365   3.633   4.534 -2.2367  0.7770 -3.2733
 3751SOL    HW211310   2.506   3.645   4.479 -0.8357  1.3204  0.1366
 3752SOL     OW11311   0.575   1.047   4.083  0.2166 -0.7746 -0.0750
 3752SOL    HW111312   0.647   1.100   4.116 -0.6445  1.3039 -1.3279
 3752SOL    HW211313   0.618   0.970   4.044  1.4263 -1.5959  2.6758
 3753SOL     OW11314   3.422   2.631   3.384  0.1064  0.1816  0.1377
 3753SOL    HW111315   3.478   2.578   3.328  1.0431  0.4634  0.7773
 3753SOL    HW211316   3.413   2.715   3.338  1.1998  0.5545  0.5579
 3754SOL     OW11317   2.129   0.019   4.607 -0.2974 -0.2437  0.9615
 3754SOL    HW111318   2.042  -0.007   4.575  0.2432 -0.2611 -0.6055
 3754SOL    HW211319   2.189  -0.044   4.567  0.6885  1.3283 -0.1740
 3755SOL     OW11320   3.832   4.095   2.432  0.4354 -0.5399  0.1470
 3755SOL    HW111321   3.889   4.172   2.445  0.5992 -0.5598 -0.4446
 3755SOL    HW211322   3.892   4.026   2.404  0.1588 -0.6355 -0.2173
 3756SOL     OW11323   2.077   4.740   1.264  0.0122 -0.3444  0.4988
 3756SOL    HW111324   2.055   4.791   1.342  0.0554 -0.1381  0.3767
 3756SOL    HW211325   2.146   4.680   1.294  1.3069  0.9401  0.2121
 3757SOL     OW11326   0.602   0.175   1.616 -0.3077 -0.1889 -0.3326
 3757SOL    HW111327   0.673   0.114   1.633 -1.0519 -1.2643 -0.9388
 3757SOL    HW211328   0.544   0.166   1.692  0.7431  1.5467  0.7304
 3758SOL     OW11329   3.784   3.174   3.984  0.3717  0.7496  0.1129
 3758SOL    HW111330   3.788   3.080   3.999  1.0429  0.6009 -0.9142
 3758SOL    HW211331   3.725   3.184   3.909  0.2588  1.1507  0.2525
 3759SOL     OW11332   4.379   4.493   0.367  0.4369 -0.4961 -0.1553
 3759SOL    HW111333   4.421   4.572   0.333  0.6818  0.1471  1.5497
 3759SOL    HW211334   4.451   4.440   0.401  0.1202 -0.5917  0.3883
 3760SOL     OW11335   3.287   4.564   1.830 -0.2231 -0.3679 -0.3117
 3760SOL    HW111336   3.274   4.500   1.761 -0.4387  1.2780 -1.8803
 3760SOL    HW211337   3.230   4.637   1.806  0.0078  0.4203  1.3977
 3761SOL     OW11338   0.741   4.974   1.425 -0.0294  0.1209  0.2181
 3761SOL    HW111339   0.669   4.990   1.486 -0.5414 -1.0748 -0.0542
 3761SOL    HW211340   0.815   5.024   1.462 -0.8431  0.9546  0.7697
 3762SOL     OW11341   4.231   0.185   1.524 -0.6161  0.7161 -0.5335
 3762SOL    HW111342   4.147   0.225   1.544 -0.5224  0.3507  0.7391
 3762SOL    HW211343   4.242   0.195   1.430 -2.7721 -0.5450 -0.9774
 3763SOL     OW11344   1.582   1.226   3.944  0.1340 -0.6775 -0.2018
 3763SOL    HW111345   1.613   1.275   4.021  1.2910 -0.0211 -1.0568
 3763SOL    HW211346   1.602   1.134   3.965  1.0810 -0.4352  0.0023
 3764SOL     OW11347   2.763   1.406   1.216 -0.2073  0.1788 -0.1921
 3764SOL    HW111348   2.680   1.435   1.179  0.1551 -0.7982 -1.8546
 3764SOL    HW211349   2.830   1.455   1.168  0.2401 -0.1979  0.0309
 3765SOL     OW11350   1.344   0.069   3.029 -0.0046 -0.2754 -0.0228
 3765SOL    HW111351   1.380  -0.012   3.062 -0.4395 -0.6734 -0.4968
 3765SOL    HW211352   1.296   0.106   3.103  0.0946 -0.5112  0.1602
 3766SOL     OW11353   4.470   1.646   2.144 -0.2816  0.2575 -0.0202
 3766SOL    HW111354   4.461   1.551   2.144  0.0612  0.1829 -1.7724
 3766SOL    HW211355   4.560   1.662   2.117  0.0951  1.0922  1.6367
 3767SOL     OW11356   3.752   1.160   2.788 -0.2104 -0.4427  0.6198
 3767SOL    HW111357   3.702   1.238   2.811  0.6413  0.6335 -1.0686
 3767SOL    HW211358   3.829   1.163   2.845  0.1452  0.3031  0.1001
 3768SOL     OW11359   3.316   2.950   1.023  0.1023 -0.1105 -0.6346
 3768SOL    HW111360   3.409   2.931   1.007 -0.3400 -0.5867 -2.8823
 3768SOL    HW211361   3.290   2.886   1.089  1.2607 -0.1985 -0.2313
 3769SOL     OW11362   4.839   4.968   3.793 -0.6288 -0.2510 -0.2981
 3769SOL    HW111363   4.838   4.974   3.888  0.5498 -0.2505 -0.2723
 3769SOL    HW211364   4.786   5.043   3.764  1.4946  1.5751  0.3206
 3770SOL     OW11365   4.832   0.558   2.330 -0.0136  0.6452  0.1683
 3770SOL    HW111366   4.830   0.588   2.239 -0.2237 -0.1712 -0.0996
 3770SOL    HW211367   4.914   0.594   2.364 -0.3480  1.7001 -0.0711
 3771SOL     OW11368   1.707   4.141   1.518 -0.0106 -0.1459  0.2944
 3771SOL    HW111369   1.663   4.117   1.599 -0.0876  0.1548  0.3445
 3771SOL    HW211370   1.652   4.105   1.449 -1.1257  1.4396  0.3063
 3772SOL     OW11371   3.601   4.588   4.803 -0.0784  0.0074  0.0833
 3772SOL    HW111372   3.672   4.640   4.767 -0.1442  0.8384  1.1236
 3772SOL    HW211373   3.573   4.532   4.730 -1.0278  2.4650 -1.5761
 3773SOL     OW11374   4.690   3.721   4.067 -0.0220 -0.0290 -0.1635
 3773SOL    HW111375   4.737   3.638   4.069  0.4489  0.2222 -0.4328
 3773SOL    HW211376   4.607   3.704   4.111 -0.1988 -0.8065 -0.7874
 3774SOL     OW11377   4.845   3.931   1.225 -0.0613 -0.4137  0.0237
 3774SOL    HW111378   4.784   3.965   1.290 -0.5026 -0.6901 -0.2372
 3774SOL    HW211379   4.803   3.950   1.141 -0.0351 -1.0562 -0.1440
 3775SOL     OW11380   4.848   4.711   1.340 -0.1313 -0.1039 -0.2060
 3775SOL    HW111381   4.928   4.699   1.390 -0.4804  0.6264  0.5626
 3775SOL    HW211382   4.779   4.675   1.396 -0.4061 -0.2066 -0.6067
 3776SOL     OW11383   3.642   3.229   4.487 -0.0494 -0.0979 -0.4411
 3776SOL    HW111384   3.619   3.304   4.433  0.2987  0.6171  0.3712
 3776SOL    HW211385   3.568   3.219   4.547  0.3430  0.2191  0.1004
 3777SOL     OW11386   4.111   1.548   0.844  0.6099  0.4849  0.3443
 3777SOL    HW111387   4.116   1.573   0.752  2.0170 -2.8981 -0.6882
 3777SOL    HW211388   4.055   1.470   0.845  0.6090  0.4551  2.3643
 3778SOL     OW11389   0.787   1.572   2.207  0.2165 -0.1798  0.2945
 3778SOL    HW111390   0.847   1.534   2.271 -0.2469 -1.1369  0.1725
 3778SOL    HW211391   0.817   1.662   2.196  1.7802 -0.7154  0.0502
 3779SOL     OW11392   0.797   4.706   0.682 -0.1152 -0.0824  0.5914
 3779SOL    HW111393   0.763   4.728   0.768  0.5602 -0.2852  0.9184
 3779SOL    HW211394   0.763   4.619   0.664  0.3591 -0.3559  0.9921
 3780SOL     OW11395   3.980   1.096   4.400 -0.0204 -0.1860  0.1524
 3780SOL    HW111396   3.910   1.100   4.335  1.1634 -1.9282 -1.3328
 3780SOL    HW211397   3.988   1.186   4.432 -2.2894  0.2249 -0.2823
 3781SOL     OW11398   1.248   3.412   0.289 -0.6064 -0.4516  0.2556
 3781SOL    HW111399   1.160   3.374   0.287 -1.2878  1.0397  0.4079
 3781SOL    HW211400   1.239   3.495   0.244  1.4051 -1.4927 -2.2967
 3782SOL     OW11401   2.826   4.034   2.282 -0.0971 -0.3749  0.3540
 3782SOL    HW111402   2.896   4.014   2.221  0.6905  1.2076  0.6925
 3782SOL    HW211403   2.746   4.005   2.238  0.4299  0.8474 -1.5046
 3783SOL     OW11404   0.229   0.588   4.724  0.5010 -1.1706 -0.5348
 3783SOL    HW111405   0.171   0.515   4.699  1.0204 -1.0706 -2.1835
 3783SOL    HW211406   0.314   0.547   4.737  0.8309 -0.8651 -1.6266
 3784SOL     OW11407   4.144   4.916   2.418 -0.3761  0.3888 -0.0003
 3784SOL    HW111408   4.049   4.906   2.426 -0.1548 -1.4276  0.7747
 3784SOL    HW211409   4.156   4.969   2.339 -2.0503  1.4678  0.4253
 3785SOL     OW11410   0.791   1.562   3.753 -0.1341  0.0169 -0.0058
 3785SOL    HW111411   0.879   1.600   3.762 -0.3396  0.4452  0.2240
 3785SOL    HW211412   0.791   1.489   3.814 -1.2861  2.4871  3.2406
 3786SOL     OW11413   0.724   4.017   1.794 -0.3409  0.0471 -0.5386
 3786SOL    HW111414   0.767   4.094   1.831  1.9836 -0.7415 -1.4201
 3786SOL    HW211415   0.756   3.944   1.847 -1.5668 -0.4526 -0.4687
 3787SOL     OW11416   3.030   2.001   1.178 -0.3254  0.0847  0.2260
 3787SOL    HW111417   2.953   1.946   1.194 -0.8226  0.5269 -0.5755
 3787SOL    HW211418   2.993   2.083   1.145  0.3650  1.0963  1.8526
 3788SOL     OW11419   3.792   2.217   4.331 -0.3229 -0.5000  0.4618
 3788SOL    HW111420   3.872   2.243   4.378 -0.9789  1.7305  0.4572
 3788SOL    HW211421   3.750   2.153   4.389  0.7931 -0.7168  1.0698
 3789SOL     OW11422   2.361   3.605   3.975  0.3094  0.1052  0.1356
 3789SOL    HW111423   2.289   3.609   4.038  0.7981 -0.0018  0.7054
 3789SOL    HW211424   2.322   3.565   3.897 -0.1876 -0.1896  0.5289
 3790SOL     OW11425   1.612   3.124   4.566  0.1020 -0.2792  0.5103
 3790SOL    HW111426   1.555   3.143   4.492 -0.1968 -3.2120 -0.1455
 3790SOL    HW211427   1.579   3.180   4.637 -1.4862  0.4623 -0.7537
 3791SOL     OW11428   3.447   0.914   2.120 -0.2849  0.1324  0.0674
 3791SOL    HW111429   3.441   0.821   2.142 -0.1146  0.5632  2.2312
 3791SOL    HW211430   3.477   0.916   2.030  5.2511 -1.9889  1.4424
 3792SOL     OW11431   2.124   1.834   1.195 -0.2736  0.0148  0.1504
 3792SOL    HW111432   2.045   1.825   1.142  0.0225 -2.5367  0.0207
 3792SOL    HW211433   2.179   1.760   1.169  1.5862  0.9620  1.2039
 3793SOL     OW11434   2.273   3.711   1.846 -0.0635  0.3919  0.0641
 3793SOL    HW111435   2.315   3.625   1.851 -0.5595  0.1629  0.3686
 3793SOL    HW211436   2.344   3.771   1.826  0.5386  0.1196  1.2887
 3794SOL     OW11437   3.539   2.344   3.772  0.1573  0.6729  0.0787
 3794SOL    HW111438   3.527   2.343   3.868  0.2759 -0.8026  0.0988
 3794SOL    HW211439   3.450   2.334   3.738  0.4072 -2.6516  0.1285
 3795SOL     OW11440   2.328   4.736   3.519 -0.7481 -0.5850  0.3279
 3795SOL    HW111441   2.326   4.830   3.502 -0.6723 -0.7906 -0.8793
 3795SOL    HW211442   2.413   4.721   3.560 -0.6189 -0.1814  0.2120
 3796SOL     OW11443   2.602   1.249   2.107  0.2095 -0.2223 -0.5603
 3796SOL    HW111444   2.628   1.180   2.046  1.3416 -0.7857  0.5210
 3796SOL    HW211445   2.675   1.310   2.107 -0.4396  0.5764 -0.8992
 3797SOL     OW11446   1.441   2.951   1.974 -0.0402 -0.3030 -0.3170
 3797SOL    HW111447   1.534   2.962   1.990  0.6291 -0.6303 -3.4392
 3797SOL    HW211448   1.414   2.882   2.035  1.8198 -0.4495  0.3940
 3798SOL     OW11449   0.228   4.351   4.942  0.1759 -0.0436  0.5632
 3798SOL    HW111450   0.180   4.268   4.941  0.7160 -0.4369 -2.1158
 3798SOL    HW211451   0.167   4.414   4.903  1.2275 -0.2329 -1.5227
 3799SOL     OW11452   3.899   4.689   3.674 -0.6225  0.4793 -0.7379
 3799SOL    HW111453   3.832   4.673   3.608  0.4797  0.6428 -1.9509
 3799SOL    HW211454   3.967   4.624   3.654  0.9160  2.2215 -1.4746
 3800SOL     OW11455   1.798   0.497   2.728 -0.0132  0.3024 -0.0869
 3800SOL    HW111456   1.736   0.477   2.658  1.5942  0.5257 -1.6526
 3800SOL    HW211457   1.763   0.576   2.769  0.1551  1.5751 -2.2165
 3801SOL     OW11458   2.956   2.628   1.177 -0.1149 -0.3643 -0.2565
 3801SOL    HW111459   2.889   2.602   1.113 -0.7174  0.9869 -0.1918
 3801SOL    HW211460   2.912   2.622   1.262  0.3947 -1.2055 -0.0424
 3802SOL     OW11461   4.684   3.831   3.801  0.3273  0.5778 -0.0543
 3802SOL    HW111462   4.684   3.781   3.882  0.1553 -0.1931 -0.5197
 3802SOL    HW211463   4.717   3.770   3.735 -1.6960  0.4261 -1.0073
 3803SOL     OW11464   0.756   1.214   0.696 -0.1652  0.0902 -0.0315
 3803SOL    HW111465   0.798   1.295   0.668 -0.9389 -0.0672 -1.7972
 3803SOL    HW211466   0.713   1.237   0.778  1.6380  0.7780  0.7671
 3804SOL     OW11467   2.794   4.783   2.795  0.3500  0.0348 -0.0050
 3804SOL    HW111468   2.745   4.774   2.713  0.4908  2.9426 -0.5294
 3804SOL    HW211469   2.831   4.696   2.811 -2.9688 -1.6913 -0.8266
 3805SOL     OW11470   0.868   4.175   3.037  0.3337  0.1129  0.1335
 3805SOL    HW111471   0.779   4.141   3.039  1.2307 -2.4182 -0.1328
 3805SOL    HW211472   0.893   4.184   3.129  0.1188 -0.0358  0.2053
 3806SOL     OW11473   4.466   2.338   1.532  0.0052 -0.3019 -0.0075
 3806SOL    HW111474   4.405   2.304   1.466  2.3785 -2.6575 -1.1685
 3806SOL    HW211475   4.497   2.260   1.578  0.3682  1.0663  2.2050
 3807SOL     OW11476   1.651   0.685   1.449  0.4433  0.6093  0.1749
 3807SOL    HW111477   1.731   0.684   1.396  0.8468 -0.2329  0.7836
 3807SOL    HW211478   1.608   0.767   1.425  1.5443  1.1311 -0.0844
 3808SOL     OW11479   2.633   3.798   4.464  0.0343 -0.2279  0.8636
 3808SOL    HW111480   2.624   3.845   4.548  0.9935 -0.0688  0.8944
 3808SOL    HW211481   2.726   3.803   4.445 -0.2480  0.1708 -0.4734
 3809SOL     OW11482   1.643   3.544   2.891 -0.3054  0.0373  0.3207
 3809SOL    HW111483   1.670   3.477   2.952 -0.2399  0.4958  0.8040
 3809SOL    HW211484   1.584   3.600   2.941  0.8162  1.2116  0.4017
 3810SOL     OW11485   0.207   1.492   1.229  0.3564 -0.0998  0.5297
 3810SOL    HW111486   0.285   1.438   1.220 -1.1956 -2.4827  0.3029
 3810SOL    HW211487   0.147   1.439   1.282 -2.2996  0.1403 -1.9643
 3811SOL     OW11488   3.030   2.201   3.117  0.2425 -0.2929  0.0719
 3811SOL    HW111489   3.024   2.115   3.074 -0.1727  1.0780 -2.8339
 3811SOL    HW211490   2.947   2.244   3.095  0.1977  0.7019  1.9637
 3812SOL     OW11491   0.731   0.441   1.580  0.2077 -0.0921  0.1827
 3812SOL    HW111492   0.719   0.347   1.592 -0.8060 -0.4118 -2.6287
 3812SOL    HW211493   0.652   0.480   1.618  0.3941 -0.3956  0.8982
 3813SOL     OW11494   2.779   2.191   2.189 -0.2530  0.1017 -0.1535
 3813SOL    HW111495   2.790   2.113   2.135 -1.9018 -0.0654 -0.2731
 3813SOL    HW211496   2.803   2.162   2.277  2.5075  0.3901 -0.7034
 3814SOL     OW11497   2.649   0.503   1.801  0.0662 -0.2312  0.5570
 3814SOL    HW111498   2.595   0.434   1.763  0.6381  0.6459 -2.0595
 3814SOL    HW211499   2.725   0.457   1.838 -0.5927 -1.1536  0.7906
 3815SOL     OW11500   1.579   1.706   0.206 -0.6092  0.1973 -0.5453
 3815SOL    HW111501   1.634   1.768   0.158  0.2851 -0.8409 -0.9211
 3815SOL    HW211502   1.588   1.624   0.157  1.0130 -1.1604  1.8089
 3816SOL     OW11503   3.531   1.742   1.990  0.7567 -0.1934 -0.5571
 3816SOL    HW111504   3.595   1.742   1.919  1.8467 -0.2525  0.3904
 3816SOL    HW211505   3.488   1.656   1.984  0.6180 -0.0752 -1.3259
 3817SOL     OW11506   1.377   2.715   3.131 -0.6330  0.1084  0.1390
 3817SOL    HW111507   1.321   2.739   3.204  0.7722 -0.3139  1.4208
 3817SOL    HW211508   1.366   2.620   3.122 -0.1674  0.0295  0.3723
 3818SOL     OW11509   1.502   2.416   3.167 -0.1293 -0.0086  0.3710
 3818SOL    HW111510   1.426   2.394   3.222 -1.2801  1.1005 -0.6945
 3818SOL    HW211511   1.512   2.341   3.108  0.4991 -0.7719  1.4290
 3819SOL     OW11512   3.780   4.832   4.801  0.6178 -0.1895 -0.0779
 3819SOL    HW111513   3.702   4.884   4.783 -0.1126 -0.6887  1.4720
 3819SOL    HW211514   3.830   4.884   4.864  0.5448 -0.7250  0.4422
 3820SOL     OW11515   2.875   3.465   2.774  0.4512 -0.5441 -0.0797
 3820SOL    HW111516   2.880   3.389   2.716  0.8730 -0.2849 -0.3823
 3820SOL    HW211517   2.950   3.520   2.750  0.6951 -0.4777  0.7714
 3821SOL     OW11518   0.248   0.257   4.355  0.0507  0.0721 -0.1721
 3821SOL    HW111519   0.190   0.231   4.427  0.5448 -2.4461 -0.5944
 3821SOL    HW211520   0.298   0.330   4.391  0.7607 -1.5012  2.3343
 3822SOL     OW11521   4.691   0.798   2.433  0.3286 -0.4336 -0.1372
 3822SOL    HW111522   4.731   0.723   2.388  2.1162 -0.7914  1.8917
 3822SOL    HW211523   4.756   0.868   2.426  0.7330 -0.5388  1.8846
 3823SOL     OW11524   4.189   1.684   2.938 -0.3256  0.0268  0.1637
 3823SOL    HW111525   4.248   1.759   2.944 -0.5752  0.2477 -0.1822
 3823SOL    HW211526   4.201   1.638   3.022  1.3592 -0.6868 -0.4195
 3824SOL     OW11527   3.302   4.391   3.277  0.2636 -0.6477  0.3233
 3824SOL    HW111528   3.250   4.376   3.198 -0.1069 -0.2276  0.4769
 3824SOL    HW211529   3.279   4.480   3.303  2.5657  0.3042 -0.6969
 3825SOL     OW11530   4.677   1.113   0.270  0.2347  0.0194 -0.3884
 3825SOL    HW111531   4.639   1.198   0.289 -3.1567 -1.4699  0.1775
 3825SOL    HW211532   4.669   1.104   0.175 -2.1020 -0.6960 -0.1942
 3826SOL     OW11533   4.718   4.070   4.542  0.0104 -0.8872  0.0126
 3826SOL    HW111534   4.807   4.045   4.516  0.5550  0.7594  0.1781
 3826SOL    HW211535   4.691   4.134   4.476  0.0434  0.6918  1.4652
 3827SOL     OW11536   0.938   1.524   4.736 -0.1056  0.1926 -0.3507
 3827SOL    HW111537   0.858   1.550   4.689 -0.4520  1.0285  0.6436
 3827SOL    HW211538   0.907   1.463   4.803  0.3620 -0.8929 -1.1148
 3828SOL     OW11539   4.800   2.233   2.465 -0.5644  0.0179 -0.7456
 3828SOL    HW111540   4.722   2.268   2.421 -0.7231  1.9362  0.9411
 3828SOL    HW211541   4.832   2.305   2.518  1.6281 -1.1530 -0.3638
 3829SOL     OW11542   1.771   4.068   2.179 -0.0506 -0.9586 -0.2521
 3829SOL    HW111543   1.866   4.056   2.175  0.1116 -0.0604  0.4431
 3829SOL    HW211544   1.736   3.980   2.188  0.5838 -1.4690 -2.2759
 3830SOL     OW11545   2.106   0.723   0.849  0.3228  0.0889 -0.5454
 3830SOL    HW111546   2.101   0.813   0.879  1.1031 -0.3018  0.8389
 3830SOL    HW211547   2.054   0.721   0.769  0.7753  1.8864 -0.9107
 3831SOL     OW11548   4.539   2.248   0.027  0.5646 -0.0240  0.5842
 3831SOL    HW111549   4.532   2.269   0.120 -0.0867 -1.3706  0.8696
 3831SOL    HW211550   4.632   2.254   0.008  0.9405 -1.4407  1.7744
 3832SOL     OW11551   3.893   4.705   1.250  0.4180 -0.3265 -0.3840
 3832SOL    HW111552   3.892   4.799   1.231  0.8506  0.3960  2.6223
 3832SOL    HW211553   3.981   4.688   1.282  0.1089 -1.6048 -0.1594
 3833SOL     OW11554   2.564   4.396   1.583 -0.4105  0.3754  0.1717
 3833SOL    HW111555   2.651   4.371   1.611  0.0613  2.1946  0.4789
 3833SOL    HW211556   2.567   4.394   1.487 -0.0212  0.4597  0.1828
 3834SOL     OW11557   0.724   4.456   1.548 -0.1338 -0.0999 -0.0108
 3834SOL    HW111558   0.695   4.395   1.616  0.4813 -0.2220  0.1419
 3834SOL    HW211559   0.642   4.495   1.516 -0.7702 -2.5864 -1.6509
 3835SOL     OW11560   1.293   4.132   0.623  0.7348 -0.4995  0.3162
 3835SOL    HW111561   1.286   4.095   0.535  1.0010  0.9269 -0.3336
 3835SOL    HW211562   1.384   4.161   0.630  0.7956 -0.8786  1.1819
 3836SOL     OW11563   4.769   2.077   3.250  0.2376 -0.0181 -0.3459
 3836SOL    HW111564   4.834   2.106   3.314  2.3684  2.9031 -3.5274
 3836SOL    HW211565   4.819   2.044   3.176 -2.1293 -3.7307 -0.5733
 3837SOL     OW11566   1.934   3.191   4.891 -0.2215  0.1460  0.1292
 3837SOL    HW111567   2.017   3.205   4.936 -0.1912  0.7658 -0.1015
 3837SOL    HW211568   1.891   3.277   4.895  0.6748  0.8239 -2.8378
 3838SOL     OW11569   4.834   0.896   3.790 -0.4411  0.4376 -0.4236
 3838SOL    HW111570   4.873   0.855   3.867 -1.1129  1.1094  0.2912
 3838SOL    HW211571   4.869   0.985   3.789 -0.5173  0.4671 -0.8408
 3839SOL     OW11572   4.557   1.931   2.195  0.6085 -0.5384  0.0064
 3839SOL    HW111573   4.465   1.904   2.191  0.3363  0.4574 -0.6256
 3839SOL    HW211574   4.604   1.861   2.150  0.0692 -0.6505 -0.3953
 3840SOL     OW11575   1.163   2.917   3.250 -0.7906 -0.1548  0.1760
 3840SOL    HW111576   1.206   2.867   3.320  1.2230  0.0280 -0.8514
 3840SOL    HW211577   1.136   2.850   3.187  1.0670 -0.1020 -0.7534
 3841SOL     OW11578   1.133   3.174   3.424 -0.0149  0.3694 -0.5485
 3841SOL    HW111579   1.079   3.217   3.491 -0.5330 -0.5317 -0.3673
 3841SOL    HW211580   1.158   3.091   3.464 -1.5635 -0.8548 -2.0012
 3842SOL     OW11581   2.409   4.448   0.059  0.2245 -0.3238  0.1688
 3842SOL    HW111582   2.451   4.466   0.143 -0.6486  0.6806  0.4168
 3842SOL    HW211583   2.355   4.370   0.074  2.6578 -2.2314 -0.4176
 3843SOL     OW11584   0.231   2.130   2.786  0.3545 -0.4633  0.0873
 3843SOL    HW111585   0.146   2.167   2.764  0.1264 -0.3878  1.0731
 3843SOL    HW211586   0.236   2.049   2.736 -0.7907 -1.0573  0.8895
 3844SOL     OW11587   1.937   4.385   4.263 -0.0371  0.3844 -1.1666
 3844SOL    HW111588   2.008   4.405   4.324 -0.6982  1.1886 -0.6413
 3844SOL    HW211589   1.869   4.344   4.317 -0.3929  0.5803 -1.4540
 3845SOL     OW11590   3.817   4.432   4.959 -0.3055 -0.4216  0.2835
 3845SOL    HW111591   3.780   4.345   4.973 -2.7763  0.3731 -0.6542
 3845SOL    HW211592   3.742   4.485   4.930  1.1023  2.0188  0.8290
 3846SOL     OW11593   3.478   0.043   1.499 -0.2292 -0.1827  0.2152
 3846SOL    HW111594   3.504   0.067   1.410 -1.2882 -0.5111 -0.1906
 3846SOL    HW211595   3.507  -0.047   1.510 -1.2865 -0.5991 -0.2913
 3847SOL     OW11596   2.344   4.427   2.510  0.3680 -0.7867  0.1674
 3847SOL    HW111597   2.249   4.439   2.507  0.0091 -3.2256 -0.4698
 3847SOL    HW211598   2.368   4.450   2.600 -0.1963  3.1939 -0.5299
 3848SOL     OW11599   2.969   0.180   3.854  0.3491 -0.2322  0.5820
 3848SOL    HW111600   3.029   0.214   3.919 -0.1061  1.1919  0.2956
 3848SOL    HW211601   2.916   0.116   3.901  1.4598 -0.8322  1.0493
 3849SOL     OW11602   4.868   4.101   3.096  0.1874  0.2491  0.1175
 3849SOL    HW111603   4.905   4.020   3.060 -0.5485 -0.3159  0.6180
 3849SOL    HW211604   4.791   4.118   3.041  0.9424  1.2234 -0.6862
 3850SOL     OW11605   4.242   1.842   4.217 -0.2254  0.1018  0.4952
 3850SOL    HW111606   4.161   1.882   4.248 -0.3984 -0.4437  0.7579
 3850SOL    HW211607   4.250   1.872   4.126 -1.4956 -1.0029 -0.0161
 3851SOL     OW11608   0.398   2.903   3.727 -0.4042 -0.0950 -0.1717
 3851SOL    HW111609   0.386   2.935   3.817 -1.6932 -0.7243 -0.0884
 3851SOL    HW211610   0.347   2.963   3.673  1.7460  1.3134 -0.7412
 3852SOL     OW11611   0.865   3.819   1.947  0.6366  0.4915 -0.1962
 3852SOL    HW111612   0.923   3.794   2.019  0.7360 -0.3593 -0.5617
 3852SOL    HW211613   0.923   3.854   1.880  0.7440 -0.4226 -0.5889
 3853SOL     OW11614   0.989   0.882   3.956  0.3592  0.3970  0.0500
 3853SOL    HW111615   1.054   0.859   3.890 -0.4188 -2.7452  0.1902
 3853SOL    HW211616   1.037   0.877   4.039  0.3633 -0.0708  0.0220
 3854SOL     OW11617   3.559   4.476   2.673 -0.0234 -0.0195  0.4070
 3854SOL    HW111618   3.579   4.418   2.746 -1.5230 -0.4448  0.5154
 3854SOL    HW211619   3.568   4.564   2.708 -0.0019 -0.2145  0.8914
 3855SOL     OW11620   2.060   1.656   3.758  0.3908  0.4816 -0.0725
 3855SOL    HW111621   1.978   1.671   3.804  1.1888  1.1655  1.1676
 3855SOL    HW211622   2.069   1.732   3.700 -0.9552 -0.7151 -1.9531
 3856SOL     OW11623   2.216   3.886   0.465  0.0926  0.0335 -0.1558
 3856SOL    HW111624   2.298   3.877   0.416  0.7107 -1.2027  1.0166
 3856SOL    HW211625   2.194   3.979   0.458  0.3489 -0.0090 -2.3865
 3857SOL     OW11626   3.015   1.319   0.394 -0.2724  0.5660 -0.3993
 3857SOL    HW111627   3.059   1.382   0.451 -1.5246  1.1694 -0.0592
 3857SOL    HW211628   3.017   1.237   0.443 -0.2280  0.7802 -0.0323
 3858SOL     OW11629   0.699   3.238   0.152  0.9694  0.0249 -0.3741
 3858SOL    HW111630   0.719   3.242   0.245  2.1722  1.7671 -0.6530
 3858SOL    HW211631   0.741   3.158   0.121  1.5771  0.0507  0.3652
 3859SOL     OW11632   1.839   0.972   2.071 -0.3569 -0.3181 -0.2193
 3859SOL    HW111633   1.785   0.989   1.993  0.9119  1.1949 -0.8198
 3859SOL    HW211634   1.846   1.057   2.114 -1.0481 -1.1384  1.6044
 3860SOL     OW11635   0.032   2.452   2.290 -0.5210 -0.3868  0.3060
 3860SOL    HW111636   0.063   2.378   2.343 -0.1319 -0.6742 -0.3150
 3860SOL    HW211637  -0.048   2.420   2.248  0.5269 -1.0485 -1.2646
 3861SOL     OW11638   2.390   4.945   1.250 -0.3437 -0.4858  0.0130
 3861SOL    HW111639   2.471   4.929   1.202 -0.1745 -0.6380  0.3467
 3861SOL    HW211640   2.411   4.925   1.341 -0.0610  1.7719  0.4977
 3862SOL     OW11641   0.113   2.775   3.444 -0.2185 -0.3342  0.5352
 3862SOL    HW111642   0.125   2.866   3.472  1.1615  0.3659 -2.0495
 3862SOL    HW211643   0.201   2.742   3.428 -0.8079 -1.2731 -1.0078
 3863SOL     OW11644   0.648   1.853   3.264 -0.2589  0.0466  0.0788
 3863SOL    HW111645   0.578   1.913   3.292 -0.7465  0.3934 -1.7258
 3863SOL    HW211646   0.717   1.866   3.328 -0.0871  3.0871 -0.5345
 3864SOL     OW11647   4.683   0.600   4.749  0.2811  0.0122  0.2840
 3864SOL    HW111648   4.725   0.519   4.719 -3.5138 -2.1506  0.1479
 3864SOL    HW211649   4.698   0.662   4.678  2.2821 -0.9183 -0.1764
 3865SOL     OW11650   3.729   1.262   3.140  0.3544  0.0378 -0.5319
 3865SOL    HW111651   3.684   1.178   3.131 -1.4119  1.0331 -1.6298
 3865SOL    HW211652   3.793   1.263   3.069  0.5811 -0.4743 -0.3409
 3866SOL     OW11653   1.935   4.324   3.784  0.0059  0.0617  0.2437
 3866SOL    HW111654   1.933   4.364   3.696  0.9408 -2.4155 -0.9890
 3866SOL    HW211655   1.843   4.307   3.804 -0.1239 -0.8195 -1.0025
 3867SOL     OW11656   3.984   3.220   3.482 -0.3847  0.3365  0.1588
 3867SOL    HW111657   3.961   3.154   3.417  1.4926 -0.4260  0.2022
 3867SOL    HW211658   4.015   3.171   3.557 -2.1725  1.2212  1.5511
 3868SOL     OW11659   3.301   1.605   3.055 -0.3321 -0.0470 -0.3362
 3868SOL    HW111660   3.294   1.578   2.963 -0.8064 -2.7596  0.4140
 3868SOL    HW211661   3.367   1.546   3.092 -1.2842 -0.0524  1.4270
 3869SOL     OW11662   1.817   2.960   3.733 -0.0136  0.2778 -0.1936
 3869SOL    HW111663   1.847   2.892   3.672 -0.4646 -0.3456  0.2663
 3869SOL    HW211664   1.784   3.030   3.676 -0.0217 -0.1019 -0.6681
 3870SOL     OW11665   0.471   2.523   0.875  0.2054  1.0962 -0.0071
 3870SOL    HW111666   0.526   2.477   0.939 -1.5122  0.2319  0.9323
 3870SOL    HW211667   0.384   2.524   0.915 -1.2784 -0.6677 -2.8946
 3871SOL     OW11668   0.397   3.983   3.791  0.4974  0.1421 -0.2671
 3871SOL    HW111669   0.422   4.029   3.711 -2.2538  0.4799 -1.0166
 3871SOL    HW211670   0.423   3.892   3.775 -0.2647  0.1502 -1.6924
 3872SOL     OW11671   3.192   0.818   1.201  0.7394 -0.2664 -0.3737
 3872SOL    HW111672   3.149   0.787   1.281  0.7871 -0.4060 -0.4019
 3872SOL    HW211673   3.142   0.896   1.176  1.2560  0.2897  0.2700
 3873SOL     OW11674   0.993   2.096   1.075 -0.2893  0.1669 -0.3604
 3873SOL    HW111675   0.948   2.107   1.158  3.4793  2.8169  1.5791
 3873SOL    HW211676   1.073   2.048   1.097  0.2477 -0.1550 -2.7245
 3874SOL     OW11677   3.409   3.665   3.767 -0.2588  0.1473  0.4275
 3874SOL    HW111678   3.443   3.669   3.677  0.2320 -0.4815  0.5764
 3874SOL    HW211679   3.315   3.676   3.757 -0.0641  1.6612 -0.0175
 3875SOL     OW11680   0.216   3.577   3.259  0.7236  0.4434  0.1145
 3875SOL    HW111681   0.251   3.578   3.348 -0.3785 -2.2000  0.6413
 3875SOL    HW211682   0.278   3.524   3.209 -0.6400 -1.3853  0.2690
 3876SOL     OW11683   0.606   0.902   0.179 -0.1395  0.4479 -0.1445
 3876SOL    HW111684   0.596   0.845   0.255  1.4734  0.7665  0.3601
 3876SOL    HW211685   0.591   0.991   0.212 -1.8875  0.4091 -0.7603
 3877SOL     OW11686   4.746   2.785   3.409  0.0261  0.8463 -0.5633
 3877SOL    HW111687   4.723   2.707   3.359  2.2585 -0.5270  0.4034
 3877SOL    HW211688   4.737   2.759   3.501  0.0834  1.9733 -0.2196
 3878SOL     OW11689   4.009   3.639   2.387  0.2270 -0.3260  0.4495
 3878SOL    HW111690   4.029   3.585   2.464 -0.2369  1.4302  1.8552
 3878SOL    HW211691   4.077   3.706   2.387 -1.6958  1.7490  1.4041
 3879SOL     OW11692   0.824   4.735   1.663 -0.0087 -0.5217 -0.1143
 3879SOL    HW111693   0.910   4.778   1.662 -0.0796 -0.3179 -2.3361
 3879SOL    HW211694   0.841   4.648   1.698  1.4264 -1.0297 -1.9380
 3880SOL     OW11695   3.841   2.587   1.343 -0.0370 -0.7035 -0.2926
 3880SOL    HW111696   3.777   2.554   1.281  0.7767  0.3867 -1.7618
 3880SOL    HW211697   3.792   2.598   1.425 -1.2518 -1.6325 -0.8706
 3881SOL     OW11698   1.330   2.355   0.977  0.4052  0.0702 -0.6635
 3881SOL    HW111699   1.235   2.358   0.964  0.2549 -0.2777  0.2818
 3881SOL    HW211700   1.364   2.319   0.894 -0.4387 -1.3446 -0.4299
 3882SOL     OW11701   2.527   1.192   4.441  0.7531 -0.2518 -0.3146
 3882SOL    HW111702   2.614   1.182   4.481  0.5996 -0.5388 -0.0463
 3882SOL    HW211703   2.467   1.153   4.504  0.3905  0.2454 -0.3502
 3883SOL     OW11704   1.577   0.988   1.154  0.2369 -0.4041 -0.1864
 3883SOL    HW111705   1.670   0.997   1.138  0.2068  2.6788  0.7057
 3883SOL    HW211706   1.537   1.064   1.111 -1.7447 -1.0438  0.3816
 3884SOL     OW11707   0.857   1.890   3.016  0.0076  0.2765  0.6728
 3884SOL    HW111708   0.762   1.889   3.014  0.0122  0.7267 -1.6063
 3884SOL    HW211709   0.880   1.979   3.044 -0.2577  0.6395 -0.2371
 3885SOL     OW11710   0.334   3.544   3.781  0.0321 -0.0563  0.0322
 3885SOL    HW111711   0.249   3.543   3.826  0.3331  0.1737  0.6213
 3885SOL    HW211712   0.363   3.453   3.784 -0.6171 -0.3179 -1.0153
 3886SOL     OW11713   3.523   0.511   2.948 -0.5655 -0.5971 -0.4068
 3886SOL    HW111714   3.614   0.486   2.966 -0.1509  0.1525 -1.3814
 3886SOL    HW211715   3.486   0.526   3.035  0.8284  1.0066 -0.0328
 3887SOL     OW11716   2.733   3.865   3.857 -0.4534  0.1229 -0.2494
 3887SOL    HW111717   2.827   3.886   3.854 -0.4973  0.2246 -2.3664
 3887SOL    HW211718   2.690   3.949   3.871 -0.2259 -0.0188  1.4439
 3888SOL     OW11719   0.508   3.335   4.694 -0.5558 -0.6580  0.7331
 3888SOL    HW111720   0.594   3.370   4.717 -0.5621 -0.1664  0.0538
 3888SOL    HW211721   0.526   3.273   4.623 -1.0036  1.6634 -1.5858
 3889SOL     OW11722   1.332   3.184   1.563  1.0799  0.3101 -0.5717
 3889SOL    HW111723   1.363   3.139   1.641  1.1428  0.7588 -0.3378
 3889SOL    HW211724   1.256   3.133   1.534  1.4150 -0.2012 -0.5651
 3890SOL     OW11725   1.895   1.577   0.550 -0.6515  0.0147 -0.0395
 3890SOL    HW111726   1.846   1.657   0.533  1.4005  0.9830 -1.9932
 3890SOL    HW211727   1.978   1.589   0.502 -0.4023 -3.4334 -0.7502
 3891SOL     OW11728   4.103   4.587   3.160  0.2986 -0.0769  0.4248
 3891SOL    HW111729   4.091   4.493   3.171 -0.5065  0.1063  1.2191
 3891SOL    HW211730   4.146   4.596   3.075 -0.6777 -1.0921 -0.2045
 3892SOL     OW11731   0.432   4.377   4.380  0.2209  0.4799  0.4367
 3892SOL    HW111732   0.513   4.406   4.421 -0.1682 -0.4693  1.9447
 3892SOL    HW211733   0.424   4.285   4.403 -1.5453  0.6835  0.8009
 3893SOL     OW11734   3.597   4.408   3.109 -0.0274  0.2678 -0.1988
 3893SOL    HW111735   3.630   4.341   3.048  0.6603 -2.0241  2.4896
 3893SOL    HW211736   3.506   4.383   3.124 -0.3253  1.0929 -0.5875
 3894SOL     OW11737   0.160   0.531   3.204 -0.2085  0.2307  0.1890
 3894SOL    HW111738   0.156   0.486   3.289  2.2491 -0.7209 -0.1171
 3894SOL    HW211739   0.124   0.468   3.142 -0.2392  0.1738  0.2642
 3895SOL     OW11740   1.219   0.277   2.432  0.0165 -0.1074 -0.0122
 3895SOL    HW111741   1.169   0.231   2.499  0.9400  1.5402  1.9514
 3895SOL    HW211742   1.301   0.302   2.476  0.0308  2.3766 -1.2273
 3896SOL     OW11743   3.462   3.618   2.990  0.1447 -0.4811 -0.4395
 3896SOL    HW111744   3.452   3.532   3.031  1.0286 -0.8346 -0.9376
 3896SOL    HW211745   3.539   3.609   2.933 -0.5821  0.2285 -1.5678
 3897SOL     OW11746   1.343   1.510   0.886  0.4593  0.2752  0.1919
 3897SOL    HW111747   1.397   1.584   0.858  0.6632  0.4245  0.9660
 3897SOL    HW211748   1.390   1.433   0.854  0.8849  0.4267  0.4392
 3898SOL     OW11749   2.001   2.603   4.926  0.2775  0.2115 -0.0644
 3898SOL    HW111750   1.917   2.645   4.911 -1.5858 -2.7783  0.9802
 3898SOL    HW211751   2.030   2.637   5.010 -0.0712  0.9840 -0.2472
 3899SOL     OW11752   1.938   0.366   1.067 -0.1658  0.2497 -0.3495
 3899SOL    HW111753   1.969   0.456   1.083 -0.6457  0.3462  0.0755
 3899SOL    HW211754   1.875   0.350   1.138  1.2049 -1.0565  0.6185
 3900SOL     OW11755   2.079   2.181   4.848  0.6090  0.3415  0.3812
 3900SOL    HW111756   2.006   2.120   4.858  2.1691 -1.6885  0.0366
 3900SOL    HW211757   2.054   2.235   4.773  0.0506 -1.3116 -0.7052
 3901SOL     OW11758   3.103   1.936   4.921 -0.5071 -0.1495 -0.1663
 3901SOL    HW111759   3.107   2.030   4.907  0.0200  0.0528  1.2514
 3901SOL    HW211760   3.132   1.923   5.011  1.5349 -1.8617 -0.9791
 3902SOL     OW11761   3.563   0.417   2.106 -0.2202 -0.4954  0.1256
 3902SOL    HW111762   3.647   0.407   2.061 -0.5858 -2.3040 -0.2033
 3902SOL    HW211763   3.573   0.367   2.187 -1.4734 -2.0992 -0.6578
 3903SOL     OW11764   4.816   2.785   0.754  0.5029  0.0279  0.6945
 3903SOL    HW111765   4.746   2.827   0.702 -1.6383 -1.3263  2.3324
 3903SOL    HW211766   4.855   2.722   0.694 -0.8878 -0.4361  0.2365
 3904SOL     OW11767   3.206   4.150   2.295  0.0086 -0.0923 -0.4860
 3904SOL    HW111768   3.165   4.071   2.331 -0.5153  0.4238  0.0537
 3904SOL    HW211769   3.284   4.163   2.350 -1.5248  1.4937  1.4490
 3905SOL     OW11770   4.370   1.206   0.141  0.2752 -0.4701  0.0117
 3905SOL    HW111771   4.426   1.277   0.173  0.5103  0.2453 -1.8390
 3905SOL    HW211772   4.387   1.133   0.200  0.2761  0.8909  1.7709
 3906SOL     OW11773   1.068   1.487   3.090 -0.0765 -0.0931  0.3196
 3906SOL    HW111774   1.004   1.539   3.139 -0.3648 -1.8803  1.9651
 3906SOL    HW211775   1.030   1.399   3.087  2.1236 -1.1541  1.0954
 3907SOL     OW11776   2.435   0.671   0.644 -0.0753 -0.1257 -0.5737
 3907SOL    HW111777   2.405   0.662   0.735 -0.6878  1.4031 -0.6033
 3907SOL    HW211778   2.415   0.587   0.604  1.4107 -1.3264  1.0268
 3908SOL     OW11779   3.076   3.057   3.806  0.0114  0.4428 -0.3714
 3908SOL    HW111780   3.076   2.972   3.761  0.9573 -0.7054  1.6440
 3908SOL    HW211781   2.999   3.102   3.773 -0.5116 -1.2070 -1.5240
 3909SOL     OW11782   0.890   0.017   4.326 -0.3246  0.0838 -0.2876
 3909SOL    HW111783   0.936  -0.056   4.286  1.4585  0.8048  0.3556
 3909SOL    HW211784   0.892  -0.001   4.420  0.1641  0.9494 -0.1170
 3910SOL     OW11785   4.330   4.345   3.277 -0.3522 -0.1110 -0.5311
 3910SOL    HW111786   4.356   4.260   3.243 -1.1628 -0.0072 -1.4607
 3910SOL    HW211787   4.344   4.339   3.371 -2.6564 -2.1318 -0.2119
 3911SOL     OW11788   3.615   1.304   2.365  0.1055 -0.3550  0.0428
 3911SOL    HW111789   3.554   1.230   2.374 -0.4496  0.2979  2.0001
 3911SOL    HW211790   3.701   1.267   2.387 -0.1972 -0.3918  1.1959
 3912SOL     OW11791   4.470   2.291   1.846 -0.3134 -0.3618  0.1074
 3912SOL    HW111792   4.393   2.250   1.886 -0.4718 -0.6309 -0.4776
 3912SOL    HW211793   4.483   2.370   1.899 -1.4648  0.0996 -0.2515
 3913SOL     OW11794   1.508   4.666   2.840 -0.3664  0.3709  0.6385
 3913SOL    HW111795   1.597   4.643   2.867 -0.4202 -0.6111  0.0201
 3913SOL    HW211796   1.453   4.641   2.915 -0.5168 -2.3441 -0.2921
 3914SOL     OW11797   2.314   0.991   4.818  0.1552  0.0766 -0.2313
 3914SOL    HW111798   2.229   1.026   4.791  0.2987  0.6737  0.0572
 3914SOL    HW211799   2.374   1.066   4.812  0.8884 -0.5784 -1.4159
 3915SOL     OW11800   1.402   0.844   4.915  0.1872  0.3632 -0.0830
 3915SOL    HW111801   1.447   0.926   4.932  0.8988  0.0063 -0.2075
 3915SOL    HW211802   1.310   0.869   4.902  0.2478  1.0342  0.7209
 3916SOL     OW11803   3.794   1.942   1.729 -0.2022 -0.4534 -0.2156
 3916SOL    HW111804   3.755   1.999   1.662 -0.2144 -0.2153 -0.0077
 3916SOL    HW211805   3.863   1.996   1.768 -0.1076 -0.6384 -0.1280
 3917SOL     OW11806   1.875   3.627   2.213  0.2485  0.1977 -0.3473
 3917SOL    HW111807   1.933   3.566   2.259 -2.2016 -0.5340  2.0570
 3917SOL    HW211808   1.827   3.572   2.150 -0.3296  0.0634  0.1989
 3918SOL     OW11809   2.856   1.971   2.837  0.2176  0.7818 -0.0423
 3918SOL    HW111810   2.859   2.061   2.804  0.5185  0.4970 -0.8067
 3918SOL    HW211811   2.830   1.918   2.762  0.0203  0.2300  0.4081
 3919SOL     OW11812   2.270   2.959   0.773  0.3083  0.2016  0.1163
 3919SOL    HW111813   2.215   3.037   0.784  1.8543  1.1971  1.2164
 3919SOL    HW211814   2.358   2.989   0.796  1.3466 -1.3235 -1.6731
 3920SOL     OW11815   4.493   2.043   3.922  0.6233 -0.9758  0.0963
 3920SOL    HW111816   4.459   1.955   3.910 -1.4816 -0.1358 -0.4961
 3920SOL    HW211817   4.424   2.101   3.890  2.0957  0.8975  0.0992
 3921SOL     OW11818   1.324   1.492   3.740  0.2434  0.4459  0.0673
 3921SOL    HW111819   1.290   1.516   3.654 -0.9005 -0.1773  0.3247
 3921SOL    HW211820   1.254   1.439   3.779  0.2371  1.6838  1.8540
 3922SOL     OW11821   4.900   1.504   2.200  0.4272  0.3268  0.1150
 3922SOL    HW111822   4.942   1.499   2.115  0.2832  0.2300  0.0485
 3922SOL    HW211823   4.904   1.597   2.224 -0.7031  0.5805 -0.5946
 3923SOL     OW11824   0.978   4.071   3.591  0.1919  0.0222  1.0496
 3923SOL    HW111825   1.049   4.015   3.625  0.8073 -1.1886 -1.9015
 3923SOL    HW211826   1.009   4.160   3.607  3.1083 -0.4213 -1.1441
 3924SOL     OW11827   4.363   4.385   3.595 -0.0125 -0.3993 -0.2786
 3924SOL    HW111828   4.449   4.347   3.578  0.3448  0.9729 -1.8028
 3924SOL    HW211829   4.306   4.310   3.613  1.3055 -1.3898 -0.0999
 3925SOL     OW11830   0.914   3.850   1.342  0.2399  0.1059 -0.2527
 3925SOL    HW111831   0.972   3.804   1.402 -0.5527 -0.4564  0.1075
 3925SOL    HW211832   0.866   3.912   1.397  2.1454  2.3062 -0.9126
 3926SOL     OW11833   2.618   1.396   0.108 -0.3481 -0.5143 -0.1115
 3926SOL    HW111834   2.586   1.316   0.148  1.3244 -1.5637 -0.7787
 3926SOL    HW211835   2.612   1.462   0.177 -2.2023 -1.0532  0.2923
 3927SOL     OW11836   2.342   4.912   2.899 -0.0446  0.5512  0.3527
 3927SOL    HW111837   2.334   4.820   2.925  1.0961  0.1687 -0.5435
 3927SOL    HW211838   2.404   4.910   2.826  0.4902  2.1177  0.7400
 3928SOL     OW11839   0.624   1.918   1.600  0.3044  0.2036 -0.2651
 3928SOL    HW111840   0.632   1.839   1.546 -1.2124 -1.3797  1.6512
 3928SOL    HW211841   0.713   1.937   1.629  0.5747 -1.5430  0.1668
 3929SOL     OW11842   1.796   1.673   2.435  0.4233  0.1067  0.0799
 3929SOL    HW111843   1.849   1.678   2.514  1.5837  1.3149 -0.7278
 3929SOL    HW211844   1.722   1.617   2.459  1.4952 -0.7429  1.5676
 3930SOL     OW11845   3.570   4.578   3.742 -0.2914 -0.0646  0.0229
 3930SOL    HW111846   3.631   4.510   3.712 -0.5776 -0.8844  1.2473
 3930SOL    HW211847   3.598   4.598   3.831 -0.4074  1.2266 -0.2123
 3931SOL     OW11848   3.776   4.139   3.296 -0.6093  0.4069 -0.2686
 3931SOL    HW111849   3.869   4.136   3.273 -0.8308  0.8679 -1.2766
 3931SOL    HW211850   3.767   4.218   3.350 -0.3490  0.1310  0.1853
 3932SOL     OW11851   3.680   1.788   3.359 -0.4668  0.4069 -0.6055
 3932SOL    HW111852   3.642   1.874   3.379 -0.2663  0.6292 -1.1438
 3932SOL    HW211853   3.751   1.777   3.422 -0.5885  0.5722 -0.4392
 3933SOL     OW11854   1.795   2.163   1.413 -0.4530  0.4399 -0.0892
 3933SOL    HW111855   1.812   2.246   1.370  1.4682 -0.4124 -1.0953
 3933SOL    HW211856   1.851   2.100   1.367 -0.7249 -1.1285  1.6018
 3934SOL     OW11857   4.453   0.425   4.263  0.3582 -0.4546 -0.1657
 3934SOL    HW111858   4.408   0.376   4.332  0.2225 -0.4469 -0.2490
 3934SOL    HW211859   4.475   0.509   4.305  1.1173 -0.8071  0.1595
 3935SOL     OW11860   0.690   4.934   2.926 -0.0502 -0.0625  0.5973
 3935SOL    HW111861   0.605   4.969   2.901 -2.0620 -3.7485  1.5208
 3935SOL    HW211862   0.689   4.933   3.022  2.3646  2.4408  0.7772
 3936SOL     OW11863   2.921   3.365   1.840 -0.1384 -0.4610 -0.4160
 3936SOL    HW111864   2.920   3.305   1.914 -0.7405  0.8794  0.7076
 3936SOL    HW211865   2.831   3.367   1.808  0.0188 -0.6630 -0.8858
 3937SOL     OW11866   2.198   4.200   4.468  0.7123  0.0142 -0.0820
 3937SOL    HW111867   2.239   4.276   4.426  0.6294  0.0083 -0.1758
 3937SOL    HW211868   2.270   4.156   4.513  0.3263  1.6793  2.3510
 3938SOL     OW11869   1.313   1.037   4.183  0.0553 -0.3562 -0.1778
 3938SOL    HW111870   1.393   1.043   4.236 -0.4684  0.9448  0.5113
 3938SOL    HW211871   1.334   0.973   4.115  1.0395 -1.4286  1.0916
 3939SOL     OW11872   1.151   3.071   4.908 -0.7551 -0.1209 -0.1308
 3939SOL    HW111873   1.204   3.096   4.984  0.3908 -0.3960 -0.8269
 3939SOL    HW211874   1.163   2.976   4.901 -1.0116 -0.1245 -0.5434
 3940SOL     OW11875   4.682   1.365   1.761 -0.2327 -0.8056  1.5346
 3940SOL    HW111876   4.606   1.417   1.787 -1.4622 -0.9848 -1.3219
 3940SOL    HW211877   4.676   1.286   1.815 -1.9071 -0.6764  1.5862
 3941SOL     OW11878   4.481   2.516   1.985  0.3182 -0.1366  0.2270
 3941SOL    HW111879   4.478   2.590   2.046 -0.3387 -1.2176  1.5425
 3941SOL    HW211880   4.401   2.467   2.002  0.7234 -1.1422 -0.6552
 3942SOL     OW11881   2.356   4.355   4.778  0.1985 -0.3218 -0.3842
 3942SOL    HW111882   2.364   4.399   4.863 -0.5934  0.2945 -0.6079
 3942SOL    HW211883   2.354   4.262   4.799 -0.2180 -0.1690  0.2950
 3943SOL     OW11884   0.914   2.374   2.616  0.4860 -0.2599  0.0722
 3943SOL    HW111885   0.933   2.318   2.541 -0.3158 -1.7310  0.9114
 3943SOL    HW211886   0.953   2.458   2.594  0.4407 -0.7090 -1.8871
 3944SOL     OW11887   2.084   3.527   3.067 -0.7151  0.3632  0.0757
 3944SOL    HW111888   2.154   3.511   3.129 -2.6610 -1.7042  1.9028
 3944SOL    HW211889   2.051   3.440   3.044 -1.3879  1.1629 -2.3301
 3945SOL     OW11890   4.398   3.296   1.439 -0.0348 -0.0949  0.2457
 3945SOL    HW111891   4.402   3.362   1.508 -1.6397 -0.9916  1.2657
 3945SOL    HW211892   4.463   3.230   1.466  1.5330  0.9568 -0.7485
 3946SOL     OW11893   1.247   0.886   2.204  0.3624  0.2100 -0.2234
 3946SOL    HW111894   1.278   0.829   2.275 -0.2440  1.3382  0.9856
 3946SOL    HW211895   1.218   0.825   2.136 -2.1175 -1.0764  1.8080
 3947SOL     OW11896   1.849   2.797   3.513 -0.3128  0.4409 -0.2810
 3947SOL    HW111897   1.898   2.715   3.506 -0.0190  0.6472 -0.6471
 3947SOL    HW211898   1.766   2.779   3.469 -0.7276 -0.0227  0.6544
 3948SOL     OW11899   2.795   1.198   4.603 -0.3383 -0.5361 -0.6639
 3948SOL    HW111900   2.882   1.198   4.562  0.8990 -0.8136  1.7487
 3948SOL    HW211901   2.791   1.280   4.651 -1.6527 -0.3018 -1.1320
 3949SOL     OW11902   3.737   4.333   1.196 -0.3038  0.1502 -0.1649
 3949SOL    HW111903   3.787   4.256   1.225  1.2484  1.4308  0.7513
 3949SOL    HW211904   3.648   4.302   1.186  0.0927 -1.5531  1.1460
 3950SOL     OW11905   1.386   0.452   4.135 -0.4412 -0.6270  0.2485
 3950SOL    HW111906   1.388   0.492   4.222  1.4331 -2.2157  1.0291
 3950SOL    HW211907   1.330   0.510   4.083 -1.6681  0.3517  2.4958
 3951SOL     OW11908   2.540   2.169   4.966  0.1819 -0.1984  0.2205
 3951SOL    HW111909   2.591   2.211   4.897  1.1535 -1.4175  0.1652
 3951SOL    HW211910   2.463   2.133   4.922  0.3361 -0.1797 -0.0631
 3952SOL     OW11911   3.621   4.063   3.638  0.2284 -0.4415 -0.1713
 3952SOL    HW111912   3.585   4.122   3.572 -1.3717 -0.0951  0.9539
 3952SOL    HW211913   3.597   3.976   3.608  2.0821 -0.5543 -1.5275
 3953SOL     OW11914   3.899   4.608   2.877  0.3268  0.5045 -0.1391
 3953SOL    HW111915   3.979   4.582   2.922 -0.3257 -1.2965  0.0622
 3953SOL    HW211916   3.908   4.572   2.789 -0.0290  0.7548 -0.2788
 3954SOL     OW11917   2.946   3.925   2.963  0.2098 -0.4531 -0.3034
 3954SOL    HW111918   2.875   3.892   2.909  0.1988 -1.3272  0.2279
 3954SOL    HW211919   3.001   3.849   2.980  0.2527 -0.1881  0.8515
 3955SOL     OW11920   2.756   3.287   4.273  0.7050 -0.2393  0.9515
 3955SOL    HW111921   2.692   3.358   4.267  0.3231 -0.6782 -0.7721
 3955SOL    HW211922   2.796   3.284   4.186  0.9148 -1.9407  1.0711
 3956SOL     OW11923   3.231   1.092   3.398 -0.3941  0.0009 -0.1195
 3956SOL    HW111924   3.228   1.162   3.463  0.8356  0.4458 -0.5115
 3956SOL    HW211925   3.226   1.138   3.314  1.4064 -0.2802 -0.4057
 3957SOL     OW11926   4.431   3.456   4.730 -0.1607  0.2021  0.0591
 3957SOL    HW111927   4.483   3.382   4.700 -1.7855 -1.1751  0.5197
 3957SOL    HW211928   4.342   3.423   4.736 -0.6257  1.6198  2.2613
 3958SOL     OW11929   2.975   2.319   4.092  0.2128 -0.9167  0.4855
 3958SOL    HW111930   3.020   2.281   4.016 -0.1520  1.0659 -0.7967
 3958SOL    HW211931   2.944   2.404   4.061 -1.5764 -0.8347  2.3274
 3959SOL     OW11932   0.006   2.108   3.815  0.4277  0.2453  0.2048
 3959SOL    HW111933   0.063   2.167   3.766  2.8494 -1.1684  1.1597
 3959SOL    HW211934   0.040   2.111   3.905 -1.4301 -0.2094  0.9939
 3960SOL     OW11935   1.535   1.862   0.409 -0.2554 -0.8040 -0.0012
 3960SOL    HW111936   1.570   1.802   0.343 -0.6191 -0.4223 -0.5396
 3960SOL    HW211937   1.456   1.819   0.441 -0.3124 -0.7853 -0.1182
 3961SOL     OW11938   1.730   3.842   0.571 -0.1420  0.3405 -0.4406
 3961SOL    HW111939   1.802   3.905   0.574  0.8416 -0.6046 -2.4353
 3961SOL    HW211940   1.747   3.782   0.644 -0.1737  1.3810  0.4470
 3962SOL     OW11941   3.584   3.442   3.438  0.3396  0.1091 -0.6002
 3962SOL    HW111942   3.636   3.519   3.463  0.2845  0.2015 -0.7703
 3962SOL    HW211943   3.499   3.478   3.411 -0.2092 -0.1168  0.7209
 3963SOL     OW11944   4.337   0.480   0.315  0.5877  0.1367  0.4540
 3963SOL    HW111945   4.302   0.566   0.337 -1.0111 -0.6779  1.2782
 3963SOL    HW211946   4.295   0.458   0.232 -0.5017 -0.6071  1.1708
 3964SOL     OW11947   3.026   2.142   4.725  0.1730 -0.5290 -0.5805
 3964SOL    HW111948   3.092   2.190   4.774  0.4579 -1.6736  0.2062
 3964SOL    HW211949   3.064   2.131   4.638  0.6749 -0.4689 -0.3737
 3965SOL     OW11950   1.179   1.743   4.079  0.3011  0.8779  0.0688
 3965SOL    HW111951   1.143   1.730   3.991 -1.7562  1.5381  0.7541
 3965SOL    HW211952   1.172   1.656   4.120  1.1276  0.6035 -0.3570
 3966SOL     OW11953   2.794   1.995   4.088  0.0960  0.4495  0.3168
 3966SOL    HW111954   2.872   2.012   4.034 -0.9509  1.1670 -1.0477
 3966SOL    HW211955   2.740   1.939   4.032 -0.3880 -0.0087  1.2385
 3967SOL     OW11956   3.446   3.559   0.531  0.3944  0.3082 -0.5377
 3967SOL    HW111957   3.358   3.523   0.516  0.0618  1.3275 -1.1152
 3967SOL    HW211958   3.495   3.486   0.569 -0.5873 -0.3986 -0.5774
 3968SOL     OW11959   1.204   0.633   0.414  0.7060  0.9563 -0.1493
 3968SOL    HW111960   1.156   0.635   0.331 -0.2468  1.2252  0.3881
 3968SOL    HW211961   1.276   0.694   0.401 -0.0556  1.8200 -0.4321
 3969SOL     OW11962   4.123   2.576   2.312  0.0957 -0.0488 -0.2705
 3969SOL    HW111963   4.068   2.651   2.292  0.2177 -0.5313 -2.8213
 3969SOL    HW211964   4.212   2.605   2.294  0.1961 -0.5884 -0.7104
 3970SOL     OW11965   1.527   1.739   2.596  0.0305  0.1683  0.2298
 3970SOL    HW111966   1.600   1.738   2.658 -0.3258  0.8322  0.6808
 3970SOL    HW211967   1.541   1.663   2.540  0.6874 -0.1014  0.7523
 3971SOL     OW11968   3.522   1.869   1.153 -0.6365 -0.3200 -0.5771
 3971SOL    HW111969   3.483   1.802   1.209  0.7253  0.2343  1.1339
 3971SOL    HW211970   3.546   1.939   1.213  1.3735  0.0917 -1.7770
 3972SOL     OW11971   1.038   4.507   4.817  0.1147  0.3229 -0.0041
 3972SOL    HW111972   1.131   4.489   4.832  0.0480  0.5163  0.6863
 3972SOL    HW211973   0.996   4.486   4.900 -0.8589 -2.2560 -1.0522
 3973SOL     OW11974   4.124   0.681   2.235 -0.1680  0.1501  0.1259
 3973SOL    HW111975   4.089   0.748   2.295  1.6983  1.6516 -0.3827
 3973SOL    HW211976   4.217   0.678   2.254  0.4448  0.4485 -2.4491
 3974SOL     OW11977   4.012   2.699   3.334  0.4560 -0.1389 -0.2983
 3974SOL    HW111978   4.047   2.726   3.419 -2.1720  0.8688  0.5711
 3974SOL    HW211979   4.061   2.620   3.311  2.5325  0.6395  1.2179
 3975SOL     OW11980   3.599   1.984   4.216  0.4232  0.3832 -0.5124
 3975SOL    HW111981   3.587   2.079   4.222 -0.4378  0.2543  0.0725
 3975SOL    HW211982   3.520   1.953   4.173 -0.1138 -0.2261  0.8470
 3976SOL     OW11983   1.963   3.327   3.711 -0.3026 -0.2939 -0.4879
 3976SOL    HW111984   1.964   3.345   3.617  0.6630  0.2707 -0.3878
 3976SOL    HW211985   1.995   3.237   3.719  0.5270 -0.0228 -0.6560
 3977SOL     OW11986   2.443   4.536   0.463 -0.2243 -0.8226  0.2618
 3977SOL    HW111987   2.496   4.517   0.540 -0.6881  0.3007  0.8737
 3977SOL    HW211988   2.482   4.615   0.426 -1.5853  0.1766  0.8679
 3978SOL     OW11989   0.185   4.920   3.097 -0.0541 -0.0360 -0.9087
 3978SOL    HW111990   0.097   4.948   3.072 -0.3886  1.4845  1.5750
 3978SOL    HW211991   0.184   4.921   3.193  2.9697  1.0956 -0.7739
 3979SOL     OW11992   0.453   4.256   3.578 -0.1353  0.5444 -0.0187
 3979SOL    HW111993   0.363   4.281   3.556 -1.1467 -1.2649  1.7172
 3979SOL    HW211994   0.478   4.194   3.509 -1.9577 -2.3358  1.6601
 3980SOL     OW11995   4.486   1.127   1.937 -0.3427 -0.0118  0.1512
 3980SOL    HW111996   4.487   1.196   2.004  0.3554  0.4393 -0.3119
 3980SOL    HW211997   4.521   1.050   1.981  1.6310  0.6939 -0.1044
 3981SOL     OW11998   1.674   1.379   0.198  0.1336 -0.5046 -0.3340
 3981SOL    HW111999   1.768   1.357   0.199  0.2156 -0.2320 -1.1251
 3981SOL    HW212000   1.662   1.425   0.115 -1.1312 -2.4512 -1.2956
 3982SOL     OW12001   4.706   0.476   3.518 -0.0423  0.3083  0.0299
 3982SOL    HW112002   4.768   0.467   3.445  1.4576  0.3462  1.2595
 3982SOL    HW212003   4.710   0.569   3.541 -0.7764  0.3644 -0.0333
 3983SOL     OW12004   2.608   3.744   0.712  0.2653  0.5965 -0.1405
 3983SOL    HW112005   2.542   3.812   0.711 -0.1717  0.1914  0.4550
 3983SOL    HW212006   2.631   3.730   0.620 -1.0512  0.1803 -0.4144
 3984SOL     OW12007   2.420   2.294   4.330 -0.3251 -0.3742 -0.1558
 3984SOL    HW112008   2.438   2.222   4.389  0.2788  0.7229  1.0552
 3984SOL    HW212009   2.493   2.293   4.267  1.0963  0.6494  1.3709
 3985SOL     OW12010   0.678   0.330   0.280 -0.1462 -0.1227 -0.5087
 3985SOL    HW112011   0.607   0.378   0.239 -0.2842  0.5155  0.4299
 3985SOL    HW212012   0.641   0.298   0.362  1.1118  1.7973  0.8992
 3986SOL     OW12013   0.127   0.893   2.368 -0.9776  0.3985 -0.4395
 3986SOL    HW112014   0.107   0.824   2.305 -1.3296  0.2839 -0.2012
 3986SOL    HW212015   0.056   0.956   2.359 -0.9927  0.4155 -0.2025
 3987SOL     OW12016   3.524   0.925   0.603  0.0119 -0.2265 -0.0270
 3987SOL    HW112017   3.579   0.847   0.598 -1.3539 -1.4709  2.3735
 3987SOL    HW212018   3.568   0.982   0.666  0.4151  0.4638 -0.9119
 3988SOL     OW12019   2.068   4.206   2.060 -0.1895 -0.2412  0.1441
 3988SOL    HW112020   2.109   4.136   2.008  1.1072  0.8249 -0.3513
 3988SOL    HW212021   2.108   4.197   2.147  0.1626  0.0160  0.0129
 3989SOL     OW12022   0.070   1.245   3.701  0.8432 -0.1819  0.5901
 3989SOL    HW112023  -0.024   1.265   3.695  0.7569 -0.1663  1.8634
 3989SOL    HW212024   0.104   1.268   3.614 -0.6014 -1.7477 -0.4706
 3990SOL     OW12025   4.442   1.335   3.058  0.2612  0.3709  0.1877
 3990SOL    HW112026   4.407   1.293   2.980 -0.6664 -0.7023  1.1421
 3990SOL    HW212027   4.461   1.262   3.118  0.9596  1.1673  0.9667
 3991SOL     OW12028   1.702   3.756   3.386 -0.2139 -0.3144  0.2753
 3991SOL    HW112029   1.629   3.766   3.325  0.6989  0.8511 -0.6878
 3991SOL    HW212030   1.720   3.662   3.389 -1.5515 -0.5861  0.3205
 3992SOL     OW12031   4.796   2.663   3.850 -0.4144  0.3198  0.9245
 3992SOL    HW112032   4.860   2.610   3.801  0.6105 -0.0462  2.5814
 3992SOL    HW212033   4.797   2.626   3.938 -2.5809  0.6381  1.1269
 3993SOL     OW12034   3.498   2.401   1.649  0.4309 -0.0962 -0.3678
 3993SOL    HW112035   3.480   2.335   1.582  0.8011 -0.2859 -0.2826
 3993SOL    HW212036   3.587   2.382   1.679  0.3032  0.0485  0.1122
 3994SOL     OW12037   0.873   3.240   1.253 -0.1703  0.6467  0.1770
 3994SOL    HW112038   0.793   3.287   1.277 -0.5944  0.3238 -0.5694
 3994SOL    HW212039   0.849   3.148   1.255 -0.7625  0.6087 -3.0379
 3995SOL     OW12040   2.437   1.794   4.573  0.7271  0.0007  0.7721
 3995SOL    HW112041   2.470   1.811   4.484 -0.3218  1.8898  0.6804
 3995SOL    HW212042   2.484   1.856   4.628 -1.6316  1.8875  0.8239
 3996SOL     OW12043   0.153   1.504   0.459  0.5370  0.5908  0.7245
 3996SOL    HW112044   0.099   1.477   0.533 -0.7714  2.3365  0.4695
 3996SOL    HW212045   0.092   1.509   0.385  1.9733 -2.0296 -0.7831
 3997SOL     OW12046   2.509   0.762   0.256 -0.4085  0.2632  0.2300
 3997SOL    HW112047   2.553   0.815   0.323  1.7665 -1.7949  0.5804
 3997SOL    HW212048   2.564   0.771   0.178  0.3030 -1.7790  0.4418
 3998SOL     OW12049   3.340   1.590   3.855  0.3666 -0.1225 -0.0964
 3998SOL    HW112050   3.326   1.587   3.760  0.3081 -0.3993 -0.0807
 3998SOL    HW212051   3.280   1.657   3.886  0.8732  0.4504 -0.3374
 3999SOL     OW12052   1.500   3.786   3.209 -0.2744  0.0427  0.0704
 3999SOL    HW112053   1.500   3.747   3.122  0.2478 -0.0062  0.0917
 3999SOL    HW212054   1.451   3.723   3.263 -0.1021 -0.2073 -0.0628
 4000SOL     OW12055   4.961   4.502   4.551  0.0552 -0.0409  0.0664
 4000SOL    HW112056   5.019   4.429   4.574  0.4055  0.4984  0.8950
 4000SOL    HW212057   4.946   4.491   4.457  1.5822 -0.1259 -0.1862
 4001SOL     OW12058   3.556   1.952   3.852  0.4878 -0.6424 -0.0333
 4001SOL    HW112059   3.624   1.961   3.785  1.9618  0.4250  1.5415
 4001SOL    HW212060   3.555   1.858   3.872  0.5031 -0.8703 -1.0523
 4002SOL     OW12061   1.020   1.007   1.064  0.9038 -0.0877 -0.7876
 4002SOL    HW112062   1.087   0.954   1.022  0.9381 -0.0519 -0.7788
 4002SOL    HW212063   0.956   1.025   0.996 -1.1321 -3.3435  0.0553
 4003SOL     OW12064   1.288   1.736   0.501 -0.3989  0.9424 -0.3432
 4003SOL    HW112065   1.205   1.784   0.501 -0.9168  0.0697 -1.0356
 4003SOL    HW212066   1.276   1.667   0.436  1.2123  1.3970 -1.1769
 4004SOL     OW12067   2.723   2.754   1.298  0.4001 -0.3841  0.2607
 4004SOL    HW112068   2.768   2.708   1.369  0.9855  0.4157  0.4268
 4004SOL    HW212069   2.771   2.837   1.289  1.0438 -0.9269 -1.8306
 4005SOL     OW12070   4.554   1.355   3.847 -0.2493  0.2228  0.1190
 4005SOL    HW112071   4.478   1.408   3.823  0.7879  1.1026 -1.3213
 4005SOL    HW212072   4.609   1.354   3.769 -0.5134 -3.5758 -0.2245
 4006SOL     OW12073   0.386   2.940   2.613 -0.3330 -0.0915 -0.0601
 4006SOL    HW112074   0.324   2.904   2.676 -0.5505  1.0831  0.4192
 4006SOL    HW212075   0.385   2.877   2.541 -0.6353 -1.0741  0.7772
 4007SOL     OW12076   2.588   3.689   4.123 -0.2058  0.6117 -0.4812
 4007SOL    HW112077   2.520   3.648   4.070 -0.1793 -1.0485  0.7153
 4007SOL    HW212078   2.550   3.773   4.150 -2.0443 -0.5438  0.6592
 4008SOL     OW12079   1.948   4.824   0.167  0.0180 -0.5152  0.4706
 4008SOL    HW112080   1.952   4.819   0.072 -0.5374  0.0470  0.4104
 4008SOL    HW212081   1.898   4.903   0.185 -0.0533 -0.7212  1.2294
 4009SOL     OW12082   2.684   1.424   3.260  0.7900 -0.0892 -0.4174
 4009SOL    HW112083   2.644   1.433   3.347 -1.1256  0.5055 -1.3135
 4009SOL    HW212084   2.757   1.364   3.274 -0.0881 -0.8267  1.4079
 4010SOL     OW12085   2.460   0.547   1.394  0.0230 -0.4351  0.3564
 4010SOL    HW112086   2.410   0.481   1.442 -1.2869  0.9992  1.0643
 4010SOL    HW212087   2.393   0.605   1.358  1.1274  0.3046 -0.5589
 4011SOL     OW12088   0.845   4.610   4.633 -0.0422 -0.1545 -0.0001
 4011SOL    HW112089   0.916   4.587   4.693  0.0405  1.4159  0.5544
 4011SOL    HW212090   0.796   4.678   4.679 -0.3536  0.6412 -1.4355
 4012SOL     OW12091   2.263   1.855   3.413 -0.0515 -0.7430  0.1594
 4012SOL    HW112092   2.172   1.832   3.430 -0.0045 -0.8641  0.2473
 4012SOL    HW212093   2.291   1.904   3.490 -0.2217 -0.1811 -0.1272
 4013SOL     OW12094   0.436   4.633   2.618  0.0727  0.4976 -0.5482
 4013SOL    HW112095   0.380   4.603   2.690 -2.2181  0.3962 -2.2802
 4013SOL    HW212096   0.524   4.637   2.657 -0.6529 -1.8089  1.6041
 4014SOL     OW12097   3.610   1.727   1.522  0.3185 -0.1568  0.4320
 4014SOL    HW112098   3.679   1.754   1.582 -0.3669  0.2198  1.0724
 4014SOL    HW212099   3.554   1.804   1.513 -0.6508 -0.7881  0.8257
 4015SOL     OW12100   2.074   2.742   4.664 -0.6752  0.2056  0.2114
 4015SOL    HW112101   1.998   2.693   4.633 -1.0478 -0.6530  2.3000
 4015SOL    HW212102   2.104   2.694   4.741  1.8108  0.7116 -0.3307
 4016SOL     OW12103   2.349   1.132   1.648  0.0473  0.2993  0.3534
 4016SOL    HW112104   2.257   1.154   1.630 -0.2526  1.0309  2.4625
 4016SOL    HW212105   2.345   1.065   1.716  1.0662 -4.0028 -3.3645
 4017SOL     OW12106   0.665   2.805   3.452 -0.0629  0.2107 -0.1413
 4017SOL    HW112107   0.624   2.876   3.502  1.2085  0.7395  0.1830
 4017SOL    HW212108   0.759   2.823   3.457  0.2211 -0.9632 -0.8776
 4018SOL     OW12109   2.359   1.313   1.240 -0.0049  0.0172 -0.1162
 4018SOL    HW112110   2.423   1.330   1.171  0.3044  0.4924  0.2881
 4018SOL    HW212111   2.375   1.381   1.306 -1.6895  0.8612 -0.5331
 4019SOL     OW12112   4.109   3.695   0.197  0.4564  0.3475 -0.1008
 4019SOL    HW112113   4.062   3.733   0.123  2.9834  1.0414 -1.4329
 4019SOL    HW212114   4.166   3.629   0.158  0.7284 -0.3803  1.4427
 4020SOL     OW12115   4.425   4.262   2.164  0.0500  0.1407 -0.0408
 4020SOL    HW112116   4.354   4.324   2.172  0.1811  0.5625 -1.6782
 4020SOL    HW212117   4.504   4.313   2.181  0.1181  0.3277 -0.8470
 4021SOL     OW12118   4.891   1.827   3.751  0.1820  0.3061  0.4410
 4021SOL    HW112119   4.940   1.908   3.766  0.8206 -0.1076  0.6582
 4021SOL    HW212120   4.841   1.814   3.831 -0.2973  0.7356  0.2159
 4022SOL     OW12121   3.557   1.634   4.194 -0.2055 -0.8728 -1.0257
 4022SOL    HW112122   3.486   1.690   4.162 -0.8867 -0.6349  0.7519
 4022SOL    HW212123   3.512   1.561   4.237  0.6409 -1.3307 -0.9137
 4023SOL     OW12124   1.194   4.831   1.437 -0.7335  0.2614 -0.0851
 4023SOL    HW112125   1.247   4.908   1.417 -1.3804  1.2915  1.9610
 4023SOL    HW212126   1.146   4.814   1.356  1.0749  0.5917 -1.3000
 4024SOL     OW12127   2.055   3.222   0.681  0.5935  0.2862  0.0829
 4024SOL    HW112128   1.976   3.179   0.649  1.5898 -2.0766  0.6206
 4024SOL    HW212129   2.110   3.231   0.603 -0.3641  2.5054 -0.4181
 4025SOL     OW12130   0.992   0.661   4.199  0.5982 -0.0841 -0.1541
 4025SOL    HW112131   0.938   0.739   4.212  0.7310  0.3415 -1.9125
 4025SOL    HW212132   0.990   0.616   4.283 -0.3038  1.2986  0.5976
 4026SOL     OW12133   1.890   3.238   1.510 -0.0212 -0.1891 -0.1938
 4026SOL    HW112134   1.895   3.300   1.583 -2.0096  0.3028 -0.4185
 4026SOL    HW212135   1.850   3.159   1.548 -1.8358  0.3534 -0.8474
 4027SOL     OW12136   0.560   2.056   1.323 -0.2371  0.1014 -0.0983
 4027SOL    HW112137   0.655   2.049   1.320 -0.1875  1.0267 -1.4195
 4027SOL    HW212138   0.528   1.975   1.283 -0.0683 -0.7613  1.4135
 4028SOL     OW12139   3.858   2.398   2.069  0.1416  0.6226  0.0523
 4028SOL    HW112140   3.837   2.485   2.037  0.5746  0.5889 -0.3352
 4028SOL    HW212141   3.878   2.410   2.162 -0.5534  0.8122  0.1770
 4029SOL     OW12142   2.747   4.747   4.014 -0.0884  1.0508 -0.3821
 4029SOL    HW112143   2.784   4.756   3.926 -0.1795  1.7187 -0.3555
 4029SOL    HW212144   2.823   4.736   4.071 -0.0752 -1.5486 -0.7521
 4030SOL     OW12145   2.897   4.179   1.389 -0.3857  0.2514  0.2288
 4030SOL    HW112146   2.869   4.226   1.467 -1.0710 -0.5496  0.4750
 4030SOL    HW212147   2.938   4.099   1.422  1.6219  1.0498 -0.1483
 4031SOL     OW12148   3.457   2.598   0.490 -0.3667 -0.3331 -0.2757
 4031SOL    HW112149   3.391   2.528   0.491 -0.6833 -0.0824  2.2032
 4031SOL    HW212150   3.433   2.652   0.414 -1.9886 -1.2051 -0.4278
 4032SOL     OW12151   3.651   2.444   3.511  0.3162  0.0876 -0.0417
 4032SOL    HW112152   3.624   2.358   3.546 -0.0264 -0.4674 -1.5715
 4032SOL    HW212153   3.742   2.432   3.484  0.7843  0.7010  1.1942
 4033NA      NA12154   3.896   2.426   0.714  0.3468  0.2397 -0.0021
   4.98265   4.98265   4.98265
