Protein in water
12154
    1DT5    H5T    1   3.777   3.621   2.732 -0.1431 -2.4655  1.2664
    1DT5    O5'    2   3.860   3.616   2.684 -0.7256  0.3555 -0.2390
    1DT5    C5'    3   3.825   3.597   2.547 -0.1689 -0.6960  0.0284
    1DT5   H5'1    4   3.791   3.690   2.503 -0.7255 -2.0812 -2.7018
    1DT5   H5'2    5   3.735   3.537   2.532 -1.0433  0.4130  0.6791
    1DT5    C4'    6   3.933   3.547   2.463 -0.4270 -0.4084 -0.0716
    1DT5    H4'    7   3.899   3.539   2.360 -0.0552  0.4677 -0.2737
    1DT5    O4'    8   4.049   3.632   2.481  0.2687  0.5803 -0.2447
    1DT5    C1'    9   4.166   3.551   2.510  0.7850 -0.1198 -0.0878
    1DT5    H1'   10   4.217   3.545   2.414  1.2860  1.1439  0.0763
    1DT5     N1   11   4.266   3.604   2.605  0.2793  0.0182 -1.0504
    1DT5     C6   12   4.225   3.652   2.731  0.0150 -0.2627  0.1220
    1DT5     H6   13   4.122   3.656   2.760  0.8041 -1.1800  3.4672
    1DT5     C5   14   4.319   3.696   2.818  0.1791 -0.4387 -0.2908
    1DT5     C7   15   4.271   3.751   2.956  0.3631 -0.2693 -0.2006
    1DT5    H71   16   4.351   3.819   2.986 -0.1253  0.2307 -0.0114
    1DT5    H72   17   4.173   3.800   2.949 -1.5722 -3.6357  1.0883
    1DT5    H73   18   4.253   3.668   3.024  0.3833  0.1946  0.3769
    1DT5     C4   19   4.462   3.702   2.783 -0.2701  0.0815 -0.7117
    1DT5     O4   20   4.552   3.739   2.862  0.4692  0.1386  0.6631
    1DT5     N3   21   4.492   3.664   2.657 -0.6616  0.0068  0.0521
    1DT5     H3   22   4.584   3.678   2.618 -0.2158 -0.8079  0.7576
    1DT5     C2   23   4.401   3.619   2.562  0.7424  0.0255  0.1160
    1DT5     O2   24   4.436   3.568   2.454  0.4723  0.2031  0.3917
    1DT5    C3'   25   3.973   3.403   2.503  0.4291 -0.5100 -0.5835
    1DT5    H3'   26   3.903   3.374   2.581  1.7376  1.0960  1.2611
    1DT5    C2'   27   4.118   3.414   2.563  0.4975 -0.5286  0.0491
    1DT5   H2'1   28   4.113   3.412   2.672 -0.4780  0.8493  0.0603
    1DT5   H2'2   29   4.187   3.337   2.528  1.1670  0.9865 -2.1772
    1DT5    O3'   30   3.963   3.316   2.388 -0.2708  0.0442 -0.2244
    2DT3      P   31   3.986   3.159   2.396 -0.4485 -0.0693  0.1111
    2DT3    O1P   32   3.929   3.103   2.274  0.0950 -0.0324 -0.4883
    2DT3    O2P   33   3.944   3.097   2.527  0.2826  0.1458 -0.6621
    2DT3    O5'   34   4.144   3.148   2.384 -0.3715  0.5760 -1.0754
    2DT3    C5'   35   4.219   3.207   2.275  0.1351  0.2168  0.1275
    2DT3   H5'1   36   4.191   3.312   2.271 -3.7178 -0.7173 -1.1082
    2DT3   H5'2   37   4.180   3.160   2.185 -1.8349  2.0995 -0.0894
    2DT3    C4'   38   4.370   3.189   2.288  0.0366 -0.1327 -0.2378
    2DT3    H4'   39   4.412   3.230   2.196  2.2646 -1.2226  0.2449
    2DT3    O4'   40   4.415   3.263   2.393  0.6323  0.3889 -0.4308
    2DT3    C1'   41   4.501   3.188   2.484  0.2275  0.0052  0.1085
    2DT3    H1'   42   4.599   3.181   2.436 -0.8157  2.3809 -2.6320
    2DT3     N1   43   4.508   3.263   2.612 -0.2260  0.2792 -0.4345
    2DT3     C6   44   4.409   3.265   2.714  0.2284  1.2278 -0.0996
    2DT3     H6   45   4.316   3.214   2.692  0.5671  0.2682  0.6022
    2DT3     C5   46   4.437   3.321   2.831 -0.1536  0.8016  0.1678
    2DT3     C7   47   4.323   3.332   2.927 -0.0907 -0.0897 -0.8315
    2DT3    H71   48   4.229   3.290   2.893 -2.0452 -0.1819  3.8686
    2DT3    H72   49   4.339   3.258   3.005 -0.0276 -1.5248 -2.1747
    2DT3    H73   50   4.310   3.428   2.978 -4.0466 -0.4033 -0.9418
    2DT3     C4   51   4.559   3.388   2.862  0.1743 -0.1477  1.0957
    2DT3     O4   52   4.589   3.433   2.976  0.1473  0.3558  0.4658
    2DT3     N3   53   4.641   3.404   2.755 -0.1526  0.9833 -0.5129
    2DT3     H3   54   4.731   3.442   2.778  0.6508 -1.4737  0.6484
    2DT3     C2   55   4.622   3.342   2.629 -0.0308 -0.1383 -0.1067
    2DT3     O2   56   4.700   3.371   2.537 -0.1184  0.1876 -0.0462
    2DT3    C3'   57   4.413   3.045   2.326  0.3637 -0.6006  0.5543
    2DT3    H3'   58   4.333   2.976   2.300  1.3759 -1.3168 -0.8325
    2DT3    C2'   59   4.440   3.050   2.475 -0.1300  0.3096 -1.0756
    2DT3   H2'1   60   4.340   3.049   2.519 -0.8035  2.3950 -2.3705
    2DT3   H2'2   61   4.504   2.968   2.505 -1.8848 -0.5930  0.4078
    2DT3    O3'   62   4.530   3.004   2.262  0.0537  0.3193 -0.0881
    2DT3    H3T   63   4.541   2.915   2.297 -0.0241  0.1577 -0.4676
    3SOL     OW   64   2.246   1.879   2.332  0.2433  0.3145  0.8418
    3SOL    HW1   65   2.224   1.791   2.361 -0.2471  0.1508 -0.0094
    3SOL    HW2   66   2.171   1.933   2.357 -1.1091 -0.1880 -1.7853
    4SOL     OW   67   4.736   2.719   1.940  0.1552 -0.9741  0.0595
    4SOL    HW1   68   4.801   2.670   1.889 -0.5397  0.8417 -2.7722
    4SOL    HW2   69   4.656   2.668   1.932  0.3279 -1.2940  0.3451
    5SOL     OW   70   1.434   1.156   2.070  0.1138 -0.1206 -0.4173
    5SOL    HW1   71   1.426   1.113   1.985  1.3103 -1.9753  0.3442
    5SOL    HW2   72   1.398   1.092   2.132  2.9433 -0.5857  0.8860
    6SOL     OW   73   2.074   2.308   0.009  0.1724 -0.2952 -0.4601
    6SOL    HW1   74   2.020   2.249  -0.043  0.2056 -1.4978  0.8286
    6SOL    HW2   75   2.018   2.385   0.024  0.0761 -0.0225 -2.0083
    7SOL     OW   76   1.811   3.266   1.885  0.1169 -0.3511  0.1048
    7SOL    HW1   77   1.822   3.192   1.943  0.6734  0.7141  1.4172
    7SOL    HW2   78   1.896   3.312   1.888 -0.8189  1.4359  0.9455
    8SOL     OW   79   2.878   1.522   4.332 -0.2945  0.1469 -0.1317
    8SOL    HW1   80   2.902   1.577   4.407  0.7605  1.6345 -1.4937
    8SOL    HW2   81   2.961   1.485   4.301 -0.6484 -0.0580 -0.8610
    9SOL     OW   82   3.316   0.529   4.036  0.1066  0.0360  0.2272
    9SOL    HW1   83   3.309   0.575   4.120  0.3919  0.1471  0.1921
    9SOL    HW2   84   3.388   0.574   3.990 -0.1743  0.0975 -0.1549
   10SOL     OW   85   3.710   1.429   1.061  0.2703  0.3515  0.3180
   10SOL    HW1   86   3.640   1.372   1.092 -0.8324  2.1101  1.2191
   10SOL    HW2   87   3.783   1.411   1.121 -0.6296  1.0705  1.6756
   11SOL     OW   88   3.596   0.356   1.844 -0.4148  0.2961  0.6380
   11SOL    HW1   89   3.515   0.385   1.887 -0.7712  3.4752 -1.7798
   11SOL    HW2   90   3.567   0.298   1.774 -0.3133 -0.6131  1.3297
   12SOL     OW   91   1.904   3.127   2.086 -0.0525 -0.2750 -0.2989
   12SOL    HW1   92   1.950   3.176   2.154  2.2762 -2.3191 -0.2492
   12SOL    HW2   93   1.943   3.040   2.089 -1.7593 -1.2171 -2.4924
   13SOL     OW   94   4.534   4.424   0.766 -0.0507  0.7890  0.0519
   13SOL    HW1   95   4.500   4.437   0.677  3.6000  1.4288 -1.4372
   13SOL    HW2   96   4.468   4.462   0.823 -2.4016  0.6467 -2.3748
   14SOL     OW   97   1.908   2.617   1.874 -0.5642  0.2989 -0.4103
   14SOL    HW1   98   1.881   2.598   1.784  0.7974 -0.6485 -0.6504
   14SOL    HW2   99   1.843   2.680   1.906 -2.2877 -0.9360 -1.3318
   15SOL     OW  100   4.666   3.871   1.436  0.0928  0.2147  0.3017
   15SOL    HW1  101   4.712   3.799   1.479  2.0290  0.9512 -0.4190
   15SOL    HW2  102   4.687   3.948   1.490  2.1736  1.0723 -1.5778
   16SOL     OW  103   0.068   2.806   3.865  0.2332 -0.0762  0.2925
   16SOL    HW1  104   0.016   2.746   3.811  0.3112 -0.3623  0.5327
   16SOL    HW2  105   0.120   2.856   3.802 -0.1750  0.0609  0.0644
   17SOL     OW  106   2.888   3.764   0.880 -0.8364  0.1083 -0.2966
   17SOL    HW1  107   2.970   3.808   0.856 -0.4768 -0.0245  0.6537
   17SOL    HW2  108   2.867   3.710   0.804  1.0807 -1.4780  0.2083
   18SOL     OW  109   1.729   0.167   1.137 -0.0051 -0.6501 -0.1242
   18SOL    HW1  110   1.705   0.083   1.099 -1.5678 -0.2295 -0.1615
   18SOL    HW2  111   1.751   0.147   1.228 -1.2232 -1.0271  0.1169
   19SOL     OW  112   4.655   1.944   4.597  0.1276 -0.8714  0.4145
   19SOL    HW1  113   4.626   1.952   4.506  0.8986 -0.3346  0.2012
   19SOL    HW2  114   4.741   1.986   4.598 -0.2518 -0.0727  1.5832
   20SOL     OW  115   2.085   0.649   3.645 -0.4466 -0.3110 -0.2527
   20SOL    HW1  116   2.147   0.585   3.680  0.5330 -0.1771 -1.6741
   20SOL    HW2  117   1.999   0.614   3.667  0.0955 -0.3928  1.9463
   21SOL     OW  118   2.922   3.803   0.443  0.0810 -0.4405  0.0875
   21SOL    HW1  119   2.912   3.779   0.535 -0.6666 -1.2514 -0.1983
   21SOL    HW2  120   2.912   3.721   0.395  0.4868 -0.0296 -0.7263
   22SOL     OW  121   2.577   3.070   0.708  0.0055  0.5363  0.1061
   22SOL    HW1  122   2.482   3.061   0.718  0.0965  1.1435  1.8792
   22SOL    HW2  123   2.613   2.996   0.757  0.4682  0.0211 -0.9779
   23SOL     OW  124   3.222   3.658   4.966 -0.2805  0.5525 -0.3211
   23SOL    HW1  125   3.226   3.746   4.929 -0.5250  0.4539 -0.5892
   23SOL    HW2  126   3.148   3.617   4.922 -1.1590  0.7335  0.9338
   24SOL     OW  127   2.636   2.648   1.079  0.2960  0.5866 -0.0305
   24SOL    HW1  128   2.726   2.630   1.104  0.5790  0.2556 -1.2411
   24SOL    HW2  129   2.591   2.667   1.162  0.6901 -2.6116  1.0309
   25SOL     OW  130   3.624   2.740   2.642 -0.3995 -0.1909  0.8568
   25SOL    HW1  131   3.613   2.757   2.735  2.1038 -0.1097  1.2057
   25SOL    HW2  132   3.719   2.734   2.630 -0.6950 -1.0009 -1.5503
   26SOL     OW  133   3.717   4.159   0.248  0.2539  0.0485 -0.0062
   26SOL    HW1  134   3.625   4.174   0.228  0.2423  0.6958  0.5269
   26SOL    HW2  135   3.726   4.179   0.341  1.2852  1.7563 -0.4223
   27SOL     OW  136   2.426   0.056   3.489 -0.1351  0.1434 -0.5379
   27SOL    HW1  137   2.423  -0.012   3.421 -0.0023  1.1323 -1.5537
   27SOL    HW2  138   2.341   0.049   3.533 -0.2479 -0.4663 -0.8431
   28SOL     OW  139   0.613   3.188   1.857 -0.2555 -0.4372 -0.1127
   28SOL    HW1  140   0.603   3.227   1.943  0.7563 -0.3241 -0.0441
   28SOL    HW2  141   0.639   3.261   1.800 -2.0115 -0.2718 -0.7655
   29SOL     OW  142   2.349   2.186   4.436  0.0796  0.1761  0.2093
   29SOL    HW1  143   2.329   2.133   4.358  0.1176  0.3131  0.1056
   29SOL    HW2  144   2.268   2.235   4.452 -0.4698 -0.9921  1.1776
   30SOL     OW  145   1.077   1.870   3.056 -0.4054  0.2145 -0.0048
   30SOL    HW1  146   1.047   1.789   3.098  0.6686  0.1412  0.6608
   30SOL    HW2  147   1.111   1.842   2.971 -0.3864  0.0231  0.0657
   31SOL     OW  148   1.776   1.094   0.042 -0.5068  0.3507  0.1380
   31SOL    HW1  149   1.816   1.088  -0.045  0.9813  3.5483  0.4515
   31SOL    HW2  150   1.742   1.007   0.059 -0.9174 -0.4071 -3.6652
   32SOL     OW  151   3.122   1.880   0.608 -0.1638  0.3538  0.5964
   32SOL    HW1  152   3.036   1.875   0.567 -0.4364 -1.2683  1.2982
   32SOL    HW2  153   3.184   1.881   0.535 -0.6340 -2.4948  0.0606
   33SOL     OW  154   0.390   0.784   4.141  0.4228 -0.1025  0.4547
   33SOL    HW1  155   0.362   0.875   4.149 -0.8693 -0.1100 -2.6847
   33SOL    HW2  156   0.310   0.733   4.156  1.0870 -0.7732  1.9535
   34SOL     OW  157   0.407   2.826   1.409  0.1382  0.1977 -0.1231
   34SOL    HW1  158   0.338   2.875   1.363 -0.6745 -0.6667  0.1223
   34SOL    HW2  159   0.451   2.777   1.340 -1.1112 -1.1338 -0.0504
   35SOL     OW  160   4.248   0.013   3.741 -0.0249  0.3407 -0.0812
   35SOL    HW1  161   4.228   0.057   3.823 -2.3645 -1.8909  0.6602
   35SOL    HW2  162   4.243   0.082   3.675 -0.7599  1.6890  1.3202
   36SOL     OW  163   1.601   3.242   4.445  0.2243 -0.0749 -0.6294
   36SOL    HW1  164   1.689   3.252   4.409  0.4275 -1.0738 -0.4350
   36SOL    HW2  165   1.570   3.159   4.410 -0.1198 -0.3793  0.3785
   37SOL     OW  166   3.518   3.993   2.319 -0.7238  0.0632 -0.1384
   37SOL    HW1  167   3.544   3.957   2.403  1.3595  1.2048 -0.2334
   37SOL    HW2  168   3.600   4.011   2.274 -1.7245  1.8958 -1.3606
   38SOL     OW  169   2.358   1.036   3.714 -0.3451 -0.0712  0.1059
   38SOL    HW1  170   2.368   1.060   3.622  0.8505  1.4939  0.6100
   38SOL    HW2  171   2.272   0.994   3.719 -1.4979  1.9652 -1.3069
   39SOL     OW  172   3.230   4.515   4.215  0.1224  0.2871 -0.1939
   39SOL    HW1  173   3.244   4.484   4.126  0.3742 -1.2302  0.3306
   39SOL    HW2  174   3.302   4.476   4.265  1.0186  2.5362  0.3934
   40SOL     OW  175   0.835   0.546   3.228 -0.3776 -0.7369  0.5176
   40SOL    HW1  176   0.854   0.593   3.147 -1.4870 -1.5493 -0.2532
   40SOL    HW2  177   0.918   0.547   3.276 -0.1918  1.3886  0.2502
   41SOL     OW  178   1.944   1.750   0.539 -0.5842 -0.2371  0.6388
   41SOL    HW1  179   1.958   1.700   0.620  0.5147 -1.8285 -0.4727
   41SOL    HW2  180   1.936   1.841   0.568  0.9752 -0.6131  2.4508
   42SOL     OW  181   1.529   4.070   2.736  0.4519  0.0699  0.2916
   42SOL    HW1  182   1.574   4.008   2.792  0.5541  1.6035  1.9987
   42SOL    HW2  183   1.550   4.041   2.647 -0.0618 -2.6834  0.9721
   43SOL     OW  184   3.992   4.617   3.678  0.5945  0.4275  0.1231
   43SOL    HW1  185   3.977   4.585   3.589 -0.2004  0.7148  0.1447
   43SOL    HW2  186   3.940   4.697   3.684  2.5016  1.7257  0.0812
   44SOL     OW  187   2.009   4.584   0.174  0.0137  0.3126  0.5092
   44SOL    HW1  188   1.970   4.545   0.251  1.3245  0.0074  1.0472
   44SOL    HW2  189   1.935   4.612   0.120 -0.9278 -0.9991  1.0881
   45SOL     OW  190   1.528   2.419   4.756 -0.0656  0.5109 -0.2629
   45SOL    HW1  191   1.486   2.359   4.817 -0.2098 -0.1177 -0.9704
   45SOL    HW2  192   1.517   2.505   4.796 -0.7175  0.1851  0.2821
   46SOL     OW  193   1.137   1.576   1.096  0.5101  0.1164  0.8005
   46SOL    HW1  194   1.138   1.528   1.179  1.7710 -0.9657  0.2006
   46SOL    HW2  195   1.048   1.610   1.088  0.6148  1.1091  3.0631
   47SOL     OW  196   4.758   1.276   2.069 -0.3550  0.1317 -0.0885
   47SOL    HW1  197   4.741   1.253   1.978  1.1584 -1.5913  0.0013
   47SOL    HW2  198   4.676   1.258   2.115 -0.9229  0.3865 -0.9924
   48SOL     OW  199   3.808   0.400   1.019  0.1695  0.5836  0.4071
   48SOL    HW1  200   3.831   0.309   0.997  1.4058  0.7520  0.9653
   48SOL    HW2  201   3.848   0.452   0.950  0.0176  0.7577  0.4499
   49SOL     OW  202   0.798   4.903   0.071 -0.2938  0.2648  0.9070
   49SOL    HW1  203   0.813   4.915  -0.023  0.0995 -0.2368  0.8982
   49SOL    HW2  204   0.711   4.940   0.087  0.6685  2.6930  0.8451
   50SOL     OW  205   0.894   2.417   0.248 -0.2154  0.9666 -0.0118
   50SOL    HW1  206   0.906   2.322   0.245 -1.5364  0.7749  0.2117
   50SOL    HW2  207   0.841   2.432   0.327 -1.2221  1.7310 -0.8047
   51SOL     OW  208   2.452   3.860   0.137 -0.3430 -1.0781 -0.0537
   51SOL    HW1  209   2.403   3.909   0.203 -0.8820  1.5399 -2.2044
   51SOL    HW2  210   2.520   3.814   0.186 -1.9715 -0.9602  2.4956
   52SOL     OW  211   1.207   0.632   2.921  0.1702  0.1420  0.4762
   52SOL    HW1  212   1.134   0.618   2.861  1.6961 -0.4505 -1.3307
   52SOL    HW2  213   1.207   0.726   2.937  0.5484  0.5301 -1.5905
   53SOL     OW  214   3.789   0.018   4.405 -0.0463  0.0341 -0.1343
   53SOL    HW1  215   3.766   0.111   4.399  0.0208 -0.0133 -1.1883
   53SOL    HW2  216   3.770  -0.005   4.496 -2.2751  0.5037 -0.4244
   54SOL     OW  217   3.097   0.463   3.720 -0.2369  0.4495  0.3748
   54SOL    HW1  218   3.020   0.481   3.666 -0.0072  0.5857  0.0884
   54SOL    HW2  219   3.071   0.490   3.808 -0.8385 -0.3632  0.4640
   55SOL     OW  220   0.461   3.955   2.517 -0.1529 -0.2547 -0.1457
   55SOL    HW1  221   0.461   3.903   2.436 -0.9120 -0.0404 -0.2883
   55SOL    HW2  222   0.540   4.009   2.510 -1.2828  1.2991 -1.7634
   56SOL     OW  223   1.456   1.813   3.123  0.2219  0.3861  0.4523
   56SOL    HW1  224   1.531   1.764   3.156 -0.5337 -0.5651  0.8059
   56SOL    HW2  225   1.428   1.867   3.197  0.1198  0.2010  0.5495
   57SOL     OW  226   4.752   0.100   3.494  0.2399 -0.3041 -0.0706
   57SOL    HW1  227   4.664   0.076   3.524 -0.7831  1.0800 -1.7840
   57SOL    HW2  228   4.739   0.134   3.405  2.2166  1.8944  0.3855
   58SOL     OW  229   3.766   2.053   4.055  0.9940  0.7205  0.3568
   58SOL    HW1  230   3.831   2.085   4.118  1.2775 -0.2770  0.6005
   58SOL    HW2  231   3.683   2.056   4.102  1.4277 -1.5837  1.4385
   59SOL     OW  232   4.707   4.137   1.592  0.0013 -0.1367  0.0775
   59SOL    HW1  233   4.754   4.210   1.632 -1.7159  0.1680  1.6829
   59SOL    HW2  234   4.677   4.172   1.508 -2.2643  1.7364  1.5200
   60SOL     OW  235   2.198   0.520   3.896  0.0745  0.0084 -1.0058
   60SOL    HW1  236   2.280   0.547   3.854 -0.4537  2.0394 -0.8293
   60SOL    HW2  237   2.158   0.459   3.834  0.4896  1.0412 -2.3292
   61SOL     OW  238   2.283   1.820   0.588 -0.0709 -0.0205 -0.8958
   61SOL    HW1  239   2.223   1.849   0.657 -0.1206 -1.9890 -0.0593
   61SOL    HW2  240   2.349   1.889   0.584  0.8358 -0.5316  2.3022
   62SOL     OW  241   4.126   1.715   0.991  0.1470 -0.3178 -0.4910
   62SOL    HW1  242   4.203   1.719   1.048  0.4034  1.6845 -0.9091
   62SOL    HW2  243   4.158   1.675   0.910  0.7850  0.5362 -0.6783
   63SOL     OW  244   3.518   3.602   1.221 -0.1478 -0.2133 -0.1328
   63SOL    HW1  245   3.489   3.564   1.138 -0.2271 -0.3015 -0.0661
   63SOL    HW2  246   3.613   3.608   1.214  0.0675 -2.0861  0.5314
   64SOL     OW  247   1.134   0.974   2.697  0.1955 -0.2482  0.6683
   64SOL    HW1  248   1.193   0.990   2.771  0.8317 -1.8502  0.5376
   64SOL    HW2  249   1.099   0.887   2.713 -0.4313 -0.2071 -0.4125
   65SOL     OW  250   2.180   4.771   2.629 -0.1394 -0.2990  0.0462
   65SOL    HW1  251   2.098   4.729   2.604 -0.8188 -0.0227  1.6577
   65SOL    HW2  252   2.154   4.859   2.656  0.7351 -0.1092  0.2831
   66SOL     OW  253   3.616   4.774   0.296  0.1682 -0.3262  0.6271
   66SOL    HW1  254   3.708   4.802   0.296  0.2896 -0.6062  2.4070
   66SOL    HW2  255   3.610   4.711   0.225  1.2862 -0.1067  0.3139
   67SOL     OW  256   2.442   1.352   1.270 -0.4797 -0.3851 -0.0150
   67SOL    HW1  257   2.366   1.350   1.328 -0.0748 -0.7486  0.5178
   67SOL    HW2  258   2.517   1.340   1.329  0.0638  0.8209 -0.4138
   68SOL     OW  259   3.980   1.114   3.484  0.9834 -0.8759 -0.0416
   68SOL    HW1  260   3.955   1.082   3.397 -1.2711  0.2573  0.1278
   68SOL    HW2  261   3.906   1.094   3.540 -0.2250  3.4213  0.2971
   69SOL     OW  262   1.264   4.609   1.242  0.1549  0.2284 -0.2114
   69SOL    HW1  263   1.202   4.550   1.199  0.5658 -1.3802  1.3209
   69SOL    HW2  264   1.350   4.579   1.213  0.3374  0.7071 -0.1803
   70SOL     OW  265   1.322   1.179   0.683 -0.2596  0.1922 -0.6937
   70SOL    HW1  266   1.239   1.173   0.730  0.2723  3.3558  0.8845
   70SOL    HW2  267   1.366   1.096   0.703 -1.8948 -0.4160  0.7015
   71SOL     OW  268   1.150   3.433   0.324 -0.0811  0.3010  0.1886
   71SOL    HW1  269   1.073   3.489   0.319 -0.4747 -0.1297  1.2325
   71SOL    HW2  270   1.209   3.468   0.257 -1.9628 -0.6371 -2.0961
   72SOL     OW  271   1.767   2.066   3.529  0.9453 -0.2770  0.3422
   72SOL    HW1  272   1.771   2.026   3.442 -0.7759 -2.0090  0.9865
   72SOL    HW2  273   1.712   2.143   3.518  2.6361  0.8807 -0.5088
   73SOL     OW  274   3.629   2.298   1.579  0.3861 -0.1413 -0.0584
   73SOL    HW1  275   3.692   2.227   1.590 -0.1845 -0.7696 -0.7658
   73SOL    HW2  276   3.634   2.320   1.486  0.2830  0.4878  0.0798
   74SOL     OW  277   3.160   2.918   2.811 -0.1731 -0.3784  0.1675
   74SOL    HW1  278   3.192   2.828   2.818 -0.2755 -0.6036 -1.7790
   74SOL    HW2  279   3.234   2.972   2.839 -0.7335 -1.0544  3.2372
   75SOL     OW  280   3.080   2.503   1.364  0.1502 -0.6037  1.0449
   75SOL    HW1  281   3.153   2.555   1.398  0.6821 -0.6293 -0.0188
   75SOL    HW2  282   3.122   2.424   1.328 -0.3308 -0.3266 -0.1589
   76SOL     OW  283   2.697   4.701   1.517  0.4322 -0.5455 -0.1283
   76SOL    HW1  284   2.750   4.761   1.465 -0.0402 -0.6417 -0.7391
   76SOL    HW2  285   2.654   4.756   1.582  4.1484 -0.8715  2.9935
   77SOL     OW  286   1.661   2.100   4.827  0.0304 -0.2402  0.3918
   77SOL    HW1  287   1.588   2.160   4.814  0.6216  0.2887 -0.5522
   77SOL    HW2  288   1.666   2.049   4.746 -0.4448 -1.5829  1.1595
   78SOL     OW  289   4.448   3.009   1.230  0.5972 -0.2867 -0.4009
   78SOL    HW1  290   4.482   2.996   1.318  0.9652 -2.5174 -0.8242
   78SOL    HW2  291   4.526   3.030   1.177  0.6285 -0.6662 -0.5063
   79SOL     OW  292   3.914   0.424   0.091  0.1275 -0.0267 -0.0369
   79SOL    HW1  293   3.900   0.418   0.186  1.1207 -0.6284  0.0947
   79SOL    HW2  294   4.009   0.429   0.082  0.0707 -0.5011 -1.0286
   80SOL     OW  295   3.005   2.181   4.013  0.1782 -0.3484  0.0946
   80SOL    HW1  296   2.922   2.157   3.974  1.5920 -2.5642 -1.8530
   80SOL    HW2  297   2.990   2.174   4.108 -2.4124  1.7237 -0.0660
   81SOL     OW  298   0.105   3.836   2.215 -0.8161  0.6602  0.3926
   81SOL    HW1  299   0.026   3.884   2.193 -1.0597 -0.3517 -1.1101
   81SOL    HW2  300   0.168   3.903   2.243 -1.0116  1.9364 -1.9746
   82SOL     OW  301   0.712   3.836   3.699 -0.0278 -0.5512  0.8190
   82SOL    HW1  302   0.760   3.894   3.640 -0.4745  1.0984  1.9803
   82SOL    HW2  303   0.774   3.817   3.770  0.0045 -1.2357  0.6134
   83SOL     OW  304   3.732   0.165   3.738  0.4383  0.7249 -0.4335
   83SOL    HW1  305   3.815   0.145   3.781 -0.7258  0.9596  2.0756
   83SOL    HW2  306   3.714   0.256   3.762 -1.6415 -0.0260  1.0825
   84SOL     OW  307   0.253   2.199   0.849 -0.3741 -0.3126 -0.1129
   84SOL    HW1  308   0.310   2.204   0.926  0.3080 -0.6164 -0.5839
   84SOL    HW2  309   0.298   2.138   0.790 -1.4051 -0.8828 -0.3270
   85SOL     OW  310   4.836   0.149   4.525 -0.3757  0.5539 -0.0274
   85SOL    HW1  311   4.921   0.159   4.569  0.6803  1.2827 -2.0661
   85SOL    HW2  312   4.798   0.237   4.527 -1.6439  0.0068  1.8399
   86SOL     OW  313   1.301   2.029   2.555 -0.1102  0.2472 -0.2531
   86SOL    HW1  314   1.376   2.088   2.552 -0.3754  0.7410  1.4538
   86SOL    HW2  315   1.256   2.052   2.637 -1.1810 -1.1661 -0.4059
   87SOL     OW  316   0.612   4.011   3.874  0.2584  0.9927  0.4041
   87SOL    HW1  317   0.651   4.088   3.832  2.0638  1.1301  2.1664
   87SOL    HW2  318   0.647   3.937   3.825  0.5225  1.2138  0.2525
   88SOL     OW  319   1.106   0.350   0.636 -0.4676 -0.2845  0.2300
   88SOL    HW1  320   1.024   0.338   0.587 -0.3468  0.3824 -0.1435
   88SOL    HW2  321   1.078   0.388   0.720 -0.5959 -0.6157  0.3373
   89SOL     OW  322   3.156   4.258   4.852 -0.8484  0.8658  0.6079
   89SOL    HW1  323   3.157   4.284   4.760 -0.6534 -1.5899 -0.1354
   89SOL    HW2  324   3.244   4.223   4.869 -0.3720  2.6261  2.2003
   90SOL     OW  325   4.438   3.342   0.970  0.1902  0.4489 -0.4529
   90SOL    HW1  326   4.423   3.254   1.004 -1.8408  0.9009 -0.0766
   90SOL    HW2  327   4.524   3.367   1.006 -0.1892 -0.5514  1.2491
   91SOL     OW  328   0.713   0.101   0.828 -0.6999 -0.3663  0.2074
   91SOL    HW1  329   0.756   0.134   0.748  0.1500  0.8032  1.1117
   91SOL    HW2  330   0.775   0.122   0.898 -1.9104 -0.4103  1.3102
   92SOL     OW  331   3.172   1.603   0.824  0.6293 -0.6035 -0.3474
   92SOL    HW1  332   3.213   1.597   0.910  0.5185 -0.4948 -0.2879
   92SOL    HW2  333   3.242   1.633   0.766  0.6873 -0.6187 -0.2850
   93SOL     OW  334   4.032   4.500   0.692  0.8083  0.2399  0.1204
   93SOL    HW1  335   3.968   4.567   0.669  1.6354  1.2540  0.6709
   93SOL    HW2  336   4.058   4.462   0.608  0.4857  0.7540 -0.2197
   94SOL     OW  337   1.721   4.555   4.391 -0.2009  0.0899  0.2635
   94SOL    HW1  338   1.777   4.578   4.317 -0.4009  1.8107  0.6029
   94SOL    HW2  339   1.632   4.555   4.355 -0.1010 -1.9460 -0.1143
   95SOL     OW  340   1.332   3.484   0.880 -0.2967  0.0755 -0.0822
   95SOL    HW1  341   1.331   3.579   0.890 -1.5079 -0.0117  0.7695
   95SOL    HW2  342   1.319   3.469   0.786  0.9466  0.7460 -0.3812
   96SOL     OW  343   2.352   2.899   2.758 -0.0982 -0.5649 -0.7006
   96SOL    HW1  344   2.440   2.914   2.793 -0.0423  0.5733 -1.2926
   96SOL    HW2  345   2.366   2.839   2.684  0.3344  0.4528 -1.4672
   97SOL     OW  346   4.679   0.065   4.324 -0.4133  0.3121 -0.3015
   97SOL    HW1  347   4.603   0.119   4.344 -2.1042 -2.6505  2.1508
   97SOL    HW2  348   4.741   0.084   4.394 -1.9746 -2.3377  2.0159
   98SOL     OW  349   0.297   4.448   4.885 -0.2298 -0.0451  0.4601
   98SOL    HW1  350   0.392   4.442   4.879  0.1052  2.6566  1.6022
   98SOL    HW2  351   0.277   4.429   4.977 -0.5881  1.0048  0.6128
   99SOL     OW  352   3.980   2.089   0.585  0.0385  0.3499 -0.0096
   99SOL    HW1  353   3.946   2.140   0.511  0.2394  0.8289  0.2230
   99SOL    HW2  354   4.073   2.078   0.566 -0.0432 -0.1091 -0.1581
  100SOL     OW  355   1.965   3.308   3.413 -0.3169 -0.0535 -0.3418
  100SOL    HW1  356   2.054   3.315   3.448  0.2785 -0.0607 -1.7835
  100SOL    HW2  357   1.974   3.253   3.334 -1.7797 -0.9590  0.0760
  101SOL     OW  358   3.957   1.147   2.022 -0.1479  0.5109  0.2389
  101SOL    HW1  359   3.969   1.217   1.958  1.6061  1.1678  1.2108
  101SOL    HW2  360   3.959   1.067   1.970  0.2986  1.0749 -0.6477
  102SOL     OW  361   0.196   0.978   4.208  0.2138 -0.2173  0.5349
  102SOL    HW1  362   0.105   0.948   4.211 -0.7633  2.2643 -1.0504
  102SOL    HW2  363   0.205   1.033   4.286  0.4368 -0.6558  0.8192
  103SOL     OW  364   3.276   2.729   4.149  0.0497 -0.0259 -0.4927
  103SOL    HW1  365   3.369   2.749   4.137 -0.4555  2.3991 -0.7995
  103SOL    HW2  366   3.271   2.634   4.139  2.3415 -0.1126 -1.4729
  104SOL     OW  367   2.965   1.319   3.737  0.4266  0.3780 -0.2548
  104SOL    HW1  368   2.922   1.339   3.821  0.4073 -2.8983  0.6253
  104SOL    HW2  369   3.059   1.319   3.759  0.5302  1.2034 -0.6689
  105SOL     OW  370   2.083   0.090   2.475  0.0235  0.5830  0.2060
  105SOL    HW1  371   2.007   0.087   2.533 -1.1778  0.6077 -1.2992
  105SOL    HW2  372   2.140   0.156   2.514 -1.0739  1.1264  0.9670
  106SOL     OW  373   1.862   4.020   1.345  0.3226 -0.5223  0.1039
  106SOL    HW1  374   1.895   3.942   1.301  0.7438 -0.0325 -0.4709
  106SOL    HW2  375   1.881   4.005   1.437  0.1160 -1.2336  0.0339
  107SOL     OW  376   3.361   0.264   3.967  0.0157 -0.2706  0.0742
  107SOL    HW1  377   3.335   0.356   3.978 -0.4194 -0.1121 -1.8737
  107SOL    HW2  378   3.451   0.261   3.997 -1.0069 -0.0372  3.5590
  108SOL     OW  379   3.350   2.856   1.630 -0.0382  0.2127  0.0273
  108SOL    HW1  380   3.401   2.937   1.622 -0.1410  0.3531  0.7259
  108SOL    HW2  381   3.408   2.796   1.677  0.5369 -0.5757 -1.6161
  109SOL     OW  382   2.335   1.786   2.667 -0.1040 -0.3638  0.1681
  109SOL    HW1  383   2.422   1.751   2.683  0.6720  1.3529 -0.0674
  109SOL    HW2  384   2.348   1.857   2.603 -1.8790 -1.0573 -1.0644
  110SOL     OW  385   2.366   3.196   1.814 -0.1173  0.2758 -0.1520
  110SOL    HW1  386   2.292   3.151   1.774 -0.1668  0.0931  0.1348
  110SOL    HW2  387   2.389   3.141   1.889  1.8955 -1.0049 -1.6209
  111SOL     OW  388   2.351   3.817   3.216 -0.2877 -0.5543 -0.5498
  111SOL    HW1  389   2.260   3.788   3.209  0.3525 -2.7152 -0.6431
  111SOL    HW2  390   2.365   3.831   3.310 -0.3050 -1.7680 -0.3492
  112SOL     OW  391   0.509   0.987   1.203 -0.1261 -0.1485 -0.1983
  112SOL    HW1  392   0.569   1.057   1.228 -1.0848  0.2583  1.0396
  112SOL    HW2  393   0.449   0.979   1.277 -2.9384  0.9055 -2.1793
  113SOL     OW  394   2.912   3.304   2.634 -0.2383 -0.5951 -0.2869
  113SOL    HW1  395   2.906   3.210   2.616 -0.9703 -0.7915  0.9171
  113SOL    HW2  396   2.990   3.313   2.689 -0.6198 -0.6207  0.2712
  114SOL     OW  397   3.106   0.564   1.068  0.1846  0.4232  0.0209
  114SOL    HW1  398   3.185   0.600   1.027  0.3794  2.0477  1.6824
  114SOL    HW2  399   3.139   0.492   1.123  0.4438  0.7664  0.3182
  115SOL     OW  400   4.618   1.010   4.472  0.1395  0.1114  0.3908
  115SOL    HW1  401   4.654   0.973   4.553 -0.1273  0.9206  0.8930
  115SOL    HW2  402   4.597   0.934   4.418  1.7290 -0.4232  0.4542
  116SOL     OW  403   0.260   0.392   4.461 -0.1079  0.5512  0.1952
  116SOL    HW1  404   0.233   0.315   4.411  2.4509  1.0007 -2.1120
  116SOL    HW2  405   0.327   0.359   4.522  0.3081  0.7879 -0.1299
  117SOL     OW  406   3.403   0.508   1.949  0.2736  0.2767  0.0616
  117SOL    HW1  407   3.410   0.516   2.044 -1.6460 -1.9741  0.4901
  117SOL    HW2  408   3.360   0.588   1.921 -3.9879 -1.0948  1.8819
  118SOL     OW  409   4.170   0.490   2.126 -0.1816  0.2742 -0.2981
  118SOL    HW1  410   4.087   0.483   2.174  0.7173  2.7046  1.8756
  118SOL    HW2  411   4.149   0.543   2.048 -0.7030  0.9102  0.2629
  119SOL     OW  412   3.641   0.407   3.804  0.1199  0.2299 -0.3072
  119SOL    HW1  413   3.687   0.487   3.779  0.9262 -0.3392 -0.7102
  119SOL    HW2  414   3.557   0.412   3.758  0.7729  0.1432 -1.5515
  120SOL     OW  415   3.124   2.250   1.209 -0.1907 -0.4814 -0.2174
  120SOL    HW1  416   3.116   2.160   1.179 -1.4099  0.4497 -3.0220
  120SOL    HW2  417   3.035   2.285   1.206  0.4371  1.1945 -0.6598
  121SOL     OW  418   3.749   3.329   3.236 -0.2436 -0.4902  0.2997
  121SOL    HW1  419   3.682   3.261   3.224 -1.0698 -0.0499  2.1258
  121SOL    HW2  420   3.808   3.318   3.161 -1.7689 -1.5735 -0.7918
  122SOL     OW  421   0.978   0.321   1.378  0.4230  0.0810 -0.0275
  122SOL    HW1  422   0.976   0.335   1.283  1.7223  0.6427  0.0094
  122SOL    HW2  423   1.043   0.252   1.391  0.5734  0.3135  0.4812
  123SOL     OW  424   0.594   1.862   3.480  0.3276 -0.5963  0.1476
  123SOL    HW1  425   0.516   1.861   3.424 -0.4691 -2.2328  1.2107
  123SOL    HW2  426   0.656   1.805   3.435  0.1840 -0.8445  0.2624
  124SOL     OW  427   4.867   1.396   0.452  0.2940  0.3939 -0.2704
  124SOL    HW1  428   4.832   1.477   0.414  1.2491  1.6030  1.3163
  124SOL    HW2  429   4.948   1.380   0.404 -0.2263 -0.0509 -1.0458
  125SOL     OW  430   0.549   3.594   2.028 -0.2171  0.0687  0.0294
  125SOL    HW1  431   0.636   3.634   2.031  0.2804 -1.0173  1.0452
  125SOL    HW2  432   0.509   3.615   2.113 -1.3145  1.2848 -0.7491
  126SOL     OW  433   3.062   0.842   4.338 -0.2167  0.7429  0.2963
  126SOL    HW1  434   3.046   0.835   4.244 -0.2247 -0.7305  0.3791
  126SOL    HW2  435   3.014   0.769   4.376  1.5730 -0.0330  1.2059
  127SOL     OW  436   0.138   3.327   1.230 -0.1655 -0.2297 -0.0128
  127SOL    HW1  437   0.081   3.325   1.307 -0.9107  1.1194 -0.4964
  127SOL    HW2  438   0.087   3.283   1.161 -0.2956  0.2721 -0.2382
  128SOL     OW  439   3.749   3.943   1.825  0.0059  0.2923  0.2353
  128SOL    HW1  440   3.681   3.952   1.892 -0.4552 -0.0291 -0.1855
  128SOL    HW2  441   3.813   3.883   1.864  0.1788  0.7812  0.7261
  129SOL     OW  442   3.038   0.497   3.987 -0.4106 -0.5729  0.3068
  129SOL    HW1  443   2.975   0.447   4.039  0.3518 -1.9119 -0.0284
  129SOL    HW2  444   3.121   0.489   4.034 -0.2722  0.4364  0.2745
  130SOL     OW  445   2.850   1.085   3.919 -0.4123  0.2100 -0.3864
  130SOL    HW1  446   2.758   1.076   3.896 -0.5567 -0.8585  0.5633
  130SOL    HW2  447   2.893   1.104   3.835 -1.0241 -2.7961 -1.5195
  131SOL     OW  448   0.022   2.512   2.473 -0.2465 -0.4270 -0.1595
  131SOL    HW1  449   0.036   2.571   2.547 -1.0374 -0.0334 -0.3113
  131SOL    HW2  450   0.100   2.456   2.471  0.5657  0.6609 -0.0651
  132SOL     OW  451   4.411   4.038   0.247  0.0854 -0.3001  0.4756
  132SOL    HW1  452   4.424   4.028   0.153 -1.2283 -1.4249  0.3826
  132SOL    HW2  453   4.369   3.957   0.274 -1.7816  0.9558  1.5720
  133SOL     OW  454   1.008   1.371   0.190  0.4162 -0.1342  0.8034
  133SOL    HW1  455   1.023   1.457   0.151 -1.4914  0.0188  0.3203
  133SOL    HW2  456   1.068   1.368   0.264  0.5659  1.6033  0.7935
  134SOL     OW  457   4.467   3.990   4.557 -0.3204 -0.3923  0.1659
  134SOL    HW1  458   4.469   4.075   4.601  0.5194 -0.4916  0.3299
  134SOL    HW2  459   4.548   3.986   4.507  0.4660 -1.7667  1.4525
  135SOL     OW  460   3.339   1.619   2.406 -0.1604  0.5010  0.2163
  135SOL    HW1  461   3.433   1.619   2.426  0.1252 -0.9851 -0.9398
  135SOL    HW2  462   3.298   1.656   2.484  1.2890 -0.1119  1.3271
  136SOL     OW  463   1.213   4.373   3.931 -0.4377  0.3810  0.1870
  136SOL    HW1  464   1.210   4.354   3.837 -0.3191  0.6000  0.1373
  136SOL    HW2  465   1.122   4.373   3.959 -0.4508 -0.0713  0.1515
  137SOL     OW  466   2.380   4.749   1.509  0.6005 -0.2733  0.1377
  137SOL    HW1  467   2.437   4.783   1.578 -1.1211  2.4275  0.4053
  137SOL    HW2  468   2.411   4.792   1.429  0.3415 -0.5384 -0.1067
  138SOL     OW  469   2.283   1.310   1.506 -0.9863  0.7871 -0.6306
  138SOL    HW1  470   2.253   1.400   1.512 -1.0525  0.7662 -0.6443
  138SOL    HW2  471   2.252   1.268   1.586  1.7935  1.5719  0.9898
  139SOL     OW  472   4.970   4.879   2.726 -0.2336 -0.1560 -0.3715
  139SOL    HW1  473   4.905   4.897   2.794  0.8665  0.5279  0.5297
  139SOL    HW2  474   4.936   4.922   2.648 -2.8553 -3.1272 -1.0882
  140SOL     OW  475   3.989   0.936   0.269  0.3096 -0.2348 -0.3764
  140SOL    HW1  476   4.006   0.862   0.328 -0.8221 -0.2270 -0.0042
  140SOL    HW2  477   4.067   0.991   0.276  0.1839 -0.2029  1.1793
  141SOL     OW  478   4.167   0.434   1.414 -0.1785 -0.4346  0.2867
  141SOL    HW1  479   4.091   0.437   1.355  0.6693  0.5911 -0.7966
  141SOL    HW2  480   4.129   0.440   1.501 -1.3033  1.4723 -0.2740
  142SOL     OW  481   4.200   1.833   1.663  0.0694 -0.5346 -0.0040
  142SOL    HW1  482   4.193   1.909   1.606 -0.4668 -1.0621 -0.6587
  142SOL    HW2  483   4.287   1.841   1.703  0.6078 -0.3400 -1.1680
  143SOL     OW  484   0.326   2.033   0.645 -0.6982 -0.2239 -0.3901
  143SOL    HW1  485   0.298   2.003   0.559  1.4925  1.5710 -1.8575
  143SOL    HW2  486   0.395   1.971   0.671 -0.5838 -0.1311 -0.4689
  144SOL     OW  487   0.544   3.173   0.047 -0.9835 -0.0481 -0.1658
  144SOL    HW1  488   0.589   3.094   0.020 -1.9884 -0.3441 -1.0002
  144SOL    HW2  489   0.573   3.187   0.138  0.5845 -0.3458 -0.5948
  145SOL     OW  490   1.962   4.085   4.803 -0.3017 -0.3903  0.4736
  145SOL    HW1  491   1.974   4.006   4.857  0.0069 -0.5963  0.1087
  145SOL    HW2  492   1.867   4.100   4.804 -0.2865 -0.3031  1.1953
  146SOL     OW  493   3.660   0.684   4.680 -0.3568  0.1503 -0.2335
  146SOL    HW1  494   3.676   0.674   4.774 -0.1246 -1.2091 -0.3983
  146SOL    HW2  495   3.745   0.708   4.644 -0.6432  1.5957  0.0055
  147SOL     OW  496   0.193   4.164   4.935 -0.2244 -0.7252 -0.1377
  147SOL    HW1  497   0.248   4.154   4.857  1.0476  0.1173  0.6372
  147SOL    HW2  498   0.248   4.207   4.999 -1.0841 -1.8588  1.4417
  148SOL     OW  499   0.267   4.700   3.319  0.2016  0.0852 -0.2307
  148SOL    HW1  500   0.354   4.670   3.347 -0.8306 -0.6232  2.6215
  148SOL    HW2  501   0.265   4.793   3.343  0.6314  0.4941 -1.6748
  149SOL     OW  502   3.077   0.406   4.934 -0.4075  0.8888 -0.3784
  149SOL    HW1  503   2.982   0.403   4.918 -0.2997  1.6769 -1.2546
  149SOL    HW2  504   3.085   0.430   5.027 -1.0551 -0.5794  0.0814
  150SOL     OW  505   2.749   1.752   3.068 -0.1608 -0.3524 -0.3129
  150SOL    HW1  506   2.671   1.803   3.092  0.8793  0.1680  2.3993
  150SOL    HW2  507   2.799   1.811   3.011  0.9527  1.8635  2.6549
  151SOL     OW  508   0.525   3.679   0.575 -0.0569 -0.3680 -0.2355
  151SOL    HW1  509   0.540   3.673   0.669 -0.2298 -0.9599 -0.2408
  151SOL    HW2  510   0.609   3.704   0.538  0.5421 -2.0720 -0.1100
  152SOL     OW  511   0.490   1.854   4.441  0.1258  0.0300  0.6182
  152SOL    HW1  512   0.490   1.946   4.413 -0.8894 -0.5276 -1.4112
  152SOL    HW2  513   0.398   1.831   4.445  0.3833 -1.0079  0.6946
  153SOL     OW  514   2.243   1.352   4.873  0.2154  0.1872 -0.1471
  153SOL    HW1  515   2.178   1.282   4.860 -0.7233  0.9578  0.2616
  153SOL    HW2  516   2.319   1.308   4.911 -0.7664 -0.4387  1.1468
  154SOL     OW  517   2.456   4.957   1.311  0.3130  0.5753  0.4332
  154SOL    HW1  518   2.530   5.015   1.290 -0.4059  1.9738  1.6100
  154SOL    HW2  519   2.452   4.896   1.237  1.1337  1.9868 -0.8278
  155SOL     OW  520   0.322   0.709   1.356  1.1177  0.3015  0.8412
  155SOL    HW1  521   0.236   0.695   1.316  0.9566  0.5693  1.0966
  155SOL    HW2  522   0.323   0.801   1.381  2.2119  0.8059 -0.8850
  156SOL     OW  523   0.537   2.861   3.100 -0.6850  0.2956  0.2960
  156SOL    HW1  524   0.561   2.909   3.020  0.0999 -0.9764 -0.2511
  156SOL    HW2  525   0.607   2.880   3.161  0.4497 -1.3195 -0.4324
  157SOL     OW  526   4.747   2.778   3.348 -0.1410 -0.7885 -0.1078
  157SOL    HW1  527   4.794   2.752   3.269 -1.0765 -1.5986 -0.4141
  157SOL    HW2  528   4.771   2.870   3.360  0.7864 -0.9238 -0.7650
  158SOL     OW  529   1.465   2.230   2.191 -0.3538  0.5836 -0.2697
  158SOL    HW1  530   1.509   2.201   2.271 -0.5935  0.5514 -0.1475
  158SOL    HW2  531   1.535   2.240   2.127 -0.1091  0.9949  0.0587
  159SOL     OW  532   3.334   1.461   3.587 -0.1663 -0.4992 -0.0757
  159SOL    HW1  533   3.257   1.491   3.635  0.1514  1.0824 -0.5033
  159SOL    HW2  534   3.391   1.424   3.654 -1.2003 -1.5474  0.2665
  160SOL     OW  535   3.719   4.483   2.426 -0.7383  0.3250  0.3888
  160SOL    HW1  536   3.687   4.429   2.499 -1.8324 -0.8317 -0.9020
  160SOL    HW2  537   3.738   4.420   2.356 -2.0121  1.6027 -1.1604
  161SOL     OW  538   3.465   3.616   1.510  0.3524  0.3692  0.0897
  161SOL    HW1  539   3.467   3.520   1.508 -3.5370  0.1453 -0.0944
  161SOL    HW2  540   3.487   3.642   1.421  3.5848 -0.1095  0.6258
  162SOL     OW  541   4.081   0.351   3.763  0.0534  0.6277 -0.0191
  162SOL    HW1  542   3.991   0.357   3.796  0.1416 -0.5114  0.4839
  162SOL    HW2  543   4.071   0.329   3.671 -0.1925 -0.1987  0.1972
  163SOL     OW  544   1.134   2.468   0.090 -0.0463 -0.5806  0.2417
  163SOL    HW1  545   1.171   2.555   0.104 -0.5162 -0.3215 -0.0948
  163SOL    HW2  546   1.058   2.464   0.147  0.1695 -0.9063  0.5151
  164SOL     OW  547   0.877   1.670   1.113 -0.2684 -0.6005 -0.5314
  164SOL    HW1  548   0.789   1.694   1.144  0.1437  1.4512 -0.8315
  164SOL    HW2  549   0.900   1.739   1.051  1.5620 -1.1138 -0.4787
  165SOL     OW  550   4.901   4.435   3.228 -0.1037  0.4948 -0.1080
  165SOL    HW1  551   4.945   4.443   3.313 -0.0779  3.7332 -0.3307
  165SOL    HW2  552   4.808   4.430   3.250 -0.0185 -0.1560  0.1336
  166SOL     OW  553   1.077   0.869   0.895  0.4542  0.0551  0.5780
  166SOL    HW1  554   1.140   0.797   0.895 -0.0981 -0.4311  0.4781
  166SOL    HW2  555   0.993   0.828   0.916  0.1549  0.6880  0.6359
  167SOL     OW  556   0.210   4.129   1.962 -0.1265  0.0369 -0.6378
  167SOL    HW1  557   0.120   4.145   1.932  0.3293  0.9084 -1.5816
  167SOL    HW2  558   0.250   4.079   1.890  0.0601 -0.6418 -0.0746
  168SOL     OW  559   1.021   3.722   3.570 -0.2696 -0.4218 -0.2783
  168SOL    HW1  560   0.957   3.725   3.499 -1.0306  0.6867  0.4142
  168SOL    HW2  561   1.105   3.714   3.526 -0.4780  2.7849 -1.5269
  169SOL     OW  562   4.450   0.816   1.728 -0.4015 -0.2107 -0.0925
  169SOL    HW1  563   4.434   0.724   1.749  0.4742 -0.4864 -0.5894
  169SOL    HW2  564   4.370   0.845   1.684 -0.9182 -0.5575  0.5995
  170SOL     OW  565   0.921   3.391   1.022 -0.8115 -0.0739  0.3030
  170SOL    HW1  566   0.865   3.363   1.094  1.6959 -2.8334  1.3596
  170SOL    HW2  567   0.882   3.350   0.944 -3.7342  3.2036 -0.2607
  171SOL     OW  568   3.043   2.971   1.548 -0.3833  0.1584 -0.1384
  171SOL    HW1  569   3.135   2.946   1.556 -0.5496 -0.1608  0.9451
  171SOL    HW2  570   3.045   3.064   1.525  0.2061  0.1237 -0.2481
  172SOL     OW  571   3.827   0.410   3.030 -0.2282 -0.2149  0.2787
  172SOL    HW1  572   3.812   0.323   2.991  0.6762  0.7029 -2.3796
  172SOL    HW2  573   3.778   0.470   2.974  0.9329  1.2039  0.7212
  173SOL     OW  574   0.310   2.476   2.500 -0.3750  0.3611  0.3764
  173SOL    HW1  575   0.280   2.422   2.427 -2.2829  1.1134  0.5531
  173SOL    HW2  576   0.404   2.459   2.505 -0.7076 -2.0500 -0.2863
  174SOL     OW  577   4.790   3.014   3.133  0.9354  0.1795  0.0481
  174SOL    HW1  578   4.791   3.054   3.046  1.8565  0.2117  0.0633
  174SOL    HW2  579   4.702   2.978   3.142  0.9281 -0.1032 -1.0341
  175SOL     OW  580   1.118   0.924   3.707  0.0614 -0.1958 -0.3229
  175SOL    HW1  581   1.146   0.942   3.797 -2.1963  3.3071 -0.1101
  175SOL    HW2  582   1.024   0.910   3.714 -0.2365  0.6266 -2.1485
  176SOL     OW  583   1.963   4.868   0.934 -0.7597 -0.7662  0.1557
  176SOL    HW1  584   1.945   4.868   1.028 -1.1744 -0.2958  0.0848
  176SOL    HW2  585   2.025   4.797   0.921 -0.4984 -0.6720  0.8262
  177SOL     OW  586   3.845   0.991   4.800 -0.4395  0.6191  0.0042
  177SOL    HW1  587   3.919   1.028   4.752 -1.0188 -0.4575 -1.7815
  177SOL    HW2  588   3.768   1.035   4.764 -0.8001  0.6626  0.8096
  178SOL     OW  589   1.198   1.683   1.471 -0.1894 -0.0289 -0.1245
  178SOL    HW1  590   1.170   1.734   1.547 -2.1509  3.1118 -2.6503
  178SOL    HW2  591   1.284   1.719   1.448  0.1503 -0.5800  0.2791
  179SOL     OW  592   3.193   1.968   1.126 -0.5495 -0.2178 -0.0530
  179SOL    HW1  593   3.203   1.965   1.031 -0.5134  0.1910 -0.0672
  179SOL    HW2  594   3.267   1.919   1.160 -0.9863 -1.0221 -0.2491
  180SOL     OW  595   1.088   2.916   2.374 -0.1980  0.2003  0.0598
  180SOL    HW1  596   1.041   2.909   2.291 -0.9649  0.0487  0.4973
  180SOL    HW2  597   1.081   2.829   2.413 -0.9336  0.6002  0.8544
  181SOL     OW  598   2.488   1.160   2.841 -0.0522  0.3196  0.5789
  181SOL    HW1  599   2.505   1.212   2.919 -1.8189  1.4342  0.2818
  181SOL    HW2  600   2.411   1.108   2.863 -0.8862  1.0232 -0.5431
  182SOL     OW  601   3.661   1.628   3.781  0.2521 -0.5853  0.1202
  182SOL    HW1  602   3.679   1.691   3.711  2.1844  0.2633  1.2783
  182SOL    HW2  603   3.629   1.550   3.735 -1.8923  1.0701 -1.3871
  183SOL     OW  604   1.111   1.137   0.868 -0.4409  0.2588 -0.6688
  183SOL    HW1  605   1.119   1.042   0.875  1.5962  0.3649 -0.8976
  183SOL    HW2  606   1.053   1.162   0.939  1.6215 -0.8667  1.5351
  184SOL     OW  607   3.664   1.750   4.649  0.2505 -0.3785 -0.1122
  184SOL    HW1  608   3.735   1.696   4.614  1.7167 -0.2848  2.4295
  184SOL    HW2  609   3.629   1.796   4.573  3.5885  0.3275 -1.4006
  185SOL     OW  610   1.048   3.706   1.271 -0.2294  0.1321  0.1370
  185SOL    HW1  611   1.027   3.626   1.319 -0.1827  0.6383  1.0007
  185SOL    HW2  612   0.996   3.698   1.190 -1.3319 -0.1088  0.8408
  186SOL     OW  613   4.965   4.464   3.742  0.9247 -0.5736 -0.1632
  186SOL    HW1  614   4.945   4.473   3.835 -0.7861 -0.4149 -0.5176
  186SOL    HW2  615   5.021   4.539   3.722 -1.9516  1.7842 -0.0746
  187SOL     OW  616   2.717   0.271   2.799  0.0494 -0.2346 -0.6602
  187SOL    HW1  617   2.785   0.208   2.823 -0.3888 -0.2005  0.7880
  187SOL    HW2  618   2.745   0.307   2.715  2.0387  0.1173  0.1201
  188SOL     OW  619   2.289   3.387   0.227  0.3210  0.0184  0.5918
  188SOL    HW1  620   2.283   3.322   0.297  0.8140  0.4692  1.0751
  188SOL    HW2  621   2.234   3.459   0.258 -0.0838 -0.1039  0.1452
  189SOL     OW  622   4.086   2.663   0.327 -0.4004 -0.0992 -0.2361
  189SOL    HW1  623   4.081   2.757   0.308  1.7211 -0.2260 -1.8443
  189SOL    HW2  624   4.066   2.656   0.420  0.3777  2.0585  0.1525
  190SOL     OW  625   0.207   0.658   0.559 -0.1777  0.6471 -0.0880
  190SOL    HW1  626   0.124   0.674   0.515 -0.7336  0.8096  1.0042
  190SOL    HW2  627   0.248   0.587   0.509 -1.5645 -0.3518  0.1501
  191SOL     OW  628   4.491   2.142   3.621 -0.2539  0.4307  0.0680
  191SOL    HW1  629   4.452   2.059   3.593 -1.3830  0.8652  0.2852
  191SOL    HW2  630   4.497   2.195   3.542  1.2082 -0.1150 -0.2211
  192SOL     OW  631   2.230   2.461   2.425  0.3164 -0.1909 -0.5447
  192SOL    HW1  632   2.175   2.394   2.383 -1.1062  0.4006  0.3259
  192SOL    HW2  633   2.178   2.541   2.420  1.2415  0.4612  0.0334
  193SOL     OW  634   4.177   1.834   3.557  0.0234  0.5863 -0.2872
  193SOL    HW1  635   4.254   1.787   3.589  0.4321  0.2180 -1.7010
  193SOL    HW2  636   4.192   1.925   3.581  1.7019  0.7910 -1.8850
  194SOL     OW  637   4.446   4.509   2.208  0.1952 -0.3133 -0.0403
  194SOL    HW1  638   4.535   4.527   2.239 -0.9195  3.7176  1.4877
  194SOL    HW2  639   4.446   4.416   2.185  4.2782 -0.8769  1.5330
  195SOL     OW  640   3.930   2.018   1.731  0.3615 -0.1707  0.1234
  195SOL    HW1  641   4.017   2.006   1.691 -0.1475  1.0593 -1.4703
  195SOL    HW2  642   3.902   2.104   1.701 -1.2535 -0.3631  0.9745
  196SOL     OW  643   4.874   0.516   2.112  0.2897 -0.4678  0.2262
  196SOL    HW1  644   4.949   0.477   2.067  0.6526  0.0589  0.3591
  196SOL    HW2  645   4.816   0.545   2.042  0.8459  0.3372  0.0948
  197SOL     OW  646   2.974   1.320   2.400  0.1479  0.3481  0.1734
  197SOL    HW1  647   2.880   1.334   2.389 -0.0188  0.2891  1.4561
  197SOL    HW2  648   3.014   1.399   2.363 -0.3428  0.0476 -1.0745
  198SOL     OW  649   1.555   3.454   0.366 -0.1898  0.9224  0.3974
  198SOL    HW1  650   1.578   3.384   0.304  3.9753  1.9012  0.5020
  198SOL    HW2  651   1.515   3.522   0.312  2.1644  1.2200 -1.1520
  199SOL     OW  652   2.883   0.025   3.023  0.6739 -0.4597  0.0690
  199SOL    HW1  653   2.936   0.052   2.948  1.4274  0.7387  0.9989
  199SOL    HW2  654   2.945  -0.015   3.084  0.6282  1.1330  1.2503
  200SOL     OW  655   3.902   0.899   2.660  0.5251 -0.1597  0.2740
  200SOL    HW1  656   3.945   0.983   2.643 -0.8313  0.3457 -0.8896
  200SOL    HW2  657   3.906   0.854   2.576 -0.6149 -0.3614  0.3154
  201SOL     OW  658   0.858   0.657   4.173 -0.0871  0.5032  0.1884
  201SOL    HW1  659   0.765   0.650   4.151 -0.2359 -1.3327  1.1898
  201SOL    HW2  660   0.903   0.644   4.090 -0.6761  3.3528 -0.6846
  202SOL     OW  661   4.610   2.517   0.547 -0.4729 -0.0618  0.3549
  202SOL    HW1  662   4.692   2.508   0.595 -1.0115 -0.9822  1.1320
  202SOL    HW2  663   4.636   2.511   0.455  0.4438  0.6871  0.5472
  203SOL     OW  664   2.364   2.144   2.824  0.1235 -0.5443  0.2910
  203SOL    HW1  665   2.316   2.178   2.900 -1.1577  1.5608 -1.3473
  203SOL    HW2  666   2.398   2.059   2.853 -1.6034 -0.5089  2.6999
  204SOL     OW  667   1.030   3.221   1.704 -0.1495  0.0546 -0.1513
  204SOL    HW1  668   0.973   3.192   1.634  0.5112  0.7628 -1.0042
  204SOL    HW2  669   1.119   3.209   1.669  0.2812 -1.5608  1.3456
  205SOL     OW  670   0.210   3.495   0.175 -0.1802 -0.1497 -0.0105
  205SOL    HW1  671   0.267   3.542   0.236 -0.1212 -0.8652  0.4922
  205SOL    HW2  672   0.132   3.550   0.167  0.3433  0.5654 -0.2795
  206SOL     OW  673   1.153   4.290   2.361  0.2863  0.5554 -0.1022
  206SOL    HW1  674   1.157   4.367   2.304  2.0345 -0.1664 -1.0420
  206SOL    HW2  675   1.221   4.231   2.327 -0.9632 -1.4136  0.5844
  207SOL     OW  676   1.270   0.724   0.530 -0.1895 -0.8963 -0.5308
  207SOL    HW1  677   1.273   0.720   0.625 -0.1544 -3.7117 -0.5589
  207SOL    HW2  678   1.194   0.672   0.506 -0.2232 -0.2030 -2.0507
  208SOL     OW  679   4.868   2.235   0.366 -0.0202 -0.3800  0.0474
  208SOL    HW1  680   4.876   2.222   0.272  0.4260  0.0289  0.0266
  208SOL    HW2  681   4.869   2.147   0.403  1.3749 -0.4812 -0.2080
  209SOL     OW  682   3.135   3.638   1.725 -0.1983  0.3687  0.0520
  209SOL    HW1  683   3.180   3.663   1.806 -0.5600 -1.1663  0.7563
  209SOL    HW2  684   3.056   3.592   1.755 -0.9487  0.7997 -1.1770
  210SOL     OW  685   1.539   3.471   2.270 -0.0975  0.8328 -0.2464
  210SOL    HW1  686   1.509   3.381   2.284  1.9874  0.1893  0.4018
  210SOL    HW2  687   1.458   3.521   2.258 -1.4851 -0.6792  1.9673
  211SOL     OW  688   1.592   2.704   0.244 -0.1928  0.1662  0.4409
  211SOL    HW1  689   1.568   2.643   0.313 -0.9465 -0.4578 -0.3532
  211SOL    HW2  690   1.598   2.789   0.288  2.1997 -0.6117  1.8403
  212SOL     OW  691   3.931   4.464   0.078 -0.1756  0.1794 -0.1919
  212SOL    HW1  692   3.993   4.496   0.012  0.6314 -1.5194 -0.3142
  212SOL    HW2  693   3.964   4.499   0.161  1.2132 -0.9453 -0.2103
  213SOL     OW  694   3.790   4.517   2.829  0.0036 -0.4606  0.3314
  213SOL    HW1  695   3.764   4.525   2.921 -0.9900 -0.6474  0.0761
  213SOL    HW2  696   3.857   4.585   2.817 -1.4535  1.0932  0.6271
  214SOL     OW  697   1.582   2.273   3.456 -0.2274 -0.4842 -0.4886
  214SOL    HW1  698   1.580   2.295   3.363  0.2592 -2.2049 -0.9461
  214SOL    HW2  699   1.507   2.319   3.494  0.0747  0.9398 -1.5489
  215SOL     OW  700   4.191   0.862   0.832  0.3982  0.3393 -0.1139
  215SOL    HW1  701   4.101   0.831   0.823  0.4200  0.6940 -1.9359
  215SOL    HW2  702   4.214   0.844   0.923 -0.7291 -1.8672 -0.2020
  216SOL     OW  703   2.325   3.462   4.546 -0.1612  0.0018  0.4753
  216SOL    HW1  704   2.318   3.387   4.605 -1.5777  1.0174  1.7029
  216SOL    HW2  705   2.416   3.490   4.553  0.4504 -1.7011 -0.1818
  217SOL     OW  706   2.593   0.455   1.752  0.0805 -0.9960  0.3689
  217SOL    HW1  707   2.685   0.443   1.776  0.2189 -1.0380 -0.1599
  217SOL    HW2  708   2.558   0.513   1.818  1.3440  1.7850 -1.2350
  218SOL     OW  709   3.789   4.584   4.510 -0.3412 -0.2447 -0.9707
  218SOL    HW1  710   3.760   4.649   4.574  0.9912 -1.0414  0.5130
  218SOL    HW2  711   3.821   4.636   4.436  0.2344  0.7759 -0.0287
  219SOL     OW  712   1.360   3.079   2.858 -0.2494  0.0721  0.1020
  219SOL    HW1  713   1.414   3.001   2.854 -1.1527 -0.5400 -0.9565
  219SOL    HW2  714   1.420   3.151   2.839  0.4336 -0.4565  0.2278
  220SOL     OW  715   3.137   2.043   3.434 -0.4724 -0.2953 -0.1987
  220SOL    HW1  716   3.222   2.083   3.414 -1.0252  1.0505  0.0119
  220SOL    HW2  717   3.080   2.118   3.453 -2.3735 -0.9827 -2.7811
  221SOL     OW  718   1.086   1.855   0.137 -0.5220  0.1221  0.0576
  221SOL    HW1  719   1.007   1.866   0.084 -1.7423  0.3221  1.8355
  221SOL    HW2  720   1.133   1.784   0.094 -0.9969  0.8354 -1.7771
  222SOL     OW  721   2.905   2.623   1.148  0.6659  0.3984  0.0248
  222SOL    HW1  722   2.899   2.687   1.219  0.8674 -1.4299  1.7938
  222SOL    HW2  723   2.971   2.560   1.178 -0.3363 -1.2641 -1.0936
  223SOL     OW  724   1.541   3.891   2.514 -0.1165 -0.1214  0.2155
  223SOL    HW1  725   1.627   3.850   2.512 -0.2697 -0.4437 -1.9175
  223SOL    HW2  726   1.554   3.977   2.473 -0.4353  0.7035  1.7502
  224SOL     OW  727   3.311   1.975   0.020  0.3215 -0.2640  0.7966
  224SOL    HW1  728   3.353   2.060   0.007  1.5207 -0.8307  0.8696
  224SOL    HW2  729   3.242   1.992   0.084  0.0645  0.7983  0.2572
  225SOL     OW  730   3.676   2.627   0.218 -0.5497 -0.0003  0.1290
  225SOL    HW1  731   3.658   2.719   0.235 -1.0330 -0.3774  1.8805
  225SOL    HW2  732   3.608   2.580   0.267 -0.6005 -1.2855 -1.1117
  226SOL     OW  733   1.910   3.092   3.701 -0.3233 -0.0171 -0.2496
  226SOL    HW1  734   1.852   3.043   3.761 -0.0814  0.2013  0.1670
  226SOL    HW2  735   1.850   3.134   3.640 -0.5416 -0.7669 -0.5648
  227SOL     OW  736   0.395   3.461   3.360 -0.5354  0.1236 -0.3439
  227SOL    HW1  737   0.383   3.485   3.452  1.9588 -0.0168  0.0789
  227SOL    HW2  738   0.349   3.378   3.351 -2.1089  0.8676  0.3351
  228SOL     OW  739   1.207   0.707   2.262  0.0726  0.3715 -0.4723
  228SOL    HW1  740   1.234   0.749   2.180  1.2410 -1.5098 -1.1105
  228SOL    HW2  741   1.235   0.767   2.331 -0.2976  1.6533 -1.4019
  229SOL     OW  742   2.764   2.674   2.510  0.1270 -0.1918 -0.2542
  229SOL    HW1  743   2.713   2.597   2.485 -0.9846  0.5132 -0.2670
  229SOL    HW2  744   2.717   2.747   2.470  1.0742  0.5092 -0.1187
  230SOL     OW  745   0.857   3.515   4.020 -0.2746 -0.0942  0.2585
  230SOL    HW1  746   0.777   3.559   4.048 -0.4913  0.2564 -0.8806
  230SOL    HW2  747   0.908   3.506   4.101 -0.7979  1.0483  0.7489
  231SOL     OW  748   2.877   0.628   3.034 -0.1093 -0.1013 -0.4827
  231SOL    HW1  749   2.858   0.720   3.050 -3.1892 -0.7896  0.5256
  231SOL    HW2  750   2.827   0.607   2.954 -0.8205 -1.2244  0.2287
  232SOL     OW  751   4.054   3.483   3.218  0.0466  0.5761 -0.5569
  232SOL    HW1  752   4.085   3.440   3.299 -2.4060  1.7358  1.0951
  232SOL    HW2  753   4.043   3.411   3.156  0.1701 -0.6105  0.7460
  233SOL     OW  754   4.203   4.639   2.534  0.2827  0.0999 -0.3701
  233SOL    HW1  755   4.224   4.546   2.530 -0.8911 -0.2204  0.4003
  233SOL    HW2  756   4.233   4.674   2.450 -2.3422 -1.6356 -2.1610
  234SOL     OW  757   2.373   1.736   3.590 -0.0052 -0.0582  0.0556
  234SOL    HW1  758   2.297   1.677   3.600  0.7290 -1.2792 -1.2621
  234SOL    HW2  759   2.409   1.715   3.504  1.5458  0.8598  0.4402
  235SOL     OW  760   1.523   2.109   0.105  0.5498  0.1848  0.1728
  235SOL    HW1  761   1.581   2.174   0.066  1.0862  0.2905  1.1122
  235SOL    HW2  762   1.549   2.026   0.063  1.8318  0.1281  1.0171
  236SOL     OW  763   2.424   2.836   4.686  0.4477 -0.0829  0.4582
  236SOL    HW1  764   2.516   2.863   4.682  0.2489  0.7482  1.2249
  236SOL    HW2  765   2.426   2.751   4.730  0.8586 -0.1419  0.3326
  237SOL     OW  766   3.282   3.930   4.326 -0.0904 -0.3319 -0.3674
  237SOL    HW1  767   3.369   3.892   4.316 -0.2830 -2.0689  2.9526
  237SOL    HW2  768   3.234   3.902   4.248  1.7951 -0.8390 -1.4052
  238SOL     OW  769   0.842   4.126   2.198 -0.4025  0.3585  0.3174
  238SOL    HW1  770   0.890   4.155   2.121 -0.4668 -1.1607 -0.3344
  238SOL    HW2  771   0.853   4.197   2.261  0.2864  1.3000 -0.8186
  239SOL     OW  772   1.616   0.342   4.417 -0.0429 -0.1171  0.9122
  239SOL    HW1  773   1.547   0.404   4.440 -0.2413  0.1506 -0.3160
  239SOL    HW2  774   1.693   0.373   4.465 -0.0669  1.2873  0.1054
  240SOL     OW  775   3.737   0.199   3.469 -0.4149 -0.0004  0.0110
  240SOL    HW1  776   3.752   0.166   3.558 -1.3661  0.7371  0.4627
  240SOL    HW2  777   3.642   0.195   3.458 -0.2102 -1.2473 -1.4468
  241SOL     OW  778   0.694   3.301   1.161 -0.1174 -0.1844 -0.7684
  241SOL    HW1  779   0.665   3.226   1.109 -0.5327 -0.5123 -0.0714
  241SOL    HW2  780   0.618   3.359   1.166 -0.2156 -0.3533 -0.1838
  242SOL     OW  781   1.266   2.111   1.453 -0.3842 -0.0603  0.0292
  242SOL    HW1  782   1.236   2.155   1.533 -1.4536 -0.1585 -0.2995
  242SOL    HW2  783   1.186   2.074   1.415 -0.2447  1.6199 -2.0861
  243SOL     OW  784   0.339   0.917   2.544  0.4084 -0.2593 -0.0236
  243SOL    HW1  785   0.331   0.846   2.481  0.8110  0.9352 -1.4877
  243SOL    HW2  786   0.249   0.946   2.560  0.2751 -0.8246  0.2796
  244SOL     OW  787   2.804   1.135   3.601  0.1889 -0.3323  0.0943
  244SOL    HW1  788   2.848   1.051   3.588  1.1477  0.1165  0.3049
  244SOL    HW2  789   2.871   1.190   3.641 -0.7894  0.1650  1.1134
  245SOL     OW  790   1.529   2.163   1.328 -0.3250  0.2975  0.2964
  245SOL    HW1  791   1.439   2.140   1.353 -0.4916  0.6546  0.0395
  245SOL    HW2  792   1.584   2.115   1.389 -0.6971  0.2633  0.6074
  246SOL     OW  793   0.434   2.242   4.933 -0.7639  0.7603 -0.2107
  246SOL    HW1  794   0.528   2.261   4.930 -0.6517  0.2033 -0.4005
  246SOL    HW2  795   0.430   2.147   4.948 -1.2952  0.7617 -0.3422
  247SOL     OW  796   2.277   0.232   4.592  0.0596  0.3056  0.4415
  247SOL    HW1  797   2.343   0.207   4.657  1.0286  0.3680 -0.4877
  247SOL    HW2  798   2.324   0.286   4.529 -0.5567 -0.7205 -0.9645
  248SOL     OW  799   4.801   3.651   2.623 -0.1683  0.0801  0.2554
  248SOL    HW1  800   4.827   3.571   2.577  0.2817  0.6676 -0.5646
  248SOL    HW2  801   4.865   3.716   2.593 -2.2358  1.4566 -1.3952
  249SOL     OW  802   3.083   2.025   0.153 -0.4229 -0.2373  0.3281
  249SOL    HW1  803   3.011   1.998   0.096 -0.9304  2.5241 -0.4729
  249SOL    HW2  804   3.040   2.063   0.230  0.1138  1.4810 -0.1785
  250SOL     OW  805   4.675   4.230   1.364  0.6297  0.6674 -0.4780
  250SOL    HW1  806   4.608   4.297   1.356 -2.3838 -1.6909  2.5029
  250SOL    HW2  807   4.641   4.155   1.314  0.6026 -0.8095  1.6314
  251SOL     OW  808   0.780   4.597   2.911  0.3109  0.1983  0.3688
  251SOL    HW1  809   0.768   4.649   2.991  0.8961  0.7471  0.1099
  251SOL    HW2  810   0.719   4.634   2.848  0.2651  0.1493  0.3844
  252SOL     OW  811   0.965   0.776   2.408  0.4385  0.0587  0.0541
  252SOL    HW1  812   1.054   0.777   2.371  0.6590 -0.6158  0.5504
  252SOL    HW2  813   0.942   0.683   2.412 -0.1862  0.2186  0.1873
  253SOL     OW  814   1.764   0.790   1.673 -0.2662 -0.3316  0.1532
  253SOL    HW1  815   1.843   0.843   1.663 -0.5389  0.2346  0.8342
  253SOL    HW2  816   1.774   0.718   1.611  0.3602  0.2345 -0.4155
  254SOL     OW  817   2.978   3.435   3.186 -0.4736  0.0297 -0.1007
  254SOL    HW1  818   3.021   3.467   3.266  0.7474  0.3514 -0.8542
  254SOL    HW2  819   3.019   3.350   3.170 -2.3042 -1.0900  0.8031
  255SOL     OW  820   4.547   4.956   1.518  0.5922 -0.4972  0.0411
  255SOL    HW1  821   4.455   4.980   1.530  0.3515 -2.0487  1.8220
  255SOL    HW2  822   4.545   4.895   1.444  0.1867 -0.5179  0.0625
  256SOL     OW  823   0.295   4.348   2.060  0.1189  0.3044 -0.2687
  256SOL    HW1  824   0.264   4.263   2.027 -2.9306  0.4790  1.7457
  256SOL    HW2  825   0.264   4.412   1.997  2.1277  0.0449 -1.6108
  257SOL     OW  826   1.697   0.901   3.180 -0.0154 -0.0178  0.3755
  257SOL    HW1  827   1.750   0.977   3.206 -1.3245  0.3873  2.0527
  257SOL    HW2  828   1.651   0.876   3.259 -1.7343 -0.8395 -0.8211
  258SOL     OW  829   2.543   0.202   4.751 -0.4303  0.0637  0.5169
  258SOL    HW1  830   2.616   0.153   4.714  0.7868  1.2564  1.2510
  258SOL    HW2  831   2.544   0.180   4.844 -1.7687 -0.8199  0.3448
  259SOL     OW  832   2.074   3.546   1.025 -0.1549  0.2400 -0.5271
  259SOL    HW1  833   2.028   3.550   1.109  0.4525 -1.6416 -0.0443
  259SOL    HW2  834   2.090   3.452   1.011  2.2911  0.6908 -1.3204
  260SOL     OW  835   0.556   4.468   2.445 -0.2727  0.7875  0.1057
  260SOL    HW1  836   0.641   4.454   2.486 -0.1798  2.0269  0.3843
  260SOL    HW2  837   0.514   4.383   2.447  0.4029  0.4632  1.2514
  261SOL     OW  838   1.394   4.171   3.951  0.0826  0.0487 -0.1303
  261SOL    HW1  839   1.317   4.215   3.915 -1.2212 -0.1750  2.1740
  261SOL    HW2  840   1.425   4.229   4.020  0.0933 -1.2423  0.9940
  262SOL     OW  841   0.051   3.719   0.196 -0.1149 -0.3490  0.0233
  262SOL    HW1  842   0.100   3.799   0.215  0.8479 -1.4155  2.3888
  262SOL    HW2  843  -0.039   3.740   0.218  0.3545 -0.2917  2.0297
  263SOL     OW  844   0.052   1.472   3.820  0.5329 -0.6522 -0.1149
  263SOL    HW1  845   0.105   1.439   3.747  1.9669  2.4095 -0.6408
  263SOL    HW2  846   0.115   1.518   3.876 -1.2965  1.9974 -0.0365
  264SOL     OW  847   4.512   2.529   1.399 -0.1314  0.3392  0.2746
  264SOL    HW1  848   4.437   2.585   1.417 -2.0530 -2.0371  0.2371
  264SOL    HW2  849   4.588   2.584   1.417 -1.8500  2.8051  0.5154
  265SOL     OW  850   3.898   4.466   3.442  0.2839  0.2878  0.0088
  265SOL    HW1  851   3.980   4.420   3.425  0.8580  0.4572  1.9967
  265SOL    HW2  852   3.833   4.423   3.386  1.1214 -1.9041  0.6370
  266SOL     OW  853   0.104   1.739   1.921  0.3105  0.1985 -0.5383
  266SOL    HW1  854   0.130   1.788   1.844 -1.0573  0.9352 -0.5600
  266SOL    HW2  855   0.134   1.791   1.995  2.4424 -0.9532 -0.5143
  267SOL     OW  856   2.960   1.995   1.260 -0.0857 -0.3098 -0.4165
  267SOL    HW1  857   3.046   1.976   1.222  0.2381 -0.8342  0.5272
  267SOL    HW2  858   2.901   2.001   1.185  0.7766  0.0795 -1.0807
  268SOL     OW  859   1.434   4.606   2.200  0.3142  0.3446 -0.3083
  268SOL    HW1  860   1.431   4.662   2.278 -0.7208  0.4097 -0.3787
  268SOL    HW2  861   1.381   4.530   2.224  0.3925  0.1432 -0.7759
  269SOL     OW  862   3.144   2.393   0.678 -0.3828  0.3557  0.1619
  269SOL    HW1  863   3.065   2.339   0.668 -0.0681  0.2626 -2.1768
  269SOL    HW2  864   3.138   2.426   0.768 -3.0384  0.2813  0.1033
  270SOL     OW  865   1.246   3.884   2.452 -0.1085 -0.1732 -0.3565
  270SOL    HW1  866   1.333   3.861   2.486  0.6044 -0.7945 -2.4850
  270SOL    HW2  867   1.259   3.965   2.404 -0.8529  0.0559 -0.1804
  271SOL     OW  868   0.241   0.404   0.486  0.4430 -0.8497  0.4840
  271SOL    HW1  869   0.281   0.384   0.570  1.5878  2.3114  0.8396
  271SOL    HW2  870   0.305   0.376   0.421  1.5448  0.5466  0.9068
  272SOL     OW  871   2.333   2.951   0.735 -0.2569 -0.3550 -0.1783
  272SOL    HW1  872   2.379   2.867   0.735 -0.9919 -0.7579  0.0792
  272SOL    HW2  873   2.294   2.957   0.649  2.1583  1.0554 -1.2906
  273SOL     OW  874   3.646   0.811   0.652  0.6675 -0.3490 -0.0193
  273SOL    HW1  875   3.682   0.894   0.684  0.8746 -0.7769  0.8926
  273SOL    HW2  876   3.554   0.814   0.678  0.5687 -0.2248 -0.3729
  274SOL     OW  877   2.569   2.488   1.556 -0.1053 -0.4798  0.3114
  274SOL    HW1  878   2.506   2.440   1.502 -0.5275 -0.3845  0.7083
  274SOL    HW2  879   2.577   2.574   1.514 -0.7793 -0.2441  0.6398
  275SOL     OW  880   0.746   2.149   3.425 -0.1659 -0.0218 -0.0378
  275SOL    HW1  881   0.757   2.182   3.515  1.0996  1.6563 -0.7464
  275SOL    HW2  882   0.824   2.096   3.409 -0.8494 -1.1007  0.1524
  276SOL     OW  883   2.508   0.163   1.678 -0.3426 -0.0546 -0.1090
  276SOL    HW1  884   2.497   0.219   1.755 -1.2324 -1.2135  0.6471
  276SOL    HW2  885   2.590   0.192   1.639  0.2950  0.3525  1.4504
  277SOL     OW  886   2.998   1.034   2.932 -0.0385  0.0292  0.2474
  277SOL    HW1  887   3.031   1.078   3.011 -0.7363  0.9451  0.0615
  277SOL    HW2  888   3.053   0.957   2.921  1.4076  1.0042  0.4535
  278SOL     OW  889   4.848   3.870   2.921  0.0033 -0.2452  0.8660
  278SOL    HW1  890   4.793   3.792   2.914 -2.5333  1.5013 -0.1464
  278SOL    HW2  891   4.792   3.935   2.963  0.7892  2.0422 -1.4088
  279SOL     OW  892   2.275   3.379   3.249 -0.4159  0.0747 -0.1123
  279SOL    HW1  893   2.296   3.293   3.212 -3.3732 -0.3345 -1.0862
  279SOL    HW2  894   2.213   3.417   3.187 -0.8833  1.9790  1.4397
  280SOL     OW  895   3.969   3.114   2.796  0.0130  0.4738 -0.2943
  280SOL    HW1  896   3.969   3.105   2.700 -1.0146 -2.9897 -0.1045
  280SOL    HW2  897   4.048   3.069   2.824  0.9193  2.4510  0.5377
  281SOL     OW  898   2.696   4.674   1.097  0.0390  0.1395  0.1361
  281SOL    HW1  899   2.714   4.618   1.173  0.9698  1.6598  1.0913
  281SOL    HW2  900   2.777   4.721   1.082 -0.3416  0.3479 -1.4346
  282SOL     OW  901   4.732   1.587   1.277  0.0765  0.4231 -0.0627
  282SOL    HW1  902   4.774   1.528   1.214  0.3507  0.5553 -0.0063
  282SOL    HW2  903   4.731   1.537   1.359  0.0215  0.3771 -0.0915
  283SOL     OW  904   2.958   4.893   1.630 -0.4150 -0.5557 -0.0770
  283SOL    HW1  905   2.953   4.869   1.537  2.7101  0.7162 -0.7368
  283SOL    HW2  906   2.889   4.958   1.642  0.5338  0.9680 -2.2137
  284SOL     OW  907   3.834   4.690   2.067  0.8123 -0.2836 -0.7037
  284SOL    HW1  908   3.789   4.767   2.103  0.7596 -0.6506  0.0459
  284SOL    HW2  909   3.923   4.696   2.102  0.1682 -1.8062  1.3643
  285SOL     OW  910   3.029   0.356   0.849  0.3391 -0.0434 -0.1809
  285SOL    HW1  911   3.020   0.380   0.941  0.2395 -1.1422  0.1031
  285SOL    HW2  912   3.076   0.430   0.810  1.5526 -0.1392  1.0168
  286SOL     OW  913   0.931   0.540   0.780  0.9456  0.1993 -0.2275
  286SOL    HW1  914   0.939   0.517   0.873  0.8372 -1.0908 -0.5271
  286SOL    HW2  915   0.837   0.539   0.763  0.8085  2.4393  0.1102
  287SOL     OW  916   0.929   1.953   2.391  0.6374  0.1706  0.1779
  287SOL    HW1  917   0.903   1.915   2.306  2.0857 -0.1815 -0.1238
  287SOL    HW2  918   0.998   1.896   2.423  0.6708  0.7773  1.2278
  288SOL     OW  919   4.807   0.143   1.832 -0.3150 -0.1692  0.2083
  288SOL    HW1  920   4.901   0.152   1.845 -0.3830 -0.1793  0.7391
  288SOL    HW2  921   4.787   0.202   1.760  0.5789 -2.4278 -2.0246
  289SOL     OW  922   0.739   2.270   3.686 -0.2031  0.5647  0.1318
  289SOL    HW1  923   0.675   2.242   3.752 -1.8144 -0.9738 -1.8936
  289SOL    HW2  924   0.688   2.324   3.625  0.7618  0.4235 -0.8325
  290SOL     OW  925   4.444   0.537   4.302 -0.2481 -0.4370 -0.4078
  290SOL    HW1  926   4.372   0.498   4.352 -0.8149 -1.0230 -1.6591
  290SOL    HW2  927   4.492   0.463   4.266 -0.0783 -0.0193 -1.0525
  291SOL     OW  928   2.204   1.922   4.596 -0.2561 -0.2462  0.3025
  291SOL    HW1  929   2.170   1.833   4.606  0.3148 -0.4196  0.7179
  291SOL    HW2  930   2.174   1.949   4.509 -0.2984 -0.9073  0.1052
  292SOL     OW  931   2.650   3.238   2.786  0.3049 -0.0434  0.4705
  292SOL    HW1  932   2.695   3.250   2.870  0.7866 -0.1054  0.2227
  292SOL    HW2  933   2.718   3.250   2.720 -0.3023  1.1716  0.0346
  293SOL     OW  934   0.960   1.797   3.805 -0.0389 -0.3623  0.0479
  293SOL    HW1  935   0.944   1.781   3.898  1.6460  0.3194  0.4779
  293SOL    HW2  936   0.946   1.712   3.763 -0.8330 -0.6712  0.9057
  294SOL     OW  937   0.865   0.349   0.492 -0.2682 -0.4364 -0.2472
  294SOL    HW1  938   0.819   0.433   0.490  0.4713 -0.0164  0.1194
  294SOL    HW2  939   0.802   0.287   0.457 -1.9558 -0.2861  2.2415
  295SOL     OW  940   0.884   2.651   2.182 -0.3372  0.5554 -0.1224
  295SOL    HW1  941   0.886   2.667   2.277  0.7228  1.0015 -0.1996
  295SOL    HW2  942   0.924   2.564   2.173  1.7852  1.4647 -0.2867
  296SOL     OW  943   3.722   2.324   1.927 -0.7106 -0.7004  0.0752
  296SOL    HW1  944   3.637   2.331   1.885 -0.8336  0.4844  0.4935
  296SOL    HW2  945   3.707   2.270   2.005 -1.3146  0.3456  0.7073
  297SOL     OW  946   4.840   4.238   4.485  0.0034  0.3308  0.3308
  297SOL    HW1  947   4.798   4.322   4.502  2.0965  1.2389  1.3029
  297SOL    HW2  948   4.866   4.206   4.571 -0.8678 -1.4100 -0.0114
  298SOL     OW  949   2.865   0.234   1.352  0.1756 -0.1433 -0.2606
  298SOL    HW1  950   2.872   0.327   1.330  0.4308 -0.6233 -2.4069
  298SOL    HW2  951   2.955   0.204   1.363  0.1476 -0.3772 -0.6617
  299SOL     OW  952   3.612   0.302   4.132 -0.1108  0.3855  0.4504
  299SOL    HW1  953   3.565   0.343   4.204  0.7597  1.8213  0.2458
  299SOL    HW2  954   3.648   0.222   4.170 -1.8875 -0.2668  0.8473
  300SOL     OW  955   0.054   1.408   1.398 -0.3495  0.4353  0.3581
  300SOL    HW1  956   0.050   1.444   1.310 -0.4028  0.6821  0.4578
  300SOL    HW2  957   0.073   1.484   1.454  1.4184  0.0125  0.3771
  301SOL     OW  958   2.736   3.315   3.029  0.2814 -0.1779 -0.3870
  301SOL    HW1  959   2.824   3.338   3.058  0.6044 -0.6229 -0.9797
  301SOL    HW2  960   2.703   3.394   2.986  0.7633 -0.3001 -1.0018
  302SOL     OW  961   2.431   3.199   1.161 -0.6758 -0.1112 -0.4609
  302SOL    HW1  962   2.505   3.193   1.222  0.2472 -0.5844 -1.5872
  302SOL    HW2  963   2.436   3.288   1.126 -3.3809  1.4806  2.7368
  303SOL     OW  964   4.661   2.348   1.084  0.6409  0.2531 -0.0049
  303SOL    HW1  965   4.603   2.289   1.132  1.3386  0.0822  0.6527
  303SOL    HW2  966   4.646   2.434   1.124  1.5321  0.0356  0.8425
  304SOL     OW  967   4.949   4.588   4.030 -0.1524 -0.4474  0.1000
  304SOL    HW1  968   5.016   4.655   4.043  0.3504 -0.5505 -1.7147
  304SOL    HW2  969   4.934   4.552   4.118 -0.7705  2.2805  1.2425
  305SOL     OW  970   0.007   4.781   1.300 -0.2473  0.4029 -0.1916
  305SOL    HW1  971   0.050   4.700   1.273 -1.3223 -1.9556  4.2009
  305SOL    HW2  972   0.072   4.827   1.352 -0.0198  1.9173 -1.7286
  306SOL     OW  973   2.916   1.132   1.138 -0.5956  0.0097 -0.2721
  306SOL    HW1  974   2.897   1.165   1.226  0.0951 -0.2439 -0.0242
  306SOL    HW2  975   2.936   1.211   1.087  1.9441 -0.0185  0.5369
  307SOL     OW  976   1.628   0.618   0.646  0.0368 -0.3156 -0.6410
  307SOL    HW1  977   1.591   0.611   0.733  1.0265 -1.1222 -0.2601
  307SOL    HW2  978   1.626   0.528   0.612 -0.0100 -0.0699 -1.3113
  308SOL     OW  979   2.560   1.759   0.690 -0.5648 -0.3238  0.2136
  308SOL    HW1  980   2.585   1.813   0.615 -0.8311 -0.3661  0.0939
  308SOL    HW2  981   2.581   1.670   0.662 -0.9197 -0.3664  0.0846
  309SOL     OW  982   1.483   3.374   3.182  0.0877  0.2448  0.4071
  309SOL    HW1  983   1.415   3.427   3.225  0.5991  2.0044 -0.8468
  309SOL    HW2  984   1.537   3.438   3.135  2.5364 -1.1061  1.2130
  310SOL     OW  985   2.716   3.663   3.290 -0.2213 -0.3301  0.4039
  310SOL    HW1  986   2.621   3.668   3.298 -0.0829 -0.1207  2.1994
  310SOL    HW2  987   2.730   3.622   3.205 -1.9207 -0.9799  0.3915
  311SOL     OW  988   3.246   2.467   3.183 -0.4656  0.7005  0.7390
  311SOL    HW1  989   3.299   2.491   3.260 -0.0703 -0.3461  0.8087
  311SOL    HW2  990   3.156   2.475   3.214 -0.3640  2.1733  0.7217
  312SOL     OW  991   2.969   3.464   2.086  0.0834  0.4533  0.4082
  312SOL    HW1  992   3.035   3.396   2.073 -0.2669  0.5428 -2.3613
  312SOL    HW2  993   2.902   3.422   2.141 -0.3083 -1.6321 -1.5210
  313SOL     OW  994   3.037   1.557   2.890  0.1355 -0.2476 -0.0958
  313SOL    HW1  995   3.003   1.533   2.976  0.2879 -0.0848  0.0106
  313SOL    HW2  996   3.025   1.652   2.886 -0.4072 -0.3230 -0.4858
  314SOL     OW  997   3.056   3.987   0.211 -0.1314 -0.0858 -0.2225
  314SOL    HW1  998   2.973   3.941   0.223 -0.9604  0.8086 -2.2191
  314SOL    HW2  999   3.031   4.075   0.186  1.4442  0.3300 -0.4180
  315SOL     OW 1000   0.331   4.881   2.543 -0.0713 -0.0169 -0.3006
  315SOL    HW1 1001   0.335   4.817   2.472 -0.0020 -1.1839  0.7159
  315SOL    HW2 1002   0.253   4.933   2.524 -0.6783 -1.0191 -0.6636
  316SOL     OW 1003   4.203   2.425   0.916  0.6213  0.3424 -0.0604
  316SOL    HW1 1004   4.266   2.473   0.863  0.7233 -1.3165 -1.5345
  316SOL    HW2 1005   4.206   2.336   0.882 -2.1065  0.0713  0.1733
  317SOL     OW 1006   0.158   1.916   2.165  0.8971 -0.8408  0.3045
  317SOL    HW1 1007   0.236   1.910   2.220  0.6003  3.3212  1.4960
  317SOL    HW2 1008   0.094   1.860   2.207  1.8502 -0.6868  2.0342
  318SOL     OW 1009   4.580   2.645   1.022 -0.4095  0.1069 -0.3926
  318SOL    HW1 1010   4.603   2.682   0.937 -0.5128 -0.1420 -0.5315
  318SOL    HW2 1011   4.521   2.572   1.001 -2.2192  1.3984  0.0020
  319SOL     OW 1012   0.476   2.659   0.113 -0.1340  0.0830 -0.2460
  319SOL    HW1 1013   0.568   2.662   0.088  0.3478  0.0365  1.4160
  319SOL    HW2 1014   0.429   2.659   0.029  1.3166  1.1917 -1.1216
  320SOL     OW 1015   1.066   4.599   2.918  0.3048  0.2079  0.4428
  320SOL    HW1 1016   0.975   4.571   2.908  1.0463 -2.3446  0.1110
  320SOL    HW2 1017   1.071   4.632   3.008 -0.6829 -0.8272  0.9128
  321SOL     OW 1018   4.957   2.877   0.656 -0.2732  0.4190  0.2589
  321SOL    HW1 1019   4.987   2.786   0.650  1.2989  0.9252  0.0351
  321SOL    HW2 1020   4.934   2.900   0.566  0.6708  0.6497  0.0593
  322SOL     OW 1021   1.441   0.296   2.723  0.1664  0.8034 -0.0775
  322SOL    HW1 1022   1.498   0.222   2.701 -1.0158  0.1853 -1.1655
  322SOL    HW2 1023   1.480   0.371   2.677 -0.0179  0.3336 -1.0236
  323SOL     OW 1024   1.525   4.966   1.605 -0.1513 -0.0075  0.2535
  323SOL    HW1 1025   1.505   4.892   1.548 -0.5443 -0.9709  1.6023
  323SOL    HW2 1026   1.619   4.960   1.622  0.1203  0.7301 -0.8667
  324SOL     OW 1027   4.017   4.944   4.275 -0.2432 -0.3969 -0.4020
  324SOL    HW1 1028   3.942   4.956   4.333 -0.8075  2.1347 -1.5023
  324SOL    HW2 1029   3.979   4.906   4.195  0.2357 -2.1711  0.1700
  325SOL     OW 1030   4.171   0.850   4.949  0.0620 -0.2099 -0.3166
  325SOL    HW1 1031   4.170   0.884   4.859  0.2261  1.5971  0.3179
  325SOL    HW2 1032   4.079   0.850   4.976  0.0804 -0.1075 -0.2558
  326SOL     OW 1033   1.923   2.066   4.884  0.2029 -0.3554 -0.2393
  326SOL    HW1 1034   1.838   2.078   4.842  0.2670 -0.5880 -0.4366
  326SOL    HW2 1035   1.902   2.047   4.976  0.0964  1.3268  0.1260
  327SOL     OW 1036   1.635   3.667   3.728  0.1638 -0.5429  0.0138
  327SOL    HW1 1037   1.708   3.707   3.774  0.4046 -1.2952  0.3081
  327SOL    HW2 1038   1.655   3.678   3.635  1.2216 -1.7332  0.0815
  328SOL     OW 1039   0.853   4.296   4.796  0.1336  0.1865 -0.2654
  328SOL    HW1 1040   0.897   4.260   4.873 -2.1201 -0.6709  0.6881
  328SOL    HW2 1041   0.855   4.225   4.732  2.1365  0.9477 -1.1349
  329SOL     OW 1042   0.140   1.785   2.972 -0.0748  0.2934  0.4682
  329SOL    HW1 1043   0.084   1.798   2.895 -3.0487  0.4691  2.4800
  329SOL    HW2 1044   0.221   1.832   2.951 -1.0752  1.0007 -2.2197
  330SOL     OW 1045   4.546   0.064   4.026  0.4245  0.3813  0.3667
  330SOL    HW1 1046   4.631   0.090   4.062  0.2877 -0.1505  1.0897
  330SOL    HW2 1047   4.557  -0.028   4.004  0.3216  0.5535 -0.4172
  331SOL     OW 1048   1.148   3.079   0.453  0.2262  0.5377 -0.1665
  331SOL    HW1 1049   1.216   3.140   0.425  0.8750  1.1391  2.4278
  331SOL    HW2 1050   1.103   3.125   0.524 -0.1967 -1.4518  0.9095
  332SOL     OW 1051   2.049   1.653   0.806  0.2140  0.0451  0.8081
  332SOL    HW1 1052   1.958   1.660   0.836 -0.4316 -0.7942 -0.8517
  332SOL    HW2 1053   2.063   1.559   0.795  0.0496  0.2816 -2.3871
  333SOL     OW 1054   3.625   0.481   2.817 -0.2961  0.6165  0.2098
  333SOL    HW1 1055   3.576   0.558   2.847 -1.0843  0.4805 -0.6742
  333SOL    HW2 1056   3.598   0.469   2.726  1.0598  0.2516 -0.1671
  334SOL     OW 1057   2.784   0.019   0.427 -0.6013  0.6060 -0.3062
  334SOL    HW1 1058   2.717  -0.036   0.386 -0.3808 -0.2618  0.4691
  334SOL    HW2 1059   2.735   0.084   0.476 -0.8752  0.4964 -0.4320
  335SOL     OW 1060   2.940   3.861   4.651 -0.2045  0.8582  0.2531
  335SOL    HW1 1061   3.035   3.854   4.639 -0.2577  1.3400 -0.4433
  335SOL    HW2 1062   2.929   3.876   4.745  0.4319  1.2814  0.2611
  336SOL     OW 1063   2.157   0.862   0.923  0.1820  0.3535 -0.4415
  336SOL    HW1 1064   2.165   0.812   0.842 -1.4517 -0.1572 -0.3436
  336SOL    HW2 1065   2.245   0.862   0.961  0.1620 -3.2080 -0.0435
  337SOL     OW 1066   1.376   4.611   3.419  0.4263  0.1998 -0.4082
  337SOL    HW1 1067   1.419   4.603   3.334 -0.7451 -0.8286 -0.9425
  337SOL    HW2 1068   1.429   4.557   3.477  1.2703  0.9565 -0.4611
  338SOL     OW 1069   3.436   3.611   0.344 -0.3192 -0.5588  0.3852
  338SOL    HW1 1070   3.472   3.532   0.384  1.0795 -0.6505 -0.9596
  338SOL    HW2 1071   3.361   3.580   0.293 -1.1133 -0.6731  1.5984
  339SOL     OW 1072   3.812   1.340   1.617 -0.3334  0.1967  0.6243
  339SOL    HW1 1073   3.739   1.397   1.638  1.3097  2.5674  0.2646
  339SOL    HW2 1074   3.832   1.359   1.525  1.1486  0.1313  0.9027
  340SOL     OW 1075   0.651   0.599   0.853  0.0899  0.4055  0.2109
  340SOL    HW1 1076   0.668   0.540   0.926  1.0436  1.4150  0.8448
  340SOL    HW2 1077   0.603   0.672   0.891  2.1192  1.8118  0.2881
  341SOL     OW 1078   3.209   1.424   3.917  0.3258 -0.4593  0.3827
  341SOL    HW1 1079   3.288   1.472   3.937 -1.2717  1.2507  3.1329
  341SOL    HW2 1080   3.149   1.489   3.881 -0.5944 -1.2029  0.5106
  342SOL     OW 1081   2.015   0.173   1.581  0.1486  0.3162 -0.1513
  342SOL    HW1 1082   1.984   0.234   1.648 -0.7518  1.1787 -1.3094
  342SOL    HW2 1083   2.108   0.195   1.570  0.4537 -0.2329  1.2044
  343SOL     OW 1084   3.618   0.438   0.391 -0.1017 -0.2499 -0.8384
  343SOL    HW1 1085   3.534   0.406   0.424  0.0201  1.0218  0.8308
  343SOL    HW2 1086   3.595   0.499   0.321 -0.7275  1.4792  0.7998
  344SOL     OW 1087   1.189   3.091   1.277 -0.6679  0.0985  0.5482
  344SOL    HW1 1088   1.156   3.146   1.205 -0.3240 -0.4948 -0.0680
  344SOL    HW2 1089   1.278   3.068   1.251 -0.5297 -0.1054  1.1832
  345SOL     OW 1090   2.087   1.550   1.119 -0.2116  0.4083  0.4675
  345SOL    HW1 1091   2.083   1.510   1.032 -0.1167  1.5663 -0.0883
  345SOL    HW2 1092   2.168   1.601   1.119  0.2371 -0.2842  1.5571
  346SOL     OW 1093   1.568   3.102   3.168  0.1601  0.3716 -0.0141
  346SOL    HW1 1094   1.654   3.121   3.206 -0.1344  0.0244  0.8348
  346SOL    HW2 1095   1.530   3.188   3.153  0.3744  0.5154  0.2538
  347SOL     OW 1096   2.546   1.336   2.655 -0.5220  0.5616 -0.5416
  347SOL    HW1 1097   2.617   1.374   2.707 -1.1503 -0.7262  1.3694
  347SOL    HW2 1098   2.515   1.262   2.707 -1.1544 -0.8974 -2.8242
  348SOL     OW 1099   0.542   0.403   2.176 -0.3526  0.0879 -0.4673
  348SOL    HW1 1100   0.540   0.386   2.270 -0.5304  1.4927 -0.1927
  348SOL    HW2 1101   0.590   0.329   2.139  0.8799  0.1723  0.8729
  349SOL     OW 1102   4.832   0.919   0.164 -0.4122  0.2363 -0.2615
  349SOL    HW1 1103   4.761   0.912   0.227 -0.7999  0.3233 -0.6775
  349SOL    HW2 1104   4.897   0.975   0.205  0.4110 -1.5499  1.0209
  350SOL     OW 1105   1.375   0.681   2.556  0.3003  0.0091  0.4761
  350SOL    HW1 1106   1.363   0.773   2.532 -0.9259 -0.5176 -1.0673
  350SOL    HW2 1107   1.287   0.650   2.576  0.7223 -0.8290  1.0981
  351SOL     OW 1108   3.781   2.320   3.191  0.3115 -0.3756 -0.3962
  351SOL    HW1 1109   3.783   2.233   3.231 -0.9160 -1.0520 -1.7325
  351SOL    HW2 1110   3.693   2.353   3.208  0.3105  0.0089 -1.1127
  352SOL     OW 1111   1.605   0.848   2.743 -0.8418  0.5501 -0.1078
  352SOL    HW1 1112   1.525   0.802   2.768  0.6454 -1.3348  1.5536
  352SOL    HW2 1113   1.634   0.891   2.823 -0.6717  2.0337 -0.9339
  353SOL     OW 1114   2.697   3.333   0.720  0.3969 -0.0148  0.0068
  353SOL    HW1 1115   2.643   3.255   0.708 -1.4781  1.3901 -1.1074
  353SOL    HW2 1116   2.699   3.347   0.814 -1.4063  0.0275  0.0589
  354SOL     OW 1117   3.709   4.512   0.407  0.3780  0.0178 -0.2112
  354SOL    HW1 1118   3.733   4.420   0.416 -2.2317 -0.7260 -0.1616
  354SOL    HW2 1119   3.679   4.520   0.316 -0.8349  0.4284  0.2117
  355SOL     OW 1120   0.576   1.690   1.784  0.2758  0.3222  0.1060
  355SOL    HW1 1121   0.538   1.713   1.870  1.3464 -0.2923  0.7676
  355SOL    HW2 1122   0.546   1.600   1.769 -0.8875  0.8259 -0.7498
  356SOL     OW 1123   3.863   3.680   1.693 -0.1162 -0.7463  0.0589
  356SOL    HW1 1124   3.796   3.731   1.648  1.7976  0.3351 -1.6918
  356SOL    HW2 1125   3.842   3.589   1.673 -0.7714 -0.3927 -0.8988
  357SOL     OW 1126   3.538   2.086   4.197 -0.4503 -0.2690  0.1940
  357SOL    HW1 1127   3.585   2.128   4.268  0.2870 -0.0436 -0.4210
  357SOL    HW2 1128   3.453   2.130   4.195 -0.0101  0.5847  0.1280
  358SOL     OW 1129   3.503   0.090   4.519  0.1358  0.2437 -0.1893
  358SOL    HW1 1130   3.554   0.155   4.471  1.4937 -1.3722 -1.0262
  358SOL    HW2 1131   3.445   0.051   4.453  1.6546 -1.6337 -0.5021
  359SOL     OW 1132   2.401   3.269   4.305 -0.4253  0.0460 -0.2424
  359SOL    HW1 1133   2.364   3.353   4.281  1.2564  0.6112 -0.9608
  359SOL    HW2 1134   2.390   3.264   4.400 -0.9285  0.8730 -0.2562
  360SOL     OW 1135   1.815   1.756   4.115  0.3667 -0.2857 -0.1222
  360SOL    HW1 1136   1.903   1.720   4.117  0.9862  1.1723  0.7679
  360SOL    HW2 1137   1.806   1.795   4.028  0.6727 -0.2900 -0.1563
  361SOL     OW 1138   1.461   3.051   1.230 -0.1458  0.0657  0.2639
  361SOL    HW1 1139   1.446   2.965   1.270 -0.3307 -0.0237  0.0102
  361SOL    HW2 1140   1.499   3.104   1.299  1.4375 -0.6720  0.0042
  362SOL     OW 1141   3.642   3.727   2.801  0.0767 -0.1103 -0.1800
  362SOL    HW1 1142   3.611   3.648   2.847 -1.3391  0.3619 -0.2691
  362SOL    HW2 1143   3.614   3.800   2.856  1.1891  0.3540 -0.2043
  363SOL     OW 1144   1.172   3.349   3.980  0.5451  0.1755  0.0068
  363SOL    HW1 1145   1.141   3.276   3.925 -0.1610 -0.8835  1.7169
  363SOL    HW2 1146   1.234   3.396   3.925  0.4755 -1.3003 -1.4099
  364SOL     OW 1147   2.523   3.274   2.085  0.3553 -0.0429  0.6003
  364SOL    HW1 1148   2.507   3.224   2.165  1.2972  0.4571  1.1101
  364SOL    HW2 1149   2.569   3.214   2.027 -0.5544 -0.4895  0.3161
  365SOL     OW 1150   3.060   3.856   1.316 -0.2541  0.0626 -0.0189
  365SOL    HW1 1151   3.113   3.797   1.263  0.7291 -0.0282  1.0372
  365SOL    HW2 1152   3.104   3.859   1.401 -1.2790  0.9250  0.5099
  366SOL     OW 1153   2.107   3.067   4.164  0.1566  0.8287  0.2800
  366SOL    HW1 1154   2.057   3.149   4.163 -0.7585  0.2939 -1.0396
  366SOL    HW2 1155   2.197   3.093   4.146  0.2565  1.7285  1.9019
  367SOL     OW 1156   3.918   1.686   0.064 -0.0952 -0.7757 -0.3319
  367SOL    HW1 1157   3.991   1.726   0.016 -1.2578  1.8153 -0.1255
  367SOL    HW2 1158   3.841   1.706   0.012 -0.9923 -0.7856  0.9500
  368SOL     OW 1159   2.701   4.909   3.992 -0.1791 -0.1005 -0.3150
  368SOL    HW1 1160   2.783   4.859   3.986  0.0120 -0.1057  1.6485
  368SOL    HW2 1161   2.645   4.870   3.925  0.6670 -1.5962 -0.2109
  369SOL     OW 1162   2.741   2.206   3.042 -0.3941 -0.2085 -0.6029
  369SOL    HW1 1163   2.758   2.112   3.034  0.5846 -0.1897  0.8620
  369SOL    HW2 1164   2.784   2.245   2.966 -1.3593 -0.9841 -1.5774
  370SOL     OW 1165   2.870   1.804   3.802  0.0896  0.7425  0.0652
  370SOL    HW1 1166   2.934   1.854   3.753 -0.3479  1.2851  0.0312
  370SOL    HW2 1167   2.890   1.823   3.894  0.9550 -0.3318  0.1119
  371SOL     OW 1168   0.372   0.925   0.080 -0.8178  0.0456  0.1956
  371SOL    HW1 1169   0.392   0.867   0.007 -1.5578 -1.5130  1.1771
  371SOL    HW2 1170   0.398   1.012   0.050  1.1403 -0.9025 -0.9979
  372SOL     OW 1171   2.388   1.108   3.437 -0.6530 -0.3285 -0.0122
  372SOL    HW1 1172   2.426   1.179   3.386  0.3263  1.1892  2.6184
  372SOL    HW2 1173   2.324   1.068   3.378  1.6750  0.0074 -3.0349
  373SOL     OW 1174   1.779   4.734   3.752 -0.3387 -0.1380  0.4643
  373SOL    HW1 1175   1.815   4.747   3.840  0.0095 -0.3597  0.3617
  373SOL    HW2 1176   1.793   4.640   3.735  0.2048  0.0385 -0.0865
  374SOL     OW 1177   2.655   2.207   1.350  0.3678 -0.2631 -0.1691
  374SOL    HW1 1178   2.580   2.262   1.331  1.7620  1.2920 -1.5939
  374SOL    HW2 1179   2.627   2.150   1.421 -0.7119  3.3250  2.5438
  375SOL     OW 1180   2.122   2.227   0.275  0.4940 -0.2083 -0.6076
  375SOL    HW1 1181   2.175   2.150   0.296 -1.2529 -1.2793  0.1658
  375SOL    HW2 1182   2.157   2.260   0.193  2.1389 -1.0234 -0.2698
  376SOL     OW 1183   3.115   1.872   3.647 -0.0007  0.3498 -0.0061
  376SOL    HW1 1184   3.124   1.927   3.569  1.4981  0.7122  0.3865
  376SOL    HW2 1185   3.149   1.927   3.718 -0.8229 -0.1819  0.8190
  377SOL     OW 1186   2.902   4.825   0.981 -0.0670  0.4605 -0.5189
  377SOL    HW1 1187   2.899   4.869   0.896 -1.9690  0.0958 -0.6775
  377SOL    HW2 1188   2.986   4.779   0.982  0.6504  1.7140 -1.5526
  378SOL     OW 1189   0.747   3.982   2.472  0.2411  0.1197  0.0131
  378SOL    HW1 1190   0.826   3.998   2.526  1.0466 -1.1197 -0.7454
  378SOL    HW2 1191   0.780   3.933   2.396 -0.8573  1.9025 -1.6856
  379SOL     OW 1192   3.659   3.799   1.530 -0.0550 -0.1610  0.1720
  379SOL    HW1 1193   3.601   3.873   1.512  0.0420 -0.0608  0.2713
  379SOL    HW2 1194   3.600   3.724   1.541 -0.1491 -0.1113  0.0071
  380SOL     OW 1195   2.657   2.141   0.044 -0.5903  0.2998 -0.2419
  380SOL    HW1 1196   2.741   2.186   0.052 -0.2956 -0.2874  0.0349
  380SOL    HW2 1197   2.666   2.087  -0.035  0.6584 -2.5314  1.6687
  381SOL     OW 1198   4.365   0.690   0.713 -0.0825 -0.3442  0.1973
  381SOL    HW1 1199   4.315   0.770   0.730 -1.4586 -0.6702 -1.9752
  381SOL    HW2 1200   4.457   0.718   0.717 -0.5285  1.3419 -0.5417
  382SOL     OW 1201   3.585   2.839   2.913  0.2872 -0.0689 -0.2307
  382SOL    HW1 1202   3.540   2.794   2.985  1.2920 -0.4663  0.1728
  382SOL    HW2 1203   3.632   2.911   2.956 -1.5954  1.6876 -0.9086
  383SOL     OW 1204   2.651   0.312   3.583  0.4888  0.2147 -0.0150
  383SOL    HW1 1205   2.695   0.241   3.536 -0.7601 -0.9273  0.4586
  383SOL    HW2 1206   2.636   0.379   3.517  3.4487  0.9726 -0.0795
  384SOL     OW 1207   4.242   2.994   3.114  0.0290  0.3438 -0.4373
  384SOL    HW1 1208   4.227   3.046   3.194  0.2847  0.3732 -0.4090
  384SOL    HW2 1209   4.161   3.005   3.064 -0.6173 -0.6283  0.3473
  385SOL     OW 1210   4.129   3.764   2.231 -0.0926 -0.3927 -0.2979
  385SOL    HW1 1211   4.115   3.857   2.209  0.6991  0.4972  2.4765
  385SOL    HW2 1212   4.110   3.759   2.325  0.4159 -2.9579 -0.2687
  386SOL     OW 1213   0.104   3.247   0.972  0.3550 -0.3205 -0.0617
  386SOL    HW1 1214   0.173   3.280   0.914 -0.1024 -0.5112 -0.7363
  386SOL    HW2 1215   0.084   3.160   0.938 -0.3245 -0.2027  0.0115
  387SOL     OW 1216   3.052   0.684   1.374  0.3982 -0.6317  0.0369
  387SOL    HW1 1217   3.131   0.719   1.334  0.7777 -1.2044  0.2743
  387SOL    HW2 1218   3.027   0.750   1.439 -0.6879  0.6978 -1.6486
  388SOL     OW 1219   1.995   2.376   1.094 -0.0264 -0.5503  0.3373
  388SOL    HW1 1220   1.924   2.344   1.149 -0.2568  1.4247  1.2708
  388SOL    HW2 1221   2.046   2.298   1.073 -2.0239 -1.9121  0.2541
  389SOL     OW 1222   4.551   1.397   1.676 -0.4845 -0.5195 -0.0281
  389SOL    HW1 1223   4.545   1.480   1.722  0.3204  0.2493 -1.2680
  389SOL    HW2 1224   4.530   1.331   1.743 -0.8280  0.6392  1.0438
  390SOL     OW 1225   0.083   2.410   0.450 -0.7276 -0.2676 -0.0912
  390SOL    HW1 1226   0.162   2.357   0.437 -0.7521 -1.1340  2.5835
  390SOL    HW2 1227   0.012   2.353   0.420 -0.5886 -1.0212  0.9363
  391SOL     OW 1228   3.959   3.800   1.932  0.4551 -0.3462  0.2973
  391SOL    HW1 1229   3.941   3.771   1.842 -1.7470  1.6616 -0.0167
  391SOL    HW2 1230   3.946   3.722   1.986 -1.1650 -0.9195 -0.8616
  392SOL     OW 1231   3.297   0.643   3.179 -0.0031 -0.1488 -0.0068
  392SOL    HW1 1232   3.374   0.698   3.188 -0.7260  0.7773  0.7182
  392SOL    HW2 1233   3.262   0.634   3.268 -0.0849 -1.5317 -0.1500
  393SOL     OW 1234   0.741   4.436   4.115 -0.3233 -0.3223 -0.0472
  393SOL    HW1 1235   0.827   4.453   4.154 -0.0898 -0.3142 -0.5637
  393SOL    HW2 1236   0.681   4.492   4.165 -0.4750 -2.1917  2.0431
  394SOL     OW 1237   2.391   1.292   4.565 -0.3274 -0.2081 -0.0011
  394SOL    HW1 1238   2.311   1.239   4.559  0.1699 -0.9712 -0.0935
  394SOL    HW2 1239   2.360   1.380   4.587 -1.3541 -0.0496 -1.8355
  395SOL     OW 1240   3.883   2.752   1.601 -0.4374  0.7682  0.9367
  395SOL    HW1 1241   3.844   2.750   1.514 -0.2869  0.9776  0.8660
  395SOL    HW2 1242   3.970   2.789   1.589  0.2414 -0.7322  0.9190
  396SOL     OW 1243   0.490   1.933   3.907  0.1902  0.0189 -0.1763
  396SOL    HW1 1244   0.410   1.954   3.860  0.2166  0.9907  0.2077
  396SOL    HW2 1245   0.551   1.906   3.838 -0.5479 -1.0571 -0.4388
  397SOL     OW 1246   2.361   3.478   2.018  0.3418  0.1578 -0.4949
  397SOL    HW1 1247   2.429   3.533   2.056 -0.4449 -0.0297  1.2798
  397SOL    HW2 1248   2.404   3.395   2.000  0.6546  0.1224  0.3857
  398SOL     OW 1249   0.129   0.923   3.390  0.1166  0.3711  0.2915
  398SOL    HW1 1250   0.175   0.856   3.339 -0.2229  0.5137 -0.2083
  398SOL    HW2 1251   0.061   0.955   3.332 -0.7904 -0.0179  1.0971
  399SOL     OW 1252   1.696   3.711   4.650  0.4351  0.4297 -0.1253
  399SOL    HW1 1253   1.624   3.772   4.666 -1.0522 -1.5715  1.2968
  399SOL    HW2 1254   1.655   3.634   4.611  2.1425 -0.0202 -1.1761
  400SOL     OW 1255   0.165   1.307   0.394 -0.4095  0.1957 -0.2728
  400SOL    HW1 1256   0.237   1.252   0.363 -0.8773  0.5914 -2.1901
  400SOL    HW2 1257   0.208   1.375   0.446  0.5360  0.0015 -0.7711
  401SOL     OW 1258   0.555   2.719   0.792 -0.1285 -0.0617  0.0254
  401SOL    HW1 1259   0.596   2.699   0.876 -0.3535 -0.0469  0.1391
  401SOL    HW2 1260   0.502   2.797   0.808  0.1129  0.1526 -0.2195
  402SOL     OW 1261   2.232   4.720   0.200  0.4565 -0.2218  0.6004
  402SOL    HW1 1262   2.222   4.803   0.246  0.7905  1.2156 -1.7280
  402SOL    HW2 1263   2.146   4.701   0.164  0.0378 -1.6662  2.2550
  403SOL     OW 1264   1.829   1.181   1.155 -0.2340  0.9061  0.0900
  403SOL    HW1 1265   1.838   1.193   1.060 -0.5086  0.4507  0.0039
  403SOL    HW2 1266   1.916   1.199   1.190  0.0041  0.5325 -0.3048
  404SOL     OW 1267   2.782   1.400   0.445  0.1285  0.1557 -0.2000
  404SOL    HW1 1268   2.750   1.309   0.449 -1.2642  0.6633  1.5647
  404SOL    HW2 1269   2.821   1.408   0.358 -0.0219 -2.0326 -0.5233
  405SOL     OW 1270   2.405   1.047   1.965  0.1689  0.0640 -0.0599
  405SOL    HW1 1271   2.327   1.098   1.987 -0.5861 -0.8464 -0.5033
  405SOL    HW2 1272   2.372   0.978   1.907  1.1545 -0.8605  0.4388
  406SOL     OW 1273   0.461   4.704   2.332  0.2209 -0.4295  0.0075
  406SOL    HW1 1274   0.506   4.631   2.374 -1.0939 -1.3980 -0.2193
  406SOL    HW2 1275   0.475   4.691   2.238  0.4847 -0.0554 -0.0053
  407SOL     OW 1276   4.957   3.620   3.392 -0.0301 -0.2633 -0.6534
  407SOL    HW1 1277   4.935   3.567   3.316 -1.8782 -0.6300  0.0841
  407SOL    HW2 1278   4.947   3.711   3.363 -4.4330 -0.3375 -0.0216
  408SOL     OW 1279   2.290   3.780   4.168 -0.7606 -0.0495 -0.6169
  408SOL    HW1 1280   2.255   3.850   4.113 -0.5932  2.1590  1.9331
  408SOL    HW2 1281   2.383   3.775   4.144 -0.5128  1.4269 -0.0694
  409SOL     OW 1282   0.227   0.936   1.097  0.2787  0.6023  0.8227
  409SOL    HW1 1283   0.304   0.981   1.132  0.6510  1.6772 -1.2206
  409SOL    HW2 1284   0.181   1.003   1.046 -2.5104  0.2091  2.6342
  410SOL     OW 1285   0.876   1.724   4.437 -0.3973 -0.0397  0.1609
  410SOL    HW1 1286   0.829   1.742   4.356 -0.4022 -0.5306  0.0541
  410SOL    HW2 1287   0.958   1.773   4.428  0.1623 -1.0894 -0.6989
  411SOL     OW 1288   1.322   0.620   4.063 -0.2349 -0.2700 -0.0095
  411SOL    HW1 1289   1.389   0.681   4.033 -1.3945  0.7904 -0.5253
  411SOL    HW2 1290   1.315   0.636   4.157 -1.8606  1.8381 -0.4106
  412SOL     OW 1291   4.533   2.182   2.761  0.1177  0.1496  0.1447
  412SOL    HW1 1292   4.579   2.264   2.780  1.0205 -0.4853  0.7817
  412SOL    HW2 1293   4.600   2.114   2.771 -0.5485 -0.6507 -0.6369
  413SOL     OW 1294   3.552   4.602   3.003  0.9125 -0.1645 -0.2201
  413SOL    HW1 1295   3.556   4.657   2.924  0.3504 -0.3143 -0.3606
  413SOL    HW2 1296   3.588   4.657   3.072  3.3336 -0.7209 -0.9308
  414SOL     OW 1297   4.300   0.155   3.080  0.3403 -0.3727  0.1451
  414SOL    HW1 1298   4.215   0.190   3.108  0.9454  1.1553  0.1766
  414SOL    HW2 1299   4.325   0.094   3.150  0.9364  1.9383  2.0857
  415SOL     OW 1300   4.425   1.970   0.794 -0.2462  0.2654  0.1823
  415SOL    HW1 1301   4.506   2.014   0.768  0.4936 -1.4083 -0.5162
  415SOL    HW2 1302   4.361   1.998   0.729  0.5106 -0.5575 -0.9511
  416SOL     OW 1303   1.942   3.589   4.042  0.5481 -0.3261  0.1735
  416SOL    HW1 1304   1.869   3.635   4.081  1.5697  0.0653  1.7054
  416SOL    HW2 1305   2.019   3.640   4.066  1.7562 -2.7781  1.9945
  417SOL     OW 1306   0.562   2.455   1.175  0.9061 -0.0506 -0.3008
  417SOL    HW1 1307   0.620   2.432   1.103  1.7434  3.4332 -0.9183
  417SOL    HW2 1308   0.474   2.453   1.137  1.2205  0.4044 -1.0754
  418SOL     OW 1309   0.873   1.728   1.453 -0.1700  0.9314  0.1551
  418SOL    HW1 1310   0.836   1.653   1.407 -3.4593  1.4001  1.7472
  418SOL    HW2 1311   0.964   1.732   1.424 -0.2574 -2.7524 -1.0958
  419SOL     OW 1312   1.488   0.464   3.466  0.0153 -0.1402 -0.3800
  419SOL    HW1 1313   1.429   0.540   3.470 -0.5331 -0.4090 -2.3383
  419SOL    HW2 1314   1.470   0.416   3.546  1.1419  2.3080  1.4815
  420SOL     OW 1315   0.539   1.221   1.774  0.5654  0.2274  0.1426
  420SOL    HW1 1316   0.592   1.201   1.697 -1.7036  0.4058 -1.5544
  420SOL    HW2 1317   0.487   1.297   1.749 -0.3150  0.2204  1.8093
  421SOL     OW 1318   4.325   2.999   1.908 -0.0020 -0.5670 -0.2917
  421SOL    HW1 1319   4.384   3.062   1.866  1.5726 -1.8216 -0.0411
  421SOL    HW2 1320   4.371   2.972   1.987 -0.2823 -2.6095 -0.7854
  422SOL     OW 1321   2.413   0.835   1.021  0.4494  0.5178 -0.5408
  422SOL    HW1 1322   2.473   0.769   1.056  0.0848 -0.6694 -2.0812
  422SOL    HW2 1323   2.421   0.909   1.082  1.6128 -0.5499  0.6596
  423SOL     OW 1324   0.632   2.594   3.008  0.4363  0.5832  0.0423
  423SOL    HW1 1325   0.673   2.638   2.933 -0.3552  0.9747 -0.1671
  423SOL    HW2 1326   0.608   2.666   3.067  0.1303  0.3456  0.2036
  424SOL     OW 1327   3.097   4.078   2.978  0.1606 -0.2478 -0.2312
  424SOL    HW1 1328   3.153   4.026   2.921  1.3763  0.4792  0.2662
  424SOL    HW2 1329   3.054   4.140   2.919  0.2599 -0.4860 -0.5556
  425SOL     OW 1330   4.664   0.879   4.691 -0.0300  0.2821 -0.5054
  425SOL    HW1 1331   4.588   0.830   4.722 -0.3553 -0.1532 -1.9109
  425SOL    HW2 1332   4.735   0.853   4.749 -0.6708 -0.2861  0.0312
  426SOL     OW 1333   4.970   0.394   4.278 -0.1404  0.3609  0.5874
  426SOL    HW1 1334   4.902   0.444   4.323  1.0795 -0.2369  3.3076
  426SOL    HW2 1335   4.973   0.311   4.325  0.1814 -1.0136 -1.6926
  427SOL     OW 1336   3.576   1.357   1.864 -0.5016 -0.3929 -0.4152
  427SOL    HW1 1337   3.607   1.272   1.895 -0.6591 -0.4891 -0.5197
  427SOL    HW2 1338   3.636   1.380   1.793  1.0974  0.7508  1.2223
  428SOL     OW 1339   3.422   4.442   0.614  0.0090 -0.3412 -0.0732
  428SOL    HW1 1340   3.513   4.435   0.587 -0.2478  0.8718 -1.3948
  428SOL    HW2 1341   3.378   4.368   0.572  0.4790 -1.2776  1.0640
  429SOL     OW 1342   1.159   2.497   4.481 -0.0453 -0.5368 -0.5449
  429SOL    HW1 1343   1.156   2.408   4.447 -1.6041 -0.6039 -0.3229
  429SOL    HW2 1344   1.083   2.503   4.540  0.4013  0.7363 -0.0524
  430SOL     OW 1345   0.789   3.548   1.266  0.1532  0.7580 -0.0177
  430SOL    HW1 1346   0.830   3.547   1.352 -0.8473 -1.6204  0.4927
  430SOL    HW2 1347   0.783   3.456   1.240 -2.4388  1.1652 -1.2170
  431SOL     OW 1348   4.896   0.610   4.619 -0.4796 -0.4878 -0.1945
  431SOL    HW1 1349   4.921   0.610   4.712 -0.3154  0.1737 -0.2284
  431SOL    HW2 1350   4.820   0.668   4.615  1.1571  1.7824 -0.8512
  432SOL     OW 1351   3.484   0.016   0.584  0.3148  0.8588 -0.1161
  432SOL    HW1 1352   3.478  -0.080   0.588  2.7801  0.6695  0.7752
  432SOL    HW2 1353   3.507   0.034   0.493  0.6648  0.5183 -0.1012
  433SOL     OW 1354   1.749   4.558   2.686 -0.3788 -0.0577 -0.0550
  433SOL    HW1 1355   1.797   4.493   2.737  0.6502 -0.0185 -0.9273
  433SOL    HW2 1356   1.657   4.540   2.705 -0.0560  0.8128  2.8199
  434SOL     OW 1357   0.859   1.171   1.071  0.0177 -0.0967  0.2860
  434SOL    HW1 1358   0.894   1.098   1.122 -1.3218 -0.4054  0.8244
  434SOL    HW2 1359   0.782   1.200   1.120  0.0351  1.1301 -0.3650
  435SOL     OW 1360   1.634   4.839   3.367  0.1330  0.4729 -0.4569
  435SOL    HW1 1361   1.667   4.882   3.288  0.7892  0.2076 -0.3334
  435SOL    HW2 1362   1.562   4.785   3.336  1.5121 -1.0343 -1.1991
  436SOL     OW 1363   3.570   1.856   1.441  0.1766 -0.3416  0.4478
  436SOL    HW1 1364   3.567   1.761   1.440 -0.5467 -0.3441  1.2129
  436SOL    HW2 1365   3.621   1.878   1.519 -1.7654 -0.1241  1.7483
  437SOL     OW 1366   1.324   0.174   1.004  0.1410  0.3718  0.2874
  437SOL    HW1 1367   1.285   0.087   1.006 -0.3490  0.6016  1.5480
  437SOL    HW2 1368   1.400   0.164   0.946 -1.4634 -0.1830 -1.8470
  438SOL     OW 1369   2.189   2.283   2.991  0.6029  0.2739  0.2907
  438SOL    HW1 1370   2.116   2.310   2.935 -0.1059  1.4677  1.7091
  438SOL    HW2 1371   2.243   2.362   2.999  0.5225  0.2302  1.4917
  439SOL     OW 1372   2.829   2.868   1.783 -0.3473 -0.7272 -0.7995
  439SOL    HW1 1373   2.886   2.847   1.857 -0.3826 -0.5298 -0.7144
  439SOL    HW2 1374   2.889   2.876   1.709 -0.1799  0.0916 -0.5922
  440SOL     OW 1375   2.661   3.017   1.968  0.5066  0.0266 -0.4706
  440SOL    HW1 1376   2.729   3.003   1.902  0.7191  0.4365 -0.3479
  440SOL    HW2 1377   2.579   2.996   1.924  0.7003 -0.3145 -0.6694
  441SOL     OW 1378   3.817   0.261   1.727  0.7836  0.0871  0.3471
  441SOL    HW1 1379   3.758   0.276   1.801  0.5573  2.1286 -0.1835
  441SOL    HW2 1380   3.760   0.261   1.650  0.8271 -3.4405  0.1861
  442SOL     OW 1381   0.352   2.795   2.452  0.2768 -0.1643 -0.1972
  442SOL    HW1 1382   0.382   2.718   2.403 -1.0850  0.4974 -2.1958
  442SOL    HW2 1383   0.282   2.762   2.507  1.4811 -0.8236  0.9994
  443SOL     OW 1384   0.559   1.110   3.955  0.0304  0.0116  1.0023
  443SOL    HW1 1385   0.505   1.131   4.031 -0.6817  1.1027  0.2080
  443SOL    HW2 1386   0.588   1.195   3.922  2.3224 -0.5313  1.4450
  444SOL     OW 1387   4.729   3.199   0.849  0.7053  0.2595 -0.5357
  444SOL    HW1 1388   4.648   3.153   0.829  0.2574  1.1826 -0.8948
  444SOL    HW2 1389   4.780   3.195   0.768  2.0184 -2.2549  0.3254
  445SOL     OW 1390   1.039   2.054   1.326  0.4721 -0.6726  0.1588
  445SOL    HW1 1391   0.950   2.074   1.356  0.9902  3.7596 -0.5938
  445SOL    HW2 1392   1.032   2.054   1.231  1.1634 -1.1050  0.1054
  446SOL     OW 1393   3.378   0.865   0.752 -0.3168  0.1432  0.3240
  446SOL    HW1 1394   3.333   0.928   0.697  0.3611  0.1785 -0.2023
  446SOL    HW2 1395   3.360   0.894   0.842 -1.1902  0.2465  0.1255
  447SOL     OW 1396   1.621   1.552   1.344  0.0955 -0.7310 -0.1654
  447SOL    HW1 1397   1.613   1.457   1.340  1.3013 -0.8749  0.3774
  447SOL    HW2 1398   1.577   1.577   1.425 -0.4723 -0.7841 -0.4513
  448SOL     OW 1399   3.583   0.523   1.351  0.2232 -0.1388 -0.3056
  448SOL    HW1 1400   3.546   0.607   1.379 -0.2945 -0.4048 -0.1861
  448SOL    HW2 1401   3.617   0.484   1.432  2.1157  0.7485 -0.6173
  449SOL     OW 1402   0.360   2.792   4.599 -0.1812 -0.2666  0.1559
  449SOL    HW1 1403   0.341   2.701   4.577 -0.0474 -0.4553  0.8118
  449SOL    HW2 1404   0.389   2.831   4.517  0.0342 -0.8867 -0.0687
  450SOL     OW 1405   3.026   2.656   0.814  0.1802  0.1835 -0.1871
  450SOL    HW1 1406   3.010   2.625   0.725  1.3369  2.0062 -1.0697
  450SOL    HW2 1407   3.051   2.577   0.862 -0.9253 -0.9154 -1.3261
  451SOL     OW 1408   3.393   0.204   4.726  0.6000  0.1036  0.7010
  451SOL    HW1 1409   3.422   0.158   4.647 -0.5909  0.6758 -0.1027
  451SOL    HW2 1410   3.431   0.292   4.717  1.7151 -0.2793  1.5351
  452SOL     OW 1411   0.491   3.884   4.760  0.1387  0.2785  0.1886
  452SOL    HW1 1412   0.450   3.825   4.696  0.2478  1.2055 -0.7574
  452SOL    HW2 1413   0.561   3.831   4.799  0.9311  0.0786 -1.4019
  453SOL     OW 1414   4.408   1.356   1.398 -0.2051 -0.2153 -0.0744
  453SOL    HW1 1415   4.358   1.434   1.420  0.3967  0.1600 -0.0285
  453SOL    HW2 1416   4.461   1.338   1.475 -0.0059 -0.4063 -0.2550
  454SOL     OW 1417   3.504   4.586   3.315  0.1141  0.0124  0.1113
  454SOL    HW1 1418   3.432   4.539   3.273 -0.0127 -0.7583  1.1640
  454SOL    HW2 1419   3.561   4.611   3.242  0.7707 -2.7394 -0.4406
  455SOL     OW 1420   4.789   0.255   0.264  0.6721 -0.0932  0.6522
  455SOL    HW1 1421   4.859   0.222   0.320 -0.1224 -3.4958 -0.1115
  455SOL    HW2 1422   4.803   0.211   0.180 -0.2880  2.0269 -0.7094
  456SOL     OW 1423   1.904   4.874   2.805 -0.0548 -0.0046 -0.1513
  456SOL    HW1 1424   1.926   4.806   2.868  1.4276 -1.1853 -1.8219
  456SOL    HW2 1425   1.882   4.827   2.725 -3.0382  1.3872 -0.2887
  457SOL     OW 1426   2.994   0.954   0.490  0.2997 -0.3668 -0.2857
  457SOL    HW1 1427   2.947   0.943   0.407 -1.2867 -0.6159  0.5997
  457SOL    HW2 1428   2.951   1.029   0.531 -1.0599 -2.0692  1.6271
  458SOL     OW 1429   0.501   2.032   0.370 -0.2725 -0.1507 -0.5049
  458SOL    HW1 1430   0.430   2.094   0.353 -0.2940 -0.3088 -1.0320
  458SOL    HW2 1431   0.517   1.992   0.284  1.4968  0.9881 -0.7558
  459SOL     OW 1432   2.558   0.819   4.566 -0.4222  1.1028  0.2445
  459SOL    HW1 1433   2.519   0.821   4.479 -1.7291  2.1320  0.8291
  459SOL    HW2 1434   2.492   0.775   4.621  0.6207 -0.0538  0.6360
  460SOL     OW 1435   2.646   1.026   1.002 -0.0634  0.2775  1.0225
  460SOL    HW1 1436   2.671   1.106   0.955  0.2526 -0.4870 -0.1699
  460SOL    HW2 1437   2.561   1.047   1.042 -0.9393  0.6087 -0.8958
  461SOL     OW 1438   2.969   1.814   4.957  0.0815  0.3588 -0.3499
  461SOL    HW1 1439   2.905   1.872   4.999 -0.4474 -1.6149  1.7681
  461SOL    HW2 1440   2.917   1.740   4.925  1.1628 -1.1364  1.1342
  462SOL     OW 1441   2.180   0.023   3.597  0.2081  0.3689 -0.0313
  462SOL    HW1 1442   2.145  -0.058   3.559  2.1872 -1.7480  2.3027
  462SOL    HW2 1443   2.116   0.049   3.663 -0.7110  1.1079 -1.1740
  463SOL     OW 1444   0.641   1.667   3.008 -0.0566 -0.0576 -0.6063
  463SOL    HW1 1445   0.659   1.721   3.085 -1.5138  0.7500 -0.8043
  463SOL    HW2 1446   0.728   1.646   2.973  0.7445 -1.9948  2.2533
  464SOL     OW 1447   0.309   1.098   0.285  0.0475 -0.3876  0.0854
  464SOL    HW1 1448   0.315   1.030   0.218  2.3413  0.2646 -0.4514
  464SOL    HW2 1449   0.299   1.049   0.367  0.0891 -1.3060 -0.4413
  465SOL     OW 1450   0.069   0.034   1.598  0.3243 -0.2172 -0.3940
  465SOL    HW1 1451  -0.024   0.018   1.613  0.2433  0.8455  0.3630
  465SOL    HW2 1452   0.074   0.073   1.511 -0.0075  0.2017 -0.2302
  466SOL     OW 1453   2.114   4.007   0.220  0.4726 -0.1988 -0.1827
  466SOL    HW1 1454   2.190   4.011   0.278  1.2143 -0.4878 -1.1133
  466SOL    HW2 1455   2.099   4.098   0.193 -0.2562  0.0287  0.9085
  467SOL     OW 1456   2.557   2.033   1.550 -0.2742 -0.5205  0.0869
  467SOL    HW1 1457   2.531   2.109   1.603 -0.7075 -1.0642  0.6770
  467SOL    HW2 1458   2.483   1.972   1.558  0.0312 -0.9698 -0.4488
  468SOL     OW 1459   0.521   3.047   2.802 -0.2376 -0.1894 -0.2394
  468SOL    HW1 1460   0.426   3.046   2.789 -0.3010 -1.2153  0.2008
  468SOL    HW2 1461   0.549   3.133   2.771 -1.0487 -0.6143 -2.3171
  469SOL     OW 1462   2.147   1.801   3.362 -0.3392 -0.4260  0.1566
  469SOL    HW1 1463   2.090   1.796   3.439 -1.5182 -1.9593 -0.7533
  469SOL    HW2 1464   2.187   1.888   3.367 -0.7521 -0.3024  2.2243
  470SOL     OW 1465   3.360   3.584   3.573  0.6882  0.5253  0.2653
  470SOL    HW1 1466   3.359   3.505   3.519  1.4613 -0.3530  1.4878
  470SOL    HW2 1467   3.363   3.656   3.509  2.2597 -0.4857 -0.8870
  471SOL     OW 1468   3.612   2.391   1.288 -0.2018  0.1652  0.1271
  471SOL    HW1 1469   3.677   2.386   1.218 -1.0499  1.1414 -0.7649
  471SOL    HW2 1470   3.534   2.350   1.251 -1.7069  3.5794 -0.8044
  472SOL     OW 1471   1.530   2.762   4.046 -0.1103 -0.3091 -0.2720
  472SOL    HW1 1472   1.511   2.796   3.959 -2.3581  0.2752  0.3725
  472SOL    HW2 1473   1.463   2.695   4.061  1.6897 -2.1326  0.1289
  473SOL     OW 1474   3.382   4.973   4.301 -0.1348 -0.2852  0.1280
  473SOL    HW1 1475   3.360   4.954   4.210 -1.9130  0.5204  0.3447
  473SOL    HW2 1476   3.298   4.971   4.347  0.4793  1.1090  1.4093
  474SOL     OW 1477   4.403   2.447   2.629  1.0496  0.9905 -0.3715
  474SOL    HW1 1478   4.476   2.479   2.576  0.1279  0.1957 -2.2437
  474SOL    HW2 1479   4.325   2.478   2.582  0.1711  1.0615  1.0827
  475SOL     OW 1480   3.711   0.846   0.377 -0.0529 -0.5351  0.6914
  475SOL    HW1 1481   3.724   0.848   0.472  0.9880  1.7067  0.5642
  475SOL    HW2 1482   3.772   0.912   0.343 -1.0853 -0.6057 -1.4472
  476SOL     OW 1483   3.133   0.399   1.389 -0.1607  0.2453 -0.5378
  476SOL    HW1 1484   3.150   0.391   1.482 -2.4304 -0.0663 -0.0797
  476SOL    HW2 1485   3.129   0.494   1.374  0.7086  0.3036 -0.4435
  477SOL     OW 1486   3.737   3.926   2.607  0.8811  0.3113 -0.5113
  477SOL    HW1 1487   3.827   3.932   2.637  0.5742  2.8012  0.0980
  477SOL    HW2 1488   3.704   3.846   2.648  2.6410 -0.3781 -0.3517
  478SOL     OW 1489   2.562   3.737   0.581 -0.4786 -0.4632 -0.0580
  478SOL    HW1 1490   2.611   3.743   0.663 -2.1404  0.0295  0.9429
  478SOL    HW2 1491   2.536   3.645   0.575  0.1281 -0.6211 -0.3430
  479SOL     OW 1492   2.058   3.354   1.928 -0.1432 -0.2546 -0.0302
  479SOL    HW1 1493   2.144   3.314   1.915 -0.3401 -0.9806  0.8399
  479SOL    HW2 1494   2.059   3.385   2.019 -1.0694 -0.9498  0.2305
  480SOL     OW 1495   2.429   2.060   0.555  0.0836  0.6291 -0.7551
  480SOL    HW1 1496   2.482   2.104   0.621 -0.8143 -0.0207  0.4357
  480SOL    HW2 1497   2.379   2.130   0.514  1.7714  1.2500 -1.8718
  481SOL     OW 1498   2.723   2.457   3.476  0.2760  0.4748 -0.1336
  481SOL    HW1 1499   2.786   2.411   3.531 -1.3068 -0.7510  0.7319
  481SOL    HW2 1500   2.660   2.390   3.449 -1.2481  1.8299 -0.1121
  482SOL     OW 1501   4.073   1.844   3.167  0.5259 -0.5946  0.5699
  482SOL    HW1 1502   4.030   1.777   3.219  1.1549 -1.1504  0.3921
  482SOL    HW2 1503   4.161   1.851   3.205  0.1657  0.8176  1.1947
  483SOL     OW 1504   2.953   1.699   0.306 -0.2206  0.0578 -0.2177
  483SOL    HW1 1505   2.909   1.624   0.266 -0.2442 -0.1396  0.1764
  483SOL    HW2 1506   3.042   1.695   0.271  0.3504 -1.2964  1.2742
  484SOL     OW 1507   4.788   4.266   3.685 -0.3942 -0.2053  0.4275
  484SOL    HW1 1508   4.825   4.350   3.712 -0.7829 -0.4029  1.6365
  484SOL    HW2 1509   4.748   4.284   3.600  0.2111  0.6343  0.3066
  485SOL     OW 1510   4.129   0.865   4.230 -0.0224  0.4235 -0.0094
  485SOL    HW1 1511   4.195   0.841   4.296  0.0184 -1.0245 -0.5455
  485SOL    HW2 1512   4.167   0.839   4.147 -0.5995  1.0941 -0.5001
  486SOL     OW 1513   2.527   2.960   0.288  0.0399  0.0128 -0.0828
  486SOL    HW1 1514   2.576   2.900   0.232  1.7601  1.0578  0.2331
  486SOL    HW2 1515   2.544   3.047   0.252 -0.3823  0.5294  0.9208
  487SOL     OW 1516   1.847   2.222   4.288  0.4602 -0.1659  0.3798
  487SOL    HW1 1517   1.802   2.277   4.352  0.0618 -0.3716  0.2761
  487SOL    HW2 1518   1.860   2.138   4.333 -1.3863 -0.9106 -0.3836
  488SOL     OW 1519   4.642   2.786   4.061 -0.8312 -0.7552  0.6077
  488SOL    HW1 1520   4.572   2.753   4.006 -0.9162 -2.7308  1.8199
  488SOL    HW2 1521   4.653   2.720   4.130 -0.5540  1.4364  2.8291
  489SOL     OW 1522   3.612   3.186   1.367 -0.5687  0.0105  0.0272
  489SOL    HW1 1523   3.529   3.170   1.322 -0.9371  2.5067 -0.3239
  489SOL    HW2 1524   3.659   3.247   1.310  1.5383 -1.2819  0.2598
  490SOL     OW 1525   1.677   4.294   2.785 -0.5441  0.0530 -0.0956
  490SOL    HW1 1526   1.597   4.313   2.735 -0.6279 -1.2775 -0.4945
  490SOL    HW2 1527   1.672   4.201   2.804  0.5821  0.1003  0.4845
  491SOL     OW 1528   0.131   0.284   2.907  0.2453  0.7549 -0.3955
  491SOL    HW1 1529   0.181   0.361   2.880 -2.2949  2.6682 -0.0214
  491SOL    HW2 1530   0.090   0.252   2.827  2.3395 -1.2045 -0.8243
  492SOL     OW 1531   3.767   3.037   1.097  0.0030 -0.2115 -0.3284
  492SOL    HW1 1532   3.850   3.025   1.143  0.3537  0.7594 -0.6686
  492SOL    HW2 1533   3.753   3.131   1.099 -1.4009 -0.4189  0.2276
  493SOL     OW 1534   2.853   4.855   1.367 -0.0177  0.3583  0.4337
  493SOL    HW1 1535   2.809   4.919   1.311 -1.4118 -1.0088 -0.0950
  493SOL    HW2 1536   2.906   4.803   1.306  0.0723  0.1654  0.6785
  494SOL     OW 1537   3.335   0.793   3.688  0.4428 -0.3094 -0.2979
  494SOL    HW1 1538   3.362   0.877   3.724  0.4530 -0.2276 -0.4954
  494SOL    HW2 1539   3.384   0.728   3.738 -1.0949 -0.3158  1.2745
  495SOL     OW 1540   2.487   4.039   2.033  0.5202 -0.1105 -0.1338
  495SOL    HW1 1541   2.535   4.037   1.950 -0.3082 -0.1954 -0.6233
  495SOL    HW2 1542   2.418   4.104   2.019 -0.0877 -0.6670  0.2229
  496SOL     OW 1543   1.123   3.837   4.531  0.1110 -0.0811  0.0284
  496SOL    HW1 1544   1.058   3.808   4.466 -1.0634  0.3623  0.9631
  496SOL    HW2 1545   1.122   3.768   4.597  0.5041 -0.0065  0.1114
  497SOL     OW 1546   1.260   2.914   4.402 -0.2402 -0.4308 -0.2951
  497SOL    HW1 1547   1.234   2.922   4.310 -1.7005 -1.4280 -0.0064
  497SOL    HW2 1548   1.180   2.887   4.447  0.7629 -1.2524  1.0635
  498SOL     OW 1549   0.129   1.658   1.145 -0.3997  0.3582  0.2218
  498SOL    HW1 1550   0.048   1.703   1.170 -0.1403  1.5779 -1.0087
  498SOL    HW2 1551   0.100   1.582   1.095 -0.7798  0.6803 -0.0457
  499SOL     OW 1552   2.615   1.819   3.321 -0.0089  0.1177  0.0324
  499SOL    HW1 1553   2.699   1.800   3.278 -0.1412  1.7507 -1.0248
  499SOL    HW2 1554   2.639   1.874   3.396 -0.0218 -0.5967  0.5710
  500SOL     OW 1555   4.328   4.371   4.807  0.2730  0.4513 -0.1175
  500SOL    HW1 1556   4.239   4.381   4.773  0.2734  0.9065  0.0117
  500SOL    HW2 1557   4.316   4.337   4.896  0.2586 -0.2762 -0.3882
  501SOL     OW 1558   0.611   4.510   3.703  0.1671  0.4546 -0.5695
  501SOL    HW1 1559   0.519   4.534   3.709  0.5851  2.0300  0.1703
  501SOL    HW2 1560   0.615   4.446   3.632 -1.8145 -1.4961  0.9680
  502SOL     OW 1561   4.140   3.067   4.796 -0.5229  0.4352  0.0321
  502SOL    HW1 1562   4.183   3.027   4.720 -0.3892  2.9427 -1.3512
  502SOL    HW2 1563   4.183   3.027   4.872  0.1674 -1.3193 -1.2249
  503SOL     OW 1564   2.831   2.338   1.185 -0.0579 -0.1438  0.1110
  503SOL    HW1 1565   2.775   2.292   1.248 -1.1245 -0.6642 -1.1557
  503SOL    HW2 1566   2.798   2.428   1.185 -0.6244 -0.3462 -0.3122
  504SOL     OW 1567   2.432   0.257   2.819 -0.2771  0.3567 -0.3783
  504SOL    HW1 1568   2.416   0.193   2.889 -1.2001  2.8441  1.8642
  504SOL    HW2 1569   2.526   0.249   2.800 -0.4010 -1.7378 -0.3311
  505SOL     OW 1570   2.074   2.896   0.940  0.0264  0.6894  0.7258
  505SOL    HW1 1571   2.141   2.828   0.944 -0.1777  0.4136 -0.2902
  505SOL    HW2 1572   2.123   2.977   0.923  0.1227  0.5118  0.1382
  506SOL     OW 1573   0.410   0.051   2.188  0.9251  0.2178  0.2042
  506SOL    HW1 1574   0.415   0.109   2.112 -0.2220 -1.7927 -1.5240
  506SOL    HW2 1575   0.501   0.025   2.204  1.2910  1.4188  0.1553
  507SOL     OW 1576   4.269   0.590   3.086 -0.2866  0.0413  0.4726
  507SOL    HW1 1577   4.285   0.542   3.168  0.5428 -0.5563 -0.0285
  507SOL    HW2 1578   4.228   0.672   3.115 -1.9176 -1.0127  1.3325
  508SOL     OW 1579   3.572   2.521   0.884  0.1069  0.5785 -0.2096
  508SOL    HW1 1580   3.637   2.544   0.818  0.5308  0.7915  0.2790
  508SOL    HW2 1581   3.532   2.440   0.851  1.6426 -0.3953  0.2051
  509SOL     OW 1582   1.606   2.680   2.932 -0.1442  0.2883 -0.0922
  509SOL    HW1 1583   1.694   2.713   2.951  0.3783 -1.5313  0.9549
  509SOL    HW2 1584   1.547   2.741   2.977  0.8368 -0.8887  3.0638
  510SOL     OW 1585   2.464   1.612   3.884  0.0420  0.3231 -0.0004
  510SOL    HW1 1586   2.532   1.559   3.842 -0.4311  0.2204 -0.6449
  510SOL    HW2 1587   2.394   1.550   3.904 -0.6747  0.7506 -1.0959
  511SOL     OW 1588   4.556   1.417   0.278  0.5092 -0.3841  0.4016
  511SOL    HW1 1589   4.581   1.464   0.358 -0.4934  2.2216 -0.6953
  511SOL    HW2 1590   4.467   1.448   0.260  1.5480  1.0192 -2.9856
  512SOL     OW 1591   4.357   4.796   0.669  0.0739  0.3624  0.2097
  512SOL    HW1 1592   4.362   4.836   0.755 -0.3191  1.2125 -0.1466
  512SOL    HW2 1593   4.423   4.728   0.670  1.2137  1.4349  0.6316
  513SOL     OW 1594   3.293   3.605   4.327  0.2981 -0.3852 -0.7767
  513SOL    HW1 1595   3.287   3.521   4.373  0.1275 -0.3449 -0.7241
  513SOL    HW2 1596   3.371   3.597   4.272  1.9449  0.4562  1.3030
  514SOL     OW 1597   0.774   2.096   1.336  0.0268 -0.4308  0.3670
  514SOL    HW1 1598   0.705   2.030   1.329  0.5672 -1.0635  0.8767
  514SOL    HW2 1599   0.730   2.179   1.322 -0.6897 -0.8902 -0.1654
  515SOL     OW 1600   0.467   0.646   0.062  0.0574  0.2458 -0.3903
  515SOL    HW1 1601   0.379   0.660   0.096  0.5875  0.4729  0.9267
  515SOL    HW2 1602   0.466   0.557   0.029 -0.0963 -0.4924  1.4879
  516SOL     OW 1603   0.647   2.996   0.908  0.1153  0.1667 -0.3702
  516SOL    HW1 1604   0.561   3.028   0.934 -0.0073  0.2792 -0.9224
  516SOL    HW2 1605   0.682   2.955   0.988 -0.7036 -0.4354 -0.3029
  517SOL     OW 1606   3.822   4.255   2.630 -0.5176 -0.2247  0.0114
  517SOL    HW1 1607   3.892   4.273   2.567 -0.0947 -0.8920  0.2827
  517SOL    HW2 1608   3.849   4.300   2.710 -0.8178  0.2190 -0.1325
  518SOL     OW 1609   3.933   0.525   0.810 -0.0268  0.4226  0.7255
  518SOL    HW1 1610   3.873   0.526   0.735  0.8061  0.2276  0.0520
  518SOL    HW2 1611   3.948   0.617   0.831  0.6842  0.5027 -0.1144
  519SOL     OW 1612   4.552   2.200   0.145  0.5913  0.5364  0.0514
  519SOL    HW1 1613   4.570   2.159   0.060  0.0408  1.4397 -0.5170
  519SOL    HW2 1614   4.635   2.241   0.170  0.8421  0.0036  0.1082
  520SOL     OW 1615   0.595   0.147   4.846 -0.1184 -0.8528 -0.2520
  520SOL    HW1 1616   0.672   0.132   4.791 -1.5865  2.0941 -3.4819
  520SOL    HW2 1617   0.534   0.078   4.820  0.3444 -1.4503  0.1950
  521SOL     OW 1618   1.545   1.389   1.723  0.3138  0.2840 -0.2546
  521SOL    HW1 1619   1.507   1.399   1.810 -0.9472 -1.1694 -0.5955
  521SOL    HW2 1620   1.516   1.467   1.675 -0.1152  0.4316  0.2318
  522SOL     OW 1621   2.822   0.937   4.572 -0.2142 -0.0695 -0.4528
  522SOL    HW1 1622   2.868   0.937   4.488 -0.9880 -0.2020 -0.8878
  522SOL    HW2 1623   2.730   0.950   4.549 -0.2709  1.4503  0.4725
  523SOL     OW 1624   4.891   1.919   1.712  0.0689 -0.7463  0.0995
  523SOL    HW1 1625   4.815   1.877   1.751  1.8532 -2.3196  2.0620
  523SOL    HW2 1626   4.922   1.980   1.779 -0.2841  1.0492 -1.2811
  524SOL     OW 1627   4.954   1.569   0.135  0.0668  0.1540 -0.2966
  524SOL    HW1 1628   5.001   1.651   0.151  0.4500  0.1624 -1.4211
  524SOL    HW2 1629   4.895   1.589   0.063 -0.9197 -0.1579  0.3987
  525SOL     OW 1630   4.907   0.351   3.706  0.1242 -0.4637 -0.1716
  525SOL    HW1 1631   4.903   0.382   3.797 -0.1658  1.0979 -0.6871
  525SOL    HW2 1632   4.891   0.257   3.712  1.0104 -0.5459  1.4747
  526SOL     OW 1633   3.418   0.974   3.013 -0.1888 -0.2011 -0.1135
  526SOL    HW1 1634   3.371   1.058   3.009 -0.2234 -0.1966  0.3144
  526SOL    HW2 1635   3.510   0.999   3.017 -0.1752 -0.1964 -0.4377
  527SOL     OW 1636   0.477   4.833   0.562  0.7111 -0.0421 -0.0020
  527SOL    HW1 1637   0.552   4.833   0.502  1.2036 -0.4655  0.6016
  527SOL    HW2 1638   0.472   4.743   0.594 -1.3274 -0.5842 -1.5646
  528SOL     OW 1639   2.919   2.262   2.415  0.2217  0.3870 -0.4294
  528SOL    HW1 1640   2.917   2.184   2.358 -0.5929  1.6121 -2.1600
  528SOL    HW2 1641   2.828   2.291   2.419  0.2795  0.4470  1.4200
  529SOL     OW 1642   2.118   4.221   3.660 -0.5368 -0.6054  0.2646
  529SOL    HW1 1643   2.138   4.264   3.743  0.5087  1.9704 -1.1855
  529SOL    HW2 1644   2.024   4.203   3.664 -0.8333  0.9653  1.4049
  530SOL     OW 1645   0.097   1.135   2.358  0.2440 -0.3731  0.0317
  530SOL    HW1 1646   0.100   1.103   2.448  0.0580  0.2350  0.2584
  530SOL    HW2 1647   0.188   1.139   2.331  0.3039 -0.5111  0.2138
  531SOL     OW 1648   2.427   1.592   1.626  0.4552  0.1319  0.8512
  531SOL    HW1 1649   2.504   1.616   1.574 -1.5982 -0.2016 -2.6813
  531SOL    HW2 1650   2.377   1.673   1.635 -1.2976 -0.5355 -1.7229
  532SOL     OW 1651   2.145   3.897   0.643 -0.2516 -0.0667  0.3333
  532SOL    HW1 1652   2.122   3.970   0.701  1.8448  0.7759  0.2010
  532SOL    HW2 1653   2.097   3.823   0.678 -1.3055  1.0561  1.3744
  533SOL     OW 1654   0.811   1.168   3.741 -0.3469 -0.5676  0.4229
  533SOL    HW1 1655   0.795   1.243   3.798  1.4417  0.8012 -0.7748
  533SOL    HW2 1656   0.731   1.159   3.689  0.2540  2.1930 -1.1866
  534SOL     OW 1657   1.650   4.111   3.855 -0.1116  0.3628 -0.2139
  534SOL    HW1 1658   1.577   4.146   3.907 -0.0765 -0.7759  0.6562
  534SOL    HW2 1659   1.615   4.105   3.766 -0.1848  2.3237 -0.3491
  535SOL     OW 1660   0.597   2.709   3.516 -0.0443 -0.4418  0.1124
  535SOL    HW1 1661   0.575   2.618   3.497  0.3771 -0.4906 -0.1699
  535SOL    HW2 1662   0.513   2.755   3.516 -0.1408 -0.5613 -1.2875
  536SOL     OW 1663   2.214   0.477   2.273 -0.2750  0.2595 -0.0132
  536SOL    HW1 1664   2.219   0.573   2.266  0.9911  0.5059  2.9628
  536SOL    HW2 1665   2.262   0.446   2.196  0.6224  2.0469 -0.2360
  537SOL     OW 1666   1.923   4.804   1.972 -0.1840 -0.2736 -0.3454
  537SOL    HW1 1667   1.835   4.839   1.983 -0.2668 -0.6506  0.1695
  537SOL    HW2 1668   1.919   4.755   1.890 -0.1479  0.6519 -0.9198
  538SOL     OW 1669   1.647   1.036   2.956 -0.0552 -0.3768 -0.6527
  538SOL    HW1 1670   1.662   0.976   3.029 -1.8651 -0.7616 -0.5459
  538SOL    HW2 1671   1.571   1.087   2.982 -0.1725  0.1146 -1.8761
  539SOL     OW 1672   2.077   1.672   4.206 -0.0202 -0.1251 -0.1897
  539SOL    HW1 1673   2.103   1.745   4.263  0.5126 -1.1173  0.8660
  539SOL    HW2 1674   2.124   1.596   4.241 -3.9669 -1.9994  1.6504
  540SOL     OW 1675   3.726   3.293   3.846  0.4226  0.2470  0.3598
  540SOL    HW1 1676   3.783   3.325   3.775 -0.2663  1.1022  0.1795
  540SOL    HW2 1677   3.638   3.315   3.817  0.1746  1.4216  1.8812
  541SOL     OW 1678   1.073   1.630   1.987 -0.3060 -0.1568 -0.3449
  541SOL    HW1 1679   1.165   1.629   2.015 -0.4231  1.5207  0.1623
  541SOL    HW2 1680   1.040   1.543   2.012  1.1308 -0.7998 -0.5568
  542SOL     OW 1681   3.848   0.267   3.968  0.1597  0.5023 -1.0121
  542SOL    HW1 1682   3.893   0.288   4.050 -0.7348 -2.3685  0.3566
  542SOL    HW2 1683   3.759   0.300   3.981 -0.6937 -2.0372  0.3331
  543SOL     OW 1684   0.450   3.881   2.800 -0.3341 -0.2779  0.3609
  543SOL    HW1 1685   0.368   3.838   2.775  0.3942 -1.9289  0.6494
  543SOL    HW2 1686   0.460   3.952   2.737 -0.6398 -1.7336 -1.4083
  544SOL     OW 1687   4.547   1.967   0.447  0.0585 -0.3585 -0.2457
  544SOL    HW1 1688   4.519   2.055   0.420  1.3854  0.1350 -0.0726
  544SOL    HW2 1689   4.589   1.980   0.532 -0.7577 -1.3480  0.3339
  545SOL     OW 1690   3.457   4.763   0.942  0.3943  0.0303  0.3466
  545SOL    HW1 1691   3.464   4.858   0.940 -0.0965  0.0526 -0.3638
  545SOL    HW2 1692   3.547   4.732   0.927  0.5282  0.3767  0.4340
  546SOL     OW 1693   3.520   0.770   3.251 -0.1699 -0.3844  0.4036
  546SOL    HW1 1694   3.523   0.756   3.345  0.8028 -2.0200  0.1727
  546SOL    HW2 1695   3.597   0.824   3.232 -1.8533  2.3663  0.8192
  547SOL     OW 1696   2.176   1.259   1.745  0.1798  0.6743 -0.5343
  547SOL    HW1 1697   2.200   1.307   1.824 -0.4148  2.0142 -1.1350
  547SOL    HW2 1698   2.103   1.203   1.773 -0.0204  1.1310 -0.1173
  548SOL     OW 1699   0.884   0.627   4.669  0.0714 -0.4560  0.5409
  548SOL    HW1 1700   0.842   0.712   4.655 -1.8332 -1.1976  1.3607
  548SOL    HW2 1701   0.912   0.599   4.581  0.0820  0.6924  0.1711
  549SOL     OW 1702   0.346   3.474   4.548  0.3206  0.4410 -0.1046
  549SOL    HW1 1703   0.292   3.397   4.567  1.7268 -0.0590  2.4542
  549SOL    HW2 1704   0.421   3.438   4.500  0.7942  0.2381  0.7631
  550SOL     OW 1705   0.992   0.083   3.475  0.2842 -0.2167 -0.2083
  550SOL    HW1 1706   0.898   0.099   3.464  0.4188  0.1885 -0.8763
  550SOL    HW2 1707   1.024   0.069   3.386  1.2116  1.7282 -0.2532
  551SOL     OW 1708   4.351   1.282   0.475 -0.0796  0.3724 -0.5548
  551SOL    HW1 1709   4.439   1.320   0.474  0.8384 -1.6372 -0.8083
  551SOL    HW2 1710   4.357   1.208   0.535 -1.4251 -0.1855 -1.0663
  552SOL     OW 1711   1.365   4.262   0.622  0.0744 -0.1188 -0.3025
  552SOL    HW1 1712   1.309   4.325   0.577  0.5959  1.2183  0.8493
  552SOL    HW2 1713   1.381   4.301   0.707 -0.3368 -2.2642  0.8346
  553SOL     OW 1714   0.485   4.449   3.205  0.1977  0.2167 -0.0754
  553SOL    HW1 1715   0.506   4.361   3.173 -0.6133  0.1371 -0.4268
  553SOL    HW2 1716   0.395   4.464   3.176  0.1732  0.9906  0.3677
  554SOL     OW 1717   2.098   0.204   1.267 -0.3917  0.0038  0.0342
  554SOL    HW1 1718   2.167   0.141   1.286  0.5207  0.9562 -0.0907
  554SOL    HW2 1719   2.018   0.161   1.298  0.3756 -0.6627  1.1460
  555SOL     OW 1720   1.483   0.962   3.681  0.3858 -0.3147  0.5137
  555SOL    HW1 1721   1.458   0.999   3.766  1.4974  2.0965 -0.1144
  555SOL    HW2 1722   1.410   0.984   3.623  0.7585  0.3810  0.2910
  556SOL     OW 1723   3.365   0.163   1.911  0.2819 -0.3255  0.0666
  556SOL    HW1 1724   3.305   0.089   1.923 -0.5630  0.5026  1.1211
  556SOL    HW2 1725   3.450   0.122   1.897 -0.1879 -1.5051  0.5071
  557SOL     OW 1726   2.141   3.960   3.996 -0.0552  0.8179  0.1262
  557SOL    HW1 1727   2.057   3.957   3.950 -0.3924  0.1884  0.7599
  557SOL    HW2 1728   2.133   4.032   4.058  0.0075  0.9917 -0.0680
  558SOL     OW 1729   3.201   1.948   1.842  0.4852 -0.1467  0.5010
  558SOL    HW1 1730   3.294   1.966   1.833  0.1435  1.0037 -1.2841
  558SOL    HW2 1731   3.168   1.944   1.752 -0.9741 -1.9132  1.0295
  559SOL     OW 1732   1.504   0.606   2.946 -0.4286  0.3409  0.3478
  559SOL    HW1 1733   1.497   0.561   3.030  0.4545 -1.1146 -0.3242
  559SOL    HW2 1734   1.414   0.615   2.915 -0.5957 -1.8142  0.0995
  560SOL     OW 1735   1.171   2.639   1.146  0.1707  0.4729 -0.0248
  560SOL    HW1 1736   1.265   2.658   1.136  0.5854 -1.0752  0.7251
  560SOL    HW2 1737   1.166   2.579   1.220 -1.1099 -1.8264 -1.8525
  561SOL     OW 1738   0.347   3.405   3.701 -0.0879 -0.2980 -0.1172
  561SOL    HW1 1739   0.434   3.381   3.667 -0.0790 -0.6480  0.1481
  561SOL    HW2 1740   0.364   3.480   3.758  0.2611 -1.2613  1.0944
  562SOL     OW 1741   2.702   3.423   1.386  0.2686 -0.7850 -0.3306
  562SOL    HW1 1742   2.633   3.485   1.409  0.3112  0.0559 -2.2987
  562SOL    HW2 1743   2.773   3.443   1.447  0.1772  0.9315 -0.7319
  563SOL     OW 1744   2.642   4.819   0.298  0.4877  0.3525 -0.1013
  563SOL    HW1 1745   2.601   4.732   0.303 -0.4860  0.8355  0.6054
  563SOL    HW2 1746   2.659   4.832   0.204  0.4231 -0.4992 -0.2386
  564SOL     OW 1747   2.229   1.091   1.343 -0.3805  0.0453 -0.7846
  564SOL    HW1 1748   2.148   1.139   1.325 -0.7191 -0.3577 -0.3484
  564SOL    HW2 1749   2.264   1.131   1.422  0.8149  1.4392 -1.9581
  565SOL     OW 1750   4.656   2.230   4.031 -0.1458  0.0904 -0.0856
  565SOL    HW1 1751   4.588   2.165   4.016 -0.1462  0.3929 -1.5242
  565SOL    HW2 1752   4.718   2.217   3.959  0.2362  1.1932  0.0248
  566SOL     OW 1753   2.662   0.604   3.234  0.2294 -0.1261  0.1044
  566SOL    HW1 1754   2.578   0.623   3.192  0.0655 -0.4040  0.3043
  566SOL    HW2 1755   2.707   0.545   3.173  0.2786  0.0207 -0.0013
  567SOL     OW 1756   1.807   2.598   4.387  0.4076  0.2545 -0.1825
  567SOL    HW1 1757   1.824   2.606   4.293 -1.1374 -2.2978 -0.7825
  567SOL    HW2 1758   1.791   2.688   4.417  1.7263  1.2068 -2.1550
  568SOL     OW 1759   4.886   1.780   2.659  0.4179 -0.1385  0.5956
  568SOL    HW1 1760   4.953   1.712   2.670 -1.4015 -2.1112 -0.0396
  568SOL    HW2 1761   4.822   1.742   2.599 -0.0738  2.6293 -0.7836
  569SOL     OW 1762   1.852   1.011   3.741  0.1718  1.1219 -0.1615
  569SOL    HW1 1763   1.768   1.033   3.782  0.2467  1.4492 -0.1873
  569SOL    HW2 1764   1.838   1.028   3.647 -0.3506 -0.6499 -0.4427
  570SOL     OW 1765   2.528   2.158   2.184  0.3211  0.9081 -0.2179
  570SOL    HW1 1766   2.504   2.241   2.224  1.5849  0.3476  1.7948
  570SOL    HW2 1767   2.621   2.166   2.164  0.7442 -0.4211  1.0846
  571SOL     OW 1768   4.503   3.033   3.208 -0.3453 -0.2595  0.1045
  571SOL    HW1 1769   4.421   3.003   3.169 -1.1175  0.2113  1.3135
  571SOL    HW2 1770   4.486   3.034   3.302  1.3142 -0.9087  0.4442
  572SOL     OW 1771   1.642   2.266   1.743  0.1020 -0.3805  0.2217
  572SOL    HW1 1772   1.716   2.228   1.790  0.2152 -1.0023 -0.4342
  572SOL    HW2 1773   1.683   2.323   1.677 -0.0048 -0.4596  0.0851
  573SOL     OW 1774   0.642   1.976   2.003  0.4798  0.6449  0.4072
  573SOL    HW1 1775   0.599   2.060   2.020 -0.0871 -0.1780  3.6923
  573SOL    HW2 1776   0.570   1.915   1.988  0.5526 -0.1029  2.7385
  574SOL     OW 1777   3.429   3.135   2.792 -0.0786 -0.3404  0.4876
  574SOL    HW1 1778   3.461   3.215   2.750 -0.9244 -0.7987 -1.1070
  574SOL    HW2 1779   3.438   3.068   2.724 -1.4251 -1.1307  1.0664
  575SOL     OW 1780   3.090   1.882   2.075  0.1363  1.0560  0.2998
  575SOL    HW1 1781   3.063   1.791   2.071  2.0643  0.2940  2.5544
  575SOL    HW2 1782   3.125   1.901   1.988  1.6355 -1.0265  0.4041
  576SOL     OW 1783   3.343   0.771   0.167 -0.5561 -0.2333 -0.6164
  576SOL    HW1 1784   3.285   0.763   0.243  0.5114  2.4527  0.6279
  576SOL    HW2 1785   3.415   0.711   0.185 -0.7519 -0.2714  0.0516
  577SOL     OW 1786   0.453   3.834   4.013  0.1254  0.6037  0.1875
  577SOL    HW1 1787   0.411   3.837   3.927 -0.5674  1.6846  0.5504
  577SOL    HW2 1788   0.500   3.917   4.019  0.7753  0.2182  0.5649
  578SOL     OW 1789   0.759   4.981   0.556  0.0540  0.0570 -0.3925
  578SOL    HW1 1790   0.846   4.967   0.517 -0.6041 -2.2535 -1.2407
  578SOL    HW2 1791   0.749   4.909   0.618 -0.5403  1.3784  1.0873
  579SOL     OW 1792   4.868   0.452   3.288  0.4276 -0.2812 -0.1572
  579SOL    HW1 1793   4.933   0.430   3.355  0.6339  0.6275 -0.0506
  579SOL    HW2 1794   4.884   0.389   3.218 -0.2395 -1.7058  0.8988
  580SOL     OW 1795   2.281   0.035   4.028 -0.4817  0.2986  0.5182
  580SOL    HW1 1796   2.321   0.042   3.942 -0.3726 -1.0238  0.4433
  580SOL    HW2 1797   2.350   0.000   4.085 -1.0312 -0.4508  0.7469
  581SOL     OW 1798   0.083   3.301   3.449  0.5296 -0.5487 -0.2942
  581SOL    HW1 1799   0.171   3.266   3.438  0.7379  0.0313 -0.5112
  581SOL    HW2 1800   0.048   3.308   3.360  0.5755  0.0004 -0.2709
  582SOL     OW 1801   1.187   1.291   4.757  0.4089 -0.2066  0.5524
  582SOL    HW1 1802   1.265   1.333   4.793  0.0005  0.9556  0.1149
  582SOL    HW2 1803   1.159   1.231   4.826  0.0565  1.4410  1.9152
  583SOL     OW 1804   4.317   2.346   1.533 -0.0622 -0.0430 -0.3891
  583SOL    HW1 1805   4.349   2.367   1.620  1.8809 -1.9253 -0.5757
  583SOL    HW2 1806   4.380   2.386   1.473 -0.8773  0.4694 -0.9312
  584SOL     OW 1807   2.623   2.922   2.815 -0.1353 -0.2288 -0.2324
  584SOL    HW1 1808   2.689   2.992   2.814  1.2338 -1.1980  3.8522
  584SOL    HW2 1809   2.671   2.843   2.790 -0.8366 -0.2979 -1.4173
  585SOL     OW 1810   4.392   1.570   3.053  0.5648  1.1568  0.5179
  585SOL    HW1 1811   4.345   1.578   3.136 -0.7198 -1.4191  0.1291
  585SOL    HW2 1812   4.328   1.532   2.993  2.4871 -0.4036 -0.6458
  586SOL     OW 1813   1.755   0.238   4.650  0.0627  0.1711 -0.0582
  586SOL    HW1 1814   1.847   0.233   4.676 -0.5418 -0.8729  2.0925
  586SOL    HW2 1815   1.728   0.327   4.672  0.5620  0.5360 -0.8526
  587SOL     OW 1816   2.024   0.713   4.545 -0.3301  0.1649  0.2852
  587SOL    HW1 1817   2.002   0.730   4.453 -0.3780  0.5397  0.3612
  587SOL    HW2 1818   2.021   0.618   4.553  1.7678 -0.0269 -0.6173
  588SOL     OW 1819   0.229   4.194   3.418 -0.2107  0.4554 -0.3253
  588SOL    HW1 1820   0.182   4.168   3.497  2.7803 -1.6213  0.9868
  588SOL    HW2 1821   0.270   4.278   3.440 -1.3683  1.1167 -0.6317
  589SOL     OW 1822   4.190   0.505   0.061  0.0194 -0.2532  0.0687
  589SOL    HW1 1823   4.221   0.532  -0.026  0.3521 -0.4398  0.1259
  589SOL    HW2 1824   4.238   0.424   0.079  1.4164  0.7584  1.2212
  590SOL     OW 1825   4.972   4.081   2.431 -0.6735  0.3401 -0.1022
  590SOL    HW1 1826   5.056   4.086   2.477 -0.0626 -0.8935 -1.0288
  590SOL    HW2 1827   4.914   4.137   2.482  0.3345  0.0937  1.3801
  591SOL     OW 1828   4.500   0.010   3.556  0.3457 -0.1711  0.2940
  591SOL    HW1 1829   4.439   0.016   3.482  1.1844 -0.8097 -0.4640
  591SOL    HW2 1830   4.456   0.057   3.627 -0.3431  0.7255 -0.6960
  592SOL     OW 1831   3.703   3.844   2.070  0.7229 -0.3724 -0.1176
  592SOL    HW1 1832   3.675   3.788   2.142 -2.3406  0.2294 -0.7038
  592SOL    HW2 1833   3.739   3.922   2.112 -0.6566 -0.2036  0.8096
  593SOL     OW 1834   1.946   2.462   0.799 -0.3410  0.3190  0.0516
  593SOL    HW1 1835   1.960   2.438   0.891  0.9647  1.5571  0.2226
  593SOL    HW2 1836   1.904   2.548   0.804 -1.4108 -0.1650 -0.5194
  594SOL     OW 1837   2.636   4.295   2.451  0.3145 -0.3459  0.1078
  594SOL    HW1 1838   2.647   4.261   2.540 -0.0665 -0.0048  0.2856
  594SOL    HW2 1839   2.596   4.381   2.463 -0.7172 -0.7387 -0.4454
  595SOL     OW 1840   2.287   0.388   0.617 -0.1766 -0.0169 -0.6304
  595SOL    HW1 1841   2.368   0.440   0.613 -1.0151  1.3222 -0.7802
  595SOL    HW2 1842   2.298   0.334   0.695  1.6573 -1.2654 -1.6684
  596SOL     OW 1843   4.397   2.445   1.172  0.6010  0.1624  0.4330
  596SOL    HW1 1844   4.441   2.485   1.248 -1.3840 -1.2178  2.4508
  596SOL    HW2 1845   4.417   2.352   1.180  2.2333  0.1852 -2.1548
  597SOL     OW 1846   4.352   1.173   3.673  1.0330  0.6919 -0.6086
  597SOL    HW1 1847   4.325   1.133   3.590 -0.2246 -1.3060  0.7002
  597SOL    HW2 1848   4.275   1.223   3.701  0.6193 -0.4532  0.3918
  598SOL     OW 1849   0.817   1.454   1.642  0.5426 -0.7409 -0.1229
  598SOL    HW1 1850   0.826   1.549   1.633 -0.2294 -0.7534 -1.1606
  598SOL    HW2 1851   0.833   1.438   1.735  0.9789  0.3643  0.0167
  599SOL     OW 1852   0.372   4.116   4.661  0.5153 -0.2299 -0.4059
  599SOL    HW1 1853   0.343   4.081   4.577  1.3671  2.2244 -1.7937
  599SOL    HW2 1854   0.436   4.052   4.693  0.8718 -0.7408 -2.0704
  600SOL     OW 1855   1.545   2.485   3.920  0.4841  0.6086 -0.0097
  600SOL    HW1 1856   1.538   2.468   4.014  1.2279  2.0574  0.3390
  600SOL    HW2 1857   1.605   2.419   3.888 -0.8076 -0.7431  0.2625
  601SOL     OW 1858   0.254   0.541   4.703  0.2246  0.8924 -0.1131
  601SOL    HW1 1859   0.345   0.543   4.674  0.7407 -0.4526  1.2999
  601SOL    HW2 1860   0.204   0.534   4.621  1.4954 -0.3426 -0.8423
  602SOL     OW 1861   1.762   1.339   0.827  0.4354 -0.0679 -0.2305
  602SOL    HW1 1862   1.744   1.361   0.736  1.2163 -2.9043 -1.1845
  602SOL    HW2 1863   1.695   1.273   0.849  0.4896  0.3035  1.1464
  603SOL     OW 1864   4.773   4.197   1.031  0.2779  0.0023  0.5079
  603SOL    HW1 1865   4.724   4.131   1.079  0.1027 -0.9113 -0.8823
  603SOL    HW2 1866   4.716   4.275   1.033 -0.8141 -0.7450 -0.2348
  604SOL     OW 1867   1.929   4.562   4.186  0.3099 -0.2519 -0.6846
  604SOL    HW1 1868   1.945   4.634   4.247 -1.4232  1.6294 -2.2756
  604SOL    HW2 1869   2.002   4.503   4.199  2.3673  2.2612  0.1004
  605SOL     OW 1870   3.720   1.388   3.501 -0.6199 -0.3971 -0.2133
  605SOL    HW1 1871   3.763   1.335   3.568 -2.1571 -0.4490  0.7785
  605SOL    HW2 1872   3.678   1.325   3.443 -1.4690 -0.3135  0.2935
  606SOL     OW 1873   4.768   3.704   1.606 -0.8446 -0.1963  0.1622
  606SOL    HW1 1874   4.833   3.635   1.596 -0.3121  0.2839  0.2811
  606SOL    HW2 1875   4.712   3.675   1.678 -0.8785 -0.6978 -0.0656
  607SOL     OW 1876   0.856   0.179   4.702  0.0361  0.5142  0.0183
  607SOL    HW1 1877   0.946   0.156   4.725  0.5219  0.9140 -1.3783
  607SOL    HW2 1878   0.857   0.189   4.607 -1.1607  1.8894  0.1043
  608SOL     OW 1879   2.605   1.272   3.496 -0.1960 -0.1906 -0.4067
  608SOL    HW1 1880   2.541   1.202   3.506 -0.2195 -0.2035 -0.6420
  608SOL    HW2 1881   2.689   1.229   3.505 -0.2152  0.0774  1.6027
  609SOL     OW 1882   1.472   3.361   0.610  0.3872  0.0517 -0.3694
  609SOL    HW1 1883   1.488   3.426   0.542  1.9790 -0.1878 -0.2617
  609SOL    HW2 1884   1.491   3.277   0.568  1.2384 -0.1094  0.3086
  610SOL     OW 1885   2.846   4.527   3.562 -0.6059 -0.0200 -0.1904
  610SOL    HW1 1886   2.921   4.470   3.582 -1.0230 -0.3127  0.5863
  610SOL    HW2 1887   2.774   4.491   3.614 -0.9358  1.0824  0.1548
  611SOL     OW 1888   3.241   1.370   4.981  0.0337  0.3612  0.1290
  611SOL    HW1 1889   3.203   1.353   4.895  0.5576 -0.7041  0.0879
  611SOL    HW2 1890   3.333   1.343   4.971  0.5435  1.8815  0.5217
  612SOL     OW 1891   3.203   3.614   2.576 -0.0667 -0.1889 -0.4224
  612SOL    HW1 1892   3.127   3.666   2.548 -0.9501 -0.0805  1.9784
  612SOL    HW2 1893   3.186   3.594   2.668  1.1254 -3.2166 -0.7528
  613SOL     OW 1894   4.470   2.118   2.166  0.5196 -0.4628 -0.4769
  613SOL    HW1 1895   4.417   2.088   2.092 -0.1020 -2.0820  0.5677
  613SOL    HW2 1896   4.414   2.105   2.242  1.9002 -0.8589  0.5064
  614SOL     OW 1897   3.569   2.877   1.933 -0.6018 -0.1425 -0.2598
  614SOL    HW1 1898   3.650   2.827   1.919  0.5428  1.7276 -0.6260
  614SOL    HW2 1899   3.552   2.918   1.848 -1.1809  0.5501  0.1851
  615SOL     OW 1900   1.213   1.012   0.449  0.2095  0.5511 -0.2081
  615SOL    HW1 1901   1.207   0.922   0.483 -0.6963  0.6447 -0.0809
  615SOL    HW2 1902   1.122   1.042   0.446  0.6325  2.4872  2.5289
  616SOL     OW 1903   1.433   0.127   3.365 -0.1326  0.6187  0.0907
  616SOL    HW1 1904   1.375   0.158   3.434 -1.8132 -1.2352 -0.3795
  616SOL    HW2 1905   1.507   0.088   3.411 -1.3294 -0.7791  0.9478
  617SOL     OW 1906   0.686   3.162   4.120 -0.1818  0.2702 -0.3781
  617SOL    HW1 1907   0.735   3.169   4.038 -0.1242  1.5188 -0.2572
  617SOL    HW2 1908   0.654   3.251   4.137 -0.5372 -0.0510  0.7452
  618SOL     OW 1909   4.505   4.230   4.683  0.1150  0.1948  0.0058
  618SOL    HW1 1910   4.434   4.289   4.708 -0.9750 -0.5021 -1.2665
  618SOL    HW2 1911   4.522   4.250   4.591 -0.7269 -1.8342 -0.6572
  619SOL     OW 1912   1.255   1.147   0.125 -0.0098 -0.2034 -0.3628
  619SOL    HW1 1913   1.179   1.174   0.074 -0.4475  0.8246  0.7714
  619SOL    HW2 1914   1.219   1.099   0.199  0.3955  0.5733  0.3598
  620SOL     OW 1915   4.055   1.577   4.679  0.0965  0.2715 -0.0346
  620SOL    HW1 1916   4.110   1.507   4.643 -0.5448  0.3420 -1.1996
  620SOL    HW2 1917   3.996   1.532   4.740 -0.0094 -0.1443 -0.4346
  621SOL     OW 1918   2.193   2.148   2.110 -0.3171 -0.6241 -0.4435
  621SOL    HW1 1919   2.239   2.222   2.069 -0.0225 -0.4356  0.2205
  621SOL    HW2 1920   2.107   2.183   2.132 -1.2849 -1.3239 -2.8240
  622SOL     OW 1921   3.685   3.184   2.570  0.5218 -0.0416  0.1831
  622SOL    HW1 1922   3.775   3.150   2.563 -0.0906 -2.1480  1.4940
  622SOL    HW2 1923   3.631   3.115   2.530 -0.5553  1.0239 -0.2457
  623SOL     OW 1924   4.228   4.439   4.481 -0.2680  0.1076 -0.1793
  623SOL    HW1 1925   4.211   4.528   4.514 -0.0173  1.0739 -2.4844
  623SOL    HW2 1926   4.319   4.441   4.454  0.8589 -2.0104  2.8923
  624SOL     OW 1927   2.105   0.200   2.046 -0.1507  0.0165  0.0341
  624SOL    HW1 1928   2.098   0.133   1.978  1.9986  0.2906 -0.5540
  624SOL    HW2 1929   2.104   0.283   1.998  1.7823  0.2002  0.2059
  625SOL     OW 1930   3.957   4.142   1.856  0.2210  0.5800 -0.2381
  625SOL    HW1 1931   3.976   4.183   1.771  1.4929 -1.5660 -1.0623
  625SOL    HW2 1932   3.883   4.083   1.838  1.2742 -0.8012 -0.2140
  626SOL     OW 1933   0.396   2.103   2.347 -0.0271  0.1142 -0.0643
  626SOL    HW1 1934   0.490   2.105   2.366 -0.2786  0.7962  1.2679
  626SOL    HW2 1935   0.370   2.012   2.359  0.5539 -0.1767 -0.9642
  627SOL     OW 1936   1.494   2.955   2.004  0.6830 -0.1471 -0.8070
  627SOL    HW1 1937   1.443   3.025   1.964  0.2821  0.1549  0.2162
  627SOL    HW2 1938   1.428   2.896   2.041  1.0342 -0.7654 -1.1518
  628SOL     OW 1939   4.361   2.685   2.169 -0.0953  0.1846 -0.3613
  628SOL    HW1 1940   4.304   2.610   2.148 -0.3604  0.0991  0.6369
  628SOL    HW2 1941   4.309   2.740   2.227 -0.6319  2.1678 -2.5499
  629SOL     OW 1942   1.139   1.429   3.605  0.6801  0.1474 -0.1111
  629SOL    HW1 1943   1.142   1.368   3.678 -0.5313 -0.0286 -0.2027
  629SOL    HW2 1944   1.214   1.488   3.620 -0.8478  1.5890  2.5814
  630SOL     OW 1945   3.667   4.348   3.350  0.1526 -0.0584 -1.0211
  630SOL    HW1 1946   3.635   4.258   3.335  1.2338 -0.7238  0.4634
  630SOL    HW2 1947   3.589   4.402   3.338 -0.8444 -1.3313 -0.5703
  631SOL     OW 1948   4.553   0.564   0.142  0.0610 -0.0034 -0.8136
  631SOL    HW1 1949   4.490   0.609   0.085  0.1641  0.5788 -0.4649
  631SOL    HW2 1950   4.505   0.487   0.174 -1.2287  1.5034  1.1192
  632SOL     OW 1951   2.282   3.259   0.473  0.2253 -0.0488  0.3980
  632SOL    HW1 1952   2.280   3.163   0.476  1.2412 -0.0824  3.1464
  632SOL    HW2 1953   2.206   3.286   0.524 -0.8169  0.7047 -1.4487
  633SOL     OW 1954   4.665   4.118   2.010  0.7786 -0.9601  0.4691
  633SOL    HW1 1955   4.733   4.088   2.070  2.0759 -3.1009 -1.8746
  633SOL    HW2 1956   4.635   4.039   1.966 -0.7233  0.3849 -1.0939
  634SOL     OW 1957   4.644   2.724   0.139  0.1418 -0.2700 -0.6884
  634SOL    HW1 1958   4.699   2.793   0.101 -0.3707 -0.0191 -0.9880
  634SOL    HW2 1959   4.665   2.646   0.088  0.8425 -0.3803 -0.2439
  635SOL     OW 1960   2.605   1.744   4.112  0.2141 -0.2890  0.6932
  635SOL    HW1 1961   2.667   1.675   4.134  0.1402 -0.4786  0.3186
  635SOL    HW2 1962   2.561   1.713   4.033 -0.9018 -0.5032  1.3749
  636SOL     OW 1963   2.195   4.005   1.090 -0.2187  0.5400 -0.4588
  636SOL    HW1 1964   2.197   4.021   1.184 -1.2480  0.0239 -0.3319
  636SOL    HW2 1965   2.281   3.969   1.070 -0.3081 -0.2335  0.4617
  637SOL     OW 1966   2.258   2.795   1.611 -0.2884  0.4232 -0.2009
  637SOL    HW1 1967   2.350   2.787   1.634  0.6223  1.2300 -3.0517
  637SOL    HW2 1968   2.247   2.737   1.535 -2.1044  0.4713 -0.0309
  638SOL     OW 1969   3.425   1.596   3.921 -0.2972 -0.3196  0.1471
  638SOL    HW1 1970   3.504   1.600   3.866 -0.2235 -1.1923  0.1809
  638SOL    HW2 1971   3.419   1.683   3.960  0.5892 -0.2073  0.0562
  639SOL     OW 1972   3.065   1.304   1.877  0.0063  0.3711  0.5568
  639SOL    HW1 1973   3.064   1.228   1.818 -1.0323  1.2372 -0.5862
  639SOL    HW2 1974   2.974   1.335   1.877  0.9549  3.7407 -1.8874
  640SOL     OW 1975   3.148   4.579   3.477  0.1792 -0.2196  0.4781
  640SOL    HW1 1976   3.106   4.514   3.534 -0.5390  1.2437  1.7083
  640SOL    HW2 1977   3.150   4.659   3.530  1.2773  0.6995 -0.8811
  641SOL     OW 1978   1.476   4.953   1.223  0.8516  0.8206 -0.5440
  641SOL    HW1 1979   1.547   4.907   1.177  0.2703 -0.3464 -0.3336
  641SOL    HW2 1980   1.459   4.899   1.300  0.4629  1.6751 -0.0178
  642SOL     OW 1981   4.634   1.161   2.866  0.3497 -0.0199  0.1716
  642SOL    HW1 1982   4.639   1.215   2.945  1.4897  2.0833 -1.2359
  642SOL    HW2 1983   4.543   1.167   2.838  0.4321  1.1570  0.0989
  643SOL     OW 1984   3.993   4.561   1.534  0.2181  0.3513  0.0420
  643SOL    HW1 1985   3.972   4.473   1.565  0.9210 -0.4506 -1.5806
  643SOL    HW2 1986   3.976   4.618   1.608 -0.1414 -1.1737  1.1808
  644SOL     OW 1987   4.186   0.799   3.951  0.6510 -0.5589  0.3650
  644SOL    HW1 1988   4.252   0.729   3.956  0.7682 -0.4602  0.1704
  644SOL    HW2 1989   4.229   0.870   3.905  0.3315 -0.5766  0.0382
  645SOL     OW 1990   1.366   1.515   4.234  0.2449  0.4171 -0.1245
  645SOL    HW1 1991   1.318   1.500   4.316  1.7877 -0.0063  0.7231
  645SOL    HW2 1992   1.395   1.428   4.207  0.2732  0.6326 -0.8139
  646SOL     OW 1993   1.659   2.743   1.897  0.0589  0.1502 -0.2865
  646SOL    HW1 1994   1.600   2.808   1.934  1.6270  1.8947 -0.7139
  646SOL    HW2 1995   1.622   2.721   1.812 -2.0397 -1.7816  0.9919
  647SOL     OW 1996   4.919   4.599   2.035 -0.3004 -0.3807  0.1106
  647SOL    HW1 1997   4.918   4.507   2.062 -3.5312 -0.2211  1.0106
  647SOL    HW2 1998   4.836   4.612   1.990 -1.2145  2.6219  2.2746
  648SOL     OW 1999   2.126   0.927   3.729  0.4301 -0.1487 -0.4333
  648SOL    HW1 2000   2.035   0.954   3.745  0.5853  1.0292 -1.4025
  648SOL    HW2 2001   2.118   0.837   3.696 -0.3339 -0.2806  0.0770
  649SOL     OW 2002   0.871   0.759   1.026 -0.3980  0.3552  0.3797
  649SOL    HW1 2003   0.890   0.777   1.118 -0.6574 -3.7569  1.4126
  649SOL    HW2 2004   0.776   0.762   1.021 -0.3622  1.3125 -0.0007
  650SOL     OW 2005   1.390   3.966   3.467 -0.1935  0.9003  0.3928
  650SOL    HW1 2006   1.317   3.934   3.413 -0.7111  1.7730  0.5630
  650SOL    HW2 2007   1.399   3.900   3.536  0.6442 -0.3725 -0.8725
  651SOL     OW 2008   4.890   2.082   4.354 -0.1521 -0.3645  0.0603
  651SOL    HW1 2009   4.851   2.169   4.345 -1.1205 -0.6235  1.4422
  651SOL    HW2 2010   4.840   2.026   4.294 -2.3291 -0.7866  2.1096
  652SOL     OW 2011   4.867   2.943   1.484 -0.2945 -0.6022  0.1582
  652SOL    HW1 2012   4.858   3.015   1.546  2.3115 -0.1884  0.1616
  652SOL    HW2 2013   4.843   2.981   1.399 -0.3051 -0.1355  0.3697
  653SOL     OW 2014   4.217   3.827   4.065 -0.5782 -0.2299 -1.2566
  653SOL    HW1 2015   4.231   3.738   4.034 -0.8030 -1.1746  1.1090
  653SOL    HW2 2016   4.303   3.856   4.096 -0.7568 -0.1276 -0.8417
  654SOL     OW 2017   3.214   1.362   3.148 -0.1185 -0.1531  0.3830
  654SOL    HW1 2018   3.122   1.385   3.135 -0.1521 -0.0725  0.7575
  654SOL    HW2 2019   3.218   1.322   3.235  0.3849  0.8988  0.8696
  655SOL     OW 2020   0.750   1.173   3.262 -0.4075 -0.2947  0.2724
  655SOL    HW1 2021   0.716   1.192   3.175  0.4903 -0.3280 -0.0959
  655SOL    HW2 2022   0.823   1.235   3.273  0.7157 -1.5603  0.2169
  656SOL     OW 2023   1.097   0.589   4.875 -0.0297 -0.1677  0.4647
  656SOL    HW1 2024   1.132   0.500   4.871 -0.5957 -0.4182  0.9509
  656SOL    HW2 2025   1.002   0.578   4.874 -0.1010  0.4737 -0.2218
  657SOL     OW 2026   0.092   2.687   4.889 -0.1523  0.4222  0.1592
  657SOL    HW1 2027   0.075   2.741   4.966 -1.1091 -0.0061  0.2697
  657SOL    HW2 2028   0.014   2.698   4.834  0.0478 -0.1050 -0.2434
  658SOL     OW 2029   3.399   0.078   0.862 -0.3137  0.8083 -0.2547
  658SOL    HW1 2030   3.418   0.079   0.769 -0.3348 -1.4709 -0.3281
  658SOL    HW2 2031   3.304   0.079   0.868 -0.3107  1.8580 -0.2055
  659SOL     OW 2032   4.198   2.561   2.470  0.6910 -0.3225  0.1193
  659SOL    HW1 2033   4.108   2.529   2.469  0.6309 -0.6372  3.6102
  659SOL    HW2 2034   4.191   2.653   2.442 -1.2496  0.5636  3.0745
  660SOL     OW 2035   4.921   4.721   0.556  0.1594  0.4094  0.0685
  660SOL    HW1 2036   4.920   4.762   0.469  0.7010  0.7076  0.2028
  660SOL    HW2 2037   4.853   4.767   0.605  0.2800  0.6613 -0.0023
  661SOL     OW 2038   4.250   4.736   3.948 -0.1703  0.4642  0.3373
  661SOL    HW1 2039   4.344   4.747   3.962 -0.1159  2.5427 -1.1433
  661SOL    HW2 2040   4.237   4.752   3.855 -1.9982  0.3651  0.5314
  662SOL     OW 2041   4.767   4.184   0.343  0.0958  0.4121  0.8080
  662SOL    HW1 2042   4.839   4.223   0.393  2.1339  0.9486 -2.2906
  662SOL    HW2 2043   4.792   4.196   0.252 -3.0817 -1.1153 -0.4053
  663SOL     OW 2044   4.470   2.979   2.845 -0.0040 -0.2134 -0.2670
  663SOL    HW1 2045   4.554   3.022   2.831 -0.1107  0.0569 -0.0929
  663SOL    HW2 2046   4.484   2.925   2.923 -0.5326  1.3193  0.9431
  664SOL     OW 2047   1.212   0.991   2.025  0.6973  0.1715 -0.3309
  664SOL    HW1 2048   1.256   1.003   1.941  0.9505  1.7395 -0.0008
  664SOL    HW2 2049   1.170   0.905   2.018 -0.4017  0.8211 -2.5679
  665SOL     OW 2050   2.347   0.498   4.145  0.2612  0.5452 -0.3094
  665SOL    HW1 2051   2.437   0.526   4.130  0.1123  1.4519  0.3958
  665SOL    HW2 2052   2.307   0.496   4.058  1.0443 -0.2009 -0.6679
  666SOL     OW 2053   3.200   4.118   3.729  0.0011 -0.6548  0.3504
  666SOL    HW1 2054   3.112   4.080   3.731  0.6038 -2.2634 -1.4157
  666SOL    HW2 2055   3.250   4.068   3.793 -0.1094 -0.3729  0.6624
  667SOL     OW 2056   0.274   0.778   3.173  1.0731 -0.2507  0.1079
  667SOL    HW1 2057   0.194   0.759   3.123  0.1732 -0.0695  1.4140
  667SOL    HW2 2058   0.336   0.710   3.147  1.0086  0.4145 -1.9850
  668SOL     OW 2059   3.783   2.091   0.127 -0.1481  0.0300 -0.0331
  668SOL    HW1 2060   3.876   2.089   0.150 -0.3090 -1.7149  0.6378
  668SOL    HW2 2061   3.782   2.109   0.033  0.9599 -1.4950 -0.3679
  669SOL     OW 2062   2.540   0.824   1.339 -0.0417 -0.1432  0.0698
  669SOL    HW1 2063   2.575   0.743   1.375  2.2082  1.0436  0.7944
  669SOL    HW2 2064   2.601   0.847   1.268 -1.0037  0.5769 -0.5501
  670SOL     OW 2065   4.794   0.970   3.273 -0.0296 -0.4344  0.1283
  670SOL    HW1 2066   4.765   0.883   3.247  0.9559 -1.0435  0.9944
  670SOL    HW2 2067   4.870   0.987   3.219  0.6851 -0.7635  1.0087
  671SOL     OW 2068   3.573   3.545   4.192 -0.4766 -0.2583 -0.2711
  671SOL    HW1 2069   3.663   3.567   4.167 -0.7356  2.2836  0.7248
  671SOL    HW2 2070   3.580   3.459   4.234  1.7079  0.4573  0.9746
  672SOL     OW 2071   2.270   4.428   4.517  0.1090 -0.1198 -0.3942
  672SOL    HW1 2072   2.225   4.377   4.584  1.1935 -0.1871  0.3061
  672SOL    HW2 2073   2.287   4.512   4.559  0.2717  0.0440 -0.7881
  673SOL     OW 2074   2.991   4.691   0.600 -0.4304  0.6516 -0.5170
  673SOL    HW1 2075   3.009   4.703   0.507 -1.0492  0.2595 -0.6966
  673SOL    HW2 2076   2.935   4.613   0.603 -0.0859  0.4255  0.2168
  674SOL     OW 2077   0.647   3.251   0.320  0.1620  0.1290  0.6987
  674SOL    HW1 2078   0.585   3.286   0.384  0.0266 -1.4970  1.5123
  674SOL    HW2 2079   0.657   3.159   0.345  1.3170 -0.1470 -0.6849
  675SOL     OW 2080   4.519   4.765   3.951  0.4613  0.3811  0.7213
  675SOL    HW1 2081   4.540   4.708   4.025 -1.1105 -2.9068 -1.1305
  675SOL    HW2 2082   4.586   4.746   3.886  0.9435  2.0743  0.6871
  676SOL     OW 2083   3.203   3.906   2.421 -0.2633  0.3615 -0.2418
  676SOL    HW1 2084   3.221   4.000   2.420 -1.2896  0.5986  0.9556
  676SOL    HW2 2085   3.272   3.868   2.475 -0.8375  0.6890  0.7570
  677SOL     OW 2086   4.513   3.864   3.297  0.1804 -0.0078  0.1256
  677SOL    HW1 2087   4.566   3.878   3.376 -0.3513  0.5561  0.3909
  677SOL    HW2 2088   4.424   3.885   3.325 -0.0241  0.1045 -0.6093
  678SOL     OW 2089   0.276   3.269   2.888 -0.8704  0.2447  0.4822
  678SOL    HW1 2090   0.259   3.337   2.822 -0.0301  1.4074  1.4279
  678SOL    HW2 2091   0.354   3.299   2.934 -1.0883 -0.8566  1.6119
  679SOL     OW 2092   2.480   0.754   2.843 -0.2446  0.4025 -0.0033
  679SOL    HW1 2093   2.484   0.675   2.789 -2.3573 -0.3682  0.8690
  679SOL    HW2 2094   2.460   0.824   2.781  1.1186  0.1910 -0.7148
  680SOL     OW 2095   3.365   3.991   0.909  0.1687 -0.3956 -0.1313
  680SOL    HW1 2096   3.453   3.987   0.948  0.7403  0.8283 -1.2400
  680SOL    HW2 2097   3.355   4.082   0.880 -0.6135 -1.0241 -1.9765
  681SOL     OW 2098   4.472   2.266   4.589  0.1819 -0.1617  0.4929
  681SOL    HW1 2099   4.516   2.194   4.544 -0.2738 -1.0070  1.3663
  681SOL    HW2 2100   4.386   2.271   4.548 -0.2543 -0.9690  1.2866
  682SOL     OW 2101   1.621   0.134   0.101  0.1152 -0.3598  0.0778
  682SOL    HW1 2102   1.557   0.180   0.155  0.4385  0.2342 -0.0407
  682SOL    HW2 2103   1.604   0.163   0.012  1.6786  1.2087  0.2280
  683SOL     OW 2104   3.967   3.247   1.367  0.4421  1.0673  0.1430
  683SOL    HW1 2105   4.028   3.203   1.307  1.1553  2.1819  0.0280
  683SOL    HW2 2106   3.890   3.267   1.313 -0.1858 -0.5935  0.3567
  684SOL     OW 2107   2.610   0.627   4.109 -0.2312 -0.1290  0.0000
  684SOL    HW1 2108   2.597   0.672   4.025 -0.2637  1.2810  0.7352
  684SOL    HW2 2109   2.689   0.667   4.146  0.1868 -1.2296  0.3484
  685SOL     OW 2110   4.660   0.367   2.633 -0.1619 -0.3109 -0.4244
  685SOL    HW1 2111   4.651   0.335   2.543 -1.8148  2.3261 -1.3159
  685SOL    HW2 2112   4.572   0.396   2.656  0.4863  0.1353  1.6322
  686SOL     OW 2113   4.182   3.970   2.460  0.5118 -0.2467 -0.7492
  686SOL    HW1 2114   4.201   4.015   2.378  2.1064 -0.2337 -0.4131
  686SOL    HW2 2115   4.147   4.037   2.518 -1.1883 -0.3797 -1.5799
  687SOL     OW 2116   1.476   4.485   2.677  0.6684 -0.4031  0.1823
  687SOL    HW1 2117   1.445   4.574   2.697 -1.5664 -1.1860  0.4148
  687SOL    HW2 2118   1.404   4.445   2.629  1.9505 -1.8723 -0.5885
  688SOL     OW 2119   0.149   4.361   3.959  0.8372 -0.0960  0.4336
  688SOL    HW1 2120   0.125   4.441   4.006  1.4902 -1.0955  2.6256
  688SOL    HW2 2121   0.245   4.367   3.951  0.7268  0.0995 -0.9293
  689SOL     OW 2122   3.196   0.274   2.180  0.9338 -0.2803 -0.2018
  689SOL    HW1 2123   3.230   0.223   2.254 -0.1149 -0.7104 -0.0027
  689SOL    HW2 2124   3.102   0.254   2.178  0.8052  0.3620 -1.1495
  690SOL     OW 2125   1.320   2.070   4.767 -0.4456  0.2486  0.4416
  690SOL    HW1 2126   1.371   1.988   4.766 -0.5080  0.2071  0.8442
  690SOL    HW2 2127   1.232   2.044   4.792 -0.7377  0.2866 -0.5022
  691SOL     OW 2128   1.866   2.797   0.808 -0.2674  0.2787  0.4497
  691SOL    HW1 2129   1.919   2.765   0.735  0.1271  0.1917  0.7704
  691SOL    HW2 2130   1.930   2.824   0.874 -0.6177 -1.2316  1.4621
  692SOL     OW 2131   4.112   1.198   0.328  0.3473 -0.7376  0.2798
  692SOL    HW1 2132   4.143   1.237   0.246  0.7858 -3.3391 -0.8956
  692SOL    HW2 2133   4.175   1.227   0.394  0.0972  1.2457 -0.2875
  693SOL     OW 2134   0.864   2.264   2.658 -0.4066 -0.0920  0.5625
  693SOL    HW1 2135   0.930   2.309   2.711  1.2818 -0.9416 -0.7020
  693SOL    HW2 2136   0.836   2.191   2.712  1.8349 -1.3829  0.1035
  694SOL     OW 2137   2.653   1.423   3.736  0.2074 -0.7251 -0.3626
  694SOL    HW1 2138   2.706   1.499   3.715  0.5283 -0.1711  2.1059
  694SOL    HW2 2139   2.676   1.358   3.670  1.9729  0.4004 -0.9189
  695SOL     OW 2140   4.091   1.095   1.530 -0.1572  0.3798  0.1221
  695SOL    HW1 2141   4.134   1.010   1.541  0.2249  0.4503 -0.8011
  695SOL    HW2 2142   4.149   1.156   1.575  1.2478  0.6184 -1.8983
  696SOL     OW 2143   3.498   1.322   2.338  0.3009 -0.1537 -0.2288
  696SOL    HW1 2144   3.529   1.381   2.269 -0.2133 -1.0911 -1.3071
  696SOL    HW2 2145   3.432   1.374   2.385 -0.1481  0.1595 -1.1615
  697SOL     OW 2146   3.120   3.710   0.242 -0.3528  0.5906 -0.3580
  697SOL    HW1 2147   3.071   3.792   0.244 -0.5843  0.4445 -0.0633
  697SOL    HW2 2148   3.167   3.712   0.158 -0.1825  1.1245 -0.2510
  698SOL     OW 2149   1.158   3.663   2.736  0.0162  0.1921 -0.4208
  698SOL    HW1 2150   1.233   3.707   2.776  0.8446 -1.7879  0.3523
  698SOL    HW2 2151   1.089   3.666   2.802 -0.6403  2.0054 -1.1283
  699SOL     OW 2152   0.965   4.946   1.527 -0.4940  0.0646 -0.2527
  699SOL    HW1 2153   0.998   4.866   1.488  0.4255  0.5313 -0.4518
  699SOL    HW2 2154   1.017   4.958   1.607  0.3442  1.1784 -0.9349
  700SOL     OW 2155   1.750   2.665   2.258 -0.1627  0.1163  0.0536
  700SOL    HW1 2156   1.672   2.714   2.282  0.5274  1.3254 -0.0615
  700SOL    HW2 2157   1.717   2.587   2.213 -1.3579 -0.5845  2.0148
  701SOL     OW 2158   3.583   1.967   0.579  0.0238  0.3371  0.1505
  701SOL    HW1 2159   3.584   1.995   0.488 -0.0254 -1.0710 -0.2889
  701SOL    HW2 2160   3.491   1.946   0.597  0.2105 -0.4558  0.1908
  702SOL     OW 2161   1.302   3.735   2.040 -0.5473 -0.4163 -0.7217
  702SOL    HW1 2162   1.358   3.789   2.095  0.0695 -1.7420  0.0037
  702SOL    HW2 2163   1.286   3.656   2.092 -2.2559 -0.5111 -1.3256
  703SOL     OW 2164   4.968   4.934   1.062  0.3140  0.4882 -0.4322
  703SOL    HW1 2165   5.004   4.875   1.128 -3.1493 -1.9453 -0.4671
  703SOL    HW2 2166   4.990   4.894   0.978 -1.3149 -0.4282 -0.4731
  704SOL     OW 2167   1.308   1.930   1.222  0.2567  0.2521  0.3567
  704SOL    HW1 2168   1.312   2.009   1.168 -0.1186 -1.0384 -1.6525
  704SOL    HW2 2169   1.214   1.914   1.234  0.3263  0.0444  0.6231
  705SOL     OW 2170   2.895   2.141   1.509  0.2717  0.5921 -0.2647
  705SOL    HW1 2171   2.863   2.218   1.555  0.0835  0.2505  0.1860
  705SOL    HW2 2172   2.840   2.133   1.432  0.2258  0.8491 -0.2573
  706SOL     OW 2173   0.490   0.314   0.703 -0.8181 -0.1251  0.2156
  706SOL    HW1 2174   0.522   0.348   0.787 -1.7855  0.6033  0.3101
  706SOL    HW2 2175   0.462   0.225   0.722 -2.4392  0.5337  1.0424
  707SOL     OW 2176   1.471   4.566   4.230 -0.0759 -0.3445 -0.3290
  707SOL    HW1 2177   1.441   4.575   4.139  1.0705  1.5995 -0.5685
  707SOL    HW2 2178   1.407   4.615   4.281  1.0976  1.4626 -0.5228
  708SOL     OW 2179   4.144   0.319   2.421 -0.7261 -0.3335 -0.5360
  708SOL    HW1 2180   4.140   0.390   2.485 -3.5182 -0.5641 -0.3259
  708SOL    HW2 2181   4.075   0.339   2.358  0.3317 -1.3953 -2.1214
  709SOL     OW 2182   2.084   2.676   4.268  0.2753  0.1670  0.1352
  709SOL    HW1 2183   1.999   2.642   4.241  0.3557 -1.0305  1.2576
  709SOL    HW2 2184   2.116   2.612   4.332 -1.2063  4.0536  5.4019
  710SOL     OW 2185   1.822   3.422   2.314 -0.0601  0.0281  0.4338
  710SOL    HW1 2186   1.731   3.393   2.304 -0.6313  0.9742  2.5352
  710SOL    HW2 2187   1.826   3.505   2.266 -0.3592  0.1085  0.5480
  711SOL     OW 2188   3.614   2.952   4.979  0.0156 -0.1015 -0.3735
  711SOL    HW1 2189   3.699   2.937   5.020  0.5853  2.9274 -0.1904
  711SOL    HW2 2190   3.634   2.965   4.886 -0.2249  0.7329 -0.3136
  712SOL     OW 2191   4.217   0.335   3.340 -0.1579 -0.1772  0.3388
  712SOL    HW1 2192   4.171   0.326   3.256  0.5797  0.3498 -0.1411
  712SOL    HW2 2193   4.282   0.404   3.324  0.4447 -0.5373  1.1525
  713SOL     OW 2194   0.662   0.919   3.205 -0.3401 -0.0440  0.2354
  713SOL    HW1 2195   0.719   0.853   3.244 -1.1703 -0.2657  1.1172
  713SOL    HW2 2196   0.711   1.001   3.210  0.5831 -0.5272 -0.6024
  714SOL     OW 2197   2.797   0.136   1.630  0.1756 -0.0557  0.2799
  714SOL    HW1 2198   2.819   0.186   1.552  1.5022 -0.2860  0.4932
  714SOL    HW2 2199   2.851   0.173   1.699  1.5613 -2.0201  0.3519
  715SOL     OW 2200   0.204   1.123   2.011 -0.2609  0.0037  0.2942
  715SOL    HW1 2201   0.110   1.105   2.020 -0.1644 -0.3573  0.6658
  715SOL    HW2 2202   0.214   1.153   1.921 -0.8218  0.6276  0.4328
  716SOL     OW 2203   0.110   2.009   1.289 -0.3191  0.1069  0.0426
  716SOL    HW1 2204   0.055   1.931   1.282 -0.2951  0.0022  0.9197
  716SOL    HW2 2205   0.088   2.061   1.211 -0.9267 -0.3916 -0.1284
  717SOL     OW 2206   2.636   1.984   3.776 -0.5302  0.1257  0.1896
  717SOL    HW1 2207   2.702   1.925   3.812  0.8175  1.3507 -0.1730
  717SOL    HW2 2208   2.649   2.067   3.822 -2.6332  0.0990  0.9635
  718SOL     OW 2209   4.725   3.117   0.576  0.1837  0.6097  0.2202
  718SOL    HW1 2210   4.726   3.174   0.499 -1.3178 -2.6359 -2.4521
  718SOL    HW2 2211   4.785   3.046   0.553 -1.1772 -1.0390  1.5130
  719SOL     OW 2212   3.119   0.095   0.847  0.4201 -0.0973  0.2185
  719SOL    HW1 2213   3.087   0.185   0.847  1.7324  0.4508 -2.2628
  719SOL    HW2 2214   3.044   0.043   0.819  0.1638  0.4496 -0.1231
  720SOL     OW 2215   3.505   0.696   3.919  0.0386  0.4378  0.0563
  720SOL    HW1 2216   3.591   0.679   3.881 -0.1159 -0.5553  0.1350
  720SOL    HW2 2217   3.523   0.736   4.004  0.4125  0.6406 -0.1187
  721SOL     OW 2218   3.835   1.880   0.653  0.1670  0.1357 -0.4623
  721SOL    HW1 2219   3.745   1.907   0.634 -0.2734  0.9097  2.2574
  721SOL    HW2 2220   3.889   1.949   0.615 -0.4206  0.0505 -1.4759
  722SOL     OW 2221   1.625   1.190   1.549  0.5094 -0.9729  0.1892
  722SOL    HW1 2222   1.610   1.243   1.627  2.1098 -0.3029  0.0905
  722SOL    HW2 2223   1.566   1.116   1.558 -1.1152  0.3433  0.7983
  723SOL     OW 2224   0.179   2.115   1.515  0.0361 -0.5563  0.2081
  723SOL    HW1 2225   0.128   2.087   1.439  1.0090  0.6851 -0.9442
  723SOL    HW2 2226   0.132   2.191   1.549 -0.1071 -0.7947  0.5603
  724SOL     OW 2227   1.748   2.256   1.163  0.4109 -0.5401  0.6081
  724SOL    HW1 2228   1.677   2.202   1.195  0.3449  0.4342  2.1928
  724SOL    HW2 2229   1.748   2.242   1.068  0.2088 -3.0233  0.9201
  725SOL     OW 2230   1.299   2.744   2.108 -0.0234 -0.4234  0.0643
  725SOL    HW1 2231   1.309   2.653   2.135  1.8805 -0.7680 -1.5454
  725SOL    HW2 2232   1.209   2.751   2.078  0.4034 -2.4433 -1.9247
  726SOL     OW 2233   1.260   4.897   1.079  0.2580  0.1791 -0.4044
  726SOL    HW1 2234   1.337   4.928   1.127  0.4352 -0.3822 -0.3170
  726SOL    HW2 2235   1.261   4.802   1.092  0.4147 -0.0123 -1.6836
  727SOL     OW 2236   4.912   0.428   3.974 -0.2149 -0.1582  0.0630
  727SOL    HW1 2237   4.938   0.441   4.066 -0.1655  0.5025 -0.0405
  727SOL    HW2 2238   4.868   0.509   3.950 -0.4498 -0.4296 -0.4263
  728SOL     OW 2239   3.816   2.519   4.032 -0.1967  0.6282 -0.3018
  728SOL    HW1 2240   3.844   2.609   4.016  1.6849 -0.1984 -2.0269
  728SOL    HW2 2241   3.844   2.501   4.122  2.1780  0.8365 -0.9404
  729SOL     OW 2242   4.729   1.032   2.620 -0.0005  0.6456  0.1971
  729SOL    HW1 2243   4.719   1.074   2.706  0.4100 -0.1520  0.6494
  729SOL    HW2 2244   4.655   0.972   2.614 -0.5205  1.3298 -0.3966
  730SOL     OW 2245   3.500   2.940   1.022  0.1907  0.0233 -0.2046
  730SOL    HW1 2246   3.570   3.002   1.039 -2.1383  2.5126  1.0606
  730SOL    HW2 2247   3.516   2.868   1.084  0.5655  1.5033  1.4747
  731SOL     OW 2248   4.475   3.799   4.162  0.1650  0.1713  0.3099
  731SOL    HW1 2249   4.553   3.830   4.116 -0.5214  0.4112 -0.7294
  731SOL    HW2 2250   4.498   3.712   4.194  1.4901  0.9721  1.6733
  732SOL     OW 2251   0.648   3.774   1.198  0.1664 -0.4655 -0.1078
  732SOL    HW1 2252   0.701   3.695   1.208 -0.1919 -0.9550 -1.8233
  732SOL    HW2 2253   0.671   3.809   1.112  0.2765  1.2985  0.5827
  733SOL     OW 2254   0.968   1.138   0.420  0.0774  0.2078 -0.8296
  733SOL    HW1 2255   0.959   1.233   0.422 -0.0168  0.2840 -2.7172
  733SOL    HW2 2256   0.878   1.105   0.419  0.0658  0.2134 -2.0689
  734SOL     OW 2257   4.077   4.244   4.756 -0.1818  0.2725 -0.0604
  734SOL    HW1 2258   4.011   4.295   4.709 -0.7225 -0.2113  0.1674
  734SOL    HW2 2259   4.093   4.168   4.700 -1.6974 -0.9185  1.0557
  735SOL     OW 2260   0.711   3.843   2.865 -0.5601  0.0587 -0.6350
  735SOL    HW1 2261   0.698   3.785   2.940 -0.6765 -1.0093 -1.4597
  735SOL    HW2 2262   0.623   3.862   2.832 -0.4627 -2.2930 -2.5556
  736SOL     OW 2263   1.987   2.252   1.612 -0.0994  0.8733 -0.4555
  736SOL    HW1 2264   1.907   2.254   1.561  0.6551 -0.9661 -1.8154
  736SOL    HW2 2265   2.052   2.213   1.554  1.5685  1.4540  0.9153
  737SOL     OW 2266   3.685   1.118   1.930 -0.0859  0.1946 -0.6113
  737SOL    HW1 2267   3.779   1.106   1.941  0.0610  0.4854 -1.4543
  737SOL    HW2 2268   3.646   1.081   2.009  0.7243 -0.1069 -0.3473
  738SOL     OW 2269   2.697   2.460   2.368  0.1014 -0.0811  0.6810
  738SOL    HW1 2270   2.742   2.492   2.289  1.8450 -0.6991  1.3690
  738SOL    HW2 2271   2.609   2.439   2.338  0.4468  0.5451 -0.9106
  739SOL     OW 2272   2.578   2.461   0.875  0.1141 -0.3160 -0.2526
  739SOL    HW1 2273   2.522   2.399   0.922 -0.4666  0.6532  0.3737
  739SOL    HW2 2274   2.617   2.515   0.944  1.3031 -0.5279 -0.7260
  740SOL     OW 2275   0.998   0.120   3.205  0.0824  0.0878 -0.6031
  740SOL    HW1 2276   0.959   0.104   3.119  0.3426 -0.4467 -0.6295
  740SOL    HW2 2277   0.940   0.184   3.247  0.6443  1.3186 -1.6476
  741SOL     OW 2278   2.364   0.342   3.428 -0.0193 -0.1859 -0.4607
  741SOL    HW1 2279   2.395   0.275   3.488 -0.8002 -0.8062 -0.7273
  741SOL    HW2 2280   2.405   0.322   3.345 -0.4532 -0.4947 -0.6037
  742SOL     OW 2281   0.604   1.464   0.683 -0.1197  0.2127 -0.4275
  742SOL    HW1 2282   0.598   1.475   0.588 -0.1404  1.0536 -0.3306
  742SOL    HW2 2283   0.525   1.506   0.717 -0.6592 -1.0164 -0.0990
  743SOL     OW 2284   1.570   3.258   2.762 -0.5544 -0.4184  0.3856
  743SOL    HW1 2285   1.552   3.314   2.687 -1.2967 -0.0443  0.8330
  743SOL    HW2 2286   1.665   3.260   2.771 -0.3792 -1.1882 -1.0787
  744SOL     OW 2287   4.891   3.197   2.422 -0.0669  0.1724  0.0814
  744SOL    HW1 2288   4.864   3.106   2.431  0.8204  0.0205  1.5162
  744SOL    HW2 2289   4.844   3.244   2.491 -0.2567  0.7585 -0.4294
  745SOL     OW 2290   0.542   1.621   4.926  0.1260 -0.5063 -0.2189
  745SOL    HW1 2291   0.562   1.692   4.865 -2.7212  0.7729  0.1668
  745SOL    HW2 2292   0.497   1.555   4.873 -0.5442 -0.3030  0.0777
  746SOL     OW 2293   1.767   2.961   4.921 -0.1538  0.9041  0.3252
  746SOL    HW1 2294   1.824   3.033   4.895  0.1924  0.6285  0.3218
  746SOL    HW2 2295   1.688   2.973   4.869 -0.4729  1.8166  0.9778
  747SOL     OW 2296   3.758   2.231   1.044  0.2248 -0.2069  0.5202
  747SOL    HW1 2297   3.790   2.154   1.090 -1.5202 -2.1786 -1.3125
  747SOL    HW2 2298   3.681   2.200   0.996  0.0264  2.4479 -1.1115
  748SOL     OW 2299   4.623   0.357   4.178  0.4589 -0.9459  0.1646
  748SOL    HW1 2300   4.605   0.276   4.132 -0.6062  0.0441 -1.2484
  748SOL    HW2 2301   4.718   0.366   4.175  0.4740 -1.3582 -1.0710
  749SOL     OW 2302   0.305   3.312   2.220  0.4666 -0.0018  0.4746
  749SOL    HW1 2303   0.395   3.301   2.251  0.4537 -2.5741 -0.1444
  749SOL    HW2 2304   0.287   3.405   2.231  2.1586  0.1122  3.3973
  750SOL     OW 2305   0.597   2.152   2.911 -0.8170  0.5089  0.4061
  750SOL    HW1 2306   0.627   2.210   2.982  0.9898  4.2236 -2.9636
  750SOL    HW2 2307   0.678   2.117   2.874 -1.6980 -1.0215 -0.1388
  751SOL     OW 2308   1.043   4.739   2.638 -0.2121 -0.6815  0.2702
  751SOL    HW1 2309   1.056   4.714   2.730 -0.3722 -0.4604  0.3522
  751SOL    HW2 2310   1.122   4.788   2.615  0.0327 -1.1226  0.1550
  752SOL     OW 2311   2.040   2.742   0.607  0.8499  0.3837  0.6593
  752SOL    HW1 2312   2.091   2.681   0.555  2.3414  1.1547  1.1696
  752SOL    HW2 2313   2.004   2.804   0.543  0.3188 -0.3015  0.2747
  753SOL     OW 2314   4.015   2.720   0.601  0.5006 -0.1420 -0.3167
  753SOL    HW1 2315   4.100   2.746   0.637 -0.0038  0.2064  0.6596
  753SOL    HW2 2316   3.964   2.694   0.678  0.3555 -2.2448 -1.0631
  754SOL     OW 2317   0.938   3.931   0.211 -0.1203  0.0150 -0.0958
  754SOL    HW1 2318   1.027   3.955   0.235  0.2283 -0.4632 -0.9043
  754SOL    HW2 2319   0.900   4.011   0.175  0.2402  0.0136 -0.4864
  755SOL     OW 2320   4.648   3.345   1.966  0.3976 -0.2389  0.0051
  755SOL    HW1 2321   4.734   3.305   1.977  0.5499  0.2353  0.6421
  755SOL    HW2 2322   4.625   3.375   2.054  1.4176  3.3071 -0.7868
  756SOL     OW 2323   4.337   1.036   0.648 -0.5719  0.3603 -0.0626
  756SOL    HW1 2324   4.282   0.977   0.700  0.9986 -1.2900 -0.1899
  756SOL    HW2 2325   4.351   0.989   0.566  1.7829  0.2937  0.3317
  757SOL     OW 2326   4.293   4.982   4.637 -0.1988 -0.3230  0.2578
  757SOL    HW1 2327   4.221   4.940   4.685  0.0256 -0.5883  0.3662
  757SOL    HW2 2328   4.292   5.072   4.667 -1.6143  0.1468 -1.0504
  758SOL     OW 2329   2.761   2.715   3.299 -0.2256 -0.0444 -0.1395
  758SOL    HW1 2330   2.698   2.757   3.358  2.1890  0.3223  2.4231
  758SOL    HW2 2331   2.751   2.621   3.314 -0.2481  0.0104  0.1891
  759SOL     OW 2332   3.114   0.148   1.552  0.1800 -0.4607 -0.0463
  759SOL    HW1 2333   3.090   0.057   1.565  1.1365 -0.9508 -1.4529
  759SOL    HW2 2334   3.094   0.191   1.635 -0.7952 -1.8262  0.4549
  760SOL     OW 2335   0.653   3.102   0.543 -0.4138  0.3179  0.0253
  760SOL    HW1 2336   0.693   3.035   0.488 -0.8693  1.1977 -1.4173
  760SOL    HW2 2337   0.724   3.164   0.560 -0.3134  0.1284  0.3028
  761SOL     OW 2338   0.989   3.567   4.278  0.5165  0.6068  0.3825
  761SOL    HW1 2339   1.015   3.487   4.324 -2.3374 -1.0137 -0.5860
  761SOL    HW2 2340   0.953   3.623   4.346  0.7839  0.2673  0.8085
  762SOL     OW 2341   2.126   4.128   2.946  0.5061  0.6953  0.3684
  762SOL    HW1 2342   2.201   4.106   3.001  0.7949 -0.3595 -0.4189
  762SOL    HW2 2343   2.158   4.121   2.856 -0.7131 -0.5483 -0.0117
  763SOL     OW 2344   1.612   1.831   0.503  0.7132  0.1053  0.4083
  763SOL    HW1 2345   1.611   1.908   0.447 -0.8196  1.5402  2.2675
  763SOL    HW2 2346   1.581   1.760   0.447 -0.0326  1.3172 -0.7781
  764SOL     OW 2347   4.865   0.076   3.723 -0.0774  0.1155  0.5358
  764SOL    HW1 2348   4.837   0.071   3.631  0.3385 -0.0331  0.4148
  764SOL    HW2 2349   4.937   0.013   3.730  1.7791  2.0834  0.2727
  765SOL     OW 2350   4.931   4.157   4.734 -0.0964  0.2021  0.2393
  765SOL    HW1 2351   5.012   4.208   4.726  0.2809  0.0436  2.4273
  765SOL    HW2 2352   4.960   4.066   4.736 -0.5911 -0.0223 -1.6000
  766SOL     OW 2353   1.971   2.253   3.676  0.0733  0.5403  0.2891
  766SOL    HW1 2354   1.978   2.329   3.735 -0.4669 -1.4355  3.0980
  766SOL    HW2 2355   2.002   2.179   3.729 -1.3494 -1.5477 -1.6301
  767SOL     OW 2356   0.925   4.793   1.983 -0.2617 -0.3365 -0.1066
  767SOL    HW1 2357   1.002   4.745   2.015  0.2471  0.4995 -0.0400
  767SOL    HW2 2358   0.906   4.753   1.898  0.1415 -0.6578 -0.0519
  768SOL     OW 2359   2.044   1.289   1.279  0.1693  0.2582  0.4665
  768SOL    HW1 2360   2.008   1.326   1.359 -0.4377 -0.8111  0.7049
  768SOL    HW2 2361   2.067   1.365   1.225 -1.2678  0.9770  0.8230
  769SOL     OW 2362   0.974   4.532   1.863  0.0119  0.2059 -0.2974
  769SOL    HW1 2363   0.930   4.500   1.784  2.6077 -2.3918 -0.8584
  769SOL    HW2 2364   1.041   4.592   1.830 -0.4123  0.9744  0.1969
  770SOL     OW 2365   1.641   1.789   2.282  0.0048  0.3845 -0.5054
  770SOL    HW1 2366   1.653   1.773   2.376  0.8822  2.2093 -0.2587
  770SOL    HW2 2367   1.550   1.817   2.274 -0.3876 -0.8223 -0.3720
  771SOL     OW 2368   4.548   0.408   3.684  0.3347  0.1670 -0.0407
  771SOL    HW1 2369   4.467   0.456   3.702  1.2257  0.6507  3.2454
  771SOL    HW2 2370   4.546   0.335   3.746  1.6677 -0.7585 -1.0435
  772SOL     OW 2371   2.928   3.989   4.075 -0.6603 -0.3943 -0.0611
  772SOL    HW1 2372   2.885   3.944   4.148 -0.7179 -0.4024 -0.0993
  772SOL    HW2 2373   3.007   3.938   4.059 -0.1306  0.1825  0.6422
  773SOL     OW 2374   0.846   3.436   2.716 -0.4243  0.2388 -0.1030
  773SOL    HW1 2375   0.910   3.426   2.646 -0.9551  1.1725 -0.7574
  773SOL    HW2 2376   0.879   3.510   2.768 -0.4432  0.0631  0.1590
  774SOL     OW 2377   1.674   1.693   2.669  0.1948 -0.1558 -0.2893
  774SOL    HW1 2378   1.744   1.629   2.679  1.3645  1.2906  1.5479
  774SOL    HW2 2379   1.597   1.642   2.647  1.2016 -2.1093  0.5168
  775SOL     OW 2380   3.459   0.214   2.183 -0.8571 -0.1451  0.3446
  775SOL    HW1 2381   3.444   0.124   2.156 -0.1167 -0.5686  1.3097
  775SOL    HW2 2382   3.391   0.264   2.137  0.1296 -0.8561 -2.0680
  776SOL     OW 2383   4.702   3.564   1.246  0.1073  0.0967  0.1634
  776SOL    HW1 2384   4.706   3.502   1.174 -0.6793  0.3439 -0.0996
  776SOL    HW2 2385   4.609   3.572   1.267  0.3282 -0.0953  1.3159
  777SOL     OW 2386   2.455   3.749   1.214  0.0318 -0.2670  0.2561
  777SOL    HW1 2387   2.489   3.837   1.231 -1.8235  0.6913 -0.7475
  777SOL    HW2 2388   2.527   3.704   1.170  0.0589  1.7540 -1.9879
  778SOL     OW 2389   1.298   0.723   3.544  0.2693  0.2362 -0.5956
  778SOL    HW1 2390   1.288   0.777   3.466 -1.0128  1.1547  0.1722
  778SOL    HW2 2391   1.242   0.764   3.610 -0.2570 -1.6439  0.2254
  779SOL     OW 2392   2.721   4.758   0.029  0.4842  0.4477 -0.3613
  779SOL    HW1 2393   2.715   4.669  -0.007  0.7575  0.6474 -0.9203
  779SOL    HW2 2394   2.815   4.774   0.036  0.4510  0.9505 -0.9351
  780SOL     OW 2395   1.902   0.542   0.212  0.2462 -0.0384 -0.5016
  780SOL    HW1 2396   1.940   0.569   0.296 -3.7031  1.6640  0.9585
  780SOL    HW2 2397   1.883   0.624   0.167 -0.0186 -0.8752 -1.9934
  781SOL     OW 2398   2.872   0.707   4.018  0.3235  0.4725  0.5466
  781SOL    HW1 2399   2.905   0.620   4.042  0.0948  0.7250  1.8043
  781SOL    HW2 2400   2.932   0.737   3.949  0.3993 -0.6742  0.0830
  782SOL     OW 2401   4.903   4.173   2.907  0.5246 -0.2338  0.3292
  782SOL    HW1 2402   4.987   4.205   2.876 -0.0601  0.3965 -0.6402
  782SOL    HW2 2403   4.838   4.219   2.854 -0.4139 -1.2652  0.5403
  783SOL     OW 2404   3.280   2.613   4.692  0.6270 -0.3302  0.0738
  783SOL    HW1 2405   3.350   2.550   4.675  0.8591 -0.7603  2.2894
  783SOL    HW2 2406   3.309   2.661   4.770 -0.5741  0.9650 -0.2399
  784SOL     OW 2407   3.674   2.002   0.900 -0.0722  0.0349  0.3499
  784SOL    HW1 2408   3.658   2.067   0.832  0.3983 -0.7318 -0.5103
  784SOL    HW2 2409   3.769   2.001   0.910  0.0303 -1.4119 -0.5543
  785SOL     OW 2410   1.859   4.920   4.559 -0.1265  0.1103  0.0309
  785SOL    HW1 2411   1.800   4.981   4.602 -0.6885 -0.2045 -0.2809
  785SOL    HW2 2412   1.871   4.849   4.622  1.0044  0.8067  0.6367
  786SOL     OW 2413   0.900   1.399   2.311 -0.1955  0.1798  0.1767
  786SOL    HW1 2414   0.848   1.400   2.231 -2.8197  1.2215  1.7530
  786SOL    HW2 2415   0.896   1.309   2.342  1.8501 -0.5251 -1.3625
  787SOL     OW 2416   2.582   4.729   2.379 -0.9220 -0.7830 -0.4483
  787SOL    HW1 2417   2.616   4.674   2.308 -0.6449  0.5328 -1.3791
  787SOL    HW2 2418   2.491   4.702   2.388 -1.1312 -0.6079 -1.7275
  788SOL     OW 2419   4.628   0.535   0.915 -0.3855 -0.2459  0.1545
  788SOL    HW1 2420   4.543   0.491   0.912 -0.1211 -0.7269 -1.4050
  788SOL    HW2 2421   4.621   0.605   0.849  0.6094 -0.6960 -0.4566
  789SOL     OW 2422   0.310   2.179   3.268  0.2353  0.1910  0.2878
  789SOL    HW1 2423   0.370   2.175   3.343  0.5167 -1.5889  0.0262
  789SOL    HW2 2424   0.262   2.096   3.271  0.8664 -0.3408 -1.9518
  790SOL     OW 2425   3.715   0.577   1.639  0.3664 -0.3807 -0.1206
  790SOL    HW1 2426   3.703   0.580   1.734  4.1130  2.4405  0.4868
  790SOL    HW2 2427   3.701   0.485   1.616  1.0702 -1.5324  3.4335
  791SOL     OW 2428   3.923   2.896   3.751  0.2517 -0.2022  0.1356
  791SOL    HW1 2429   4.013   2.928   3.756 -0.5012  1.8789  1.5428
  791SOL    HW2 2430   3.882   2.949   3.683 -0.3441  0.0810  0.7030
  792SOL     OW 2431   3.562   1.680   0.144  0.3189 -0.1642 -0.7431
  792SOL    HW1 2432   3.507   1.609   0.112 -2.2271  1.3232  0.0851
  792SOL    HW2 2433   3.591   1.726   0.065 -1.3226  0.1907 -1.1808
  793SOL     OW 2434   3.577   4.952   3.888 -0.4447 -0.3362 -0.3916
  793SOL    HW1 2435   3.629   5.018   3.841 -1.7434  1.8524  1.0491
  793SOL    HW2 2436   3.495   4.947   3.840 -0.7982 -0.0026  0.1644
  794SOL     OW 2437   2.319   4.700   2.375 -0.2217 -0.5281 -0.3423
  794SOL    HW1 2438   2.279   4.729   2.293 -0.3742  2.0228  0.5490
  794SOL    HW2 2439   2.264   4.739   2.443  0.6336 -1.5453  0.9792
  795SOL     OW 2440   0.683   2.020   4.915  0.0575  0.6889  0.2146
  795SOL    HW1 2441   0.684   2.004   4.820 -0.7386 -0.3519  0.3656
  795SOL    HW2 2442   0.759   2.076   4.930  1.9811 -1.5062 -0.6409
  796SOL     OW 2443   3.070   4.704   1.223  0.2056  0.2623 -0.4092
  796SOL    HW1 2444   3.138   4.710   1.291  0.4228  1.4452 -0.6933
  796SOL    HW2 2445   3.119   4.705   1.141  0.0049 -2.1248 -0.6240
  797SOL     OW 2446   1.886   4.156   0.945 -0.3131  0.0169 -0.1736
  797SOL    HW1 2447   1.838   4.144   0.863  1.0676 -0.2056 -0.9804
  797SOL    HW2 2448   1.924   4.244   0.938 -0.4183  0.1070  0.3559
  798SOL     OW 2449   0.184   0.592   1.785 -0.3134  0.1023  0.4174
  798SOL    HW1 2450   0.152   0.579   1.875 -2.4013  0.5436 -0.1970
  798SOL    HW2 2451   0.231   0.675   1.789 -0.4400  0.1540  1.0981
  799SOL     OW 2452   2.803   3.306   2.237 -0.1531  0.1023 -0.2606
  799SOL    HW1 2453   2.807   3.210   2.245  1.7629  0.0419 -1.2606
  799SOL    HW2 2454   2.733   3.332   2.297 -0.6606 -1.9050  0.1140
  800SOL     OW 2455   3.271   2.798   3.687  0.9720  0.0972 -0.1503
  800SOL    HW1 2456   3.218   2.812   3.609 -0.6727 -0.9817  0.7032
  800SOL    HW2 2457   3.228   2.849   3.756 -0.4152 -2.5006  1.0841
  801SOL     OW 2458   1.838   3.110   2.631 -0.1192  0.4168 -0.6183
  801SOL    HW1 2459   1.851   3.044   2.699  0.7370  1.6892  0.5036
  801SOL    HW2 2460   1.761   3.081   2.583 -0.9337 -0.3692  1.0915
  802SOL     OW 2461   1.024   3.215   0.209  0.2588  0.0690 -0.4820
  802SOL    HW1 2462   1.053   3.149   0.272  0.8376  0.5609 -0.2331
  802SOL    HW2 2463   1.055   3.298   0.244 -0.1640  0.4425 -0.9760
  803SOL     OW 2464   4.339   2.380   4.086  0.6866 -0.0082  0.0063
  803SOL    HW1 2465   4.337   2.347   3.996  0.4272  0.4559 -0.1594
  803SOL    HW2 2466   4.247   2.378   4.114  0.5092  1.5835 -0.3826
  804SOL     OW 2467   0.901   4.609   1.527 -0.1308  0.0564  0.3930
  804SOL    HW1 2468   0.834   4.665   1.567  1.4209  1.4431  1.1540
  804SOL    HW2 2469   0.880   4.521   1.558 -2.5697  0.1525 -0.7474
  805SOL     OW 2470   2.957   2.880   0.945  0.5731  0.0233 -0.0929
  805SOL    HW1 2471   3.043   2.920   0.947  0.5942 -0.0430  0.3030
  805SOL    HW2 2472   2.971   2.796   0.900  1.4807 -1.7544  3.1680
  806SOL     OW 2473   1.467   0.420   2.102  0.1970  0.1850 -0.0774
  806SOL    HW1 2474   1.448   0.506   2.067  1.9848 -0.0661 -1.8182
  806SOL    HW2 2475   1.563   0.414   2.102  0.1524 -1.3560  1.1470
  807SOL     OW 2476   2.734   1.982   4.388 -0.0426  0.2430  0.1353
  807SOL    HW1 2477   2.661   2.014   4.441  0.9721  1.7006  0.7260
  807SOL    HW2 2478   2.812   2.012   4.435  1.0023 -2.3029  0.1838
  808SOL     OW 2479   1.389   2.482   4.209  0.3899 -0.3835  0.2619
  808SOL    HW1 2480   1.384   2.387   4.213 -0.2414 -0.3499  0.4173
  808SOL    HW2 2481   1.298   2.511   4.219  0.1605  0.1650 -2.5967
  809SOL     OW 2482   4.117   0.732   1.921  0.6941  0.2382 -0.1405
  809SOL    HW1 2483   4.068   0.745   1.840  0.4520 -2.2952 -0.4880
  809SOL    HW2 2484   4.054   0.751   1.990 -0.4341 -1.6478 -0.5814
  810SOL     OW 2485   0.783   4.896   1.308  0.0870  0.7977 -0.2399
  810SOL    HW1 2486   0.831   4.844   1.244 -1.1126 -3.3362  1.7998
  810SOL    HW2 2487   0.847   4.915   1.377  0.0806  0.0215 -0.0056
  811SOL     OW 2488   1.055   3.177   3.757 -0.2459  0.0811 -0.2751
  811SOL    HW1 2489   1.049   3.130   3.674 -0.5347  1.2185 -0.9043
  811SOL    HW2 2490   1.072   3.268   3.734 -0.4020  0.4382  0.9033
  812SOL     OW 2491   0.166   3.454   4.872  0.1347  0.0785 -0.1133
  812SOL    HW1 2492   0.165   3.482   4.963  0.5899 -1.2158  0.3099
  812SOL    HW2 2493   0.258   3.458   4.847  0.2177 -1.0614 -0.0222
  813SOL     OW 2494   2.636   3.727   3.599  0.1755 -0.0151  0.0651
  813SOL    HW1 2495   2.687   3.807   3.609 -1.6977  1.2862 -0.3188
  813SOL    HW2 2496   2.668   3.687   3.519  1.2555  0.2423  0.3600
  814SOL     OW 2497   4.440   3.667   0.881  0.0360  0.2728  0.3550
  814SOL    HW1 2498   4.411   3.681   0.791 -0.6961  0.7550  0.6599
  814SOL    HW2 2499   4.434   3.573   0.894 -0.4989  0.2719  0.1107
  815SOL     OW 2500   3.579   1.331   3.777 -0.0693 -0.3982  0.4900
  815SOL    HW1 2501   3.564   1.265   3.710 -0.6721 -0.5649  0.7881
  815SOL    HW2 2502   3.558   1.287   3.859 -1.5597  0.4946  0.6069
  816SOL     OW 2503   2.502   4.587   3.575  0.8198  0.2512 -0.3852
  816SOL    HW1 2504   2.563   4.595   3.502  1.0436  2.4165 -0.0248
  816SOL    HW2 2505   2.546   4.528   3.636  2.1289  0.9670 -0.5847
  817SOL     OW 2506   0.062   2.645   0.901  0.2074 -0.3642 -0.1158
  817SOL    HW1 2507   0.008   2.714   0.939  1.8729  1.8411 -1.4986
  817SOL    HW2 2508   0.123   2.620   0.971  1.1901  1.3823 -0.3061
  818SOL     OW 2509   0.285   3.730   3.800 -0.1820 -0.1304 -0.1574
  818SOL    HW1 2510   0.322   3.708   3.715 -1.8483 -2.7769 -0.3199
  818SOL    HW2 2511   0.201   3.770   3.780 -0.4440 -0.4789  0.2183
  819SOL     OW 2512   0.653   0.795   4.930 -0.4422 -0.3085 -0.0773
  819SOL    HW1 2513   0.595   0.822   4.858 -0.5750  0.3999  0.2811
  819SOL    HW2 2514   0.600   0.734   4.982 -0.2474 -1.0434 -0.7297
  820SOL     OW 2515   0.150   3.242   4.563 -0.1644  0.2501  0.0645
  820SOL    HW1 2516   0.181   3.180   4.496 -1.2030  1.7628 -1.9363
  820SOL    HW2 2517   0.160   3.195   4.645  0.8209 -1.8743 -1.1703
  821SOL     OW 2518   3.186   0.827   2.937  0.3131 -0.4466  0.5911
  821SOL    HW1 2519   3.262   0.885   2.949 -1.3790  1.7785  1.3283
  821SOL    HW2 2520   3.158   0.806   3.026 -1.4741  1.0251  0.4416
  822SOL     OW 2521   2.357   4.754   3.362 -0.0819  0.4818  0.8905
  822SOL    HW1 2522   2.441   4.780   3.323 -0.5183 -1.6767 -1.7991
  822SOL    HW2 2523   2.374   4.667   3.398 -0.9686  0.3723  1.0668
  823SOL     OW 2524   3.086   1.924   1.582  0.9025  0.1946  0.1211
  823SOL    HW1 2525   3.023   1.981   1.536  1.3988  0.2906 -0.4534
  823SOL    HW2 2526   3.152   1.904   1.516  0.2848 -1.7867  0.0441
  824SOL     OW 2527   1.821   3.997   2.398 -0.3151 -0.5443  0.0393
  824SOL    HW1 2528   1.808   3.922   2.339  0.2560 -0.1341 -0.6173
  824SOL    HW2 2529   1.887   4.051   2.354  1.1715 -0.9304  1.7230
  825SOL     OW 2530   2.514   2.814   1.705  0.0072  0.1118  0.2158
  825SOL    HW1 2531   2.601   2.784   1.733  1.0907  0.3764 -2.5372
  825SOL    HW2 2532   2.532   2.883   1.641 -2.0545 -1.6368 -2.5189
  826SOL     OW 2533   2.084   4.246   0.522 -0.5378  0.1047  0.9566
  826SOL    HW1 2534   2.100   4.322   0.578  0.1810 -0.2317  1.2168
  826SOL    HW2 2535   2.095   4.278   0.433 -3.2176  1.0425  0.8516
  827SOL     OW 2536   0.839   4.921   4.075  0.3978 -0.1342 -0.6802
  827SOL    HW1 2537   0.775   4.875   4.021 -1.6600  1.3643  0.3374
  827SOL    HW2 2538   0.822   4.891   4.164 -0.8752  2.2800 -0.0109
  828SOL     OW 2539   3.496   4.503   1.499 -0.0833 -0.2160 -0.0193
  828SOL    HW1 2540   3.585   4.471   1.484 -0.2836 -0.2356 -1.2019
  828SOL    HW2 2541   3.440   4.427   1.480 -0.5617  0.7311 -2.7571
  829SOL     OW 2542   4.446   2.717   3.020 -0.0690 -0.0378 -0.5603
  829SOL    HW1 2543   4.424   2.624   3.012  1.0817 -0.4238  0.4913
  829SOL    HW2 2544   4.540   2.721   3.007  0.0090  0.8750  0.1745
  830SOL     OW 2545   1.963   2.008   2.972 -0.3236  0.3058  0.0898
  830SOL    HW1 2546   2.022   2.038   3.040  1.1303 -0.9543 -0.5472
  830SOL    HW2 2547   1.982   2.065   2.897 -1.7535  1.5355  0.5956
  831SOL     OW 2548   2.865   2.279   0.121  0.2422  0.0021  0.2085
  831SOL    HW1 2549   2.950   2.296   0.080 -0.9731 -0.3660 -2.6977
  831SOL    HW2 2550   2.887   2.244   0.207  3.0278 -0.0925 -0.4348
  832SOL     OW 2551   3.895   2.476   0.207  0.0580  0.3486  0.6001
  832SOL    HW1 2552   3.813   2.525   0.217  0.2496  0.4361  1.9296
  832SOL    HW2 2553   3.964   2.542   0.218  0.3087 -0.0519  1.5676
  833SOL     OW 2554   1.258   0.174   3.901  0.5178  0.3069  0.0708
  833SOL    HW1 2555   1.321   0.103   3.913 -0.4467 -0.6099 -0.1655
  833SOL    HW2 2556   1.194   0.140   3.838  0.1457  1.4624 -0.2060
  834SOL     OW 2557   2.854   4.530   0.391 -0.2236  0.3201 -0.6049
  834SOL    HW1 2558   2.788   4.489   0.448  0.2999  0.0921 -0.1519
  834SOL    HW2 2559   2.803   4.585   0.331 -0.8386  0.0158 -0.3743
  835SOL     OW 2560   3.798   4.919   0.562  0.5570 -0.3632  0.1200
  835SOL    HW1 2561   3.797   4.946   0.471  0.0906  1.9167  0.7319
  835SOL    HW2 2562   3.708   4.933   0.592  0.7077 -1.0578  0.9410
  836SOL     OW 2563   0.892   0.993   1.958 -0.0467 -0.5193  0.5064
  836SOL    HW1 2564   0.851   1.078   1.939 -1.8669 -1.2061  1.1431
  836SOL    HW2 2565   0.887   0.984   2.053 -2.1318 -2.3409  0.3085
  837SOL     OW 2566   2.512   1.155   0.264  0.0492 -0.2830  0.0651
  837SOL    HW1 2567   2.430   1.131   0.221 -1.8657  0.9643  2.6988
  837SOL    HW2 2568   2.523   1.248   0.244  1.3279 -0.6342 -0.9534
  838SOL     OW 2569   4.334   2.769   3.816  0.1430 -0.2939 -0.1518
  838SOL    HW1 2570   4.408   2.716   3.844  1.0019  1.3178  0.8024
  838SOL    HW2 2571   4.260   2.708   3.811  1.0745 -1.5491  0.8976
  839SOL     OW 2572   4.070   3.155   1.110 -0.2985 -0.0090  0.0616
  839SOL    HW1 2573   4.063   3.195   1.024  0.5818  0.7305  0.3200
  839SOL    HW2 2574   4.090   3.063   1.092 -0.3550  0.0882 -0.5158
  840SOL     OW 2575   1.721   0.872   2.092  0.0407 -0.1327  0.4351
  840SOL    HW1 2576   1.755   0.932   2.026  1.6749 -0.2390  1.1463
  840SOL    HW2 2577   1.735   0.918   2.175  0.0949 -0.9554  0.8848
  841SOL     OW 2578   0.855   3.242   3.930 -0.2370  0.4379  0.0959
  841SOL    HW1 2579   0.904   3.311   3.973 -0.6451 -0.3188  1.8885
  841SOL    HW2 2580   0.920   3.194   3.879  0.0636  2.0367 -1.0879
  842SOL     OW 2581   3.300   3.399   3.389 -0.3749  0.3958 -0.1036
  842SOL    HW1 2582   3.345   3.449   3.322  0.0859 -1.1093 -0.9641
  842SOL    HW2 2583   3.207   3.421   3.378 -0.3099  0.1096 -1.2985
  843SOL     OW 2584   2.905   2.259   2.830 -0.4097 -0.4955  0.0184
  843SOL    HW1 2585   2.876   2.185   2.776  0.0402 -0.2915 -0.5143
  843SOL    HW2 2586   2.906   2.333   2.769 -1.8543  0.1847  0.7775
  844SOL     OW 2587   0.569   2.698   0.523  0.1356  0.4819  0.4182
  844SOL    HW1 2588   0.574   2.700   0.619  0.6797 -1.2934  0.4644
  844SOL    HW2 2589   0.652   2.658   0.496  0.1147  1.2382 -0.8285
  845SOL     OW 2590   4.831   0.057   3.984  0.1573 -0.4486  0.2555
  845SOL    HW1 2591   4.891   0.126   4.014  0.1422 -0.1801 -0.3195
  845SOL    HW2 2592   4.830   0.066   3.889 -1.4770  0.1353  0.2857
  846SOL     OW 2593   4.331   2.977   0.001  0.4280  0.6528 -0.3943
  846SOL    HW1 2594   4.384   3.050  -0.031  0.8277  0.9559  0.9135
  846SOL    HW2 2595   4.323   2.992   0.095 -3.2145  1.3953 -0.6783
  847SOL     OW 2596   1.091   3.401   4.491  0.5267  0.2170  0.2463
  847SOL    HW1 2597   1.119   3.331   4.432  0.4907  0.9632 -0.6898
  847SOL    HW2 2598   1.046   3.356   4.562  1.6776 -0.7970  0.3665
  848SOL     OW 2599   4.783   0.419   4.475 -0.5393  0.3353  0.0286
  848SOL    HW1 2600   4.688   0.435   4.481 -0.8849 -1.6006  0.6348
  848SOL    HW2 2601   4.821   0.476   4.541 -1.4736 -0.0488  0.9305
  849SOL     OW 2602   3.871   0.899   1.842 -0.2339  0.4389  0.0455
  849SOL    HW1 2603   3.795   0.850   1.872 -1.1574  1.8183  0.0566
  849SOL    HW2 2604   3.842   0.940   1.760  0.7758  0.3367 -0.3811
  850SOL     OW 2605   0.290   4.889   1.352 -0.4600 -0.5226  0.6096
  850SOL    HW1 2606   0.320   4.973   1.387  2.2225 -0.2242 -1.9185
  850SOL    HW2 2607   0.366   4.832   1.361 -0.5522 -1.1759 -2.0487
  851SOL     OW 2608   1.503   4.129   4.569 -0.2286  1.0839  0.6153
  851SOL    HW1 2609   1.421   4.171   4.593 -0.6815 -0.0746  1.1778
  851SOL    HW2 2610   1.477   4.041   4.540  0.7342  0.9781  0.0254
  852SOL     OW 2611   0.802   3.038   4.609 -0.0478 -0.4112 -0.2764
  852SOL    HW1 2612   0.767   2.956   4.643  0.1356 -0.0656  0.7968
  852SOL    HW2 2613   0.804   3.027   4.514 -1.3693 -1.1080 -0.2420
  853SOL     OW 2614   3.548   3.146   0.177  0.3848 -0.3931 -0.9968
  853SOL    HW1 2615   3.505   3.195   0.107  3.3142  1.7059 -1.4901
  853SOL    HW2 2616   3.564   3.059   0.139 -0.8505 -0.3214 -1.7457
  854SOL     OW 2617   0.398   3.639   0.308 -0.2000 -0.5080 -0.6497
  854SOL    HW1 2618   0.446   3.643   0.390 -0.0065  0.6843 -0.8067
  854SOL    HW2 2619   0.465   3.624   0.241 -0.2810 -0.8277 -0.6604
  855SOL     OW 2620   0.830   0.546   4.909  0.6548  0.6060  0.2843
  855SOL    HW1 2621   0.752   0.601   4.922 -1.8399 -2.7688  0.9572
  855SOL    HW2 2622   0.841   0.543   4.814 -1.7690 -0.8723 -0.0362
  856SOL     OW 2623   3.658   0.759   1.931 -0.6131 -0.0651 -0.0627
  856SOL    HW1 2624   3.562   0.753   1.931 -0.5158 -3.2414 -1.1790
  856SOL    HW2 2625   3.686   0.709   2.008  0.1801  1.2624  0.5440
  857SOL     OW 2626   1.230   2.724   0.053  0.0459 -0.0706  0.4705
  857SOL    HW1 2627   1.239   2.776   0.133 -0.9991 -0.2766  0.7395
  857SOL    HW2 2628   1.301   2.754  -0.003  0.0454  0.9612  0.9995
  858SOL     OW 2629   0.215   0.481   0.130 -0.5389  0.4545 -0.0859
  858SOL    HW1 2630   0.205   0.555   0.189 -1.8404 -1.3320  2.0748
  858SOL    HW2 2631   0.281   0.425   0.171 -1.7733 -1.0313 -0.0061
  859SOL     OW 2632   4.501   4.674   0.365 -0.2528 -0.5830  0.3415
  859SOL    HW1 2633   4.528   4.762   0.388 -1.1591  0.1484 -1.2368
  859SOL    HW2 2634   4.526   4.664   0.273 -1.9580 -1.1960 -0.0931
  860SOL     OW 2635   3.398   3.866   0.191  0.3206 -0.1091  0.5173
  860SOL    HW1 2636   3.330   3.906   0.245  0.6069  0.0644  0.7522
  860SOL    HW2 2637   3.434   3.796   0.246 -0.9076 -1.4440 -0.2793
  861SOL     OW 2638   0.528   2.169   4.353 -0.1119 -0.0272  0.2582
  861SOL    HW1 2639   0.512   2.207   4.440 -0.7984 -1.5605  0.8494
  861SOL    HW2 2640   0.623   2.170   4.344 -0.0848  1.1602  0.5422
  862SOL     OW 2641   4.442   3.161   4.358  0.0871 -0.2426  0.8218
  862SOL    HW1 2642   4.497   3.119   4.292  1.1101 -1.4832  2.4084
  862SOL    HW2 2643   4.358   3.114   4.353  0.1163 -0.2539  0.3534
  863SOL     OW 2644   2.617   0.213   0.567  0.1850  0.7227  0.8115
  863SOL    HW1 2645   2.609   0.278   0.498 -0.7302 -0.9899 -0.7821
  863SOL    HW2 2646   2.642   0.263   0.645 -3.7602  3.4948  0.5746
  864SOL     OW 2647   2.009   4.253   2.564 -0.2331 -0.3626  0.0299
  864SOL    HW1 2648   1.955   4.271   2.487  0.6598 -0.7814 -0.7219
  864SOL    HW2 2649   2.025   4.339   2.603 -0.6041 -0.1341 -0.3182
  865SOL     OW 2650   2.220   4.523   3.626 -0.0773 -0.2988  0.4728
  865SOL    HW1 2651   2.313   4.525   3.603 -0.2778 -2.6712 -0.8619
  865SOL    HW2 2652   2.214   4.466   3.702 -0.6549 -2.6759 -1.2372
  866SOL     OW 2653   2.803   4.168   1.073 -0.3275  0.1662 -0.0111
  866SOL    HW1 2654   2.813   4.166   1.168 -1.9893 -1.3768  0.1919
  866SOL    HW2 2655   2.733   4.232   1.058 -0.8774 -0.4369 -0.0746
  867SOL     OW 2656   2.114   1.012   2.208 -0.5477 -0.8599  0.1656
  867SOL    HW1 2657   2.119   1.061   2.290  0.1396 -2.7716  1.3124
  867SOL    HW2 2658   2.034   1.045   2.166 -0.7305  0.3947  1.4276
  868SOL     OW 2659   1.722   0.208   2.030 -0.7106 -0.4019  0.9481
  868SOL    HW1 2660   1.773   0.129   2.050  0.2405 -0.4525 -1.3784
  868SOL    HW2 2661   1.721   0.257   2.113 -0.1960 -2.2203  2.0885
  869SOL     OW 2662   1.466   4.773   2.684 -0.3560  0.6312  0.3384
  869SOL    HW1 2663   1.415   4.842   2.728  0.0330 -0.3785  2.4639
  869SOL    HW2 2664   1.552   4.776   2.726 -0.4033 -1.2829  0.6463
  870SOL     OW 2665   2.326   2.097   4.191 -0.4564  0.7037  0.2042
  870SOL    HW1 2666   2.273   2.045   4.130  0.1128 -0.3221  0.5572
  870SOL    HW2 2667   2.416   2.084   4.162 -0.2881  1.3367  0.4291
  871SOL     OW 2668   0.922   2.789   3.396 -0.1752 -0.4991  0.4019
  871SOL    HW1 2669   0.994   2.786   3.332 -1.0199  0.0545 -0.6075
  871SOL    HW2 2670   0.875   2.706   3.383 -0.5787 -0.2171 -0.0001
  872SOL     OW 2671   4.954   4.215   1.348  0.0207 -0.2373 -0.1089
  872SOL    HW1 2672   4.965   4.257   1.433 -0.4595 -0.1032 -0.1108
  872SOL    HW2 2673   4.859   4.203   1.339  0.1698 -1.5922  0.0210
  873SOL     OW 2674   4.005   4.330   0.456 -0.0277  0.1822 -0.0956
  873SOL    HW1 2675   4.005   4.278   0.376 -2.3593 -1.2973  0.7765
  873SOL    HW2 2676   4.084   4.301   0.503  0.3086 -0.3525 -0.9657
  874SOL     OW 2677   0.224   3.070   1.919 -0.0749  0.1243 -0.3860
  874SOL    HW1 2678   0.149   3.108   1.964 -0.0961  1.8731 -1.8082
  874SOL    HW2 2679   0.277   3.031   1.990 -2.2395 -1.1500  0.6479
  875SOL     OW 2680   4.534   4.903   2.172 -0.3297 -0.3374  0.0112
  875SOL    HW1 2681   4.537   4.947   2.087  0.1830 -0.9769 -0.3139
  875SOL    HW2 2682   4.626   4.889   2.195 -0.4773 -1.1161  0.1692
  876SOL     OW 2683   0.291   1.606   3.860 -0.3197 -0.0001  0.6337
  876SOL    HW1 2684   0.335   1.614   3.776 -0.7938  1.0683  0.4700
  876SOL    HW2 2685   0.362   1.613   3.925 -0.1317  0.7932  0.3547
  877SOL     OW 2686   3.065   0.514   2.242  0.0180  0.1143  0.0389
  877SOL    HW1 2687   3.047   0.480   2.329 -1.0439 -1.1600 -0.6339
  877SOL    HW2 2688   3.123   0.448   2.202  0.3518  0.5942 -0.2804
  878SOL     OW 2689   4.444   2.568   4.269  0.2019  0.3946  0.2652
  878SOL    HW1 2690   4.434   2.488   4.218 -0.0271 -0.3373  1.4219
  878SOL    HW2 2691   4.537   2.569   4.294  0.6394  1.4553 -1.2443
  879SOL     OW 2692   4.387   0.140   2.813 -0.2513  0.2299 -0.1411
  879SOL    HW1 2693   4.482   0.130   2.814 -0.4094 -1.8031 -0.0529
  879SOL    HW2 2694   4.361   0.129   2.904 -0.5809  0.8525 -0.1540
  880SOL     OW 2695   0.507   1.477   1.184 -0.0933  0.3011  0.0280
  880SOL    HW1 2696   0.569   1.407   1.166 -0.6848  0.0943 -1.3386
  880SOL    HW2 2697   0.445   1.474   1.112 -1.3472  0.9005  1.0241
  881SOL     OW 2698   0.062   2.869   4.154  0.0613 -0.0377  0.4930
  881SOL    HW1 2699   0.079   2.847   4.063 -0.4341 -0.4969  0.4983
  881SOL    HW2 2700   0.016   2.792   4.188  0.1127  0.1888  1.0889
  882SOL     OW 2701   3.515   1.778   1.745  0.2101 -0.0263  0.3707
  882SOL    HW1 2702   3.469   1.861   1.728 -0.1436 -0.2351  0.2888
  882SOL    HW2 2703   3.597   1.804   1.787 -0.4602  0.2956  1.5243
  883SOL     OW 2704   0.122   3.094   2.228  0.8842  0.1726  0.0815
  883SOL    HW1 2705   0.187   3.163   2.224  0.9104  0.3991  2.6782
  883SOL    HW2 2706   0.053   3.129   2.285 -0.4237 -0.9188 -0.7626
  884SOL     OW 2707   1.351   3.494   3.873  0.1252  0.2849  0.0139
  884SOL    HW1 2708   1.392   3.450   3.798  1.3618  0.1177  0.7715
  884SOL    HW2 2709   1.424   3.523   3.927 -0.6556  2.7117 -0.1240
  885SOL     OW 2710   2.678   2.870   4.738  0.1430 -0.1660 -0.2643
  885SOL    HW1 2711   2.763   2.912   4.726 -0.0145  0.1950 -0.1324
  885SOL    HW2 2712   2.674   2.847   4.831  0.6653 -1.4432 -0.5321
  886SOL     OW 2713   3.918   2.157   4.267  0.6468  0.1013  0.5005
  886SOL    HW1 2714   3.996   2.101   4.261  1.7453  1.6803 -0.8392
  886SOL    HW2 2715   3.933   2.210   4.345  1.0445  0.5575  0.1209
  887SOL     OW 2716   2.797   0.421   4.120 -0.1395 -0.0398  0.6005
  887SOL    HW1 2717   2.744   0.494   4.089 -0.6304 -0.1494  1.1504
  887SOL    HW2 2718   2.756   0.344   4.081  0.3542 -0.0279  0.0524
  888SOL     OW 2719   2.153   1.594   0.458 -0.0735 -0.1141  0.5880
  888SOL    HW1 2720   2.224   1.647   0.494  0.7600  0.4672 -1.6936
  888SOL    HW2 2721   2.075   1.648   0.469  0.5183  0.9766 -0.3246
  889SOL     OW 2722   0.567   4.161   4.369  0.0259  0.4741  0.4957
  889SOL    HW1 2723   0.568   4.159   4.273 -0.2948  1.7676  0.4519
  889SOL    HW2 2724   0.490   4.213   4.391  1.3770  2.1861  1.3874
  890SOL     OW 2725   3.578   3.466   2.886 -0.1595 -0.4914  0.1070
  890SOL    HW1 2726   3.614   3.379   2.905  1.1155 -0.0673 -0.2903
  890SOL    HW2 2727   3.557   3.464   2.793 -1.2586 -0.7472  0.3408
  891SOL     OW 2728   3.525   1.898   3.416  0.6469 -0.0495  0.5049
  891SOL    HW1 2729   3.598   1.853   3.459  0.1879 -1.5286 -0.1960
  891SOL    HW2 2730   3.455   1.833   3.412  0.2634  0.4004 -1.3420
  892SOL     OW 2731   0.189   4.795   4.372 -0.2899 -0.1076 -0.3113
  892SOL    HW1 2732   0.137   4.836   4.440  1.5975 -1.0337  1.8280
  892SOL    HW2 2733   0.181   4.701   4.388 -1.1906 -0.4807 -2.5130
  893SOL     OW 2734   4.264   2.642   1.440 -0.2639  0.0666  0.1492
  893SOL    HW1 2735   4.214   2.566   1.467  0.4279  0.1541  1.8075
  893SOL    HW2 2736   4.237   2.711   1.501  1.9668  0.0554  1.2624
  894SOL     OW 2737   3.022   2.744   3.243 -0.1678 -0.5479 -0.3472
  894SOL    HW1 2738   2.926   2.747   3.252 -0.7766 -0.9768 -4.4767
  894SOL    HW2 2739   3.045   2.654   3.263 -1.1289 -1.2156 -2.0453
  895SOL     OW 2740   1.393   1.313   2.558  0.0735  0.6202  0.3241
  895SOL    HW1 2741   1.302   1.301   2.585 -0.4381  0.0625 -1.4998
  895SOL    HW2 2742   1.426   1.223   2.548  1.5255  0.7486  2.9658
  896SOL     OW 2743   0.215   0.508   2.735  0.0791  0.2318  0.3342
  896SOL    HW1 2744   0.308   0.504   2.760  0.2965 -0.0096 -0.4981
  896SOL    HW2 2745   0.216   0.518   2.640 -0.6880  3.3400  0.5278
  897SOL     OW 2746   0.425   2.358   1.791  0.0267 -0.3861 -0.0736
  897SOL    HW1 2747   0.465   2.274   1.815  1.9914  0.5603  0.1470
  897SOL    HW2 2748   0.432   2.361   1.695  3.3402  0.9968  0.0718
  898SOL     OW 2749   2.926   1.759   0.822  0.0659 -0.2300  0.2304
  898SOL    HW1 2750   2.893   1.725   0.739 -0.8544  3.5980 -1.1768
  898SOL    HW2 2751   3.019   1.735   0.821  0.1566 -0.0617 -2.0822
  899SOL     OW 2752   1.623   0.102   2.685  0.5462  0.5062 -0.4015
  899SOL    HW1 2753   1.583   0.041   2.747  0.7858  1.0737  0.3238
  899SOL    HW2 2754   1.607   0.063   2.599  0.2078 -0.2893  0.0149
  900SOL     OW 2755   2.552   4.674   2.714  0.7381 -0.5947  0.1877
  900SOL    HW1 2756   2.525   4.686   2.623  0.2948 -1.0356  0.2589
  900SOL    HW2 2757   2.487   4.723   2.765 -0.6983 -2.6660  0.4384
  901SOL     OW 2758   2.085   4.304   4.705  0.4419  0.0506  0.3541
  901SOL    HW1 2759   2.028   4.238   4.743 -1.1914  1.9414  1.3574
  901SOL    HW2 2760   2.053   4.387   4.740  0.6579  1.6702 -2.8800
  902SOL     OW 2761   3.774   0.135   2.994  0.1245  0.3486 -0.3047
  902SOL    HW1 2762   3.840   0.083   2.950 -0.0397 -0.8647  0.8316
  902SOL    HW2 2763   3.777   0.107   3.085 -2.7534 -0.6510 -0.4018
  903SOL     OW 2764   0.717   1.216   3.002 -0.3187  0.1310  0.0350
  903SOL    HW1 2765   0.758   1.153   2.943 -1.3186  0.1770 -0.7440
  903SOL    HW2 2766   0.626   1.221   2.972 -0.8189  0.2725  1.4975
  904SOL     OW 2767   0.088   1.186   4.393 -0.7526  0.2488  0.1795
  904SOL    HW1 2768   0.029   1.126   4.438 -1.3615 -0.5535 -1.6054
  904SOL    HW2 2769   0.036   1.265   4.379 -0.3229  0.7922  1.4864
  905SOL     OW 2770   0.992   2.764   0.973 -0.3957 -0.3913 -0.4263
  905SOL    HW1 2771   1.007   2.757   0.879  1.0024 -2.4332 -0.1280
  905SOL    HW2 2772   1.068   2.721   1.012 -0.8034  0.6720  1.6557
  906SOL     OW 2773   4.753   4.014   2.680  0.1337 -0.1535 -0.3212
  906SOL    HW1 2774   4.832   4.040   2.726 -0.2990 -1.0517  0.9679
  906SOL    HW2 2775   4.748   3.919   2.690 -1.7528  0.0004  0.7415
  907SOL     OW 2776   2.926   2.746   4.485  0.2616  0.3006  0.0162
  907SOL    HW1 2777   2.842   2.703   4.499 -0.2527  0.8782 -1.1900
  907SOL    HW2 2778   2.916   2.832   4.524 -0.3419  1.0183 -1.6346
  908SOL     OW 2779   2.990   4.820   4.617  0.0365 -0.4001 -0.5609
  908SOL    HW1 2780   3.004   4.735   4.574  1.1445 -0.9236  0.7516
  908SOL    HW2 2781   3.067   4.831   4.674 -1.0387  0.5687  0.7681
  909SOL     OW 2782   2.142   1.903   0.858  0.0921  0.1937 -0.0532
  909SOL    HW1 2783   2.117   1.811   0.859  1.9076 -0.3462  0.7711
  909SOL    HW2 2784   2.238   1.902   0.868  0.0711  2.1838  0.9099
  910SOL     OW 2785   0.394   1.074   4.413 -0.5721  0.7988 -0.0164
  910SOL    HW1 2786   0.372   1.060   4.505 -2.9613  2.4179 -0.2516
  910SOL    HW2 2787   0.458   1.005   4.393  0.7385  0.9592  3.0533
  911SOL     OW 2788   0.439   1.213   4.761 -0.3021  0.5762  0.3247
  911SOL    HW1 2789   0.502   1.168   4.817 -0.7053  0.7153  0.9017
  911SOL    HW2 2790   0.493   1.266   4.701  0.1402  0.1450  0.3395
  912SOL     OW 2791   2.512   1.909   2.922  0.4085 -0.2779 -0.1014
  912SOL    HW1 2792   2.430   1.874   2.956  1.2887 -1.2635  1.1473
  912SOL    HW2 2793   2.540   1.846   2.856  1.2155 -1.1543  1.0346
  913SOL     OW 2794   4.506   2.697   4.678  0.1285  0.8283  0.0501
  913SOL    HW1 2795   4.476   2.767   4.621  2.3396  3.1993  1.5928
  913SOL    HW2 2796   4.447   2.700   4.754 -0.1406  0.5843 -0.1456
  914SOL     OW 2797   1.726   2.157   3.058 -0.8889 -0.4083 -0.1367
  914SOL    HW1 2798   1.815   2.148   3.023 -1.3749  1.0399 -1.9279
  914SOL    HW2 2799   1.669   2.143   2.982 -2.1728 -0.4963  0.8043
  915SOL     OW 2800   1.759   3.576   0.168  0.3037  0.3138  0.5749
  915SOL    HW1 2801   1.817   3.557   0.094  1.2362 -0.8708  1.5499
  915SOL    HW2 2802   1.690   3.631   0.132  0.8887  0.0026 -1.1015
  916SOL     OW 2803   0.652   4.951   2.229 -0.3020  0.0851  0.7437
  916SOL    HW1 2804   0.705   4.891   2.281  0.6166  0.8060  0.6712
  916SOL    HW2 2805   0.690   4.946   2.141 -1.9819 -1.2981  0.0334
  917SOL     OW 2806   4.582   0.928   0.024  0.0072  0.0593  0.2830
  917SOL    HW1 2807   4.553   0.989   0.093  0.1443 -0.1690  0.5436
  917SOL    HW2 2808   4.677   0.924   0.034  0.0693  0.3313 -0.1763
  918SOL     OW 2809   3.309   1.959   1.426 -0.1586 -0.8679 -0.2279
  918SOL    HW1 2810   3.300   2.007   1.343  2.3257 -1.4186 -0.8785
  918SOL    HW2 2811   3.386   1.904   1.414  0.8851 -0.2335  2.8325
  919SOL     OW 2812   2.396   0.516   0.223  0.3642 -0.1423 -0.6467
  919SOL    HW1 2813   2.375   0.546   0.135  1.2793 -0.5821 -1.0341
  919SOL    HW2 2814   2.437   0.592   0.265 -0.7690  0.3034 -0.3362
  920SOL     OW 2815   4.378   0.560   3.333  0.4137 -0.4666 -0.3177
  920SOL    HW1 2816   4.397   0.652   3.318 -1.6292 -0.1765 -1.4752
  920SOL    HW2 2817   4.449   0.530   3.390  0.6738  1.9970  0.7871
  921SOL     OW 2818   1.307   4.363   4.673  0.4597  0.2840 -0.0389
  921SOL    HW1 2819   1.295   4.365   4.768  2.0323 -2.6358  0.3653
  921SOL    HW2 2820   1.281   4.450   4.643 -0.3893  1.2022  3.0083
  922SOL     OW 2821   3.259   3.337   4.409 -0.2339  0.1775  0.3809
  922SOL    HW1 2822   3.213   3.261   4.374 -0.6356  0.3121  0.6138
  922SOL    HW2 2823   3.210   3.361   4.488 -0.2957  0.8606  0.1450
  923SOL     OW 2824   3.532   0.927   4.576  0.0286  0.8358 -0.3167
  923SOL    HW1 2825   3.578   0.856   4.621  0.2107  0.4238 -1.1352
  923SOL    HW2 2826   3.478   0.968   4.644  1.8727  1.5802  0.7790
  924SOL     OW 2827   4.754   2.007   2.737  0.2324 -0.2561 -0.1011
  924SOL    HW1 2828   4.785   2.068   2.670 -1.1889 -0.1729 -0.7291
  924SOL    HW2 2829   4.784   1.921   2.708  1.8637  0.0526  0.5551
  925SOL     OW 2830   0.707   3.730   3.151  0.2527 -0.1314  0.7212
  925SOL    HW1 2831   0.683   3.645   3.188  0.0284 -1.5870 -2.4775
  925SOL    HW2 2832   0.633   3.788   3.173 -1.6563 -1.9310 -0.5980
  926SOL     OW 2833   4.012   4.581   0.335  0.5043  0.0044 -0.0444
  926SOL    HW1 2834   4.065   4.632   0.397 -0.7570 -0.1597  1.2322
  926SOL    HW2 2835   3.983   4.505   0.385  1.7238 -1.6143 -1.7005
  927SOL     OW 2836   0.853   2.082   2.875  0.9251 -0.4573 -0.1614
  927SOL    HW1 2837   0.830   2.010   2.933 -1.5645  1.2141  1.0869
  927SOL    HW2 2838   0.938   2.112   2.907  0.6974 -1.0783  1.0818
  928SOL     OW 2839   4.007   2.107   3.281 -0.5474  0.0941 -0.6122
  928SOL    HW1 2840   3.915   2.093   3.303  0.3437 -3.6450  1.5678
  928SOL    HW2 2841   4.025   2.043   3.211  0.5946  0.0754 -0.3221
  929SOL     OW 2842   0.215   3.590   2.192  0.6415  0.5193  0.1229
  929SOL    HW1 2843   0.162   3.670   2.191 -0.2582 -0.0569 -1.4126
  929SOL    HW2 2844   0.243   3.579   2.101  2.4316  0.1502  0.6759
  930SOL     OW 2845   3.608   0.047   1.877 -0.0555 -0.2814 -0.2489
  930SOL    HW1 2846   3.632  -0.026   1.819  0.2927 -0.1162 -0.3110
  930SOL    HW2 2847   3.659   0.032   1.956  1.9774  1.2845 -1.1969
  931SOL     OW 2848   4.103   3.014   0.812 -0.1323 -0.1698  0.2186
  931SOL    HW1 2849   4.039   3.059   0.757  0.9949 -1.8592 -2.6849
  931SOL    HW2 2850   4.054   2.944   0.854 -0.4885 -0.6154 -0.9127
  932SOL     OW 2851   4.393   0.152   0.850 -0.5804  0.3528 -0.2185
  932SOL    HW1 2852   4.380   0.240   0.885  0.4327  0.5362 -0.2693
  932SOL    HW2 2853   4.418   0.166   0.759  0.3713  0.0678 -0.0151
  933SOL     OW 2854   1.115   4.739   1.416 -0.0626 -0.0144 -0.1623
  933SOL    HW1 2855   1.070   4.666   1.459 -1.0325 -1.2304 -3.0049
  933SOL    HW2 2856   1.186   4.699   1.367  1.3636  1.3891  0.6243
  934SOL     OW 2857   1.289   2.160   3.324  0.2607  0.2377 -0.6713
  934SOL    HW1 2858   1.356   2.225   3.299 -0.5363  0.2009 -3.2888
  934SOL    HW2 2859   1.335   2.076   3.320  0.2862  0.2775 -1.7822
  935SOL     OW 2860   3.423   1.257   2.629 -0.4319  0.0322  0.2780
  935SOL    HW1 2861   3.342   1.242   2.581 -1.0176  0.7311  1.0190
  935SOL    HW2 2862   3.408   1.213   2.714  0.6595 -1.3705 -0.2068
  936SOL     OW 2863   4.399   1.558   4.932  0.4804 -0.4031 -0.1249
  936SOL    HW1 2864   4.388   1.646   4.969 -0.1141 -1.0065  1.1754
  936SOL    HW2 2865   4.374   1.499   5.002  1.5291 -1.6470 -0.7553
  937SOL     OW 2866   2.540   4.858   1.695  0.0976  0.7492  0.2210
  937SOL    HW1 2867   2.612   4.842   1.757  0.1626  1.3483  0.3078
  937SOL    HW2 2868   2.507   4.945   1.718  0.5948  1.3015 -1.0339
  938SOL     OW 2869   2.587   1.669   2.739  0.3916 -0.1981 -0.3495
  938SOL    HW1 2870   2.555   1.617   2.665  1.0321 -0.1072 -0.7046
  938SOL    HW2 2871   2.656   1.615   2.778  0.1735 -0.1695  0.0824
  939SOL     OW 2872   1.435   2.620   1.103 -0.2069  0.4345  0.3805
  939SOL    HW1 2873   1.519   2.656   1.074 -0.1956  0.6824  0.7136
  939SOL    HW2 2874   1.448   2.601   1.196  0.3524 -2.0902 -0.1598
  940SOL     OW 2875   3.648   4.309   4.806  0.5553  0.1040 -0.1072
  940SOL    HW1 2876   3.718   4.304   4.741  1.2398  0.0782  0.6156
  940SOL    HW2 2877   3.605   4.393   4.789  0.9631  0.2660 -0.3496
  941SOL     OW 2878   0.037   4.706   3.165  0.1045 -0.1582  0.6613
  941SOL    HW1 2879   0.104   4.698   3.234 -0.5158  0.4310  1.3480
  941SOL    HW2 2880   0.068   4.649   3.095  1.5688  0.4363  0.7796
  942SOL     OW 2881   0.974   3.273   4.685  0.1226 -0.3242  0.3631
  942SOL    HW1 2882   0.939   3.324   4.758 -2.4188  1.8238 -2.1260
  942SOL    HW2 2883   0.936   3.186   4.696 -1.4233  0.3865  0.8325
  943SOL     OW 2884   1.460   2.856   3.090 -0.1737 -0.0403  0.3214
  943SOL    HW1 2885   1.429   2.826   3.175 -1.5964 -0.9968 -0.4862
  943SOL    HW2 2886   1.493   2.944   3.106 -0.4243 -0.2028  1.8551
  944SOL     OW 2887   4.885   3.797   1.124 -0.4742  0.0086  0.0738
  944SOL    HW1 2888   4.791   3.816   1.115 -0.4505  0.4581  0.6825
  944SOL    HW2 2889   4.890   3.741   1.201 -0.3653 -1.0920 -0.7188
  945SOL     OW 2890   1.299   4.937   4.220  0.4627 -1.3279  0.2527
  945SOL    HW1 2891   1.248   4.863   4.187  1.9903 -2.7562  0.9479
  945SOL    HW2 2892   1.334   4.979   4.141 -0.9275 -0.9250 -0.1801
  946SOL     OW 2893   0.125   2.062   0.265 -0.5184  0.1005 -0.7189
  946SOL    HW1 2894   0.040   2.061   0.309 -0.2238  0.3705 -0.1370
  946SOL    HW2 2895   0.139   1.972   0.237 -0.9782  0.0480 -0.7814
  947SOL     OW 2896   2.566   0.739   2.550 -0.3374  0.2493  0.2036
  947SOL    HW1 2897   2.620   0.665   2.523 -1.0909 -1.1377  2.2703
  947SOL    HW2 2898   2.627   0.812   2.555  0.8515 -0.7068  0.0742
  948SOL     OW 2899   2.653   4.369   0.586 -0.1520  0.0218 -0.3745
  948SOL    HW1 2900   2.691   4.282   0.597  0.6487  0.3699 -0.3485
  948SOL    HW2 2901   2.638   4.399   0.676 -2.2158 -0.8337 -0.3718
  949SOL     OW 2902   2.117   4.651   0.881  0.2326 -0.1885  0.1553
  949SOL    HW1 2903   2.212   4.643   0.881  0.3268  0.7063 -1.2569
  949SOL    HW2 2904   2.091   4.640   0.790 -0.9391  0.3890  0.3921
  950SOL     OW 2905   0.197   4.722   2.740 -0.0855  0.0412 -0.1639
  950SOL    HW1 2906   0.118   4.775   2.749  1.2321  1.7399  2.5756
  950SOL    HW2 2907   0.254   4.773   2.682  0.0981  0.2933  0.2290
  951SOL     OW 2908   3.722   1.373   0.140 -0.5913 -0.1684  0.1196
  951SOL    HW1 2909   3.674   1.447   0.177 -1.8192 -0.7367 -0.3110
  951SOL    HW2 2910   3.656   1.307   0.121  0.3678 -1.0197 -0.3952
  952SOL     OW 2911   3.485   1.843   4.054  0.1201  0.0755  0.0918
  952SOL    HW1 2912   3.508   1.915   4.112  1.6007  1.1941 -1.7849
  952SOL    HW2 2913   3.486   1.881   3.967 -1.4997 -1.6720 -0.7636
  953SOL     OW 2914   4.445   4.093   3.786 -0.0452 -0.1811 -0.5402
  953SOL    HW1 2915   4.479   4.085   3.697  0.1482 -2.3361 -0.3133
  953SOL    HW2 2916   4.517   4.065   3.842  0.3426  2.4885  0.4555
  954SOL     OW 2917   2.169   3.331   0.735 -0.4185 -0.2772 -0.1252
  954SOL    HW1 2918   2.177   3.301   0.826  1.7603 -0.5867 -0.3743
  954SOL    HW2 2919   2.081   3.305   0.709 -0.9763 -0.4772  1.7860
  955SOL     OW 2920   2.287   3.560   1.267 -0.1837  0.4051 -0.3332
  955SOL    HW1 2921   2.352   3.631   1.265  1.3162 -0.8594  0.8929
  955SOL    HW2 2922   2.267   3.544   1.175  0.3277  1.6265 -0.6836
  956SOL     OW 2923   2.741   0.111   3.430 -0.4805  0.5422  0.5141
  956SOL    HW1 2924   2.655   0.072   3.415 -0.4190  0.9899 -1.2228
  956SOL    HW2 2925   2.797   0.038   3.456 -0.7331 -0.3101 -1.1709
  957SOL     OW 2926   3.727   3.222   2.835  0.4041  0.0849  0.2166
  957SOL    HW1 2927   3.812   3.178   2.823 -0.5282 -1.4328 -1.4433
  957SOL    HW2 2928   3.690   3.226   2.747 -1.6599 -0.1834  1.0127
  958SOL     OW 2929   0.943   2.473   1.106  0.0525  0.1677 -0.3046
  958SOL    HW1 2930   0.997   2.400   1.137  0.5833  0.2911 -0.9140
  958SOL    HW2 2931   1.006   2.542   1.087 -0.4158  0.6501 -0.1127
  959SOL     OW 2932   4.677   2.438   0.300 -0.3546  0.2546 -0.7605
  959SOL    HW1 2933   4.687   2.440   0.205 -0.8871 -1.8491 -0.9030
  959SOL    HW2 2934   4.751   2.385   0.330 -1.1527 -0.5317 -0.1686
  960SOL     OW 2935   3.722   4.931   1.538 -0.4114 -0.2360 -0.0569
  960SOL    HW1 2936   3.729   4.873   1.614 -0.7507 -2.3586 -1.5407
  960SOL    HW2 2937   3.783   4.894   1.475  0.6781  2.1277 -0.4979
  961SOL     OW 2938   1.680   2.112   2.375  0.1170 -0.6306  0.1328
  961SOL    HW1 2939   1.702   2.098   2.283 -0.1190 -0.6616  0.0786
  961SOL    HW2 2940   1.723   2.041   2.422 -0.1224 -0.8681 -0.0057
  962SOL     OW 2941   0.056   1.810   4.715  0.5268 -0.6495  0.5575
  962SOL    HW1 2942   0.063   1.720   4.748 -3.4034 -1.5103 -0.5226
  962SOL    HW2 2943   0.061   1.801   4.620 -2.9336 -0.3058  0.2189
  963SOL     OW 2944   0.653   3.890   0.925  0.2950 -0.3117  0.6794
  963SOL    HW1 2945   0.582   3.932   0.878  0.2582 -0.5646  0.5108
  963SOL    HW2 2946   0.728   3.949   0.913  0.3491 -0.4910  0.1088
  964SOL     OW 2947   4.685   0.181   3.233 -0.2518 -0.0400  0.0393
  964SOL    HW1 2948   4.610   0.236   3.252 -2.2497 -2.6831  0.3350
  964SOL    HW2 2949   4.722   0.218   3.153 -1.4805  1.6883  0.2244
  965SOL     OW 2950   3.540   1.918   4.462  0.8039 -0.0146  0.3634
  965SOL    HW1 2951   3.541   1.933   4.368  1.4363  2.7926  0.7239
  965SOL    HW2 2952   3.449   1.899   4.483  0.6202 -0.4340 -0.7505
  966SOL     OW 2953   3.374   3.761   0.560  0.3689 -0.2937  0.1443
  966SOL    HW1 2954   3.460   3.802   0.557  1.6445 -2.3536  3.1908
  966SOL    HW2 2955   3.371   3.704   0.484  2.1104 -0.8776  0.4865
  967SOL     OW 2956   2.008   3.611   2.602  0.4961  0.0039 -0.1275
  967SOL    HW1 2957   1.931   3.602   2.546  0.6892  0.9908 -0.5840
  967SOL    HW2 2958   2.082   3.614   2.541  1.4496 -4.9214  0.3709
  968SOL     OW 2959   4.958   4.153   3.180 -0.6119 -0.0285 -0.4661
  968SOL    HW1 2960   4.901   4.172   3.106 -0.9189 -0.7702 -0.4275
  968SOL    HW2 2961   4.984   4.239   3.213 -0.2800  0.3073 -1.5748
  969SOL     OW 2962   3.165   1.991   3.889 -0.3852  0.2037 -0.0823
  969SOL    HW1 2963   3.149   1.913   3.942 -0.9141  1.0586  1.0716
  969SOL    HW2 2964   3.120   2.061   3.937  2.1426  1.6977  0.2758
  970SOL     OW 2965   3.067   1.681   1.780  0.0612  0.1812 -0.3212
  970SOL    HW1 2966   3.121   1.727   1.715  0.1973  1.2149  0.4844
  970SOL    HW2 2967   2.997   1.744   1.801  0.2579  0.0327  0.8237
  971SOL     OW 2968   2.967   1.405   3.478  0.0295 -0.3126  0.0328
  971SOL    HW1 2969   2.946   1.489   3.437  0.5566 -0.1485  0.0899
  971SOL    HW2 2970   2.968   1.424   3.572  0.6736 -0.2494  0.0226
  972SOL     OW 2971   1.580   3.747   1.268  0.6112  0.2530 -0.4331
  972SOL    HW1 2972   1.574   3.718   1.177  1.3916 -1.1026 -0.0793
  972SOL    HW2 2973   1.558   3.669   1.320 -0.2640  1.1238  0.5461
  973SOL     OW 2974   0.087   1.641   3.515 -0.5317 -0.9983  0.2216
  973SOL    HW1 2975   0.002   1.599   3.531 -0.5274 -1.0483  0.1135
  973SOL    HW2 2976   0.098   1.636   3.420 -1.3577  0.8328 -0.0135
  974SOL     OW 2977   3.021   3.666   2.788 -0.3612  0.3046  0.0530
  974SOL    HW1 2978   2.980   3.705   2.865 -2.2991 -0.4563 -0.5256
  974SOL    HW2 2979   3.065   3.588   2.820 -1.8519 -0.4603  0.3183
  975SOL     OW 2980   2.421   2.572   1.813 -0.2719 -0.1836  0.3290
  975SOL    HW1 2981   2.441   2.661   1.784  0.8505 -0.9707 -1.4720
  975SOL    HW2 2982   2.428   2.518   1.734 -2.5979 -1.6504  1.0306
  976SOL     OW 2983   1.336   1.251   1.393  0.6204 -0.0468 -0.2548
  976SOL    HW1 2984   1.317   1.161   1.420 -0.7017  0.1728 -0.3990
  976SOL    HW2 2985   1.429   1.251   1.371  1.0697 -0.9476  1.4764
  977SOL     OW 2986   1.389   1.855   1.864 -0.4274  0.1422 -0.1242
  977SOL    HW1 2987   1.391   1.950   1.853 -0.6308  0.1876  0.2164
  977SOL    HW2 2988   1.381   1.821   1.775 -0.3028  0.4404 -0.2528
  978SOL     OW 2989   4.908   4.427   0.217  0.4308  0.2948  0.6589
  978SOL    HW1 2990   4.862   4.356   0.171  2.8891 -0.3363 -1.0115
  978SOL    HW2 2991   4.873   4.507   0.179 -0.0083 -0.1374  0.1367
  979SOL     OW 2992   3.792   4.644   0.631  0.1785  0.4867  0.5691
  979SOL    HW1 2993   3.805   4.733   0.599 -1.8795  0.6013 -0.0997
  979SOL    HW2 2994   3.745   4.600   0.561 -0.0708 -0.7212  1.4614
  980SOL     OW 2995   1.941   2.442   3.860 -0.4878 -0.2247  0.0327
  980SOL    HW1 2996   1.880   2.516   3.853  1.0148  1.3703  2.2481
  980SOL    HW2 2997   1.987   2.457   3.942  1.1218 -2.7424 -0.3024
  981SOL     OW 2998   2.076   4.754   3.600 -0.5329  0.1924 -0.4680
  981SOL    HW1 2999   2.037   4.770   3.686 -2.8276 -3.0882 -0.6910
  981SOL    HW2 3000   2.127   4.673   3.611 -0.9246 -0.3363 -2.1741
  982SOL     OW 3001   0.917   0.203   0.996 -0.0255 -0.5199 -0.8898
  982SOL    HW1 3002   0.855   0.232   1.063  0.7831 -0.2812 -0.2300
  982SOL    HW2 3003   0.974   0.278   0.982  1.4881 -1.4296  0.1367
  983SOL     OW 3004   2.834   0.850   1.978 -0.6465  0.4068  0.2048
  983SOL    HW1 3005   2.780   0.894   2.044 -1.1953  1.0046 -0.6341
  983SOL    HW2 3006   2.774   0.828   1.907 -0.3146 -1.3842  0.4253
  984SOL     OW 3007   0.640   3.547   2.474  0.0818 -0.4384  0.6077
  984SOL    HW1 3008   0.718   3.601   2.486 -0.4546  0.7351 -0.9200
  984SOL    HW2 3009   0.647   3.479   2.542  2.5425 -0.5295  0.3355
  985SOL     OW 3010   0.872   0.368   1.775  0.0951 -0.2532 -0.2256
  985SOL    HW1 3011   0.955   0.344   1.734  0.0170 -0.1561 -0.4441
  985SOL    HW2 3012   0.863   0.462   1.760  0.2664 -0.1368  0.3868
  986SOL     OW 3013   0.189   2.358   3.467  0.1950 -0.2930  0.7794
  986SOL    HW1 3014   0.240   2.312   3.401 -0.1739 -0.2152  0.4368
  986SOL    HW2 3015   0.198   2.451   3.444 -1.0743 -0.3507  0.0024
  987SOL     OW 3016   1.846   1.460   2.697 -0.1308  0.7074 -0.3241
  987SOL    HW1 3017   1.921   1.438   2.642 -0.2723  0.1216 -0.2843
  987SOL    HW2 3018   1.806   1.376   2.719  0.8843  0.7419  2.0318
  988SOL     OW 3019   2.828   3.596   0.676  0.5735  0.4940 -0.3735
  988SOL    HW1 3020   2.856   3.572   0.587 -1.6568 -0.1186 -0.9746
  988SOL    HW2 3021   2.778   3.520   0.706  1.8146  0.4286  1.7069
  989SOL     OW 3022   2.353   1.678   1.095 -0.2287  0.2387 -0.2512
  989SOL    HW1 3023   2.357   1.719   1.181 -1.4074 -0.0990 -0.0106
  989SOL    HW2 3024   2.379   1.747   1.034  1.8962  0.1110  0.4406
  990SOL     OW 3025   4.362   2.356   2.306  0.7236  0.4182 -0.1059
  990SOL    HW1 3026   4.294   2.365   2.240 -1.0418 -2.3449  1.1734
  990SOL    HW2 3027   4.316   2.363   2.390  2.7513  2.8925  0.9781
  991SOL     OW 3028   0.061   1.129   0.594 -0.4701 -0.5034 -0.0170
  991SOL    HW1 3029   0.105   1.185   0.659 -0.1020 -0.1357 -0.5757
  991SOL    HW2 3030   0.049   1.186   0.518  0.8339 -1.4610 -0.9732
  992SOL     OW 3031   0.687   1.807   4.245 -0.0487 -0.2230  0.2073
  992SOL    HW1 3032   0.612   1.801   4.304 -1.1219 -0.3982 -1.1234
  992SOL    HW2 3033   0.665   1.880   4.187  0.4785 -0.7197 -0.6366
  993SOL     OW 3034   4.262   4.841   1.691  0.1942 -0.7410 -0.2515
  993SOL    HW1 3035   4.200   4.891   1.639 -0.7235 -2.6923 -1.1156
  993SOL    HW2 3036   4.308   4.907   1.743 -0.3444  1.0619 -1.9462
  994SOL     OW 3037   3.233   4.665   2.524 -0.1851  0.1735 -0.2462
  994SOL    HW1 3038   3.216   4.605   2.451 -1.6379 -0.9434  0.9364
  994SOL    HW2 3039   3.156   4.657   2.579  0.4968  1.6530  0.9918
  995SOL     OW 3040   3.492   3.175   4.074 -0.1555 -0.8475  0.0907
  995SOL    HW1 3041   3.587   3.177   4.071 -0.1710 -1.3267 -1.1024
  995SOL    HW2 3042   3.468   3.086   4.050 -0.9066 -0.7185  0.3141
  996SOL     OW 3043   3.360   1.902   2.740 -0.8177 -0.7060 -0.1122
  996SOL    HW1 3044   3.412   1.941   2.810  0.3699  0.1693 -1.4133
  996SOL    HW2 3045   3.286   1.962   2.729 -0.2018 -0.0206 -0.5947
  997SOL     OW 3046   4.642   0.405   0.497  0.0284 -0.0890 -0.4729
  997SOL    HW1 3047   4.719   0.403   0.440  0.6241  2.9356  0.0814
  997SOL    HW2 3048   4.611   0.495   0.492 -4.3532 -1.3989 -1.7151
  998SOL     OW 3049   2.160   2.078   3.151  0.2135  0.2326 -0.1308
  998SOL    HW1 3050   2.190   2.157   3.105  1.6448 -1.4108 -2.1603
  998SOL    HW2 3051   2.238   2.044   3.194 -0.7028  0.6393  1.9747
  999SOL     OW 3052   0.264   4.056   2.238 -0.0254  0.9198  0.0367
  999SOL    HW1 3053   0.358   4.073   2.239  0.2060 -0.2693  1.6779
  999SOL    HW2 3054   0.239   4.069   2.147  2.1338 -0.8413 -0.9035
 1000SOL     OW 3055   1.266   4.729   1.993  0.6367 -0.2221  0.0856
 1000SOL    HW1 3056   1.225   4.785   2.059 -1.5226 -0.3529 -1.0614
 1000SOL    HW2 3057   1.298   4.653   2.042  1.2855  0.7947  1.2849
 1001SOL     OW 3058   1.329   3.728   1.742 -0.4417 -0.3731 -0.0545
 1001SOL    HW1 3059   1.254   3.705   1.688 -1.0748 -1.1599  1.1143
 1001SOL    HW2 3060   1.294   3.732   1.831  0.8702 -0.6029  0.4952
 1002SOL     OW 3061   4.868   1.030   4.177 -0.4656  0.4249  0.0486
 1002SOL    HW1 3062   4.921   1.065   4.106 -0.4678  0.6045  0.1346
 1002SOL    HW2 3063   4.802   1.098   4.194 -0.8452  0.1242 -0.1894
 1003SOL     OW 3064   1.359   2.407   3.498  0.4416  0.5018 -0.5567
 1003SOL    HW1 3065   1.329   2.467   3.429 -2.1847 -0.3045 -0.2269
 1003SOL    HW2 3066   1.340   2.454   3.579 -2.7467 -1.0780 -0.2474
 1004SOL     OW 3067   0.627   3.472   3.252 -0.3606  0.0578  0.5988
 1004SOL    HW1 3068   0.627   3.381   3.224  0.7494  0.3154 -0.2780
 1004SOL    HW2 3069   0.543   3.483   3.297 -1.8395 -0.6210 -1.8322
 1005SOL     OW 3070   1.398   0.756   1.071  0.1838 -1.1597 -0.3246
 1005SOL    HW1 3071   1.390   0.799   1.156 -0.8034 -1.0833 -0.4472
 1005SOL    HW2 3072   1.492   0.752   1.055  0.3244  1.0121 -0.3358
 1006SOL     OW 3073   2.697   4.238   4.411  0.0360  0.1975 -0.1654
 1006SOL    HW1 3074   2.755   4.162   4.408 -0.4946 -0.3044  1.1159
 1006SOL    HW2 3075   2.721   4.284   4.492 -0.7433  0.4619 -0.0680
 1007SOL     OW 3076   2.865   3.277   0.515  0.0689  0.3219  0.6157
 1007SOL    HW1 3077   2.836   3.306   0.601 -2.8123  2.5671 -0.9586
 1007SOL    HW2 3078   2.810   3.201   0.494 -1.0099  1.2883 -0.1822
 1008SOL     OW 3079   1.881   2.251   0.389  0.1761 -0.2525 -0.2269
 1008SOL    HW1 3080   1.973   2.249   0.364 -0.0895  0.5201 -1.3717
 1008SOL    HW2 3081   1.867   2.339   0.424  0.2479 -0.9247  1.5823
 1009SOL     OW 3082   2.852   4.515   2.348  0.3236  0.1284 -0.0253
 1009SOL    HW1 3083   2.826   4.429   2.379  4.2194 -0.7639  1.4109
 1009SOL    HW2 3084   2.825   4.575   2.418 -2.5483  0.2321 -1.1062
 1010SOL     OW 3085   2.100   3.755   3.258  0.6256 -0.3898  0.1073
 1010SOL    HW1 3086   2.039   3.762   3.184  1.3424 -1.5275 -0.6046
 1010SOL    HW2 3087   2.063   3.686   3.313  0.1581  0.3730  0.7714
 1011SOL     OW 3088   2.356   0.294   2.100  0.3616  0.1157  0.2687
 1011SOL    HW1 3089   2.407   0.215   2.086 -0.9284 -0.4585 -1.4947
 1011SOL    HW2 3090   2.266   0.268   2.085 -0.4330  1.3120  2.4190
 1012SOL     OW 3091   4.266   0.588   4.735  0.1169 -0.5276  0.8435
 1012SOL    HW1 3092   4.290   0.599   4.643 -1.1461 -0.5666  0.4939
 1012SOL    HW2 3093   4.326   0.647   4.782  1.6691 -1.4806  0.1541
 1013SOL     OW 3094   0.281   3.404   0.831  0.0535  0.4463 -0.2633
 1013SOL    HW1 3095   0.320   3.400   0.743 -0.4129 -0.9174 -0.4233
 1013SOL    HW2 3096   0.348   3.448   0.884  1.3606 -0.8230 -0.7807
 1014SOL     OW 3097   4.177   1.359   3.772 -0.2922 -0.5527 -0.0619
 1014SOL    HW1 3098   4.102   1.404   3.733 -1.0214 -0.7779  1.0630
 1014SOL    HW2 3099   4.213   1.423   3.833  1.8814  0.4545 -2.2206
 1015SOL     OW 3100   0.960   3.322   3.243  0.3435  0.1725  0.2977
 1015SOL    HW1 3101   1.052   3.320   3.216  0.5775  1.4073  0.9555
 1015SOL    HW2 3102   0.911   3.311   3.161  1.0393 -2.1605  0.1156
 1016SOL     OW 3103   4.712   1.849   2.117 -0.0094  0.4768  0.2225
 1016SOL    HW1 3104   4.651   1.824   2.186  0.1570 -0.5777 -0.0077
 1016SOL    HW2 3105   4.764   1.770   2.100  0.0109  0.7494 -1.0479
 1017SOL     OW 3106   2.107   0.473   1.620  0.2992 -0.5101  0.0357
 1017SOL    HW1 3107   2.101   0.568   1.625 -1.4210 -0.6380  1.1412
 1017SOL    HW2 3108   2.179   0.456   1.559  1.2155  1.4858  0.5104
 1018SOL     OW 3109   2.959   4.035   3.435 -0.0872 -0.1892 -0.4148
 1018SOL    HW1 3110   2.889   4.096   3.413  1.1585  1.0487 -1.1826
 1018SOL    HW2 3111   3.031   4.060   3.377  0.4159 -2.5828 -0.9119
 1019SOL     OW 3112   3.925   1.179   0.889 -0.2235  0.0575  0.1395
 1019SOL    HW1 3113   3.989   1.133   0.944 -1.8886 -0.0422  2.0937
 1019SOL    HW2 3114   3.899   1.255   0.942 -1.5405  0.2175 -0.7099
 1020SOL     OW 3115   2.800   4.218   2.195  0.9663  0.4355 -0.4782
 1020SOL    HW1 3116   2.725   4.215   2.253  0.0529 -2.5873 -1.6086
 1020SOL    HW2 3117   2.764   4.242   2.110  1.8415  2.1420 -0.3989
 1021SOL     OW 3118   2.440   2.697   3.324 -0.0947 -0.2729 -0.4583
 1021SOL    HW1 3119   2.472   2.714   3.236 -0.0887  1.5008 -0.1650
 1021SOL    HW2 3120   2.352   2.662   3.312  0.0474 -0.3824 -1.1823
 1022SOL     OW 3121   2.126   4.273   1.658 -0.1775  0.3759  0.3518
 1022SOL    HW1 3122   2.210   4.231   1.676  0.2217  0.8375 -0.4104
 1022SOL    HW2 3123   2.066   4.236   1.724  0.4655 -0.4255  0.4997
 1023SOL     OW 3124   4.557   4.921   4.663  0.0818  0.6121  0.6704
 1023SOL    HW1 3125   4.576   4.982   4.592  1.8109 -1.0149 -0.3689
 1023SOL    HW2 3126   4.470   4.887   4.642  0.1526  0.8962 -0.1263
 1024SOL     OW 3127   2.574   1.595   4.844  0.8392 -0.5342 -0.0530
 1024SOL    HW1 3128   2.521   1.563   4.770  0.4146 -1.6090  0.6866
 1024SOL    HW2 3129   2.519   1.579   4.921  0.4202  2.3735  0.3900
 1025SOL     OW 3130   0.796   4.199   3.776  0.2656 -0.0858 -0.0945
 1025SOL    HW1 3131   0.823   4.291   3.785  1.5705 -0.4730  0.1599
 1025SOL    HW2 3132   0.809   4.179   3.683  0.6640 -0.2093 -0.0141
 1026SOL     OW 3133   2.597   0.046   3.024  0.1101 -0.0215 -0.7234
 1026SOL    HW1 3134   2.569   0.116   3.083 -0.0105 -1.9586  1.6749
 1026SOL    HW2 3135   2.692   0.058   3.016  0.4804 -0.8838  1.6192
 1027SOL     OW 3136   0.840   2.225   0.960  0.3813  0.4867  0.4442
 1027SOL    HW1 3137   0.858   2.318   0.976 -1.6755  0.7771  1.3725
 1027SOL    HW2 3138   0.795   2.224   0.876  0.0737  0.3709  0.6112
 1028SOL     OW 3139   1.190   0.631   4.324  0.1118  0.0887  0.9148
 1028SOL    HW1 3140   1.118   0.571   4.342  0.2977  0.3267  2.5604
 1028SOL    HW2 3141   1.257   0.609   4.388  1.0252  0.6855  0.1963
 1029SOL     OW 3142   1.433   2.626   1.667 -0.4272 -0.2127  0.6607
 1029SOL    HW1 3143   1.365   2.602   1.604 -0.3501 -3.0518  1.5090
 1029SOL    HW2 3144   1.429   2.722   1.671 -1.6830 -0.0295 -2.2022
 1030SOL     OW 3145   2.553   1.515   0.519 -0.1068 -0.1157 -0.0532
 1030SOL    HW1 3146   2.637   1.477   0.494  1.3852  2.1152  1.1575
 1030SOL    HW2 3147   2.532   1.473   0.603 -1.9806 -3.0720 -1.8456
 1031SOL     OW 3148   2.096   3.449   3.053  0.2902 -0.5126  0.0748
 1031SOL    HW1 3149   2.043   3.528   3.061 -1.0313 -1.4394  0.7744
 1031SOL    HW2 3150   2.104   3.435   2.959  2.0355  1.3885 -0.1291
 1032SOL     OW 3151   4.496   1.995   1.061 -0.0457 -0.7230 -0.4766
 1032SOL    HW1 3152   4.472   1.912   1.103 -1.5148 -0.8676 -1.4979
 1032SOL    HW2 3153   4.452   1.991   0.976  1.5182  0.2490 -1.3671
 1033SOL     OW 3154   0.844   4.175   4.047  1.0088 -0.0266  0.1311
 1033SOL    HW1 3155   0.786   4.249   4.061 -0.2334 -0.9020 -0.1882
 1033SOL    HW2 3156   0.859   4.173   3.953  0.7920 -0.3603  0.1031
 1034SOL     OW 3157   4.834   3.403   2.226 -0.3144 -0.1184  0.8387
 1034SOL    HW1 3158   4.852   3.352   2.305 -0.9770  2.0742  2.5159
 1034SOL    HW2 3159   4.747   3.441   2.241 -2.2814 -2.6787 -2.7119
 1035SOL     OW 3160   3.137   3.081   0.272 -0.6821 -0.3383  0.0447
 1035SOL    HW1 3161   3.062   3.120   0.227 -0.1693  2.4859  1.4174
 1035SOL    HW2 3162   3.098   3.017   0.332 -1.6520 -1.3790 -1.5987
 1036SOL     OW 3163   3.075   0.701   2.050 -0.2024  0.6377  0.2976
 1036SOL    HW1 3164   2.985   0.733   2.051 -1.4677 -2.5107 -1.2207
 1036SOL    HW2 3165   3.078   0.635   2.120  0.5929 -0.0381 -0.3543
 1037SOL     OW 3166   3.555   3.062   4.535 -0.2013 -0.3690 -0.1325
 1037SOL    HW1 3167   3.541   3.141   4.484  1.1775  0.0976  0.1661
 1037SOL    HW2 3168   3.529   2.991   4.477  0.9145  0.1708 -1.3332
 1038SOL     OW 3169   0.358   1.618   3.563 -0.0275 -0.9626 -0.1678
 1038SOL    HW1 3170   0.393   1.627   3.474  1.6599  2.0444  0.6295
 1038SOL    HW2 3171   0.263   1.619   3.552  0.1450 -0.7493 -1.9424
 1039SOL     OW 3172   1.100   2.137   2.025 -0.4421 -0.3455  0.1645
 1039SOL    HW1 3173   1.130   2.110   2.112 -2.1733  0.5393  1.1070
 1039SOL    HW2 3174   1.061   2.058   1.988 -2.4550 -0.0831  1.5221
 1040SOL     OW 3175   1.434   1.678   1.184 -0.2334 -0.4527 -0.3369
 1040SOL    HW1 3176   1.523   1.677   1.219 -1.3814  0.1873  2.8892
 1040SOL    HW2 3177   1.395   1.759   1.218 -2.2853 -1.0797 -1.0284
 1041SOL     OW 3178   3.411   1.624   4.698 -0.6058  0.0666  0.3624
 1041SOL    HW1 3179   3.497   1.666   4.699  0.0586 -1.1808 -0.8104
 1041SOL    HW2 3180   3.352   1.689   4.737  0.9795  0.6506  1.9076
 1042SOL     OW 3181   2.006   3.196   3.095 -0.2111 -0.1467  0.1407
 1042SOL    HW1 3182   2.020   3.291   3.092  0.8928 -0.3153 -0.7168
 1042SOL    HW2 3183   2.081   3.159   3.049 -0.3768 -1.4744  0.8912
 1043SOL     OW 3184   4.908   1.034   4.544 -0.2847  0.2939  0.2781
 1043SOL    HW1 3185   4.813   1.033   4.536 -0.2640  0.0572  0.0259
 1043SOL    HW2 3186   4.925   1.067   4.632 -0.5405  2.2354 -0.3575
 1044SOL     OW 3187   4.655   4.577   4.105  0.0109 -1.0327 -0.2229
 1044SOL    HW1 3188   4.680   4.623   4.186 -0.8411  1.6527 -1.3581
 1044SOL    HW2 3189   4.725   4.596   4.044 -0.1502 -1.6293 -0.5924
 1045SOL     OW 3190   0.597   4.044   1.492 -0.5122  0.6882 -0.2538
 1045SOL    HW1 3191   0.506   4.013   1.488  0.5424 -2.5922 -1.9646
 1045SOL    HW2 3192   0.620   4.039   1.585 -1.0391 -2.0637 -0.1936
 1046SOL     OW 3193   4.063   4.278   1.169  0.2281 -0.2531 -0.1237
 1046SOL    HW1 3194   4.043   4.232   1.087  0.0408  0.7278 -0.6396
 1046SOL    HW2 3195   3.977   4.301   1.205  0.3277  0.0756 -0.0926
 1047SOL     OW 3196   0.486   4.609   0.743 -0.5153  0.0732 -0.1932
 1047SOL    HW1 3197   0.549   4.631   0.812 -0.3632 -0.9358  0.0057
 1047SOL    HW2 3198   0.412   4.571   0.789 -0.1251 -1.2553 -0.6198
 1048SOL     OW 3199   1.394   4.336   3.179  0.3384 -0.2235 -0.1229
 1048SOL    HW1 3200   1.377   4.376   3.093  2.0812 -1.7216 -1.2567
 1048SOL    HW2 3201   1.489   4.343   3.190  0.0883  0.5455  2.0594
 1049SOL     OW 3202   1.112   3.619   4.673 -0.2143  0.0069  0.0723
 1049SOL    HW1 3203   1.115   3.558   4.600 -1.0150 -1.1076  0.9446
 1049SOL    HW2 3204   1.202   3.622   4.707  0.0295  0.0807 -0.5797
 1050SOL     OW 3205   1.191   3.361   1.093  0.6138  0.0674 -0.5499
 1050SOL    HW1 3206   1.097   3.359   1.074  0.5023 -1.9361  0.0754
 1050SOL    HW2 3207   1.230   3.398   1.014 -0.7274  1.5574 -0.5713
 1051SOL     OW 3208   0.491   3.415   4.070  0.1721 -0.4018 -0.0751
 1051SOL    HW1 3209   0.414   3.471   4.062  0.3491 -0.1039  0.2795
 1051SOL    HW2 3210   0.495   3.392   4.163  1.0449  0.3614  0.0914
 1052SOL     OW 3211   1.488   2.788   2.315  0.3635  0.2081 -0.2604
 1052SOL    HW1 3212   1.416   2.776   2.253 -0.4394 -0.6557  0.7836
 1052SOL    HW2 3213   1.445   2.796   2.400  1.4081  1.9281  0.1538
 1053SOL     OW 3214   3.728   0.601   4.943  0.1101  0.4760  0.0169
 1053SOL    HW1 3215   3.781   0.522   4.955  0.7438  0.8957  0.0652
 1053SOL    HW2 3216   3.792   0.672   4.943 -0.2651  0.8562 -1.7088
 1054SOL     OW 3217   3.730   2.988   4.734 -0.3129  0.2401  0.1894
 1054SOL    HW1 3218   3.672   3.027   4.669 -1.5660 -2.2893 -0.3468
 1054SOL    HW2 3219   3.759   2.906   4.695  0.3636 -0.5004  2.1021
 1055SOL     OW 3220   3.217   1.384   1.533  0.0293  0.0142 -0.1504
 1055SOL    HW1 3221   3.244   1.427   1.614  0.7241 -1.4312  0.4172
 1055SOL    HW2 3222   3.122   1.396   1.530 -0.1230 -0.6529  1.3417
 1056SOL     OW 3223   3.006   4.590   3.064  0.6370 -0.5015 -0.1313
 1056SOL    HW1 3224   2.943   4.557   3.128  1.4565 -3.3287 -0.6576
 1056SOL    HW2 3225   3.014   4.520   2.999  3.3719  0.2672 -0.7605
 1057SOL     OW 3226   2.250   2.539   2.865 -0.1172 -0.1232 -0.3838
 1057SOL    HW1 3227   2.160   2.544   2.834  1.0059  0.5854 -4.0200
 1057SOL    HW2 3228   2.267   2.626   2.901 -0.3090  0.4791 -1.6848
 1058SOL     OW 3229   2.081   4.425   2.966 -0.5628 -0.2515  0.5759
 1058SOL    HW1 3230   2.109   4.337   2.940 -1.7185 -0.6813  0.7121
 1058SOL    HW2 3231   2.058   4.417   3.059 -0.9630  0.1124  0.5138
 1059SOL     OW 3232   3.979   0.348   3.469 -0.3455 -0.4137  0.0600
 1059SOL    HW1 3233   4.057   0.321   3.422 -0.8407 -1.4134 -0.2246
 1059SOL    HW2 3234   3.909   0.295   3.431 -1.3425  1.1224 -0.3497
 1060SOL     OW 3235   3.653   1.192   3.312 -0.0464 -0.0747 -0.0036
 1060SOL    HW1 3236   3.671   1.142   3.232 -2.8819  1.0172 -1.4645
 1060SOL    HW2 3237   3.656   1.284   3.284 -0.2688  0.3688  1.3421
 1061SOL     OW 3238   2.755   2.464   2.095 -0.2537 -0.3027  0.4754
 1061SOL    HW1 3239   2.769   2.378   2.134  1.5906 -0.1304  0.2828
 1061SOL    HW2 3240   2.824   2.473   2.030 -0.2727  1.4112  0.6417
 1062SOL     OW 3241   2.176   1.397   3.156  0.1630 -0.2108 -0.1387
 1062SOL    HW1 3242   2.143   1.486   3.169 -3.0721 -1.5265  1.9426
 1062SOL    HW2 3243   2.105   1.353   3.108  0.9544 -2.0712  0.3408
 1063SOL     OW 3244   2.623   4.845   3.331 -0.3617  0.0236 -0.3203
 1063SOL    HW1 3245   2.672   4.816   3.254 -0.1600 -0.0426 -0.1676
 1063SOL    HW2 3246   2.670   4.808   3.405  0.4784  1.4952 -0.0614
 1064SOL     OW 3247   0.985   3.232   1.970 -0.3632  0.6206 -0.3707
 1064SOL    HW1 3248   0.895   3.253   1.994 -0.4652 -0.2807  0.0665
 1064SOL    HW2 3249   0.986   3.233   1.874  0.1174  4.6110 -0.4969
 1065SOL     OW 3250   1.886   1.873   1.788  0.1695 -0.0764  0.3754
 1065SOL    HW1 3251   1.906   1.948   1.844 -1.7682 -0.0911  1.1419
 1065SOL    HW2 3252   1.814   1.828   1.832 -0.8067 -0.6119 -1.6695
 1066SOL     OW 3253   3.735   3.873   0.252 -0.5464  0.6472 -0.6911
 1066SOL    HW1 3254   3.724   3.968   0.247  0.4662  0.8330  0.2500
 1066SOL    HW2 3255   3.830   3.860   0.250 -0.6338 -0.5640 -3.9879
 1067SOL     OW 3256   3.990   1.080   4.563  0.4233 -0.1684 -0.0926
 1067SOL    HW1 3257   3.915   1.088   4.503  0.7322 -0.6455 -0.5500
 1067SOL    HW2 3258   4.037   1.162   4.553  0.0784  0.0484  0.0369
 1068SOL     OW 3259   2.046   4.610   1.301  0.5431  0.4546  0.0962
 1068SOL    HW1 3260   2.021   4.598   1.393  0.4873  3.7413  0.6119
 1068SOL    HW2 3261   2.138   4.586   1.298  0.2479 -0.8797  0.6776
 1069SOL     OW 3262   0.893   0.294   2.263  0.3917  0.0453  0.3358
 1069SOL    HW1 3263   0.896   0.384   2.297 -3.0548  0.1658  0.6343
 1069SOL    HW2 3264   0.852   0.302   2.177  1.5864 -1.1387 -0.3858
 1070SOL     OW 3265   3.561   4.537   4.304  0.4216  0.5204  0.0599
 1070SOL    HW1 3266   3.564   4.553   4.210 -1.4402  0.7246 -0.0140
 1070SOL    HW2 3267   3.652   4.533   4.331  0.9957  0.3641 -1.7655
 1071SOL     OW 3268   1.701   2.889   0.594 -0.8644 -0.0370  0.3385
 1071SOL    HW1 3269   1.740   2.971   0.566 -0.0133 -0.9562 -1.3165
 1071SOL    HW2 3270   1.750   2.864   0.672 -1.2492  1.0802  0.9639
 1072SOL     OW 3271   2.502   4.349   4.953  0.0446  0.3107  0.3568
 1072SOL    HW1 3272   2.450   4.305   4.886  1.4805  0.2993 -0.7854
 1072SOL    HW2 3273   2.439   4.403   5.000 -0.8272  1.2241 -1.7514
 1073SOL     OW 3274   4.499   0.229   4.920  0.3919  0.0196  0.6898
 1073SOL    HW1 3275   4.527   0.138   4.933  1.4020  0.3514  0.9498
 1073SOL    HW2 3276   4.453   0.252   5.000  0.3760 -0.1719  0.7369
 1074SOL     OW 3277   2.425   1.248   3.873  1.1428 -0.4415  0.1036
 1074SOL    HW1 3278   2.428   1.176   3.811  0.5480 -1.6837  1.4747
 1074SOL    HW2 3279   2.504   1.299   3.854  2.3091 -2.2018 -0.0035
 1075SOL     OW 3280   4.426   3.986   0.859  0.3910  0.5309 -0.0175
 1075SOL    HW1 3281   4.428   3.918   0.793  0.8974 -0.3586  0.8802
 1075SOL    HW2 3282   4.416   3.939   0.942 -0.8530  1.6505  0.5002
 1076SOL     OW 3283   1.774   2.377   2.453 -0.5495 -0.4435 -0.2998
 1076SOL    HW1 3284   1.685   2.402   2.476 -0.6805 -0.7374 -0.4891
 1076SOL    HW2 3285   1.775   2.282   2.459 -0.6271 -0.5479 -1.6530
 1077SOL     OW 3286   4.417   1.412   2.707  0.0258  0.8657  0.7728
 1077SOL    HW1 3287   4.344   1.464   2.741  0.0591  0.9522  0.7120
 1077SOL    HW2 3288   4.397   1.322   2.734 -0.7006  0.6983 -0.2644
 1078SOL     OW 3289   1.213   0.415   1.918  0.1938 -0.3269 -0.1026
 1078SOL    HW1 3290   1.289   0.406   1.974  2.2948  0.5478 -2.6286
 1078SOL    HW2 3291   1.189   0.508   1.924  0.4599 -0.2196 -0.6963
 1079SOL     OW 3292   4.896   1.521   1.046 -0.0297 -0.5545  0.1103
 1079SOL    HW1 3293   4.855   1.561   0.969  1.4564 -1.9539 -1.4649
 1079SOL    HW2 3294   4.848   1.440   1.059 -0.0547 -0.4843  0.4527
 1080SOL     OW 3295   0.940   4.450   3.882  0.3611 -1.1031 -0.2823
 1080SOL    HW1 3296   0.861   4.468   3.934  0.9430 -1.2064  0.6531
 1080SOL    HW2 3297   0.953   4.530   3.831 -0.8397 -1.4036 -1.1306
 1081SOL     OW 3298   2.642   1.444   4.488  0.5549  0.2213  0.1476
 1081SOL    HW1 3299   2.561   1.394   4.489 -0.3930  1.6326  2.6454
 1081SOL    HW2 3300   2.616   1.533   4.466  0.6463  1.5575  4.4794
 1082SOL     OW 3301   0.970   2.738   3.703  0.5133 -0.1945 -0.6099
 1082SOL    HW1 3302   0.902   2.676   3.727  1.3062 -0.7912  0.1586
 1082SOL    HW2 3303   0.946   2.767   3.615 -1.1007  0.1449 -0.0788
 1083SOL     OW 3304   1.716   4.899   3.122 -0.3471  0.0986 -0.6251
 1083SOL    HW1 3305   1.790   4.870   3.068 -1.9443 -0.6796 -2.4803
 1083SOL    HW2 3306   1.661   4.950   3.062 -1.8535 -0.2319  0.4349
 1084SOL     OW 3307   3.265   1.089   3.608  0.2886  0.1778 -0.1425
 1084SOL    HW1 3308   3.243   1.093   3.701  1.3217 -0.6741  0.1606
 1084SOL    HW2 3309   3.360   1.100   3.605  0.3946 -0.7601 -0.9956
 1085SOL     OW 3310   0.697   1.874   1.594  0.1472  0.0004  0.1826
 1085SOL    HW1 3311   0.670   1.815   1.664  0.3955 -0.8217 -0.4055
 1085SOL    HW2 3312   0.751   1.820   1.536  0.3902  0.8061 -0.3579
 1086SOL     OW 3313   1.361   3.556   1.227  0.0034  0.5391  0.6363
 1086SOL    HW1 3314   1.303   3.487   1.195  0.7651 -0.3190  1.0519
 1086SOL    HW2 3315   1.345   3.630   1.168 -0.1910 -0.2810 -0.3781
 1087SOL     OW 3316   1.483   0.831   1.337  0.1666 -0.1556  0.2616
 1087SOL    HW1 3317   1.550   0.874   1.284  0.4413  0.0200  0.7507
 1087SOL    HW2 3318   1.511   0.739   1.341 -0.3214 -0.3601 -0.6247
 1088SOL     OW 3319   1.243   4.123   0.965  0.1225  0.4728  0.0603
 1088SOL    HW1 3320   1.228   4.130   1.059  1.6475  0.1529  0.3462
 1088SOL    HW2 3321   1.202   4.201   0.928 -0.6073  0.5338  0.9571
 1089SOL     OW 3322   1.753   2.280   1.448  0.4065  0.3360  0.4994
 1089SOL    HW1 3323   1.694   2.356   1.444  0.2933  0.2143 -1.0703
 1089SOL    HW2 3324   1.778   2.265   1.357  0.6450 -1.3491  0.8047
 1090SOL     OW 3325   1.424   1.592   3.466  0.0800 -0.1963 -0.1489
 1090SOL    HW1 3326   1.401   1.646   3.542 -1.6203 -0.6838 -0.2828
 1090SOL    HW2 3327   1.387   1.506   3.486  0.1607 -0.5014 -1.2550
 1091SOL     OW 3328   1.841   4.280   1.737 -0.6274 -0.2602 -0.1384
 1091SOL    HW1 3329   1.776   4.265   1.805 -0.2010  1.1569  0.6210
 1091SOL    HW2 3330   1.811   4.360   1.693  0.3192  0.1317 -0.0965
 1092SOL     OW 3331   4.586   4.516   0.143 -0.1516  0.1023  0.8525
 1092SOL    HW1 3332   4.505   4.551   0.105 -0.0837 -1.1606 -0.5204
 1092SOL    HW2 3333   4.557   4.447   0.202 -0.1379  0.6390  1.4991
 1093SOL     OW 3334   0.535   0.358   2.464  0.5810 -0.0618 -0.2525
 1093SOL    HW1 3335   0.454   0.324   2.503  0.7521 -2.2569 -1.5970
 1093SOL    HW2 3336   0.542   0.448   2.495 -2.0598 -0.0110  0.3869
 1094SOL     OW 3337   3.346   3.750   2.256 -0.0722  0.0824 -0.3058
 1094SOL    HW1 3338   3.401   3.829   2.249  0.0540  0.0445  0.1796
 1094SOL    HW2 3339   3.272   3.778   2.309  1.0881 -0.6849  1.8369
 1095SOL     OW 3340   4.175   2.828   2.415  0.0694 -0.4249  0.0697
 1095SOL    HW1 3341   4.177   2.916   2.451  1.7878  0.4906 -2.0190
 1095SOL    HW2 3342   4.084   2.813   2.392 -0.6535 -0.1539  2.5460
 1096SOL     OW 3343   0.573   1.756   4.673  0.1698  0.1927  0.2091
 1096SOL    HW1 3344   0.563   1.782   4.581  0.7455 -0.4292 -0.0425
 1096SOL    HW2 3345   0.640   1.816   4.707  0.1740  0.2281  0.1392
 1097SOL     OW 3346   2.560   3.373   2.425  0.4898 -0.2918  0.2321
 1097SOL    HW1 3347   2.523   3.286   2.442 -0.4466  0.2109  0.9206
 1097SOL    HW2 3348   2.489   3.420   2.382  0.8285  0.2731  0.2888
 1098SOL     OW 3349   2.911   2.624   2.994 -0.0058  0.2882  0.2056
 1098SOL    HW1 3350   2.849   2.562   3.032 -1.4387  1.9770  0.7863
 1098SOL    HW2 3351   2.958   2.661   3.070  2.1028 -1.2714 -0.2498
 1099SOL     OW 3352   0.048   0.170   4.130 -0.3389 -0.0113  0.1410
 1099SOL    HW1 3353  -0.018   0.121   4.179  0.8928 -0.8494  1.0322
 1099SOL    HW2 3354   0.067   0.245   4.186  0.1687 -0.3115  0.3849
 1100SOL     OW 3355   0.306   2.449   1.067 -0.4671  0.0342  0.3165
 1100SOL    HW1 3356   0.325   2.440   0.974  0.4254 -0.9978  0.5799
 1100SOL    HW2 3357   0.317   2.361   1.103  1.3810  0.7797  1.7749
 1101SOL     OW 3358   1.508   0.891   4.190  0.0288  0.1063 -0.0407
 1101SOL    HW1 3359   1.529   0.838   4.113 -0.2161  0.3053 -0.2458
 1101SOL    HW2 3360   1.582   0.878   4.249  0.0183 -0.3783 -0.1356
 1102SOL     OW 3361   2.783   0.750   0.055 -0.3213 -0.1809 -0.1688
 1102SOL    HW1 3362   2.864   0.758   0.107 -0.4774  0.9688 -0.0752
 1102SOL    HW2 3363   2.800   0.678  -0.005  1.1384  0.6147 -0.7608
 1103SOL     OW 3364   1.454   1.328   3.592  0.0555  0.4311  0.1679
 1103SOL    HW1 3365   1.402   1.248   3.592 -0.3545  0.6964  0.5943
 1103SOL    HW2 3366   1.543   1.299   3.575 -0.4424  0.1143 -2.3185
 1104SOL     OW 3367   4.072   4.041   4.601 -0.5283 -0.6819  0.2488
 1104SOL    HW1 3368   4.117   3.958   4.586 -0.0077 -0.4725  0.6163
 1104SOL    HW2 3369   4.075   4.086   4.517  3.1482  0.8626  1.0021
 1105SOL     OW 3370   4.775   2.912   4.971 -0.1402 -0.3879  0.0038
 1105SOL    HW1 3371   4.765   3.002   5.003 -1.4544 -0.0924 -1.1484
 1105SOL    HW2 3372   4.864   2.887   4.998  0.4730  1.4663 -0.1591
 1106SOL     OW 3373   3.456   1.199   4.757  0.1947 -0.2790  0.0100
 1106SOL    HW1 3374   3.413   1.260   4.696 -0.6032  0.7764  1.5484
 1106SOL    HW2 3375   3.403   1.120   4.754  0.6205 -0.5372 -1.2248
 1107SOL     OW 3376   3.414   4.862   3.506 -0.2586  0.2673 -0.3390
 1107SOL    HW1 3377   3.478   4.797   3.536 -1.2023 -1.5762 -2.1009
 1107SOL    HW2 3378   3.361   4.881   3.583 -1.6201 -3.1058 -0.2811
 1108SOL     OW 3379   2.091   1.682   2.438 -0.4992 -0.0540 -0.1916
 1108SOL    HW1 3380   2.028   1.702   2.369 -0.5503  0.6600  0.0594
 1108SOL    HW2 3381   2.051   1.717   2.518  0.4301  0.8258 -0.0996
 1109SOL     OW 3382   4.640   1.660   4.726 -0.3709 -0.8023 -0.8290
 1109SOL    HW1 3383   4.642   1.748   4.688  0.3613 -1.3355 -2.0682
 1109SOL    HW2 3384   4.555   1.624   4.702 -1.1308 -0.0715  0.6073
 1110SOL     OW 3385   3.319   0.974   4.760 -0.0225 -0.8460  0.3591
 1110SOL    HW1 3386   3.237   1.020   4.741 -0.3498 -1.4481  0.2931
 1110SOL    HW2 3387   3.295   0.906   4.823  0.9359  0.7300  2.5686
 1111SOL     OW 3388   3.297   3.407   2.436 -0.3978 -0.2703 -0.2212
 1111SOL    HW1 3389   3.242   3.331   2.452  0.5683 -1.0602 -0.5371
 1111SOL    HW2 3390   3.265   3.473   2.497 -1.5134 -0.7823 -0.2224
 1112SOL     OW 3391   0.624   0.755   2.929  0.2503 -0.3368 -0.3506
 1112SOL    HW1 3392   0.556   0.800   2.880  0.5915  0.4429 -0.1228
 1112SOL    HW2 3393   0.591   0.754   3.019 -1.4824 -3.8341 -0.8663
 1113SOL     OW 3394   0.611   2.393   2.537 -0.1684  0.4535 -0.1181
 1113SOL    HW1 3395   0.608   2.368   2.629  1.5284  0.1298 -0.1241
 1113SOL    HW2 3396   0.683   2.456   2.531 -0.2663  0.4803 -1.2132
 1114SOL     OW 3397   1.051   2.843   2.069  0.0353 -0.6841 -0.3799
 1114SOL    HW1 3398   1.048   2.860   1.975 -0.7950  1.8536  0.0462
 1114SOL    HW2 3399   0.974   2.789   2.086  0.6658 -1.9111 -1.2484
 1115SOL     OW 3400   1.294   4.301   0.257 -0.1739 -0.0956  0.5190
 1115SOL    HW1 3401   1.370   4.335   0.304 -0.4589  0.2226  0.7538
 1115SOL    HW2 3402   1.220   4.347   0.295 -0.5098 -0.5587  0.4341
 1116SOL     OW 3403   0.119   1.565   2.798  0.9769 -0.4118  0.5187
 1116SOL    HW1 3404   0.096   1.479   2.764  1.4152 -0.2817 -0.1212
 1116SOL    HW2 3405   0.210   1.579   2.771  0.8805  0.2890  0.5232
 1117SOL     OW 3406   0.235   4.074   3.189 -0.2018 -0.0185 -0.6503
 1117SOL    HW1 3407   0.141   4.059   3.175 -0.2187  0.5879 -1.2449
 1117SOL    HW2 3408   0.238   4.129   3.268 -0.6893  3.6747 -2.9382
 1118SOL     OW 3409   3.639   3.563   3.133  0.0346 -0.1634  0.3664
 1118SOL    HW1 3410   3.669   3.481   3.172 -1.7556 -0.2009  1.7997
 1118SOL    HW2 3411   3.609   3.538   3.045  0.0147 -0.9421  0.5894
 1119SOL     OW 3412   2.861   2.051   0.777  0.1221  0.9979 -0.0116
 1119SOL    HW1 3413   2.864   1.962   0.810 -0.4678  0.8553 -0.3365
 1119SOL    HW2 3414   2.951   2.083   0.787  0.9275 -0.4363 -2.0974
 1120SOL     OW 3415   2.548   0.909   4.937 -0.4494  0.7634  0.3821
 1120SOL    HW1 3416   2.625   0.858   4.961 -1.1220 -0.0616  0.8744
 1120SOL    HW2 3417   2.576   1.001   4.945  0.5091  0.4802  0.4054
 1121SOL     OW 3418   0.210   0.272   4.924 -0.2588 -0.6704 -0.6038
 1121SOL    HW1 3419   0.259   0.202   4.967 -0.9499 -0.7223  0.1135
 1121SOL    HW2 3420   0.249   0.353   4.956  0.7867 -0.7044 -1.7167
 1122SOL     OW 3421   1.866   2.119   3.884 -0.0259 -0.1433  0.6003
 1122SOL    HW1 3422   1.863   2.164   3.799 -0.3790 -0.4691  0.4372
 1122SOL    HW2 3423   1.817   2.038   3.870  0.6133 -0.5892  0.8860
 1123SOL     OW 3424   2.023   1.471   1.513 -0.3340 -0.1623  0.3153
 1123SOL    HW1 3425   1.993   1.530   1.444  1.2854 -0.4790 -0.7057
 1123SOL    HW2 3426   2.023   1.524   1.592 -0.3833  0.7634 -0.2978
 1124SOL     OW 3427   1.830   1.814   3.825  0.5678 -0.5547 -0.2953
 1124SOL    HW1 3428   1.925   1.810   3.811  1.2318 -1.0316  3.3698
 1124SOL    HW2 3429   1.796   1.737   3.779  1.7848 -0.0199 -2.2301
 1125SOL     OW 3430   2.000   3.696   0.772 -0.2505  0.5835  0.1371
 1125SOL    HW1 3431   2.033   3.654   0.852 -1.2169  2.1724  1.4461
 1125SOL    HW2 3432   1.944   3.766   0.804 -2.4235 -0.0548 -1.9603
 1126SOL     OW 3433   1.019   2.825   4.506  0.1162  0.0034  0.4331
 1126SOL    HW1 3434   0.985   2.828   4.595 -2.4011  1.8800 -0.4461
 1126SOL    HW2 3435   0.947   2.788   4.454  0.4187  1.5414 -1.1834
 1127SOL     OW 3436   3.006   2.947   3.061 -0.8248  0.3089 -0.2689
 1127SOL    HW1 3437   3.049   2.923   2.979 -1.4226  0.8365 -0.7460
 1127SOL    HW2 3438   3.022   2.872   3.119 -1.5490 -0.6910 -1.3107
 1128SOL     OW 3439   1.539   0.060   4.403  0.0107 -0.4449 -0.5095
 1128SOL    HW1 3440   1.557   0.050   4.309 -1.9961  0.9893 -1.0963
 1128SOL    HW2 3441   1.576   0.145   4.426  0.4964 -0.7931  0.0241
 1129SOL     OW 3442   3.593   0.961   2.133  0.8291 -0.1822  0.4825
 1129SOL    HW1 3443   3.616   0.900   2.202 -0.8522 -0.6116  0.6970
 1129SOL    HW2 3444   3.500   0.947   2.117  0.8864  0.7933 -0.9945
 1130SOL     OW 3445   3.291   4.317   1.932 -0.1273  0.4319 -0.4767
 1130SOL    HW1 3446   3.379   4.354   1.934  0.9441 -1.8762 -1.3133
 1130SOL    HW2 3447   3.283   4.270   2.015  0.4562 -1.4098 -1.4049
 1131SOL     OW 3448   3.911   4.060   3.318 -0.2348  0.0934 -0.6027
 1131SOL    HW1 3449   3.978   4.076   3.385 -1.2670 -0.7173  0.6731
 1131SOL    HW2 3450   3.929   3.972   3.287 -0.8348 -0.2264 -0.0726
 1132SOL     OW 3451   2.704   3.338   0.991 -0.1660  0.1089 -0.2732
 1132SOL    HW1 3452   2.727   3.260   1.040  0.0792  1.3133  1.6257
 1132SOL    HW2 3453   2.769   3.403   1.018 -1.1587  1.3513 -0.7779
 1133SOL     OW 3454   0.591   0.826   3.511  1.1269  0.5369  0.1223
 1133SOL    HW1 3455   0.585   0.777   3.429  1.3457 -0.3109  0.5975
 1133SOL    HW2 3456   0.646   0.772   3.568 -0.7234  0.0395  1.5512
 1134SOL     OW 3457   0.466   1.402   2.661  0.3245 -0.2071 -0.3242
 1134SOL    HW1 3458   0.559   1.407   2.636  0.2547 -0.1000 -0.5688
 1134SOL    HW2 3459   0.452   1.310   2.681  0.8790  0.0276  1.2648
 1135SOL     OW 3460   0.299   2.246   2.142  0.0254  0.1441  0.0266
 1135SOL    HW1 3461   0.370   2.243   2.078 -1.7060 -0.0460 -1.9883
 1135SOL    HW2 3462   0.330   2.192   2.215  1.0115 -1.9676 -1.8290
 1136SOL     OW 3463   1.305   1.915   4.527  0.0355  0.0715  0.7565
 1136SOL    HW1 3464   1.305   1.851   4.599 -0.9745  0.7168  1.3705
 1136SOL    HW2 3465   1.328   1.998   4.569 -2.1359  0.7833  0.7149
 1137SOL     OW 3466   3.422   0.281   2.895 -0.0128  0.4355  0.1443
 1137SOL    HW1 3467   3.362   0.343   2.936  0.4315 -1.2044  3.6102
 1137SOL    HW2 3468   3.503   0.331   2.882 -0.0366  0.9375  1.7748
 1138SOL     OW 3469   4.529   2.021   2.508  0.2956 -0.1036 -0.3847
 1138SOL    HW1 3470   4.492   2.084   2.569  0.9721 -0.7807  0.7589
 1138SOL    HW2 3471   4.503   1.936   2.541  1.0886 -0.5044 -0.7539
 1139SOL     OW 3472   3.874   2.954   4.196 -0.2094  0.5633 -0.7190
 1139SOL    HW1 3473   3.886   2.883   4.134 -0.5105  0.6530 -0.8783
 1139SOL    HW2 3474   3.822   3.019   4.149  0.1185  0.9181 -0.5999
 1140SOL     OW 3475   2.529   2.021   4.557 -0.0142 -0.2195  0.4339
 1140SOL    HW1 3476   2.494   2.006   4.645  0.6821  0.5445  0.8587
 1140SOL    HW2 3477   2.468   2.084   4.518  1.1258  1.5677  1.3856
 1141SOL     OW 3478   1.512   0.440   0.180 -0.2732 -0.2326  0.0712
 1141SOL    HW1 3479   1.476   0.446   0.092  0.8906  0.5346 -0.3763
 1141SOL    HW2 3480   1.493   0.525   0.219  0.1187 -0.2030  0.1994
 1142SOL     OW 3481   4.301   2.939   4.579  0.1710 -0.1977  0.0437
 1142SOL    HW1 3482   4.244   3.010   4.551 -0.0310 -0.1905  0.4643
 1142SOL    HW2 3483   4.316   2.887   4.500  0.2122  0.2336 -0.2367
 1143SOL     OW 3484   3.882   2.209   3.706  0.1046  0.1127 -0.6188
 1143SOL    HW1 3485   3.879   2.291   3.755 -0.9332 -0.3540  0.1500
 1143SOL    HW2 3486   3.828   2.226   3.628 -0.0702  0.1735 -0.4851
 1144SOL     OW 3487   1.161   3.227   4.285 -0.0293 -0.4399 -1.0468
 1144SOL    HW1 3488   1.095   3.164   4.258  0.1052 -2.0536  1.9634
 1144SOL    HW2 3489   1.244   3.187   4.260 -0.0317 -0.2925 -1.2941
 1145SOL     OW 3490   2.389   4.615   4.691  0.2726 -0.2419  0.6245
 1145SOL    HW1 3491   2.433   4.700   4.689 -0.3104  0.0675  0.4566
 1145SOL    HW2 3492   2.376   4.597   4.784  0.4092 -0.1467  0.6616
 1146SOL     OW 3493   1.921   0.765   1.026  1.2457  0.0372 -0.1948
 1146SOL    HW1 3494   2.012   0.770   0.998  0.6025 -0.2854 -2.4961
 1146SOL    HW2 3495   1.879   0.708   0.962 -0.7646  0.8775  0.3066
 1147SOL     OW 3496   0.646   1.261   1.292 -0.4631 -0.3575  0.5152
 1147SOL    HW1 3497   0.723   1.314   1.311 -1.0638  0.2103  1.4567
 1147SOL    HW2 3498   0.583   1.286   1.360 -1.6640 -0.4236 -0.5509
 1148SOL     OW 3499   2.020   4.250   1.223  0.4651 -0.0723  0.1090
 1148SOL    HW1 3500   1.983   4.182   1.167 -3.4637  1.6788  0.2043
 1148SOL    HW2 3501   2.050   4.317   1.162 -0.2015  0.1576  0.0233
 1149SOL     OW 3502   0.586   0.625   1.738 -0.6715  0.9187  0.4029
 1149SOL    HW1 3503   0.550   0.613   1.825 -0.0675 -0.6444  0.4676
 1149SOL    HW2 3504   0.588   0.720   1.725 -3.7842  1.1242  0.7780
 1150SOL     OW 3505   3.719   1.254   4.697 -0.2605  0.2664  0.8106
 1150SOL    HW1 3506   3.711   1.296   4.612  0.5999 -0.3140  0.4224
 1150SOL    HW2 3507   3.630   1.246   4.729 -0.6496 -0.0514 -0.3100
 1151SOL     OW 3508   4.036   0.384   1.685  0.1263 -0.0970 -0.7182
 1151SOL    HW1 3509   4.080   0.356   1.765  0.0504  0.1409 -0.5896
 1151SOL    HW2 3510   3.957   0.330   1.681 -1.1598  1.5334  0.6935
 1152SOL     OW 3511   0.669   3.641   0.797  0.4229 -0.4801 -0.2813
 1152SOL    HW1 3512   0.701   3.719   0.842  1.0278 -0.0611 -1.3904
 1152SOL    HW2 3513   0.747   3.601   0.758  0.0334 -1.2900 -0.2679
 1153SOL     OW 3514   0.848   1.863   2.145 -0.4345 -0.3997  0.1383
 1153SOL    HW1 3515   0.810   1.776   2.144 -1.9590  0.2341 -0.0817
 1153SOL    HW2 3516   0.780   1.920   2.108 -0.4599  1.2538  2.4588
 1154SOL     OW 3517   1.338   1.652   2.074 -0.7417 -0.3992 -0.1544
 1154SOL    HW1 3518   1.430   1.627   2.085 -0.5851  0.4941  0.7370
 1154SOL    HW2 3519   1.341   1.730   2.018 -1.0026 -0.7318 -0.6295
 1155SOL     OW 3520   0.788   4.092   2.966 -0.1448  0.1656  0.2052
 1155SOL    HW1 3521   0.747   4.169   2.926 -0.5139  0.4789  1.1389
 1155SOL    HW2 3522   0.762   4.019   2.910 -0.4381  0.6193 -0.2602
 1156SOL     OW 3523   0.310   1.030   3.563  0.0605 -0.2270  0.2426
 1156SOL    HW1 3524   0.239   1.026   3.499 -0.3794  0.3600  0.6762
 1156SOL    HW2 3525   0.373   0.965   3.533 -0.6524 -0.7509 -0.1607
 1157SOL     OW 3526   2.006   0.096   3.833 -0.4691 -0.1220  0.0079
 1157SOL    HW1 3527   1.975   0.038   3.903 -2.1914 -1.9618 -2.1411
 1157SOL    HW2 3528   1.933   0.155   3.816  0.2685  0.9071  0.3224
 1158SOL     OW 3529   3.219   1.727   2.618  0.0799  0.5948 -0.2041
 1158SOL    HW1 3530   3.145   1.716   2.678 -0.4515  1.8393 -0.5819
 1158SOL    HW2 3531   3.276   1.790   2.663  1.3286 -0.9377  0.4308
 1159SOL     OW 3532   0.675   1.165   4.889  0.1014  0.0645 -0.1088
 1159SOL    HW1 3533   0.691   1.252   4.925  1.0497 -0.4215  0.7007
 1159SOL    HW2 3534   0.698   1.105   4.960 -0.4850 -0.8518 -0.6717
 1160SOL     OW 3535   2.493   4.280   3.354 -0.1730 -0.2152 -0.0062
 1160SOL    HW1 3536   2.490   4.239   3.441  0.0335 -0.5041 -0.1331
 1160SOL    HW2 3537   2.408   4.260   3.315 -0.3243  0.0420  0.1844
 1161SOL     OW 3538   0.775   3.765   1.585 -0.4600 -0.1576 -0.2738
 1161SOL    HW1 3539   0.715   3.828   1.625  0.9922 -0.1225  2.0324
 1161SOL    HW2 3540   0.720   3.689   1.567 -1.4752  0.3596  0.5126
 1162SOL     OW 3541   2.936   0.192   3.897  0.0909  0.4696 -0.0669
 1162SOL    HW1 3542   2.854   0.164   3.936 -0.0619  0.5050 -0.3673
 1162SOL    HW2 3543   2.930   0.288   3.894  1.3237  0.7598  2.6150
 1163SOL     OW 3544   0.923   0.927   1.674  0.2841  0.5125 -0.1843
 1163SOL    HW1 3545   0.928   0.832   1.662 -0.9547  0.5449 -1.1832
 1163SOL    HW2 3546   0.933   0.940   1.768  2.2940 -0.4530 -0.2289
 1164SOL     OW 3547   3.771   4.074   4.948  0.3153  0.1802 -0.2325
 1164SOL    HW1 3548   3.790   4.089   5.041  0.2066 -0.4453 -0.1068
 1164SOL    HW2 3549   3.757   4.162   4.912 -0.6029  0.3655  0.5482
 1165SOL     OW 3550   1.723   3.208   3.554  0.0369 -0.0327  0.2481
 1165SOL    HW1 3551   1.802   3.230   3.504 -0.6454 -1.2892 -1.5051
 1165SOL    HW2 3552   1.685   3.292   3.578  1.3310  0.5928  0.1744
 1166SOL     OW 3553   0.980   3.951   1.097 -0.1577 -0.7617  0.4396
 1166SOL    HW1 3554   0.946   3.867   1.065 -3.0516  0.4886 -0.0922
 1166SOL    HW2 3555   1.036   3.928   1.171 -2.0121 -3.1269  1.2475
 1167SOL     OW 3556   4.708   0.479   2.888  0.1525  0.1166 -0.1558
 1167SOL    HW1 3557   4.677   0.459   2.800 -0.1818 -0.3932  0.0768
 1167SOL    HW2 3558   4.644   0.541   2.923  0.1773  0.1662 -0.1983
 1168SOL     OW 3559   0.719   2.948   0.032 -0.0139  0.2144  0.3682
 1168SOL    HW1 3560   0.791   3.010   0.031 -0.7146  1.0500 -0.5012
 1168SOL    HW2 3561   0.707   2.927   0.125  1.1867  0.2228  0.5425
 1169SOL     OW 3562   1.819   0.849   3.951 -0.1447 -0.1168  0.2501
 1169SOL    HW1 3563   1.899   0.816   3.992 -0.5850 -1.1375  0.3100
 1169SOL    HW2 3564   1.851   0.905   3.879  0.6398  1.9248  2.0716
 1170SOL     OW 3565   4.938   2.245   3.514 -0.0539 -0.2274 -0.3407
 1170SOL    HW1 3566   5.023   2.287   3.527  0.3452 -1.5076  1.6105
 1170SOL    HW2 3567   4.876   2.318   3.504  0.8328  0.8032  1.3390
 1171SOL     OW 3568   1.707   2.985   3.867  0.1882 -0.5600 -0.0058
 1171SOL    HW1 3569   1.737   2.924   3.935  0.0851 -1.5843 -0.8491
 1171SOL    HW2 3570   1.616   2.961   3.850 -0.4000  0.9472  0.8216
 1172SOL     OW 3571   1.249   2.540   2.592  0.2687  0.1574 -0.3567
 1172SOL    HW1 3572   1.242   2.635   2.598 -1.9833 -0.0038  0.8595
 1172SOL    HW2 3573   1.210   2.519   2.507  1.4651  0.3333 -0.9701
 1173SOL     OW 3574   4.235   1.805   0.315  0.1912  0.1232 -0.1131
 1173SOL    HW1 3575   4.230   1.801   0.411  0.2226 -0.3539 -0.1279
 1173SOL    HW2 3576   4.144   1.820   0.287  0.0772 -0.3960 -0.0331
 1174SOL     OW 3577   0.336   1.452   2.437 -0.3294 -0.8906  0.4260
 1174SOL    HW1 3578   0.411   1.394   2.429  0.4603 -0.0540  1.3854
 1174SOL    HW2 3579   0.325   1.463   2.532 -1.4861 -0.7681  0.2926
 1175SOL     OW 3580   0.303   1.873   1.053  0.5999  0.5835  0.1921
 1175SOL    HW1 3581   0.235   1.916   1.000  0.8603  1.7493  0.7772
 1175SOL    HW2 3582   0.256   1.808   1.105  0.3050 -0.4141 -1.2698
 1176SOL     OW 3583   1.142   3.431   0.603  0.4217 -0.1013 -0.2622
 1176SOL    HW1 3584   1.167   3.413   0.512  1.9757  1.6571 -0.2330
 1176SOL    HW2 3585   1.158   3.525   0.614 -1.2023  0.0284  1.4007
 1177SOL     OW 3586   2.460   2.436   2.282 -0.2449  0.2311  0.2940
 1177SOL    HW1 3587   2.387   2.460   2.338 -0.2438 -0.0737  0.4308
 1177SOL    HW2 3588   2.473   2.512   2.225 -0.2417  0.5476  0.7106
 1178SOL     OW 3589   3.091   4.724   0.335 -0.1570 -0.0716 -0.3788
 1178SOL    HW1 3590   3.160   4.659   0.350  0.6374  0.8659  0.1236
 1178SOL    HW2 3591   3.056   4.702   0.249  0.5104 -0.8079 -0.4732
 1179SOL     OW 3592   2.810   3.078   1.098  0.4608  0.1198  0.4407
 1179SOL    HW1 3593   2.873   3.020   1.055 -0.5276 -0.3142 -0.4934
 1179SOL    HW2 3594   2.738   3.021   1.122 -1.1829  1.0851 -1.7783
 1180SOL     OW 3595   1.851   2.889   4.634  0.2094 -0.4593 -0.1687
 1180SOL    HW1 3596   1.937   2.868   4.671  0.4369  0.5654 -0.0764
 1180SOL    HW2 3597   1.866   2.968   4.583 -0.6419 -0.3826 -0.3181
 1181SOL     OW 3598   3.324   0.778   2.012  0.0690 -0.4353  0.2733
 1181SOL    HW1 3599   3.242   0.737   2.040  0.3833  0.7043  3.2578
 1181SOL    HW2 3600   3.315   0.870   2.036  1.5739  0.0775 -0.9509
 1182SOL     OW 3601   3.902   0.720   2.880  0.2998  0.3478  0.1996
 1182SOL    HW1 3602   3.970   0.684   2.822  1.4764  1.9412  0.5531
 1182SOL    HW2 3603   3.847   0.773   2.822 -0.3348 -0.4795  0.0212
 1183SOL     OW 3604   2.367   0.788   3.523  0.1436 -0.8901  0.0811
 1183SOL    HW1 3605   2.299   0.748   3.468 -1.5232  0.0355  1.3922
 1183SOL    HW2 3606   2.330   0.872   3.549  1.8127 -0.3711  0.8644
 1184SOL     OW 3607   1.510   1.737   4.438  0.2812 -0.2770  0.5061
 1184SOL    HW1 3608   1.452   1.783   4.499 -1.5335 -0.9659 -0.5983
 1184SOL    HW2 3609   1.525   1.799   4.367  1.8112  0.2719  1.2688
 1185SOL     OW 3610   1.048   1.479   0.714 -0.3531 -0.1061  0.8817
 1185SOL    HW1 3611   0.971   1.473   0.769  0.6918 -2.4010  2.2533
 1185SOL    HW2 3612   1.121   1.489   0.776  0.5282  1.5057 -0.3406
 1186SOL     OW 3613   4.420   0.722   4.929  0.2666  0.9128  0.4506
 1186SOL    HW1 3614   4.339   0.770   4.950 -0.1116 -0.4158  2.3077
 1186SOL    HW2 3615   4.490   0.784   4.949 -0.2526  1.4441  0.6852
 1187SOL     OW 3616   0.275   2.258   4.285  0.0497 -0.0911 -0.2254
 1187SOL    HW1 3617   0.231   2.226   4.364  0.9504 -2.2531 -0.5264
 1187SOL    HW2 3618   0.363   2.222   4.290  0.1464 -0.2669 -2.1838
 1188SOL     OW 3619   4.549   2.396   2.077 -0.3237  0.1166  0.1144
 1188SOL    HW1 3620   4.567   2.477   2.125 -2.0833  1.1991 -0.9184
 1188SOL    HW2 3621   4.481   2.353   2.129 -1.4914  0.7868 -0.8065
 1189SOL     OW 3622   1.801   3.690   2.229 -0.1426  0.4625 -0.4152
 1189SOL    HW1 3623   1.886   3.733   2.220  1.3481 -2.6964 -3.5618
 1189SOL    HW2 3624   1.753   3.713   2.149 -0.8140 -0.6252 -0.3484
 1190SOL     OW 3625   0.761   0.626   3.664  0.3248 -0.2243  0.0920
 1190SOL    HW1 3626   0.777   0.544   3.712  0.7023 -0.4579 -0.4187
 1190SOL    HW2 3627   0.817   0.690   3.707 -0.6200 -0.0243  1.0444
 1191SOL     OW 3628   2.184   2.035   4.841 -0.0151  0.4751  0.2167
 1191SOL    HW1 3629   2.188   2.010   4.749 -0.7910  1.1314 -0.0031
 1191SOL    HW2 3630   2.093   2.062   4.856  0.2473  0.9932  1.0053
 1192SOL     OW 3631   1.841   3.849   4.465  0.7925 -0.7537  0.2509
 1192SOL    HW1 3632   1.898   3.919   4.499 -0.5842  0.9645 -0.8103
 1192SOL    HW2 3633   1.791   3.819   4.541 -1.0854  1.9002  0.1932
 1193SOL     OW 3634   3.072   3.277   1.488  0.5155  0.0295 -0.4069
 1193SOL    HW1 3635   3.132   3.305   1.557 -1.2663 -1.8427  2.0935
 1193SOL    HW2 3636   3.003   3.344   1.488  0.7769  0.2965 -0.7144
 1194SOL     OW 3637   1.051   1.505   4.913 -0.2415  0.3086  0.1683
 1194SOL    HW1 3638   1.075   1.432   4.857 -1.9570 -0.5430  0.4571
 1194SOL    HW2 3639   1.134   1.544   4.940  0.6672 -0.7379 -1.0301
 1195SOL     OW 3640   1.880   1.976   2.530 -0.2673  0.0376 -0.3177
 1195SOL    HW1 3641   1.952   2.003   2.474  0.1609  0.1205  0.2646
 1195SOL    HW2 3642   1.912   1.896   2.573 -1.3585 -1.2191 -1.7240
 1196SOL     OW 3643   1.739   4.131   0.733 -0.1249 -0.3595  0.0036
 1196SOL    HW1 3644   1.777   4.119   0.646 -0.0786  0.1083 -0.0441
 1196SOL    HW2 3645   1.676   4.059   0.741 -0.9563  0.2361 -0.8821
 1197SOL     OW 3646   1.383   3.179   1.822  0.2757 -0.0427  0.2199
 1197SOL    HW1 3647   1.376   3.165   1.727  0.4395 -0.4345  0.2647
 1197SOL    HW2 3648   1.434   3.259   1.831  1.3281 -0.6712 -0.0086
 1198SOL     OW 3649   4.654   4.630   3.760 -0.9167  0.4868  0.2306
 1198SOL    HW1 3650   4.633   4.672   3.677  1.1463  0.1507 -0.5163
 1198SOL    HW2 3651   4.613   4.543   3.753  0.7303 -0.2286 -1.2564
 1199SOL     OW 3652   1.728   2.410   2.817 -0.0768  0.3923  0.3219
 1199SOL    HW1 3653   1.667   2.345   2.852  0.3371  0.7009  1.7024
 1199SOL    HW2 3654   1.697   2.494   2.852  0.0124  0.8019 -0.5588
 1200SOL     OW 3655   3.784   0.076   3.248 -0.8208 -1.0148  0.0286
 1200SOL    HW1 3656   3.850   0.037   3.306  0.2036 -0.3664 -0.6681
 1200SOL    HW2 3657   3.741   0.142   3.302  1.1581  0.6547 -0.3108
 1201SOL     OW 3658   1.230   4.401   4.939 -0.6244  0.2322 -0.7178
 1201SOL    HW1 3659   1.259   4.398   5.030 -2.3960  0.6318 -0.1125
 1201SOL    HW2 3660   1.157   4.339   4.934  0.2916 -0.8320 -2.2303
 1202SOL     OW 3661   3.893   0.479   4.401 -0.1429  0.6455 -0.6748
 1202SOL    HW1 3662   3.946   0.511   4.475 -1.0639  0.4415  0.0923
 1202SOL    HW2 3663   3.853   0.558   4.365 -2.0465  0.4806  0.9285
 1203SOL     OW 3664   3.487   3.007   3.684  0.0095 -0.2519  0.3247
 1203SOL    HW1 3665   3.422   3.064   3.643 -0.1910 -0.0085  0.9768
 1203SOL    HW2 3666   3.446   2.920   3.682 -0.2831 -0.1239  0.6082
 1204SOL     OW 3667   2.251   4.504   1.945  0.6744 -0.3229  0.7117
 1204SOL    HW1 3668   2.293   4.581   1.984 -0.4528  0.0171  1.3122
 1204SOL    HW2 3669   2.196   4.540   1.875 -0.1570 -0.5298  1.2491
 1205SOL     OW 3670   1.383   0.784   3.291  0.2676 -0.5244  0.5641
 1205SOL    HW1 3671   1.455   0.818   3.344  1.5471 -0.6470 -0.9983
 1205SOL    HW2 3672   1.418   0.703   3.252 -1.4605 -1.7240  1.3785
 1206SOL     OW 3673   2.155   0.322   3.725  0.1392  0.0810  0.3245
 1206SOL    HW1 3674   2.123   0.241   3.765 -1.4276  0.3254 -0.3468
 1206SOL    HW2 3675   2.226   0.295   3.667 -1.7206 -1.1789 -1.5226
 1207SOL     OW 3676   0.418   3.862   3.079  0.3140  0.1500 -0.2938
 1207SOL    HW1 3677   0.332   3.903   3.089 -0.5967 -1.5394 -0.8967
 1207SOL    HW2 3678   0.439   3.873   2.987  0.7508  0.5136 -0.1586
 1208SOL     OW 3679   2.135   2.900   4.730 -0.1473  0.0728  0.1207
 1208SOL    HW1 3680   2.122   2.909   4.635  0.6316  0.1892  0.0167
 1208SOL    HW2 3681   2.220   2.857   4.738 -0.6429 -0.8237  0.7564
 1209SOL     OW 3682   1.392   3.704   4.240  0.2617 -0.1231 -0.2068
 1209SOL    HW1 3683   1.329   3.632   4.240  0.7880 -0.6135 -1.5878
 1209SOL    HW2 3684   1.441   3.694   4.159 -0.1759  2.2686 -0.8671
 1210SOL     OW 3685   4.213   3.552   3.591 -0.0660  0.4069 -0.6308
 1210SOL    HW1 3686   4.293   3.540   3.539  0.1593 -1.9671  0.1398
 1210SOL    HW2 3687   4.147   3.499   3.546  0.0121 -1.3179  1.1633
 1211SOL     OW 3688   1.641   3.633   2.001  0.6371 -0.2558 -0.6128
 1211SOL    HW1 3689   1.575   3.641   2.070 -0.5246  2.3625 -1.8670
 1211SOL    HW2 3690   1.603   3.570   1.939 -0.9707  1.4341 -1.4724
 1212SOL     OW 3691   2.333   4.081   1.700  0.0530 -0.6167  0.4751
 1212SOL    HW1 3692   2.312   4.035   1.618 -0.6960 -1.0951  0.9238
 1212SOL    HW2 3693   2.416   4.044   1.728  1.2839  0.8649 -1.0154
 1213SOL     OW 3694   0.303   3.158   3.369  0.0968 -0.2748 -0.6208
 1213SOL    HW1 3695   0.272   3.109   3.293  0.0200  0.3340 -0.9832
 1213SOL    HW2 3696   0.395   3.132   3.378  0.2113 -0.0529 -1.1509
 1214SOL     OW 3697   2.159   1.036   0.653  0.4108  0.3502  0.2414
 1214SOL    HW1 3698   2.070   0.999   0.648  0.6522 -0.6040  2.0753
 1214SOL    HW2 3699   2.146   1.130   0.643 -0.6837  0.1334 -0.5942
 1215SOL     OW 3700   2.097   4.971   1.880 -0.5413  0.3094  0.2076
 1215SOL    HW1 3701   2.034   4.911   1.919 -0.2739 -0.6283 -0.7569
 1215SOL    HW2 3702   2.122   4.930   1.798  0.4690  1.2230  0.0308
 1216SOL     OW 3703   3.617   1.102   2.446 -0.0141 -0.1210 -0.1095
 1216SOL    HW1 3704   3.607   1.181   2.392 -2.1120 -1.0670 -1.2343
 1216SOL    HW2 3705   3.572   1.122   2.528 -0.1580  0.0083 -0.2197
 1217SOL     OW 3706   0.972   1.080   1.445  0.2090  0.1863  0.3720
 1217SOL    HW1 3707   0.937   1.042   1.525 -0.1254  0.3750  0.3150
 1217SOL    HW2 3708   1.030   1.150   1.475 -0.2427  0.5341  0.4385
 1218SOL     OW 3709   1.687   4.348   1.977 -0.1972  0.5215  0.4348
 1218SOL    HW1 3710   1.694   4.441   1.998 -1.8866  0.3395  2.0360
 1218SOL    HW2 3711   1.593   4.330   1.973  0.0294 -1.4842  2.0780
 1219SOL     OW 3712   4.948   3.650   4.659 -0.3562 -0.2567 -0.5265
 1219SOL    HW1 3713   4.959   3.577   4.598  0.2705 -0.8319  0.2609
 1219SOL    HW2 3714   4.970   3.614   4.745 -0.6870  0.6866 -0.0249
 1220SOL     OW 3715   2.893   4.916   0.705  0.8069  0.0703  0.5668
 1220SOL    HW1 3716   2.844   4.923   0.623 -0.4083 -2.5404  0.9722
 1220SOL    HW2 3717   2.940   4.832   0.699  0.2077 -0.5043  2.7341
 1221SOL     OW 3718   3.060   4.373   3.615  0.5828  0.4852 -0.0359
 1221SOL    HW1 3719   3.119   4.298   3.607  0.0977  0.0873  0.0695
 1221SOL    HW2 3720   3.039   4.377   3.708 -0.8182 -0.3654 -0.2948
 1222SOL     OW 3721   4.792   1.364   3.183  0.0579  0.7341 -0.4103
 1222SOL    HW1 3722   4.826   1.426   3.119 -0.2305  1.8560  0.4997
 1222SOL    HW2 3723   4.699   1.355   3.161  0.0598  0.7638 -0.4293
 1223SOL     OW 3724   3.761   0.683   4.246  0.0129  0.4852 -0.1569
 1223SOL    HW1 3725   3.683   0.734   4.225 -1.0448 -1.5141 -1.3940
 1223SOL    HW2 3726   3.801   0.663   4.161 -0.1971 -1.5633  0.1811
 1224SOL     OW 3727   4.501   4.240   2.588 -0.1833  0.6877 -0.2358
 1224SOL    HW1 3728   4.463   4.218   2.673 -0.7358 -0.4312 -0.7552
 1224SOL    HW2 3729   4.596   4.242   2.604 -0.3258  1.4176  0.5968
 1225SOL     OW 3730   4.937   0.786   1.637  0.3395 -0.0952  0.1074
 1225SOL    HW1 3731   4.989   0.707   1.652 -0.9334 -1.1406 -0.8014
 1225SOL    HW2 3732   4.918   0.818   1.725  1.9974 -0.0107  0.4699
 1226SOL     OW 3733   2.834   2.606   4.033  0.0550 -0.5812 -0.1308
 1226SOL    HW1 3734   2.838   2.540   3.964  2.0898 -0.6920  0.0223
 1226SOL    HW2 3735   2.889   2.677   4.000 -0.1987  0.0235  0.7200
 1227SOL     OW 3736   0.783   0.575   1.294  0.4236 -0.2633 -0.3117
 1227SOL    HW1 3737   0.764   0.486   1.325  1.1655  0.1282  1.3426
 1227SOL    HW2 3738   0.852   0.607   1.352 -0.6789  1.8582 -0.0567
 1228SOL     OW 3739   2.331   1.147   0.847  0.3144 -0.0128 -0.1231
 1228SOL    HW1 3740   2.332   1.119   0.938 -0.9224 -0.2826 -0.1687
 1228SOL    HW2 3741   2.274   1.083   0.803 -0.2277  0.9171 -0.8034
 1229SOL     OW 3742   0.074   4.131   4.355  0.3394  0.1865  0.4056
 1229SOL    HW1 3743   0.033   4.131   4.268  0.0585 -0.8289  0.5304
 1229SOL    HW2 3744   0.011   4.175   4.412  0.8537  1.5592 -0.0334
 1230SOL     OW 3745   0.102   4.654   4.885  0.3896 -0.1780 -0.3632
 1230SOL    HW1 3746   0.023   4.621   4.927  0.4574 -1.0288 -0.8876
 1230SOL    HW2 3747   0.167   4.586   4.899  0.8034  0.1571 -0.6389
 1231SOL     OW 3748   0.673   4.866   4.629  0.0816  0.4651  0.4156
 1231SOL    HW1 3749   0.613   4.913   4.571 -0.4083 -0.7779 -0.1228
 1231SOL    HW2 3750   0.760   4.883   4.593 -0.1627  0.2775 -0.2929
 1232SOL     OW 3751   3.692   0.618   1.130  0.0215  0.5805 -0.3506
 1232SOL    HW1 3752   3.655   0.572   1.206 -2.6773  2.2659 -0.5250
 1232SOL    HW2 3753   3.731   0.549   1.077 -1.8335 -1.2176  0.4948
 1233SOL     OW 3754   2.031   1.803   2.674 -0.0362  0.4541 -0.1172
 1233SOL    HW1 3755   1.990   1.778   2.757 -0.7187 -0.5537 -0.7339
 1233SOL    HW2 3756   2.125   1.790   2.690 -0.2141 -0.4694  0.2789
 1234SOL     OW 3757   4.238   4.318   0.591 -0.3955  0.5121 -0.1705
 1234SOL    HW1 3758   4.315   4.372   0.573 -0.0206 -0.0680 -0.3431
 1234SOL    HW2 3759   4.271   4.228   0.587 -1.0466  0.2663 -0.0615
 1235SOL     OW 3760   0.052   0.458   1.180  0.1416 -0.9321 -0.0792
 1235SOL    HW1 3761   0.004   0.456   1.098 -1.5862  2.1249  0.6953
 1235SOL    HW2 3762   0.144   0.470   1.154 -0.6146  2.4084 -1.6940
 1236SOL     OW 3763   3.186   4.222   0.599 -0.4790  0.6928 -0.2391
 1236SOL    HW1 3764   3.139   4.296   0.561  1.3288  2.4378  0.7272
 1236SOL    HW2 3765   3.196   4.245   0.691 -1.4505 -1.6593  0.5147
 1237SOL     OW 3766   3.004   2.492   1.644 -0.5528 -0.0073  0.1983
 1237SOL    HW1 3767   3.022   2.484   1.551  1.6552 -2.0003  0.6983
 1237SOL    HW2 3768   3.064   2.560   1.674 -1.2431  0.6145  0.1974
 1238SOL     OW 3769   1.114   0.092   4.745 -0.2970 -0.2056  0.3931
 1238SOL    HW1 3770   1.136   0.058   4.658 -0.3416  0.2889  0.1837
 1238SOL    HW2 3771   1.146   0.026   4.806  0.8861  0.0207  0.0535
 1239SOL     OW 3772   1.176   4.536   2.235 -0.5083 -0.0424  0.1831
 1239SOL    HW1 3773   1.101   4.591   2.213 -1.7120 -1.2556  1.0653
 1239SOL    HW2 3774   1.226   4.587   2.298 -1.2169  0.3447  0.4453
 1240SOL     OW 3775   4.951   4.869   0.335  0.6164  0.2181 -0.2740
 1240SOL    HW1 3776   4.966   4.957   0.369  1.3644 -0.2489  0.6478
 1240SOL    HW2 3777   4.917   4.883   0.246  0.6171  1.4294 -0.0963
 1241SOL     OW 3778   2.019   1.652   1.723 -0.5449 -0.2027 -0.5039
 1241SOL    HW1 3779   1.991   1.741   1.744  1.7915  0.4590  0.0152
 1241SOL    HW2 3780   1.955   1.596   1.769 -0.1240  1.2094  2.0042
 1242SOL     OW 3781   2.546   0.143   0.082  0.0811  0.2669 -0.2748
 1242SOL    HW1 3782   2.638   0.135   0.057 -0.3551 -0.6807 -1.7232
 1242SOL    HW2 3783   2.540   0.228   0.125  2.2248 -0.8804  2.7114
 1243SOL     OW 3784   2.622   1.372   0.096 -0.1090  0.5367  0.1364
 1243SOL    HW1 3785   2.601   1.349   0.005  0.1482  0.7718  0.0171
 1243SOL    HW2 3786   2.717   1.377   0.099  0.0294 -1.5822  0.9370
 1244SOL     OW 3787   2.206   1.631   2.060 -0.1298 -0.4270  0.7789
 1244SOL    HW1 3788   2.263   1.580   2.117  2.0286  0.3088 -0.5961
 1244SOL    HW2 3789   2.224   1.599   1.972  0.3807  1.7977  0.0032
 1245SOL     OW 3790   2.898   1.118   1.680 -0.0825 -0.6145 -0.3721
 1245SOL    HW1 3791   2.830   1.061   1.644  1.4929 -1.6690 -1.8512
 1245SOL    HW2 3792   2.966   1.058   1.709  0.4573  0.4310  0.5806
 1246SOL     OW 3793   4.074   2.356   4.173 -0.1982  0.2766  0.4681
 1246SOL    HW1 3794   4.029   2.278   4.140  2.1398 -0.4422 -1.4052
 1246SOL    HW2 3795   4.005   2.411   4.209 -2.4180 -1.1253 -1.3272
 1247SOL     OW 3796   1.583   4.422   2.383 -0.0200 -0.5216 -0.5244
 1247SOL    HW1 3797   1.645   4.463   2.322  0.8771 -0.8349  0.1512
 1247SOL    HW2 3798   1.617   4.444   2.470  0.0737 -2.0610 -0.1439
 1248SOL     OW 3799   4.727   2.309   4.395  0.5902 -0.1656  0.7647
 1248SOL    HW1 3800   4.724   2.360   4.314  0.5170 -0.7723  0.3797
 1248SOL    HW2 3801   4.730   2.375   4.464 -0.6340  0.3669  0.3277
 1249SOL     OW 3802   2.172   1.527   3.854 -0.7054 -0.2812 -0.5840
 1249SOL    HW1 3803   2.137   1.478   3.930  2.3297 -0.8319  0.6070
 1249SOL    HW2 3804   2.166   1.465   3.782 -3.0614  0.0274 -0.7416
 1250SOL     OW 3805   2.818   3.989   4.450  0.3897 -0.2107  0.6036
 1250SOL    HW1 3806   2.838   3.926   4.381 -1.8354 -1.9160  1.4008
 1250SOL    HW2 3807   2.862   3.954   4.528 -0.0769 -0.2660  0.8433
 1251SOL     OW 3808   4.671   2.517   1.744  0.2071  0.0166 -0.6059
 1251SOL    HW1 3809   4.743   2.454   1.741 -0.0079 -0.4903  1.9552
 1251SOL    HW2 3810   4.706   2.597   1.705  1.9574 -0.4214 -0.0253
 1252SOL     OW 3811   1.706   0.710   4.561 -0.2453  0.1231 -0.3986
 1252SOL    HW1 3812   1.706   0.704   4.465  1.1433 -0.1707 -0.3939
 1252SOL    HW2 3813   1.636   0.773   4.580 -0.1568  0.6360 -1.6428
 1253SOL     OW 3814   0.572   0.418   3.588  1.0096  0.3871 -0.2833
 1253SOL    HW1 3815   0.660   0.433   3.555  0.6709  1.2945 -0.8036
 1253SOL    HW2 3816   0.534   0.505   3.599  0.2356  0.0161  0.0969
 1254SOL     OW 3817   2.701   4.500   4.125  0.4328 -0.0159 -0.1284
 1254SOL    HW1 3818   2.688   4.407   4.107 -0.4745 -0.1766  1.1909
 1254SOL    HW2 3819   2.768   4.502   4.193 -0.1161  0.2380  0.4150
 1255SOL     OW 3820   0.008   3.600   3.123  0.4505 -0.4521  0.9054
 1255SOL    HW1 3821  -0.028   3.688   3.140 -1.3393 -1.3804  2.2305
 1255SOL    HW2 3822   0.103   3.612   3.125  0.2455  1.4660  0.9897
 1256SOL     OW 3823   2.830   3.001   3.563  0.2472  0.3817  0.0428
 1256SOL    HW1 3824   2.752   2.945   3.565 -0.1569  0.8204 -1.6079
 1256SOL    HW2 3825   2.810   3.067   3.496  1.7323  0.9750  0.1462
 1257SOL     OW 3826   4.599   2.962   1.983 -0.2587 -0.8579  0.2531
 1257SOL    HW1 3827   4.616   2.991   2.072  2.0371 -0.7526 -0.1708
 1257SOL    HW2 3828   4.666   2.896   1.965 -2.0025 -2.4900 -0.6851
 1258SOL     OW 3829   3.974   2.806   1.345 -0.1245  0.6048  0.3006
 1258SOL    HW1 3830   4.020   2.811   1.429  1.3827  0.1695 -0.4764
 1258SOL    HW2 3831   4.042   2.815   1.279 -1.0820 -0.6061 -0.9040
 1259SOL     OW 3832   2.989   0.431   3.204 -0.6608  0.3926  0.3445
 1259SOL    HW1 3833   2.971   0.519   3.171 -0.4883  1.2731  2.3999
 1259SOL    HW2 3834   2.917   0.378   3.170 -0.0519  0.9747 -2.0456
 1260SOL     OW 3835   4.084   4.231   1.586 -0.2194 -0.5451 -0.4626
 1260SOL    HW1 3836   4.167   4.252   1.544 -0.5618 -0.4677 -1.1080
 1260SOL    HW2 3837   4.087   4.279   1.669  1.9618 -3.4391  1.3026
 1261SOL     OW 3838   4.963   3.785   0.595  0.3233 -0.3137  0.0869
 1261SOL    HW1 3839   5.021   3.848   0.552 -0.7795  2.6586  2.5951
 1261SOL    HW2 3840   5.006   3.765   0.678 -0.3595 -1.2222  0.2322
 1262SOL     OW 3841   2.231   0.205   0.850  0.5139  0.1262  0.2686
 1262SOL    HW1 3842   2.295   0.196   0.921  1.3775  1.5593 -0.2664
 1262SOL    HW2 3843   2.146   0.211   0.895  0.8409 -0.8053  1.0501
 1263SOL     OW 3844   0.395   0.237   1.220 -0.2941  0.0008 -0.0013
 1263SOL    HW1 3845   0.319   0.203   1.173 -0.9612  0.8858  0.3960
 1263SOL    HW2 3846   0.466   0.237   1.156 -0.6537 -0.7166 -0.4133
 1264SOL     OW 3847   1.674   1.481   4.078 -0.5689 -0.7404 -0.6240
 1264SOL    HW1 3848   1.768   1.487   4.057 -0.9268 -0.3474 -2.2393
 1264SOL    HW2 3849   1.659   1.553   4.139 -0.0228 -0.1416 -1.1745
 1265SOL     OW 3850   2.419   4.844   2.945  0.1176 -0.2635  0.0626
 1265SOL    HW1 3851   2.360   4.918   2.960  0.4613  0.1299 -0.4792
 1265SOL    HW2 3852   2.502   4.871   2.985 -0.3064 -1.1962  1.6474
 1266SOL     OW 3853   3.589   1.466   2.107 -0.2642  0.5159  0.1672
 1266SOL    HW1 3854   3.533   1.544   2.105 -1.1630 -0.0779  1.0935
 1266SOL    HW2 3855   3.591   1.436   2.016 -0.5466  1.1727 -0.0641
 1267SOL     OW 3856   4.718   2.729   2.958 -0.3324  0.1040  0.3038
 1267SOL    HW1 3857   4.761   2.654   2.918 -1.6666 -0.2105 -0.6209
 1267SOL    HW2 3858   4.785   2.798   2.958  0.8896 -1.0254  1.1095
 1268SOL     OW 3859   2.222   4.063   3.444 -0.1847 -0.1710  0.3042
 1268SOL    HW1 3860   2.237   4.105   3.529 -0.2519  0.8539 -0.1778
 1268SOL    HW2 3861   2.273   3.981   3.449 -0.5588 -0.3604  1.4928
 1269SOL     OW 3862   0.067   2.809   1.895  0.1673  0.2162 -0.1812
 1269SOL    HW1 3863   0.114   2.875   1.947  0.5868 -0.6972  0.6353
 1269SOL    HW2 3864   0.009   2.765   1.958 -1.4618  0.9876 -1.0701
 1270SOL     OW 3865   4.342   3.947   4.935  0.3250 -0.3582  0.0008
 1270SOL    HW1 3866   4.307   4.036   4.939  1.4745  0.0787  0.7234
 1270SOL    HW2 3867   4.306   3.910   4.854 -1.3285  0.2577  0.4200
 1271SOL     OW 3868   3.461   4.643   4.552 -0.0036 -0.5889  0.3091
 1271SOL    HW1 3869   3.368   4.632   4.529 -0.0683 -2.7895  1.3270
 1271SOL    HW2 3870   3.508   4.619   4.473 -0.3099 -2.2239  0.5780
 1272SOL     OW 3871   3.955   3.285   3.047 -0.4973  0.1252  0.2560
 1272SOL    HW1 3872   3.966   3.190   3.050  0.5453  0.2176 -0.4134
 1272SOL    HW2 3873   3.934   3.304   2.956 -0.6804  0.5492  0.3833
 1273SOL     OW 3874   4.247   2.672   1.029 -1.1131  0.2857 -0.2659
 1273SOL    HW1 3875   4.322   2.640   1.078  0.0376  0.8473 -1.6000
 1273SOL    HW2 3876   4.205   2.593   0.995  0.4350  0.0352 -1.7046
 1274SOL     OW 3877   0.974   1.668   3.237  0.3057 -0.2148  0.2245
 1274SOL    HW1 3878   1.050   1.625   3.276  0.0405 -1.5201 -0.6227
 1274SOL    HW2 3879   0.904   1.656   3.301  0.1132 -1.5105 -0.2024
 1275SOL     OW 3880   2.881   2.820   1.350 -0.0788  0.1578 -0.2679
 1275SOL    HW1 3881   2.954   2.858   1.302  1.0857 -1.0220  0.4993
 1275SOL    HW2 3882   2.885   2.862   1.436  1.0030 -1.3619  0.4683
 1276SOL     OW 3883   1.121   0.895   3.238 -0.1793  0.0694  0.5652
 1276SOL    HW1 3884   1.203   0.848   3.228 -0.1390  0.2522  0.0486
 1276SOL    HW2 3885   1.081   0.895   3.151 -0.1323  1.0778  0.5255
 1277SOL     OW 3886   3.908   3.653   3.069 -0.1539 -0.5424  0.2005
 1277SOL    HW1 3887   3.814   3.645   3.088 -0.0932  1.4311  1.7214
 1277SOL    HW2 3888   3.946   3.572   3.103 -1.1046 -0.5349  1.3790
 1278SOL     OW 3889   4.583   3.892   0.600 -0.4150 -0.0584  0.1613
 1278SOL    HW1 3890   4.640   3.826   0.560 -0.7721 -0.8279  0.8959
 1278SOL    HW2 3891   4.643   3.956   0.638 -0.0650  0.0523 -0.5667
 1279SOL     OW 3892   3.988   1.668   3.834  0.2107 -0.0083 -0.0678
 1279SOL    HW1 3893   4.037   1.662   3.915 -3.5448  0.4614  2.4885
 1279SOL    HW2 3894   3.945   1.754   3.838 -1.8901 -0.9114 -1.3597
 1280SOL     OW 3895   0.708   3.846   0.058 -0.1122  0.2575  0.0412
 1280SOL    HW1 3896   0.789   3.848   0.110 -0.7936  1.9081  1.1010
 1280SOL    HW2 3897   0.734   3.883  -0.027  0.3691  0.1464  0.1329
 1281SOL     OW 3898   3.198   0.184   0.153  0.3832 -0.7034  0.0456
 1281SOL    HW1 3899   3.144   0.127   0.208 -0.3307 -0.8186 -0.7684
 1281SOL    HW2 3900   3.175   0.161   0.063  1.8783 -0.8552 -0.3391
 1282SOL     OW 3901   2.859   2.548   0.217  0.1062 -0.6610 -0.2187
 1282SOL    HW1 3902   2.938   2.535   0.270  1.9935  1.1779 -2.3722
 1282SOL    HW2 3903   2.844   2.463   0.175 -0.7041 -1.7820  2.1342
 1283SOL     OW 3904   1.828   3.769   0.355 -0.0105  0.4240 -0.5893
 1283SOL    HW1 3905   1.872   3.705   0.411 -0.1016  0.6111 -0.3060
 1283SOL    HW2 3906   1.798   3.717   0.280 -0.4526  0.0492 -0.1640
 1284SOL     OW 3907   1.665   3.729   3.408 -0.2500 -0.2517  0.1207
 1284SOL    HW1 3908   1.643   3.814   3.369 -1.2382 -0.5020  0.1064
 1284SOL    HW2 3909   1.760   3.730   3.414 -0.2899  1.4018  1.3414
 1285SOL     OW 3910   2.428   4.961   2.670 -0.2895  0.1063  0.3667
 1285SOL    HW1 3911   2.463   4.986   2.755  0.0416 -0.0426  0.2752
 1285SOL    HW2 3912   2.336   4.941   2.687 -0.4765  1.0487  0.4966
 1286SOL     OW 3913   0.745   4.105   4.568  0.3358 -0.3964  0.2149
 1286SOL    HW1 3914   0.820   4.137   4.518 -1.7111  0.1768 -2.7129
 1286SOL    HW2 3915   0.674   4.096   4.504 -1.5704 -2.9389  2.4168
 1287SOL     OW 3916   3.732   1.030   0.769 -0.0194  0.1920 -0.1432
 1287SOL    HW1 3917   3.651   1.080   0.758 -0.7436 -0.8320  0.3803
 1287SOL    HW2 3918   3.794   1.094   0.804 -1.0908  0.6237  1.0668
 1288SOL     OW 3919   4.580   0.499   1.408  0.8327 -0.4044 -0.0580
 1288SOL    HW1 3920   4.645   0.439   1.371  1.2277 -1.1588  1.7329
 1288SOL    HW2 3921   4.628   0.548   1.475  0.2890  1.3152 -0.8734
 1289SOL     OW 3922   1.137   4.690   4.389 -0.2165 -0.2214 -0.3428
 1289SOL    HW1 3923   1.126   4.595   4.392 -0.3239 -0.2766 -1.8650
 1289SOL    HW2 3924   1.134   4.712   4.296 -1.2736  1.4015  0.0321
 1290SOL     OW 3925   1.291   0.893   4.555 -0.2675 -0.7757  0.3842
 1290SOL    HW1 3926   1.227   0.920   4.489  0.4546  1.4600  0.5154
 1290SOL    HW2 3927   1.239   0.852   4.624 -2.1213  3.5782  1.8972
 1291SOL     OW 3928   0.303   3.222   2.513 -0.3101 -0.0515 -0.0445
 1291SOL    HW1 3929   0.356   3.294   2.479  0.8132 -0.3854  0.9486
 1291SOL    HW2 3930   0.360   3.146   2.509  0.0780 -0.0318  2.9295
 1292SOL     OW 3931   0.021   1.457   4.433  0.5413  0.5087 -0.9105
 1292SOL    HW1 3932  -0.024   1.457   4.518  1.3282  0.0970 -0.4783
 1292SOL    HW2 3933  -0.049   1.450   4.369  0.0329 -2.0716 -0.2114
 1293SOL     OW 3934   1.147   4.002   3.677 -0.3189 -0.4687 -0.0018
 1293SOL    HW1 3935   1.156   3.988   3.772  0.3740  0.1878  0.0336
 1293SOL    HW2 3936   1.120   3.916   3.643  0.7277 -1.0656  0.6259
 1294SOL     OW 3937   1.989   0.229   4.867  0.1648  0.8684 -0.0884
 1294SOL    HW1 3938   2.082   0.210   4.882  0.1944  0.9509 -0.1622
 1294SOL    HW2 3939   1.953   0.244   4.954 -0.3823 -1.8047  0.2241
 1295SOL     OW 3940   3.735   2.036   3.277 -0.0598 -0.5662 -0.1642
 1295SOL    HW1 3941   3.680   2.055   3.201  0.3518 -1.5059 -0.7055
 1295SOL    HW2 3942   3.674   2.003   3.343 -0.4328  0.3548 -0.0236
 1296SOL     OW 3943   1.877   1.211   1.685  0.3778 -0.1133  0.2319
 1296SOL    HW1 3944   1.793   1.217   1.641  0.5799 -0.8151 -0.2646
 1296SOL    HW2 3945   1.912   1.300   1.683 -0.8911  0.4585  1.5528
 1297SOL     OW 3946   0.821   1.033   4.664  0.4120  0.1251  0.2514
 1297SOL    HW1 3947   0.892   1.075   4.616  0.2402  0.5405  0.3506
 1297SOL    HW2 3948   0.773   1.106   4.704  0.1970 -0.1770  0.5541
 1298SOL     OW 3949   4.721   0.244   1.548 -0.3196  0.6424 -0.5432
 1298SOL    HW1 3950   4.699   0.155   1.520  0.3642  0.2123  0.2251
 1298SOL    HW2 3951   4.752   0.287   1.468  2.7345 -0.9185 -0.3594
 1299SOL     OW 3952   2.120   0.529   2.788  0.4274 -0.2022 -0.1782
 1299SOL    HW1 3953   2.128   0.461   2.722  0.9268 -1.0587  0.7357
 1299SOL    HW2 3954   2.144   0.486   2.870 -1.9308  0.3066  0.8845
 1300SOL     OW 3955   3.462   1.683   0.682 -0.3873 -0.5338 -0.1942
 1300SOL    HW1 3956   3.499   1.617   0.740  1.2291  0.1180 -0.4345
 1300SOL    HW2 3957   3.515   1.677   0.602  0.1660  1.4156 -0.0154
 1301SOL     OW 3958   1.289   0.655   1.498  0.2788 -0.0553 -0.5338
 1301SOL    HW1 3959   1.350   0.706   1.445 -0.5516  0.8111 -0.6829
 1301SOL    HW2 3960   1.341   0.580   1.528  1.0496 -0.0424 -1.7276
 1302SOL     OW 3961   4.756   3.146   0.157  0.3414  0.0213 -0.1497
 1302SOL    HW1 3962   4.780   3.238   0.165  0.9163 -0.2199  1.2048
 1302SOL    HW2 3963   4.673   3.146   0.110  0.1545  1.2525  0.1670
 1303SOL     OW 3964   3.330   3.785   3.410 -0.2338 -0.3930  0.0643
 1303SOL    HW1 3965   3.259   3.822   3.358 -0.1625  0.0873  0.3036
 1303SOL    HW2 3966   3.408   3.794   3.355 -0.0800  0.4976  0.4011
 1304SOL     OW 3967   4.618   1.042   0.700  0.5927 -0.1183  0.4384
 1304SOL    HW1 3968   4.537   1.076   0.737  1.0546  0.7131  0.7089
 1304SOL    HW2 3969   4.647   1.110   0.639  0.6258 -0.8051 -0.3189
 1305SOL     OW 3970   2.296   4.738   4.296 -0.2428 -0.6884  0.0221
 1305SOL    HW1 3971   2.255   4.811   4.342 -1.3940 -0.7226 -0.9030
 1305SOL    HW2 3972   2.357   4.779   4.235  0.5794 -0.6017  0.8899
 1306SOL     OW 3973   0.136   3.956   2.896 -0.0342 -0.3214 -0.1228
 1306SOL    HW1 3974   0.042   3.935   2.902  0.6256 -3.1305  3.0918
 1306SOL    HW2 3975   0.154   4.006   2.975  0.8892  2.1666 -1.7966
 1307SOL     OW 3976   0.566   1.904   0.735  0.1294 -0.2440 -0.4363
 1307SOL    HW1 3977   0.573   1.869   0.824  0.9923 -1.2725 -0.8903
 1307SOL    HW2 3978   0.651   1.946   0.719 -0.1274  0.1885 -0.6655
 1308SOL     OW 3979   1.866   3.227   4.399  0.3738  0.1311  0.1905
 1308SOL    HW1 3980   1.916   3.285   4.457 -0.8014  5.2363 -3.2118
 1308SOL    HW2 3981   1.912   3.231   4.315 -0.7078 -2.8040 -0.6734
 1309SOL     OW 3982   3.189   0.987   2.366  0.4206  0.1716  0.2296
 1309SOL    HW1 3983   3.129   0.919   2.397 -0.1941 -0.5509 -2.3166
 1309SOL    HW2 3984   3.159   1.067   2.409  0.4145 -0.8889  2.3760
 1310SOL     OW 3985   0.657   4.784   0.336 -0.0587  0.0486  0.2049
 1310SOL    HW1 3986   0.658   4.689   0.325  0.2841  0.0838 -0.1168
 1310SOL    HW2 3987   0.748   4.811   0.318  0.7860  0.0638  3.7321
 1311SOL     OW 3988   2.853   0.508   1.920  0.2694  0.1154 -0.6387
 1311SOL    HW1 3989   2.846   0.575   1.852 -1.9576 -0.1034 -0.6862
 1311SOL    HW2 3990   2.830   0.554   2.001  0.6900 -0.1569 -0.3589
 1312SOL     OW 3991   2.751   2.695   2.795  0.0695 -0.0463  0.4608
 1312SOL    HW1 3992   2.820   2.673   2.857  3.0541  2.6673 -1.5639
 1312SOL    HW2 3993   2.795   2.697   2.710 -3.3018 -1.3594 -1.5155
 1313SOL     OW 3994   0.077   0.741   3.009 -0.2154  0.8416 -0.2891
 1313SOL    HW1 3995   0.112   0.707   2.927  0.2514 -1.3962  0.7465
 1313SOL    HW2 3996  -0.001   0.688   3.026  0.5615  0.1244  1.4215
 1314SOL     OW 3997   2.377   4.030   3.044 -0.3883  0.4594  0.1658
 1314SOL    HW1 3998   2.361   3.949   3.094 -0.3179 -0.8075 -1.7478
 1314SOL    HW2 3999   2.379   4.099   3.110 -2.0820 -0.8658  1.7059
 1315SOL     OW 4000   0.713   1.633   2.117 -0.2546 -0.2126 -0.1693
 1315SOL    HW1 4001   0.673   1.618   2.203 -0.7473  0.7399 -0.2217
 1315SOL    HW2 4002   0.640   1.649   2.058  0.1244  0.0579 -0.5739
 1316SOL     OW 4003   4.030   4.697   1.778 -0.1610 -0.4305  0.2879
 1316SOL    HW1 4004   4.018   4.746   1.859  0.4179 -1.6976  1.1716
 1316SOL    HW2 4005   4.114   4.728   1.744 -0.1595 -0.2659  0.4380
 1317SOL     OW 4006   0.768   0.010   1.949  0.2532 -0.2146 -0.3201
 1317SOL    HW1 4007   0.752   0.025   1.856  0.4291  0.4353 -0.2539
 1317SOL    HW2 4008   0.810  -0.075   1.953 -0.1331 -0.4339 -0.7987
 1318SOL     OW 4009   2.460   2.682   0.738  0.3318 -0.3882 -0.1148
 1318SOL    HW1 4010   2.495   2.597   0.761  2.8964  0.8172  0.7300
 1318SOL    HW2 4011   2.470   2.688   0.643  1.5211 -0.4778 -0.0015
 1319SOL     OW 4012   4.261   1.205   1.708  0.2356  0.3955  0.4281
 1319SOL    HW1 4013   4.344   1.174   1.670  1.3754  3.9332 -0.4166
 1319SOL    HW2 4014   4.284   1.237   1.795 -0.3365  0.8395  0.4288
 1320SOL     OW 4015   2.219   3.078   3.382  0.1192 -0.0537 -0.2048
 1320SOL    HW1 4016   2.207   3.023   3.459  1.4087 -1.0256 -0.6578
 1320SOL    HW2 4017   2.283   3.144   3.409 -1.6221  1.4922  0.4226
 1321SOL     OW 4018   3.475   4.344   3.585  0.3471  0.0419 -0.1980
 1321SOL    HW1 4019   3.488   4.295   3.666 -1.3790  1.3378  0.9487
 1321SOL    HW2 4020   3.411   4.293   3.535  1.2894 -0.6740 -0.7068
 1322SOL     OW 4021   4.143   2.156   0.846  0.4549  0.0726  0.2896
 1322SOL    HW1 4022   4.049   2.161   0.859  0.5284  0.0816  0.8693
 1322SOL    HW2 4023   4.161   2.062   0.844  0.1522  0.0204 -2.1307
 1323SOL     OW 4024   1.330   2.514   3.759 -0.3913  0.2808  0.7561
 1323SOL    HW1 4025   1.398   2.513   3.826  1.2186  0.0242 -0.7955
 1323SOL    HW2 4026   1.248   2.505   3.807  0.6474  0.7280  2.7135
 1324SOL     OW 4027   2.080   3.515   1.434 -0.2339 -0.1623 -0.1823
 1324SOL    HW1 4028   2.156   3.528   1.378 -0.7194  0.4460 -0.7196
 1324SOL    HW2 4029   2.092   3.577   1.506  0.0242 -0.4218 -0.0006
 1325SOL     OW 4030   2.264   2.648   0.950 -0.0943 -0.1769 -0.0308
 1325SOL    HW1 4031   2.354   2.668   0.926  0.1698  0.1316  1.1329
 1325SOL    HW2 4032   2.222   2.622   0.868  1.2169 -0.9776 -0.4791
 1326SOL     OW 4033   4.119   3.794   3.312 -0.1811 -0.1206  0.2280
 1326SOL    HW1 4034   4.115   3.748   3.396 -1.7934  0.6321  0.5920
 1326SOL    HW2 4035   4.071   3.736   3.252 -1.1280  0.4652  0.4016
 1327SOL     OW 4036   4.150   1.998   4.196  0.3988  0.2890  0.2471
 1327SOL    HW1 4037   4.233   1.958   4.223  0.5781  2.0067  2.4775
 1327SOL    HW2 4038   4.088   1.925   4.192  1.3441 -0.6118  1.4066
 1328SOL     OW 4039   4.350   3.716   0.593 -0.4144 -0.1795  0.8330
 1328SOL    HW1 4040   4.412   3.785   0.569  0.4261 -0.6794  1.5206
 1328SOL    HW2 4041   4.361   3.650   0.524  1.7745 -1.4707  2.3027
 1329SOL     OW 4042   2.703   4.761   3.077  0.0570  0.0483  0.0327
 1329SOL    HW1 4043   2.794   4.745   3.053 -0.0605 -2.7907  1.0639
 1329SOL    HW2 4044   2.685   4.850   3.046  4.1115  2.0759  2.6532
 1330SOL     OW 4045   4.844   0.473   1.749  0.4506  0.1777  0.4350
 1330SOL    HW1 4046   4.816   0.415   1.678 -0.5286 -0.8104  1.5914
 1330SOL    HW2 4047   4.792   0.552   1.737  0.5608  0.1649 -0.1643
 1331SOL     OW 4048   3.202   1.015   3.887  0.2794 -0.2998  0.0957
 1331SOL    HW1 4049   3.196   1.063   3.969  1.5102  1.6469 -0.8935
 1331SOL    HW2 4050   3.294   0.989   3.881  0.3145  0.0120 -0.8761
 1332SOL     OW 4051   0.266   0.557   0.947 -0.3070 -0.0607  0.3023
 1332SOL    HW1 4052   0.332   0.609   0.993  0.9273 -0.0045 -1.4197
 1332SOL    HW2 4053   0.273   0.587   0.856 -1.5349 -1.2779 -0.2100
 1333SOL     OW 4054   0.382   2.324   1.500 -0.2068 -0.2556 -0.3562
 1333SOL    HW1 4055   0.319   2.393   1.517  0.1033 -0.3447  1.3172
 1333SOL    HW2 4056   0.334   2.243   1.517 -0.4270 -0.4519 -1.8229
 1334SOL     OW 4057   0.167   4.286   2.886  0.4414  0.3113 -0.1443
 1334SOL    HW1 4058   0.242   4.232   2.862 -0.4286 -1.1681  0.3195
 1334SOL    HW2 4059   0.144   4.332   2.806  1.7776  0.7286 -0.3143
 1335SOL     OW 4060   2.431   2.832   2.291  0.2067  0.8759  0.4123
 1335SOL    HW1 4061   2.403   2.752   2.335  2.8181  0.1480  0.9520
 1335SOL    HW2 4062   2.435   2.809   2.198 -1.9710  1.3686  0.1436
 1336SOL     OW 4063   3.643   1.596   2.928  0.8069  0.7778 -0.4075
 1336SOL    HW1 4064   3.660   1.659   2.858  0.0481  0.3134 -1.0341
 1336SOL    HW2 4065   3.558   1.558   2.905 -0.3546  1.9306  1.7537
 1337SOL     OW 4066   1.887   1.529   3.507 -0.1042  0.3406 -0.0079
 1337SOL    HW1 4067   1.850   1.580   3.435 -0.9448 -1.5523 -0.9819
 1337SOL    HW2 4068   1.974   1.504   3.476  0.5785  1.6325  0.7401
 1338SOL     OW 4069   1.942   1.484   2.169 -0.0672 -0.8269 -0.3376
 1338SOL    HW1 4070   1.913   1.554   2.228  1.8341  0.0793 -0.3923
 1338SOL    HW2 4071   2.037   1.490   2.170  0.0695 -1.5217 -2.6388
 1339SOL     OW 4072   0.777   1.907   0.391 -0.4256 -0.3010 -0.2987
 1339SOL    HW1 4073   0.712   1.909   0.461  1.1957  1.1617  1.2753
 1339SOL    HW2 4074   0.858   1.882   0.435  0.4228 -0.4537 -1.8898
 1340SOL     OW 4075   4.784   4.942   0.120 -0.3703  0.4104  0.1775
 1340SOL    HW1 4076   4.716   4.936   0.052  1.0505  2.1881 -1.5087
 1340SOL    HW2 4077   4.842   5.012   0.090  1.3427  0.0390  2.3653
 1341SOL     OW 4078   1.834   4.454   3.741 -0.6638  0.1805  0.2947
 1341SOL    HW1 4079   1.746   4.428   3.766 -0.6997  0.8666  0.9028
 1341SOL    HW2 4080   1.886   4.441   3.820 -0.2025 -0.2738 -0.0763
 1342SOL     OW 4081   4.823   2.021   0.086 -0.0058 -0.4696  0.4674
 1342SOL    HW1 4082   4.791   1.972   0.161  0.6246 -2.5718 -0.5805
 1342SOL    HW2 4083   4.803   1.966   0.011  1.4751  0.4976 -0.6851
 1343SOL     OW 4084   1.618   1.566   2.072  0.7208 -1.0353 -0.5130
 1343SOL    HW1 4085   1.647   1.475   2.067 -2.4872 -2.2542  0.6994
 1343SOL    HW2 4086   1.632   1.590   2.164 -1.5609 -1.5518  0.0249
 1344SOL     OW 4087   4.579   4.662   1.994  0.0192  0.2098 -0.1909
 1344SOL    HW1 4088   4.541   4.692   2.076 -0.4199 -1.0633  0.0823
 1344SOL    HW2 4089   4.618   4.741   1.956  0.8350  0.6859  1.5457
 1345SOL     OW 4090   4.851   1.634   2.023  0.2932  0.5062  0.1718
 1345SOL    HW1 4091   4.921   1.679   1.976  0.6063  0.5369  0.6681
 1345SOL    HW2 4092   4.892   1.555   2.058 -0.2004 -0.0678 -0.5054
 1346SOL     OW 4093   0.600   0.153   2.871 -0.1365 -0.7759 -0.3288
 1346SOL    HW1 4094   0.632   0.231   2.825 -1.6953 -0.0814 -0.2920
 1346SOL    HW2 4095   0.559   0.100   2.802 -2.6314  0.3459  0.2164
 1347SOL     OW 4096   2.309   2.940   3.876  0.5231 -0.5605 -0.1946
 1347SOL    HW1 4097   2.348   3.026   3.865 -0.3205 -0.1324  0.1002
 1347SOL    HW2 4098   2.324   2.919   3.968 -0.3419 -0.1842  0.0412
 1348SOL     OW 4099   2.774   0.947   0.731 -0.5504 -0.1155 -0.0280
 1348SOL    HW1 4100   2.754   0.912   0.645 -2.1082  1.5465 -0.4206
 1348SOL    HW2 4101   2.700   0.922   0.785  0.2730 -0.8846  0.7801
 1349SOL     OW 4102   2.910   3.981   4.901 -0.4963  0.0103  0.6924
 1349SOL    HW1 4103   2.897   4.075   4.888 -1.4035  0.0572  1.8320
 1349SOL    HW2 4104   2.999   3.974   4.937 -0.4571  0.4353  0.6858
 1350SOL     OW 4105   2.496   1.463   1.049  0.1145  0.1616  0.1813
 1350SOL    HW1 4106   2.470   1.428   1.134  1.4180  1.5690  1.2210
 1350SOL    HW2 4107   2.459   1.551   1.047  0.8017  0.4439 -0.3365
 1351SOL     OW 4108   2.127   3.406   2.795  0.0790 -0.1504  0.1604
 1351SOL    HW1 4109   2.127   3.457   2.714 -1.7469 -0.0749  0.1730
 1351SOL    HW2 4110   2.220   3.392   2.814  0.6485  2.2465 -0.4189
 1352SOL     OW 4111   2.788   1.192   2.831 -0.0103 -0.2076 -0.0414
 1352SOL    HW1 4112   2.706   1.205   2.879 -0.0735  1.4496 -0.5368
 1352SOL    HW2 4113   2.826   1.113   2.870 -1.3223 -0.4035  0.9135
 1353SOL     OW 4114   4.254   2.782   0.756  0.0134  0.6146  0.3447
 1353SOL    HW1 4115   4.254   2.764   0.850 -0.9018  0.5456  0.3408
 1353SOL    HW2 4116   4.251   2.878   0.751  0.1969  0.6223  0.3881
 1354SOL     OW 4117   1.859   4.398   0.779  0.6537  0.0362  0.2318
 1354SOL    HW1 4118   1.901   4.432   0.700 -0.2167  2.1992  0.6293
 1354SOL    HW2 4119   1.782   4.350   0.747  1.6240 -1.2442 -0.3078
 1355SOL     OW 4120   3.359   0.415   3.721  0.1929  0.3883  0.5110
 1355SOL    HW1 4121   3.343   0.333   3.768 -0.3376  0.1013 -0.1571
 1355SOL    HW2 4122   3.273   0.454   3.710  0.0084 -0.5044 -1.9072
 1356SOL     OW 4123   3.343   1.616   1.035 -0.2186 -0.7063  0.4439
 1356SOL    HW1 4124   3.354   1.675   1.110 -0.8289  0.0794 -0.0672
 1356SOL    HW2 4125   3.429   1.575   1.024  0.4760  0.7261  0.2943
 1357SOL     OW 4126   2.939   2.011   2.265  0.2381 -0.8244  0.0804
 1357SOL    HW1 4127   2.989   1.982   2.189  2.1842  2.2327  0.0001
 1357SOL    HW2 4128   2.993   1.987   2.340  0.2076 -0.4924  0.2114
 1358SOL     OW 4129   4.805   1.874   4.179 -0.4581  0.0441 -0.1592
 1358SOL    HW1 4130   4.744   1.802   4.197  0.0932 -0.9436 -1.9826
 1358SOL    HW2 4131   4.890   1.842   4.209  0.1179 -0.8703 -2.4889
 1359SOL     OW 4132   2.066   4.121   2.235 -0.3712  0.0455 -0.1589
 1359SOL    HW1 4133   2.086   4.185   2.167 -1.6520 -0.8054 -1.4158
 1359SOL    HW2 4134   2.112   4.152   2.313  0.7516  1.3142 -1.2864
 1360SOL     OW 4135   1.663   4.519   1.689  0.5218 -0.2678  0.1094
 1360SOL    HW1 4136   1.619   4.519   1.775  1.9860 -2.2813  0.9584
 1360SOL    HW2 4137   1.592   4.520   1.626 -0.5996  1.8605  1.3118
 1361SOL     OW 4138   1.274   1.375   2.308  0.1447  0.0329  0.2320
 1361SOL    HW1 4139   1.359   1.342   2.336  0.1782 -0.5074 -0.4679
 1361SOL    HW2 4140   1.237   1.418   2.385  1.1697  0.5069  0.4628
 1362SOL     OW 4141   3.173   3.006   0.006  0.0752 -0.0829 -0.0966
 1362SOL    HW1 4142   3.255   3.021  -0.041 -0.0960 -0.6264 -0.5917
 1362SOL    HW2 4143   3.183   3.054   0.088  2.2488 -2.6717  1.3617
 1363SOL     OW 4144   0.859   3.564   3.357 -0.0815  0.2850 -0.9451
 1363SOL    HW1 4145   0.772   3.553   3.319 -0.9633  0.4929  0.8808
 1363SOL    HW2 4146   0.895   3.475   3.361 -1.3657 -0.2289  0.7364
 1364SOL     OW 4147   3.934   0.019   3.876 -0.2857 -0.1901  0.5890
 1364SOL    HW1 4148   3.898   0.097   3.918  1.5159  0.1964  1.5431
 1364SOL    HW2 4149   3.919  -0.052   3.938  1.1191  0.1065  1.3116
 1365SOL     OW 4150   3.131   0.295   1.143  0.0149  0.0062 -0.4372
 1365SOL    HW1 4151   3.188   0.218   1.142  1.9764  1.3546 -1.4808
 1365SOL    HW2 4152   3.136   0.328   1.232 -2.2348 -1.9380  0.5146
 1366SOL     OW 4153   0.777   1.017   2.825 -0.2114 -0.5328  0.0191
 1366SOL    HW1 4154   0.784   1.077   2.751 -0.1148  0.5888  0.9025
 1366SOL    HW2 4155   0.696   0.969   2.809  0.4713 -1.2674 -1.4639
 1367SOL     OW 4156   1.965   2.594   3.596 -0.5331 -1.0771  0.2596
 1367SOL    HW1 4157   1.915   2.625   3.671  0.1077 -0.7582  0.5601
 1367SOL    HW2 4158   1.973   2.500   3.609 -0.5087 -1.0353  0.5395
 1368SOL     OW 4159   2.630   3.778   4.007  0.5399 -0.1582 -0.1389
 1368SOL    HW1 4160   2.608   3.701   3.955 -0.1326  0.0650 -0.1934
 1368SOL    HW2 4161   2.631   3.746   4.098 -1.1535  0.0412 -0.0118
 1369SOL     OW 4162   4.723   0.888   1.054  0.1192 -0.3096 -0.0786
 1369SOL    HW1 4163   4.776   0.821   1.011 -0.1562 -0.5676 -0.0174
 1369SOL    HW2 4164   4.701   0.851   1.139  0.4001  0.0723  0.1672
 1370SOL     OW 4165   1.146   1.250   3.832  0.0690  0.1318  0.0695
 1370SOL    HW1 4166   1.053   1.251   3.853 -0.5447 -0.9248 -2.2766
 1370SOL    HW2 4167   1.182   1.324   3.881 -1.6572 -0.3890  2.3062
 1371SOL     OW 4168   1.505   0.675   2.138  0.5552 -0.3796  0.2647
 1371SOL    HW1 4169   1.559   0.754   2.134  1.3036 -0.8803  0.2090
 1371SOL    HW2 4170   1.537   0.628   2.215 -2.5118  1.2010  2.7655
 1372SOL     OW 4171   2.479   3.088   2.262  0.0863  0.3153 -0.1016
 1372SOL    HW1 4172   2.408   3.134   2.306  0.3887  0.3967  0.3084
 1372SOL    HW2 4173   2.453   2.996   2.263 -0.1965  0.3899 -0.3119
 1373SOL     OW 4174   4.596   1.124   3.379  0.0097  0.1500 -0.2082
 1373SOL    HW1 4175   4.657   1.071   3.329 -0.5072 -0.3384 -0.3328
 1373SOL    HW2 4176   4.645   1.203   3.402  0.9077 -0.5316  0.2916
 1374SOL     OW 4177   2.647   2.960   4.311 -0.3179 -0.5497  0.3930
 1374SOL    HW1 4178   2.561   2.927   4.336 -2.2044  0.8828 -3.5207
 1374SOL    HW2 4179   2.694   2.882   4.280 -1.7651 -0.8639 -1.1862
 1375SOL     OW 4180   3.901   4.682   2.435 -0.0754  1.0678 -0.5535
 1375SOL    HW1 4181   3.972   4.660   2.495 -0.4378  1.0180 -0.1363
 1375SOL    HW2 4182   3.844   4.605   2.435  0.3909  0.6978 -1.6806
 1376SOL     OW 4183   0.602   4.654   2.092 -0.0737  0.2547  0.0118
 1376SOL    HW1 4184   0.661   4.701   2.034  1.4761  0.0291  1.3456
 1376SOL    HW2 4185   0.568   4.582   2.039 -0.1535  1.1225 -1.1419
 1377SOL     OW 4186   4.611   4.945   1.877 -0.3640  0.0592 -0.0464
 1377SOL    HW1 4187   4.534   4.971   1.827  0.9839 -1.4761 -3.2612
 1377SOL    HW2 4188   4.674   5.016   1.864 -0.1235 -0.1947 -0.2956
 1378SOL     OW 4189   0.792   1.525   4.598  0.2056 -0.1196 -0.2993
 1378SOL    HW1 4190   0.751   1.570   4.672  0.0879 -0.6009 -0.0686
 1378SOL    HW2 4191   0.819   1.596   4.540 -0.8410  0.2138 -0.3978
 1379SOL     OW 4192   3.381   4.360   4.418 -0.0171 -0.1088 -0.5349
 1379SOL    HW1 4193   3.450   4.415   4.381  0.0259  0.7894  0.8323
 1379SOL    HW2 4194   3.426   4.282   4.450  0.3318  0.3646  0.1331
 1380SOL     OW 4195   1.783   1.507   1.764  0.4290  0.0715  0.3486
 1380SOL    HW1 4196   1.729   1.476   1.692  0.3300  0.1210  0.4018
 1380SOL    HW2 4197   1.735   1.483   1.843  1.1033 -1.0490  0.4359
 1381SOL     OW 4198   3.108   2.878   4.294  0.2712 -0.8576 -0.2503
 1381SOL    HW1 4199   3.051   2.822   4.346  1.3461 -1.7255  0.0269
 1381SOL    HW2 4200   3.178   2.820   4.265  1.7249  0.4335  0.5169
 1382SOL     OW 4201   3.629   3.875   1.051  0.4346  0.0283 -0.3504
 1382SOL    HW1 4202   3.620   3.940   0.982 -0.8241 -1.2140 -1.4166
 1382SOL    HW2 4203   3.675   3.921   1.122  1.7958  1.3129 -2.0000
 1383SOL     OW 4204   0.842   3.166   0.858  0.1575 -0.1181 -0.2858
 1383SOL    HW1 4205   0.917   3.109   0.842  0.2112  0.3834 -2.0596
 1383SOL    HW2 4206   0.770   3.106   0.877  0.9286 -0.6122  1.2395
 1384SOL     OW 4207   0.407   3.677   1.656 -0.3997  0.1485  0.0078
 1384SOL    HW1 4208   0.333   3.732   1.681 -0.6478 -0.4365  0.5647
 1384SOL    HW2 4209   0.367   3.604   1.609  0.0958  1.6737 -3.0526
 1385SOL     OW 4210   4.186   3.451   4.047  0.1666  0.2056 -0.0437
 1385SOL    HW1 4211   4.273   3.415   4.060  0.8583  2.2403  1.8076
 1385SOL    HW2 4212   4.196   3.513   3.975  0.3312  0.6051  0.3170
 1386SOL     OW 4213   0.420   1.230   2.959  0.2964 -0.0575 -0.3093
 1386SOL    HW1 4214   0.386   1.177   3.031  0.4654 -1.2992 -1.1115
 1386SOL    HW2 4215   0.399   1.320   2.983  0.3041 -0.4490  1.2594
 1387SOL     OW 4216   4.047   2.345   1.899 -0.0271 -1.0839  0.1078
 1387SOL    HW1 4217   4.042   2.370   1.806 -0.6430 -1.5662  0.0054
 1387SOL    HW2 4218   3.956   2.342   1.928  0.0592 -2.5116  0.2986
 1388SOL     OW 4219   3.497   2.305   2.922 -0.4829 -0.7360 -0.5288
 1388SOL    HW1 4220   3.554   2.381   2.911  0.6206 -1.3028  0.9971
 1388SOL    HW2 4221   3.480   2.276   2.832  1.5613 -0.4725 -1.0662
 1389SOL     OW 4222   0.452   4.866   4.279 -0.0472 -0.4322  0.1251
 1389SOL    HW1 4223   0.516   4.916   4.330 -0.5150 -0.7137  1.0214
 1389SOL    HW2 4224   0.383   4.845   4.342 -1.7194  1.0443 -1.1162
 1390SOL     OW 4225   3.885   1.028   4.212  0.4067  0.0050  0.2925
 1390SOL    HW1 4226   3.972   0.989   4.223  1.7363  2.9006  1.0802
 1390SOL    HW2 4227   3.849   1.028   4.301  1.1382  1.9275  0.6411
 1391SOL     OW 4228   3.180   4.647   4.443  0.5259 -0.4893  0.0190
 1391SOL    HW1 4229   3.165   4.739   4.419  1.2288 -0.0913  1.0727
 1391SOL    HW2 4230   3.192   4.603   4.359  0.4446  0.4303 -0.4934
 1392SOL     OW 4231   2.049   1.377   2.522  0.3080  0.1545 -0.2384
 1392SOL    HW1 4232   2.106   1.310   2.484  1.0944  1.3888 -1.3228
 1392SOL    HW2 4233   2.102   1.457   2.519 -0.3900  0.7312  1.5632
 1393SOL     OW 4234   2.172   3.648   4.954 -0.1603 -0.5199 -0.3199
 1393SOL    HW1 4235   2.168   3.678   5.045 -3.1949  1.0121 -0.8334
 1393SOL    HW2 4236   2.203   3.724   4.905 -0.1707 -0.7910 -0.7544
 1394SOL     OW 4237   0.942   0.465   1.090 -0.2493  0.2161  0.1963
 1394SOL    HW1 4238   0.875   0.520   1.130 -0.6006 -0.7612  0.9959
 1394SOL    HW2 4239   1.025   0.504   1.120 -0.4992 -0.3889  1.8061
 1395SOL     OW 4240   0.941   2.957   1.545  0.3511 -0.3478 -0.8264
 1395SOL    HW1 4241   1.007   2.904   1.499  0.5513  0.3041 -1.3083
 1395SOL    HW2 4242   0.867   2.897   1.557  0.8709 -0.9702 -0.6491
 1396SOL     OW 4243   4.623   0.777   1.291 -0.5149  0.1114 -0.2125
 1396SOL    HW1 4244   4.712   0.785   1.326 -0.4027 -0.6898 -0.3004
 1396SOL    HW2 4245   4.609   0.683   1.283 -1.6488  0.1952  0.5073
 1397SOL     OW 4246   1.533   3.736   0.152  0.3319 -0.1362  0.5893
 1397SOL    HW1 4247   1.509   3.786   0.074  2.2434 -1.8646 -1.2083
 1397SOL    HW2 4248   1.492   3.651   0.139  1.3800 -0.7248  1.0293
 1398SOL     OW 4249   4.850   3.823   1.840  0.0338  0.4970  0.4022
 1398SOL    HW1 4250   4.823   3.764   1.769 -0.9141  1.4791 -0.0684
 1398SOL    HW2 4251   4.833   3.773   1.920  0.6572 -0.4342 -0.0215
 1399SOL     OW 4252   0.557   4.727   1.370 -0.4902 -0.6228  0.2514
 1399SOL    HW1 4253   0.639   4.774   1.355 -1.0338  0.3471  0.2184
 1399SOL    HW2 4254   0.510   4.734   1.287 -2.1606  2.0327  1.2788
 1400SOL     OW 4255   2.161   2.050   3.656  0.4687  0.1725  0.6263
 1400SOL    HW1 4256   2.234   2.014   3.706  0.7364  1.8741  1.5191
 1400SOL    HW2 4257   2.194   2.133   3.622 -0.4559  0.0902 -0.5448
 1401SOL     OW 4258   1.915   0.092   4.224 -0.8966 -0.5863  0.1228
 1401SOL    HW1 4259   1.913   0.143   4.306  0.3836 -1.6738  0.8724
 1401SOL    HW2 4260   1.989   0.129   4.175  1.8460 -3.3034  1.8522
 1402SOL     OW 4261   1.664   3.399   1.259  0.1682  0.0779 -0.0149
 1402SOL    HW1 4262   1.623   3.323   1.299  0.0212 -1.0775 -2.1874
 1402SOL    HW2 4263   1.616   3.412   1.177  1.6452  1.0750 -0.7742
 1403SOL     OW 4264   2.602   3.140   3.947 -0.0234  0.1317  0.1840
 1403SOL    HW1 4265   2.555   3.104   4.022  0.6175 -0.5700  0.2683
 1403SOL    HW2 4266   2.650   3.065   3.911  0.2508  0.6161 -0.4844
 1404SOL     OW 4267   2.458   4.784   1.093  0.2049 -0.4117  0.7748
 1404SOL    HW1 4268   2.401   4.716   1.056  1.7167 -1.3530  0.1037
 1404SOL    HW2 4269   2.537   4.738   1.119  2.5952  1.4513 -2.5560
 1405SOL     OW 4270   4.308   0.226   3.576 -0.7017  0.3167 -0.4250
 1405SOL    HW1 4271   4.310   0.268   3.490 -1.5512  0.7215 -0.2524
 1405SOL    HW2 4272   4.347   0.291   3.635 -0.3375  0.1318 -0.4556
 1406SOL     OW 4273   1.609   0.248   3.100  0.2638 -0.2784  0.3719
 1406SOL    HW1 4274   1.664   0.243   3.178 -1.2768  2.1568  1.7645
 1406SOL    HW2 4275   1.531   0.296   3.129 -0.4779  0.5620 -2.6347
 1407SOL     OW 4276   2.287   3.204   2.392  0.1864  0.0804  0.9314
 1407SOL    HW1 4277   2.211   3.179   2.445 -2.2913  0.5390 -2.1357
 1407SOL    HW2 4278   2.270   3.295   2.367  1.1855 -0.1249 -0.6391
 1408SOL     OW 4279   0.761   2.644   1.656  0.4682  0.4639  0.1920
 1408SOL    HW1 4280   0.777   2.621   1.748  1.0137 -0.4506 -0.1250
 1408SOL    HW2 4281   0.689   2.707   1.660 -0.7431 -0.9127  1.1396
 1409SOL     OW 4282   0.815   4.511   4.387 -0.1299 -0.3423 -0.0311
 1409SOL    HW1 4283   0.730   4.472   4.408 -0.8946  1.3779  0.2403
 1409SOL    HW2 4284   0.856   4.526   4.472 -0.0101 -0.2429 -0.1067
 1410SOL     OW 4285   4.926   0.792   0.810 -0.3144 -0.1631  0.3491
 1410SOL    HW1 4286   4.928   0.794   0.714 -1.8528  1.8453  0.2978
 1410SOL    HW2 4287   4.980   0.866   0.837 -0.4555 -0.2911  0.9997
 1411SOL     OW 4288   1.221   4.895   2.215 -0.0442  0.0735  0.2731
 1411SOL    HW1 4289   1.283   4.961   2.185 -0.9799  0.4065 -1.0197
 1411SOL    HW2 4290   1.148   4.946   2.251 -0.7092 -0.2266 -0.6052
 1412SOL     OW 4291   4.677   0.728   4.017 -0.2939  0.4397 -0.2025
 1412SOL    HW1 4292   4.680   0.683   3.932 -1.6005 -1.0866  0.5017
 1412SOL    HW2 4293   4.765   0.717   4.053 -0.5472 -1.6197 -0.0737
 1413SOL     OW 4294   1.223   3.262   3.428 -0.3665 -0.0933  0.3777
 1413SOL    HW1 4295   1.302   3.248   3.479 -0.3677 -0.9128  0.1708
 1413SOL    HW2 4296   1.186   3.344   3.462  1.4288  1.2044 -0.6555
 1414SOL     OW 4297   4.741   1.164   1.827 -0.0251  0.3153  0.6593
 1414SOL    HW1 4298   4.671   1.127   1.772  0.2542 -2.9277  2.1894
 1414SOL    HW2 4299   4.812   1.183   1.767 -1.2453  1.0756 -0.5975
 1415SOL     OW 4300   1.844   2.010   2.150 -0.5368  0.2006 -0.4681
 1415SOL    HW1 4301   1.830   2.081   2.087  0.9860  1.4269  0.4922
 1415SOL    HW2 4302   1.917   1.960   2.114 -0.6734 -0.0241 -0.4357
 1416SOL     OW 4303   0.327   0.994   1.405 -0.2144  0.2971  0.2812
 1416SOL    HW1 4304   0.360   0.981   1.494  0.4330 -2.0420 -0.2313
 1416SOL    HW2 4305   0.245   1.042   1.416  0.2887  0.8108  2.0650
 1417SOL     OW 4306   1.184   3.467   3.150  0.5035  0.3179  0.0842
 1417SOL    HW1 4307   1.220   3.499   3.068  1.7550  0.3676  0.6341
 1417SOL    HW2 4308   1.153   3.545   3.196  0.5330  0.3799 -0.0026
 1418SOL     OW 4309   3.677   4.522   0.113 -0.0202 -0.9984  0.2317
 1418SOL    HW1 4310   3.636   4.446   0.071  0.2137 -1.4222  0.7508
 1418SOL    HW2 4311   3.771   4.508   0.104  0.0310 -0.9813  0.6840
 1419SOL     OW 4312   1.687   0.503   4.072 -0.0113  0.5000  0.1877
 1419SOL    HW1 4313   1.645   0.484   3.988  0.3352  0.0831  0.1083
 1419SOL    HW2 4314   1.775   0.466   4.064  0.3495  1.2859  0.3857
 1420SOL     OW 4315   4.420   4.644   4.964  0.2111 -0.2126 -0.0980
 1420SOL    HW1 4316   4.429   4.594   4.883  0.4653  1.6564 -1.2791
 1420SOL    HW2 4317   4.346   4.703   4.948  0.2695  0.1902  1.0231
 1421SOL     OW 4318   3.696   2.564   2.057  0.2136 -0.3956  0.3213
 1421SOL    HW1 4319   3.762   2.620   2.018  0.5888 -0.9996  0.0642
 1421SOL    HW2 4320   3.711   2.478   2.017 -0.2464 -0.7148  0.8138
 1422SOL     OW 4321   1.459   2.356   4.491  0.6137  0.3124 -0.1569
 1422SOL    HW1 4322   1.368   2.386   4.497  0.7936  0.7032  1.0201
 1422SOL    HW2 4323   1.492   2.362   4.581  1.6250 -0.4093 -0.4580
 1423SOL     OW 4324   3.849   2.457   4.298  0.2140  0.6084  0.7215
 1423SOL    HW1 4325   3.850   2.510   4.378 -0.1225  1.0335  0.4480
 1423SOL    HW2 4326   3.810   2.374   4.325 -1.7374  1.4315  0.5925
 1424SOL     OW 4327   1.516   2.475   2.614 -0.2389  0.0886  0.4108
 1424SOL    HW1 4328   1.437   2.513   2.652 -0.1094  0.6763  0.1111
 1424SOL    HW2 4329   1.586   2.536   2.637 -0.0689  0.1696 -0.2853
 1425SOL     OW 4330   0.191   0.162   1.059 -0.3041  0.1279 -0.0037
 1425SOL    HW1 4331   0.185   0.195   0.969 -0.4700 -0.0249 -0.0498
 1425SOL    HW2 4332   0.109   0.114   1.072 -0.3453  0.2742  0.2805
 1426SOL     OW 4333   1.923   3.190   4.861  0.1636  0.5956  0.0206
 1426SOL    HW1 4334   1.987   3.185   4.790  0.7813  2.2596  0.4122
 1426SOL    HW2 4335   1.958   3.257   4.920 -0.7376 -0.1750  1.4941
 1427SOL     OW 4336   0.619   3.289   2.719 -0.1455  0.1731 -0.0149
 1427SOL    HW1 4337   0.573   3.340   2.786 -1.0582  0.2552 -0.6858
 1427SOL    HW2 4338   0.707   3.325   2.718 -0.3814  0.7880  0.5106
 1428SOL     OW 4339   1.534   0.167   0.815 -0.2886  0.1552 -0.1925
 1428SOL    HW1 4340   1.542   0.252   0.770 -0.0192 -1.1206 -2.7574
 1428SOL    HW2 4341   1.619   0.125   0.800 -1.2094 -1.4802 -1.0621
 1429SOL     OW 4342   0.179   1.251   3.685 -0.0756 -0.4835 -0.6574
 1429SOL    HW1 4343   0.236   1.175   3.672 -1.3489 -1.2753 -1.9708
 1429SOL    HW2 4344   0.092   1.213   3.701 -0.4311  0.6996  0.3738
 1430SOL     OW 4345   1.431   1.088   3.134  0.0366  0.5034  0.1588
 1430SOL    HW1 4346   1.348   1.122   3.168  0.1971  0.1469  0.9427
 1430SOL    HW2 4347   1.498   1.130   3.188  0.3146  0.1565  0.0903
 1431SOL     OW 4348   3.670   1.535   0.819 -0.4456 -0.1738 -0.3574
 1431SOL    HW1 4349   3.682   1.503   0.908 -2.2825 -0.1258 -0.0616
 1431SOL    HW2 4350   3.713   1.469   0.764  1.3913  0.1894  0.5577
 1432SOL     OW 4351   2.186   2.406   4.768  0.3309  0.4852 -0.1772
 1432SOL    HW1 4352   2.185   2.332   4.829  1.1665 -1.2090 -2.0774
 1432SOL    HW2 4353   2.246   2.469   4.807 -2.7653  1.7658  3.0904
 1433SOL     OW 4354   2.918   4.685   2.120  0.5092  0.1194 -0.0701
 1433SOL    HW1 4355   2.956   4.660   2.036 -0.9802  0.8333 -0.9911
 1433SOL    HW2 4356   2.921   4.606   2.173  1.8261 -0.2379 -0.6462
 1434SOL     OW 4357   2.282   2.285   1.519 -0.1224  0.1868  0.0558
 1434SOL    HW1 4358   2.234   2.216   1.473 -2.1875  1.5399  0.0635
 1434SOL    HW2 4359   2.310   2.245   1.601 -0.1861 -0.9749 -0.4685
 1435SOL     OW 4360   3.665   2.521   2.915 -0.0613 -0.2401 -0.2280
 1435SOL    HW1 4361   3.732   2.578   2.953 -0.3066  1.4583 -2.1230
 1435SOL    HW2 4362   3.609   2.581   2.865 -1.1750 -1.9994 -1.1951
 1436SOL     OW 4363   3.280   2.140   4.218 -0.3606 -0.4815 -0.1468
 1436SOL    HW1 4364   3.200   2.129   4.167 -1.0343  0.2109  0.7499
 1436SOL    HW2 4365   3.251   2.140   4.309  0.5635  0.5856  0.1605
 1437SOL     OW 4366   4.655   2.766   0.780 -0.2475  0.3380 -0.0684
 1437SOL    HW1 4367   4.743   2.804   0.775  0.1213 -0.3126  1.0604
 1437SOL    HW2 4368   4.656   2.692   0.720  0.0462  0.2154  0.0850
 1438SOL     OW 4369   3.251   0.811   1.232 -0.2778 -0.7179  0.2817
 1438SOL    HW1 4370   3.265   0.769   1.147  2.6803 -0.4916  0.5515
 1438SOL    HW2 4371   3.259   0.905   1.214  1.9848 -0.7234  0.9707
 1439SOL     OW 4372   1.960   2.894   4.022 -0.2143  0.4929 -0.3440
 1439SOL    HW1 4373   2.046   2.852   4.031  0.3028  1.5708  0.0212
 1439SOL    HW2 4374   1.977   2.986   4.045 -1.7844  0.4109  1.3960
 1440SOL     OW 4375   1.693   3.404   0.745 -0.1218  0.4728 -0.4748
 1440SOL    HW1 4376   1.703   3.491   0.705 -1.4178  0.5143 -0.7514
 1440SOL    HW2 4377   1.609   3.372   0.712  1.0964 -1.6168 -1.6963
 1441SOL     OW 4378   1.389   3.885   4.478  0.2313 -0.4039 -0.0911
 1441SOL    HW1 4379   1.408   3.855   4.389  0.3921 -1.6221  0.3449
 1441SOL    HW2 4380   1.296   3.865   4.490  0.1677 -0.0808 -0.0382
 1442SOL     OW 4381   4.963   3.471   4.473  0.2244  0.1468 -0.3414
 1442SOL    HW1 4382   4.887   3.468   4.415 -1.0646  0.6170  1.2522
 1442SOL    HW2 4383   5.018   3.399   4.444 -2.3013 -2.2396  0.3977
 1443SOL     OW 4384   3.156   3.503   2.959  0.2680  0.2825  0.6150
 1443SOL    HW1 4385   3.233   3.521   3.013  0.5184  1.6247 -0.1534
 1443SOL    HW2 4386   3.083   3.502   3.021  0.5432  1.8161  1.0096
 1444SOL     OW 4387   1.503   4.762   1.426 -0.6684 -0.0717 -0.1181
 1444SOL    HW1 4388   1.597   4.747   1.429 -0.2251  0.7645 -4.1171
 1444SOL    HW2 4389   1.464   4.676   1.442  0.6688 -0.3258  2.1345
 1445SOL     OW 4390   3.565   2.854   0.652  0.0560 -0.4032 -0.4049
 1445SOL    HW1 4391   3.491   2.803   0.684  0.4798 -1.2578 -0.7504
 1445SOL    HW2 4392   3.594   2.903   0.729 -0.9904  0.1126 -0.3204
 1446SOL     OW 4393   1.531   2.111   4.454 -0.0039  0.2153 -0.3691
 1446SOL    HW1 4394   1.516   2.205   4.446 -0.5813  0.2261  0.7036
 1446SOL    HW2 4395   1.453   2.070   4.417 -0.6585  0.2017  0.9828
 1447SOL     OW 4396   0.961   4.882   4.554 -0.4146  0.1764 -0.0031
 1447SOL    HW1 4397   1.046   4.857   4.519 -0.2503  0.2047  0.3731
 1447SOL    HW2 4398   0.958   4.978   4.546  0.3542  0.3774  1.6620
 1448SOL     OW 4399   2.700   3.866   1.462  0.2097  0.2555  0.7809
 1448SOL    HW1 4400   2.764   3.815   1.512 -0.5971 -2.0381 -0.4088
 1448SOL    HW2 4401   2.620   3.813   1.464 -1.0697  2.0611  0.4564
 1449SOL     OW 4402   1.592   1.637   3.272 -0.1882  0.3006  1.0736
 1449SOL    HW1 4403   1.531   1.630   3.346 -0.9703  3.4529  0.8666
 1449SOL    HW2 4404   1.664   1.690   3.306 -0.2737  1.2881 -0.2248
 1450SOL     OW 4405   4.443   3.816   1.092 -0.1842 -0.0165  0.0924
 1450SOL    HW1 4406   4.458   3.752   1.023  0.3684 -1.1101  1.1826
 1450SOL    HW2 4407   4.355   3.795   1.125  0.4495 -0.9792  1.2105
 1451SOL     OW 4408   2.480   0.576   0.718  0.0397 -0.3181  0.2453
 1451SOL    HW1 4409   2.460   0.669   0.729  0.1097 -0.2084 -0.5493
 1451SOL    HW2 4410   2.569   0.567   0.754 -0.3617 -0.2947  1.2947
 1452SOL     OW 4411   0.377   2.702   4.847  0.1808  0.2755 -0.3570
 1452SOL    HW1 4412   0.285   2.676   4.856  0.1709 -0.0642 -1.3391
 1452SOL    HW2 4413   0.382   2.747   4.763  1.2409 -1.3409 -1.2331
 1453SOL     OW 4414   3.272   3.794   1.579  0.2156  0.7427 -0.3186
 1453SOL    HW1 4415   3.202   3.749   1.626 -1.6615  2.5307 -1.2370
 1453SOL    HW2 4416   3.328   3.724   1.545 -0.6497 -0.7115  1.1245
 1454SOL     OW 4417   4.506   1.919   1.511  0.0647 -0.1705  0.0542
 1454SOL    HW1 4418   4.573   1.986   1.523  2.1873 -2.2828  0.7660
 1454SOL    HW2 4419   4.484   1.892   1.601  0.1706 -1.2365 -0.2254
 1455SOL     OW 4420   3.572   4.038   4.043 -0.6620  0.1845  0.1486
 1455SOL    HW1 4421   3.667   4.044   4.054 -0.4775  0.7462 -1.5300
 1455SOL    HW2 4422   3.543   3.990   4.120  0.8715  0.7806  1.1542
 1456SOL     OW 4423   3.385   2.584   2.622 -0.4015 -0.3616 -0.0376
 1456SOL    HW1 4424   3.371   2.537   2.539 -0.8548 -0.9508  0.3654
 1456SOL    HW2 4425   3.465   2.633   2.608  1.0159 -2.5001  0.0594
 1457SOL     OW 4426   2.335   2.367   1.968 -0.0076  0.0440 -0.3993
 1457SOL    HW1 4427   2.396   2.353   2.041  0.0493  0.4162 -0.3764
 1457SOL    HW2 4428   2.371   2.441   1.920  0.8936 -1.2449 -1.8105
 1458SOL     OW 4429   2.358   3.819   3.478 -0.1904 -0.1936 -0.6084
 1458SOL    HW1 4430   2.396   3.795   3.562 -0.5142  1.5286  0.0825
 1458SOL    HW2 4431   2.277   3.770   3.473 -0.7200  0.5069  0.6283
 1459SOL     OW 4432   1.529   2.019   3.709  0.0618  0.4108 -0.0745
 1459SOL    HW1 4433   1.604   2.018   3.650 -0.2932  0.2797 -0.5316
 1459SOL    HW2 4434   1.544   1.945   3.768  0.8680  1.0793  0.5815
 1460SOL     OW 4435   2.922   3.825   2.103  0.8103  0.6260 -0.7608
 1460SOL    HW1 4436   2.835   3.849   2.136  1.5225  1.4304  0.5903
 1460SOL    HW2 4437   2.957   3.765   2.169 -0.0425 -2.6067 -2.9739
 1461SOL     OW 4438   0.266   0.941   0.512  0.4327 -0.4278 -0.1203
 1461SOL    HW1 4439   0.238   0.852   0.532  1.4755 -1.3638 -2.4337
 1461SOL    HW2 4440   0.197   0.997   0.547 -1.0164 -2.2254  0.0226
 1462SOL     OW 4441   0.392   4.414   4.062 -0.0119 -0.4430 -0.2059
 1462SOL    HW1 4442   0.458   4.345   4.070 -0.5190 -0.9100  0.0349
 1462SOL    HW2 4443   0.437   4.493   4.092  0.3946 -0.7796  0.1021
 1463SOL     OW 4444   3.941   2.460   2.466 -0.0791 -0.1761  0.4844
 1463SOL    HW1 4445   3.867   2.490   2.413  0.1249  0.0959  0.3485
 1463SOL    HW2 4446   3.901   2.430   2.547 -0.3504 -0.1481  0.3649
 1464SOL     OW 4447   2.364   3.507   0.702  0.1427 -0.6176 -0.7308
 1464SOL    HW1 4448   2.372   3.540   0.791 -1.6742  0.9170 -1.0801
 1464SOL    HW2 4449   2.287   3.450   0.704  1.8196 -3.0413 -0.7049
 1465SOL     OW 4450   3.357   3.387   4.933  0.1130 -0.1873 -0.1891
 1465SOL    HW1 4451   3.343   3.478   4.910  0.1835 -0.3008 -0.7092
 1465SOL    HW2 4452   3.325   3.379   5.023 -0.9299  0.0897 -0.5194
 1466SOL     OW 4453   4.041   0.296   3.142  0.1183  0.5322  0.7678
 1466SOL    HW1 4454   3.986   0.218   3.150 -0.5393  0.8837 -0.1996
 1466SOL    HW2 4455   3.992   0.354   3.085  2.1524  0.2678 -1.4201
 1467SOL     OW 4456   4.649   0.207   2.409  0.1665  0.5216  0.0931
 1467SOL    HW1 4457   4.556   0.185   2.416  0.6623 -1.5754  0.8112
 1467SOL    HW2 4458   4.669   0.197   2.316  0.3931 -2.5980  0.3731
 1468SOL     OW 4459   4.283   4.191   3.152 -0.3445 -0.3835  0.1642
 1468SOL    HW1 4460   4.285   4.147   3.236 -2.1015 -0.3089  0.2821
 1468SOL    HW2 4461   4.221   4.141   3.099  0.1933 -0.0211 -0.8574
 1469SOL     OW 4462   1.367   4.596   3.969 -0.0218 -0.3490  0.0409
 1469SOL    HW1 4463   1.382   4.655   3.895 -1.8769  0.3984  0.1907
 1469SOL    HW2 4464   1.314   4.526   3.933 -0.5631 -0.2127  0.5506
 1470SOL     OW 4465   0.584   0.349   1.012  0.6959 -0.2442 -0.2036
 1470SOL    HW1 4466   0.536   0.398   1.080  1.6637  1.0266 -0.3946
 1470SOL    HW2 4467   0.652   0.303   1.059  1.3249  0.5836 -0.2764
 1471SOL     OW 4468   2.504   2.776   3.055  0.1074 -0.7564 -0.4635
 1471SOL    HW1 4469   2.557   2.741   2.984  0.3197 -1.2007 -0.0905
 1471SOL    HW2 4470   2.562   2.837   3.101 -0.1622 -0.1450 -0.9201
 1472SOL     OW 4471   1.321   1.857   2.845  0.6892 -0.2133  0.2223
 1472SOL    HW1 4472   1.306   1.944   2.808  0.6864  0.3889  1.5791
 1472SOL    HW2 4473   1.378   1.873   2.920  1.2501 -1.4730  0.0761
 1473SOL     OW 4474   1.568   1.732   0.757  0.0141  0.2177  0.7508
 1473SOL    HW1 4475   1.493   1.676   0.736  0.7436  0.3072 -2.5293
 1473SOL    HW2 4476   1.575   1.793   0.684  0.7220  3.1154  3.0523
 1474SOL     OW 4477   4.627   3.524   0.570  0.3749  0.0331  0.0727
 1474SOL    HW1 4478   4.643   3.617   0.553  0.7174  0.1239  0.8435
 1474SOL    HW2 4479   4.702   3.496   0.624 -0.0212 -0.5413  0.3348
 1475SOL     OW 4480   4.633   1.276   0.514 -0.3590 -0.1671 -0.0732
 1475SOL    HW1 4481   4.633   1.199   0.458 -1.2846  0.2403 -0.6643
 1475SOL    HW2 4482   4.720   1.313   0.504  0.3705 -1.5602  0.8516
 1476SOL     OW 4483   1.577   0.272   2.386  0.1596 -0.1461 -0.1867
 1476SOL    HW1 4484   1.561   0.317   2.468 -0.3189 -0.3566 -0.1618
 1476SOL    HW2 4485   1.614   0.339   2.328 -2.0136  0.7054 -0.6669
 1477SOL     OW 4486   2.757   2.933   3.822 -0.3557 -0.3354 -0.2430
 1477SOL    HW1 4487   2.809   2.959   3.746 -1.0491 -2.0036 -1.3282
 1477SOL    HW2 4488   2.821   2.922   3.892  0.1505  2.6267 -0.1100
 1478SOL     OW 4489   3.800   2.108   4.835 -0.2920 -0.0033  0.4130
 1478SOL    HW1 4490   3.832   2.198   4.823 -1.6099  0.5548  0.8618
 1478SOL    HW2 4491   3.720   2.104   4.782 -0.3300 -0.8652  0.5306
 1479SOL     OW 4492   2.744   0.937   2.623 -0.1547 -0.5884 -0.0764
 1479SOL    HW1 4493   2.751   0.983   2.706 -0.7929 -0.5913 -0.0125
 1479SOL    HW2 4494   2.833   0.936   2.588 -0.0632  0.3604  0.1008
 1480SOL     OW 4495   2.149   3.429   3.832 -0.0897 -0.1338  0.4955
 1480SOL    HW1 4496   2.235   3.426   3.873  0.1753 -0.6213 -0.0855
 1480SOL    HW2 4497   2.101   3.495   3.882  0.3771 -0.3817  1.2841
 1481SOL     OW 4498   4.362   0.072   0.375 -0.6015  0.0142 -0.3956
 1481SOL    HW1 4499   4.440   0.017   0.376  1.4281  2.7233 -0.2074
 1481SOL    HW2 4500   4.369   0.126   0.454 -1.8134  1.4608 -1.2228
 1482SOL     OW 4501   3.367   4.898   0.030 -0.6398 -0.2349  0.1241
 1482SOL    HW1 4502   3.397   4.911  -0.059 -0.8209  0.9701  0.2257
 1482SOL    HW2 4503   3.308   4.823   0.025 -0.2853 -0.4702 -0.6716
 1483SOL     OW 4504   2.696   1.281   0.940  0.4668 -0.3746 -0.0701
 1483SOL    HW1 4505   2.759   1.340   0.899 -0.3490  1.1426  0.7645
 1483SOL    HW2 4506   2.631   1.339   0.980 -0.7185 -1.8580  0.2718
 1484SOL     OW 4507   3.756   3.465   2.030  0.5288  0.0482 -0.4068
 1484SOL    HW1 4508   3.684   3.526   2.011 -0.3448 -1.1552 -1.0861
 1484SOL    HW2 4509   3.824   3.520   2.070  0.0690  1.5960 -1.6432
 1485SOL     OW 4510   3.232   1.061   0.617 -0.2777 -0.3069 -0.1405
 1485SOL    HW1 4511   3.196   1.123   0.680  1.7081 -1.1127  1.9572
 1485SOL    HW2 4512   3.157   1.008   0.589 -1.2907  0.3094  1.3161
 1486SOL     OW 4513   2.557   4.650   4.453  0.0310  0.2350  0.0546
 1486SOL    HW1 4514   2.523   4.660   4.364  1.0204  0.4744 -0.3190
 1486SOL    HW2 4515   2.481   4.656   4.510 -0.5636  0.4805 -0.7589
 1487SOL     OW 4516   4.612   2.469   4.690  0.1696  0.0561  0.1482
 1487SOL    HW1 4517   4.552   2.409   4.646  3.1105 -3.0248 -0.0496
 1487SOL    HW2 4518   4.570   2.555   4.681 -3.0127 -1.5089 -1.9536
 1488SOL     OW 4519   4.076   3.298   1.842 -0.2725 -0.1456  0.1446
 1488SOL    HW1 4520   4.145   3.332   1.900  0.3182 -1.2120  0.0836
 1488SOL    HW2 4521   4.036   3.227   1.891 -0.1137 -0.7168 -0.5306
 1489SOL     OW 4522   1.644   3.072   2.191 -0.3987  0.8263 -0.1616
 1489SOL    HW1 4523   1.726   3.087   2.144 -0.3644  0.6396 -0.1630
 1489SOL    HW2 4524   1.599   3.004   2.139  0.2229 -0.3424  0.7847
 1490SOL     OW 4525   2.234   3.081   4.946 -0.1064 -0.1607  0.3481
 1490SOL    HW1 4526   2.325   3.100   4.927  0.0194 -0.4448  0.6566
 1490SOL    HW2 4527   2.207   3.022   4.875  0.0067 -0.2326  0.3637
 1491SOL     OW 4528   1.082   2.102   3.509  0.4376 -0.3172  0.1031
 1491SOL    HW1 4529   1.132   2.135   3.584  0.4232  0.2761 -0.1405
 1491SOL    HW2 4530   1.137   2.121   3.433 -0.0231  0.0826 -0.1383
 1492SOL     OW 4531   4.280   3.810   0.295  0.1017  0.2714  0.0608
 1492SOL    HW1 4532   4.238   3.765   0.222  2.3662 -1.3720 -0.3370
 1492SOL    HW2 4533   4.320   3.740   0.347 -1.9781  1.2763  3.3702
 1493SOL     OW 4534   2.093   4.838   2.170  0.8296 -0.6604  0.2394
 1493SOL    HW1 4535   2.061   4.915   2.218  1.5305 -1.5536  2.2452
 1493SOL    HW2 4536   2.021   4.813   2.113  1.0920  2.3281 -1.6064
 1494SOL     OW 4537   3.479   0.827   2.665 -0.5268  0.5443  0.3600
 1494SOL    HW1 4538   3.475   0.746   2.716  0.1732  0.4666  0.3026
 1494SOL    HW2 4539   3.393   0.867   2.677 -1.4343 -0.9516 -0.8486
 1495SOL     OW 4540   4.813   0.433   0.714 -0.1905 -0.2693  1.1618
 1495SOL    HW1 4541   4.826   0.437   0.619  0.7615  2.4080  1.3209
 1495SOL    HW2 4542   4.719   0.431   0.726 -0.3143 -1.0947  0.1589
 1496SOL     OW 4543   4.639   1.656   3.013 -0.1956  0.4527  0.4800
 1496SOL    HW1 4544   4.558   1.611   3.037 -0.9015  0.3597 -1.8340
 1496SOL    HW2 4545   4.611   1.741   2.980  0.6609  0.5529 -0.0306
 1497SOL     OW 4546   1.109   4.073   0.579 -0.4665  0.6868  0.1996
 1497SOL    HW1 4547   1.196   4.108   0.596 -0.1606 -0.8774  2.2369
 1497SOL    HW2 4548   1.050   4.149   0.585  0.6833  1.7115 -0.9448
 1498SOL     OW 4549   0.452   4.195   0.349 -0.4625 -0.0955 -0.7820
 1498SOL    HW1 4550   0.435   4.112   0.304 -0.9084 -0.2014 -0.4224
 1498SOL    HW2 4551   0.491   4.251   0.282 -1.2043 -0.2247 -1.3293
 1499SOL     OW 4552   3.691   2.000   2.570 -0.4696  0.0070 -0.2749
 1499SOL    HW1 4553   3.756   1.992   2.500  0.2182  1.4433  0.1543
 1499SOL    HW2 4554   3.741   1.983   2.651 -1.1795 -1.2922 -0.0716
 1500SOL     OW 4555   1.863   4.366   1.408  0.2635 -0.0332  0.0402
 1500SOL    HW1 4556   1.922   4.308   1.360  1.0827  0.7791  0.0354
 1500SOL    HW2 4557   1.801   4.397   1.342 -0.2740 -0.9922  0.0720
 1501SOL     OW 4558   0.889   0.766   4.414 -0.3514 -0.2710  0.0228
 1501SOL    HW1 4559   0.866   0.722   4.332 -1.1312  0.8750 -0.4001
 1501SOL    HW2 4560   0.913   0.855   4.387 -2.0112  0.5624  1.1386
 1502SOL     OW 4561   3.211   4.764   4.781  0.0872 -0.1109 -0.2821
 1502SOL    HW1 4562   3.235   4.671   4.779 -2.2265 -0.8294 -3.7432
 1502SOL    HW2 4563   3.286   4.808   4.741  0.0782 -0.8880 -1.1948
 1503SOL     OW 4564   2.397   4.338   3.827 -0.2953  0.1713  0.5720
 1503SOL    HW1 4565   2.346   4.410   3.864 -0.1211 -0.5461  2.2604
 1503SOL    HW2 4566   2.407   4.275   3.898  0.3095 -1.1398 -0.6099
 1504SOL     OW 4567   1.646   3.021   2.468  0.2872 -0.0664  0.8350
 1504SOL    HW1 4568   1.644   3.055   2.378  1.0402 -0.7060  0.5653
 1504SOL    HW2 4569   1.622   2.929   2.459  0.8359 -0.2552  1.2234
 1505SOL     OW 4570   1.112   2.491   0.632  0.4082  0.3315 -0.1359
 1505SOL    HW1 4571   1.137   2.578   0.600 -0.9858  1.2626  1.1637
 1505SOL    HW2 4572   1.182   2.466   0.692  2.8027 -1.2179 -3.2924
 1506SOL     OW 4573   3.846   1.765   1.324 -0.0190  0.0620 -0.2446
 1506SOL    HW1 4574   3.819   1.757   1.416  0.6708 -2.8154 -0.2209
 1506SOL    HW2 4575   3.774   1.726   1.275  0.1742  0.4642 -0.8523
 1507SOL     OW 4576   3.990   3.849   2.638  0.2405 -0.0582  0.1332
 1507SOL    HW1 4577   4.046   3.865   2.563 -0.0137  1.9304  0.3120
 1507SOL    HW2 4578   3.961   3.759   2.628  0.6388 -0.0008 -1.8553
 1508SOL     OW 4579   3.372   0.253   0.357 -0.4898  0.1396  0.4257
 1508SOL    HW1 4580   3.407   0.174   0.316 -3.0337 -1.2550  0.7115
 1508SOL    HW2 4581   3.277   0.239   0.359 -0.9035  2.5133  1.9671
 1509SOL     OW 4582   0.222   2.252   3.736  0.2804 -0.2000 -0.3562
 1509SOL    HW1 4583   0.183   2.296   3.660 -0.1487 -1.4905 -0.9210
 1509SOL    HW2 4584   0.263   2.322   3.786 -0.1560  0.7969 -1.3438
 1510SOL     OW 4585   1.999   2.836   0.339 -0.4302 -0.4574  1.0155
 1510SOL    HW1 4586   2.059   2.865   0.270 -1.8812 -0.1813 -0.1808
 1510SOL    HW2 4587   1.930   2.902   0.340 -1.0664 -1.1096  1.9007
 1511SOL     OW 4588   3.784   1.204   2.212 -0.0035  0.3605 -0.0504
 1511SOL    HW1 4589   3.706   1.150   2.201  0.1651 -0.0137  0.5507
 1511SOL    HW2 4590   3.842   1.178   2.141  0.8814 -1.6822  1.3312
 1512SOL     OW 4591   1.190   4.467   0.534  0.3546  0.1188 -0.1856
 1512SOL    HW1 4592   1.100   4.447   0.508  0.2779 -0.4227  0.4427
 1512SOL    HW2 4593   1.205   4.557   0.505 -0.1762 -0.0007 -0.8463
 1513SOL     OW 4594   1.544   0.334   0.585 -0.1417  0.4953 -0.1628
 1513SOL    HW1 4595   1.463   0.369   0.549  1.6592  3.7841 -1.4621
 1513SOL    HW2 4596   1.594   0.305   0.509  0.2999 -0.6083  0.5269
 1514SOL     OW 4597   0.403   2.031   1.282  0.0989 -0.2604  0.1037
 1514SOL    HW1 4598   0.329   2.076   1.324 -0.1973 -2.2513  1.9013
 1514SOL    HW2 4599   0.363   1.981   1.211  0.0834  0.4482 -0.3950
 1515SOL     OW 4600   0.571   1.558   3.746  0.4272  0.3183  0.0334
 1515SOL    HW1 4601   0.492   1.577   3.695  1.1220  0.5194 -0.9938
 1515SOL    HW2 4602   0.614   1.643   3.757  0.6763  0.1614  0.2968
 1516SOL     OW 4603   3.518   2.348   3.231  0.4240  0.7164  0.2062
 1516SOL    HW1 4604   3.480   2.349   3.143  1.5166  3.9435 -0.3509
 1516SOL    HW2 4605   3.459   2.292   3.282 -1.0222 -0.1180 -2.2107
 1517SOL     OW 4606   4.701   3.282   3.206 -0.0304 -0.3702 -0.0454
 1517SOL    HW1 4607   4.653   3.334   3.143  0.6496 -1.5124 -1.5750
 1517SOL    HW2 4608   4.656   3.198   3.208  0.7292 -0.7926 -0.0182
 1518SOL     OW 4609   0.808   3.262   3.464 -0.3611  0.0853 -0.0692
 1518SOL    HW1 4610   0.854   3.267   3.380  1.0844 -1.0981  0.5985
 1518SOL    HW2 4611   0.862   3.203   3.517 -1.7509  0.0492  1.3747
 1519SOL     OW 4612   4.506   2.269   0.497 -0.3033 -0.1714 -0.2407
 1519SOL    HW1 4613   4.431   2.275   0.438 -0.8557 -2.0033  0.1873
 1519SOL    HW2 4614   4.535   2.359   0.508 -2.6764  0.6641 -0.1260
 1520SOL     OW 4615   0.924   3.678   1.015 -0.0870  0.6038  0.5504
 1520SOL    HW1 4616   0.960   3.654   0.929  0.9667 -0.0026  1.1434
 1520SOL    HW2 4617   0.906   3.595   1.057 -1.0952  0.9033  0.7360
 1521SOL     OW 4618   2.774   4.214   3.390  0.5065 -0.2282  0.1192
 1521SOL    HW1 4619   2.812   4.299   3.366  0.8753 -0.1219  1.0588
 1521SOL    HW2 4620   2.679   4.231   3.393  0.4397 -0.2470 -1.2200
 1522SOL     OW 4621   1.477   4.614   3.167 -0.1082  0.2889 -1.0137
 1522SOL    HW1 4622   1.557   4.613   3.114 -0.1495  1.7290 -1.1400
 1522SOL    HW2 4623   1.407   4.597   3.103  0.0215 -0.1753 -1.0374
 1523SOL     OW 4624   4.414   0.149   4.364 -0.4410 -0.1505 -0.2092
 1523SOL    HW1 4625   4.379   0.098   4.437 -1.7866  0.3351 -0.4956
 1523SOL    HW2 4626   4.376   0.108   4.286 -1.1036  0.9461 -0.4729
 1524SOL     OW 4627   0.035   0.792   2.289  0.3726 -0.7052  0.1599
 1524SOL    HW1 4628  -0.007   0.850   2.225  1.8190  0.4802  0.2254
 1524SOL    HW2 4629   0.034   0.842   2.370  1.2081 -0.9645  0.3334
 1525SOL     OW 4630   4.273   4.479   1.490 -0.2555  0.1354 -0.2284
 1525SOL    HW1 4631   4.241   4.441   1.408  0.8333  1.1432 -1.1414
 1525SOL    HW2 4632   4.200   4.533   1.521 -1.0890 -1.1026  0.0890
 1526SOL     OW 4633   2.560   0.965   4.211  0.0305  0.0886 -0.0458
 1526SOL    HW1 4634   2.551   0.952   4.117 -0.4327 -0.6052  0.0860
 1526SOL    HW2 4635   2.494   0.907   4.250  0.1763  0.4088  0.7033
 1527SOL     OW 4636   4.390   1.645   1.081 -0.1636 -0.0038  0.5401
 1527SOL    HW1 4637   4.449   1.696   1.137  1.6667 -0.5248 -0.8682
 1527SOL    HW2 4638   4.436   1.564   1.063  0.1079  0.8044 -3.0946
 1528SOL     OW 4639   1.908   2.171   1.871  0.2347  0.1187 -0.2055
 1528SOL    HW1 4640   1.928   2.211   1.786 -1.4384  2.5632  0.4298
 1528SOL    HW2 4641   1.966   2.216   1.933  0.5578 -0.7438  0.1376
 1529SOL     OW 4642   2.639   3.329   3.714  0.3798  0.1018 -0.0094
 1529SOL    HW1 4643   2.695   3.290   3.646 -1.3737 -0.5441 -1.1570
 1529SOL    HW2 4644   2.630   3.261   3.780  2.8436  1.0431  1.4575
 1530SOL     OW 4645   1.102   4.739   4.113 -0.3719 -0.2554 -0.2449
 1530SOL    HW1 4646   1.125   4.674   4.046  0.7740 -1.4636  1.2420
 1530SOL    HW2 4647   1.015   4.769   4.087 -1.2965 -2.9428 -0.6635
 1531SOL     OW 4648   4.278   1.162   2.106 -0.3679  0.5712 -0.6064
 1531SOL    HW1 4649   4.243   1.073   2.112 -2.0614  1.2574  0.2552
 1531SOL    HW2 4650   4.204   1.219   2.125  0.7869  2.1744 -0.6514
 1532SOL     OW 4651   1.054   2.965   4.198 -0.3540  0.1797  0.0760
 1532SOL    HW1 4652   0.980   2.950   4.256 -0.5561  2.2393  0.4265
 1532SOL    HW2 4653   1.032   2.917   4.118 -2.0726  0.7300  0.1757
 1533SOL     OW 4654   0.315   2.474   0.253  0.4452 -0.3991 -0.2164
 1533SOL    HW1 4655   0.390   2.533   0.241 -0.3252  0.3016 -1.9912
 1533SOL    HW2 4656   0.261   2.519   0.319 -0.7756  1.6699 -2.4711
 1534SOL     OW 4657   0.944   4.727   4.788 -0.0704  0.4996 -0.5877
 1534SOL    HW1 4658   0.897   4.792   4.736  0.1328  0.5850 -0.6678
 1534SOL    HW2 4659   1.023   4.773   4.817  0.8255 -0.1418 -1.8862
 1535SOL     OW 4660   4.312   2.307   3.824  0.7518  0.2417 -0.0073
 1535SOL    HW1 4661   4.235   2.251   3.828 -0.4813  1.7041 -1.6814
 1535SOL    HW2 4662   4.370   2.265   3.761  0.3616  0.2423 -0.3655
 1536SOL     OW 4663   3.394   1.961   0.867 -0.4487  0.2448  0.6034
 1536SOL    HW1 4664   3.479   1.969   0.910  0.0460  0.9258 -0.4719
 1536SOL    HW2 4665   3.397   1.876   0.823 -1.2359 -0.7931  2.4499
 1537SOL     OW 4666   1.722   4.571   0.935  0.2142  0.3789 -0.3678
 1537SOL    HW1 4667   1.795   4.519   0.902 -1.1375 -1.6113 -0.3839
 1537SOL    HW2 4668   1.662   4.577   0.861 -1.0819 -0.7979  0.5374
 1538SOL     OW 4669   2.591   0.202   2.540 -0.5309  0.1287  0.1487
 1538SOL    HW1 4670   2.556   0.262   2.475 -0.6292 -1.4436 -1.3127
 1538SOL    HW2 4671   2.529   0.128   2.541  0.1892 -0.4906  1.0286
 1539SOL     OW 4672   1.202   0.574   1.166  0.1294 -0.0883 -0.1570
 1539SOL    HW1 4673   1.270   0.632   1.131  0.2758  0.2689  0.7175
 1539SOL    HW2 4674   1.249   0.495   1.192  0.3926  0.5943  1.4994
 1540SOL     OW 4675   2.111   0.632   0.389 -0.2524  0.0059 -0.0190
 1540SOL    HW1 4676   2.098   0.634   0.484 -1.4423  0.6013 -0.1774
 1540SOL    HW2 4677   2.201   0.600   0.378  0.2015  0.7502  1.3205
 1541SOL     OW 4678   0.044   0.376   1.941 -0.5030  0.0898 -0.0684
 1541SOL    HW1 4679   0.029   0.282   1.944 -1.8340  0.2930  0.3247
 1541SOL    HW2 4680  -0.006   0.406   1.865 -0.8262  0.5915  0.3371
 1542SOL     OW 4681   4.457   3.211   1.783  0.5690 -0.1003 -0.2945
 1542SOL    HW1 4682   4.540   3.253   1.805 -0.2003  0.6735  1.2640
 1542SOL    HW2 4683   4.413   3.275   1.726 -0.0642  0.7077  1.0536
 1543SOL     OW 4684   3.603   2.874   0.389  0.0868 -0.0099  0.2716
 1543SOL    HW1 4685   3.544   2.897   0.461 -1.1252 -0.0640 -0.6794
 1543SOL    HW2 4686   3.690   2.895   0.422 -0.3897 -0.5409  1.9532
 1544SOL     OW 4687   2.899   1.658   3.394  0.3390  0.4974 -0.0719
 1544SOL    HW1 4688   2.907   1.749   3.365 -1.0047  0.4211 -0.7382
 1544SOL    HW2 4689   2.829   1.659   3.458  0.5794 -0.0164  0.2071
 1545SOL     OW 4690   4.201   4.744   0.450 -0.2431  0.2633 -0.1852
 1545SOL    HW1 4691   4.254   4.760   0.527 -0.4726 -0.3257  0.1053
 1545SOL    HW2 4692   4.262   4.709   0.385 -0.1803  0.0943 -0.0338
 1546SOL     OW 4693   3.019   3.242   3.888 -0.5441 -0.0718 -0.4100
 1546SOL    HW1 4694   2.964   3.305   3.935 -0.9430  0.1550 -1.1745
 1546SOL    HW2 4695   3.108   3.274   3.901 -0.8089  1.2976 -1.7010
 1547SOL     OW 4696   1.847   0.382   0.630 -0.0098  0.1015  0.2520
 1547SOL    HW1 4697   1.912   0.312   0.626  0.2208  0.2919  0.6899
 1547SOL    HW2 4698   1.786   0.361   0.559 -0.7324 -1.3270  1.2342
 1548SOL     OW 4699   3.571   0.817   0.989  0.1316  0.1990 -0.1365
 1548SOL    HW1 4700   3.613   0.831   0.904  3.3062 -0.2608  1.2211
 1548SOL    HW2 4701   3.628   0.755   1.034 -0.8098  1.3193  2.7879
 1549SOL     OW 4702   0.084   3.005   0.859  0.5423  0.0488  0.0270
 1549SOL    HW1 4703   0.018   2.982   0.924 -0.3652 -1.1653 -1.2667
 1549SOL    HW2 4704   0.052   2.966   0.778  2.6014 -0.0969 -0.7585
 1550SOL     OW 4705   3.390   2.733   3.111 -0.4282  0.4714 -0.6610
 1550SOL    HW1 4706   3.432   2.688   3.184  0.6623  1.8650 -0.3754
 1550SOL    HW2 4707   3.320   2.674   3.083 -0.1872 -0.5715  0.8134
 1551SOL     OW 4708   0.319   2.707   3.065 -0.7917  0.9078 -0.1937
 1551SOL    HW1 4709   0.403   2.736   3.099  0.9665 -2.4567 -1.2201
 1551SOL    HW2 4710   0.322   2.728   2.972  0.1787 -1.5112 -0.7887
 1552SOL     OW 4711   3.838   3.407   1.782 -0.1881  0.5203  0.2900
 1552SOL    HW1 4712   3.811   3.438   1.868  1.0098  1.2884  0.4192
 1552SOL    HW2 4713   3.927   3.374   1.796 -0.3880 -0.3705 -0.4405
 1553SOL     OW 4714   4.184   0.822   2.724  0.6002  0.0291 -0.1769
 1553SOL    HW1 4715   4.256   0.831   2.662  1.9218  1.3909  1.4480
 1553SOL    HW2 4716   4.114   0.876   2.688  0.5181 -0.9310 -1.5323
 1554SOL     OW 4717   0.222   0.725   0.263 -0.3499 -0.0855 -0.3076
 1554SOL    HW1 4718   0.281   0.793   0.233 -0.1111  0.2005  0.7556
 1554SOL    HW2 4719   0.137   0.769   0.271 -0.5052 -0.2639 -0.9430
 1555SOL     OW 4720   4.805   2.017   1.141  0.4038 -0.0932  0.1188
 1555SOL    HW1 4721   4.716   2.016   1.107  0.8032  0.4052 -0.9953
 1555SOL    HW2 4722   4.849   2.087   1.092  1.4445 -0.4238  0.5464
 1556SOL     OW 4723   3.958   4.976   2.867 -0.1110  0.5054  0.4172
 1556SOL    HW1 4724   4.035   4.968   2.923  0.5682  0.1909 -0.5383
 1556SOL    HW2 4725   3.976   4.919   2.792 -0.2084  2.2263 -0.9871
 1557SOL     OW 4726   4.057   1.551   1.327 -0.3043  0.3635  0.0220
 1557SOL    HW1 4727   4.032   1.643   1.318 -1.9177  0.1281  1.5610
 1557SOL    HW2 4728   4.146   1.554   1.363  0.4099  1.2587 -1.6819
 1558SOL     OW 4729   1.610   3.370   3.802 -0.4347 -0.2892  0.4081
 1558SOL    HW1 4730   1.613   3.300   3.867  1.0425 -0.8382 -0.2229
 1558SOL    HW2 4731   1.695   3.413   3.809  0.0144 -0.7613 -1.5680
 1559SOL     OW 4732   3.041   1.850   2.824 -0.1888  0.2628 -0.0620
 1559SOL    HW1 4733   2.998   1.887   2.747  1.0523  0.6087 -0.6220
 1559SOL    HW2 4734   3.004   1.898   2.898 -1.4205 -0.0961 -0.4203
 1560SOL     OW 4735   3.678   3.627   0.186  0.1084  0.2883 -0.4360
 1560SOL    HW1 4736   3.601   3.581   0.220  0.5617 -0.1008  0.0853
 1560SOL    HW2 4737   3.671   3.716   0.222 -2.1170  1.5096 -3.4474
 1561SOL     OW 4738   3.374   4.709   1.360  0.6384  0.4961 -0.5642
 1561SOL    HW1 4739   3.428   4.691   1.284 -0.0587  0.0678 -0.9658
 1561SOL    HW2 4740   3.396   4.640   1.422 -0.7255 -0.7450 -1.4154
 1562SOL     OW 4741   3.242   4.823   4.074 -0.5530  0.2089 -0.4977
 1562SOL    HW1 4742   3.218   4.788   4.159 -0.2759  0.1836 -0.4280
 1562SOL    HW2 4743   3.181   4.895   4.059 -2.3647 -1.4083 -1.4581
 1563SOL     OW 4744   0.470   0.140   1.742 -0.2211 -0.1432  0.3219
 1563SOL    HW1 4745   0.435   0.127   1.654 -1.1005 -1.4413  0.8329
 1563SOL    HW2 4746   0.564   0.131   1.732 -0.2272  0.6626 -0.6304
 1564SOL     OW 4747   0.520   0.803   0.511  0.0253  0.3954  0.2769
 1564SOL    HW1 4748   0.428   0.822   0.497  0.3396  0.4678 -1.9860
 1564SOL    HW2 4749   0.537   0.832   0.601 -2.1078  0.4583  0.7076
 1565SOL     OW 4750   3.800   1.516   2.635 -1.0260  0.1417  0.3254
 1565SOL    HW1 4751   3.743   1.474   2.700 -0.3091 -0.3519  0.6597
 1565SOL    HW2 4752   3.818   1.447   2.571  0.6101 -0.2732  1.1752
 1566SOL     OW 4753   4.773   1.440   1.539 -0.1412 -0.8209  0.7698
 1566SOL    HW1 4754   4.690   1.431   1.585  0.7167 -2.7618  2.0509
 1566SOL    HW2 4755   4.837   1.398   1.596  1.5625 -0.2795 -0.6539
 1567SOL     OW 4756   4.933   3.267   2.834  0.2334 -0.3046 -0.0926
 1567SOL    HW1 4757   4.985   3.280   2.755 -0.8335 -1.3288 -1.0097
 1567SOL    HW2 4758   4.923   3.355   2.871  2.0552 -0.0121 -0.2119
 1568SOL     OW 4759   2.794   1.863   1.049  0.6338 -0.3027  0.7492
 1568SOL    HW1 4760   2.804   1.776   1.087  1.9294 -0.9992 -1.0717
 1568SOL    HW2 4761   2.836   1.858   0.964 -0.4055  1.7582  0.0294
 1569SOL     OW 4762   0.529   4.087   4.960  0.1303 -0.2185  0.0638
 1569SOL    HW1 4763   0.508   4.049   5.046  0.6734 -0.7958 -0.0504
 1569SOL    HW2 4764   0.548   4.011   4.904  0.8383  0.1939 -0.2734
 1570SOL     OW 4765   4.334   1.119   4.209  0.4692 -0.3733 -0.8333
 1570SOL    HW1 4766   4.391   1.066   4.154 -0.7798 -0.7223 -1.8256
 1570SOL    HW2 4767   4.259   1.063   4.227  0.3574  0.1196  0.3628
 1571SOL     OW 4768   3.623   3.870   0.520  0.1070  0.8855 -0.3860
 1571SOL    HW1 4769   3.707   3.851   0.562 -0.1714  0.6910  0.0870
 1571SOL    HW2 4770   3.644   3.876   0.427  0.4014 -0.5852 -0.4333
 1572SOL     OW 4771   3.194   2.390   2.703 -0.3765  0.1970  0.0982
 1572SOL    HW1 4772   3.124   2.430   2.652  0.4963  1.0079 -0.5053
 1572SOL    HW2 4773   3.263   2.457   2.706  1.5119 -1.5150 -1.7287
 1573SOL     OW 4774   2.216   3.530   3.451 -0.4495 -0.4482  0.4201
 1573SOL    HW1 4775   2.259   3.482   3.380  1.4365  1.1684  0.3826
 1573SOL    HW2 4776   2.225   3.473   3.527  1.0280 -0.5380  0.2097
 1574SOL     OW 4777   4.621   3.991   1.177  0.2520 -0.3392  0.2232
 1574SOL    HW1 4778   4.643   3.946   1.258  1.3741 -0.1093  0.0637
 1574SOL    HW2 4779   4.548   3.941   1.140 -2.2069  1.1446  2.7153
 1575SOL     OW 4780   4.833   2.686   3.725 -0.3608  0.1780  0.2427
 1575SOL    HW1 4781   4.798   2.600   3.749 -1.3248  0.4950  0.0246
 1575SOL    HW2 4782   4.762   2.728   3.677  1.0851 -0.0153 -2.2976
 1576SOL     OW 4783   1.985   4.324   2.053  0.4462 -0.2022  0.1179
 1576SOL    HW1 4784   2.018   4.402   2.008  1.7014  0.3398  1.8495
 1576SOL    HW2 4785   1.893   4.319   2.028  0.0439  2.4612  0.7315
 1577SOL     OW 4786   0.956   1.988   3.269 -0.3452 -0.6926 -0.1644
 1577SOL    HW1 4787   1.022   2.002   3.337 -0.0025 -1.5284 -0.3129
 1577SOL    HW2 4788   1.000   1.935   3.203 -1.7463 -3.1657  0.7414
 1578SOL     OW 4789   3.564   0.791   2.373  0.1899 -0.2352  0.3006
 1578SOL    HW1 4790   3.569   0.772   2.467 -0.5168  0.3425  0.4693
 1578SOL    HW2 4791   3.504   0.866   2.367 -1.0900 -1.2915 -0.7393
 1579SOL     OW 4792   0.633   0.900   1.718 -0.1475 -0.3340  0.0274
 1579SOL    HW1 4793   0.709   0.929   1.668  0.7065 -0.0196  1.4462
 1579SOL    HW2 4794   0.561   0.953   1.685 -0.3091 -2.1960 -2.9299
 1580SOL     OW 4795   0.499   2.611   2.260  0.0087  0.5615 -0.2924
 1580SOL    HW1 4796   0.552   2.543   2.219 -2.0196 -0.5244 -1.2702
 1580SOL    HW2 4797   0.509   2.688   2.203  0.8033  0.4892 -0.2533
 1581SOL     OW 4798   4.299   0.687   1.334  0.1011  0.3724 -0.1830
 1581SOL    HW1 4799   4.298   0.603   1.380 -0.5184  0.3883 -0.1643
 1581SOL    HW2 4800   4.385   0.689   1.290 -0.3076 -0.7654 -1.0870
 1582SOL     OW 4801   0.458   3.157   1.077  1.1592  0.4061 -0.2232
 1582SOL    HW1 4802   0.398   3.116   1.014  0.8000 -0.0399  0.3960
 1582SOL    HW2 4803   0.400   3.201   1.139  1.4525 -0.4206  0.6485
 1583SOL     OW 4804   0.873   3.303   0.615  0.3090 -0.4639  0.2382
 1583SOL    HW1 4805   0.963   3.330   0.599  0.2911 -0.7163 -0.3278
 1583SOL    HW2 4806   0.874   3.262   0.702  1.0633 -1.8729 -0.4023
 1584SOL     OW 4807   0.217   2.928   3.680 -0.0700  0.3308 -1.0964
 1584SOL    HW1 4808   0.205   3.016   3.715 -0.6453  0.0726 -0.6323
 1584SOL    HW2 4809   0.185   2.934   3.589  2.8341  1.3885 -2.1592
 1585SOL     OW 4810   4.611   3.584   1.794 -0.1534  0.1076 -0.2567
 1585SOL    HW1 4811   4.534   3.627   1.832  0.8399  1.1067  0.6924
 1585SOL    HW2 4812   4.636   3.519   1.860 -0.0130 -0.0211 -0.4371
 1586SOL     OW 4813   4.882   0.304   3.063  0.4234 -0.3541  0.7034
 1586SOL    HW1 4814   4.848   0.376   3.010 -0.2820 -0.3809  1.1006
 1586SOL    HW2 4815   4.971   0.290   3.032 -0.5128 -1.5472 -1.6943
 1587SOL     OW 4816   0.311   3.684   4.701  0.5268 -0.0935  0.3484
 1587SOL    HW1 4817   0.314   3.608   4.644 -1.0381 -1.7146  2.2754
 1587SOL    HW2 4818   0.226   3.724   4.684  0.1430 -0.4547  1.3254
 1588SOL     OW 4819   0.458   1.271   3.281  0.2552  0.0656 -0.1767
 1588SOL    HW1 4820   0.458   1.238   3.371  0.2796  0.8261  0.1124
 1588SOL    HW2 4821   0.449   1.193   3.227 -1.1105 -0.2958  0.5289
 1589SOL     OW 4822   2.826   0.181   0.067  0.7861  0.2773  0.3866
 1589SOL    HW1 4823   2.839   0.100   0.018  0.5296 -0.0973  0.9351
 1589SOL    HW2 4824   2.825   0.154   0.159  2.2398  1.0932  0.6817
 1590SOL     OW 4825   4.645   1.976   1.873  0.7599 -0.2385 -0.2584
 1590SOL    HW1 4826   4.635   1.944   1.962 -1.4057  0.0860 -0.3256
 1590SOL    HW2 4827   4.681   2.064   1.883  1.6575 -0.6558  0.2205
 1591SOL     OW 4828   0.588   1.598   2.424 -0.0173  0.3553  0.0321
 1591SOL    HW1 4829   0.537   1.676   2.445 -0.9654 -0.0387 -0.7176
 1591SOL    HW2 4830   0.675   1.616   2.459 -0.9538  0.5577  2.4796
 1592SOL     OW 4831   2.278   1.954   1.168 -0.4868  0.3473  0.0662
 1592SOL    HW1 4832   2.314   1.893   1.232  0.0859 -0.8224 -1.3126
 1592SOL    HW2 4833   2.351   1.975   1.110 -1.0612  1.1440 -0.3910
 1593SOL     OW 4834   4.846   4.073   3.856  0.4100  0.2744  0.2830
 1593SOL    HW1 4835   4.827   4.143   3.793  1.3814  1.2148  1.0020
 1593SOL    HW2 4836   4.763   4.025   3.864  0.1671  0.3460 -1.4298
 1594SOL     OW 4837   4.891   4.785   4.512  0.4600  0.0843 -0.1862
 1594SOL    HW1 4838   4.891   4.748   4.424  0.0694  0.6017 -0.4073
 1594SOL    HW2 4839   4.803   4.820   4.525  1.0422  1.6623 -0.3080
 1595SOL     OW 4840   2.909   3.500   1.560  0.4834  0.2593 -0.4999
 1595SOL    HW1 4841   2.890   3.507   1.653  2.5911 -2.1646  0.2426
 1595SOL    HW2 4842   2.992   3.547   1.549  1.0645 -0.7997 -0.7835
 1596SOL     OW 4843   1.053   0.914   3.998  0.5294 -0.5400  0.1564
 1596SOL    HW1 4844   1.115   0.912   4.070 -0.0395 -1.4285  0.6355
 1596SOL    HW2 4845   1.026   0.823   3.986 -1.1079 -0.1115  0.3563
 1597SOL     OW 4846   0.446   3.495   2.740  0.5113  0.4527  0.2950
 1597SOL    HW1 4847   0.379   3.507   2.674 -1.1560 -1.6484  1.4801
 1597SOL    HW2 4848   0.451   3.579   2.785 -0.9654  0.7998 -0.1478
 1598SOL     OW 4849   0.675   2.919   0.309 -0.1628 -0.2479  0.1172
 1598SOL    HW1 4850   0.734   2.846   0.326  0.6126 -0.0394 -1.4752
 1598SOL    HW2 4851   0.594   2.896   0.355 -0.3606 -2.7008 -1.3030
 1599SOL     OW 4852   2.731   4.488   4.902  0.0109  0.3945  0.2165
 1599SOL    HW1 4853   2.659   4.425   4.900  1.9268 -1.9062 -0.7988
 1599SOL    HW2 4854   2.798   4.447   4.956  0.8471  2.2018  0.6366
 1600SOL     OW 4855   3.566   4.169   1.060 -0.0494  0.0807  0.6951
 1600SOL    HW1 4856   3.618   4.217   0.995  0.4015 -1.0666  0.1950
 1600SOL    HW2 4857   3.598   4.201   1.145  1.3505 -0.4750  0.3890
 1601SOL     OW 4858   0.972   4.754   1.165 -0.2909 -0.6352  0.2757
 1601SOL    HW1 4859   0.962   4.666   1.130  0.7988 -0.5503 -0.2770
 1601SOL    HW2 4860   1.047   4.749   1.223 -1.2102 -0.4313  1.5145
 1602SOL     OW 4861   2.518   2.770   3.762  0.3528  0.1687  0.6181
 1602SOL    HW1 4862   2.591   2.831   3.763 -0.1659  0.8237  1.9551
 1602SOL    HW2 4863   2.444   2.821   3.796 -1.1390 -0.0218 -2.0547
 1603SOL     OW 4864   2.322   0.490   0.972  0.1264 -0.2439 -0.5805
 1603SOL    HW1 4865   2.412   0.492   1.003 -0.1878  1.4508  0.3360
 1603SOL    HW2 4866   2.326   0.527   0.884  0.4497 -1.1322 -0.9469
 1604SOL     OW 4867   0.672   0.813   4.590 -0.5645  0.7950  0.5613
 1604SOL    HW1 4868   0.662   0.808   4.495 -0.8177  0.8291  0.5856
 1604SOL    HW2 4869   0.735   0.884   4.604 -1.3762  1.5564  0.4611
 1605SOL     OW 4870   0.175   1.623   3.214  0.0462  0.2254 -0.0140
 1605SOL    HW1 4871   0.143   1.544   3.172  0.1468  0.4119 -0.4533
 1605SOL    HW2 4872   0.170   1.690   3.145 -2.6396  1.2873  1.0693
 1606SOL     OW 4873   3.759   4.277   0.851 -0.0617  0.2961  0.0888
 1606SOL    HW1 4874   3.838   4.227   0.873 -0.1148  0.1234 -0.1033
 1606SOL    HW2 4875   3.779   4.367   0.877 -0.7039 -0.1421  2.2952
 1607SOL     OW 4876   1.572   3.576   1.630 -0.4770 -0.2200 -0.2919
 1607SOL    HW1 4877   1.635   3.646   1.611  0.3685 -0.9661 -0.3032
 1607SOL    HW2 4878   1.495   3.622   1.664  0.7123  0.6134  1.3989
 1608SOL     OW 4879   4.507   0.568   4.581  0.0454  0.0933  0.0305
 1608SOL    HW1 4880   4.444   0.499   4.563  0.2559 -0.3514  0.9167
 1608SOL    HW2 4881   4.565   0.530   4.648 -0.3358  1.4099  1.1472
 1609SOL     OW 4882   4.204   0.356   0.368 -0.1761 -0.0227 -0.2467
 1609SOL    HW1 4883   4.114   0.341   0.396  0.1831 -0.6263  0.6424
 1609SOL    HW2 4884   4.231   0.434   0.416  0.2612 -0.7376  0.7022
 1610SOL     OW 4885   1.242   1.206   1.771 -0.3503  0.2297 -0.0194
 1610SOL    HW1 4886   1.184   1.238   1.702  0.9552  0.4347 -1.0741
 1610SOL    HW2 4887   1.242   1.275   1.837 -2.3599 -0.3852  0.6830
 1611SOL     OW 4888   3.125   4.906   4.382  0.1027 -0.2912  0.1528
 1611SOL    HW1 4889   3.054   4.904   4.318  0.1960 -1.7781  0.0554
 1611SOL    HW2 4890   3.081   4.913   4.467 -0.1210 -0.4977  0.0541
 1612SOL     OW 4891   0.407   4.711   0.087  0.9507  0.0628  0.0424
 1612SOL    HW1 4892   0.457   4.710   0.005  0.7501  1.1780 -0.1100
 1612SOL    HW2 4893   0.392   4.804   0.104  0.1512 -0.2057  0.8354
 1613SOL     OW 4894   3.522   2.770   4.038  0.6513 -0.3448 -0.5827
 1613SOL    HW1 4895   3.534   2.725   3.955  0.7323 -0.3993 -0.5415
 1613SOL    HW2 4896   3.544   2.861   4.019 -2.2425  0.2985 -1.3884
 1614SOL     OW 4897   4.522   0.966   4.083  0.0693  0.2211  0.0020
 1614SOL    HW1 4898   4.576   0.887   4.075 -0.9192 -0.5213  0.4817
 1614SOL    HW2 4899   4.490   0.981   3.994  0.2666  0.0909 -0.0941
 1615SOL     OW 4900   4.733   2.253   1.921  0.0277  0.6304 -0.0110
 1615SOL    HW1 4901   4.793   2.236   1.993  0.8746  1.2979 -0.5401
 1615SOL    HW2 4902   4.653   2.286   1.963 -0.5851 -1.6783  0.8135
 1616SOL     OW 4903   0.831   4.087   0.888 -0.2259  0.3129 -0.2306
 1616SOL    HW1 4904   0.883   4.130   0.820 -1.1636  0.0672 -1.1336
 1616SOL    HW2 4905   0.895   4.044   0.944  0.5751  0.6763 -0.8503
 1617SOL     OW 4906   2.834   2.362   4.290 -0.1905  0.2750  0.0657
 1617SOL    HW1 4907   2.809   2.396   4.376 -0.2317 -0.6348  0.4223
 1617SOL    HW2 4908   2.824   2.437   4.232 -0.1752  0.9051  0.8474
 1618SOL     OW 4909   0.648   1.106   3.512  0.3930 -0.2794 -0.0965
 1618SOL    HW1 4910   0.704   1.095   3.436  0.1318 -1.2468 -0.1631
 1618SOL    HW2 4911   0.610   1.019   3.527  2.2395 -0.7625  2.5558
 1619SOL     OW 4912   1.085   2.192   1.670 -0.0964 -0.1902 -0.5259
 1619SOL    HW1 4913   1.079   2.156   1.758 -0.5140  2.4072  0.6120
 1619SOL    HW2 4914   0.999   2.177   1.631 -0.6827  0.6513  0.4039
 1620SOL     OW 4915   4.922   1.403   4.069 -0.3939  0.1249  0.0718
 1620SOL    HW1 4916   4.958   1.443   3.990 -2.2319  1.0915 -0.3300
 1620SOL    HW2 4917   4.992   1.347   4.102  1.2409  1.4921 -0.9395
 1621SOL     OW 4918   2.773   2.348   1.669 -1.0196 -0.4175  0.1632
 1621SOL    HW1 4919   2.705   2.412   1.647  0.7161  2.1748  1.8888
 1621SOL    HW2 4920   2.855   2.394   1.655  0.4177 -2.9332 -0.3046
 1622SOL     OW 4921   3.152   0.109   4.093 -0.0499  0.3959 -0.3435
 1622SOL    HW1 4922   3.084   0.115   4.026  0.7380  2.7188 -1.0041
 1622SOL    HW2 4923   3.227   0.155   4.056  0.2925  2.1493  2.2647
 1623SOL     OW 4924   0.155   3.989   0.162 -0.7114  0.3220  0.1529
 1623SOL    HW1 4925   0.148   4.030   0.076 -2.4998 -1.2692 -0.5260
 1623SOL    HW2 4926   0.229   3.929   0.154 -0.3443  0.7840  0.0168
 1624SOL     OW 4927   0.625   1.309   4.573 -0.4119  0.0726  0.7136
 1624SOL    HW1 4928   0.653   1.251   4.502 -0.6372 -0.9163  1.4139
 1624SOL    HW2 4929   0.682   1.385   4.565 -2.3410  1.3852 -2.3446
 1625SOL     OW 4930   4.122   4.451   3.866  0.3304 -0.2848  0.2009
 1625SOL    HW1 4931   4.193   4.514   3.849  0.7557 -0.5509  0.9367
 1625SOL    HW2 4932   4.044   4.506   3.878  0.3961  0.0085 -0.6731
 1626SOL     OW 4933   1.469   4.475   1.505  0.3283 -0.0884  0.3869
 1626SOL    HW1 4934   1.482   4.402   1.445  3.4229 -0.8342  1.7213
 1626SOL    HW2 4935   1.375   4.477   1.521 -0.0376 -2.9292 -0.7555
 1627SOL     OW 4936   4.682   3.385   1.567 -0.0073  0.4972  0.2825
 1627SOL    HW1 4937   4.591   3.360   1.581  0.3275 -0.4071  0.8785
 1627SOL    HW2 4938   4.676   3.471   1.525 -1.2046 -0.5232 -1.8592
 1628SOL     OW 4939   2.524   3.470   0.136 -0.2551 -0.2342 -0.2054
 1628SOL    HW1 4940   2.430   3.454   0.146  0.0355 -1.5340  0.6502
 1628SOL    HW2 4941   2.546   3.531   0.206 -0.6501  1.0817 -1.1607
 1629SOL     OW 4942   3.487   4.818   2.865  0.4679  0.2231 -0.2847
 1629SOL    HW1 4943   3.471   4.900   2.912 -0.4318  0.3994 -0.8572
 1629SOL    HW2 4944   3.403   4.773   2.867  0.5098  0.0695 -1.3772
 1630SOL     OW 4945   1.051   3.426   3.582  0.0918  0.4685 -0.3207
 1630SOL    HW1 4946   1.120   3.479   3.542 -0.1500  0.8244 -0.2703
 1630SOL    HW2 4947   0.971   3.477   3.568  0.1835  1.2637  1.8051
 1631SOL     OW 4948   4.509   4.324   4.425  0.1664 -0.1432 -0.0398
 1631SOL    HW1 4949   4.590   4.313   4.376 -0.8787 -0.0446 -1.8646
 1631SOL    HW2 4950   4.444   4.274   4.376 -1.8579  3.2645 -1.2008
 1632SOL     OW 4951   0.581   2.547   1.966  0.3202 -0.2482 -0.3475
 1632SOL    HW1 4952   0.508   2.609   1.970  0.6230  0.0731  0.2563
 1632SOL    HW2 4953   0.545   2.471   1.919  0.0754  0.5450 -1.4719
 1633SOL     OW 4954   2.668   3.567   2.991  0.6661  0.3391  0.5604
 1633SOL    HW1 4955   2.606   3.614   3.047  1.2201  1.0431  0.6082
 1633SOL    HW2 4956   2.689   3.630   2.922 -0.9772 -0.9529 -1.1865
 1634SOL     OW 4957   2.840   1.581   2.137 -0.1829 -0.1878  0.6340
 1634SOL    HW1 4958   2.804   1.669   2.134  0.9400  0.2749 -0.1586
 1634SOL    HW2 4959   2.879   1.573   2.224 -0.3429  0.0834  0.7301
 1635SOL     OW 4960   2.204   2.229   2.632 -0.7307 -0.4847  0.2566
 1635SOL    HW1 4961   2.233   2.319   2.646  2.2845 -1.1728 -0.8554
 1635SOL    HW2 4962   2.250   2.178   2.699 -0.2717 -1.5071 -0.8080
 1636SOL     OW 4963   2.003   3.852   2.194  0.4256  1.1717 -0.2181
 1636SOL    HW1 4964   2.080   3.833   2.140 -0.1606  2.7829 -1.7426
 1636SOL    HW2 4965   2.010   3.946   2.214 -0.5107  1.0736  0.6592
 1637SOL     OW 4966   0.438   3.616   0.972  0.0643  0.3736  0.2281
 1637SOL    HW1 4967   0.510   3.644   0.915  0.4905 -1.6361 -0.2983
 1637SOL    HW2 4968   0.479   3.604   1.057 -0.5531  3.2773  1.0715
 1638SOL     OW 4969   0.016   1.692   2.282 -0.4147  0.3502  0.1183
 1638SOL    HW1 4970  -0.032   1.635   2.341  2.9384 -1.3528  1.4989
 1638SOL    HW2 4971   0.050   1.633   2.214  0.7432  1.1604 -0.0440
 1639SOL     OW 4972   4.497   2.776   0.368  0.2280  0.3699 -0.0032
 1639SOL    HW1 4973   4.534   2.762   0.281 -0.4390 -0.6048 -0.1584
 1639SOL    HW2 4974   4.500   2.689   0.409  0.0912  0.7212  0.7654
 1640SOL     OW 4975   1.815   2.688   4.144  0.1984 -0.1876 -0.3998
 1640SOL    HW1 4976   1.870   2.763   4.121 -1.3471  0.6860 -1.5307
 1640SOL    HW2 4977   1.727   2.714   4.114 -0.5235 -2.1499 -0.1145
 1641SOL     OW 4978   3.685   4.105   1.616  0.2347  0.1854  0.4252
 1641SOL    HW1 4979   3.597   4.075   1.592  0.5142  0.6479 -1.2623
 1641SOL    HW2 4980   3.722   4.033   1.667 -0.8588 -0.2953  0.5688
 1642SOL     OW 4981   3.104   2.645   0.077  0.1260  0.5205  0.6072
 1642SOL    HW1 4982   3.017   2.679   0.098 -0.1888 -1.5025  3.1273
 1642SOL    HW2 4983   3.157   2.664   0.155  1.4868  0.2924 -0.2238
 1643SOL     OW 4984   4.536   1.508   3.806 -0.5118  0.1781  0.0500
 1643SOL    HW1 4985   4.503   1.485   3.719 -0.5755 -0.2183  0.1748
 1643SOL    HW2 4986   4.540   1.424   3.852  1.8991 -0.0098 -0.3584
 1644SOL     OW 4987   0.248   1.887   1.677 -0.3817 -0.0404  0.2096
 1644SOL    HW1 4988   0.325   1.868   1.623 -0.6587 -1.7735  0.3685
 1644SOL    HW2 4989   0.200   1.953   1.627 -0.0736 -0.7988 -1.1468
 1645SOL     OW 4990   2.597   0.527   1.396  0.5293 -0.0651 -0.3208
 1645SOL    HW1 4991   2.532   0.478   1.446  1.0043  0.4344  0.8265
 1645SOL    HW2 4992   2.678   0.517   1.447  0.7004  1.6445 -0.2212
 1646SOL     OW 4993   0.400   2.455   0.816  0.0205 -0.4601 -0.2854
 1646SOL    HW1 4994   0.360   2.409   0.742 -1.2930 -1.1768  0.8201
 1646SOL    HW2 4995   0.427   2.539   0.779 -0.0220 -1.0370 -1.7202
 1647SOL     OW 4996   2.536   1.289   1.885 -0.4856  0.2776 -0.1925
 1647SOL    HW1 4997   2.630   1.271   1.880 -0.1619  1.8092 -0.1015
 1647SOL    HW2 4998   2.498   1.208   1.920  0.5533 -1.0350 -1.9125
 1648SOL     OW 4999   3.006   1.786   4.056  0.2417 -0.0804  0.2101
 1648SOL    HW1 5000   2.990   1.692   4.044  0.2517 -0.1866  0.9976
 1648SOL    HW2 5001   3.058   1.792   4.136 -0.1833  0.6353  0.4428
 1649SOL     OW 5002   3.710   3.224   2.189  0.5479  0.1955  0.1093
 1649SOL    HW1 5003   3.740   3.275   2.115  1.6030 -0.0356  0.3613
 1649SOL    HW2 5004   3.790   3.196   2.233 -0.0367 -0.5504  0.7315
 1650SOL     OW 5005   3.986   0.000   0.744 -0.4588 -0.2494  0.2837
 1650SOL    HW1 5006   4.078  -0.021   0.726 -0.3503  1.0139 -0.8381
 1650SOL    HW2 5007   3.941  -0.017   0.662 -0.5085  2.7525 -0.4440
 1651SOL     OW 5008   2.126   0.752   1.614  0.3119  0.1043  0.0375
 1651SOL    HW1 5009   2.042   0.784   1.583 -1.1563 -2.2439  1.3448
 1651SOL    HW2 5010   2.185   0.764   1.540 -2.1465 -1.9127 -2.4531
 1652SOL     OW 5011   4.057   4.052   3.064  0.3687  0.1376 -0.4038
 1652SOL    HW1 5012   4.020   3.975   3.020  0.9579 -0.3640 -0.0291
 1652SOL    HW2 5013   3.981   4.107   3.082 -0.0493 -0.3008 -0.7847
 1653SOL     OW 5014   3.219   0.376   3.362 -0.1893  0.0643  0.5355
 1653SOL    HW1 5015   3.235   0.469   3.376 -0.2772  0.0034  1.0719
 1653SOL    HW2 5016   3.130   0.371   3.327 -0.4827  0.1354  1.2434
 1654SOL     OW 5017   4.856   2.906   4.400  0.3363  0.6569 -0.5569
 1654SOL    HW1 5018   4.795   2.967   4.443  0.1862  0.9623 -1.1960
 1654SOL    HW2 5019   4.922   2.962   4.361 -0.4992  0.5186 -2.2629
 1655SOL     OW 5020   0.311   2.226   2.983 -0.3810  0.6801  0.8641
 1655SOL    HW1 5021   0.291   2.201   3.073 -1.3366  4.0796  1.7411
 1655SOL    HW2 5022   0.403   2.203   2.971 -0.1118  0.6046  2.8808
 1656SOL     OW 5023   0.164   4.537   1.221  0.3308  0.4668 -0.1085
 1656SOL    HW1 5024   0.121   4.453   1.205 -0.4528  0.9596 -0.6646
 1656SOL    HW2 5025   0.224   4.520   1.294  0.3612 -0.6288 -0.3631
 1657SOL     OW 5026   3.906   4.811   1.377 -0.2087  0.1684 -0.6626
 1657SOL    HW1 5027   3.880   4.827   1.286  3.2876 -0.3998 -1.9059
 1657SOL    HW2 5028   3.990   4.766   1.371  0.9745  1.5181  2.8793
 1658SOL     OW 5029   2.114   1.223   3.816  0.0091  0.4245  0.5734
 1658SOL    HW1 5030   2.195   1.173   3.826 -0.2219  0.4224  3.5959
 1658SOL    HW2 5031   2.047   1.167   3.856 -1.1489  1.1794 -0.2445
 1659SOL     OW 5032   4.669   4.314   2.814  0.3437 -0.2297 -0.0141
 1659SOL    HW1 5033   4.653   4.305   2.908  1.2107  1.6027  0.3625
 1659SOL    HW2 5034   4.627   4.397   2.790 -0.1536 -0.8289 -1.3437
 1660SOL     OW 5035   2.798   3.894   0.143  0.2576  0.1596 -0.0358
 1660SOL    HW1 5036   2.831   3.950   0.072  1.3894  0.6900  0.8629
 1660SOL    HW2 5037   2.802   3.805   0.107 -0.4697  0.5421 -1.0902
 1661SOL     OW 5038   2.512   1.594   0.245 -0.2705  0.0838  0.2112
 1661SOL    HW1 5039   2.578   1.536   0.207 -0.2743 -0.0461  0.3983
 1661SOL    HW2 5040   2.505   1.565   0.336  0.2169  0.8262  0.4847
 1662SOL     OW 5041   0.321   1.186   4.099 -0.3106  0.0534  0.1915
 1662SOL    HW1 5042   0.280   1.103   4.125 -1.0257 -0.0722 -1.2086
 1662SOL    HW2 5043   0.320   1.240   4.178 -1.2114 -0.7371  0.7358
 1663SOL     OW 5044   3.889   4.429   4.185 -0.2446  0.0367  0.1043
 1663SOL    HW1 5045   3.882   4.445   4.091 -1.6803  1.5629  0.4332
 1663SOL    HW2 5046   3.871   4.513   4.226 -0.2965 -0.7398  1.7805
 1664SOL     OW 5047   3.340   1.713   3.403  0.1559 -0.0473 -0.0257
 1664SOL    HW1 5048   3.319   1.670   3.320  0.1932  0.1549 -0.1400
 1664SOL    HW2 5049   3.339   1.642   3.467  1.8336 -0.5406 -0.4793
 1665SOL     OW 5050   4.568   3.447   2.219  0.3576 -0.3792  0.1606
 1665SOL    HW1 5051   4.524   3.520   2.174  1.6608  0.4254  0.1179
 1665SOL    HW2 5052   4.527   3.443   2.305 -0.3283 -0.1661 -0.1499
 1666SOL     OW 5053   1.530   4.158   3.567  0.3874 -0.5145 -0.2405
 1666SOL    HW1 5054   1.469   4.091   3.537 -0.1353 -0.6832  1.1166
 1666SOL    HW2 5055   1.597   4.163   3.499 -0.5039 -1.1732 -1.1809
 1667SOL     OW 5056   3.226   3.743   1.084 -0.3995 -0.3207  0.8213
 1667SOL    HW1 5057   3.301   3.762   1.140  0.4317 -1.5054  0.1512
 1667SOL    HW2 5058   3.235   3.804   1.010  0.1752 -0.7880  0.5056
 1668SOL     OW 5059   4.002   0.246   4.200  0.5208 -0.1613 -0.3607
 1668SOL    HW1 5060   4.038   0.167   4.241  0.4483 -0.2460 -0.4593
 1668SOL    HW2 5061   4.041   0.318   4.250  0.5970 -0.2584 -0.2773
 1669SOL     OW 5062   4.580   4.901   4.928  0.4487 -0.6743  0.3463
 1669SOL    HW1 5063   4.587   4.911   4.833 -1.8640  1.1203  0.2765
 1669SOL    HW2 5064   4.515   4.831   4.939  0.0279 -0.2527  0.5708
 1670SOL     OW 5065   2.326   4.556   1.331  0.5083 -0.2883  0.1580
 1670SOL    HW1 5066   2.349   4.607   1.409  1.0026 -0.4794  0.1386
 1670SOL    HW2 5067   2.402   4.501   1.315  0.5329 -0.0370 -0.6326
 1671SOL     OW 5068   2.013   1.399   0.888  0.1900 -0.2614 -0.3129
 1671SOL    HW1 5069   1.923   1.369   0.878  0.2925 -0.9530  0.7170
 1671SOL    HW2 5070   2.066   1.325   0.858  0.4286 -0.4855  0.6324
 1672SOL     OW 5071   2.011   0.980   0.309 -0.3300  0.5904  0.0700
 1672SOL    HW1 5072   1.964   1.060   0.285 -1.8073 -0.6605 -1.4472
 1672SOL    HW2 5073   1.943   0.912   0.313  0.8729 -0.6217  1.3406
 1673SOL     OW 5074   2.427   0.988   2.502 -0.1819 -0.9854 -0.0310
 1673SOL    HW1 5075   2.446   0.896   2.481  1.7850 -0.9646  1.2774
 1673SOL    HW2 5076   2.467   1.000   2.589  0.3314  1.3136 -0.5349
 1674SOL     OW 5077   0.011   0.253   2.242 -0.0015  0.0007 -0.4918
 1674SOL    HW1 5078  -0.069   0.210   2.210  0.1430  1.0514 -2.3772
 1674SOL    HW2 5079  -0.021   0.315   2.308 -0.5522 -0.6991 -0.0778
 1675SOL     OW 5080   0.282   3.796   0.701  0.0284  0.0453 -0.1992
 1675SOL    HW1 5081   0.292   3.890   0.688 -1.8199  0.2288 -0.5407
 1675SOL    HW2 5082   0.331   3.757   0.628  2.0145  0.6545  0.7438
 1676SOL     OW 5083   2.501   1.629   2.057 -0.5521  0.2914  0.3735
 1676SOL    HW1 5084   2.438   1.701   2.062 -2.5575 -1.3852  1.0502
 1676SOL    HW2 5085   2.469   1.575   1.985  0.1857 -0.5465  0.6614
 1677SOL     OW 5086   2.987   0.585   2.671 -0.3653  0.2258 -0.6056
 1677SOL    HW1 5087   2.922   0.557   2.735 -0.4835 -1.0111 -1.2239
 1677SOL    HW2 5088   3.018   0.503   2.632  1.6003  0.7728 -0.2996
 1678SOL     OW 5089   0.374   1.803   2.330  0.1846 -0.5024  0.2083
 1678SOL    HW1 5090   0.321   1.787   2.408 -0.4547  0.3489 -0.0372
 1678SOL    HW2 5091   0.370   1.720   2.282  1.1024 -1.2411  1.3621
 1679SOL     OW 5092   0.270   3.559   4.054 -0.1482  0.6200 -0.3810
 1679SOL    HW1 5093   0.183   3.577   4.089  0.0130  0.8916 -0.1162
 1679SOL    HW2 5094   0.282   3.622   3.983 -0.6744 -0.2539 -1.2812
 1680SOL     OW 5095   2.801   3.382   4.526  0.1274  0.3422  0.3704
 1680SOL    HW1 5096   2.756   3.297   4.519 -1.4261  1.2362 -1.4128
 1680SOL    HW2 5097   2.894   3.359   4.535 -0.3428 -1.5504  0.8988
 1681SOL     OW 5098   4.819   2.472   2.890  0.4437 -0.1748  0.2541
 1681SOL    HW1 5099   4.768   2.460   2.809  1.3428  0.4661 -0.4161
 1681SOL    HW2 5100   4.784   2.405   2.949  0.7948 -1.6941 -1.1663
 1682SOL     OW 5101   4.500   2.323   3.415  0.1585  0.0586  0.2074
 1682SOL    HW1 5102   4.495   2.329   3.320 -1.7705  0.8889  0.3060
 1682SOL    HW2 5103   4.451   2.400   3.446 -0.4271 -0.9364  1.8521
 1683SOL     OW 5104   4.508   1.907   4.113 -0.4216 -0.2698 -0.2473
 1683SOL    HW1 5105   4.579   1.933   4.054 -1.2250 -0.0700 -1.1423
 1683SOL    HW2 5106   4.460   1.840   4.064 -1.8249  0.7701 -0.3262
 1684SOL     OW 5107   3.993   0.067   2.525  0.1749 -0.3996 -0.3957
 1684SOL    HW1 5108   3.986   0.133   2.594 -0.6333 -0.6355 -0.2461
 1684SOL    HW2 5109   4.086   0.042   2.525  0.6125  1.1634 -0.8646
 1685SOL     OW 5110   4.864   3.523   2.875 -0.3793 -0.2248 -0.2206
 1685SOL    HW1 5111   4.865   3.599   2.817  0.1663 -0.5458 -0.6388
 1685SOL    HW2 5112   4.897   3.557   2.959 -0.8248  0.1590 -0.1988
 1686SOL     OW 5113   1.015   1.545   0.463  0.2501 -0.3965 -0.0257
 1686SOL    HW1 5114   1.015   1.518   0.555 -0.0241  1.6439  0.6346
 1686SOL    HW2 5115   0.929   1.517   0.430  0.1626 -0.7402  0.4871
 1687SOL     OW 5116   2.339   1.014   4.748  0.5212  0.1913  0.1282
 1687SOL    HW1 5117   2.332   0.936   4.693 -1.6158 -1.3054  2.3000
 1687SOL    HW2 5118   2.410   0.994   4.809  1.1246  0.7285 -0.3782
 1688SOL     OW 5119   1.508   1.187   4.404  0.8310 -0.1474 -0.3454
 1688SOL    HW1 5120   1.475   1.097   4.405  0.9841 -0.2299  2.2944
 1688SOL    HW2 5121   1.430   1.240   4.386 -0.2145 -0.5648  2.5296
 1689SOL     OW 5122   1.074   4.335   0.911  0.4156 -0.1278  0.2465
 1689SOL    HW1 5123   1.028   4.385   0.978  0.0049  0.2376 -0.3067
 1689SOL    HW2 5124   1.141   4.394   0.878  1.8417 -0.9118  1.5964
 1690SOL     OW 5125   4.417   1.569   2.141 -0.0617 -0.0647 -0.5200
 1690SOL    HW1 5126   4.475   1.617   2.201  0.1731 -1.0579  0.0627
 1690SOL    HW2 5127   4.351   1.530   2.198  0.5029 -1.5077 -0.8196
 1691SOL     OW 5128   2.624   1.665   1.281 -0.6230  0.3782  0.3577
 1691SOL    HW1 5129   2.637   1.611   1.203 -1.0566 -0.9677  1.1720
 1691SOL    HW2 5130   2.713   1.685   1.311 -0.3533 -1.7402  1.2172
 1692SOL     OW 5131   3.231   1.007   0.969 -0.5840 -0.0608  0.9144
 1692SOL    HW1 5132   3.227   1.101   0.951 -1.6823  0.1201  2.0115
 1692SOL    HW2 5133   3.157   0.970   0.921  0.7511 -0.6450 -0.8282
 1693SOL     OW 5134   1.851   0.708   2.730  0.3758 -0.4444  0.3296
 1693SOL    HW1 5135   1.763   0.745   2.723  0.2003 -0.9964 -0.4400
 1693SOL    HW2 5136   1.855   0.674   2.819 -0.0631 -0.1037  0.4864
 1694SOL     OW 5137   2.214   4.501   4.198 -0.2030  0.3239  0.1829
 1694SOL    HW1 5138   2.244   4.572   4.255  2.0108 -0.5587  0.2052
 1694SOL    HW2 5139   2.219   4.422   4.253  2.3711 -0.6088 -1.2494
 1695SOL     OW 5140   3.244   4.109   0.363  0.0695  0.1181  0.0584
 1695SOL    HW1 5141   3.199   4.136   0.443 -2.4136  0.8052 -1.4426
 1695SOL    HW2 5142   3.185   4.047   0.322  1.5175 -0.5982 -1.0392
 1696SOL     OW 5143   4.263   4.208   3.596  0.5332  0.0901 -0.6938
 1696SOL    HW1 5144   4.295   4.259   3.670 -0.5276  0.3371 -0.3972
 1696SOL    HW2 5145   4.340   4.159   3.566  0.7448 -0.7809  1.1853
 1697SOL     OW 5146   2.487   2.201   3.158  0.0624 -0.8309  0.6086
 1697SOL    HW1 5147   2.579   2.195   3.133  0.0086 -0.0080  0.2084
 1697SOL    HW2 5148   2.465   2.294   3.149 -1.0980 -1.1712 -0.3511
 1698SOL     OW 5149   0.401   0.348   0.258 -0.4116 -0.1399  0.2535
 1698SOL    HW1 5150   0.488   0.386   0.247 -0.3857  0.1639  1.3656
 1698SOL    HW2 5151   0.415   0.254   0.260 -0.1786 -0.1149 -0.0978
 1699SOL     OW 5152   4.225   4.068   2.214  0.3597 -0.1207  0.4321
 1699SOL    HW1 5153   4.149   4.073   2.155  0.5187 -0.3894  0.2011
 1699SOL    HW2 5154   4.291   4.124   2.172  1.2017 -1.9048 -0.7493
 1700SOL     OW 5155   3.092   4.152   4.540  0.2010 -0.5630  0.0451
 1700SOL    HW1 5156   3.089   4.156   4.445  0.1131  1.2565  0.1000
 1700SOL    HW2 5157   3.122   4.063   4.559  0.0499 -1.0132 -1.6603
 1701SOL     OW 5158   2.454   4.128   1.267 -0.1569 -0.7964 -0.8092
 1701SOL    HW1 5159   2.385   4.165   1.322  0.9971 -0.2258  0.3228
 1701SOL    HW2 5160   2.428   4.151   1.178 -0.4651  1.1541 -0.2795
 1702SOL     OW 5161   4.198   4.793   4.914 -0.2796 -0.0867 -0.3255
 1702SOL    HW1 5162   4.156   4.879   4.913  0.1671  0.2185  1.9182
 1702SOL    HW2 5163   4.133   4.736   4.956  0.0033 -0.5078 -0.4617
 1703SOL     OW 5164   2.949   4.574   4.707 -0.4902  0.6324 -0.7767
 1703SOL    HW1 5165   2.922   4.610   4.792 -1.0809  0.8715 -1.0658
 1703SOL    HW2 5166   2.870   4.535   4.670  0.2156 -1.3882 -0.2889
 1704SOL     OW 5167   1.233   2.097   2.279  0.0026 -0.3915  0.3410
 1704SOL    HW1 5168   1.217   2.133   2.366 -2.8338 -1.2208  0.2670
 1704SOL    HW2 5169   1.315   2.137   2.251 -0.2579  1.7860  2.3987
 1705SOL     OW 5170   4.529   0.644   3.026  0.2086 -0.6327  0.9637
 1705SOL    HW1 5171   4.520   0.732   2.988 -0.4702 -0.7882  0.7525
 1705SOL    HW2 5172   4.440   0.618   3.048  0.4437 -1.1397  1.3316
 1706SOL     OW 5173   3.135   0.349   2.556 -0.5507  0.3859 -0.3638
 1706SOL    HW1 5174   3.194   0.282   2.590  0.1489  0.4506 -1.3903
 1706SOL    HW2 5175   3.050   0.305   2.548  0.1846 -0.7919 -2.2237
 1707SOL     OW 5176   1.324   0.694   0.824 -0.2150  0.2642  0.7500
 1707SOL    HW1 5177   1.351   0.737   0.905  3.0073  0.3363 -0.2125
 1707SOL    HW2 5178   1.320   0.601   0.847 -2.1952  0.4967  1.5965
 1708SOL     OW 5179   0.877   1.420   1.910  0.3141  0.3912  0.2552
 1708SOL    HW1 5180   0.853   1.498   1.961 -1.4309 -0.6411  1.1049
 1708SOL    HW2 5181   0.823   1.350   1.947  0.0739 -0.7365 -2.0673
 1709SOL     OW 5182   4.193   0.221   3.963 -0.5906  0.2480  0.2998
 1709SOL    HW1 5183   4.136   0.233   4.039 -1.9620 -0.3679 -0.5770
 1709SOL    HW2 5184   4.144   0.259   3.890  0.7491  0.9477 -0.2724
 1710SOL     OW 5185   1.762   1.806   1.553 -0.2616  0.2680  0.0721
 1710SOL    HW1 5186   1.806   1.848   1.627  1.0426 -1.1487  0.1531
 1710SOL    HW2 5187   1.767   1.870   1.483  0.9060  0.5949  0.4381
 1711SOL     OW 5188   1.465   2.223   2.499  0.0797 -0.4223  0.1397
 1711SOL    HW1 5189   1.549   2.205   2.457 -0.1192  0.3783 -0.6377
 1711SOL    HW2 5190   1.476   2.310   2.539 -0.3666 -0.3268  0.0628
 1712SOL     OW 5191   1.454   3.378   1.435  0.2772 -0.3586  0.3982
 1712SOL    HW1 5192   1.444   3.439   1.362  0.7576 -0.5489  0.1735
 1712SOL    HW2 5193   1.506   3.426   1.499  0.0201 -0.2628  0.5379
 1713SOL     OW 5194   0.379   2.960   2.116 -0.4511 -0.5501 -0.1373
 1713SOL    HW1 5195   0.472   2.953   2.136 -0.3639 -1.7213 -0.8382
 1713SOL    HW2 5196   0.337   2.968   2.202  0.3204  0.5157  0.1515
 1714SOL     OW 5197   3.057   4.022   1.696  0.0825  0.3388  0.0023
 1714SOL    HW1 5198   3.116   3.975   1.755  0.0800 -1.3082 -1.2568
 1714SOL    HW2 5199   3.102   4.104   1.678  0.4286  0.5570  1.6758
 1715SOL     OW 5200   3.860   1.524   2.187 -0.0370 -0.3702  0.2305
 1715SOL    HW1 5201   3.766   1.504   2.192 -0.3044  1.0064  1.3191
 1715SOL    HW2 5202   3.880   1.521   2.093 -1.5477  0.8549 -0.1746
 1716SOL     OW 5203   2.605   0.074   4.331  0.1438  0.4824 -0.1240
 1716SOL    HW1 5204   2.640   0.162   4.344  1.2048  0.0333  0.1520
 1716SOL    HW2 5205   2.663   0.018   4.382  0.3304 -0.5477 -1.4441
 1717SOL     OW 5206   0.763   3.862   2.235  0.1881  0.1246 -1.0317
 1717SOL    HW1 5207   0.797   3.949   2.217  0.8221 -0.0252 -0.6051
 1717SOL    HW2 5208   0.798   3.808   2.163 -1.8305  0.5713 -2.4431
 1718SOL     OW 5209   4.525   0.857   2.613  0.0998 -0.1753 -0.2407
 1718SOL    HW1 5210   4.532   0.881   2.521 -1.7468  0.0069 -0.3702
 1718SOL    HW2 5211   4.496   0.766   2.613  3.0506 -1.2143  0.2319
 1719SOL     OW 5212   1.029   3.517   2.034 -0.1746 -0.4330  0.2053
 1719SOL    HW1 5213   1.063   3.440   1.988 -1.9084 -2.0062  1.3502
 1719SOL    HW2 5214   1.100   3.543   2.093  0.7278 -0.6471 -0.7583
 1720SOL     OW 5215   0.607   0.195   0.444  0.9135  0.5450  0.1233
 1720SOL    HW1 5216   0.562   0.223   0.523 -0.7692 -1.3335 -0.0904
 1720SOL    HW2 5217   0.665   0.124   0.473  1.5344  0.9599 -0.0823
 1721SOL     OW 5218   3.324   4.437   0.216 -0.1124  0.5748 -1.1734
 1721SOL    HW1 5219   3.347   4.524   0.248  1.8509  0.0570 -1.0465
 1721SOL    HW2 5220   3.247   4.412   0.268  0.1842  1.6400 -0.1781
 1722SOL     OW 5221   1.012   1.883   1.947 -0.1985 -0.0838  0.1031
 1722SOL    HW1 5222   0.941   1.906   2.007 -1.4004 -0.8476 -0.9705
 1722SOL    HW2 5223   1.023   1.789   1.958  1.5338  0.2035  1.1494
 1723SOL     OW 5224   4.664   4.612   4.385 -0.0042  0.1377 -0.1827
 1723SOL    HW1 5225   4.701   4.568   4.460  0.5362  1.2686  0.2339
 1723SOL    HW2 5226   4.581   4.648   4.416  0.9460  1.9890  0.3958
 1724SOL     OW 5227   2.950   4.101   3.820 -0.3506 -0.2576 -0.6225
 1724SOL    HW1 5228   2.944   4.197   3.822  3.5461  0.1434 -0.8575
 1724SOL    HW2 5229   2.946   4.075   3.911  1.2932  0.4659 -0.3077
 1725SOL     OW 5230   4.318   4.480   3.116  0.1588  0.1426 -0.6018
 1725SOL    HW1 5231   4.253   4.512   3.055 -0.5085  0.9957  0.5130
 1725SOL    HW2 5232   4.307   4.385   3.117 -1.9332  0.3429  0.4608
 1726SOL     OW 5233   0.992   2.268   3.769 -0.0519 -0.7949  0.3649
 1726SOL    HW1 5234   0.897   2.275   3.758  0.0443 -2.2394 -2.0862
 1726SOL    HW2 5235   1.028   2.323   3.700  0.9377 -0.6799  0.9497
 1727SOL     OW 5236   4.375   3.568   3.325 -0.3580 -0.0938 -0.8415
 1727SOL    HW1 5237   4.359   3.629   3.253  1.1334 -0.4655 -1.5190
 1727SOL    HW2 5238   4.470   3.568   3.337 -0.5711  0.2393  1.3906
 1728SOL     OW 5239   2.623   2.935   2.484 -0.4461  0.2512 -0.3237
 1728SOL    HW1 5240   2.534   2.932   2.449 -0.4826 -0.4161 -0.1794
 1728SOL    HW2 5241   2.614   2.982   2.567 -0.5498  0.7803 -0.6303
 1729SOL     OW 5242   3.316   0.154   1.372 -0.1165 -0.2224  0.1654
 1729SOL    HW1 5243   3.241   0.174   1.428 -1.0662 -0.4563 -0.9910
 1729SOL    HW2 5244   3.332   0.061   1.385  1.3498  0.2179  2.0016
 1730SOL     OW 5245   2.413   1.916   2.106 -0.1410 -0.0892 -0.0144
 1730SOL    HW1 5246   2.373   1.921   2.194 -0.6233 -1.6081 -0.1208
 1730SOL    HW2 5247   2.443   2.005   2.089  0.0838  0.2215  1.7512
 1731SOL     OW 5248   3.095   0.978   1.855 -0.3526 -0.3566  0.1103
 1731SOL    HW1 5249   3.039   0.918   1.904 -0.7425 -0.2332 -0.1854
 1731SOL    HW2 5250   3.161   1.005   1.919 -0.2109 -1.0477  0.2591
 1732SOL     OW 5251   0.317   0.867   1.915 -0.2953  0.1464 -0.8518
 1732SOL    HW1 5252   0.260   0.931   1.958 -0.5818 -0.3504 -0.4809
 1732SOL    HW2 5253   0.301   0.785   1.962  2.2593  0.4273  0.7014
 1733SOL     OW 5254   3.065   3.129   4.386 -0.1510 -0.4365  0.1709
 1733SOL    HW1 5255   2.982   3.114   4.340  0.8111 -1.4207 -1.3104
 1733SOL    HW2 5256   3.116   3.050   4.371  2.4869  1.4923 -2.1402
 1734SOL     OW 5257   1.569   3.968   3.248 -0.4618 -0.1831  0.0881
 1734SOL    HW1 5258   1.493   3.982   3.305  0.3971  1.2804  0.9337
 1734SOL    HW2 5259   1.603   4.056   3.230  1.5456 -0.8090  0.4763
 1735SOL     OW 5260   2.620   4.239   1.483  0.2072  0.4802  0.1431
 1735SOL    HW1 5261   2.613   4.183   1.560  1.7298 -0.5198 -0.4073
 1735SOL    HW2 5262   2.575   4.191   1.414  2.1370 -0.5088 -0.5162
 1736SOL     OW 5263   2.645   4.432   3.736 -0.0479  0.0267  0.8657
 1736SOL    HW1 5264   2.721   4.394   3.780  0.8094  0.4459 -0.2044
 1736SOL    HW2 5265   2.570   4.390   3.778  0.6647  1.0216  3.3221
 1737SOL     OW 5266   0.499   0.392   4.040  0.3242  0.4289 -0.5489
 1737SOL    HW1 5267   0.419   0.445   4.037 -0.5791 -0.9304 -1.4027
 1737SOL    HW2 5268   0.569   0.453   4.016 -0.9377  0.8708 -3.5355
 1738SOL     OW 5269   0.502   2.987   4.004 -0.4870  0.7184 -0.1670
 1738SOL    HW1 5270   0.572   3.025   4.057  0.6232  1.4071 -2.0380
 1738SOL    HW2 5271   0.422   3.026   4.039  0.2335  1.3807  0.8011
 1739SOL     OW 5272   2.027   4.546   4.798 -0.1394 -0.1515  0.0712
 1739SOL    HW1 5273   2.064   4.624   4.838  0.3803 -0.8341  0.9523
 1739SOL    HW2 5274   1.953   4.578   4.747  0.3950  0.9740 -0.0175
 1740SOL     OW 5275   0.086   2.118   4.555  1.0517 -0.4950  0.2587
 1740SOL    HW1 5276   0.043   2.096   4.638 -0.0318 -1.2465 -0.4708
 1740SOL    HW2 5277   0.016   2.109   4.490  1.8786  0.1305 -0.7227
 1741SOL     OW 5278   2.815   4.786   3.516 -0.2064 -1.0785 -0.2201
 1741SOL    HW1 5279   2.904   4.821   3.507 -0.1536 -0.7994  1.1649
 1741SOL    HW2 5280   2.827   4.692   3.530 -0.0917 -0.9846  0.3513
 1742SOL     OW 5281   4.501   1.305   0.819  0.4828  0.0730 -0.2855
 1742SOL    HW1 5282   4.455   1.317   0.903  0.0295 -0.1602 -0.4976
 1742SOL    HW2 5283   4.589   1.340   0.835  1.1109 -1.9055  0.9518
 1743SOL     OW 5284   0.518   0.456   1.536 -0.1778  0.4493  0.4295
 1743SOL    HW1 5285   0.558   0.494   1.614  0.4670 -0.2843  0.4591
 1743SOL    HW2 5286   0.447   0.517   1.514  1.0493  1.8737  0.2756
 1744SOL     OW 5287   1.572   4.896   0.301  0.4708  0.1507 -0.4478
 1744SOL    HW1 5288   1.606   4.963   0.242 -1.1657  0.3520 -1.2267
 1744SOL    HW2 5289   1.489   4.931   0.333 -0.8440 -1.7980 -1.5046
 1745SOL     OW 5290   3.942   4.835   0.025 -0.1176 -0.3740 -0.2678
 1745SOL    HW1 5291   3.869   4.795  -0.024  1.2869 -0.4555 -2.4114
 1745SOL    HW2 5292   3.909   4.921   0.051 -1.7226 -1.2463  0.7568
 1746SOL     OW 5293   1.734   1.323   4.417 -0.1630 -0.2382  0.3017
 1746SOL    HW1 5294   1.725   1.412   4.385  2.3763  0.0277  0.0965
 1746SOL    HW2 5295   1.646   1.286   4.411 -1.0446  1.8589 -0.7375
 1747SOL     OW 5296   1.876   4.315   2.330 -0.6281 -0.3193 -0.2106
 1747SOL    HW1 5297   1.913   4.263   2.259  0.9397  0.2387  0.1631
 1747SOL    HW2 5298   1.861   4.401   2.290 -0.8578 -0.3366 -0.1639
 1748SOL     OW 5299   3.001   4.683   4.982  0.1936  0.0146 -0.0955
 1748SOL    HW1 5300   3.079   4.694   4.927 -0.3229 -0.7004 -1.0090
 1748SOL    HW2 5301   2.985   4.588   4.981 -0.1571  0.0551  0.8378
 1749SOL     OW 5302   1.865   1.195   0.284  0.3499 -0.7276 -0.7100
 1749SOL    HW1 5303   1.819   1.176   0.202  1.5677  0.3413 -1.6994
 1749SOL    HW2 5304   1.827   1.278   0.313 -0.3316 -1.2843  0.0244
 1750SOL     OW 5305   0.669   4.039   1.776  0.1130  0.5063  0.6273
 1750SOL    HW1 5306   0.753   3.994   1.784  0.0201  0.1490 -0.3104
 1750SOL    HW2 5307   0.677   4.115   1.834  0.6367 -0.1687  1.4571
 1751SOL     OW 5308   0.189   2.467   2.954  0.5086 -0.4657 -0.1608
 1751SOL    HW1 5309   0.219   2.377   2.965  0.5141 -0.3345  1.0309
 1751SOL    HW2 5310   0.256   2.520   2.997  0.1499  0.0514 -0.2328
 1752SOL     OW 5311   3.969   3.167   0.625 -0.5290  0.0099  0.2333
 1752SOL    HW1 5312   3.875   3.175   0.606 -0.0255  1.6378 -1.9448
 1752SOL    HW2 5313   3.996   3.255   0.648  0.5708 -0.3344  0.2784
 1753SOL     OW 5314   3.666   3.324   4.760 -0.3315 -0.4528  0.1501
 1753SOL    HW1 5315   3.737   3.264   4.779 -0.2636 -0.3663  0.1724
 1753SOL    HW2 5316   3.690   3.405   4.806 -0.7909 -0.6474  0.7384
 1754SOL     OW 5317   3.450   1.322   1.123 -0.3710 -0.5322  0.1346
 1754SOL    HW1 5318   3.470   1.228   1.128 -1.3657 -0.7523  0.2279
 1754SOL    HW2 5319   3.362   1.325   1.087 -0.3679  0.3736  0.1916
 1755SOL     OW 5320   0.085   2.910   3.454  0.0203  0.2552  0.1846
 1755SOL    HW1 5321   0.103   2.884   3.364  0.0375  0.9016 -0.0041
 1755SOL    HW2 5322  -0.001   2.953   3.451 -1.7622 -2.9055  1.0954
 1756SOL     OW 5323   2.187   1.276   2.031  0.4317  0.7534  0.2391
 1756SOL    HW1 5324   2.247   1.325   2.086 -0.3085 -0.8358  2.6122
 1756SOL    HW2 5325   2.121   1.242   2.092 -1.0320 -0.2538 -1.7916
 1757SOL     OW 5326   0.569   4.980   2.634 -0.0329  0.3651  0.4731
 1757SOL    HW1 5327   0.482   4.953   2.603  1.0543 -1.4455 -1.2724
 1757SOL    HW2 5328   0.604   5.034   2.564  0.2896  1.0426  1.1448
 1758SOL     OW 5329   0.823   0.898   3.672 -0.3662 -0.2532 -0.2166
 1758SOL    HW1 5330   0.753   0.902   3.737  0.2190 -1.1686  0.5068
 1758SOL    HW2 5331   0.846   0.989   3.656 -0.0197 -0.0061  1.4544
 1759SOL     OW 5332   0.194   2.619   1.735  0.1471  0.1903  0.2456
 1759SOL    HW1 5333   0.276   2.608   1.783 -0.1913 -0.4972  0.6874
 1759SOL    HW2 5334   0.152   2.694   1.776 -0.2505 -0.5384  1.2249
 1760SOL     OW 5335   1.518   1.640   1.597 -0.2633 -0.1524 -0.3928
 1760SOL    HW1 5336   1.459   1.703   1.555  0.4252  1.0414  0.3677
 1760SOL    HW2 5337   1.595   1.692   1.621  0.0669 -1.1590  0.8089
 1761SOL     OW 5338   1.693   2.328   0.060  0.6667 -0.0524 -0.5640
 1761SOL    HW1 5339   1.757   2.363   0.122  0.6901  0.3149 -0.7936
 1761SOL    HW2 5340   1.618   2.387   0.067 -0.2977 -1.3642  0.8531
 1762SOL     OW 5341   4.329   3.991   1.707  0.6872 -0.3371 -0.2720
 1762SOL    HW1 5342   4.423   4.006   1.716  0.3807  1.3855  0.4681
 1762SOL    HW2 5343   4.288   4.066   1.751 -1.0144  0.9066 -3.5949
 1763SOL     OW 5344   0.473   1.941   0.099 -0.2289  0.4628  0.3897
 1763SOL    HW1 5345   0.548   1.965   0.044 -0.4616  1.7862  0.6062
 1763SOL    HW2 5346   0.404   1.918   0.037 -0.2927  1.3357  0.1234
 1764SOL     OW 5347   1.118   1.833   1.686  0.4206 -0.4539 -0.3931
 1764SOL    HW1 5348   1.030   1.851   1.653  0.8795 -2.5615 -3.0801
 1764SOL    HW2 5349   1.114   1.859   1.778 -2.1794  2.0261 -1.0499
 1765SOL     OW 5350   2.258   0.605   1.974 -0.1869 -0.8122  0.3576
 1765SOL    HW1 5351   2.354   0.597   1.977 -0.1677 -1.3721 -1.0201
 1765SOL    HW2 5352   2.238   0.676   2.035  1.3135  0.8287 -0.9449
 1766SOL     OW 5353   2.513   2.615   2.066 -0.2572  0.6337 -0.5147
 1766SOL    HW1 5354   2.600   2.578   2.051 -0.4080  0.1153 -0.1265
 1766SOL    HW2 5355   2.471   2.614   1.980 -0.8936 -1.7426 -0.2633
 1767SOL     OW 5356   3.383   1.416   0.493  0.1227 -0.4601  0.2883
 1767SOL    HW1 5357   3.412   1.327   0.509 -1.0782 -0.5947  2.0480
 1767SOL    HW2 5358   3.461   1.461   0.460  1.4716 -1.5541  1.7986
 1768SOL     OW 5359   2.816   0.402   4.889  0.0818 -0.3140  0.1302
 1768SOL    HW1 5360   2.823   0.329   4.951 -4.3690 -0.9185  0.2610
 1768SOL    HW2 5361   2.722   0.413   4.876  0.6869  1.6087 -4.4483
 1769SOL     OW 5362   4.226   1.187   0.056  0.0238 -0.5743 -0.2153
 1769SOL    HW1 5363   4.170   1.265   0.058  1.4290  0.4806 -0.4806
 1769SOL    HW2 5364   4.267   1.190  -0.031  2.7145  0.3670  0.9934
 1770SOL     OW 5365   1.465   1.314   4.042  0.1416  0.3493 -0.4138
 1770SOL    HW1 5366   1.417   1.342   3.965 -3.3842  1.0635  1.8073
 1770SOL    HW2 5367   1.527   1.385   4.059 -1.5184  1.9252 -0.6562
 1771SOL     OW 5368   2.698   2.449   3.172 -0.6274 -0.2440  0.2577
 1771SOL    HW1 5369   2.731   2.367   3.136  1.1189  0.9017 -0.9204
 1771SOL    HW2 5370   2.613   2.462   3.130  0.2184 -0.2322 -1.5053
 1772SOL     OW 5371   0.585   3.617   0.121 -0.1040  0.3248 -0.4431
 1772SOL    HW1 5372   0.626   3.699   0.095 -0.8742  0.0417 -2.8934
 1772SOL    HW2 5373   0.653   3.551   0.110  0.3787  0.5523  1.0650
 1773SOL     OW 5374   1.401   4.746   3.749  0.3817  0.5690 -0.0413
 1773SOL    HW1 5375   1.466   4.763   3.680  2.2168 -4.0675  0.1544
 1773SOL    HW2 5376   1.317   4.745   3.704  1.3127 -0.2876 -1.8557
 1774SOL     OW 5377   2.338   2.347   0.516 -0.0268  0.7082  0.3005
 1774SOL    HW1 5378   2.253   2.325   0.554 -0.3277 -1.6328 -1.5214
 1774SOL    HW2 5379   2.318   2.410   0.446 -0.6085 -1.2140 -1.3624
 1775SOL     OW 5380   1.932   0.852   4.772 -0.0931 -0.3573 -0.2365
 1775SOL    HW1 5381   2.003   0.827   4.714  0.9074 -0.7671  1.1324
 1775SOL    HW2 5382   1.853   0.815   4.732  0.7805 -1.9681 -0.5331
 1776SOL     OW 5383   2.038   0.873   2.607 -0.6625 -0.0777  0.1883
 1776SOL    HW1 5384   1.955   0.915   2.587 -1.4440 -1.1723  1.0189
 1776SOL    HW2 5385   2.021   0.820   2.685  0.3044 -1.7870 -0.6959
 1777SOL     OW 5386   1.199   4.164   3.194 -0.1135 -0.1330  0.0356
 1777SOL    HW1 5387   1.131   4.212   3.243  1.3109  0.4313  1.5756
 1777SOL    HW2 5388   1.276   4.221   3.200  0.7080 -1.0953 -1.0447
 1778SOL     OW 5389   0.977   0.939   2.990 -0.2908  0.2965  0.0443
 1778SOL    HW1 5390   1.032   1.017   2.997 -1.4491  1.1132  0.4797
 1778SOL    HW2 5391   0.903   0.967   2.936 -0.7986 -0.4433  0.3401
 1779SOL     OW 5392   1.534   0.199   4.823  0.0610  0.1273  0.1642
 1779SOL    HW1 5393   1.613   0.185   4.771 -1.3750 -0.2088 -2.0539
 1779SOL    HW2 5394   1.527   0.294   4.831  1.2061  0.1418  1.2785
 1780SOL     OW 5395   3.119   1.603   3.723 -0.2168  0.5177  0.3206
 1780SOL    HW1 5396   3.151   1.681   3.678  0.6857 -1.5731 -3.0272
 1780SOL    HW2 5397   3.033   1.628   3.757 -0.3729  2.7007 -1.4959
 1781SOL     OW 5398   3.585   2.608   4.254 -0.2755  0.4872 -0.2243
 1781SOL    HW1 5399   3.575   2.664   4.178 -0.1539 -1.1917 -1.5461
 1781SOL    HW2 5400   3.652   2.544   4.228  0.4158  0.3834  1.6191
 1782SOL     OW 5401   2.890   1.463   0.846 -0.2090  0.0999  0.8976
 1782SOL    HW1 5402   2.981   1.474   0.875 -0.0341 -1.2983  0.9372
 1782SOL    HW2 5403   2.885   1.514   0.765  0.2786  1.1440  1.5073
 1783SOL     OW 5404   4.580   0.372   2.026  0.9400 -0.2304  0.6757
 1783SOL    HW1 5405   4.586   0.467   2.025  2.8417 -0.2875 -1.4853
 1783SOL    HW2 5406   4.491   0.354   2.056  0.9147  2.1493  2.3398
 1784SOL     OW 5407   4.918   0.691   4.109 -0.6570 -0.5485  0.4839
 1784SOL    HW1 5408   5.005   0.711   4.074 -0.5223  0.7607  1.4706
 1784SOL    HW2 5409   4.914   0.739   4.193 -1.5864 -2.1847  1.4333
 1785SOL     OW 5410   4.061   1.399   1.085 -0.1886  0.2217 -0.3198
 1785SOL    HW1 5411   4.107   1.469   1.038  0.3410  0.8897  1.1290
 1785SOL    HW2 5412   4.066   1.425   1.177  1.6945 -2.6564  0.5207
 1786SOL     OW 5413   2.866   4.371   3.872 -0.0694 -0.0670 -0.1783
 1786SOL    HW1 5414   2.832   4.329   3.950  0.5902 -0.3647 -0.0495
 1786SOL    HW2 5415   2.906   4.452   3.904 -0.7914  0.3705 -0.3516
 1787SOL     OW 5416   2.456   1.490   3.400 -0.2174  0.2731  0.8486
 1787SOL    HW1 5417   2.459   1.458   3.309 -2.2876 -1.1669  1.2189
 1787SOL    HW2 5418   2.513   1.430   3.448 -0.1349  0.2566  0.7327
 1788SOL     OW 5419   4.353   1.662   4.441  0.0814 -0.1257  0.1638
 1788SOL    HW1 5420   4.325   1.606   4.513 -0.0129  0.6957  0.7937
 1788SOL    HW2 5421   4.431   1.620   4.406 -0.1530 -0.7906  0.4331
 1789SOL     OW 5422   1.306   2.536   1.397 -0.1640 -0.3151  0.2317
 1789SOL    HW1 5423   1.386   2.485   1.391  0.0258  0.0545 -0.5429
 1789SOL    HW2 5424   1.241   2.476   1.433 -0.3534 -1.6151 -2.0687
 1790SOL     OW 5425   3.877   3.914   4.754  0.6832 -0.1181  0.0135
 1790SOL    HW1 5426   3.946   3.966   4.712  0.9047 -0.5700 -0.1925
 1790SOL    HW2 5427   3.845   3.970   4.825  0.5371  0.5203 -0.5420
 1791SOL     OW 5428   2.880   2.024   2.638 -0.1594 -0.3423 -0.0615
 1791SOL    HW1 5429   2.820   2.032   2.563 -1.2401  0.2709  0.8305
 1791SOL    HW2 5430   2.949   2.087   2.620 -0.3544 -0.2782 -0.6000
 1792SOL     OW 5431   0.452   0.026   0.791 -1.0900 -0.2366  0.1616
 1792SOL    HW1 5432   0.542   0.037   0.819 -1.0902 -1.0672  0.5250
 1792SOL    HW2 5433   0.458  -0.023   0.709 -1.1910  0.2430 -0.1400
 1793SOL     OW 5434   3.393   1.658   2.122 -0.0015 -0.2523 -0.2990
 1793SOL    HW1 5435   3.326   1.614   2.070 -0.3224 -1.7395  1.2670
 1793SOL    HW2 5436   3.353   1.670   2.208  0.0849  3.2188 -0.6205
 1794SOL     OW 5437   0.005   1.176   4.761 -0.1991 -0.1852  0.1853
 1794SOL    HW1 5438  -0.076   1.214   4.794  0.4790  1.3198  0.2019
 1794SOL    HW2 5439   0.074   1.229   4.800  0.7692 -1.0385 -0.3259
 1795SOL     OW 5440   1.194   1.158   3.248 -0.1049 -0.1317  0.2685
 1795SOL    HW1 5441   1.129   1.219   3.214  0.1586 -0.5366 -1.0298
 1795SOL    HW2 5442   1.146   1.076   3.260 -0.1251 -0.0754  0.5793
 1796SOL     OW 5443   3.236   2.520   3.705 -0.0797  0.4035 -0.0389
 1796SOL    HW1 5444   3.195   2.497   3.789 -0.8622  2.4136  0.1818
 1796SOL    HW2 5445   3.233   2.615   3.702  0.6187  0.4106 -2.0415
 1797SOL     OW 5446   3.970   3.349   0.890  0.5366  0.2474  0.1398
 1797SOL    HW1 5447   4.024   3.326   0.815 -1.3749 -0.4016 -1.1252
 1797SOL    HW2 5448   3.965   3.444   0.888  1.3991  0.2926  0.1107
 1798SOL     OW 5449   2.247   3.102   0.929 -0.2601  0.1360 -0.0328
 1798SOL    HW1 5450   2.289   3.073   0.848 -0.1455  0.2743 -0.0229
 1798SOL    HW2 5451   2.313   3.086   0.997 -0.2893  0.1886  0.0078
 1799SOL     OW 5452   4.793   1.318   0.131 -0.0409  0.3217 -0.3947
 1799SOL    HW1 5453   4.731   1.336   0.201  0.9807 -0.0291  0.6400
 1799SOL    HW2 5454   4.834   1.403   0.113  0.2541  0.2659 -0.0004
 1800SOL     OW 5455   3.154   3.892   3.215 -0.2856 -0.2561  0.5362
 1800SOL    HW1 5456   3.101   3.836   3.158 -0.2316  0.3506 -0.1288
 1800SOL    HW2 5457   3.149   3.979   3.174  0.1433  0.0877  1.1998
 1801SOL     OW 5458   3.750   0.150   4.730 -0.4936  0.6174  0.2067
 1801SOL    HW1 5459   3.721   0.201   4.806  0.2225  1.9827 -0.3999
 1801SOL    HW2 5460   3.682   0.165   4.665 -0.8734 -0.1817  0.4045
 1802SOL     OW 5461   0.223   0.106   2.369 -0.3772 -0.1075 -0.0392
 1802SOL    HW1 5462   0.158   0.154   2.318 -0.6595 -0.5603 -0.1116
 1802SOL    HW2 5463   0.295   0.090   2.307 -0.8450 -0.9128 -0.3908
 1803SOL     OW 5464   3.017   2.703   2.372  0.4697 -0.2674  0.1913
 1803SOL    HW1 5465   3.061   2.625   2.339 -1.8799 -0.9166 -1.6653
 1803SOL    HW2 5466   2.941   2.670   2.420  0.0243  0.8576  0.3059
 1804SOL     OW 5467   4.764   2.448   3.470  0.5425 -0.4932  0.3158
 1804SOL    HW1 5468   4.791   2.533   3.435 -1.3917 -0.1751 -0.5174
 1804SOL    HW2 5469   4.710   2.410   3.401 -2.5472 -0.3225  2.4457
 1805SOL     OW 5470   1.814   2.412   3.263 -0.5005  0.0306 -0.0770
 1805SOL    HW1 5471   1.776   2.340   3.213 -0.2578  0.9020 -1.6074
 1805SOL    HW2 5472   1.739   2.464   3.291 -0.6041  0.9178 -1.7962
 1806SOL     OW 5473   1.586   0.476   2.550  0.2466 -0.7977  0.2934
 1806SOL    HW1 5474   1.678   0.502   2.544 -0.0750  0.5572  0.8122
 1806SOL    HW2 5475   1.538   0.558   2.554 -0.9215 -1.4813  0.9756
 1807SOL     OW 5476   4.067   2.678   2.170 -0.0144  0.1650 -0.0017
 1807SOL    HW1 5477   4.097   2.744   2.107 -0.4863 -0.3490 -0.7853
 1807SOL    HW2 5478   3.989   2.717   2.209 -0.2236  0.1257 -0.3742
 1808SOL     OW 5479   3.055   1.270   4.485 -0.0557 -0.3104  0.0557
 1808SOL    HW1 5480   2.960   1.265   4.480 -0.2838  0.1082  2.8490
 1808SOL    HW2 5481   3.078   1.351   4.440 -1.1853  0.4435  0.8061
 1809SOL     OW 5482   1.876   0.472   3.729 -0.4060 -0.4435 -0.1989
 1809SOL    HW1 5483   1.911   0.480   3.818 -0.6838 -1.4713  0.0229
 1809SOL    HW2 5484   1.792   0.427   3.741 -0.3034 -0.8611 -1.0021
 1810SOL     OW 5485   3.867   2.800   0.962 -0.9003  0.0116 -0.0222
 1810SOL    HW1 5486   3.805   2.873   0.959 -2.7918 -1.5296  0.3327
 1810SOL    HW2 5487   3.878   2.781   1.055 -1.7733 -1.2541 -0.1633
 1811SOL     OW 5488   4.124   3.163   1.604  0.0022 -0.0212 -0.3934
 1811SOL    HW1 5489   4.057   3.202   1.549  0.5801  0.3295 -0.8670
 1811SOL    HW2 5490   4.124   3.217   1.683  1.8398  2.0230 -1.6468
 1812SOL     OW 5491   2.391   3.730   2.687  0.2397 -0.1446 -0.6092
 1812SOL    HW1 5492   2.360   3.728   2.778  1.4964  1.9325 -0.0616
 1812SOL    HW2 5493   2.461   3.665   2.684  1.4239  1.0335  0.4510
 1813SOL     OW 5494   3.322   3.385   2.140 -0.0408 -0.3664 -0.1707
 1813SOL    HW1 5495   3.271   3.362   2.218  0.0178  1.3342  0.4195
 1813SOL    HW2 5496   3.399   3.430   2.175  0.6790 -0.8293 -1.1605
 1814SOL     OW 5497   3.394   2.549   2.050  0.1421 -0.1632 -0.4433
 1814SOL    HW1 5498   3.485   2.573   2.067  0.3519 -1.8532  1.0439
 1814SOL    HW2 5499   3.400   2.468   2.000 -0.5783  0.4484 -1.5768
 1815SOL     OW 5500   3.257   1.019   2.097  0.4690 -0.0352  0.5917
 1815SOL    HW1 5501   3.238   1.001   2.189 -2.9411  0.3131  0.0735
 1815SOL    HW2 5502   3.262   1.115   2.093 -0.0557 -0.0155  0.3325
 1816SOL     OW 5503   4.684   1.532   0.765 -0.1294 -0.6343 -0.2790
 1816SOL    HW1 5504   4.605   1.565   0.807  0.5134  1.6189 -0.6883
 1816SOL    HW2 5505   4.692   1.584   0.685  1.5377 -1.0738 -0.4389
 1817SOL     OW 5506   0.738   2.641   1.019 -0.6011  0.4036  0.1241
 1817SOL    HW1 5507   0.794   2.578   1.065  0.7398  0.3636 -1.4523
 1817SOL    HW2 5508   0.798   2.688   0.961 -2.1627  0.5119 -1.4929
 1818SOL     OW 5509   2.267   1.423   0.291 -0.4977 -0.0745 -0.3602
 1818SOL    HW1 5510   2.234   1.495   0.345 -1.4041 -0.4477 -0.3979
 1818SOL    HW2 5511   2.340   1.461   0.242 -0.3933  0.5713  0.2801
 1819SOL     OW 5512   4.754   4.768   0.832  0.0576  0.1889 -0.0097
 1819SOL    HW1 5513   4.766   4.679   0.800  3.6173  0.4405  0.1654
 1819SOL    HW2 5514   4.741   4.759   0.926  0.2532 -0.1713 -0.0163
 1820SOL     OW 5515   0.190   0.602   4.250 -0.0470 -0.0036 -0.2251
 1820SOL    HW1 5516   0.095   0.592   4.242 -0.3350  2.1121 -0.0174
 1820SOL    HW2 5517   0.214   0.542   4.321 -1.4097  0.2305  0.4721
 1821SOL     OW 5518   4.859   4.835   4.229  0.1394  0.1436  0.1712
 1821SOL    HW1 5519   4.863   4.842   4.133 -0.4096 -1.0086  0.0499
 1821SOL    HW2 5520   4.784   4.889   4.254 -0.0308  0.0292 -0.0907
 1822SOL     OW 5521   0.336   1.625   1.547 -0.1644  0.1146  0.5918
 1822SOL    HW1 5522   0.244   1.633   1.521 -1.0691 -0.8680  3.2265
 1822SOL    HW2 5523   0.377   1.705   1.515 -1.3272 -0.4272 -2.7009
 1823SOL     OW 5524   2.881   0.872   3.598  0.0622  0.3685  0.0742
 1823SOL    HW1 5525   2.895   0.845   3.688 -1.2146  0.3996  0.3122
 1823SOL    HW2 5526   2.827   0.802   3.560  1.2944 -0.0783 -0.9429
 1824SOL     OW 5527   3.574   4.458   2.669 -0.5550 -0.3166  0.5911
 1824SOL    HW1 5528   3.650   4.483   2.722 -0.1348  0.6143 -0.4173
 1824SOL    HW2 5529   3.532   4.542   2.647  0.2529 -0.5200 -1.9489
 1825SOL     OW 5530   4.360   1.163   4.780 -0.0926 -0.0282  0.1626
 1825SOL    HW1 5531   4.284   1.111   4.754  0.0527  0.4892 -1.4079
 1825SOL    HW2 5532   4.420   1.157   4.706  0.5686  1.1445  0.5714
 1826SOL     OW 5533   0.037   0.106   0.662 -0.3697 -0.8043  0.1431
 1826SOL    HW1 5534   0.099   0.035   0.676 -0.2089 -0.5544  0.7445
 1826SOL    HW2 5535   0.064   0.174   0.724 -0.7476 -0.3681 -0.1610
 1827SOL     OW 5536   1.064   0.064   2.854 -0.2256 -0.0018  0.1158
 1827SOL    HW1 5537   1.024   0.056   2.767 -0.2887 -1.2591  0.2489
 1827SOL    HW2 5538   1.123   0.139   2.845  0.2327 -0.4831 -1.2097
 1828SOL     OW 5539   4.087   0.528   2.584  0.3683 -0.7269 -0.4902
 1828SOL    HW1 5540   4.123   0.601   2.533  1.0074 -0.9360 -0.3451
 1828SOL    HW2 5541   4.120   0.543   2.673 -1.3491  0.0565  0.0630
 1829SOL     OW 5542   3.794   3.137   1.745 -0.3635  0.0030  0.0782
 1829SOL    HW1 5543   3.823   3.227   1.732 -0.7014  0.2587  1.0453
 1829SOL    HW2 5544   3.833   3.111   1.829  0.3024 -0.9944 -0.5157
 1830SOL     OW 5545   4.789   2.267   0.869 -0.8133 -0.5268  0.0237
 1830SOL    HW1 5546   4.872   2.241   0.907  0.9212  2.6535 -1.2266
 1830SOL    HW2 5547   4.742   2.310   0.941 -0.2361 -0.0675  0.1337
 1831SOL     OW 5548   4.340   3.091   0.946  0.0473  0.1036  0.5078
 1831SOL    HW1 5549   4.422   3.066   0.904  0.6430  1.7289  0.6257
 1831SOL    HW2 5550   4.272   3.060   0.887  0.7967 -0.0269 -0.2981
 1832SOL     OW 5551   0.069   0.896   3.654 -0.2472  0.0575  0.4094
 1832SOL    HW1 5552   0.091   0.922   3.565 -0.5139  2.4149  0.9561
 1832SOL    HW2 5553   0.083   0.801   3.656  1.0335  0.1323 -1.7522
 1833SOL     OW 5554   4.347   2.464   2.922 -0.1731  0.1947  0.0640
 1833SOL    HW1 5555   4.384   2.470   2.834  1.0884  1.1190  0.6197
 1833SOL    HW2 5556   4.260   2.426   2.909 -0.1627  0.6492 -1.6099
 1834SOL     OW 5557   0.151   3.206   3.721 -0.4036 -0.1633 -0.1487
 1834SOL    HW1 5558   0.229   3.261   3.724  0.0471 -0.8249  2.0512
 1834SOL    HW2 5559   0.104   3.235   3.643  0.4840  2.3956  0.1741
 1835SOL     OW 5560   0.992   2.525   4.716 -0.6570  0.6206  0.1509
 1835SOL    HW1 5561   1.029   2.444   4.750  0.5684  0.7664 -0.7604
 1835SOL    HW2 5562   1.034   2.594   4.767  1.2031  0.8400 -1.5631
 1836SOL     OW 5563   1.136   3.188   2.400  0.2719  0.6586 -0.1035
 1836SOL    HW1 5564   1.224   3.198   2.365  1.3386 -0.4032  2.0924
 1836SOL    HW2 5565   1.111   3.099   2.376  0.3902  0.4654  0.4700
 1837SOL     OW 5566   1.691   4.496   2.997 -0.0966  0.3338 -0.1127
 1837SOL    HW1 5567   1.699   4.443   3.076  1.4781  0.4971 -0.1308
 1837SOL    HW2 5568   1.665   4.434   2.929 -0.9111  0.0925  0.4060
 1838SOL     OW 5569   4.708   1.385   2.717  0.5186 -0.6875  0.5226
 1838SOL    HW1 5570   4.728   1.340   2.800  0.0422  2.1013  2.2766
 1838SOL    HW2 5571   4.619   1.417   2.729  1.1113  1.3789 -0.2852
 1839SOL     OW 5572   4.176   2.993   3.719 -0.3026 -0.3448  0.2400
 1839SOL    HW1 5573   4.234   2.923   3.750 -0.3181 -1.5920 -2.2432
 1839SOL    HW2 5574   4.224   3.032   3.646 -0.9884  1.2011  0.5885
 1840SOL     OW 5575   0.882   2.747   0.343 -0.0610 -0.5831  0.1930
 1840SOL    HW1 5576   0.860   2.691   0.417  0.3513  0.0699  0.8283
 1840SOL    HW2 5577   0.976   2.731   0.328 -0.4805 -1.9767 -1.3060
 1841SOL     OW 5578   2.106   0.995   4.053  0.1808  0.0858  0.2879
 1841SOL    HW1 5579   2.034   1.011   4.114 -0.1287 -1.3870  0.3518
 1841SOL    HW2 5580   2.114   0.899   4.050  2.3188  0.2100  0.4851
 1842SOL     OW 5581   0.007   4.309   1.108 -0.1569 -0.9500 -0.6962
 1842SOL    HW1 5582  -0.063   4.271   1.055  0.3240 -0.7564 -1.4875
 1842SOL    HW2 5583  -0.016   4.287   1.198 -1.9336  0.2514 -0.8105
 1843SOL     OW 5584   1.291   2.253   3.936  0.2089  0.3253 -0.6501
 1843SOL    HW1 5585   1.235   2.330   3.943 -2.0914 -1.1652 -1.3943
 1843SOL    HW2 5586   1.298   2.237   3.841  0.6388 -0.3825 -0.5124
 1844SOL     OW 5587   1.263   4.954   3.086  0.4551 -0.7591  0.1173
 1844SOL    HW1 5588   1.235   4.988   3.171  2.3371  1.6811 -0.1682
 1844SOL    HW2 5589   1.190   4.974   3.027  0.1098 -0.3826  0.6650
 1845SOL     OW 5590   3.155   2.078   0.802  0.0742 -0.4822 -0.3272
 1845SOL    HW1 5591   3.155   2.002   0.745 -0.6458  0.1328 -1.1854
 1845SOL    HW2 5592   3.247   2.102   0.810  0.1927 -0.5757 -1.2540
 1846SOL     OW 5593   2.803   4.789   2.504 -0.1762 -0.1019 -0.0570
 1846SOL    HW1 5594   2.755   4.776   2.422  0.8401  4.1836 -1.6103
 1846SOL    HW2 5595   2.736   4.812   2.568 -0.7064  1.3848 -1.0637
 1847SOL     OW 5596   1.220   0.909   4.206 -0.4830  0.8692 -0.1942
 1847SOL    HW1 5597   1.199   0.820   4.233  0.1473  0.0486 -2.2681
 1847SOL    HW2 5598   1.315   0.915   4.217 -0.3035  0.7264 -1.5499
 1848SOL     OW 5599   2.347   0.819   4.339 -0.2239  0.1319 -0.3885
 1848SOL    HW1 5600   2.284   0.761   4.380 -1.5051  0.6665 -1.5380
 1848SOL    HW2 5601   2.302   0.904   4.335  1.2240  0.9805  0.3450
 1849SOL     OW 5602   2.947   2.441   2.603 -0.0596  0.3690  0.0578
 1849SOL    HW1 5603   2.865   2.489   2.585 -0.1855 -0.0947 -0.6429
 1849SOL    HW2 5604   2.954   2.378   2.531  1.6041  1.2942 -0.6657
 1850SOL     OW 5605   4.412   1.306   1.931  0.2167 -0.6000  0.1621
 1850SOL    HW1 5606   4.356   1.265   1.998  0.5382  0.4345  1.0999
 1850SOL    HW2 5607   4.443   1.386   1.973  1.3509 -0.5048 -0.8310
 1851SOL     OW 5608   2.840   1.355   4.693 -0.4384 -0.0193  0.0411
 1851SOL    HW1 5609   2.783   1.397   4.630 -0.9424 -2.8681 -1.5543
 1851SOL    HW2 5610   2.789   1.282   4.728  1.5204 -1.5740 -0.1023
 1852SOL     OW 5611   1.281   3.464   4.208 -0.1152  0.3881 -0.5656
 1852SOL    HW1 5612   1.224   3.456   4.131 -1.0413  1.1171  0.0246
 1852SOL    HW2 5613   1.249   3.397   4.269 -1.9346  2.2657  0.7037
 1853SOL     OW 5614   3.383   4.667   0.375 -0.2352 -0.2689 -0.2583
 1853SOL    HW1 5615   3.396   4.665   0.470 -1.7223  1.3214  0.0206
 1853SOL    HW2 5616   3.464   4.705   0.341  0.0972 -0.3439  0.4222
 1854SOL     OW 5617   1.507   3.285   4.964  0.0289  0.0569 -0.6746
 1854SOL    HW1 5618   1.523   3.315   4.875  0.2889  1.2113 -0.2684
 1854SOL    HW2 5619   1.420   3.245   4.961 -0.7400  1.6757 -1.1060
 1855SOL     OW 5620   4.583   1.930   3.000 -0.4085  0.0894 -0.6263
 1855SOL    HW1 5621   4.508   1.986   2.982  0.5263  1.8323  0.6061
 1855SOL    HW2 5622   4.655   1.968   2.950  0.4789  0.6628  1.0079
 1856SOL     OW 5623   3.397   0.625   4.472  0.2056 -0.2034 -0.0727
 1856SOL    HW1 5624   3.451   0.703   4.487 -2.5933  1.4048  2.8050
 1856SOL    HW2 5625   3.435   0.558   4.528  1.4081 -0.3574 -1.0155
 1857SOL     OW 5626   1.506   2.290   3.187 -0.3793 -0.1526 -0.5251
 1857SOL    HW1 5627   1.579   2.234   3.161  0.7305  0.1997  1.5712
 1857SOL    HW2 5628   1.472   2.326   3.105  1.3508 -0.8791 -1.6128
 1858SOL     OW 5629   0.705   4.874   3.206  0.2803 -0.3275 -0.1353
 1858SOL    HW1 5630   0.728   4.942   3.142 -1.3865  0.1089 -0.3175
 1858SOL    HW2 5631   0.681   4.798   3.152  1.3568 -0.8166  0.0519
 1859SOL     OW 5632   1.146   3.914   3.336 -0.3784  0.4707 -0.4952
 1859SOL    HW1 5633   1.141   3.986   3.274 -2.0845  2.8052  2.0981
 1859SOL    HW2 5634   1.088   3.847   3.300 -0.2465  1.1410 -2.0466
 1860SOL     OW 5635   4.451   4.449   0.510 -0.2231 -0.1170 -0.0440
 1860SOL    HW1 5636   4.470   4.537   0.476  0.1577 -0.1561  0.0567
 1860SOL    HW2 5637   4.470   4.391   0.436 -2.0287 -0.0050 -0.6343
 1861SOL     OW 5638   1.123   2.496   1.909  0.0249  0.1936  0.1752
 1861SOL    HW1 5639   1.074   2.414   1.907 -1.4909  1.0552  0.1606
 1861SOL    HW2 5640   1.059   2.562   1.882  1.4515  1.2689 -0.6997
 1862SOL     OW 5641   1.380   2.183   4.178 -0.3171  0.7785 -0.2557
 1862SOL    HW1 5642   1.343   2.169   4.091 -0.6476 -0.1731  0.0271
 1862SOL    HW2 5643   1.473   2.198   4.163 -0.1531 -0.5640 -0.6942
 1863SOL     OW 5644   2.853   0.259   2.516  0.0191 -0.1751  0.5889
 1863SOL    HW1 5645   2.902   0.224   2.441 -0.3417 -1.0830  0.7713
 1863SOL    HW2 5646   2.769   0.215   2.513 -0.5147  0.8157  0.7327
 1864SOL     OW 5647   2.570   1.722   4.416  0.3625  0.3703  0.0402
 1864SOL    HW1 5648   2.656   1.717   4.375  0.5597 -0.4742  0.5238
 1864SOL    HW2 5649   2.534   1.806   4.386 -0.0107 -0.7036 -2.7717
 1865SOL     OW 5650   3.952   4.088   0.994  0.0087 -0.5602  0.1153
 1865SOL    HW1 5651   4.035   4.076   0.949 -0.3912 -0.6415 -0.6091
 1865SOL    HW2 5652   3.949   4.017   1.059  0.5955 -0.4241  0.2962
 1866SOL     OW 5653   1.727   1.597   4.347 -0.2902  0.6423  0.0513
 1866SOL    HW1 5654   1.648   1.637   4.384 -0.1831  0.1711  0.8344
 1866SOL    HW2 5655   1.763   1.663   4.289 -0.9881  1.0582  0.0762
 1867SOL     OW 5656   1.521   2.876   4.415 -0.2190  0.1240  0.2753
 1867SOL    HW1 5657   1.427   2.889   4.431 -0.5434 -0.3625 -1.0567
 1867SOL    HW2 5658   1.531   2.781   4.409  0.0314  0.2315 -1.2823
 1868SOL     OW 5659   4.196   3.649   1.173 -0.0048  0.2915  0.6626
 1868SOL    HW1 5660   4.234   3.564   1.196 -0.6432 -0.3471 -0.5640
 1868SOL    HW2 5661   4.106   3.630   1.148 -0.6589  1.5696  1.9189
 1869SOL     OW 5662   4.687   4.450   1.091  0.0458 -0.5051 -0.3254
 1869SOL    HW1 5663   4.730   4.533   1.115 -0.2832 -0.3825 -0.1503
 1869SOL    HW2 5664   4.610   4.446   1.147  0.1415 -1.0088 -0.2258
 1870SOL     OW 5665   0.732   1.203   1.578  0.0528  0.0099  0.2117
 1870SOL    HW1 5666   0.811   1.165   1.539 -2.5291 -2.6208 -3.0280
 1870SOL    HW2 5667   0.751   1.297   1.581  2.6362 -0.2622 -2.2440
 1871SOL     OW 5668   1.511   3.034   0.976 -0.1556  0.1092 -0.3449
 1871SOL    HW1 5669   1.601   3.066   0.977  0.0329 -0.4004  0.0335
 1871SOL    HW2 5670   1.479   3.051   1.065 -1.1188  2.1020 -1.0218
 1872SOL     OW 5671   4.656   3.095   4.532 -0.2190  1.0343  0.1619
 1872SOL    HW1 5672   4.663   3.177   4.580 -0.2449  0.1913  1.6603
 1872SOL    HW2 5673   4.568   3.098   4.493 -0.5707  1.3271  0.9617
 1873SOL     OW 5674   4.677   4.095   4.897  0.3746  0.1694  0.3346
 1873SOL    HW1 5675   4.600   4.112   4.844  0.9357  0.3363 -0.4441
 1873SOL    HW2 5676   4.750   4.094   4.835  1.1899  1.4025  1.2165
 1874SOL     OW 5677   0.757   1.215   2.624 -0.1384 -0.2483 -0.2642
 1874SOL    HW1 5678   0.681   1.212   2.566  0.7652 -0.9346 -1.4655
 1874SOL    HW2 5679   0.774   1.309   2.636 -0.4355 -0.0914 -1.0089
 1875SOL     OW 5680   1.362   0.213   1.621 -0.6472  0.4643 -0.7121
 1875SOL    HW1 5681   1.425   0.149   1.588 -0.6314  0.0731  0.0420
 1875SOL    HW2 5682   1.410   0.295   1.627  0.0750 -0.0425  0.7573
 1876SOL     OW 5683   4.177   2.700   2.776  0.4883 -0.0458  0.0070
 1876SOL    HW1 5684   4.193   2.629   2.714 -2.1862 -2.2864  1.7083
 1876SOL    HW2 5685   4.245   2.690   2.843  0.4953 -0.6162 -0.0836
 1877SOL     OW 5686   1.409   4.357   1.986 -0.1666  0.6550 -0.5371
 1877SOL    HW1 5687   1.341   4.343   2.053 -1.7788  1.7546 -1.8854
 1877SOL    HW2 5688   1.371   4.322   1.906  0.7416  1.5658 -1.3850
 1878SOL     OW 5689   2.520   0.305   3.187  0.3489 -0.0598 -0.1076
 1878SOL    HW1 5690   2.613   0.303   3.209 -0.1818  0.4960  2.4691
 1878SOL    HW2 5691   2.506   0.391   3.148  0.6200  0.6158  1.2088
 1879SOL     OW 5692   0.016   3.810   2.521  0.2286  0.2793  0.0221
 1879SOL    HW1 5693  -0.008   3.901   2.540 -0.3766  0.3882 -1.1241
 1879SOL    HW2 5694   0.072   3.816   2.443  0.3343 -0.3118  0.0514
 1880SOL     OW 5695   4.473   0.899   2.912  0.1757  0.5555  0.0447
 1880SOL    HW1 5696   4.493   0.909   2.819 -1.7383  0.2970 -0.4377
 1880SOL    HW2 5697   4.427   0.980   2.935 -0.1641  0.2337  0.5172
 1881SOL     OW 5698   4.005   2.507   1.676  0.3806  0.2967 -0.0276
 1881SOL    HW1 5699   3.948   2.583   1.667 -0.1101  0.1602  1.6985
 1881SOL    HW2 5700   4.093   2.544   1.686  0.4523  0.5432 -1.3325
 1882SOL     OW 5701   0.944   4.474   1.118  0.1501 -0.3712  0.4634
 1882SOL    HW1 5702   0.956   4.386   1.155  1.6320 -1.1700 -1.7520
 1882SOL    HW2 5703   0.856   4.473   1.082  0.0440 -0.8187  0.7237
 1883SOL     OW 5704   4.738   4.772   3.219 -0.2559  0.1045 -0.2585
 1883SOL    HW1 5705   4.831   4.751   3.214  0.2295  2.2246 -3.3155
 1883SOL    HW2 5706   4.727   4.817   3.302  1.3753 -0.4397  0.2751
 1884SOL     OW 5707   1.759   0.632   1.986 -0.1070  0.2318  0.4276
 1884SOL    HW1 5708   1.729   0.717   2.017 -1.4612  0.5124 -1.4296
 1884SOL    HW2 5709   1.747   0.636   1.891  0.2918 -1.8471  0.2436
 1885SOL     OW 5710   4.205   2.877   1.197  0.3861 -0.2771 -0.1826
 1885SOL    HW1 5711   4.221   2.797   1.147  1.0587 -0.4325  0.2622
 1885SOL    HW2 5712   4.288   2.925   1.193 -0.0423  0.4471 -0.5262
 1886SOL     OW 5713   3.166   2.602   4.450  0.2661  0.3504 -0.3780
 1886SOL    HW1 5714   3.081   2.628   4.487 -0.1983 -2.3217  0.6586
 1886SOL    HW2 5715   3.230   2.638   4.511 -0.1371  1.6187 -0.6677
 1887SOL     OW 5716   3.030   0.861   2.583 -0.1282 -0.7938  0.3133
 1887SOL    HW1 5717   3.099   0.908   2.630  1.2339 -1.4377 -0.9643
 1887SOL    HW2 5718   3.020   0.779   2.632 -1.9242  0.3660  2.0558
 1888SOL     OW 5719   0.223   4.078   2.618 -0.8326 -0.2905 -0.7217
 1888SOL    HW1 5720   0.191   4.034   2.697 -2.1996 -0.4015 -1.3072
 1888SOL    HW2 5721   0.299   4.026   2.591  0.0811  0.1498  0.8798
 1889SOL     OW 5722   4.242   2.493   4.661  0.0228 -0.4836  0.2638
 1889SOL    HW1 5723   4.268   2.536   4.580 -0.1422  0.4041  0.6750
 1889SOL    HW2 5724   4.199   2.412   4.633  0.5466 -0.4966 -0.5071
 1890SOL     OW 5725   4.022   2.114   0.222 -0.2106 -0.5801  0.2144
 1890SOL    HW1 5726   4.113   2.095   0.243  0.7931  1.6555 -1.6721
 1890SOL    HW2 5727   3.996   2.181   0.284  0.2451  0.4609 -0.6793
 1891SOL     OW 5728   2.947   4.449   2.829 -0.0327  0.0144  0.2190
 1891SOL    HW1 5729   2.988   4.375   2.783  0.0555  0.2369 -0.0589
 1891SOL    HW2 5730   2.854   4.428   2.828 -0.3760  1.2732 -2.4018
 1892SOL     OW 5731   2.245   2.983   0.473  0.2159  0.2704  0.5385
 1892SOL    HW1 5732   2.292   2.978   0.390  1.1911  0.7980  1.0345
 1892SOL    HW2 5733   2.153   2.974   0.450  0.5193 -0.1947 -0.5272
 1893SOL     OW 5734   4.148   3.228   0.398  0.1315  0.4075  0.2540
 1893SOL    HW1 5735   4.241   3.221   0.417 -0.0410 -0.5022  0.8047
 1893SOL    HW2 5736   4.105   3.201   0.479 -0.6114 -1.5318 -0.7171
 1894SOL     OW 5737   4.929   3.126   4.755 -0.3723  0.0491 -0.4725
 1894SOL    HW1 5738   4.931   3.132   4.659 -1.4656 -2.7303 -0.7630
 1894SOL    HW2 5739   4.985   3.051   4.776 -2.3133 -1.1246  0.7978
 1895SOL     OW 5740   1.642   4.418   4.630  0.5165 -0.4197 -0.6616
 1895SOL    HW1 5741   1.549   4.395   4.633  0.6474 -0.8896  0.1909
 1895SOL    HW2 5742   1.662   4.425   4.537 -0.6214  0.7345 -0.8553
 1896SOL     OW 5743   2.665   2.016   3.501 -0.1702  0.1213  0.1240
 1896SOL    HW1 5744   2.627   1.998   3.587  2.7439  1.5723  1.8917
 1896SOL    HW2 5745   2.650   2.110   3.487  1.4335  0.4360  0.2589
 1897SOL     OW 5746   3.726   1.895   3.640 -0.0240 -0.4912  0.1157
 1897SOL    HW1 5747   3.791   1.924   3.704 -1.4057  0.8911  0.9235
 1897SOL    HW2 5748   3.775   1.834   3.584  2.1380  0.9507  0.3097
 1898SOL     OW 5749   1.629   0.827   3.444  0.3132 -0.1733 -0.1591
 1898SOL    HW1 5750   1.695   0.759   3.458 -0.3109 -0.7228  0.1838
 1898SOL    HW2 5751   1.609   0.859   3.532  0.9248  0.7681 -0.3596
 1899SOL     OW 5752   1.345   4.074   2.284  0.6068  0.5929 -0.3024
 1899SOL    HW1 5753   1.393   4.007   2.235  1.6810  1.6504 -0.7318
 1899SOL    HW2 5754   1.412   4.136   2.312 -0.2724  1.1043  0.7456
 1900SOL     OW 5755   2.984   2.913   4.060  0.6074  0.1643 -0.3550
 1900SOL    HW1 5756   3.035   2.886   4.136  0.1162  1.2461  0.3903
 1900SOL    HW2 5757   2.966   3.006   4.075  0.5617  0.4228 -1.8366
 1901SOL     OW 5758   3.602   1.369   3.082 -0.0434 -0.4320  0.5260
 1901SOL    HW1 5759   3.507   1.381   3.084 -0.0202 -0.3141  1.1121
 1901SOL    HW2 5760   3.636   1.445   3.036 -0.2362 -0.4970  0.2775
 1902SOL     OW 5761   3.285   1.909   4.522 -0.5791  0.2774 -0.2158
 1902SOL    HW1 5762   3.220   1.859   4.572 -0.4346  0.4936  0.1980
 1902SOL    HW2 5763   3.259   2.001   4.535  0.1399  0.4043  0.4425
 1903SOL     OW 5764   1.163   2.588   3.289 -0.4494  0.2349  0.0715
 1903SOL    HW1 5765   1.118   2.533   3.224  0.3164 -1.3828  0.8587
 1903SOL    HW2 5766   1.116   2.572   3.371 -0.4521  1.0626  0.2395
 1904SOL     OW 5767   4.065   4.549   4.856 -0.4022 -0.4277  0.2268
 1904SOL    HW1 5768   4.130   4.604   4.812  0.0834 -2.2533 -1.4953
 1904SOL    HW2 5769   4.032   4.491   4.787 -0.0672 -3.0559  2.1351
 1905SOL     OW 5770   1.784   2.366   4.506  0.7403 -0.4512 -0.0966
 1905SOL    HW1 5771   1.786   2.383   4.600  0.1373 -0.6121 -0.0484
 1905SOL    HW2 5772   1.773   2.452   4.465 -1.7839 -0.5878  0.1210
 1906SOL     OW 5773   0.296   3.982   1.461 -0.0237 -0.0160  0.2615
 1906SOL    HW1 5774   0.302   4.073   1.432  1.2277 -0.1650  0.0063
 1906SOL    HW2 5775   0.209   3.953   1.431 -0.1383  0.8700 -0.2978
 1907SOL     OW 5776   1.815   1.610   0.340 -0.8057  0.0575  0.5346
 1907SOL    HW1 5777   1.746   1.590   0.402  1.0650 -1.0063  2.4139
 1907SOL    HW2 5778   1.874   1.669   0.388  0.0530  0.2208 -0.6729
 1908SOL     OW 5779   3.216   0.307   4.305 -0.1432  0.3549 -0.2272
 1908SOL    HW1 5780   3.182   0.266   4.225  1.5464 -1.4906 -0.0687
 1908SOL    HW2 5781   3.161   0.272   4.375  1.2977 -1.8386 -0.0896
 1909SOL     OW 5782   1.272   1.044   2.927 -0.2065  0.3242  0.1420
 1909SOL    HW1 5783   1.347   1.021   2.983 -0.5727  0.3112  0.6399
 1909SOL    HW2 5784   1.235   1.122   2.968 -0.0460  0.7529 -0.5129
 1910SOL     OW 5785   3.089   3.202   3.113 -0.2685 -0.2381 -0.1469
 1910SOL    HW1 5786   3.149   3.153   3.170 -0.5210 -0.7306 -0.2952
 1910SOL    HW2 5787   3.033   3.134   3.074  0.7775 -0.0651 -2.0552
 1911SOL     OW 5788   4.346   1.869   3.223 -0.4597 -0.5545 -0.1656
 1911SOL    HW1 5789   4.404   1.882   3.298  0.7915 -1.3828 -0.9546
 1911SOL    HW2 5790   4.366   1.943   3.165  1.2753 -1.8531 -1.3113
 1912SOL     OW 5791   4.597   4.501   3.207  0.0864  0.1211  0.1550
 1912SOL    HW1 5792   4.636   4.587   3.220 -0.2804  0.3383 -0.1759
 1912SOL    HW2 5793   4.514   4.518   3.163  0.0870 -0.4116 -0.0630
 1913SOL     OW 5794   3.707   4.899   2.170 -0.0669 -0.4459 -0.4502
 1913SOL    HW1 5795   3.692   4.869   2.260  0.9044 -1.6078 -0.6390
 1913SOL    HW2 5796   3.764   4.975   2.179  0.0800 -0.5969 -0.0857
 1914SOL     OW 5797   0.507   0.400   4.907 -0.2990 -0.2619  0.6362
 1914SOL    HW1 5798   0.510   0.453   4.827 -0.2290 -0.6943  0.3481
 1914SOL    HW2 5799   0.523   0.310   4.877 -1.1639 -0.5518  1.0240
 1915SOL     OW 5800   4.359   3.026   0.273  0.8488  0.2136  0.1008
 1915SOL    HW1 5801   4.390   2.937   0.294 -1.4108 -0.5679  0.4492
 1915SOL    HW2 5802   4.364   3.073   0.356 -0.8292 -0.5663  0.6944
 1916SOL     OW 5803   4.788   4.866   1.565 -0.0333 -0.2054  0.2025
 1916SOL    HW1 5804   4.801   4.899   1.476 -1.0228 -1.0142 -0.2685
 1916SOL    HW2 5805   4.699   4.894   1.588  0.3153  0.2376  1.0545
 1917SOL     OW 5806   0.621   0.670   4.030  0.2298 -0.0563 -0.1871
 1917SOL    HW1 5807   0.560   0.715   4.088 -0.9736  0.7021 -1.9702
 1917SOL    HW2 5808   0.635   0.731   3.957  2.3611 -0.6226 -0.3157
 1918SOL     OW 5809   4.283   4.743   3.676 -0.0932 -0.2551  0.8404
 1918SOL    HW1 5810   4.199   4.740   3.631  0.2230 -0.1518  0.2277
 1918SOL    HW2 5811   4.300   4.837   3.688 -0.0690 -0.2757  0.9591
 1919SOL     OW 5812   1.743   0.440   2.173 -0.3228 -0.3190  0.3897
 1919SOL    HW1 5813   1.814   0.427   2.237  0.1577  1.0004  0.1526
 1919SOL    HW2 5814   1.774   0.511   2.117 -1.4565 -0.3440 -0.2915
 1920SOL     OW 5815   1.508   4.432   3.581  0.1010 -0.6455  0.7282
 1920SOL    HW1 5816   1.508   4.336   3.578 -1.8162 -0.7138  1.4013
 1920SOL    HW2 5817   1.552   4.453   3.664  3.0936 -0.7713 -0.7070
 1921SOL     OW 5818   4.227   1.528   3.265  0.0619  0.1245 -0.5944
 1921SOL    HW1 5819   4.208   1.444   3.306  1.5526  0.7219  1.5530
 1921SOL    HW2 5820   4.178   1.591   3.318  0.8338  0.8013 -0.6676
 1922SOL     OW 5821   0.532   3.725   2.289  0.5469  0.2222 -0.0575
 1922SOL    HW1 5822   0.621   3.760   2.286  1.2427 -1.4117  0.4248
 1922SOL    HW2 5823   0.537   3.651   2.349 -1.1354  0.0489 -0.0778
 1923SOL     OW 5824   3.931   0.127   2.192 -0.4438  0.5011  0.2809
 1923SOL    HW1 5825   3.974   0.165   2.268 -1.9109 -0.7856  1.8395
 1923SOL    HW2 5826   3.876   0.197   2.158  1.0998  1.4445 -0.3411
 1924SOL     OW 5827   0.049   3.933   1.325 -0.0365  0.0800  0.1579
 1924SOL    HW1 5828   0.026   4.026   1.322 -2.2205 -0.3741  0.8210
 1924SOL    HW2 5829   0.023   3.899   1.239 -1.0508 -0.2514  0.5743
 1925SOL     OW 5830   2.224   1.609   0.016  0.2934  0.2058  0.4693
 1925SOL    HW1 5831   2.166   1.557   0.073 -1.0049  1.2438  0.1522
 1925SOL    HW2 5832   2.211   1.571  -0.071 -1.9507  2.0096 -0.0761
 1926SOL     OW 5833   0.673   4.395   3.450  0.3446  0.0327  0.3372
 1926SOL    HW1 5834   0.639   4.423   3.365  1.8582 -0.4606 -0.4672
 1926SOL    HW2 5835   0.768   4.403   3.442  0.7182 -2.6116  1.0142
 1927SOL     OW 5836   4.541   1.183   2.204  0.5227 -0.1321 -0.2639
 1927SOL    HW1 5837   4.448   1.193   2.187  0.8806 -0.2534 -2.6898
 1927SOL    HW2 5838   4.552   1.205   2.296 -2.0162 -1.0107  0.3211
 1928SOL     OW 5839   2.981   3.837   2.996 -0.0893  0.0252 -0.0967
 1928SOL    HW1 5840   3.023   3.917   2.964 -0.1042 -0.8624 -2.6256
 1928SOL    HW2 5841   2.895   3.866   3.027  1.3158  1.4883  2.7674
 1929SOL     OW 5842   0.986   0.420   3.808  0.4625  0.2624  0.2539
 1929SOL    HW1 5843   1.023   0.394   3.723 -1.2273  0.4771 -0.5825
 1929SOL    HW2 5844   0.950   0.339   3.844 -2.0350  0.7696 -0.9319
 1930SOL     OW 5845   4.564   0.929   2.005  0.1220 -0.5881  0.7765
 1930SOL    HW1 5846   4.510   0.928   1.927  1.6800 -1.2979 -0.3509
 1930SOL    HW2 5847   4.558   1.019   2.037 -1.3454 -0.5455  0.4566
 1931SOL     OW 5848   4.499   0.737   3.643 -0.6171  0.1898 -0.0784
 1931SOL    HW1 5849   4.570   0.801   3.649 -0.5559  0.0379  1.1752
 1931SOL    HW2 5850   4.536   0.664   3.593  0.6118 -0.4946  1.7357
 1932SOL     OW 5851   3.508   4.650   4.019 -0.0404  0.2570 -0.2166
 1932SOL    HW1 5852   3.440   4.716   4.034 -0.5613 -0.4611  0.6557
 1932SOL    HW2 5853   3.460   4.569   4.001  0.5660 -0.3655  0.8731
 1933SOL     OW 5854   1.211   1.455   2.826 -0.2889  0.1831  0.0348
 1933SOL    HW1 5855   1.235   1.447   2.734 -0.8640  1.1676 -0.2189
 1933SOL    HW2 5856   1.288   1.492   2.868  0.6798 -2.0588  0.3410
 1934SOL     OW 5857   1.926   1.229   2.153 -0.6015  0.3517 -0.1068
 1934SOL    HW1 5858   1.871   1.199   2.224  0.5503 -0.0340  0.6603
 1934SOL    HW2 5859   1.901   1.321   2.139  0.9683  1.3265  2.6851
 1935SOL     OW 5860   2.927   4.766   4.231 -0.3952 -0.2166 -0.1108
 1935SOL    HW1 5861   2.930   4.677   4.265 -1.2981  0.4352  1.8348
 1935SOL    HW2 5862   2.835   4.793   4.241  0.0299  1.2300  0.2251
 1936SOL     OW 5863   1.509   0.908   1.594  0.3041  0.3717  0.5652
 1936SOL    HW1 5864   1.502   0.867   1.508 -0.5084 -1.5850  1.5071
 1936SOL    HW2 5865   1.588   0.870   1.633  0.1823  0.5695  1.0181
 1937SOL     OW 5866   2.841   2.146   1.865 -0.0760 -0.5131  0.1632
 1937SOL    HW1 5867   2.802   2.188   1.788  0.2716 -0.9106 -0.2380
 1937SOL    HW2 5868   2.917   2.201   1.886 -1.1927  0.6285  1.3367
 1938SOL     OW 5869   4.360   3.649   2.074  0.2236 -0.2865 -0.2568
 1938SOL    HW1 5870   4.283   3.695   2.108 -1.3230 -2.4262 -0.6842
 1938SOL    HW2 5871   4.363   3.673   1.981 -0.5218 -0.9343 -0.4572
 1939SOL     OW 5872   2.319   1.970   1.844  0.2223  0.1916 -0.3301
 1939SOL    HW1 5873   2.238   1.947   1.889  0.9105 -1.8032 -0.0106
 1939SOL    HW2 5874   2.385   1.911   1.881  1.8597  1.8150 -0.5192
 1940SOL     OW 5875   1.734   4.326   0.340 -0.1835  0.2743  0.3162
 1940SOL    HW1 5876   1.770   4.305   0.254 -1.5694 -0.9763  0.0018
 1940SOL    HW2 5877   1.785   4.272   0.401  1.6452  2.0909  0.4789
 1941SOL     OW 5878   4.185   3.071   4.226  0.2083 -0.1249  0.4633
 1941SOL    HW1 5879   4.117   3.005   4.218  0.1844 -0.0248 -0.3088
 1941SOL    HW2 5880   4.169   3.114   4.310  1.2190 -2.1797  1.7957
 1942SOL     OW 5881   1.638   2.778   0.991 -0.5008 -1.0608 -0.0239
 1942SOL    HW1 5882   1.603   2.866   0.982 -0.5153 -1.2358 -2.3895
 1942SOL    HW2 5883   1.711   2.775   0.929  0.1330 -2.4075  0.7422
 1943SOL     OW 5884   0.678   0.671   2.218 -0.4030 -0.4091 -0.5119
 1943SOL    HW1 5885   0.616   0.600   2.204  0.8786 -1.7068  0.0597
 1943SOL    HW2 5886   0.726   0.678   2.135 -1.8057  1.1623 -1.2467
 1944SOL     OW 5887   1.770   0.469   1.613 -0.3241 -0.1235 -0.6970
 1944SOL    HW1 5888   1.787   0.412   1.687 -0.4204 -0.0383 -0.6083
 1944SOL    HW2 5889   1.856   0.485   1.574 -0.1536  0.5319 -0.0859
 1945SOL     OW 5890   0.690   2.331   3.098 -0.4365 -0.2785 -0.1309
 1945SOL    HW1 5891   0.698   2.425   3.079 -1.4603 -0.1457  0.0123
 1945SOL    HW2 5892   0.691   2.327   3.194  1.1539 -0.5857 -0.1361
 1946SOL     OW 5893   0.796   1.810   0.111 -0.2870 -0.2890  0.1579
 1946SOL    HW1 5894   0.768   1.887   0.062  0.2699 -0.4808 -0.4748
 1946SOL    HW2 5895   0.793   1.838   0.203 -0.3478  0.4030 -0.0500
 1947SOL     OW 5896   1.319   2.827   2.566 -0.6690 -0.0863 -0.4443
 1947SOL    HW1 5897   1.266   2.894   2.525 -1.7937  0.7897  2.2100
 1947SOL    HW2 5898   1.382   2.875   2.621 -0.1938 -1.1714  0.0035
 1948SOL     OW 5899   1.815   2.796   3.049  0.3289  0.0530  0.5384
 1948SOL    HW1 5900   1.894   2.832   3.009 -0.4184  1.2851  0.1221
 1948SOL    HW2 5901   1.789   2.862   3.114 -0.3842 -0.3162  0.6350
 1949SOL     OW 5902   3.531   4.384   2.068 -0.0993 -0.2987 -0.9521
 1949SOL    HW1 5903   3.483   4.466   2.081  1.2398  0.3465  0.1698
 1949SOL    HW2 5904   3.530   4.342   2.154  2.1902  0.2410 -0.5941
 1950SOL     OW 5905   4.246   3.666   4.466  0.5906 -0.7792  0.4747
 1950SOL    HW1 5906   4.195   3.591   4.496 -0.9040 -0.0441 -0.1293
 1950SOL    HW2 5907   4.194   3.704   4.395  2.7615 -0.9366 -1.3227
 1951SOL     OW 5908   4.381   4.621   1.189 -0.0678 -0.3103  0.5150
 1951SOL    HW1 5909   4.393   4.552   1.124 -1.1278  0.0895 -0.1396
 1951SOL    HW2 5910   4.329   4.687   1.144  1.6805  1.3553  0.8436
 1952SOL     OW 5911   2.403   2.557   4.316  0.1039  0.0068 -0.3467
 1952SOL    HW1 5912   2.341   2.564   4.389  1.3586 -0.0810  0.7707
 1952SOL    HW2 5913   2.371   2.483   4.265 -0.8037  0.0736  0.0993
 1953SOL     OW 5914   0.909   0.775   0.601  0.1069 -0.3175  0.0766
 1953SOL    HW1 5915   0.944   0.688   0.624  1.8328  0.2086 -0.3621
 1953SOL    HW2 5916   0.912   0.824   0.683  0.4938 -0.2639  0.0357
 1954SOL     OW 5917   0.846   3.199   2.986  0.2775  0.2416 -0.1103
 1954SOL    HW1 5918   0.835   3.246   2.903 -2.4506 -0.6408 -0.3400
 1954SOL    HW2 5919   0.928   3.151   2.975 -0.2894 -0.3436 -2.5919
 1955SOL     OW 5920   2.069   1.960   4.331  0.6060  0.0297 -0.2821
 1955SOL    HW1 5921   1.982   1.976   4.366 -0.1482 -2.5695 -0.7994
 1955SOL    HW2 5922   2.060   1.974   4.237  0.9147  0.3301 -0.2701
 1956SOL     OW 5923   0.277   2.527   4.567 -0.0638 -0.3998  0.6376
 1956SOL    HW1 5924   0.274   2.441   4.609  0.3936 -0.9541 -0.4326
 1956SOL    HW2 5925   0.186   2.546   4.544 -0.1816 -0.5416  0.9839
 1957SOL     OW 5926   2.901   2.269   0.638 -0.1912  0.2201  0.2964
 1957SOL    HW1 5927   2.852   2.212   0.697  0.1135 -0.0148  0.3256
 1957SOL    HW2 5928   2.845   2.345   0.627 -0.2981  0.2227  0.8105
 1958SOL     OW 5929   1.358   1.860   2.351  0.2904 -0.1803 -0.1734
 1958SOL    HW1 5930   1.344   1.909   2.432  0.8533  0.0288 -0.2031
 1958SOL    HW2 5931   1.307   1.906   2.285 -0.8718 -0.8431  0.2316
 1959SOL     OW 5932   1.560   4.810   4.919  0.8199  0.6496 -0.3776
 1959SOL    HW1 5933   1.581   4.902   4.902 -1.3734  1.2544 -0.0365
 1959SOL    HW2 5934   1.474   4.797   4.880  1.6962 -1.7053 -1.7639
 1960SOL     OW 5935   2.122   1.368   3.424  0.5280 -0.0254  0.3922
 1960SOL    HW1 5936   2.157   1.369   3.335 -0.5136  1.3641 -0.0471
 1960SOL    HW2 5937   2.198   1.353   3.480  1.4951  0.8502 -0.6363
 1961SOL     OW 5938   0.497   4.179   1.001  0.2229  0.5184 -0.1613
 1961SOL    HW1 5939   0.404   4.183   1.025  0.0265  0.7347 -0.9548
 1961SOL    HW2 5940   0.531   4.106   1.052 -0.6878 -0.4218 -0.8641
 1962SOL     OW 5941   3.847   4.093   3.731  0.8168 -0.0515  0.6241
 1962SOL    HW1 5942   3.833   4.186   3.710  1.4271  0.1934  1.2915
 1962SOL    HW2 5943   3.870   4.092   3.824  1.5703 -0.8026  0.4372
 1963SOL     OW 5944   2.518   4.973   0.695  0.3448 -0.0406 -0.0456
 1963SOL    HW1 5945   2.536   5.047   0.638 -0.7049  0.8478  0.7399
 1963SOL    HW2 5946   2.550   5.001   0.781 -0.2668 -0.3930  0.3046
 1964SOL     OW 5947   0.758   2.564   3.731  0.4130  0.0355 -0.7455
 1964SOL    HW1 5948   0.677   2.608   3.705 -0.5441  0.5426  2.5926
 1964SOL    HW2 5949   0.735   2.471   3.733  0.8773 -0.1619 -2.7001
 1965SOL     OW 5950   2.773   0.255   2.013  0.4062 -0.4780  1.1778
 1965SOL    HW1 5951   2.837   0.196   1.973  1.1860 -0.2572  2.0558
 1965SOL    HW2 5952   2.811   0.342   2.002 -0.2613 -0.2374  0.7718
 1966SOL     OW 5953   3.303   1.131   0.340  0.2660 -0.4693 -0.0572
 1966SOL    HW1 5954   3.304   1.079   0.420  1.0875 -1.5279 -0.7231
 1966SOL    HW2 5955   3.392   1.168   0.335 -0.4624  1.5205  0.7041
 1967SOL     OW 5956   4.599   1.850   0.203 -0.2470  0.8483  0.0205
 1967SOL    HW1 5957   4.574   1.907   0.275  0.9085  0.8235  0.4655
 1967SOL    HW2 5958   4.523   1.849   0.145 -1.0490  1.1837  1.0387
 1968SOL     OW 5959   2.079   0.430   1.909 -0.6210 -0.4599 -0.1081
 1968SOL    HW1 5960   2.096   0.458   1.818  0.2052  0.6036  0.3457
 1968SOL    HW2 5961   2.143   0.480   1.961 -0.6817 -1.5045  0.9971
 1969SOL     OW 5962   0.092   0.340   0.846  0.1076  1.0504  0.7150
 1969SOL    HW1 5963   0.001   0.362   0.831  0.0121  1.5178  1.8437
 1969SOL    HW2 5964   0.136   0.425   0.856  0.7548  0.8418 -0.2969
 1970SOL     OW 5965   1.417   1.635   2.592 -0.1828 -0.1878 -0.5466
 1970SOL    HW1 5966   1.366   1.648   2.672 -0.1799 -0.5741 -0.4800
 1970SOL    HW2 5967   1.397   1.711   2.538  1.0724  0.9251  0.4843
 1971SOL     OW 5968   3.046   4.084   2.227  0.0659  0.2132 -0.2792
 1971SOL    HW1 5969   3.020   4.021   2.160  1.0017 -0.2413 -0.2216
 1971SOL    HW2 5970   2.967   4.137   2.241 -0.7247 -0.8924 -0.3761
 1972SOL     OW 5971   4.978   2.134   2.869  0.1356  0.3643  0.0508
 1972SOL    HW1 5972   5.030   2.178   2.801 -0.1571  2.0914  0.8742
 1972SOL    HW2 5973   4.889   2.136   2.834  0.0508  0.8698  0.2871
 1973SOL     OW 5974   0.781   3.965   4.799 -0.8650  0.8607  0.2988
 1973SOL    HW1 5975   0.761   4.019   4.722 -1.8742  0.0473 -0.0249
 1973SOL    HW2 5976   0.830   3.890   4.763 -1.3950  0.4451  0.4364
 1974SOL     OW 5977   3.264   3.373   0.591  0.0254 -0.3976  0.1795
 1974SOL    HW1 5978   3.232   3.418   0.513  1.2760  0.4010  0.0933
 1974SOL    HW2 5979   3.235   3.282   0.580 -1.6487  0.1497 -0.1483
 1975SOL     OW 5980   0.682   1.358   3.902 -0.1316  0.0384 -0.3682
 1975SOL    HW1 5981   0.645   1.421   3.841  0.0300 -0.5014 -1.0309
 1975SOL    HW2 5982   0.684   1.405   3.986  0.2331  0.9995 -0.8972
 1976SOL     OW 5983   1.565   3.371   1.819  0.0181 -0.2390  0.5870
 1976SOL    HW1 5984   1.643   3.321   1.844 -0.0568  0.0835  1.5080
 1976SOL    HW2 5985   1.592   3.420   1.741 -0.2166 -2.4542 -0.9523
 1977SOL     OW 5986   1.921   3.574   3.472 -0.4068 -0.0958 -0.1200
 1977SOL    HW1 5987   2.013   3.553   3.482 -0.1202 -0.1874 -2.3214
 1977SOL    HW2 5988   1.876   3.490   3.471 -0.1330 -0.2595 -1.7889
 1978SOL     OW 5989   0.265   3.575   1.947  0.7676 -0.5483  0.3005
 1978SOL    HW1 5990   0.330   3.551   1.882  1.2141  0.3830  0.3900
 1978SOL    HW2 5991   0.224   3.654   1.912 -0.7428 -1.4258 -0.0409
 1979SOL     OW 5992   2.255   3.915   4.886 -0.0915  0.0810 -0.2301
 1979SOL    HW1 5993   2.277   3.964   4.965  0.9271  0.8081 -0.9507
 1979SOL    HW2 5994   2.236   3.982   4.820 -1.0702 -0.5167 -0.5842
 1980SOL     OW 5995   2.991   2.390   1.952 -0.2997 -0.3592 -0.1532
 1980SOL    HW1 5996   3.074   2.377   1.997  0.1429  0.2715 -0.7476
 1980SOL    HW2 5997   3.016   2.421   1.864 -1.1196 -1.7536 -0.9142
 1981SOL     OW 5998   0.890   1.018   2.242  0.9047  0.1818 -0.0787
 1981SOL    HW1 5999   0.985   1.017   2.258  0.7140 -1.2473  1.1687
 1981SOL    HW2 6000   0.855   0.954   2.303 -0.6226 -1.0722 -2.1360
 1982SOL     OW 6001   3.433   4.917   1.521  0.1353 -0.2543  0.0735
 1982SOL    HW1 6002   3.429   4.843   1.462  1.8618 -0.7688  0.5434
 1982SOL    HW2 6003   3.526   4.933   1.533 -0.1938  1.0213  1.1862
 1983SOL     OW 6004   4.281   1.514   3.976  0.1391 -0.2182  0.2897
 1983SOL    HW1 6005   4.279   1.610   3.977  0.5772 -0.1926  1.7597
 1983SOL    HW2 6006   4.371   1.492   3.951  0.1152 -0.2438  0.2254
 1984SOL     OW 6007   2.151   0.491   3.092 -0.2395 -0.1343 -0.3242
 1984SOL    HW1 6008   2.084   0.427   3.071 -2.3073  2.0547 -0.8422
 1984SOL    HW2 6009   2.137   0.511   3.185  1.3181 -1.3856  0.2180
 1985SOL     OW 6010   0.102   0.616   3.726  0.1655  0.1096 -0.1560
 1985SOL    HW1 6011   0.009   0.594   3.733 -0.0026  0.5442 -0.8749
 1985SOL    HW2 6012   0.148   0.538   3.757 -0.4433 -0.4777 -0.7008
 1986SOL     OW 6013   3.984   3.701   0.338  0.4572  0.0121  0.2173
 1986SOL    HW1 6014   4.036   3.681   0.415 -0.8186 -0.5643  0.9755
 1986SOL    HW2 6015   3.937   3.620   0.319  0.8385  0.1053 -1.2600
 1987SOL     OW 6016   4.212   3.284   0.124 -0.1761 -0.0188  0.2704
 1987SOL    HW1 6017   4.152   3.349   0.089 -2.1698 -1.6616  0.4349
 1987SOL    HW2 6018   4.180   3.266   0.213  2.5751  1.3879  1.6968
 1988SOL     OW 6019   0.138   2.291   1.841  0.1147 -0.3530 -0.3173
 1988SOL    HW1 6020   0.100   2.331   1.919 -0.3351  0.4161 -0.9184
 1988SOL    HW2 6021   0.219   2.340   1.826 -0.3382  0.2146 -0.9438
 1989SOL     OW 6022   4.950   3.507   0.958 -0.3244  0.4746  0.3865
 1989SOL    HW1 6023   5.006   3.563   1.013  0.4802 -1.9420  2.1988
 1989SOL    HW2 6024   4.994   3.422   0.957 -0.5956  0.1880 -3.6796
 1990SOL     OW 6025   4.031   2.187   2.435  0.0650 -0.3047  0.3621
 1990SOL    HW1 6026   4.125   2.191   2.456  0.0641  1.5470  0.1579
 1990SOL    HW2 6027   4.002   2.278   2.436 -1.2173 -0.6102 -1.9143
 1991SOL     OW 6028   1.201   3.994   1.617  0.3796 -0.0878  0.0401
 1991SOL    HW1 6029   1.297   3.994   1.614  0.4459  0.6497  1.3072
 1991SOL    HW2 6030   1.174   3.978   1.527  1.6851 -2.8915  0.0432
 1992SOL     OW 6031   4.589   4.727   3.492 -0.5971 -0.1833  0.8814
 1992SOL    HW1 6032   4.516   4.681   3.533 -0.6818  0.4592  1.4773
 1992SOL    HW2 6033   4.561   4.819   3.491 -0.7699 -0.2183 -0.9868
 1993SOL     OW 6034   4.888   1.977   0.453  1.1648 -0.2623 -0.1256
 1993SOL    HW1 6035   4.950   1.964   0.525  1.5795 -0.5075 -0.5237
 1993SOL    HW2 6036   4.817   1.915   0.471  0.6314  0.5763  0.7625
 1994SOL     OW 6037   2.377   4.262   1.032 -0.0234  0.1900  0.0500
 1994SOL    HW1 6038   2.375   4.195   0.964  2.8279  0.0235  0.0027
 1994SOL    HW2 6039   2.286   4.291   1.040 -1.2363 -3.0700 -0.4889
 1995SOL     OW 6040   4.095   4.888   3.082  0.3152  0.6425 -0.8332
 1995SOL    HW1 6041   4.023   4.851   3.133  1.9533  0.6001  1.6011
 1995SOL    HW2 6042   4.158   4.816   3.074  0.6777  1.0498 -1.8128
 1996SOL     OW 6043   0.918   2.369   2.085 -0.3405  0.2141 -0.2210
 1996SOL    HW1 6044   0.973   2.293   2.066 -0.0726  0.2845  0.2387
 1996SOL    HW2 6045   0.875   2.389   2.003 -1.4073 -1.2176 -0.0401
 1997SOL     OW 6046   1.577   4.142   2.412 -0.0621  0.6214 -0.8054
 1997SOL    HW1 6047   1.667   4.115   2.392 -0.0607  1.2245 -1.6548
 1997SOL    HW2 6048   1.576   4.236   2.396 -0.5278  0.8561  0.4369
 1998SOL     OW 6049   3.816   2.635   4.903  0.4421 -0.4661  0.1174
 1998SOL    HW1 6050   3.741   2.694   4.914  0.7439 -0.2509  1.1081
 1998SOL    HW2 6051   3.886   2.678   4.951  0.8843 -1.2608  0.1799
 1999SOL     OW 6052   2.131   2.176   0.967  0.5477 -0.1749 -0.3738
 1999SOL    HW1 6053   2.128   2.206   0.876 -0.9564  0.1285 -0.2544
 1999SOL    HW2 6054   2.119   2.081   0.961 -3.4624  0.1376 -0.4217
 2000SOL     OW 6055   0.438   4.680   1.601 -0.0980  0.5461 -0.1146
 2000SOL    HW1 6056   0.360   4.734   1.595 -0.4591  0.0197 -0.2325
 2000SOL    HW2 6057   0.492   4.708   1.527 -0.5785  0.2902 -0.5692
 2001SOL     OW 6058   2.363   0.547   3.629 -0.0153  0.3367  0.9072
 2001SOL    HW1 6059   2.375   0.473   3.570 -0.9988  0.0500  1.0380
 2001SOL    HW2 6060   2.364   0.624   3.571 -1.0796  0.0495  0.4774
 2002SOL     OW 6061   0.422   4.237   2.487  0.0486 -0.2064 -0.3177
 2002SOL    HW1 6062   0.451   4.162   2.435 -0.9740 -1.4465  0.8123
 2002SOL    HW2 6063   0.339   4.209   2.525 -0.6440  1.7411 -0.3093
 2003SOL     OW 6064   4.073   1.437   0.095  0.4878 -0.0588  0.2977
 2003SOL    HW1 6065   4.020   1.508   0.131  2.0312  0.0610  2.4646
 2003SOL    HW2 6066   4.030   1.417   0.011 -1.4961  1.6652  0.7950
 2004SOL     OW 6067   1.340   2.863   4.798 -0.3871  0.0081 -0.5871
 2004SOL    HW1 6068   1.432   2.885   4.781  0.2163 -1.6434  0.3818
 2004SOL    HW2 6069   1.325   2.783   4.748 -1.2070  0.0632 -0.4318
 2005SOL     OW 6070   2.429   2.358   1.303 -0.0766 -0.4678 -0.2710
 2005SOL    HW1 6071   2.378   2.436   1.282  0.7129  0.0355 -0.3840
 2005SOL    HW2 6072   2.373   2.307   1.361 -1.0105 -0.3217 -1.0361
 2006SOL     OW 6073   3.729   3.962   3.521  0.3820  0.0026 -0.1538
 2006SOL    HW1 6074   3.763   4.006   3.599  0.1220 -0.3891  0.1801
 2006SOL    HW2 6075   3.776   4.003   3.449  1.2605 -0.2364  0.2711
 2007SOL     OW 6076   2.322   1.843   1.598  0.1288  0.3771 -0.0412
 2007SOL    HW1 6077   2.292   1.865   1.686 -0.6068 -2.1378  0.4247
 2007SOL    HW2 6078   2.243   1.849   1.544  0.2898  0.5477 -0.2604
 2008SOL     OW 6079   2.369   4.163   4.018  0.4404 -0.3594  0.1816
 2008SOL    HW1 6080   2.417   4.095   4.067 -1.4856 -2.1312 -0.2284
 2008SOL    HW2 6081   2.308   4.200   4.082  0.3736 -0.1448 -0.0070
 2009SOL     OW 6082   0.452   0.879   4.764 -0.1925 -0.1682  0.2509
 2009SOL    HW1 6083   0.399   0.952   4.734  1.3811  1.7982  1.9518
 2009SOL    HW2 6084   0.517   0.865   4.695 -0.1129  0.4757  0.1919
 2010SOL     OW 6085   2.471   1.394   0.785 -0.4961 -0.4793  0.4946
 2010SOL    HW1 6086   2.433   1.309   0.807 -0.9936 -0.4480 -0.2178
 2010SOL    HW2 6087   2.489   1.435   0.869 -2.0212 -0.5073  0.8596
 2011SOL     OW 6088   1.022   3.885   2.866 -0.1795 -0.2264 -0.2091
 2011SOL    HW1 6089   0.957   3.935   2.816  0.6598 -0.9475 -2.1380
 2011SOL    HW2 6090   1.106   3.911   2.828  0.4419 -1.3109  0.3679
 2012SOL     OW 6091   1.646   3.759   3.076  0.4171 -0.4171 -0.2853
 2012SOL    HW1 6092   1.625   3.831   3.136 -1.1645  0.2950 -1.6187
 2012SOL    HW2 6093   1.632   3.795   2.989 -1.5953 -2.6214 -0.9948
 2013SOL     OW 6094   0.298   0.989   3.855  1.0551  0.2366  0.3102
 2013SOL    HW1 6095   0.369   1.051   3.872 -0.4905  2.0966  0.3241
 2013SOL    HW2 6096   0.280   0.998   3.762 -0.4112  1.2527  0.6566
 2014SOL     OW 6097   2.311   0.013   4.427  0.1197  0.4736 -0.1250
 2014SOL    HW1 6098   2.284   0.066   4.502  0.9336  1.3047 -0.3911
 2014SOL    HW2 6099   2.385   0.061   4.390  0.2596 -0.3624 -0.9618
 2015SOL     OW 6100   4.845   0.939   0.530 -0.0414  0.6120  0.1324
 2015SOL    HW1 6101   4.897   1.015   0.558 -1.9928  2.1728 -0.2347
 2015SOL    HW2 6102   4.782   0.975   0.468 -0.1402 -1.6065 -1.1616
 2016SOL     OW 6103   2.273   0.083   2.957  0.2069  0.0451  0.3944
 2016SOL    HW1 6104   2.225   0.142   2.900 -1.6263  0.5112  2.3063
 2016SOL    HW2 6105   2.216   0.069   3.032  2.5048 -0.4982  2.1802
 2017SOL     OW 6106   3.655   0.300   1.524 -0.5257 -0.3191 -0.1077
 2017SOL    HW1 6107   3.692   0.241   1.459 -1.5870 -1.9461  0.6773
 2017SOL    HW2 6108   3.571   0.260   1.547 -0.3560  0.3990  1.9584
 2018SOL     OW 6109   3.807   0.537   3.274 -0.5830 -0.1104  0.5584
 2018SOL    HW1 6110   3.824   0.498   3.189 -0.1619  0.9379  0.1455
 2018SOL    HW2 6111   3.875   0.502   3.331  1.6921  2.2321 -0.5152
 2019SOL     OW 6112   2.077   0.240   2.836  0.5176 -0.2789 -0.0526
 2019SOL    HW1 6113   2.038   0.178   2.775  0.3925 -0.2624  0.0113
 2019SOL    HW2 6114   2.004   0.293   2.868  0.7268  0.4056 -0.6811
 2020SOL     OW 6115   1.615   3.452   3.420 -0.1671 -0.3024 -0.4687
 2020SOL    HW1 6116   1.619   3.543   3.450  1.4998 -0.4657 -0.0838
 2020SOL    HW2 6117   1.585   3.457   3.329 -1.2987  0.5247 -0.0599
 2021SOL     OW 6118   2.457   1.975   4.817  0.3377 -0.2551 -0.1599
 2021SOL    HW1 6119   2.385   2.025   4.778  1.4934  0.8619 -0.9274
 2021SOL    HW2 6120   2.413   1.912   4.874 -1.2181  0.9898  0.1140
 2022SOL     OW 6121   4.294   1.613   1.465 -0.0719 -0.0177 -0.0394
 2022SOL    HW1 6122   4.371   1.648   1.420 -1.3635  0.0209 -2.3641
 2022SOL    HW2 6123   4.266   1.684   1.523  2.0197 -0.3154  1.4589
 2023SOL     OW 6124   4.392   0.593   3.988  0.1026  0.4547  0.3556
 2023SOL    HW1 6125   4.479   0.632   4.000  0.2601 -0.3044  2.1011
 2023SOL    HW2 6126   4.373   0.553   4.073 -2.0408  0.7490  0.0701
 2024SOL     OW 6127   1.804   4.660   0.024  0.2112 -0.6469  0.0641
 2024SOL    HW1 6128   1.807   4.671  -0.071  0.5387  4.2846  0.3823
 2024SOL    HW2 6129   1.711   4.673   0.046  0.1882 -1.4710  0.4877
 2025SOL     OW 6130   1.122   1.429   2.539  0.1627 -0.2815  0.4446
 2025SOL    HW1 6131   1.050   1.456   2.482 -1.4368 -0.9854  2.0306
 2025SOL    HW2 6132   1.089   1.351   2.584  1.6959 -0.2777  1.6641
 2026SOL     OW 6133   2.831   0.783   2.367 -0.3322 -0.0217  0.1803
 2026SOL    HW1 6134   2.884   0.808   2.442 -0.8048  1.4240  0.0660
 2026SOL    HW2 6135   2.812   0.866   2.322 -0.8009 -0.7578 -1.0335
 2027SOL     OW 6136   1.171   2.823   0.372  0.2431  0.1543 -0.2281
 2027SOL    HW1 6137   1.217   2.794   0.451  0.0217  1.7887  0.5423
 2027SOL    HW2 6138   1.147   2.914   0.390 -0.9539  0.1660 -1.6764
 2028SOL     OW 6139   2.775   3.959   3.646 -0.0782 -1.1008 -0.0406
 2028SOL    HW1 6140   2.797   4.006   3.727 -1.0394  0.4970 -0.6634
 2028SOL    HW2 6141   2.852   3.971   3.590  0.1152 -1.2116  0.1982
 2029SOL     OW 6142   1.013   3.954   2.589 -0.0023  0.0994 -0.4301
 2029SOL    HW1 6143   1.020   4.041   2.629 -0.4468  0.3188 -0.8222
 2029SOL    HW2 6144   1.101   3.935   2.556  0.3333 -0.0185  0.5067
 2030SOL     OW 6145   2.163   3.074   2.648 -0.3144  0.5255 -0.7044
 2030SOL    HW1 6146   2.244   3.027   2.670 -0.6918  0.0262 -0.3645
 2030SOL    HW2 6147   2.176   3.162   2.683  0.4509  0.7258 -1.4529
 2031SOL     OW 6148   2.485   1.280   4.305 -0.0671  0.0859  0.0959
 2031SOL    HW1 6149   2.448   1.200   4.269  3.2986 -1.0064 -1.3124
 2031SOL    HW2 6150   2.451   1.284   4.395 -1.0426 -2.4243 -0.0846
 2032SOL     OW 6151   0.562   3.421   4.376  0.1945 -0.0286 -0.1726
 2032SOL    HW1 6152   0.605   3.498   4.339  0.4438  0.8590  1.8307
 2032SOL    HW2 6153   0.634   3.367   4.409 -0.0364  1.5218  3.3045
 2033SOL     OW 6154   0.874   2.991   2.229 -0.1227  0.1277 -0.2406
 2033SOL    HW1 6155   0.947   3.005   2.170 -0.5743  0.2704 -0.7765
 2033SOL    HW2 6156   0.799   2.976   2.171 -0.1454 -2.0662  0.2588
 2034SOL     OW 6157   4.007   0.279   2.704 -0.6590 -0.4627 -0.4533
 2034SOL    HW1 6158   4.037   0.338   2.635 -2.4932  0.5253 -0.4831
 2034SOL    HW2 6159   4.019   0.330   2.785  0.8174 -1.3443 -0.0795
 2035SOL     OW 6160   1.443   1.844   1.448 -0.8203  0.0784 -0.0933
 2035SOL    HW1 6161   1.478   1.908   1.510 -0.0445 -0.7495  0.3355
 2035SOL    HW2 6162   1.409   1.897   1.376 -1.5230  1.0449  0.9090
 2036SOL     OW 6163   0.797   0.740   1.974 -0.2047  0.1845  0.4215
 2036SOL    HW1 6164   0.812   0.835   1.970 -1.0263  0.3251  0.6276
 2036SOL    HW2 6165   0.764   0.717   1.887 -0.0836  0.0958  0.3981
 2037SOL     OW 6166   2.665   4.270   3.060 -0.0584  0.1041  0.2712
 2037SOL    HW1 6167   2.622   4.355   3.049  0.0750  0.1905  0.4156
 2037SOL    HW2 6168   2.642   4.222   2.980  0.8649  0.7113 -0.3862
 2038SOL     OW 6169   1.002   2.020   1.041 -0.4056 -0.0605  0.4781
 2038SOL    HW1 6170   0.986   1.940   0.992  2.5717 -0.5903  0.1422
 2038SOL    HW2 6171   0.938   2.083   1.007 -2.9530 -2.2687  0.8966
 2039SOL     OW 6172   3.859   0.952   1.442 -0.3609  0.4600  0.7738
 2039SOL    HW1 6173   3.841   0.944   1.536  0.2116 -0.5189  0.8191
 2039SOL    HW2 6174   3.948   0.986   1.437 -0.5989  1.0530  0.5820
 2040SOL     OW 6175   1.004   4.198   1.620  0.2754 -0.5974 -0.6940
 2040SOL    HW1 6176   1.019   4.158   1.705  0.7777 -1.1130 -1.0115
 2040SOL    HW2 6177   1.008   4.125   1.558 -0.9001 -0.3500 -1.0802
 2041SOL     OW 6178   1.818   4.839   2.345 -0.4670 -0.1017  0.5399
 2041SOL    HW1 6179   1.746   4.860   2.405  0.0888 -1.5820  1.8021
 2041SOL    HW2 6180   1.861   4.923   2.330 -2.5016  0.8514 -0.3666
 2042SOL     OW 6181   0.822   4.142   3.231  0.0026 -0.1181  0.5064
 2042SOL    HW1 6182   0.894   4.205   3.235  0.3821 -0.5323  0.2886
 2042SOL    HW2 6183   0.813   4.123   3.138 -1.4301  1.1047  0.3607
 2043SOL     OW 6184   0.273   2.293   4.712  0.3161 -0.5181  0.2033
 2043SOL    HW1 6185   0.190   2.246   4.701 -1.1997  1.3148  2.5203
 2043SOL    HW2 6186   0.305   2.265   4.798  0.4079  1.1096  0.7332
 2044SOL     OW 6187   3.898   1.415   4.885 -0.0146  0.4273  0.2886
 2044SOL    HW1 6188   3.848   1.354   4.831 -0.5846  0.4059  0.8330
 2044SOL    HW2 6189   3.857   1.410   4.971  1.0738  0.2433  0.8027
 2045SOL     OW 6190   3.517   3.824   4.250 -0.1115 -0.0751 -0.1439
 2045SOL    HW1 6191   3.536   3.736   4.217  1.5118 -0.0680  0.7172
 2045SOL    HW2 6192   3.546   3.823   4.341 -1.0092  1.0661  0.1810
 2046SOL     OW 6193   1.608   3.902   0.783  0.2127  0.3871  0.2740
 2046SOL    HW1 6194   1.604   3.825   0.840  0.9528  0.7258  0.7999
 2046SOL    HW2 6195   1.643   3.870   0.700  1.9581  0.3967  0.9618
 2047SOL     OW 6196   4.395   2.452   1.777 -0.4173 -0.0407  0.3725
 2047SOL    HW1 6197   4.489   2.457   1.758 -0.2665 -1.9832  0.4452
 2047SOL    HW2 6198   4.389   2.394   1.853 -1.6179  0.9581  1.0779
 2048SOL     OW 6199   2.671   3.916   0.960  0.2917  0.1537  0.1783
 2048SOL    HW1 6200   2.758   3.882   0.942  0.2379  0.6915 -1.1944
 2048SOL    HW2 6201   2.682   3.972   1.037  1.2524  0.5980 -0.2700
 2049SOL     OW 6202   3.238   0.413   1.682 -0.2559 -0.4711 -0.0366
 2049SOL    HW1 6203   3.251   0.426   1.776 -1.4406 -2.3463  0.4426
 2049SOL    HW2 6204   3.305   0.349   1.657 -1.8536 -2.3416  0.2511
 2050SOL     OW 6205   3.893   3.129   4.908  0.1296  0.8390 -0.0218
 2050SOL    HW1 6206   3.977   3.117   4.864  0.3673  0.2257  0.5836
 2050SOL    HW2 6207   3.830   3.082   4.853  0.1994  1.1684 -0.3911
 2051SOL     OW 6208   0.632   3.212   3.143  0.0385  0.0234 -0.3735
 2051SOL    HW1 6209   0.695   3.197   3.073 -0.5098 -1.2363 -0.6268
 2051SOL    HW2 6210   0.635   3.133   3.197 -2.1735 -0.6371 -1.1014
 2052SOL     OW 6211   1.158   3.543   4.977  0.0227 -0.0667 -0.4403
 2052SOL    HW1 6212   1.193   3.581   4.897  1.0137  0.3883  0.1918
 2052SOL    HW2 6213   1.079   3.496   4.949  0.5602 -0.2332 -1.7300
 2053SOL     OW 6214   3.792   1.936   2.288 -0.3624 -0.1234 -0.5034
 2053SOL    HW1 6215   3.829   1.889   2.213 -1.9431  0.9198 -2.0184
 2053SOL    HW2 6216   3.853   1.919   2.359  1.6238 -0.5621 -2.2010
 2054SOL     OW 6217   1.048   0.647   3.968  0.0552  0.4752 -0.6710
 2054SOL    HW1 6218   1.028   0.584   3.898 -2.0502  1.0883 -0.6814
 2054SOL    HW2 6219   1.124   0.609   4.013 -0.7147 -1.7336 -1.0897
 2055SOL     OW 6220   0.073   1.313   2.712  0.3233 -0.1909 -0.4789
 2055SOL    HW1 6221   0.031   1.258   2.778  0.9426 -1.1922 -0.8937
 2055SOL    HW2 6222   0.128   1.252   2.662  1.8949  0.9814 -0.2412
 2056SOL     OW 6223   3.946   3.093   2.000  0.0154 -0.1592  0.5175
 2056SOL    HW1 6224   4.013   3.026   1.987  2.6891  2.6549 -1.7619
 2056SOL    HW2 6225   3.951   3.115   2.093  0.8325 -1.3508  0.7779
 2057SOL     OW 6226   1.408   2.814   1.334 -0.2935 -0.3184 -0.9389
 2057SOL    HW1 6227   1.498   2.793   1.359 -0.3707  0.8093  0.4078
 2057SOL    HW2 6228   1.355   2.743   1.370 -0.2323  0.4990  0.8146
 2058SOL     OW 6229   3.184   3.867   4.567  0.4766  0.2263 -0.2017
 2058SOL    HW1 6230   3.221   3.903   4.487  0.2636  3.2912  0.9789
 2058SOL    HW2 6231   3.245   3.798   4.593  2.1182  1.1575 -1.4506
 2059SOL     OW 6232   0.283   4.528   1.470  0.4437  0.1374  0.3140
 2059SOL    HW1 6233   0.349   4.567   1.528  0.5409  0.3205  0.0801
 2059SOL    HW2 6234   0.199   4.555   1.508  0.5115  1.3465 -0.3629
 2060SOL     OW 6235   0.245   2.552   3.289  0.3123 -0.1398 -0.0039
 2060SOL    HW1 6236   0.154   2.538   3.262  0.1793  0.9432 -0.1299
 2060SOL    HW2 6237   0.289   2.584   3.211  0.8250 -0.7153  0.0430
 2061SOL     OW 6238   3.678   4.236   0.553 -0.1399 -0.0437 -0.4152
 2061SOL    HW1 6239   3.606   4.173   0.559 -2.1085  2.1196 -0.0802
 2061SOL    HW2 6240   3.705   4.250   0.644  0.0083 -0.0862 -0.4524
 2062SOL     OW 6241   4.463   1.828   1.749 -0.0233  0.2408  0.3077
 2062SOL    HW1 6242   4.486   1.739   1.777 -0.1354  0.0025 -0.3285
 2062SOL    HW2 6243   4.530   1.883   1.788  0.6169 -0.2439 -0.0747
 2063SOL     OW 6244   1.183   0.775   1.719 -0.0940  0.1458  0.8083
 2063SOL    HW1 6245   1.232   0.751   1.640 -1.7517 -1.3415  0.1744
 2063SOL    HW2 6246   1.168   0.869   1.710  0.9862  0.2671  0.0908
 2064SOL     OW 6247   3.292   4.188   2.178  0.1013 -0.3323 -0.7190
 2064SOL    HW1 6248   3.214   4.134   2.195  0.6166 -0.8776 -0.0600
 2064SOL    HW2 6249   3.366   4.128   2.188  0.7457  0.7014  1.0241
 2065SOL     OW 6250   1.887   3.963   1.668 -0.1838 -0.3027  0.6287
 2065SOL    HW1 6251   1.862   4.056   1.668  0.5843 -0.0259 -1.7423
 2065SOL    HW2 6252   1.867   3.933   1.756  0.9237  2.4994  1.9660
 2066SOL     OW 6253   1.250   3.208   1.552 -0.4057 -0.3106 -0.7124
 2066SOL    HW1 6254   1.299   3.287   1.526  0.4473 -0.1729  1.1635
 2066SOL    HW2 6255   1.222   3.169   1.469  0.6029  1.0553 -1.7445
 2067SOL     OW 6256   3.207   1.667   0.126  0.3177 -0.2351  0.1096
 2067SOL    HW1 6257   3.211   1.575   0.099 -1.6278 -0.4011  0.2183
 2067SOL    HW2 6258   3.175   1.713   0.048 -2.3459 -0.2623  1.0616
 2068SOL     OW 6259   1.301   2.180   3.668  0.2076  0.7265  0.8844
 2068SOL    HW1 6260   1.377   2.127   3.690  0.0475 -0.4009 -1.0185
 2068SOL    HW2 6261   1.332   2.238   3.598 -0.7854 -0.1317 -0.3059
 2069SOL     OW 6262   2.094   2.265   0.689 -0.3817 -0.6121  0.0718
 2069SOL    HW1 6263   2.034   2.337   0.710  1.2522  0.5051  1.0561
 2069SOL    HW2 6264   2.036   2.192   0.667 -2.1137  0.3387  1.2330
 2070SOL     OW 6265   0.736   4.789   1.645 -0.0891  0.1681  0.3724
 2070SOL    HW1 6266   0.725   4.882   1.664 -1.7222  0.2767 -0.9157
 2070SOL    HW2 6267   0.702   4.744   1.722 -0.7484  0.6226  0.3493
 2071SOL     OW 6268   3.963   1.481   4.266 -0.1133 -0.1964 -0.2202
 2071SOL    HW1 6269   3.993   1.558   4.313 -1.0681 -0.3294  0.6483
 2071SOL    HW2 6270   4.043   1.437   4.237  0.4484  0.7375 -0.1050
 2072SOL     OW 6271   3.597   4.638   1.210 -0.0488 -0.4108  0.3838
 2072SOL    HW1 6272   3.677   4.635   1.262 -0.2375  0.4406  0.7498
 2072SOL    HW2 6273   3.620   4.688   1.132 -0.1723 -0.3074  0.4121
 2073SOL     OW 6274   1.255   3.609   3.476 -0.1717  0.6094 -0.0316
 2073SOL    HW1 6275   1.307   3.654   3.542  0.2969  0.9394 -0.6155
 2073SOL    HW2 6276   1.294   3.634   3.393 -0.0439 -0.6932 -0.3851
 2074SOL     OW 6277   0.195   1.606   4.857 -0.3817  0.2463  0.4952
 2074SOL    HW1 6278   0.147   1.529   4.888  0.2804  0.1702  1.3575
 2074SOL    HW2 6279   0.260   1.570   4.796 -0.1185  0.1234  0.8441
 2075SOL     OW 6280   1.119   0.274   1.717  0.5977  0.3523  0.3156
 2075SOL    HW1 6281   1.197   0.257   1.664  0.8244  2.3087 -0.0372
 2075SOL    HW2 6282   1.147   0.336   1.783 -0.5615  0.7423  0.4616
 2076SOL     OW 6283   1.348   1.876   0.347  0.0572  0.2149 -0.0448
 2076SOL    HW1 6284   1.299   1.947   0.388  1.8334  1.0065  0.8385
 2076SOL    HW2 6285   1.367   1.816   0.419  1.5648  0.6469 -0.0457
 2077SOL     OW 6286   4.624   3.243   3.595 -0.0169  0.3756 -0.5919
 2077SOL    HW1 6287   4.544   3.289   3.619 -0.3917  1.2289 -3.1231
 2077SOL    HW2 6288   4.688   3.313   3.580  1.7850 -0.3289  2.8700
 2078SOL     OW 6289   4.476   0.209   0.595 -0.1058 -0.2257  0.5286
 2078SOL    HW1 6290   4.507   0.293   0.560 -0.3451 -0.9138 -1.4867
 2078SOL    HW2 6291   4.551   0.151   0.585 -0.6126 -0.7795 -0.1894
 2079SOL     OW 6292   4.563   1.084   1.637 -0.2711  0.4195  0.2417
 2079SOL    HW1 6293   4.610   1.103   1.555 -1.4938  0.3669 -0.5021
 2079SOL    HW2 6294   4.548   0.990   1.635 -0.6624  0.4784  0.3223
 2080SOL     OW 6295   1.945   4.714   1.707  0.1693  0.3351 -0.3442
 2080SOL    HW1 6296   2.004   4.767   1.653  0.4734 -0.5592 -0.9144
 2080SOL    HW2 6297   1.961   4.624   1.679 -1.1838  0.0386 -0.2125
 2081SOL     OW 6298   0.942   2.108   4.138 -0.5796  0.4884 -0.3673
 2081SOL    HW1 6299   0.863   2.102   4.085 -0.2446 -0.8247 -0.7447
 2081SOL    HW2 6300   1.004   2.048   4.097 -0.1960 -0.3419  1.3243
 2082SOL     OW 6301   0.323   1.340   1.424 -0.0428 -0.6098 -0.1819
 2082SOL    HW1 6302   0.242   1.346   1.374 -0.5264  0.2565  0.6778
 2082SOL    HW2 6303   0.373   1.418   1.398 -0.7354  0.4113  1.3921
 2083SOL     OW 6304   0.518   3.997   1.227 -0.1777  0.3626  0.5223
 2083SOL    HW1 6305   0.583   3.928   1.212  1.3683  2.1072 -1.5767
 2083SOL    HW2 6306   0.561   4.058   1.288 -0.1495  1.0905 -0.2008
 2084SOL     OW 6307   3.992   2.485   3.094  0.4009 -0.3931 -0.5326
 2084SOL    HW1 6308   4.053   2.476   3.167 -0.9130 -0.2874  0.6434
 2084SOL    HW2 6309   3.913   2.440   3.124 -0.4643  0.3987 -1.5329
 2085SOL     OW 6310   1.337   4.030   2.995  0.4087  0.2815  0.2006
 2085SOL    HW1 6311   1.363   4.092   2.927 -1.6583 -0.6279 -1.5018
 2085SOL    HW2 6312   1.263   4.072   3.039 -0.3178 -0.4988 -0.2585
 2086SOL     OW 6313   3.662   3.926   3.006 -0.0439 -0.0695 -0.0260
 2086SOL    HW1 6314   3.751   3.955   2.985  0.9190 -0.0035  3.5299
 2086SOL    HW2 6315   3.609   4.006   3.001  0.8644  0.6489  1.2639
 2087SOL     OW 6316   0.391   1.536   2.983 -0.0551 -0.0710 -0.0476
 2087SOL    HW1 6317   0.466   1.585   3.015 -0.4459  1.1085 -0.8792
 2087SOL    HW2 6318   0.355   1.589   2.912 -1.6211 -0.6451  0.2531
 2088SOL     OW 6319   0.994   3.730   3.214 -0.1081 -0.0351  0.0230
 2088SOL    HW1 6320   0.957   3.653   3.258 -1.9297 -0.3953 -1.9898
 2088SOL    HW2 6321   0.918   3.778   3.182  1.0718  1.4768 -0.6303
 2089SOL     OW 6322   0.474   4.016   3.398  0.3477 -0.4051  0.3117
 2089SOL    HW1 6323   0.424   4.087   3.358  0.7727  0.7862  1.8127
 2089SOL    HW2 6324   0.470   3.945   3.334 -2.1108  0.1054 -0.1943
 2090SOL     OW 6325   3.265   1.268   3.396  0.3062  0.2833 -0.1457
 2090SOL    HW1 6326   3.296   1.349   3.437  1.6359  0.4787 -1.4676
 2090SOL    HW2 6327   3.256   1.207   3.469  1.6433  0.9149  0.5824
 2091SOL     OW 6328   4.346   4.109   4.263  0.2303 -0.5260 -0.2723
 2091SOL    HW1 6329   4.406   4.102   4.189 -0.4137  0.6981 -0.9426
 2091SOL    HW2 6330   4.377   4.044   4.326  1.8285 -0.3974 -0.8860
 2092SOL     OW 6331   4.371   1.309   4.436 -0.7669  0.1201 -0.4839
 2092SOL    HW1 6332   4.386   1.226   4.390 -0.9151 -0.1375 -0.0822
 2092SOL    HW2 6333   4.456   1.354   4.432 -0.3143 -0.6091  0.3630
 2093SOL     OW 6334   2.632   2.722   1.400  0.2393  0.1405  0.3085
 2093SOL    HW1 6335   2.720   2.742   1.369 -0.0932 -0.2914 -0.9978
 2093SOL    HW2 6336   2.606   2.800   1.451  1.9634 -0.4266  2.1505
 2094SOL     OW 6337   1.115   0.170   0.102 -0.1047 -0.1914  0.0110
 2094SOL    HW1 6338   1.144   0.103   0.039  0.1021  0.6615 -0.8240
 2094SOL    HW2 6339   1.182   0.167   0.171 -0.0449 -0.7767 -0.0617
 2095SOL     OW 6340   0.189   2.562   1.324  0.1311 -0.3181  0.1883
 2095SOL    HW1 6341   0.170   2.489   1.265 -0.4627  0.5308 -0.7218
 2095SOL    HW2 6342   0.180   2.525   1.412  0.1829 -1.4126 -0.2500
 2096SOL     OW 6343   1.176   2.348   4.830  0.7072  0.1136 -0.3375
 2096SOL    HW1 6344   1.189   2.383   4.918  2.7448  1.3306 -1.0611
 2096SOL    HW2 6345   1.243   2.280   4.821 -0.3578 -0.9577 -0.5237
 2097SOL     OW 6346   1.015   1.179   2.579  0.0579 -0.3813 -0.4796
 2097SOL    HW1 6347   1.041   1.099   2.626  0.0752  0.2033  0.5402
 2097SOL    HW2 6348   0.920   1.180   2.585 -0.0984 -1.2814 -2.1445
 2098SOL     OW 6349   1.527   2.895   2.738  0.5121  0.8311 -0.2831
 2098SOL    HW1 6350   1.584   2.934   2.673  0.2188 -0.2591 -1.2361
 2098SOL    HW2 6351   1.579   2.825   2.777 -0.6898 -1.4394 -2.4934
 2099SOL     OW 6352   4.331   3.293   1.237  0.2796  0.0418  0.3268
 2099SOL    HW1 6353   4.272   3.239   1.185 -0.5233 -0.7497  1.9902
 2099SOL    HW2 6354   4.410   3.300   1.183 -0.6514 -0.3900 -1.1596
 2100SOL     OW 6355   3.144   2.446   0.936  0.2903  0.3997 -0.2716
 2100SOL    HW1 6356   3.102   2.391   1.001  0.8665  0.4456  0.1417
 2100SOL    HW2 6357   3.210   2.495   0.984  0.2645  0.9304 -0.7649
 2101SOL     OW 6358   0.916   2.127   0.207 -0.3633 -0.3213  0.1586
 2101SOL    HW1 6359   0.905   2.061   0.275  0.6326 -0.8372 -0.1660
 2101SOL    HW2 6360   1.000   2.107   0.167  0.3515  1.6090  0.5692
 2102SOL     OW 6361   0.308   1.430   0.126 -0.0858 -0.2182 -0.6754
 2102SOL    HW1 6362   0.354   1.510   0.153  1.8826 -1.8770  1.3781
 2102SOL    HW2 6363   0.244   1.415   0.195 -0.4268 -0.4304 -1.0362
 2103SOL     OW 6364   0.531   1.268   0.261 -0.2785  0.4228 -0.4967
 2103SOL    HW1 6365   0.550   1.324   0.185 -0.9721  1.5396  0.1184
 2103SOL    HW2 6366   0.449   1.224   0.238  0.1101 -0.1254 -0.8570
 2104SOL     OW 6367   3.306   3.182   3.594 -0.3538 -0.3507 -0.1570
 2104SOL    HW1 6368   3.322   3.256   3.536  0.9742  0.6560  1.3811
 2104SOL    HW2 6369   3.211   3.175   3.600 -0.5214  1.8163  0.3160
 2105SOL     OW 6370   1.361   0.496   3.751  0.0995 -0.0232  0.1140
 2105SOL    HW1 6371   1.336   0.560   3.684 -0.2456 -0.4640 -0.1849
 2105SOL    HW2 6372   1.352   0.543   3.834  0.0171  0.3647 -0.1128
 2106SOL     OW 6373   2.130   2.743   1.984 -0.5707  0.2319  0.0432
 2106SOL    HW1 6374   2.084   2.777   2.061 -1.2291  2.1252 -1.1074
 2106SOL    HW2 6375   2.062   2.698   1.934  0.1390 -2.2679  1.1699
 2107SOL     OW 6376   4.597   2.769   2.360  0.0721  0.0668  0.0464
 2107SOL    HW1 6377   4.618   2.746   2.269  1.0546 -0.3696  0.3682
 2107SOL    HW2 6378   4.555   2.690   2.395  0.6246 -0.1352  0.2607
 2108SOL     OW 6379   4.444   1.695   0.813 -0.8221 -0.1914 -0.5689
 2108SOL    HW1 6380   4.383   1.631   0.850 -1.4203  0.2607 -0.7676
 2108SOL    HW2 6381   4.404   1.780   0.832 -0.5857  0.0818 -1.2939
 2109SOL     OW 6382   0.785   4.175   0.166  0.2783 -0.1084 -0.4300
 2109SOL    HW1 6383   0.779   4.230   0.244 -0.4345 -1.0294  0.1806
 2109SOL    HW2 6384   0.699   4.183   0.124 -0.6485 -2.4374  0.8504
 2110SOL     OW 6385   4.267   4.002   3.361  0.3044  0.1408 -0.5083
 2110SOL    HW1 6386   4.219   3.936   3.311 -0.2745  2.0518 -2.6089
 2110SOL    HW2 6387   4.210   4.022   3.435 -0.5578 -0.0796 -1.0984
 2111SOL     OW 6388   1.022   2.561   4.216  0.1325  0.4229  0.6257
 2111SOL    HW1 6389   0.948   2.600   4.262  0.4904  1.2329  0.5283
 2111SOL    HW2 6390   1.094   2.565   4.280  0.2952  0.3666  0.4469
 2112SOL     OW 6391   0.394   1.891   3.285 -0.3722  0.1651 -0.1788
 2112SOL    HW1 6392   0.313   1.888   3.336 -0.9032  1.8410 -0.8689
 2112SOL    HW2 6393   0.381   1.828   3.215 -0.1447 -1.2177  0.9612
 2113SOL     OW 6394   1.194   4.111   1.258 -0.1485 -0.0233 -0.5322
 2113SOL    HW1 6395   1.236   4.029   1.285 -2.9327  0.0057  5.4879
 2113SOL    HW2 6396   1.263   4.177   1.268  0.7820 -1.0154 -0.1552
 2114SOL     OW 6397   3.300   1.800   0.392  0.0982 -0.0456  0.1696
 2114SOL    HW1 6398   3.284   1.747   0.314  0.8792 -2.1391  1.3193
 2114SOL    HW2 6399   3.346   1.740   0.452 -0.1609  1.5664  2.0971
 2115SOL     OW 6400   1.331   2.455   2.970  0.2590  0.5965 -0.1636
 2115SOL    HW1 6401   1.382   2.486   3.044 -0.3863 -0.2741  0.6729
 2115SOL    HW2 6402   1.281   2.531   2.941  1.3092  1.2091 -0.3938
 2116SOL     OW 6403   3.986   1.032   3.223  0.1206  0.2370 -0.2336
 2116SOL    HW1 6404   4.057   0.968   3.232  0.6310  0.9868  1.4171
 2116SOL    HW2 6405   3.915   0.983   3.181  0.0340 -1.8366  2.1079
 2117SOL     OW 6406   3.510   0.288   2.434 -0.2607 -0.6634 -0.1658
 2117SOL    HW1 6407   3.495   0.250   2.347 -0.9192 -0.3327 -0.2052
 2117SOL    HW2 6408   3.480   0.220   2.495 -2.4052  0.1128 -0.2457
 2118SOL     OW 6409   1.967   4.393   3.502  0.1239 -0.3557 -0.3815
 2118SOL    HW1 6410   2.032   4.347   3.556 -0.1837  0.7434  0.9814
 2118SOL    HW2 6411   1.921   4.450   3.564 -1.7841 -0.7024 -1.4014
 2119SOL     OW 6412   1.429   2.134   1.849 -0.5930  0.1353 -0.5077
 2119SOL    HW1 6413   1.496   2.201   1.833 -0.3408 -0.7601 -3.7838
 2119SOL    HW2 6414   1.362   2.180   1.900  0.6018  2.2062 -0.6728
 2120SOL     OW 6415   4.107   3.147   4.481 -0.0569  0.6592 -0.5653
 2120SOL    HW1 6416   4.148   3.222   4.524  0.4068 -0.3842  0.8797
 2120SOL    HW2 6417   4.013   3.168   4.481  0.1656  1.7017 -1.1539
 2121SOL     OW 6418   2.106   2.311   4.462 -0.2195 -0.0793  0.6256
 2121SOL    HW1 6419   2.071   2.365   4.533  0.1418  3.5842 -1.7179
 2121SOL    HW2 6420   2.036   2.308   4.397  1.2572  1.4861 -1.1740
 2122SOL     OW 6421   4.577   1.528   4.429 -0.3065 -0.0329  0.4471
 2122SOL    HW1 6422   4.651   1.499   4.482 -0.2607  3.1200  2.3825
 2122SOL    HW2 6423   4.616   1.553   4.345  0.6220  0.3149  0.9659
 2123SOL     OW 6424   2.383   2.183   0.071  0.2253  0.2039  0.4018
 2123SOL    HW1 6425   2.357   2.100   0.032  1.1799  0.3487 -0.6007
 2123SOL    HW2 6426   2.476   2.172   0.091  0.3091  0.9492  0.4604
 2124SOL     OW 6427   3.296   3.327   0.199  0.1855 -0.0575 -0.1453
 2124SOL    HW1 6428   3.227   3.364   0.255  0.9458 -0.3526  1.0362
 2124SOL    HW2 6429   3.339   3.263   0.255  3.0539  1.8957  0.0654
 2125SOL     OW 6430   0.148   3.963   0.447 -0.5125  0.2894 -0.4772
 2125SOL    HW1 6431   0.133   3.988   0.356  0.2996  1.0705 -0.4117
 2125SOL    HW2 6432   0.199   4.035   0.484  0.6097 -0.7718  0.1339
 2126SOL     OW 6433   2.504   2.392   4.582 -0.1080  0.2132 -0.0026
 2126SOL    HW1 6434   2.591   2.359   4.564  0.8387  2.4661  0.1035
 2126SOL    HW2 6435   2.446   2.344   4.523  1.4327 -0.1453 -1.2600
 2127SOL     OW 6436   4.269   2.750   3.229 -0.1276 -0.1852  0.0328
 2127SOL    HW1 6437   4.321   2.703   3.163 -0.8252 -0.2117 -0.5073
 2127SOL    HW2 6438   4.257   2.837   3.191  1.0052  0.3914  0.9499
 2128SOL     OW 6439   1.814   0.180   3.304 -0.3327  0.3021  0.2151
 2128SOL    HW1 6440   1.893   0.217   3.341 -0.0589  1.2318 -1.1997
 2128SOL    HW2 6441   1.816   0.087   3.328  1.3698  0.2379 -0.0905
 2129SOL     OW 6442   0.059   4.120   3.613 -0.1403  0.4013 -0.4670
 2129SOL    HW1 6443   0.002   4.101   3.688 -0.4328 -0.5511 -0.9200
 2129SOL    HW2 6444   0.122   4.048   3.612  1.4295  1.6890  0.3255
 2130SOL     OW 6445   1.278   0.321   1.226  0.2860 -0.0770  0.2134
 2130SOL    HW1 6446   1.233   0.258   1.283  0.1172 -0.0271  0.1364
 2130SOL    HW2 6447   1.308   0.268   1.152  1.0255 -0.2536  0.6295
 2131SOL     OW 6448   3.872   2.873   0.441 -0.2331  0.0155  0.6646
 2131SOL    HW1 6449   3.948   2.919   0.405  1.2645 -1.5894  1.6181
 2131SOL    HW2 6450   3.909   2.794   0.482 -2.4927 -1.1366  0.6201
 2132SOL     OW 6451   2.410   0.581   3.123 -0.5913  0.4438 -0.0232
 2132SOL    HW1 6452   2.392   0.673   3.106 -1.4404  0.5240  1.2007
 2132SOL    HW2 6453   2.328   0.536   3.101 -0.4915  0.1060  0.2871
 2133SOL     OW 6454   0.463   3.143   0.750 -0.3292 -0.0218 -0.2521
 2133SOL    HW1 6455   0.538   3.134   0.692 -0.2463  1.2244 -0.3717
 2133SOL    HW2 6456   0.418   3.222   0.720 -1.0905 -0.1548  0.4809
 2134SOL     OW 6457   3.802   4.895   1.146  0.6300  0.6260 -0.1974
 2134SOL    HW1 6458   3.753   4.970   1.112  0.9758  0.8626 -0.1847
 2134SOL    HW2 6459   3.877   4.887   1.087 -1.0659 -1.7510 -2.2103
 2135SOL     OW 6460   3.393   4.443   0.916 -0.0274  0.2467 -0.2563
 2135SOL    HW1 6461   3.427   4.466   1.003  0.3973  1.8254 -0.8081
 2135SOL    HW2 6462   3.471   4.432   0.862 -0.2536 -1.5260 -0.3013
 2136SOL     OW 6463   1.692   1.395   3.183 -0.0028  0.1507 -0.2346
 2136SOL    HW1 6464   1.675   1.442   3.101 -0.5816 -1.3597 -1.0087
 2136SOL    HW2 6465   1.670   1.459   3.252 -0.9152  0.9639 -1.2476
 2137SOL     OW 6466   4.154   4.701   4.580 -0.2002  0.0789  0.2655
 2137SOL    HW1 6467   4.209   4.768   4.540  0.0593  0.6020  1.4394
 2137SOL    HW2 6468   4.065   4.728   4.560 -0.2861  2.4586  3.0350
 2138SOL     OW 6469   0.643   2.276   0.763  0.1169 -0.4203  0.4259
 2138SOL    HW1 6470   0.553   2.307   0.761  0.1876  0.2867  3.2021
 2138SOL    HW2 6471   0.670   2.273   0.672 -2.9453 -1.4254 -0.5733
 2139SOL     OW 6472   3.711   4.886   4.109  0.2573  0.3655  0.1005
 2139SOL    HW1 6473   3.706   4.945   4.185  3.1587  0.9531 -0.0571
 2139SOL    HW2 6474   3.647   4.921   4.048 -0.0219  1.7008  1.1038
 2140SOL     OW 6475   2.078   3.742   1.613 -0.2050  0.4521  0.2442
 2140SOL    HW1 6476   2.123   3.747   1.697 -0.6327  2.1710  0.4134
 2140SOL    HW2 6477   2.017   3.816   1.613  0.2721  0.9314 -1.8484
 2141SOL     OW 6478   4.554   3.598   3.659  0.3859  0.1057 -0.0500
 2141SOL    HW1 6479   4.621   3.584   3.592  0.0765  1.2671 -0.6313
 2141SOL    HW2 6480   4.506   3.675   3.629 -0.5336 -0.0749  0.9034
 2142SOL     OW 6481   3.997   0.741   2.192 -0.1397 -0.1253  0.4623
 2142SOL    HW1 6482   3.951   0.784   2.263 -0.3568  0.7147 -0.1608
 2142SOL    HW2 6483   3.966   0.651   2.193 -2.1757  0.5139 -0.2263
 2143SOL     OW 6484   2.987   2.479   3.285 -0.4997  0.5892  0.2940
 2143SOL    HW1 6485   2.898   2.447   3.272 -0.3716  0.3697 -0.0615
 2143SOL    HW2 6486   3.016   2.438   3.367  0.0176 -1.0313 -0.6544
 2144SOL     OW 6487   4.797   3.984   3.557 -0.1813  0.0109 -0.4443
 2144SOL    HW1 6488   4.867   4.014   3.499 -0.9909 -1.9191 -2.5743
 2144SOL    HW2 6489   4.828   3.900   3.590 -1.4887 -0.9162 -1.4985
 2145SOL     OW 6490   1.053   0.532   3.404  0.1613  0.0407  0.2247
 2145SOL    HW1 6491   1.035   0.618   3.442  2.8859 -0.0474  2.0189
 2145SOL    HW2 6492   1.113   0.550   3.332  0.5716 -0.3204  0.4709
 2146SOL     OW 6493   0.847   2.897   0.692 -0.6320 -0.1935 -0.2832
 2146SOL    HW1 6494   0.773   2.946   0.728 -1.4141 -1.6511  0.1949
 2146SOL    HW2 6495   0.923   2.928   0.742 -1.4245 -0.9098  1.4669
 2147SOL     OW 6496   3.555   4.615   3.579 -0.4499  0.0611 -0.4548
 2147SOL    HW1 6497   3.500   4.541   3.605  0.1607 -0.5191 -0.7645
 2147SOL    HW2 6498   3.548   4.617   3.483  0.7820 -0.6206 -0.5866
 2148SOL     OW 6499   2.388   2.186   1.735 -0.1462  0.4720  0.1272
 2148SOL    HW1 6500   2.365   2.100   1.771  4.1243 -1.2660 -0.6446
 2148SOL    HW2 6501   2.381   2.245   1.810 -2.4659 -0.6386  0.8832
 2149SOL     OW 6502   4.476   4.341   1.223 -0.4835  0.1726 -0.3177
 2149SOL    HW1 6503   4.412   4.312   1.289  1.3788 -0.7093  1.1825
 2149SOL    HW2 6504   4.440   4.309   1.140 -2.7258  1.0253  0.2351
 2150SOL     OW 6505   2.215   0.540   4.413  0.4861 -0.2964  0.2644
 2150SOL    HW1 6506   2.148   0.519   4.348  0.3624  1.0032 -0.0435
 2150SOL    HW2 6507   2.296   0.503   4.378  1.2265  3.3880 -2.5390
 2151SOL     OW 6508   3.829   0.788   3.132  0.1804 -0.2068 -0.0549
 2151SOL    HW1 6509   3.831   0.709   3.186  1.4881  0.9886  1.7754
 2151SOL    HW2 6510   3.851   0.757   3.044 -0.1292 -1.9688  0.4456
 2152SOL     OW 6511   0.212   4.382   0.155  0.3489 -0.0449 -0.4405
 2152SOL    HW1 6512   0.264   4.426   0.221  0.6587  0.6470 -1.1294
 2152SOL    HW2 6513   0.122   4.408   0.174  0.3119 -0.6994  0.3376
 2153SOL     OW 6514   1.759   0.840   0.498  0.4238 -0.4030  0.3263
 2153SOL    HW1 6515   1.725   0.874   0.415  1.2133  3.0366  1.2784
 2153SOL    HW2 6516   1.693   0.777   0.527 -0.8779 -0.1768 -1.9068
 2154SOL     OW 6517   3.910   0.003   1.795 -0.1362  0.0784 -0.5173
 2154SOL    HW1 6518   3.862   0.084   1.784  0.9459  0.4727 -3.2481
 2154SOL    HW2 6519   3.846  -0.066   1.776 -0.6083  0.3805 -0.0347
 2155SOL     OW 6520   1.817   1.774   3.378 -0.1961 -0.0640 -0.3938
 2155SOL    HW1 6521   1.866   1.794   3.457 -2.1135  2.0541  0.3848
 2155SOL    HW2 6522   1.835   1.847   3.319 -0.5211 -0.4954 -1.0455
 2156SOL     OW 6523   4.183   2.119   2.791 -0.4742 -0.1010  0.0636
 2156SOL    HW1 6524   4.120   2.060   2.833 -0.3470  0.4200  1.0064
 2156SOL    HW2 6525   4.146   2.206   2.803 -1.2836 -0.0102 -2.3917
 2157SOL     OW 6526   4.009   1.308   1.781  0.8658 -0.1581 -0.6644
 2157SOL    HW1 6527   4.081   1.278   1.725  0.7339  3.0767 -2.8536
 2157SOL    HW2 6528   3.935   1.318   1.722 -1.0678 -1.9868  1.2756
 2158SOL     OW 6529   1.017   2.630   2.905 -0.3366  0.1551  0.2399
 2158SOL    HW1 6530   0.961   2.704   2.881 -0.1581 -0.1361 -1.1651
 2158SOL    HW2 6531   1.089   2.668   2.955 -1.4141  0.6191  1.4977
 2159SOL     OW 6532   1.537   3.517   4.102  0.0002 -0.7434 -0.7221
 2159SOL    HW1 6533   1.587   3.436   4.097 -0.1298 -1.0021  1.3773
 2159SOL    HW2 6534   1.457   3.493   4.149  0.5975  0.8475  1.2130
 2160SOL     OW 6535   4.656   3.071   1.101 -0.2669 -0.0582 -0.0167
 2160SOL    HW1 6536   4.696   3.100   1.019 -0.9584  0.5899 -0.1338
 2160SOL    HW2 6537   4.722   3.089   1.168  0.7412 -1.5892 -0.5464
 2161SOL     OW 6538   0.472   1.130   2.453  0.3783  0.0731  0.0761
 2161SOL    HW1 6539   0.472   1.111   2.359  0.5244 -0.1622  0.1214
 2161SOL    HW2 6540   0.446   1.047   2.493  0.3585  0.1625  0.2464
 2162SOL     OW 6541   2.587   3.629   2.122 -0.6401  0.4851 -0.2685
 2162SOL    HW1 6542   2.608   3.719   2.147  0.7615 -0.1593  1.0063
 2162SOL    HW2 6543   2.648   3.575   2.172 -1.1839 -1.1682 -1.3085
 2163SOL     OW 6544   3.026   1.754   4.580  0.7103 -0.4436 -0.6414
 2163SOL    HW1 6545   2.937   1.788   4.577  0.6070 -0.5424  0.7673
 2163SOL    HW2 6546   3.057   1.773   4.668  2.0093 -0.6237 -1.0250
 2164SOL     OW 6547   1.683   1.306   2.012  0.3004 -0.2899  0.3247
 2164SOL    HW1 6548   1.763   1.255   2.025 -0.3501 -1.5758 -0.5062
 2164SOL    HW2 6549   1.614   1.241   1.999 -0.4141  0.7622 -1.7221
 2165SOL     OW 6550   1.901   3.292   3.912  0.3667 -0.1195 -0.1283
 2165SOL    HW1 6551   1.899   3.213   3.859  2.9713 -0.2761 -0.1469
 2165SOL    HW2 6552   1.953   3.354   3.860 -0.4627  1.1319  0.4916
 2166SOL     OW 6553   4.522   2.027   4.356  0.2244  0.0899 -0.4092
 2166SOL    HW1 6554   4.552   2.113   4.324 -0.3564 -0.3936 -2.4317
 2166SOL    HW2 6555   4.522   1.972   4.278 -1.0234 -1.3069  0.5293
 2167SOL     OW 6556   2.485   1.848   0.210  0.0472 -0.6244  0.6954
 2167SOL    HW1 6557   2.412   1.855   0.148  0.7629 -1.5727 -0.2969
 2167SOL    HW2 6558   2.496   1.754   0.222 -0.1476 -0.4513  2.3820
 2168SOL     OW 6559   0.034   3.639   4.176 -0.6602  0.2749 -0.1778
 2168SOL    HW1 6560   0.058   3.725   4.208 -0.0313  0.3250 -0.7496
 2168SOL    HW2 6561  -0.033   3.608   4.237  0.1442  0.5598  0.8787
 2169SOL     OW 6562   3.813   1.442   1.374 -0.2487 -0.1805  0.1981
 2169SOL    HW1 6563   3.809   1.355   1.333 -0.0043 -0.0895 -0.0246
 2169SOL    HW2 6564   3.903   1.471   1.360 -0.3800  0.1917  0.0962
 2170SOL     OW 6565   4.383   1.840   0.033 -0.1200  0.0345  0.1977
 2170SOL    HW1 6566   4.300   1.869   0.071  0.2815  0.8576  0.4729
 2170SOL    HW2 6567   4.391   1.891  -0.048 -0.9450 -1.6749 -1.0088
 2171SOL     OW 6568   4.073   3.689   0.609 -0.3763 -0.8550  0.1387
 2171SOL    HW1 6569   4.164   3.714   0.627  0.4343 -0.0012 -3.9756
 2171SOL    HW2 6570   4.024   3.771   0.614 -0.4390 -0.8925  0.1397
 2172SOL     OW 6571   3.462   2.507   0.373  0.1669  0.1278 -0.1770
 2172SOL    HW1 6572   3.522   2.539   0.440  0.0239  1.3483 -0.6169
 2172SOL    HW2 6573   3.408   2.442   0.419 -1.7645  2.8242  1.6856
 2173SOL     OW 6574   2.235   4.221   1.373 -0.7316 -0.6633 -0.3642
 2173SOL    HW1 6575   2.199   4.219   1.462 -1.8892  0.1441 -0.7815
 2173SOL    HW2 6576   2.160   4.241   1.317  0.3273  0.9598 -1.3068
 2174SOL     OW 6577   3.276   4.415   2.749  0.2358 -0.0907 -0.4691
 2174SOL    HW1 6578   3.288   4.452   2.836 -0.6838  1.4704 -0.9579
 2174SOL    HW2 6579   3.363   4.386   2.722  0.9747  1.5450  0.0531
 2175SOL     OW 6580   0.734   1.953   3.113 -0.7332 -0.0755  0.4273
 2175SOL    HW1 6581   0.807   1.970   3.173 -0.2825  0.6240 -0.3043
 2175SOL    HW2 6582   0.671   2.022   3.132 -0.3920  0.4188 -0.2018
 2176SOL     OW 6583   3.800   1.177   1.302  0.7885 -0.4353  0.1380
 2176SOL    HW1 6584   3.710   1.170   1.271  0.3581  2.6145  0.3915
 2176SOL    HW2 6585   3.811   1.102   1.361 -1.8597 -0.4448  0.7531
 2177SOL     OW 6586   1.010   4.333   3.323 -0.2989  0.4129  0.3675
 2177SOL    HW1 6587   1.020   4.426   3.306 -0.1368  0.4954  0.8978
 2177SOL    HW2 6588   0.989   4.328   3.416 -2.5075  0.0754 -0.0845
 2178SOL     OW 6589   1.898   4.017   2.697  0.2289 -0.0416 -0.5236
 2178SOL    HW1 6590   1.932   4.105   2.711  0.2538 -0.1212 -0.0724
 2178SOL    HW2 6591   1.892   4.009   2.602 -0.6696  0.7871 -0.5544
 2179SOL     OW 6592   2.404   3.056   4.129 -0.5712 -0.8258 -0.3769
 2179SOL    HW1 6593   2.419   2.976   4.179  0.4758 -1.2323 -1.2968
 2179SOL    HW2 6594   2.387   3.123   4.195  1.0750 -1.2654  0.5414
 2180SOL     OW 6595   3.315   1.502   1.311  0.2785  0.1055 -0.6731
 2180SOL    HW1 6596   3.348   1.429   1.258  0.1825  0.7374 -1.6270
 2180SOL    HW2 6597   3.275   1.460   1.387  0.4675 -0.8273 -1.0770
 2181SOL     OW 6598   1.923   0.095   2.210  0.4874  0.0489 -0.1984
 2181SOL    HW1 6599   1.945   0.153   2.282 -0.4639  1.0460 -0.6849
 2181SOL    HW2 6600   1.985   0.118   2.140  2.2796 -1.7981  0.6558
 2182SOL     OW 6601   0.565   4.393   1.483 -0.0762  0.0092  0.2054
 2182SOL    HW1 6602   0.647   4.345   1.498  0.2092  1.2338  3.4253
 2182SOL    HW2 6603   0.585   4.452   1.410  2.0062  0.3323  0.9503
 2183SOL     OW 6604   2.544   1.277   1.529  0.1533 -0.1269  0.2393
 2183SOL    HW1 6605   2.577   1.323   1.606  0.2706  0.0774  0.0658
 2183SOL    HW2 6606   2.453   1.304   1.521  0.3429  0.4081 -0.1150
 2184SOL     OW 6607   2.146   0.474   0.092 -0.0931 -0.1806 -0.1404
 2184SOL    HW1 6608   2.069   0.492   0.145  0.5520 -0.8050  1.0291
 2184SOL    HW2 6609   2.172   0.385   0.116  2.2105  0.7448  1.0627
 2185SOL     OW 6610   1.084   1.333   3.072 -0.7973  0.4887  0.3798
 2185SOL    HW1 6611   1.084   1.394   3.146 -2.1522  1.8565 -0.6893
 2185SOL    HW2 6612   1.139   1.375   3.006 -1.7415  0.5642 -0.3714
 2186SOL     OW 6613   0.979   4.395   3.576  0.4079 -0.0070  0.6029
 2186SOL    HW1 6614   1.067   4.369   3.600  0.6530 -0.8054 -0.9919
 2186SOL    HW2 6615   0.938   4.422   3.658  2.0616  0.2153  1.3931
 2187SOL     OW 6616   4.894   3.366   4.863  0.2164 -0.0623 -0.2439
 2187SOL    HW1 6617   4.980   3.407   4.854  0.5264 -0.8172 -0.8557
 2187SOL    HW2 6618   4.906   3.277   4.830 -0.0407 -1.2187  2.5086
 2188SOL     OW 6619   3.459   4.202   0.222  0.6683 -0.3344  0.6160
 2188SOL    HW1 6620   3.379   4.171   0.265  0.7267 -1.0886  0.1998
 2188SOL    HW2 6621   3.443   4.295   0.207 -0.0944 -0.4472  0.6450
 2189SOL     OW 6622   4.568   1.667   2.332 -0.0045 -0.2899  0.7115
 2189SOL    HW1 6623   4.616   1.607   2.388  0.2232  0.3712  1.2379
 2189SOL    HW2 6624   4.536   1.735   2.391 -0.3948  0.0293  0.1515
 2190SOL     OW 6625   1.475   0.081   2.142  0.5116  0.8590  0.4729
 2190SOL    HW1 6626   1.489   0.100   2.049  0.4333  1.6373  0.6165
 2190SOL    HW2 6627   1.502   0.160   2.187  1.7067  0.0555  1.2140
 2191SOL     OW 6628   3.572   2.709   1.646 -0.0641 -0.4351  0.6056
 2191SOL    HW1 6629   3.651   2.665   1.677 -0.1871 -1.0568  0.0602
 2191SOL    HW2 6630   3.565   2.684   1.554  0.8485  2.1551 -0.2687
 2192SOL     OW 6631   1.108   0.735   1.970  0.4855  0.3107 -0.0609
 2192SOL    HW1 6632   1.020   0.768   1.988  0.7503  1.0389 -0.0986
 2192SOL    HW2 6633   1.113   0.728   1.875  0.6548  0.7784 -0.0855
 2193SOL     OW 6634   4.231   1.738   0.623  0.2896  0.5127 -0.6575
 2193SOL    HW1 6635   4.143   1.701   0.625  1.2513 -2.1184 -2.0236
 2193SOL    HW2 6636   4.280   1.684   0.685  1.3100  0.7996 -1.2015
 2194SOL     OW 6637   1.862   4.906   0.516  1.0947 -0.5356  0.0334
 2194SOL    HW1 6638   1.879   4.985   0.465  1.7677 -0.7440 -0.0786
 2194SOL    HW2 6639   1.831   4.938   0.601 -2.2609 -0.1878 -1.1743
 2195SOL     OW 6640   4.787   4.482   0.823  0.8192 -0.5381 -0.3949
 2195SOL    HW1 6641   4.774   4.457   0.915  0.5145  2.1417  0.3755
 2195SOL    HW2 6642   4.700   4.472   0.784  0.2789  0.9654  0.3601
 2196SOL     OW 6643   3.309   0.422   0.689 -0.4491 -0.1822  0.3044
 2196SOL    HW1 6644   3.343   0.399   0.776  0.1921 -0.9504 -0.1426
 2196SOL    HW2 6645   3.301   0.338   0.644  1.2821  0.3777 -1.1343
 2197SOL     OW 6646   4.738   3.739   0.436  0.7410 -0.0080  0.5747
 2197SOL    HW1 6647   4.829   3.731   0.465  1.7658  0.3246 -2.2153
 2197SOL    HW2 6648   4.744   3.782   0.351 -2.0977  0.4490  0.5113
 2198SOL     OW 6649   3.786   0.348   2.486  0.1547 -0.1801 -0.6179
 2198SOL    HW1 6650   3.793   0.292   2.564  0.0917  0.5522 -0.0757
 2198SOL    HW2 6651   3.704   0.320   2.445 -0.6863  0.5457  0.5006
 2199SOL     OW 6652   4.611   4.901   0.370 -0.0764  0.0544 -0.2236
 2199SOL    HW1 6653   4.678   4.926   0.433  0.2463 -2.5903  0.5963
 2199SOL    HW2 6654   4.659   4.894   0.286  0.4490 -0.6418  0.1202
 2200SOL     OW 6655   2.291   0.084   1.489 -0.0842  0.1005  0.4817
 2200SOL    HW1 6656   2.343   0.101   1.568 -0.3856  1.0097  0.4915
 2200SOL    HW2 6657   2.350   0.037   1.430 -0.0467 -1.2018  1.4928
 2201SOL     OW 6658   1.043   0.081   2.356 -0.2138 -0.2090 -0.2172
 2201SOL    HW1 6659   0.983   0.146   2.319  0.4120  0.7931  0.4588
 2201SOL    HW2 6660   1.097   0.131   2.417  0.4037 -1.3499  0.2009
 2202SOL     OW 6661   4.042   4.296   2.461 -1.1075  0.0511  0.0132
 2202SOL    HW1 6662   4.135   4.318   2.462 -0.9276 -0.5805 -1.1509
 2202SOL    HW2 6663   4.015   4.313   2.370 -1.4073 -2.5453 -0.4748
 2203SOL     OW 6664   4.361   4.740   3.212  0.1472  0.0061  0.6019
 2203SOL    HW1 6665   4.444   4.755   3.167 -0.2785  1.2174  0.2023
 2203SOL    HW2 6666   4.335   4.652   3.184 -0.1697  0.7555 -1.6545
 2204SOL     OW 6667   3.837   4.824   4.650  0.0400  0.0870  0.0663
 2204SOL    HW1 6668   3.885   4.901   4.681 -1.0058  1.4627 -1.5469
 2204SOL    HW2 6669   3.811   4.779   4.730  0.7625  1.3488  1.0610
 2205SOL     OW 6670   2.375   1.976   3.260 -0.3180 -0.4874  0.6077
 2205SOL    HW1 6671   2.429   2.055   3.252 -1.0938 -0.0140 -0.1027
 2205SOL    HW2 6672   2.437   1.908   3.288  0.4933  0.2132  0.5815
 2206SOL     OW 6673   2.270   2.641   0.191  0.1574  0.4108  0.3854
 2206SOL    HW1 6674   2.262   2.707   0.121 -0.7412 -0.3825 -0.2850
 2206SOL    HW2 6675   2.311   2.566   0.148 -2.5424 -0.9630  0.0460
 2207SOL     OW 6676   4.507   3.183   1.442 -0.4549  0.0878 -0.1983
 2207SOL    HW1 6677   4.440   3.167   1.376 -1.4759  0.1721  0.7991
 2207SOL    HW2 6678   4.468   3.154   1.524  0.8044 -0.0305  0.3793
 2208SOL     OW 6679   4.396   3.563   0.376 -0.2731 -0.5543  0.1264
 2208SOL    HW1 6680   4.447   3.517   0.444 -1.5120 -0.9768  0.8029
 2208SOL    HW2 6681   4.430   3.529   0.294  2.4348  1.1613  0.3793
 2209SOL     OW 6682   3.201   1.816   4.820 -0.0498 -0.1111  0.0755
 2209SOL    HW1 6683   3.252   1.885   4.862 -0.4338  0.8826 -1.0279
 2209SOL    HW2 6684   3.122   1.809   4.873 -0.2905  0.7538 -0.1503
 2210SOL     OW 6685   1.827   3.823   1.902  0.2317 -0.1912  0.3071
 2210SOL    HW1 6686   1.774   3.744   1.898 -0.7314  0.4132  0.8596
 2210SOL    HW2 6687   1.918   3.792   1.903 -0.1444 -1.2897  0.8914
 2211SOL     OW 6688   4.198   3.786   4.739 -0.2260 -0.6128 -0.6597
 2211SOL    HW1 6689   4.229   3.749   4.657 -0.6704 -2.7228  0.0443
 2211SOL    HW2 6690   4.126   3.728   4.766  0.1015 -0.1766  1.3414
 2212SOL     OW 6691   0.629   2.555   4.755  0.4501 -0.2314 -0.1969
 2212SOL    HW1 6692   0.540   2.584   4.776  0.1026 -2.0206  1.0110
 2212SOL    HW2 6693   0.685   2.602   4.817  0.1151 -0.6552  0.4357
 2213SOL     OW 6694   4.414   3.365   3.735  0.1162  0.4013 -0.9390
 2213SOL    HW1 6695   4.477   3.436   3.748 -0.1568  0.3608  0.7997
 2213SOL    HW2 6696   4.328   3.407   3.742 -0.1720  0.5914 -3.9988
 2214SOL     OW 6697   2.101   0.779   2.928  0.1791  0.7724  0.7368
 2214SOL    HW1 6698   2.013   0.770   2.964 -0.3263  1.7756 -0.1719
 2214SOL    HW2 6699   2.117   0.697   2.881 -0.0296  0.3523  1.3897
 2215SOL     OW 6700   0.275   3.959   3.606  0.4297  0.0069  0.1331
 2215SOL    HW1 6701   0.319   4.019   3.545  0.3992 -0.0408  0.0643
 2215SOL    HW2 6702   0.336   3.886   3.615  0.4921  0.0742  0.2608
 2216SOL     OW 6703   4.111   1.292   4.475 -0.4668  0.3808 -0.3508
 2216SOL    HW1 6704   4.088   1.324   4.388 -1.0760  0.4097 -0.1779
 2216SOL    HW2 6705   4.205   1.273   4.469 -0.5965 -0.0557 -1.1520
 2217SOL     OW 6706   1.032   4.231   0.067 -0.3043 -0.3701 -0.0842
 2217SOL    HW1 6707   0.956   4.183   0.100 -0.3788 -0.5885 -0.5602
 2217SOL    HW2 6708   1.025   4.317   0.107 -1.6640  0.1276 -1.3051
 2218SOL     OW 6709   2.902   1.943   0.415  0.0422  0.8073 -0.0457
 2218SOL    HW1 6710   2.809   1.920   0.416  0.3891 -0.7850 -0.8107
 2218SOL    HW2 6711   2.940   1.888   0.346  1.6189  1.1632  0.4848
 2219SOL     OW 6712   0.164   0.741   3.966 -0.2861  0.5600 -0.3109
 2219SOL    HW1 6713   0.207   0.825   3.950  2.3845 -0.5139  0.6709
 2219SOL    HW2 6714   0.150   0.705   3.878 -1.4770  1.9667 -0.7441
 2220SOL     OW 6715   4.237   0.703   0.264  0.0631 -0.3640  0.4571
 2220SOL    HW1 6716   4.148   0.706   0.297 -0.0964  0.4986 -0.0136
 2220SOL    HW2 6717   4.235   0.637   0.194 -0.0192 -0.8899  0.9500
 2221SOL     OW 6718   3.288   3.676   1.978 -0.2477 -0.2891 -0.5715
 2221SOL    HW1 6719   3.380   3.652   1.966 -0.2466 -0.4038 -0.3358
 2221SOL    HW2 6720   3.273   3.669   2.072 -0.5299 -0.3972 -0.6224
 2222SOL     OW 6721   3.553   0.537   2.538 -0.4715 -0.2510 -0.0027
 2222SOL    HW1 6722   3.462   0.564   2.524 -0.5157 -0.8626 -0.9518
 2222SOL    HW2 6723   3.554   0.443   2.520 -0.0547 -0.6932  2.0395
 2223SOL     OW 6724   3.237   4.708   2.867 -0.1334  0.0921  0.0961
 2223SOL    HW1 6725   3.181   4.718   2.944  1.3913  0.7975  1.1779
 2223SOL    HW2 6726   3.178   4.712   2.793 -1.5601  0.2593  1.2000
 2224SOL     OW 6727   2.930   2.981   4.646  0.2201  0.6464  0.5887
 2224SOL    HW1 6728   2.994   3.051   4.660  0.5282  0.8688 -1.5357
 2224SOL    HW2 6729   2.967   2.905   4.689  0.0647  1.6603  2.6314
 2225SOL     OW 6730   2.237   3.089   2.987  0.0995  0.5337 -0.0680
 2225SOL    HW1 6731   2.321   3.126   3.015 -0.0853  0.4065  0.6716
 2225SOL    HW2 6732   2.259   3.028   2.918  0.8724 -1.1775  1.6177
 2226SOL     OW 6733   4.314   1.524   0.238 -0.4657  0.3662  0.1379
 2226SOL    HW1 6734   4.307   1.614   0.270 -2.6366  0.9803 -1.8146
 2226SOL    HW2 6735   4.227   1.503   0.205  0.4036 -1.8886 -0.9380
 2227SOL     OW 6736   3.996   1.653   1.699  0.5782  0.0676 -0.3344
 2227SOL    HW1 6737   4.080   1.696   1.684  0.2108  0.0952 -2.6483
 2227SOL    HW2 6738   4.003   1.570   1.651 -0.0049 -0.8878  1.1557
 2228SOL     OW 6739   1.391   2.497   1.901  0.7546  0.0384 -0.0023
 2228SOL    HW1 6740   1.429   2.551   1.832 -0.0153 -0.0269 -0.4803
 2228SOL    HW2 6741   1.297   2.508   1.892  0.5715 -1.3918 -0.1176
 2229SOL     OW 6742   1.987   4.037   3.305  0.2659  0.1836 -0.2250
 2229SOL    HW1 6743   1.961   3.959   3.353 -2.2061 -0.3063 -2.1449
 2229SOL    HW2 6744   2.068   4.066   3.347 -0.1350 -1.8945  2.1878
 2230SOL     OW 6745   2.318   4.714   2.081  0.6970  0.1862 -0.5494
 2230SOL    HW1 6746   2.237   4.761   2.101  1.2012 -0.1605  2.9148
 2230SOL    HW2 6747   2.380   4.783   2.056 -0.3062  0.5481 -2.2291
 2231SOL     OW 6748   1.582   1.506   0.443  0.2773 -0.9852 -0.0717
 2231SOL    HW1 6749   1.490   1.489   0.466 -0.1489 -1.1154 -1.7058
 2231SOL    HW2 6750   1.629   1.428   0.473 -0.5449 -1.9781 -1.2530
 2232SOL     OW 6751   1.159   3.905   0.808  0.1794 -0.1722  0.5460
 2232SOL    HW1 6752   1.203   3.980   0.848  3.6783 -1.1309 -1.1302
 2232SOL    HW2 6753   1.116   3.941   0.730  1.0889  0.2420  0.2243
 2233SOL     OW 6754   3.214   4.903   1.911 -0.5304 -0.2394 -0.4346
 2233SOL    HW1 6755   3.247   4.917   2.000 -2.5914  0.2700  0.3219
 2233SOL    HW2 6756   3.228   4.809   1.895 -1.8270 -0.7966  1.2524
 2234SOL     OW 6757   2.293   2.351   4.171  0.0804 -0.1756  0.0868
 2234SOL    HW1 6758   2.298   2.259   4.199  0.0771 -1.0106 -2.4708
 2234SOL    HW2 6759   2.203   2.361   4.140 -0.0765  0.8888  0.8213
 2235SOL     OW 6760   2.158   1.093   2.458 -0.2668  0.1436  0.1729
 2235SOL    HW1 6761   2.121   1.019   2.506 -0.9839 -0.0049 -0.5847
 2235SOL    HW2 6762   2.253   1.079   2.462 -0.4349 -2.0291 -1.8085
 2236SOL     OW 6763   0.492   4.933   3.903  0.0085 -0.1667  0.3510
 2236SOL    HW1 6764   0.500   4.883   3.984  1.5567 -0.9970 -0.2838
 2236SOL    HW2 6765   0.568   4.907   3.851  0.2398  1.9871 -0.4796
 2237SOL     OW 6766   4.379   1.503   4.667  0.3712 -0.3649 -0.3704
 2237SOL    HW1 6767   4.378   1.409   4.649  0.8416 -0.2370 -1.1098
 2237SOL    HW2 6768   4.387   1.510   4.762 -1.6543 -1.0810 -0.0916
 2238SOL     OW 6769   1.274   1.337   0.466 -0.0790  0.3413 -0.2669
 2238SOL    HW1 6770   1.240   1.388   0.539  1.2219  1.2138 -0.2390
 2238SOL    HW2 6771   1.266   1.246   0.495  1.4066  0.7051  1.4476
 2239SOL     OW 6772   4.285   0.002   3.342  0.7880  0.6917  0.0515
 2239SOL    HW1 6773   4.190   0.012   3.338  0.8825  1.8911  0.4459
 2239SOL    HW2 6774   4.303  -0.075   3.289 -0.5014 -0.2339  0.8908
 2240SOL     OW 6775   2.361   2.905   1.941  0.6105  0.3019  0.4390
 2240SOL    HW1 6776   2.407   2.860   1.869  0.7548 -0.5704  1.0528
 2240SOL    HW2 6777   2.278   2.858   1.950 -0.8274  2.3549 -1.1762
 2241SOL     OW 6778   0.727   1.443   2.767 -0.0641  0.3086 -1.0083
 2241SOL    HW1 6779   0.766   1.531   2.766 -3.8032  2.1352 -1.3705
 2241SOL    HW2 6780   0.752   1.408   2.853  0.6737  2.1253 -0.4181
 2242SOL     OW 6781   3.538   3.409   2.622  0.0765  0.3560  0.0908
 2242SOL    HW1 6782   3.458   3.422   2.571  0.5022  0.8384 -0.4620
 2242SOL    HW2 6783   3.592   3.353   2.567  0.5857  0.9700 -0.0431
 2243SOL     OW 6784   3.203   2.982   0.946 -0.4744  0.2800 -0.0203
 2243SOL    HW1 6785   3.292   2.981   0.982  0.1608 -0.8893 -1.5287
 2243SOL    HW2 6786   3.200   3.060   0.891  1.1839 -1.8038 -3.4387
 2244SOL     OW 6787   2.466   3.186   4.843 -0.0519  0.5542 -0.0368
 2244SOL    HW1 6788   2.477   3.150   4.755  0.3487  0.1518  0.1736
 2244SOL    HW2 6789   2.412   3.264   4.831 -0.3402  0.2725 -0.5883
 2245SOL     OW 6790   4.261   1.801   3.923  0.2851  0.1094 -1.1611
 2245SOL    HW1 6791   4.209   1.875   3.955 -0.4599 -0.7050 -0.4054
 2245SOL    HW2 6792   4.294   1.830   3.837 -0.5227  1.0654 -1.1725
 2246SOL     OW 6793   0.087   1.132   0.935  0.0083  1.0184 -0.3192
 2246SOL    HW1 6794   0.152   1.183   0.886  0.1814  2.3012  1.1456
 2246SOL    HW2 6795   0.003   1.158   0.897  0.2558  0.2473 -1.4346
 2247SOL     OW 6796   2.046   3.413   4.506  0.1624 -0.1324  0.6724
 2247SOL    HW1 6797   2.011   3.496   4.473  0.1120 -0.8225 -1.0872
 2247SOL    HW2 6798   2.140   3.427   4.509  0.5647 -1.0825 -3.0904
 2248SOL     OW 6799   4.222   1.128   3.007  0.0921 -0.4527  0.1249
 2248SOL    HW1 6800   4.243   1.142   3.099  0.0738 -1.7619  0.3476
 2248SOL    HW2 6801   4.149   1.188   2.990 -0.5770 -0.9190  1.2443
 2249SOL     OW 6802   1.921   1.320   3.000 -0.2432 -0.2486  0.2455
 2249SOL    HW1 6803   1.839   1.340   3.046  0.4394  1.7348  0.7104
 2249SOL    HW2 6804   1.896   1.313   2.908 -1.6727 -4.5242  0.7505
 2250SOL     OW 6805   1.022   2.761   4.883 -0.0887  0.3969 -0.0932
 2250SOL    HW1 6806   0.974   2.824   4.937  0.5778  1.9685 -1.2479
 2250SOL    HW2 6807   1.091   2.728   4.939  0.0630  1.3425  0.2996
 2251SOL     OW 6808   1.925   0.132   0.344 -0.1570 -0.0003  0.0338
 2251SOL    HW1 6809   1.912   0.195   0.273 -0.0558  2.6382  2.2092
 2251SOL    HW2 6810   1.977   0.179   0.409  1.6688 -3.0491  0.9735
 2252SOL     OW 6811   4.921   0.826   4.343 -0.7193  0.1228  0.1811
 2252SOL    HW1 6812   4.897   0.903   4.290 -0.6812 -0.3886 -0.5944
 2252SOL    HW2 6813   4.935   0.862   4.431 -0.2414  1.0821 -0.2661
 2253SOL     OW 6814   4.675   3.667   3.994  1.1849 -0.2014 -0.1376
 2253SOL    HW1 6815   4.748   3.618   3.956  0.9581  1.4981 -3.0209
 2253SOL    HW2 6816   4.603   3.604   3.998  1.1156 -0.4227 -3.0488
 2254SOL     OW 6817   1.458   0.678   0.281  0.0874 -1.0742  0.2963
 2254SOL    HW1 6818   1.374   0.682   0.235  0.5115  1.8232 -0.4452
 2254SOL    HW2 6819   1.434   0.687   0.374 -0.5010 -2.1974  0.2684
 2255SOL     OW 6820   0.934   4.762   3.382  0.6026  0.1006 -0.4602
 2255SOL    HW1 6821   0.875   4.795   3.314  0.0820  0.0477 -0.0439
 2255SOL    HW2 6822   0.881   4.764   3.462  1.3574  0.6272  0.0360
 2256SOL     OW 6823   0.668   1.797   3.732  0.3910  0.5903 -0.2473
 2256SOL    HW1 6824   0.635   1.818   3.645  0.2769 -0.1098 -0.3743
 2256SOL    HW2 6825   0.763   1.803   3.724  0.5253 -1.7040 -1.0354
 2257SOL     OW 6826   1.596   1.273   1.300 -0.1331  0.5694  0.3309
 2257SOL    HW1 6827   1.679   1.253   1.255 -0.3326 -2.1503  0.9953
 2257SOL    HW2 6828   1.611   1.248   1.390 -1.7142 -0.0535  0.4474
 2258SOL     OW 6829   1.528   4.326   0.870 -0.0416  0.1255 -0.5429
 2258SOL    HW1 6830   1.593   4.259   0.891 -1.3767 -0.9523  0.3483
 2258SOL    HW2 6831   1.568   4.378   0.800  1.9471 -0.1957  0.2840
 2259SOL     OW 6832   2.525   0.149   3.791 -0.0803  0.0009  0.4337
 2259SOL    HW1 6833   2.534   0.054   3.781  1.3535  0.0940  0.5992
 2259SOL    HW2 6834   2.568   0.185   3.713 -1.1325  0.5314  0.0684
 2260SOL     OW 6835   1.220   0.688   0.153  0.3231  0.4893  0.2940
 2260SOL    HW1 6836   1.175   0.770   0.134 -1.0524 -0.1745  0.5998
 2260SOL    HW2 6837   1.217   0.639   0.070  1.2093  0.7569  0.0894
 2261SOL     OW 6838   0.573   3.077   3.428  0.3426 -0.3093  0.2023
 2261SOL    HW1 6839   0.545   3.049   3.515  0.5593  0.1885  0.4346
 2261SOL    HW2 6840   0.628   3.154   3.443  0.3365 -0.1812 -0.3787
 2262SOL     OW 6841   2.014   2.772   1.378  0.4304 -0.2339 -0.1704
 2262SOL    HW1 6842   2.100   2.732   1.362  0.5819  0.2151 -0.5063
 2262SOL    HW2 6843   2.016   2.796   1.470  0.2190 -1.2686  0.1172
 2263SOL     OW 6844   2.277   0.972   2.908  0.3831  0.8650 -0.2194
 2263SOL    HW1 6845   2.216   0.898   2.906  2.7652 -1.2602  0.3332
 2263SOL    HW2 6846   2.242   1.030   2.976 -1.4590  0.2106 -0.5397
 2264SOL     OW 6847   3.163   1.219   2.564 -0.7387  0.3197 -0.3580
 2264SOL    HW1 6848   3.086   1.245   2.512 -0.3195  0.9944 -0.6480
 2264SOL    HW2 6849   3.144   1.251   2.652 -1.5711 -1.0575 -0.0040
 2265SOL     OW 6850   3.595   1.294   4.454 -0.4235 -0.3570  0.6738
 2265SOL    HW1 6851   3.631   1.379   4.429 -0.0214  0.0987  2.6044
 2265SOL    HW2 6852   3.501   1.310   4.465 -0.3738 -0.1930  0.8662
 2266SOL     OW 6853   0.762   2.926   2.487 -0.2976  0.9054 -0.1553
 2266SOL    HW1 6854   0.796   2.974   2.411  0.5718  1.5829  0.6536
 2266SOL    HW2 6855   0.831   2.932   2.553 -0.2149 -1.3426  0.0449
 2267SOL     OW 6856   1.117   2.467   3.931 -0.0236  0.0285 -0.0162
 2267SOL    HW1 6857   1.084   2.487   4.019  0.1706 -1.1210  0.3363
 2267SOL    HW2 6858   1.054   2.403   3.897  1.6532 -2.0887  0.6025
 2268SOL     OW 6859   1.184   0.263   2.500 -0.4510  0.3425  0.2256
 2268SOL    HW1 6860   1.243   0.314   2.556  1.4678 -0.0966 -1.2914
 2268SOL    HW2 6861   1.192   0.304   2.414  0.4486 -1.9013 -0.8391
 2269SOL     OW 6862   0.788   1.426   0.391  0.7272 -0.0228  0.5429
 2269SOL    HW1 6863   0.756   1.345   0.351  0.4884 -0.0054  0.6939
 2269SOL    HW2 6864   0.712   1.485   0.388  0.5880 -0.1521  1.3825
 2270SOL     OW 6865   0.024   0.215   4.739  0.3990 -0.0454  0.5272
 2270SOL    HW1 6866   0.053   0.132   4.701  0.5532 -0.3187  1.2248
 2270SOL    HW2 6867   0.092   0.238   4.802  0.3328  0.5917  0.3672
 2271SOL     OW 6868   1.235   0.316   3.238 -0.0253  0.1305  0.3724
 2271SOL    HW1 6869   1.150   0.272   3.244  0.9361 -1.8308  0.3643
 2271SOL    HW2 6870   1.299   0.248   3.259  1.7643  0.5917 -2.8385
 2272SOL     OW 6871   4.765   1.138   0.959 -0.0982  0.2485 -0.7959
 2272SOL    HW1 6872   4.712   1.121   0.881 -1.2728  0.8516 -0.1737
 2272SOL    HW2 6873   4.751   1.062   1.015 -2.3681  1.4333  0.4104
 2273SOL     OW 6874   1.793   4.970   1.733  0.4487  0.0896  0.4024
 2273SOL    HW1 6875   1.842   5.051   1.724  2.6331 -1.0874  1.0181
 2273SOL    HW2 6876   1.852   4.902   1.699 -1.0180 -1.3383  0.5811
 2274SOL     OW 6877   3.206   3.158   2.511 -0.3506 -1.0249  0.2325
 2274SOL    HW1 6878   3.181   3.124   2.598 -0.1232 -3.2472 -0.4969
 2274SOL    HW2 6879   3.180   3.088   2.450  1.2951 -0.3919 -1.2817
 2275SOL     OW 6880   3.500   1.946   3.799  0.1951 -0.0698 -0.6663
 2275SOL    HW1 6881   3.568   1.926   3.735  2.1454 -1.6137  1.7138
 2275SOL    HW2 6882   3.469   2.033   3.775  3.4500  0.9748 -1.5528
 2276SOL     OW 6883   4.247   4.194   1.860 -0.3998  0.2568  0.6766
 2276SOL    HW1 6884   4.240   4.290   1.860  0.7495  0.3631  0.5995
 2276SOL    HW2 6885   4.158   4.163   1.844 -0.4262  1.3717 -1.8463
 2277SOL     OW 6886   0.340   2.073   2.622  0.1868  0.1308  0.0956
 2277SOL    HW1 6887   0.326   2.113   2.536 -2.0778 -2.2694 -0.7698
 2277SOL    HW2 6888   0.312   2.141   2.684  0.8465  1.5147 -1.0594
 2278SOL     OW 6889   0.206   3.737   2.760 -0.4239  0.1104 -0.6311
 2278SOL    HW1 6890   0.158   3.799   2.816 -1.3265 -0.4726 -0.7373
 2278SOL    HW2 6891   0.143   3.713   2.692  0.1685 -0.3455 -1.0254
 2279SOL     OW 6892   1.893   3.616   4.852 -0.0415 -0.0704 -0.1883
 2279SOL    HW1 6893   1.831   3.638   4.782 -0.8154 -0.1046  0.4721
 2279SOL    HW2 6894   1.978   3.643   4.817 -0.3327 -0.5895 -1.3611
 2280SOL     OW 6895   3.814   0.838   1.187  0.0944 -0.3418  0.1994
 2280SOL    HW1 6896   3.802   0.863   1.279 -2.0792  2.8314 -0.7992
 2280SOL    HW2 6897   3.774   0.751   1.181 -0.1813 -0.3950  2.1604
 2281SOL     OW 6898   0.937   1.802   0.891 -0.5783 -0.2342 -0.1109
 2281SOL    HW1 6899   1.013   1.821   0.836 -0.9647 -0.1458 -0.6303
 2281SOL    HW2 6900   0.902   1.720   0.856  2.1539 -3.1686  3.2719
 2282SOL     OW 6901   3.968   0.182   0.949  0.1110 -0.0078  0.3138
 2282SOL    HW1 6902   3.967   0.123   0.874 -2.5033 -0.3818  0.5312
 2282SOL    HW2 6903   4.018   0.258   0.920 -0.5052 -0.3072 -1.6938
 2283SOL     OW 6904   2.243   0.810   1.390  0.1574  0.4880 -0.5214
 2283SOL    HW1 6905   2.338   0.809   1.373 -0.1941 -0.1505 -2.8589
 2283SOL    HW2 6906   2.216   0.898   1.364  0.1325  0.7970  0.5049
 2284SOL     OW 6907   3.585   2.147   4.662 -0.0325 -0.1781  0.5893
 2284SOL    HW1 6908   3.508   2.192   4.697 -0.7176 -0.6052 -0.3335
 2284SOL    HW2 6909   3.550   2.072   4.614  0.7568  0.8927 -1.8402
 2285SOL     OW 6910   3.860   4.224   3.107  0.5972 -0.3924  0.1444
 2285SOL    HW1 6911   3.771   4.256   3.091  0.8381  0.1111 -0.2544
 2285SOL    HW2 6912   3.854   4.176   3.189 -0.1966 -1.0068 -0.2536
 2286SOL     OW 6913   1.253   3.496   2.229 -0.0254  0.0510  0.1715
 2286SOL    HW1 6914   1.218   3.526   2.313 -1.8076 -0.3236 -0.3895
 2286SOL    HW2 6915   1.227   3.404   2.224  0.7636 -0.1465 -0.4481
 2287SOL     OW 6916   2.074   2.678   2.461 -0.0132 -0.0197  0.3404
 2287SOL    HW1 6917   1.988   2.650   2.492  0.2978  0.2248  1.4634
 2287SOL    HW2 6918   2.059   2.765   2.426 -0.4719 -0.5070 -0.7351
 2288SOL     OW 6919   4.606   1.637   1.895 -0.0060 -0.2466  0.3107
 2288SOL    HW1 6920   4.548   1.614   1.967 -0.5027 -0.6828 -0.2228
 2288SOL    HW2 6921   4.687   1.666   1.938 -0.8982  1.2501  1.0932
 2289SOL     OW 6922   4.821   1.599   3.627  0.3560  0.5705 -0.1443
 2289SOL    HW1 6923   4.779   1.684   3.615 -2.0513 -0.4867  0.1593
 2289SOL    HW2 6924   4.801   1.575   3.717  1.3803 -0.1359 -0.0886
 2290SOL     OW 6925   1.642   2.513   2.032 -0.0971  0.1838 -0.0050
 2290SOL    HW1 6926   1.551   2.498   2.006 -0.0139  1.2290 -1.0137
 2290SOL    HW2 6927   1.675   2.575   1.967  1.9196 -1.6406 -0.8614
 2291SOL     OW 6928   0.718   0.309   3.218 -0.2990  0.4298 -0.3025
 2291SOL    HW1 6929   0.765   0.387   3.190 -0.8622  0.6552 -0.6521
 2291SOL    HW2 6930   0.637   0.309   3.165 -0.5928 -0.0526  0.1299
 2292SOL     OW 6931   0.401   2.621   2.770  0.0659 -0.3321 -0.0276
 2292SOL    HW1 6932   0.437   2.543   2.812 -1.5525 -1.3157 -0.4094
 2292SOL    HW2 6933   0.363   2.590   2.688  0.2268  1.0274 -0.6617
 2293SOL     OW 6934   2.679   1.457   4.172 -0.5160  0.3771 -0.2000
 2293SOL    HW1 6935   2.743   1.461   4.243  3.1164  0.0663 -3.1447
 2293SOL    HW2 6936   2.618   1.387   4.199 -0.0826  1.0763  3.0169
 2294SOL     OW 6937   1.026   4.168   2.778  0.0663 -0.1949 -0.0162
 2294SOL    HW1 6938   0.988   4.195   2.861 -0.8401  0.9962 -0.7846
 2294SOL    HW2 6939   1.121   4.170   2.793 -0.0732  0.5238  0.8398
 2295SOL     OW 6940   1.278   1.802   4.780  0.3895 -0.1124 -0.2238
 2295SOL    HW1 6941   1.280   1.725   4.836  1.5313  0.9480  1.2510
 2295SOL    HW2 6942   1.186   1.829   4.780  0.1952 -0.7532  0.2505
 2296SOL     OW 6943   2.209   4.405   0.335  0.1334  0.4412  0.1706
 2296SOL    HW1 6944   2.291   4.355   0.337 -0.8361 -1.1995  1.2173
 2296SOL    HW2 6945   2.219   4.471   0.403  0.7365  0.5067  0.0204
 2297SOL     OW 6946   1.540   1.525   4.665  0.4799 -0.2233 -0.3182
 2297SOL    HW1 6947   1.533   1.616   4.636  0.4556  0.0333  0.4704
 2297SOL    HW2 6948   1.487   1.476   4.603 -0.1279  0.4025 -0.3116
 2298SOL     OW 6949   4.305   2.567   3.530 -0.3044 -0.6079 -0.0878
 2298SOL    HW1 6950   4.382   2.624   3.537 -1.5681  1.2485 -0.4272
 2298SOL    HW2 6951   4.275   2.558   3.620 -0.6461  0.0918 -0.1235
 2299SOL     OW 6952   3.279   2.646   1.097  1.0160  0.4648  0.2472
 2299SOL    HW1 6953   3.212   2.676   1.160  0.9975 -0.0268  0.4641
 2299SOL    HW2 6954   3.360   2.646   1.148  0.9634 -0.1471  0.3364
 2300SOL     OW 6955   0.984   4.268   1.994  0.2149  0.1048  0.2894
 2300SOL    HW1 6956   1.003   4.361   1.982 -0.6919  0.0187 -2.3035
 2300SOL    HW2 6957   1.053   4.223   1.945 -0.7193 -0.4852 -0.5269
 2301SOL     OW 6958   3.295   1.289   2.114 -0.2786  0.2552  0.0933
 2301SOL    HW1 6959   3.307   1.365   2.057  1.6901 -0.1837 -0.1528
 2301SOL    HW2 6960   3.367   1.293   2.176 -1.2846 -0.3513  1.3578
 2302SOL     OW 6961   1.987   1.482   0.164 -0.2498 -0.0023  0.4627
 2302SOL    HW1 6962   1.926   1.524   0.224  0.3504  2.1397 -0.3565
 2302SOL    HW2 6963   2.064   1.464   0.218 -0.3459  0.3420  0.7170
 2303SOL     OW 6964   3.598   2.359   3.921  0.0972  0.2831 -0.1579
 2303SOL    HW1 6965   3.650   2.306   3.981  1.6897  1.1300 -0.7555
 2303SOL    HW2 6966   3.628   2.449   3.935 -0.2497  0.6230 -1.4797
 2304SOL     OW 6967   3.393   0.591   2.226  0.0631  0.2233 -0.1760
 2304SOL    HW1 6968   3.450   0.663   2.252  1.4436 -1.3816  1.6009
 2304SOL    HW2 6969   3.333   0.580   2.300  0.2577 -0.7598 -0.1451
 2305SOL     OW 6970   2.002   2.901   2.863 -0.1672  0.1623  0.2999
 2305SOL    HW1 6971   2.020   2.966   2.931 -0.6220 -0.9703  1.5533
 2305SOL    HW2 6972   2.083   2.849   2.858 -0.2345  0.0682  0.1894
 2306SOL     OW 6973   0.474   3.713   3.609 -0.1338 -0.2926  0.7973
 2306SOL    HW1 6974   0.521   3.629   3.614  0.5884  0.0801  0.4009
 2306SOL    HW2 6975   0.528   3.773   3.661 -1.2520 -0.3320  2.0605
 2307SOL     OW 6976   3.280   2.169   2.187 -0.1383  0.2857 -0.2579
 2307SOL    HW1 6977   3.334   2.094   2.162 -0.8993 -0.0395 -0.9552
 2307SOL    HW2 6978   3.245   2.203   2.105 -1.9644 -0.2546  0.2576
 2308SOL     OW 6979   1.774   1.622   0.896  0.2586 -0.2064 -0.1634
 2308SOL    HW1 6980   1.695   1.657   0.854  1.0317  0.4885 -1.0816
 2308SOL    HW2 6981   1.759   1.527   0.898 -0.8457 -0.0424  0.2075
 2309SOL     OW 6982   3.879   2.674   4.452 -0.3941 -0.2580 -0.1779
 2309SOL    HW1 6983   3.973   2.657   4.449  0.1946  1.6176  2.9362
 2309SOL    HW2 6984   3.872   2.769   4.460 -2.6995 -0.1887 -2.0983
 2310SOL     OW 6985   1.160   4.043   0.265 -0.6343 -0.5339  0.6587
 2310SOL    HW1 6986   1.206   4.125   0.250 -2.4543  0.9094  2.4559
 2310SOL    HW2 6987   1.200   4.006   0.343 -0.5102 -0.8270  0.4581
 2311SOL     OW 6988   3.964   4.713   3.290 -0.4682  0.1630  0.0974
 2311SOL    HW1 6989   3.936   4.636   3.339  0.0718  0.6139  1.1417
 2311SOL    HW2 6990   3.933   4.697   3.201  0.6973 -1.8289 -0.0032
 2312SOL     OW 6991   0.305   3.064   1.670  0.6611  0.2333 -0.1668
 2312SOL    HW1 6992   0.227   3.009   1.674  0.0379  1.0670 -0.5325
 2312SOL    HW2 6993   0.324   3.086   1.761 -0.1420  0.8405 -0.1339
 2313SOL     OW 6994   3.392   3.081   0.691  0.5170 -0.1256 -0.0635
 2313SOL    HW1 6995   3.333   3.138   0.643  0.1416  0.2399  0.8110
 2313SOL    HW2 6996   3.423   3.018   0.626 -1.4005 -0.7854 -0.4062
 2314SOL     OW 6997   1.439   2.167   0.577  0.0677 -0.8185  0.1618
 2314SOL    HW1 6998   1.486   2.156   0.495 -1.2794  0.8216 -0.8944
 2314SOL    HW2 6999   1.503   2.204   0.638  0.2064  1.4865 -1.2720
 2315SOL     OW 7000   3.863   3.688   0.854  0.1014 -0.1965 -0.2624
 2315SOL    HW1 7001   3.868   3.781   0.831 -0.2491  0.9428  3.6109
 2315SOL    HW2 7002   3.772   3.664   0.838 -0.4886  0.9477  1.1439
 2316SOL     OW 7003   3.187   0.642   0.357 -0.1581  0.0599 -0.4197
 2316SOL    HW1 7004   3.209   0.653   0.449  0.9920  2.5536 -0.9217
 2316SOL    HW2 7005   3.158   0.551   0.350  1.6963 -0.8183  1.9989
 2317SOL     OW 7006   2.858   1.495   1.875  0.0170 -0.2321  0.3563
 2317SOL    HW1 7007   2.867   1.514   1.968  0.2794  0.4154  0.2018
 2317SOL    HW2 7008   2.893   1.573   1.831  1.8812 -1.3906 -0.3155
 2318SOL     OW 7009   1.958   2.561   3.079 -0.3187 -0.4418 -0.4217
 2318SOL    HW1 7010   1.914   2.486   3.118  1.8708 -0.5186  2.2148
 2318SOL    HW2 7011   1.899   2.634   3.094 -0.5946 -0.9220  0.9607
 2319SOL     OW 7012   0.817   4.506   2.227  0.3719 -1.2279  0.5514
 2319SOL    HW1 7013   0.737   4.525   2.177  0.4329 -1.9428  0.1719
 2319SOL    HW2 7014   0.866   4.589   2.226  1.3881 -1.7316 -2.4520
 2320SOL     OW 7015   2.896   2.148   4.595  0.1682  0.1519  0.5377
 2320SOL    HW1 7016   2.870   2.113   4.680 -0.2574  2.6410  1.5116
 2320SOL    HW2 7017   2.853   2.234   4.590  0.6712  0.3397 -1.9346
 2321SOL     OW 7018   3.100   2.371   0.035  0.0752  0.1565 -0.7987
 2321SOL    HW1 7019   3.110   2.462   0.063 -0.7398 -0.2363  0.8860
 2321SOL    HW2 7020   3.183   2.329   0.059 -0.3883 -0.0346  0.5708
 2322SOL     OW 7021   4.690   1.458   3.423  0.3727  0.5114  0.5227
 2322SOL    HW1 7022   4.756   1.499   3.479  0.6606  1.1934 -0.2886
 2322SOL    HW2 7023   4.739   1.422   3.350  0.0114 -0.4789  0.7496
 2323SOL     OW 7024   4.123   2.130   3.930 -0.4341  1.0365  0.0180
 2323SOL    HW1 7025   4.067   2.055   3.909 -4.4683  2.8362  2.8711
 2323SOL    HW2 7026   4.157   2.111   4.018 -0.3752  1.9285  0.1999
 2324SOL     OW 7027   3.449   0.001   0.287  0.4091 -0.3643  0.5843
 2324SOL    HW1 7028   3.496  -0.079   0.307 -1.8903 -1.3778  2.5044
 2324SOL    HW2 7029   3.396  -0.019   0.210  0.9606 -0.1862  0.1595
 2325SOL     OW 7030   4.590   4.363   3.449 -0.3377 -0.2374  0.1489
 2325SOL    HW1 7031   4.613   4.411   3.370  1.7934  1.7456  1.8100
 2325SOL    HW2 7032   4.528   4.419   3.494 -0.5398 -0.7222  0.4864
 2326SOL     OW 7033   0.141   3.094   3.106  0.1996 -0.1159  0.5164
 2326SOL    HW1 7034   0.211   3.148   3.069  0.7181 -0.0993  1.4746
 2326SOL    HW2 7035   0.086   3.156   3.153 -0.7241 -0.0708 -0.5775
 2327SOL     OW 7036   4.180   2.109   3.625 -0.2172  0.4481 -0.1337
 2327SOL    HW1 7037   4.168   2.142   3.536 -2.3514 -1.9494 -0.8498
 2327SOL    HW2 7038   4.099   2.133   3.670  0.0254 -0.0568  0.5798
 2328SOL     OW 7039   2.221   2.777   3.018 -0.1185  0.5890  0.0298
 2328SOL    HW1 7040   2.310   2.811   3.023 -0.8312  2.4262  1.2264
 2328SOL    HW2 7041   2.178   2.812   3.096 -2.3350  1.1586 -1.3670
 2329SOL     OW 7042   2.537   4.837   4.697 -0.2351  0.0491 -0.1347
 2329SOL    HW1 7043   2.580   4.825   4.782  0.9142 -0.1554 -0.7270
 2329SOL    HW2 7044   2.597   4.892   4.647 -1.8215  1.8954 -0.1547
 2330SOL     OW 7045   3.492   4.536   4.838  0.1295  0.3835  0.0160
 2330SOL    HW1 7046   3.406   4.501   4.862  0.6048 -1.6613 -1.0548
 2330SOL    HW2 7047   3.474   4.591   4.761  0.0298 -2.4340 -2.1511
 2331SOL     OW 7048   0.763   1.220   2.071 -0.1527  0.1804  0.1691
 2331SOL    HW1 7049   0.805   1.183   2.149  1.1192  2.2891  0.5602
 2331SOL    HW2 7050   0.684   1.167   2.060  1.6968 -2.8585  0.4017
 2332SOL     OW 7051   2.029   3.241   1.050 -0.3531  0.1017 -0.6660
 2332SOL    HW1 7052   2.009   3.226   1.142 -3.0508  1.7108 -0.8720
 2332SOL    HW2 7053   2.104   3.185   1.032 -0.9508 -1.7424  1.9956
 2333SOL     OW 7054   3.924   2.248   1.314 -0.1334  0.2386  0.1517
 2333SOL    HW1 7055   3.895   2.170   1.267 -0.0058  1.9014 -2.9599
 2333SOL    HW2 7056   3.994   2.284   1.260  0.7046  1.8328  2.1702
 2334SOL     OW 7057   3.831   0.043   0.313 -0.3155 -0.0615 -0.5293
 2334SOL    HW1 7058   3.927   0.043   0.313 -0.3082  0.6134 -0.0441
 2334SOL    HW2 7059   3.807   0.064   0.223 -0.0009  0.3372 -0.5225
 2335SOL     OW 7060   4.203   2.226   3.155 -0.3860 -0.0198  0.2142
 2335SOL    HW1 7061   4.129   2.182   3.196 -2.4714  2.8719 -0.1358
 2335SOL    HW2 7062   4.217   2.305   3.207  1.1985  0.4790 -0.8683
 2336SOL     OW 7063   1.654   1.775   4.843 -0.0831  0.5366  0.0742
 2336SOL    HW1 7064   1.695   1.708   4.897  1.7217  1.4524 -0.0746
 2336SOL    HW2 7065   1.589   1.816   4.900  1.4993  1.2208  1.4690
 2337SOL     OW 7066   4.939   4.086   1.870 -0.0617 -0.1716 -0.5706
 2337SOL    HW1 7067   4.910   3.996   1.855  1.0121 -0.7019  0.3634
 2337SOL    HW2 7068   4.863   4.129   1.908  0.3775 -1.6967  2.4072
 2338SOL     OW 7069   2.341   4.418   0.607 -0.1328  0.0417 -0.0916
 2338SOL    HW1 7070   2.430   4.438   0.578  0.0267 -0.6240 -0.0788
 2338SOL    HW2 7071   2.345   4.327   0.636 -1.7187 -1.5518 -4.0376
 2339SOL     OW 7072   4.218   2.661   1.796  0.5552 -0.0285 -0.2147
 2339SOL    HW1 7073   4.281   2.706   1.740 -0.5972 -0.5830 -2.0615
 2339SOL    HW2 7074   4.262   2.580   1.821  1.8206  1.0867  1.3624
 2340SOL     OW 7075   0.056   4.618   1.612 -0.1678  0.2854 -0.6601
 2340SOL    HW1 7076  -0.022   4.630   1.558 -0.8908  1.0041  0.4897
 2340SOL    HW2 7077   0.072   4.705   1.649 -0.4524 -0.4406  1.2520
 2341SOL     OW 7078   3.839   4.046   4.044  0.3299  0.4581 -0.0764
 2341SOL    HW1 7079   3.866   3.960   4.014 -0.1804  0.4865 -0.6458
 2341SOL    HW2 7080   3.921   4.094   4.058  0.5861  0.2370 -0.8136
 2342SOL     OW 7081   1.614   2.676   4.847  0.4172  0.2836  0.2668
 2342SOL    HW1 7082   1.704   2.664   4.878  1.3243  0.9872 -1.9073
 2342SOL    HW2 7083   1.616   2.758   4.798 -1.3406  0.1471 -0.0916
 2343SOL     OW 7084   1.476   3.972   1.762  0.3863  0.5557 -0.1275
 2343SOL    HW1 7085   1.493   3.977   1.668  2.5282 -0.3561  0.1563
 2343SOL    HW2 7086   1.434   3.887   1.775 -2.1418  1.6607 -0.4861
 2344SOL     OW 7087   4.584   4.233   3.134 -0.2276  0.0754  0.2623
 2344SOL    HW1 7088   4.505   4.195   3.171  0.3137 -0.5808  0.7768
 2344SOL    HW2 7089   4.582   4.324   3.161 -0.1229 -0.2562  1.4658
 2345SOL     OW 7090   4.025   1.306   2.858  0.5905  0.0580 -0.3155
 2345SOL    HW1 7091   3.943   1.297   2.809  1.1225 -2.3413 -0.8878
 2345SOL    HW2 7092   3.997   1.325   2.947 -0.5674 -0.2030 -0.6035
 2346SOL     OW 7093   4.885   2.624   4.021 -0.2489  0.2760  0.0593
 2346SOL    HW1 7094   4.971   2.642   3.983 -0.7393 -0.7228 -1.6469
 2346SOL    HW2 7095   4.833   2.701   3.999 -0.5045 -0.2570 -1.3120
 2347SOL     OW 7096   4.977   2.846   2.215  0.3020 -0.6971  0.3943
 2347SOL    HW1 7097   5.013   2.935   2.217 -0.3123 -0.2016 -3.2534
 2347SOL    HW2 7098   4.887   2.856   2.247  0.0233  0.1728 -0.5964
 2348SOL     OW 7099   0.297   3.896   1.068  0.1667  0.4554  0.2802
 2348SOL    HW1 7100   0.371   3.912   1.126 -0.3038  1.5996  0.5885
 2348SOL    HW2 7101   0.257   3.982   1.055 -1.1744 -0.1524  0.2136
 2349SOL     OW 7102   2.550   0.858   3.096 -0.7191  0.3542 -0.0431
 2349SOL    HW1 7103   2.550   0.839   3.002 -0.2156  0.5844 -0.0939
 2349SOL    HW2 7104   2.459   0.882   3.116 -1.1725 -1.1321 -0.1713
 2350SOL     OW 7105   2.773   1.982   2.899 -0.3273  0.2141  0.4039
 2350SOL    HW1 7106   2.779   1.983   2.803 -0.1325 -1.9297  0.3513
 2350SOL    HW2 7107   2.681   1.966   2.918 -0.4640  1.1663  0.6159
 2351SOL     OW 7108   0.345   2.964   0.907 -0.2059  0.2793  0.6506
 2351SOL    HW1 7109   0.385   3.006   0.831 -0.0018  1.5584  1.4333
 2351SOL    HW2 7110   0.252   2.960   0.886 -0.2933  1.5049  0.6900
 2352SOL     OW 7111   4.151   3.443   1.381 -0.2949 -0.1588  0.5680
 2352SOL    HW1 7112   4.070   3.394   1.371  0.0917 -0.6536 -0.2269
 2352SOL    HW2 7113   4.217   3.389   1.337  0.1986  0.9404 -0.0800
 2353SOL     OW 7114   4.346   0.090   1.812 -0.0439 -0.3176 -0.1210
 2353SOL    HW1 7115   4.271   0.100   1.870  0.6646 -1.2378  1.0153
 2353SOL    HW2 7116   4.358   0.176   1.773 -0.0253  0.6055  1.8015
 2354SOL     OW 7117   4.659   0.138   2.821 -0.7071 -0.0770  0.3969
 2354SOL    HW1 7118   4.750   0.116   2.839 -0.7178 -2.2060 -1.6942
 2354SOL    HW2 7119   4.663   0.225   2.782  0.7669 -0.9986 -1.7117
 2355SOL     OW 7120   3.344   1.548   1.728 -0.1259 -1.4459  0.2462
 2355SOL    HW1 7121   3.405   1.479   1.752 -0.3817 -2.2176 -1.1751
 2355SOL    HW2 7122   3.397   1.628   1.725  0.2525 -1.6361  1.5334
 2356SOL     OW 7123   1.663   3.676   0.983 -0.3523  0.1649 -0.3660
 2356SOL    HW1 7124   1.670   3.581   0.998  0.0692  0.3169  0.4482
 2356SOL    HW2 7125   1.750   3.710   1.002  0.1059  0.4764 -2.7602
 2357SOL     OW 7126   0.327   3.286   0.362  0.1581 -0.2797 -0.3220
 2357SOL    HW1 7127   0.257   3.222   0.351 -0.1046 -0.0985  0.2700
 2357SOL    HW2 7128   0.301   3.358   0.304 -0.8850  0.3875  0.9185
 2358SOL     OW 7129   1.574   2.474   1.288  0.2264 -0.3024 -0.1732
 2358SOL    HW1 7130   1.633   2.514   1.225  2.2485  0.1091  1.8673
 2358SOL    HW2 7131   1.573   2.381   1.265  2.2703 -0.4435  0.1538
 2359SOL     OW 7132   4.754   3.712   4.386  0.0543 -0.3066  0.5703
 2359SOL    HW1 7133   4.673   3.738   4.430 -0.3054 -0.2640 -0.0926
 2359SOL    HW2 7134   4.823   3.732   4.448 -0.2818  1.4031  0.4523
 2360SOL     OW 7135   4.471   3.591   1.438  0.3115 -0.0295 -0.1338
 2360SOL    HW1 7136   4.420   3.649   1.381 -0.1946 -0.3020  0.0342
 2360SOL    HW2 7137   4.503   3.648   1.508  0.5129  0.2086 -0.4191
 2361SOL     OW 7138   1.827   1.831   1.065 -0.6627 -0.0467 -0.2742
 2361SOL    HW1 7139   1.922   1.845   1.062 -0.8300  1.9237  1.4250
 2361SOL    HW2 7140   1.812   1.759   1.004  1.9350 -0.5263 -0.4841
 2362SOL     OW 7141   3.422   1.145   4.237 -0.1468  0.1262  0.4567
 2362SOL    HW1 7142   3.329   1.153   4.214  0.2654  1.5377 -0.8569
 2362SOL    HW2 7143   3.425   1.165   4.331 -1.3721 -1.8365  0.9749
 2363SOL     OW 7144   4.253   0.021   1.407 -0.5329  0.5580 -0.1712
 2363SOL    HW1 7145   4.224   0.040   1.318 -3.4429  1.5365  0.8746
 2363SOL    HW2 7146   4.301   0.099   1.434  0.4314  0.2258 -0.8563
 2364SOL     OW 7147   0.050   2.041   3.121  0.4644 -0.0126 -0.4873
 2364SOL    HW1 7148   0.038   2.077   3.033 -0.6139 -1.2914 -0.8877
 2364SOL    HW2 7149   0.100   1.960   3.107 -1.6642 -1.4570 -0.2366
 2365SOL     OW 7150   0.983   3.022   0.017 -0.0781 -0.5495  0.5771
 2365SOL    HW1 7151   1.064   3.025  -0.033 -0.1093  0.0095  0.5588
 2365SOL    HW2 7152   0.986   3.098   0.074 -0.6543 -0.4447  0.4760
 2366SOL     OW 7153   3.693   1.846   1.922 -0.7660  0.0849 -0.1777
 2366SOL    HW1 7154   3.782   1.833   1.955 -1.3215 -1.1592  0.9526
 2366SOL    HW2 7155   3.651   1.902   1.986 -1.3729 -1.0100  0.4195
 2367SOL     OW 7156   0.119   4.814   4.081  0.4526  0.1517 -0.4676
 2367SOL    HW1 7157   0.115   4.909   4.075  0.7776  0.2083  0.1601
 2367SOL    HW2 7158   0.161   4.796   4.165  0.1608 -0.5489 -0.4571
 2368SOL     OW 7159   0.989   2.386   3.145  0.0068  0.2322  0.0168
 2368SOL    HW1 7160   1.039   2.317   3.101  2.7604  2.5232 -0.7471
 2368SOL    HW2 7161   0.965   2.447   3.075  0.8271  1.8566  1.0828
 2369SOL     OW 7162   3.509   4.160   4.553  0.2500  0.2752 -0.1901
 2369SOL    HW1 7163   3.559   4.079   4.544 -2.1454 -1.4491  0.9911
 2369SOL    HW2 7164   3.513   4.181   4.646 -0.1292  0.8504 -0.2974
 2370SOL     OW 7165   3.728   3.080   3.610  0.2301  0.3140 -0.3084
 2370SOL    HW1 7166   3.718   3.173   3.590  1.8591  0.6394  0.2624
 2370SOL    HW2 7167   3.640   3.051   3.633 -0.1910  1.8762  0.1742
 2371SOL     OW 7168   1.749   0.579   3.473  0.1063 -0.0714  0.2456
 2371SOL    HW1 7169   1.787   0.539   3.551  0.5040 -0.0525  0.0666
 2371SOL    HW2 7170   1.664   0.537   3.463  0.4654 -0.7863  0.1331
 2372SOL     OW 7171   2.778   4.285   1.745 -0.2333  0.5357 -0.1652
 2372SOL    HW1 7172   2.868   4.253   1.736  1.2226  3.8996  1.0067
 2372SOL    HW2 7173   2.749   4.297   1.654  0.0885 -1.3787 -0.5793
 2373SOL     OW 7174   4.344   0.892   0.396  0.0621  0.1877 -0.3208
 2373SOL    HW1 7175   4.325   0.817   0.340 -0.2602  1.0210 -1.3643
 2373SOL    HW2 7176   4.334   0.968   0.339  2.3275  0.9485  0.1512
 2374SOL     OW 7177   3.946   1.823   0.297 -0.9108 -0.1580  0.3095
 2374SOL    HW1 7178   3.860   1.865   0.299 -0.7918  0.1125 -0.0474
 2374SOL    HW2 7179   3.951   1.782   0.211  0.5511  2.5285 -1.0145
 2375SOL     OW 7180   1.897   1.613   1.326 -0.2022 -0.0781  0.9435
 2375SOL    HW1 7181   1.920   1.602   1.233 -2.0722  3.0621 -0.0640
 2375SOL    HW2 7182   1.805   1.588   1.330 -0.5747  1.2938  1.5503
 2376SOL     OW 7183   4.893   0.596   0.983  0.0887 -0.0330 -0.3882
 2376SOL    HW1 7184   4.898   0.661   0.912  0.7537  0.0218 -0.3049
 2376SOL    HW2 7185   4.807   0.557   0.975  0.1302  0.0301 -1.1850
 2377SOL     OW 7186   3.362   4.388   4.009  0.0395  0.1871  0.4799
 2377SOL    HW1 7187   3.295   4.323   4.033  0.4626 -0.8128 -0.8722
 2377SOL    HW2 7188   3.423   4.339   3.953 -0.2653  2.0212 -1.5904
 2378SOL     OW 7189   0.135   1.380   3.019  0.3461 -0.0798  0.1641
 2378SOL    HW1 7190   0.074   1.452   3.003  0.4435  0.6118  2.5273
 2378SOL    HW2 7191   0.219   1.412   2.988 -0.1679 -0.4782 -1.7742
 2379SOL     OW 7192   1.472   1.786   0.114 -0.6653 -0.3580 -0.0478
 2379SOL    HW1 7193   1.567   1.797   0.116 -0.4233 -1.6521 -2.0038
 2379SOL    HW2 7194   1.447   1.780   0.207  1.3574 -1.4472  0.4891
 2380SOL     OW 7195   2.041   4.327   3.895  0.3321  0.0291  0.4148
 2380SOL    HW1 7196   2.084   4.412   3.911  0.6410 -0.2371  1.0767
 2380SOL    HW2 7197   2.045   4.283   3.980 -0.3118 -0.4344  0.2098
 2381SOL     OW 7198   3.497   4.660   1.721 -0.1714 -0.5454  0.0981
 2381SOL    HW1 7199   3.417   4.648   1.773 -0.3978  0.1805 -0.0677
 2381SOL    HW2 7200   3.500   4.584   1.663  0.7997 -2.1074  2.0613
 2382SOL     OW 7201   3.836   2.357   2.716 -0.0824  0.1179  0.2164
 2382SOL    HW1 7202   3.855   2.268   2.686  0.3816  0.2505  0.1045
 2382SOL    HW2 7203   3.751   2.350   2.759 -0.9522 -0.0130 -1.4227
 2383SOL     OW 7204   2.461   3.572   3.219 -0.1995  0.0319 -0.0116
 2383SOL    HW1 7205   2.399   3.501   3.236  0.3141 -0.4936 -0.3008
 2383SOL    HW2 7206   2.407   3.651   3.218 -1.2911 -0.6487 -2.7093
 2384SOL     OW 7207   0.021   4.142   4.087  0.6012  0.1991  0.1983
 2384SOL    HW1 7208  -0.038   4.124   4.013  0.0617 -1.1471  0.9138
 2384SOL    HW2 7209   0.042   4.235   4.079 -2.2630  0.9581  0.3414
 2385SOL     OW 7210   0.814   2.126   1.633 -0.3715  0.1795 -0.7782
 2385SOL    HW1 7211   0.780   2.037   1.623 -0.2878  0.0980 -0.3320
 2385SOL    HW2 7212   0.821   2.159   1.543  0.2595 -0.5064 -0.9888
 2386SOL     OW 7213   1.528   3.126   0.470 -0.5759 -0.3258 -0.4162
 2386SOL    HW1 7214   1.567   3.112   0.384  0.8173  3.1519 -0.5198
 2386SOL    HW2 7215   1.552   3.049   0.521  0.9605 -1.1863 -2.3275
 2387SOL     OW 7216   0.834   2.623   0.562 -0.2405 -0.6897  0.1910
 2387SOL    HW1 7217   0.898   2.564   0.603 -0.5558 -1.4272 -0.3516
 2387SOL    HW2 7218   0.861   2.711   0.589  1.9958 -0.8244 -1.3181
 2388SOL     OW 7219   3.488   4.019   3.629  0.3441  0.0331 -0.3440
 2388SOL    HW1 7220   3.559   3.968   3.588  0.2135 -0.0268 -0.4964
 2388SOL    HW2 7221   3.466   4.085   3.563  0.1107 -0.0835 -0.3837
 2389SOL     OW 7222   4.385   0.272   1.425  0.4183  0.2995 -0.6519
 2389SOL    HW1 7223   4.454   0.333   1.397 -0.6197  1.7138 -0.2617
 2389SOL    HW2 7224   4.305   0.326   1.426 -0.3316 -0.7774  0.8691
 2390SOL     OW 7225   2.883   1.452   0.169  0.0896 -1.2528 -0.5191
 2390SOL    HW1 7226   2.955   1.389   0.159 -1.8976 -3.3976 -2.8374
 2390SOL    HW2 7227   2.899   1.517   0.100  1.7306  0.5133  1.3944
 2391SOL     OW 7228   1.715   3.117   1.363 -0.1390 -0.0401  0.1539
 2391SOL    HW1 7229   1.721   3.130   1.268 -0.6779  1.7060  0.3259
 2391SOL    HW2 7230   1.791   3.162   1.398  1.2252 -2.4461  0.4651
 2392SOL     OW 7231   4.274   4.943   2.608  0.5770 -0.3086 -0.4494
 2392SOL    HW1 7232   4.302   4.974   2.694 -1.8369 -0.1224  0.3242
 2392SOL    HW2 7233   4.248   4.852   2.622 -0.1854 -0.1655 -0.8798
 2393SOL     OW 7234   2.426   2.255   0.995  0.3364 -0.0607 -0.5705
 2393SOL    HW1 7235   2.350   2.208   0.958  0.2444  0.3452 -0.9105
 2393SOL    HW2 7236   2.431   2.225   1.085 -1.3390  1.2383  0.0130
 2394SOL     OW 7237   4.609   2.467   4.971  0.8673 -0.8392 -0.5516
 2394SOL    HW1 7238   4.617   2.473   4.876  0.9368 -1.3128 -0.5770
 2394SOL    HW2 7239   4.516   2.455   4.987  0.8623 -0.8103 -0.5588
 2395SOL     OW 7240   0.015   2.001   3.868  0.2622  0.8005 -0.3362
 2395SOL    HW1 7241   0.082   2.012   3.935 -0.3313  3.0058 -0.0281
 2395SOL    HW2 7242   0.049   1.931   3.811  0.9833 -0.8185  1.9443
 2396SOL     OW 7243   2.110   4.788   4.890 -0.3814 -0.2698  0.2071
 2396SOL    HW1 7244   2.062   4.844   4.951 -0.1656  0.3815 -0.2050
 2396SOL    HW2 7245   2.199   4.824   4.890 -0.8189  1.0141 -1.9501
 2397SOL     OW 7246   3.906   0.894   3.728  0.0205  0.2708 -0.0800
 2397SOL    HW1 7247   3.901   0.980   3.770 -0.3761 -0.2709  1.0110
 2397SOL    HW2 7248   3.999   0.873   3.727 -0.0587 -0.3698  1.9650
 2398SOL     OW 7249   3.176   3.901   4.872  0.4113  0.1380 -0.0842
 2398SOL    HW1 7250   3.162   3.925   4.780 -1.1781  0.9431  0.3382
 2398SOL    HW2 7251   3.237   3.967   4.905 -2.0492  2.2977  0.4221
 2399SOL     OW 7252   4.308   2.413   4.952 -0.4635 -0.9389 -0.0031
 2399SOL    HW1 7253   4.295   2.463   4.871 -0.8265 -2.2967 -0.8156
 2399SOL    HW2 7254   4.225   2.367   4.965 -0.5553 -0.4123  1.3935
 2400SOL     OW 7255   1.362   1.473   1.013  0.2340  0.3432 -0.1340
 2400SOL    HW1 7256   1.424   1.527   1.062 -1.3417  0.7414  1.5017
 2400SOL    HW2 7257   1.276   1.506   1.037 -0.6794 -0.8389 -1.5897
 2401SOL     OW 7258   3.481   1.644   4.269  0.3636 -0.0810  0.1030
 2401SOL    HW1 7259   3.545   1.582   4.234 -0.2527  0.5399 -2.3028
 2401SOL    HW2 7260   3.445   1.687   4.192  0.1401  2.6762  1.6413
 2402SOL     OW 7261   0.481   1.556   3.299  0.1511 -0.1901 -0.3471
 2402SOL    HW1 7262   0.393   1.583   3.270 -0.8330 -0.7771  1.8688
 2402SOL    HW2 7263   0.485   1.463   3.279  0.1376 -0.2385 -0.1187
 2403SOL     OW 7264   3.036   0.168   4.536 -0.0687  0.7602 -0.2422
 2403SOL    HW1 7265   2.995   0.246   4.575  0.0931  1.5464 -1.5819
 2403SOL    HW2 7266   3.105   0.144   4.598 -1.5888  0.2648  1.3446
 2404SOL     OW 7267   2.506   0.686   0.407 -0.5508 -0.1599  0.0748
 2404SOL    HW1 7268   2.520   0.779   0.392 -1.1846 -0.0364  0.2471
 2404SOL    HW2 7269   2.499   0.677   0.502  1.5241 -0.6766  0.2423
 2405SOL     OW 7270   2.583   3.189   0.158  0.2824  0.4536  0.2928
 2405SOL    HW1 7271   2.565   3.281   0.176 -1.2289  0.1386  0.4742
 2405SOL    HW2 7272   2.570   3.180   0.064  1.8631  0.7109  0.0199
 2406SOL     OW 7273   2.868   4.027   1.302  0.3846  0.1887 -0.0915
 2406SOL    HW1 7274   2.942   3.966   1.299  0.4935  0.3433 -1.1835
 2406SOL    HW2 7275   2.802   3.983   1.355  2.5363  1.5518  4.1022
 2407SOL     OW 7276   2.674   2.871   0.868 -0.2772  0.0709  0.3513
 2407SOL    HW1 7277   2.758   2.859   0.911 -1.0126 -0.5292  1.7074
 2407SOL    HW2 7278   2.629   2.787   0.878 -2.1005  1.1366  2.1920
 2408SOL     OW 7279   2.489   0.842   0.736 -0.1989 -0.2967  0.1149
 2408SOL    HW1 7280   2.486   0.879   0.824 -0.5671 -0.9560  0.3861
 2408SOL    HW2 7281   2.481   0.918   0.678 -0.1911  0.1211  0.6504
 2409SOL     OW 7282   4.236   1.256   0.789 -0.1620  0.3865  0.1281
 2409SOL    HW1 7283   4.330   1.242   0.794  0.0053  0.8709 -1.2892
 2409SOL    HW2 7284   4.203   1.179   0.741 -0.3957  0.5158  0.0776
 2410SOL     OW 7285   1.754   2.627   3.809  0.0736 -0.1513  0.0761
 2410SOL    HW1 7286   1.685   2.606   3.873 -1.5306 -1.2383 -1.9042
 2410SOL    HW2 7287   1.708   2.664   3.734  1.6527 -0.8111 -1.2917
 2411SOL     OW 7288   1.102   2.933   3.863  0.1125 -0.5245  0.0032
 2411SOL    HW1 7289   1.073   3.018   3.829 -1.9171 -0.7729  0.9644
 2411SOL    HW2 7290   1.038   2.871   3.828  0.9923 -1.5216  0.1372
 2412SOL     OW 7291   1.841   3.360   2.738  0.2188  0.3343 -0.3785
 2412SOL    HW1 7292   1.928   3.368   2.776 -0.2390  0.8118  0.6039
 2412SOL    HW2 7293   1.846   3.282   2.682  0.6283 -1.0374  1.4791
 2413SOL     OW 7294   1.929   0.905   4.260  0.0019 -0.7818  0.2880
 2413SOL    HW1 7295   1.841   0.922   4.292 -1.0859  1.2206 -3.2183
 2413SOL    HW2 7296   1.987   0.939   4.329 -2.0941  2.9823  0.4557
 2414SOL     OW 7297   0.558   2.408   2.815  0.2938  0.0587 -0.3855
 2414SOL    HW1 7298   0.566   2.320   2.850 -0.0232  0.3353  0.4206
 2414SOL    HW2 7299   0.594   2.464   2.885 -2.0822  0.7817  0.3496
 2415SOL     OW 7300   3.404   4.620   2.149  0.4379  0.1770  0.9883
 2415SOL    HW1 7301   3.342   4.569   2.202  0.2404  0.9021  1.4647
 2415SOL    HW2 7302   3.479   4.633   2.207  1.1137 -0.8266  0.3621
 2416SOL     OW 7303   4.326   4.733   2.291  0.1518  0.1951  0.5063
 2416SOL    HW1 7304   4.380   4.667   2.247  1.3796 -0.5883  2.9857
 2416SOL    HW2 7305   4.375   4.815   2.281 -1.2790  0.8322 -2.4068
 2417SOL     OW 7306   2.416   3.144   4.576 -0.5164 -0.8603  0.1545
 2417SOL    HW1 7307   2.511   3.145   4.581 -0.5371  0.9282  3.1133
 2417SOL    HW2 7308   2.394   3.057   4.543  2.1011 -1.5974  0.1214
 2418SOL     OW 7309   3.136   3.894   0.832  0.2855  0.3137  0.0350
 2418SOL    HW1 7310   3.149   3.915   0.739  0.2993 -0.1249 -0.0665
 2418SOL    HW2 7311   3.204   3.944   0.877 -0.4053  1.3794 -0.0804
 2419SOL     OW 7312   4.415   1.767   3.679  0.1679  0.3143 -0.1010
 2419SOL    HW1 7313   4.415   1.685   3.727  0.0999  0.6248  0.4444
 2419SOL    HW2 7314   4.504   1.775   3.644  1.2293  1.5498  2.5917
 2420SOL     OW 7315   1.664   1.523   2.945  0.1548  0.1385  0.2415
 2420SOL    HW1 7316   1.712   1.602   2.968  2.3886 -1.1902  0.4967
 2420SOL    HW2 7317   1.708   1.490   2.866 -0.8086 -0.7603  0.0599
 2421SOL     OW 7318   4.266   2.097   0.609 -0.2189  0.5001  0.3354
 2421SOL    HW1 7319   4.271   2.154   0.532  0.3230  1.0131  0.7422
 2421SOL    HW2 7320   4.236   2.154   0.679  1.2359  0.5272  0.9656
 2422SOL     OW 7321   1.425   0.508   3.202 -0.2300  0.3406  0.6522
 2422SOL    HW1 7322   1.339   0.465   3.209 -0.0070  0.1244  2.7406
 2422SOL    HW2 7323   1.480   0.461   3.265  2.0567 -0.8651 -2.0609
 2423SOL     OW 7324   0.299   4.063   1.722 -0.0367  0.6719  0.1993
 2423SOL    HW1 7325   0.375   4.118   1.740  1.1988 -0.6649 -0.6699
 2423SOL    HW2 7326   0.305   4.044   1.628 -2.3492  1.7895 -0.2492
 2424SOL     OW 7327   3.877   1.381   0.697  0.5607  0.3004  0.2904
 2424SOL    HW1 7328   3.911   1.306   0.746 -2.1771 -1.3792 -0.1652
 2424SOL    HW2 7329   3.898   1.363   0.606  2.0172  1.3741  0.3706
 2425SOL     OW 7330   2.573   1.550   3.110 -0.9008  0.5687 -0.6171
 2425SOL    HW1 7331   2.655   1.596   3.088 -0.6967 -0.2280 -1.5974
 2425SOL    HW2 7332   2.518   1.618   3.149  0.1295  1.1807 -0.1754
 2426SOL     OW 7333   0.821   4.769   4.286 -0.4758 -0.1497  0.0524
 2426SOL    HW1 7334   0.820   4.674   4.291  0.1304 -0.1515  0.3240
 2426SOL    HW2 7335   0.886   4.795   4.352  0.3231  0.3833 -0.9169
 2427SOL     OW 7336   0.907   3.905   0.591  0.3204  0.1177 -0.0732
 2427SOL    HW1 7337   0.967   3.967   0.549  1.0218 -0.4713  0.0409
 2427SOL    HW2 7338   0.828   3.956   0.608  1.3418  1.3619  1.2181
 2428SOL     OW 7339   1.738   3.736   4.142 -0.3833  0.1386  0.3237
 2428SOL    HW1 7340   1.667   3.689   4.098 -1.2480  1.8306 -0.1937
 2428SOL    HW2 7341   1.714   3.737   4.234 -0.9916  0.5771  0.1697
 2429SOL     OW 7342   1.242   4.510   0.804 -0.3273 -0.2125 -0.3141
 2429SOL    HW1 7343   1.207   4.488   0.718  0.6779  2.5501 -1.5444
 2429SOL    HW2 7344   1.311   4.574   0.786 -0.9584  1.4563  2.6252
 2430SOL     OW 7345   3.182   4.169   4.111 -0.5416 -0.2336  0.0915
 2430SOL    HW1 7346   3.223   4.109   4.173 -1.8173 -0.7109  0.5179
 2430SOL    HW2 7347   3.089   4.148   4.116 -1.0227  1.6621  0.1364
 2431SOL     OW 7348   4.045   1.101   2.620  0.0352 -0.3743 -0.1600
 2431SOL    HW1 7349   4.131   1.100   2.579  0.5207  1.9357  0.6515
 2431SOL    HW2 7350   3.992   1.158   2.564 -0.4774 -0.4381  0.2508
 2432SOL     OW 7351   3.836   1.210   3.748 -0.2524 -0.7129 -0.1889
 2432SOL    HW1 7352   3.925   1.244   3.762 -1.0027  2.0908 -1.6358
 2432SOL    HW2 7353   3.780   1.264   3.803 -1.1988 -1.7635 -0.0816
 2433SOL     OW 7354   4.754   0.715   3.218  0.0107 -0.3277  0.4290
 2433SOL    HW1 7355   4.686   0.663   3.175 -0.0389  0.8514 -0.9865
 2433SOL    HW2 7356   4.806   0.651   3.267 -1.7737 -1.3234  1.1019
 2434SOL     OW 7357   0.105   4.808   2.074 -0.1142 -0.5581 -0.5059
 2434SOL    HW1 7358   0.174   4.790   2.011  1.1858 -0.6230  0.8784
 2434SOL    HW2 7359   0.050   4.729   2.073 -0.9852  0.0230 -2.5734
 2435SOL     OW 7360   2.208   2.544   1.203 -0.1132  0.9539 -0.3507
 2435SOL    HW1 7361   2.251   2.586   1.129  1.7017 -0.5222 -0.1946
 2435SOL    HW2 7362   2.146   2.483   1.164 -0.7912  1.7964 -0.6070
 2436SOL     OW 7363   1.551   0.922   4.670  0.9202  0.4294  0.4469
 2436SOL    HW1 7364   1.463   0.916   4.633  1.4668  2.5483 -1.4698
 2436SOL    HW2 7365   1.538   0.943   4.762 -0.6846  2.9713 -0.2517
 2437SOL     OW 7366   2.816   1.258   3.254 -0.4954 -0.0070 -0.0521
 2437SOL    HW1 7367   2.834   1.273   3.347 -0.5801 -0.6936  0.0833
 2437SOL    HW2 7368   2.833   1.164   3.242 -0.1880  0.1366 -0.7974
 2438SOL     OW 7369   3.862   3.243   4.458  0.1007  0.4082 -0.4358
 2438SOL    HW1 7370   3.838   3.321   4.508  0.7417  0.7641 -0.6741
 2438SOL    HW2 7371   3.847   3.267   4.367  1.0439  0.5379 -0.5696
 2439SOL     OW 7372   1.050   4.152   4.662  0.2566  0.2447  0.5630
 2439SOL    HW1 7373   1.140   4.180   4.647  0.7339  0.0021  2.5777
 2439SOL    HW2 7374   1.043   4.068   4.616  0.6609  0.8235 -0.5918
 2440SOL     OW 7375   3.259   2.659   2.885  0.6968  0.4317 -0.2707
 2440SOL    HW1 7376   3.199   2.584   2.890  0.6921  0.2050 -2.7313
 2440SOL    HW2 7377   3.318   2.639   2.812  1.9975  1.9282  0.3019
 2441SOL     OW 7378   3.209   2.412   4.202  0.0061 -0.4550 -0.1099
 2441SOL    HW1 7379   3.235   2.326   4.237 -0.9669 -0.7895 -0.1767
 2441SOL    HW2 7380   3.211   2.470   4.278  1.2515 -0.3815 -0.1740
 2442SOL     OW 7381   4.551   1.302   3.084 -0.5053 -0.1732 -0.3608
 2442SOL    HW1 7382   4.500   1.247   3.143  0.1391  1.6476  2.0164
 2442SOL    HW2 7383   4.501   1.383   3.077 -0.4277 -0.2369 -2.1487
 2443SOL     OW 7384   1.646   2.986   4.169 -1.0426 -0.1056 -0.3192
 2443SOL    HW1 7385   1.673   2.953   4.255  2.0259 -1.7641 -1.7380
 2443SOL    HW2 7386   1.629   2.907   4.117 -1.8899  0.8243 -1.5058
 2444SOL     OW 7387   3.477   3.468   4.612 -0.1825  0.3949  0.1858
 2444SOL    HW1 7388   3.485   3.417   4.531  1.7792  1.0742 -0.1050
 2444SOL    HW2 7389   3.536   3.425   4.674 -1.3530  0.1261  1.1425
 2445SOL     OW 7390   0.521   4.156   4.087 -0.7410  0.1059  0.0473
 2445SOL    HW1 7391   0.554   4.101   4.016 -1.2026  2.7641 -2.3607
 2445SOL    HW2 7392   0.427   4.141   4.086 -0.6898 -0.2907  0.5417
 2446SOL     OW 7393   0.246   4.202   0.544  0.5104  0.2564  0.1459
 2446SOL    HW1 7394   0.178   4.240   0.489  0.1352  0.2524  0.6099
 2446SOL    HW2 7395   0.325   4.204   0.489  0.4456  1.4832  0.0750
 2447SOL     OW 7396   3.257   0.644   3.458  0.3150  0.4275 -0.1791
 2447SOL    HW1 7397   3.187   0.707   3.443  0.6669  0.6994 -0.6816
 2447SOL    HW2 7398   3.301   0.675   3.536  0.4760  0.7906 -0.4161
 2448SOL     OW 7399   0.229   1.490   1.970 -0.0998  0.1128  0.5308
 2448SOL    HW1 7400   0.217   1.584   1.958  0.2654 -0.0029 -0.8705
 2448SOL    HW2 7401   0.141   1.456   1.988 -0.2411  0.6917  0.9643
 2449SOL     OW 7402   2.225   3.057   1.622  0.5506  0.4444 -0.3652
 2449SOL    HW1 7403   2.233   3.084   1.530  0.9390  0.6358 -0.2754
 2449SOL    HW2 7404   2.227   2.962   1.619  2.0441  0.4612 -0.4215
 2450SOL     OW 7405   4.747   1.600   4.201  0.3675 -0.3467  0.6337
 2450SOL    HW1 7406   4.699   1.604   4.118 -0.5476 -0.0986  1.1635
 2450SOL    HW2 7407   4.816   1.536   4.185  2.2715  1.9862 -1.3543
 2451SOL     OW 7408   2.072   4.752   0.528  0.0473 -0.7216 -0.2971
 2451SOL    HW1 7409   1.986   4.792   0.516  0.8384  1.3571  0.6101
 2451SOL    HW2 7410   2.132   4.804   0.475  1.3285  0.2040  1.9156
 2452SOL     OW 7411   0.745   0.115   1.691  0.1431 -0.2880 -0.4118
 2452SOL    HW1 7412   0.777   0.102   1.602  2.0048  0.4672  0.1050
 2452SOL    HW2 7413   0.794   0.191   1.723 -1.2096  0.0638  0.9265
 2453SOL     OW 7414   2.116   0.530   1.144  0.4352  0.0220  0.8030
 2453SOL    HW1 7415   2.195   0.512   1.093 -0.0647  0.6170 -0.2322
 2453SOL    HW2 7416   2.115   0.626   1.152 -1.0244  0.1766 -0.6646
 2454SOL     OW 7417   2.738   4.860   4.469  0.3340 -0.3240 -0.1477
 2454SOL    HW1 7418   2.770   4.870   4.558 -1.5623  0.7315  0.4773
 2454SOL    HW2 7419   2.689   4.777   4.470  0.6996 -0.5465 -0.3487
 2455SOL     OW 7420   2.862   0.621   1.061  0.0895  0.3060 -0.3182
 2455SOL    HW1 7421   2.858   0.702   1.113 -0.6935 -0.1930  0.4210
 2455SOL    HW2 7422   2.952   0.592   1.070 -0.2126 -0.2274  1.5225
 2456SOL     OW 7423   0.432   4.742   3.636 -0.6363 -0.0401  0.0087
 2456SOL    HW1 7424   0.457   4.776   3.550  0.5476 -1.1830 -0.1200
 2456SOL    HW2 7425   0.428   4.820   3.692  0.0232  0.5420 -0.7333
 2457SOL     OW 7426   2.039   1.836   1.496 -0.4997 -0.3623  0.0820
 2457SOL    HW1 7427   1.989   1.809   1.573  0.6453 -1.8766  0.3368
 2457SOL    HW2 7428   2.005   1.782   1.425  0.1271 -0.7401  0.0608
 2458SOL     OW 7429   0.808   1.690   2.668  0.6451 -0.3276 -0.6318
 2458SOL    HW1 7430   0.875   1.743   2.711  0.2351  0.5762 -1.0860
 2458SOL    HW2 7431   0.832   1.691   2.575 -1.4779  2.3789 -1.2789
 2459SOL     OW 7432   1.252   2.756   3.589  0.1295 -0.1256  0.1655
 2459SOL    HW1 7433   1.301   2.690   3.639  1.8946  0.9373 -0.0837
 2459SOL    HW2 7434   1.187   2.789   3.651  0.3979 -0.8463  0.8514
 2460SOL     OW 7435   3.131   3.274   2.815  0.1161 -0.7595 -1.3067
 2460SOL    HW1 7436   3.116   3.346   2.877  0.7600 -0.6912 -1.2192
 2460SOL    HW2 7437   3.225   3.255   2.823  0.1290 -1.0067 -1.9870
 2461SOL     OW 7438   3.801   1.257   4.095  0.0459 -0.6098 -0.0458
 2461SOL    HW1 7439   3.823   1.179   4.146  0.3274  0.2614  1.2359
 2461SOL    HW2 7440   3.862   1.324   4.127 -2.0612  0.9233  1.0292
 2462SOL     OW 7441   2.496   4.336   0.365 -0.4656  0.0056  0.4376
 2462SOL    HW1 7442   2.571   4.339   0.424 -0.2583 -0.5432  0.2080
 2462SOL    HW2 7443   2.512   4.407   0.303  0.7426 -1.1412 -0.6295
 2463SOL     OW 7444   2.583   3.321   3.281  0.3338  1.1026 -0.3732
 2463SOL    HW1 7445   2.572   3.404   3.236 -1.3702  1.5782  0.8436
 2463SOL    HW2 7446   2.601   3.258   3.211 -1.2203  1.9906 -1.6382
 2464SOL     OW 7447   4.698   3.350   4.629 -0.1878 -0.2114 -0.0989
 2464SOL    HW1 7448   4.695   3.426   4.571  0.4396  0.9039  1.2750
 2464SOL    HW2 7449   4.758   3.376   4.699 -0.8711 -1.5312  1.0168
 2465SOL     OW 7450   4.404   1.364   1.112 -0.1590 -0.0285 -0.3602
 2465SOL    HW1 7451   4.406   1.357   1.207 -0.1022  1.4654 -0.2290
 2465SOL    HW2 7452   4.311   1.356   1.090 -0.4909  2.0471  0.0773
 2466SOL     OW 7453   2.405   2.668   4.043  0.3546 -0.3665 -0.0659
 2466SOL    HW1 7454   2.389   2.598   4.107 -2.2087  1.1904  1.1922
 2466SOL    HW2 7455   2.346   2.648   3.971 -0.0321  0.2150  0.0828
 2467SOL     OW 7456   2.801   0.245   3.192  0.6081  0.5543  0.2553
 2467SOL    HW1 7457   2.796   0.199   3.276 -1.0725  0.6950  0.2518
 2467SOL    HW2 7458   2.849   0.185   3.134 -0.1279 -0.4885  0.7029
 2468SOL     OW 7459   4.156   4.347   3.370 -0.1560 -0.4042  0.6450
 2468SOL    HW1 7460   4.191   4.328   3.457 -0.3890 -0.4961  0.7217
 2468SOL    HW2 7461   4.202   4.286   3.311 -0.5214 -0.8563  0.8135
 2469SOL     OW 7462   0.159   4.460   1.848  0.5159  0.2939 -0.3108
 2469SOL    HW1 7463   0.154   4.553   1.824 -1.4554  0.3748  0.2690
 2469SOL    HW2 7464   0.145   4.413   1.766  0.4109  0.5185 -0.4238
 2470SOL     OW 7465   1.271   1.690   3.708  0.2116  0.8614 -0.6891
 2470SOL    HW1 7466   1.360   1.723   3.721  0.3529  1.3653 -2.5813
 2470SOL    HW2 7467   1.215   1.758   3.745  0.5872  1.4552 -1.1883
 2471SOL     OW 7468   3.974   3.952   0.475  0.4384 -0.1037 -0.1784
 2471SOL    HW1 7469   4.024   4.028   0.444  0.6399 -0.6328 -1.1890
 2471SOL    HW2 7470   3.983   3.887   0.405 -0.0391 -0.9273  0.5077
 2472SOL     OW 7471   4.588   3.918   2.494 -0.2148  0.2460  0.6128
 2472SOL    HW1 7472   4.504   3.964   2.502  0.4215  1.3879  0.8429
 2472SOL    HW2 7473   4.648   3.968   2.548  0.5804 -0.6856  0.6131
 2473SOL     OW 7474   0.837   0.029   2.991  0.4839 -0.7942  0.3427
 2473SOL    HW1 7475   0.772   0.053   2.925  0.0540 -1.3753  0.5374
 2473SOL    HW2 7476   0.921   0.033   2.946  0.2862 -0.3186  0.0061
 2474SOL     OW 7477   3.314   2.716   0.277  0.7515  0.7392 -0.8813
 2474SOL    HW1 7478   3.351   2.638   0.318 -1.5693  0.6824  1.3901
 2474SOL    HW2 7479   3.374   2.786   0.302  0.6465  0.3062  0.7205
 2475SOL     OW 7480   3.006   1.068   0.781  0.1850  0.1773  0.2878
 2475SOL    HW1 7481   2.992   1.158   0.810 -0.0015  0.3203 -0.2276
 2475SOL    HW2 7482   2.922   1.025   0.794  1.1844 -1.0208  4.1620
 2476SOL     OW 7483   1.628   0.374   3.799  0.0026  0.1617  0.0962
 2476SOL    HW1 7484   1.639   0.279   3.806 -1.2642  0.0443  0.8270
 2476SOL    HW2 7485   1.534   0.386   3.789  0.2522  1.2959 -1.0972
 2477SOL     OW 7486   0.230   4.698   0.493 -0.1635  0.2752 -0.2946
 2477SOL    HW1 7487   0.135   4.698   0.509 -0.1953 -2.5380  0.0454
 2477SOL    HW2 7488   0.260   4.781   0.530 -2.4397  1.0872 -0.0823
 2478SOL     OW 7489   1.954   2.246   2.824 -0.3330  0.3161  0.3283
 2478SOL    HW1 7490   1.876   2.297   2.804  0.5393  1.4687 -0.3071
 2478SOL    HW2 7491   2.003   2.245   2.742 -0.3764 -1.7043  0.2874
 2479SOL     OW 7492   1.254   3.762   3.075  0.1953 -0.0350 -0.0536
 2479SOL    HW1 7493   1.177   3.767   3.132  1.9459  0.5917  2.4010
 2479SOL    HW2 7494   1.288   3.852   3.073  0.8061 -0.2728 -1.2193
 2480SOL     OW 7495   4.651   4.767   2.486 -0.4204 -0.3023  0.1183
 2480SOL    HW1 7496   4.577   4.738   2.433 -0.3534  0.5461 -0.4663
 2480SOL    HW2 7497   4.692   4.836   2.434 -0.0541  0.2076  1.0551
 2481SOL     OW 7498   1.772   3.733   2.494  0.2423  0.1989 -0.0914
 2481SOL    HW1 7499   1.709   3.668   2.526  0.7610 -0.0833  0.3636
 2481SOL    HW2 7500   1.796   3.702   2.407  0.8510 -0.4811  0.3140
 2482SOL     OW 7501   2.559   0.570   1.124 -0.6070  0.1638  0.5024
 2482SOL    HW1 7502   2.580   0.553   1.215 -0.3114 -0.5845  0.3044
 2482SOL    HW2 7503   2.644   0.582   1.081 -0.6348 -1.1800  0.0191
 2483SOL     OW 7504   2.413   2.084   2.470  0.2125 -0.6198 -0.3893
 2483SOL    HW1 7505   2.370   2.028   2.405  0.0643  1.2571 -2.0081
 2483SOL    HW2 7506   2.343   2.140   2.504  0.8905  0.7936 -1.2368
 2484SOL     OW 7507   0.333   3.728   1.367  0.0640  0.4554 -0.4677
 2484SOL    HW1 7508   0.306   3.816   1.394 -0.2319  0.6075 -1.2410
 2484SOL    HW2 7509   0.421   3.740   1.332 -0.1024  0.4990 -0.8716
 2485SOL     OW 7510   1.864   4.106   0.484 -0.0851 -0.1579 -0.4263
 2485SOL    HW1 7511   1.954   4.141   0.485 -0.0620 -0.2159 -0.4901
 2485SOL    HW2 7512   1.871   4.024   0.435  0.1334 -0.9914  0.9503
 2486SOL     OW 7513   0.991   2.668   2.481 -0.0517  0.7246  0.3710
 2486SOL    HW1 7514   0.900   2.661   2.508 -0.5050 -0.0054 -1.2382
 2486SOL    HW2 7515   1.017   2.579   2.459  1.4039  0.7467  1.7839
 2487SOL     OW 7516   1.083   4.655   3.179 -0.3445  0.1861 -0.0174
 2487SOL    HW1 7517   1.159   4.712   3.188  1.2510 -2.0136  2.1492
 2487SOL    HW2 7518   1.039   4.661   3.264  0.1812 -2.0794  0.4815
 2488SOL     OW 7519   1.981   3.400   0.037  0.6620  0.6016 -0.1774
 2488SOL    HW1 7520   2.073   3.414   0.061  0.7583  1.0903 -0.7983
 2488SOL    HW2 7521   1.961   3.471  -0.025 -0.5246  1.2874  0.9403
 2489SOL     OW 7522   3.032   3.495   3.441 -0.0638 -0.1691  0.4222
 2489SOL    HW1 7523   3.021   3.589   3.426 -0.5797 -0.4452 -1.1178
 2489SOL    HW2 7524   3.063   3.488   3.531  0.0998  1.4845  0.5149
 2490SOL     OW 7525   4.904   3.843   3.215  0.0183 -0.3199 -0.0033
 2490SOL    HW1 7526   4.933   3.930   3.242 -0.3288 -0.2795  0.2359
 2490SOL    HW2 7527   4.832   3.859   3.154  0.7303 -0.4130 -0.8902
 2491SOL     OW 7528   4.932   4.106   0.829 -0.0608  0.2280 -0.5558
 2491SOL    HW1 7529   4.879   4.132   0.904  2.7029  1.3112  1.2134
 2491SOL    HW2 7530   4.874   4.114   0.754 -2.7113 -0.0004  1.3320
 2492SOL     OW 7531   4.846   2.112   2.143  0.1551 -0.7464 -0.7282
 2492SOL    HW1 7532   4.814   2.130   2.232 -0.2917 -0.0556 -1.0174
 2492SOL    HW2 7533   4.796   2.035   2.115  0.4720 -1.1146 -0.2953
 2493SOL     OW 7534   3.246   0.169   2.708 -0.2630  0.1729 -0.4198
 2493SOL    HW1 7535   3.329   0.199   2.746  0.4861 -1.2948 -0.8388
 2493SOL    HW2 7536   3.272   0.116   2.633 -1.5193 -1.4063  0.2058
 2494SOL     OW 7537   2.058   2.420   2.022 -0.0135 -0.0550 -0.0721
 2494SOL    HW1 7538   2.146   2.427   1.985 -0.0854  0.5443 -0.1366
 2494SOL    HW2 7539   2.008   2.491   1.981 -0.4649 -0.2441  0.1377
 2495SOL     OW 7540   1.945   1.410   4.875 -0.9232 -0.0527 -0.2203
 2495SOL    HW1 7541   2.041   1.408   4.877 -0.9342 -1.7623  0.3291
 2495SOL    HW2 7542   1.920   1.425   4.966 -1.1896  0.8955 -0.4426
 2496SOL     OW 7543   1.238   3.101   4.856 -0.0106 -0.4770  0.2476
 2496SOL    HW1 7544   1.285   3.018   4.852 -1.0480 -1.0611 -0.1668
 2496SOL    HW2 7545   1.218   3.122   4.764 -1.1713 -0.6124  0.4512
 2497SOL     OW 7546   4.549   3.327   0.173 -0.0352  0.1741 -0.1622
 2497SOL    HW1 7547   4.565   3.358   0.084  3.7467 -0.6681  0.0357
 2497SOL    HW2 7548   4.487   3.255   0.163  1.5937 -1.0580 -2.4548
 2498SOL     OW 7549   0.708   0.309   1.409  0.0798 -0.3753  0.4798
 2498SOL    HW1 7550   0.646   0.337   1.477  0.7987 -0.1072  1.0386
 2498SOL    HW2 7551   0.792   0.303   1.454  1.0928  2.1833 -0.8602
 2499SOL     OW 7552   3.878   4.502   1.285  0.5063  0.2612  0.1384
 2499SOL    HW1 7553   3.927   4.518   1.365  1.8224 -1.6237 -0.2406
 2499SOL    HW2 7554   3.829   4.422   1.302 -1.5531  1.4156  0.0517
 2500SOL     OW 7555   3.675   1.019   3.069 -0.3646 -0.5142 -0.0810
 2500SOL    HW1 7556   3.711   1.062   2.991 -2.6603 -1.2966 -1.6740
 2500SOL    HW2 7557   3.715   0.932   3.070  0.2393 -0.2426  0.0826
 2501SOL     OW 7558   0.371   1.645   2.723 -0.2156  0.2712 -0.5554
 2501SOL    HW1 7559   0.430   1.718   2.703  0.1713 -0.0963 -0.7784
 2501SOL    HW2 7560   0.425   1.567   2.713  0.1822  0.0469  2.4373
 2502SOL     OW 7561   0.718   0.179   2.460  0.5895 -0.0082 -0.0438
 2502SOL    HW1 7562   0.765   0.160   2.379  0.9482 -0.6663  0.3069
 2502SOL    HW2 7563   0.651   0.242   2.435 -0.1444 -1.1642 -1.1342
 2503SOL     OW 7564   3.557   4.178   3.024  0.3411  0.0944  0.1387
 2503SOL    HW1 7565   3.520   4.169   3.112  0.4240  1.5776  0.3427
 2503SOL    HW2 7566   3.489   4.224   2.975  1.1806  1.2420  0.0332
 2504SOL     OW 7567   4.943   0.162   0.037 -0.1511 -0.1086  0.1728
 2504SOL    HW1 7568   5.027   0.192   0.072 -1.1936  2.8010  0.4906
 2504SOL    HW2 7569   4.937   0.205  -0.048 -0.5073 -1.8798 -0.7355
 2505SOL     OW 7570   1.688   3.840   2.816  0.3494  0.3798 -0.0923
 2505SOL    HW1 7571   1.769   3.888   2.797 -0.0097  0.7590 -0.6636
 2505SOL    HW2 7572   1.696   3.758   2.766 -0.4178  1.2026 -1.5993
 2506SOL     OW 7573   0.690   1.083   0.415  0.1161 -0.1253 -0.4886
 2506SOL    HW1 7574   0.616   1.058   0.471  0.7290  1.1235  0.9580
 2506SOL    HW2 7575   0.661   1.163   0.371  0.3668  0.0411 -0.3591
 2507SOL     OW 7576   2.860   3.142   0.240  0.7908  0.4581  0.7763
 2507SOL    HW1 7577   2.857   3.082   0.315 -0.0087  1.2179  1.3673
 2507SOL    HW2 7578   2.769   3.149   0.211  0.9699  0.8939  0.3046
 2508SOL     OW 7579   3.716   4.725   4.874 -0.2277 -0.1085  0.2540
 2508SOL    HW1 7580   3.687   4.658   4.935 -0.6272  0.7299  1.0156
 2508SOL    HW2 7581   3.637   4.753   4.828  0.0919 -0.8428 -0.7934
 2509SOL     OW 7582   0.731   2.673   4.981 -0.2575 -0.5106  0.1558
 2509SOL    HW1 7583   0.739   2.766   4.959 -0.0944 -0.7369 -0.7571
 2509SOL    HW2 7584   0.790   2.661   5.055 -0.3766  0.1391  0.3626
 2510SOL     OW 7585   0.001   2.427   1.181  0.0411  0.0173  0.1491
 2510SOL    HW1 7586  -0.061   2.384   1.240  0.0734 -0.3798 -0.1030
 2510SOL    HW2 7587  -0.002   2.519   1.206 -0.0710 -0.1229  0.6550
 2511SOL     OW 7588   1.634   2.702   1.437  0.2161 -0.3162 -0.0894
 2511SOL    HW1 7589   1.714   2.750   1.416  0.2506 -0.5723 -0.5667
 2511SOL    HW2 7590   1.640   2.621   1.385 -1.1152  0.3938 -1.4448
 2512SOL     OW 7591   4.914   2.047   4.789  0.1695  0.2178  0.0655
 2512SOL    HW1 7592   4.975   2.083   4.854  0.2070  0.4987 -0.1237
 2512SOL    HW2 7593   4.950   1.961   4.767  0.1338  0.1025  0.4462
 2513SOL     OW 7594   2.840   0.517   1.501 -0.5850  0.1108  0.1040
 2513SOL    HW1 7595   2.890   0.563   1.434  0.1989  0.0024  0.6015
 2513SOL    HW2 7596   2.850   0.570   1.580 -1.7207  0.3769  0.0775
 2514SOL     OW 7597   3.486   1.152   0.862 -0.1852 -0.2508 -0.0582
 2514SOL    HW1 7598   3.440   1.094   0.923  0.3320 -0.3158  0.2761
 2514SOL    HW2 7599   3.437   1.234   0.867 -0.9025 -0.6388 -0.5123
 2515SOL     OW 7600   4.178   2.444   2.115  0.3359 -0.5564 -0.1104
 2515SOL    HW1 7601   4.126   2.407   2.044  2.3660 -2.0880 -0.8644
 2515SOL    HW2 7602   4.131   2.524   2.139 -0.3354  0.1581 -3.3155
 2516SOL     OW 7603   2.915   1.470   1.321  0.1640  0.3033 -0.1407
 2516SOL    HW1 7604   2.939   1.558   1.349 -1.0095  0.4353  0.5068
 2516SOL    HW2 7605   2.897   1.423   1.402  0.2520 -0.3758 -0.5080
 2517SOL     OW 7606   3.723   3.555   4.908  0.3773 -0.3832  0.4367
 2517SOL    HW1 7607   3.730   3.561   5.003 -1.9810 -0.1017  0.6361
 2517SOL    HW2 7608   3.670   3.630   4.882 -1.0563 -1.7320 -0.7886
 2518SOL     OW 7609   4.253   4.223   1.358  0.6687 -0.4563  0.2595
 2518SOL    HW1 7610   4.220   4.138   1.388 -1.1141 -0.1110 -0.6213
 2518SOL    HW2 7611   4.211   4.238   1.274  2.5233  0.4143 -0.5838
 2519SOL     OW 7612   3.903   2.285   0.394  0.1254  0.4594  0.2162
 2519SOL    HW1 7613   3.894   2.354   0.328  1.0296 -0.3642 -0.8058
 2519SOL    HW2 7614   3.821   2.237   0.390  0.1632  0.4314 -0.2923
 2520SOL     OW 7615   4.766   3.171   1.328 -0.0401  0.3691 -0.7745
 2520SOL    HW1 7616   4.819   3.247   1.351  0.9989  0.0188 -1.8677
 2520SOL    HW2 7617   4.687   3.180   1.380  1.8001 -0.0202  2.3131
 2521SOL     OW 7618   3.821   3.870   1.282 -0.1690 -0.2791 -0.0680
 2521SOL    HW1 7619   3.768   3.867   1.361 -0.9124 -1.2598 -0.5953
 2521SOL    HW2 7620   3.904   3.907   1.311 -0.7700  0.3059  0.9699
 2522SOL     OW 7621   0.797   2.911   1.148 -0.6960  0.2050  0.3636
 2522SOL    HW1 7622   0.863   2.869   1.093 -1.2513  0.1235 -0.2650
 2522SOL    HW2 7623   0.810   2.874   1.235  0.1510  0.2754  0.2762
 2523SOL     OW 7624   1.322   1.856   0.906  0.5739  1.0301  0.0147
 2523SOL    HW1 7625   1.412   1.886   0.898  0.9710  0.0533  0.6667
 2523SOL    HW2 7626   1.323   1.793   0.978 -0.4685  0.4177 -0.4704
 2524SOL     OW 7627   0.728   4.240   1.944  0.3920 -0.1861 -0.0469
 2524SOL    HW1 7628   0.820   4.264   1.958  0.0114  0.7106  1.0935
 2524SOL    HW2 7629   0.680   4.285   2.014 -1.1097  0.6700 -1.5338
 2525SOL     OW 7630   2.827   1.061   2.302  0.1502 -0.7632 -0.8244
 2525SOL    HW1 7631   2.782   1.118   2.364 -1.4674 -0.4964 -2.1593
 2525SOL    HW2 7632   2.914   1.100   2.291 -0.4584  0.6821 -0.6908
 2526SOL     OW 7633   3.564   4.250   3.846  0.4878  0.1120  0.1807
 2526SOL    HW1 7634   3.649   4.290   3.827  1.5601 -2.7900 -1.9230
 2526SOL    HW2 7635   3.585   4.176   3.902 -0.7737 -0.1510  0.3330
 2527SOL     OW 7636   2.005   3.776   2.807 -0.3203  0.0741  0.2988
 2527SOL    HW1 7637   1.987   3.863   2.771  1.0503  0.3436  0.1960
 2527SOL    HW2 7638   2.013   3.719   2.730  1.0193  0.3298  0.2241
 2528SOL     OW 7639   2.143   3.040   0.216 -0.3202  0.2667 -1.1363
 2528SOL    HW1 7640   2.072   3.104   0.220 -1.0581 -0.5353 -1.0688
 2528SOL    HW2 7641   2.182   3.052   0.130 -1.5670 -0.3334 -1.8162
 2529SOL     OW 7642   0.559   1.796   2.613  0.2248  0.4586 -0.2388
 2529SOL    HW1 7643   0.639   1.778   2.662 -0.7735 -0.0398  1.2685
 2529SOL    HW2 7644   0.575   1.881   2.571  1.0248  1.0478  1.1792
 2530SOL     OW 7645   2.377   0.086   2.355  0.0757  0.2320  0.1369
 2530SOL    HW1 7646   2.306   0.145   2.331 -0.7542 -0.3505  1.0835
 2530SOL    HW2 7647   2.345   0.041   2.433  0.8588 -1.1786 -0.3258
 2531SOL     OW 7648   4.372   4.605   0.887 -0.4215  0.1548  0.6362
 2531SOL    HW1 7649   4.278   4.608   0.905 -0.3501  1.0072  0.9590
 2531SOL    HW2 7650   4.403   4.693   0.911  0.3494  0.0778 -0.0479
 2532SOL     OW 7651   2.919   4.550   1.853  0.9551 -0.3756  0.1671
 2532SOL    HW1 7652   2.867   4.489   1.801  1.5822 -1.8737  1.2160
 2532SOL    HW2 7653   2.989   4.578   1.793 -0.9053  1.5626 -1.2052
 2533SOL     OW 7654   1.146   0.112   1.349 -0.4029 -0.1804 -0.3072
 2533SOL    HW1 7655   1.135   0.040   1.411  3.8185 -1.1680 -0.4194
 2533SOL    HW2 7656   1.196   0.074   1.276 -0.5264  2.2281 -1.7605
 2534SOL     OW 7657   4.295   0.392   4.490  0.0556 -0.1878 -0.5085
 2534SOL    HW1 7658   4.259   0.349   4.568 -2.2955 -0.1354 -1.4860
 2534SOL    HW2 7659   4.331   0.321   4.438 -1.0644 -0.6410 -0.7042
 2535SOL     OW 7660   3.828   4.576   3.947  0.3746  0.2392 -0.6030
 2535SOL    HW1 7661   3.819   4.539   3.860 -2.8291 -0.8343  0.0694
 2535SOL    HW2 7662   3.759   4.643   3.952  1.4960  1.3736  0.6191
 2536SOL     OW 7663   4.932   1.060   2.139 -0.4012  0.0480  0.3702
 2536SOL    HW1 7664   4.848   1.102   2.121 -1.0014 -0.6964  1.3438
 2536SOL    HW2 7665   4.955   1.090   2.227  1.5809  2.1897 -0.7667
 2537SOL     OW 7666   4.641   2.151   4.877 -0.1306  0.2922 -0.4572
 2537SOL    HW1 7667   4.604   2.236   4.851 -3.2788 -0.7845  0.0532
 2537SOL    HW2 7668   4.712   2.136   4.815 -0.6169  2.5141 -1.6697
 2538SOL     OW 7669   4.100   2.848   1.953  0.2182  0.1054  0.3681
 2538SOL    HW1 7670   4.175   2.908   1.956  2.5350 -2.6293  0.6583
 2538SOL    HW2 7671   4.131   2.773   1.904 -2.5887 -0.9248 -0.0135
 2539SOL     OW 7672   4.846   4.926   2.975 -0.3343  0.4794  0.8543
 2539SOL    HW1 7673   4.870   4.848   3.026  1.7745  1.7547  1.9259
 2539SOL    HW2 7674   4.783   4.972   3.030 -0.8936  0.0263  0.6140
 2540SOL     OW 7675   2.269   2.284   3.563  0.1731 -0.0378 -0.1502
 2540SOL    HW1 7676   2.328   2.359   3.573 -0.3436  0.4615 -0.7308
 2540SOL    HW2 7677   2.216   2.306   3.487  0.5512 -1.3693 -0.8337
 2541SOL     OW 7678   0.729   4.226   2.593 -0.0335  0.5930 -0.2025
 2541SOL    HW1 7679   0.730   4.145   2.541  1.8020 -0.8223  1.8414
 2541SOL    HW2 7680   0.785   4.286   2.544 -0.3912  0.2078 -1.1120
 2542SOL     OW 7681   0.709   4.707   3.965  0.3150 -0.0667 -0.1552
 2542SOL    HW1 7682   0.702   4.636   3.901  0.8959  0.0651 -0.3700
 2542SOL    HW2 7683   0.680   4.668   4.047 -0.7431 -0.1507 -0.5545
 2543SOL     OW 7684   4.341   0.257   2.137  0.5288  0.4902 -0.1640
 2543SOL    HW1 7685   4.286   0.332   2.159 -0.7440 -0.3352 -0.4842
 2543SOL    HW2 7686   4.372   0.224   2.221 -0.2834  0.3453  0.0796
 2544SOL     OW 7687   4.225   1.627   2.453 -0.3123  0.4738  0.7668
 2544SOL    HW1 7688   4.192   1.682   2.382 -0.6537 -1.2689 -0.5009
 2544SOL    HW2 7689   4.152   1.623   2.516 -1.9610 -1.7549 -1.0854
 2545SOL     OW 7690   4.735   1.607   4.977 -0.1688 -0.4774  0.0079
 2545SOL    HW1 7691   4.714   1.647   4.892 -0.7019 -0.1237  0.3022
 2545SOL    HW2 7692   4.651   1.572   5.008 -0.3844  1.0874  1.2664
 2546SOL     OW 7693   0.438   1.592   4.307 -0.0181  0.3039  0.6422
 2546SOL    HW1 7694   0.451   1.497   4.303 -0.4707  0.2001  1.3348
 2546SOL    HW2 7695   0.366   1.603   4.368 -1.5978  0.9789 -1.2569
 2547SOL     OW 7696   3.690   3.380   0.953  0.0955  0.2601  0.2747
 2547SOL    HW1 7697   3.651   3.454   0.906 -1.3143 -2.6359 -3.6480
 2547SOL    HW2 7698   3.773   3.365   0.909 -0.4362 -1.4979 -0.2011
 2548SOL     OW 7699   2.868   3.141   4.196 -0.2343  0.5951 -0.1190
 2548SOL    HW1 7700   2.869   3.233   4.171 -0.4531  1.0901  1.5659
 2548SOL    HW2 7701   2.781   3.128   4.234  1.1534  0.8838  3.5707
 2549SOL     OW 7702   4.435   4.255   0.981  0.4003 -0.0706 -0.6938
 2549SOL    HW1 7703   4.478   4.298   0.907  0.9649  0.1412 -0.2489
 2549SOL    HW2 7704   4.447   4.162   0.965 -1.3406 -0.1441 -1.9779
 2550SOL     OW 7705   3.599   3.678   2.308 -0.5242 -0.2005 -0.0122
 2550SOL    HW1 7706   3.509   3.698   2.284 -0.9158 -2.4002 -0.7012
 2550SOL    HW2 7707   3.600   3.582   2.316  2.0734 -0.3911 -1.5659
 2551SOL     OW 7708   3.256   4.443   2.292 -0.0307  0.3942  0.2529
 2551SOL    HW1 7709   3.259   4.367   2.235  0.1070  0.7355 -0.1962
 2551SOL    HW2 7710   3.229   4.408   2.377  0.3371 -0.1969  0.1284
 2552SOL     OW 7711   3.724   4.269   1.286  0.3952  0.0805  0.2489
 2552SOL    HW1 7712   3.791   4.231   1.343 -0.1651  0.7398  1.3844
 2552SOL    HW2 7713   3.644   4.269   1.339 -0.6030 -0.9361 -1.1526
 2553SOL     OW 7714   0.005   2.650   4.360 -0.0912  0.6209 -0.0553
 2553SOL    HW1 7715  -0.030   2.733   4.392  0.5389  1.2792 -1.0370
 2553SOL    HW2 7716  -0.038   2.584   4.414 -0.4976  1.5865  0.8326
 2554SOL     OW 7717   1.256   0.940   2.439  0.2431 -0.5830 -0.0203
 2554SOL    HW1 7718   1.205   0.960   2.518 -0.0077  0.7301 -0.4870
 2554SOL    HW2 7719   1.210   0.986   2.369  0.7720 -1.2853 -0.8489
 2555SOL     OW 7720   1.093   0.563   0.381  0.0774  0.1671  0.1215
 2555SOL    HW1 7721   0.997   0.566   0.388 -0.0968 -1.6413 -0.7687
 2555SOL    HW2 7722   1.114   0.623   0.310 -0.1994  1.8053  1.3541
 2556SOL     OW 7723   4.825   4.341   2.539  0.2580  0.2271 -0.5844
 2556SOL    HW1 7724   4.875   4.420   2.518 -1.8315  1.2477 -2.0364
 2556SOL    HW2 7725   4.795   4.355   2.629 -2.1508  2.3427 -1.6196
 2557SOL     OW 7726   2.965   2.898   2.028 -0.3683  0.0134 -0.1644
 2557SOL    HW1 7727   2.911   2.919   2.104  3.0009  0.3465  2.3945
 2557SOL    HW2 7728   3.024   2.829   2.060  0.8023 -0.2729 -2.7236
 2558SOL     OW 7729   2.424   4.472   2.530 -0.4998  0.5164  0.0862
 2558SOL    HW1 7730   2.410   4.532   2.603  1.8725  1.2024  0.0688
 2558SOL    HW2 7731   2.343   4.475   2.481 -1.7675  0.8796  2.0816
 2559SOL     OW 7732   2.211   0.168   0.073 -0.2694 -0.0095 -0.0156
 2559SOL    HW1 7733   2.245   0.188   0.160  0.2730 -0.5043 -0.1118
 2559SOL    HW2 7734   2.264   0.094   0.042 -0.9105 -0.2845 -0.4853
 2560SOL     OW 7735   2.265   1.872   0.072  0.2636  0.0032 -0.3345
 2560SOL    HW1 7736   2.206   1.928   0.020 -0.6578 -0.1464  0.5124
 2560SOL    HW2 7737   2.246   1.783   0.042 -0.2070 -0.0755  0.1827
 2561SOL     OW 7738   0.314   3.050   0.013  0.3047 -0.1700  0.1795
 2561SOL    HW1 7739   0.334   2.978   0.072  0.7005  0.3188  0.6605
 2561SOL    HW2 7740   0.377   3.118   0.036 -1.1111  0.9719  0.8985
 2562SOL     OW 7741   4.834   0.529   0.191  0.2390 -0.3327  0.2965
 2562SOL    HW1 7742   4.764   0.553   0.129  1.1216 -0.0635 -0.6183
 2562SOL    HW2 7743   4.815   0.437   0.212 -0.1030 -0.4225 -0.3462
 2563SOL     OW 7744   2.990   4.241   1.457  0.1961  0.2251 -0.4781
 2563SOL    HW1 7745   2.963   4.325   1.419 -0.6311  0.5919  0.8336
 2563SOL    HW2 7746   2.937   4.176   1.411  0.0343  0.5446 -0.7482
 2564SOL     OW 7747   0.405   1.534   4.662  0.1025  0.1974 -0.2021
 2564SOL    HW1 7748   0.485   1.584   4.645  1.9413 -2.7925 -1.0973
 2564SOL    HW2 7749   0.403   1.469   4.592 -2.1833 -0.9215  0.8230
 2565SOL     OW 7750   3.635   1.546   1.661 -0.2272  0.1330 -0.1792
 2565SOL    HW1 7751   3.613   1.586   1.577 -2.1046  2.1586  1.1454
 2565SOL    HW2 7752   3.645   1.620   1.721 -1.4804 -1.2799  1.9246
 2566SOL     OW 7753   4.130   0.848   3.082  0.8884  0.4319  0.4080
 2566SOL    HW1 7754   4.174   0.928   3.057  1.0163  0.3797  0.4630
 2566SOL    HW2 7755   4.081   0.821   3.005  0.8595  0.5539  0.3850
 2567SOL     OW 7756   1.890   1.074   0.593  0.3592 -0.2358  0.1353
 2567SOL    HW1 7757   1.917   1.092   0.503  0.7442  0.2724  0.3456
 2567SOL    HW2 7758   1.823   1.006   0.585 -0.2691  0.4538 -0.6031
 2568SOL     OW 7759   3.109   3.144   0.622 -0.1441 -0.2798  0.0704
 2568SOL    HW1 7760   3.028   3.182   0.587 -0.6375 -0.1441  1.3295
 2568SOL    HW2 7761   3.106   3.162   0.716  1.1951 -0.5641  0.1889
 2569SOL     OW 7762   2.702   3.998   2.420  0.3112 -0.8774 -0.2865
 2569SOL    HW1 7763   2.729   4.088   2.440 -0.5822 -0.8750  1.0354
 2569SOL    HW2 7764   2.768   3.944   2.464 -0.1947 -0.8599  0.5151
 2570SOL     OW 7765   1.183   4.129   1.874  0.1509 -0.1979 -0.3770
 2570SOL    HW1 7766   1.220   4.081   1.800 -0.2130 -1.0989  0.0197
 2570SOL    HW2 7767   1.192   4.070   1.949  0.8478  0.8442  0.3900
 2571SOL     OW 7768   0.139   2.605   0.647 -0.6024 -0.1727 -0.2469
 2571SOL    HW1 7769   0.101   2.612   0.734 -0.0355  0.3124 -0.0246
 2571SOL    HW2 7770   0.102   2.525   0.610 -0.3583 -0.7320  0.6885
 2572SOL     OW 7771   4.542   2.999   4.177 -0.8731 -0.3139 -0.2245
 2572SOL    HW1 7772   4.595   2.927   4.142  0.1811  0.1771  0.2803
 2572SOL    HW2 7773   4.483   3.024   4.106  0.6703  0.1543 -1.4040
 2573SOL     OW 7774   4.160   0.490   1.045 -0.6160  0.1972  0.9659
 2573SOL    HW1 7775   4.123   0.444   1.120 -0.9637  0.7091  1.1174
 2573SOL    HW2 7776   4.130   0.581   1.056  0.4128  0.5564  0.9086
 2574SOL     OW 7777   4.155   2.112   4.658 -0.2728  0.2195 -0.3836
 2574SOL    HW1 7778   4.206   2.129   4.737 -0.9350 -0.4252  0.1999
 2574SOL    HW2 7779   4.213   2.062   4.601  0.7508  2.0061 -0.9839
 2575SOL     OW 7780   1.658   0.852   1.086  0.0380  0.2181  0.1654
 2575SOL    HW1 7781   1.685   0.943   1.073 -0.7426  0.6289  1.2143
 2575SOL    HW2 7782   1.740   0.803   1.091  0.4995  0.9802  0.2982
 2576SOL     OW 7783   2.040   1.096   3.107 -0.1400  0.0889  0.3243
 2576SOL    HW1 7784   2.004   1.162   3.047 -1.5607 -0.9026  0.0326
 2576SOL    HW2 7785   1.985   1.102   3.185  0.1397 -0.3060  0.5519
 2577SOL     OW 7786   2.548   2.258   2.661  0.0936  0.2155  0.1423
 2577SOL    HW1 7787   2.495   2.216   2.594 -0.5636 -0.1068  0.8558
 2577SOL    HW2 7788   2.501   2.242   2.743  1.3442 -0.1857  0.8102
 2578SOL     OW 7789   1.038   4.461   0.197 -0.6773  0.2185  0.3707
 2578SOL    HW1 7790   0.944   4.475   0.211 -1.2523 -1.0893 -1.7580
 2578SOL    HW2 7791   1.075   4.550   0.195 -2.1788  0.8735 -0.4788
 2579SOL     OW 7792   3.426   3.206   1.183  0.4039 -0.3706 -0.4806
 2579SOL    HW1 7793   3.445   3.203   1.089 -0.9268 -1.9568 -0.7449
 2579SOL    HW2 7794   3.332   3.190   1.189  0.9386 -3.7890  1.2394
 2580SOL     OW 7795   1.580   0.255   4.097  0.4553 -0.1621  0.4724
 2580SOL    HW1 7796   1.485   0.257   4.105  0.4315  0.8698  0.0531
 2580SOL    HW2 7797   1.610   0.336   4.137  1.1834 -0.5691  0.7758
 2581SOL     OW 7798   4.094   3.863   1.316  0.2443 -0.2332 -0.1075
 2581SOL    HW1 7799   4.157   3.894   1.381 -0.8226 -1.3686  1.5513
 2581SOL    HW2 7800   4.138   3.791   1.272 -0.0400 -1.4265  1.4639
 2582SOL     OW 7801   0.921   4.266   0.613  0.0023  0.7167 -0.4872
 2582SOL    HW1 7802   0.886   4.354   0.627  1.9059  1.3639  0.6794
 2582SOL    HW2 7803   0.846   4.214   0.585 -2.2073  1.6786  2.9981
 2583SOL     OW 7804   4.227   3.660   3.836 -0.0698 -0.0056 -0.2682
 2583SOL    HW1 7805   4.166   3.733   3.829 -1.4744 -1.0052  0.9566
 2583SOL    HW2 7806   4.247   3.637   3.745 -2.9568 -0.7577 -0.8044
 2584SOL     OW 7807   0.204   4.199   0.825  0.1436 -0.6449 -0.3205
 2584SOL    HW1 7808   0.204   4.209   0.730 -0.7214 -1.0408 -0.3731
 2584SOL    HW2 7809   0.114   4.177   0.847 -0.3747  2.1470  0.8901
 2585SOL     OW 7810   4.033   1.715   2.913  0.7048  0.3042 -0.2222
 2585SOL    HW1 7811   3.945   1.752   2.908 -0.1591 -1.5729  0.0546
 2585SOL    HW2 7812   4.067   1.743   2.998 -0.1352 -0.0018  0.2169
 2586SOL     OW 7813   4.082   2.722   3.418 -0.3487  0.7107  0.3040
 2586SOL    HW1 7814   4.140   2.677   3.480  0.0522 -0.6688 -1.0253
 2586SOL    HW2 7815   4.141   2.754   3.350 -1.1489 -1.7009 -1.6692
 2587SOL     OW 7816   2.080   3.998   4.511 -0.3377  0.0062 -0.0578
 2587SOL    HW1 7817   2.117   4.001   4.599 -1.0153 -1.5864  0.3258
 2587SOL    HW2 7818   2.141   3.944   4.460 -0.7357 -0.3749 -0.1387
 2588SOL     OW 7819   3.422   4.709   0.650  0.5099  0.3310 -0.3032
 2588SOL    HW1 7820   3.426   4.729   0.744  1.8224  0.2259 -0.3137
 2588SOL    HW2 7821   3.396   4.616   0.647  1.9751 -0.1167  0.0379
 2589SOL     OW 7822   1.539   1.741   3.764  0.2613 -0.3703  0.2204
 2589SOL    HW1 7823   1.522   1.739   3.859 -1.2262 -0.0698 -0.0091
 2589SOL    HW2 7824   1.589   1.661   3.748 -0.8698 -1.2942  1.0458
 2590SOL     OW 7825   0.206   4.917   0.820  0.4823 -0.0635 -0.0152
 2590SOL    HW1 7826   0.289   4.963   0.833  1.0375 -0.9627 -0.2718
 2590SOL    HW2 7827   0.199   4.858   0.895  0.3140 -0.3435 -0.2492
 2591SOL     OW 7828   2.355   2.689   2.578 -0.2157 -0.9254  0.2541
 2591SOL    HW1 7829   2.396   2.631   2.643  0.0335 -1.1101 -0.0651
 2591SOL    HW2 7830   2.263   2.660   2.576  0.5625 -3.7648 -2.4423
 2592SOL     OW 7831   2.343   4.414   2.264 -0.3835  0.6643  0.0352
 2592SOL    HW1 7832   2.286   4.482   2.229  0.2698  1.2356  0.0604
 2592SOL    HW2 7833   2.432   4.444   2.244 -0.0828 -0.1878  0.0270
 2593SOL     OW 7834   4.744   0.061   0.570  0.2895  0.0493  0.1643
 2593SOL    HW1 7835   4.786   0.138   0.530  2.0013 -0.3382  1.0973
 2593SOL    HW2 7836   4.771   0.064   0.662  1.3758 -2.2398  0.0021
 2594SOL     OW 7837   1.647   4.884   1.974 -0.6883 -0.1230  0.0169
 2594SOL    HW1 7838   1.644   4.933   1.892 -1.3474  0.0354  0.1300
 2594SOL    HW2 7839   1.621   4.947   2.041  1.6884  0.3000  0.6466
 2595SOL     OW 7840   3.001   4.916   3.797 -0.2195 -0.0011 -0.0504
 2595SOL    HW1 7841   3.017   4.924   3.703  0.4846  1.6353  0.1756
 2595SOL    HW2 7842   2.975   5.004   3.824 -0.7849 -0.5462  1.2270
 2596SOL     OW 7843   4.395   4.444   1.928  0.7399 -0.7893 -0.0301
 2596SOL    HW1 7844   4.408   4.522   1.982  1.1862 -0.1402 -1.0401
 2596SOL    HW2 7845   4.417   4.473   1.839  3.1630 -2.6166 -0.1384
 2597SOL     OW 7846   2.713   4.159   2.684  0.1741  0.8422 -0.2220
 2597SOL    HW1 7847   2.654   4.085   2.697 -0.3527  1.3308  0.2275
 2597SOL    HW2 7848   2.682   4.225   2.746  1.9340  0.6832  0.9041
 2598SOL     OW 7849   0.816   3.559   0.499  0.1949  0.6091 -0.5762
 2598SOL    HW1 7850   0.864   3.593   0.574  0.0663 -0.1673 -0.1322
 2598SOL    HW2 7851   0.813   3.464   0.513  0.5240  0.4035 -1.7667
 2599SOL     OW 7852   4.192   2.324   0.472  0.2598 -0.5025  0.6590
 2599SOL    HW1 7853   4.221   2.399   0.421  0.1889 -0.8246  0.1468
 2599SOL    HW2 7854   4.103   2.345   0.500 -1.2496 -1.9361 -2.6054
 2600SOL     OW 7855   2.094   1.798   3.792  0.0705 -0.3641 -0.0391
 2600SOL    HW1 7856   2.097   1.708   3.824  1.1211 -0.4841 -0.4261
 2600SOL    HW2 7857   2.183   1.830   3.803 -0.6166  1.1727  1.5344
 2601SOL     OW 7858   3.512   2.658   3.795 -0.1402  0.2772 -0.6883
 2601SOL    HW1 7859   3.426   2.656   3.753 -0.1650  0.6256 -0.6575
 2601SOL    HW2 7860   3.575   2.650   3.723 -0.1940  0.1447 -0.7214
 2602SOL     OW 7861   0.570   4.669   3.078 -0.8042 -0.2566 -0.2254
 2602SOL    HW1 7862   0.507   4.663   3.006 -1.2079 -0.1347  0.1122
 2602SOL    HW2 7863   0.566   4.584   3.121 -1.6018  0.1369  0.5025
 2603SOL     OW 7864   3.322   3.017   3.134  0.0030  0.2926 -0.2125
 2603SOL    HW1 7865   3.251   2.955   3.151  0.2848  0.0151 -0.0255
 2603SOL    HW2 7866   3.397   2.961   3.114  0.3665  0.5635  0.3765
 2604SOL     OW 7867   2.357   4.159   2.409  0.7082  0.6805 -0.4150
 2604SOL    HW1 7868   2.450   4.149   2.429  1.6804  2.4450 -3.3483
 2604SOL    HW2 7869   2.350   4.249   2.376 -2.3321  1.0515  0.9902
 2605SOL     OW 7870   0.904   1.611   2.967  0.8910 -0.5094  0.1730
 2605SOL    HW1 7871   0.937   1.634   3.054  1.0824  0.4497 -0.1476
 2605SOL    HW2 7872   0.972   1.642   2.907 -0.9527  2.4410 -0.5876
 2606SOL     OW 7873   1.502   4.469   0.361  0.1712  0.3060 -0.4207
 2606SOL    HW1 7874   1.594   4.443   0.354  1.0717  3.3112 -1.4443
 2606SOL    HW2 7875   1.497   4.553   0.314 -2.9279  0.6799  0.3402
 2607SOL     OW 7876   0.409   3.382   0.587 -0.1932 -0.2156 -0.0772
 2607SOL    HW1 7877   0.379   3.351   0.502  1.7535  1.2404 -1.3895
 2607SOL    HW2 7878   0.471   3.452   0.567  0.4687  0.0805  2.5485
 2608SOL     OW 7879   1.123   1.869   0.713  0.7177 -0.2957  0.1973
 2608SOL    HW1 7880   1.142   1.888   0.621  0.5632  0.3574  0.2936
 2608SOL    HW2 7881   1.209   1.864   0.755  0.7526  1.1170  0.3372
 2609SOL     OW 7882   3.357   3.933   3.857  0.1330  0.4842 -0.1354
 2609SOL    HW1 7883   3.413   3.950   3.781 -0.5424  1.5777 -0.4043
 2609SOL    HW2 7884   3.394   3.988   3.926  0.0403  0.3775 -0.0017
 2610SOL     OW 7885   1.224   2.132   2.810  0.5557  0.5431 -0.3322
 2610SOL    HW1 7886   1.178   2.211   2.782 -0.6388 -0.4876 -1.4350
 2610SOL    HW2 7887   1.222   2.135   2.906  2.7811  3.0618 -0.2567
 2611SOL     OW 7888   3.945   3.800   4.023  0.1926  0.1339 -0.0113
 2611SOL    HW1 7889   4.034   3.830   4.043  0.5478 -0.6213 -0.4235
 2611SOL    HW2 7890   3.954   3.752   3.940 -0.5325 -0.2515  0.1262
 2612SOL     OW 7891   4.173   0.056   1.161  0.0006  0.3212 -0.3703
 2612SOL    HW1 7892   4.149  -0.009   1.095 -0.5212  0.5458 -0.4046
 2612SOL    HW2 7893   4.129   0.136   1.133 -0.2479  0.4126  0.2706
 2613SOL     OW 7894   3.628   2.376   3.536 -0.1197  0.0669  0.2313
 2613SOL    HW1 7895   3.659   2.466   3.530 -0.9957  0.3489 -0.3070
 2613SOL    HW2 7896   3.631   2.344   3.446 -0.0205 -0.3665  0.3890
 2614SOL     OW 7897   4.840   4.552   3.491  0.2813  0.3369  0.6894
 2614SOL    HW1 7898   4.756   4.596   3.503  0.5624  0.5774  1.9194
 2614SOL    HW2 7899   4.869   4.530   3.579  2.4964  2.1497  0.5386
 2615SOL     OW 7900   3.921   1.884   0.940 -0.2521  0.7876  0.0277
 2615SOL    HW1 7901   3.876   1.855   0.861 -2.3522 -1.5619  1.9194
 2615SOL    HW2 7902   3.981   1.813   0.961  1.6353  2.1961 -0.3608
 2616SOL     OW 7903   4.641   3.465   4.201  0.3022 -0.0709 -0.1228
 2616SOL    HW1 7904   4.691   3.547   4.204 -0.1956  0.2620 -0.8418
 2616SOL    HW2 7905   4.692   3.405   4.256  0.6055  0.7509  0.5226
 2617SOL     OW 7906   4.640   0.375   4.742  0.2904  0.0658  0.4323
 2617SOL    HW1 7907   4.731   0.351   4.763  0.3004 -0.3886 -0.1097
 2617SOL    HW2 7908   4.587   0.326   4.804  0.3801 -0.2577  0.2552
 2618SOL     OW 7909   1.205   0.995   1.123  0.6734  0.5565 -0.1009
 2618SOL    HW1 7910   1.282   1.049   1.103  1.2073 -0.5332 -1.1107
 2618SOL    HW2 7911   1.202   0.931   1.052  0.2379 -0.9275  1.1982
 2619SOL     OW 7912   1.065   1.305   1.566 -0.8225  0.3883 -0.4136
 2619SOL    HW1 7913   1.088   1.354   1.487 -1.1290 -0.9288 -1.3427
 2619SOL    HW2 7914   0.976   1.333   1.587 -0.1607  1.9597  0.4400
 2620SOL     OW 7915   0.817   1.980   0.706 -0.3114  0.2960  0.0315
 2620SOL    HW1 7916   0.877   1.927   0.760 -0.1059  0.5615  0.0648
 2620SOL    HW2 7917   0.858   2.066   0.703  0.7532 -0.2263 -2.2667
 2621SOL     OW 7918   4.243   1.318   2.403 -0.1276  0.4098 -0.1707
 2621SOL    HW1 7919   4.181   1.330   2.331 -0.0515  0.2517 -0.2608
 2621SOL    HW2 7920   4.249   1.405   2.443 -3.0038 -0.1879  1.9497
 2622SOL     OW 7921   4.057   3.502   0.057  0.7574  0.3604 -0.3188
 2622SOL    HW1 7922   3.985   3.498   0.120 -0.0937  1.7232 -1.1535
 2622SOL    HW2 7923   4.109   3.577   0.083  0.2663  1.0817 -1.3356
 2623SOL     OW 7924   0.879   3.710   2.576  0.0901  0.3389 -0.5523
 2623SOL    HW1 7925   0.932   3.789   2.585  0.5040 -0.0272  0.3010
 2623SOL    HW2 7926   0.813   3.717   2.644 -1.0561  0.8361 -1.6705
 2624SOL     OW 7927   2.025   3.653   4.368  0.1531 -0.2162  0.2083
 2624SOL    HW1 7928   2.105   3.702   4.385 -0.4240  0.9534 -0.2667
 2624SOL    HW2 7929   1.955   3.718   4.380 -0.7337 -1.2572  0.8177
 2625SOL     OW 7930   0.629   2.295   1.399  0.0074 -0.3320 -0.0500
 2625SOL    HW1 7931   0.548   2.284   1.448  0.3723 -0.8943  0.4422
 2625SOL    HW2 7932   0.603   2.342   1.320 -0.6273  0.3364  0.5494
 2626SOL     OW 7933   0.088   1.786   4.241  0.1689 -0.5151  0.2436
 2626SOL    HW1 7934   0.111   1.874   4.269 -0.5675 -0.3393  0.2949
 2626SOL    HW2 7935   0.149   1.768   4.168 -1.3851  1.0622 -1.5568
 2627SOL     OW 7936   4.772   2.078   1.520  0.1096 -0.3551  0.2226
 2627SOL    HW1 7937   4.789   2.150   1.580  0.0197 -0.2530  0.1280
 2627SOL    HW2 7938   4.838   2.012   1.541 -0.3576 -0.6184  0.9075
 2628SOL     OW 7939   2.174   0.676   3.382 -0.0184 -0.3012 -0.5918
 2628SOL    HW1 7940   2.111   0.642   3.318 -0.6804  0.0277 -0.1289
 2628SOL    HW2 7941   2.150   0.634   3.465 -1.4497  1.8941  0.2068
 2629SOL     OW 7942   0.477   1.782   0.506 -0.4053 -0.0521  0.0615
 2629SOL    HW1 7943   0.500   1.800   0.597  3.0495 -1.1626 -0.4494
 2629SOL    HW2 7944   0.489   1.866   0.461  0.0407  0.0060  0.2859
 2630SOL     OW 7945   3.181   1.549   2.004 -0.1390  0.6015 -0.4621
 2630SOL    HW1 7946   3.172   1.455   1.986  1.3320  0.1233  1.0507
 2630SOL    HW2 7947   3.165   1.591   1.920 -2.7822 -0.8463 -0.7927
 2631SOL     OW 7948   1.770   1.788   2.975 -0.6395  0.1747 -0.3772
 2631SOL    HW1 7949   1.710   1.817   2.907 -0.4563  1.8307  0.1278
 2631SOL    HW2 7950   1.836   1.857   2.979  1.5835 -1.7655 -1.2093
 2632SOL     OW 7951   2.218   2.600   0.463 -0.1790  0.3542 -0.6997
 2632SOL    HW1 7952   2.305   2.632   0.488 -0.5078  0.9383 -0.2765
 2632SOL    HW2 7953   2.222   2.591   0.368  0.4845 -0.0539 -0.6395
 2633SOL     OW 7954   2.087   2.023   4.049  0.3939 -0.3807 -0.8474
 2633SOL    HW1 7955   2.103   1.951   3.988 -1.4075 -0.3880 -1.3846
 2633SOL    HW2 7956   2.001   2.058   4.023 -0.4983 -0.4331  1.7223
 2634SOL     OW 7957   1.114   2.404   1.520 -0.1870  0.4996 -0.6488
 2634SOL    HW1 7958   1.023   2.433   1.526 -0.5072 -0.3567 -1.2370
 2634SOL    HW2 7959   1.117   2.323   1.569  0.8029  1.6485  1.3213
 2635SOL     OW 7960   4.198   3.734   0.035  0.4811 -0.0458  0.4783
 2635SOL    HW1 7961   4.217   3.665  -0.028  1.5445 -0.5454  1.3024
 2635SOL    HW2 7962   4.251   3.808   0.006 -0.5582  0.4070 -0.3300
 2636SOL     OW 7963   2.961   4.395   0.064 -0.1246  0.6643  0.5213
 2636SOL    HW1 7964   3.012   4.333   0.012  0.4276  0.3722  1.3735
 2636SOL    HW2 7965   2.900   4.340   0.114 -3.0106  1.1487 -2.2081
 2637SOL     OW 7966   4.321   4.394   2.477  0.5437  0.0761  0.4235
 2637SOL    HW1 7967   4.381   4.327   2.509 -0.0369 -1.6218 -1.7742
 2637SOL    HW2 7968   4.363   4.429   2.399 -0.4813  0.1016 -0.1446
 2638SOL     OW 7969   2.268   4.227   4.867 -0.0434  0.1819 -0.5270
 2638SOL    HW1 7970   2.199   4.253   4.806 -0.4027  1.6605  0.4537
 2638SOL    HW2 7971   2.238   4.259   4.952  1.4317  0.0604  0.0670
 2639SOL     OW 7972   2.973   0.340   1.739 -0.3955 -0.2800 -0.5029
 2639SOL    HW1 7973   2.944   0.413   1.794 -1.1719 -1.0053  0.0592
 2639SOL    HW2 7974   3.064   0.361   1.719 -0.5579  0.7652 -0.2187
 2640SOL     OW 7975   2.391   3.369   2.892 -0.2128 -0.1669  0.2135
 2640SOL    HW1 7976   2.474   3.321   2.894  0.7188  1.4052  1.1291
 2640SOL    HW2 7977   2.416   3.461   2.887 -1.8781  0.3909  1.1742
 2641SOL     OW 7978   3.108   2.908   1.238 -0.3657 -0.3261 -0.2591
 2641SOL    HW1 7979   3.148   2.994   1.251 -1.0029 -0.0318 -0.2191
 2641SOL    HW2 7980   3.121   2.889   1.145  0.3159 -0.4659 -0.1407
 2642SOL     OW 7981   3.440   4.005   1.569 -0.2506 -0.2286 -0.1343
 2642SOL    HW1 7982   3.397   4.075   1.618  2.2661  1.8807 -0.7316
 2642SOL    HW2 7983   3.375   3.935   1.566 -1.1633 -0.0003  4.8877
 2643SOL     OW 7984   4.826   2.176   3.270  0.0174  0.2092  0.2557
 2643SOL    HW1 7985   4.878   2.213   3.341  0.4539 -1.0053  0.5988
 2643SOL    HW2 7986   4.890   2.162   3.199  0.0747 -0.7751  0.4835
 2644SOL     OW 7987   2.076   1.661   3.149 -0.9402  0.1073  0.3152
 2644SOL    HW1 7988   2.106   1.696   3.233 -2.2733  3.6287 -0.5032
 2644SOL    HW2 7989   2.003   1.718   3.124  0.0876 -0.0370 -3.7601
 2645SOL     OW 7990   0.201   3.943   4.496 -0.1343 -0.0396 -0.3851
 2645SOL    HW1 7991   0.269   3.893   4.451  1.4344  1.4060  0.2707
 2645SOL    HW2 7992   0.167   4.003   4.429  0.5496  0.4892 -0.2746
 2646SOL     OW 7993   4.578   2.806   1.434 -0.4088  0.4451 -0.2633
 2646SOL    HW1 7994   4.636   2.816   1.509 -2.8968  2.3601  1.5845
 2646SOL    HW2 7995   4.490   2.820   1.469 -1.9205 -0.7062 -3.1852
 2647SOL     OW 7996   4.703   1.930   3.914 -0.1571 -0.0485 -0.7276
 2647SOL    HW1 7997   4.740   2.002   3.863  1.6470 -1.4713 -1.5455
 2647SOL    HW2 7998   4.762   1.921   3.989 -0.2059 -0.8538 -0.7846
 2648SOL     OW 7999   1.409   4.282   1.264  0.0625  0.1889 -0.0762
 2648SOL    HW1 8000   1.432   4.334   1.187  2.0257 -0.3496  0.0792
 2648SOL    HW2 8001   1.466   4.204   1.258 -0.9096 -0.6505  1.0591
 2649SOL     OW 8002   3.818   4.692   4.252  0.3548  0.5386  0.5728
 2649SOL    HW1 8003   3.741   4.734   4.213  0.7317  0.9000  0.2022
 2649SOL    HW2 8004   3.891   4.722   4.198  0.4815 -1.8620 -0.7217
 2650SOL     OW 8005   3.825   4.352   1.654 -0.6864  0.1432 -0.2329
 2650SOL    HW1 8006   3.750   4.292   1.643 -1.1671  0.6060  0.4070
 2650SOL    HW2 8007   3.804   4.401   1.734 -0.3291  1.2106 -0.7835
 2651SOL     OW 8008   0.005   1.410   2.097  0.1958  0.1972  0.2447
 2651SOL    HW1 8009   0.033   1.372   2.181  1.6909 -3.5285 -1.7000
 2651SOL    HW2 8010  -0.082   1.373   2.083  0.6229 -0.5221 -0.5519
 2652SOL     OW 8011   3.092   1.267   0.197 -0.1055  0.3675  0.1193
 2652SOL    HW1 8012   3.134   1.290   0.114 -0.7208  2.0960  0.2320
 2652SOL    HW2 8013   3.161   1.225   0.249  0.1120 -1.3341 -1.4661
 2653SOL     OW 8014   3.878   2.828   2.308 -0.2566 -0.2161 -0.2815
 2653SOL    HW1 8015   3.788   2.805   2.287  0.2769 -1.0830 -1.7711
 2653SOL    HW2 8016   3.881   2.923   2.303 -1.2213 -0.1365  0.4069
 2654SOL     OW 8017   3.741   0.567   0.624  0.2456 -0.8202  0.2259
 2654SOL    HW1 8018   3.692   0.511   0.563 -0.3515  0.0140 -0.0783
 2654SOL    HW2 8019   3.697   0.652   0.619 -0.0398 -0.8074  2.0679
 2655SOL     OW 8020   4.455   3.356   4.055 -0.4287 -0.7204 -0.2121
 2655SOL    HW1 8021   4.528   3.386   4.109 -2.0455 -0.1439  1.7714
 2655SOL    HW2 8022   4.479   3.267   4.029  0.0078 -1.4355  2.3382
 2656SOL     OW 8023   1.564   3.220   4.024  0.0257 -0.2583 -0.3777
 2656SOL    HW1 8024   1.628   3.155   4.053  1.1802  1.8842  2.3487
 2656SOL    HW2 8025   1.480   3.189   4.060  0.1956 -1.1633 -0.7349
 2657SOL     OW 8026   0.281   0.103   3.824 -0.6887 -0.1496  0.3278
 2657SOL    HW1 8027   0.194   0.062   3.823 -0.5231 -0.6925  2.7841
 2657SOL    HW2 8028   0.339   0.036   3.859  0.3991  0.7829  0.3548
 2658SOL     OW 8029   0.561   4.764   4.864 -0.0791  0.1486 -0.7423
 2658SOL    HW1 8030   0.599   4.806   4.787  0.3648 -0.3764 -0.8115
 2658SOL    HW2 8031   0.629   4.703   4.894 -0.1723  0.4776  0.1681
 2659SOL     OW 8032   2.019   2.599   4.683  0.3825  0.4481  0.4395
 2659SOL    HW1 8033   2.077   2.528   4.710  0.6788 -0.2924 -1.8699
 2659SOL    HW2 8034   1.931   2.567   4.705  0.6941  0.8961  2.5154
 2660SOL     OW 8035   0.759   3.264   4.495 -0.7179 -0.0090  0.1151
 2660SOL    HW1 8036   0.706   3.202   4.545 -0.0570 -1.4654 -0.9270
 2660SOL    HW2 8037   0.844   3.263   4.538 -0.5885 -0.1275 -0.1415
 2661SOL     OW 8038   1.118   0.001   3.717  0.0174  0.0017 -0.0023
 2661SOL    HW1 8039   1.146  -0.046   3.638  0.4305  1.0367 -0.4925
 2661SOL    HW2 8040   1.041   0.050   3.689 -1.1598 -1.3079  0.8315
 2662SOL     OW 8041   3.339   1.392   4.523 -0.1206 -0.1781 -0.0960
 2662SOL    HW1 8042   3.342   1.473   4.573 -0.1137 -1.2189  1.6956
 2662SOL    HW2 8043   3.253   1.354   4.542  0.1274 -0.9096 -0.3644
 2663SOL     OW 8044   1.953   3.898   0.004  0.4101 -0.1098  0.0376
 2663SOL    HW1 8045   1.996   3.934   0.081  2.2126  1.2535 -1.4812
 2663SOL    HW2 8046   1.921   3.812   0.031  0.8117  0.3935  2.3070
 2664SOL     OW 8047   4.135   2.351   1.176  0.2368 -0.5656 -0.1171
 2664SOL    HW1 8048   4.219   2.379   1.214 -0.9870  0.0104  2.3532
 2664SOL    HW2 8049   4.132   2.395   1.091  2.7505 -1.2307 -0.6597
 2665SOL     OW 8050   4.889   0.846   1.374  0.0822 -0.4470  0.3726
 2665SOL    HW1 8051   4.917   0.841   1.465  0.9944 -2.2298  0.0530
 2665SOL    HW2 8052   4.953   0.793   1.326 -0.8334 -0.2240 -1.1880
 2666SOL     OW 8053   1.139   4.427   4.392 -0.0669 -0.6845 -0.4344
 2666SOL    HW1 8054   1.182   4.342   4.382  0.7661 -0.4065  0.6121
 2666SOL    HW2 8055   1.076   4.414   4.463 -0.1202 -0.4915 -0.4469
 2667SOL     OW 8056   1.065   1.828   0.413 -0.0488  0.0149 -0.0746
 2667SOL    HW1 8057   1.090   1.817   0.321  0.1948 -2.0624  0.1874
 2667SOL    HW2 8058   1.075   1.741   0.450 -0.3963  0.7715  1.8774
 2668SOL     OW 8059   3.771   4.040   2.258 -0.8464  0.4605 -0.3799
 2668SOL    HW1 8060   3.775   4.106   2.328 -1.1349 -0.7445  0.7985
 2668SOL    HW2 8061   3.862   4.024   2.235 -0.7459  0.7813 -0.2171
 2669SOL     OW 8062   0.480   4.045   0.762 -0.3393 -0.3347  0.4152
 2669SOL    HW1 8063   0.479   4.106   0.835 -0.1467  1.3668 -0.9462
 2669SOL    HW2 8064   0.435   4.091   0.691  2.2638 -0.5761 -1.5335
 2670SOL     OW 8065   4.351   2.862   1.680 -0.1406  0.0628 -0.8688
 2670SOL    HW1 8066   4.445   2.870   1.670 -0.2858  0.4495 -2.0658
 2670SOL    HW2 8067   4.330   2.919   1.754  0.9509 -2.6817  1.7586
 2671SOL     OW 8068   3.243   4.504   3.210 -0.5262  0.2172  0.2469
 2671SOL    HW1 8069   3.182   4.552   3.155 -1.0834  0.0301  0.6923
 2671SOL    HW2 8070   3.205   4.509   3.298 -1.7088 -2.7864  0.0146
 2672SOL     OW 8071   1.936   0.937   1.235 -0.5122  0.1274  0.0300
 2672SOL    HW1 8072   1.889   1.020   1.221  0.3867  0.4791 -1.1068
 2672SOL    HW2 8073   1.940   0.898   1.148  1.1082  0.0162  0.1224
 2673SOL     OW 8074   3.152   4.337   2.507 -0.1159 -0.3857 -0.1910
 2673SOL    HW1 8075   3.126   4.245   2.502  0.1642 -0.4906  0.2438
 2673SOL    HW2 8076   3.153   4.356   2.600  3.6315 -1.0508  0.0388
 2674SOL     OW 8077   1.910   3.242   0.757 -0.5421  0.5633  0.2677
 2674SOL    HW1 8078   1.927   3.207   0.844  0.1632 -0.6155 -0.3151
 2674SOL    HW2 8079   1.827   3.290   0.765 -0.7968 -0.0540  1.4351
 2675SOL     OW 8080   4.074   2.721   0.026 -0.4136  0.8440  0.3995
 2675SOL    HW1 8081   4.140   2.688  -0.035 -0.8990  0.0476  0.2841
 2675SOL    HW2 8082   4.099   2.683   0.111 -1.5800 -0.7712  0.0711
 2676SOL     OW 8083   2.155   4.874   1.629 -0.2765  0.4629 -0.0829
 2676SOL    HW1 8084   2.165   4.948   1.570 -1.9211  0.4636 -0.4019
 2676SOL    HW2 8085   2.228   4.816   1.607  0.8621  1.8187 -0.0328
 2677SOL     OW 8086   4.284   4.694   2.895  0.6738 -0.0555  0.2490
 2677SOL    HW1 8087   4.356   4.757   2.896  0.5222  0.1668 -0.8643
 2677SOL    HW2 8088   4.327   4.609   2.893  0.9386 -0.2637  4.7160
 2678SOL     OW 8089   3.905   2.834   2.872 -0.4539  0.9525  0.0035
 2678SOL    HW1 8090   3.956   2.782   2.810 -2.7575 -1.1148 -0.2894
 2678SOL    HW2 8091   3.836   2.874   2.820 -0.9477  1.2363  0.8500
 2679SOL     OW 8092   0.271   2.515   3.859  0.8634 -0.9724  0.5845
 2679SOL    HW1 8093   0.331   2.584   3.833  0.1410 -0.5235  0.0671
 2679SOL    HW2 8094   0.244   2.539   3.948  0.8630 -0.7577  0.5260
 2680SOL     OW 8095   4.176   2.862   4.019  0.2279  0.1437  0.0460
 2680SOL    HW1 8096   4.097   2.809   4.013 -0.5705  1.4469 -1.2048
 2680SOL    HW2 8097   4.240   2.815   3.966  0.1054 -0.5379  0.4851
 2681SOL     OW 8098   0.557   4.352   2.136  0.5008 -0.1701 -0.2276
 2681SOL    HW1 8099   0.536   4.397   2.218 -0.4108  0.6832 -0.9092
 2681SOL    HW2 8100   0.472   4.330   2.099  0.7596  1.9504 -2.2987
 2682SOL     OW 8101   1.210   4.264   3.667  0.2318 -0.6428  0.7803
 2682SOL    HW1 8102   1.158   4.185   3.652 -1.3412  0.7344 -1.6919
 2682SOL    HW2 8103   1.280   4.260   3.603  0.0263  0.0233  0.4996
 2683SOL     OW 8104   1.148   1.134   2.248  0.2159 -0.1935  0.3492
 2683SOL    HW1 8105   1.176   1.223   2.271  1.4367 -0.2090 -0.9328
 2683SOL    HW2 8106   1.169   1.126   2.154 -1.9097 -1.0820 -0.1044
 2684SOL     OW 8107   3.075   2.559   0.378 -0.3284 -0.5304 -0.3605
 2684SOL    HW1 8108   3.128   2.639   0.385 -1.1306 -0.0244  0.0196
 2684SOL    HW2 8109   3.116   2.498   0.439 -0.1130 -0.1800 -0.1497
 2685SOL     OW 8110   1.493   3.582   2.930  0.0179 -0.0457  0.2892
 2685SOL    HW1 8111   1.440   3.662   2.935 -1.4748 -1.0258  0.9762
 2685SOL    HW2 8112   1.578   3.608   2.963 -0.3250  1.3359  0.1923
 2686SOL     OW 8113   3.276   3.322   3.945  0.0997  0.5219 -0.6212
 2686SOL    HW1 8114   3.342   3.272   3.994  0.2243  0.2833 -1.0197
 2686SOL    HW2 8115   3.295   3.413   3.965  2.7291  0.7091 -3.3174
 2687SOL     OW 8116   3.269   0.724   4.247  0.1246 -0.9578  0.0028
 2687SOL    HW1 8117   3.310   0.677   4.320  1.2620 -0.6794 -0.4361
 2687SOL    HW2 8118   3.200   0.777   4.288  0.7680 -0.7889  0.8786
 2688SOL     OW 8119   0.302   2.890   0.239  0.5117 -0.0975 -0.5099
 2688SOL    HW1 8120   0.333   2.812   0.193  0.7091 -0.6890  0.5963
 2688SOL    HW2 8121   0.290   2.862   0.330  0.7321  1.1978 -0.0566
 2689SOL     OW 8122   3.343   2.322   0.509 -0.1952  0.3425  0.1236
 2689SOL    HW1 8123   3.267   2.354   0.558 -1.3992  0.2534 -1.6325
 2689SOL    HW2 8124   3.317   2.236   0.476 -0.0816  1.1039 -2.0811
 2690SOL     OW 8125   0.389   4.535   0.304 -0.8632 -0.1797 -0.6679
 2690SOL    HW1 8126   0.340   4.578   0.374 -1.3350 -0.1478 -1.0122
 2690SOL    HW2 8127   0.393   4.600   0.234  1.2515  0.5044  0.0123
 2691SOL     OW 8128   2.786   3.620   0.096  0.0898 -0.2534  0.4880
 2691SOL    HW1 8129   2.707   3.607   0.148 -0.4743 -1.1083 -0.5293
 2691SOL    HW2 8130   2.786   3.547   0.034  0.0140  1.4159 -1.5943
 2692SOL     OW 8131   4.583   1.978   3.305  0.2401 -0.4543 -0.1819
 2692SOL    HW1 8132   4.641   2.051   3.282 -1.5040  0.3953 -2.2311
 2692SOL    HW2 8133   4.595   1.915   3.234  1.5053 -2.1227  1.4139
 2693SOL     OW 8134   3.900   2.365   4.757  0.2655 -0.0353  0.2622
 2693SOL    HW1 8135   3.954   2.335   4.831  0.6673 -1.9790 -0.7652
 2693SOL    HW2 8136   3.885   2.458   4.775 -0.0910 -0.5485  3.0665
 2694SOL     OW 8137   0.044   0.581   4.884  0.1840 -0.4544  0.5744
 2694SOL    HW1 8138   0.114   0.545   4.829 -0.0517 -1.1926  0.7515
 2694SOL    HW2 8139   0.061   0.546   4.971  0.9357  1.2370  1.1376
 2695SOL     OW 8140   4.932   4.315   0.491 -0.3989  0.6634 -0.3184
 2695SOL    HW1 8141   4.930   4.389   0.431 -0.9750  1.0288  0.1353
 2695SOL    HW2 8142   4.955   4.354   0.576  0.2513  0.1785 -0.2658
 2696SOL     OW 8143   0.296   1.500   0.524 -0.3668  0.2013  0.2279
 2696SOL    HW1 8144   0.322   1.536   0.609 -1.2000 -1.5526  1.2898
 2696SOL    HW2 8145   0.377   1.496   0.473  0.7123 -1.1803  1.9273
 2697SOL     OW 8146   1.580   1.502   2.364  0.0323  0.0329  0.2473
 2697SOL    HW1 8147   1.608   1.431   2.422  0.4594  0.1644  0.2072
 2697SOL    HW2 8148   1.517   1.552   2.416  1.6572  1.1505  1.2571
 2698SOL     OW 8149   0.909   0.500   2.464  0.6505  0.2814  0.3381
 2698SOL    HW1 8150   0.827   0.529   2.503 -0.0697  0.2195 -1.0637
 2698SOL    HW2 8151   0.953   0.451   2.533 -0.3207  0.6398  1.2253
 2699SOL     OW 8152   3.388   0.366   0.947 -0.4788  0.7633 -0.3851
 2699SOL    HW1 8153   3.427   0.383   1.033 -0.5234  0.7121 -0.3543
 2699SOL    HW2 8154   3.403   0.273   0.933  0.4514  0.9823 -0.8990
 2700SOL     OW 8155   0.742   4.038   3.473 -0.4739  0.9931  0.0308
 2700SOL    HW1 8156   0.650   4.029   3.449 -0.5775  1.6607  0.1711
 2700SOL    HW2 8157   0.784   4.077   3.397 -0.2809  0.6046 -0.0691
 2701SOL     OW 8158   2.526   4.062   0.391 -0.2324 -0.0318  0.0932
 2701SOL    HW1 8159   2.492   4.151   0.396 -1.2904 -0.2920 -1.8190
 2701SOL    HW2 8160   2.621   4.073   0.391 -0.3388  1.0475  0.3485
 2702SOL     OW 8161   0.779   1.264   4.258  0.1882  0.1304  0.3887
 2702SOL    HW1 8162   0.871   1.286   4.273  0.4830 -0.6152 -0.2503
 2702SOL    HW2 8163   0.781   1.191   4.196 -0.7695 -1.0674  1.6911
 2703SOL     OW 8164   0.407   1.685   0.171 -0.1193  0.1053  0.2398
 2703SOL    HW1 8165   0.437   1.773   0.193  0.0467 -0.2263  1.3942
 2703SOL    HW2 8166   0.459   1.660   0.095  0.4408  0.6601  0.4343
 2704SOL     OW 8167   3.302   2.067   0.330 -0.3367 -0.0464 -0.5551
 2704SOL    HW1 8168   3.222   2.080   0.279 -0.1300  0.1493 -0.8267
 2704SOL    HW2 8169   3.302   1.973   0.350 -0.1243 -0.2365 -1.4031
 2705SOL     OW 8170   2.491   3.558   1.514 -0.2680 -0.3827  0.7700
 2705SOL    HW1 8171   2.403   3.591   1.496 -0.8780 -1.8505  0.8982
 2705SOL    HW2 8172   2.481   3.504   1.592  1.1647  1.0001  1.9739
 2706SOL     OW 8173   0.554   4.341   4.825  0.0668  0.1948 -0.0702
 2706SOL    HW1 8174   0.556   4.254   4.865  0.0664  0.7148  1.0987
 2706SOL    HW2 8175   0.646   4.365   4.815  0.0867  0.8487  1.4298
 2707SOL     OW 8176   0.716   1.006   0.140 -0.5486 -0.0747 -0.2013
 2707SOL    HW1 8177   0.727   1.032   0.231  0.3890  1.5245 -0.7302
 2707SOL    HW2 8178   0.688   0.915   0.144 -1.4968  0.2605  1.7007
 2708SOL     OW 8179   1.158   1.691   2.277 -0.5293 -0.1136 -0.3374
 2708SOL    HW1 8180   1.212   1.659   2.205  0.4160  1.2615 -0.2917
 2708SOL    HW2 8181   1.218   1.743   2.331 -1.3868 -0.4929  1.0351
 2709SOL     OW 8182   4.373   3.423   1.645  0.7104 -0.2867 -0.2438
 2709SOL    HW1 8183   4.294   3.465   1.677 -0.3916 -0.9132 -2.0191
 2709SOL    HW2 8184   4.401   3.477   1.571  1.8610 -0.1818  0.2334
 2710SOL     OW 8185   4.339   2.723   4.888 -0.4069 -0.5677 -0.0280
 2710SOL    HW1 8186   4.360   2.669   4.963  0.1202 -0.0142  0.2271
 2710SOL    HW2 8187   4.335   2.812   4.922 -1.4438 -0.4505 -0.4025
 2711SOL     OW 8188   3.298   4.191   1.694  0.6135  0.4907  0.5567
 2711SOL    HW1 8189   3.301   4.209   1.788 -2.7775 -1.0260  1.0991
 2711SOL    HW2 8190   3.270   4.273   1.654 -0.6549  0.4039  1.2350
 2712SOL     OW 8191   0.702   2.646   2.496 -0.0208 -0.2077  0.1884
 2712SOL    HW1 8192   0.689   2.732   2.536  0.4598 -0.6378  1.3150
 2712SOL    HW2 8193   0.636   2.642   2.427 -0.2533  0.9438  0.3141
 2713SOL     OW 8194   0.043   2.321   2.106  0.0599 -0.5068 -0.7232
 2713SOL    HW1 8195  -0.004   2.241   2.131 -0.5170 -0.0748 -0.3869
 2713SOL    HW2 8196   0.135   2.301   2.123 -0.0696 -1.1360 -0.7365
 2714SOL     OW 8197   3.594   1.588   1.383 -0.4061 -0.3912  0.0452
 2714SOL    HW1 8198   3.503   1.563   1.366 -0.8379  0.9867  0.2122
 2714SOL    HW2 8199   3.644   1.508   1.366 -1.5086 -0.8486 -1.2419
 2715SOL     OW 8200   2.241   4.540   3.931  0.4331  0.1974  0.3205
 2715SOL    HW1 8201   2.225   4.632   3.910  1.0816  0.0753 -0.7737
 2715SOL    HW2 8202   2.235   4.535   4.027 -0.9393  1.1111  0.3098
 2716SOL     OW 8203   2.150   1.658   4.706 -0.2288  0.2207 -0.2510
 2716SOL    HW1 8204   2.079   1.629   4.649 -0.1279  0.3949 -0.4684
 2716SOL    HW2 8205   2.110   1.669   4.792 -0.5924  0.8806 -0.4969
 2717SOL     OW 8206   1.048   0.907   0.143  0.0304 -0.2635  0.8808
 2717SOL    HW1 8207   0.998   0.922   0.062  0.9646 -0.3948  0.2619
 2717SOL    HW2 8208   0.983   0.879   0.206 -1.3185  2.9985  1.1689
 2718SOL     OW 8209   0.451   0.570   3.107 -0.0654  0.5439  0.7501
 2718SOL    HW1 8210   0.493   0.516   3.040 -0.1349 -0.2577  1.3533
 2718SOL    HW2 8211   0.374   0.520   3.133 -0.8443  1.5284  0.3925
 2719SOL     OW 8212   4.208   2.477   3.289 -0.6253 -0.4390  0.5412
 2719SOL    HW1 8213   4.210   2.570   3.267 -1.8936 -0.0566  1.8845
 2719SOL    HW2 8214   4.249   2.472   3.375 -1.9165 -0.8861  1.1574
 2720SOL     OW 8215   3.653   0.589   2.183 -0.1175 -0.3805  0.0636
 2720SOL    HW1 8216   3.687   0.620   2.266  0.5469 -0.1453 -0.2922
 2720SOL    HW2 8217   3.559   0.577   2.198 -0.0899  0.1668  0.6898
 2721SOL     OW 8218   1.093   2.372   2.770  0.3627 -0.2708 -0.0726
 2721SOL    HW1 8219   1.150   2.397   2.698  1.2229 -1.1128  0.2996
 2721SOL    HW2 8220   1.067   2.455   2.811 -1.9149  0.4112 -2.6328
 2722SOL     OW 8221   0.578   4.215   3.095  0.2116  0.3999  0.6623
 2722SOL    HW1 8222   0.639   4.157   3.140  0.1445  0.2840  0.6034
 2722SOL    HW2 8223   0.615   4.226   3.008 -0.0727 -0.0103  0.4884
 2723SOL     OW 8224   0.074   2.029   1.914  0.2852  0.1964  0.0875
 2723SOL    HW1 8225   0.097   2.122   1.904  0.8153  0.2939  1.7770
 2723SOL    HW2 8226   0.082   2.013   2.008  0.6836 -1.7012 -0.2277
 2724SOL     OW 8227   3.902   4.348   2.242 -0.3330 -0.5080  0.0431
 2724SOL    HW1 8228   3.909   4.269   2.189  3.8902 -1.6790  1.9071
 2724SOL    HW2 8229   3.970   4.406   2.206 -0.3612  0.4385  1.4537
 2725SOL     OW 8230   0.613   2.429   4.197  0.2375 -0.3381 -0.4571
 2725SOL    HW1 8231   0.559   2.502   4.225 -0.3169 -0.6253 -0.7619
 2725SOL    HW2 8232   0.692   2.436   4.251  1.5797  2.2441 -2.5410
 2726SOL     OW 8233   3.429   0.189   1.639 -0.6395  0.1773  0.8573
 2726SOL    HW1 8234   3.401   0.116   1.583 -0.1250  1.0190 -0.5595
 2726SOL    HW2 8235   3.395   0.167   1.726  0.8837 -2.5922  0.8807
 2727SOL     OW 8236   1.673   4.980   4.104 -0.4428 -0.0658 -0.3756
 2727SOL    HW1 8237   1.633   5.059   4.068 -2.2003 -0.5071  0.5461
 2727SOL    HW2 8238   1.746   5.012   4.158 -1.8894  1.0377  0.9981
 2728SOL     OW 8239   2.766   1.469   2.815  0.0574 -0.4486  0.3046
 2728SOL    HW1 8240   2.843   1.515   2.782 -1.5599 -0.2173 -3.7360
 2728SOL    HW2 8241   2.790   1.377   2.810 -0.0402 -0.4258 -1.6709
 2729SOL     OW 8242   4.869   3.392   3.620  0.2179 -0.4936 -0.0299
 2729SOL    HW1 8243   4.893   3.299   3.623  0.8367 -0.3240  0.2760
 2729SOL    HW2 8244   4.922   3.429   3.550  0.1700 -0.3100  0.0294
 2730SOL     OW 8245   4.906   4.570   2.747  0.1134  0.0723  0.3848
 2730SOL    HW1 8246   4.974   4.616   2.797  1.7833 -2.7696  1.0081
 2730SOL    HW2 8247   4.940   4.569   2.658 -0.4704  0.9616  0.1448
 2731SOL     OW 8248   2.631   1.285   3.035 -0.0756  0.5616  0.0659
 2731SOL    HW1 8249   2.621   1.380   3.032  0.1885  0.5567 -1.4445
 2731SOL    HW2 8250   2.682   1.270   3.115  1.2156  1.8193 -0.4737
 2732SOL     OW 8251   0.267   4.092   3.972 -0.2150 -0.1602 -0.7455
 2732SOL    HW1 8252   0.176   4.062   3.964 -0.4254  0.0838  0.5547
 2732SOL    HW2 8253   0.279   4.150   3.897 -0.8047 -0.9856 -1.5048
 2733SOL     OW 8254   4.681   4.021   4.369 -0.0839  0.0038 -0.3263
 2733SOL    HW1 8255   4.753   4.075   4.401  0.6744 -1.5349  0.7315
 2733SOL    HW2 8256   4.706   3.996   4.280  0.8147 -0.6730  0.1025
 2734SOL     OW 8257   1.047   4.773   0.185  0.1818 -0.2757 -0.5786
 2734SOL    HW1 8258   1.014   4.753   0.273 -0.6366 -0.3318 -0.8867
 2734SOL    HW2 8259   0.981   4.831   0.148 -0.3735 -1.6449 -1.7915
 2735SOL     OW 8260   3.179   2.676   1.758  0.2342  0.0478 -0.0353
 2735SOL    HW1 8261   3.200   2.713   1.843 -1.3743 -0.2109  0.5136
 2735SOL    HW2 8262   3.218   2.737   1.695  2.1295 -0.1860  0.8441
 2736SOL     OW 8263   0.820   4.544   0.619  0.9159 -0.1539  0.2141
 2736SOL    HW1 8264   0.731   4.510   0.628  1.6195 -1.5132  2.7961
 2736SOL    HW2 8265   0.829   4.607   0.690  2.0795 -0.1678  0.0960
 2737SOL     OW 8266   1.062   1.343   4.327  0.3864 -0.3524  0.7092
 2737SOL    HW1 8267   1.080   1.432   4.298 -0.5775 -0.3841 -0.0276
 2737SOL    HW2 8268   1.137   1.292   4.296  0.4758  0.0280  0.2868
 2738SOL     OW 8269   0.016   1.935   2.418 -0.3788  0.5587  0.2779
 2738SOL    HW1 8270   0.065   1.890   2.488  0.0810  1.8203  0.7961
 2738SOL    HW2 8271  -0.033   1.865   2.375  1.4002 -0.6861  0.1313
 2739SOL     OW 8272   1.776   4.281   0.041 -0.0291 -0.1104  0.2902
 2739SOL    HW1 8273   1.752   4.216  -0.024  1.5902 -1.4821  1.0042
 2739SOL    HW2 8274   1.755   4.365  -0.000 -0.2954 -0.9801 -1.4311
 2740SOL     OW 8275   0.794   4.832   2.499 -0.2741  0.0802 -0.1101
 2740SOL    HW1 8276   0.718   4.867   2.547  0.3605  0.2681  0.7895
 2740SOL    HW2 8277   0.853   4.801   2.568 -0.0629 -1.2003 -0.8359
 2741SOL     OW 8278   4.152   0.542   0.594  0.1566 -0.3623  0.3539
 2741SOL    HW1 8279   4.233   0.567   0.639 -1.2736  0.2137  2.7611
 2741SOL    HW2 8280   4.110   0.479   0.653 -1.5862  0.0390 -0.3903
 2742SOL     OW 8281   2.606   3.446   4.179  0.0149 -0.4358  0.3856
 2742SOL    HW1 8282   2.677   3.418   4.121 -2.5407 -0.7051 -2.9001
 2742SOL    HW2 8283   2.573   3.365   4.218  0.2627 -0.5432  0.3740
 2743SOL     OW 8284   4.368   4.096   0.527  0.2418  0.9490  0.7637
 2743SOL    HW1 8285   4.421   4.025   0.563 -0.5324  0.6665  1.3753
 2743SOL    HW2 8286   4.393   4.101   0.435  0.5472  0.1040  0.7955
 2744SOL     OW 8287   0.113   1.800   3.733  0.1575 -0.4312 -0.1642
 2744SOL    HW1 8288   0.128   1.744   3.657  2.1949 -0.3353  0.1035
 2744SOL    HW2 8289   0.155   1.753   3.806  2.1248  1.4699  0.0297
 2745SOL     OW 8290   4.195   4.253   0.029 -0.2711 -0.3110 -0.5099
 2745SOL    HW1 8291   4.141   4.245  -0.050 -0.1658 -0.2744 -0.5864
 2745SOL    HW2 8292   4.136   4.232   0.101 -0.2811 -0.6811 -0.6235
 2746SOL     OW 8293   4.075   0.049   1.987  0.2489  0.3444  0.3368
 2746SOL    HW1 8294   4.009   0.035   1.918 -0.8314  2.7429  0.7667
 2746SOL    HW2 8295   4.027   0.033   2.068  0.8341 -0.0259  0.6117
 2747SOL     OW 8296   0.626   4.610   0.956  0.2140  0.3985 -0.1576
 2747SOL    HW1 8297   0.562   4.611   1.027 -1.3347 -0.3872 -1.4774
 2747SOL    HW2 8298   0.674   4.528   0.969  0.0474  0.3353  0.0695
 2748SOL     OW 8299   4.465   2.322   3.135  0.2886 -0.5561 -0.5426
 2748SOL    HW1 8300   4.428   2.234   3.123 -0.5317 -0.3151  0.1366
 2748SOL    HW2 8301   4.416   2.377   3.073 -0.1040 -0.3408 -0.0435
 2749SOL     OW 8302   2.688   1.679   3.610  0.2605  0.4287  0.0749
 2749SOL    HW1 8303   2.595   1.697   3.599 -0.1236 -0.3752  1.7833
 2749SOL    HW2 8304   2.719   1.749   3.668  0.8845  1.0518 -0.9744
 2750SOL     OW 8305   2.790   0.876   1.149  0.2420 -0.1480 -0.0197
 2750SOL    HW1 8306   2.767   0.935   1.077 -0.8746  0.4932  0.8188
 2750SOL    HW2 8307   2.878   0.902   1.174  0.9329 -0.8600 -1.6029
 2751SOL     OW 8308   1.585   0.556   0.926  0.0929  0.3978  0.2674
 2751SOL    HW1 8309   1.579   0.488   0.993 -0.9371 -0.2237 -0.4241
 2751SOL    HW2 8310   1.678   0.557   0.901  0.2850 -0.1095  0.9334
 2752SOL     OW 8311   0.504   3.015   4.464  0.1312  0.2930  0.0840
 2752SOL    HW1 8312   0.448   3.060   4.401  2.0385  0.4661 -1.5780
 2752SOL    HW2 8313   0.509   3.075   4.538 -0.4457  1.0720 -0.4860
 2753SOL     OW 8314   0.551   3.324   2.352 -0.1387  0.2883  0.3702
 2753SOL    HW1 8315   0.595   3.406   2.374  0.4516  0.2561 -0.6131
 2753SOL    HW2 8316   0.569   3.266   2.426  1.2345  0.3784  0.1413
 2754SOL     OW 8317   2.654   0.934   0.462 -0.3140 -0.3084 -0.3613
 2754SOL    HW1 8318   2.594   0.992   0.510 -0.7802 -0.5587 -0.6309
 2754SOL    HW2 8319   2.699   0.993   0.401 -1.9865 -0.4308 -1.8191
 2755SOL     OW 8320   4.968   0.326   2.588  0.4800 -0.5135 -0.5963
 2755SOL    HW1 8321   5.006   0.394   2.644 -1.1681  0.8869 -1.0754
 2755SOL    HW2 8322   4.946   0.372   2.507 -0.5376 -1.6462 -0.9941
 2756SOL     OW 8323   4.901   1.797   1.277  0.2466 -0.5040 -0.1909
 2756SOL    HW1 8324   4.861   1.875   1.238  0.5462 -0.3620 -0.2242
 2756SOL    HW2 8325   4.831   1.733   1.283 -0.1583 -0.0223  0.3968
 2757SOL     OW 8326   2.918   3.863   2.534 -0.3584  0.0962  0.2911
 2757SOL    HW1 8327   2.912   3.772   2.563  1.2843 -0.0314  0.3257
 2757SOL    HW2 8328   2.980   3.860   2.461  1.4235  1.4806  1.6830
 2758SOL     OW 8329   1.735   1.543   3.748  0.0917 -0.0580 -0.4795
 2758SOL    HW1 8330   1.744   1.457   3.789  1.6448 -0.1786 -1.0313
 2758SOL    HW2 8331   1.760   1.529   3.657 -1.0637  0.6929 -0.9303
 2759SOL     OW 8332   0.012   3.247   1.790  0.2312  0.4730  0.2354
 2759SOL    HW1 8333   0.008   3.265   1.883  3.1594  0.6695  0.3975
 2759SOL    HW2 8334   0.079   3.179   1.780 -0.8646 -0.4348 -1.6356
 2760SOL     OW 8335   4.825   2.273   1.332 -0.2334  0.3636  0.1870
 2760SOL    HW1 8336   4.824   2.216   1.408 -0.5537  0.2554  0.1020
 2760SOL    HW2 8337   4.734   2.276   1.303 -0.3865  1.6002  0.7070
 2761SOL     OW 8338   1.605   4.096   1.260  0.0895  0.2198  0.5360
 2761SOL    HW1 8339   1.700   4.095   1.273  0.3024  1.6925 -0.6485
 2761SOL    HW2 8340   1.592   4.051   1.176 -0.3859 -0.9161  1.1939
 2762SOL     OW 8341   2.689   0.063   1.229  0.0795 -0.2665  0.0697
 2762SOL    HW1 8342   2.739   0.041   1.151  0.6846 -2.6241  1.0568
 2762SOL    HW2 8343   2.736   0.137   1.268  0.0239  0.6448 -1.5001
 2763SOL     OW 8344   3.590   0.645   0.207 -0.3612  0.9424 -0.0395
 2763SOL    HW1 8345   3.637   0.653   0.124  0.2242 -0.4185  0.1317
 2763SOL    HW2 8346   3.636   0.705   0.266  0.2788  0.6794 -0.2597
 2764SOL     OW 8347   3.768   0.649   3.786  0.0693  0.1825 -0.2070
 2764SOL    HW1 8348   3.809   0.705   3.852  0.9078  0.8200 -1.2384
 2764SOL    HW2 8349   3.833   0.642   3.716  0.0298 -2.1459 -0.1076
 2765SOL     OW 8350   4.062   2.306   0.011  0.3682 -0.8397 -0.8442
 2765SOL    HW1 8351   4.009   2.361   0.069  1.8741  0.7793 -0.9224
 2765SOL    HW2 8352   4.063   2.220   0.054 -1.4673 -0.6466 -0.3472
 2766SOL     OW 8353   0.708   1.505   4.156 -0.0477  0.4321  0.1601
 2766SOL    HW1 8354   0.629   1.525   4.206 -0.1852  0.0123  0.1206
 2766SOL    HW2 8355   0.741   1.425   4.196 -0.4001 -0.1579 -0.6873
 2767SOL     OW 8356   0.494   3.960   0.226  0.1604 -0.2355  0.5514
 2767SOL    HW1 8357   0.441   3.895   0.180 -0.6071 -1.4481  2.9669
 2767SOL    HW2 8358   0.571   3.911   0.256 -0.1021  0.0939  1.8294
 2768SOL     OW 8359   0.841   1.065   4.064  0.1533  0.3598 -0.3868
 2768SOL    HW1 8360   0.802   1.077   3.977 -0.3713  1.3600 -0.0286
 2768SOL    HW2 8361   0.918   1.011   4.048 -0.8996 -0.9736 -1.2306
 2769SOL     OW 8362   4.562   2.981   3.551  0.1185  0.0576  0.9763
 2769SOL    HW1 8363   4.471   3.013   3.546 -0.3393 -1.2384  0.7189
 2769SOL    HW2 8364   4.611   3.057   3.582 -0.5708  1.6875 -1.5467
 2770SOL     OW 8365   0.938   4.747   0.460  0.4485  0.5470 -0.0201
 2770SOL    HW1 8366   0.883   4.683   0.505 -1.3496  1.3850 -0.8914
 2770SOL    HW2 8367   0.992   4.786   0.528 -0.8789  0.4852  1.1037
 2771SOL     OW 8368   0.370   0.221   1.986 -0.2838  0.3432  0.2867
 2771SOL    HW1 8369   0.409   0.172   1.913  2.1904  0.7673  1.2519
 2771SOL    HW2 8370   0.344   0.304   1.947 -1.7292 -0.5162 -0.7020
 2772SOL     OW 8371   2.575   3.563   4.811 -0.6124 -0.2322 -0.9011
 2772SOL    HW1 8372   2.531   3.649   4.808 -1.1625 -0.5182 -1.1542
 2772SOL    HW2 8373   2.562   3.532   4.900 -1.2551 -0.4825 -1.0783
 2773SOL     OW 8374   3.160   1.720   4.321  0.0690  0.2421  0.2317
 2773SOL    HW1 8375   3.119   1.733   4.406  1.8556  0.7134  1.0757
 2773SOL    HW2 8376   3.239   1.774   4.324 -0.3906  1.1620 -2.1689
 2774SOL     OW 8377   0.096   1.982   0.851  0.0791  0.2578  0.1528
 2774SOL    HW1 8378   0.139   2.057   0.811 -0.7840  0.3160 -0.6935
 2774SOL    HW2 8379   0.015   2.016   0.887 -0.5782 -0.3464 -0.7076
 2775SOL     OW 8380   0.704   0.188   1.186  0.5041  0.2866  0.4475
 2775SOL    HW1 8381   0.719   0.235   1.268 -0.1789  1.1075  0.1085
 2775SOL    HW2 8382   0.745   0.102   1.201  0.3763  0.4116  1.6492
 2776SOL     OW 8383   2.541   0.460   4.889  0.1113 -0.5315 -0.0557
 2776SOL    HW1 8384   2.503   0.413   4.814 -0.6761  0.3179 -0.2169
 2776SOL    HW2 8385   2.476   0.526   4.910  0.7234 -0.2012  0.8418
 2777SOL     OW 8386   1.818   1.279   3.849  0.4296 -0.2742 -0.2980
 2777SOL    HW1 8387   1.858   1.299   3.934  1.6982 -1.2197 -0.6495
 2777SOL    HW2 8388   1.754   1.210   3.869  1.5087 -1.2906 -0.2490
 2778SOL     OW 8389   1.335   4.649   4.887  0.2469 -0.3594  0.0080
 2778SOL    HW1 8390   1.331   4.625   4.794  1.8144 -0.8656  0.0518
 2778SOL    HW2 8391   1.318   4.567   4.933 -1.7649  0.1221  0.2117
 2779SOL     OW 8392   4.630   0.539   2.383  0.4785  0.4006 -0.1619
 2779SOL    HW1 8393   4.682   0.482   2.326 -0.7913 -2.2977  1.1761
 2779SOL    HW2 8394   4.580   0.594   2.324 -2.1290 -3.4663 -1.9313
 2780SOL     OW 8395   1.696   4.830   1.091  0.1828  0.0735 -0.1136
 2780SOL    HW1 8396   1.775   4.825   1.145  0.0009 -0.8687  0.0853
 2780SOL    HW2 8397   1.704   4.757   1.030  0.3042  1.0221 -1.2791
 2781SOL     OW 8398   3.629   1.691   3.193 -0.3016  0.6050 -0.2405
 2781SOL    HW1 8399   3.642   1.654   3.105  1.0110 -1.8979  0.8993
 2781SOL    HW2 8400   3.536   1.678   3.210 -0.2234 -0.6132 -0.5963
 2782SOL     OW 8401   3.507   0.819   4.163 -0.1841 -0.0884  0.0721
 2782SOL    HW1 8402   3.427   0.770   4.184 -0.7699  0.3892 -0.9882
 2782SOL    HW2 8403   3.487   0.910   4.185  0.2709 -0.0419  0.3220
 2783SOL     OW 8404   1.370   0.165   0.294 -0.1037 -0.9536 -0.6150
 2783SOL    HW1 8405   1.314   0.097   0.331  0.1180 -1.2332 -0.7913
 2783SOL    HW2 8406   1.350   0.244   0.346 -3.0415 -0.1686 -2.6994
 2784SOL     OW 8407   3.343   1.604   3.158 -0.1900  0.0504  0.5816
 2784SOL    HW1 8408   3.310   1.674   3.102  0.6163 -0.0840 -0.0775
 2784SOL    HW2 8409   3.274   1.538   3.157 -1.5407  1.3203  2.2277
 2785SOL     OW 8410   3.486   1.260   0.057 -0.3303 -0.1296  0.2844
 2785SOL    HW1 8411   3.508   1.190   0.118  1.9910 -0.7006 -1.0873
 2785SOL    HW2 8412   3.501   1.222  -0.030 -1.9425  1.1630 -0.6313
 2786SOL     OW 8413   0.387   3.925   4.262 -0.0772 -0.1569 -0.6045
 2786SOL    HW1 8414   0.463   3.977   4.287 -1.1330  1.1199  0.0446
 2786SOL    HW2 8415   0.424   3.849   4.216  1.6138  0.0444  0.3540
 2787SOL     OW 8416   3.401   4.152   4.902 -0.0657  0.3485  0.2432
 2787SOL    HW1 8417   3.468   4.214   4.872 -0.3691  1.2916  1.4395
 2787SOL    HW2 8418   3.400   4.161   4.997 -0.3868 -1.2517  0.4210
 2788SOL     OW 8419   4.375   0.147   2.415 -0.0796  0.1063 -0.5276
 2788SOL    HW1 8420   4.359   0.080   2.482  1.2263 -1.8443 -2.0709
 2788SOL    HW2 8421   4.310   0.215   2.435 -0.9544 -1.2129  1.5927
 2789SOL     OW 8422   4.892   2.272   1.682 -0.1736  0.0431  0.3109
 2789SOL    HW1 8423   4.829   2.258   1.753 -0.2434 -0.2017  0.2003
 2789SOL    HW2 8424   4.977   2.263   1.724 -0.1676  1.8599  0.7869
 2790SOL     OW 8425   2.108   1.116   4.876 -0.2129  0.2267  0.0902
 2790SOL    HW1 8426   2.023   1.103   4.832 -0.3390  0.9884  0.0964
 2790SOL    HW2 8427   2.172   1.079   4.815 -0.6711 -1.9467  0.8456
 2791SOL     OW 8428   3.510   0.471   4.699 -0.1119  0.2277 -0.0485
 2791SOL    HW1 8429   3.440   0.487   4.762 -1.4129 -0.1486 -1.3474
 2791SOL    HW2 8430   3.562   0.551   4.701 -1.2475  0.9899  0.1105
 2792SOL     OW 8431   4.851   2.711   1.638  0.6758  0.2443  0.0074
 2792SOL    HW1 8432   4.850   2.785   1.576 -0.6533  0.8026  0.6382
 2792SOL    HW2 8433   4.926   2.727   1.694  1.5073  0.0914 -1.0377
 2793SOL     OW 8434   0.661   2.824   2.124  0.1458  0.6077 -0.2033
 2793SOL    HW1 8435   0.697   2.856   2.042  1.2053  1.3528  0.5276
 2793SOL    HW2 8436   0.725   2.760   2.156 -0.8369 -0.5871 -0.5148
 2794SOL     OW 8437   0.998   0.364   2.694 -0.0144  0.6434  0.1685
 2794SOL    HW1 8438   1.033   0.294   2.639  0.1553  2.1924 -1.8174
 2794SOL    HW2 8439   1.061   0.372   2.765 -0.2990 -1.5100  0.7301
 2795SOL     OW 8440   1.009   3.073   3.519  0.5486  0.0321  0.3255
 2795SOL    HW1 8441   0.988   3.009   3.451  0.9358 -0.3825  0.5879
 2795SOL    HW2 8442   1.081   3.125   3.482  0.4235  0.1307  0.2218
 2796SOL     OW 8443   0.428   2.177   1.038 -0.9125 -0.0535 -0.4604
 2796SOL    HW1 8444   0.439   2.097   1.089  0.6911  0.4457  0.0484
 2796SOL    HW2 8445   0.514   2.192   0.999 -1.1175  1.5146 -0.3822
 2797SOL     OW 8446   4.551   1.717   0.540 -0.4239  0.3000  0.0718
 2797SOL    HW1 8447   4.516   1.712   0.629  2.2620  0.9622  1.2972
 2797SOL    HW2 8448   4.497   1.783   0.496 -2.1148 -0.3953  1.0201
 2798SOL     OW 8449   3.030   0.117   2.382  0.2347  0.0091 -0.4954
 2798SOL    HW1 8450   3.013   0.062   2.305 -0.0654 -0.2382 -0.2562
 2798SOL    HW2 8451   3.114   0.087   2.416  1.2999  1.3483 -1.7855
 2799SOL     OW 8452   4.816   2.512   0.735  0.0391  0.0599 -0.4624
 2799SOL    HW1 8453   4.803   2.418   0.747 -3.1570  0.4899  0.1828
 2799SOL    HW2 8454   4.873   2.538   0.808 -2.3055 -0.8201  1.8489
 2800SOL     OW 8455   1.337   2.342   0.827  0.2257 -0.1535  0.1752
 2800SOL    HW1 8456   1.373   2.272   0.773  2.0974  0.8000  0.1115
 2800SOL    HW2 8457   1.295   2.296   0.900 -1.8010 -1.4407 -1.6443
 2801SOL     OW 8458   0.630   2.818   2.815  0.1580  0.8803 -0.3499
 2801SOL    HW1 8459   0.558   2.756   2.802  0.2763  0.9593 -1.5632
 2801SOL    HW2 8460   0.590   2.904   2.804  0.1810  0.9833  0.3492
 2802SOL     OW 8461   0.861   3.240   1.438  0.3013  0.2895  0.5410
 2802SOL    HW1 8462   0.888   3.153   1.469 -0.4136  0.5465  1.9329
 2802SOL    HW2 8463   0.791   3.221   1.374  1.0048 -0.1890 -0.1127
 2803SOL     OW 8464   4.769   1.094   1.428  0.3010  0.0151  0.4467
 2803SOL    HW1 8465   4.807   1.009   1.405 -0.7795 -0.1858 -0.7264
 2803SOL    HW2 8466   4.790   1.150   1.354 -1.0264  0.0961  0.1106
 2804SOL     OW 8467   2.455   2.733   0.461  0.3029 -0.5508  0.6167
 2804SOL    HW1 8468   2.441   2.817   0.416 -0.4487 -1.5494 -1.1203
 2804SOL    HW2 8469   2.533   2.697   0.420 -0.6989 -1.7227 -0.3451
 2805SOL     OW 8470   3.078   3.192   4.767  0.0374  0.1210  0.3108
 2805SOL    HW1 8471   3.163   3.147   4.771 -0.7113 -1.4455 -0.4010
 2805SOL    HW2 8472   3.055   3.207   4.858 -0.2144 -2.0907  0.6829
 2806SOL     OW 8473   2.136   0.677   0.710  0.3232 -0.4220  0.0617
 2806SOL    HW1 8474   2.054   0.665   0.758 -0.2156  0.3650 -0.6391
 2806SOL    HW2 8475   2.156   0.590   0.676  0.1814 -0.7799  0.8605
 2807SOL     OW 8476   4.202   3.656   1.578  0.1578  0.4090  0.4851
 2807SOL    HW1 8477   4.201   3.572   1.533  1.2502  0.8532 -0.3854
 2807SOL    HW2 8478   4.110   3.683   1.580 -0.1964 -0.7722  0.7405
 2808SOL     OW 8479   3.384   2.263   2.443  0.6163  0.1405  0.5046
 2808SOL    HW1 8480   3.362   2.355   2.435  0.9980  0.3657  1.8036
 2808SOL    HW2 8481   3.350   2.223   2.363 -0.1199  1.2871  0.2202
 2809SOL     OW 8482   1.685   3.596   0.544  0.5950 -0.0778 -0.3346
 2809SOL    HW1 8483   1.693   3.678   0.494 -2.1474  0.9710  0.7404
 2809SOL    HW2 8484   1.653   3.532   0.480  0.5440  0.3014 -0.6952
 2810SOL     OW 8485   0.020   3.294   3.956  0.3205  0.7473 -0.0128
 2810SOL    HW1 8486  -0.043   3.230   3.991 -0.0887  1.2460  0.1650
 2810SOL    HW2 8487   0.061   3.248   3.883 -2.9108  1.6523 -2.6552
 2811SOL     OW 8488   2.694   0.061   2.283 -0.3885  0.1862  0.4959
 2811SOL    HW1 8489   2.651   0.099   2.360  0.0447 -1.5016  1.6258
 2811SOL    HW2 8490   2.663  -0.030   2.282  1.3000 -0.4046 -0.0591
 2812SOL     OW 8491   0.249   1.047   4.652  0.4749  0.4722 -0.3756
 2812SOL    HW1 8492   0.274   1.129   4.695  0.0841  0.1772  0.4369
 2812SOL    HW2 8493   0.153   1.049   4.651  0.4710  0.1831 -0.6630
 2813SOL     OW 8494   3.786   3.288   0.167 -0.2627 -0.3210 -0.0398
 2813SOL    HW1 8495   3.825   3.260   0.084  0.8364 -0.0675  0.3666
 2813SOL    HW2 8496   3.697   3.253   0.165 -0.1220 -0.6587 -1.1482
 2814SOL     OW 8497   0.874   0.819   0.344  0.0056 -1.0123  0.2584
 2814SOL    HW1 8498   0.779   0.824   0.331 -0.1127 -0.1474  1.2685
 2814SOL    HW2 8499   0.885   0.821   0.439  1.0656 -0.2391  0.1359
 2815SOL     OW 8500   3.324   2.524   2.350 -0.1428 -0.2457 -0.2111
 2815SOL    HW1 8501   3.254   2.489   2.295  2.0308 -1.1064 -2.6568
 2815SOL    HW2 8502   3.316   2.619   2.342 -1.3109 -0.3324 -0.0885
 2816SOL     OW 8503   3.814   2.593   0.774 -0.5425 -0.2209 -0.0757
 2816SOL    HW1 8504   3.816   2.652   0.850 -2.7976 -0.4483  0.2422
 2816SOL    HW2 8505   3.848   2.510   0.807 -1.1350 -0.2045  0.6127
 2817SOL     OW 8506   3.849   0.803   4.503  0.0472 -0.1067  0.3579
 2817SOL    HW1 8507   3.838   0.769   4.415 -1.6953  0.0525  0.4790
 2817SOL    HW2 8508   3.873   0.895   4.491 -2.0268  0.4230  0.0195
 2818SOL     OW 8509   2.143   2.085   1.397 -0.1184  0.4643  0.4886
 2818SOL    HW1 8510   2.122   2.000   1.435 -2.0807  0.0408 -1.3519
 2818SOL    HW2 8511   2.146   2.068   1.302 -2.5520  2.7454 -0.1135
 2819SOL     OW 8512   0.125   3.322   4.214 -0.4707  0.1856 -0.2980
 2819SOL    HW1 8513   0.157   3.409   4.238  0.1222  0.2598 -1.2964
 2819SOL    HW2 8514   0.115   3.325   4.119 -0.6414 -0.7764 -0.3259
 2820SOL     OW 8515   1.175   1.811   3.451 -0.7033 -0.4408 -1.0877
 2820SOL    HW1 8516   1.142   1.873   3.516  1.2959 -0.4773  0.0352
 2820SOL    HW2 8517   1.159   1.725   3.490  1.6312 -0.4407  0.0408
 2821SOL     OW 8518   1.729   1.542   4.970  0.3718 -0.4806  0.3580
 2821SOL    HW1 8519   1.712   1.503   5.055 -1.3836  0.9344  0.7021
 2821SOL    HW2 8520   1.710   1.472   4.907  0.8854 -1.2752  1.0569
 2822SOL     OW 8521   2.509   3.425   1.734  0.0115 -0.2020  0.6886
 2822SOL    HW1 8522   2.585   3.370   1.752  0.5000  0.1330 -0.2558
 2822SOL    HW2 8523   2.434   3.371   1.756  0.5143 -0.7459  1.0889
 2823SOL     OW 8524   1.671   0.498   4.683 -0.2149 -0.8267  0.0250
 2823SOL    HW1 8525   1.639   0.530   4.767 -0.6303 -1.3198  0.0618
 2823SOL    HW2 8526   1.713   0.573   4.643  1.2185 -0.9291  1.2643
 2824SOL     OW 8527   3.742   1.639   4.088 -0.6488 -0.1921  0.6183
 2824SOL    HW1 8528   3.757   1.609   3.999  1.2072  0.6423  0.6039
 2824SOL    HW2 8529   3.704   1.726   4.078  0.9444  0.5380  0.5825
 2825SOL     OW 8530   2.601   4.375   1.102 -0.0915  0.2002 -0.2093
 2825SOL    HW1 8531   2.602   4.406   1.193  0.0255  0.8851 -0.4337
 2825SOL    HW2 8532   2.517   4.331   1.092  0.3616 -0.8984  0.5530
 2826SOL     OW 8533   4.027   4.809   0.976 -0.5839 -0.9238  0.0354
 2826SOL    HW1 8534   4.041   4.715   0.986 -0.9433 -1.0508 -0.5809
 2826SOL    HW2 8535   4.005   4.820   0.884  2.9503  0.1889 -0.8533
 2827SOL     OW 8536   0.944   3.939   1.447  0.1195  0.2158  0.5106
 2827SOL    HW1 8537   0.870   3.898   1.491  1.0260 -1.0288  0.9445
 2827SOL    HW2 8538   0.968   3.877   1.378  1.7447 -0.2027  1.3998
 2828SOL     OW 8539   2.293   3.886   0.395 -0.7453 -0.0601 -0.6690
 2828SOL    HW1 8540   2.251   3.876   0.481 -0.0523 -1.3814 -0.4543
 2828SOL    HW2 8541   2.387   3.888   0.414 -0.5145 -1.5904 -1.4450
 2829SOL     OW 8542   2.847   3.825   1.706  0.6489  0.2223 -0.0817
 2829SOL    HW1 8543   2.907   3.900   1.698  1.9574 -1.0104 -3.0258
 2829SOL    HW2 8544   2.900   3.757   1.748  0.9864 -0.4618 -1.5489
 2830SOL     OW 8545   1.322   1.034   3.912 -0.6507 -0.0003 -0.4475
 2830SOL    HW1 8546   1.258   1.081   3.858 -0.9675 -1.1242 -1.1046
 2830SOL    HW2 8547   1.268   0.981   3.971 -0.3541 -0.7948 -0.8622
 2831SOL     OW 8548   1.156   2.155   3.075  0.5359 -0.1552  0.0232
 2831SOL    HW1 8549   1.128   2.067   3.099  1.7280 -0.1718  1.4518
 2831SOL    HW2 8550   1.195   2.190   3.154  2.3359  0.7502 -1.2110
 2832SOL     OW 8551   4.727   1.280   4.850  0.5141 -0.6253 -0.8674
 2832SOL    HW1 8552   4.633   1.266   4.843  0.2020  0.1568  1.1522
 2832SOL    HW2 8553   4.747   1.265   4.942  2.3995 -0.8700 -1.2689
 2833SOL     OW 8554   4.159   2.073   1.557 -0.4572 -0.0944  0.4632
 2833SOL    HW1 8555   4.198   2.161   1.555  2.4209 -1.2459 -2.6654
 2833SOL    HW2 8556   4.086   2.078   1.496  0.6072 -0.1593 -0.8594
 2834SOL     OW 8557   3.278   2.678   1.434 -0.1476 -0.6158  0.0124
 2834SOL    HW1 8558   3.367   2.645   1.445  0.3419 -0.0243 -1.8242
 2834SOL    HW2 8559   3.274   2.756   1.489  0.2752 -0.9444  0.5212
 2835SOL     OW 8560   1.510   0.019   2.935 -0.0678 -0.1072  0.1431
 2835SOL    HW1 8561   1.420  -0.001   2.960 -0.8710  1.1642 -1.5042
 2835SOL    HW2 8562   1.532   0.096   2.987  0.1010 -0.4464  0.5811
 2836SOL     OW 8563   2.460   4.612   0.298  0.1241  0.0993  0.6600
 2836SOL    HW1 8564   2.443   4.647   0.386 -1.4632 -2.9098  1.7069
 2836SOL    HW2 8565   2.384   4.639   0.246  0.3971  0.7428  0.5928
 2837SOL     OW 8566   3.081   1.308   2.806  0.4573 -0.6744  0.3409
 2837SOL    HW1 8567   3.068   1.397   2.840  1.5400 -0.5733  0.5227
 2837SOL    HW2 8568   2.999   1.263   2.827 -1.7442  1.2701 -3.1620
 2838SOL     OW 8569   2.697   3.086   4.539  0.2287 -0.8353  0.5175
 2838SOL    HW1 8570   2.785   3.064   4.571  1.2051  0.6056 -1.0331
 2838SOL    HW2 8571   2.692   3.046   4.453  0.2342  0.8789 -0.3262
 2839SOL     OW 8572   1.943   4.854   1.199  0.5555  0.2484  0.8972
 2839SOL    HW1 8573   1.940   4.917   1.270  0.6684 -0.0978  1.2124
 2839SOL    HW2 8574   1.997   4.782   1.233  0.4397 -0.0112  0.5384
 2840SOL     OW 8575   0.389   1.080   2.205  0.6603 -0.2643  0.2812
 2840SOL    HW1 8576   0.451   1.042   2.142  0.1217  0.1936 -0.5546
 2840SOL    HW2 8577   0.321   1.119   2.150 -0.0063 -0.1464  1.1685
 2841SOL     OW 8578   2.986   0.146   2.799 -0.8683  0.0589 -0.1353
 2841SOL    HW1 8579   3.081   0.157   2.797 -0.8640  0.0438 -0.0430
 2841SOL    HW2 8580   2.959   0.153   2.708 -0.7461 -0.2411 -0.1951
 2842SOL     OW 8581   3.112   2.381   2.264  0.3070 -0.2075 -0.0999
 2842SOL    HW1 8582   3.174   2.311   2.241 -0.3324 -0.4002 -1.3343
 2842SOL    HW2 8583   3.042   2.337   2.311 -0.7133 -0.6723 -1.9409
 2843SOL     OW 8584   3.694   2.558   4.617  0.4132 -0.9942 -0.2154
 2843SOL    HW1 8585   3.750   2.587   4.545 -1.7787  2.9435 -0.6024
 2843SOL    HW2 8586   3.730   2.602   4.694 -0.4003 -0.7798  0.0560
 2844SOL     OW 8587   0.956   0.145   4.432 -0.2656 -0.0912  0.4019
 2844SOL    HW1 8588   0.902   0.192   4.368  0.7145  0.6968  0.1233
 2844SOL    HW2 8589   1.043   0.185   4.424  0.0553 -0.4743  1.7138
 2845SOL     OW 8590   2.813   0.988   3.209  0.2652  1.0265  0.1618
 2845SOL    HW1 8591   2.865   0.920   3.252 -0.0515  0.6642 -0.0257
 2845SOL    HW2 8592   2.725   0.951   3.203  0.2159  1.2404 -0.4342
 2846SOL     OW 8593   3.553   1.205   4.005 -0.5506 -0.1071 -0.2745
 2846SOL    HW1 8594   3.633   1.217   4.056 -1.4276 -1.0518  1.3872
 2846SOL    HW2 8595   3.486   1.182   4.069 -1.9065 -0.5028 -1.7587
 2847SOL     OW 8596   3.270   1.844   3.023 -0.3847  0.2947 -0.0520
 2847SOL    HW1 8597   3.178   1.871   3.017 -0.0690  1.4801  0.0195
 2847SOL    HW2 8598   3.300   1.841   2.932 -0.6635 -0.7382 -0.1121
 2848SOL     OW 8599   2.632   4.138   0.088 -0.1338 -0.0289  0.3745
 2848SOL    HW1 8600   2.605   4.198   0.018  1.4183 -0.9144 -1.0810
 2848SOL    HW2 8601   2.567   4.068   0.086 -0.0886 -0.0610 -0.2339
 2849SOL     OW 8602   2.262   0.265   2.576  0.3838  0.0863 -0.7347
 2849SOL    HW1 8603   2.308   0.259   2.660  0.5255  2.0243 -0.6236
 2849SOL    HW2 8604   2.321   0.316   2.521 -0.9238  1.2510 -1.0956
 2850SOL     OW 8605   1.125   2.878   3.231  0.1151  0.0148  0.0776
 2850SOL    HW1 8606   1.168   2.963   3.248  0.4227 -0.3936  1.4863
 2850SOL    HW2 8607   1.154   2.854   3.143  3.5600 -0.6137  1.2213
 2851SOL     OW 8608   1.613   4.508   0.658 -0.0572 -0.1685  0.1575
 2851SOL    HW1 8609   1.545   4.496   0.591 -1.0618 -1.6721  1.3705
 2851SOL    HW2 8610   1.671   4.574   0.621 -1.4170  0.1729 -1.5311
 2852SOL     OW 8611   0.583   0.860   3.837 -0.1757 -0.5008 -0.4602
 2852SOL    HW1 8612   0.551   0.941   3.878 -0.7413 -0.6526 -0.5897
 2852SOL    HW2 8613   0.511   0.832   3.781  0.3902 -0.5776 -1.1653
 2853SOL     OW 8614   0.535   4.629   4.221  0.0600 -0.0608  0.0977
 2853SOL    HW1 8615   0.517   4.593   4.308 -1.3428 -0.0216 -0.1503
 2853SOL    HW2 8616   0.494   4.715   4.222  0.4985  0.1578 -0.4350
 2854SOL     OW 8617   3.561   2.614   1.393 -0.3350  0.1748 -0.3446
 2854SOL    HW1 8618   3.569   2.659   1.309  0.4061 -1.4215 -1.1898
 2854SOL    HW2 8619   3.572   2.521   1.371 -1.1331 -0.3741  1.3912
 2855SOL     OW 8620   3.846   2.869   0.108  0.2750 -0.0426 -0.2133
 2855SOL    HW1 8621   3.882   2.884   0.195  2.3188 -1.4532 -0.7416
 2855SOL    HW2 8622   3.923   2.854   0.053 -0.9991  0.1807 -2.1417
 2856SOL     OW 8623   4.351   0.828   3.308 -0.0510 -0.3244  0.4513
 2856SOL    HW1 8624   4.426   0.886   3.301  0.6946 -1.2669  0.4120
 2856SOL    HW2 8625   4.290   0.873   3.367 -0.3605  1.3776 -1.0673
 2857SOL     OW 8626   3.565   0.229   4.938 -1.0048  0.1841  0.3723
 2857SOL    HW1 8627   3.485   0.208   4.890 -0.8434  1.7356 -0.6672
 2857SOL    HW2 8628   3.539   0.298   4.999 -0.8984 -0.8106  1.5875
 2858SOL     OW 8629   0.664   4.288   2.838 -0.1517  0.0805 -0.1215
 2858SOL    HW1 8630   0.658   4.383   2.829  0.6914  0.1825  0.2644
 2858SOL    HW2 8631   0.675   4.257   2.748  2.2158  0.5950 -0.0893
 2859SOL     OW 8632   1.094   3.073   2.947  0.5119 -0.5324  0.0201
 2859SOL    HW1 8633   1.179   3.063   2.904  0.1273 -2.6345 -0.3900
 2859SOL    HW2 8634   1.114   3.072   3.040  0.9127 -1.9816 -0.0469
 2860SOL     OW 8635   3.809   1.860   3.004 -0.2653  0.7602  0.1790
 2860SOL    HW1 8636   3.842   1.931   3.059  1.8953 -0.8627  1.1546
 2860SOL    HW2 8637   3.736   1.823   3.053  2.0048 -1.0457  2.4342
 2861SOL     OW 8638   1.896   0.123   2.674 -0.0274 -0.6932  0.5755
 2861SOL    HW1 8639   1.808   0.160   2.674  0.8741  1.5907  1.2345
 2861SOL    HW2 8640   1.889   0.046   2.730 -1.5773 -0.5343  0.6570
 2862SOL     OW 8641   4.280   3.367   2.030 -0.1869 -0.0223 -0.2818
 2862SOL    HW1 8642   4.353   3.328   1.982  0.0429  2.0854 -1.7554
 2862SOL    HW2 8643   4.311   3.453   2.056 -2.2344  1.0994 -1.2960
 2863SOL     OW 8644   0.472   4.364   1.734 -0.1112  0.8411 -0.0028
 2863SOL    HW1 8645   0.410   4.435   1.727  0.1578  1.0511 -0.2706
 2863SOL    HW2 8646   0.506   4.352   1.646 -1.0735 -0.4608 -0.2287
 2864SOL     OW 8647   0.596   0.659   3.310 -0.1092 -0.2974  0.1712
 2864SOL    HW1 8648   0.666   0.596   3.300 -0.3253 -0.3432 -1.2878
 2864SOL    HW2 8649   0.530   0.633   3.246 -0.4107  1.1063 -0.1406
 2865SOL     OW 8650   0.454   1.858   1.479  0.4927 -0.1766  0.3440
 2865SOL    HW1 8651   0.449   1.921   1.407  0.5003 -0.5821 -0.0160
 2865SOL    HW2 8652   0.522   1.894   1.536  1.5266 -0.5806 -0.5834
 2866SOL     OW 8653   1.687   1.245   0.524  0.7628 -0.3278  0.0449
 2866SOL    HW1 8654   1.770   1.200   0.543  0.9996 -0.9102 -2.1288
 2866SOL    HW2 8655   1.637   1.181   0.473  0.4676  1.2802 -1.7751
 2867SOL     OW 8656   0.938   0.087   2.602  0.2755  0.0198 -0.0622
 2867SOL    HW1 8657   0.862   0.131   2.563  0.7546 -0.4776 -1.6420
 2867SOL    HW2 8658   0.969   0.028   2.533  1.0794 -1.0403  1.1614
 2868SOL     OW 8659   3.482   4.212   1.404  0.1758 -0.2179  0.4213
 2868SOL    HW1 8660   3.395   4.233   1.369  0.1429 -0.4377  0.3677
 2868SOL    HW2 8661   3.464   4.151   1.476  0.2771 -0.1776  0.4798
 2869SOL     OW 8662   1.670   3.564   2.700 -0.4721  0.3290  0.1052
 2869SOL    HW1 8663   1.588   3.523   2.670 -0.9115  1.2916 -0.0382
 2869SOL    HW2 8664   1.732   3.492   2.704 -0.8327 -0.1082 -1.5561
 2870SOL     OW 8665   2.983   4.161   2.709  0.3504 -0.0397 -0.0334
 2870SOL    HW1 8666   3.025   4.080   2.682 -0.2415 -0.1172 -0.7790
 2870SOL    HW2 8667   2.892   4.151   2.681  0.2511  0.8412 -0.0578
 2871SOL     OW 8668   2.827   1.576   1.079  0.2343  0.3651 -0.2595
 2871SOL    HW1 8669   2.844   1.514   1.150 -1.8851 -1.2726 -1.0730
 2871SOL    HW2 8670   2.843   1.525   0.999  2.0814  2.0238 -1.0419
 2872SOL     OW 8671   1.857   1.097   2.525 -0.4234  0.0657  1.1249
 2872SOL    HW1 8672   1.947   1.129   2.521 -0.4639  0.3952  2.4004
 2872SOL    HW2 8673   1.811   1.149   2.458 -0.1078  1.4330  1.9295
 2873SOL     OW 8674   2.781   0.768   4.277 -0.4871  0.2097 -0.4787
 2873SOL    HW1 8675   2.802   0.790   4.186  0.6542  0.6752 -0.1188
 2873SOL    HW2 8676   2.705   0.821   4.298 -0.9331 -0.1119 -1.2477
 2874SOL     OW 8677   0.142   1.764   0.193 -0.0333  0.0021  0.0393
 2874SOL    HW1 8678   0.167   1.824   0.122  1.3928  1.3010  1.5632
 2874SOL    HW2 8679   0.217   1.706   0.202 -1.0488 -1.5127 -0.8275
 2875SOL     OW 8680   0.812   1.098   0.772  0.4594  0.0331  0.7062
 2875SOL    HW1 8681   0.812   1.131   0.862 -0.6345  1.4533  0.2237
 2875SOL    HW2 8682   0.893   1.131   0.734 -0.0003  1.0982  0.6180
 2876SOL     OW 8683   0.350   3.834   0.033 -0.7124  0.0973 -0.5586
 2876SOL    HW1 8684   0.320   3.743   0.034  1.1221 -0.5457  0.2890
 2876SOL    HW2 8685   0.358   3.855  -0.060  1.1731 -1.4714 -0.8170
 2877SOL     OW 8686   2.313   1.411   2.236 -0.1908 -0.5050  0.5959
 2877SOL    HW1 8687   2.396   1.363   2.233  1.5978  2.3750 -0.0078
 2877SOL    HW2 8688   2.313   1.453   2.322 -1.2771 -0.8894  0.7863
 2878SOL     OW 8689   1.228   1.539   3.216 -0.2966 -0.3306 -0.2601
 2878SOL    HW1 8690   1.301   1.580   3.264 -1.0309  0.9801 -0.2062
 2878SOL    HW2 8691   1.234   1.576   3.128 -0.1671 -1.1756 -0.6133
 2879SOL     OW 8692   2.942   4.497   1.387 -0.5702  0.7440  0.2330
 2879SOL    HW1 8693   2.867   4.549   1.414  0.0224  0.5303  2.4455
 2879SOL    HW2 8694   2.990   4.554   1.327 -1.1163  1.8974  0.8639
 2880SOL     OW 8695   4.128   1.786   4.847 -0.0315  0.8590  0.2309
 2880SOL    HW1 8696   4.115   1.715   4.784 -1.0069  1.1330  0.1047
 2880SOL    HW2 8697   4.141   1.864   4.792  0.1085  0.9324  0.3696
 2881SOL     OW 8698   4.122   1.323   3.431 -0.3752  0.3744  0.1342
 2881SOL    HW1 8699   4.075   1.380   3.491 -1.1682 -0.0101 -0.1119
 2881SOL    HW2 8700   4.083   1.236   3.444  2.0305 -0.5627  1.8409
 2882SOL     OW 8701   1.459   0.965   0.714 -0.3037 -0.3210 -0.0435
 2882SOL    HW1 8702   1.432   0.881   0.751  2.6666 -0.8192  1.2718
 2882SOL    HW2 8703   1.518   0.941   0.642 -0.0792  0.6388 -0.1870
 2883SOL     OW 8704   4.848   0.587   2.663 -0.2837 -0.4936  0.1963
 2883SOL    HW1 8705   4.837   0.588   2.758 -3.2103  1.1544 -0.0342
 2883SOL    HW2 8706   4.806   0.504   2.636 -1.7576  0.2080  0.2220
 2884SOL     OW 8707   4.736   2.720   1.217  0.1043  0.2432  0.3088
 2884SOL    HW1 8708   4.678   2.702   1.143  0.1274  0.9402  0.1198
 2884SOL    HW2 8709   4.679   2.756   1.284  0.1991  0.2458  0.3874
 2885SOL     OW 8710   1.676   4.520   1.255  0.6350 -0.9475 -0.2135
 2885SOL    HW1 8711   1.719   4.535   1.170  0.9409 -0.3340  0.0431
 2885SOL    HW2 8712   1.583   4.510   1.233  0.6116 -0.0957 -0.5660
 2886SOL     OW 8713   1.182   0.335   4.863  0.2638  0.1584 -0.3482
 2886SOL    HW1 8714   1.164   0.303   4.952 -0.9823  1.3643 -0.1234
 2886SOL    HW2 8715   1.166   0.260   4.806 -0.4953 -0.2084  0.3271
 2887SOL     OW 8716   2.455   4.174   3.605  0.0460  0.4055  0.3740
 2887SOL    HW1 8717   2.446   4.087   3.643  3.1852 -0.3898 -0.3991
 2887SOL    HW2 8718   2.438   4.234   3.677 -2.3170 -0.7649  0.8887
 2888SOL     OW 8719   1.308   4.223   2.818  0.8107  0.3272  0.0832
 2888SOL    HW1 8720   1.274   4.268   2.741  0.5835  0.4864  0.2728
 2888SOL    HW2 8721   1.374   4.163   2.784  1.4221  1.1064 -0.1291
 2889SOL     OW 8722   3.667   1.906   0.298 -0.6788  0.1216 -0.2474
 2889SOL    HW1 8723   3.684   1.982   0.242 -1.3996  0.7852  0.4028
 2889SOL    HW2 8724   3.585   1.869   0.265 -0.7484  0.1068 -0.0606
 2890SOL     OW 8725   0.607   4.660   2.685 -0.3009 -0.3587  0.2839
 2890SOL    HW1 8726   0.555   4.729   2.725 -0.7584 -0.0554 -0.7910
 2890SOL    HW2 8727   0.593   4.670   2.591  1.6583 -0.2949 -0.0570
 2891SOL     OW 8728   1.741   2.202   0.874 -0.3114  0.9571  0.5545
 2891SOL    HW1 8729   1.826   2.178   0.838 -1.4173 -1.4860 -0.6444
 2891SOL    HW2 8730   1.701   2.257   0.806 -0.8825 -0.4989 -0.3322
 2892SOL     OW 8731   4.782   0.053   0.854  0.2643  0.6373  0.3244
 2892SOL    HW1 8732   4.716  -0.017   0.854  1.0886 -0.1720  1.0099
 2892SOL    HW2 8733   4.858   0.014   0.898  0.6890  2.0321  0.8871
 2893SOL     OW 8734   1.885   0.452   2.631 -0.0310  0.7531 -0.1313
 2893SOL    HW1 8735   1.909   0.538   2.668  0.5709  0.3250  0.4975
 2893SOL    HW2 8736   1.844   0.406   2.704  2.6725 -0.7317  0.5867
 2894SOL     OW 8737   0.746   2.327   0.006  0.2194  0.0160  0.2364
 2894SOL    HW1 8738   0.761   2.408  -0.044 -0.2543 -0.3176 -0.4710
 2894SOL    HW2 8739   0.758   2.352   0.097 -1.3791  1.2534  0.1511
 2895SOL     OW 8740   1.352   1.486   0.737 -0.1634  0.1937  0.1023
 2895SOL    HW1 8741   1.366   1.395   0.708  1.5873 -0.5816  2.9960
 2895SOL    HW2 8742   1.349   1.480   0.832 -1.7682  3.0253  0.3350
 2896SOL     OW 8743   2.375   4.164   0.697 -0.6126  0.0959  0.0665
 2896SOL    HW1 8744   2.295   4.147   0.748 -0.5864 -0.8649 -0.1873
 2896SOL    HW2 8745   2.379   4.091   0.635 -1.1583  1.7191 -1.9819
 2897SOL     OW 8746   1.317   2.632   4.657  0.2714 -0.7093 -0.5323
 2897SOL    HW1 8747   1.230   2.600   4.634 -0.2688  1.1271 -1.2131
 2897SOL    HW2 8748   1.368   2.625   4.576 -0.4062  1.7598 -1.2834
 2898SOL     OW 8749   2.581   0.331   2.237 -0.4215 -0.4310  0.5458
 2898SOL    HW1 8750   2.493   0.309   2.205  0.3941  0.6064 -2.8130
 2898SOL    HW2 8751   2.638   0.265   2.198  0.5932  0.5489  0.3091
 2899SOL     OW 8752   0.226   1.276   0.754 -0.1453  0.0048 -0.0320
 2899SOL    HW1 8753   0.318   1.252   0.741 -0.5408 -1.1045 -0.9968
 2899SOL    HW2 8754   0.210   1.344   0.689  0.3692  1.3137  1.1611
 2900SOL     OW 8755   3.980   0.379   1.228  0.0367  0.5153  0.4684
 2900SOL    HW1 8756   3.932   0.401   1.148  1.3894  2.2887  0.0797
 2900SOL    HW2 8757   3.927   0.312   1.270 -0.3638 -1.0143 -2.2536
 2901SOL     OW 8758   4.930   0.854   2.569 -0.0191  0.5431 -0.3062
 2901SOL    HW1 8759   4.899   0.769   2.599  1.1951 -1.0857 -3.2503
 2901SOL    HW2 8760   4.860   0.915   2.593 -2.0443 -1.6897 -0.1836
 2902SOL     OW 8761   3.997   4.916   3.630  0.7767 -0.1874 -0.3018
 2902SOL    HW1 8762   4.077   4.939   3.678  0.1306 -1.2692  1.4212
 2902SOL    HW2 8763   3.931   4.906   3.699  0.0338 -2.8468 -1.2746
 2903SOL     OW 8764   4.152   4.101   0.295 -0.1219  0.1694  0.0733
 2903SOL    HW1 8765   4.124   4.032   0.235  1.3381  1.0246 -1.7055
 2903SOL    HW2 8766   4.247   4.091   0.300 -0.1530  0.3957  1.9802
 2904SOL     OW 8767   1.443   0.672   1.834  0.2753 -0.1178 -0.1786
 2904SOL    HW1 8768   1.369   0.731   1.849 -0.5499 -1.3408  0.7917
 2904SOL    HW2 8769   1.495   0.679   1.914  1.0977  0.5474 -0.7561
 2905SOL     OW 8770   0.481   3.021   2.483 -0.1828  0.0468 -0.1348
 2905SOL    HW1 8771   0.431   2.946   2.452  0.0038 -0.8559  1.6479
 2905SOL    HW2 8772   0.569   2.987   2.498  0.2472  0.9442 -0.5091
 2906SOL     OW 8773   0.964   4.493   4.615 -0.0935 -0.2298 -0.1610
 2906SOL    HW1 8774   0.975   4.578   4.659  1.6940 -0.5025 -0.0011
 2906SOL    HW2 8775   0.943   4.432   4.686 -0.0136 -0.1708 -0.0855
 2907SOL     OW 8776   2.807   4.062   0.461  0.2826 -0.2838 -0.1690
 2907SOL    HW1 8777   2.838   3.972   0.453 -2.0625 -1.1613 -0.1000
 2907SOL    HW2 8778   2.793   4.075   0.555 -0.2948 -0.2132 -0.2567
 2908SOL     OW 8779   2.971   4.609   3.943  0.4392  0.2672  0.2161
 2908SOL    HW1 8780   2.994   4.679   3.882 -0.2804  0.3728  0.0635
 2908SOL    HW2 8781   2.987   4.647   4.029 -0.8496  0.9575  0.1706
 2909SOL     OW 8782   2.605   4.802   2.073  1.0318 -0.3811 -0.1066
 2909SOL    HW1 8783   2.585   4.712   2.098 -1.0799 -0.1274 -0.7220
 2909SOL    HW2 8784   2.684   4.794   2.019  1.3019 -1.7622  0.4426
 2910SOL     OW 8785   0.200   4.925   4.856 -0.2948  0.3499  0.1348
 2910SOL    HW1 8786   0.259   4.969   4.917  1.3550  0.0503 -1.1650
 2910SOL    HW2 8787   0.169   4.848   4.904 -1.2792  1.5714  1.5531
 2911SOL     OW 8788   2.240   3.506   4.235 -0.2879 -0.1479  0.0883
 2911SOL    HW1 8789   2.168   3.515   4.297 -0.3610  1.9851 -0.2285
 2911SOL    HW2 8790   2.251   3.594   4.199  1.1962 -0.8645 -1.3074
 2912SOL     OW 8791   3.410   2.166   3.427  0.0762  0.6333  0.0261
 2912SOL    HW1 8792   3.421   2.150   3.521 -0.0633  0.4271  0.0097
 2912SOL    HW2 8793   3.442   2.085   3.386  1.5189  1.2841 -0.1848
 2913SOL     OW 8794   3.700   1.848   4.896 -0.1512 -0.2707 -0.2524
 2913SOL    HW1 8795   3.679   1.813   4.809 -0.0573 -1.4630  0.1909
 2913SOL    HW2 8796   3.724   1.939   4.879 -1.6480 -0.0229 -1.2754
 2914SOL     OW 8797   3.089   1.541   2.284 -0.6202  0.1400  0.0503
 2914SOL    HW1 8798   3.152   1.579   2.345  2.0632 -0.7761 -1.9195
 2914SOL    HW2 8799   3.131   1.551   2.198 -2.7281 -1.4625 -1.2473
 2915SOL     OW 8800   2.388   2.844   4.357  0.4188  0.7481 -0.3633
 2915SOL    HW1 8801   2.334   2.828   4.435 -0.5999  2.2009 -0.7169
 2915SOL    HW2 8802   2.404   2.758   4.320 -0.4041  0.1628  0.6027
 2916SOL     OW 8803   2.447   2.471   3.067 -0.4640  0.2094 -0.0248
 2916SOL    HW1 8804   2.433   2.517   2.984  0.0692  1.0842  0.3520
 2916SOL    HW2 8805   2.371   2.493   3.121 -0.0543  0.9272  0.2697
 2917SOL     OW 8806   2.693   0.192   4.045  0.5107 -0.0342 -0.0818
 2917SOL    HW1 8807   2.633   0.156   3.980 -0.8017  0.4690  0.7973
 2917SOL    HW2 8808   2.695   0.126   4.115 -0.4073  0.7013  0.6703
 2918SOL     OW 8809   1.449   3.136   3.556 -0.3863 -0.4716  0.4100
 2918SOL    HW1 8810   1.527   3.160   3.607  0.4752 -2.2364 -0.0157
 2918SOL    HW2 8811   1.472   3.053   3.514 -2.9752 -1.7678  1.3277
 2919SOL     OW 8812   0.220   0.389   1.610  0.1021  0.5270 -0.3197
 2919SOL    HW1 8813   0.202   0.446   1.684 -0.3799 -0.9421  0.7357
 2919SOL    HW2 8814   0.313   0.367   1.618 -0.1249 -0.2586  0.3425
 2920SOL     OW 8815   3.289   4.620   1.891  0.0724 -0.0360 -0.2030
 2920SOL    HW1 8816   3.340   4.621   1.972  0.8229  2.0897 -0.6417
 2920SOL    HW2 8817   3.225   4.550   1.904  0.4970 -0.0877  2.0053
 2921SOL     OW 8818   4.182   2.132   2.049  0.1034 -0.0067 -0.4428
 2921SOL    HW1 8819   4.152   2.192   1.981  2.3245  2.5346  0.6238
 2921SOL    HW2 8820   4.184   2.186   2.128 -2.2084 -2.7821  1.7471
 2922SOL     OW 8821   2.153   4.699   3.198 -0.0541 -0.0325 -0.0467
 2922SOL    HW1 8822   2.147   4.790   3.167 -1.3808 -0.0872 -0.0252
 2922SOL    HW2 8823   2.234   4.696   3.249  0.8650  0.7021 -1.4032
 2923SOL     OW 8824   1.688   2.738   3.574  0.3664 -0.2206  0.4466
 2923SOL    HW1 8825   1.643   2.817   3.544  0.0163  0.7941  3.3187
 2923SOL    HW2 8826   1.781   2.760   3.570  0.4196 -0.6386 -1.1500
 2924SOL     OW 8827   0.327   2.716   3.475 -0.1619 -0.4797 -0.1813
 2924SOL    HW1 8828   0.272   2.794   3.484  1.5368  0.8778 -0.9234
 2924SOL    HW2 8829   0.290   2.670   3.400  0.5981  1.2715 -1.7319
 2925SOL     OW 8830   3.776   4.355   3.670 -0.1705 -0.1911 -0.0911
 2925SOL    HW1 8831   3.833   4.398   3.606 -0.9148 -2.0303 -2.0866
 2925SOL    HW2 8832   3.691   4.351   3.627 -0.5580 -2.0047  0.7740
 2926SOL     OW 8833   2.031   3.271   1.337  0.0916  0.3836 -0.4055
 2926SOL    HW1 8834   1.991   3.250   1.422  1.2072  0.2795  0.1124
 2926SOL    HW2 8835   2.072   3.356   1.351  0.6779  0.1509 -0.6971
 2927SOL     OW 8836   0.811   2.631   4.372  0.3722  0.3921  0.8327
 2927SOL    HW1 8837   0.782   2.582   4.449 -0.5277  0.9488  0.8562
 2927SOL    HW2 8838   0.737   2.687   4.349  0.1773 -0.5939 -1.1487
 2928SOL     OW 8839   0.392   1.618   0.754 -0.1360  0.1139  0.8581
 2928SOL    HW1 8840   0.310   1.667   0.764  1.2264  2.9108 -0.5088
 2928SOL    HW2 8841   0.455   1.665   0.810  1.2376 -0.0623 -0.4715
 2929SOL     OW 8842   1.412   1.561   2.979 -0.3521 -0.6428  0.2246
 2929SOL    HW1 8843   1.504   1.536   2.969 -0.3464 -0.3739 -0.4958
 2929SOL    HW2 8844   1.415   1.643   3.028 -0.1874 -0.4810 -0.0541
 2930SOL     OW 8845   4.954   3.318   3.214 -0.1851 -0.2244  0.2928
 2930SOL    HW1 8846   4.862   3.293   3.220 -0.3648  0.6999  1.8482
 2930SOL    HW2 8847   4.953   3.400   3.164 -0.0449 -0.9185 -0.8833
 2931SOL     OW 8848   1.368   3.062   4.140  0.6310  0.2954  0.1767
 2931SOL    HW1 8849   1.457   3.026   4.145  0.5995  0.2985  0.8519
 2931SOL    HW2 8850   1.324   3.007   4.076  0.7298 -0.5818  0.8381
 2932SOL     OW 8851   0.988   0.490   4.378  0.3888 -0.4159  0.0606
 2932SOL    HW1 8852   0.948   0.424   4.321 -2.0389 -0.6276  1.8713
 2932SOL    HW2 8853   0.941   0.571   4.357  1.4141  0.1351 -0.1656
 2933SOL     OW 8854   3.991   4.468   3.130 -0.0058 -0.1585 -0.3084
 2933SOL    HW1 8855   3.924   4.402   3.112 -0.0952  0.6785 -3.6688
 2933SOL    HW2 8856   4.073   4.419   3.131 -0.1906 -0.5362 -1.6231
 2934SOL     OW 8857   3.362   2.732   0.789  0.3526 -0.0174 -0.0133
 2934SOL    HW1 8858   3.389   2.641   0.777  0.0862  0.0135 -0.8950
 2934SOL    HW2 8859   3.350   2.741   0.884  3.8198  0.1134  0.5448
 2935SOL     OW 8860   3.775   4.488   1.882 -0.8587  0.6484 -0.0914
 2935SOL    HW1 8861   3.819   4.542   1.948 -1.2770  0.9409 -0.0490
 2935SOL    HW2 8862   3.699   4.452   1.927  0.4987 -1.6665  0.5035
 2936SOL     OW 8863   0.845   3.713   2.025  0.4128  0.9014  0.4285
 2936SOL    HW1 8864   0.869   3.760   1.945 -0.3383  0.9421  0.2222
 2936SOL    HW2 8865   0.918   3.653   2.040  1.2451  1.9072  0.5239
 2937SOL     OW 8866   1.877   3.548   1.268 -0.8697 -0.4794  0.4898
 2937SOL    HW1 8867   1.818   3.474   1.277  0.9263 -2.1025 -0.3857
 2937SOL    HW2 8868   1.948   3.530   1.330 -0.0503  0.1262 -0.2399
 2938SOL     OW 8869   1.966   1.392   4.094 -0.2305 -0.0390 -0.3529
 2938SOL    HW1 8870   1.914   1.348   4.161 -0.3647 -0.5830 -0.8038
 2938SOL    HW2 8871   2.044   1.424   4.140 -0.2012 -0.6225  0.0124
 2939SOL     OW 8872   2.744   0.587   2.178  0.0732  0.3377  0.3727
 2939SOL    HW1 8873   2.746   0.511   2.235 -0.9787  0.7518  0.9847
 2939SOL    HW2 8874   2.777   0.659   2.232 -0.3496  0.6123  0.2705
 2940SOL     OW 8875   3.580   1.653   2.543  0.7683 -1.0536 -0.5482
 2940SOL    HW1 8876   3.660   1.618   2.583  0.6060 -1.1066 -0.2642
 2940SOL    HW2 8877   3.601   1.744   2.524  1.0029 -1.1524 -0.7704
 2941SOL     OW 8878   3.222   2.197   3.686 -0.5348  0.2317 -0.3856
 2941SOL    HW1 8879   3.196   2.141   3.759 -0.8827  0.1757 -0.5507
 2941SOL    HW2 8880   3.316   2.208   3.697 -0.4801 -0.2917 -0.2889
 2942SOL     OW 8881   0.622   1.729   1.227 -0.0859 -0.3342 -0.3497
 2942SOL    HW1 8882   0.616   1.776   1.310 -0.9556 -1.2330  0.1225
 2942SOL    HW2 8883   0.570   1.649   1.241  0.5247 -0.9484 -1.4472
 2943SOL     OW 8884   1.537   2.174   2.865  0.3205 -0.0659  0.1323
 2943SOL    HW1 8885   1.441   2.171   2.860  0.3203 -0.5527  0.3979
 2943SOL    HW2 8886   1.566   2.101   2.811  0.5816  0.6666 -0.7650
 2944SOL     OW 8887   0.615   3.347   3.848 -0.3515 -0.1742  0.5006
 2944SOL    HW1 8888   0.698   3.314   3.881 -1.2046 -1.9373  1.0207
 2944SOL    HW2 8889   0.578   3.397   3.921  0.0611  0.2622  0.4122
 2945SOL     OW 8890   4.179   2.570   3.839  0.1667 -0.0351  0.4805
 2945SOL    HW1 8891   4.091   2.542   3.813 -0.6716  2.0213  0.9427
 2945SOL    HW2 8892   4.221   2.489   3.869 -1.5007 -1.0911  0.1393
 2946SOL     OW 8893   2.962   3.649   3.906  0.1931 -0.3360  0.2127
 2946SOL    HW1 8894   3.004   3.653   3.820  2.4242  2.8931  1.2624
 2946SOL    HW2 8895   2.891   3.713   3.901  2.0128  1.9345  1.4096
 2947SOL     OW 8896   3.542   1.004   0.172 -0.5683 -0.2670  0.6634
 2947SOL    HW1 8897   3.589   0.951   0.236 -0.3435  0.5362  1.1752
 2947SOL    HW2 8898   3.466   0.950   0.147  0.5691 -1.5615 -0.1497
 2948SOL     OW 8899   0.622   0.783   0.268 -0.2714  0.8068  0.1324
 2948SOL    HW1 8900   0.590   0.694   0.253  1.8391 -0.0150  0.2405
 2948SOL    HW2 8901   0.589   0.807   0.354 -0.6597  0.0463  0.1989
 2949SOL     OW 8902   1.727   4.002   2.117  0.1914  0.1157  0.1268
 2949SOL    HW1 8903   1.783   4.074   2.086 -1.3460  0.9084 -0.9645
 2949SOL    HW2 8904   1.733   3.936   2.049 -1.3914  0.8811 -0.8035
 2950SOL     OW 8905   0.483   0.518   2.834 -0.6172 -0.1511  0.6198
 2950SOL    HW1 8906   0.516   0.608   2.836 -1.6206  0.2881 -0.7591
 2950SOL    HW2 8907   0.560   0.465   2.819 -0.1338  0.5659  0.5020
 2951SOL     OW 8908   2.138   1.062   4.354  0.3450 -0.1490  0.3016
 2951SOL    HW1 8909   2.106   1.143   4.393 -0.6403 -0.2053 -0.3432
 2951SOL    HW2 8910   2.152   1.084   4.262  0.4180 -0.6132  0.1978
 2952SOL     OW 8911   2.326   4.587   2.907 -0.3741  0.2925  0.3532
 2952SOL    HW1 8912   2.251   4.558   2.960  0.4825  1.2739  2.1835
 2952SOL    HW2 8913   2.344   4.676   2.938  1.5428  0.0858 -0.0562
 2953SOL     OW 8914   2.939   4.969   4.888 -0.3368 -0.5855 -0.0384
 2953SOL    HW1 8915   3.021   5.012   4.863  0.7701 -2.1330  0.7647
 2953SOL    HW2 8916   2.966   4.896   4.944 -2.3261 -0.6723  0.8927
 2954SOL     OW 8917   2.041   0.055   3.121  0.5625  0.1973 -0.3321
 2954SOL    HW1 8918   1.959   0.102   3.103  0.7905  0.0136 -2.0012
 2954SOL    HW2 8919   2.026   0.013   3.206 -0.7396  0.8708 -0.1984
 2955SOL     OW 8920   0.225   1.842   2.564 -0.1353 -0.1303  0.0405
 2955SOL    HW1 8921   0.273   1.919   2.593 -0.9262  0.1812  0.5539
 2955SOL    HW2 8922   0.267   1.769   2.609  0.2487  0.0657  0.0017
 2956SOL     OW 8923   2.287   2.533   3.826 -0.1502  0.4617 -0.3831
 2956SOL    HW1 8924   2.214   2.482   3.791  0.3666  0.4651 -1.5007
 2956SOL    HW2 8925   2.322   2.580   3.750 -0.9418  2.9251  0.6720
 2957SOL     OW 8926   0.633   3.469   3.610 -0.2467 -0.2788 -0.0820
 2957SOL    HW1 8927   0.661   3.427   3.691 -0.7907 -0.1730  0.1665
 2957SOL    HW2 8928   0.694   3.437   3.544  0.0469 -0.5631  0.3225
 2958SOL     OW 8929   3.519   0.683   2.976  1.2666  0.5445  0.4585
 2958SOL    HW1 8930   3.551   0.709   3.062  0.8194  1.1318  0.4536
 2958SOL    HW2 8931   3.430   0.716   2.972  1.3188  0.6213 -0.2741
 2959SOL     OW 8932   4.834   2.521   2.244 -0.2631  0.0591 -0.0290
 2959SOL    HW1 8933   4.890   2.551   2.315  0.5103 -0.3564 -0.4438
 2959SOL    HW2 8934   4.894   2.507   2.170 -0.8789 -0.5891 -0.4256
 2960SOL     OW 8935   3.439   3.904   2.597  0.0352 -0.4378  0.1286
 2960SOL    HW1 8936   3.491   3.982   2.578 -0.2940 -0.0293  0.8522
 2960SOL    HW2 8937   3.505   3.837   2.619  0.3428 -0.5299 -1.0218
 2961SOL     OW 8938   0.612   4.647   1.821  0.2119 -0.0099  0.5099
 2961SOL    HW1 8939   0.541   4.650   1.756  0.5810  1.2666  0.1436
 2961SOL    HW2 8940   0.654   4.562   1.807  0.1590  0.1664 -0.7852
 2962SOL     OW 8941   1.884   2.713   4.907 -0.3415  0.4005  0.3340
 2962SOL    HW1 8942   1.859   2.805   4.900  0.8478  0.8076  1.1476
 2962SOL    HW2 8943   1.966   2.706   4.857 -1.7012 -0.7937 -1.8630
 2963SOL     OW 8944   1.251   3.231   2.043 -0.1342  0.1946 -0.0570
 2963SOL    HW1 8945   1.290   3.229   1.956 -0.7366  0.2247 -0.3293
 2963SOL    HW2 8946   1.158   3.215   2.029  0.0708 -2.0754  0.7803
 2964SOL     OW 8947   4.799   3.885   0.214 -0.4579 -0.3572 -0.1789
 2964SOL    HW1 8948   4.717   3.934   0.215 -0.5228 -0.4734  0.5884
 2964SOL    HW2 8949   4.865   3.949   0.186 -0.7808 -0.2343 -0.6772
 2965SOL     OW 8950   1.755   1.808   0.138  0.6122 -0.3666  0.0844
 2965SOL    HW1 8951   1.814   1.880   0.160  1.6397 -1.5906  1.5641
 2965SOL    HW2 8952   1.787   1.734   0.190 -1.2803 -1.5144 -0.2841
 2966SOL     OW 8953   4.765   4.705   1.154 -0.0341  0.1736  0.6629
 2966SOL    HW1 8954   4.841   4.758   1.180  0.2358  0.2250 -0.1759
 2966SOL    HW2 8955   4.699   4.722   1.220  0.5846  0.3783  1.2348
 2967SOL     OW 8956   0.583   0.066   4.435 -0.5279 -0.4420 -0.9184
 2967SOL    HW1 8957   0.602   0.101   4.348 -1.1801  0.2191 -0.8022
 2967SOL    HW2 8958   0.588   0.142   4.494  1.2286 -1.0931 -0.1447
 2968SOL     OW 8959   4.975   1.413   2.418 -0.1010 -0.2386 -0.6398
 2968SOL    HW1 8960   4.994   1.319   2.413  1.4594 -0.0637  0.9997
 2968SOL    HW2 8961   5.042   1.448   2.476  0.4141  2.2148 -2.5451
 2969SOL     OW 8962   1.103   1.871   4.357  0.1419  0.0834  0.4014
 2969SOL    HW1 8963   1.177   1.903   4.408 -0.6346  0.1574  1.5302
 2969SOL    HW2 8964   1.131   1.878   4.266  1.4429  0.2757  0.8022
 2970SOL     OW 8965   4.626   2.116   0.670 -0.9858  0.5565 -0.5976
 2970SOL    HW1 8966   4.650   2.160   0.752  0.6589  0.3930 -0.9483
 2970SOL    HW2 8967   4.584   2.184   0.618  1.4843  1.8284 -1.1116
 2971SOL     OW 8968   3.818   1.185   0.342 -0.7218 -0.4955 -0.5751
 2971SOL    HW1 8969   3.912   1.168   0.347 -0.2661  1.6115 -0.6993
 2971SOL    HW2 8970   3.811   1.259   0.281 -2.2912  0.3150  0.5142
 2972SOL     OW 8971   2.401   3.896   2.363 -0.0136 -0.3473 -0.2097
 2972SOL    HW1 8972   2.485   3.890   2.409  0.6640  0.2891 -1.2995
 2972SOL    HW2 8973   2.373   3.987   2.375  0.3108 -0.0905 -1.2296
 2973SOL     OW 8974   2.701   3.678   2.722  0.4796  0.5877  0.5598
 2973SOL    HW1 8975   2.755   3.618   2.672  0.7428  0.1371  1.3715
 2973SOL    HW2 8976   2.762   3.745   2.753  0.0353  1.8606 -1.1556
 2974SOL     OW 8977   1.874   0.302   1.791 -0.3249  0.1624 -0.2906
 2974SOL    HW1 8978   1.822   0.283   1.869 -1.2427  0.7852 -0.7279
 2974SOL    HW2 8979   1.945   0.357   1.821  0.8488 -1.7004  0.5408
 2975SOL     OW 8980   0.471   0.258   3.091  0.7385 -0.8876 -0.0847
 2975SOL    HW1 8981   0.403   0.195   3.116 -1.5063  0.8393 -1.3310
 2975SOL    HW2 8982   0.514   0.217   3.016  0.3293 -1.5707  0.0393
 2976SOL     OW 8983   0.123   1.068   2.913 -0.4331  0.2370 -0.2730
 2976SOL    HW1 8984   0.077   0.996   2.956  0.8621 -0.5057 -0.1009
 2976SOL    HW2 8985   0.131   1.135   2.980 -0.3599 -0.0368 -0.0086
 2977SOL     OW 8986   0.762   2.961   1.915  0.6000 -0.6836  0.5249
 2977SOL    HW1 8987   0.855   2.980   1.899  1.1319 -2.6238  1.0315
 2977SOL    HW2 8988   0.717   3.041   1.889  2.4572  0.5336  0.8187
 2978SOL     OW 8989   0.798   4.391   1.687  0.1646  0.4182  0.2081
 2978SOL    HW1 8990   0.728   4.348   1.736 -0.2456  1.3608  0.4708
 2978SOL    HW2 8991   0.832   4.323   1.628 -0.6634 -0.1704  0.3989
 2979SOL     OW 8992   4.816   3.069   3.400 -0.8585  0.5033 -0.0479
 2979SOL    HW1 8993   4.793   3.131   3.470  2.9435  1.5523  0.4922
 2979SOL    HW2 8994   4.809   3.121   3.320 -1.8084  0.3446 -0.0733
 2980SOL     OW 8995   0.298   0.281   3.575  0.6441 -0.1609  0.4289
 2980SOL    HW1 8996   0.303   0.227   3.654 -0.5452  0.8102  1.2059
 2980SOL    HW2 8997   0.383   0.325   3.570  1.0037 -0.8080  0.7352
 2981SOL     OW 8998   3.738   1.535   4.432 -0.0425  0.0772  0.4649
 2981SOL    HW1 8999   3.672   1.595   4.399  0.2417  0.2171  0.1490
 2981SOL    HW2 9000   3.791   1.513   4.356 -1.4392 -2.2977  0.0920
 2982SOL     OW 9001   3.950   3.711   3.759  0.4183  0.0528  0.4346
 2982SOL    HW1 9002   3.858   3.691   3.748  0.5952 -1.7230  1.7609
 2982SOL    HW2 9003   3.996   3.642   3.713  1.2180  2.4091 -2.6608
 2983SOL     OW 9004   2.235   2.639   4.510  0.0883  0.7213  0.7390
 2983SOL    HW1 9005   2.303   2.629   4.577  0.2236 -0.7457  0.4196
 2983SOL    HW2 9006   2.153   2.636   4.558  0.2119  0.9382  0.9651
 2984SOL     OW 9007   1.671   2.521   1.627  0.0335  0.0546  0.1108
 2984SOL    HW1 9008   1.680   2.599   1.571  0.5737 -1.9347 -2.8174
 2984SOL    HW2 9009   1.577   2.514   1.643 -0.3162 -0.0295 -1.7668
 2985SOL     OW 9010   1.621   0.852   2.457 -0.4377  0.0219  0.1475
 2985SOL    HW1 9011   1.594   0.825   2.545  1.5717 -0.1678  0.7431
 2985SOL    HW2 9012   1.689   0.790   2.432  0.6577  1.4632 -0.5939
 2986SOL     OW 9013   1.061   3.758   2.316  0.2019  0.6444 -0.0193
 2986SOL    HW1 9014   1.002   3.739   2.389  0.6788 -0.3036  0.1377
 2986SOL    HW2 9015   1.142   3.787   2.358 -0.3736  2.7123 -0.2496
 2987SOL     OW 9016   3.861   2.625   1.191 -0.3251  0.1574  0.6068
 2987SOL    HW1 9017   3.903   2.678   1.258  2.4133  1.7939 -2.1165
 2987SOL    HW2 9018   3.911   2.544   1.188  1.0877  1.0166 -0.8418
 2988SOL     OW 9019   2.311   1.794   3.055 -0.0699  0.1049  0.2584
 2988SOL    HW1 9020   2.238   1.734   3.062  1.4553 -1.6651  2.6621
 2988SOL    HW2 9021   2.305   1.849   3.133  1.2121 -0.2115  0.6140
 2989SOL     OW 9022   4.215   0.840   1.555 -0.2405  0.8135  0.4453
 2989SOL    HW1 9023   4.244   0.803   1.471  0.1311 -0.7408  1.2214
 2989SOL    HW2 9024   4.138   0.789   1.579 -1.8127  2.8290 -0.0514
 2990SOL     OW 9025   3.680   2.511   2.325  0.1625 -0.6682  0.3129
 2990SOL    HW1 9026   3.590   2.529   2.352  1.3615  3.2871  2.4324
 2990SOL    HW2 9027   3.676   2.507   2.230 -2.0603  1.3305  0.2302
 2991SOL     OW 9028   1.868   4.800   4.001 -0.4000 -0.0169  0.4072
 2991SOL    HW1 9029   1.803   4.858   4.040 -0.5126 -0.0324  0.2418
 2991SOL    HW2 9030   1.872   4.725   4.060  2.1651  1.5797  2.5314
 2992SOL     OW 9031   2.770   3.252   3.468  0.0470 -0.1983 -0.1569
 2992SOL    HW1 9032   2.843   3.313   3.475  0.4297 -0.6134 -0.4867
 2992SOL    HW2 9033   2.724   3.279   3.388 -2.1531  2.1864  1.7271
 2993SOL     OW 9034   0.452   0.651   4.386  0.0560 -0.1680  0.3119
 2993SOL    HW1 9035   0.373   0.674   4.435  0.5011  2.3672 -0.0510
 2993SOL    HW2 9036   0.443   0.696   4.302  1.5448 -0.4505 -0.0406
 2994SOL     OW 9037   0.542   4.394   0.576 -0.2401 -0.5583 -0.3257
 2994SOL    HW1 9038   0.500   4.389   0.490 -0.3353 -0.8345 -0.2656
 2994SOL    HW2 9039   0.484   4.448   0.629  0.1833  0.2206 -0.6418
 2995SOL     OW 9040   0.347   1.320   4.358 -0.5408 -0.0258 -0.1511
 2995SOL    HW1 9041   0.252   1.314   4.364 -0.7010 -0.8459 -2.6853
 2995SOL    HW2 9042   0.379   1.235   4.388 -0.5866  0.2352  0.6610
 2996SOL     OW 9043   0.177   4.389   2.603 -0.1914 -0.1847 -0.0665
 2996SOL    HW1 9044   0.256   4.443   2.607 -1.2363  1.3720  0.4652
 2996SOL    HW2 9045   0.154   4.387   2.510  0.1660 -0.2028 -0.1582
 2997SOL     OW 9046   2.274   4.537   4.972 -0.0172 -0.6665  0.0894
 2997SOL    HW1 9047   2.265   4.606   5.037  1.0100 -1.7185  1.3976
 2997SOL    HW2 9048   2.185   4.518   4.943 -0.2999  1.4300 -0.5872
 2998SOL     OW 9049   3.341   2.808   2.343 -0.3426 -0.0933 -0.3106
 2998SOL    HW1 9050   3.404   2.854   2.286  0.1210 -0.5882 -0.2096
 2998SOL    HW2 9051   3.263   2.864   2.342  0.4505  1.0805  0.3949
 2999SOL     OW 9052   0.854   0.307   4.225 -0.8294  0.2181  0.3018
 2999SOL    HW1 9053   0.865   0.296   4.131  0.8636  0.2348  0.4490
 2999SOL    HW2 9054   0.762   0.328   4.237 -1.1354 -0.0611 -1.3176
 3000SOL     OW 9055   1.134   1.447   1.351 -0.2397  0.4305 -0.0385
 3000SOL    HW1 9056   1.174   1.525   1.390  0.6357 -0.3046  0.5662
 3000SOL    HW2 9057   1.208   1.389   1.333 -0.8193 -0.0221 -1.0625
 3001SOL     OW 9058   4.718   2.460   2.634  0.1327 -0.3546  0.3349
 3001SOL    HW1 9059   4.779   2.387   2.624 -0.8386 -1.1829  0.3482
 3001SOL    HW2 9060   4.701   2.491   2.545 -0.4193 -0.9606  0.2253
 3002SOL     OW 9061   3.141   1.448   4.313 -0.1278 -0.3074  0.2841
 3002SOL    HW1 9062   3.171   1.538   4.297 -1.2233 -0.2776 -2.1213
 3002SOL    HW2 9063   3.213   1.393   4.281 -0.6567 -0.2326 -1.1281
 3003SOL     OW 9064   2.451   0.432   2.461  0.2081  0.5574  0.1222
 3003SOL    HW1 9065   2.519   0.450   2.396 -0.4540 -0.6881 -0.9610
 3003SOL    HW2 9066   2.370   0.461   2.420 -0.0537  1.1430  1.0164
 3004SOL     OW 9067   4.290   0.507   3.765  0.1001 -0.2441  0.3191
 3004SOL    HW1 9068   4.217   0.446   3.779 -1.2754  1.6984  2.1001
 3004SOL    HW2 9069   4.331   0.515   3.851  0.5411  0.9684  0.0025
 3005SOL     OW 9070   3.923   2.478   3.784 -0.2008 -0.1988 -0.3534
 3005SOL    HW1 9071   3.895   2.467   3.875 -0.1794  0.4612 -0.2594
 3005SOL    HW2 9072   3.847   2.515   3.740  0.2065  0.7158 -0.3084
 3006SOL     OW 9073   2.939   4.498   4.300  0.0998  0.5370 -0.2435
 3006SOL    HW1 9074   3.026   4.459   4.289 -1.1417 -2.0207 -2.1218
 3006SOL    HW2 9075   2.907   4.463   4.383  0.3337  0.3670 -0.2250
 3007SOL     OW 9076   2.523   3.841   4.841 -0.6224 -1.0564 -0.1257
 3007SOL    HW1 9077   2.433   3.874   4.833  0.0337  0.8551 -0.1637
 3007SOL    HW2 9078   2.544   3.851   4.933  0.3336  0.8781 -0.4872
 3008SOL     OW 9079   2.516   2.264   3.433  0.0198  0.3395  0.1945
 3008SOL    HW1 9080   2.430   2.246   3.471  0.3311 -1.5214  0.1286
 3008SOL    HW2 9081   2.499   2.274   3.339 -0.3439  1.7979  0.4054
 3009SOL     OW 9082   3.244   0.979   2.685  0.0383  0.1321  0.6788
 3009SOL    HW1 9083   3.233   1.001   2.777 -1.1664  0.1019  0.5644
 3009SOL    HW2 9084   3.215   1.058   2.638 -0.2059 -0.1685  0.3201
 3010SOL     OW 9085   3.538   1.136   3.586 -0.2704 -0.2947 -0.3392
 3010SOL    HW1 9086   3.573   1.141   3.497  0.3242 -3.4397 -0.4159
 3010SOL    HW2 9087   3.568   1.051   3.618 -3.3360 -0.7956  1.6134
 3011SOL     OW 9088   3.306   1.201   2.919  0.0076 -0.0807 -0.1751
 3011SOL    HW1 9089   3.339   1.232   3.003 -0.7948  1.2523 -0.3171
 3011SOL    HW2 9090   3.233   1.260   2.899 -0.3849 -0.9354 -1.3794
 3012SOL     OW 9091   1.616   2.969   3.412  0.5460  0.1489  0.0357
 3012SOL    HW1 9092   1.670   3.041   3.446 -1.8476  1.5412  1.2088
 3012SOL    HW2 9093   1.574   3.006   3.335  0.5907 -0.6207 -0.3664
 3013SOL     OW 9094   3.207   0.663   0.635  0.1168 -0.0647  0.1458
 3013SOL    HW1 9095   3.252   0.740   0.668  0.1094 -0.1838  0.4318
 3013SOL    HW2 9096   3.248   0.590   0.681  0.6110 -0.2913 -0.6393
 3014SOL     OW 9097   1.981   1.251   4.490 -0.0921  0.0034  0.1837
 3014SOL    HW1 9098   1.967   1.220   4.580 -1.2496 -0.5775 -0.1724
 3014SOL    HW2 9099   1.893   1.275   4.460  0.2409 -0.1379 -0.9158
 3015SOL     OW 9100   3.802   3.414   3.536  0.6086  0.1486  0.1725
 3015SOL    HW1 9101   3.791   3.438   3.444  2.8987 -0.5113 -0.3249
 3015SOL    HW2 9102   3.767   3.489   3.585  1.0954  1.3486 -1.2540
 3016SOL     OW 9103   2.948   3.755   3.411  0.0925  0.2486 -0.2222
 3016SOL    HW1 9104   2.866   3.737   3.366  1.1498 -1.0085 -1.7255
 3016SOL    HW2 9105   2.965   3.848   3.394 -1.2393  0.6671  0.5577
 3017SOL     OW 9106   1.454   4.672   0.182 -0.0547  0.2085  0.1494
 3017SOL    HW1 9107   1.474   4.683   0.088  1.4842 -1.6209  0.2001
 3017SOL    HW2 9108   1.507   4.739   0.225 -1.2038  1.4380 -0.2841
 3018SOL     OW 9109   2.631   1.911   0.450  0.1640 -0.4938  0.0403
 3018SOL    HW1 9110   2.585   1.903   0.366  0.4359  2.2884 -0.4664
 3018SOL    HW2 9111   2.580   1.975   0.499  0.2618 -1.7586  1.8814
 3019SOL     OW 9112   4.228   0.991   3.510 -0.2791  0.4558  0.2646
 3019SOL    HW1 9113   4.228   0.908   3.558  1.2720 -1.3255 -2.5267
 3019SOL    HW2 9114   4.138   1.023   3.519 -0.6159 -0.8788  2.4128
 3020SOL     OW 9115   3.635   1.743   1.000  0.1300 -0.2943  0.8139
 3020SOL    HW1 9116   3.639   1.831   0.963 -0.3641 -0.7398 -0.3467
 3020SOL    HW2 9117   3.678   1.687   0.934 -1.4528 -1.2207  0.5014
 3021SOL     OW 9118   1.378   1.412   4.894 -0.1166 -0.6674  0.3845
 3021SOL    HW1 9119   1.450   1.464   4.859 -0.1079 -1.9945 -1.7060
 3021SOL    HW2 9120   1.413   1.375   4.975  1.1771 -0.3968 -0.0237
 3022SOL     OW 9121   3.576   4.695   2.365  0.2615  0.3788  0.2453
 3022SOL    HW1 9122   3.559   4.706   2.458 -0.5519  1.1415  0.0257
 3022SOL    HW2 9123   3.621   4.611   2.358  1.2304  0.7789  1.4214
 3023SOL     OW 9124   3.596   3.775   3.838  0.0705  0.1272 -0.2529
 3023SOL    HW1 9125   3.584   3.843   3.904  1.9851  1.5342 -1.2696
 3023SOL    HW2 9126   3.645   3.706   3.884  1.1989  0.9981 -0.1095
 3024SOL     OW 9127   1.460   3.316   4.697 -0.0134 -0.5499 -0.1541
 3024SOL    HW1 9128   1.403   3.243   4.676  0.2288 -0.3727 -1.5089
 3024SOL    HW2 9129   1.520   3.323   4.623 -1.6885  2.6412 -1.4319
 3025SOL     OW 9130   4.738   0.568   3.795 -0.2374 -0.1957 -0.2036
 3025SOL    HW1 9131   4.682   0.501   3.756  0.1481  0.0119 -1.1496
 3025SOL    HW2 9132   4.765   0.622   3.721  0.5298  0.2122  0.3603
 3026SOL     OW 9133   4.868   3.070   4.073 -0.0230 -0.0676 -0.4819
 3026SOL    HW1 9134   4.782   3.029   4.065 -0.5120  0.9856 -0.8715
 3026SOL    HW2 9135   4.929   2.997   4.079 -0.9990 -0.8340  0.5389
 3027SOL     OW 9136   0.224   4.156   1.134 -0.0760 -0.0241 -0.5917
 3027SOL    HW1 9137   0.160   4.216   1.095 -0.4078 -1.2735 -2.0365
 3027SOL    HW2 9138   0.203   4.156   1.227 -0.4440  1.6354 -0.6497
 3028SOL     OW 9139   0.126   4.676   3.597 -0.6264  0.4356 -0.3868
 3028SOL    HW1 9140   0.214   4.710   3.588 -0.7297  1.1638  1.0466
 3028SOL    HW2 9141   0.103   4.643   3.510  0.8888  0.6120 -0.8703
 3029SOL     OW 9142   1.841   0.640   3.008 -0.3649 -0.0773  0.5595
 3029SOL    HW1 9143   1.830   0.723   3.054  0.7602 -0.2124  1.1216
 3029SOL    HW2 9144   1.831   0.573   3.075 -1.6799 -0.4319  0.0329
 3030SOL     OW 9145   2.910   3.426   4.067 -0.3355  0.7455  0.0228
 3030SOL    HW1 9146   2.929   3.497   4.005  0.5525  0.4952 -0.0025
 3030SOL    HW2 9147   2.933   3.463   4.153  2.5104 -0.2771 -0.2064
 3031SOL     OW 9148   4.272   2.191   2.547  0.4037  0.1204  0.4244
 3031SOL    HW1 9149   4.235   2.150   2.625  0.1897  1.7803  1.2462
 3031SOL    HW2 9150   4.330   2.259   2.582  0.1698  0.9977 -0.8664
 3032SOL     OW 9151   1.216   2.091   0.219  0.0527  0.1284  0.4411
 3032SOL    HW1 9152   1.193   2.007   0.179 -1.1435  0.6769 -0.0920
 3032SOL    HW2 9153   1.308   2.103   0.198 -0.0795 -0.4788 -0.5785
 3033SOL     OW 9154   1.522   2.620   4.394  0.6418  0.3390 -0.1579
 3033SOL    HW1 9155   1.463   2.574   4.334 -0.3268  0.9643  0.2906
 3033SOL    HW2 9156   1.609   2.587   4.371  0.1048 -0.8350 -0.6289
 3034SOL     OW 9157   2.932   1.194   4.145  0.2291 -0.8309 -0.0895
 3034SOL    HW1 9158   2.874   1.157   4.211  0.3147 -0.7088  0.0544
 3034SOL    HW2 9159   2.901   1.157   4.063 -0.1964 -0.5762 -0.0403
 3035SOL     OW 9160   0.189   0.675   2.090  0.6434  0.0332  0.1460
 3035SOL    HW1 9161   0.220   0.603   2.145  2.8701  1.7702  1.3460
 3035SOL    HW2 9162   0.128   0.723   2.146  1.7494  0.9490  0.5847
 3036SOL     OW 9163   1.047   2.915   1.800  0.1429 -0.3207  0.2278
 3036SOL    HW1 9164   1.024   2.865   1.722  0.4467 -2.0614  1.1813
 3036SOL    HW2 9165   1.091   2.993   1.768  0.2351 -0.9854 -1.3322
 3037SOL     OW 9166   4.835   0.792   4.883 -0.9812 -0.0847 -0.1413
 3037SOL    HW1 9167   4.847   0.843   4.963  1.2407 -0.5710 -0.0760
 3037SOL    HW2 9168   4.893   0.716   4.895 -2.2162 -1.2754 -1.3334
 3038SOL     OW 9169   0.196   4.430   3.111  0.2795 -0.2323 -0.3602
 3038SOL    HW1 9170   0.179   4.376   3.035  0.3701 -0.5473 -0.1576
 3038SOL    HW2 9171   0.114   4.428   3.161  0.8044 -1.5780  0.5086
 3039SOL     OW 9172   3.228   2.186   4.504 -0.0057  0.2218 -0.2433
 3039SOL    HW1 9173   3.294   2.244   4.541 -0.2764  0.8727 -0.7640
 3039SOL    HW2 9174   3.145   2.221   4.536 -0.1130 -0.5087  0.2971
 3040SOL     OW 9175   4.353   1.197   3.274  0.7214  0.7236 -0.4346
 3040SOL    HW1 9176   4.278   1.206   3.333 -1.0362 -0.2164 -2.4213
 3040SOL    HW2 9177   4.422   1.158   3.328 -0.3035  1.2864  1.3512
 3041SOL     OW 9178   0.320   3.246   1.471  0.1416  0.1803  0.6928
 3041SOL    HW1 9179   0.314   3.179   1.539 -0.1667 -2.5837 -1.8245
 3041SOL    HW2 9180   0.333   3.196   1.390 -0.1530  3.2142 -1.3889
 3042SOL     OW 9181   3.058   0.801   3.800 -0.2822 -0.1378  0.1375
 3042SOL    HW1 9182   3.129   0.805   3.736 -0.9329 -0.7565 -0.6551
 3042SOL    HW2 9183   3.080   0.867   3.865  0.8558 -0.1042 -0.2576
 3043SOL     OW 9184   3.917   1.305   3.097 -0.5322  0.7707 -0.3714
 3043SOL    HW1 9185   3.935   1.310   3.191 -0.2020  4.8886 -0.4740
 3043SOL    HW2 9186   3.821   1.310   3.091 -0.4950  2.2504 -0.2015
 3044SOL     OW 9187   0.033   1.172   3.182  0.0170 -0.0379  0.2077
 3044SOL    HW1 9188  -0.053   1.212   3.188 -0.5642 -1.3595  0.9581
 3044SOL    HW2 9189   0.091   1.245   3.159 -1.0243  1.2058  1.3523
 3045SOL     OW 9190   3.026   3.212   3.629  0.1170 -0.1760 -0.4112
 3045SOL    HW1 9191   3.009   3.235   3.720  0.0952  1.9158 -0.9038
 3045SOL    HW2 9192   2.951   3.157   3.604 -0.4024  0.0816  0.5335
 3046SOL     OW 9193   4.081   2.389   2.848  0.0228  0.1155  0.5110
 3046SOL    HW1 9194   4.000   2.385   2.797  0.6782  1.1381 -0.6541
 3046SOL    HW2 9195   4.055   2.434   2.929 -0.4503  1.0695 -0.1503
 3047SOL     OW 9196   3.882   2.840   2.587 -0.6269  0.2157  0.0806
 3047SOL    HW1 9197   3.881   2.799   2.500  1.4485 -1.4045  0.7398
 3047SOL    HW2 9198   3.908   2.930   2.571  1.0334 -0.3958 -0.9106
 3048SOL     OW 9199   0.596   2.234   2.016  0.0761 -0.2294  0.7029
 3048SOL    HW1 9200   0.666   2.275   1.966  1.2299 -0.3395  2.1754
 3048SOL    HW2 9201   0.613   2.258   2.107 -0.9293 -1.5071  1.2630
 3049SOL     OW 9202   0.189   4.700   0.992  0.2062 -0.0932  0.3880
 3049SOL    HW1 9203   0.166   4.656   1.074  2.2851  0.8913  1.5679
 3049SOL    HW2 9204   0.189   4.630   0.926  0.5763 -1.2996  1.6296
 3050SOL     OW 9205   3.531   2.859   4.384 -0.6961 -0.2650  0.0907
 3050SOL    HW1 9206   3.612   2.835   4.338 -0.7627  1.7273 -1.1978
 3050SOL    HW2 9207   3.495   2.775   4.414  0.8735 -1.3775 -0.9487
 3051SOL     OW 9208   3.921   3.873   2.919  0.2260 -0.2407 -0.1485
 3051SOL    HW1 9209   3.916   3.875   2.824 -1.1508 -0.4707 -0.0905
 3051SOL    HW2 9210   3.904   3.782   2.943 -2.1759  0.3028  0.4204
 3052SOL     OW 9211   3.043   4.836   3.155 -0.0174  0.4739  0.2944
 3052SOL    HW1 9212   3.027   4.753   3.111 -0.8901  1.5027 -1.4327
 3052SOL    HW2 9213   3.135   4.833   3.180  0.7923  0.1448 -2.3928
 3053SOL     OW 9214   0.122   2.821   1.276 -1.0454  0.9911  0.0932
 3053SOL    HW1 9215   0.069   2.825   1.355 -1.4735 -1.7398  0.0333
 3053SOL    HW2 9216   0.169   2.738   1.282  0.9228  1.9181 -1.3107
 3054SOL     OW 9217   0.535   2.296   4.606  0.2086 -0.1086 -0.0566
 3054SOL    HW1 9218   0.446   2.300   4.642  0.6582  0.1572  1.0593
 3054SOL    HW2 9219   0.566   2.386   4.607 -0.5426  0.3132 -3.2555
 3055SOL     OW 9220   2.251   0.735   2.198  0.0214 -1.0382  0.6484
 3055SOL    HW1 9221   2.337   0.777   2.189  0.0475 -1.4114 -1.2047
 3055SOL    HW2 9222   2.189   0.808   2.194  0.2001 -0.8897  0.5492
 3056SOL     OW 9223   0.464   3.441   1.216  0.0651 -0.4839 -0.3450
 3056SOL    HW1 9224   0.377   3.421   1.252  0.2751 -0.2974  0.2747
 3056SOL    HW2 9225   0.523   3.432   1.290  0.4998 -0.0321 -0.6343
 3057SOL     OW 9226   2.376   1.924   3.794 -0.0368  0.2188 -0.0476
 3057SOL    HW1 9227   2.464   1.958   3.806 -0.2944  0.5713  1.0365
 3057SOL    HW2 9228   2.383   1.858   3.725  0.6546  1.8002 -1.5255
 3058SOL     OW 9229   3.635   0.869   3.646 -0.5921 -0.1117  0.4022
 3058SOL    HW1 9230   3.712   0.839   3.696 -0.9982 -0.9551  0.5352
 3058SOL    HW2 9231   3.608   0.793   3.595 -0.6146  0.5408 -0.5857
 3059SOL     OW 9232   3.792   0.124   0.057 -0.6084  0.1840  0.3353
 3059SOL    HW1 9233   3.810   0.216   0.073  1.2445 -0.0487 -0.1205
 3059SOL    HW2 9234   3.703   0.122   0.022 -1.4108  1.5575  2.1629
 3060SOL     OW 9235   4.841   2.296   0.098 -0.0493 -0.2653  0.0379
 3060SOL    HW1 9236   4.839   2.204   0.072 -3.4121 -0.3842  0.2302
 3060SOL    HW2 9237   4.833   2.344   0.016 -0.0513 -0.2237  0.0627
 3061SOL     OW 9238   4.310   0.010   4.159  0.2822  0.1945 -0.2817
 3061SOL    HW1 9239   4.367   0.019   4.083 -0.4998  1.2562 -0.7671
 3061SOL    HW2 9240   4.233  -0.036   4.126  0.1732  0.1705  0.0004
 3062SOL     OW 9241   0.783   4.532   4.933 -0.2510 -0.3694 -0.3980
 3062SOL    HW1 9242   0.799   4.460   4.872 -2.0641 -0.9224 -0.2563
 3062SOL    HW2 9243   0.840   4.603   4.901  0.5606 -1.4050 -1.3223
 3063SOL     OW 9244   3.889   2.045   2.805  0.2854  0.2527  0.3972
 3063SOL    HW1 9245   3.867   1.953   2.822  0.0051  0.0713 -0.8426
 3063SOL    HW2 9246   3.834   2.094   2.866  0.5683 -0.3959  1.2002
 3064SOL     OW 9247   3.745   2.159   2.993 -0.0430 -0.0061 -0.4294
 3064SOL    HW1 9248   3.653   2.162   2.968 -0.3569  0.5275  0.7202
 3064SOL    HW2 9249   3.758   2.239   3.045  1.0461 -0.1164 -0.5190
 3065SOL     OW 9250   0.643   3.488   4.745 -0.1679 -0.8513  0.0949
 3065SOL    HW1 9251   0.578   3.465   4.811 -0.5553 -2.4440 -0.8024
 3065SOL    HW2 9252   0.631   3.425   4.675  0.5382  0.5135 -1.3363
 3066SOL     OW 9253   3.202   1.089   1.506  0.3180  0.0402  0.5163
 3066SOL    HW1 9254   3.283   1.045   1.531 -0.5093 -1.0065  1.4728
 3066SOL    HW2 9255   3.225   1.182   1.501  1.6435 -0.2792  0.4292
 3067SOL     OW 9256   4.638   3.524   3.331  0.4413 -0.4178  0.1948
 3067SOL    HW1 9257   4.692   3.445   3.323  0.8684 -0.0108 -1.4653
 3067SOL    HW2 9258   4.668   3.580   3.259 -1.7325  0.1193 -0.3474
 3068SOL     OW 9259   2.838   1.025   0.056 -0.0896 -0.2755 -0.3153
 3068SOL    HW1 9260   2.929   1.021   0.028 -0.4285 -0.2875 -1.4406
 3068SOL    HW2 9261   2.809   0.934   0.055 -0.5693 -0.1185 -1.5225
 3069SOL     OW 9262   1.255   2.126   0.967  0.2248  0.5642  0.6094
 3069SOL    HW1 9263   1.168   2.088   0.955  0.6083  0.0996 -0.8043
 3069SOL    HW2 9264   1.316   2.059   0.938  1.0986  0.7838  1.8262
 3070SOL     OW 9265   3.914   0.763   3.995 -0.2884  0.0911 -0.4390
 3070SOL    HW1 9266   4.006   0.746   4.015 -0.5455 -0.4420  0.3655
 3070SOL    HW2 9267   3.901   0.855   4.019  0.0255  0.1672 -0.5499
 3071SOL     OW 9268   2.877   0.532   3.522 -0.4079 -0.0959 -0.1006
 3071SOL    HW1 9269   2.928   0.531   3.442  2.1191 -0.7160  1.4121
 3071SOL    HW2 9270   2.797   0.579   3.499 -0.3841 -1.3680 -3.2815
 3072SOL     OW 9271   0.867   1.704   4.047 -0.4455 -0.1502 -0.6342
 3072SOL    HW1 9272   0.783   1.723   4.089  0.6603 -0.7203  2.0633
 3072SOL    HW2 9273   0.879   1.610   4.062  0.6416 -0.0843 -1.0642
 3073SOL     OW 9274   1.043   2.487   3.559  0.0320 -0.5136 -0.3840
 3073SOL    HW1 9275   0.956   2.501   3.522 -0.4277 -1.8878  0.1071
 3073SOL    HW2 9276   1.048   2.547   3.633  1.0212  2.3835 -2.6290
 3074SOL     OW 9277   1.642   2.371   0.676  0.2292  0.4425 -0.4807
 3074SOL    HW1 9278   1.574   2.438   0.683  1.2482  1.5688 -0.8973
 3074SOL    HW2 9279   1.673   2.377   0.585  1.0733  0.1688 -0.2261
 3075SOL     OW 9280   4.052   4.185   3.901  0.6412  0.0048 -0.1858
 3075SOL    HW1 9281   4.062   4.196   3.995  0.4024  0.4686 -0.2104
 3075SOL    HW2 9282   4.074   4.270   3.864  1.6656 -0.4411 -0.6306
 3076SOL     OW 9283   1.913   2.916   1.152  0.8733  0.1099 -0.1003
 3076SOL    HW1 9284   1.940   2.870   1.231  0.2889  0.5604  0.3687
 3076SOL    HW2 9285   1.982   2.896   1.088  0.5123 -1.5982  0.0106
 3077SOL     OW 9286   4.611   3.447   4.910  0.0538 -0.6971  0.1237
 3077SOL    HW1 9287   4.702   3.427   4.929 -0.0007 -1.0165  0.0409
 3077SOL    HW2 9288   4.611   3.541   4.892  0.8497 -1.1804 -2.8015
 3078SOL     OW 9289   2.953   1.471   3.164 -0.2051 -0.1601  0.2149
 3078SOL    HW1 9290   2.892   1.403   3.194 -1.4446  0.5904 -0.5398
 3078SOL    HW2 9291   2.952   1.537   3.233 -0.3338 -0.0960  0.1518
 3079SOL     OW 9292   1.305   1.053   3.481 -0.1734  0.5547 -0.4694
 3079SOL    HW1 9293   1.233   1.058   3.544 -0.8664  0.0215 -1.1977
 3079SOL    HW2 9294   1.263   1.065   3.396  0.4675 -0.5341 -0.9702
 3080SOL     OW 9295   0.827   1.664   4.858  0.2159  0.4211 -0.2707
 3080SOL    HW1 9296   0.896   1.598   4.864  2.1240  2.2776 -0.4066
 3080SOL    HW2 9297   0.809   1.689   4.949  0.4199  0.6117 -0.2825
 3081SOL     OW 9298   4.167   1.329   4.182 -0.2240 -0.0763 -0.2177
 3081SOL    HW1 9299   4.235   1.262   4.192 -0.0346  0.1272 -0.1283
 3081SOL    HW2 9300   4.195   1.381   4.106 -0.5348 -0.2908 -0.4845
 3082SOL     OW 9301   0.344   1.736   4.104 -0.1338 -0.0926  0.1991
 3082SOL    HW1 9302   0.405   1.697   4.167 -0.3431 -0.1808  0.3463
 3082SOL    HW2 9303   0.398   1.798   4.054  0.2698 -0.7940 -0.2417
 3083SOL     OW 9304   2.188   1.932   0.344  0.1599 -0.2284  0.2631
 3083SOL    HW1 9305   2.213   1.881   0.267 -1.1299 -0.0609 -0.2799
 3083SOL    HW2 9306   2.230   1.886   0.417  0.7306 -0.8593 -0.4488
 3084SOL     OW 9307   1.462   2.924   3.757  0.3312  0.3747 -0.0228
 3084SOL    HW1 9308   1.427   2.993   3.700  1.0757  0.0429 -0.9115
 3084SOL    HW2 9309   1.402   2.851   3.747  0.5470  0.2611 -0.5263
 3085SOL     OW 9310   1.556   1.281   0.091 -0.2618 -0.3354 -0.6079
 3085SOL    HW1 9311   1.494   1.233   0.147  1.8325 -0.0351  2.1979
 3085SOL    HW2 9312   1.627   1.218   0.076  0.1448  0.2687 -1.2074
 3086SOL     OW 9313   0.917   2.228   2.389  0.1331 -0.4206  0.0088
 3086SOL    HW1 9314   0.898   2.238   2.482 -3.4810 -1.1859 -0.5100
 3086SOL    HW2 9315   0.934   2.135   2.378  0.3732 -0.3611 -0.1285
 3087SOL     OW 9316   0.527   3.127   3.714 -0.1306  0.1604  0.6010
 3087SOL    HW1 9317   0.491   3.079   3.788  0.1605  0.3856  0.8939
 3087SOL    HW2 9318   0.545   3.214   3.749 -0.1545  0.3218  0.2180
 3088SOL     OW 9319   1.511   3.874   2.189  0.4933 -0.1344 -0.5241
 3088SOL    HW1 9320   1.533   3.868   2.282  0.3734 -1.2511 -0.5575
 3088SOL    HW2 9321   1.580   3.930   2.152  0.1160  0.9517  0.3525
 3089SOL     OW 9322   0.705   2.072   4.655 -0.2136  0.1491 -0.3172
 3089SOL    HW1 9323   0.759   2.063   4.577  0.2602  0.2541 -0.0038
 3089SOL    HW2 9324   0.649   2.148   4.637 -0.4082 -0.0908 -0.7289
 3090SOL     OW 9325   3.505   0.296   1.211  0.1570 -0.3781 -0.4174
 3090SOL    HW1 9326   3.550   0.367   1.258 -0.0607 -0.1548 -0.5422
 3090SOL    HW2 9327   3.420   0.290   1.254 -0.4174  0.4796 -1.3857
 3091SOL     OW 9328   0.210   0.453   3.162 -0.2676 -0.4023  0.1830
 3091SOL    HW1 9329   0.250   0.370   3.135  2.4943  0.4855  1.1450
 3091SOL    HW2 9330   0.177   0.436   3.250 -1.6014 -1.0079 -0.4165
 3092SOL     OW 9331   0.180   2.274   2.719  0.4306 -0.2958 -0.0535
 3092SOL    HW1 9332   0.214   2.277   2.808 -2.2551 -0.4805  1.0864
 3092SOL    HW2 9333   0.206   2.357   2.680  0.4120  0.4382  1.4211
 3093SOL     OW 9334   1.489   0.130   1.868  0.5827  0.3879 -0.3398
 3093SOL    HW1 9335   1.440   0.160   1.792  0.8455  0.8715 -0.3200
 3093SOL    HW2 9336   1.563   0.190   1.874 -0.2952  1.3835  1.2444
 3094SOL     OW 9337   3.086   2.428   3.950 -0.1136  0.1268 -0.3431
 3094SOL    HW1 9338   3.127   2.439   4.036  1.3628  0.2485 -1.0348
 3094SOL    HW2 9339   3.057   2.337   3.949  0.7011 -0.1492 -0.0520
 3095SOL     OW 9340   1.546   2.060   1.581  0.2419  0.0079  0.2209
 3095SOL    HW1 9341   1.630   2.090   1.616  0.8692  0.7314 -1.7517
 3095SOL    HW2 9342   1.480   2.105   1.634  1.1124  0.4114  0.9880
 3096SOL     OW 9343   3.070   3.728   3.668 -0.0193 -0.3358  0.3689
 3096SOL    HW1 9344   3.023   3.753   3.589 -0.2667 -1.3714  0.1797
 3096SOL    HW2 9345   3.157   3.768   3.658 -0.9003  1.8779  0.8757
 3097SOL     OW 9346   0.118   2.166   4.953 -0.2779 -0.0238 -0.0805
 3097SOL    HW1 9347   0.116   2.111   5.032 -0.4333 -1.3642 -0.9800
 3097SOL    HW2 9348   0.116   2.256   4.986  0.9074 -0.5237  1.4824
 3098SOL     OW 9349   4.835   4.006   2.207  0.0054 -0.3128  0.5792
 3098SOL    HW1 9350   4.872   4.034   2.291  1.2860 -1.7639  0.5502
 3098SOL    HW2 9351   4.781   3.930   2.229  0.3952 -0.7390  0.0874
 3099SOL     OW 9352   4.649   1.187   4.167 -0.2009 -0.1086 -0.4151
 3099SOL    HW1 9353   4.603   1.238   4.101 -0.4519  1.0748  0.6388
 3099SOL    HW2 9354   4.621   1.097   4.152 -1.6428  0.3892 -0.7846
 3100SOL     OW 9355   3.387   3.719   4.709  0.4883  0.3619 -0.2265
 3100SOL    HW1 9356   3.418   3.729   4.798  0.3897  0.4452 -0.2010
 3100SOL    HW2 9357   3.413   3.630   4.684 -0.7435 -0.2012  0.3945
 3101SOL     OW 9358   4.811   4.865   2.188  0.3829 -0.5939  0.0828
 3101SOL    HW1 9359   4.876   4.824   2.132  0.3823 -1.2698  0.5648
 3101SOL    HW2 9360   4.793   4.950   2.146 -0.6239 -1.6162 -1.7076
 3102SOL     OW 9361   0.654   2.311   2.273  0.2044 -0.0175 -0.4053
 3102SOL    HW1 9362   0.743   2.284   2.296  0.8290  1.9406 -0.3721
 3102SOL    HW2 9363   0.611   2.326   2.357  0.9416  2.2812 -0.3566
 3103SOL     OW 9364   3.165   3.508   0.984  0.2633  0.2538  0.2034
 3103SOL    HW1 9365   3.229   3.522   0.915 -1.2613  0.0749 -1.2980
 3103SOL    HW2 9366   3.174   3.585   1.041 -1.0650  2.4245 -2.3235
 3104SOL     OW 9367   2.233   3.691   2.464  0.1360 -0.2022 -0.5221
 3104SOL    HW1 9368   2.256   3.767   2.410 -0.7542  0.2230 -0.3245
 3104SOL    HW2 9369   2.289   3.698   2.541 -1.2700  1.3727  0.4314
 3105SOL     OW 9370   2.777   2.991   2.237 -0.3468 -0.2253 -0.6814
 3105SOL    HW1 9371   2.716   2.984   2.310 -1.2121  0.8723 -1.2767
 3105SOL    HW2 9372   2.722   2.985   2.159  0.6374 -2.1140 -1.2863
 3106SOL     OW 9373   3.702   0.131   2.736 -0.0298  0.2647 -0.0275
 3106SOL    HW1 9374   3.797   0.119   2.731 -0.1171 -0.0746 -1.2766
 3106SOL    HW2 9375   3.683   0.135   2.830  1.2928  1.0294  0.2337
 3107SOL     OW 9376   4.902   2.967   0.393 -0.2388  0.1640 -0.0033
 3107SOL    HW1 9377   4.869   2.947   0.306  0.9953 -1.8050 -0.0855
 3107SOL    HW2 9378   4.965   3.037   0.380  1.5965 -1.5843 -1.1138
 3108SOL     OW 9379   1.818   0.368   2.898  0.0715 -0.3735  0.1992
 3108SOL    HW1 9380   1.834   0.460   2.921  0.6468 -0.1493 -1.0429
 3108SOL    HW2 9381   1.743   0.344   2.951  0.7335  0.4089  1.5627
 3109SOL     OW 9382   4.754   0.170   2.131 -0.3267  0.5104 -0.0246
 3109SOL    HW1 9383   4.673   0.212   2.100  1.4918  4.2824 -0.1939
 3109SOL    HW2 9384   4.807   0.160   2.052 -0.3178 -1.4092  0.1724
 3110SOL     OW 9385   0.824   1.539   0.834 -0.4499  0.3523  0.0133
 3110SOL    HW1 9386   0.794   1.525   0.924  0.4334  0.2954  0.3129
 3110SOL    HW2 9387   0.753   1.506   0.779 -1.4795  1.4060  0.6783
 3111SOL     OW 9388   0.364   1.982   1.918 -0.0052 -0.4061  0.7022
 3111SOL    HW1 9389   0.304   1.955   1.848  1.8853  0.1232 -1.2649
 3111SOL    HW2 9390   0.321   2.057   1.958 -0.1585  0.8418 -1.5793
 3112SOL     OW 9391   0.930   3.909   1.833 -0.2567 -0.0961  0.3739
 3112SOL    HW1 9392   0.989   3.860   1.774 -0.9334  1.0184 -1.3205
 3112SOL    HW2 9393   0.985   3.932   1.908  1.1279 -0.1986 -0.5672
 3113SOL     OW 9394   2.658   3.175   1.304  0.3018  0.4847  0.3404
 3113SOL    HW1 9395   2.670   3.248   1.366  1.1088  1.8253 -1.3238
 3113SOL    HW2 9396   2.746   3.156   1.272  0.0113 -0.8350  0.2608
 3114SOL     OW 9397   3.014   4.727   2.674 -0.0670  0.5212 -0.1735
 3114SOL    HW1 9398   2.965   4.660   2.722 -0.7719  2.1528  1.4779
 3114SOL    HW2 9399   2.959   4.748   2.599  1.2923 -2.4440 -2.2012
 3115SOL     OW 9400   3.935   3.918   0.741 -0.1395  0.0170 -0.2495
 3115SOL    HW1 9401   3.952   3.937   0.649 -3.2183 -1.1347 -1.1710
 3115SOL    HW2 9402   3.894   3.997   0.775 -1.7176 -0.5699 -0.7248
 3116SOL     OW 9403   0.967   4.915   0.918  0.0809  0.3924  0.4749
 3116SOL    HW1 9404   0.985   4.869   1.000  0.4673 -0.0986  0.1227
 3116SOL    HW2 9405   0.950   5.005   0.944 -2.6442 -0.2845  1.4058
 3117SOL     OW 9406   4.184   0.737   2.391  0.1383 -0.4735 -0.5965
 3117SOL    HW1 9407   4.257   0.689   2.352  0.6756 -1.2324  1.2296
 3117SOL    HW2 9408   4.213   0.828   2.392  2.4999 -1.0582  2.7935
 3118SOL     OW 9409   2.675   2.425   0.614  0.4263  0.6764  0.6188
 3118SOL    HW1 9410   2.601   2.374   0.581  0.2438  1.3533 -0.0666
 3118SOL    HW2 9411   2.651   2.447   0.704  0.5716 -0.5389  0.9756
 3119SOL     OW 9412   0.577   0.310   4.562 -0.4457 -0.1540 -0.4877
 3119SOL    HW1 9413   0.630   0.342   4.635 -1.4802 -2.7182  1.5578
 3119SOL    HW2 9414   0.560   0.388   4.509  1.8366  1.5077  1.0097
 3120SOL     OW 9415   4.587   4.153   4.027  0.4595 -0.2618  0.0350
 3120SOL    HW1 9416   4.636   4.211   4.085 -0.2047 -0.2955  0.6427
 3120SOL    HW2 9417   4.636   4.071   4.028  1.5440  0.3409 -1.0317
 3121SOL     OW 9418   3.891   4.121   1.436  0.3205  0.1824 -0.7608
 3121SOL    HW1 9419   3.962   4.144   1.496  0.8966 -0.4174 -1.1935
 3121SOL    HW2 9420   3.819   4.095   1.493  1.0289 -0.8723 -0.3264
 3122SOL     OW 9421   0.672   2.055   2.529 -0.5695 -0.0828 -0.2918
 3122SOL    HW1 9422   0.754   2.009   2.510 -1.8681 -1.5136 -3.0760
 3122SOL    HW2 9423   0.697   2.147   2.535  1.5251 -0.6847  1.3118
 3123SOL     OW 9424   2.335   3.329   3.638 -0.5740 -0.2226 -0.2104
 3123SOL    HW1 9425   2.259   3.347   3.694 -0.7874  0.7416 -0.7783
 3123SOL    HW2 9426   2.410   3.361   3.688 -0.6368 -0.3696 -0.0190
 3124SOL     OW 9427   2.496   4.079   4.281 -0.2857  0.3294 -0.0714
 3124SOL    HW1 9428   2.545   4.139   4.338  0.3814 -0.5743  0.3309
 3124SOL    HW2 9429   2.526   3.992   4.307  0.7009 -0.0956 -2.3655
 3125SOL     OW 9430   1.910   3.833   3.514 -0.0613 -0.1842  0.2275
 3125SOL    HW1 9431   1.903   3.737   3.507  0.6962 -0.3243  1.2205
 3125SOL    HW2 9432   1.930   3.849   3.606 -0.1914  0.9410  0.0716
 3126SOL     OW 9433   0.968   0.922   1.234  0.1463 -0.2707  0.4756
 3126SOL    HW1 9434   1.055   0.932   1.195  0.0434 -2.1755 -0.3570
 3126SOL    HW2 9435   0.970   0.976   1.313  2.4106 -0.9819  0.9731
 3127SOL     OW 9436   2.725   1.999   4.774 -0.3487  0.0444 -0.7472
 3127SOL    HW1 9437   2.632   1.994   4.794 -0.4662  0.3646 -1.2016
 3127SOL    HW2 9438   2.735   1.951   4.692 -0.4103  1.4513 -1.6132
 3128SOL     OW 9439   2.085   1.891   2.065  0.7185  0.0795  0.0546
 3128SOL    HW1 9440   2.120   1.804   2.085 -1.2702 -0.1609  3.2246
 3128SOL    HW2 9441   2.146   1.952   2.107  0.5387  0.0239  0.3987
 3129SOL     OW 9442   4.309   4.387   2.767 -0.6062 -0.6051 -0.1148
 3129SOL    HW1 9443   4.277   4.410   2.680  0.5242 -2.1337 -0.9941
 3129SOL    HW2 9444   4.289   4.293   2.775 -0.5114 -0.5328  1.1988
 3130SOL     OW 9445   4.759   2.959   2.488  0.1350  0.3123  0.5237
 3130SOL    HW1 9446   4.780   2.905   2.564  0.8647  2.2515  1.7492
 3130SOL    HW2 9447   4.689   2.910   2.444 -0.0294 -1.0691  2.1921
 3131SOL     OW 9448   4.400   3.100   3.950  0.2320  0.1289 -0.1584
 3131SOL    HW1 9449   4.310   3.072   3.966 -0.4508  2.2119 -0.0957
 3131SOL    HW2 9450   4.395   3.156   3.872  1.3982  0.6011  0.0759
 3132SOL     OW 9451   1.617   1.129   0.881  0.2501 -0.5852 -0.0884
 3132SOL    HW1 9452   1.549   1.135   0.948 -0.1147  0.9930 -0.5748
 3132SOL    HW2 9453   1.583   1.066   0.818  0.1410 -1.3067  0.6687
 3133SOL     OW 9454   3.080   4.165   1.048 -0.4303  0.0496 -0.0356
 3133SOL    HW1 9455   2.985   4.170   1.045 -0.5234 -1.0262  0.5318
 3133SOL    HW2 9456   3.099   4.072   1.053  0.6544  0.2559 -0.0330
 3134SOL     OW 9457   1.939   3.692   3.039 -0.1349 -0.2766 -0.4332
 3134SOL    HW1 9458   1.969   3.742   2.963 -1.8665 -0.1714 -1.0790
 3134SOL    HW2 9459   1.848   3.718   3.051 -0.0314 -0.6155  1.4350
 3135SOL     OW 9460   3.886   2.018   1.171  0.2074  0.2128  0.3563
 3135SOL    HW1 9461   3.913   1.956   1.238  0.2488  0.3122  0.4316
 3135SOL    HW2 9462   3.892   1.970   1.089 -0.4908 -0.1208  0.4928
 3136SOL     OW 9463   0.689   2.090   4.027  0.6473  0.4166 -0.5069
 3136SOL    HW1 9464   0.658   2.178   4.007  0.1270  0.6185  1.0505
 3136SOL    HW2 9465   0.611   2.035   4.023  0.7994  0.2027 -0.5562
 3137SOL     OW 9466   3.692   0.279   4.442  0.4403 -0.1266 -0.2922
 3137SOL    HW1 9467   3.619   0.329   4.407  1.1212  0.8735 -0.3029
 3137SOL    HW2 9468   3.763   0.342   4.451  1.3075 -1.0762 -0.2653
 3138SOL     OW 9469   3.727   3.573   3.943  0.1973  0.4539 -0.2373
 3138SOL    HW1 9470   3.708   3.484   3.913 -0.9206  0.3604  0.6852
 3138SOL    HW2 9471   3.800   3.562   4.005  0.7092  0.3204 -0.8461
 3139SOL     OW 9472   1.986   2.046   0.544 -0.0411 -0.4052 -0.7600
 3139SOL    HW1 9473   2.067   2.018   0.501  0.6338  0.9398 -0.4102
 3139SOL    HW2 9474   1.944   2.104   0.480  0.9878  1.6366  0.3221
 3140SOL     OW 9475   3.006   3.610   4.777  0.6893  0.1280  1.1222
 3140SOL    HW1 9476   3.047   3.691   4.748 -0.0657  0.6820  1.5921
 3140SOL    HW2 9477   2.913   3.620   4.757  0.4825 -0.3392  1.7890
 3141SOL     OW 9478   0.749   3.940   4.253  0.1114  0.3374 -0.8856
 3141SOL    HW1 9479   0.809   3.974   4.187 -1.6778  0.6026 -2.4346
 3141SOL    HW2 9480   0.707   4.018   4.290  0.7827  0.1637  0.2998
 3142SOL     OW 9481   2.536   0.509   3.834  0.2980 -0.5521  0.6639
 3142SOL    HW1 9482   2.520   0.497   3.741  1.3556 -0.1719  0.4213
 3142SOL    HW2 9483   2.558   0.422   3.866  0.1400 -0.6478  0.5100
 3143SOL     OW 9484   1.066   2.993   0.841  0.3652 -0.1701 -0.1182
 3143SOL    HW1 9485   1.155   2.996   0.806  0.0833 -0.4340 -0.8597
 3143SOL    HW2 9486   1.074   2.943   0.922  1.0132  0.4093  0.1856
 3144SOL     OW 9487   1.169   4.669   1.711 -0.0850 -0.4856 -0.6690
 3144SOL    HW1 9488   1.139   4.757   1.689 -2.3117 -1.1507 -0.5036
 3144SOL    HW2 9489   1.234   4.682   1.780 -0.2854  1.0158 -0.7411
 3145SOL     OW 9490   1.609   2.578   3.356  0.6041 -0.0730  0.1278
 3145SOL    HW1 9491   1.650   2.607   3.438  0.8680  0.5909 -0.2333
 3145SOL    HW2 9492   1.540   2.642   3.340  0.3925 -0.3421 -0.0480
 3146SOL     OW 9493   2.775   1.933   0.137  0.0299 -0.3111 -0.0406
 3146SOL    HW1 9494   2.723   2.010   0.113  0.8591 -0.2124 -1.6816
 3146SOL    HW2 9495   2.711   1.868   0.166 -1.0029 -0.0793 -1.6895
 3147SOL     OW 9496   3.666   2.251   4.417 -0.0275 -0.0104 -0.3563
 3147SOL    HW1 9497   3.588   2.307   4.412  0.5413  0.8319 -0.1801
 3147SOL    HW2 9498   3.678   2.235   4.510  0.2640  0.2455 -0.3471
 3148SOL     OW 9499   3.764   1.668   3.453 -0.1632  0.8334 -0.7530
 3148SOL    HW1 9500   3.742   1.677   3.361 -1.6155  1.3041 -0.3777
 3148SOL    HW2 9501   3.740   1.578   3.475  0.9148  0.4715 -1.0092
 3149SOL     OW 9502   3.405   2.753   4.896 -0.0385 -0.4637 -0.0361
 3149SOL    HW1 9503   3.355   2.740   4.976  0.1366  0.9753  0.3406
 3149SOL    HW2 9504   3.421   2.848   4.893  1.5399 -0.7215 -0.8086
 3150SOL     OW 9505   3.307   4.185   3.444 -0.2242  0.7760  0.2424
 3150SOL    HW1 9506   3.239   4.195   3.378 -0.0704 -0.1958 -0.0837
 3150SOL    HW2 9507   3.267   4.126   3.509  1.0271 -1.6889 -1.0659
 3151SOL     OW 9508   0.615   0.914   0.736  0.6177 -0.2409 -0.3270
 3151SOL    HW1 9509   0.688   0.976   0.736  1.1121 -0.8117  0.7867
 3151SOL    HW2 9510   0.608   0.884   0.826  0.3168 -1.7305 -0.8121
 3152SOL     OW 9511   3.189   1.322   0.708  0.2731  0.0425  0.7246
 3152SOL    HW1 9512   3.162   1.413   0.725  0.2195  0.3361 -0.8402
 3152SOL    HW2 9513   3.244   1.327   0.630  2.1234 -1.0089  1.8851
 3153SOL     OW 9514   4.239   4.107   2.778  0.1051 -0.4066  0.6517
 3153SOL    HW1 9515   4.321   4.067   2.807  0.9724  2.1152  1.9737
 3153SOL    HW2 9516   4.170   4.055   2.820  0.9379 -2.6282 -0.5651
 3154SOL     OW 9517   1.815   0.045   0.758 -0.2212 -0.4253  0.0158
 3154SOL    HW1 9518   1.865   0.127   0.753  0.8347 -0.9733  0.9290
 3154SOL    HW2 9519   1.856  -0.002   0.831 -0.4793 -1.9857 -0.8220
 3155SOL     OW 9520   1.279   1.638   0.508  0.2836 -0.2315 -0.7335
 3155SOL    HW1 9521   1.294   1.610   0.598  1.4593 -1.5618 -1.3014
 3155SOL    HW2 9522   1.195   1.601   0.484  0.4841 -0.8307 -0.5249
 3156SOL     OW 9523   4.492   3.713   4.580 -0.0038  0.0194 -0.1236
 3156SOL    HW1 9524   4.483   3.808   4.565 -1.1593  0.2257  1.6234
 3156SOL    HW2 9525   4.407   3.677   4.555  0.2681 -0.4881 -0.3146
 3157SOL     OW 9526   1.477   1.091   0.356 -0.1509 -0.2264  0.3665
 3157SOL    HW1 9527   1.463   1.186   0.352  0.4835 -0.1525 -2.1252
 3157SOL    HW2 9528   1.390   1.055   0.374 -1.2269  0.7353 -2.3525
 3158SOL     OW 9529   1.878   0.469   3.218  0.0178  0.6404 -0.0852
 3158SOL    HW1 9530   1.823   0.508   3.287 -2.4629  0.6171 -1.8876
 3158SOL    HW2 9531   1.909   0.387   3.255 -1.8245  0.3006  0.8229
 3159SOL     OW 9532   0.099   0.743   1.205 -0.1276 -0.4429  0.3951
 3159SOL    HW1 9533   0.131   0.817   1.153 -1.2700  0.0163  0.3307
 3159SOL    HW2 9534   0.056   0.686   1.141 -0.8208 -0.2799  0.7166
 3160SOL     OW 9535   2.712   2.779   0.101  0.0369 -0.1185  0.1057
 3160SOL    HW1 9536   2.782   2.844   0.099  0.8006 -0.9022 -2.5249
 3160SOL    HW2 9537   2.753   2.700   0.135 -0.0122 -0.1322  0.1342
 3161SOL     OW 9538   4.906   2.000   3.597  0.3482  0.2010 -0.2287
 3161SOL    HW1 9539   4.940   2.008   3.686  1.9004 -2.4499 -0.4953
 3161SOL    HW2 9540   4.927   2.084   3.556 -1.6739  2.0513  2.2213
 3162SOL     OW 9541   4.391   3.338   4.585  0.4388  0.2253 -0.9174
 3162SOL    HW1 9542   4.410   3.297   4.501 -0.0804  0.4779 -1.1612
 3162SOL    HW2 9543   4.475   3.338   4.631  0.6319 -0.3165 -1.2560
 3163SOL     OW 9544   0.078   0.375   3.464  0.2783 -0.3959 -0.2923
 3163SOL    HW1 9545   0.161   0.338   3.496 -0.2782 -1.1531  0.3022
 3163SOL    HW2 9546   0.031   0.401   3.543  0.3062  0.8670 -0.6620
 3164SOL     OW 9547   4.944   1.547   0.691  0.6944  0.6340  0.5090
 3164SOL    HW1 9548   4.863   1.536   0.741  1.3786  0.5180  1.6455
 3164SOL    HW2 9549   4.926   1.509   0.605  0.2822 -1.5952  1.5137
 3165SOL     OW 9550   1.401   3.209   2.283  0.3926 -0.7305  0.3769
 3165SOL    HW1 9551   1.485   3.166   2.266  0.8121 -0.0410  0.6902
 3165SOL    HW2 9552   1.353   3.200   2.200  0.8251 -1.0040  0.1509
 3166SOL     OW 9553   4.428   4.525   3.616  0.2549  0.1449  0.2833
 3166SOL    HW1 9554   4.398   4.450   3.668  0.6409 -0.6533 -0.6083
 3166SOL    HW2 9555   4.379   4.599   3.651  0.9917 -0.2237  2.2545
 3167SOL     OW 9556   2.963   2.201   0.360 -0.6630 -0.7478 -0.0698
 3167SOL    HW1 9557   2.944   2.115   0.398 -0.2403 -0.5840  0.5204
 3167SOL    HW2 9558   2.979   2.257   0.435  0.4051 -0.4656 -0.4907
 3168SOL     OW 9559   4.692   0.663   1.612 -0.0685 -0.3361 -0.2938
 3168SOL    HW1 9560   4.609   0.709   1.629  0.1803 -0.0861  0.2922
 3168SOL    HW2 9561   4.751   0.731   1.582 -0.2019 -0.5981 -1.1775
 3169SOL     OW 9562   0.884   2.863   2.840  0.2847  1.0040 -0.5006
 3169SOL    HW1 9563   0.901   2.933   2.777 -2.4724  1.9685 -0.3045
 3169SOL    HW2 9564   0.790   2.846   2.832  0.6895 -2.1420  0.0563
 3170SOL     OW 9565   3.524   3.851   4.910 -0.2622 -0.4511  0.0005
 3170SOL    HW1 9566   3.568   3.935   4.891  0.6446 -0.8370  0.3262
 3170SOL    HW2 9567   3.481   3.865   4.994  0.3953 -0.4969  0.3487
 3171SOL     OW 9568   3.990   0.690   0.437  0.2417 -0.1041 -0.3850
 3171SOL    HW1 9569   4.039   0.635   0.497  1.2077 -0.7338 -1.7117
 3171SOL    HW2 9570   3.905   0.704   0.480 -0.2488 -3.0508 -0.2339
 3172SOL     OW 9571   0.846   2.440   1.507 -0.4613  0.0483 -0.5329
 3172SOL    HW1 9572   0.767   2.408   1.465 -1.4653 -0.0938  1.3719
 3172SOL    HW2 9573   0.819   2.519   1.554  0.1344 -0.7868  1.3305
 3173SOL     OW 9574   2.003   3.309   4.156  0.3158 -0.1944  0.1289
 3173SOL    HW1 9575   1.944   3.312   4.080  0.9599 -1.4089 -0.4468
 3173SOL    HW2 9576   2.040   3.397   4.161 -2.1608  0.8998  1.0506
 3174SOL     OW 9577   0.542   2.330   3.932  0.4701 -0.6958 -0.5019
 3174SOL    HW1 9578   0.562   2.363   4.020 -0.3400 -0.3519 -0.4425
 3174SOL    HW2 9579   0.470   2.386   3.901  0.8798 -0.6842 -1.4639
 3175SOL     OW 9580   1.432   4.495   1.060 -0.5613 -0.5149  0.1222
 3175SOL    HW1 9581   1.476   4.437   0.999  0.6072  0.4520  0.0142
 3175SOL    HW2 9582   1.351   4.520   1.015 -0.4734 -1.0730 -0.3490
 3176SOL     OW 9583   1.256   2.453   2.163 -0.5250 -0.3153  0.0285
 3176SOL    HW1 9584   1.304   2.371   2.178 -0.7066  0.0328  3.0378
 3176SOL    HW2 9585   1.208   2.437   2.081 -0.3628 -3.1398  0.3696
 3177SOL     OW 9586   0.795   3.458   0.196 -0.1900 -0.2712  0.2555
 3177SOL    HW1 9587   0.763   3.386   0.251  0.1038 -2.2558 -2.0343
 3177SOL    HW2 9588   0.872   3.491   0.242 -0.2635 -1.4890  1.3143
 3178SOL     OW 9589   2.856   1.466   3.955 -0.2147  0.5150  0.0857
 3178SOL    HW1 9590   2.839   1.430   4.042 -1.9368 -0.3379 -0.5630
 3178SOL    HW2 9591   2.770   1.470   3.913  0.5836  0.8296 -1.6160
 3179SOL     OW 9592   3.823   2.727   3.369  0.0688 -0.2877 -0.0717
 3179SOL    HW1 9593   3.917   2.714   3.379  0.0875 -0.1231 -0.0291
 3179SOL    HW2 9594   3.797   2.664   3.302  0.1847 -0.4327  0.0199
 3180SOL     OW 9595   4.972   3.522   1.651 -0.0533 -0.5744 -0.2103
 3180SOL    HW1 9596   4.960   3.449   1.711  0.1802  0.5190  1.2424
 3180SOL    HW2 9597   5.066   3.522   1.631  0.0188 -0.4477  0.1148
 3181SOL     OW 9598   3.068   4.922   3.529  0.3816  0.1779 -0.1099
 3181SOL    HW1 9599   3.135   4.898   3.466 -0.1274 -1.6765 -0.0000
 3181SOL    HW2 9600   3.075   5.017   3.537  1.2698  0.3076 -2.0106
 3182SOL     OW 9601   3.435   3.277   0.902  0.4981  0.3282 -0.1437
 3182SOL    HW1 9602   3.438   3.202   0.842  0.8342  0.9569 -0.9371
 3182SOL    HW2 9603   3.527   3.293   0.924  0.5311  1.1618 -0.8369
 3183SOL     OW 9604   4.863   4.167   0.100 -0.3871 -0.7897  0.7954
 3183SOL    HW1 9605   4.945   4.180   0.051 -0.5752  0.4174  0.7582
 3183SOL    HW2 9606   4.797   4.155   0.033 -0.2814 -1.5578  0.8211
 3184SOL     OW 9607   0.667   1.004   4.342 -0.2510  0.5040  0.3643
 3184SOL    HW1 9608   0.763   1.009   4.346 -0.3307  2.0225  1.7199
 3184SOL    HW2 9609   0.643   1.070   4.278 -0.3885 -0.1299 -0.2437
 3185SOL     OW 9610   1.206   0.293   2.855  0.0091 -0.5657 -0.1037
 3185SOL    HW1 9611   1.292   0.294   2.812 -0.8594 -1.1560 -1.9710
 3185SOL    HW2 9612   1.222   0.330   2.942  2.0021  0.0480 -0.6781
 3186SOL     OW 9613   2.025   0.311   1.008  0.5881 -0.3421 -0.4227
 3186SOL    HW1 9614   2.047   0.396   1.047  0.1294 -0.0638 -0.7644
 3186SOL    HW2 9615   2.032   0.249   1.081 -0.7268  0.2431  0.2444
 3187SOL     OW 9616   0.228   1.311   4.878 -0.6164 -0.0692 -0.1140
 3187SOL    HW1 9617   0.255   1.344   4.964 -1.7314  2.2713 -0.5967
 3187SOL    HW2 9618   0.310   1.282   4.837  0.3351  1.4385  0.6550
 3188SOL     OW 9619   0.676   0.535   0.479 -0.0742  0.3193 -0.0549
 3188SOL    HW1 9620   0.600   0.506   0.529  0.6336 -0.0255  0.8515
 3188SOL    HW2 9621   0.685   0.628   0.500  1.2082 -0.1790  1.8485
 3189SOL     OW 9622   4.442   1.751   2.552  0.4543  0.2395  0.0684
 3189SOL    HW1 9623   4.374   1.704   2.503 -1.3548  2.1913  0.5954
 3189SOL    HW2 9624   4.439   1.713   2.639 -0.1709  0.5121  0.1674
 3190SOL     OW 9625   2.104   4.468   2.712 -0.0735  0.2774 -0.1276
 3190SOL    HW1 9626   2.153   4.542   2.676  0.2647 -0.0951 -0.4464
 3190SOL    HW2 9627   2.097   4.488   2.806  2.3299 -0.5273  0.2962
 3191SOL     OW 9628   4.596   0.690   0.409 -0.2555  0.3987  0.1511
 3191SOL    HW1 9629   4.509   0.723   0.429 -1.0690 -0.7005 -1.3494
 3191SOL    HW2 9630   4.586   0.647   0.324  1.4673 -0.8143  0.5135
 3192SOL     OW 9631   1.898   2.516   0.129 -0.0701  0.1774 -0.2409
 3192SOL    HW1 9632   1.981   2.541   0.170 -0.6570  0.6607  0.6723
 3192SOL    HW2 9633   1.855   2.599   0.109 -1.5295 -0.0260  1.7877
 3193SOL     OW 9634   2.739   4.251   4.085 -0.0284 -0.4200 -0.1768
 3193SOL    HW1 9635   2.746   4.220   4.175 -0.2412  3.5217  1.3693
 3193SOL    HW2 9636   2.679   4.189   4.043  0.8947 -2.9807  2.0143
 3194SOL     OW 9637   2.402   2.538   3.570 -0.1869  0.1413  0.0908
 3194SOL    HW1 9638   2.480   2.568   3.616 -1.1559  2.1225  0.5626
 3194SOL    HW2 9639   2.408   2.578   3.483 -1.2199  1.3808  0.5404
 3195SOL     OW 9640   3.428   2.426   4.399 -0.0459  0.3122  0.8198
 3195SOL    HW1 9641   3.474   2.499   4.358 -0.4026  0.1253  0.0622
 3195SOL    HW2 9642   3.358   2.467   4.450  0.4514  0.5524  1.3123
 3196SOL     OW 9643   4.838   2.518   4.590  0.0715  0.2565  0.4333
 3196SOL    HW1 9644   4.751   2.496   4.625 -0.6159 -0.2957 -1.4345
 3196SOL    HW2 9645   4.872   2.585   4.648 -1.7804  0.7351  1.0315
 3197SOL     OW 9646   2.558   3.862   4.522 -0.0156  0.1284  0.0780
 3197SOL    HW1 9647   2.640   3.906   4.500  1.1728 -1.8574  0.2460
 3197SOL    HW2 9648   2.532   3.900   4.606  0.6529  0.9082 -0.0625
 3198SOL     OW 9649   4.642   0.759   0.760 -0.1022 -0.3184 -0.1162
 3198SOL    HW1 9650   4.607   0.848   0.754  1.0589  0.3400  1.8660
 3198SOL    HW2 9651   4.737   0.770   0.752  0.0916 -1.2871  0.6563
 3199SOL     OW 9652   1.771   3.120   1.013 -0.4109  0.5348  0.1850
 3199SOL    HW1 9653   1.818   3.063   1.073  1.5301  0.8049 -0.9837
 3199SOL    HW2 9654   1.816   3.205   1.020 -0.6454  0.7803 -1.0318
 3200SOL     OW 9655   4.090   0.694   3.337 -0.1297 -0.2315 -0.1449
 3200SOL    HW1 9656   4.182   0.676   3.357  0.2039  2.4683  1.2111
 3200SOL    HW2 9657   4.092   0.739   3.252 -0.1970 -0.2255 -0.1434
 3201SOL     OW 9658   2.312   0.636   4.939 -0.3632  0.6071  0.4607
 3201SOL    HW1 9659   2.347   0.703   4.997 -1.4569  0.5492  1.2051
 3201SOL    HW2 9660   2.233   0.605   4.982  0.0264 -1.0749  0.0653
 3202SOL     OW 9661   0.192   3.027   2.735 -0.3056 -0.0039  0.2579
 3202SOL    HW1 9662   0.221   3.070   2.655 -0.2884 -0.0789  0.2238
 3202SOL    HW2 9663   0.174   3.098   2.796 -0.9597  0.0825 -0.0287
 3203SOL     OW 9664   1.443   3.651   3.252 -0.0539  0.0838  0.2835
 3203SOL    HW1 9665   1.524   3.700   3.265  0.1551  0.1128 -0.9941
 3203SOL    HW2 9666   1.418   3.669   3.161 -2.3287  1.3044  1.0803
 3204SOL     OW 9667   2.864   3.797   4.270 -0.5667  0.2444 -0.3088
 3204SOL    HW1 9668   2.779   3.756   4.257  0.6701 -1.7257 -3.0290
 3204SOL    HW2 9669   2.927   3.726   4.262  1.4485  1.7904  0.7043
 3205SOL     OW 9670   3.259   0.160   0.616  0.1278 -0.0346  0.1612
 3205SOL    HW1 9671   3.328   0.114   0.569  0.2027  0.7098 -0.4754
 3205SOL    HW2 9672   3.227   0.096   0.680  0.8575 -0.6495 -0.0732
 3206SOL     OW 9673   0.927   4.183   4.360  1.2592 -0.0693  0.0312
 3206SOL    HW1 9674   1.008   4.156   4.318 -0.4705 -1.0413 -3.0315
 3206SOL    HW2 9675   0.901   4.263   4.313  0.8487  0.7303  1.5518
 3207SOL     OW 9676   0.832   3.703   4.748  0.4695 -0.3983 -0.3924
 3207SOL    HW1 9677   0.774   3.627   4.748  1.2471 -1.0173 -1.3785
 3207SOL    HW2 9678   0.920   3.666   4.756  0.9873  0.2305 -2.5178
 3208SOL     OW 9679   4.165   0.764   3.648  0.2563  0.3953 -0.4252
 3208SOL    HW1 9680   4.091   0.711   3.619 -0.0930  0.3694  0.4986
 3208SOL    HW2 9681   4.234   0.701   3.669 -0.1098  0.2999  0.5317
 3209SOL     OW 9682   2.268   0.905   0.412 -0.4549  0.5569  0.1591
 3209SOL    HW1 9683   2.278   0.952   0.495 -0.1968  0.0988  0.3946
 3209SOL    HW2 9684   2.175   0.906   0.394 -0.3287  2.3155 -0.5233
 3210SOL     OW 9685   4.931   3.745   3.638 -0.8003 -0.2777  0.0945
 3210SOL    HW1 9686   4.954   3.689   3.564  1.5868 -0.6884  1.0640
 3210SOL    HW2 9687   4.885   3.686   3.699 -0.0760 -0.7083  0.2364
 3211SOL     OW 9688   4.175   0.286   1.908  0.2225  0.2507  0.1647
 3211SOL    HW1 9689   4.255   0.304   1.956 -0.4705  2.4345  0.6477
 3211SOL    HW2 9690   4.128   0.221   1.961  1.0286  0.0233  0.6084
 3212SOL     OW 9691   0.590   0.159   4.162  0.0335  0.4348  0.3757
 3212SOL    HW1 9692   0.558   0.246   4.138 -1.3851  0.8532  3.4383
 3212SOL    HW2 9693   0.543   0.099   4.104 -0.4922  1.5563 -0.3850
 3213SOL     OW 9694   2.424   4.739   0.546 -0.7012  0.2592  0.1843
 3213SOL    HW1 9695   2.375   4.705   0.621 -1.9962  0.6199 -0.4593
 3213SOL    HW2 9696   2.488   4.800   0.584  0.4222 -1.4737  1.1847
 3214SOL     OW 9697   1.593   2.930   4.692  0.0855 -0.1184 -0.1820
 3214SOL    HW1 9698   1.681   2.893   4.683 -0.3878 -1.9337  1.7793
 3214SOL    HW2 9699   1.562   2.940   4.602  1.3847 -1.7663 -0.8685
 3215SOL     OW 9700   3.462   0.976   3.858 -0.1644 -0.1944 -0.6552
 3215SOL    HW1 9701   3.531   0.909   3.854 -0.6900 -0.9161  1.3635
 3215SOL    HW2 9702   3.506   1.054   3.893  0.1875  0.1982 -1.9152
 3216SOL     OW 9703   4.101   3.392   0.657  0.0683 -0.5716 -0.1212
 3216SOL    HW1 9704   4.196   3.378   0.653  0.0203 -0.8521 -0.2659
 3216SOL    HW2 9705   4.090   3.483   0.630  0.5190  0.3469  2.4956
 3217SOL     OW 9706   1.880   1.223   3.551 -0.6942  0.0454  0.1083
 3217SOL    HW1 9707   1.925   1.296   3.509 -1.8502  0.3223 -0.6865
 3217SOL    HW2 9708   1.878   1.246   3.644  3.0387 -1.1600  0.6597
 3218SOL     OW 9709   3.795   1.804   1.617 -0.3828 -0.0709 -0.6669
 3218SOL    HW1 9710   3.859   1.735   1.636  0.6518  0.4769 -2.0419
 3218SOL    HW2 9711   3.815   1.872   1.682 -1.6368 -1.1428  0.9305
 3219SOL     OW 9712   3.723   4.757   3.721  0.1166  0.2153  0.2749
 3219SOL    HW1 9713   3.669   4.807   3.783 -0.8503 -0.3368 -0.0962
 3219SOL    HW2 9714   3.661   4.697   3.679  0.5490  1.1895 -1.8960
 3220SOL     OW 9715   1.064   1.632   4.212 -0.2444  0.1993 -0.4983
 3220SOL    HW1 9716   1.120   1.709   4.221  0.3841  0.0216 -2.4980
 3220SOL    HW2 9717   0.981   1.667   4.179  0.2820 -0.0368 -2.1104
 3221SOL     OW 9718   2.307   0.746   4.681 -0.0707  0.2392 -0.1459
 3221SOL    HW1 9719   2.225   0.737   4.631 -0.6395 -2.0496  1.0934
 3221SOL    HW2 9720   2.282   0.729   4.772  2.0821 -2.7845  0.0164
 3222SOL     OW 9721   1.420   1.929   3.375  0.1389  0.0281  0.2914
 3222SOL    HW1 9722   1.422   1.951   3.468 -0.5507  1.0749  0.0832
 3222SOL    HW2 9723   1.354   1.860   3.368 -0.8693  0.9507  0.4112
 3223SOL     OW 9724   1.482   0.446   1.665  0.5512 -0.1964 -0.4112
 3223SOL    HW1 9725   1.472   0.524   1.719  2.8492 -0.3601  0.3291
 3223SOL    HW2 9726   1.574   0.445   1.640  0.6917 -2.8654 -0.0600
 3224SOL     OW 9727   0.313   2.721   0.463 -0.4198 -0.1228  0.2679
 3224SOL    HW1 9728   0.401   2.720   0.501 -0.0666  1.2492 -0.4831
 3224SOL    HW2 9729   0.259   2.678   0.530  0.5818  0.1836  1.3170
 3225SOL     OW 9730   2.403   0.080   1.041  1.2657 -0.9285  0.0573
 3225SOL    HW1 9731   2.398  -0.009   1.006 -3.3466 -0.5695 -0.7938
 3225SOL    HW2 9732   2.380   0.070   1.134 -0.4112 -0.6079 -0.2933
 3226SOL     OW 9733   1.557   4.770   4.511  0.1554  0.2694 -0.5172
 3226SOL    HW1 9734   1.621   4.716   4.465 -1.2518  0.7398 -3.2074
 3226SOL    HW2 9735   1.567   4.858   4.474  0.6505  1.3458  1.9429
 3227SOL     OW 9736   3.473   4.695   2.626 -0.4167 -0.4365 -0.1572
 3227SOL    HW1 9737   3.382   4.690   2.599 -0.5084 -1.0398  0.2395
 3227SOL    HW2 9738   3.472   4.749   2.705 -0.8650 -2.7504  1.5493
 3228SOL     OW 9739   1.375   3.617   4.757  0.0884  0.5732  0.7688
 3228SOL    HW1 9740   1.439   3.553   4.723 -0.1175  0.4550  0.5951
 3228SOL    HW2 9741   1.425   3.698   4.767 -0.4142  1.4523 -2.5483
 3229SOL     OW 9742   2.734   4.457   4.577 -0.0781 -0.0199  0.1491
 3229SOL    HW1 9743   2.698   4.520   4.515  0.1421  0.2026  0.2452
 3229SOL    HW2 9744   2.658   4.424   4.626 -0.0279  1.4406  1.2746
 3230SOL     OW 9745   0.231   1.982   4.381  0.2033  0.7348 -0.4477
 3230SOL    HW1 9746   0.231   2.056   4.320 -0.7805  2.1211  1.1390
 3230SOL    HW2 9747   0.172   2.010   4.452 -0.7838 -1.8863 -0.1476
 3231SOL     OW 9748   2.085   2.086   2.422  0.1985  0.5025  0.0977
 3231SOL    HW1 9749   2.115   2.140   2.495  1.4299 -0.6399  0.4729
 3231SOL    HW2 9750   2.077   2.148   2.349 -0.5187  1.5639  1.0384
 3232SOL     OW 9751   0.979   0.787   3.440  0.3722 -0.4616  0.0787
 3232SOL    HW1 9752   1.001   0.842   3.365  1.5633  0.3864  1.0128
 3232SOL    HW2 9753   0.914   0.838   3.489 -0.8622 -1.2761 -0.6479
 3233SOL     OW 9754   4.009   1.011   1.147 -0.0485  0.0347  0.8805
 3233SOL    HW1 9755   3.930   0.985   1.194  0.1032 -1.3226  0.4371
 3233SOL    HW2 9756   4.011   1.106   1.153 -1.9962  0.1366  0.4185
 3234SOL     OW 9757   4.974   4.471   4.291 -0.4979 -0.1937  0.3058
 3234SOL    HW1 9758   4.889   4.450   4.332 -1.0908 -0.8306 -1.1672
 3234SOL    HW2 9759   5.033   4.487   4.365 -2.2015  1.6147  1.3835
 3235SOL     OW 9760   1.783   1.197   2.784 -0.1697 -0.4459  0.3058
 3235SOL    HW1 9761   1.795   1.154   2.700  2.2161  0.8347 -0.0989
 3235SOL    HW2 9762   1.743   1.130   2.840 -2.0718 -1.2417 -1.8467
 3236SOL     OW 9763   3.288   0.587   2.497  0.1236 -0.1037 -0.2248
 3236SOL    HW1 9764   3.291   0.667   2.549 -1.0015  0.5115 -1.0640
 3236SOL    HW2 9765   3.262   0.519   2.559  2.3872 -0.1231  0.7968
 3237SOL     OW 9766   1.190   2.252   4.374 -0.0392 -0.4562  0.3764
 3237SOL    HW1 9767   1.254   2.241   4.304 -1.2819 -1.8351 -0.6169
 3237SOL    HW2 9768   1.157   2.163   4.390 -1.1395  0.1078  1.4006
 3238SOL     OW 9769   4.330   3.954   1.425 -0.3298 -0.3880 -0.3424
 3238SOL    HW1 9770   4.335   3.958   1.520  1.4418  1.0883 -0.4333
 3238SOL    HW2 9771   4.421   3.965   1.396 -1.1738  2.8152 -2.2620
 3239SOL     OW 9772   4.090   1.682   4.398  0.1839  0.5034 -0.4080
 3239SOL    HW1 9773   4.082   1.662   4.491  0.4569 -1.3940 -0.7542
 3239SOL    HW2 9774   4.184   1.687   4.382  0.2392 -1.8125 -1.0522
 3240SOL     OW 9775   0.695   1.381   3.503  0.4398  0.4088  0.7452
 3240SOL    HW1 9776   0.616   1.419   3.542  0.8596 -0.1121  2.1470
 3240SOL    HW2 9777   0.668   1.292   3.477  0.5207  0.2809  1.0936
 3241SOL     OW 9778   4.499   2.584   3.892 -0.1864 -0.2027 -0.5568
 3241SOL    HW1 9779   4.469   2.510   3.945  1.7398 -0.7584 -0.1687
 3241SOL    HW2 9780   4.565   2.547   3.834  2.2422  1.4676  0.9332
 3242SOL     OW 9781   3.789   3.595   0.579  0.2508 -0.4158 -0.3220
 3242SOL    HW1 9782   3.806   3.543   0.501 -0.9956 -0.4038 -0.6278
 3242SOL    HW2 9783   3.875   3.607   0.619  0.7449 -1.4968 -1.0026
 3243SOL     OW 9784   1.407   1.204   1.087 -0.1019 -0.1650 -1.0859
 3243SOL    HW1 9785   1.426   1.224   1.179  0.9036 -0.2795 -1.2586
 3243SOL    HW2 9786   1.398   1.290   1.045  1.0298 -0.0838 -1.1884
 3244SOL     OW 9787   0.407   2.737   1.876 -0.0869 -0.1285 -0.9700
 3244SOL    HW1 9788   0.469   2.759   1.807 -0.9763 -0.5851 -1.9352
 3244SOL    HW2 9789   0.386   2.821   1.917  0.3053  0.1644 -1.3652
 3245SOL     OW 9790   4.921   0.497   2.363  0.3491  0.3331 -0.5192
 3245SOL    HW1 9791   4.901   0.560   2.432 -0.1023 -1.3731  0.9822
 3245SOL    HW2 9792   4.912   0.546   2.281  0.2768  2.2493  0.5949
 3246SOL     OW 9793   3.998   4.007   2.077 -0.4753 -0.3580  0.0671
 3246SOL    HW1 9794   4.004   3.928   2.022  0.1925 -1.2873  1.4192
 3246SOL    HW2 9795   3.986   4.078   2.015 -1.3481 -1.5392 -1.1911
 3247SOL     OW 9796   3.507   3.294   4.339  0.0410  0.7052  0.3892
 3247SOL    HW1 9797   3.491   3.235   4.265  0.8438  0.7746  0.1444
 3247SOL    HW2 9798   3.421   3.312   4.375 -0.2760 -0.0924  0.0531
 3248SOL     OW 9799   2.753   0.311   0.764  0.0405  0.9995  0.0392
 3248SOL    HW1 9800   2.722   0.400   0.779 -0.1416  0.7364  1.3256
 3248SOL    HW2 9801   2.848   0.320   0.752  0.1622  1.2881  1.1005
 3249SOL     OW 9802   2.682   3.600   1.166  0.1306  0.3622  0.3296
 3249SOL    HW1 9803   2.776   3.607   1.148  0.2994  2.0919  1.6118
 3249SOL    HW2 9804   2.674   3.523   1.222  0.8494  0.4655  0.5864
 3250SOL     OW 9805   3.853   4.502   1.034  0.3248 -0.4053 -0.1231
 3250SOL    HW1 9806   3.943   4.534   1.028 -0.0752  0.5040 -2.5337
 3250SOL    HW2 9807   3.834   4.500   1.128  2.5163  0.3245  0.3938
 3251SOL     OW 9808   3.910   2.248   1.595  0.3820  0.2006  0.2292
 3251SOL    HW1 9809   3.894   2.341   1.610  0.2091 -0.1593  2.6474
 3251SOL    HW2 9810   3.915   2.239   1.500 -2.1697  2.2433 -0.1980
 3252SOL     OW 9811   0.096   4.866   3.781  0.1130  0.1861 -0.0523
 3252SOL    HW1 9812   0.092   4.802   3.710 -1.0767  1.4606 -1.1989
 3252SOL    HW2 9813   0.090   4.814   3.861 -2.0978 -1.0776 -0.9647
 3253SOL     OW 9814   1.947   4.250   4.414 -0.3844  1.2730 -0.6519
 3253SOL    HW1 9815   2.021   4.298   4.450  0.7937 -0.0455 -1.1988
 3253SOL    HW2 9816   1.965   4.158   4.435 -1.6677  0.8832 -1.1418
 3254SOL     OW 9817   0.317   2.779   4.278  0.4021  0.8901 -1.2054
 3254SOL    HW1 9818   0.288   2.695   4.241 -0.3312  0.7872 -0.4230
 3254SOL    HW2 9819   0.238   2.833   4.282 -0.1384  0.1094  2.2863
 3255SOL     OW 9820   3.837   2.763   1.914  1.0723 -0.1264  0.4336
 3255SOL    HW1 9821   3.916   2.811   1.938  0.8803  1.1211 -1.2729
 3255SOL    HW2 9822   3.858   2.724   1.829  0.3091 -0.9344  0.5984
 3256SOL     OW 9823   3.254   1.275   0.953  0.2255  0.4072 -0.4123
 3256SOL    HW1 9824   3.198   1.337   1.000  1.2943  1.1774 -0.1461
 3256SOL    HW2 9825   3.230   1.286   0.861  0.0164  0.8046 -0.3130
 3257SOL     OW 9826   2.659   2.690   4.227 -0.3597 -0.1290 -0.2415
 3257SOL    HW1 9827   2.575   2.668   4.188 -0.4856 -2.7217  1.2150
 3257SOL    HW2 9828   2.723   2.673   4.158 -0.6494 -3.8543  0.1577
 3258SOL     OW 9829   2.444   1.086   0.565  0.2456  0.1151 -0.3806
 3258SOL    HW1 9830   2.393   1.131   0.633 -0.8001 -1.0200 -0.3887
 3258SOL    HW2 9831   2.427   1.136   0.486  0.8725  1.0101  0.0401
 3259SOL     OW 9832   3.437   1.986   2.428  0.1951 -0.0939 -0.4339
 3259SOL    HW1 9833   3.499   1.988   2.501 -0.7625 -0.0117  0.3896
 3259SOL    HW2 9834   3.388   2.068   2.436 -1.2189 -0.9527 -0.0058
 3260SOL     OW 9835   4.017   4.295   4.390 -0.0484 -0.6508 -0.2973
 3260SOL    HW1 9836   3.965   4.354   4.334 -0.1661 -0.1512  0.3335
 3260SOL    HW2 9837   4.097   4.344   4.408  0.5768 -1.3501 -1.1180
 3261SOL     OW 9838   3.559   3.408   2.317  0.1604 -0.3086  0.2272
 3261SOL    HW1 9839   3.467   3.391   2.334 -0.1300  1.8261  1.1211
 3261SOL    HW2 9840   3.591   3.328   2.276 -2.2665 -0.8204 -0.8534
 3262SOL     OW 9841   2.083   2.785   3.441 -0.3657 -0.4861 -0.2344
 3262SOL    HW1 9842   2.056   2.711   3.496 -0.3705 -0.4414 -0.1771
 3262SOL    HW2 9843   2.122   2.847   3.502 -3.9369  1.3912  0.4143
 3263SOL     OW 9844   1.001   3.646   0.215 -0.6310 -0.1083  0.0590
 3263SOL    HW1 9845   1.056   3.634   0.137  2.1715  1.1253  1.6715
 3263SOL    HW2 9846   0.992   3.741   0.224  1.0198 -0.0508  2.3087
 3264SOL     OW 9847   3.413   4.927   2.147  0.0468  0.1515 -0.4761
 3264SOL    HW1 9848   3.507   4.915   2.156 -0.0493 -0.2364  0.0795
 3264SOL    HW2 9849   3.376   4.840   2.162 -0.4104  0.3356 -0.5080
 3265SOL     OW 9850   3.478   0.403   4.339  0.0476  0.3468 -0.0545
 3265SOL    HW1 9851   3.391   0.364   4.338 -0.1133  0.6087  1.2333
 3265SOL    HW2 9852   3.463   0.493   4.368  0.8308  0.0848  1.2418
 3266SOL     OW 9853   4.690   3.326   0.395  0.1762 -0.3335 -0.2703
 3266SOL    HW1 9854   4.661   3.410   0.430  0.8261 -0.5059  0.7226
 3266SOL    HW2 9855   4.671   3.331   0.301 -0.3964  0.6548 -0.1122
 3267SOL     OW 9856   2.213   2.548   3.252 -0.1406 -0.1863  0.4307
 3267SOL    HW1 9857   2.132   2.573   3.208  1.0192  2.6518 -0.3204
 3267SOL    HW2 9858   2.185   2.489   3.322 -2.6569 -0.4932 -0.7186
 3268SOL     OW 9859   4.711   0.254   1.080  0.3978  0.1157  0.2151
 3268SOL    HW1 9860   4.667   0.319   1.026 -2.7434 -1.2689  0.8943
 3268SOL    HW2 9861   4.762   0.202   1.017  0.8879  1.5772 -0.6554
 3269SOL     OW 9862   4.380   3.724   1.801  0.8139 -0.0091 -0.2932
 3269SOL    HW1 9863   4.340   3.719   1.714  1.5143  1.0563 -0.6944
 3269SOL    HW2 9864   4.395   3.818   1.815  0.5063 -0.1339  1.0793
 3270SOL     OW 9865   1.231   4.162   4.339 -0.4402  0.0274 -0.0578
 3270SOL    HW1 9866   1.324   4.142   4.333  0.1489  2.2785  0.7850
 3270SOL    HW2 9867   1.200   4.157   4.249  1.1525  2.0473 -0.7866
 3271SOL     OW 9868   0.277   0.783   4.506  0.2484 -0.6981  0.3993
 3271SOL    HW1 9869   0.237   0.799   4.592 -0.7812 -0.7472 -0.0571
 3271SOL    HW2 9870   0.260   0.863   4.456 -1.6948 -1.7312 -0.6862
 3272SOL     OW 9871   1.421   1.003   1.847  0.1983 -0.1979 -0.1747
 3272SOL    HW1 9872   1.445   0.950   1.771 -1.1362 -2.0019  0.5794
 3272SOL    HW2 9873   1.373   1.077   1.811 -1.8637 -1.8689 -1.0771
 3273SOL     OW 9874   4.020   4.957   3.369  0.6012 -0.0229 -0.2578
 3273SOL    HW1 9875   3.980   4.872   3.351  0.5980  0.0046 -0.3850
 3273SOL    HW2 9876   4.012   4.969   3.463  1.8896 -0.8144 -0.0261
 3274SOL     OW 9877   4.067   4.721   2.212 -0.3884 -0.0854  0.2923
 3274SOL    HW1 9878   4.156   4.749   2.232  0.7215 -3.4897  0.6743
 3274SOL    HW2 9879   4.017   4.746   2.290  0.2762  1.5290  0.2343
 3275SOL     OW 9880   2.830   2.336   3.736 -0.0919 -0.0633  0.1779
 3275SOL    HW1 9881   2.780   2.279   3.794 -1.0872 -0.6356 -1.1934
 3275SOL    HW2 9882   2.787   2.422   3.743 -2.5873 -0.9464 -2.3498
 3276SOL     OW 9883   3.008   0.011   0.279  0.2537 -0.2774 -0.0700
 3276SOL    HW1 9884   3.055  -0.067   0.306 -1.2757 -1.0863  0.3979
 3276SOL    HW2 9885   2.930   0.012   0.335 -0.4969  0.7629 -1.0968
 3277SOL     OW 9886   4.627   1.685   3.968  0.3294  0.4792 -0.7977
 3277SOL    HW1 9887   4.632   1.772   3.929  0.9408  0.4824 -0.7181
 3277SOL    HW2 9888   4.593   1.630   3.898 -0.9173  0.9335 -0.5849
 3278SOL     OW 9889   0.621   0.439   4.296 -0.1482  0.2423  0.0988
 3278SOL    HW1 9890   0.581   0.523   4.318  0.7385  0.5242  0.7166
 3278SOL    HW2 9891   0.548   0.382   4.274 -1.0418  0.2870  2.6585
 3279SOL     OW 9892   1.496   4.037   1.010  0.4751  0.1876 -0.4221
 3279SOL    HW1 9893   1.532   3.988   0.936  0.4745 -1.0888  0.3928
 3279SOL    HW2 9894   1.410   4.066   0.980 -0.1141 -1.5055 -0.4684
 3280SOL     OW 9895   0.607   0.119   0.170  0.4761  0.0135 -0.0987
 3280SOL    HW1 9896   0.663   0.178   0.119  1.5603 -1.1670 -0.3357
 3280SOL    HW2 9897   0.642   0.124   0.259  1.2547 -1.0176 -0.3230
 3281SOL     OW 9898   3.207   1.215   4.084  0.1023 -0.1170  0.0593
 3281SOL    HW1 9899   3.205   1.295   4.032  0.2669  0.9933  1.6956
 3281SOL    HW2 9900   3.119   1.208   4.121  0.3644 -0.1557  0.6852
 3282SOL     OW 9901   0.438   0.551   1.978 -0.1627 -0.0706  0.1412
 3282SOL    HW1 9902   0.361   0.574   2.030  0.7565  1.8860  0.7362
 3282SOL    HW2 9903   0.484   0.486   2.032 -1.3346 -1.2266 -0.2058
 3283SOL     OW 9904   1.301   0.389   0.473 -0.5711 -0.0522  0.2724
 3283SOL    HW1 9905   1.269   0.451   0.408  0.6243 -0.1836 -0.4686
 3283SOL    HW2 9906   1.228   0.380   0.535 -0.9775  1.6255  0.0901
 3284SOL     OW 9907   2.453   0.393   4.466 -0.4368  0.3001 -0.0567
 3284SOL    HW1 9908   2.541   0.381   4.430  0.2497  0.8676  1.3579
 3284SOL    HW2 9909   2.441   0.488   4.469 -1.3418  0.2213 -0.7649
 3285SOL     OW 9910   3.187   2.689   2.123  0.0221  0.5488 -0.1182
 3285SOL    HW1 9911   3.257   2.633   2.090  0.6635  0.2988  1.5629
 3285SOL    HW2 9912   3.226   2.735   2.197 -1.1309  1.6285 -0.1425
 3286SOL     OW 9913   0.316   2.236   0.351 -0.6248 -0.2585  0.7631
 3286SOL    HW1 9914   0.235   2.194   0.325 -0.4284 -0.3605  0.2907
 3286SOL    HW2 9915   0.322   2.314   0.295 -0.4705 -0.1697  0.8995
 3287SOL     OW 9916   4.150   4.467   2.133 -0.1945 -0.0894 -0.2251
 3287SOL    HW1 9917   4.112   4.552   2.157 -0.2370 -0.5407  1.4435
 3287SOL    HW2 9918   4.244   4.484   2.128 -0.3385  0.4478 -1.8006
 3288SOL     OW 9919   1.806   1.981   4.419 -0.1217  0.0014  0.5253
 3288SOL    HW1 9920   1.821   1.927   4.497 -1.0679 -0.4044  0.4453
 3288SOL    HW2 9921   1.716   2.013   4.429 -1.4132 -2.4389 -1.7385
 3289SOL     OW 9922   0.541   1.547   0.370 -0.2046 -0.5298 -0.3417
 3289SOL    HW1 9923   0.530   1.564   0.276  1.2555 -0.4259 -0.5198
 3289SOL    HW2 9924   0.523   1.631   0.411  1.1072 -0.0266 -0.7264
 3290SOL     OW 9925   4.714   2.158   3.756  0.1457 -0.1717  0.8010
 3290SOL    HW1 9926   4.628   2.139   3.720  0.0359  1.4417  0.1203
 3290SOL    HW2 9927   4.775   2.132   3.686  0.0732  0.7105  0.4018
 3291SOL     OW 9928   0.949   3.729   3.833  0.6626 -0.1708  0.2418
 3291SOL    HW1 9929   0.926   3.642   3.868  1.5590 -0.8502 -0.7996
 3291SOL    HW2 9930   0.965   3.714   3.740 -0.2891  1.3449 -0.2081
 3292SOL     OW 9931   2.808   2.431   4.540  0.5034 -0.4177 -0.0432
 3292SOL    HW1 9932   2.758   2.504   4.503  0.6235 -0.1240  0.3720
 3292SOL    HW2 9933   2.872   2.473   4.598  0.9227 -0.8203 -0.2130
 3293SOL     OW 9934   2.630   0.933   2.132 -0.0962  0.3372 -0.7415
 3293SOL    HW1 9935   2.557   0.990   2.107  0.8047  1.1522 -1.5868
 3293SOL    HW2 9936   2.690   0.990   2.180  0.8842  0.1606 -1.7232
 3294SOL     OW 9937   0.239   0.442   2.225 -0.3867  0.3099  0.5060
 3294SOL    HW1 9938   0.307   0.403   2.171 -0.3122  0.4410  0.5046
 3294SOL    HW2 9939   0.173   0.373   2.235  0.1659 -0.1225  1.2587
 3295SOL     OW 9940   1.926   3.287   0.298 -0.1979  0.0594  0.5758
 3295SOL    HW1 9941   1.842   3.291   0.253 -0.0544  1.0912  0.3771
 3295SOL    HW2 9942   1.990   3.314   0.232  0.1661  0.2772  1.0135
 3296SOL     OW 9943   2.645   3.869   2.204  0.0714 -0.0917 -0.1453
 3296SOL    HW1 9944   2.654   3.906   2.291  1.3754 -0.6041 -0.0361
 3296SOL    HW2 9945   2.590   3.931   2.157  0.4541  0.8771  0.6518
 3297SOL     OW 9946   4.643   3.969   3.090  0.0333  0.3432  0.4830
 3297SOL    HW1 9947   4.594   3.930   3.163  0.7958  0.9508  1.3441
 3297SOL    HW2 9948   4.639   4.063   3.107  0.1072  0.5018 -0.3473
 3298SOL     OW 9949   3.755   4.916   2.446 -0.3607  0.4454  0.3052
 3298SOL    HW1 9950   3.794   4.828   2.453 -1.4322  0.0632  2.8346
 3298SOL    HW2 9951   3.825   4.975   2.475 -0.5873  0.0674  1.7235
 3299SOL     OW 9952   4.701   2.250   3.021 -0.0486 -0.1980 -0.4808
 3299SOL    HW1 9953   4.727   2.208   3.103  0.6824 -1.3886 -1.3016
 3299SOL    HW2 9954   4.614   2.286   3.039 -0.3153 -1.2927  0.5142
 3300SOL     OW 9955   4.191   0.917   2.141 -0.4905  0.2695 -0.5063
 3300SOL    HW1 9956   4.217   0.834   2.102 -0.1863 -0.9736  2.1359
 3300SOL    HW2 9957   4.104   0.901   2.177 -1.1573  1.6501 -1.4133
 3301SOL     OW 9958   0.724   1.630   3.379  0.2030  0.0611  0.3293
 3301SOL    HW1 9959   0.737   1.564   3.447 -0.4679  0.2154  0.6177
 3301SOL    HW2 9960   0.647   1.601   3.331  0.4812  0.1246 -0.1606
 3302SOL     OW 9961   4.026   3.140   3.992 -0.8197 -0.7679 -0.2771
 3302SOL    HW1 9962   4.071   3.148   4.076 -1.8685  0.6395  0.1966
 3302SOL    HW2 9963   4.030   3.047   3.971  0.2527 -1.0082  0.8849
 3303SOL     OW 9964   0.586   3.443   1.494  0.3605  0.2200  0.0703
 3303SOL    HW1 9965   0.534   3.362   1.500 -0.5246  0.6487 -1.2823
 3303SOL    HW2 9966   0.597   3.471   1.585 -1.6237 -0.0188  0.4429
 3304SOL     OW 9967   2.103   2.914   3.214  0.1927 -0.1140 -0.2304
 3304SOL    HW1 9968   2.137   2.990   3.260 -0.5781  0.5187 -0.6774
 3304SOL    HW2 9969   2.070   2.857   3.283  1.5653 -0.4649  0.1701
 3305SOL     OW 9970   4.804   3.254   4.266 -0.4882 -0.7353 -0.6188
 3305SOL    HW1 9971   4.849   3.206   4.196 -0.4034 -0.5679 -0.6807
 3305SOL    HW2 9972   4.762   3.187   4.319  0.2660 -0.9292 -0.2598
 3306SOL     OW 9973   2.695   2.047   2.436  0.0481 -0.1334  0.3907
 3306SOL    HW1 9974   2.687   1.981   2.367 -0.0590 -1.3705  1.5430
 3306SOL    HW2 9975   2.605   2.079   2.450 -0.2167 -1.1743  1.1604
 3307SOL     OW 9976   2.033   2.349   3.401 -0.0271  0.2771  0.6148
 3307SOL    HW1 9977   1.950   2.374   3.361 -1.1328 -0.1586  2.5269
 3307SOL    HW2 9978   2.009   2.299   3.479  2.0455 -0.4006  0.9015
 3308SOL     OW 9979   0.961   4.206   1.199  0.1972 -0.4196  0.5647
 3308SOL    HW1 9980   1.049   4.184   1.229  1.3221  1.8447 -0.8436
 3308SOL    HW2 9981   0.930   4.126   1.156  2.7689 -0.4754 -1.4619
 3309SOL     OW 9982   0.121   2.465   0.067  0.2258  0.0007  1.0464
 3309SOL    HW1 9983   0.128   2.541   0.009  0.1283  0.0408  1.0878
 3309SOL    HW2 9984   0.202   2.467   0.118  0.7772 -0.6050  0.2210
 3310SOL     OW 9985   3.120   4.662   1.678  0.0731 -0.2064 -0.8666
 3310SOL    HW1 9986   3.076   4.747   1.670  0.4075  0.0642  0.0544
 3310SOL    HW2 9987   3.204   4.682   1.718  1.2212 -0.6853 -2.9092
 3311SOL     OW 9988   2.612   4.535   2.179  0.2757 -0.5996  0.4265
 3311SOL    HW1 9989   2.688   4.515   2.234 -0.5621  0.0505  1.8982
 3311SOL    HW2 9990   2.626   4.485   2.099  2.0076 -0.8695  0.8621
 3312SOL     OW 9991   1.234   4.026   4.951 -0.0558  0.3287 -0.1925
 3312SOL    HW1 9992   1.193   4.048   5.034  1.7187  0.1198  0.7812
 3312SOL    HW2 9993   1.161   4.000   4.894 -1.1825 -1.1737  1.8123
 3313SOL     OW 9994   3.286   4.873   3.236 -0.0898 -0.2626 -0.1569
 3313SOL    HW1 9995   3.352   4.923   3.189  0.1637  1.1072  1.5232
 3313SOL    HW2 9996   3.329   4.849   3.318 -0.8540 -1.6025 -0.1261
 3314SOL     OW 9997   3.981   0.046   4.754  0.0391 -0.5253 -0.1089
 3314SOL    HW1 9998   3.893   0.083   4.744  0.1642 -0.1266  0.2507
 3314SOL    HW2 9999   4.039   0.122   4.760  0.3049 -0.7782  0.5649
 3315SOL     OW10000   1.324   4.463   2.962 -0.0665 -0.5783 -0.3533
 3315SOL    HW110001   1.323   4.385   2.905 -0.6839 -1.5328  0.9266
 3315SOL    HW210002   1.257   4.520   2.926  0.4107 -0.6025 -1.3242
 3316SOL     OW10003   4.111   2.891   1.581 -0.3335  0.1623 -0.3503
 3316SOL    HW110004   4.201   2.862   1.598 -0.8292 -0.9179  0.5754
 3316SOL    HW210005   4.114   2.986   1.593  1.3192  0.6180 -3.4256
 3317SOL     OW10006   2.354   1.497   1.871  0.0840 -0.0873  0.4476
 3317SOL    HW110007   2.352   1.525   1.779  0.4664 -0.6420  0.2677
 3317SOL    HW210008   2.394   1.410   1.869 -2.1007 -1.1876  0.8490
 3318SOL     OW10009   0.475   0.950   2.812  0.7315 -0.1072  0.1859
 3318SOL    HW110010   0.442   1.029   2.855  0.2899 -0.4283  0.4434
 3318SOL    HW210011   0.430   0.949   2.728  0.1819 -0.4653  0.4763
 3319SOL     OW10012   4.470   1.129   0.198 -0.0965  0.4874 -0.2043
 3319SOL    HW110013   4.489   1.221   0.219 -0.6729  0.3816  0.8212
 3319SOL    HW210014   4.394   1.134   0.141 -0.7799  0.6052  0.7026
 3320SOL     OW10015   2.654   1.006   1.544  0.9264  0.0143  0.3440
 3320SOL    HW110016   2.621   0.954   1.470 -0.2934 -0.4445  1.1679
 3320SOL    HW210017   2.626   1.095   1.526 -0.7856 -0.3570  0.9915
 3321SOL     OW10018   1.997   0.551   4.271  0.5919 -0.3359  0.4964
 3321SOL    HW110019   1.911   0.574   4.237  1.2484 -1.6288 -2.3158
 3321SOL    HW210020   1.980   0.482   4.335 -0.4571 -1.4308 -0.8928
 3322SOL     OW10021   3.714   1.063   1.658 -0.4428  0.5868 -0.0860
 3322SOL    HW110022   3.748   1.144   1.620 -1.5573  1.7349  1.2184
 3322SOL    HW210023   3.682   1.089   1.744 -0.7991 -1.2753  0.3951
 3323SOL     OW10024   2.133   3.596   0.311 -0.3029 -0.0229 -0.5443
 3323SOL    HW110025   2.175   3.677   0.340  0.8828  0.1541 -2.5608
 3323SOL    HW210026   2.074   3.572   0.383  0.1886  1.9794  0.5985
 3324SOL     OW10027   3.476   3.404   3.770  1.0354  0.2442  0.4181
 3324SOL    HW110028   3.473   3.486   3.720 -0.0892  0.1288  0.2750
 3324SOL    HW210029   3.388   3.394   3.805  0.7617 -1.5383 -0.6348
 3325SOL     OW10030   3.183   2.114   2.769  0.4177 -0.1574  0.1929
 3325SOL    HW110031   3.195   2.207   2.747  3.1978  0.2083  2.6405
 3325SOL    HW210032   3.146   2.115   2.857  2.0923 -1.2927  0.9521
 3326SOL     OW10033   0.925   3.083   2.687 -0.7099 -0.1102 -0.3390
 3326SOL    HW110034   0.968   3.124   2.612  0.6306 -0.0826  0.4183
 3326SOL    HW210035   0.988   3.090   2.758 -2.1912  0.4262  0.9858
 3327SOL     OW10036   0.189   1.841   0.473 -0.7473  0.0480 -0.5551
 3327SOL    HW110037   0.193   1.770   0.538  0.4570 -1.3941 -2.0856
 3327SOL    HW210038   0.138   1.804   0.401 -0.7941  1.0406 -1.0398
 3328SOL     OW10039   4.377   4.778   4.355 -0.3995  0.1208 -0.2487
 3328SOL    HW110040   4.436   4.765   4.281 -1.6337 -1.1148 -1.0874
 3328SOL    HW210041   4.314   4.843   4.325 -0.4679  0.1626 -0.0176
 3329SOL     OW10042   1.582   1.888   4.215  0.1677 -0.0586  0.2308
 3329SOL    HW110043   1.568   1.982   4.228  0.4424  0.6187 -3.4782
 3329SOL    HW210044   1.671   1.881   4.182 -0.4927 -1.3863 -1.3823
 3330SOL     OW10045   1.996   2.318   2.256  0.0755  0.1461  0.0960
 3330SOL    HW110046   2.004   2.375   2.180  1.1045 -0.5030 -0.3042
 3330SOL    HW210047   1.915   2.345   2.298  0.0276  1.2129 -0.6507
 3331SOL     OW10048   2.091   2.907   4.433 -0.1077  0.3373  0.2317
 3331SOL    HW110049   2.077   2.831   4.376  0.0591 -0.0852  0.7498
 3331SOL    HW210050   2.134   2.972   4.377  2.3064 -0.9538  0.4894
 3332SOL     OW10051   3.510   3.335   1.551  0.2581 -0.1290  0.0085
 3332SOL    HW110052   3.575   3.341   1.621  0.9082 -1.3710 -0.4633
 3332SOL    HW210053   3.546   3.271   1.490 -1.5654 -1.1272 -0.0856
 3333SOL     OW10054   4.338   0.564   1.797  0.2120 -0.0705 -0.2617
 3333SOL    HW110055   4.318   0.479   1.757  1.1523  0.5031 -2.0483
 3333SOL    HW210056   4.259   0.587   1.844  0.5419 -2.7850  1.9017
 3334SOL     OW10057   1.562   1.989   0.952 -0.0613  0.0535 -0.2044
 3334SOL    HW110058   1.635   2.047   0.932 -1.1785  1.4550 -0.3976
 3334SOL    HW210059   1.598   1.923   1.010  1.9821 -0.8609 -2.3533
 3335SOL     OW10060   3.858   3.503   4.535 -0.1383  0.4092 -0.6626
 3335SOL    HW110061   3.953   3.492   4.543  0.1169  1.2224 -2.2189
 3335SOL    HW210062   3.832   3.547   4.617  1.1193  1.7715 -0.9566
 3336SOL     OW10063   2.654   2.017   4.135  0.7228  0.0395  0.0336
 3336SOL    HW110064   2.627   1.926   4.120  1.9141 -0.1340 -1.1402
 3336SOL    HW210065   2.704   2.014   4.216 -1.5733  0.1568  1.5559
 3337SOL     OW10066   2.811   0.421   3.789 -0.1916 -0.2315 -0.6635
 3337SOL    HW110067   2.770   0.369   3.721 -1.4338 -0.6195  0.3590
 3337SOL    HW210068   2.786   0.511   3.769 -1.7578 -0.4768  0.0440
 3338SOL     OW10069   2.758   1.776   4.609  0.0384 -0.1174  0.2397
 3338SOL    HW110070   2.699   1.802   4.538  0.2979  0.8736  0.3691
 3338SOL    HW210071   2.702   1.729   4.671 -0.2510 -0.7078 -0.4703
 3339SOL     OW10072   2.261   4.222   4.331 -0.7930 -0.6426 -0.5097
 3339SOL    HW110073   2.277   4.280   4.405 -1.7787 -1.9269  0.7605
 3339SOL    HW210074   2.344   4.174   4.320 -0.6757 -0.5203 -0.1735
 3340SOL     OW10075   1.132   2.302   1.185  0.4563 -0.6522  0.3150
 3340SOL    HW110076   1.121   2.247   1.263  0.4951 -1.3923 -0.1934
 3340SOL    HW210077   1.164   2.243   1.118 -2.1225 -0.6447 -1.0461
 3341SOL     OW10078   0.878   2.313   4.300  0.0255  0.0219 -0.0389
 3341SOL    HW110079   0.921   2.389   4.260  0.6950 -0.9867 -1.3227
 3341SOL    HW210080   0.893   2.242   4.238 -1.5658 -0.9049  0.5860
 3342SOL     OW10081   0.429   4.755   1.093 -0.1090  0.7602  0.4441
 3342SOL    HW110082   0.460   4.807   1.019 -1.0495  2.0995  0.9552
 3342SOL    HW210083   0.337   4.737   1.073 -0.0114 -0.0167  0.6663
 3343SOL     OW10084   0.202   0.170   3.151  0.5037 -0.2717  0.4039
 3343SOL    HW110085   0.173   0.188   3.061  0.5006 -0.5099  0.3570
 3343SOL    HW210086   0.125   0.133   3.194  0.8264 -1.2277  0.1838
 3344SOL     OW10087   4.101   1.383   2.167 -0.1810 -0.1721 -0.3327
 3344SOL    HW110088   4.017   1.406   2.206 -0.0402 -1.1301  0.5817
 3344SOL    HW210089   4.092   1.405   2.074 -1.3404 -0.0249 -0.1909
 3345SOL     OW10090   4.584   2.482   2.412  0.1533 -0.4799 -1.2841
 3345SOL    HW110091   4.509   2.433   2.377 -1.0072  1.7960 -2.1874
 3345SOL    HW210092   4.656   2.462   2.352  0.2998 -2.5610 -0.5037
 3346SOL     OW10093   3.484   2.405   4.725 -0.4858 -0.1684 -0.0005
 3346SOL    HW110094   3.517   2.412   4.815 -0.5931 -2.8762  0.3355
 3346SOL    HW210095   3.561   2.419   4.670 -0.3143  0.9682  0.4993
 3347SOL     OW10096   3.079   2.828   4.817 -0.3826  0.2412  0.5287
 3347SOL    HW110097   3.115   2.739   4.814  0.2841  0.4939 -3.0208
 3347SOL    HW210098   3.119   2.866   4.896  2.1120 -1.5363  0.2693
 3348SOL     OW10099   1.378   3.774   3.661 -0.2418 -0.1084 -0.4575
 3348SOL    HW110100   1.353   3.815   3.744 -3.5912 -0.0689 -1.3449
 3348SOL    HW210101   1.445   3.710   3.685 -0.2918  0.6902  2.0880
 3349SOL     OW10102   1.964   3.161   1.579 -0.6353 -0.0750  0.1605
 3349SOL    HW110103   1.922   3.179   1.663  1.4142 -1.7146  1.6320
 3349SOL    HW210104   2.049   3.123   1.602 -0.0804 -0.7646 -2.6566
 3350SOL     OW10105   0.094   4.303   1.630 -0.3049 -0.0549 -0.1442
 3350SOL    HW110106   0.098   4.214   1.664 -0.8027  0.3859  1.1148
 3350SOL    HW210107   0.015   4.340   1.668  0.8725  1.5281  0.8580
 3351SOL     OW10108   2.217   1.432   4.222  0.4105 -0.1149 -0.3162
 3351SOL    HW110109   2.299   1.465   4.257  0.3619 -0.3305  0.0004
 3351SOL    HW210110   2.242   1.358   4.166  0.3988 -0.4300  0.0931
 3352SOL     OW10111   2.620   0.807   1.776 -0.5177 -0.8203 -0.2236
 3352SOL    HW110112   2.525   0.808   1.789 -0.6409 -1.0249 -1.0532
 3352SOL    HW210113   2.635   0.870   1.706  0.1553  0.4748  1.0228
 3353SOL     OW10114   3.374   2.262   0.064  0.6586  0.0080  0.0541
 3353SOL    HW110115   3.373   2.281   0.157  1.7716 -1.8611  0.5013
 3353SOL    HW210116   3.459   2.294   0.034  1.4053 -1.6934  0.2606
 3354SOL     OW10117   4.049   1.670   3.398  0.9024 -0.6362  0.6890
 3354SOL    HW110118   4.100   1.725   3.457  0.1707 -0.1623  0.8900
 3354SOL    HW210119   3.961   1.670   3.435  0.3551 -0.0806 -0.5538
 3355SOL     OW10120   1.580   4.976   2.437  0.1209  0.3747  0.3577
 3355SOL    HW110121   1.577   5.072   2.430 -1.5430  0.4703  1.6522
 3355SOL    HW210122   1.562   4.945   2.348  0.3004  1.2603  0.0009
 3356SOL     OW10123   2.622   4.041   3.949  0.1598  0.1193 -0.1221
 3356SOL    HW110124   2.630   3.955   3.992  0.1987  0.3038  0.2466
 3356SOL    HW210125   2.564   4.025   3.874  0.1372 -0.2219 -0.0351
 3357SOL     OW10126   3.129   0.887   3.465  0.2665  0.2683  0.2519
 3357SOL    HW110127   3.208   0.914   3.512 -0.1987  0.0734  1.1823
 3357SOL    HW210128   3.057   0.911   3.524 -0.3978  0.7672 -0.7357
 3358SOL     OW10129   4.966   2.850   2.768 -0.1581 -0.1412  0.2533
 3358SOL    HW110130   4.985   2.757   2.770  0.9058  0.0632  0.5083
 3358SOL    HW210131   5.052   2.892   2.757 -0.8142  0.7115 -2.4513
 3359SOL     OW10132   4.929   0.683   0.437 -0.9239  0.3574 -0.2546
 3359SOL    HW110133   4.901   0.773   0.418 -1.8130  0.1967  0.2379
 3359SOL    HW210134   4.884   0.629   0.372  0.0669  0.3183 -0.9180
 3360SOL     OW10135   1.959   1.000   1.558  0.1374 -0.2413  0.8757
 3360SOL    HW110136   1.987   1.029   1.472  0.4011 -0.2060  0.9716
 3360SOL    HW210137   1.933   1.080   1.604  0.3809 -0.2134  0.9662
 3361SOL     OW10138   1.204   4.941   1.705  0.4603 -0.1367 -0.6259
 3361SOL    HW110139   1.232   4.975   1.790  3.3768 -0.7729 -1.2094
 3361SOL    HW210140   1.254   4.992   1.641 -0.3788 -0.8122 -1.8704
 3362SOL     OW10141   2.330   3.954   3.742  0.2387 -0.2882 -0.1787
 3362SOL    HW110142   2.285   4.008   3.806  1.4611  1.2976 -0.6016
 3362SOL    HW210143   2.260   3.921   3.685 -0.5182  1.3017 -0.2253
 3363SOL     OW10144   0.667   2.210   0.480  0.1515  0.2253  0.6775
 3363SOL    HW110145   0.754   2.170   0.484 -0.2945 -1.1758 -1.7715
 3363SOL    HW210146   0.612   2.144   0.438 -1.9615  1.3604  1.4897
 3364SOL     OW10147   4.032   1.744   2.258  0.3104 -0.9698 -0.9649
 3364SOL    HW110148   4.006   1.795   2.181 -0.6569  1.1586  0.6938
 3364SOL    HW210149   3.980   1.664   2.251 -1.1411 -0.0185 -1.6101
 3365SOL     OW10150   3.125   3.479   0.367  0.4224 -0.0207 -0.4582
 3365SOL    HW110151   3.031   3.459   0.363  0.1860  1.2627 -2.3388
 3365SOL    HW210152   3.134   3.563   0.323  2.6683 -0.8108 -1.6625
 3366SOL     OW10153   1.701   1.237   2.317  0.2937 -0.0344  0.1328
 3366SOL    HW110154   1.622   1.205   2.359 -0.0689 -0.1194 -0.5903
 3366SOL    HW210155   1.672   1.313   2.265  1.1099  1.4504  1.7321
 3367SOL     OW10156   1.901   2.020   0.181 -0.4390 -0.2101 -0.3760
 3367SOL    HW110157   1.872   2.109   0.198  0.2213 -0.0223 -0.2358
 3367SOL    HW210158   1.973   2.005   0.242 -0.6125 -0.8792 -0.3160
 3368SOL     OW10159   2.631   4.638   3.907  0.0281  0.4009  0.2003
 3368SOL    HW110160   2.651   4.584   3.984 -1.1657 -0.7758 -0.2834
 3368SOL    HW210161   2.636   4.577   3.833 -1.2524  0.9716 -0.3716
 3369SOL     OW10162   4.064   4.411   1.799 -0.2405 -0.1831 -0.7370
 3369SOL    HW110163   3.988   4.401   1.857  0.9550  0.2626  0.9854
 3369SOL    HW210164   4.066   4.504   1.777  0.0526 -0.1084 -0.4062
 3370SOL     OW10165   3.747   1.048   4.445 -0.1033  0.2293 -0.3167
 3370SOL    HW110166   3.676   0.988   4.465  1.5015 -2.2015 -1.4794
 3370SOL    HW210167   3.706   1.135   4.448 -3.0464 -1.0259 -0.7214
 3371SOL     OW10168   0.856   1.442   1.282  0.3374 -0.5797  0.2685
 3371SOL    HW110169   0.878   1.503   1.212 -0.7765  0.3090  0.6777
 3371SOL    HW210170   0.940   1.418   1.321  0.7310  1.8336  1.0541
 3372SOL     OW10171   4.974   2.508   3.186  0.4589  0.0536  0.1296
 3372SOL    HW110172   4.944   2.594   3.158  2.2817  0.8015  0.2790
 3372SOL    HW210173   4.998   2.463   3.105  0.8940  0.2672  0.1347
 3373SOL     OW10174   4.004   3.559   2.101  0.1586  0.1984  0.3340
 3373SOL    HW110175   4.036   3.473   2.128 -0.0554  0.5929  1.9114
 3373SOL    HW210176   4.047   3.621   2.161 -2.0058  0.9044  1.2337
 3374SOL     OW10177   4.047   1.607   2.647  0.0880  0.0509  0.6323
 3374SOL    HW110178   3.961   1.568   2.631  0.4695 -0.7467  0.4745
 3374SOL    HW210179   4.040   1.647   2.734 -0.8532  1.1973  0.0624
 3375SOL     OW10180   2.533   3.964   2.782  0.4966  0.0968 -0.5310
 3375SOL    HW110181   2.506   3.890   2.728 -3.0665  1.7354 -1.2916
 3375SOL    HW210182   2.466   3.968   2.851  2.0782  1.1105  1.0004
 3376SOL     OW10183   3.663   4.793   3.172  1.0514 -0.0359 -0.2232
 3376SOL    HW110184   3.600   4.842   3.119  2.4358  1.2007 -0.7814
 3376SOL    HW210185   3.718   4.860   3.212  0.6636 -0.9574  2.0781
 3377SOL     OW10186   3.508   2.966   2.552 -0.3676  0.0161 -0.0265
 3377SOL    HW110187   3.569   2.897   2.576  0.7759  0.2234 -2.0944
 3377SOL    HW210188   3.453   2.927   2.484 -1.9930  0.1282  1.1605
 3378SOL     OW10189   2.585   2.910   3.459  0.3632 -0.9066 -0.2479
 3378SOL    HW110190   2.532   2.988   3.474  0.6726 -1.0259  1.6361
 3378SOL    HW210191   2.523   2.843   3.432 -0.3389 -0.7835  0.9972
 3379SOL     OW10192   0.590   0.775   1.036 -0.4570 -0.7007  0.0906
 3379SOL    HW110193   0.561   0.862   1.063  0.3848 -0.2606 -0.3941
 3379SOL    HW210194   0.577   0.720   1.114 -1.9060 -0.3798  0.1115
 3380SOL     OW10195   4.001   4.760   4.048  0.1624  0.1399 -0.3822
 3380SOL    HW110196   3.936   4.708   4.002 -0.1314  0.7055 -0.6236
 3380SOL    HW210197   4.085   4.731   4.012 -0.0697  0.6753 -1.4047
 3381SOL     OW10198   0.097   3.914   4.167 -0.4950  0.7179 -0.2313
 3381SOL    HW110199   0.190   3.924   4.187 -0.1140  1.3674 -2.1674
 3381SOL    HW210200   0.067   4.001   4.142 -1.4573  0.3892 -0.2897
 3382SOL     OW10201   4.380   4.348   3.808 -0.2469 -0.6115  0.0197
 3382SOL    HW110202   4.396   4.254   3.815  0.7840 -0.5007 -0.6919
 3382SOL    HW210203   4.310   4.365   3.872 -0.1168 -1.7726  0.4937
 3383SOL     OW10204   4.079   3.841   4.312  0.0286 -0.3238  0.1396
 3383SOL    HW110205   4.139   3.845   4.237 -0.1187  1.7554  0.0900
 3383SOL    HW210206   3.993   3.824   4.273 -0.3596  2.5419 -0.4163
 3384SOL     OW10207   1.461   3.878   4.914 -0.7221 -0.7727  0.1459
 3384SOL    HW110208   1.374   3.916   4.928 -0.3482 -0.5566  2.1111
 3384SOL    HW210209   1.518   3.954   4.900 -0.7143 -0.8715 -0.3716
 3385SOL     OW10210   0.418   1.475   1.760 -0.0417 -0.2561 -0.3372
 3385SOL    HW110211   0.352   1.466   1.829  0.0995  0.1486 -0.1464
 3385SOL    HW210212   0.372   1.517   1.688 -0.4357 -1.5191 -0.8494
 3386SOL     OW10213   4.777   1.582   2.501  0.2937 -0.1668  0.3743
 3386SOL    HW110214   4.836   1.516   2.465  0.6226  0.0772  0.4594
 3386SOL    HW210215   4.742   1.542   2.581 -0.6989 -0.8408 -0.3858
 3387SOL     OW10216   4.955   1.116   0.278  0.3104  0.7969 -0.1611
 3387SOL    HW110217   5.041   1.153   0.295  0.2108  1.6005 -1.3087
 3387SOL    HW210218   4.910   1.182   0.226 -0.2699 -0.4635 -1.3145
 3388SOL     OW10219   3.159   2.991   3.839 -0.0221  0.0901 -0.0123
 3388SOL    HW110220   3.123   2.981   3.928 -1.0838  2.1757 -0.1342
 3388SOL    HW210221   3.124   3.075   3.809  0.2615 -0.5901 -2.4481
 3389SOL     OW10222   1.630   1.117   3.962 -0.0554  0.5046  0.2530
 3389SOL    HW110223   1.569   1.179   4.002  0.1812 -0.1260  1.6342
 3389SOL    HW210224   1.628   1.041   4.020  1.7547  0.3187  0.1064
 3390SOL     OW10225   2.752   3.312   1.792  0.5482  0.2453 -0.2599
 3390SOL    HW110226   2.794   3.394   1.817  0.2641  0.2722  0.1248
 3390SOL    HW210227   2.798   3.245   1.842  0.6387  0.1914 -0.4140
 3391SOL     OW10228   4.611   2.926   1.682  0.6263  0.3355  0.1966
 3391SOL    HW110229   4.659   3.009   1.679 -0.6524  1.2474  2.3314
 3391SOL    HW210230   4.604   2.906   1.776 -2.7486  0.1111  0.0480
 3392SOL     OW10231   0.408   1.028   3.150 -0.2357  0.8251 -0.5752
 3392SOL    HW110232   0.343   0.960   3.167  0.5068  0.4770  1.0116
 3392SOL    HW210233   0.492   0.986   3.167  0.2350  2.1245  0.4954
 3393SOL     OW10234   4.827   4.645   0.086 -0.0523 -0.0682 -0.9074
 3393SOL    HW110235   4.738   4.613   0.069 -0.5577  0.8035  0.0439
 3393SOL    HW210236   4.829   4.732   0.047 -0.3691  0.8518  1.0363
 3394SOL     OW10237   0.130   4.562   4.541  0.1266  0.0466  0.4725
 3394SOL    HW110238   0.175   4.613   4.608  0.8140  0.7921 -0.5190
 3394SOL    HW210239   0.143   4.471   4.567 -1.0559  0.3192  2.2349
 3395SOL     OW10240   3.257   4.426   4.658 -0.1358 -0.7123 -0.0403
 3395SOL    HW110241   3.318   4.415   4.584  0.9971  0.2051  0.7222
 3395SOL    HW210242   3.185   4.477   4.622  0.1638 -0.7003 -0.6386
 3396SOL     OW10243   0.542   2.729   1.175  0.3421 -0.2454 -0.3511
 3396SOL    HW110244   0.596   2.727   1.096  0.5271 -0.6168 -0.2154
 3396SOL    HW210245   0.531   2.637   1.199 -3.5354 -0.5738 -2.5387
 3397SOL     OW10246   3.041   2.974   2.356  0.5955  0.0586 -0.3328
 3397SOL    HW110247   2.952   3.001   2.332  0.1479  0.3123  1.4586
 3397SOL    HW210248   3.040   2.879   2.349  0.1959  0.0653 -0.3915
 3398SOL     OW10249   0.304   4.471   0.848 -0.6636  0.5190  0.4091
 3398SOL    HW110250   0.305   4.383   0.885  0.2121  0.0695 -0.6175
 3398SOL    HW210251   0.215   4.484   0.817 -0.6184 -0.2905 -0.0711
 3399SOL     OW10252   2.346   4.923   0.025 -0.6447 -0.2276 -0.3737
 3399SOL    HW110253   2.359   4.850   0.085 -0.4544 -0.1455 -0.3146
 3399SOL    HW210254   2.419   4.982   0.043 -0.6373 -0.1607 -0.6219
 3400SOL     OW10255   0.321   4.931   0.323 -0.3157  0.2383 -0.2981
 3400SOL    HW110256   0.281   4.844   0.324 -0.2869  0.2268  0.0027
 3400SOL    HW210257   0.373   4.934   0.403  0.6454  0.0866 -0.8938
 3401SOL     OW10258   3.287   0.628   2.790 -0.1843 -0.2066  0.5210
 3401SOL    HW110259   3.294   0.570   2.866  1.6936  1.7523  1.9828
 3401SOL    HW210260   3.246   0.707   2.825 -0.6000  0.2130 -0.8668
 3402SOL     OW10261   1.791   4.595   2.247 -0.1439 -0.2900 -0.7895
 3402SOL    HW110262   1.794   4.681   2.288 -0.8244  0.2386 -1.8329
 3402SOL    HW210263   1.751   4.609   2.161 -0.1553 -1.6192 -1.0338
 3403SOL     OW10264   3.981   1.474   3.646 -0.0586  0.1715 -0.3846
 3403SOL    HW110265   3.895   1.493   3.610  1.3258  2.0311 -3.0294
 3403SOL    HW210266   3.986   1.527   3.725 -0.9920  0.8334 -0.7460
 3404SOL     OW10267   3.504   2.220   3.694  0.3170 -0.1144 -0.6057
 3404SOL    HW110268   3.533   2.281   3.626 -1.3279  1.0988 -0.2836
 3404SOL    HW210269   3.556   2.244   3.771  0.3507  0.2413 -0.7377
 3405SOL     OW10270   4.400   2.422   0.244 -0.5022 -0.4734 -0.3086
 3405SOL    HW110271   4.380   2.391   0.155 -0.6484 -1.2153 -0.0284
 3405SOL    HW210272   4.495   2.407   0.253  0.2650  2.7837 -1.5379
 3406SOL     OW10273   3.231   3.212   1.932 -0.1134  0.0444 -0.1030
 3406SOL    HW110274   3.249   3.248   2.018  3.0920  1.9309 -1.3763
 3406SOL    HW210275   3.316   3.181   1.900 -0.6292  1.6136 -3.4554
 3407SOL     OW10276   1.672   0.312   0.350 -0.5775  0.1417  0.1094
 3407SOL    HW110277   1.604   0.347   0.292 -1.2543 -0.0883  0.7547
 3407SOL    HW210278   1.753   0.354   0.320 -1.0937  0.8745 -0.2761
 3408SOL     OW10279   4.366   3.818   3.590 -0.0808  0.4266  0.6733
 3408SOL    HW110280   4.330   3.855   3.671 -0.8220 -0.1057  0.5938
 3408SOL    HW210281   4.360   3.890   3.526  2.1877  1.4531  1.5216
 3409SOL     OW10282   4.932   2.642   0.276 -0.1448  0.2516 -0.0671
 3409SOL    HW110283   4.971   2.597   0.351  1.2917  2.0947  0.3764
 3409SOL    HW210284   4.874   2.577   0.236 -0.1887 -1.0923  2.0394
 3410SOL     OW10285   1.237   2.751   2.983 -0.4238  0.2025  0.3261
 3410SOL    HW110286   1.231   2.768   2.889  1.3869 -0.4844  0.0354
 3410SOL    HW210287   1.314   2.800   3.011 -0.4091 -0.3268  1.2511
 3411SOL     OW10288   2.622   3.726   0.305 -0.1143 -0.2515  0.3154
 3411SOL    HW110289   2.707   3.767   0.288  0.0639 -0.7780 -0.0772
 3411SOL    HW210290   2.610   3.735   0.400  0.6219 -0.6418  0.4541
 3412SOL     OW10291   3.999   3.618   4.791 -0.1100  0.5226 -0.3266
 3412SOL    HW110292   3.919   3.667   4.772 -0.5397 -0.4199 -1.0435
 3412SOL    HW210293   3.979   3.569   4.871 -0.0054  0.8184 -0.1197
 3413SOL     OW10294   3.704   2.226   0.733 -0.1770  0.2489  0.2558
 3413SOL    HW110295   3.764   2.298   0.748 -1.0713  1.1065 -0.2164
 3413SOL    HW210296   3.697   2.219   0.638  2.3539 -2.5619  0.1002
 3414SOL     OW10297   4.512   2.187   1.244 -0.0060  0.5639 -0.2675
 3414SOL    HW110298   4.539   2.141   1.323  0.5004  0.5172 -0.4647
 3414SOL    HW210299   4.484   2.118   1.184 -0.4710  0.6048 -0.1029
 3415SOL     OW10300   1.321   3.140   4.558 -0.5685 -0.1650  0.2338
 3415SOL    HW110301   1.291   3.209   4.499  2.3674  0.1448 -1.1141
 3415SOL    HW210302   1.322   3.062   4.504  0.2318 -0.3192  0.4619
 3416SOL     OW10303   3.954   1.940   2.493  0.2764 -0.4001  0.6147
 3416SOL    HW110304   4.033   1.886   2.488 -0.3638 -1.4419  1.2286
 3416SOL    HW210305   3.984   2.029   2.478  1.2491 -1.0060 -1.2606
 3417SOL     OW10306   2.621   4.751   0.824 -0.4305  0.4338 -0.0891
 3417SOL    HW110307   2.676   4.783   0.895 -0.8589  1.3294 -0.1391
 3417SOL    HW210308   2.621   4.822   0.759  0.9786 -0.8564 -1.5953
 3418SOL     OW10309   1.666   4.189   4.364  0.0250  0.0672 -0.0500
 3418SOL    HW110310   1.601   4.173   4.432 -0.1821  0.4668 -0.1483
 3418SOL    HW210311   1.742   4.223   4.410  0.2617 -0.6387  0.0956
 3419SOL     OW10312   3.331   0.526   4.897  0.2552 -0.2602  0.1521
 3419SOL    HW110313   3.236   0.513   4.889  0.2870  0.4657 -1.8676
 3419SOL    HW210314   3.351   0.500   4.987 -1.8073 -0.7225  0.5252
 3420SOL     OW10315   4.747   4.137   0.622 -0.1408  0.1961  0.0274
 3420SOL    HW110316   4.774   4.129   0.530 -0.1282 -0.1468  0.0621
 3420SOL    HW210317   4.716   4.228   0.629 -1.5142 -0.1898 -0.6862
 3421SOL     OW10318   3.292   4.970   2.454 -0.4023  0.0177  0.3643
 3421SOL    HW110319   3.271   4.877   2.449  0.6993 -0.1943 -0.7038
 3421SOL    HW210320   3.381   4.973   2.489  0.1261  0.5787 -0.9532
 3422SOL     OW10321   2.781   4.811   1.862 -0.1981 -0.2761  0.3985
 3422SOL    HW110322   2.837   4.733   1.868  1.4245  0.9554  3.2529
 3422SOL    HW210323   2.842   4.885   1.867 -1.8765  1.1631  0.5804
 3423SOL     OW10324   3.500   2.447   1.793  0.8334  0.5957  0.1012
 3423SOL    HW110325   3.448   2.511   1.745 -1.3933 -0.7349  0.6007
 3423SOL    HW210326   3.546   2.397   1.725  0.7483  1.1953 -0.4066
 3424SOL     OW10327   2.473   2.341   3.965  0.3148 -0.6523 -0.3109
 3424SOL    HW110328   2.442   2.357   4.054  1.1117  3.1827 -0.5531
 3424SOL    HW210329   2.405   2.380   3.909  0.5397 -1.6702 -1.3196
 3425SOL     OW10330   3.939   3.543   4.146  0.2450  0.3133  0.6529
 3425SOL    HW110331   4.025   3.509   4.123 -0.0679  0.2450 -0.4673
 3425SOL    HW210332   3.940   3.634   4.115  0.0885  0.4708  1.0998
 3426SOL     OW10333   4.522   0.631   2.018  0.3615  0.3038 -0.3331
 3426SOL    HW110334   4.455   0.609   1.954 -1.5187 -0.7932  1.8420
 3426SOL    HW210335   4.538   0.725   2.006  0.1483  0.1139 -2.3940
 3427SOL     OW10336   0.736   2.924   3.253 -0.5368 -0.2165  0.5464
 3427SOL    HW110337   0.800   2.867   3.294  0.8652  0.9101  0.0190
 3427SOL    HW210338   0.678   2.951   3.324 -0.9416 -1.8961  0.8830
 3428SOL     OW10339   2.024   2.348   4.128  0.2571 -0.0635 -0.1919
 3428SOL    HW110340   1.958   2.321   4.192  1.8911  1.0603  2.1235
 3428SOL    HW210341   2.009   2.291   4.053 -2.1506 -1.0676  0.9293
 3429SOL     OW10342   3.662   2.211   2.204  0.0491  0.2093 -0.0513
 3429SOL    HW110343   3.651   2.120   2.229 -3.4419  0.7371  0.8324
 3429SOL    HW210344   3.637   2.261   2.282  0.5016  1.9076 -0.9449
 3430SOL     OW10345   0.899   3.430   4.906  0.0873 -0.1558 -0.2150
 3430SOL    HW110346   0.833   3.448   4.838  0.3315  2.0057  0.0795
 3430SOL    HW210347   0.853   3.445   4.988  0.4590 -0.4714  0.0516
 3431SOL     OW10348   0.778   4.738   3.597 -0.0859 -0.1981 -0.0626
 3431SOL    HW110349   0.714   4.676   3.632  0.8559 -1.1842  0.0058
 3431SOL    HW210350   0.760   4.820   3.642 -0.8483 -0.6423  0.4617
 3432SOL     OW10351   3.006   0.450   0.252 -0.0463 -0.4359 -0.5616
 3432SOL    HW110352   3.005   0.367   0.300 -1.4071 -1.2663 -1.9546
 3432SOL    HW210353   2.916   0.481   0.255 -0.1964 -0.5611 -2.6186
 3433SOL     OW10354   3.421   0.046   3.020 -0.3122  0.0638  0.2949
 3433SOL    HW110355   3.337   0.082   2.990 -1.1153 -2.7213 -1.2234
 3433SOL    HW210356   3.484   0.116   3.005 -1.9803  1.4143 -0.8975
 3434SOL     OW10357   0.552   2.400   3.505  0.8887 -0.0575 -0.3338
 3434SOL    HW110358   0.524   2.443   3.424 -0.7063 -0.9142 -0.2780
 3434SOL    HW210359   0.511   2.314   3.502  1.7526 -0.5377  0.8618
 3435SOL     OW10360   2.885   4.518   3.296  0.1763 -0.5638 -0.0563
 3435SOL    HW110361   2.791   4.507   3.282  0.2628  0.0727 -1.2378
 3435SOL    HW210362   2.892   4.540   3.389 -1.0836  1.6353 -0.4038
 3436SOL     OW10363   0.440   2.716   3.813 -0.3195 -0.3046  0.4612
 3436SOL    HW110364   0.474   2.798   3.849 -0.0090 -0.4003  0.3925
 3436SOL    HW210365   0.385   2.742   3.740  0.8501 -0.2209 -0.4106
 3437SOL     OW10366   1.020   1.204   4.551  0.1993  0.1473  0.0485
 3437SOL    HW110367   1.011   1.279   4.493  1.9689 -0.1195 -0.6429
 3437SOL    HW210368   1.081   1.232   4.619 -2.1813  0.6037  2.1344
 3438SOL     OW10369   0.927   1.627   2.434  0.0788  0.2802  0.2141
 3438SOL    HW110370   0.999   1.655   2.377  1.4804  0.8416  2.1278
 3438SOL    HW210371   0.889   1.551   2.390  2.2205 -0.3716 -0.6331
 3439SOL     OW10372   0.048   1.648   1.522  0.2036 -0.2087 -0.3971
 3439SOL    HW110373  -0.004   1.706   1.466  0.8180 -0.5339 -1.3312
 3439SOL    HW210374   0.056   1.696   1.605  1.5033  1.5305 -1.4375
 3440SOL     OW10375   2.402   4.590   0.845 -0.0967  0.3083  0.1774
 3440SOL    HW110376   2.425   4.501   0.870  0.0502  0.3468  0.1792
 3440SOL    HW210377   2.481   4.642   0.863 -0.3238  0.5171  0.5930
 3441SOL     OW10378   1.628   0.875   0.232  0.3457  0.0420 -0.5724
 3441SOL    HW110379   1.559   0.937   0.257 -0.1335  0.5021 -2.8816
 3441SOL    HW210380   1.587   0.789   0.242 -0.5302  0.3050 -1.7736
 3442SOL     OW10381   3.469   4.869   4.708 -0.2001  0.1176  0.3780
 3442SOL    HW110382   3.498   4.807   4.641 -1.9968 -0.1352 -0.2333
 3442SOL    HW210383   3.491   4.955   4.671 -1.0278 -0.0251 -0.5087
 3443SOL     OW10384   4.947   4.557   2.449  0.5849 -0.0074 -0.1303
 3443SOL    HW110385   5.018   4.507   2.408  0.7227  1.0697 -1.2570
 3443SOL    HW210386   4.969   4.648   2.433 -0.8809  0.3619 -0.2125
 3444SOL     OW10387   3.229   0.449   2.999  0.3051 -0.2602 -0.4204
 3444SOL    HW110388   3.268   0.502   3.069  1.8518 -2.4903  0.5431
 3444SOL    HW210389   3.136   0.445   3.021  0.4455  0.6559  0.4213
 3445SOL     OW10390   2.948   3.031   2.618  0.0232 -0.1983  0.5012
 3445SOL    HW110391   2.982   3.008   2.532  0.3369 -0.7051  0.7583
 3445SOL    HW210392   2.993   2.972   2.679 -2.4943 -2.1097  0.7054
 3446SOL     OW10393   1.863   0.064   1.374  0.5784 -0.0420  0.2074
 3446SOL    HW110394   1.896   0.092   1.460 -0.5307  0.3203  0.5283
 3446SOL    HW210395   1.814  -0.016   1.393  0.7027 -0.2015 -0.1540
 3447SOL     OW10396   0.582   2.820   4.325  0.1921  0.3639 -0.0971
 3447SOL    HW110397   0.561   2.896   4.380 -0.9113 -0.5780  0.8366
 3447SOL    HW210398   0.499   2.795   4.286  0.8938  0.7863 -1.9645
 3448SOL     OW10399   4.566   4.725   2.960 -0.4642  0.4108 -0.1934
 3448SOL    HW110400   4.625   4.800   2.946 -0.1115  0.3211  0.7597
 3448SOL    HW210401   4.575   4.673   2.880  0.6030  0.5049 -0.1518
 3449SOL     OW10402   2.310   0.860   1.785 -0.2681 -0.2558  0.0576
 3449SOL    HW110403   2.286   0.784   1.838  0.6719 -0.2459  0.5249
 3449SOL    HW210404   2.263   0.848   1.702 -0.1935 -1.2992  0.1581
 3450SOL     OW10405   0.179   2.967   4.750 -0.0628 -0.0350 -0.4248
 3450SOL    HW110406   0.208   2.947   4.839 -1.1951 -0.3386 -0.1067
 3450SOL    HW210407   0.233   2.912   4.694  0.0727 -0.4829  0.1375
 3451SOL     OW10408   4.575   4.749   1.335  0.2323  0.1706  0.0024
 3451SOL    HW110409   4.577   4.700   1.417 -1.0624  3.0844  1.9264
 3451SOL    HW210410   4.492   4.724   1.294 -0.5667  0.9107  1.1188
 3452SOL     OW10411   3.981   1.793   4.150  0.4866 -0.2759 -0.1671
 3452SOL    HW110412   3.984   1.780   4.245  2.6283  0.2379 -0.1209
 3452SOL    HW210413   3.920   1.726   4.119  0.9708 -1.5158  1.4262
 3453SOL     OW10414   4.679   1.369   1.058 -0.0877 -0.0436 -0.2156
 3453SOL    HW110415   4.591   1.356   1.093  0.4109  2.4648  2.3783
 3453SOL    HW210416   4.707   1.282   1.030 -4.1126 -0.6587 -3.2989
 3454SOL     OW10417   2.495   4.852   3.778 -0.0652  0.0598 -0.6247
 3454SOL    HW110418   2.461   4.845   3.689  0.5860  1.2383 -0.9844
 3454SOL    HW210419   2.519   4.762   3.801 -0.1174 -0.2449 -1.6843
 3455SOL     OW10420   0.009   0.128   3.356  0.8674  0.2741  0.5060
 3455SOL    HW110421   0.042   0.200   3.409  1.7745  0.7812 -0.6912
 3455SOL    HW210422  -0.049   0.079   3.415  0.9367  1.4544  1.5988
 3456SOL     OW10423   4.400   0.412   2.717 -0.8767 -0.2017 -0.7806
 3456SOL    HW110424   4.408   0.318   2.731 -1.1320 -0.2280 -0.8049
 3456SOL    HW210425   4.322   0.437   2.767 -0.0747  0.2208  0.3013
 3457SOL     OW10426   2.541   2.528   2.702 -0.5369 -0.0295 -0.0270
 3457SOL    HW110427   2.577   2.448   2.663 -0.0901  0.0851  0.1519
 3457SOL    HW210428   2.617   2.579   2.729 -0.7918  0.8245 -0.8526
 3458SOL     OW10429   1.944   0.437   4.018 -0.4451 -0.3199  0.0898
 3458SOL    HW110430   1.994   0.517   4.032 -1.0807  0.4527 -1.7388
 3458SOL    HW210431   2.008   0.366   4.026  0.9048  0.6112 -1.7400
 3459SOL     OW10432   2.143   4.129   0.851  0.1198  0.5662  0.1686
 3459SOL    HW110433   2.176   4.067   0.916 -1.0280 -1.1223 -0.7730
 3459SOL    HW210434   2.070   4.173   0.894  0.7904  1.1170  0.7634
 3460SOL     OW10435   0.013   2.830   0.114 -0.0216 -0.4232 -0.0579
 3460SOL    HW110436   0.079   2.880   0.162  0.8642 -1.9375  0.4009
 3460SOL    HW210437  -0.014   2.761   0.175 -0.6122 -0.9771 -0.9187
 3461SOL     OW10438   3.729   4.692   0.872 -0.5549 -0.0899  0.0761
 3461SOL    HW110439   3.781   4.624   0.915 -1.7652 -1.4908 -0.5951
 3461SOL    HW210440   3.754   4.688   0.780 -1.9664 -0.9212 -0.2906
 3462SOL     OW10441   3.524   0.044   2.567  0.5598  0.3284  0.2663
 3462SOL    HW110442   3.580   0.072   2.639  0.8470  1.4007 -0.3489
 3462SOL    HW210443   3.583  -0.002   2.507  0.6054  0.6800  0.0404
 3463SOL     OW10444   2.033   0.458   4.657  0.2938  0.3598  0.1080
 3463SOL    HW110445   1.988   0.428   4.735  0.6326  0.8085  0.4827
 3463SOL    HW210446   2.115   0.408   4.656  0.0436 -0.0455 -0.2625
 3464SOL     OW10447   1.233   3.686   0.654 -0.1910 -0.5998 -0.1468
 3464SOL    HW110448   1.226   3.752   0.722  0.9438 -0.5905 -0.0082
 3464SOL    HW210449   1.272   3.732   0.580 -1.5398 -0.5745 -0.8734
 3465SOL     OW10450   4.834   4.503   4.592 -0.1268 -0.4168 -0.1195
 3465SOL    HW110451   4.823   4.507   4.687 -1.0764  1.5224 -0.2580
 3465SOL    HW210452   4.903   4.566   4.573 -2.2272  1.8233 -0.9300
 3466SOL     OW10453   1.155   2.000   3.885  0.4931  0.2913  0.0332
 3466SOL    HW110454   1.086   1.975   3.823  0.4585 -0.4073  0.3425
 3466SOL    HW210455   1.166   2.094   3.872  0.2979  0.2072 -0.8483
 3467SOL     OW10456   0.959   3.487   1.468 -0.4154 -0.1072  0.8065
 3467SOL    HW110457   0.923   3.399   1.481 -0.3656  0.1989  3.7314
 3467SOL    HW210458   1.032   3.492   1.530  0.2776  1.6487 -0.0786
 3468SOL     OW10459   1.497   2.505   0.069  0.3171  0.1539 -0.3243
 3468SOL    HW110460   1.409   2.524   0.100  0.2382 -1.8392  0.8151
 3468SOL    HW210461   1.533   2.590   0.044 -1.3276  1.2050  0.7542
 3469SOL     OW10462   1.639   2.289   3.774 -0.7047  1.5465 -0.2605
 3469SOL    HW110463   1.552   2.272   3.737  0.2499 -0.9103 -1.5836
 3469SOL    HW210464   1.698   2.281   3.699  1.0545 -0.9745  1.2515
 3470SOL     OW10465   2.785   2.197   2.141 -0.2716 -0.0793  0.2945
 3470SOL    HW110466   2.831   2.126   2.185 -0.1542 -0.5800 -0.6175
 3470SOL    HW210467   2.794   2.178   2.048  0.1162  1.3502  0.0145
 3471SOL     OW10468   2.243   3.710   2.940 -0.0572 -0.2071  0.0701
 3471SOL    HW110469   2.223   3.696   3.032  0.3877  0.5563  0.2970
 3471SOL    HW210470   2.161   3.742   2.901 -0.1706 -0.2656  0.2642
 3472SOL     OW10471   3.689   3.207   0.566  0.4592 -0.4335  0.5442
 3472SOL    HW110472   3.630   3.162   0.505 -0.0067 -0.1303  0.7602
 3472SOL    HW210473   3.668   3.300   0.556  0.4247 -0.3767  1.1130
 3473SOL     OW10474   0.693   4.161   0.538  0.0830  0.5121  0.5510
 3473SOL    HW110475   0.615   4.110   0.517 -0.3258  0.7507  1.4306
 3473SOL    HW210476   0.659   4.247   0.564  0.8006  1.5161 -1.6313
 3474SOL     OW10477   3.354   3.540   3.140 -0.2207 -0.3124 -0.1634
 3474SOL    HW110478   3.358   3.631   3.167  2.5525 -0.6998  1.0373
 3474SOL    HW210479   3.445   3.514   3.126 -0.8000 -3.2420  0.7210
 3475SOL     OW10480   4.094   0.001   0.349  0.3443 -0.8851 -0.4324
 3475SOL    HW110481   4.100  -0.094   0.352 -0.0691 -0.8887  0.8746
 3475SOL    HW210482   4.184   0.031   0.356  0.3998 -1.1713  0.1220
 3476SOL     OW10483   3.912   1.968   3.847  0.3201  0.0317 -0.3400
 3476SOL    HW110484   3.922   2.054   3.806 -2.0691  0.5064 -0.1130
 3476SOL    HW210485   3.860   1.986   3.926  4.4075 -0.8936  2.8537
 3477SOL     OW10486   4.326   0.798   4.471 -0.4473  0.2855  0.4519
 3477SOL    HW110487   4.371   0.878   4.446  0.1466  0.2725  1.4418
 3477SOL    HW210488   4.393   0.730   4.464 -0.5892  0.0966  0.9088
 3478SOL     OW10489   1.816   2.431   4.797  0.1400 -0.1315  0.2452
 3478SOL    HW110490   1.728   2.433   4.758  1.2739 -3.7954 -3.1881
 3478SOL    HW210491   1.801   2.405   4.888 -2.3734 -1.3420 -0.4059
 3479SOL     OW10492   2.272   0.282   0.333 -0.2179  0.5677  0.0967
 3479SOL    HW110493   2.307   0.355   0.283 -1.2537  2.6020  2.1456
 3479SOL    HW210494   2.281   0.308   0.424 -0.2295 -2.0948  0.9515
 3480SOL     OW10495   3.885   2.941   4.459 -0.0353  0.5198 -0.2086
 3480SOL    HW110496   3.892   2.955   4.365  0.0863 -1.0139 -0.4476
 3480SOL    HW210497   3.868   3.028   4.495  0.6718  1.2481 -1.5648
 3481SOL     OW10498   1.330   3.740   0.997 -0.2256 -0.4993 -0.2320
 3481SOL    HW110499   1.408   3.776   0.956  1.9243 -1.5732  2.5900
 3481SOL    HW210500   1.272   3.815   1.009 -0.3579  0.1038 -3.6143
 3482SOL     OW10501   1.229   0.419   2.293  0.1314 -0.1766  0.1883
 3482SOL    HW110502   1.278   0.373   2.225 -1.4462 -0.9236 -0.4949
 3482SOL    HW210503   1.218   0.508   2.258  2.3948  0.5298  1.1063
 3483SOL     OW10504   3.974   2.991   3.091  0.7400  0.3942  0.1076
 3483SOL    HW110505   3.916   2.966   3.163 -1.8913  3.9279 -0.5094
 3483SOL    HW210506   3.966   2.920   3.028 -0.5213 -0.6100  1.3269
 3484SOL     OW10507   4.062   3.318   3.531 -0.1872 -0.0398  0.0947
 3484SOL    HW110508   3.970   3.334   3.510 -0.8870 -1.5721  1.6808
 3484SOL    HW210509   4.064   3.319   3.627  1.6645  0.9808  0.0779
 3485SOL     OW10510   3.172   3.923   2.766  0.7734  0.2826  0.3151
 3485SOL    HW110511   3.261   3.895   2.745  0.2205 -0.0427 -1.8674
 3485SOL    HW210512   3.118   3.848   2.745 -0.1852  1.1104 -0.2599
 3486SOL     OW10513   0.635   0.204   3.819 -0.5985  0.0870  0.0027
 3486SOL    HW110514   0.563   0.214   3.882 -0.4569  1.5364 -0.0483
 3486SOL    HW210515   0.612   0.262   3.747  0.3048  0.0656 -0.3088
 3487SOL     OW10516   0.248   3.483   1.537 -0.2366 -0.0951  0.1865
 3487SOL    HW110517   0.256   3.388   1.529 -0.2060 -0.1867  1.2227
 3487SOL    HW210518   0.285   3.517   1.455  3.2480 -0.8110  1.2957
 3488SOL     OW10519   2.213   3.113   2.121 -0.0642  0.2338 -0.3181
 3488SOL    HW110520   2.265   3.034   2.111  0.0099  0.4158 -1.5659
 3488SOL    HW210521   2.243   3.151   2.204  0.7385 -0.4212 -0.2895
 3489SOL     OW10522   0.889   0.670   2.947 -0.3514 -0.6657 -0.2040
 3489SOL    HW110523   0.918   0.756   2.977 -1.1233 -1.1444  2.1285
 3489SOL    HW210524   0.796   0.683   2.926  0.2553 -0.2506 -2.9768
 3490SOL     OW10525   1.556   0.393   1.188  0.8330  0.1463 -0.6888
 3490SOL    HW110526   1.467   0.366   1.211  0.8460  0.8093  0.2335
 3490SOL    HW210527   1.604   0.312   1.176  0.7868 -0.3086  1.6290
 3491SOL     OW10528   4.673   4.523   2.314  0.1773  0.7275 -0.6731
 3491SOL    HW110529   4.724   4.482   2.384 -0.3103 -0.7539 -1.1577
 3491SOL    HW210530   4.728   4.597   2.285  0.3196  1.4806  1.3407
 3492SOL     OW10531   2.424   1.868   0.905  0.6875  0.0753 -0.3206
 3492SOL    HW110532   2.491   1.931   0.929  1.8541 -1.2384  0.0364
 3492SOL    HW210533   2.457   1.825   0.826  0.7984 -1.2858  0.4232
 3493SOL     OW10534   1.902   4.688   3.029 -0.2936 -0.5052  0.0273
 3493SOL    HW110535   1.844   4.613   3.018 -0.3562 -0.4868  0.2239
 3493SOL    HW210536   1.974   4.655   3.083 -1.2156  0.0286  1.6747
 3494SOL     OW10537   0.809   2.335   1.800  0.3341  0.1278  0.6684
 3494SOL    HW110538   0.812   2.257   1.745  0.3134  0.1446  0.6438
 3494SOL    HW210539   0.821   2.408   1.740 -0.3273  0.1855  0.5924
 3495SOL     OW10540   0.662   3.697   4.140 -0.0364 -0.2845 -0.0546
 3495SOL    HW110541   0.587   3.730   4.091 -1.3047 -1.2259  1.1515
 3495SOL    HW210542   0.693   3.773   4.190  0.7935  0.4817 -1.6874
 3496SOL     OW10543   2.515   3.681   1.843 -0.1991  0.2266  0.0660
 3496SOL    HW110544   2.522   3.591   1.810 -0.4832 -0.0086  0.6439
 3496SOL    HW210545   2.545   3.676   1.933  1.0114  0.9598 -0.2696
 3497SOL     OW10546   1.828   4.968   4.857 -0.0292 -0.8336  0.3436
 3497SOL    HW110547   1.818   4.955   4.952 -1.0668 -0.4793  0.2951
 3497SOL    HW210548   1.908   5.020   4.848  2.8333 -4.7405  0.7061
 3498SOL     OW10549   2.862   0.689   1.699  0.1408  0.0438  0.3285
 3498SOL    HW110550   2.778   0.730   1.716  0.5568  0.5007  1.3694
 3498SOL    HW210551   2.920   0.762   1.677  0.4879 -0.1613  0.5484
 3499SOL     OW10552   0.773   4.541   0.255 -0.6808 -0.2035 -0.4572
 3499SOL    HW110553   0.747   4.578   0.170  0.2623  0.2367 -0.5697
 3499SOL    HW210554   0.700   4.485   0.280 -1.9856  1.4214 -0.4666
 3500SOL     OW10555   1.859   0.289   0.140  0.4111  0.4049  0.1618
 3500SOL    HW110556   1.764   0.278   0.138  0.1491  2.0540  1.3460
 3500SOL    HW210557   1.871   0.383   0.155  2.2592  0.6598 -2.2418
 3501SOL     OW10558   0.532   4.058   2.263 -0.1912  0.1967 -0.1817
 3501SOL    HW110559   0.579   3.976   2.247  1.8367  1.1354  0.6259
 3501SOL    HW210560   0.575   4.122   2.207  0.6434  1.4312  1.7464
 3502SOL     OW10561   0.279   3.636   3.146  0.0164 -0.3507 -0.0622
 3502SOL    HW110562   0.322   3.598   3.224 -1.0001  1.4744  1.4775
 3502SOL    HW210563   0.340   3.703   3.116 -1.0244  1.2701  1.2732
 3503SOL     OW10564   3.460   4.096   0.595 -0.0085 -1.5102 -0.1427
 3503SOL    HW110565   3.463   4.011   0.551 -1.1114 -1.7840  0.2810
 3503SOL    HW210566   3.373   4.131   0.574  0.2644 -0.6835  0.0588
 3504SOL     OW10567   4.610   3.976   1.771 -0.2027 -0.1480  0.6432
 3504SOL    HW110568   4.681   3.912   1.784 -0.9178 -0.8153  1.3697
 3504SOL    HW210569   4.649   4.043   1.714  0.6859 -1.0242  0.1761
 3505SOL     OW10570   1.283   1.402   0.184 -0.0628  0.5367  0.1650
 3505SOL    HW110571   1.267   1.309   0.167 -0.4791  0.3883  1.2821
 3505SOL    HW210572   1.337   1.403   0.263  0.3106  1.2332 -0.0928
 3506SOL     OW10573   1.284   1.386   4.497 -0.0318  0.9012 -0.1261
 3506SOL    HW110574   1.269   1.360   4.588  1.9061  1.9309  0.5319
 3506SOL    HW210575   1.232   1.465   4.485 -1.5559 -0.1062 -0.4474
 3507SOL     OW10576   1.786   1.015   1.884  0.8792  1.1241  0.5425
 3507SOL    HW110577   1.810   1.087   1.826 -0.1414  2.1704  1.3636
 3507SOL    HW210578   1.756   0.945   1.826  0.6734  1.8320 -0.2117
 3508SOL     OW10579   4.413   3.167   0.495 -0.1525 -0.3369  0.1635
 3508SOL    HW110580   4.500   3.197   0.470  0.2665 -1.9187 -0.4024
 3508SOL    HW210581   4.393   3.213   0.576  1.2662 -0.0366  0.3597
 3509SOL     OW10582   3.085   3.409   4.615 -0.2611  0.3886 -0.2536
 3509SOL    HW110583   3.061   3.478   4.677 -2.3112  0.3282 -0.9026
 3509SOL    HW210584   3.083   3.329   4.666  0.3790  0.5971  0.1086
 3510SOL     OW10585   1.572   0.732   3.944  0.0086  0.4773 -0.1988
 3510SOL    HW110586   1.662   0.760   3.961  0.2143 -0.0786 -0.3781
 3510SOL    HW210587   1.561   0.743   3.849  0.2681 -0.5565 -0.3589
 3511SOL     OW10588   4.044   0.373   4.762 -0.1710  0.1331  0.1614
 3511SOL    HW110589   3.951   0.376   4.783  0.0181 -0.1915  1.1072
 3511SOL    HW210590   4.066   0.462   4.735 -1.1043 -0.1712 -1.7274
 3512SOL     OW10591   3.982   1.637   0.668  0.2357 -0.2196  0.0079
 3512SOL    HW110592   3.939   1.556   0.695  0.3729 -0.1203  0.5151
 3512SOL    HW210593   3.910   1.700   0.658  0.3286  0.2597  1.9308
 3513SOL     OW10594   3.130   1.023   3.232  0.0175  0.4417 -0.5960
 3513SOL    HW110595   3.150   0.962   3.304  1.7501  0.4521 -1.0282
 3513SOL    HW210596   3.158   1.109   3.265 -0.6659  0.7147 -0.7033
 3514SOL     OW10597   4.889   1.189   1.199 -0.0380 -0.5254 -0.3701
 3514SOL    HW110598   4.985   1.196   1.200 -0.0882  0.2942 -0.7499
 3514SOL    HW210599   4.868   1.164   1.110 -0.3456  2.2915 -1.1700
 3515SOL     OW10600   1.384   2.714   3.308  0.5603 -0.3768 -0.0033
 3515SOL    HW110601   1.363   2.763   3.388 -0.2853 -0.2349 -0.2965
 3515SOL    HW210602   1.301   2.671   3.285  0.0844  1.5302 -2.1494
 3516SOL     OW10603   0.883   4.327   2.400  0.3938 -0.0704 -0.3893
 3516SOL    HW110604   0.851   4.402   2.351 -0.1296 -0.0582 -0.0293
 3516SOL    HW210605   0.978   4.330   2.389  0.2952  0.0666 -1.2012
 3517SOL     OW10606   1.969   1.897   3.567 -0.1681  0.0838 -0.3162
 3517SOL    HW110607   2.042   1.929   3.620  0.1027  0.4640 -0.9100
 3517SOL    HW210608   1.905   1.967   3.568 -0.5686 -0.2775  0.2610
 3518SOL     OW10609   1.083   1.715   2.770  0.5896  0.4691  0.4293
 3518SOL    HW110610   1.104   1.624   2.751 -0.2320  0.4744 -0.5623
 3518SOL    HW210611   1.153   1.765   2.729  0.3028  0.3448 -0.2160
 3519SOL     OW10612   0.208   4.808   1.725 -0.3366 -0.6178 -0.3451
 3519SOL    HW110613   0.273   4.819   1.795 -1.0723  0.5818  0.1782
 3519SOL    HW210614   0.197   4.896   1.688 -1.4955 -0.8432 -0.5662
 3520SOL     OW10615   3.169   4.671   0.983  0.6616  0.3352  0.3997
 3520SOL    HW110616   3.254   4.713   0.976  0.6627  0.1804 -0.5287
 3520SOL    HW210617   3.176   4.591   0.931 -0.1704  0.5173 -0.0048
 3521SOL     OW10618   1.451   4.936   3.933  0.1872 -0.3390 -0.2655
 3521SOL    HW110619   1.458   4.867   3.867  1.4429  0.1325 -0.6656
 3521SOL    HW210620   1.525   4.920   3.992 -0.5540 -0.3824  0.6677
 3522SOL     OW10621   3.740   2.659   3.615 -0.0234 -0.2150 -0.0850
 3522SOL    HW110622   3.775   2.650   3.527  0.5083  0.9868 -0.0256
 3522SOL    HW210623   3.776   2.742   3.647  1.1063 -1.3798  1.8763
 3523SOL     OW10624   1.748   4.172   3.416 -0.3650  0.1843  0.3332
 3523SOL    HW110625   1.803   4.250   3.416 -0.5930  0.3502  0.8279
 3523SOL    HW210626   1.807   4.101   3.391  0.6729 -0.0238  3.0434
 3524SOL     OW10627   1.277   0.348   4.113  0.8110  0.3170 -0.1199
 3524SOL    HW110628   1.246   0.302   4.035  1.2366 -0.1365 -0.0299
 3524SOL    HW210629   1.281   0.440   4.087  2.6954 -0.0195 -1.2424
 3525SOL     OW10630   2.397   1.784   1.347 -0.3012  0.4441  0.3593
 3525SOL    HW110631   2.485   1.753   1.326 -0.3986  0.1133  0.4368
 3525SOL    HW210632   2.397   1.793   1.443 -0.2168  0.8635  0.3249
 3526SOL     OW10633   2.420   1.096   1.133 -0.1858  0.1079  0.3919
 3526SOL    HW110634   2.440   1.188   1.150  1.2206 -0.3460  1.3644
 3526SOL    HW210635   2.363   1.070   1.206  1.4349 -0.4064  1.5344
 3527SOL     OW10636   3.372   3.624   4.007 -0.1404  0.4148 -0.1737
 3527SOL    HW110637   3.450   3.580   4.039 -0.7606 -2.5007 -2.2381
 3527SOL    HW210638   3.394   3.651   3.918 -1.1433  0.3438 -0.4649
 3528SOL     OW10639   3.380   0.420   0.143 -0.2916 -0.0927  0.3824
 3528SOL    HW110640   3.376   0.459   0.230 -1.7978  2.1171 -0.5866
 3528SOL    HW210641   3.318   0.347   0.146 -0.6808  0.2609  1.0285
 3529SOL     OW10642   2.651   2.516   3.850  0.6887 -0.3300  0.1009
 3529SOL    HW110643   2.596   2.590   3.823 -0.7721 -1.7863 -1.1242
 3529SOL    HW210644   2.605   2.479   3.925  3.1454  1.8514  2.9697
 3530SOL     OW10645   2.211   2.552   1.487 -0.2119  0.5705  0.3043
 3530SOL    HW110646   2.227   2.461   1.511 -0.9747  0.2125 -0.4824
 3530SOL    HW210647   2.179   2.547   1.397  0.0177  1.6449  0.1553
 3531SOL     OW10648   2.086   4.165   4.149  0.2211 -0.6030  0.6261
 3531SOL    HW110649   2.134   4.199   4.224  1.2358  0.5795 -0.4970
 3531SOL    HW210650   2.002   4.137   4.184 -0.0601  1.6547  1.9017
 3532SOL     OW10651   0.135   2.412   1.559  0.1328  0.1191  0.0506
 3532SOL    HW110652   0.040   2.422   1.548 -0.1578  0.5311  2.3683
 3532SOL    HW210653   0.159   2.482   1.620  1.6385 -1.0010  0.7917
 3533SOL     OW10654   3.133   0.208   3.591  0.7602  0.1510  0.0052
 3533SOL    HW110655   3.187   0.249   3.523 -1.0071  0.5403 -1.2613
 3533SOL    HW210656   3.108   0.280   3.649 -1.3755  0.7720 -1.5493
 3534SOL     OW10657   0.990   1.007   4.342 -0.7991 -0.0366  0.1149
 3534SOL    HW110658   0.999   1.090   4.389  2.0360 -0.5369  0.6602
 3534SOL    HW210659   1.076   0.994   4.301 -1.3804 -2.3905 -0.4938
 3535SOL     OW10660   3.156   3.227   1.220 -0.2833 -0.2015  0.4968
 3535SOL    HW110661   3.150   3.272   1.304 -0.2831 -0.6252  0.7284
 3535SOL    HW210662   3.108   3.283   1.159 -1.1401 -0.3856  0.9858
 3536SOL     OW10663   3.808   0.174   1.328 -0.4048  0.2217  0.3684
 3536SOL    HW110664   3.755   0.145   1.253  0.9719 -0.8525 -0.2225
 3536SOL    HW210665   3.859   0.097   1.352  0.6902  1.1598  1.1076
 3537SOL     OW10666   4.298   2.086   0.257  0.4966 -0.5876 -0.2144
 3537SOL    HW110667   4.304   1.995   0.285 -2.2044 -1.2683 -1.5658
 3537SOL    HW210668   4.383   2.104   0.216  1.1765 -2.3682  0.3166
 3538SOL     OW10669   1.862   0.490   1.254 -0.1697  0.0402 -0.2420
 3538SOL    HW110670   1.955   0.469   1.247  0.2788  1.8001  0.1126
 3538SOL    HW210671   1.825   0.464   1.169  0.4081 -1.6228 -0.0245
 3539SOL     OW10672   2.688   1.835   2.120 -0.4744 -0.2654  0.2242
 3539SOL    HW110673   2.635   1.914   2.107 -0.4154 -0.4110 -1.0965
 3539SOL    HW210674   2.625   1.765   2.130 -0.5292 -0.1359  0.7743
 3540SOL     OW10675   4.662   4.647   2.719 -0.5816  0.2795  0.0348
 3540SOL    HW110676   4.645   4.707   2.646 -1.8843 -1.5034 -1.1959
 3540SOL    HW210677   4.756   4.628   2.713 -0.3697  1.3298 -0.2146
 3541SOL     OW10678   0.613   3.541   1.763  0.2414  0.1098 -0.2920
 3541SOL    HW110679   0.551   3.599   1.719 -0.1377 -0.0153  0.0683
 3541SOL    HW210680   0.596   3.553   1.856  0.2851 -0.4419 -0.2070
 3542SOL     OW10681   3.051   2.476   4.732  0.0982 -0.4602  0.3307
 3542SOL    HW110682   3.073   2.430   4.813  0.2802 -0.9274  0.0184
 3542SOL    HW210683   3.126   2.534   4.716 -0.1807  0.0316  0.7823
 3543SOL     OW10684   0.645   4.969   3.672 -0.1092 -0.4226 -0.0008
 3543SOL    HW110685   0.669   4.980   3.580  2.1707  0.9668  0.7001
 3543SOL    HW210686   0.652   5.056   3.710  1.9764 -1.4034  2.1142
 3544SOL     OW10687   4.454   1.488   3.546 -0.0146  0.1582 -0.6298
 3544SOL    HW110688   4.392   1.444   3.488  1.0959  0.5436 -2.1603
 3544SOL    HW210689   4.537   1.488   3.498  0.9439  0.5349  0.9485
 3545SOL     OW10690   4.677   3.686   3.088 -0.8187 -0.3982  0.0332
 3545SOL    HW110691   4.627   3.756   3.045  1.1463  0.8056 -0.4823
 3545SOL    HW210692   4.649   3.606   3.045 -1.4861  0.3633 -1.0025
 3546SOL     OW10693   3.980   1.917   2.035  0.3175 -0.5688 -0.2347
 3546SOL    HW110694   4.021   2.002   2.052 -1.2945 -0.1120  1.6540
 3546SOL    HW210695   3.988   1.905   1.940  0.8396  1.5431 -0.4999
 3547SOL     OW10696   3.232   4.506   4.937 -0.6220 -0.1515  0.0790
 3547SOL    HW110697   3.277   4.494   5.020 -0.8270  0.6585  0.3158
 3547SOL    HW210698   3.209   4.417   4.909 -0.3719 -0.4444  0.7780
 3548SOL     OW10699   1.694   0.986   4.402 -0.8478 -0.6675 -0.0990
 3548SOL    HW110700   1.696   0.947   4.489  1.6087 -1.1554 -0.3049
 3548SOL    HW210701   1.671   1.078   4.417  0.3138 -0.5590  1.1607
 3549SOL     OW10702   4.369   1.150   2.776  0.0156 -0.3792 -0.1993
 3549SOL    HW110703   4.298   1.120   2.833  0.3504 -0.0832  0.3847
 3549SOL    HW210704   4.338   1.132   2.687 -1.7790  1.8171 -0.0904
 3550SOL     OW10705   1.090   4.052   4.125 -0.3134  0.4880  0.2022
 3550SOL    HW110706   1.098   3.963   4.090 -0.4405  0.9768 -1.1396
 3550SOL    HW210707   1.013   4.088   4.081  1.2954  2.1699 -1.4336
 3551SOL     OW10708   0.489   4.846   3.397  0.0044  0.4213 -0.1079
 3551SOL    HW110709   0.547   4.830   3.323 -1.1028 -0.5935 -0.7970
 3551SOL    HW210710   0.421   4.903   3.363 -0.7700 -0.4283 -0.0347
 3552SOL     OW10711   1.929   0.778   0.080 -0.0706 -0.4945  0.0439
 3552SOL    HW110712   1.916   0.816  -0.007 -1.1465 -1.5274 -0.2695
 3552SOL    HW210713   2.022   0.792   0.099  0.0429  0.2735 -1.0034
 3553SOL     OW10714   4.584   3.724   4.832 -0.4440  0.3416 -1.1295
 3553SOL    HW110715   4.537   3.795   4.875 -2.3913 -1.6922  0.3521
 3553SOL    HW210716   4.557   3.731   4.740 -1.7311  0.7141 -0.7511
 3554SOL     OW10717   2.856   1.559   4.890 -0.1230  0.0415  0.0530
 3554SOL    HW110718   2.883   1.489   4.831  0.2820 -0.1070  0.4126
 3554SOL    HW210719   2.762   1.570   4.873 -0.7328 -2.1439  1.6151
 3555SOL     OW10720   2.002   1.081   0.890 -0.7758 -0.1799  0.0788
 3555SOL    HW110721   2.062   1.007   0.897 -0.2407  0.2180 -0.2096
 3555SOL    HW210722   1.954   1.065   0.808  0.3482  0.5033 -0.7474
 3556SOL     OW10723   1.916   2.865   2.152  0.0030  0.0535  0.3770
 3556SOL    HW110724   1.941   2.897   2.238 -1.3306  0.2113  0.7140
 3556SOL    HW210725   1.862   2.787   2.169  0.9625 -0.8126 -0.3659
 3557SOL     OW10726   4.505   0.922   2.348 -0.0749 -0.1074  0.1158
 3557SOL    HW110727   4.464   0.850   2.301 -1.2778  0.7629 -0.2080
 3557SOL    HW210728   4.516   0.991   2.282 -1.1868  0.8893  0.9304
 3558SOL     OW10729   0.478   4.478   4.482 -0.1519 -0.5001 -0.3943
 3558SOL    HW110730   0.480   4.454   4.574 -1.1683  1.6487  0.2628
 3558SOL    HW210731   0.420   4.415   4.441 -1.1346 -0.4248  0.8190
 3559SOL     OW10732   1.479   4.094   0.411 -0.3475  0.0648 -0.0918
 3559SOL    HW110733   1.495   4.153   0.337 -4.6951 -0.7735 -1.9769
 3559SOL    HW210734   1.453   4.152   0.482  0.8726  0.6989 -0.1377
 3560SOL     OW10735   0.312   1.997   3.710  0.1063 -0.0524 -0.3661
 3560SOL    HW110736   0.232   1.950   3.687 -1.4998  1.9944  0.6960
 3560SOL    HW210737   0.287   2.090   3.708  2.8594  0.7901 -1.4667
 3561SOL     OW10738   1.878   1.177   4.749  0.0206  0.6572 -0.0883
 3561SOL    HW110739   1.903   1.256   4.798  1.1963 -0.0385  0.4712
 3561SOL    HW210740   1.785   1.190   4.730 -0.5322  0.9354  2.4260
 3562SOL     OW10741   4.759   1.612   0.369 -0.2605  0.0627  0.3766
 3562SOL    HW110742   4.732   1.644   0.282  0.5362  0.8241  0.4001
 3562SOL    HW210743   4.723   1.676   0.430  0.7635  0.5510  0.4754
 3563SOL     OW10744   3.863   0.885   2.372  0.4539 -0.0123  0.0684
 3563SOL    HW110745   3.779   0.931   2.370  0.3216 -0.2054  0.9583
 3563SOL    HW210746   3.841   0.796   2.402  0.7613 -0.5547 -1.2532
 3564SOL     OW10747   0.514   0.602   4.666 -0.1705  0.4136  0.1126
 3564SOL    HW110748   0.571   0.664   4.712  1.8656  0.4256 -2.1879
 3564SOL    HW210749   0.499   0.643   4.580  0.6856 -1.9020 -1.2231
 3565SOL     OW10750   1.056   4.811   0.692 -0.2884  0.2810  0.2678
 3565SOL    HW110751   1.146   4.781   0.702 -0.4510 -0.1268  0.5180
 3565SOL    HW210752   1.040   4.867   0.769 -1.1516 -1.9023  1.7677
 3566SOL     OW10753   4.194   0.228   0.113 -0.2501 -0.5948 -0.2220
 3566SOL    HW110754   4.192   0.248   0.206  0.5993 -1.9406  0.1167
 3566SOL    HW210755   4.146   0.146   0.105 -1.1150 -0.0212 -1.1212
 3567SOL     OW10756   2.876   1.615   0.591 -0.3853 -0.0230  0.1464
 3567SOL    HW110757   2.834   1.534   0.563  0.2991  0.1923 -1.6171
 3567SOL    HW210758   2.941   1.633   0.524  0.8892  0.9295  1.5674
 3568SOL     OW10759   0.024   2.798   3.167 -0.2777 -0.0426 -0.2688
 3568SOL    HW110760   0.009   2.893   3.170 -0.5936 -0.0072 -1.9485
 3568SOL    HW210761   0.103   2.787   3.115 -0.7850 -0.7350 -0.9204
 3569SOL     OW10762   3.543   3.627   1.918 -0.3083  0.4038  0.3104
 3569SOL    HW110763   3.606   3.697   1.898  0.7132 -0.9391 -1.3495
 3569SOL    HW210764   3.501   3.607   1.835 -3.0350  1.2388  1.3502
 3570SOL     OW10765   4.268   2.292   4.389  0.0050  0.4567 -0.1076
 3570SOL    HW110766   4.173   2.283   4.381  0.0697 -0.5836  0.1254
 3570SOL    HW210767   4.299   2.297   4.298 -0.3216  1.4450 -0.1683
 3571SOL     OW10768   2.596   4.476   1.353 -1.0542 -0.1062  0.0062
 3571SOL    HW110769   2.630   4.552   1.402  0.0900 -0.4848 -0.1519
 3571SOL    HW210770   2.610   4.402   1.412 -0.4047 -0.4538 -0.5716
 3572SOL     OW10771   1.373   2.597   0.776 -0.2915 -0.3168  0.4499
 3572SOL    HW110772   1.354   2.503   0.782 -1.6878 -0.0442  0.6914
 3572SOL    HW210773   1.382   2.625   0.867 -0.0360 -0.1845  0.3837
 3573SOL     OW10774   3.451   1.924   2.150 -0.2012  0.1277 -0.5811
 3573SOL    HW110775   3.466   1.932   2.244 -0.7903  0.5079 -0.5187
 3573SOL    HW210776   3.421   1.834   2.138 -2.5550  0.7911 -0.0658
 3574SOL     OW10777   4.688   2.180   2.336  0.1681 -0.3061  0.0142
 3574SOL    HW110778   4.667   2.125   2.412 -0.4815  0.0293  0.0836
 3574SOL    HW210779   4.616   2.166   2.275 -0.1186  0.6031  0.1169
 3575SOL     OW10780   2.176   1.343   0.607 -0.0832  0.4830  0.0898
 3575SOL    HW110781   2.161   1.385   0.522 -0.9221  0.5951  0.2884
 3575SOL    HW210782   2.226   1.408   0.657 -0.1608  0.6818 -0.0892
 3576SOL     OW10783   2.715   0.595   2.822 -0.2906  0.3100 -0.6160
 3576SOL    HW110784   2.659   0.668   2.849  0.0403  0.9483 -1.5925
 3576SOL    HW210785   2.655   0.532   2.782 -0.8830 -0.9212  1.9745
 3577SOL     OW10786   2.656   4.352   1.972 -0.2205 -0.0928 -0.6677
 3577SOL    HW110787   2.576   4.301   1.957 -0.6715  0.3232  0.2377
 3577SOL    HW210788   2.697   4.358   1.886 -0.3776 -1.6128 -0.8711
 3578SOL     OW10789   3.118   1.459   1.101 -0.2115  0.1477 -0.6646
 3578SOL    HW110790   3.203   1.500   1.116  0.0359 -0.5520 -0.0543
 3578SOL    HW210791   3.058   1.507   1.157  0.3259 -1.1201  1.1030
 3579SOL     OW10792   3.668   4.010   0.796 -0.3885  0.7577  0.3630
 3579SOL    HW110793   3.596   4.004   0.734  1.1819  1.5349 -1.6289
 3579SOL    HW210794   3.663   4.099   0.830  0.0661  1.0684 -0.3631
 3580SOL     OW10795   4.091   4.147   4.168  0.2975  0.1542  0.6562
 3580SOL    HW110796   4.055   4.181   4.250  0.9179 -2.4953  2.1167
 3580SOL    HW210797   4.178   4.114   4.191  0.2432 -1.2079 -0.9054
 3581SOL     OW10798   4.640   0.969   0.351 -0.4725 -0.4255 -0.5917
 3581SOL    HW110799   4.569   1.013   0.304 -0.4341  0.3643  0.0553
 3581SOL    HW210800   4.597   0.900   0.401 -1.0150  0.8651  0.8119
 3582SOL     OW10801   1.343   3.814   0.449  0.2836 -0.0204  0.1839
 3582SOL    HW110802   1.361   3.804   0.355  0.6157  2.3993 -0.0656
 3582SOL    HW210803   1.429   3.824   0.489  0.3778 -3.4734  1.2114
 3583SOL     OW10804   0.123   1.037   2.636 -0.2822 -0.2778 -0.2832
 3583SOL    HW110805   0.142   1.037   2.730  1.3014  0.1627 -0.5583
 3583SOL    HW210806   0.053   0.974   2.625  0.3974 -1.3206  1.0480
 3584SOL     OW10807   2.061   4.396   0.964 -0.1354 -0.3471  0.3078
 3584SOL    HW110808   2.085   4.489   0.973  0.2262 -0.4188  0.0913
 3584SOL    HW210809   2.004   4.394   0.887 -0.5992 -0.2245  0.6397
 3585SOL     OW10810   3.104   4.193   3.251 -0.0326 -0.5001 -0.6509
 3585SOL    HW110811   3.059   4.276   3.270 -2.0210 -1.7807  0.8027
 3585SOL    HW210812   3.088   4.178   3.158 -0.8991  0.0805 -0.6160
 3586SOL     OW10813   3.328   3.569   0.767 -0.2289 -0.7609 -0.2986
 3586SOL    HW110814   3.286   3.502   0.713 -3.0336 -0.3158  1.1368
 3586SOL    HW210815   3.316   3.650   0.718 -0.4016 -0.7520 -0.2447
 3587SOL     OW10816   3.093   0.868   1.593  0.2086 -0.4115  0.1802
 3587SOL    HW110817   3.105   0.940   1.530  1.6688 -0.9649 -0.2313
 3587SOL    HW210818   3.156   0.887   1.662 -0.3351 -0.6090  0.7332
 3588SOL     OW10819   1.921   1.544   4.607  0.1206 -0.1702 -0.1287
 3588SOL    HW110820   1.918   1.480   4.678 -0.5073  1.1242  1.0596
 3588SOL    HW210821   1.895   1.494   4.529 -1.4380 -1.1395  0.9377
 3589SOL     OW10822   4.392   3.370   0.692  0.0005 -0.5586  0.4723
 3589SOL    HW110823   4.459   3.438   0.680 -0.7027  0.4227  1.7596
 3589SOL    HW210824   4.408   3.337   0.780 -1.1742 -0.3172  0.7985
 3590SOL     OW10825   4.866   2.222   2.573 -0.4002 -0.1455 -0.4955
 3590SOL    HW110826   4.825   2.225   2.487 -0.4309 -0.2099 -0.4832
 3590SOL    HW210827   4.960   2.219   2.554 -0.3721  0.7250 -0.5111
 3591SOL     OW10828   2.274   1.120   0.133  0.6780 -0.1846 -0.0608
 3591SOL    HW110829   2.212   1.114   0.206  2.7345 -2.3905  1.6422
 3591SOL    HW210830   2.222   1.093   0.056 -0.5247 -1.9972  1.2906
 3592SOL     OW10831   1.619   2.107   0.354  0.0677  0.3035  0.1014
 3592SOL    HW110832   1.572   2.113   0.272 -0.3658 -3.1978 -0.0525
 3592SOL    HW210833   1.699   2.158   0.340 -1.4560  2.4449 -1.2692
 3593SOL     OW10834   3.157   3.860   4.047 -0.5311  0.4919  0.6098
 3593SOL    HW110835   3.126   3.770   4.054  0.8266  0.1168  2.8718
 3593SOL    HW210836   3.226   3.857   3.981  0.5418 -0.5133  1.7227
 3594SOL     OW10837   3.096   4.386   0.379 -0.5145 -0.4505 -0.2640
 3594SOL    HW110838   3.056   4.307   0.342  0.3845  0.3092 -3.0745
 3594SOL    HW210839   3.024   4.448   0.388 -0.8349 -0.8228 -0.2241
 3595SOL     OW10840   2.775   0.539   0.417  0.4194  0.4198 -0.5109
 3595SOL    HW110841   2.733   0.625   0.415  2.4766  1.4683 -0.2818
 3595SOL    HW210842   2.846   0.548   0.480 -0.2728 -1.9465  0.7262
 3596SOL     OW10843   3.147   2.008   2.456 -0.0036 -0.1248  0.1115
 3596SOL    HW110844   3.191   2.040   2.535  1.6635  0.6523 -1.0661
 3596SOL    HW210845   3.213   1.954   2.412 -1.3672 -1.6839 -0.0904
 3597SOL     OW10846   4.527   4.105   3.532 -0.4251 -0.3095 -0.1545
 3597SOL    HW110847   4.612   4.061   3.545 -0.0337  0.6958  0.8494
 3597SOL    HW210848   4.550   4.193   3.501 -1.0405  0.3584  1.2186
 3598SOL     OW10849   0.364   4.579   2.896 -0.4649 -0.3306  0.1749
 3598SOL    HW110850   0.314   4.521   2.954 -0.5981 -0.3827  0.0095
 3598SOL    HW210851   0.297   4.632   2.852 -0.4094 -0.7218 -0.3904
 3599SOL     OW10852   0.141   0.253   1.387 -0.2022 -0.0932  0.1187
 3599SOL    HW110853   0.151   0.296   1.472 -0.5515  2.0226 -0.8523
 3599SOL    HW210854   0.135   0.325   1.324  1.2104 -1.5883 -1.8548
 3600SOL     OW10855   2.955   2.878   0.373 -0.3757  0.1435 -0.2556
 3600SOL    HW110856   2.863   2.902   0.380 -0.7760 -1.0460 -1.2410
 3600SOL    HW210857   2.978   2.845   0.460 -0.1680  2.6735  0.7415
 3601SOL     OW10858   2.554   3.450   0.484  0.0234  0.1293  0.3074
 3601SOL    HW110859   2.465   3.431   0.454  0.3816 -0.0318 -0.6950
 3601SOL    HW210860   2.553   3.427   0.577 -1.1468  0.7219  0.4641
 3602SOL     OW10861   4.694   3.433   1.005  0.1659  0.3474 -0.1960
 3602SOL    HW110862   4.695   3.365   0.937  0.1956  1.2140 -1.0842
 3602SOL    HW210863   4.784   3.463   1.010  0.0610  0.6567 -0.1550
 3603SOL     OW10864   2.846   4.200   0.240 -0.2937  0.3807 -0.3943
 3603SOL    HW110865   2.837   4.164   0.328 -0.0861  0.0432 -0.5077
 3603SOL    HW210866   2.761   4.187   0.199 -0.8104  1.7189  0.1780
 3604SOL     OW10867   2.128   4.796   3.897 -0.1279 -0.2100 -0.3147
 3604SOL    HW110868   2.038   4.814   3.923  0.1222 -1.0374  1.2154
 3604SOL    HW210869   2.179   4.865   3.940  0.1519 -0.8470  0.3994
 3605SOL     OW10870   1.431   0.456   4.885 -0.1515  0.0026 -0.1382
 3605SOL    HW110871   1.355   0.397   4.882 -1.5431  1.6124  1.3305
 3605SOL    HW210872   1.403   0.534   4.837  0.1198  1.0607  1.3527
 3606SOL     OW10873   3.643   3.861   4.540  0.1159  0.0544 -0.8437
 3606SOL    HW110874   3.726   3.869   4.586  0.4987  0.7727 -1.6255
 3606SOL    HW210875   3.587   3.811   4.599  0.8651  0.2053  0.0131
 3607SOL     OW10876   2.867   4.212   4.734 -0.1998  0.4343  0.2046
 3607SOL    HW110877   2.926   4.190   4.662  0.6649 -0.9596  1.3003
 3607SOL    HW210878   2.887   4.303   4.754  0.1016  0.5984 -0.7808
 3608SOL     OW10879   3.934   3.393   0.361 -0.0529  0.3443 -0.8528
 3608SOL    HW110880   3.881   3.337   0.305  0.2003 -2.5140  1.5441
 3608SOL    HW210881   4.012   3.341   0.381 -0.3625  0.9111  2.4832
 3609SOL     OW10882   4.381   1.975   4.784  0.1827  0.1692  0.0354
 3609SOL    HW110883   4.352   1.945   4.698 -1.5554 -2.0941  1.2839
 3609SOL    HW210884   4.472   2.000   4.772  0.8243 -2.6821 -1.9382
 3610SOL     OW10885   0.247   2.534   4.150 -0.7621  0.2889  0.2757
 3610SOL    HW110886   0.266   2.443   4.170 -2.4871 -0.0076  0.6691
 3610SOL    HW210887   0.160   2.550   4.185 -0.6236  2.0182 -0.0347
 3611SOL     OW10888   2.945   4.947   2.159  0.2203  0.4192  0.0227
 3611SOL    HW110889   2.864   4.986   2.191  0.0941  2.3620 -2.3879
 3611SOL    HW210890   2.926   4.853   2.156 -0.9090  0.5203  2.1478
 3612SOL     OW10891   4.341   3.118   3.522  0.2012  0.1290 -0.0506
 3612SOL    HW110892   4.351   3.213   3.532 -0.9254  0.3269 -0.6295
 3612SOL    HW210893   4.273   3.108   3.455 -0.8384 -1.0719  1.1196
 3613SOL     OW10894   4.044   4.049   3.558 -0.3624  0.1381 -0.2378
 3613SOL    HW110895   3.987   4.028   3.632  1.5888 -1.6882  0.8706
 3613SOL    HW210896   4.111   4.106   3.595  1.5075 -1.9963 -0.0975
 3614SOL     OW10897   0.440   0.532   1.167  0.1762 -0.4238 -0.3991
 3614SOL    HW110898   0.407   0.594   1.232 -0.8977  0.5116 -1.7830
 3614SOL    HW210899   0.387   0.453   1.181 -1.3576  0.3893 -1.2680
 3615SOL     OW10900   4.345   2.806   4.351 -0.0000  0.4071 -0.5477
 3615SOL    HW110901   4.329   2.858   4.272 -1.7643  0.3227 -0.2841
 3615SOL    HW210902   4.386   2.725   4.319 -0.9754  0.2455 -1.4408
 3616SOL     OW10903   2.619   0.347   0.298 -0.5329  0.2892  0.6561
 3616SOL    HW110904   2.664   0.403   0.361 -1.0690  0.2119  1.1204
 3616SOL    HW210905   2.544   0.398   0.269 -1.3530 -0.3907  1.5170
 3617SOL     OW10906   1.877   0.389   4.446 -0.3008 -0.0457  0.0888
 3617SOL    HW110907   1.937   0.421   4.513 -0.2454  1.2482 -0.5326
 3617SOL    HW210908   1.906   0.301   4.426  1.0124  0.3416  0.2385
 3618SOL     OW10909   3.414   2.025   1.711 -0.7157  0.2403  0.0997
 3618SOL    HW110910   3.398   2.114   1.744 -1.9304 -0.0153  0.2605
 3618SOL    HW210911   3.421   2.036   1.616  0.8636  0.7191  0.2436
 3619SOL     OW10912   2.466   3.461   1.033  0.6201  0.7167  0.3222
 3619SOL    HW110913   2.540   3.403   1.017  0.9944  1.5011 -0.9909
 3619SOL    HW210914   2.505   3.540   1.071  0.1839  0.3165  1.6220
 3620SOL     OW10915   0.425   4.170   2.881 -0.3920 -0.1697 -0.0603
 3620SOL    HW110916   0.495   4.218   2.837 -2.1552  3.0379  0.2787
 3620SOL    HW210917   0.443   4.182   2.975 -1.7422  1.5109  0.0506
 3621SOL     OW10918   4.359   2.073   3.012  0.5471 -0.2378 -0.1417
 3621SOL    HW110919   4.345   2.103   2.923 -0.0344  0.6178  0.2253
 3621SOL    HW210920   4.286   2.109   3.062 -0.3496 -2.4562  0.3035
 3622SOL     OW10921   2.435   2.449   0.053 -0.2146 -0.1161 -0.0264
 3622SOL    HW110922   2.418   2.360   0.083  1.6371 -0.7796 -0.7654
 3622SOL    HW210923   2.528   2.464   0.073 -0.6103  1.8562  0.5562
 3623SOL     OW10924   4.856   1.468   4.642  0.2455 -0.3874  0.2481
 3623SOL    HW110925   4.838   1.399   4.705 -1.0761 -0.3289 -0.0312
 3623SOL    HW210926   4.797   1.540   4.667  0.3951 -0.0010 -0.4656
 3624SOL     OW10927   3.992   0.599   4.624  0.4235 -0.4361  0.0443
 3624SOL    HW110928   4.068   0.622   4.678  1.2890 -0.2530 -1.2008
 3624SOL    HW210929   3.955   0.683   4.598 -0.4605 -0.5266  0.9643
 3625SOL     OW10930   3.082   2.854   3.496  0.4446  0.1575 -0.7811
 3625SOL    HW110931   3.057   2.814   3.412 -2.1869  0.7002 -0.3498
 3625SOL    HW210932   3.003   2.900   3.525  1.6471  0.9746  1.4482
 3626SOL     OW10933   0.394   2.303   0.594  0.0226  0.3368 -0.0724
 3626SOL    HW110934   0.373   2.210   0.603 -3.2282  1.0722  1.3724
 3626SOL    HW210935   0.398   2.318   0.500  1.2225 -1.3479 -0.3312
 3627SOL     OW10936   1.966   3.225   2.408  0.1391 -0.6025  0.0093
 3627SOL    HW110937   1.921   3.302   2.374  1.3461 -0.0409 -0.3837
 3627SOL    HW210938   1.910   3.193   2.479  0.3409  1.5467  1.2207
 3628SOL     OW10939   0.572   1.071   1.993  0.0525  0.5979  0.2445
 3628SOL    HW110940   0.542   1.132   1.926  0.5519 -1.8723 -2.4259
 3628SOL    HW210941   0.582   0.988   1.947  1.2203 -1.0801  3.2530
 3629SOL     OW10942   1.648   0.617   4.296 -0.1452  0.1705 -0.3929
 3629SOL    HW110943   1.662   0.592   4.205 -0.7374 -0.4762 -0.3223
 3629SOL    HW210944   1.639   0.533   4.342 -1.7995  0.4913 -0.0763
 3630SOL     OW10945   1.886   3.751   3.821  0.0715 -0.0886  0.0758
 3630SOL    HW110946   1.920   3.684   3.879  0.7205  0.2843  0.1350
 3630SOL    HW210947   1.852   3.819   3.880 -0.0811 -0.1131  0.0171
 3631SOL     OW10948   3.450   1.857   1.172 -0.1743 -0.2665  0.4528
 3631SOL    HW110949   3.500   1.881   1.251  2.6772 -0.3049 -1.1859
 3631SOL    HW210950   3.514   1.812   1.117 -1.8073  0.5278 -2.2686
 3632SOL     OW10951   4.445   0.226   3.842  0.1403  0.2414  0.0741
 3632SOL    HW110952   4.508   0.160   3.871 -0.8340 -0.8890 -0.2948
 3632SOL    HW210953   4.371   0.216   3.902  1.0922  3.0333  1.9298
 3633SOL     OW10954   3.633   2.377   0.062  1.0570  0.0538  0.0733
 3633SOL    HW110955   3.718   2.338   0.045  1.6524 -0.4482  3.4815
 3633SOL    HW210956   3.652   2.468   0.085  0.4165  0.4628 -0.8974
 3634SOL     OW10957   2.698   1.298   2.411  0.2246  0.1503 -0.0337
 3634SOL    HW110958   2.647   1.346   2.477  0.3456 -0.8417  0.8161
 3634SOL    HW210959   2.654   1.315   2.328 -2.1474 -1.4541  0.7845
 3635SOL     OW10960   2.068   0.731   4.039  0.0400 -0.1653  0.1369
 3635SOL    HW110961   2.063   0.707   4.132 -1.3515  0.7724  0.3416
 3635SOL    HW210962   2.131   0.671   4.002  2.7603  1.1494  2.2398
 3636SOL     OW10963   3.884   2.988   3.382 -0.1810 -0.5316  0.2978
 3636SOL    HW110964   3.819   3.033   3.436  0.2446  1.2949 -0.6494
 3636SOL    HW210965   3.862   2.895   3.392 -1.6217 -0.1004  1.6459
 3637SOL     OW10966   2.011   4.956   0.131 -0.1333 -0.0527  0.1305
 3637SOL    HW110967   2.085   5.013   0.109 -0.2493  0.1197  0.1826
 3637SOL    HW210968   1.978   4.990   0.214 -0.5817  0.1887 -0.1369
 3638SOL     OW10969   3.540   4.119   3.305 -0.5640  0.1642 -0.0223
 3638SOL    HW110970   3.458   4.139   3.351 -0.4506  0.8425 -0.0989
 3638SOL    HW210971   3.549   4.024   3.311 -1.1765  0.1218  0.2939
 3639SOL     OW10972   4.538   2.716   3.514  0.2631  0.3369 -0.2734
 3639SOL    HW110973   4.596   2.728   3.439 -0.2262  2.9947 -0.3081
 3639SOL    HW210974   4.520   2.804   3.545 -2.5025 -0.4646  0.6913
 3640SOL     OW10975   2.601   3.575   3.829  0.2517 -0.0769 -0.0125
 3640SOL    HW110976   2.622   3.488   3.795  2.7176 -0.0578  1.2047
 3640SOL    HW210977   2.628   3.635   3.760  1.0651 -0.1961  0.1938
 3641SOL     OW10978   0.156   3.826   1.809 -0.3571  0.0115 -0.4793
 3641SOL    HW110979   0.061   3.831   1.797 -0.5732  1.0024  1.2546
 3641SOL    HW210980   0.185   3.917   1.804  0.5300 -0.3051 -1.1855
 3642SOL     OW10981   0.815   2.769   4.693 -0.8868 -0.2004 -0.3723
 3642SOL    HW110982   0.802   2.675   4.688 -1.2500 -0.2096  0.5713
 3642SOL    HW210983   0.875   2.782   4.766 -1.1324  0.3231 -0.2532
 3643SOL     OW10984   3.565   3.164   3.101 -0.1843  0.2312 -0.0297
 3643SOL    HW110985   3.579   3.143   3.009  0.8242  0.6027  0.0221
 3643SOL    HW210986   3.480   3.125   3.122  0.8711 -2.4754 -0.3322
 3644SOL     OW10987   2.413   2.554   4.790 -0.1944 -0.0172 -0.1240
 3644SOL    HW110988   2.438   2.529   4.878 -0.1865  0.9967  0.1776
 3644SOL    HW210989   2.453   2.489   4.733 -1.1883 -1.3833  0.6852
 3645SOL     OW10990   0.149   3.611   1.120  0.1045 -0.0771  0.5169
 3645SOL    HW110991   0.134   3.656   1.203  0.5724 -0.4686  0.8266
 3645SOL    HW210992   0.179   3.523   1.146 -0.0420 -0.3062 -0.0656
 3646SOL     OW10993   2.776   3.506   2.525  0.4239  0.3548 -0.3677
 3646SOL    HW110994   2.701   3.469   2.478  1.3556 -0.7995 -0.9997
 3646SOL    HW210995   2.818   3.431   2.567  1.7942  0.8233 -0.8431
 3647SOL     OW10996   1.466   1.719   4.046  0.2229 -0.0989 -0.9952
 3647SOL    HW110997   1.515   1.778   4.104 -2.0905  1.0354 -0.0915
 3647SOL    HW210998   1.426   1.655   4.105 -0.5885 -0.1053 -1.5506
 3648SOL     OW10999   0.532   1.751   0.966 -0.1158 -0.6903  0.0991
 3648SOL    HW111000   0.574   1.764   1.051  1.4914  0.6954 -0.8462
 3648SOL    HW211001   0.441   1.777   0.980  0.1404 -0.4112  1.3749
 3649SOL     OW11002   1.147   1.606   4.480 -0.7239  0.0056  0.2057
 3649SOL    HW111003   1.128   1.676   4.417  0.0788  0.2154  0.1840
 3649SOL    HW211004   1.061   1.576   4.509 -1.0815  1.8069  1.0967
 3650SOL     OW11005   4.758   4.372   1.999 -0.2164  0.0407  0.4238
 3650SOL    HW111006   4.713   4.430   2.060  0.7860  1.7307 -0.3629
 3650SOL    HW211007   4.696   4.301   1.983 -1.7710  1.2401  0.9068
 3651SOL     OW11008   3.745   4.780   1.767  0.1953  0.1539  0.1656
 3651SOL    HW111009   3.659   4.742   1.751  0.7576 -1.1543  0.0316
 3651SOL    HW211010   3.797   4.707   1.801  0.7457  1.3673  2.0589
 3652SOL     OW11011   3.476   0.136   3.409 -0.8250 -0.5030  0.3400
 3652SOL    HW111012   3.403   0.197   3.394 -0.2379  0.5168  1.4955
 3652SOL    HW211013   3.434   0.058   3.444 -1.6094 -0.8752 -1.3289
 3653SOL     OW11014   1.387   3.499   0.120  0.5694 -0.0145  0.5029
 3653SOL    HW111015   1.300   3.491   0.080  0.1604 -2.9723  1.7094
 3653SOL    HW211016   1.440   3.435   0.073  0.6284 -2.0237  3.0745
 3654SOL     OW11017   2.945   0.706   0.601  0.0113 -0.4051 -0.3770
 3654SOL    HW111018   2.970   0.788   0.558  1.9477  0.0580  1.4718
 3654SOL    HW211019   3.026   0.654   0.603 -0.6555 -1.4621  0.4250
 3655SOL     OW11020   4.331   1.933   4.498 -0.2336  0.1039 -0.2931
 3655SOL    HW111021   4.341   1.839   4.480  1.5066 -0.1634  1.6257
 3655SOL    HW211022   4.406   1.974   4.456 -0.7727  0.5946 -0.7851
 3656SOL     OW11023   4.046   3.323   3.804 -0.4755 -0.3767 -0.7617
 3656SOL    HW111024   4.022   3.241   3.847  0.2285 -0.6963 -0.9617
 3656SOL    HW211025   4.106   3.366   3.865 -1.0346  0.1156 -0.5454
 3657SOL     OW11026   1.541   3.526   4.461  0.3070  0.7331  0.1020
 3657SOL    HW111027   1.544   3.433   4.436 -0.8415  0.6272  0.3081
 3657SOL    HW211028   1.477   3.564   4.402 -0.3996  1.0606  1.0543
 3658SOL     OW11029   3.528   3.458   0.556  0.0996  0.0971  0.0251
 3658SOL    HW111030   3.570   3.535   0.595  0.0307  0.3969 -0.4882
 3658SOL    HW211031   3.472   3.424   0.626  0.5143  0.2136  0.4217
 3659SOL     OW11032   1.575   0.583   1.389 -0.3391  0.5644  0.0156
 3659SOL    HW111033   1.575   0.525   1.313 -1.0702  0.7272 -0.1129
 3659SOL    HW211034   1.651   0.554   1.441  0.3951  0.6974 -0.9514
 3660SOL     OW11035   2.902   1.916   3.353  0.3824 -0.2017 -0.2639
 3660SOL    HW111036   2.985   1.932   3.398  0.2094  0.7495 -0.2650
 3660SOL    HW211037   2.837   1.966   3.403 -0.1948 -0.9537 -0.2518
 3661SOL     OW11038   4.386   0.940   3.815  0.3853  0.1191 -0.3459
 3661SOL    HW111039   4.373   1.016   3.759 -0.1100  0.3004  0.0045
 3661SOL    HW211040   4.405   0.868   3.755 -1.2238  0.0771 -0.8318
 3662SOL     OW11041   1.672   4.715   0.469 -0.1612 -0.0203 -0.0780
 3662SOL    HW111042   1.625   4.775   0.411  1.0518 -0.6319 -1.7819
 3662SOL    HW211043   1.753   4.761   0.491  0.8357 -0.9939 -1.4972
 3663SOL     OW11044   0.862   3.754   4.447  0.6648  0.1498 -0.3814
 3663SOL    HW111045   0.875   3.836   4.401  1.2640 -0.7470 -1.8794
 3663SOL    HW211046   0.833   3.780   4.535  1.4959  1.9546 -0.5981
 3664SOL     OW11047   0.286   1.586   2.217  0.5523 -0.1332  0.1267
 3664SOL    HW111048   0.258   1.517   2.156 -1.6954 -1.1533  2.1068
 3664SOL    HW211049   0.297   1.540   2.301 -0.7984  1.8091  1.4665
 3665SOL     OW11050   0.878   0.632   1.654 -0.4094  0.3934 -0.1838
 3665SOL    HW111051   0.794   0.652   1.612 -0.7897 -0.6440  0.0558
 3665SOL    HW211052   0.938   0.617   1.581 -0.8139 -0.3895 -0.3614
 3666SOL     OW11053   1.264   1.219   4.180  0.6055 -0.2408  0.5885
 3666SOL    HW111054   1.245   1.128   4.159  0.3142  0.0773 -0.5769
 3666SOL    HW211055   1.330   1.246   4.116 -1.4913  1.2230 -1.1053
 3667SOL     OW11056   1.199   4.974   0.433  0.0286 -0.3197  0.3217
 3667SOL    HW111057   1.112   5.006   0.409  0.8642  0.9643 -1.2261
 3667SOL    HW211058   1.212   5.005   0.523 -1.0968 -0.5124  0.5619
 3668SOL     OW11059   0.155   1.717   0.756  0.7863 -0.6251 -0.7574
 3668SOL    HW111060   0.120   1.804   0.775  0.8407 -0.7981  0.2122
 3668SOL    HW211061   0.078   1.663   0.739  0.6732 -0.6588 -0.1501
 3669SOL     OW11062   4.461   4.649   1.615  0.0568  0.0247 -0.4243
 3669SOL    HW111063   4.404   4.579   1.583 -0.4974  0.6871 -0.9369
 3669SOL    HW211064   4.400   4.720   1.638  0.6093  0.3811 -0.0396
 3670SOL     OW11065   1.695   4.154   4.783 -0.5416 -0.4063  0.2449
 3670SOL    HW111066   1.608   4.143   4.744 -0.4785  0.7532 -0.2900
 3670SOL    HW211067   1.749   4.189   4.711  0.4939 -1.5034  0.4445
 3671SOL     OW11068   4.913   3.435   0.672 -0.2719  0.2595 -0.0118
 3671SOL    HW111069   4.885   3.439   0.764 -1.1354 -1.4624 -0.1605
 3671SOL    HW211070   4.973   3.509   0.662 -0.9330  1.0757  1.6698
 3672SOL     OW11071   2.963   0.041   1.909  0.0831 -0.3330 -0.1674
 3672SOL    HW111072   3.048   0.020   1.868  0.8584  1.3598  0.4908
 3672SOL    HW211073   2.970   0.005   1.997  0.8577  1.3448  0.4886
 3673SOL     OW11074   2.715   3.027   0.478  0.5192  0.2334  0.0496
 3673SOL    HW111075   2.682   3.066   0.560  0.8589 -0.1988  0.3942
 3673SOL    HW211076   2.648   2.964   0.454  0.6194  0.0629  0.2179
 3674SOL     OW11077   2.693   3.864   2.978 -0.5052  0.4573 -0.2688
 3674SOL    HW111078   2.690   3.909   3.063 -0.2610  1.0160 -0.5513
 3674SOL    HW211079   2.655   3.927   2.916  0.9762  0.7816 -0.8865
 3675SOL     OW11080   1.997   0.158   4.479 -0.0410 -0.5340  0.2538
 3675SOL    HW111081   2.086   0.161   4.513 -0.8415 -0.3202  2.5396
 3675SOL    HW211082   1.966   0.070   4.501 -0.7682 -0.2005  0.6042
 3676SOL     OW11083   2.271   3.812   4.434 -0.3484  0.3634  0.0622
 3676SOL    HW111084   2.299   3.811   4.342 -0.7969 -0.9340 -0.0739
 3676SOL    HW211085   2.332   3.754   4.479 -0.6453  0.3217  0.4203
 3677SOL     OW11086   1.273   1.401   1.984  0.0537  0.0835 -0.4438
 3677SOL    HW111087   1.293   1.492   2.006  1.5240 -0.4603  0.5553
 3677SOL    HW211088   1.321   1.349   2.048  1.6222 -1.4928 -2.7350
 3678SOL     OW11089   1.984   2.565   2.818  0.6635 -0.5775 -0.3113
 3678SOL    HW111090   1.912   2.509   2.790  0.6623 -0.0155 -1.5170
 3678SOL    HW211091   1.970   2.577   2.912 -0.8519 -0.4462 -0.5217
 3679SOL     OW11092   4.673   0.968   3.621  0.8567 -0.2203 -0.8394
 3679SOL    HW111093   4.614   1.018   3.565  1.3166  0.1402 -1.0078
 3679SOL    HW211094   4.735   1.033   3.655 -0.3544 -0.1039  1.3895
 3680SOL     OW11095   4.382   0.639   2.235 -0.2505 -0.3856 -0.6665
 3680SOL    HW111096   4.304   0.586   2.217  0.1342 -0.9319 -0.7416
 3680SOL    HW211097   4.438   0.627   2.158  0.0332 -0.2152 -0.4915
 3681SOL     OW11098   3.249   3.352   1.693  0.1361  0.0524  0.5186
 3681SOL    HW111099   3.338   3.338   1.661  0.0596 -0.4145  0.4956
 3681SOL    HW211100   3.247   3.305   1.776 -0.3867 -0.7999  0.0355
 3682SOL     OW11101   4.602   0.461   3.430 -0.8552 -0.1683  0.2061
 3682SOL    HW111102   4.617   0.434   3.521 -0.9461 -0.6838  0.0734
 3682SOL    HW211103   4.687   0.448   3.388 -0.5439  0.9892  0.4270
 3683SOL     OW11104   2.227   4.951   0.384  0.1395  0.2842 -0.3870
 3683SOL    HW111105   2.308   4.938   0.433 -1.0134  0.1323  1.6032
 3683SOL    HW211106   2.221   5.046   0.373 -0.0163  0.4017  0.6004
 3684SOL     OW11107   2.361   3.445   3.969 -0.1986 -0.1596  0.1386
 3684SOL    HW111108   2.381   3.435   4.062 -0.7608  0.8170  0.3840
 3684SOL    HW211109   2.444   3.473   3.929 -0.2913  0.8514  0.6155
 3685SOL     OW11110   2.707   1.787   1.642  0.1682 -0.2908  0.1538
 3685SOL    HW111111   2.777   1.788   1.708  1.7263  2.2060 -1.3709
 3685SOL    HW211112   2.682   1.879   1.633 -1.8244 -0.8916 -0.9345
 3686SOL     OW11113   4.374   0.442   0.883 -0.3875  0.3554 -0.3788
 3686SOL    HW111114   4.370   0.519   0.825 -1.1676  1.4750  1.1053
 3686SOL    HW211115   4.300   0.453   0.943  0.9349 -0.2572  1.4481
 3687SOL     OW11116   3.737   0.298   2.070 -0.3694  0.4998  0.0594
 3687SOL    HW111117   3.689   0.321   1.990 -1.9345  0.0044  0.8032
 3687SOL    HW211118   3.670   0.298   2.138  0.6633 -0.4703  1.1167
 3688SOL     OW11119   0.305   0.224   2.585 -0.4350  0.0343 -0.2975
 3688SOL    HW111120   0.283   0.171   2.509  1.1504 -0.5035 -0.4301
 3688SOL    HW211121   0.235   0.207   2.648 -0.7183 -1.0849 -0.8914
 3689SOL     OW11122   3.113   2.241   3.020 -0.2394 -0.6018  0.3202
 3689SOL    HW111123   3.150   2.310   3.075  0.6914 -0.3002 -0.6657
 3689SOL    HW211124   3.039   2.283   2.975  1.1964  0.2220 -1.3812
 3690SOL     OW11125   4.153   2.605   4.363 -0.3537  0.2434  0.1076
 3690SOL    HW111126   4.198   2.554   4.295 -1.6252 -2.2178  0.9889
 3690SOL    HW211127   4.217   2.671   4.390 -0.5271  2.9998 -5.0121
 3691SOL     OW11128   4.524   3.159   4.911 -0.2733 -0.0170  0.6649
 3691SOL    HW111129   4.572   3.112   4.843  1.5713  0.5138  1.5561
 3691SOL    HW211130   4.530   3.251   4.886  3.1033  0.5482  3.0224
 3692SOL     OW11131   3.172   2.198   1.945  0.1579  0.6821  0.4262
 3692SOL    HW111132   3.164   2.104   1.962 -0.2412  0.6375 -0.0175
 3692SOL    HW211133   3.154   2.208   1.852 -1.8941  1.4393  0.8569
 3693SOL     OW11134   3.512   1.058   1.164 -0.0944 -0.8907  0.3827
 3693SOL    HW111135   3.543   0.979   1.121 -0.7357 -1.1256  0.3425
 3693SOL    HW211136   3.494   1.031   1.254  0.0646 -0.6985  0.4720
 3694SOL     OW11137   0.547   4.379   0.138 -0.0298 -0.1339  0.1485
 3694SOL    HW111138   0.556   4.401   0.045 -1.3559  0.1190  0.0627
 3694SOL    HW211139   0.488   4.446   0.173  0.9761  0.1708  1.3382
 3695SOL     OW11140   3.606   0.081   1.044  0.1249 -0.1140 -0.1870
 3695SOL    HW111141   3.569   0.148   1.102  0.5726 -0.5749  0.6509
 3695SOL    HW211142   3.541   0.070   0.976 -1.3434 -0.9595  1.2866
 3696SOL     OW11143   0.427   1.860   2.965 -0.3503  0.3581  0.7050
 3696SOL    HW111144   0.455   1.940   2.921 -1.4714  0.7329  0.6555
 3696SOL    HW211145   0.506   1.806   2.969 -0.3130  0.0028 -2.3625
 3697SOL     OW11146   0.049   2.590   2.756 -0.3669  0.5104  0.1233
 3697SOL    HW111147   0.010   2.515   2.802 -0.3049 -0.4697 -1.3568
 3697SOL    HW211148   0.127   2.612   2.807 -0.0720 -0.8115  0.2763
 3698SOL     OW11149   2.590   2.129   0.757  0.0776 -0.3935 -0.1281
 3698SOL    HW111150   2.661   2.067   0.770 -1.1555 -1.5226  1.7527
 3698SOL    HW211151   2.578   2.170   0.843 -1.8671 -0.6170 -0.2499
 3699SOL     OW11152   3.166   0.170   4.861  0.2965  0.2050 -0.0830
 3699SOL    HW111153   3.242   0.183   4.803  1.8042  0.0809  1.7730
 3699SOL    HW211154   3.133   0.258   4.878 -1.5837  0.1742 -2.7649
 3700SOL     OW11155   4.423   0.612   2.567  0.0404  0.0752  0.2653
 3700SOL    HW111156   4.476   0.577   2.495  0.7879  0.6676  0.5151
 3700SOL    HW211157   4.420   0.541   2.631 -0.8563 -0.5560 -0.4463
 3701SOL     OW11158   0.968   1.250   3.488  0.2970  0.5351 -0.3078
 3701SOL    HW111159   1.015   1.331   3.506 -1.8732  1.8903 -0.3693
 3701SOL    HW211160   0.932   1.224   3.573 -1.5325  1.3727 -0.7688
 3702SOL     OW11161   3.982   2.283   4.504  0.0711  0.4915  0.3072
 3702SOL    HW111162   4.041   2.221   4.547 -0.7705 -2.9606 -3.0016
 3702SOL    HW211163   3.922   2.312   4.574  1.6098 -1.0200  2.3622
 3703SOL     OW11164   1.835   1.160   3.279 -0.0725  0.0436 -0.6312
 3703SOL    HW111165   1.796   1.241   3.247  0.2329 -0.1495 -1.5252
 3703SOL    HW211166   1.851   1.176   3.372  1.0468  1.4486 -1.0202
 3704SOL     OW11167   4.197   2.983   2.798 -0.1091 -0.2097  0.4526
 3704SOL    HW111168   4.184   2.902   2.748  0.5607  0.3253 -0.6232
 3704SOL    HW211169   4.289   2.979   2.826  0.3161  0.7753 -0.7319
 3705SOL     OW11170   3.910   0.453   2.214  0.0318 -0.5034 -0.2299
 3705SOL    HW111171   3.852   0.422   2.144 -0.4793 -1.3657  0.5496
 3705SOL    HW211172   3.851   0.478   2.285  0.5643 -0.0191  0.0520
 3706SOL     OW11173   1.310   3.900   3.892 -0.5120 -0.5740  0.1296
 3706SOL    HW111174   1.336   3.984   3.930  3.5034 -1.1639 -0.8484
 3706SOL    HW211175   1.265   3.855   3.963 -2.4475  2.1648  0.8023
 3707SOL     OW11176   0.441   3.431   4.938 -0.3135  0.3895 -0.0281
 3707SOL    HW111177   0.451   3.354   4.992 -0.5641  1.3697  1.4737
 3707SOL    HW211178   0.488   3.500   4.985 -0.9364  1.3792 -0.8104
 3708SOL     OW11179   0.899   0.941   4.903  0.0482  0.5998  0.1291
 3708SOL    HW111180   0.817   0.910   4.940  0.6401 -1.1292  0.0746
 3708SOL    HW211181   0.874   0.984   4.821 -0.9695  1.8999  1.0737
 3709SOL     OW11182   1.550   2.648   0.528 -0.1742  0.7930  0.4022
 3709SOL    HW111183   1.475   2.679   0.578 -1.2446  1.0186 -1.2565
 3709SOL    HW211184   1.619   2.711   0.545 -0.5659  0.9477  1.4440
 3710SOL     OW11185   0.703   3.803   0.379  0.5573 -0.6285 -0.3060
 3710SOL    HW111186   0.742   3.716   0.375  0.9603 -0.5143  0.7581
 3710SOL    HW211187   0.778   3.863   0.376  0.3417 -0.3479 -0.1625
 3711SOL     OW11188   1.883   2.008   3.278 -0.2728  0.3287  0.3176
 3711SOL    HW111189   1.971   2.007   3.241 -0.6575 -0.8998 -0.6132
 3711SOL    HW211190   1.826   2.020   3.202 -0.9107  1.4335  0.9445
 3712SOL     OW11191   4.714   4.331   4.210  0.0995 -0.2488 -0.6531
 3712SOL    HW111192   4.791   4.322   4.155  1.4131  0.0747  1.0569
 3712SOL    HW211193   4.669   4.409   4.176  1.8801  1.0577 -0.1628
 3713SOL     OW11194   2.277   3.461   2.294  0.0269  0.3855  0.2331
 3713SOL    HW111195   2.256   3.548   2.328 -1.1922  0.3972 -0.4902
 3713SOL    HW211196   2.292   3.474   2.201 -0.7740 -0.2638 -0.0001
 3714SOL     OW11197   2.580   3.954   1.799  0.2177 -0.1032 -0.3846
 3714SOL    HW111198   2.550   3.864   1.809  0.2585 -0.1063 -0.2921
 3714SOL    HW211199   2.654   3.948   1.738 -0.1126 -0.0670 -0.7878
 3715SOL     OW11200   0.496   1.206   0.667 -0.2233 -0.7039  0.1767
 3715SOL    HW111201   0.557   1.270   0.630 -1.2037 -0.0578 -0.3604
 3715SOL    HW211202   0.552   1.140   0.708  0.8151  0.6164  0.9457
 3716SOL     OW11203   0.244   1.869   4.938 -0.1628  0.5982 -0.2066
 3716SOL    HW111204   0.219   1.927   4.867  0.4121  0.3991 -0.5778
 3716SOL    HW211205   0.229   1.781   4.903  2.8441  0.3571 -1.2118
 3717SOL     OW11206   1.218   1.872   4.115  0.1313  0.1425  0.8458
 3717SOL    HW111207   1.203   1.920   4.033 -0.2652  0.2541  0.9850
 3717SOL    HW211208   1.298   1.823   4.099 -0.7468 -1.0133 -0.1565
 3718SOL     OW11209   4.618   3.773   2.253 -0.8416 -0.1521  0.0038
 3718SOL    HW111210   4.628   3.822   2.335  0.3034 -1.1413  0.4857
 3718SOL    HW211211   4.528   3.742   2.253 -0.4283 -1.4582  1.6745
 3719SOL     OW11212   0.215   0.375   3.871  0.2039 -0.6140 -0.1903
 3719SOL    HW111213   0.147   0.385   3.937  0.6985 -0.8474  0.3642
 3719SOL    HW211214   0.224   0.280   3.859  0.0390 -0.5708 -0.6761
 3720SOL     OW11215   3.854   4.344   4.610 -0.6765  0.1234 -0.1230
 3720SOL    HW111216   3.863   4.289   4.532 -3.1568  0.0735 -0.4409
 3720SOL    HW211217   3.832   4.431   4.577 -2.6307 -0.0933  0.4612
 3721SOL     OW11218   3.373   1.514   2.869 -0.3653 -0.0385  0.3259
 3721SOL    HW111219   3.297   1.562   2.837  0.7410  0.4410 -1.7453
 3721SOL    HW211220   3.384   1.442   2.807  1.2105  0.2484  0.2241
 3722SOL     OW11221   2.535   2.990   1.489 -0.1946 -0.6410 -0.5514
 3722SOL    HW111222   2.593   3.056   1.451 -2.6824  2.2465  0.3495
 3722SOL    HW211223   2.449   3.009   1.453 -1.4484 -1.8915  1.5421
 3723SOL     OW11224   4.942   2.879   1.056 -0.1624  0.0753  0.1481
 3723SOL    HW111225   5.003   2.852   1.124  1.2517  2.3119 -0.1521
 3723SOL    HW211226   4.855   2.866   1.095  0.5958  0.6784  2.1312
 3724SOL     OW11227   2.529   3.087   3.026  0.1126 -0.1051 -0.5381
 3724SOL    HW111228   2.554   3.096   2.934 -0.2535 -0.5445 -0.6843
 3724SOL    HW211229   2.607   3.052   3.068  0.0441 -0.6249 -0.8283
 3725SOL     OW11230   2.307   1.185   4.097  0.1588  0.1560 -0.0334
 3725SOL    HW111231   2.345   1.213   4.014  0.6394  1.0892  0.4862
 3725SOL    HW211232   2.240   1.121   4.072 -0.9178  1.6828 -1.2758
 3726SOL     OW11233   2.825   0.656   4.596 -0.0048 -0.4867  0.1604
 3726SOL    HW111234   2.729   0.653   4.604  0.1385 -0.3323  3.9401
 3726SOL    HW211235   2.848   0.746   4.618  1.0425 -1.0234  1.4282
 3727SOL     OW11236   1.029   0.649   1.418 -0.2005  0.0797 -0.1173
 3727SOL    HW111237   1.116   0.637   1.455 -0.3769  0.6285  0.4879
 3727SOL    HW211238   1.036   0.728   1.365 -0.8917  1.4693  1.7685
 3728SOL     OW11239   0.798   4.250   1.430  0.8405  0.3743  0.0614
 3728SOL    HW111240   0.777   4.158   1.447 -0.9815  0.4208 -1.5445
 3728SOL    HW211241   0.836   4.249   1.342  0.0325  1.2318 -0.3098
 3729SOL     OW11242   4.084   2.979   0.281  0.3087 -0.0362 -0.1733
 3729SOL    HW111243   4.177   2.987   0.259  0.1093  2.5790 -0.3912
 3729SOL    HW211244   4.054   3.069   0.292 -2.1762 -0.8163  0.1223
 3730SOL     OW11245   1.981   3.599   0.529  0.1495  0.1843  0.1937
 3730SOL    HW111246   1.926   3.521   0.540  0.8759 -0.2631  0.7463
 3730SOL    HW211247   1.982   3.640   0.616 -1.7925  1.9142 -0.5004
 3731SOL     OW11248   3.528   2.230   2.670  0.1416 -0.0279  0.0294
 3731SOL    HW111249   3.565   2.143   2.653 -0.2113 -0.0917 -0.4335
 3731SOL    HW211250   3.477   2.250   2.592 -2.0743 -0.5922  1.2535
 3732SOL     OW11251   3.660   2.231   0.357 -0.0944  0.5173  0.4551
 3732SOL    HW111252   3.564   2.236   0.361 -0.2226 -0.9211 -0.0758
 3732SOL    HW211253   3.678   2.210   0.265  0.5106 -2.3385  1.1313
 3733SOL     OW11254   3.046   0.271   0.454 -0.1363 -0.0736 -0.1810
 3733SOL    HW111255   2.997   0.189   0.451  0.1250 -0.3932  2.1561
 3733SOL    HW211256   3.105   0.261   0.529  2.1893  1.0408 -1.7424
 3734SOL     OW11257   0.715   0.662   2.492 -0.0817 -0.2876  0.1366
 3734SOL    HW111258   0.700   0.668   2.398 -1.1570  0.2601  0.3231
 3734SOL    HW211259   0.712   0.752   2.523 -1.3971 -0.5645  0.9076
 3735SOL     OW11260   1.944   0.417   2.349  0.2751 -0.2250  0.8292
 3735SOL    HW111261   1.936   0.407   2.444  1.2183 -1.0145  0.8436
 3735SOL    HW211262   2.038   0.433   2.335 -0.0971  1.7234  0.1682
 3736SOL     OW11263   2.481   4.879   4.158  0.7277 -0.5618  0.3045
 3736SOL    HW111264   2.570   4.871   4.123  0.7333  0.9399 -0.0943
 3736SOL    HW211265   2.492   4.929   4.239  0.1170  1.1104 -0.5899
 3737SOL     OW11266   1.778   4.757   1.438  0.1283  0.6375 -0.3958
 3737SOL    HW111267   1.798   4.703   1.514 -0.5275  1.6244  0.5217
 3737SOL    HW211268   1.788   4.699   1.363  1.8187 -0.0977  0.3471
 3738SOL     OW11269   2.802   1.124   0.293 -0.4131 -0.2509 -0.2945
 3738SOL    HW111270   2.714   1.106   0.259 -0.1328 -0.9505 -0.6634
 3738SOL    HW211271   2.856   1.135   0.215  0.0707 -1.0516 -0.0784
 3739SOL     OW11272   1.251   1.474   3.939  0.5828  0.0659  0.1596
 3739SOL    HW111273   1.249   1.546   3.877  0.2797 -1.4557 -1.7112
 3739SOL    HW211274   1.262   1.515   4.024  1.7354  2.2073 -0.9518
 3740SOL     OW11275   1.134   2.208   0.448 -0.1318 -0.2580  0.0012
 3740SOL    HW111276   1.150   2.157   0.368 -3.0727  0.0439 -0.8833
 3740SOL    HW211277   1.216   2.201   0.497  1.5590 -1.0439 -2.6997
 3741SOL     OW11278   2.904   3.536   1.045  0.2057 -0.1736  0.5374
 3741SOL    HW111279   2.895   3.615   0.991  0.3972 -0.1649  0.5179
 3741SOL    HW211280   2.996   3.511   1.036  0.0776 -0.5763  0.2940
 3742SOL     OW11281   1.316   4.640   4.592  0.2614 -0.1102 -0.0037
 3742SOL    HW111282   1.243   4.681   4.546  0.6547  0.7125  0.0721
 3742SOL    HW211283   1.394   4.681   4.553  0.7731 -2.1160 -1.2132
 3743SOL     OW11284   0.695   1.423   0.072  0.4557  0.6123  0.4542
 3743SOL    HW111285   0.787   1.448   0.080  0.4252  2.4233 -2.9583
 3743SOL    HW211286   0.655   1.492   0.019 -2.3822 -1.2074 -0.0314
 3744SOL     OW11287   4.688   1.834   3.551 -0.2425 -0.4211  0.5145
 3744SOL    HW111288   4.757   1.896   3.577  1.5161 -0.8407 -2.6581
 3744SOL    HW211289   4.660   1.865   3.464 -2.3696 -1.6943  0.6830
 3745SOL     OW11290   0.103   4.968   4.618 -0.5643 -0.6789  0.1791
 3745SOL    HW111291   0.043   4.898   4.592  1.6952 -1.9366 -2.0390
 3745SOL    HW211292   0.147   4.934   4.696 -0.6916 -1.0041  0.1109
 3746SOL     OW11293   0.769   0.361   0.110  0.1461  0.4690  0.1686
 3746SOL    HW111294   0.850   0.413   0.114  0.1991  0.3256  1.3155
 3746SOL    HW211295   0.718   0.403   0.041  1.4508  0.1798 -1.0222
 3747SOL     OW11296   1.952   3.807   1.219  0.4844  0.1700 -0.3253
 3747SOL    HW111297   2.040   3.782   1.246  0.3685 -0.8377 -0.8163
 3747SOL    HW211298   1.897   3.732   1.243 -0.2370  0.7654 -0.0626
 3748SOL     OW11299   1.311   0.254   3.583  0.2997  0.3328 -0.2569
 3748SOL    HW111300   1.285   0.234   3.673  0.6041 -1.6199 -0.5570
 3748SOL    HW211301   1.243   0.314   3.552 -0.4559  0.1268  0.9071
 3749SOL     OW11302   1.874   3.098   0.486 -0.6423 -0.1392  0.1201
 3749SOL    HW111303   1.891   3.149   0.407 -0.3071 -1.0783 -0.4375
 3749SOL    HW211304   1.867   3.163   0.556  1.5092  0.5781 -0.2400
 3750SOL     OW11305   1.158   4.742   3.535 -0.0989 -0.2357  0.4349
 3750SOL    HW111306   1.232   4.700   3.490  0.0764  0.1214  0.3845
 3750SOL    HW211307   1.089   4.748   3.469  0.5320  1.2978 -0.1470
 3751SOL     OW11308   4.866   2.765   4.722 -0.8178 -0.9010  0.6122
 3751SOL    HW111309   4.865   2.828   4.650 -1.2968 -1.5847  0.0033
 3751SOL    HW211310   4.798   2.796   4.783  0.3894  0.3365  1.3747
 3752SOL     OW11311   2.510   1.297   4.809  0.4071  0.7401 -0.1177
 3752SOL    HW111312   2.587   1.242   4.794 -0.5920 -0.3230 -1.6031
 3752SOL    HW211313   2.452   1.278   4.736 -2.3269 -0.2573  2.1336
 3753SOL     OW11314   0.706   0.076   3.411 -0.2667  0.2701  0.6275
 3753SOL    HW111315   0.702  -0.005   3.359  0.9157  0.0818  0.7918
 3753SOL    HW211316   0.701   0.146   3.346  0.4766  0.0384  0.2960
 3754SOL     OW11317   3.552   4.170   2.630  0.5176 -0.3347 -0.4599
 3754SOL    HW111318   3.552   4.261   2.660 -0.8192  0.4650 -2.7176
 3754SOL    HW211319   3.643   4.141   2.643  1.0367  1.3891  0.0080
 3755SOL     OW11320   3.612   2.671   1.103  0.4930 -0.0269 -0.0376
 3755SOL    HW111321   3.600   2.636   1.015 -1.5659  0.3612  0.0396
 3755SOL    HW211322   3.704   2.653   1.123  1.5874  1.5699 -2.9740
 3756SOL     OW11323   0.340   0.068   0.084  0.0754 -0.6600  0.1582
 3756SOL    HW111324   0.434   0.082   0.082  0.3115 -2.0135  0.4393
 3756SOL    HW211325   0.324   0.027   0.169 -0.6381 -1.2075 -0.2289
 3757SOL     OW11326   2.066   0.309   3.393  0.1276 -0.2943 -0.4055
 3757SOL    HW111327   2.049   0.352   3.476 -1.0491 -0.6838 -0.4253
 3757SOL    HW211328   2.158   0.283   3.398  0.6275  1.4155 -0.0470
 3758SOL     OW11329   0.779   0.262   2.037  0.2410  0.1279 -0.0273
 3758SOL    HW111330   0.814   0.331   1.981 -1.5838  0.2565 -1.0876
 3758SOL    HW211331   0.770   0.186   1.979 -1.3158  0.1497  0.1503
 3759SOL     OW11332   2.530   0.921   3.902  0.1312 -0.3006 -0.0428
 3759SOL    HW111333   2.507   0.844   3.850  1.1744 -0.7459  0.1206
 3759SOL    HW211334   2.458   0.982   3.888 -0.0129 -0.7326 -1.3419
 3760SOL     OW11335   2.744   0.344   4.361 -0.6473  0.2035 -0.3715
 3760SOL    HW111336   2.827   0.334   4.407 -1.1745 -0.2798  0.5078
 3760SOL    HW211337   2.768   0.375   4.274  0.3927  0.8391  0.1274
 3761SOL     OW11338   0.969   0.134   0.341 -0.5093 -0.1923 -0.4505
 3761SOL    HW111339   0.981   0.150   0.248 -1.6494  0.4736 -0.5093
 3761SOL    HW211340   0.949   0.221   0.378  0.2246 -0.3931  0.4670
 3762SOL     OW11341   3.827   2.798   3.977 -0.1692  0.3013  0.1703
 3762SOL    HW111342   3.873   2.816   3.895 -1.0279  0.4762 -0.2816
 3762SOL    HW211343   3.756   2.862   3.981  0.7957  1.3354  1.8364
 3763SOL     OW11344   2.590   3.705   4.265  0.5778 -0.2580  0.6395
 3763SOL    HW111345   2.562   3.700   4.357 -2.0684 -0.5969 -0.0878
 3763SOL    HW211346   2.595   3.614   4.236 -1.0460 -0.1381 -0.1456
 3764SOL     OW11347   2.875   1.375   1.557  0.3182  0.3518 -0.6381
 3764SOL    HW111348   2.876   1.439   1.628  0.8056 -1.1119  0.7352
 3764SOL    HW211349   2.904   1.293   1.597 -0.7206 -0.8694 -2.2137
 3765SOL     OW11350   3.554   2.907   2.204  0.1034 -0.1643 -0.2276
 3765SOL    HW111351   3.568   3.001   2.199  1.5247 -0.3421  0.0114
 3765SOL    HW211352   3.567   2.876   2.115  1.7012 -0.3667  0.0450
 3766SOL     OW11353   1.075   2.424   2.366  0.2976  0.1942 -0.5077
 3766SOL    HW111354   1.021   2.347   2.347 -1.1110  1.0632 -0.2007
 3766SOL    HW211355   1.142   2.424   2.298 -0.9049 -0.1836 -1.7510
 3767SOL     OW11356   3.604   0.647   3.526  0.0178 -0.2296 -0.0504
 3767SOL    HW111357   3.548   0.569   3.527  0.7823 -0.7798  0.2694
 3767SOL    HW211358   3.690   0.615   3.498  0.0713  0.6902 -1.0010
 3768SOL     OW11359   3.440   0.950   1.397 -0.0694  0.0419  0.2817
 3768SOL    HW111360   3.492   0.889   1.449 -1.4947  0.4047  2.2322
 3768SOL    HW211361   3.360   0.901   1.376  0.9042 -0.5232 -2.6983
 3769SOL     OW11362   2.383   1.578   4.626 -0.2134 -0.1747 -0.4053
 3769SOL    HW111363   2.408   1.638   4.556 -0.4067  0.9128  0.4342
 3769SOL    HW211364   2.302   1.614   4.661 -0.1886 -0.7767  0.2973
 3770SOL     OW11365   3.349   0.641   1.006 -0.4594  0.4487 -0.0955
 3770SOL    HW111366   3.366   0.562   0.954  0.4150  1.0320 -0.7373
 3770SOL    HW211367   3.427   0.696   0.993 -0.9526  1.3281  0.5057
 3771SOL     OW11368   1.300   2.795   0.613  0.0006 -0.4702  0.4794
 3771SOL    HW111369   1.337   2.724   0.665  2.1436  0.0441 -0.2144
 3771SOL    HW211370   1.336   2.875   0.652 -2.0840  0.2437  1.0279
 3772SOL     OW11371   0.285   3.555   2.473 -0.8258 -0.2915 -0.1561
 3772SOL    HW111372   0.336   3.630   2.503  1.0340 -1.6802  0.3150
 3772SOL    HW211373   0.266   3.574   2.381  0.6457  0.2446 -0.3703
 3773SOL     OW11374   0.676   2.933   1.389  0.0058 -0.3163  0.1896
 3773SOL    HW111375   0.589   2.908   1.359  0.0419 -0.6925  0.3791
 3773SOL    HW211376   0.710   2.991   1.322 -0.5662  0.1918  0.3321
 3774SOL     OW11377   1.242   0.437   0.910  0.4507  0.0196 -0.7430
 3774SOL    HW111378   1.235   0.343   0.927 -3.0333  0.2047 -0.5325
 3774SOL    HW211379   1.217   0.478   0.993  2.2708  1.2257 -0.7188
 3775SOL     OW11380   2.286   3.860   2.127 -0.0297  0.0435 -0.4369
 3775SOL    HW111381   2.354   3.910   2.082 -0.2968  0.0804 -0.8028
 3775SOL    HW211382   2.310   3.865   2.220 -0.1030  0.9410 -0.4548
 3776SOL     OW11383   4.888   0.041   2.513 -0.0072  0.4015  0.0802
 3776SOL    HW111384   4.932   0.125   2.529  0.2671  0.5365 -1.2968
 3776SOL    HW211385   4.805   0.065   2.471  0.9923 -0.0430 -2.3269
 3777SOL     OW11386   1.918   4.712   2.574 -0.1146  0.3667  0.5834
 3777SOL    HW111387   1.850   4.653   2.606 -1.6370  1.1017 -1.1012
 3777SOL    HW211388   1.898   4.724   2.481  0.5948  2.8727  0.6684
 3778SOL     OW11389   1.527   3.928   1.487 -0.2782 -0.2043  0.1109
 3778SOL    HW111390   1.537   4.016   1.452  0.2010  0.4098  1.7265
 3778SOL    HW211391   1.577   3.872   1.427  1.0338  0.8955  0.1466
 3779SOL     OW11392   4.197   3.928   3.791  0.3620 -0.2886  0.2068
 3779SOL    HW111393   4.117   3.979   3.801 -0.0153 -0.6262 -0.9479
 3779SOL    HW211394   4.266   3.984   3.827 -0.0800  0.9292 -0.7682
 3780SOL     OW11395   3.496   3.164   1.897 -0.9118  0.2260 -0.2968
 3780SOL    HW111396   3.566   3.173   1.961  0.2158 -1.5245 -1.1857
 3780SOL    HW211397   3.542   3.155   1.813 -2.2759  0.7312 -1.1312
 3781SOL     OW11398   3.890   0.820   0.011  1.2215 -0.2287 -0.0007
 3781SOL    HW111399   3.880   0.897  -0.045 -0.4518  0.3814  1.0695
 3781SOL    HW211400   3.905   0.856   0.098 -0.5986 -1.0541  0.7007
 3782SOL     OW11401   1.865   2.489   0.514 -0.2182  0.2499  0.2558
 3782SOL    HW111402   1.861   2.484   0.609 -1.7686 -0.2877  0.1998
 3782SOL    HW211403   1.912   2.570   0.496  1.0842 -0.1933  1.4542
 3783SOL     OW11404   3.153   0.967   0.123 -0.1470 -0.2025  0.3506
 3783SOL    HW111405   3.181   1.026   0.193 -1.6583 -0.2246  1.0067
 3783SOL    HW211406   3.230   0.912   0.106  0.8900  1.1235  0.5703
 3784SOL     OW11407   2.705   2.662   0.405  0.2628 -0.4357 -0.5260
 3784SOL    HW111408   2.724   2.607   0.481 -0.9976  0.8175  0.7639
 3784SOL    HW211409   2.757   2.624   0.335 -0.2568 -3.0368  0.3743
 3785SOL     OW11410   1.733   3.204   0.116 -0.4125  0.4416 -0.0004
 3785SOL    HW111411   1.652   3.236   0.077 -0.3745  2.0312  1.1301
 3785SOL    HW211412   1.789   3.185   0.041 -1.8377 -0.8241 -0.8049
 3786SOL     OW11413   4.755   3.031   2.838  0.4254  0.1518  0.1090
 3786SOL    HW111414   4.800   3.116   2.830  3.4781 -0.6652  4.7965
 3786SOL    HW211415   4.816   2.969   2.797 -0.7062 -0.1089 -1.2389
 3787SOL     OW11416   4.905   3.408   1.385  0.1992 -0.0156  0.2417
 3787SOL    HW111417   4.836   3.465   1.352  1.1410  0.9746 -0.0752
 3787SOL    HW211418   4.920   3.438   1.475  1.3130  0.8656 -0.2158
 3788SOL     OW11419   0.171   0.131   4.393  0.3669  0.4587 -0.4198
 3788SOL    HW111420   0.171   0.063   4.326 -1.2874  0.9849 -0.9917
 3788SOL    HW211421   0.172   0.083   4.476 -0.2185 -0.2516 -0.8179
 3789SOL     OW11422   3.372   3.129   4.832  0.2312 -0.6989 -0.4510
 3789SOL    HW111423   3.343   3.217   4.858 -0.3847 -1.2190  0.7300
 3789SOL    HW211424   3.438   3.144   4.765 -1.4899  0.6068 -1.9576
 3790SOL     OW11425   4.805   0.725   3.564  0.8823 -0.0609  0.1363
 3790SOL    HW111426   4.810   0.698   3.472 -1.5330  0.6084 -0.2471
 3790SOL    HW211427   4.758   0.808   3.563 -0.1782 -0.5748  2.0566
 3791SOL     OW11428   1.066   3.692   1.634  0.0157  0.0128  0.4953
 3791SOL    HW111429   1.092   3.753   1.565 -1.8501 -2.2136 -2.3560
 3791SOL    HW211430   0.970   3.691   1.631 -0.0508 -3.4842 -0.0958
 3792SOL     OW11431   2.869   1.831   1.872 -0.1139 -0.0159 -0.2413
 3792SOL    HW111432   2.921   1.911   1.860  0.1863  0.0444  1.2505
 3792SOL    HW211433   2.816   1.849   1.949  1.1027 -1.8237  1.0921
 3793SOL     OW11434   3.452   2.302   0.781  0.4871  0.1648  0.2583
 3793SOL    HW111435   3.520   2.238   0.761 -0.3526 -1.7133  2.8196
 3793SOL    HW211436   3.405   2.314   0.699  1.7000 -1.2773 -0.6993
 3794SOL     OW11437   0.884   0.180   3.937  0.0628  0.1867 -0.2117
 3794SOL    HW111438   0.796   0.187   3.901 -0.6082 -1.5770  0.9505
 3794SOL    HW211439   0.878   0.110   4.002  1.7895  1.5164  1.5121
 3795SOL     OW11440   0.042   4.813   2.381  0.0517  0.0029  0.2841
 3795SOL    HW111441  -0.015   4.888   2.391  0.5784  0.5094 -0.4207
 3795SOL    HW211442   0.056   4.804   2.286 -0.7682 -1.5738  0.2714
 3796SOL     OW11443   2.698   2.202   3.927  0.1131 -0.7566 -0.1496
 3796SOL    HW111444   2.630   2.270   3.930 -1.0906 -1.9258  0.3472
 3796SOL    HW211445   2.690   2.157   4.011  2.7276  0.1446  0.6838
 3797SOL     OW11446   0.058   4.504   0.722 -1.0284  0.4678  0.4892
 3797SOL    HW111447  -0.029   4.482   0.755 -1.4171  0.2699 -0.6183
 3797SOL    HW211448   0.043   4.575   0.659 -0.4347  0.1969  0.0304
 3798SOL     OW11449   4.450   0.332   0.237 -0.2668 -0.0325 -0.0613
 3798SOL    HW111450   4.372   0.330   0.292  0.2905  0.9547  0.7949
 3798SOL    HW211451   4.502   0.257   0.265 -0.4273 -0.0922  0.0776
 3799SOL     OW11452   2.537   0.099   2.017  0.1521  0.7812 -0.3269
 3799SOL    HW111453   2.580   0.016   2.038 -1.0162 -0.0304 -1.0423
 3799SOL    HW211454   2.609   0.161   2.005  1.0776 -0.3150 -0.5707
 3800SOL     OW11455   4.961   1.206   1.576 -0.3986 -0.8427  0.0866
 3800SOL    HW111456   4.973   1.283   1.520 -0.2120 -0.2435  0.9441
 3800SOL    HW211457   4.890   1.157   1.533 -1.0662  0.1980 -0.0477
 3801SOL     OW11458   1.868   3.876   0.966  0.5480 -0.1896 -0.6863
 3801SOL    HW111459   1.860   3.971   0.977  1.0798  0.0827 -2.3941
 3801SOL    HW211460   1.914   3.847   1.044  0.7486  1.0200 -0.3263
 3802SOL     OW11461   3.004   3.537   4.315 -0.4445 -0.3250  0.3870
 3802SOL    HW111462   3.096   3.564   4.312 -0.7475  0.8592  1.0437
 3802SOL    HW211463   2.993   3.498   4.401 -0.5594 -0.4705  0.3067
 3803SOL     OW11464   0.186   4.307   4.656  0.0236 -0.1835 -0.2339
 3803SOL    HW111465   0.201   4.358   4.735 -1.9259 -0.3109  0.2826
 3803SOL    HW211466   0.258   4.244   4.653 -0.9909 -1.6664  2.7187
 3804SOL     OW11467   2.910   3.563   1.844 -0.2092  0.1135  0.1464
 3804SOL    HW111468   2.946   3.527   1.926  0.6977  0.0292 -0.2737
 3804SOL    HW211469   2.845   3.627   1.873 -0.0266 -0.0415  0.9358
 3805SOL     OW11470   3.368   3.102   0.402 -0.0624  0.4202 -0.4160
 3805SOL    HW111471   3.431   3.090   0.331  0.1454 -2.1431  0.1252
 3805SOL    HW211472   3.284   3.075   0.365  0.1123 -1.3221  0.3727
 3806SOL     OW11473   4.804   4.346   1.718 -0.0012 -0.6847  0.1603
 3806SOL    HW111474   4.771   4.429   1.683 -0.0149 -1.5694 -2.1100
 3806SOL    HW211475   4.794   4.354   1.812  1.6143  2.5791  0.1884
 3807SOL     OW11476   1.202   0.836   4.831  0.0417 -0.1809  0.1326
 3807SOL    HW111477   1.157   0.752   4.827 -1.6333  0.6899 -2.3060
 3807SOL    HW211478   1.137   0.895   4.870  0.7399  0.2215  0.6929
 3808SOL     OW11479   0.450   2.139   3.488 -0.3346  0.1253  0.0711
 3808SOL    HW111480   0.409   2.084   3.555 -2.8798  0.8486 -0.7702
 3808SOL    HW211481   0.535   2.097   3.471 -2.4801 -4.3196 -1.3354
 3809SOL     OW11482   2.605   4.515   3.304 -0.4129  0.1136 -0.3075
 3809SOL    HW111483   2.586   4.532   3.212  1.9222  0.7217 -0.7568
 3809SOL    HW211484   2.564   4.430   3.322 -2.3151  0.7461 -1.3894
 3810SOL     OW11485   2.359   0.809   0.137  0.2030  0.0370 -0.5687
 3810SOL    HW111486   2.329   0.827   0.226  0.0064  0.6562 -0.7579
 3810SOL    HW211487   2.445   0.851   0.131 -0.2417  0.9294 -0.9978
 3811SOL     OW11488   2.238   0.926   3.206 -0.6707  0.3166  0.1125
 3811SOL    HW111489   2.152   0.963   3.190 -1.0181 -0.5527 -0.1064
 3811SOL    HW211490   2.220   0.844   3.253 -0.0317 -0.4031 -0.8660
 3812SOL     OW11491   1.824   0.690   2.429  0.6198  0.2501 -0.1077
 3812SOL    HW111492   1.840   0.660   2.518 -2.5618 -1.3487  0.0615
 3812SOL    HW211493   1.883   0.637   2.375  1.2814 -0.0416  0.8726
 3813SOL     OW11494   0.142   3.378   2.650 -0.2662  0.1100 -0.4600
 3813SOL    HW111495   0.202   3.316   2.610 -1.5786 -0.0795 -2.3211
 3813SOL    HW211496   0.161   3.461   2.605  0.7940  0.8583  1.2886
 3814SOL     OW11497   1.582   3.383   1.013  0.2676  0.2380 -0.1700
 3814SOL    HW111498   1.488   3.387   0.995  0.3558 -0.2909 -0.7769
 3814SOL    HW211499   1.623   3.389   0.927  0.6956 -2.4051 -0.2453
 3815SOL     OW11500   3.684   1.296   2.737 -0.0279  0.0880 -0.5421
 3815SOL    HW111501   3.599   1.275   2.698 -0.6440  0.0832  0.7467
 3815SOL    HW211502   3.725   1.212   2.753 -0.6101 -0.0064  0.5660
 3816SOL     OW11503   1.327   3.041   0.786 -0.1671  0.2412  0.1324
 3816SOL    HW111504   1.390   3.023   0.855 -1.4124  2.4541  1.9839
 3816SOL    HW211505   1.335   3.135   0.770 -0.9750  0.0439 -1.6825
 3817SOL     OW11506   4.184   0.781   1.107 -0.8425 -0.3429 -0.2749
 3817SOL    HW111507   4.129   0.852   1.140  1.6749  0.5393  2.4753
 3817SOL    HW211508   4.223   0.742   1.185  1.5679 -1.5824 -1.9689
 3818SOL     OW11509   0.547   2.830   1.660  0.1394  0.0546  0.9924
 3818SOL    HW111510   0.607   2.894   1.622 -1.8416  1.3584 -0.0826
 3818SOL    HW211511   0.473   2.827   1.600 -2.0029  0.3055  3.4319
 3819SOL     OW11512   2.034   4.505   1.552 -0.7848  0.4287 -0.7360
 3819SOL    HW111513   2.090   4.441   1.595  0.0414  0.9221 -1.0447
 3819SOL    HW211514   1.968   4.453   1.506 -1.4332 -0.1064  0.7678
 3820SOL     OW11515   4.837   1.182   3.728 -0.0630  0.0442 -0.0881
 3820SOL    HW111516   4.857   1.273   3.708  0.0946 -0.4243 -2.4393
 3820SOL    HW211517   4.901   1.157   3.794  1.8605  0.8514 -1.5539
 3821SOL     OW11518   0.849   2.081   4.442 -0.4087 -0.1416 -0.2668
 3821SOL    HW111519   0.873   2.164   4.402  2.8209 -0.0489  1.4623
 3821SOL    HW211520   0.882   2.014   4.382 -0.4369 -0.1117 -0.3152
 3822SOL     OW11521   1.839   3.085   3.251  0.2748 -0.2994 -0.2046
 3822SOL    HW111522   1.903   3.023   3.285  0.9642  1.8156  2.7892
 3822SOL    HW211523   1.887   3.135   3.184  0.4392 -1.3378 -0.8818
 3823SOL     OW11524   2.552   4.518   3.047  0.4175  0.1119 -0.0138
 3823SOL    HW111525   2.588   4.601   3.014  0.8526  0.2706  0.8250
 3823SOL    HW211526   2.471   4.506   2.997  0.5865  0.8017 -0.4833
 3824SOL     OW11527   3.703   1.029   2.794 -0.1486 -0.2348  0.4428
 3824SOL    HW111528   3.619   0.984   2.786 -0.2311  0.1644 -1.3387
 3824SOL    HW211529   3.767   0.965   2.764  0.1535 -0.4006  1.4176
 3825SOL     OW11530   0.032   3.915   4.711 -0.2375  0.6936  0.3073
 3825SOL    HW111531   0.100   3.930   4.645 -0.0759 -0.6336  0.1395
 3825SOL    HW211532   0.003   3.825   4.694 -1.2541  0.8645  1.0891
 3826SOL     OW11533   3.043   1.979   3.090  0.1159  0.6781 -0.5184
 3826SOL    HW111534   3.068   2.071   3.102  3.3722 -0.4248  3.0097
 3826SOL    HW211535   3.007   1.953   3.174 -1.8081 -1.1161 -1.7989
 3827SOL     OW11536   1.310   3.873   1.295  0.3822  0.0292  0.7912
 3827SOL    HW111537   1.400   3.841   1.295  0.4854 -0.0898 -2.4945
 3827SOL    HW211538   1.258   3.797   1.268 -0.1774  0.9487 -0.8660
 3828SOL     OW11539   4.464   0.282   1.688  0.4068  0.5999  0.2529
 3828SOL    HW111540   4.462   0.256   1.596 -1.2096 -0.9092  0.6749
 3828SOL    HW211541   4.557   0.275   1.713  0.4691 -2.0069 -0.4496
 3829SOL     OW11542   4.304   1.077   2.501 -0.0773  0.0523 -0.0578
 3829SOL    HW111543   4.287   1.157   2.452  0.6986 -1.1314 -2.4050
 3829SOL    HW211544   4.384   1.042   2.462  2.2223  0.3344  3.8466
 3830SOL     OW11545   1.720   2.262   2.068  0.0102 -0.1734 -0.9684
 3830SOL    HW111546   1.776   2.235   1.995 -0.3275  0.6866 -1.5621
 3830SOL    HW211547   1.707   2.356   2.054 -1.0863 -0.2487 -0.4948
 3831SOL     OW11548   1.630   4.617   2.022  0.0811  0.0596 -0.0194
 3831SOL    HW111549   1.621   4.706   1.988  0.0910  0.4288  0.8961
 3831SOL    HW211550   1.564   4.612   2.092  0.3332 -0.5325  0.1842
 3832SOL     OW11551   1.258   1.648   0.031 -0.2680  0.0060  0.1893
 3832SOL    HW111552   1.319   1.717   0.058  0.0103  0.3549 -1.2235
 3832SOL    HW211553   1.287   1.570   0.077 -0.0148  0.6187  1.0950
 3833SOL     OW11554   1.775   2.644   1.176  0.0241 -0.5471 -0.0414
 3833SOL    HW111555   1.759   2.723   1.125  0.3364  0.1887  0.9547
 3833SOL    HW211556   1.865   2.619   1.155 -0.0138 -0.5344 -0.2185
 3834SOL     OW11557   3.372   2.896   3.427  0.3581 -0.2338 -0.0973
 3834SOL    HW111558   3.284   2.921   3.453 -0.1972  0.2402 -2.2511
 3834SOL    HW211559   3.426   2.973   3.447  0.3766 -0.6009  1.4172
 3835SOL     OW11560   0.134   1.954   3.385  0.3170 -0.1954 -0.4694
 3835SOL    HW111561   0.075   1.915   3.450  0.5378  1.0376  0.5058
 3835SOL    HW211562   0.075   1.993   3.320  0.0264  0.7689  0.3431
 3836SOL     OW11563   0.312   4.247   1.423  0.1243 -0.1488 -0.2331
 3836SOL    HW111564   0.401   4.281   1.434  0.1671 -0.7607  1.6489
 3836SOL    HW211565   0.256   4.308   1.470 -0.3708 -0.1917 -0.7471
 3837SOL     OW11566   1.262   4.699   0.389  0.1833 -0.4707 -0.2889
 3837SOL    HW111567   1.303   4.668   0.309 -1.4938 -0.2619 -1.2813
 3837SOL    HW211568   1.225   4.785   0.365 -0.1171 -0.2918  0.7687
 3838SOL     OW11569   1.088   3.744   4.076  0.5643  0.5515 -0.3059
 3838SOL    HW111570   1.034   3.714   4.003  3.1902  0.3279 -2.2937
 3838SOL    HW211571   1.085   3.672   4.139 -1.1069  0.4045 -0.5164
 3839SOL     OW11572   4.188   0.944   4.687 -0.2112  0.3228 -0.1287
 3839SOL    HW111573   4.234   0.884   4.627  1.1985  0.3736  0.8699
 3839SOL    HW211574   4.118   0.982   4.633  0.4311 -0.3330 -1.4808
 3840SOL     OW11575   1.485   1.083   2.443  0.1009 -0.1371  0.1140
 3840SOL    HW111576   1.409   1.026   2.432  0.1878 -0.2201 -0.0631
 3840SOL    HW211577   1.557   1.023   2.460 -0.1025 -0.0024  1.6369
 3841SOL     OW11578   1.425   0.984   4.895  0.3125  0.0090  0.1342
 3841SOL    HW111579   1.386   1.040   4.962 -1.0538 -1.6049  0.7580
 3841SOL    HW211580   1.359   0.918   4.877  0.2128  0.8872 -3.5594
 3842SOL     OW11581   2.665   4.464   0.844  0.2939  0.0439  0.5672
 3842SOL    HW111582   2.661   4.560   0.848 -1.1142  0.0864 -0.8127
 3842SOL    HW211583   2.652   4.436   0.935  1.4537  1.1593  1.1069
 3843SOL     OW11584   2.992   0.782   0.214 -0.0108 -0.1706  0.6729
 3843SOL    HW111585   3.062   0.742   0.266  0.7416 -0.7990 -0.7499
 3843SOL    HW211586   3.029   0.864   0.183 -0.7361  0.5802  1.7154
 3844SOL     OW11587   3.176   3.246   0.887 -0.1794  0.2153 -0.4656
 3844SOL    HW111588   3.270   3.265   0.887 -0.3407  1.3778 -2.5753
 3844SOL    HW211589   3.135   3.328   0.915 -0.6046  0.1889 -0.9981
 3845SOL     OW11590   0.581   3.317   2.085  0.4109 -0.2163  0.0546
 3845SOL    HW111591   0.565   3.320   2.180  0.4074  1.3135  0.0408
 3845SOL    HW211592   0.538   3.396   2.052  2.5831  0.6559 -0.8662
 3846SOL     OW11593   2.834   3.518   0.408 -0.5709  0.0214  0.0907
 3846SOL    HW111594   2.738   3.515   0.404 -0.5722  0.1077  0.0464
 3846SOL    HW211595   2.859   3.433   0.442 -0.7889  0.8714  2.6310
 3847SOL     OW11596   0.473   1.736   2.021  0.6309 -0.8408 -0.0137
 3847SOL    HW111597   0.443   1.821   1.990  1.3528  0.0431  1.5777
 3847SOL    HW211598   0.405   1.707   2.081  0.8071 -0.9650  0.1275
 3848SOL     OW11599   4.533   3.039   0.759 -0.2873 -0.7867 -0.3672
 3848SOL    HW111600   4.497   2.957   0.726  0.0573 -1.5424  1.0715
 3848SOL    HW211601   4.611   3.055   0.705 -0.1379 -1.6005 -0.4001
 3849SOL     OW11602   1.353   0.467   4.487 -0.5663  0.5471 -0.4427
 3849SOL    HW111603   1.355   0.439   4.579  0.2688  1.8121 -0.0633
 3849SOL    HW211604   1.334   0.386   4.439  2.0377 -0.8025  0.5862
 3850SOL     OW11605   1.558   4.312   4.132 -0.2336  0.2316  0.0670
 3850SOL    HW111606   1.530   4.393   4.175 -0.1447  0.4200 -0.2271
 3850SOL    HW211607   1.608   4.266   4.200  0.1903  0.6813  0.0681
 3851SOL     OW11608   1.599   3.873   0.467  0.2256 -0.2963 -0.5002
 3851SOL    HW111609   1.566   3.954   0.430  0.3257  0.7869  1.6567
 3851SOL    HW211610   1.675   3.851   0.413 -1.3006 -0.4314 -2.7277
 3852SOL     OW11611   1.036   1.162   4.940  0.4054 -0.6258  0.2064
 3852SOL    HW111612   0.993   1.077   4.927  1.1002 -0.8920 -0.4120
 3852SOL    HW211613   0.978   1.209   5.001 -0.3071 -1.3005  0.0677
 3853SOL     OW11614   2.208   4.103   2.678 -0.1530  0.3944 -0.0611
 3853SOL    HW111615   2.131   4.145   2.638  0.7955  0.7492 -1.5959
 3853SOL    HW211616   2.271   4.097   2.607  0.9406 -0.6818  0.9649
 3854SOL     OW11617   1.041   4.685   3.766  0.0750  0.4416 -0.6890
 3854SOL    HW111618   1.066   4.767   3.809  0.8219 -0.8751  1.5451
 3854SOL    HW211619   1.068   4.697   3.675 -1.5244  3.3317 -0.8987
 3855SOL     OW11620   1.979   1.772   4.934  0.9862 -0.0701 -0.3983
 3855SOL    HW111621   1.890   1.741   4.952  1.4819 -1.7430 -0.6134
 3855SOL    HW211622   1.967   1.844   4.873 -0.2930  0.8158  0.8180
 3856SOL     OW11623   2.929   0.391   4.634 -0.3858  0.7229 -0.5775
 3856SOL    HW111624   2.892   0.401   4.721  0.5652  0.3154 -0.1146
 3856SOL    HW211625   2.923   0.478   4.594 -0.9967  0.8630 -0.1836
 3857SOL     OW11626   0.707   4.350   1.017  0.2367 -0.7982  0.9652
 3857SOL    HW111627   0.624   4.304   1.002  0.5759 -1.3487  0.7104
 3857SOL    HW211628   0.772   4.297   0.970  0.8544 -0.8175  1.8170
 3858SOL     OW11629   1.262   0.114   0.674  0.2053  0.2146 -0.2639
 3858SOL    HW111630   1.338   0.162   0.707  0.1265  0.8397 -0.9795
 3858SOL    HW211631   1.199   0.182   0.649 -0.9283 -0.2862  1.0396
 3859SOL     OW11632   1.596   1.261   4.732  0.9428  0.3681 -0.2468
 3859SOL    HW111633   1.531   1.251   4.802  2.1379 -0.5617  0.7550
 3859SOL    HW211634   1.584   1.352   4.703 -1.1382  0.0888 -0.4546
 3860SOL     OW11635   3.913   2.364   0.862 -0.5350  0.0236  0.0302
 3860SOL    HW111636   3.871   2.321   0.936 -0.7221 -0.5013 -0.3746
 3860SOL    HW211637   4.005   2.372   0.888 -0.5192 -0.5221  0.1572
 3861SOL     OW11638   1.162   3.531   2.513 -0.5585 -0.2230  0.1786
 3861SOL    HW111639   1.160   3.557   2.605  0.3593  0.7945 -0.0700
 3861SOL    HW211640   1.093   3.583   2.472 -0.4424 -0.0978  0.1439
 3862SOL     OW11641   1.280   4.951   4.521  0.2995 -0.0903  0.0464
 3862SOL    HW111642   1.274   4.908   4.436 -0.2369 -0.5757  0.3161
 3862SOL    HW211643   1.368   4.988   4.524 -0.3077  1.5865 -1.4943
 3863SOL     OW11644   4.006   0.657   1.656 -0.2615 -0.3349 -0.2303
 3863SOL    HW111645   3.911   0.647   1.653 -0.2012 -1.6024  1.0216
 3863SOL    HW211646   4.039   0.569   1.677  1.2882 -0.2283 -1.9623
 3864SOL     OW11647   1.331   4.716   2.423  0.2389  0.3273 -0.3386
 3864SOL    HW111648   1.392   4.724   2.495 -1.1438  1.4672  0.7822
 3864SOL    HW211649   1.301   4.806   2.406 -1.7586 -0.2513 -0.2187
 3865SOL     OW11650   2.643   2.648   4.497 -0.3359 -0.0045  0.2283
 3865SOL    HW111651   2.566   2.609   4.538 -1.0986 -0.4498 -1.5291
 3865SOL    HW211652   2.614   2.672   4.409  0.9058  1.9602  0.2850
 3866SOL     OW11653   0.371   0.987   1.682 -0.0348  0.2006 -0.3560
 3866SOL    HW111654   0.352   0.928   1.755 -3.9648 -0.9294 -2.0096
 3866SOL    HW211655   0.338   1.072   1.712  0.4298  0.2543  0.0028
 3867SOL     OW11656   3.590   1.663   0.448  0.1439  0.2280  0.2749
 3867SOL    HW111657   3.637   1.744   0.462  0.5745 -0.3918  2.9503
 3867SOL    HW211658   3.595   1.648   0.353  1.2485  2.5508 -0.0992
 3868SOL     OW11659   4.307   3.497   4.833  0.7335  0.0086 -0.1130
 3868SOL    HW111660   4.282   3.415   4.875  2.7896 -1.4457 -1.5425
 3868SOL    HW211661   4.399   3.510   4.858  0.7069  1.3931 -0.6408
 3869SOL     OW11662   4.711   2.449   4.171 -0.1386 -0.3036  0.1166
 3869SOL    HW111663   4.768   2.494   4.108 -0.4080 -1.0551 -0.6839
 3869SOL    HW211664   4.665   2.383   4.119 -2.6369  1.0399  0.4552
 3870SOL     OW11665   0.199   1.238   1.719  0.5219  0.0921 -0.5532
 3870SOL    HW111666   0.119   1.216   1.671 -0.2616 -0.8225  1.0898
 3870SOL    HW211667   0.225   1.323   1.684 -1.7442  0.8850 -0.4581
 3871SOL     OW11668   1.641   2.170   4.067 -0.0605  0.5969  0.3482
 3871SOL    HW111669   1.652   2.198   3.977 -0.3406  2.5006  0.8706
 3871SOL    HW211670   1.724   2.191   4.110 -0.0298 -0.0254  0.6137
 3872SOL     OW11671   4.284   0.247   4.737  0.2640 -0.7690 -0.1006
 3872SOL    HW111672   4.336   0.236   4.817 -1.3609 -1.0575  0.9592
 3872SOL    HW211673   4.214   0.307   4.762 -1.7481 -2.8197 -0.5511
 3873SOL     OW11674   2.357   1.481   2.516 -0.0563  0.0490  0.5024
 3873SOL    HW111675   2.424   1.428   2.558  0.4098  0.9431  0.9255
 3873SOL    HW211676   2.308   1.520   2.588  0.1489  0.8507  0.2230
 3874SOL     OW11677   3.575   1.208   0.464  0.7860 -0.5262  0.2540
 3874SOL    HW111678   3.655   1.211   0.411  0.4291  0.5144 -0.2488
 3874SOL    HW211679   3.581   1.125   0.511  1.6185 -0.9903 -0.6303
 3875SOL     OW11680   3.877   0.333   0.356  0.5850  0.3257 -0.7903
 3875SOL    HW111681   3.869   0.239   0.372  0.6439  0.7531  2.3878
 3875SOL    HW211682   3.792   0.369   0.380  0.9065  1.1973 -0.8968
 3876SOL     OW11683   0.031   3.345   2.042 -0.1615 -0.5160  0.1893
 3876SOL    HW111684   0.111   3.394   2.064  0.1101 -0.3136 -1.1804
 3876SOL    HW211685  -0.031   3.372   2.110  0.5313  0.3430  0.5195
 3877SOL     OW11686   2.303   3.416   4.903  0.3147  0.4291  0.6586
 3877SOL    HW111687   2.290   3.372   4.986 -2.2052 -1.4015 -0.5802
 3877SOL    HW211688   2.280   3.507   4.920  2.0969  0.6370  2.4126
 3878SOL     OW11689   0.109   3.204   0.199 -0.5913 -0.5253 -0.1979
 3878SOL    HW111690   0.155   3.187   0.117 -0.1168 -1.6127  0.2663
 3878SOL    HW211691   0.100   3.299   0.202  1.7128 -0.2447 -0.2849
 3879SOL     OW11692   2.405   3.957   0.902  0.2852  0.2558  0.2411
 3879SOL    HW111693   2.493   3.922   0.916 -0.1901 -1.3704 -0.5791
 3879SOL    HW211694   2.370   3.905   0.830 -1.7661  0.1225  1.2634
 3880SOL     OW11695   2.492   3.164   3.484 -0.0723  0.0984 -0.3745
 3880SOL    HW111696   2.469   3.224   3.555 -0.7474 -0.6529  0.0596
 3880SOL    HW211697   2.513   3.221   3.410 -0.8713  0.8633 -0.0237
 3881SOL     OW11698   2.713   1.126   4.791  0.0779  0.5101 -0.3483
 3881SOL    HW111699   2.742   1.053   4.737 -1.9050 -1.9757  1.6683
 3881SOL    HW211700   2.770   1.123   4.868  0.9999  2.1620 -0.9245
 3882SOL     OW11701   2.132   3.726   1.931  0.2962  0.2970  0.6702
 3882SOL    HW111702   2.221   3.746   1.960  0.4038 -1.2495  1.5055
 3882SOL    HW211703   2.135   3.634   1.907 -0.6862  0.6608 -0.9322
 3883SOL     OW11704   2.123   0.246   4.114 -0.4733 -0.0090 -0.7313
 3883SOL    HW111705   2.188   0.183   4.083 -2.0103 -1.8429 -0.4491
 3883SOL    HW211706   2.171   0.305   4.173  0.6258 -2.3652  0.8710
 3884SOL     OW11707   1.729   1.910   1.310  0.0753 -0.0246 -0.4364
 3884SOL    HW111708   1.660   1.845   1.325  0.2841 -0.4235 -1.1733
 3884SOL    HW211709   1.762   1.891   1.223  1.5338 -0.2360  0.1259
 3885SOL     OW11710   0.243   0.627   2.424 -0.3857 -0.3427  0.0635
 3885SOL    HW111711   0.266   0.559   2.361 -1.3415  1.5406 -2.4788
 3885SOL    HW211712   0.163   0.665   2.390 -1.8262 -0.1822  3.3020
 3886SOL     OW11713   4.608   1.219   2.460  0.2293 -0.6765 -0.3533
 3886SOL    HW111714   4.582   1.289   2.520  0.5751 -1.8530  1.2556
 3886SOL    HW211715   4.657   1.158   2.515 -0.1737 -2.2510 -1.6655
 3887SOL     OW11716   3.236   4.415   1.560 -0.8825  0.1723  0.2855
 3887SOL    HW111717   3.197   4.386   1.479 -1.0640  0.0455  0.4187
 3887SOL    HW211718   3.183   4.490   1.587 -1.7058 -0.6419  1.0162
 3888SOL     OW11719   2.268   4.220   3.233  0.2288 -0.5666  0.3824
 3888SOL    HW111720   2.229   4.182   3.312  1.3834  0.0492  1.2729
 3888SOL    HW211721   2.214   4.296   3.213  1.8140  1.2370  2.5480
 3889SOL     OW11722   3.378   4.399   3.005 -0.8225 -0.0429  0.1505
 3889SOL    HW111723   3.451   4.459   2.995  1.4901 -2.5711  0.6952
 3889SOL    HW211724   3.336   4.427   3.087 -0.0920  1.0366  0.1811
 3890SOL     OW11725   1.722   2.969   0.240  0.7124  0.0941 -0.1751
 3890SOL    HW111726   1.742   3.041   0.180  1.2376 -0.4180 -0.6250
 3890SOL    HW211727   1.728   2.890   0.186 -1.0178 -0.2232  0.0243
 3891SOL     OW11728   2.382   4.264   1.922 -0.0524  0.3145  0.2567
 3891SOL    HW111729   2.350   4.354   1.930  0.3019  0.4039  0.7027
 3891SOL    HW211730   2.339   4.231   1.843 -0.1643  0.8855  0.0687
 3892SOL     OW11731   4.922   1.592   3.031 -0.5886  0.2542  0.1888
 3892SOL    HW111732   4.971   1.669   3.002  0.1428 -0.2612  0.0497
 3892SOL    HW211733   4.830   1.616   3.016 -0.4046  1.2644  0.5366
 3893SOL     OW11734   3.933   0.788   0.893 -0.6916 -0.2091  0.2364
 3893SOL    HW111735   3.959   0.817   0.981 -0.2176  1.7180 -0.4952
 3893SOL    HW211736   3.851   0.835   0.876  0.2122  0.9841 -1.0769
 3894SOL     OW11737   2.974   2.298   3.513  0.4454 -0.1643  0.5001
 3894SOL    HW111738   3.065   2.318   3.531  0.3601  0.5070  0.2275
 3894SOL    HW211739   2.928   2.319   3.594  0.4087  0.4096  0.3364
 3895SOL     OW11740   2.755   1.135   4.337 -0.0630  0.6703 -0.1229
 3895SOL    HW111741   2.706   1.217   4.345 -0.2843  0.4340  1.2183
 3895SOL    HW211742   2.690   1.072   4.307 -0.0640  0.8281 -0.4546
 3896SOL     OW11743   2.298   3.077   1.363  0.1465  0.0799 -0.0551
 3896SOL    HW111744   2.349   3.084   1.282  0.9686 -0.2737  0.4174
 3896SOL    HW211745   2.218   3.125   1.345  1.3226  2.0630 -0.3018
 3897SOL     OW11746   0.195   3.088   4.344  0.0675  0.1666  0.5476
 3897SOL    HW111747   0.162   3.169   4.306  0.6470 -0.0928 -0.5649
 3897SOL    HW211748   0.167   3.019   4.284 -1.5293 -0.6535  2.1405
 3898SOL     OW11749   1.915   1.745   2.256 -0.5173  0.0034 -0.1975
 3898SOL    HW111750   1.919   1.736   2.161 -0.4786  0.4241 -0.2374
 3898SOL    HW211751   1.846   1.809   2.271 -0.3736  0.1030  0.0446
 3899SOL     OW11752   0.948   4.742   2.281 -0.0660  0.1846 -0.7338
 3899SOL    HW111753   0.876   4.759   2.342  0.7636 -1.7698  0.9254
 3899SOL    HW211754   0.985   4.829   2.264 -0.8027  0.8942  0.9702
 3900SOL     OW11755   1.657   1.955   2.714  0.2660  0.1484 -0.3151
 3900SOL    HW111756   1.665   1.860   2.708  0.3153  0.1131  0.2163
 3900SOL    HW211757   1.741   1.989   2.682  0.6537 -0.0316  0.4844
 3901SOL     OW11758   4.204   1.508   2.840 -0.0510 -0.0476  0.1735
 3901SOL    HW111759   4.152   1.579   2.878 -0.7050  0.3088 -1.3013
 3901SOL    HW211760   4.139   1.442   2.815  0.5172 -1.0021  1.1487
 3902SOL     OW11761   4.570   0.785   4.325  0.3003  0.3665 -0.6171
 3902SOL    HW111762   4.663   0.771   4.313  0.9191  2.1358  1.3749
 3902SOL    HW211763   4.529   0.702   4.300  2.4711 -0.7305 -0.7238
 3903SOL     OW11764   2.517   0.651   2.044  0.4043 -0.4144  0.1252
 3903SOL    HW111765   2.572   0.719   2.082  0.7705 -0.2743 -0.6454
 3903SOL    HW211766   2.564   0.569   2.063  0.0786 -0.4372  0.8498
 3904SOL     OW11767   1.053   1.923   4.798  0.1598 -0.6356 -0.2084
 3904SOL    HW111768   0.972   1.871   4.798 -0.0994 -0.2377 -1.0689
 3904SOL    HW211769   1.024   2.013   4.812  0.3526 -0.3544 -1.5166
 3905SOL     OW11770   4.526   1.746   1.289  0.3501 -0.5820  0.2505
 3905SOL    HW111771   4.515   1.805   1.363 -1.1239 -0.1757 -0.2569
 3905SOL    HW211772   4.613   1.709   1.300  0.2780 -0.2978  2.0126
 3906SOL     OW11773   2.577   2.013   1.155  0.4400  0.0617 -0.6034
 3906SOL    HW111774   2.637   2.065   1.209  0.8916 -0.9580 -0.0866
 3906SOL    HW211775   2.629   1.937   1.128 -0.3718 -0.4279 -0.8248
 3907SOL     OW11776   0.956   2.243   0.657  0.5445 -0.6066 -0.5694
 3907SOL    HW111777   0.954   2.339   0.654  1.5121 -0.5379  0.1192
 3907SOL    HW211778   1.023   2.218   0.594  1.9280 -0.6626  0.8396
 3908SOL     OW11779   2.402   1.256   3.221  0.2133 -0.0358 -0.4865
 3908SOL    HW111780   2.481   1.280   3.172  0.9603  2.1134  1.5250
 3908SOL    HW211781   2.331   1.300   3.175  0.6921  0.7297 -0.5214
 3909SOL     OW11782   0.871   2.630   1.908 -0.6158  0.1637 -0.1063
 3909SOL    HW111783   0.849   2.723   1.905 -0.3629  0.2176 -0.2513
 3909SOL    HW211784   0.809   2.593   1.971 -0.3069  0.5389  0.4183
 3910SOL     OW11785   0.523   2.110   1.717  0.9145 -0.2259 -0.0848
 3910SOL    HW111786   0.464   2.069   1.781  0.4296 -1.6580 -1.3663
 3910SOL    HW211787   0.606   2.065   1.729  0.3665 -1.7409 -1.5330
 3911SOL     OW11788   3.599   3.629   0.871  0.2400 -0.9669  0.0463
 3911SOL    HW111789   3.586   3.705   0.928  0.9097 -1.2709  0.6201
 3911SOL    HW211790   3.511   3.607   0.840  0.0427  0.0717 -0.1747
 3912SOL     OW11791   0.953   2.168   4.883 -0.1297 -0.2361  0.2609
 3912SOL    HW111792   1.037   2.213   4.890 -0.7798  1.2964 -1.0655
 3912SOL    HW211793   0.889   2.230   4.920 -1.1856  0.4464 -2.4877
 3913SOL     OW11794   1.820   1.780   4.645 -0.1810  0.0812  0.5910
 3913SOL    HW111795   1.841   1.691   4.616  0.4352 -0.3440  2.1957
 3913SOL    HW211796   1.769   1.767   4.726  0.6470  1.1716  1.3162
 3914SOL     OW11797   1.225   3.132   3.203 -0.1052  0.1619  0.0347
 3914SOL    HW111798   1.239   3.152   3.296  0.9850  2.3235 -0.5179
 3914SOL    HW211799   1.279   3.197   3.157 -0.7266 -0.7765 -2.1183
 3915SOL     OW11800   3.810   0.642   2.453  0.7815 -0.5383  0.2778
 3915SOL    HW111801   3.724   0.604   2.469 -0.0823 -0.0746 -2.6093
 3915SOL    HW211802   3.871   0.585   2.500 -0.9151 -2.0378  0.7824
 3916SOL     OW11803   1.359   4.756   0.686  0.6039 -0.0315 -0.4060
 3916SOL    HW111804   1.356   4.732   0.593  0.8443  1.3519 -0.7941
 3916SOL    HW211805   1.395   4.845   0.686  0.7942 -0.0969  1.0305
 3917SOL     OW11806   0.921   3.608   2.892 -0.3362  0.0449  0.0183
 3917SOL    HW111807   0.881   3.695   2.896  1.3250  0.9538 -1.4169
 3917SOL    HW211808   0.898   3.566   2.975 -0.0223  2.4046  1.3850
 3918SOL     OW11809   1.062   0.324   3.544 -0.0543 -0.1263 -0.3122
 3918SOL    HW111810   1.039   0.389   3.477 -0.1919 -1.5531 -1.7122
 3918SOL    HW211811   1.021   0.243   3.514  2.2746 -1.5022 -0.0708
 3919SOL     OW11812   4.544   1.214   3.859  0.3006 -1.1384  0.3101
 3919SOL    HW111813   4.488   1.202   3.783 -0.7509 -2.4950  1.2672
 3919SOL    HW211814   4.623   1.164   3.839  1.5439  1.2392 -1.2910
 3920SOL     OW11815   4.532   4.276   0.306  0.2058 -0.5614 -0.6136
 3920SOL    HW111816   4.487   4.201   0.267  0.9039 -1.8002  0.8520
 3920SOL    HW211817   4.617   4.242   0.333 -0.2902  0.0669  2.1578
 3921SOL     OW11818   0.802   2.996   4.303 -0.1668  0.0839 -0.4075
 3921SOL    HW111819   0.777   3.073   4.251 -0.1876 -0.0835 -0.6464
 3921SOL    HW211820   0.736   2.931   4.281  1.2799 -0.8728 -2.1861
 3922SOL     OW11821   1.164   4.868   4.932 -0.1669  0.7530 -0.2152
 3922SOL    HW111822   1.128   4.844   5.017 -0.7912  3.6513  0.4341
 3922SOL    HW211823   1.237   4.808   4.919 -1.9364 -1.8034  0.8804
 3923SOL     OW11824   4.404   2.548   0.748 -0.1978  0.2649  0.3974
 3923SOL    HW111825   4.444   2.511   0.669 -0.7484  0.9778 -0.2354
 3923SOL    HW211826   4.389   2.640   0.726 -0.8395  0.3484  1.1540
 3924SOL     OW11827   2.978   2.136   4.270 -0.6668 -0.6736 -0.4846
 3924SOL    HW111828   2.921   2.211   4.288 -0.1412 -0.1718 -0.8667
 3924SOL    HW211829   2.995   2.098   4.356  0.8523  0.9858  0.0156
 3925SOL     OW11830   4.506   4.039   2.810 -0.2332 -0.2720 -0.1256
 3925SOL    HW111831   4.535   3.996   2.890  0.6626 -0.9835 -0.8125
 3925SOL    HW211832   4.586   4.055   2.760 -0.7819  0.1049 -0.9124
 3926SOL     OW11833   4.819   0.846   1.881  0.0475  0.7371 -0.2644
 3926SOL    HW111834   4.824   0.794   1.960 -1.2910 -0.5781 -0.9882
 3926SOL    HW211835   4.737   0.896   1.890 -0.5819 -0.0880 -1.1593
 3927SOL     OW11836   3.513   1.954   3.111  0.0235  0.1764  0.3588
 3927SOL    HW111837   3.423   1.922   3.110  0.1680 -0.2348 -0.8567
 3927SOL    HW211838   3.558   1.896   3.173  0.0235 -1.3118 -0.9633
 3928SOL     OW11839   3.805   3.298   4.194  0.3866  0.3624  0.4639
 3928SOL    HW111840   3.841   3.384   4.218  0.0629  0.4294  0.7169
 3928SOL    HW211841   3.828   3.287   4.102  0.0334  0.9320  0.3011
 3929SOL     OW11842   2.278   0.363   1.435 -0.3824  0.3769 -0.0184
 3929SOL    HW111843   2.210   0.365   1.369  1.0987  0.8047 -1.5932
 3929SOL    HW211844   2.306   0.272   1.439  1.0727  0.6901 -1.7098
 3930SOL     OW11845   2.048   2.953   2.421 -0.1916 -0.1129 -0.1761
 3930SOL    HW111846   2.005   3.033   2.394 -1.3912 -0.4420  0.6956
 3930SOL    HW211847   2.092   2.976   2.503  0.7541  0.0316 -0.6984
 3931SOL     OW11848   0.031   1.045   3.889 -0.2420  0.0061 -0.4832
 3931SOL    HW111849   0.122   1.044   3.919 -0.5425  0.7409  0.4840
 3931SOL    HW211850   0.027   0.975   3.824  0.9131 -0.3089 -0.2403
 3932SOL     OW11851   4.979   0.228   0.425  0.0589  0.3255 -0.4829
 3932SOL    HW111852   5.044   0.298   0.417 -0.2119  0.4884 -1.3436
 3932SOL    HW211853   4.995   0.191   0.512  1.0814  0.5881 -0.5373
 3933SOL     OW11854   3.866   3.634   1.134 -0.2925  0.1475 -0.8222
 3933SOL    HW111855   3.878   3.667   1.045  0.3601  2.4619  0.0441
 3933SOL    HW211856   3.846   3.712   1.186  0.7364 -0.9104  1.2947
 3934SOL     OW11857   4.742   4.612   1.619  0.1019  0.1083 -1.1228
 3934SOL    HW111858   4.777   4.698   1.594 -0.1491  0.7275  0.4749
 3934SOL    HW211859   4.650   4.629   1.641  0.3038 -0.3255  0.1883
 3935SOL     OW11860   2.762   0.580   0.789  0.0640 -0.4769  0.2518
 3935SOL    HW111861   2.788   0.601   0.878 -1.8680  1.9904  0.3342
 3935SOL    HW211862   2.825   0.626   0.734 -0.3271  0.2029  0.3732
 3936SOL     OW11863   1.948   4.792   4.340 -0.3587  0.4123 -0.7312
 3936SOL    HW111864   1.978   4.871   4.294  0.8051  0.2943 -0.2103
 3936SOL    HW211865   1.924   4.824   4.427  1.4330  0.0109 -0.0534
 3937SOL     OW11866   3.256   4.242   0.854  0.2970 -0.5800 -0.3606
 3937SOL    HW111867   3.317   4.315   0.864  1.0534 -1.2203 -0.1826
 3937SOL    HW211868   3.188   4.258   0.920  0.1550  0.2520 -0.7061
 3938SOL     OW11869   2.062   4.428   3.233  0.0371 -0.2330  0.2829
 3938SOL    HW111870   2.088   4.520   3.232 -1.6998  0.3040 -0.2563
 3938SOL    HW211871   2.029   4.413   3.322  0.8606 -0.5213  0.5497
 3939SOL     OW11872   2.657   0.106   0.899  0.2474  0.4334  0.4032
 3939SOL    HW111873   2.586   0.141   0.953  0.0739  1.0347 -0.1976
 3939SOL    HW211874   2.691   0.182   0.852 -0.0184 -0.1650 -0.7995
 3940SOL     OW11875   0.371   4.807   1.958  0.0948 -0.6609  0.0067
 3940SOL    HW111876   0.453   4.757   1.968  0.2789 -0.3971 -0.1632
 3940SOL    HW211877   0.370   4.866   2.034  0.2036 -0.4653 -0.1441
 3941SOL     OW11878   4.137   3.124   3.347 -0.2484 -0.4413  0.3539
 3941SOL    HW111879   4.110   3.205   3.390  1.1872 -0.4904  1.4082
 3941SOL    HW211880   4.059   3.069   3.349 -1.3906  1.0458 -0.7961
 3942SOL     OW11881   3.493   4.289   2.369  0.0573  0.0514  0.0066
 3942SOL    HW111882   3.551   4.271   2.443  0.9180 -1.2652 -0.9494
 3942SOL    HW211883   3.452   4.373   2.390 -1.0046 -1.0470  2.7737
 3943SOL     OW11884   1.419   3.471   2.597 -0.5246 -0.1214 -0.2052
 3943SOL    HW111885   1.353   3.497   2.533 -1.9703 -0.7007  1.0033
 3943SOL    HW211886   1.374   3.473   2.681  0.9015 -0.8938  0.6267
 3944SOL     OW11887   4.109   4.546   0.949 -0.4425  0.0746  0.0366
 3944SOL    HW111888   4.082   4.528   0.859 -1.9484  0.2048  0.4461
 3944SOL    HW211889   4.130   4.459   0.985 -0.4134 -0.0402 -0.2544
 3945SOL     OW11890   3.570   0.770   1.533  0.6214 -0.3665 -0.2928
 3945SOL    HW111891   3.585   0.830   1.606 -0.7398 -1.2198  0.7278
 3945SOL    HW211892   3.634   0.700   1.545  0.4678 -0.4532  0.0329
 3946SOL     OW11893   2.482   0.507   2.722  0.0757  0.4603  0.1222
 3946SOL    HW111894   2.486   0.483   2.629 -1.4380 -0.0284  0.1490
 3946SOL    HW211895   2.436   0.433   2.763  0.5964  0.7376  1.2450
 3947SOL     OW11896   2.799   4.047   3.170 -0.1618  0.0049 -0.7207
 3947SOL    HW111897   2.795   4.052   3.265  0.9267 -0.0977 -0.6611
 3947SOL    HW211898   2.758   4.127   3.139  0.5032  0.5773 -0.1382
 3948SOL     OW11899   2.983   3.640   2.348 -0.1605  0.5397 -0.1893
 3948SOL    HW111900   2.938   3.571   2.396  2.5797 -0.3928  1.2299
 3948SOL    HW211901   3.035   3.594   2.282  2.8199  0.9692  1.6870
 3949SOL     OW11902   1.874   4.029   4.237 -0.2077  0.0282 -0.8434
 3949SOL    HW111903   1.837   3.950   4.276 -0.3942 -0.6318 -2.2629
 3949SOL    HW211904   1.829   4.101   4.281 -2.6346 -0.7235 -1.9143
 3950SOL     OW11905   2.406   4.293   2.798 -0.4373  0.4558 -0.3248
 3950SOL    HW111906   2.335   4.343   2.837  0.2741  0.8150  0.5465
 3950SOL    HW211907   2.362   4.225   2.746 -1.4333  1.9215 -1.5168
 3951SOL     OW11908   2.949   3.163   1.955  0.2952 -0.0025  0.0919
 3951SOL    HW111909   3.030   3.182   1.909  0.5163 -0.0743  0.4521
 3951SOL    HW211910   2.946   3.068   1.961  0.4142  0.0206  0.4949
 3952SOL     OW11911   1.851   4.102   3.080  0.1873  0.1539  0.4158
 3952SOL    HW111912   1.866   4.060   3.165 -1.1338 -0.9937  0.1174
 3952SOL    HW211913   1.931   4.084   3.030 -0.6342 -2.8320  0.0065
 3953SOL     OW11914   3.072   1.079   4.682 -0.0865  0.5300 -0.0830
 3953SOL    HW111915   3.077   1.137   4.605 -0.1534  2.7104  1.4698
 3953SOL    HW211916   3.005   1.015   4.659  0.0237  0.9908 -1.8987
 3954SOL     OW11917   3.088   2.854   0.608 -0.1463 -0.0725  0.0901
 3954SOL    HW111918   3.094   2.948   0.596  0.2886 -0.1249 -0.1141
 3954SOL    HW211919   3.148   2.834   0.680  0.1293 -0.2556 -0.1889
 3955SOL     OW11920   0.261   0.036   3.408  0.3731  0.2749  0.7994
 3955SOL    HW111921   0.295   0.114   3.453 -1.8373  1.2205  0.9700
 3955SOL    HW211922   0.203   0.071   3.340  1.9868 -1.1867 -1.4752
 3956SOL     OW11923   1.684   4.309   3.186 -0.2480  0.0224 -0.3872
 3956SOL    HW111924   1.739   4.243   3.142 -1.2008  0.0745 -1.7071
 3956SOL    HW211925   1.689   4.285   3.279 -0.9480 -2.2509 -0.8546
 3957SOL     OW11926   2.111   4.292   0.092 -0.1516 -0.0405  0.2731
 3957SOL    HW111927   2.118   4.348   0.170  1.7047 -1.5013  1.2175
 3957SOL    HW211928   2.019   4.302   0.065 -0.4896  1.6039  1.7862
 3958SOL     OW11929   4.002   1.501   1.942 -0.1531 -0.1112  0.1902
 3958SOL    HW111930   4.012   1.578   1.887 -0.1934  0.6643  1.2484
 3958SOL    HW211931   4.008   1.427   1.881 -1.3614  0.7465 -1.0066
 3959SOL     OW11932   2.084   4.516   0.630  0.5148  0.2786 -0.2982
 3959SOL    HW111933   2.085   4.604   0.592 -1.4236 -0.0646 -1.2734
 3959SOL    HW211934   2.176   4.499   0.652  1.4067  1.4566 -2.6733
 3960SOL     OW11935   3.673   3.015   3.927 -0.3760  0.1101 -0.3463
 3960SOL    HW111936   3.633   2.998   3.841  0.9545 -0.7680 -0.8242
 3960SOL    HW211937   3.737   3.083   3.910  1.9016 -1.9738 -0.7218
 3961SOL     OW11938   2.722   4.092   0.737 -0.3731 -0.6044  0.7655
 3961SOL    HW111939   2.629   4.079   0.754 -0.5228 -2.9550 -1.2795
 3961SOL    HW211940   2.767   4.060   0.815 -1.2137  1.1267  2.0334
 3962SOL     OW11941   1.063   3.972   2.052 -0.0353 -0.6358  0.9930
 3962SOL    HW111942   1.085   3.900   2.111  0.3443  0.9662  2.9438
 3962SOL    HW211943   0.990   4.017   2.096  2.9957  3.1824  2.7276
 3963SOL     OW11944   1.839   2.767   2.665 -0.0088  0.3329 -0.6707
 3963SOL    HW111945   1.891   2.841   2.697 -0.6297  0.9116 -0.9701
 3963SOL    HW211946   1.891   2.690   2.687 -0.2981  0.7072  1.4753
 3964SOL     OW11947   3.770   3.405   1.220 -0.5671  0.4626  0.2787
 3964SOL    HW111948   3.830   3.479   1.211  2.1486 -1.6056  0.2506
 3964SOL    HW211949   3.732   3.395   1.132 -1.4375  2.1176  0.4279
 3965SOL     OW11950   1.813   4.657   4.680  0.2321 -0.5902 -0.4519
 3965SOL    HW111951   1.730   4.698   4.707  1.4221  2.4287 -0.9702
 3965SOL    HW211952   1.790   4.605   4.603 -1.0714  0.8637 -1.1033
 3966SOL     OW11953   3.580   3.040   1.602  0.1307 -0.2345  0.3671
 3966SOL    HW111954   3.601   3.055   1.510  0.7008  0.6042  0.6301
 3966SOL    HW211955   3.655   3.074   1.651 -0.2018 -0.5863  1.1555
 3967SOL     OW11956   1.609   4.884   3.622  0.3595 -0.0839 -0.2101
 3967SOL    HW111957   1.672   4.838   3.677  0.5539  1.1250  0.6069
 3967SOL    HW211958   1.635   4.863   3.532  1.2891 -0.4301  0.1316
 3968SOL     OW11959   0.024   2.209   1.024 -0.5757  0.0980  0.1131
 3968SOL    HW111960   0.097   2.238   0.969 -1.2352  1.3436 -0.1444
 3968SOL    HW211961   0.010   2.282   1.085 -1.2856 -0.3409  0.4901
 3969SOL     OW11962   4.915   3.535   3.855 -0.4639 -0.4225  0.2164
 3969SOL    HW111963   4.957   3.467   3.907  2.9713  0.1508 -1.5363
 3969SOL    HW211964   4.902   3.495   3.769  0.2386  0.6404 -0.4062
 3970SOL     OW11965   4.428   4.870   0.924 -0.4328  0.2678 -0.0803
 3970SOL    HW111966   4.468   4.872   1.011  1.2807 -0.3286 -0.8131
 3970SOL    HW211967   4.406   4.961   0.906 -1.1117  0.3557  1.0926
 3971SOL     OW11968   1.231   0.230   4.361 -0.3247 -0.5306  0.0099
 3971SOL    HW111969   1.270   0.144   4.344 -1.4305 -0.8431 -1.1868
 3971SOL    HW211970   1.230   0.273   4.275  1.8998  1.4658  0.9099
 3972SOL     OW11971   2.168   2.952   3.618 -0.3116 -0.9226  0.4692
 3972SOL    HW111972   2.225   2.930   3.692 -1.6179 -0.7292  1.5724
 3972SOL    HW211973   2.091   2.993   3.659  0.7691  3.3808 -1.1849
 3973SOL     OW11974   0.479   3.181   4.737  0.7116  0.2460 -0.0770
 3973SOL    HW111975   0.439   3.103   4.775  0.2710  0.6032  0.1973
 3973SOL    HW211976   0.477   3.246   4.806 -0.3204  0.9846 -0.7779
 3974SOL     OW11977   2.767   0.056   4.677  0.6013 -0.5955 -0.3746
 3974SOL    HW111978   2.837   0.042   4.612 -0.0557 -0.3139 -1.1598
 3974SOL    HW211979   2.810   0.042   4.761  1.5674 -0.6016 -0.8498
 3975SOL     OW11980   4.685   2.452   3.729  0.0277 -0.6715 -0.0068
 3975SOL    HW111981   4.715   2.370   3.767 -1.0432 -1.7385 -1.3485
 3975SOL    HW211982   4.699   2.441   3.635 -0.0085  0.7481 -0.1986
 3976SOL     OW11983   3.158   2.252   1.689  0.0639 -0.5457  0.4521
 3976SOL    HW111984   3.123   2.342   1.684 -1.3432 -0.9079  2.6074
 3976SOL    HW211985   3.120   2.208   1.613 -0.8770  0.1857  0.4758
 3977SOL     OW11986   4.405   4.225   2.089  0.0251 -0.6339  0.0683
 3977SOL    HW111987   4.482   4.169   2.077  1.0538  0.8449 -0.4253
 3977SOL    HW211988   4.407   4.285   2.015  1.2016  2.6227  2.4964
 3978SOL     OW11989   3.736   3.693   3.598 -0.1901 -0.4002  0.3637
 3978SOL    HW111990   3.755   3.776   3.553 -0.3175 -0.2641  0.5589
 3978SOL    HW211991   3.658   3.712   3.650 -0.7198 -0.8783 -0.2335
 3979SOL     OW11992   3.472   2.653   3.364 -0.1151  0.4086  0.3178
 3979SOL    HW111993   3.414   2.595   3.413  0.3254  0.4393  0.8863
 3979SOL    HW211994   3.438   2.741   3.380 -0.2740  0.3758  0.1562
 3980SOL     OW11995   1.115   2.845   1.349  0.1691 -0.2786  0.3247
 3980SOL    HW111996   1.128   2.936   1.322 -1.3116  0.3529  1.6116
 3980SOL    HW211997   1.160   2.794   1.281  0.5152  1.3723 -0.7570
 3981SOL     OW11998   0.204   1.639   4.424 -0.2578  0.0179  0.7490
 3981SOL    HW111999   0.150   1.560   4.420  1.8593 -1.4627 -0.9731
 3981SOL    HW212000   0.167   1.696   4.357  0.3174 -1.0494 -0.5304
 3982SOL     OW12001   3.222   4.254   1.324  0.0481  0.1064  0.2557
 3982SOL    HW112002   3.156   4.216   1.382 -1.0675  2.0414  0.3637
 3982SOL    HW212003   3.186   4.244   1.236 -0.5657  1.3514  0.3310
 3983SOL     OW12004   3.299   4.899   3.775 -0.2647 -0.2087 -0.0359
 3983SOL    HW112005   3.303   4.880   3.869  0.1769 -1.8354 -0.3429
 3983SOL    HW212006   3.208   4.923   3.758  0.1078  2.3755  1.1637
 3984SOL     OW12007   0.332   4.281   4.350 -0.1053 -0.5828  0.3874
 3984SOL    HW112008   0.258   4.221   4.356  0.7246 -1.7870 -0.9395
 3984SOL    HW212009   0.322   4.324   4.265  0.4895 -0.4384  0.3845
 3985SOL     OW12010   4.761   3.147   1.680 -0.0309  0.1396 -0.1439
 3985SOL    HW112011   4.841   3.163   1.729  0.7254 -1.5687 -0.7459
 3985SOL    HW212012   4.740   3.232   1.640  1.6632  0.5426 -0.2500
 3986SOL     OW12013   2.735   2.934   3.126  0.5208  0.2653 -0.0068
 3986SOL    HW112014   2.817   2.951   3.080 -0.5122 -1.3727 -2.6633
 3986SOL    HW212015   2.758   2.868   3.192  1.1502 -1.2178 -1.6477
 3987SOL     OW12016   1.904   0.702   1.424 -0.0873  0.2137  0.2345
 3987SOL    HW112017   1.896   0.625   1.367  1.9458 -1.9212  2.5975
 3987SOL    HW212018   1.935   0.772   1.366  0.2012 -1.3446 -1.5796
 3988SOL     OW12019   0.162   4.388   2.315 -0.8578  0.0471 -0.4228
 3988SOL    HW112020   0.179   4.294   2.319 -1.9537 -0.1880 -0.9972
 3988SOL    HW212021   0.196   4.414   2.230 -0.2289  0.2576 -0.1180
 3989SOL     OW12022   3.298   2.431   3.466 -0.4335 -0.1486  0.8258
 3989SOL    HW112023   3.329   2.340   3.469  0.8397  0.2820  1.4631
 3989SOL    HW212024   3.263   2.447   3.553 -1.5269 -0.2968  0.4297
 3990SOL     OW12025   3.408   2.249   1.172 -0.1766 -0.5743  0.5042
 3990SOL    HW112026   3.390   2.235   1.079 -0.9994  0.2453  0.5184
 3990SOL    HW212027   3.322   2.244   1.213  0.1271 -0.4722  1.1535
 3991SOL     OW12028   4.802   0.364   1.295  0.5567 -0.1454  0.1935
 3991SOL    HW112029   4.778   0.315   1.216  0.8070 -0.3877  0.2667
 3991SOL    HW212030   4.880   0.413   1.271  0.2361  0.3111  0.0851
 3992SOL     OW12031   1.501   2.906   1.684  0.5169 -0.0705  0.5200
 3992SOL    HW112032   1.483   2.961   1.760  1.5752 -0.0258  0.7523
 3992SOL    HW212033   1.587   2.935   1.653 -1.0227  1.8434 -2.4120
 3993SOL     OW12034   3.893   1.320   2.468 -0.1086 -0.5937  0.2114
 3993SOL    HW112035   3.962   1.357   2.413  0.6699  0.1583  1.6471
 3993SOL    HW212036   3.829   1.285   2.405  0.7373  0.2179 -1.1628
 3994SOL     OW12037   4.563   4.938   1.140 -0.3506  0.6816  0.1350
 3994SOL    HW112038   4.613   4.904   1.214 -1.2055 -0.5708  0.1543
 3994SOL    HW212039   4.559   5.033   1.156 -1.3960  0.3463  2.2586
 3995SOL     OW12040   0.060   3.860   0.871 -0.6076 -0.1065 -0.4236
 3995SOL    HW112041  -0.001   3.840   0.941 -0.1669 -0.7614 -0.2131
 3995SOL    HW212042   0.035   3.947   0.840 -0.9796  0.0643  0.3529
 3996SOL     OW12043   4.141   3.433   4.620 -0.2828 -0.7864  0.3388
 3996SOL    HW112044   4.143   3.472   4.708  0.0773 -0.9738  0.4171
 3996SOL    HW212045   4.232   3.405   4.605  0.1166  0.9619 -0.8580
 3997SOL     OW12046   1.044   0.726   2.695  0.1610 -0.4354 -0.3571
 3997SOL    HW112047   0.971   0.672   2.724  0.6820 -0.8297  0.2405
 3997SOL    HW212048   1.015   0.763   2.612  0.2256 -2.5488 -1.4002
 3998SOL     OW12049   3.587   3.823   3.237  0.0721 -0.2216  0.0501
 3998SOL    HW112050   3.620   3.733   3.233  1.1323  0.1363  0.5054
 3998SOL    HW212051   3.621   3.865   3.158 -0.6975 -0.2979 -0.3316
 3999SOL     OW12052   1.602   4.442   3.864 -0.2717 -0.7652  0.0685
 3999SOL    HW112053   1.594   4.379   3.935 -0.8557 -0.1938  0.5120
 3999SOL    HW212054   1.575   4.525   3.902  2.0870  0.1222 -0.0103
 4000SOL     OW12055   2.598   1.389   2.168  0.1341 -0.3963 -0.0808
 4000SOL    HW112056   2.581   1.365   2.077 -1.2437  0.5118 -0.0944
 4000SOL    HW212057   2.599   1.484   2.167 -3.5450 -0.1956  1.3802
 4001SOL     OW12058   3.636   2.579   0.569 -0.6124 -0.2916  0.2502
 4001SOL    HW112059   3.718   2.581   0.618 -0.2014  0.0367 -0.4493
 4001SOL    HW212060   3.607   2.670   0.565 -0.8650 -0.3692  0.2422
 4002SOL     OW12061   3.985   3.905   0.134  0.7440  0.4556 -0.1846
 4002SOL    HW112062   3.920   3.912   0.064  2.2244  1.0186 -1.5864
 4002SOL    HW212063   4.046   3.838   0.102  3.0431  2.7277 -0.8651
 4003SOL     OW12064   2.660   0.733   3.482 -0.5759 -0.1507 -0.2102
 4003SOL    HW112065   2.578   0.778   3.504 -0.5833 -0.5784  0.6736
 4003SOL    HW212066   2.644   0.697   3.394 -0.9320  0.7067 -0.5018
 4004SOL     OW12067   2.881   1.752   1.381  0.2872  0.0077  0.6753
 4004SOL    HW112068   2.844   1.756   1.469  0.2067 -0.5705  0.6720
 4004SOL    HW212069   2.917   1.839   1.366  0.4139  0.0751  1.3319
 4005SOL     OW12070   4.049   4.674   2.759 -0.2702 -0.2462  0.0495
 4005SOL    HW112071   4.116   4.700   2.823  1.3911 -0.0514 -1.6755
 4005SOL    HW212072   4.099   4.651   2.680 -2.1978 -1.0819 -0.9965
 4006SOL     OW12073   2.638   4.427   2.807 -0.5328 -0.3590  0.5698
 4006SOL    HW112074   2.547   4.398   2.816 -0.3125 -1.2640  0.0173
 4006SOL    HW212075   2.632   4.521   2.788 -1.4511 -0.7796 -1.4681
 4007SOL     OW12076   4.795   3.676   2.061  0.1261 -0.4709 -0.3904
 4007SOL    HW112077   4.719   3.696   2.116 -0.1263 -0.1305 -0.8469
 4007SOL    HW212078   4.849   3.618   2.114  0.0131  0.0452  0.3050
 4008SOL     OW12079   4.718   1.281   4.419  0.0664  0.6972  0.0702
 4008SOL    HW112080   4.689   1.201   4.463 -0.3246  1.1778  0.7084
 4008SOL    HW212081   4.696   1.267   4.327  1.4836 -0.5897 -0.1158
 4009SOL     OW12082   1.897   0.537   0.838  0.0449 -0.4446  0.0973
 4009SOL    HW112083   1.876   0.509   0.749  0.9821 -1.0952  0.0648
 4009SOL    HW212084   1.929   0.458   0.881  1.4248  0.2768  0.4312
 4010SOL     OW12085   4.771   3.907   4.104 -0.2393  0.6703  0.0891
 4010SOL    HW112086   4.749   3.849   4.032 -0.0549  1.5292 -0.6771
 4010SOL    HW212087   4.855   3.874   4.137 -0.8855 -0.4212  0.6784
 4011SOL     OW12088   1.215   4.370   2.613 -0.5336 -0.1151  0.6337
 4011SOL    HW112089   1.142   4.430   2.627 -1.4993 -0.6574 -1.6895
 4011SOL    HW212090   1.198   4.331   2.527  2.5497 -0.1767 -0.0571
 4012SOL     OW12091   0.825   2.494   3.384 -0.1880  0.1418 -0.0215
 4012SOL    HW112092   0.783   2.411   3.406  1.1649 -1.1114 -1.8167
 4012SOL    HW212093   0.884   2.473   3.311 -1.1687  3.0535 -1.8488
 4013SOL     OW12094   0.910   3.343   2.453  0.3968  0.5559 -0.4497
 4013SOL    HW112095   0.886   3.369   2.364  2.4515  0.5503 -1.0550
 4013SOL    HW212096   0.991   3.293   2.442 -0.4955 -1.4206  1.2197
 4014SOL     OW12097   4.855   0.031   1.344  0.1334  0.6757  0.4892
 4014SOL    HW112098   4.918  -0.036   1.315  0.7116  1.4773 -0.1829
 4014SOL    HW212099   4.855   0.095   1.273 -2.3486  0.1360 -0.0877
 4015SOL     OW12100   1.658   0.096   3.792  0.1135 -0.0080 -0.4116
 4015SOL    HW112101   1.663   0.044   3.712 -1.7523 -0.1430 -0.4819
 4015SOL    HW212102   1.587   0.057   3.842  1.6433 -0.2942  1.6267
 4016SOL     OW12103   0.115   2.183   2.447 -0.2941 -0.3126 -0.2897
 4016SOL    HW112104   0.097   2.089   2.447  0.2278 -0.4176 -0.3173
 4016SOL    HW212105   0.139   2.202   2.356  1.1776 -0.4828  0.0267
 4017SOL     OW12106   1.192   4.429   1.584 -0.3110 -0.0767 -0.1790
 4017SOL    HW112107   1.116   4.372   1.598 -1.1090  1.3486  1.7720
 4017SOL    HW212108   1.163   4.515   1.612  1.7577  0.7054 -0.2818
 4018SOL     OW12109   4.230   1.527   0.809  0.0697  0.0042  0.2894
 4018SOL    HW112110   4.283   1.458   0.770  0.2295  0.8468 -1.0484
 4018SOL    HW212111   4.139   1.499   0.793  0.1361  0.3772 -0.7596
 4019SOL     OW12112   4.182   4.172   0.825 -0.0159 -0.0390 -0.2009
 4019SOL    HW112113   4.266   4.125   0.820  1.0750  1.4637  2.2282
 4019SOL    HW212114   4.182   4.228   0.748 -0.1968 -2.1166 -1.8058
 4020SOL     OW12115   1.706   1.795   1.971 -0.0054  0.4738  0.4624
 4020SOL    HW112116   1.684   1.861   2.037 -1.1329  2.4413 -1.7363
 4020SOL    HW212117   1.655   1.718   1.996 -3.0506  2.2309  0.1677
 4021SOL     OW12118   4.594   3.863   3.836  0.1813  0.1247  0.1499
 4021SOL    HW112119   4.620   3.787   3.888 -0.5844 -0.6778 -0.6134
 4021SOL    HW212120   4.565   3.826   3.753 -0.0205  1.2748 -0.3055
 4022SOL     OW12121   0.706   0.352   2.718  0.3299  0.1509 -0.4799
 4022SOL    HW112122   0.695   0.297   2.640  0.3725 -0.6438  0.0593
 4022SOL    HW212123   0.801   0.361   2.727  0.3276  2.3169 -1.9133
 4023SOL     OW12124   0.397   0.155   1.499 -0.0984 -0.4336  0.2035
 4023SOL    HW112125   0.439   0.203   1.428 -0.2884 -0.5949 -0.0183
 4023SOL    HW212126   0.303   0.164   1.482 -0.1477 -0.4025  0.4806
 4024SOL     OW12127   1.868   3.989   3.957  0.4448  1.2702 -0.1338
 4024SOL    HW112128   1.796   4.040   3.921 -0.9392 -0.2905  0.2925
 4024SOL    HW212129   1.848   3.981   4.051  0.7410  0.1738 -0.1423
 4025SOL     OW12130   2.064   0.191   0.600 -0.4833 -0.1521 -0.4300
 4025SOL    HW112131   2.085   0.109   0.555  0.2879  0.2747 -0.8788
 4025SOL    HW212132   2.137   0.203   0.661 -0.7544  0.0483 -0.1441
 4026SOL     OW12133   0.741   4.780   0.774  0.1629 -0.1986 -0.4078
 4026SOL    HW112134   0.705   4.748   0.857 -0.5457  2.2072  0.2869
 4026SOL    HW212135   0.794   4.856   0.798 -1.2191  1.4486 -2.2489
 4027SOL     OW12136   2.577   3.554   4.507 -0.0394 -0.7067  0.2258
 4027SOL    HW112137   2.656   3.504   4.485 -0.4405 -1.2292 -0.0401
 4027SOL    HW212138   2.580   3.562   4.602  0.3002 -0.7823  0.2238
 4028SOL     OW12139   0.947   3.658   0.712 -0.3459  0.0289 -0.1489
 4028SOL    HW112140   0.938   3.752   0.694  0.1171 -0.1981 -1.6896
 4028SOL    HW212141   1.040   3.641   0.703 -0.6952 -1.0007 -2.2319
 4029SOL     OW12142   3.952   0.625   3.566 -0.5799 -0.1355 -0.2948
 4029SOL    HW112143   3.950   0.530   3.558  1.0086 -0.2037 -0.2451
 4029SOL    HW212144   3.985   0.656   3.482  0.4241  0.2528  0.2276
 4030SOL     OW12145   1.940   4.901   3.371  0.0867 -0.1328  0.0729
 4030SOL    HW112146   1.987   4.829   3.413 -1.1563 -2.2667 -2.0347
 4030SOL    HW212147   1.859   4.863   3.340 -0.2037  1.9532 -1.9824
 4031SOL     OW12148   4.182   0.578   2.832 -0.6065 -0.3247  0.0019
 4031SOL    HW112149   4.183   0.579   2.928 -1.5391  1.1273  0.0326
 4031SOL    HW212150   4.178   0.671   2.808 -1.9213 -0.7121 -1.4200
 4032SOL     OW12151   0.081   0.102   1.970 -0.2335  0.3181 -0.5019
 4032SOL    HW112152   0.086   0.016   2.012 -0.5454  0.2525 -0.5991
 4032SOL    HW212153   0.163   0.145   1.994 -0.2185  0.1152 -0.1869
 4033NA      NA12154   0.238   3.734   0.930 -0.1299  0.2928 -0.6018
   4.98187   4.98187   4.98187
